/*--------------------------------*- C++ -*----------------------------------*\
| =========                 |                                                 |
| \\      /  F ield         | OpenFOAM: The Open Source CFD Toolbox           |
|  \\    /   O peration     | Version:  v2106                                 |
|   \\  /    A nd           | Website:  www.openfoam.com                      |
|    \\/     M anipulation  |                                                 |
\*---------------------------------------------------------------------------*/
FoamFile
{
    version     2.0;
    format      ascii;
    arch        "LSB;label=32;scalar=64";
    class       surfaceScalarField;
    location    "0.000131";
    object      phi;
}
// * * * * * * * * * * * * * * * * * * * * * * * * * * * * * * * * * * * * * //

dimensions      [1 0 -1 0 0 0 0];

internalField   nonuniform List<scalar> 
52267
(
3.11861e-09
3.1137e-09
-8.4565e-08
-3.46022e-09
-3.46073e-09
2.67527e-09
3.15145e-09
-8.44853e-08
-3.44933e-09
2.19372e-09
3.39344e-09
-8.43475e-08
-3.72398e-09
1.66579e-09
3.45511e-09
-8.42462e-08
-3.80315e-09
1.12333e-09
3.54495e-09
-8.41656e-08
-3.92792e-09
5.66754e-10
3.57845e-09
-8.41289e-08
-3.97636e-09
3.5963e-09
-8.4117e-08
-3.99736e-09
3.15426e-09
2.67002e-09
-8.44854e-08
-3.44929e-09
2.75039e-09
2.74558e-09
-8.43903e-08
2.31664e-09
2.93446e-09
-8.42477e-08
1.80387e-09
3.0036e-09
-8.41431e-08
1.24288e-09
3.0824e-09
-8.40493e-08
6.35517e-10
3.1246e-09
-8.39905e-08
3.15083e-09
-8.3967e-08
3.39728e-09
2.18889e-09
-8.43474e-08
-3.72441e-09
2.93919e-09
2.31195e-09
-8.42474e-08
2.44683e-09
2.44265e-09
-8.40894e-08
1.88263e-09
2.51464e-09
-8.39996e-08
1.27984e-09
2.56958e-09
-8.39167e-08
6.47892e-10
2.60293e-09
-8.38721e-08
2.62328e-09
-8.38547e-08
3.46013e-09
1.66258e-09
-8.4246e-08
-3.8042e-09
3.00915e-09
1.80162e-09
-8.41428e-08
2.5185e-09
1.88016e-09
-8.39996e-08
1.95296e-09
1.9518e-09
-8.39122e-08
1.33475e-09
1.9938e-09
-8.38368e-08
6.77572e-10
2.02251e-09
-8.37902e-08
2.03872e-09
-8.37722e-08
3.5527e-09
1.12281e-09
-8.41649e-08
-3.93007e-09
3.08939e-09
1.24383e-09
-8.40487e-08
2.57383e-09
1.28048e-09
-8.39163e-08
1.99477e-09
1.33671e-09
-8.38363e-08
1.36077e-09
1.36327e-09
-8.37669e-08
6.90176e-10
1.38384e-09
-8.3725e-08
1.39442e-09
-8.37087e-08
3.58789e-09
5.67739e-10
-8.41279e-08
-3.9803e-09
3.13329e-09
6.38152e-10
-8.39896e-08
2.60857e-09
6.51094e-10
-8.38723e-08
2.02442e-09
6.81841e-10
-8.37912e-08
1.38161e-09
6.9523e-10
-8.37272e-08
7.00993e-10
7.06662e-10
-8.36856e-08
7.11951e-10
-8.36698e-08
3.60477e-09
1.20116e-12
-8.41167e-08
-4.00203e-09
3.15857e-09
2.67636e-12
-8.39664e-08
2.62836e-09
4.03828e-12
-8.38543e-08
2.04049e-09
4.93057e-12
-8.37718e-08
1.3924e-09
5.97254e-12
-8.37088e-08
7.06759e-10
6.77791e-12
-8.36673e-08
6.1788e-12
-8.36521e-08
3.60539e-09
-5.65219e-10
-8.41165e-08
-4.00315e-09
3.15865e-09
-6.3312e-10
-8.39665e-08
2.62807e-09
-6.44482e-10
-8.38542e-08
2.0398e-09
-6.73728e-10
-8.3772e-08
1.39171e-09
-6.85641e-10
-8.37091e-08
7.06494e-10
-6.95898e-10
-8.36676e-08
-7.02564e-10
-8.36524e-08
3.59184e-09
-8.41279e-08
-3.9843e-09
3.13731e-09
-8.39903e-08
2.61233e-09
-8.38724e-08
2.02677e-09
-8.37914e-08
1.38251e-09
-8.37272e-08
7.00887e-10
-8.36853e-08
-8.36694e-08
4.16582e-09
4.16266e-09
-9.15517e-08
-4.69125e-09
-4.69208e-09
3.55982e-09
4.21395e-09
-9.14705e-08
-4.69594e-09
2.90388e-09
4.46845e-09
-9.13001e-08
-4.98438e-09
2.19142e-09
4.52328e-09
-9.11809e-08
-5.04712e-09
1.4698e-09
4.61116e-09
-9.10845e-08
-5.18166e-09
7.37658e-10
4.6333e-09
-9.10433e-08
-5.22326e-09
-1.96888e-12
4.64381e-09
-9.10325e-08
-5.24121e-09
-7.4081e-10
4.64417e-09
-9.10326e-08
-5.24205e-09
-1.47214e-09
4.63393e-09
-9.10436e-08
-5.22359e-09
-2.19245e-09
4.61215e-09
-9.10846e-08
-5.18211e-09
-2.90389e-09
4.52443e-09
-9.11811e-08
-5.04669e-09
-3.55915e-09
4.46966e-09
-9.13005e-08
-4.98453e-09
-4.16531e-09
4.21439e-09
-9.14711e-08
-4.69509e-09
4.16328e-09
-9.15526e-08
-4.68998e-09
-4.69221e-09
4.21583e-09
3.55579e-09
-9.14706e-08
-4.697e-09
3.63193e-09
3.62912e-09
-9.13612e-08
3.01868e-09
3.82502e-09
-9.11886e-08
2.32907e-09
3.88731e-09
-9.1064e-08
1.5938e-09
3.95959e-09
-9.09578e-08
8.11157e-10
3.99025e-09
-9.0894e-08
-1.50584e-12
4.01066e-09
-9.0872e-08
-8.13828e-10
4.01114e-09
-9.08721e-08
-1.59587e-09
3.9915e-09
-9.08943e-08
-2.33022e-09
3.96111e-09
-9.09584e-08
-3.01898e-09
3.88906e-09
-9.10646e-08
-3.63191e-09
3.827e-09
-9.11895e-08
-4.21641e-09
3.63091e-09
-9.1362e-08
3.55781e-09
-9.14714e-08
-4.69823e-09
4.47181e-09
2.89983e-09
-9.13e-08
-4.98661e-09
3.82856e-09
3.0159e-09
-9.11887e-08
3.15227e-09
3.14965e-09
-9.10059e-08
2.40336e-09
3.21235e-09
-9.09099e-08
1.62164e-09
3.25544e-09
-9.08242e-08
8.16497e-10
3.275e-09
-9.07847e-08
-1.23512e-12
3.28907e-09
-9.07736e-08
-8.18765e-10
3.28972e-09
-9.07736e-08
-1.62323e-09
3.2766e-09
-9.07849e-08
-2.40398e-09
3.25738e-09
-9.08247e-08
-3.15193e-09
3.21435e-09
-9.09105e-08
-3.82792e-09
3.1519e-09
-9.10067e-08
-4.47179e-09
3.01818e-09
-9.11895e-08
2.90226e-09
-9.13008e-08
-4.9877e-09
4.52839e-09
2.18853e-09
-9.11804e-08
-5.04962e-09
3.89161e-09
2.32769e-09
-9.10639e-08
3.2147e-09
2.4026e-09
-9.09099e-08
2.46381e-09
2.46369e-09
-9.08257e-08
1.669e-09
2.49124e-09
-9.07594e-08
8.42305e-10
2.50626e-09
-9.07235e-08
-1.15168e-12
2.51704e-09
-9.07156e-08
-8.44447e-10
2.51776e-09
-9.07157e-08
-1.6703e-09
2.50768e-09
-9.07238e-08
-2.46414e-09
2.49299e-09
-9.07601e-08
-3.21419e-09
2.46546e-09
-9.08265e-08
-3.89079e-09
2.40455e-09
-9.09109e-08
-4.52788e-09
2.32949e-09
-9.10649e-08
2.1905e-09
-9.11816e-08
-5.05064e-09
4.61748e-09
1.46867e-09
-9.10838e-08
-5.18575e-09
3.96517e-09
1.59434e-09
-9.09575e-08
3.25843e-09
1.62303e-09
-9.08239e-08
2.49144e-09
1.67113e-09
-9.0759e-08
1.68222e-09
1.68453e-09
-9.07093e-08
8.47444e-10
1.69291e-09
-9.06876e-08
-9.10803e-13
1.69918e-09
-9.06872e-08
-8.49118e-10
1.69977e-09
-9.06874e-08
-1.68307e-09
1.69357e-09
-9.06881e-08
-2.49136e-09
1.68534e-09
-9.07103e-08
-3.2577e-09
1.67181e-09
-9.076e-08
-3.96431e-09
1.6239e-09
-9.0825e-08
-4.61716e-09
1.59499e-09
-9.09585e-08
1.4696e-09
-9.10851e-08
-5.18754e-09
4.64111e-09
7.38342e-10
-9.10423e-08
-5.22934e-09
3.99729e-09
8.13363e-10
-9.08936e-08
3.27896e-09
8.1963e-10
-9.07849e-08
2.50696e-09
8.46183e-10
-9.07243e-08
1.69077e-09
8.51668e-10
-9.06895e-08
8.51303e-10
8.55755e-10
-9.06763e-08
-1.06748e-12
8.58976e-10
-9.06811e-08
-8.53169e-10
8.59174e-10
-9.06811e-08
-1.69157e-09
8.55131e-10
-9.06762e-08
-2.5066e-09
8.50833e-10
-9.06896e-08
-3.27794e-09
8.45045e-10
-9.07246e-08
-3.99621e-09
8.18425e-10
-9.07853e-08
-4.64073e-09
8.12032e-10
-9.08943e-08
7.3739e-10
-9.10432e-08
-5.23083e-09
4.65037e-09
7.7616e-13
-9.10322e-08
-5.24722e-09
4.01614e-09
1.68422e-12
-9.08719e-08
3.29154e-09
2.47695e-12
-9.07735e-08
2.5165e-09
3.18687e-12
-9.07154e-08
1.69641e-09
3.93103e-12
-9.06876e-08
8.54695e-10
4.4451e-12
-9.06793e-08
-5.61508e-13
3.98595e-12
-9.06851e-08
-8.55672e-10
4.0799e-12
-9.06852e-08
-1.69675e-09
3.10555e-12
-9.06796e-08
-2.51608e-09
2.0022e-12
-9.06882e-08
-3.2908e-09
6.76175e-13
-9.07166e-08
-4.01574e-09
-6.71548e-13
-9.07746e-08
-4.65075e-09
-1.97446e-12
-9.08728e-08
-3.19808e-12
-9.10329e-08
-5.24838e-09
4.65082e-09
-7.37072e-10
-9.10323e-08
-5.24781e-09
4.01645e-09
-8.10388e-10
-9.08721e-08
3.29174e-09
-8.15346e-10
-9.07735e-08
2.51646e-09
-8.4073e-10
-9.07156e-08
1.69631e-09
-8.4512e-10
-9.06879e-08
8.54713e-10
-8.48428e-10
-9.06797e-08
-3.71285e-13
-8.52641e-10
-9.06854e-08
-8.55484e-10
-8.52484e-10
-9.06855e-08
-1.69697e-09
-8.49965e-10
-9.06798e-08
-2.51694e-09
-8.47523e-10
-9.06884e-08
-3.29214e-09
-8.442e-10
-9.07165e-08
-4.01695e-09
-8.20067e-10
-9.07744e-08
-4.65181e-09
-8.15987e-10
-9.08729e-08
-7.43595e-10
-9.10327e-08
-5.24931e-09
4.64397e-09
-1.46869e-09
-9.10426e-08
-5.23217e-09
4.00017e-09
-1.59317e-09
-9.08943e-08
3.28183e-09
-1.62078e-09
-9.07856e-08
2.50921e-09
-1.66775e-09
-9.0725e-08
1.69208e-09
-1.68028e-09
-9.069e-08
8.5155e-10
-1.68799e-09
-9.06766e-08
-1.93696e-12
-1.69531e-09
-9.06813e-08
-8.55186e-10
-1.69554e-09
-9.06814e-08
-1.69507e-09
-1.69049e-09
-9.06768e-08
-2.51143e-09
-1.68409e-09
-9.06901e-08
-3.28334e-09
-1.67298e-09
-9.07249e-08
-4.00076e-09
-1.62722e-09
-9.07853e-08
-4.64382e-09
-1.60015e-09
-9.08944e-08
-1.47634e-09
-9.10429e-08
-5.23185e-09
4.62143e-09
-2.19047e-09
-9.10841e-08
-5.1892e-09
3.96928e-09
-2.32933e-09
-9.09583e-08
3.26218e-09
-2.4037e-09
-9.0825e-08
2.49437e-09
-2.46379e-09
-9.07606e-08
1.68402e-09
-2.49077e-09
-9.07111e-08
8.47771e-10
-2.50509e-09
-9.06898e-08
-2.40681e-12
-2.51679e-09
-9.0689e-08
-8.52433e-10
-2.51735e-09
-9.0689e-08
-1.68839e-09
-2.50826e-09
-9.06897e-08
-2.49826e-09
-2.49524e-09
-9.07107e-08
-3.26505e-09
-2.46949e-09
-9.07602e-08
-3.97069e-09
-2.41038e-09
-9.08248e-08
-4.62129e-09
-2.33611e-09
-9.09584e-08
-2.19741e-09
-9.10842e-08
-5.18768e-09
4.53269e-09
-2.90345e-09
-9.11805e-08
-5.05364e-09
3.89582e-09
-3.02021e-09
-9.10646e-08
3.21865e-09
-3.15415e-09
-9.09107e-08
2.467e-09
-3.21632e-09
-9.08269e-08
1.67102e-09
-3.2596e-09
-9.07606e-08
8.42746e-10
-3.27892e-09
-9.07255e-08
-3.01246e-12
-3.2937e-09
-9.0717e-08
-8.48691e-10
-3.29423e-09
-9.07167e-08
-1.67675e-09
-3.28165e-09
-9.0725e-08
-2.47193e-09
-3.26328e-09
-9.07602e-08
-3.22226e-09
-3.22095e-09
-9.08268e-08
-3.89756e-09
-3.15955e-09
-9.09106e-08
-4.53251e-09
-3.02527e-09
-9.10646e-08
-2.90814e-09
-9.11806e-08
-5.05182e-09
4.47549e-09
-3.56047e-09
-9.13001e-08
-4.98959e-09
3.83235e-09
-3.63468e-09
-9.11894e-08
3.15587e-09
-3.83165e-09
-9.10068e-08
2.40627e-09
-3.89466e-09
-9.09111e-08
1.62363e-09
-3.96769e-09
-9.08253e-08
8.16968e-10
-3.99854e-09
-9.07861e-08
-3.57685e-12
-4.0192e-09
-9.07742e-08
-8.23848e-10
-4.01953e-09
-9.07741e-08
-1.63025e-09
-4.00021e-09
-9.07859e-08
-2.41228e-09
-3.96994e-09
-9.08249e-08
-3.16053e-09
-3.89715e-09
-9.09106e-08
-3.83422e-09
-3.83392e-09
-9.10063e-08
-4.47433e-09
-3.63622e-09
-9.11892e-08
-3.56138e-09
-9.13001e-08
-4.98647e-09
4.21835e-09
-4.16714e-09
-9.14707e-08
-4.6981e-09
3.63533e-09
-4.21926e-09
-9.13617e-08
3.02196e-09
-4.47621e-09
-9.11893e-08
2.33179e-09
-4.53282e-09
-9.10649e-08
1.59557e-09
-4.62101e-09
-9.09587e-08
8.11431e-10
-4.64368e-09
-9.08954e-08
-3.98433e-12
-4.65402e-09
-9.08727e-08
-8.19068e-10
-4.65423e-09
-9.08725e-08
-1.60295e-09
-4.64404e-09
-9.08951e-08
-2.33822e-09
-4.6213e-09
-9.09583e-08
-3.02655e-09
-4.53301e-09
-9.10645e-08
-3.63682e-09
-4.47473e-09
-9.11891e-08
-4.21582e-09
-4.21569e-09
-9.13617e-08
-4.16305e-09
-9.14711e-08
-4.69393e-09
4.16683e-09
-9.15527e-08
-4.69433e-09
-4.69238e-09
3.56172e-09
-9.14711e-08
-4.70025e-09
2.90569e-09
-9.13004e-08
-4.99137e-09
2.19293e-09
-9.11811e-08
-5.05502e-09
1.47073e-09
-9.10847e-08
-5.1905e-09
7.37542e-10
-9.10438e-08
-5.23386e-09
-4.27877e-12
-9.10324e-08
-5.25147e-09
-7.45519e-10
-9.10322e-08
-5.25164e-09
-1.47833e-09
-9.10434e-08
-5.23244e-09
-2.19928e-09
-9.1084e-08
-5.18754e-09
-2.90956e-09
-9.11803e-08
-5.05248e-09
-3.56205e-09
-9.13e-08
-4.98725e-09
-4.16281e-09
-9.14713e-08
-4.69469e-09
-9.15533e-08
-4.68555e-09
-4.6865e-09
5.50387e-09
5.50175e-09
-9.86158e-08
-6.30004e-09
-6.3007e-09
4.6403e-09
5.50135e-09
-9.85146e-08
-6.27929e-09
3.73508e-09
5.72012e-09
-9.8281e-08
-6.54756e-09
2.7936e-09
5.70592e-09
-9.81334e-08
-6.53873e-09
1.85703e-09
5.74902e-09
-9.80051e-08
-6.62779e-09
9.2578e-10
5.72343e-09
-9.79505e-08
-6.62279e-09
-2.23323e-12
5.70604e-09
-9.79366e-08
-6.61496e-09
-9.29477e-10
5.70669e-09
-9.79366e-08
-6.61601e-09
-1.86e-09
5.72351e-09
-9.79505e-08
-6.62302e-09
-2.79555e-09
5.74908e-09
-9.80049e-08
-6.62805e-09
-3.73619e-09
5.70546e-09
-9.81334e-08
-6.53807e-09
-4.64039e-09
5.72006e-09
-9.82811e-08
-6.54698e-09
-5.50354e-09
5.5011e-09
-9.85148e-08
-6.27801e-09
5.50108e-09
-9.86162e-08
-6.29829e-09
-6.30064e-09
5.50357e-09
4.63785e-09
-9.85148e-08
-6.28032e-09
4.65702e-09
4.65509e-09
-9.83675e-08
3.79787e-09
4.80144e-09
-9.8132e-08
2.88407e-09
4.78883e-09
-9.79697e-08
1.94858e-09
4.80495e-09
-9.78258e-08
9.83171e-10
4.7868e-09
-9.77427e-08
-2.01641e-12
4.78031e-09
-9.77171e-08
-9.8677e-10
4.78092e-09
-9.7717e-08
-1.95173e-09
4.78737e-09
-9.77427e-08
-2.88645e-09
4.8055e-09
-9.78259e-08
-3.79943e-09
4.7892e-09
-9.79699e-08
-4.65766e-09
4.80213e-09
-9.81324e-08
-5.50383e-09
4.65568e-09
-9.83678e-08
4.63879e-09
-9.85151e-08
-6.28148e-09
5.72283e-09
3.73313e-09
-9.82809e-08
-6.5497e-09
4.80377e-09
3.79677e-09
-9.81322e-08
3.87153e-09
3.87018e-09
-9.78877e-08
2.9007e-09
3.8628e-09
-9.77702e-08
1.92941e-09
3.84327e-09
-9.76577e-08
9.62053e-10
3.81237e-09
-9.7611e-08
-1.84798e-12
3.79977e-09
-9.76022e-08
-9.65515e-10
3.80051e-09
-9.76022e-08
-1.93234e-09
3.81342e-09
-9.7611e-08
-2.90276e-09
3.84441e-09
-9.76579e-08
-3.87254e-09
3.86389e-09
-9.77704e-08
-4.80382e-09
3.87161e-09
-9.7888e-08
-5.72249e-09
3.79807e-09
-9.81324e-08
3.7348e-09
-9.82812e-08
-6.5498e-09
5.70911e-09
2.79202e-09
-9.81329e-08
-6.54209e-09
4.79141e-09
2.88391e-09
-9.79697e-08
3.86402e-09
2.90074e-09
-9.77701e-08
2.90453e-09
2.90496e-09
-9.76722e-08
1.93536e-09
2.87619e-09
-9.75926e-08
9.65431e-10
2.84578e-09
-9.75563e-08
-1.79712e-12
2.8337e-09
-9.75559e-08
-9.68886e-10
2.8345e-09
-9.75559e-08
-1.93818e-09
2.84687e-09
-9.75564e-08
-2.90649e-09
2.87745e-09
-9.75929e-08
-3.86494e-09
2.9063e-09
-9.76725e-08
-4.79143e-09
2.90246e-09
-9.77706e-08
-5.70889e-09
2.88563e-09
-9.79702e-08
2.79425e-09
-9.81336e-08
-6.54252e-09
5.75339e-09
1.8563e-09
-9.80041e-08
-6.63281e-09
4.80807e-09
1.94947e-09
-9.78255e-08
3.84483e-09
1.93083e-09
-9.76575e-08
2.87604e-09
1.93739e-09
-9.75923e-08
1.90572e-09
1.90772e-09
-9.75424e-08
9.46698e-10
1.88127e-09
-9.75333e-08
-1.65458e-12
1.87099e-09
-9.75488e-08
-9.49803e-10
1.87168e-09
-9.75489e-08
-1.90806e-09
1.88196e-09
-9.75335e-08
-2.87754e-09
1.90857e-09
-9.75429e-08
-3.84547e-09
1.93834e-09
-9.75927e-08
-4.80796e-09
1.93214e-09
-9.76581e-08
-5.75292e-09
1.95077e-09
-9.78262e-08
1.85803e-09
-9.8005e-08
-6.63286e-09
5.72912e-09
9.26387e-10
-9.79494e-08
-6.62933e-09
4.79094e-09
9.85014e-10
-9.77422e-08
3.81472e-09
9.64406e-10
-9.76111e-08
2.84631e-09
9.68334e-10
-9.75569e-08
1.87963e-09
9.49874e-10
-9.75348e-08
9.30834e-10
9.34178e-10
-9.7545e-08
-1.64098e-12
9.28854e-10
-9.75737e-08
-9.33781e-10
9.29393e-10
-9.75736e-08
-1.8816e-09
9.34422e-10
-9.75449e-08
-2.84731e-09
9.50251e-10
-9.75347e-08
-3.81497e-09
9.68726e-10
-9.75568e-08
-4.79055e-09
9.64811e-10
-9.76112e-08
-5.72856e-09
9.85234e-10
-9.77428e-08
9.26591e-10
-9.795e-08
-6.62933e-09
5.71036e-09
2.07681e-13
-9.79359e-08
-6.62091e-09
4.78251e-09
5.67228e-13
-9.77167e-08
3.80013e-09
7.88214e-13
-9.76019e-08
2.83256e-09
1.019e-12
-9.75555e-08
1.86832e-09
1.41027e-12
-9.7549e-08
9.2537e-10
1.87318e-12
-9.75722e-08
-8.15064e-13
1.66154e-12
-9.76026e-08
-9.26912e-10
2.02981e-12
-9.76026e-08
-1.86952e-09
1.65821e-12
-9.75723e-08
-2.8334e-09
1.38519e-12
-9.75495e-08
-3.80069e-09
7.46072e-13
-9.75563e-08
-4.78275e-09
-2.96159e-14
-9.76027e-08
-5.71032e-09
-9.12481e-13
-9.77176e-08
-2.06972e-12
-9.79367e-08
-6.62081e-09
5.71064e-09
-9.26157e-10
-9.79361e-08
-6.62121e-09
4.78286e-09
-9.84215e-10
-9.77168e-08
3.8006e-09
-9.63146e-10
-9.7602e-08
2.83303e-09
-9.66527e-10
-9.75556e-08
1.86875e-09
-9.47406e-10
-9.75492e-08
9.25705e-10
-9.30862e-10
-9.75724e-08
-5.86884e-13
-9.26094e-10
-9.76028e-08
-9.26897e-10
-9.2587e-10
-9.76028e-08
-1.86991e-09
-9.31453e-10
-9.75725e-08
-2.83416e-09
-9.47906e-10
-9.75496e-08
-3.80166e-09
-9.67663e-10
-9.75563e-08
-4.78381e-09
-9.6525e-10
-9.76027e-08
-5.71165e-09
-9.87258e-10
-9.77177e-08
-9.30522e-10
-9.79366e-08
-6.62229e-09
5.73033e-09
-1.85688e-09
-9.79495e-08
-6.63075e-09
4.79215e-09
-1.94966e-09
-9.77427e-08
3.81611e-09
-1.93045e-09
-9.76117e-08
2.84767e-09
-1.93616e-09
-9.75576e-08
1.88073e-09
-1.90584e-09
-9.75353e-08
9.31534e-10
-1.87857e-09
-9.75455e-08
-1.58923e-12
-1.869e-09
-9.75739e-08
-9.34587e-10
-1.86906e-09
-9.7574e-08
-1.88346e-09
-1.87987e-09
-9.75456e-08
-2.85006e-09
-1.90754e-09
-9.75352e-08
-3.81809e-09
-1.93872e-09
-9.75572e-08
-4.79343e-09
-1.93415e-09
-9.76114e-08
-5.73112e-09
-1.95431e-09
-9.77429e-08
-1.86262e-09
-9.79498e-08
-6.63167e-09
5.75502e-09
-2.79383e-09
-9.80041e-08
-6.63484e-09
4.8098e-09
-2.88538e-09
-9.7826e-08
3.84675e-09
-2.90176e-09
-9.76581e-08
2.87787e-09
-2.90525e-09
-9.75932e-08
1.90724e-09
-2.87605e-09
-9.75435e-08
9.47703e-10
-2.84495e-09
-9.75348e-08
-1.54911e-12
-2.83359e-09
-9.75501e-08
-9.50906e-10
-2.8339e-09
-9.755e-08
-1.91066e-09
-2.84689e-09
-9.75346e-08
-2.88127e-09
-2.87866e-09
-9.75432e-08
-3.84978e-09
-2.90871e-09
-9.75931e-08
-4.81213e-09
-2.90626e-09
-9.76581e-08
-5.7566e-09
-2.89051e-09
-9.78263e-08
-2.79964e-09
-9.8004e-08
-6.63632e-09
5.71065e-09
-3.73627e-09
-9.81328e-08
-6.54357e-09
4.79315e-09
-3.79959e-09
-9.79702e-08
3.86587e-09
-3.87288e-09
-9.77708e-08
2.90661e-09
-3.86515e-09
-9.7673e-08
1.9374e-09
-3.84529e-09
-9.75933e-08
9.6682e-10
-3.81401e-09
-9.75575e-08
-1.81299e-12
-3.80194e-09
-9.75565e-08
-9.70587e-10
-3.80228e-09
-9.75564e-08
-1.94149e-09
-3.81585e-09
-9.75574e-08
-2.91079e-09
-3.84799e-09
-9.75933e-08
-3.86989e-09
-3.86871e-09
-9.7673e-08
-4.79641e-09
-3.8771e-09
-9.77707e-08
-5.71262e-09
-3.80381e-09
-9.79703e-08
-3.74113e-09
-9.81325e-08
-6.54419e-09
5.72484e-09
-4.64195e-09
-9.82807e-08
-6.55115e-09
4.8057e-09
-4.65954e-09
-9.81327e-08
3.87339e-09
-4.80624e-09
-9.78883e-08
2.90298e-09
-4.79332e-09
-9.77711e-08
1.93172e-09
-4.80903e-09
-9.76585e-08
9.63582e-10
-4.7908e-09
-9.76121e-08
-2.21478e-12
-4.78459e-09
-9.76026e-08
-9.68061e-10
-4.78499e-09
-9.76026e-08
-1.93674e-09
-4.79218e-09
-9.7612e-08
-2.90818e-09
-4.81109e-09
-9.76582e-08
-3.87815e-09
-4.79602e-09
-9.77707e-08
-4.80956e-09
-4.80954e-09
-9.78879e-08
-5.72742e-09
-4.66203e-09
-9.81325e-08
-4.64427e-09
-9.82801e-08
-6.551e-09
5.50502e-09
-5.50589e-09
-9.85146e-08
-6.28071e-09
4.65861e-09
-5.50713e-09
-9.83676e-08
3.7999e-09
-5.72646e-09
-9.81326e-08
2.88673e-09
-5.71186e-09
-9.79705e-08
1.95118e-09
-5.75512e-09
-9.78266e-08
9.84739e-10
-5.72998e-09
-9.77438e-08
-2.62454e-12
-5.71278e-09
-9.77176e-08
-9.8991e-10
-5.71328e-09
-9.77174e-08
-1.95703e-09
-5.73061e-09
-9.77436e-08
-2.89268e-09
-5.75617e-09
-9.78264e-08
-3.80508e-09
-5.71281e-09
-9.79704e-08
-4.66204e-09
-5.72838e-09
-9.81324e-08
-5.50651e-09
-5.50772e-09
-9.83676e-08
-5.50399e-09
-9.85142e-08
-6.27996e-09
5.50442e-09
-9.86164e-08
-6.3027e-09
-6.30029e-09
4.64215e-09
-9.8515e-08
-6.28359e-09
3.7375e-09
-9.8281e-08
-6.55309e-09
2.79569e-09
-9.81331e-08
-6.54573e-09
1.85877e-09
-9.80046e-08
-6.63615e-09
9.26749e-10
-9.79506e-08
-6.63192e-09
-3.15436e-12
-9.79364e-08
-6.62389e-09
-9.32644e-10
-9.79363e-08
-6.62457e-09
-1.86486e-09
-9.79504e-08
-6.63213e-09
-2.80169e-09
-9.80039e-08
-6.63668e-09
-3.74298e-09
-9.81322e-08
-6.54494e-09
-4.64505e-09
-9.828e-08
-6.55215e-09
-5.50325e-09
-9.85145e-08
-6.28149e-09
-9.86165e-08
-6.29582e-09
-6.29782e-09
7.67938e-09
7.67672e-09
-1.05582e-07
-8.89876e-09
-8.90151e-09
6.40599e-09
7.61071e-09
-1.05411e-07
-8.83265e-09
5.11351e-09
7.78495e-09
-1.05065e-07
-9.08264e-09
3.7952e-09
7.66347e-09
-1.04835e-07
-8.98495e-09
2.51125e-09
7.62753e-09
-1.04643e-07
-9.01664e-09
1.24659e-09
7.53367e-09
-1.04562e-07
-8.93393e-09
-2.19616e-12
7.47591e-09
-1.0454e-07
-8.88386e-09
-1.25047e-09
7.47701e-09
-1.0454e-07
-8.88535e-09
-2.5149e-09
7.5335e-09
-1.04562e-07
-8.93398e-09
-3.79837e-09
7.62735e-09
-1.04643e-07
-9.01681e-09
-5.11623e-09
7.66251e-09
-1.04835e-07
-8.98394e-09
-6.40768e-09
7.78476e-09
-1.05064e-07
-9.08253e-09
-7.68041e-09
7.61073e-09
-1.05411e-07
-8.83185e-09
7.67617e-09
-1.05582e-07
-8.89838e-09
-8.90212e-09
7.61363e-09
6.40409e-09
-1.05412e-07
-8.83464e-09
6.33914e-09
6.33724e-09
-1.05159e-07
5.09764e-09
6.41672e-09
-1.0482e-07
3.81789e-09
6.29517e-09
-1.04571e-07
2.54908e-09
6.22526e-09
-1.04354e-07
1.27478e-09
6.13841e-09
-1.04226e-07
-2.24864e-12
6.09102e-09
-1.04184e-07
-1.27882e-09
6.09182e-09
-1.04184e-07
-2.55299e-09
6.13846e-09
-1.04226e-07
-3.82157e-09
6.22539e-09
-1.04353e-07
-5.10071e-09
6.29473e-09
-1.04571e-07
-6.34106e-09
6.41681e-09
-1.0482e-07
-7.61455e-09
6.33726e-09
-1.05159e-07
6.40431e-09
-1.05411e-07
-8.83617e-09
7.78832e-09
5.11289e-09
-1.05065e-07
-9.08609e-09
6.41909e-09
5.09724e-09
-1.0482e-07
5.09068e-09
5.08958e-09
-1.04461e-07
3.75498e-09
4.97541e-09
-1.04265e-07
2.46534e-09
4.86512e-09
-1.04087e-07
1.21732e-09
4.7645e-09
-1.04008e-07
-2.10038e-12
4.71184e-09
-1.0399e-07
-1.22127e-09
4.71251e-09
-1.0399e-07
-2.46915e-09
4.76484e-09
-1.04008e-07
-3.75831e-09
4.8656e-09
-1.04086e-07
-5.09313e-09
4.9755e-09
-1.04265e-07
-6.42034e-09
5.09019e-09
-1.04461e-07
-7.78857e-09
5.09755e-09
-1.0482e-07
5.11369e-09
-1.05064e-07
-9.0865e-09
7.66649e-09
3.79467e-09
-1.04835e-07
-8.9877e-09
6.2973e-09
3.81847e-09
-1.04571e-07
4.97624e-09
3.75513e-09
-1.04265e-07
3.66957e-09
3.66995e-09
-1.04099e-07
2.40794e-09
3.56125e-09
-1.03968e-07
1.18779e-09
3.47259e-09
-1.0391e-07
-2.10819e-12
3.42794e-09
-1.03906e-07
-1.1919e-09
3.42861e-09
-1.03906e-07
-2.41182e-09
3.47315e-09
-1.03909e-07
-3.67294e-09
3.56206e-09
-1.03968e-07
-4.97877e-09
3.6706e-09
-1.04099e-07
-6.29871e-09
3.75617e-09
-1.04265e-07
-7.66708e-09
3.8193e-09
-1.04571e-07
3.79622e-09
-1.04835e-07
-8.98867e-09
7.63209e-09
2.51152e-09
-1.04642e-07
-9.02255e-09
6.22815e-09
2.55042e-09
-1.04353e-07
4.86643e-09
2.46641e-09
-1.04086e-07
3.56134e-09
2.40924e-09
-1.03968e-07
2.32016e-09
2.32119e-09
-1.0388e-07
1.13912e-09
2.25401e-09
-1.03861e-07
-2.02729e-12
2.22014e-09
-1.03878e-07
-1.14308e-09
2.22078e-09
-1.03878e-07
-2.32377e-09
2.25462e-09
-1.03861e-07
-3.5644e-09
2.32211e-09
-1.0388e-07
-4.86864e-09
2.41016e-09
-1.03968e-07
-6.22918e-09
2.4675e-09
-1.04086e-07
-7.63202e-09
2.55121e-09
-1.04353e-07
2.5124e-09
-1.04642e-07
-9.02201e-09
7.53752e-09
1.24724e-09
-1.04561e-07
-8.93926e-09
6.14101e-09
1.27609e-09
-1.04225e-07
4.76586e-09
1.21842e-09
-1.04008e-07
3.47299e-09
1.1892e-09
-1.0391e-07
2.25323e-09
1.14062e-09
-1.03862e-07
1.10167e-09
1.10328e-09
-1.03869e-07
-1.87916e-12
1.08446e-09
-1.03905e-07
-1.10529e-09
1.08505e-09
-1.03905e-07
-2.25642e-09
1.10387e-09
-1.03869e-07
-3.47568e-09
1.14157e-09
-1.03862e-07
-4.76795e-09
1.19024e-09
-1.03909e-07
-6.14229e-09
1.21945e-09
-1.04008e-07
-7.53818e-09
1.27672e-09
-1.04226e-07
1.24718e-09
-1.04561e-07
-8.93951e-09
7.47837e-09
-6.70716e-13
-1.04539e-07
-8.88852e-09
6.0917e-09
-7.79912e-13
-1.04183e-07
4.7112e-09
-9.18938e-13
-1.03989e-07
3.4267e-09
-9.09003e-13
-1.03905e-07
2.2184e-09
-7.95086e-13
-1.03878e-07
1.0827e-09
-3.41843e-13
-1.03904e-07
-9.32871e-13
-5.40167e-13
-1.03947e-07
-1.08468e-09
-3.21637e-14
-1.03947e-07
-2.22066e-09
7.81166e-14
-1.03904e-07
-3.42925e-09
-3.88503e-14
-1.03878e-07
-4.71373e-09
-3.35264e-13
-1.03905e-07
-6.09372e-09
-7.52296e-13
-1.03989e-07
-7.47964e-09
-1.16682e-12
-1.04183e-07
-1.98248e-12
-1.04539e-07
-8.88938e-09
7.47809e-09
-1.24874e-09
-1.04539e-07
-8.88824e-09
6.09169e-09
-1.27781e-09
-1.04183e-07
4.71145e-09
-1.22025e-09
-1.03989e-07
3.42714e-09
-1.1909e-09
-1.03905e-07
2.21892e-09
-1.14209e-09
-1.03878e-07
1.08312e-09
-1.10388e-09
-1.03904e-07
-7.06201e-13
-1.08554e-09
-1.03947e-07
-1.08468e-09
-1.08523e-09
-1.03947e-07
-2.22088e-09
-1.10391e-09
-1.03904e-07
-3.42959e-09
-1.14191e-09
-1.03878e-07
-4.71409e-09
-1.19113e-09
-1.03905e-07
-6.09419e-09
-1.22114e-09
-1.03989e-07
-7.48022e-09
-1.27931e-09
-1.04183e-07
-1.25115e-09
-1.04539e-07
-8.8903e-09
7.53741e-09
-2.51332e-09
-1.0456e-07
-8.93952e-09
6.14107e-09
-2.55241e-09
-1.04226e-07
4.76629e-09
-2.46836e-09
-1.04008e-07
3.47378e-09
-2.4108e-09
-1.0391e-07
2.25418e-09
-2.32235e-09
-1.03863e-07
1.10249e-09
-2.25429e-09
-1.03869e-07
-1.49416e-12
-2.22108e-09
-1.03905e-07
-1.10556e-09
-2.22109e-09
-1.03905e-07
-2.25746e-09
-2.25506e-09
-1.03869e-07
-3.47718e-09
-2.3232e-09
-1.03862e-07
-4.76956e-09
-2.41204e-09
-1.03909e-07
-6.1439e-09
-2.47038e-09
-1.04008e-07
-7.53973e-09
-2.55513e-09
-1.04225e-07
-2.51671e-09
-1.0456e-07
-8.94201e-09
7.63195e-09
-3.7972e-09
-1.04642e-07
-9.02262e-09
6.22817e-09
-3.82095e-09
-1.04353e-07
4.86699e-09
-3.75759e-09
-1.04086e-07
3.56248e-09
-3.67188e-09
-1.03968e-07
2.32161e-09
-3.5627e-09
-1.0388e-07
1.14039e-09
-3.47326e-09
-1.03862e-07
-1.44653e-12
-3.42934e-09
-1.03879e-07
-1.14345e-09
-3.42957e-09
-1.03878e-07
-2.32511e-09
-3.47456e-09
-1.03861e-07
-3.56625e-09
-3.56432e-09
-1.0388e-07
-4.87082e-09
-3.674e-09
-1.03967e-07
-6.23184e-09
-3.76041e-09
-1.04086e-07
-7.63525e-09
-3.82424e-09
-1.04353e-07
-3.80073e-09
-1.04641e-07
-9.02577e-09
7.66641e-09
-5.11661e-09
-1.04834e-07
-8.98772e-09
6.29728e-09
-5.10055e-09
-1.04571e-07
4.9768e-09
-5.09284e-09
-1.04265e-07
3.67097e-09
-4.978e-09
-1.04099e-07
2.40985e-09
-4.86716e-09
-1.03968e-07
1.18938e-09
-4.76574e-09
-1.0391e-07
-1.55572e-12
-4.71368e-09
-1.03905e-07
-1.19264e-09
-4.71405e-09
-1.03905e-07
-2.41372e-09
-4.76719e-09
-1.03909e-07
-3.67543e-09
-4.86927e-09
-1.03968e-07
-4.98153e-09
-4.98074e-09
-1.04099e-07
-6.30172e-09
-5.09616e-09
-1.04264e-07
-7.6703e-09
-5.10384e-09
-1.0457e-07
-5.11997e-09
-1.04833e-07
-8.99023e-09
7.78833e-09
-6.40916e-09
-1.05064e-07
-9.08591e-09
6.4194e-09
-6.34175e-09
-1.0482e-07
5.09183e-09
-6.42115e-09
-1.04461e-07
3.75697e-09
-6.2989e-09
-1.04265e-07
2.46773e-09
-6.22876e-09
-1.04087e-07
1.21899e-09
-6.14092e-09
-1.04009e-07
-1.90487e-12
-6.09397e-09
-1.0399e-07
-1.2229e-09
-6.0945e-09
-1.0399e-07
-2.47238e-09
-6.14224e-09
-1.04008e-07
-3.76205e-09
-6.231e-09
-1.04086e-07
-5.0969e-09
-6.30174e-09
-1.04264e-07
-6.42402e-09
-6.42447e-09
-1.0446e-07
-7.79221e-09
-6.34455e-09
-1.04819e-07
-6.41171e-09
-1.05063e-07
-9.08793e-09
7.61367e-09
-7.68215e-09
-1.05411e-07
-8.83405e-09
6.33956e-09
-7.61598e-09
-1.05158e-07
5.09921e-09
-7.79053e-09
-1.0482e-07
3.82046e-09
-7.66855e-09
-1.04571e-07
2.55216e-09
-7.63318e-09
-1.04354e-07
1.27674e-09
-7.53802e-09
-1.04226e-07
-2.28932e-12
-7.48064e-09
-1.04184e-07
-1.2814e-09
-7.48118e-09
-1.04183e-07
-2.55771e-09
-7.53882e-09
-1.04226e-07
-3.8263e-09
-7.63531e-09
-1.04353e-07
-5.10462e-09
-7.67116e-09
-1.0457e-07
-6.34375e-09
-7.79361e-09
-1.04819e-07
-7.61681e-09
-7.61829e-09
-1.05157e-07
-7.68195e-09
-1.05411e-07
-8.83534e-09
7.67944e-09
-1.05582e-07
-8.90305e-09
-8.90056e-09
6.40788e-09
-1.05411e-07
-8.83716e-09
5.11639e-09
-1.05064e-07
-9.08836e-09
3.7976e-09
-1.04834e-07
-8.99012e-09
2.51345e-09
-1.04642e-07
-9.0244e-09
1.24772e-09
-1.04561e-07
-8.94133e-09
-2.7322e-12
-1.04539e-07
-8.89159e-09
-1.25327e-09
-1.04539e-07
-8.89225e-09
-2.51931e-09
-1.04561e-07
-8.94226e-09
-3.80294e-09
-1.04641e-07
-9.02661e-09
-5.1217e-09
-1.04833e-07
-8.99115e-09
-6.41218e-09
-1.05063e-07
-9.08942e-09
-7.68066e-09
-1.05411e-07
-8.83706e-09
-1.05581e-07
-8.8984e-09
-8.90102e-09
1.02207e-08
1.02183e-08
-1.1232e-07
-1.194e-08
-1.1944e-08
8.50308e-09
1.01151e-08
-1.12083e-07
-1.18252e-08
6.7825e-09
1.03052e-08
-1.11576e-07
-1.21112e-08
5.01461e-09
1.00616e-08
-1.11173e-07
-1.19313e-08
3.30688e-09
9.96878e-09
-1.10865e-07
-1.19377e-08
1.63789e-09
9.82011e-09
-1.1072e-07
-1.18285e-08
-1.25366e-12
9.72475e-09
-1.10678e-07
-1.17451e-08
-1.6405e-09
9.72571e-09
-1.10678e-07
-1.17462e-08
-3.31013e-09
9.81945e-09
-1.1072e-07
-1.18279e-08
-5.01819e-09
9.96826e-09
-1.10865e-07
-1.19375e-08
-6.7858e-09
1.00609e-08
-1.11173e-07
-1.1931e-08
-8.50581e-09
1.03056e-08
-1.11576e-07
-1.21121e-08
-1.0222e-08
1.01146e-08
-1.12083e-07
-1.18257e-08
1.02184e-08
-1.12319e-07
-1.19414e-08
-1.19438e-08
1.01166e-08
8.50306e-09
-1.12083e-07
-1.18277e-08
8.36123e-09
8.35959e-09
-1.11651e-07
6.67662e-09
8.41311e-09
-1.11147e-07
4.97839e-09
8.18926e-09
-1.10774e-07
3.31703e-09
8.06248e-09
-1.10443e-07
1.65624e-09
7.92915e-09
-1.1024e-07
-1.53758e-12
7.85262e-09
-1.10167e-07
-1.65927e-09
7.85344e-09
-1.10167e-07
-3.32056e-09
7.92869e-09
-1.10241e-07
-4.98247e-09
8.06221e-09
-1.10443e-07
-6.67983e-09
8.1884e-09
-1.10774e-07
-8.36314e-09
8.41303e-09
-1.11147e-07
-1.01183e-08
8.35961e-09
-1.1165e-07
8.50236e-09
-1.12082e-07
-1.1829e-08
1.03082e-08
6.78365e-09
-1.11576e-07
-1.21145e-08
8.41482e-09
6.67718e-09
-1.11147e-07
6.62564e-09
6.62567e-09
-1.1062e-07
4.86481e-09
6.42243e-09
-1.10283e-07
3.18909e-09
6.25489e-09
-1.0999e-07
1.57151e-09
6.11228e-09
-1.09844e-07
-1.51164e-12
6.03248e-09
-1.09798e-07
-1.57444e-09
6.03318e-09
-1.09798e-07
-3.19242e-09
6.11214e-09
-1.09843e-07
-4.86822e-09
6.25494e-09
-1.0999e-07
-6.62843e-09
6.42181e-09
-1.10282e-07
-8.41644e-09
6.62549e-09
-1.1062e-07
-1.03089e-08
6.67688e-09
-1.11146e-07
6.78316e-09
-1.11576e-07
-1.21154e-08
1.0065e-08
5.01654e-09
-1.11173e-07
-1.1934e-08
8.19056e-09
4.98085e-09
-1.10774e-07
6.42202e-09
4.86609e-09
-1.10282e-07
4.71052e-09
4.71173e-09
-1.09989e-07
3.08408e-09
4.55601e-09
-1.09753e-07
1.51806e-09
4.44054e-09
-1.09634e-07
-1.62006e-12
4.37734e-09
-1.09606e-07
-1.52128e-09
4.37803e-09
-1.09606e-07
-3.08758e-09
4.44084e-09
-1.09634e-07
-4.71406e-09
4.55662e-09
-1.09752e-07
-6.42517e-09
4.71179e-09
-1.09988e-07
-8.19272e-09
4.86627e-09
-1.10282e-07
-1.00662e-08
4.98013e-09
-1.10774e-07
5.01623e-09
-1.11173e-07
-1.19355e-08
9.9712e-09
3.30906e-09
-1.10864e-07
-1.19402e-08
8.06362e-09
3.31946e-09
-1.10443e-07
6.25496e-09
3.1906e-09
-1.0999e-07
4.55553e-09
3.08555e-09
-1.09753e-07
2.96305e-09
2.96399e-09
-1.09564e-07
1.45373e-09
2.88267e-09
-1.09485e-07
-1.56278e-12
2.83714e-09
-1.09469e-07
-1.45684e-09
2.83783e-09
-1.09469e-07
-2.96636e-09
2.88334e-09
-1.09485e-07
-4.55885e-09
2.96503e-09
-1.09564e-07
-6.25793e-09
3.08626e-09
-1.09752e-07
-8.06577e-09
3.19118e-09
-1.09989e-07
-9.97258e-09
3.31918e-09
-1.10442e-07
3.3086e-09
-1.10864e-07
-1.19413e-08
9.82113e-09
1.63934e-09
-1.10719e-07
-1.183e-08
7.92929e-09
1.65786e-09
-1.1024e-07
6.11185e-09
1.57247e-09
-1.09844e-07
4.4399e-09
1.51922e-09
-1.09635e-07
2.88162e-09
1.45479e-09
-1.09486e-07
1.41215e-09
1.41348e-09
-1.09427e-07
-1.31545e-12
1.38869e-09
-1.09429e-07
-1.41484e-09
1.38932e-09
-1.09429e-07
-2.88463e-09
1.41425e-09
-1.09426e-07
-4.44319e-09
1.45602e-09
-1.09485e-07
-6.11517e-09
1.52037e-09
-1.09634e-07
-7.93211e-09
1.57342e-09
-1.09843e-07
-9.82348e-09
1.65811e-09
-1.1024e-07
1.63894e-09
-1.10719e-07
-1.18318e-08
9.72465e-09
-1.83708e-13
-1.10678e-07
-1.17466e-08
7.85152e-09
-6.06721e-13
-1.10166e-07