/*--------------------------------*- C++ -*----------------------------------*\
| =========                 |                                                 |
| \\      /  F ield         | OpenFOAM: The Open Source CFD Toolbox           |
|  \\    /   O peration     | Version:  v2106                                 |
|   \\  /    A nd           | Website:  www.openfoam.com                      |
|    \\/     M anipulation  |                                                 |
\*---------------------------------------------------------------------------*/
FoamFile
{
    version     2.0;
    format      ascii;
    arch        "LSB;label=32;scalar=64";
    class       volScalarField;
    location    "0.000195";
    object      k;
}
// * * * * * * * * * * * * * * * * * * * * * * * * * * * * * * * * * * * * * //

dimensions      [0 2 -2 0 0 0 0];

internalField   nonuniform List<scalar> 
18109
(
0.050659
0.0356935
0.0245784
0.0175697
0.0137905
0.0124783
0.0136438
0.020705
0.0141349
0.00943737
0.00656134
0.005049
0.00451628
0.00495278
0.00815017
0.00510618
0.00325998
0.00220488
0.00167552
0.00149918
0.00168444
0.00322823
0.00171392
0.00101701
0.000665582
0.000501694
0.000455637
0.000543734
0.0014288
0.000574125
0.000293613
0.000181462
0.000135777
0.000128637
0.000175183
0.000847594
0.000238052
8.76427e-05
4.61536e-05
3.38085e-05
3.56623e-05
6.2787e-05
0.000746779
0.000162839
3.74426e-05
1.26826e-05
8.41782e-06
1.14869e-05
2.95301e-05
0.000875815
0.000171923
2.98415e-05
6.1641e-06
3.58438e-06
6.76171e-06
2.15802e-05
0.0459023
0.0326079
0.022248
0.0153788
0.0112818
0.00926949
0.00915958
0.0113421
0.0173443
0.0302036
0.054944
0.0989729
0.171272
0.285523
0.0183947
0.0126768
0.00837756
0.00561471
0.00402112
0.00325628
0.00323817
0.00417085
0.00686197
0.0130441
0.0259462
0.0511383
0.0967041
0.176597
0.00699794
0.004471
0.00282983
0.0018373
0.00129168
0.0010423
0.00106913
0.00149678
0.00278883
0.00602361
0.0134166
0.029165
0.0603522
0.120145
0.00262263
0.00145171
0.000859834
0.000538011
0.000372657
0.00030448
0.000337503
0.000553909
0.00123532
0.00308496
0.00766451
0.0181489
0.0404068
0.0855764
0.0010862
0.000463912
0.000240284
0.00014182
9.68661e-05
8.29042e-05
0.000109096
0.00023048
0.000625693
0.00176525
0.00476022
0.0120074
0.028237
0.062592
0.00062558
0.00018305
6.88411e-05
3.47751e-05
2.31451e-05
2.25491e-05
4.07641e-05
0.000114816
0.000363093
0.00111103
0.00316617
0.00835987
0.0205062
0.0471627
0.000569027
0.000124477
2.84964e-05
9.25556e-06
5.58578e-06
7.40978e-06
2.02364e-05
7.03409e-05
0.0002425
0.000777949
0.00229885
0.00626914
0.015859
0.0374997
0.000700047
0.000135493
2.29487e-05
4.58922e-06
2.54714e-06
4.69847e-06
1.51109e-05
5.50157e-05
0.000193582
0.000631471
0.00189731
0.00525674
0.0135048
0.0323558
0.000975718
0.000178921
2.9463e-05
7.89345e-06
6.70378e-06
1.01131e-05
2.20679e-05
6.42931e-05
0.000206401
0.000647928
0.00190896
0.0052243
0.0133037
0.0316445
0.00143479
0.000268632
5.74065e-05
2.91677e-05
3.10913e-05
4.10622e-05
6.42486e-05
0.000129778
0.000326765
0.000899697
0.00245624
0.00639367
0.015692
0.0362091
0.00226263
0.000505986
0.00016919
0.000120404
0.000132679
0.000168999
0.000236444
0.000383115
0.000747264
0.00169024
0.00405464
0.00968044
0.0223074
0.0488083
0.00405368
0.00123985
0.000576876
0.000452105
0.000490735
0.000615651
0.000833278
0.00123142
0.00204486
0.003865
0.00799347
0.0171136
0.0363831
0.0743114
0.00823756
0.00338578
0.00185804
0.00148982
0.0015828
0.0019635
0.00262936
0.00374714
0.00572063
0.00953536
0.0172456
0.0328424
0.0635361
0.11954
0.01787
0.00898315
0.00534033
0.0043187
0.00451325
0.00554505
0.00738293
0.0103385
0.0150533
0.0230211
0.0371036
0.0626422
0.109227
0.189094
0.117198
0.211972
0.374952
0.651126
1.12896
1.99619
0.107632
0.1975
0.355309
0.627671
1.09998
1.92851
0.0762664
0.152813
0.293774
0.545017
0.992131
1.8222
0.0534086
0.116127
0.23869
0.467479
0.892007
1.73484
0.038153
0.0891923
0.195493
0.406603
0.825876
1.72728
0.0288799
0.0718551
0.167367
0.371531
0.812546
1.83326
0.0243054
0.0635295
0.156583
0.372324
0.880843
2.12804
0.0242141
0.0653892
0.168698
0.424893
1.06642
2.68128
0.0294738
0.0801102
0.210246
0.540721
1.37331
3.42187
0.0432601
0.11443
0.292647
0.731232
1.79756
4.29263
0.0710873
0.176657
0.423186
0.989204
2.26747
5.03823
0.120683
0.273615
0.599372
1.28781
2.72095
5.57218
0.201005
0.409766
0.817088
1.61237
3.14098
5.89372
0.323917
0.595925
1.08331
1.9604
3.51477
6.05026
0.50838
0.847925
1.40899
2.33465
3.81826
5.99599
0.391128
0.714886
1.26047
2.14886
3.5106
5.42334
0.312875
0.581421
1.03533
1.77517
2.93906
4.68102
0.240752
0.459845
0.840294
1.47647
2.51871
4.17916
0.180011
0.358098
0.678586
1.23088
2.17293
3.76274
0.13525
0.281573
0.555239
1.04403
1.91423
3.523
0.103924
0.225447
0.461799
0.900415
1.71866
3.40777
0.0836759
0.187007
0.395788
0.798905
1.60093
3.43647
0.0723285
0.163898
0.354522
0.739021
1.56717
3.7078
0.0696165
0.157035
0.341879
0.732925
1.64901
4.2239
0.0768985
0.168896
0.361983
0.781308
1.80467
4.75433
0.0979422
0.203724
0.418354
0.877908
1.97769
5.04199
0.138151
0.265897
0.511448
1.01252
2.14742
5.04394
0.203342
0.359569
0.640893
1.17733
2.30815
4.91648
0.296967
0.483091
0.796785
1.35404
2.42968
4.61825
0.250917
0.37823
0.633338
1.11813
2.05101
3.87421
0.178247
0.293845
0.524123
0.956325
1.75902
3.28924
0.122697
0.228737
0.432571
0.806
1.49124
2.79426
0.0857814
0.17632
0.346486
0.657979
1.23882
2.37023
0.0603496
0.132147
0.268359
0.525373
1.01752
2.01939
0.0423211
0.0963019
0.20206
0.410275
0.82353
1.69999
0.0296332
0.0691051
0.149991
0.316964
0.66361
1.43493
0.0208042
0.0494132
0.111173
0.245319
0.536508
1.22606
0.0151317
0.0364928
0.0850157
0.195562
0.446817
1.0849
0.0120662
0.0295082
0.0706582
0.167426
0.394827
1.00388
0.0116903
0.0286666
0.0686732
0.162889
0.386393
1.00055
0.0149131
0.0355375
0.0816372
0.186612
0.426442
1.07919
0.0240563
0.0546362
0.118457
0.253106
0.540564
1.25228
0.0362072
0.0790411
0.167733
0.33995
0.667173
1.38387
0.00703636
0.0243298
0.0836622
0.262577
0.759989
2.0552
0.0129415
0.0389055
0.120673
0.34212
0.889214
2.13539
0.0259538
0.065946
0.175612
0.438344
1.01094
2.16596
0.055395
0.118578
0.258877
0.547354
1.10688
2.13629
0.0365726
0.0833168
0.186871
0.385802
0.743429
1.46006
0.0243655
0.0684556
0.166723
0.354042
0.69988
1.41103
0.016418
0.0525799
0.135031
0.295703
0.608589
1.28365
0.0111078
0.0381279
0.10198
0.232775
0.506016
1.13408
0.00747239
0.0264132
0.0731421
0.175661
0.408504
0.987977
0.00497842
0.017823
0.0510781
0.130281
0.327214
0.863488
0.00338156
0.0121458
0.0362875
0.099444
0.271438
0.784839
0.00253731
0.0091952
0.0290683
0.08665
0.259418
0.830734
0.0023625
0.00859246
0.0289424
0.0930501
0.296871
0.979638
0.00297989
0.0104812
0.0365532
0.120718
0.384399
1.20469
0.00499505
0.0161194
0.0549043
0.174404
0.519599
1.46621
0.0100201
0.0286971
0.0893842
0.258218
0.689077
1.70679
0.0218507
0.0547088
0.147442
0.373375
0.874409
1.89697
0.0491588
0.106037
0.235725
0.506245
1.03298
1.9964
3.25838
12.2897
33.9771
34.7676
26.6908
3.4078
12.579
33.1224
34.4006
26.6996
3.6381
12.9692
34.6602
34.9568
27.1123
3.86718
13.9087
38.3186
35.8219
27.9257
4.22614
15.1682
42.56
36.0889
28.1953
5.06208
16.8282
44.7488
34.4419
27.6042
6.41638
19.733
44.3285
31.83
27.343
7.93371
22.9062
42.2815
30.2559
27.8575
32.1881
9.4238
25.2516
39.4062
28.8541
28.0276
33.6123
10.2437
25.4919
36.1414
27.2431
27.2221
34.5523
10.4162
24.2537
34.0266
25.8597
25.516
34.5028
44.6311
10.1103
22.3229
33.3901
25.719
23.6533
31.9683
50.5843
61.8247
9.54002
20.1019
33.7658
27.2262
22.9798
27.5105
47.9801
121.122
8.77285
17.9301
34.5207
30.2003
24.5213
25.7085
31.9838
89.3794
7.88322
16.5329
34.9847
33.224
26.7468
26.5463
30.5323
85.4399
7.07982
16.2748
35.7291
35.18
28.0141
27.9382
31.882
72.8613
6.86902
16.5605
39.01
37.045
29.1554
29.7075
32.899
62.2976
6.98056
17.908
45.2097
39.0581
30.9667
32.1398
32.8863
48.5277
7.1695
20.4878
53.0878
40.1552
31.8552
33.8335
33.7961
41.6391
7.46764
24.0083
58.5267
38.6331
30.9211
34.5824
34.6592
36.551
8.17619
28.3199
58.7629
35.9459
30.159
35.8702
37.4048
33.9505
9.53355
33.1559
56.2113
35.0617
30.7525
37.7041
41.8492
33.7426
11.2519
37.2098
52.848
34.4325
30.8929
38.4549
12.352
37.9611
48.9515
33.0917
29.6957
37.6454
12.2852
35.3721
44.8243
31.7165
27.6891
36.1483
11.2354
31.3018
41.1075
32.1217
25.9313
32.581
10.0969
26.5146
36.3177
33.4943
25.8339
27.7589
9.02126
22.4315
32.9112
35.5542
27.8226
8.03259
18.9467
30.7644
38.1162
30.441
7.19835
16.0041
29.1775
40.3287
31.7078
6.51543
13.8091
29.1691
43.156
32.6003
5.82494
12.3616
31.5832
47.7236
34.9508
5.19713
11.6117
36.9106
53.6705
36.3224
4.63283
11.3441
44.6422
57.7319
35.2201
4.149
11.3576
53.2856
58.5295
33.2068
3.74871
11.9861
61.2182
59.2217
32.9649
3.48578
13.4389
65.9436
59.2301
32.3411
3.36963
15.1232
63.8222
56.1736
30.5954
3.42126
16.2101
55.639
50.6115
29.8242
3.65701
16.3927
45.6524
45.5648
30.4118
3.99966
15.8281
37.1988
40.9722
30.9795
4.25307
14.7738
31.874
38.6435
31.5861
4.31858
13.2687
28.0163
37.5244
31.9733
4.20279
11.7794
25.4144
36.6585
30.753
3.96179
10.6
24.5993
37.3236
29.8696
3.69605
9.97977
26.1868
40.2515
30.2974
3.43047
9.75271
30.0076
44.0485
29.851
3.15893
9.69165
34.9353
45.6108
27.7901
2.93552
9.80239
40.6027
44.7332
25.5498
2.91549
10.3207
45.767
43.2523
24.5679
3.14455
12.0806
47.9859
41.2162
23.8842
3.48617
13.4227
46.2201
38.4159
23.2126
3.75306
13.6663
43.3432
36.3522
22.7017
3.80013
12.8612
40.7468
35.2296
22.9726
3.66444
11.7523
38.3657
34.569
24.3093
3.44301
11.6947
35.994
34.6112
25.7984
0.0409697
0.0292959
0.0200365
0.0136674
0.00966713
0.00747686
0.00686699
0.0079941
0.0118915
0.020892
0.0393765
0.0744217
0.13501
0.233682
0.0160723
0.0111349
0.00739289
0.00488225
0.00335903
0.00255246
0.00236396
0.00288849
0.00470586
0.00918306
0.0190793
0.0394333
0.0781517
0.149096
0.00591676
0.00382697
0.0024413
0.00155979
0.00104946
0.000791623
0.000759473
0.00102757
0.00194623
0.0043906
0.0102621
0.0233395
0.050363
0.104102
0.00211486
0.0012051
0.000723427
0.000445091
0.00029412
0.000224125
0.000235504
0.000386196
0.000897568
0.00235076
0.00609284
0.014981
0.0344937
0.075206
0.000836022
0.000371556
0.000196544
0.000114217
7.42996e-05
5.95339e-05
7.67386e-05
0.000168183
0.00047836
0.00140179
0.00390244
0.0101349
0.0244684
0.0554915
0.000480785
0.000142977
5.46632e-05
2.72777e-05
1.73098e-05
1.61139e-05
2.99183e-05
8.83547e-05
0.000288972
0.000907558
0.00264863
0.00715541
0.0179228
0.0419645
0.000458873
9.90606e-05
2.23873e-05
7.12395e-06
4.12185e-06
5.45486e-06
1.56147e-05
5.6053e-05
0.000197422
0.000645562
0.00194475
0.0054031
0.0139005
0.0333147
0.000591488
0.000111712
1.83931e-05
3.59079e-06
1.97198e-06
3.64663e-06
1.18875e-05
4.3976e-05
0.000157288
0.000521927
0.00159624
0.00449757
0.0117308
0.0284402
0.000851447
0.000151331
2.41007e-05
6.48207e-06
5.62727e-06
8.3653e-06
1.77632e-05
5.12308e-05
0.000165751
0.0005285
0.00158448
0.0044081
0.0113913
0.0274197
0.00128221
0.000230667
4.76182e-05
2.46749e-05
2.68356e-05
3.53557e-05
5.41727e-05
0.000106352
0.000263931
0.000729492
0.00201743
0.00533358
0.0132884
0.0310575
0.00205251
0.000436219
0.000141952
0.000103492
0.000116248
0.00014865
0.000206189
0.000327338
0.000624048
0.00139655
0.00336141
0.00811479
0.0189569
0.0420662
0.00368512
0.00107083
0.000489312
0.000392722
0.000434882
0.00054944
0.000741694
0.00108385
0.00176759
0.00328932
0.0067755
0.0146083
0.0314646
0.0653334
0.0074565
0.00294517
0.00159339
0.00130491
0.00141567
0.00177274
0.00237463
0.00336451
0.00507805
0.0083594
0.0150349
0.0287722
0.0563765
0.107888
0.0162017
0.0079379
0.00463891
0.00381589
0.00407171
0.0050629
0.00675836
0.00943604
0.0136466
0.0207036
0.0331949
0.0561579
0.0988954
0.173959
0.031019
0.0226295
0.0158891
0.0108821
0.0075696
0.00552325
0.00456457
0.00460323
0.00615626
0.0105089
0.0205475
0.0413808
0.0814233
0.152779
0.0111598
0.00785647
0.00536475
0.00356514
0.00242119
0.00172751
0.00142514
0.00149416
0.00222559
0.00440544
0.00990082
0.0223569
0.048701
0.102321
0.00367086
0.00242649
0.00160062
0.00103413
0.000690643
0.000486249
0.000409339
0.000474554
0.000863145
0.00209461
0.00547607
0.0138082
0.0327993
0.0741702
0.00114233
0.000673121
0.000421139
0.000263883
0.00017443
0.000123095
0.000111579
0.000162354
0.000394434
0.00116337
0.00340269
0.00925097
0.0232614
0.0549296
0.000412894
0.000183392
0.000100091
5.94475e-05
3.89569e-05
2.85784e-05
3.19297e-05
6.89896e-05
0.000221012
0.000737279
0.00229377
0.00651822
0.0170288
0.0415383
0.000267512
7.13535e-05
2.52178e-05
1.23492e-05
7.84587e-06
6.64091e-06
1.16796e-05
3.82274e-05
0.00014338
0.000506522
0.00162966
0.00477107
0.0128365
0.0321276
0.000312462
6.00338e-05
1.13683e-05
3.00927e-06
1.61367e-06
2.03268e-06
6.33474e-06
2.61048e-05
0.000103999
0.00037696
0.00123898
0.00370793
0.0102001
0.0260002
0.00045284
7.72075e-05
1.10389e-05
1.77945e-06
8.75253e-07
1.52372e-06
5.15658e-06
2.11305e-05
8.40833e-05
0.000307149
0.00102216
0.00310303
0.00865773
0.022298
0.000688589
0.00010993
1.52408e-05
3.79002e-06
3.32422e-06
4.58285e-06
8.80014e-06
2.50887e-05
8.70535e-05
0.000304195
0.000995381
0.00299716
0.00831325
0.0212944
0.00106508
0.000168672
2.99527e-05
1.5495e-05
1.74272e-05
2.24445e-05
3.21621e-05
5.82347e-05
0.000141824
0.000412576
0.00123334
0.00353312
0.00947704
0.023672
0.00171688
0.000311584
8.93772e-05
6.80062e-05
7.9869e-05
0.000102373
0.000138233
0.000207441
0.000374763
0.000834317
0.00209888
0.00541438
0.0135319
0.0320025
0.00307068
0.000757295
0.000316836
0.000268243
0.000312531
0.000401152
0.000537204
0.000761488
0.00119064
0.00215742
0.00449512
0.0101183
0.0230128
0.0506266
0.00616543
0.00214056
0.00108138
0.000929128
0.0010596
0.00135609
0.00181626
0.00253135
0.00372074
0.00598092
0.0107225
0.0210521
0.0431044
0.0870104
0.0135207
0.00612345
0.00333825
0.00284381
0.00317438
0.00405027
0.00543541
0.00752413
0.0107107
0.0159675
0.0253322
0.0432609
0.0786225
0.145436
0.0179683
0.0128971
0.00920666
0.0064286
0.00463308
0.003487
0.00293443
0.00286671
0.00357069
0.00568402
0.0108491
0.0220772
0.0452407
0.0905487
0.00583957
0.00400226
0.00276798
0.0018525
0.00128999
0.0009378
0.000781372
0.00078803
0.00109325
0.00207219
0.00473798
0.0112808
0.026473
0.0606581
0.00171949
0.00109809
0.000733075
0.000471105
0.000318522
0.000224279
0.000187632
0.000207234
0.000361005
0.000892353
0.00249023
0.00681844
0.0177393
0.0440697
0.000484902
0.000269945
0.000169737
0.000104589
6.89275e-05
4.75111e-05
4.20502e-05
5.96979e-05
0.000150866
0.000481703
0.00153902
0.00457875
0.0126552
0.032952
0.000187685
7.00461e-05
3.57079e-05
2.03279e-05
1.29826e-05
9.07308e-06
1.01034e-05
2.36982e-05
8.51333e-05
0.000314059
0.00107147
0.00333429
0.00958969
0.0258951
0.000161759
3.43588e-05
9.19115e-06
3.73596e-06
2.17364e-06
1.75088e-06
3.46476e-06
1.33902e-05
5.70159e-05
0.000223349
0.000790406
0.00254406
0.0075637
0.0210125
0.00022554
3.79194e-05
5.69393e-06
1.02098e-06
4.04065e-07
5.17616e-07
1.95721e-06
9.39736e-06
4.23495e-05
0.000171252
0.000624592
0.00207434
0.00634864
0.0180311
0.000353093
5.4121e-05
6.73439e-06
8.87415e-07
3.8752e-07
5.90508e-07
1.79235e-06
7.76631e-06
3.46357e-05
0.000142708
0.000534267
0.0018214
0.00569083
0.0163579
0.000564418
8.10463e-05
9.79629e-06
2.25514e-06
2.10082e-06
2.78959e-06
4.45695e-06
1.08748e-05
3.82928e-05
0.000148398
0.000548738
0.00186542
0.00579513
0.0164923
0.000913503
0.00012911
1.95699e-05
9.94852e-06
1.19421e-05
1.57269e-05
2.13112e-05
3.39206e-05
7.48786e-05
0.000222904
0.000730922
0.00233015
0.00690823
0.0189124
0.00152961
0.000244357
6.03786e-05
4.63135e-05
5.73335e-05
7.59265e-05
0.000101543
0.000144485
0.000241949
0.000523324
0.00137066
0.00380869
0.01028
0.0261983
0.00284785
0.000613443
0.00022734
0.000192975
0.000233008
0.000308309
0.000414405
0.000574647
0.000861433
0.00151205
0.00317441
0.00747887
0.0180356
0.0421803
0.0057814
0.00181052
0.000831909
0.000709207
0.000821158
0.00107451
0.0014493
0.00200228
0.00288121
0.00453783
0.00809717
0.0162759
0.0348408
0.0743602
0.0126122
0.00554525
0.00276851
0.00231477
0.00257174
0.00332085
0.0044833
0.00619251
0.00874229
0.0129187
0.0203261
0.0347938
0.0646678
0.125497
0.00712243
0.00493377
0.0035488
0.00254295
0.00193362
0.00152746
0.00132398
0.00127686
0.0014771
0.00216013
0.00401815
0.00844728
0.0187786
0.0414784
0.00202368
0.00132675
0.000926732
0.000633793
0.000462558
0.000349551
0.000296351
0.00028841
0.000363506
0.000646339
0.00153029
0.00401116
0.0106283
0.0273455
0.000515497
0.000308602
0.000208103
0.000136763
9.65336e-05
7.00924e-05
5.85175e-05
6.02268e-05
9.61213e-05
0.000245051
0.000769786
0.00241831
0.00718706
0.0201331
0.000143117
6.58582e-05
4.00343e-05
2.51007e-05
1.71927e-05
1.2135e-05
1.04225e-05
1.37274e-05
3.59741e-05
0.000132086
0.000490096
0.00167494
0.00525935
0.0154556
8.57736e-05
2.09778e-05
7.66368e-06
3.99977e-06
2.58697e-06
1.82845e-06
1.96301e-06
4.92932e-06
2.09824e-05
9.13437e-05
0.000360779
0.00128488
0.00420581
0.0129381
0.000110043
1.86557e-05
3.04875e-06
7.32387e-07
3.46914e-07
2.75022e-07
6.1322e-07
2.95247e-06
1.51298e-05
6.93956e-05
0.000283144
0.0010442
0.003552
0.0113176
0.000173064
2.60781e-05
3.19043e-06
3.67472e-07
7.95466e-08
9.08083e-08
3.90457e-07
2.25561e-06
1.20586e-05
5.69897e-05
0.000240575
0.000920808
0.00324027
0.0105631
0.000282899
3.90041e-05
4.24914e-06
4.85155e-07
2.06332e-07
2.63541e-07
5.54579e-07
2.17287e-06
1.07638e-05
5.14092e-05
0.000223331
0.00087889
0.00314865
0.0103051
0.000462102
5.94845e-05
6.28625e-06
1.38635e-06
1.36903e-06
1.79226e-06
2.46485e-06
4.58323e-06
1.43615e-05
5.9737e-05
0.000251224
0.000976607
0.00344451
0.0110277
0.000765531
9.87067e-05
1.29895e-05
6.56621e-06
8.13109e-06
1.08389e-05
1.42166e-05
2.01329e-05
3.75676e-05
0.000105293
0.000368101
0.00130557
0.00431501
0.0130825
0.00131354
0.000194627
4.26472e-05
3.23397e-05
4.03674e-05
5.40483e-05
7.15466e-05
9.7095e-05
0.000148027
0.00029347
0.000765536
0.00226716
0.00665991
0.0185264
0.00263082
0.00050684
0.000171571
0.000143118
0.000170633
0.000226262
0.000301876
0.000408312
0.000581966
0.000956216
0.00193302
0.00465405
0.011901
0.0299749
0.00547535
0.00153347
0.000670408
0.000563758
0.000633958
0.000821029
0.00109414
0.00148385
0.00207368
0.00313537
0.00537764
0.0107458
0.0238197
0.0542813
0.0112947
0.0050044
0.00240274
0.00197813
0.00211339
0.00266895
0.00353153
0.00478339
0.00662147
0.00957171
0.0146441
0.0245288
0.0456624
0.0929825
0.00137957
0.000887556
0.000617691
0.000432344
0.000325846
0.000261921
0.000238131
0.000242418
0.000289514
0.000424762
0.000796601
0.00177553
0.00438826
0.0111051
0.000333734
0.000198498
0.000136351
9.24851e-05
6.73284e-05
5.16225e-05
4.50177e-05
4.50056e-05
5.7057e-05
0.000103253
0.000264341
0.000791504
0.00242681
0.00714805
7.98528e-05
3.82397e-05
2.48785e-05
1.63899e-05
1.16375e-05
8.62601e-06
7.33519e-06
7.62699e-06
1.25973e-05
3.64226e-05
0.000134725
0.000496138
0.00169678
0.00535121
3.69464e-05
9.43076e-06
4.11777e-06
2.40171e-06
1.64133e-06
1.1914e-06
1.04765e-06
1.49084e-06
4.74684e-06
2.12752e-05
9.28933e-05
0.000364929
0.00129158
0.00420306
4.4434e-05
7.2931e-06
1.30819e-06
3.66979e-07
1.93438e-07
1.3782e-07
1.6883e-07
5.78388e-07
3.1411e-06
1.62678e-05
7.41394e-05
0.000299426
0.00109671
0.00374554
7.06541e-05
1.01246e-05
1.31437e-06
1.57889e-07
2.96436e-08
1.84496e-08
6.11876e-08
3.9986e-07
2.483e-06
1.3306e-05
6.22047e-05
0.000259595
0.000992251
0.00355377
0.00012203
1.53412e-05
1.75196e-06
1.70161e-07
2.4147e-08
1.75932e-08
5.57274e-08
3.39896e-07
2.11598e-06
1.16318e-05
5.64541e-05
0.000246687
0.000989475
0.00368876
0.000217744
2.41182e-05
2.38758e-06
2.55564e-07
1.06837e-07
1.23485e-07
1.76131e-07
4.44802e-07
2.09272e-06
1.12424e-05
5.63459e-05
0.000256205
0.00106033
0.00400858
0.000382245
4.02682e-05
3.55351e-06
7.42229e-07
7.30042e-07
9.40283e-07
1.17989e-06
1.66612e-06
3.77319e-06
1.48726e-05
6.95422e-05
0.000311809
0.00127487
0.00471808
0.000673686
7.96762e-05
7.80008e-06
3.65283e-06
4.44441e-06
5.85254e-06
7.39638e-06
9.47876e-06
1.42821e-05
3.30551e-05
0.000115393
0.000455637
0.00172413
0.00598918
0.00117105
0.000169778
2.77946e-05
1.91501e-05
2.29882e-05
3.01352e-05
3.86408e-05
4.95531e-05
6.74025e-05
0.000113906
0.000274187
0.000851726
0.00279001
0.0087656
0.00212091
0.000442928
0.000121375
9.23575e-05
0.000103624
0.000132666
0.000170885
0.00022129
0.00029439
0.000436022
0.000800402
0.00189833
0.0051614
0.0143087
0.0039108
0.00127134
0.000515998
0.000402957
0.00042031
0.000517816
0.000660221
0.000857264
0.00113853
0.00161173
0.00256002
0.0048894
0.0109831
0.0267588
0.00819885
0.00401337
0.00204997
0.00157432
0.00154593
0.00183967
0.00230972
0.00298303
0.00395401
0.00549869
0.00806352
0.0129697
0.0232951
0.0479542
0.000125297
7.50918e-05
5.20411e-05
3.67164e-05
2.76625e-05
2.19083e-05
1.93838e-05
1.89018e-05
2.14612e-05
3.12469e-05
6.42757e-05
0.0001697
0.000503825
0.00152276
2.83792e-05
1.3436e-05
8.95337e-06
6.17923e-06
4.58484e-06
3.56866e-06
3.09541e-06
2.96435e-06
3.57019e-06
6.97977e-06
2.2179e-05
8.27344e-05
0.00030302
0.00103031
1.20189e-05
2.80109e-06
1.31163e-06
8.23442e-07
5.9595e-07
4.59352e-07
3.99371e-07
4.1655e-07
7.80487e-07
2.9718e-06
1.37725e-05
5.98359e-05
0.000233181
0.000817047
1.40984e-05
2.02958e-06
3.65563e-07
1.10901e-07
6.21434e-08
4.60641e-08
4.40327e-08
8.18212e-08
3.7577e-07
2.11452e-06
1.07726e-05
4.79383e-05
0.000188071
0.000662337
2.1858e-05
2.93702e-06
3.82246e-07
5.08238e-08
9.06854e-09
4.16996e-09
7.33626e-09
4.22045e-08
2.92301e-07
1.77017e-06
9.17473e-06
4.13064e-05
0.000164955
0.000599411
3.49938e-05
4.54976e-06
5.09289e-07
5.64983e-08
5.87895e-09
1.28977e-09
4.23401e-09
3.36541e-08
2.45155e-07
1.50971e-06
7.95587e-06
3.66621e-05
0.000151479
0.000576799
5.7202e-05
7.38208e-06
6.8239e-07
6.8504e-08
9.27348e-09
5.38697e-09
8.54235e-09
3.42892e-08
2.20197e-07
1.3582e-06
7.35753e-06
3.53157e-05
0.000153681
0.000619723
9.34627e-05
1.21158e-05
9.35678e-07
1.00495e-07
4.12613e-08
4.70281e-08
5.76752e-08
8.72184e-08
2.67606e-07
1.38856e-06
7.55638e-06
3.78253e-05
0.000172687
0.000724947
0.00014992
1.96782e-05
1.44405e-06
2.845e-07
2.81301e-07
3.63277e-07
4.42461e-07
5.38296e-07
8.15933e-07
2.27848e-06
1.02126e-05
4.95685e-05
0.00022608
0.000945104
0.000240508
3.35799e-05
3.3057e-06
1.45017e-06
1.77829e-06
2.33193e-06
2.88453e-06
3.4866e-06
4.42942e-06
7.45622e-06
2.10278e-05
8.30603e-05
0.000344079
0.00134609
0.000391011
6.59587e-05
1.22204e-05
8.12908e-06
9.76938e-06
1.2641e-05
1.57984e-05
1.94587e-05
2.42609e-05
3.41983e-05
6.5437e-05
0.00018495
0.000629122
0.0021766
0.000686507
0.000166533
5.46034e-05
4.10134e-05
4.63197e-05
5.82548e-05
7.28029e-05
9.08184e-05
0.000114
0.00015247
0.000238408
0.00049588
0.00131234
0.00385033
0.00130855
0.000490891
0.000233275
0.00018433
0.000195139
0.000235187
0.000288887
0.000360178
0.000454777
0.000601077
0.000862727
0.00147093
0.00307976
0.00761327
0.00301885
0.00159154
0.000924532
0.000749099
0.000754532
0.000873438
0.00104546
0.00128771
0.00161988
0.00212782
0.00293327
0.00441575
0.00743005
0.0149389
8.25987e-06
4.2936e-06
2.94477e-06
2.12812e-06
1.63228e-06
1.31787e-06
1.17157e-06
1.10311e-06
1.15061e-06
1.59413e-06
3.69939e-06
1.21511e-05
4.35788e-05
0.000153397
2.59612e-06
7.11884e-07
3.77867e-07
2.54866e-07
1.92434e-07
1.5542e-07
1.39091e-07
1.33011e-07
1.60469e-07
3.75641e-07
1.55774e-06
7.0533e-06
2.95552e-05
0.000111766
2.51451e-06
3.98692e-07
8.13053e-08
2.82272e-08
1.71719e-08
1.34475e-08
1.24037e-08
1.48146e-08
4.04493e-08
2.13238e-07
1.17342e-06
5.73199e-06
2.45868e-05
9.35226e-05
3.79894e-06
5.72392e-07
8.63838e-08
1.2757e-08
2.34904e-09
9.75188e-10
1.06767e-09
3.7863e-09
2.58119e-08
1.71145e-07
9.79014e-07
4.82505e-06
2.07484e-05
7.88941e-05
5.81761e-06
8.46094e-07
1.19392e-07
1.56553e-08
1.81589e-09
2.33864e-10
3.22582e-10
2.7081e-09
2.19326e-08
1.49481e-07
8.6326e-07
4.2878e-06
1.862e-05
7.18894e-05
8.8282e-06
1.2223e-06
1.53787e-07
1.85343e-08
2.04888e-09
3.57686e-10
4.35096e-10
2.48297e-09
1.91014e-08
1.30708e-07
7.64101e-07
3.85727e-06
1.71201e-05
6.81743e-05
1.34851e-05
1.80302e-06
1.94879e-07
2.18889e-08
3.4573e-09
2.13422e-09
2.50301e-09
4.4824e-09
1.93778e-08
1.20577e-07
7.0817e-07
3.66867e-06
1.69095e-05
7.07562e-05
2.04233e-05
2.65382e-06
2.50569e-07
3.26776e-08
1.56155e-08
1.8117e-08
2.15776e-08
2.57672e-08
4.18617e-08
1.42758e-07
7.39179e-07
3.86585e-06
1.85648e-05
8.16855e-05
3.04169e-05
3.92347e-06
3.72031e-07
9.90039e-08
1.04116e-07
1.35302e-07
1.64451e-07
1.91816e-07
2.32384e-07
3.82166e-07
1.1728e-06
5.29226e-06
2.48673e-05
0.000110026
4.53158e-05
6.30213e-06
8.68061e-07
4.93888e-07
6.22423e-07
8.20804e-07
1.01467e-06
1.20617e-06
1.42312e-06
1.85223e-06
3.40243e-06
1.04762e-05
4.17481e-05
0.000170553
7.07434e-05
1.27547e-05
3.27141e-06
2.5385e-06
3.15778e-06
4.11373e-06
5.12577e-06
6.19757e-06
7.38737e-06
9.16922e-06
1.33989e-05
2.85107e-05
8.65275e-05
0.0003025
0.000125952
3.51633e-05
1.43669e-05
1.1974e-05
1.40763e-05
1.78088e-05
2.21213e-05
2.6997e-05
3.25851e-05
4.02334e-05
5.38504e-05
9.03802e-05
0.000207223
0.000593827
0.000264402
0.000113275
6.06813e-05
5.15304e-05
5.69423e-05
6.90298e-05
8.43395e-05
0.000102806
0.000125057
0.000155309
0.000201765
0.000297876
0.000545261
0.00127828
0.000671039
0.000376221
0.000237513
0.000204338
0.000214648
0.000248157
0.000294615
0.000354207
0.000430173
0.000536631
0.000691696
0.000957282
0.00147422
0.00279023
8.82005e-07
3.43345e-07
2.10671e-07
1.47951e-07
1.13196e-07
9.41761e-08
8.72716e-08
8.40134e-08
8.57708e-08
1.18537e-07
3.15207e-07
1.24508e-06
5.10163e-06
1.96561e-05
4.54594e-07
9.12481e-08
2.66041e-08
1.30895e-08
9.2322e-09
7.72566e-09
7.36467e-09
7.51339e-09
1.03198e-08
3.20664e-08
1.62606e-07
8.2272e-07
3.72089e-06
1.49572e-05
6.14933e-07
1.10706e-07
1.89574e-08
3.20819e-09
8.18311e-10
4.68294e-10
4.61284e-10
7.67327e-10
3.36155e-09
2.17609e-08
1.31568e-07
6.91037e-07
3.16609e-06
1.27735e-05
9.46651e-07
1.68764e-07
2.85091e-08
4.14197e-09
5.39415e-10
7.49136e-11
5.04851e-11
3.02504e-10
2.47042e-09
1.78151e-08
1.09684e-07
5.80662e-07
2.67698e-06
1.08625e-05
1.39537e-06
2.36791e-07
3.85909e-08
5.36734e-09
6.50772e-10
7.30914e-11
3.55798e-11
2.46111e-10
2.10124e-09
1.54086e-08
9.60086e-08
5.13688e-07
2.39322e-06
9.82935e-06
2.01212e-06
3.17225e-07
4.79399e-08
6.18853e-09
7.31025e-10
1.27996e-10
9.78593e-11
2.78031e-10
1.85698e-09
1.33471e-08
8.40442e-08
4.56687e-07
2.16684e-06
9.10654e-06
2.90209e-06
4.23113e-07
5.84416e-08
7.15192e-09
1.17e-09
6.96807e-10
7.75319e-10
9.92257e-10
2.40607e-09
1.26283e-08
7.67124e-08
4.22919e-07
2.06269e-06
9.00232e-06
4.12574e-06
5.58655e-07
7.17241e-08
1.02322e-08
4.68443e-09
5.38745e-09
6.43664e-09
7.33516e-09
9.19042e-09
1.94253e-08
8.25705e-08
4.32343e-07
2.15366e-06
9.80859e-06
5.75719e-06
7.44065e-07
9.88733e-08
2.7074e-08
2.74263e-08
3.58493e-08
4.37117e-08
5.02658e-08
5.72826e-08
7.47617e-08
1.58699e-07
6.05588e-07
2.80785e-06
1.27709e-05
8.08656e-06
1.11395e-06
2.05303e-07
1.1894e-07
1.50468e-07
1.99747e-07
2.46258e-07
2.88331e-07
3.29937e-07
3.92665e-07
5.73477e-07
1.36481e-06
4.93019e-06
2.02434e-05
1.21775e-05
2.24541e-06
7.04097e-07
5.68384e-07
7.25332e-07
9.53615e-07
1.18235e-06
1.40599e-06
1.63376e-06
1.92832e-06
2.49573e-06
4.33225e-06
1.13311e-05
3.8392e-05
2.21136e-05
6.4476e-06
2.93613e-06
2.55121e-06
3.10879e-06
3.9907e-06
4.94053e-06
5.93409e-06
6.99406e-06
8.32031e-06
1.03641e-05
1.52506e-05
3.03694e-05
8.2249e-05
5.01069e-05
2.15911e-05
1.2053e-05
1.05602e-05
1.21159e-05
1.49914e-05
1.83558e-05
2.21173e-05
2.63497e-05
3.17231e-05
3.9208e-05
5.318e-05
8.70581e-05
0.000190497
0.000133887
7.28037e-05
4.62557e-05
4.06045e-05
4.39664e-05
5.19141e-05
6.21101e-05
7.43456e-05
8.89936e-05
0.000108374
0.000134739
0.000176838
0.000253791
0.000452567
1.67531e-07
4.60493e-08
2.13362e-08
1.36603e-08
1.03158e-08
8.8578e-09
8.54198e-09
8.39068e-09
8.39618e-09
1.15068e-08
3.40758e-08
1.52543e-07
6.77553e-07
2.73955e-06
1.2326e-07
2.39749e-08
4.68161e-09
1.28034e-09
6.80362e-10
5.67786e-10
5.79529e-10
6.38257e-10
9.97372e-10
3.73639e-09
2.09349e-08
1.11827e-07
5.2652e-07
2.18398e-06
1.80825e-07
3.65742e-08
6.43688e-09
9.93718e-10
1.5441e-10
4.04514e-11
3.38029e-11
7.29506e-11
3.99233e-10
2.7909e-09
1.76812e-08
9.67138e-08
4.59814e-07
1.91466e-06
2.72842e-07
5.54197e-08
9.87576e-09
1.49709e-09
1.99998e-10
2.48863e-11
8.36521e-12
3.7714e-11
3.1021e-10
2.32408e-09
1.49411e-08
8.25571e-08
3.96744e-07
1.66952e-06
3.86275e-07
7.59381e-08
1.31248e-08
1.90998e-09
2.43219e-10
2.90589e-11
9.02298e-12
3.29394e-11
2.64329e-10
2.00404e-09
1.30763e-08
7.33389e-08
3.57644e-07
1.52676e-06
5.29616e-07
9.85476e-08
1.60008e-08
2.17072e-09
2.68502e-10
4.67034e-11
3.01511e-11
5.13263e-11
2.47336e-10
1.7411e-09
1.14149e-08
6.50907e-08
3.23593e-07
1.41323e-06
7.21128e-07
1.26285e-07
1.91236e-08
2.46394e-09
3.96167e-10
2.14529e-10
2.32615e-10
2.69936e-10
4.51339e-10
1.77085e-09
1.04477e-08
5.97093e-08
3.036e-07
1.36973e-06
9.66468e-07
1.59432e-07
2.29523e-08
3.30782e-09
1.326e-09
1.46377e-09
1.74617e-09
1.96458e-09
2.27167e-09
3.63566e-09
1.21089e-08
6.08443e-08
3.09063e-07
1.44095e-06
1.27273e-06
2.01437e-07
3.01147e-08
7.54179e-09
7.02207e-09
9.12347e-09
1.11141e-08
1.26896e-08
1.41653e-08
1.69e-08
2.84092e-08
8.9794e-08
3.98482e-07
1.82686e-06
1.6996e-06
2.8023e-07
5.55987e-08
2.96056e-08
3.68781e-08
4.90637e-08
6.03344e-08
7.0053e-08
7.90297e-08
9.05219e-08
1.1768e-07
2.29893e-07
7.34833e-07
2.94735e-06
2.48954e-06
5.2151e-07
1.69198e-07
1.34201e-07
1.73501e-07
2.29623e-07
2.83907e-07
3.34564e-07
3.83227e-07
4.40519e-07
5.34934e-07
8.13883e-07
1.85044e-06
5.92372e-06
4.6243e-06
1.42914e-06
6.64533e-07
5.83997e-07
7.30686e-07
9.49648e-07
1.17444e-06
1.39814e-06
1.6227e-06
1.88552e-06
2.2497e-06
3.04783e-06
5.40905e-06
1.36374e-05
1.109e-05
4.71378e-06
2.64686e-06
2.35445e-06
2.79383e-06
3.52686e-06
4.33497e-06
5.19122e-06
6.09188e-06
7.17081e-06
8.5609e-06
1.09859e-05
1.65118e-05
3.35757e-05
3.05592e-05
1.57486e-05
9.95434e-06
8.83695e-06
9.90302e-06
1.20069e-05
1.45139e-05
1.73392e-05
2.04913e-05
2.44393e-05
2.94728e-05
3.71564e-05
5.03251e-05
8.45236e-05
3.71012e-08
8.00107e-09
2.49166e-09
1.29685e-09
9.55358e-10
8.76003e-10
9.12142e-10
9.44819e-10
9.47769e-10
1.21486e-09
3.59019e-09
1.73479e-08
8.22179e-08
3.46899e-07
3.32248e-08