/*--------------------------------*- C++ -*----------------------------------*\
| =========                 |                                                 |
| \\      /  F ield         | OpenFOAM: The Open Source CFD Toolbox           |
|  \\    /   O peration     | Version:  v2106                                 |
|   \\  /    A nd           | Website:  www.openfoam.com                      |
|    \\/     M anipulation  |                                                 |
\*---------------------------------------------------------------------------*/
FoamFile
{
    version     2.0;
    format      ascii;
    arch        "LSB;label=32;scalar=64";
    class       volScalarField;
    location    "0.000195";
    object      rho;
}
// * * * * * * * * * * * * * * * * * * * * * * * * * * * * * * * * * * * * * //

dimensions      [1 -3 0 0 0 0 0];

internalField   nonuniform List<scalar> 
18109
(
2.44967
2.44495
2.43952
2.43383
2.42817
2.42266
2.41754
2.44868
2.44425
2.4392
2.43368
2.42807
2.42248
2.41708
2.44802
2.44371
2.43877
2.43342
2.42798
2.42251
2.41713
2.44743
2.44312
2.43833
2.4332
2.428
2.42271
2.41741
2.44667
2.44231
2.43765
2.43275
2.42771
2.42262
2.41752
2.4456
2.44118
2.43648
2.43163
2.42679
2.42198
2.41722
2.44388
2.43927
2.43468
2.43007
2.42549
2.42099
2.41658
2.44146
2.43692
2.43254
2.42816
2.4239
2.4197
2.41557
2.45348
2.44989
2.44532
2.44026
2.43502
2.42972
2.42456
2.41953
2.41467
2.40984
2.40494
2.39979
2.39482
2.3886
2.45279
2.44896
2.44462
2.43968
2.43453
2.42918
2.4238
2.41839
2.4131
2.40813
2.40329
2.39819
2.39315
2.38722
2.45212
2.4483
2.44397
2.43916
2.43414
2.42885
2.42343
2.41796
2.4126
2.40743
2.40239
2.39725
2.39198
2.38606
2.45117
2.44729
2.44305
2.43844
2.43364
2.42852
2.42318
2.41773
2.41227
2.40703
2.40183
2.39647
2.39082
2.38479
2.44984
2.44594
2.44182
2.43741
2.4328
2.42789
2.42275
2.4175
2.41212
2.40684
2.4015
2.3959
2.38994
2.3839
2.44812
2.44418
2.44006
2.43575
2.43133
2.42671
2.42191
2.41699
2.41185
2.40665
2.40121
2.3954
2.38926
2.38313
2.44572
2.44175
2.43777
2.43369
2.4295
2.4252
2.4208
2.41623
2.41136
2.40627
2.40079
2.39487
2.38865
2.38248
2.44296
2.43906
2.43523
2.43132
2.4274
2.42341
2.41932
2.41502
2.4104
2.40544
2.4
2.3941
2.38794
2.38185
2.44007
2.43628
2.43264
2.42895
2.42526
2.42151
2.41762
2.41348
2.40897
2.40409
2.39873
2.39295
2.38698
2.38113
2.43729
2.4336
2.43011
2.42662
2.4231
2.41947
2.41564
2.41154
2.40708
2.40225
2.39702
2.39145
2.38575
2.38008
2.43497
2.43123
2.42779
2.42432
2.42083
2.41717
2.41326
2.40907
2.40457
2.39979
2.39472
2.38946
2.38398
2.37853
2.43282
2.42904
2.42557
2.42198
2.41839
2.41455
2.41051
2.40623
2.40169
2.39699
2.39211
2.38711
2.38185
2.37656
2.43126
2.42711
2.42345
2.41959
2.41578
2.41169
2.40739
2.40294
2.39836
2.39377
2.3891
2.38436
2.37931
2.37406
2.42877
2.42455
2.421
2.41703
2.41312
2.40888
2.40446
2.39992
2.39532
2.39081
2.38629
2.38163
2.37684
2.37121
2.45222
2.45568
2.4597
2.46444
2.46896
2.4739
2.45498
2.45742
2.46001
2.46326
2.46686
2.47136
2.452
2.45525
2.45878
2.46268
2.46689
2.47215
2.44765
2.45137
2.45561
2.46052
2.46547
2.47078
2.44265
2.44666
2.45147
2.45707
2.46273
2.46834
2.43736
2.44128
2.44636
2.45244
2.45845
2.46418
2.43203
2.43575
2.4407
2.44682
2.4531
2.45979
2.42669
2.43004
2.43452
2.44006
2.446
2.45272
2.42137
2.42421
2.42795
2.43239
2.43724
2.44327
2.41619
2.41837
2.42103
2.42402
2.4274
2.43312
2.4108
2.41217
2.41362
2.41517
2.41771
2.42271
2.4056
2.4062
2.40677
2.40698
2.40824
2.41193
2.40018
2.39963
2.39928
2.39869
2.40037
2.40439
2.39481
2.39373
2.39333
2.39297
2.39536
2.39927
2.38882
2.3867
2.38602
2.3859
2.38851
2.39191
2.3847
2.38415
2.38384
2.38516
2.38672
2.38885
2.383
2.3803
2.37896
2.37993
2.38149
2.38377
2.38111
2.37813
2.37633
2.37669
2.37755
2.37903
2.37923
2.37539
2.3729
2.37247
2.37303
2.37364
2.37794
2.37349
2.37036
2.36927
2.36902
2.36888
2.37695
2.37198
2.36819
2.36603
2.36478
2.36429
2.37625
2.37084
2.36631
2.36289
2.36016
2.35885
2.37569
2.36984
2.36441
2.35982
2.35584
2.3539
2.37504
2.3687
2.36258
2.35697
2.35208
2.34933
2.37404
2.36741
2.36078
2.35452
2.34884
2.34564
2.37267
2.3662
2.35955
2.35317
2.34774
2.34518
2.3709
2.36434
2.35833
2.35267
2.34908
2.34772
2.36885
2.36352
2.35887
2.35521
2.35392
2.35387
2.36631
2.36153
2.35849
2.35697
2.35728
2.35937
2.36886
2.36527
2.36409
2.36356
2.36584
2.3691
2.3748
2.37131
2.37003
2.36956
2.37248
2.37642
2.37922
2.37614
2.37524
2.37575
2.37974
2.38403
2.38382
2.38129
2.38067
2.38201
2.38664
2.39141
2.38824
2.3863
2.38601
2.38804
2.3931
2.39856
2.39279
2.39132
2.39136
2.39377
2.39839
2.40424
2.39742
2.39624
2.39647
2.3991
2.40298
2.40889
2.40207
2.40124
2.40145
2.4038
2.40657
2.41149
2.4067
2.40618
2.40615
2.40793
2.40956
2.41353
2.41113
2.41082
2.41066
2.41153
2.41195
2.41498
2.41537
2.41539
2.41491
2.41512
2.41472
2.4169
2.41982
2.42002
2.4193
2.41929
2.41872
2.42092
2.42397
2.42457
2.42426
2.42443
2.42505
2.42696
2.42917
2.42982
2.43004
2.43037
2.43234
2.43432
2.45128
2.45503
2.45799
2.4613
2.46487
2.46976
2.4516
2.4549
2.45742
2.45994
2.46343
2.46757
2.4521
2.45566
2.45825
2.46131
2.46483
2.46951
2.45361
2.45626
2.45905
2.46234
2.46629
2.47192
2.432
2.43243
2.43455
2.43629
2.43982
2.44391
2.43497
2.43663
2.44009
2.44313
2.44737
2.45262
2.43685
2.43957
2.44418
2.44888
2.45426
2.46074
2.43904
2.44263
2.44816
2.45432
2.46111
2.46888
2.44154
2.44599
2.45217
2.45931
2.4672
2.47647
2.44451
2.44972
2.4562
2.46385
2.47217
2.48195
2.44756
2.45329
2.45977
2.46736
2.47556
2.48558
2.45041
2.45618
2.46225
2.46935
2.47682
2.48638
2.45258
2.45794
2.46317
2.4694
2.47561
2.48417
2.45398
2.45866
2.46276
2.46749
2.4719
2.47878
2.45476
2.45856
2.46142
2.46479
2.46804
2.47252
2.45523
2.45822
2.46024
2.46224
2.46459
2.46739
2.4554
2.45818
2.45985
2.46164
2.46389
2.46705
2.45676
2.45846
2.45972
2.46142
2.46388
2.46802
2.48142
2.50165
2.53998
2.63648
2.82455
2.48299
2.50466
2.54878
2.66186
2.87051
2.48211
2.50599
2.56197
2.69548
2.94528
2.48102
2.5089
2.57537
2.72193
2.96943
2.47765
2.5121
2.5869
2.7297
2.94041
2.47358
2.51016
2.59088
2.72181
2.90153
2.46913
2.5103
2.5914
2.72492
2.92408
2.46044
2.5016
2.58108
2.70576
2.89411
3.07798
2.45066
2.48956
2.56114
2.67195
2.83807
2.9994
2.43877
2.4747
2.5428
2.65669
2.82442
2.99497
2.42818
2.45978
2.52472
2.64081
2.82734
3.03952
3.19392
2.41899
2.44685
2.50783
2.63027
2.84292
3.09823
3.3384
3.49812
2.41073
2.4344
2.48969
2.61349
2.84992
3.17339
3.56902
3.92118
2.4018
2.42374
2.47489
2.59402
2.81782
3.1432
3.48865
3.7617
2.39382
2.41344
2.46277
2.57582
2.77083
3.04135
3.31604
3.47664
2.38791
2.40655
2.45899
2.57516
2.77599
3.0652
3.28493
3.43187
2.38363
2.40351
2.46364
2.58909
2.82289
3.15416
3.49006
3.64308
2.38008
2.40175
2.46481
2.59387
2.81993
3.13404
3.45188
3.80975
2.37716
2.40289
2.46861
2.59384
2.78775
3.03273
3.28218
3.41899
2.37275
2.40205
2.46735
2.58866
2.76896
3.0024
3.17413
3.27829
2.36706
2.39643
2.46546
2.59017
2.80943
3.09525
3.33227
3.41402
2.36053
2.38649
2.45329
2.57157
2.78002
3.04854
3.30951
3.60611
2.35354
2.37583
2.43437
2.53884
2.71409
2.91327
2.34858
2.36779
2.41995
2.52053
2.68698
2.87455
2.34714
2.36375
2.40999
2.50641
2.68106
2.89624
2.34983
2.36247
2.40293
2.50094
2.69426
2.9523
2.35641
2.3673
2.40357
2.49951
2.70129
3.01704
2.36443
2.3744
2.40547
2.49351
2.67712
2.37385
2.38447
2.41269
2.48888
2.63986
2.3833
2.39704
2.42693
2.50292
2.65494
2.39349
2.41014
2.44614
2.52341
2.70054
2.40287
2.42077
2.46169
2.53519
2.69572
2.41141
2.42987
2.47438
2.55102
2.70208
2.41717
2.43641
2.47986
2.55885
2.70373
2.42127
2.44127
2.48309
2.56876
2.7394
2.42027
2.44002
2.47913
2.56157
2.72504
2.41867
2.43597
2.47199
2.5481
2.69568
2.41744
2.43062
2.46306
2.53629
2.68781
2.41906
2.42995
2.45889
2.52809
2.68632
2.42379
2.43251
2.45793
2.52388
2.6981
2.43112
2.4388
2.46411
2.53045
2.70656
2.44063
2.4483
2.47295
2.53979
2.70895
2.45154
2.462
2.48763
2.55707
2.71039
2.46236
2.47683
2.50654
2.58418
2.74735
2.47261
2.49137
2.52999
2.6168
2.80955
2.48307
2.50534
2.54993
2.64389
2.83021
2.49261
2.51654
2.56848
2.66677
2.83842
2.49923
2.52488
2.57716
2.67914
2.83873
2.50321
2.53076
2.58313
2.69028
2.86396
2.50186
2.52976
2.57988
2.6834
2.84815
2.49754
2.52534
2.5728
2.66596
2.81422
2.48971
2.51656
2.5634
2.65712
2.81519
2.48321
2.5088
2.55575
2.64831
2.82415
2.47993
2.5024
2.54764
2.63985
2.83349
2.47933
2.49848
2.54133
2.63108
2.83573
2.47943
2.49909
2.53796
2.62737
2.8242
2.45892
2.45616
2.45282
2.44902
2.44493
2.44035
2.43571
2.4309
2.42609
2.42127
2.4164
2.41105
2.40585
2.39924
2.45848
2.45551
2.45214
2.44825
2.44408
2.43936
2.43444
2.42925
2.42398
2.41876
2.41379
2.40855
2.40342
2.39738
2.45773
2.45466
2.45129
2.44746
2.44331
2.43855
2.43351
2.42813
2.42272
2.41735
2.41211
2.40682
2.40144
2.39573
2.45643
2.4533
2.45004
2.44634
2.44228
2.43758
2.43253
2.42706
2.42148
2.41595
2.41052
2.4051
2.39949
2.39393
2.45474
2.45167
2.44845
2.44485
2.4409
2.43636
2.43143
2.42606
2.42052
2.41491
2.40927
2.40363
2.3978
2.39227
2.45258
2.44942
2.44622
2.44282
2.43902
2.43469
2.42998
2.42483
2.41944
2.41388
2.40815
2.40232
2.39635
2.39072
2.45024
2.44713
2.44393
2.44058
2.43687
2.43278
2.42831
2.42343
2.41826
2.4128
2.40704
2.40107
2.39502
2.38929
2.44767
2.44452
2.44131
2.43799
2.43438
2.43051
2.42626
2.42166
2.41671
2.41142
2.40574
2.39979
2.39374
2.38804
2.44492
2.44178
2.43856
2.43527
2.43173
2.428
2.42392
2.41957
2.41483
2.40972
2.40415
2.39832
2.39238
2.38675
2.44186
2.43871
2.43548
2.43217
2.42869
2.42506
2.42114
2.41701
2.4125
2.40762
2.40227
2.39666
2.39094
2.38539
2.43866
2.43544
2.43222
2.42884
2.42532
2.42169
2.41788
2.41392
2.40966
2.40502
2.39998
2.39462
2.38903
2.38355
2.43491
2.43173
2.42848
2.42506
2.42152
2.41792
2.41422
2.4104
2.40637
2.402
2.39726
2.39221
2.3869
2.38145
2.43111
2.42781
2.42459
2.42116
2.41758
2.41398
2.4103
2.40659
2.40265
2.39857
2.39422
2.38943
2.38405
2.37841
2.42666
2.42353
2.42056
2.41722
2.41376
2.41027
2.40661
2.4029
2.3991
2.39524
2.3911
2.3865
2.38144
2.37481
2.4713
2.46898
2.46674
2.46401
2.46093
2.45729
2.45354
2.44927
2.44506
2.44034
2.43563
2.43007
2.42445
2.4176
2.47139
2.46896
2.46651
2.46359
2.46042
2.45655
2.45246
2.44781
2.44309
2.43789
2.43286
2.42728
2.42198
2.41562
2.47075
2.46795
2.46551
2.46248
2.45938
2.45561
2.45138
2.44652
2.44155
2.43628
2.43122
2.42567
2.4202
2.41399
2.46944
2.46674
2.46426
2.46122
2.45814
2.45413
2.44981
2.44494
2.43983
2.43436
2.42912
2.42359
2.4181
2.41213
2.46763
2.4651
2.46248
2.45957
2.45646
2.45255
2.44825
2.44337
2.43821
2.43269
2.42728
2.42168
2.41607
2.41029
2.46552
2.46321
2.46041
2.45758
2.45441
2.45054
2.44626
2.44143
2.43629
2.43079
2.42528
2.41965
2.41395
2.40837
2.46317
2.46099
2.45813
2.45529
2.45204
2.44821
2.44403
2.43934
2.43432
2.42892
2.4234
2.41776
2.41202
2.40657
2.46039
2.45822
2.45554
2.45257
2.44929
2.44549
2.44142
2.43691
2.43204
2.42681
2.42135
2.41576
2.40998
2.4046
2.45709
2.455
2.45247
2.4494
2.44618
2.44244
2.43851
2.43417
2.42949
2.42444
2.41909
2.41361
2.40791
2.40266
2.45316
2.45115
2.44881
2.44575
2.44261
2.43901
2.43525
2.43116
2.42673
2.42194
2.41676
2.41142
2.40572
2.40044
2.44864
2.4468
2.44455
2.44173
2.43862
2.43522
2.43164
2.42777
2.42356
2.419
2.41399
2.40872
2.40305
2.39771
2.44347
2.44178
2.43969
2.43724
2.43422
2.43104
2.42767
2.42412
2.4202
2.41595
2.41114
2.4059
2.40026
2.39448
2.43807
2.43635
2.43474
2.43257
2.42972
2.42674
2.42352
2.42018
2.41632
2.41224
2.40754
2.40235
2.39658
2.39056
2.43189
2.43053
2.42958
2.42779
2.42523
2.42235
2.41927
2.4161
2.41236
2.40845
2.40386
2.39887
2.39298
2.38578
2.50135
2.49883
2.49682
2.49461
2.49226
2.48934
2.48617
2.48245
2.4787
2.47414
2.4698
2.4644
2.45896
2.45228
2.50097
2.49861
2.49657
2.49414
2.49163
2.4885
2.48514
2.4811
2.47688
2.47202
2.46741
2.46197
2.45674
2.45059
2.50011
2.49761
2.49569
2.4931
2.49058
2.48734
2.48391
2.47985
2.47562
2.47077
2.46613
2.46072
2.45535
2.44915
2.49806
2.49582
2.4938
2.49124
2.48869
2.48541
2.48198
2.47788
2.47353
2.46863
2.46388
2.45858
2.45333
2.44741
2.49589
2.49394
2.49177
2.48927
2.48661
2.48326
2.47979
2.47569
2.47136
2.46655
2.46176
2.45648
2.45125
2.4455
2.49313
2.49128
2.48904
2.48657
2.48385
2.48053
2.47706
2.473
2.46868
2.46396
2.45913
2.45397
2.44877
2.44323
2.49014
2.48829
2.48607
2.48355
2.48076
2.47744
2.47396
2.46997
2.46571
2.46112
2.45631
2.45127
2.44608
2.44078
2.48635
2.48453
2.48256
2.4799
2.47724
2.47392
2.47048
2.46658
2.46238
2.4579
2.45308
2.44814
2.4429
2.43776
2.48168
2.48009
2.47837
2.47568
2.47326
2.47002
2.46668
2.46292
2.45881
2.45444
2.44964
2.44482
2.43955
2.43465
2.47642
2.47492
2.47349
2.47088
2.46886
2.4658
2.46269
2.45914
2.45518
2.45093
2.44611
2.44128
2.43583
2.43093
2.47058
2.4691
2.46808
2.46573
2.46404
2.46127
2.4584
2.45503
2.45115
2.44696
2.44207
2.43718
2.43157
2.42658
2.46422
2.46284
2.46225
2.46031
2.45895
2.45654
2.45392
2.45083
2.44712
2.44306
2.43821
2.43319
2.42735
2.42172
2.45766
2.45694
2.45664
2.45511
2.45386
2.45177
2.44923
2.44623
2.44244
2.43829
2.43326
2.428
2.42206
2.41612
2.45125
2.45076
2.4509
2.44998
2.44875
2.44692
2.44433
2.44149
2.43771
2.43367
2.42871
2.42338
2.41703
2.41003
2.54464
2.5418
2.5398
2.53728
2.53514
2.53252
2.52991
2.52685
2.52349
2.51959
2.51579
2.51106
2.5065
2.50077
2.54299
2.54057
2.53853
2.53596
2.53371
2.53101
2.52826
2.52504
2.52153
2.51747
2.5134
2.50854
2.50406
2.49876
2.54096
2.53888
2.53694
2.53451
2.53229
2.52955
2.52676
2.52349
2.51998
2.516
2.51195
2.50718
2.50261
2.49729
2.53819
2.53652
2.53466
2.53241
2.53018
2.52742
2.52457
2.52127
2.51773
2.51375
2.50966
2.50497
2.50041
2.49524
2.53491
2.53367
2.53188
2.52982
2.52762
2.52489
2.52203
2.51876
2.51526
2.51139
2.50736
2.5028
2.49826
2.4932
2.53136
2.53038
2.52877
2.52677
2.52462
2.52191
2.51905
2.5158
2.51234
2.50855
2.50457
2.50017
2.49565
2.49072
2.52738
2.52656
2.52524
2.52327
2.52125
2.51859
2.51576
2.51259
2.50919
2.5055
2.50156
2.49732
2.4928
2.48806
2.52303
2.52216
2.52133
2.5194
2.51759
2.51501
2.51222
2.50911
2.50573
2.50208
2.49811
2.49393
2.48933
2.48477
2.5182
2.51732
2.51695
2.5152
2.51359
2.51113
2.5084
2.50538
2.50204
2.49842
2.4944
2.4903
2.48563
2.4813
2.51311
2.5122
2.51218
2.51067
2.50932
2.50706
2.50443
2.50149
2.49815
2.49448
2.49031
2.48609
2.48116
2.47693
2.50773
2.50681
2.50708
2.50585
2.50467
2.50266
2.50009
2.49722
2.49383
2.49009
2.48579
2.48151
2.47644
2.47226
2.50197
2.50115
2.50176
2.50083
2.49976
2.49799
2.49552
2.49275
2.48934
2.48555
2.48117
2.47665
2.47126
2.46669
2.49614
2.49593
2.49642
2.49575
2.49461
2.493
2.49044
2.4876
2.48398
2.47998
2.47537
2.47065
2.46548
2.46033
2.48953
2.49022
2.49119
2.49067
2.48936
2.48774
2.48511
2.48226
2.47856
2.47451
2.46976
2.46475
2.45898
2.45288
2.59792
2.59487
2.5928
2.59024
2.58802
2.5856
2.58323
2.58069
2.57801
2.57504
2.57205
2.56861
2.56541
2.56155
2.59466
2.5923
2.59037
2.58786
2.58565
2.58322
2.58079
2.57815
2.57535
2.57228
2.56912
2.56558
2.56225
2.55839
2.59168
2.58972
2.58786
2.58549
2.58332
2.58089
2.57846
2.57583
2.57305
2.57003
2.56688
2.56342
2.56004
2.55631
2.58796
2.5865
2.58476
2.58258
2.58048
2.57811
2.5757
2.57309
2.57032
2.56732
2.56414
2.5607
2.55726
2.55356
2.58408
2.583
2.58142
2.57942
2.5774
2.5751
2.57273
2.57018
2.56748
2.56456
2.56145
2.55809
2.55461
2.55091
2.58001
2.57909
2.57777
2.5759
2.57398
2.57178
2.56947
2.56698
2.56434
2.5615
2.55845
2.55516
2.55166
2.54795
2.57568
2.57481
2.57382
2.57212
2.57033
2.56825
2.56601
2.56361
2.56105
2.55828
2.5553
2.55207
2.54857
2.5449
2.57118
2.57033
2.5697
2.5682
2.56653
2.56457
2.56238
2.56004
2.55751
2.55478
2.5518
2.54861
2.54507
2.54149
2.5665
2.56564
2.56533
2.56407
2.5625
2.56068
2.55856
2.55627
2.55376
2.55104
2.54805
2.54488
2.54131
2.53789
2.56191
2.56101
2.56092
2.5599
2.55841
2.55671
2.5546
2.55231
2.54975
2.54697
2.54389
2.54067
2.53698
2.53368
2.55727
2.55641
2.55633
2.55545
2.55399
2.55239
2.55029
2.54799
2.54537
2.54254
2.53943
2.53621
2.53249
2.52936
2.55257
2.55172
2.55169
2.55091
2.54944
2.54788
2.54576
2.5434
2.54069
2.53777
2.53456
2.53126
2.52741
2.5242
2.54794
2.54753
2.54703
2.5461
2.54456
2.543
2.54074
2.53825
2.53538
2.53235
2.52906
2.5257
2.52219
2.51848
2.54232
2.54243
2.54228
2.5413
2.53956
2.53791
2.53552
2.53299
2.53002
2.52691
2.52347
2.51987
2.51593
2.51156
2.64643
2.64364
2.64179
2.63952
2.63746
2.63534
2.63331
2.63126
2.62923
2.62715
2.62519
2.6232
2.6216
2.61976
2.6422
2.64004
2.6383
2.63614
2.63413
2.63204
2.63002
2.62796
2.62591
2.62382
2.62182
2.6198
2.61803
2.61591
2.63852
2.6367
2.63495
2.63289
2.63094
2.62893
2.62698
2.625
2.62303
2.62103
2.61908
2.61711
2.61527
2.61321
2.63447
2.63299
2.63136
2.62943
2.62755
2.6256
2.62371
2.6218
2.61989
2.61796
2.61602
2.61404
2.61209
2.61
2.6306
2.62931
2.62781
2.62599
2.62418
2.62232
2.62049
2.61866
2.61684
2.615
2.61311
2.61116
2.60913
2.60701
2.62673
2.62549
2.62417
2.62245
2.6207
2.61891
2.61714
2.61539
2.61364
2.61186
2.61001
2.60808
2.60598
2.6038
2.62288
2.62166
2.62052
2.6189
2.61722
2.6155
2.61379
2.61211
2.61042
2.60871
2.6069
2.605
2.60288
2.60069
2.61906
2.61785
2.61687
2.61534
2.6137
2.61203
2.61035
2.60871
2.60705
2.60538
2.60359
2.6017
2.59959
2.59747
2.61529
2.61407
2.61323
2.61177
2.61015
2.60851
2.60684
2.60522
2.60357
2.60192
2.60014
2.5983
2.59622
2.59426
2.61169
2.61044
2.60963
2.60823
2.60659
2.60495
2.60324
2.6016
2.59992
2.59824
2.59645
2.59465
2.59259
2.59085
2.60805
2.60685
2.60593
2.60454
2.60287
2.60122
2.59947
2.59779
2.59607
2.59438
2.59261
2.59088
2.58887
2.58742
2.60478
2.60354
2.6024
2.60095
2.59919
2.59748
2.59563
2.59386
2.59205
2.59029
2.58847
2.58674
2.58477
2.58352
2.60121
2.60018
2.59867
2.59711
2.59524
2.59349
2.59153
2.58968
2.58778
2.58598
2.58417
2.5825
2.58071
2.57933
2.59795
2.59678
2.59532
2.59362
2.59153
2.58966
2.58756
2.5856
2.58358
2.58168
2.57973
2.57789
2.57597
2.5746
2.683
2.68129
2.67969
2.67795
2.67637
2.67481
2.67336
2.67192
2.67056
2.66925
2.66818
2.66723
2.66688
2.66622
2.67933
2.67766
2.67608
2.67438
2.67277
2.6712
2.66971
2.66825
2.66688
2.66561
2.66456
2.66372
2.66329
2.66275
2.67566
2.67426
2.67264
2.67094
2.66934
2.66779
2.66635
2.66497
2.6637
2.66254
2.66158
2.66082
2.66038
2.65987
2.67207
2.6707
2.66915
2.66748
2.6659
2.66437
2.66296
2.66162
2.6604
2.6593
2.65837
2.65763
2.65712
2.65666
2.66863
2.6673
2.6658
2.66417
2.66261
2.66113
2.65976
2.6585
2.65735
2.65633
2.65543
2.6547
2.6541
2.65358
2.66529
2.6639
2.66246
2.66085
2.65931
2.65786
2.65655
2.65535
2.65425
2.65328
2.65239
2.65165
2.65096
2.65033
2.6621
2.66064
2.65922
2.65762
2.65609
2.65467
2.6534
2.65227
2.65123
2.65032
2.64945
2.64871
2.64795
2.64722
2.65905
2.65749
2.65604
2.65443
2.65288
2.65148
2.65022
2.64914
2.64815
2.64729
2.64644
2.64569
2.64488
2.64415
2.65616
2.6545
2.65298
2.65132
2.64972
2.6483
2.64705
2.64599
2.64504
2.64422
2.6434
2.64268
2.64187
2.64123
2.65344
2.65166
2.65001
2.64828
2.64661
2.64515
2.64387
2.64282
2.64188
2.64108
2.64028
2.63961
2.63882
2.63834
2.65084
2.64896
2.64714
2.64532
2.64355
2.64203
2.64072
2.63964
2.6387
2.63791
2.63713
2.63653
2.6358
2.63555
2.64851
2.64648
2.64445
2.64248
2.6406
2.63901
2.63764
2.63652
2.63553
2.63473
2.63394
2.63338
2.63269
2.63269
2.64607
2.64396
2.64183
2.6397
2.63771
2.63606
2.63463
2.63345
2.63243
2.63161
2.63084
2.63033
2.62971
2.62976
2.64431
2.64158
2.63942
2.6372
2.63509
2.63339
2.63188
2.63063
2.62952
2.62863
2.62777
2.62717
2.62642
2.62682
2.70736
2.70636
2.7049
2.70356
2.70232
2.70118
2.70015
2.69921
2.69837
2.69762
2.6971
2.69665
2.69671
2.69631
2.70428
2.70309
2.70165
2.70029
2.699
2.69781
2.69672
2.69573
2.69484
2.69409
2.69356
2.69323
2.69329
2.69322
2.701
2.69996
2.69845
2.69707
2.69578
2.6946
2.69353
2.69257
2.69173
2.69104
2.69059
2.69032
2.69048
2.69045
2.69793
2.69674
2.69529
2.69392
2.69265
2.6915
2.69045
2.68952
2.6887
2.68804
2.68758
2.68735
2.68747
2.68759
2.69499
2.69371
2.69227
2.69091
2.68967
2.68857
2.68759
2.68673
2.68597
2.68537
2.68493
2.6847
2.68478
2.6849
2.69215
2.69071
2.6893
2.68793
2.68673
2.68569
2.68478
2.684
2.6833
2.68276
2.68233
2.68208
2.68206
2.68218
2.6895
2.6879
2.68646
2.68508
2.6839
2.68291
2.68208
2.6814
2.68079
2.68031
2.6799
2.67965
2.67954
2.67962
2.687
2.68523
2.68373
2.68231
2.68113
2.68018
2.67942
2.67883
2.67829
2.67789
2.6775
2.67728
2.6771
2.67715
2.68469
2.68275
2.68115
2.67967
2.67846
2.67753
2.67681
2.67629
2.67583
2.67551
2.67517
2.675
2.67481
2.67487
2.68256
2.68045
2.67872
2.67716
2.6759
2.67496
2.67425
2.67379
2.67339
2.67315
2.67287
2.67278
2.67261
2.67275
2.68062
2.67835
2.67648
2.67482
2.67348
2.67251
2.67179
2.67134
2.67099
2.67082
2.67061
2.67062
2.67052
2.67082
2.67889
2.67648
2.67445
2.67268
2.67125
2.67022
2.66948
2.66903
2.6687
2.66856
2.66843
2.66854
2.66849
2.66898
2.67725
2.67473
2.67261
2.67073
2.66921
2.66813
2.66734
2.66687
2.66654
2.66643
2.66638
2.66658
2.66661
2.66721
2.67607
2.673
2.67092
2.66901
2.66743
2.66632
2.66547
2.66496
2.66461
2.66451
2.66445
2.66467
2.66464
2.66567
2.7216
2.72103
2.71993
2.71903
2.71817
2.71745
2.71684
2.71634
2.71596
2.71561
2.71545
2.71535
2.71554
2.71519
2.71903
2.71832
2.71722
2.71629
2.7154
2.71463
2.71397
2.71342
2.71297
2.71258
2.71238
2.71229
2.71249
2.71236
2.71637
2.71568
2.71451
2.71358
2.7127
2.71193
2.71127
2.71072
2.71027
2.70988
2.7097
2.70962
2.70988
2.70979
2.71384
2.71298
2.71186
2.71092
2.71008
2.70935
2.70872
2.70819
2.70772
2.70734
2.70712
2.70703
2.70724
2.70728
2.71143
2.71044
2.70933
2.7084
2.70759
2.70692
2.70633
2.70584
2.70541
2.70505
2.70482
2.70473
2.70491
2.70497
2.70906
2.70792
2.70683
2.70591
2.70516
2.70456
2.70403
2.70361
2.70322
2.70291
2.70266
2.70256
2.70264
2.70273
2.70686
2.70557
2.70448
2.70356
2.70285
2.70231
2.70186
2.70152
2.70119
2.70093
2.7007
2.70057
2.70058
2.70065
2.70473
2.70331
2.70221
2.70129
2.70061
2.70013
2.69976
2.69951
2.69925
2.69906
2.69884
2.69871
2.69864
2.69871
2.70275
2.70121
2.70008
2.69914
2.69848
2.69805
2.69774
2.69757
2.69738
2.69727
2.69709
2.69701
2.69689
2.69694
2.70089
2.69926
2.69809
2.69712
2.69646
2.69606
2.6958
2.6957
2.69558
2.69555
2.69544
2.69542
2.6953
2.69538
2.69917
2.69746
2.69624
2.69524
2.69456
2.69418
2.69394
2.69389
2.69384
2.6939
2.69387
2.69395
2.69389
2.69403
2.69761
2.69584
2.69456
2.69352
2.69281
2.69241
2.69219
2.69218
2.69218
2.69232
2.69236
2.69256
2.69257
2.69283
2.69615
2.69439
2.69303
2.69197
2.69121
2.69078
2.69056
2.69058
2.69062
2.69083
2.69097
2.69131
2.69144
2.69182
2.69491
2.69285
2.69159
2.69051
2.68974
2.68928
2.68905
2.68906
2.68912
2.68938
2.68958
2.69002
2.69017
2.69093
2.72897
2.72884
2.72833
2.72798
2.72762
2.72735
2.72718
2.72711
2.72714
2.72716
2.72737
2.72748
2.72784
2.72773
2.727
2.72677
2.72623
2.72587
2.7255
2.7252
2.72499
2.72489
2.72488
2.72488
2.72503
2.72512
2.72542
2.72538
2.7251
2.72484
2.72423
2.72383
2.72345
2.72315
2.72292
2.7228
2.72276
2.72273
2.72286
2.72291
2.72323
2.7232
2.7232
2.72283
2.72223
2.7218
2.72144
2.72116
2.72094
2.72081
2.72075
2.72071
2.72079
2.72084
2.72109
2.72111
2.72144
2.72096
2.72036
2.71991
2.71955
2.71928
2.71907
2.71893
2.71886
2.71881
2.71887
2.71889
2.7191
2.71914
2.71965
2.71907
2.71849
2.71804
2.7177
2.71747
2.71727
2.71716
2.71709
2.71705
2.71705
2.71706
2.71718
2.71724
2.71797
2.71729
2.71673
2.71629
2.71597
2.71576
2.71558
2.71548
2.71542
2.71538
2.71535
2.71534
2.71537
2.71543
2.71631
2.71557
2.71503
2.7146
2.71431
2.71413
2.71398
2.71392
2.71386
2.71383
2.71377
2.71374
2.71369
2.71372
2.7147
2.71392
2.71341
2.713
2.71274
2.71259
2.71247
2.71244
2.71239
2.71238
2.71231
2.71227
2.71215
2.71217
2.71316
2.71237
2.71189
2.71149
2.71125
2.71112
2.71104
2.71104
2.71101
2.71103
2.71095
2.71093
2.71075
2.71074
2.71165
2.71088
2.71043
2.71006
2.70983
2.70974
2.70968
2.70973
2.70973
2.70978
2.70974
2.70974
2.70954
2.70947
2.71023
2.70947
2.70905
2.7087
2.70849
2.70842
2.70839
2.70846
2.70849
2.70859
2.70857
2.7086
2.70839
2.70834
2.70883
2.70819
2.70773
2.70742
2.70722
2.70716
2.70716
2.70727
2.70734
2.7075
2.70755
2.70762
2.70749
2.70744
2.70747
2.70674
2.70641
2.70614
2.70598
2.70594
2.70596
2.70607
2.70617
2.70637
2.70646
2.70661
2.70645
2.70655
2.73284
2.73306
2.7331
2.73322
2.73336
2.73357
2.73382
2.7341
2.73446
2.7348
2.73523
2.73555
2.736
2.73611
2.73142
2.73165
2.73167
2.73177
2.73191
2.7321
2.73236
2.73264
2.733
2.73333
2.73375
2.73408
2.73449
2.73462
2.73018
2.73039
2.73037
2.73045
2.73056
2.73074
2.73097
2.73124
2.73158
2.7319
2.73231
2.73261
2.73303
2.73313
2.72889
2.72905
2.72904
2.72909
2.7292
2.72937
2.7296
2.72986
2.73019
2.7305
2.73089
2.73118
2.73156
2.73169
2.72773
2.72783
2.72781
2.72784
2.72792
2.72807
2.72827
2.72851
2.72881
2.7291
2.72945
2.72972
2.73007
2.73021
2.72652
2.72656
2.72655
2.72657
2.72665
2.72679
2.72696
2.72719
2.72745
2.72772
2.72802
2.72827
2.72854
2.72869
2.72536
2.72535
2.72534
2.72536
2.72543
2.72555
2.72569
2.72589
2.72611
2.72634
2.72658
2.72679
2.72698
2.72712
2.7242
2.72415
2.72416
2.72419
2.72425
2.72436
2.72447
2.72463
2.7248
2.725
2.72515
2.72532
2.72541
2.72552
2.72302
2.72295
2.72299
2.72303
2.72309
2.72319
2.72329
2.72343
2.72355
2.7237
2.72378
2.7239
2.72389
2.72399
2.72186
2.72179
2.72186
2.72191
2.72198
2.72207
2.72215
2.72227
2.72234
2.72244
2.72244
2.72249
2.72241
2.72249
2.72068
2.72063
2.72071
2.72078
2.72087
2.72097
2.72104
2.72114
2.72117
2.72122
2.72118
2.72118
2.72103
2.72104
2.71949
2.71946
2.71959
2.71968
2.71977
2.71988
2.71994
2.72001
2.72001
2.72003
2.71995
2.7199
2.71966
2.71958
2.71826
2.71835
2.71845
2.71857
2.71866
2.71877
2.71882
2.7189
2.7189
2.7189
2.7188
2.71871
2.71846
2.71822
2.71694
2.71715
2.71734
2.71747
2.71757
2.71767
2.71772
2.71777
2.71775
2.71773
2.71762
2.71748
2.71718
2.71674
2.73514
2.73546
2.73579
2.73616
2.73654
2.73694
2.73737
2.73778
2.73822
2.73862
2.73904
2.73939
2.7398
2.74
2.73412
2.73448
2.73483
2.73521
2.73561
2.73604
2.73648
2.73693
2.73739
2.73781
2.73825
2.73861
2.73901
2.73924
2.73329
2.73368
2.73402
2.73441
2.73481
2.73522
2.73567
2.7361
2.73657
2.737
2.73745
2.73781
2.73823
2.73844
2.73242
2.73281
2.73317
2.73358
2.73398
2.73441
2.73486
2.7353
2.73578
2.73621
2.73667
2.73704
2.73744
2.73767
2.73163
2.73203
2.7324
2.7328
2.73321
2.73363
2.73407
2.7345
2.73497
2.7354
2.73585
2.73622
2.73661
2.73685
2.73082
2.73122
2.73161
2.73201
2.73241
2.73282
2.73325
2.73368
2.73413
2.73455
2.73499
2.73536
2.73572
2.73596
2.73001
2.73041
2.7308
2.7312
2.7316
2.73201
2.73241
2.73283
2.73324
2.73365
2.73405
2.73441
2.73472
2.73496
2.7292
2.72959
2.72999
2.73038
2.73076
2.73115
2.73153
2.73191
2.73229
2.73266
2.733
2.73332
2.73356
2.73378
2.72834
2.72873
2.72912
2.72951
2.72987
2.73023
2.73058
2.73093
2.73125
2.73159
2.73185
2.73213
2.73228
2.73248
2.72746
2.72783
2.72822
2.72859
2.72893
2.72927
2.72957
2.72988
2.73014
2.73041
2.73059
2.7308
2.73085
2.73102
2.72654
2.72689
2.72726
2.72761
2.72792
2.72821
2.72847
2.72873
2.72892
2.72913
2.72922
2.72936
2.72933
2.72948
2.72555
2.72589
2.72626
2.72658
2.72686
2.72712
2.72734
2.72754
2.72766
2.72779
2.72778
2.72784
2.72775
2.72783
2.72453
2.72488
2.7252
2.72549
2.72573
2.72595
2.7261
2.72625
2.72632
2.72638
2.72634
2.72631
2.7262
2.72621
2.72336
2.72384
2.72415
2.72439
2.72458
2.72474
2.72485
2.72494
2.72495
2.72496
2.72488
2.72477
2.72461
2.7243
2.73612
2.73647
2.73675
2.73706
2.73738
2.73771
2.73806
2.73842
2.73879
2.73914
2.73951
2.73983
2.74021
2.74044
2.7353
2.73567
2.73597
2.7363
2.73665
2.73701
2.73739
2.73777
2.73817
2.73855
2.73894
2.73928
2.73965
2.7399
2.73463
2.73501
2.73533
2.73567
2.73603
2.73639
2.73678
2.73717
2.73757
2.73795
2.73836
2.73869
2.73909
2.73934
2.73394
2.73432
2.73466
2.73503
2.7354
2.73578
2.73618
2.73658
2.73701
2.7374
2.73781
2.73817
2.73856
2.73883
2.7333
2.73368
2.73404
2.73442
2.7348
2.73519
2.7356
2.73601
2.73644
2.73684
2.73727
2.73763
2.73802
2.73831
2.73266
2.73304
2.73342
2.73381
2.73419
2.73459
2.73501
2.73542
2.73586
2.73627
2.7367
2.73708
2.73747
2.73777
2.73199
2.73238
2.73277
2.73316
2.73356
2.73397
2.7344
2.73482
2.73526
2.73568
2.73611
2.7365
2.73687
2.7372
2.73133
2.73172
2.7321
2.73249
2.73289
2.73331
2.73374
2.73416
2.73459
2.73502
2.73543
2.73583
2.73618
2.7365
2.73063
2.73101
2.73137
2.73176
2.73216
2.73258
2.733
2.73343
2.73385
2.73428
2.73467
2.73507
2.73538
2.73571
2.7299
2.73025
2.73061
2.73098
2.73137
2.73178
2.73219
2.7326
2.733
2.73341
2.73377
2.73415
2.73441
2.73473
2.72914
2.72944
2.72978
2.73013
2.73051
2.73089
2.73128
2.73168
2.73205
2.73244
2.73275
2.7331
2.73331
2.73364
2.72827
2.72854
2.72887
2.7292
2.72955
2.72991
2.73027
2.73064
2.73098
2.73133
2.73161
2.73193
2.7321
2.7324
2.72734
2.72758
2.72788
2.72819
2.72852
2.72885
2.72917
2.72949
2.72977
2.73008
2.73034
2.73063
2.73082
2.73112
2.7262
2.72652
2.72683
2.7271
2.72738
2.72768
2.72796
2.72825
2.7285
2.72876
2.72899
2.72925
2.72939
2.72954
2.73616
2.7364
2.73656
2.73675
2.73698
2.73721
2.73748
2.73774
2.73803
2.73832
2.73864
2.73894
2.73929
2.73955
2.73536
2.73559
2.73577
2.73599
2.73624
2.73649
2.73678
2.73707
2.73739
2.73771
2.73805
2.73837
2.73873
2.73897
2.73467
2.73488
2.73508
2.73532
2.73557
2.73584
2.73614
2.73644
2.73676
2.73708
2.73743
2.73775
2.73814
2.73841
2.734
2.73419
2.7344
2.73466
2.73493
2.73522
2.73553
2.73585
2.73619
2.73652
2.73689
2.73723
2.73762
2.73791
2.73336
2.73354
2.73377
2.73404
2.73433
2.73463
2.73495
2.73528
2.73564
2.73598
2.73635
2.7367
2.7371
2.73742
2.73273
2.73291
2.73314
2.73343
2.73373
2.73404
2.73438
2.73472
2.73509
2.73545
2.73583
2.7362
2.7366
2.73694
2.73209
2.73228
2.73252
2.73282
2.73313
2.73345
2.7338
2.73416
2.73453
2.73491
2.73531
2.7357
2.73609
2.73646
2.73144
2.73165
2.7319
2.73219
2.7325
2.73284
2.73319
2.73356
2.73395
2.73434
2.73474
2.73515
2.73554
2.73592
2.73077
2.73098
2.73123
2.73152
2.73184
2.73218
2.73255
2.73293
2.73332
2.73374
2.73415
2.73457
2.73495
2.73535
2.73006
2.73027
2.73053
2.73081
2.73113
2.73148
2.73185
2.73224
2.73265
2.73307
2.73349
2.73392
2.73429
2.7347
2.72933
2.72952
2.72977
2.73005
2.73037
2.73072
2.7311
2.7315
2.73191
2.73234
2.73275
2.7332
2.73358
2.73405
2.72853
2.72871
2.72894
2.72922
2.72954
2.7299
2.7303
2.73071
2.73113
2.73157
2.732
2.73247
2.73285
2.73332
2.72766
2.72781
2.72804
2.72832
2.72866
2.72904
2.72944
2.72987
2.7303
2.73076
2.73121
2.73169
2.73208
2.73255
2.72659
2.72683
2.72708
2.72737
2.72771
2.7281
2.72851
2.72893
2.72935
2.7298
2.73025
2.73072
2.73114
2.73159
2.73589
2.73595
2.73596
2.73599
2.73605