/*--------------------------------*- C++ -*----------------------------------*\
| =========                 |                                                 |
| \\      /  F ield         | OpenFOAM: The Open Source CFD Toolbox           |
|  \\    /   O peration     | Version:  v2106                                 |
|   \\  /    A nd           | Website:  www.openfoam.com                      |
|    \\/     M anipulation  |                                                 |
\*---------------------------------------------------------------------------*/
FoamFile
{
    version     2.0;
    format      ascii;
    arch        "LSB;label=32;scalar=64";
    class       volScalarField;
    location    "0.000195";
    object      T;
}
// * * * * * * * * * * * * * * * * * * * * * * * * * * * * * * * * * * * * * //

dimensions      [0 0 0 1 0 0 0];

internalField   nonuniform List<scalar> 
18109
(
295.463
295.262
295.031
294.786
294.525
294.247
293.967
295.401
295.19
294.955
294.705
294.448
294.183
293.912
295.336
295.107
294.859
294.602
294.351
294.097
293.841
295.276
295.029
294.773
294.514
294.265
294.02
293.774
295.226
294.966
294.703
294.444
294.195
293.954
293.716
295.18
294.909
294.633
294.369
294.124
293.892
293.664
295.11
294.822
294.546
294.29
294.055
293.833
293.618
295.006
294.714
294.444
294.197
293.976
293.767
293.562
295.632
295.48
295.288
295.071
294.834
294.575
294.304
294.024
293.744
293.465
293.193
292.936
292.726
292.481
295.586
295.401
295.198
294.973
294.736
294.482
294.216
293.938
293.654
293.378
293.114
292.863
292.657
292.448
295.52
295.313
295.093
294.86
294.624
294.377
294.12
293.854
293.581
293.312
293.054
292.819
292.625
292.44
295.445
295.22
294.99
294.755
294.523
294.283
294.034
293.776
293.509
293.249
293.003
292.781
292.592
292.418
295.372
295.135
294.899
294.666
294.437
294.204
293.963
293.713
293.453
293.201
292.963
292.752
292.569
292.404
295.295
295.048
294.804
294.57
294.348
294.126
293.897
293.658
293.408
293.165
292.936
292.732
292.552
292.384
295.192
294.935
294.694
294.469
294.257
294.048
293.834
293.609
293.37
293.136
292.914
292.715
292.534
292.354
295.069
294.808
294.571
294.355
294.156
293.961
293.76
293.545
293.319
293.096
292.884
292.688
292.504
292.309
294.936
294.676
294.446
294.241
294.052
293.866
293.672
293.465
293.249
293.035
292.831
292.637
292.447
292.24
294.807
294.552
294.331
294.134
293.951
293.765
293.57
293.364
293.153
292.947
292.748
292.555
292.357
292.137
294.702
294.451
294.238
294.043
293.858
293.665
293.46
293.248
293.034
292.828
292.629
292.434
292.226
292.002
294.605
294.368
294.166
293.971
293.781
293.578
293.364
293.144
292.924
292.711
292.503
292.298
292.08
291.854
294.537
294.301
294.108
293.913
293.722
293.515
293.296
293.071
292.843
292.621
292.399
292.177
291.943
291.71
294.426
294.209
294.033
293.848
293.669
293.473
293.265
293.047
292.82
292.592
292.358
292.112
291.862
291.586
295.517
295.579
295.595
295.579
295.475
295.32
295.66
295.698
295.679
295.601
295.463
295.292
295.54
295.6
295.598
295.557
295.482
295.387
295.364
295.441
295.457
295.457
295.443
295.4
295.157
295.244
295.286
295.321
295.35
295.361
294.922
295.007
295.067
295.135
295.194
295.22
294.666
294.747
294.814
294.901
294.977
295.023
294.387
294.458
294.526
294.608
294.665
294.663
294.092
294.15
294.207
294.259
294.277
294.154
293.797
293.837
293.868
293.878
293.816
293.547
293.494
293.511
293.513
293.467
293.318
292.866
293.214
293.211
293.185
293.058
292.755
292.085
292.948
292.894
292.8
292.564
292.148
291.388
292.713
292.596
292.43
292.105
291.603
290.826
292.456
292.246
291.969
291.517
290.935
290.211
292.321
292.184
291.875
291.37
290.654
289.927
292.309
292.092
291.696
291.132
290.429
289.775
292.281
292.063
291.637
291.061
290.405
289.797
292.238
291.994
291.549
290.978
290.388
289.845
292.202
291.929
291.483
290.943
290.409
289.919
292.16
291.856
291.415
290.907
290.412
289.943
292.109
291.779
291.344
290.861
290.366
289.86
292.047
291.695
291.26
290.803
290.308
289.735
291.964
291.597
291.176
290.735
290.23
289.531
291.853
291.491
291.09
290.655
290.082
289.21
291.725
291.394
291.021
290.559
289.876
288.872
291.597
291.272
290.914
290.403
289.652
288.617
291.483
291.217
290.876
290.351
289.583
288.602
291.366
291.12
290.818
290.302
289.563
288.749
291.508
291.288
291.04
290.586
289.962
289.218
291.837
291.65
291.392
290.956
290.391
289.706
292.098
291.963
291.738
291.383
290.926
290.352
292.356
292.27
292.094
291.837
291.503
291.093
292.589
292.539
292.419
292.269
292.085
291.842
292.814
292.781
292.71
292.652
292.562
292.44
293.03
292.998
292.954
292.955
292.909
292.852
293.238
293.206
293.163
293.169
293.101
293.041
293.44
293.415
293.361
293.335
293.218
293.113
293.63
293.618
293.561
293.487
293.317
293.142
293.812
293.823
293.763
293.663
293.441
293.143
294.014
294.037
293.979
293.869
293.585
293.174
294.212
294.252
294.215
294.085
293.764
293.252
294.458
294.491
294.459
294.289
293.958
293.412
295.504
295.688
295.765
295.781
295.716
295.505
295.525
295.649
295.676
295.639
295.526
295.211
295.546
295.643
295.642
295.597
295.435
295.154
295.603
295.628
295.619
295.555
295.402
295.209
294.592
294.594
294.631
294.511
294.242
293.818
294.749
294.824
294.901
294.838
294.644
294.342
294.86
295.008
295.134
295.147
295.07
294.934
294.976
295.188
295.383
295.472
295.499
295.507
295.099
295.361
295.608
295.781
295.896
295.989
295.235
295.535
295.817
296.062
296.236
296.343
295.367
295.689
295.985
296.263
296.481
296.609
295.485
295.803
296.086
296.354
296.559
296.697
295.569
295.865
296.112
296.34
296.474
296.575
295.624
295.886
296.082
296.218
296.243
296.275
295.664
295.875
295.989
296.045
296.01
295.887
295.697
295.838
295.873
295.851
295.753
295.453
295.707
295.795
295.787
295.726
295.551
295.212
295.757
295.762
295.719
295.609
295.407
295.156
294.798
294.057
292.569
288.963
281.076
295.025
294.367
292.626
288.243
279.558
295.107
294.407
292.385
287.405
279.985
295.119
294.177
291.264
285.087
277.232
294.873
293.504
289.442
281.97
272.904
294.393
292.291
287.457
279.454
270.205
293.767
291.104
285.977
278.512
270.601
292.91
289.837
284.944
278.056
270.34
264.036
292.005
288.699
284.018
277.097
268.73
261.584
291.069
287.862
283.848
277.961
270.417
263.902
290.288
287.414
284.301
279.438
272.719
266.816
264.243
289.696
287.318
284.976
281.114
275.409
269.948
267.754
271.127
289.294
287.353
285.485
282.25
277.231
273.008
273.322
279.814
288.983
287.495
285.886
282.947
277.553
270.578
268.926
268.477
288.805
287.581
285.963
282.372
274.993
265.513
260.219
258.442
288.806
287.703
286.161
282.297
274.516
265.375
257.897
256.45
288.941
287.886
286.257
281.884
275.179
268.044
264.525
261.252
289.091
287.914
285.59
280.334
273.111
265.933
262.224
262.961
289.183
287.673
284.49
278.318
269.408
259.744
254.19
251.105
289.053
287.189
283.335
276.936
268.12
258.552
250.149
247.324
288.781
286.438
282.591
276.69
269.472
262.092
256.95
253.419
288.366
285.672
282.01
276.465
269.364
262.367
259.028
260.667
287.878
285.101
281.449
275.088
265.878
256.571
287.382
284.758
281.528
275.582
266.233
256.349
287.006
284.709
282.158
277.363
269.452
260.943
286.859
284.853
283.046
279.739
273.33
266.057
287.013
285.344
284.101
281.789
276.647
270.671
287.447
286.065
285.038
282.997
278.32
288.086
286.997
285.995
283.539
277.167
288.848
288.062
287.075
284.187
277.351
289.758
289.129
288.171
284.95
278.949
290.696
290.061
288.994
285.353
279.287
291.582
290.864
289.606
285.679
278.5
292.214
291.417
289.791
285.69
278.167
292.585
291.714
289.949
286.074
279.305
292.587
291.6
289.767
286.152
279.401
292.444
291.361
289.565
285.67
277.777
292.241
290.879
289.122
285.579
278.183
292.056
290.539
289.011
286.119
279.793
291.992
290.484
289.25
287.073
281.939
292.12
290.732
289.849
288.112
283.413
292.459
291.298
290.685
288.911
283.986
293.081
292.274
291.658
289.208
282.364
293.887
293.385
292.529
289.254
281.297
294.722
294.365
293.177
289.306
282.051
295.479
295.082
293.362
288.647
280.751
296.041
295.465
293.477
287.789
278.632
296.382
295.641
292.977
286.921
277.456
296.591
295.708
292.803
286.959
277.928
296.475
295.373
292.398
286.979
278.12
296.129
294.865
292.068
286.719
277.493
295.586
294.164
291.684
287.237
279.199
295.055
293.626
291.661
287.994
281.233
294.639
293.268
291.764
288.739
283.109
294.482
293.291
292.063
289.259
284.311
294.574
293.63
292.364
289.393
283.206
295.879
295.758
295.62
295.46
295.278
295.06
294.824
294.569
294.305
294.039
293.776
293.51
293.282
293.016
295.841
295.687
295.529
295.352
295.161
294.938
294.699
294.44
294.169
293.892
293.629
293.369
293.152
292.941
295.771
295.598
295.422
295.235
295.038
294.815
294.578
294.321
294.054
293.783
293.518
293.271
293.062
292.89
295.688
295.499
295.317
295.124
294.926
294.705
294.47
294.212
293.943
293.672
293.411
293.176
292.978
292.828
295.604
295.409
295.219
295.025
294.829
294.613
294.381
294.126
293.858
293.587
293.326
293.097
292.906
292.766
295.507
295.299
295.105
294.92
294.73
294.523
294.299
294.049
293.784
293.517
293.26
293.035
292.848
292.703
295.404
295.191
294.994
294.812
294.629
294.434
294.218
293.977
293.72
293.459
293.207
292.984
292.796
292.638
295.287
295.066
294.867
294.689
294.512
294.328
294.121
293.892
293.646
293.396
293.154
292.936
292.743
292.571
295.157
294.934
294.735
294.559
294.385
294.206
294.005
293.788
293.555
293.319
293.088
292.874
292.676
292.488
295.012
294.791
294.593
294.415
294.241
294.061
293.864
293.657
293.438
293.218
293
292.792
292.59
292.387
294.863
294.647
294.454
294.272
294.091
293.904
293.706
293.505
293.298
293.091
292.884
292.678
292.467
292.254
294.693
294.491
294.304
294.122
293.939
293.75
293.554
293.355
293.156
292.956
292.753
292.545
292.331
292.115
294.526
294.33
294.155
293.981
293.802
293.619
293.429
293.237
293.039
292.843
292.642
292.425
292.186
291.951
294.331
294.155
294.004
293.845
293.685
293.524
293.351
293.17
292.982
292.789
292.582
292.354
292.107
291.799
296.476
296.367
296.268
296.151
296.017
295.848
295.665
295.448
295.227
294.978
294.732
294.46
294.211
293.933
296.446
296.305
296.187
296.054
295.911
295.732
295.54
295.316
295.082
294.818
294.558
294.281
294.048
293.821
296.382
296.213
296.082
295.933
295.787
295.612
295.417
295.19
294.953
294.694
294.441
294.177
293.953
293.749
296.311
296.142
295.996
295.836
295.685
295.496
295.296
295.069
294.827
294.561
294.308
294.059
293.849
293.667
296.228
296.061
295.902
295.745
295.59
295.404
295.203
294.971
294.723
294.455
294.199
293.956
293.753
293.585
296.134
295.971
295.801
295.649
295.493
295.31
295.107
294.873
294.62
294.351
294.093
293.858
293.658
293.5
296.025
295.862
295.69
295.542
295.387
295.207
295.007
294.776
294.525
294.26
294.006
293.775
293.577
293.421
295.891
295.725
295.563
295.412
295.258
295.081
294.886
294.663
294.419
294.164
293.917
293.693
293.492
293.329
295.732
295.57
295.416
295.26
295.109
294.934
294.744
294.529
294.297
294.056
293.82
293.603
293.4
293.229
295.546
295.393
295.248
295.09
294.939
294.765
294.579
294.376
294.16
293.937
293.714
293.503
293.292
293.105
295.341
295.202
295.062
294.912
294.756
294.584
294.403
294.208
294.004
293.795
293.579
293.368
293.149
292.951
295.11
294.983
294.856
294.724
294.568
294.404
294.228
294.046
293.853
293.656
293.444
293.224
292.996
292.776
294.863
294.746
294.653
294.538
294.395
294.243
294.077
293.905
293.713
293.519
293.302
293.069
292.82
292.586
294.574
294.499
294.444
294.353
294.233
294.099
293.953
293.799
293.616
293.426
293.205
292.969
292.697
292.389
297.909
297.782
297.691
297.594
297.492
297.362
297.214
297.03
296.838
296.603
296.38
296.121
295.879
295.6
297.851
297.71
297.611
297.5
297.388
297.246
297.092
296.902
296.698
296.456
296.222
295.956
295.729
295.507
297.791
297.636
297.529
297.4
297.28
297.129
296.973
296.786
296.588
296.355
296.128
295.873
295.647
295.432
297.694
297.549
297.424
297.288
297.161
297.006
296.848
296.658
296.454
296.22
295.994
295.753
295.544
295.348
297.599
297.463
297.327
297.19
297.058
296.899
296.736
296.542
296.334
296.102
295.876
295.643
295.444
295.258
297.471
297.336
297.196
297.064
296.932
296.776
296.612
296.415
296.203
295.972
295.745
295.522
295.33
295.153
297.325
297.187
297.052
296.922
296.791
296.637
296.472
296.276
296.064
295.838
295.613
295.401
295.211
295.041
297.14
297.002
296.881
296.746
296.624
296.471
296.308
296.117
295.908
295.689
295.468
295.263
295.069
294.899
296.917
296.791
296.681
296.544
296.432
296.281
296.122
295.938
295.736
295.527
295.312
295.115
294.917
294.748
296.671
296.554
296.458
296.32
296.221
296.074
295.923
295.749
295.557
295.359
295.147
294.952
294.74
294.562
296.396
296.3
296.22
296.088
295.999
295.859
295.715
295.549
295.363
295.17
294.955
294.754
294.529
294.341
296.1
296.02
295.966
295.855
295.779
295.653
295.517
295.361
295.182
294.994
294.776
294.559
294.317
294.101
295.795
295.752
295.724
295.64
295.575
295.467
295.337
295.185
294.999
294.803
294.569
294.329
294.069
293.839
295.497
295.472
295.476
295.431
295.377
295.293
295.171
295.034
294.851
294.658
294.422
294.171
293.879
293.584
299.935
299.793
299.703
299.589
299.493
299.373
299.254
299.109
298.944
298.748
298.557
298.332
298.137
297.917
299.828
299.694
299.592
299.469
299.365
299.241
299.117
298.97
298.808
298.613
298.414
298.181
297.986
297.792
299.734
299.608
299.498
299.372
299.264
299.136
299.009
298.861
298.7
298.514
298.322
298.101
297.907
297.711
299.612
299.5
299.384
299.262
299.151
299.02
298.889
298.736
298.571
298.385
298.195
297.984
297.797
297.611
299.464
299.366
299.251
299.138
299.03
298.902
298.768
298.614
298.447
298.263
298.075
297.874
297.694
297.517
299.294
299.205
299.101
298.995
298.893
298.767
298.633
298.477
298.309
298.125
297.939
297.748
297.573
297.404
299.098
299.018
298.93
298.829
298.736
298.615
298.482
298.329
298.162
297.983
297.8
297.618
297.446
297.282
298.887
298.807
298.743
298.643
298.562
298.445
298.314
298.164
297.999
297.823
297.642
297.466
297.289
297.129
298.655
298.589
298.54
298.441
298.368
298.256
298.127
297.982
297.821
297.651
297.472
297.302
297.121
296.964
298.416
298.357
298.323
298.232
298.165
298.058
297.932
297.791
297.633
297.464
297.281
297.108
296.911
296.752
298.164
298.109
298.103
298.027
297.957
297.853
297.725
297.587
297.427
297.258
297.069
296.891
296.683
296.523
297.899
297.853
297.873
297.817
297.749
297.652
297.525
297.389
297.226
297.053
296.857
296.661
296.432
296.255
297.63
297.618
297.639
297.603
297.541
297.455
297.324
297.182
297.008
296.82
296.607
296.391
296.161
295.957
297.317
297.354
297.405
297.386
297.33
297.256
297.129
296.99
296.813
296.621
296.396
296.159
295.891
295.63
302.405
302.254
302.155
302.034
301.93
301.819
301.713
301.599
301.476
301.334
301.189
301.027
300.889
300.747
302.244
302.119
302.018
301.894
301.787
301.674
301.565
301.448
301.323
301.182
301.034
300.871
300.728
300.587
302.112
301.999
301.893
301.771
301.665
301.551
301.44
301.321
301.196
301.059
300.915
300.759
300.617
300.475
301.946
301.85
301.746
301.631
301.529
301.418
301.306
301.186
301.058
300.92
300.776
300.623
300.48
300.341
301.765
301.682
301.586
301.483
301.386
301.28
301.17
301.05
300.923
300.786
300.643
300.495
300.354
300.218
301.567
301.493
301.412
301.318
301.228
301.128
301.02
300.903
300.776
300.641
300.5
300.356
300.217
300.083
301.356
301.286
301.224
301.139
301.058
300.964
300.86
300.747
300.623
300.491
300.353
300.215
300.076
299.944
301.141
301.074
301.03
300.954
300.878
300.789
300.688
300.578
300.457
300.328
300.193
300.058
299.919
299.789
300.921
300.864
300.829
300.76
300.686
300.602
300.504
300.396
300.278
300.153
300.02
299.889
299.749
299.623
300.711
300.657
300.63
300.568
300.493
300.412
300.313
300.205
300.087
299.962
299.829
299.697
299.55
299.425
300.501
300.453
300.43
300.373
300.295
300.213
300.111
300.002
299.882
299.757
299.623
299.491
299.341
299.22
300.289
300.245
300.232
300.183
300.103
300.02
299.912
299.797
299.672
299.541
299.402
299.261
299.099
298.974
300.078
300.058
300.034
299.987
299.907
299.823
299.707
299.584
299.448
299.309
299.161
299.01
298.855
298.704
299.807
299.82
299.821
299.786
299.708
299.627
299.508
299.383
299.241
299.096
298.936
298.766
298.582
298.392
304.623
304.487
304.395
304.286
304.189
304.091
304.001
303.911
303.821
303.728
303.639
303.547
303.478
303.408
304.43
304.318
304.228
304.121
304.024
303.927
303.836
303.745
303.655
303.562
303.472
303.382
303.307
303.227
304.263
304.163
304.07
303.967
303.874
303.78
303.691
303.602
303.514
303.425
303.338
303.252
303.176
303.1
304.077
303.99
303.902
303.806
303.717
303.627
303.54
303.453
303.366
303.278
303.191
303.105
303.025
302.948
303.894
303.816
303.735
303.646
303.562
303.477
303.393
303.309
303.224
303.139
303.053
302.968
302.886
302.807
303.709
303.634
303.564
303.482
303.402
303.321
303.24
303.159
303.077
302.993
302.909
302.824
302.74
302.659
303.525
303.452
303.393
303.317
303.241
303.163
303.085
303.007
302.928
302.847
302.765
302.683
302.598
302.518
303.346
303.273
303.223
303.151
303.076
303
302.924
302.848
302.771
302.693
302.613
302.534
302.451
302.375
303.174
303.1
303.056
302.987
302.911
302.835
302.758
302.683
302.608
302.533
302.456
302.381
302.302
302.232
303.016
302.942
302.896
302.825
302.746
302.667
302.588
302.512
302.437
302.364
302.289
302.218
302.139
302.079
302.858
302.791
302.736
302.664
302.579
302.497
302.413
302.335
302.259
302.187
302.115
302.048
301.971
301.921
302.716
302.652
302.59
302.514
302.423
302.335
302.243
302.159
302.077
302.002
301.928
301.86
301.781
301.738
302.557
302.508
302.436
302.359
302.264
302.172
302.072
301.981
301.893
301.814
301.738
301.668
301.593
301.54
302.406
302.355
302.294
302.219
302.12
302.026
301.92
301.822
301.725
301.638
301.551
301.47
301.383
301.322
306.274
306.191
306.112
306.029
305.955
305.883
305.818
305.755
305.696
305.64
305.594
305.553
305.538
305.509
306.108
306.024
305.946
305.864
305.789
305.717
305.649
305.584
305.524
305.468
305.424
305.388
305.372
305.349
305.94
305.867
305.787
305.707
305.632
305.561
305.495
305.433
305.377
305.325
305.284
305.252
305.236
305.215
305.773
305.702
305.626
305.548
305.475
305.406
305.341
305.281
305.225
305.176
305.135
305.104
305.084
305.065
305.612
305.543
305.471
305.396
305.325
305.258
305.196
305.138
305.086
305.039
304.999
304.968
304.945
304.924
305.455
305.385
305.317
305.243
305.174
305.108
305.049
304.994
304.944
304.899
304.859
304.828
304.8
304.777
305.307
305.235
305.168
305.095
305.026
304.962
304.904
304.853
304.805
304.763
304.725
304.693
304.663
304.637
305.167
305.09
305.023
304.949
304.878
304.814
304.758
304.708
304.664
304.625
304.587
304.557
304.525
304.501
305.037
304.955
304.883
304.806
304.732
304.667
304.61
304.563
304.521
304.485
304.45
304.422
304.392
304.372
304.917
304.83
304.75
304.668
304.589
304.521
304.463
304.416
304.375
304.342
304.31
304.285
304.257
304.246
304.805
304.714
304.626
304.537
304.451
304.379
304.317
304.269
304.228
304.197
304.167
304.147
304.122
304.122
304.707
304.611
304.513
304.416
304.323
304.245
304.178
304.127
304.084
304.052
304.023
304.007
303.983
303.99
304.602
304.507
304.406
304.303
304.204
304.12
304.049
303.993
303.946
303.912
303.884
303.87
303.848
303.853
304.524
304.404
304.307
304.204
304.102
304.016
303.94
303.877
303.824
303.785
303.75
303.729
303.7
303.719
307.362
307.314
307.246
307.183
307.126
307.074
307.027
306.985
306.948
306.916
306.895
306.876
306.879
306.861
307.222
307.165
307.098
307.035
306.976
306.922
306.872
306.827
306.788
306.755
306.733
306.719
306.723
306.719
307.071
307.021
306.951
306.889
306.83
306.776
306.728
306.684
306.647
306.617
306.597
306.586
306.593
306.592
306.93
306.874
306.807
306.745
306.688
306.636
306.588
306.546
306.509
306.48
306.459
306.449
306.455
306.46
306.794
306.735
306.669
306.608
306.552
306.502
306.458
306.419
306.385
306.358
306.338
306.328
306.332
306.337
306.664
306.598
306.534
306.472
306.418
306.371
306.33
306.295
306.263
306.239
306.22
306.209
306.208
306.213
306.543
306.47
306.405
306.342
306.289
306.244
306.207
306.176
306.149
306.128
306.109
306.098
306.093
306.097
306.43
306.349
306.281
306.216
306.163
306.12
306.085
306.059
306.035
306.017
306
305.991
305.983
305.987
306.327
306.237
306.164
306.096
306.041
305.998
305.966
305.943
305.923
305.909
305.896
305.889
305.882
305.886
306.232
306.134
306.054
305.982
305.924
305.881
305.849
305.829
305.812
305.803
305.792
305.791
305.785
305.793
306.147
306.042
305.955
305.877
305.814
305.768
305.736
305.716
305.702
305.697
305.691
305.694
305.692
305.708
306.074
305.962
305.866
305.782
305.714
305.665
305.63
305.61
305.597
305.594
305.591
305.599
305.602
305.627
306.003
305.888
305.789
305.699
305.626
305.573
305.535
305.513
305.499
305.496
305.496
305.51
305.519
305.549
305.953
305.813
305.719
305.629
305.553
305.497
305.455
305.43
305.414
305.41
305.409
305.423
305.429
305.481
307.995
307.969
307.919
307.878
307.839
307.806
307.779
307.756
307.739
307.724
307.718
307.714
307.723
307.707
307.878
307.846
307.796
307.755
307.714
307.679
307.65
307.625
307.604
307.587
307.579
307.575
307.584
307.578
307.756
307.726
307.673
307.632
307.592
307.558
307.528
307.503
307.482
307.465
307.457
307.454
307.466
307.461
307.641
307.603
307.553
307.511
307.473
307.441
307.412
307.388
307.367
307.35
307.34
307.337
307.346
307.346
307.531
307.488
307.438
307.397
307.36
307.33
307.303
307.281
307.262
307.246
307.236
307.232
307.239
307.24
307.424
307.373
307.325
307.284
307.25
307.222
307.199
307.18
307.162
307.148
307.137
307.133
307.136
307.138
307.324
307.267
307.218
307.177
307.145
307.12
307.1
307.085
307.07
307.059
307.048
307.043
307.042
307.044
307.229
307.165
307.116
307.074
307.043
307.022
307.005
306.994
306.982
306.974
306.964
306.958
306.954
306.956
307.139
307.07
307.019
306.976
306.946
306.927
306.913
306.906
306.898
306.893
306.885
306.881
306.875
306.877
307.056
306.982
306.929
306.884
306.854
306.836
306.825
306.821
306.816
306.815
306.81
306.81
306.804
306.808
306.979
306.901
306.845
306.799
306.768
306.75
306.74
306.739
306.737
306.74
306.739
306.744
306.741
306.748
306.91
306.829
306.769
306.721
306.688
306.669
306.66
306.66
306.66
306.667
306.671
306.681
306.683
306.695
306.845
306.764
306.701
306.651
306.615
306.595
306.585
306.586
306.588
306.599
306.607
306.624
306.632
306.65
306.79
306.696
306.637
306.587
306.549
306.527
306.516
306.516
306.519
306.532
306.542
306.564
306.573
306.609
308.324
308.318
308.296
308.28
308.264
308.252
308.245
308.241
308.243
308.244
308.254
308.259
308.275
308.27
308.235
308.225
308.201
308.185
308.169
308.155
308.146
308.141
308.141
308.141
308.148
308.152
308.166
308.164
308.148
308.137
308.111
308.093
308.076
308.063
308.052
308.047
308.045
308.044
308.05
308.053
308.067
308.065
308.062
308.047
308.02
308.001
307.985
307.972
307.962
307.956
307.954
307.952
307.956
307.959
307.97
307.97
307.983
307.962
307.935
307.916
307.899
307.887
307.877
307.871
307.868
307.866
307.869
307.87
307.879
307.88
307.902
307.876
307.851
307.831
307.815
307.805
307.796
307.79
307.787
307.786
307.786
307.787
307.792
307.794
307.826
307.796
307.771
307.751
307.737
307.727
307.719
307.715
307.712
307.71
307.709
307.709
307.71
307.712
307.751
307.718
307.694
307.675
307.662
307.653
307.647
307.644
307.641
307.64
307.638
307.636
307.634
307.634
307.678
307.644
307.621
307.602
307.59
307.584
307.578
307.577
307.575
307.575
307.571
307.57
307.564
307.564
307.608
307.573
307.552
307.534
307.523
307.517
307.514
307.514
307.513
307.513
307.51
307.509
307.5
307.499
307.54
307.506
307.485
307.468
307.458
307.454
307.452
307.454
307.454
307.457
307.455
307.455
307.446
307.442
307.476
307.441
307.422
307.406
307.397
307.394
307.393
307.396
307.398
307.402
307.402
307.403
307.393
307.391
307.413
307.383
307.362
307.347
307.338
307.335
307.336
307.341
307.344
307.352
307.355
307.358
307.352
307.35
307.35
307.317
307.301
307.288
307.28
307.279
307.279
307.285
307.29
307.3
307.304
307.311
307.304
307.309
308.499
308.508
308.511
308.516
308.523
308.533
308.544
308.557
308.574
308.589
308.608
308.623
308.643
308.648
308.434
308.445
308.446
308.451
308.458
308.467
308.478
308.491
308.507
308.523
308.542
308.557
308.575
308.581
308.379
308.388
308.388
308.392
308.397
308.405
308.416
308.427
308.443
308.457
308.476
308.49
308.509
308.513
308.32
308.328
308.328
308.331
308.335
308.343
308.353
308.365
308.38
308.394
308.412
308.425
308.442
308.448
308.268
308.273
308.272
308.274
308.277
308.284
308.293
308.304
308.317
308.33
308.347
308.359
308.375
308.381
308.213
308.215
308.215
308.216
308.219
308.226
308.233
308.244
308.256
308.268
308.282
308.293
308.306
308.312
308.16
308.16
308.16
308.161
308.164
308.17
308.176
308.185
308.195
308.206
308.216
308.226
308.235
308.241
308.108
308.106
308.107
308.108
308.111
308.115
308.121
308.128
308.136
308.145
308.152
308.16
308.164
308.169
308.055
308.052
308.054
308.055
308.058
308.063
308.067
308.074
308.079
308.086
308.09
308.095
308.095
308.099
308.002
307.999
308.002
308.005
308.008
308.012
308.016
308.021
308.024
308.029
308.029
308.032
308.028
308.031
307.948
307.946
307.95
307.954
307.957
307.962
307.965
307.97
307.971
307.974
307.972
307.972
307.965
307.965
307.894
307.893
307.899
307.903
307.908
307.912
307.915
307.919
307.918
307.919
307.916
307.913
307.902
307.899
307.838
307.842
307.847
307.852
307.857
307.862
307.864
307.868
307.868
307.868
307.863
307.859
307.847
307.836
307.777
307.787
307.795
307.801
307.806
307.81
307.813
307.815
307.814
307.814
307.809
307.802
307.789
307.768
308.603
308.618
308.633
308.65
308.667
308.685
308.704
308.723
308.743
308.761
308.78
308.796
308.815
308.823
308.557
308.574
308.589
308.607
308.625
308.644
308.664
308.684
308.705
308.724
308.744
308.761
308.779
308.789
308.52
308.538
308.553
308.571
308.588
308.607
308.627
308.647
308.668
308.687
308.708
308.724
308.743
308.753
308.48
308.498
308.515
308.533
308.551
308.57
308.591
308.611
308.632
308.652
308.672
308.689
308.708
308.718
308.445
308.463
308.48
308.498
308.516
308.535
308.555
308.574
308.595
308.615
308.635
308.652
308.67
308.681
308.408
308.426
308.444
308.462
308.48
308.498
308.518
308.537
308.557
308.576
308.596
308.613
308.63
308.641
308.371
308.389
308.407
308.425
308.443
308.461
308.48
308.498
308.517
308.536
308.554
308.57
308.584
308.595
308.335
308.352
308.371
308.388
308.405
308.423
308.44
308.457
308.474
308.491
308.507
308.521
308.532
308.542
308.296
308.313
308.331
308.348
308.365
308.381
308.397
308.413
308.427
308.442
308.455
308.467
308.474
308.483
308.256
308.273
308.29
308.307
308.322
308.337
308.351
308.365
308.377
308.389
308.397
308.407
308.409
308.417
308.214
308.23
308.247
308.262
308.276
308.29
308.301
308.313
308.322
308.331
308.335
308.342
308.34
308.347
308.169
308.185
308.201
308.216
308.229
308.24
308.25
308.259
308.265
308.271
308.27
308.273
308.268
308.272
308.122
308.138
308.153
308.166
308.177
308.187
308.194
308.201
308.204
308.206
308.204
308.203
308.198
308.199
308.069
308.091
308.105
308.116
308.124
308.132
308.137
308.141
308.141
308.142
308.138
308.133
308.125
308.112
308.648
308.664
308.676
308.69
308.705
308.72
308.736
308.752
308.769
308.785
308.801
308.816
308.833
308.843
308.611
308.627
308.641
308.656
308.672
308.688
308.705
308.722
308.74
308.757
308.775
308.79
308.807
308.819
308.58
308.598
308.612
308.628
308.643
308.66
308.677
308.695
308.713
308.73
308.749
308.764
308.782
308.793
308.549
308.566
308.582
308.598
308.615
308.632
308.65
308.668
308.687
308.705
308.724
308.74
308.758
308.77
308.52
308.538
308.554
308.571
308.588
308.605
308.624
308.642
308.662
308.68
308.699
308.716
308.733
308.746
308.491
308.508
308.525
308.543
308.56
308.578
308.597
308.616
308.635
308.654
308.673
308.691
308.708
308.722
308.461
308.479
308.496
308.514
308.532
308.55
308.569
308.588
308.608
308.627
308.647
308.664
308.682
308.696
308.431
308.448
308.465
308.483
308.501
308.52
308.539
308.559
308.578
308.597
308.616
308.634
308.65
308.665
308.399
308.416
308.433
308.45
308.468
308.487
308.506
308.526
308.545
308.564
308.582
308.6
308.614
308.629
308.366
308.382
308.398
308.415
308.433
308.451
308.469
308.488
308.506
308.525
308.541
308.558
308.57
308.585
308.331
308.345
308.36
308.377
308.393
308.411
308.428
308.446
308.463
308.481
308.495
308.511
308.52
308.535
308.292
308.305
308.319
308.334
308.35
308.367
308.383
308.399
308.415
308.431
308.443
308.458
308.466
308.479
308.25
308.261
308.275
308.289
308.303
308.319
308.333
308.347
308.36
308.374
308.386
308.399
308.408
308.421
308.198
308.213
308.227
308.239
308.252
308.265
308.278
308.291
308.302
308.314
308.324
308.336
308.343
308.349
308.65
308.661
308.668
308.676
308.686
308.697
308.709
308.721
308.734
308.747
308.761
308.775
308.791
308.803
308.614
308.624
308.632
308.642
308.653
308.664
308.677
308.69
308.705
308.719
308.735
308.749
308.765
308.776
308.582
308.592
308.601
308.611
308.623
308.635
308.648
308.662
308.676
308.691
308.706
308.721
308.739
308.751
308.552
308.56
308.57
308.581
308.594
308.607
308.621
308.635
308.651
308.666
308.682
308.697
308.715
308.729
308.523
308.531
308.541
308.553
308.566
308.58
308.594
308.609
308.625
308.641
308.658
308.673
308.691
308.706
308.494
308.503
308.513
308.526
308.539
308.553
308.569
308.584
308.601
308.617
308.634
308.651
308.669
308.684
308.465
308.474
308.485
308.498
308.512
308.527
308.542
308.558
308.575
308.592
308.61
308.628
308.646
308.663
308.436
308.445
308.456
308.469
308.484
308.499
308.515
308.532
308.549
308.567
308.585
308.603
308.621
308.638
308.405
308.415
308.426
308.439
308.454
308.469
308.486
308.503
308.521
308.539
308.558
308.577
308.594
308.613
308.374
308.383
308.394
308.407
308.422
308.437
308.454
308.472
308.49
308.509
308.528
308.547
308.564
308.583
308.34
308.349
308.36
308.373
308.387
308.403
308.42
308.438
308.457
308.476
308.495
308.515
308.533
308.554
308.304
308.312
308.323
308.335
308.35
308.366
308.384
308.403
308.422
308.442
308.461
308.482
308.499
308.521
308.265
308.272
308.282
308.294
308.31
308.327
308.345
308.364
308.384
308.405
308.425
308.447
308.465
308.486
308.217
308.227
308.238
308.252
308.267
308.285
308.303
308.322
308.341
308.362