/*--------------------------------*- C++ -*----------------------------------*\
| =========                 |                                                 |
| \\      /  F ield         | OpenFOAM: The Open Source CFD Toolbox           |
|  \\    /   O peration     | Version:  v2106                                 |
|   \\  /    A nd           | Website:  www.openfoam.com                      |
|    \\/     M anipulation  |                                                 |
\*---------------------------------------------------------------------------*/
FoamFile
{
    version     2.0;
    format      ascii;
    arch        "LSB;label=32;scalar=64";
    class       volScalarField;
    location    "0.000188";
    object      nut;
}
// * * * * * * * * * * * * * * * * * * * * * * * * * * * * * * * * * * * * * //

dimensions      [0 2 -1 0 0 0 0];

internalField   nonuniform List<scalar> 
144746
(
6.30464e-05
5.11814e-05
3.82975e-05
2.58028e-05
1.80808e-05
1.52915e-05
1.81076e-05
2.72248e-05
4.26875e-05
6.16315e-05
7.51885e-05
7.61387e-05
6.87156e-05
6.04421e-05
6.60819e-05
4.98526e-05
3.31958e-05
1.98617e-05
1.25716e-05
9.51135e-06
1.02285e-05
1.52774e-05
2.53402e-05
3.97738e-05
5.51866e-05
6.29655e-05
6.01414e-05
5.3388e-05
5.97737e-05
4.02019e-05
2.36788e-05
1.29288e-05
7.75747e-06
5.51582e-06
5.5152e-06
8.17534e-06
1.43678e-05
2.40889e-05
3.58178e-05
4.63526e-05
4.88217e-05
4.64279e-05
4.43207e-05
2.60182e-05
1.37107e-05
7.02527e-06
4.09816e-06
2.87265e-06
2.85041e-06
4.33699e-06
8.0805e-06
1.43439e-05
2.23128e-05
3.06251e-05
3.55549e-05
3.72133e-05
2.71045e-05
1.38846e-05
6.61254e-06
3.20904e-06
1.83132e-06
1.323e-06
1.43064e-06
2.41054e-06
4.84167e-06
9.10073e-06
1.47538e-05
2.07226e-05
2.57063e-05
2.99748e-05
1.4239e-05
6.40885e-06
2.76071e-06
1.25507e-06
7.08825e-07
5.67175e-07
7.63068e-07
1.52122e-06
3.27474e-06
6.37237e-06
1.05838e-05
1.50339e-05
1.96402e-05
2.58083e-05
7.13109e-06
2.88721e-06
1.12552e-06
4.8194e-07
2.8061e-07
2.87111e-07
5.24711e-07
1.18789e-06
2.60032e-06
5.03296e-06
8.36068e-06
1.20759e-05
1.7281e-05
2.67594e-05
4.308e-06
1.69042e-06
6.62623e-07
3.06254e-07
2.06198e-07
2.64452e-07
5.32162e-07
1.17123e-06
2.42025e-06
4.46758e-06
7.26836e-06
1.09497e-05
1.83434e-05
3.29501e-05
4.04987e-06
1.69633e-06
7.88242e-07
4.53783e-07
3.48591e-07
4.18881e-07
7.13685e-07
1.35893e-06
2.53049e-06
4.37707e-06
7.02492e-06
1.20584e-05
2.37944e-05
4.43395e-05
5.76952e-06
2.54402e-06
1.36229e-06
9.21678e-07
7.49271e-07
7.95536e-07
1.10597e-06
1.77607e-06
2.95412e-06
4.8636e-06
8.31166e-06
1.69071e-05
3.41136e-05
5.77563e-05
1.13915e-05
5.19099e-06
2.62753e-06
1.91821e-06
1.62428e-06
1.60325e-06
1.91818e-06
2.67168e-06
4.07885e-06
6.77033e-06
1.25018e-05
2.63996e-05
4.67182e-05
6.72274e-05
2.31365e-05
1.46564e-05
7.73086e-06
4.39621e-06
3.44159e-06
3.26305e-06
3.60582e-06
4.59855e-06
6.63622e-06
1.10065e-05
2.03687e-05
3.76622e-05
5.58476e-05
6.89846e-05
3.71491e-05
3.01595e-05
1.99739e-05
1.15505e-05
7.48937e-06
6.32194e-06
6.56757e-06
7.95057e-06
1.09497e-05
1.72297e-05
2.89301e-05
4.49593e-05
5.73222e-05
6.43503e-05
4.89605e-05
4.63012e-05
3.7866e-05
2.65049e-05
1.74107e-05
1.25928e-05
1.13403e-05
1.25927e-05
1.61645e-05
2.32872e-05
3.42451e-05
4.58765e-05
5.31272e-05
5.81037e-05
5.29404e-05
4.07283e-05
2.91195e-05
1.93767e-05
1.36906e-05
1.14186e-05
1.30436e-05
1.91559e-05
2.99649e-05
4.39441e-05
5.73959e-05
6.42353e-05
6.32216e-05
5.80923e-05
5.10244e-05
3.66311e-05
2.38747e-05
1.46049e-05
9.6219e-06
7.38882e-06
7.74932e-06
1.12702e-05
1.8595e-05
2.89367e-05
4.01263e-05
4.93285e-05
5.16346e-05
4.93471e-05
4.24392e-05
2.79086e-05
1.66517e-05
9.57866e-06
6.03919e-06
4.41489e-06
4.36644e-06
6.32405e-06
1.10598e-05
1.83904e-05
2.6984e-05
3.49336e-05
3.97745e-05
4.06799e-05
2.95721e-05
1.75937e-05
9.69276e-06
5.32251e-06
3.26546e-06
2.35545e-06
2.32371e-06
3.48049e-06
6.49108e-06
1.15154e-05
1.76861e-05
2.35966e-05
2.83381e-05
3.11711e-05
1.7348e-05
9.2103e-06
4.69726e-06
2.47198e-06
1.49446e-06
1.10678e-06
1.18467e-06
1.97267e-06
3.97282e-06
7.46954e-06
1.20153e-05
1.66234e-05
2.06702e-05
2.44198e-05
8.73678e-06
4.09496e-06
1.91961e-06
9.637e-07
5.83112e-07
4.75339e-07
6.28955e-07
1.24517e-06
2.68902e-06
5.23373e-06
8.68351e-06
1.23743e-05
1.58853e-05
2.0199e-05
4.19228e-06
1.72567e-06
7.25145e-07
3.42687e-07
2.14483e-07
2.24091e-07
4.12689e-07
9.48676e-07
2.0984e-06
4.07648e-06
6.8064e-06
9.90854e-06
1.34221e-05
1.92987e-05
2.53672e-06
9.67109e-07
3.72621e-07
1.70127e-07
1.20197e-07
1.7285e-07
3.81884e-07
8.87975e-07
1.88984e-06
3.54618e-06
5.8439e-06
8.68854e-06
1.30741e-05
2.16835e-05
2.51379e-06
9.90637e-07
4.19628e-07
2.24093e-07
1.77065e-07
2.4353e-07
4.71439e-07
9.7592e-07
1.91272e-06
3.41579e-06
5.58274e-06
8.82726e-06
1.54193e-05
2.79592e-05
3.68709e-06
1.52987e-06
7.51375e-07
4.80645e-07
3.96587e-07
4.59139e-07
7.08215e-07
1.23871e-06
2.19378e-06
3.75983e-06
6.31354e-06
1.11527e-05
2.13427e-05
3.68865e-05
7.18645e-06
3.05704e-06
1.52251e-06
1.08193e-06
9.18637e-07
9.56218e-07
1.23871e-06
1.86285e-06
3.01816e-06
5.06225e-06
8.80506e-06
1.67449e-05
2.99075e-05
4.63063e-05
1.55949e-05
8.9113e-06
4.40613e-06
2.50564e-06
2.03938e-06
2.01004e-06
2.36026e-06
3.20687e-06
4.81419e-06
7.8192e-06
1.37371e-05
2.45572e-05
3.86845e-05
5.35846e-05
2.73862e-05
1.97146e-05
1.18716e-05
6.48667e-06
4.38122e-06
3.99469e-06
4.39377e-06
5.57369e-06
7.85537e-06
1.21159e-05
1.97834e-05
3.20367e-05
4.51513e-05
5.64919e-05
3.91662e-05
3.27701e-05
2.3934e-05
1.535e-05
9.86272e-06
7.6841e-06
7.61524e-06
8.99975e-06
1.18452e-05
1.69555e-05
2.54767e-05
3.73759e-05
4.8006e-05
5.61991e-05
3.53962e-05
2.62216e-05
1.86558e-05
1.29568e-05
9.72682e-06
8.19531e-06
8.59779e-06
1.13233e-05
1.68142e-05
2.45646e-05
3.36604e-05
4.27778e-05
5.0234e-05
5.39379e-05
2.97001e-05
2.10486e-05
1.40914e-05
9.26914e-06
6.60406e-06
5.27881e-06
5.29323e-06
7.04225e-06
1.11621e-05
1.73972e-05
2.48604e-05
3.22729e-05
3.83541e-05
4.26593e-05
2.19417e-05
1.47736e-05
9.44786e-06
5.95247e-06
4.05523e-06
3.11308e-06
3.03983e-06
4.12737e-06
7.02215e-06
1.1759e-05
1.76336e-05
2.37191e-05
2.9031e-05
3.33301e-05
1.4206e-05
9.04752e-06
5.43813e-06
3.27857e-06
2.16224e-06
1.63702e-06
1.61821e-06
2.32953e-06
4.29688e-06
7.73093e-06
1.22116e-05
1.70134e-05
2.14006e-05
2.53192e-05
8.15898e-06
4.72144e-06
2.62699e-06
1.51604e-06
9.81866e-07
7.58724e-07
8.14604e-07
1.32803e-06
2.67766e-06
5.12345e-06
8.51106e-06
1.23458e-05
1.61113e-05
1.99306e-05
4.18907e-06
2.11106e-06
1.06519e-06
5.87709e-07
3.80253e-07
3.19358e-07
4.21063e-07
8.3009e-07
1.8121e-06
3.60115e-06
6.20165e-06
9.3279e-06
1.26376e-05
1.62772e-05
2.13574e-06
8.98611e-07
3.91776e-07
2.00264e-07
1.33175e-07
1.41453e-07
2.63931e-07
6.21003e-07
1.4071e-06
2.81097e-06
4.89551e-06
7.53629e-06
1.05825e-05
1.43346e-05
1.42214e-06
5.10678e-07
1.84614e-07
8.19894e-08
5.97873e-08
9.39962e-08
2.28109e-07
5.65986e-07
1.25922e-06
2.45726e-06
4.23995e-06
6.59594e-06
9.57729e-06
1.38516e-05
1.47461e-06
5.21309e-07
1.91743e-07
9.10215e-08
7.29008e-08
1.17269e-07
2.64444e-07
6.06943e-07
1.27235e-06
2.38827e-06
4.05954e-06
6.40358e-06
9.78827e-06
1.5407e-05
2.14546e-06
8.03772e-07
3.51248e-07
2.07697e-07
1.72408e-07
2.20636e-07
3.8726e-07
7.57617e-07
1.45349e-06
2.61799e-06
4.44314e-06
7.2483e-06
1.1687e-05
1.89803e-05
4.02841e-06
1.60743e-06
7.71923e-07
5.2194e-07
4.41845e-07
4.86988e-07
6.88957e-07
1.13652e-06
1.97887e-06
3.43504e-06
5.84021e-06
9.6698e-06
1.56975e-05
2.44102e-05
8.44458e-06
4.38168e-06
2.1267e-06
1.26973e-06
1.06664e-06
1.10219e-06
1.37632e-06
1.99652e-06
3.16238e-06
5.19447e-06
8.53167e-06
1.37326e-05
2.14806e-05
3.19387e-05
1.53487e-05
9.67963e-06
5.44651e-06
3.06885e-06
2.34098e-06
2.33605e-06
2.72468e-06
3.60941e-06
5.22789e-06
7.97504e-06
1.2373e-05
1.91395e-05
2.85372e-05
3.98549e-05
2.32041e-05
1.67263e-05
1.10929e-05
6.91634e-06
4.93576e-06
4.53364e-06
4.99214e-06
6.15358e-06
8.21808e-06
1.16135e-05
1.70491e-05
2.5718e-05
3.6791e-05
4.74736e-05
5.5586e-05
5.81956e-05
6.30728e-05
7.09317e-05
8.05884e-05
9.69196e-05
4.90213e-05
5.18289e-05
5.78859e-05
6.83899e-05
8.40263e-05
0.000108206
4.37821e-05
4.67935e-05
5.405e-05
6.61428e-05
8.65252e-05
0.000117486
3.83416e-05
4.39323e-05
5.31957e-05
6.58679e-05
8.84436e-05
0.000124683
3.53217e-05
4.42962e-05
5.58362e-05
6.84127e-05
9.04321e-05
0.000129854
3.58923e-05
4.90042e-05
6.22036e-05
7.3388e-05
9.20824e-05
0.000132914
4.19015e-05
5.8437e-05
7.10692e-05
7.90074e-05
9.28383e-05
0.000134204
5.2555e-05
6.99199e-05
7.86638e-05
8.21891e-05
9.17191e-05
0.000134561
6.47208e-05
7.7923e-05
8.06923e-05
8.11233e-05
8.82422e-05
0.000133519
7.26976e-05
7.87057e-05
7.74719e-05
7.7338e-05
8.35865e-05
0.000130637
7.33052e-05
7.41488e-05
7.22905e-05
7.32265e-05
7.90229e-05
0.000125958
6.89131e-05
6.82483e-05
6.77489e-05
6.97036e-05
7.52247e-05
0.000119164
6.30573e-05
6.29673e-05
6.37216e-05
6.66949e-05
7.28045e-05
0.000109883
5.78601e-05
5.85706e-05
6.01958e-05
6.45453e-05
7.19702e-05
9.8237e-05
5.37127e-05
5.64061e-05
5.99504e-05
6.61547e-05
7.51278e-05
9.17951e-05
4.6239e-05
4.92764e-05
5.4557e-05
6.32972e-05
7.80939e-05
0.00010161
3.9777e-05
4.34865e-05
5.04343e-05
6.10645e-05
8.05969e-05
0.000109994
3.31278e-05
3.88996e-05
4.83713e-05
6.08142e-05
8.31058e-05
0.000116729
2.86933e-05
3.67077e-05
4.9012e-05
6.33151e-05
8.60983e-05
0.000121734
2.69703e-05
3.79476e-05
5.30664e-05
6.81363e-05
8.87277e-05
0.000125112
2.9048e-05
4.3314e-05
6.07573e-05
7.45093e-05
8.97726e-05
0.000127112
3.48234e-05
5.20926e-05
6.98986e-05
7.97323e-05
8.85359e-05
0.000128108
4.3339e-05
6.13591e-05
7.60944e-05
8.07061e-05
8.49164e-05
0.000127564
5.19897e-05
6.74439e-05
7.69371e-05
7.7883e-05
8.00659e-05
0.00012474
5.79426e-05
6.87259e-05
7.39509e-05
7.39291e-05
7.60665e-05
0.000119814
6.0159e-05
6.66826e-05
7.00252e-05
7.0731e-05
7.35303e-05
0.000112821
5.97688e-05
6.36151e-05
6.63905e-05
6.84429e-05
7.23545e-05
0.000103489
5.78576e-05
6.10585e-05
6.34276e-05
6.67471e-05
7.2285e-05
9.21531e-05
5.56396e-05
6.09072e-05
6.42303e-05
6.70292e-05
7.15068e-05
8.21257e-05
4.47667e-05
5.06823e-05
5.69167e-05
6.34564e-05
7.32531e-05
9.07069e-05
3.70141e-05
4.33776e-05
5.13906e-05
6.05126e-05
7.47372e-05
9.87153e-05
2.96766e-05
3.6924e-05
4.69537e-05
5.90161e-05
7.72623e-05
0.00010587
2.46276e-05
3.25995e-05
4.44813e-05
5.92152e-05
8.09529e-05
0.000111977
2.12326e-05
3.01783e-05
4.41783e-05
6.15234e-05
8.47138e-05
0.000116292
2.00774e-05
3.06378e-05
4.75233e-05
6.61144e-05
8.6419e-05
0.000118634
2.09491e-05
3.38814e-05
5.32816e-05
7.18981e-05
8.64359e-05
0.000119334
2.3918e-05
3.90364e-05
5.99706e-05
7.64723e-05
8.51701e-05
0.000118808
2.86717e-05
4.48126e-05
6.53512e-05
7.84305e-05
8.26124e-05
0.000116662
3.41511e-05
4.99725e-05
6.84655e-05
7.86201e-05
8.02922e-05
0.000112433
3.95571e-05
5.40608e-05
7.01371e-05
7.8525e-05
7.96404e-05
0.000105952
4.55517e-05
5.81921e-05
7.15441e-05
7.85473e-05
8.04234e-05
9.69931e-05
5.14565e-05
6.30055e-05
7.32772e-05
7.78207e-05
8.08772e-05
8.57861e-05
5.33844e-05
5.50936e-05
5.80871e-05
6.43733e-05
7.3693e-05
0.000100271
4.82371e-05
4.97485e-05
5.40313e-05
6.27124e-05
7.68522e-05
0.000111581
4.30239e-05
4.4372e-05
4.99906e-05
6.06694e-05
7.91683e-05
0.000120854
3.54332e-05
3.8845e-05
4.70655e-05
5.95508e-05
8.0887e-05
0.00012799
2.79121e-05
3.4034e-05
4.54993e-05
6.04589e-05
8.28215e-05
0.000132961
2.23724e-05
3.15112e-05
4.62684e-05
6.3564e-05
8.51533e-05
0.000135611
2.01269e-05
3.24614e-05
5.04852e-05
6.87026e-05
8.76005e-05
0.000135966
2.13846e-05
3.77434e-05
5.84574e-05
7.50635e-05
8.88141e-05
0.000134598
2.66581e-05
4.67695e-05
6.75598e-05
7.94976e-05
8.73619e-05
0.000131698
3.53488e-05
5.62228e-05
7.31752e-05
7.96531e-05
8.33386e-05
0.000127444
4.482e-05
6.22086e-05
7.32853e-05
7.61168e-05
7.81352e-05
0.000121835
5.15973e-05
6.31845e-05
6.95819e-05
7.12025e-05
7.32283e-05
0.000114719
5.38356e-05
6.03409e-05
6.3949e-05
6.57236e-05
6.89159e-05
0.000105674
5.20759e-05
5.56543e-05
5.75927e-05
6.00479e-05
6.55307e-05
9.47808e-05
5.42459e-05
5.7953e-05
6.11034e-05
6.62986e-05
7.36401e-05
9.38985e-05
4.67586e-05
5.07284e-05
5.59677e-05
6.33733e-05
7.61082e-05
0.000104273
3.90011e-05
4.36738e-05
5.07351e-05
6.03294e-05
7.70865e-05
0.000112889
2.9917e-05
3.60094e-05
4.55599e-05
5.80025e-05
7.76186e-05
0.000119423
2.23048e-05
2.9346e-05
4.09758e-05
5.67277e-05
7.88164e-05
0.000123955
1.71147e-05
2.48722e-05
3.8233e-05
5.6953e-05
8.1012e-05
0.000126899
1.43464e-05
2.31302e-05
3.85419e-05
5.95254e-05
8.3545e-05
0.00012787
1.37433e-05
2.4608e-05
4.29743e-05
6.4955e-05
8.50744e-05
0.000126902
1.58787e-05
2.97178e-05
5.07627e-05
7.09072e-05
8.4401e-05
0.000124461
2.10075e-05
3.70907e-05
5.8218e-05
7.38686e-05
8.12196e-05
0.000120493
2.81942e-05
4.41243e-05
6.20248e-05
7.2693e-05
7.66863e-05
0.000114916
3.5553e-05
4.88181e-05
6.19666e-05
6.91649e-05
7.27618e-05
0.00010781
4.11529e-05
5.06222e-05
5.91895e-05
6.43444e-05
6.93091e-05
9.90545e-05
4.35374e-05
5.00304e-05
5.50824e-05
5.91292e-05
6.59901e-05
8.83761e-05
5.53994e-05
6.43947e-05
7.1452e-05
7.58355e-05
8.01503e-05
8.63437e-05
4.26668e-05
5.17863e-05
6.1772e-05
7.10297e-05
8.09497e-05
9.6331e-05
3.22598e-05
4.14468e-05
5.30258e-05
6.54551e-05
7.96301e-05
0.000104793
2.30838e-05
3.19143e-05
4.46053e-05
6.00862e-05
7.80545e-05
0.000111308
1.677e-05
2.45165e-05
3.74028e-05
5.51181e-05
7.69208e-05
0.000115958
1.27125e-05
1.97217e-05
3.19908e-05
5.09917e-05
7.65235e-05
0.000118909
1.02141e-05
1.68117e-05
2.87423e-05
4.87778e-05
7.69919e-05
0.000119726
8.88934e-06
1.54803e-05
2.80159e-05
4.94022e-05
7.7181e-05
0.000118125
8.73395e-06
1.60629e-05
3.02878e-05
5.25763e-05
7.65247e-05
0.000114666
1.00688e-05
1.85252e-05
3.44218e-05
5.60252e-05
7.46755e-05
0.000109981
1.30699e-05
2.22743e-05
3.85825e-05
5.79257e-05
7.19326e-05
0.000104637
1.7386e-05
2.646e-05
4.15371e-05
5.80455e-05
7.01225e-05
9.87089e-05
2.22707e-05
3.07017e-05
4.35292e-05
5.70082e-05
6.95078e-05
9.14368e-05
2.66993e-05
3.4488e-05
4.50113e-05
5.56639e-05
6.83198e-05
8.16317e-05
9.50331e-05
7.60911e-05
7.09712e-05
6.83975e-05
6.68918e-05
6.47753e-05
0.00010699
8.27072e-05
7.98245e-05
7.79819e-05
7.5185e-05
7.08837e-05
0.000117577
9.18281e-05
8.90065e-05
8.59582e-05
7.93079e-05
7.01696e-05
0.000126827
0.000101606
9.59672e-05
8.82022e-05
7.45746e-05
5.96127e-05
0.000134408
0.000108935
9.59906e-05
8.02089e-05
6.00205e-05
4.25414e-05
0.000139323
0.000109588
8.58208e-05
6.32559e-05
4.18779e-05
2.6439e-05
0.000141365
0.00010201
6.94361e-05
4.53476e-05
2.72565e-05
1.55512e-05
0.000140707
8.97632e-05
5.4649e-05
3.31858e-05
1.91604e-05
1.02964e-05
0.000137584
7.79742e-05
4.54366e-05
2.77416e-05
1.67155e-05
9.30823e-06
0.000132554
6.97609e-05
4.17167e-05
2.77299e-05
1.88201e-05
1.17408e-05
0.000125917
6.57865e-05
4.23263e-05
3.15528e-05
2.48198e-05
1.83121e-05
0.000117945
6.46553e-05
4.5847e-05
3.76684e-05
3.30792e-05
2.83039e-05
0.000108403
6.47939e-05
5.09767e-05
4.4872e-05
4.16825e-05
3.8251e-05
9.71556e-05
6.44318e-05
5.55828e-05
5.17032e-05
4.99924e-05
4.73123e-05
8.99485e-05
7.19878e-05
6.55713e-05
6.25741e-05
5.96672e-05
5.55884e-05
0.000102476
7.88607e-05
7.37746e-05
7.00005e-05
6.37178e-05
5.67179e-05
0.000113025
8.74206e-05
8.19488e-05
7.44366e-05
6.23268e-05
5.10924e-05
0.00012202
9.70441e-05
8.69605e-05
7.24921e-05
5.39342e-05
3.98804e-05
0.000129024
0.000104773
8.43892e-05
6.2125e-05
4.05989e-05
2.69008e-05
0.000133281
0.00010553
7.27093e-05
4.67153e-05
2.72765e-05
1.61108e-05
0.000134402
9.78881e-05
5.74851e-05
3.28021e-05
1.76937e-05
9.31591e-06
0.000132794
8.6146e-05
4.54221e-05
2.43711e-05
1.28124e-05
6.32719e-06
0.000129045
7.48965e-05
3.88891e-05
2.14321e-05
1.18527e-05
6.08721e-06
0.000123573
6.68692e-05
3.72449e-05
2.27084e-05
1.40668e-05
7.9844e-06
0.000116946
6.26222e-05
3.91771e-05
2.72391e-05
1.95156e-05
1.29533e-05
0.000109473
6.19205e-05
4.34791e-05
3.41182e-05
2.76947e-05
2.14868e-05
0.00010064
6.30913e-05
4.93018e-05
4.21588e-05
3.69852e-05
3.1465e-05
9.03795e-05
6.39847e-05
5.50078e-05
5.04994e-05
4.70196e-05
4.20545e-05
8.14859e-05
6.92526e-05
6.0751e-05
5.31261e-05
4.46806e-05
3.7318e-05
9.38069e-05
7.4953e-05
6.39335e-05
5.30481e-05
4.1201e-05
3.272e-05
0.00010405
8.1178e-05
6.62439e-05
5.07976e-05
3.5327e-05
2.58572e-05
0.000112402
8.77371e-05
6.6021e-05
4.53273e-05
2.77374e-05
1.85072e-05
0.000119176
9.22526e-05
6.14522e-05
3.66918e-05
2.02033e-05
1.21688e-05
0.000123769
9.14174e-05
5.27627e-05
2.76434e-05
1.39606e-05
7.51215e-06
0.000125466
8.55155e-05
4.33254e-05
2.06621e-05
9.92166e-06
4.7594e-06
0.000124047
7.69024e-05
3.64769e-05
1.71183e-05
8.19561e-06
3.70194e-06
0.000120131
6.88422e-05
3.35021e-05
1.65155e-05
8.28851e-06
3.83474e-06
0.000114447
6.39314e-05
3.37972e-05
1.82861e-05
1.00524e-05
5.05203e-06
0.000107668
6.18598e-05
3.63907e-05
2.2098e-05
1.38144e-05
8.08138e-06
0.000100148
6.23814e-05
4.11506e-05
2.82607e-05
1.9904e-05
1.35175e-05
9.17957e-05
6.41256e-05
4.75172e-05
3.61042e-05
2.76369e-05
2.07612e-05
8.23726e-05
6.63498e-05
5.45214e-05
4.52921e-05
3.71057e-05
2.95422e-05
9.51888e-05
8.07195e-05
7.24769e-05
6.58863e-05
6.22938e-05
6.07628e-05
0.000106764
8.42109e-05
7.69813e-05
7.15355e-05
6.89032e-05
6.80298e-05
0.000116574
9.01646e-05
8.3393e-05
7.90627e-05
7.71624e-05
7.61662e-05
0.000124922
9.81883e-05
9.11215e-05
8.74856e-05
8.48041e-05
8.10208e-05
0.000131658
0.000106293
9.79974e-05
9.27615e-05
8.56158e-05
7.57821e-05
0.000136069
0.000111862
9.87621e-05
8.84029e-05
7.4591e-05
5.9612e-05
0.000137916
0.000111621
8.93378e-05
7.31324e-05
5.61367e-05
4.14718e-05
0.000137804
0.000105243
7.42866e-05
5.56259e-05
3.99888e-05
2.85364e-05
0.000135726
9.53575e-05
6.15688e-05
4.37566e-05
3.12658e-05
2.27292e-05
0.000131301
8.56358e-05
5.42454e-05
3.89371e-05
2.95931e-05
2.34347e-05
0.000125106
7.92201e-05
5.20995e-05
3.96493e-05
3.31495e-05
2.91224e-05
0.00011733
7.622e-05
5.43582e-05
4.45051e-05
4.03476e-05
3.83235e-05
0.000107847
7.49763e-05
5.94647e-05
5.21579e-05
4.92125e-05
4.7507e-05
9.6582e-05
7.34925e-05
6.44901e-05
6.00608e-05
5.84311e-05
5.70455e-05
9.11011e-05
7.55169e-05
6.84532e-05
6.37562e-05
6.11245e-05
5.90462e-05
0.000103488
7.9079e-05
7.36035e-05
7.01379e-05
6.74514e-05
6.50273e-05
0.000114183
8.53715e-05
8.08948e-05
7.78807e-05
7.37461e-05
6.86033e-05
0.00012289
9.38608e-05
8.94017e-05
8.48685e-05
7.63908e-05
6.65931e-05
0.000129113
0.000103503
9.57863e-05
8.6132e-05
7.09144e-05
5.66365e-05
0.00013244
0.000110705
9.41176e-05
7.72226e-05
5.72692e-05
4.20651e-05
0.000133114
0.000111073
8.21278e-05
6.07811e-05
4.14884e-05
2.87112e-05
0.000131266
0.000104214
6.67582e-05
4.52648e-05
2.9622e-05
1.99873e-05
0.000127859
9.41139e-05
5.5058e-05
3.57503e-05
2.38154e-05
1.65881e-05
0.000122899
8.33845e-05
4.91386e-05
3.2795e-05
2.35997e-05
1.78567e-05
0.000116427
7.48981e-05
4.74744e-05
3.44985e-05
2.75118e-05
2.28895e-05
0.000108968
7.05266e-05
4.94415e-05
3.96573e-05
3.46323e-05
3.11794e-05
0.00010024
6.92475e-05
5.42447e-05
4.70974e-05
4.33093e-05
4.03237e-05
9.03406e-05
6.86817e-05
5.9569e-05
5.52985e-05
5.32296e-05
5.06557e-05
8.32463e-05
7.39619e-05
7.07048e-05
6.78649e-05
6.25665e-05
5.57671e-05
9.63157e-05
7.82128e-05
7.55828e-05
7.0772e-05
6.19624e-05
5.34645e-05
0.000107599
8.45749e-05
8.09935e-05
7.31653e-05
5.98303e-05
4.79849e-05
0.000116027
9.24886e-05
8.57005e-05
7.27142e-05
5.44488e-05
4.08701e-05
0.000121384
9.95427e-05
8.62122e-05
6.69084e-05
4.59377e-05
3.21237e-05
0.000124264
0.000103231
7.9582e-05
5.59363e-05
3.58808e-05
2.3598e-05
0.000124715
0.00010061
6.72522e-05
4.33708e-05
2.67636e-05
1.69081e-05
0.000122753
9.31784e-05
5.53117e-05
3.36684e-05
2.06776e-05
1.31022e-05
0.000118461
8.40377e-05
4.77972e-05
2.86602e-05
1.81393e-05
1.20039e-05
0.000112522
7.57339e-05
4.46617e-05
2.7931e-05
1.8907e-05
1.3382e-05
0.000105506
6.90226e-05
4.44803e-05
3.02728e-05
2.20983e-05
1.67842e-05
9.77227e-05
6.56233e-05
4.6963e-05
3.54839e-05
2.79707e-05
2.25851e-05
8.93293e-05
6.5092e-05
5.15059e-05
4.2354e-05
3.54427e-05
2.9885e-05
8.04345e-05
6.60351e-05
5.74488e-05
5.1056e-05
4.52412e-05
3.93589e-05
1.38089e-05
1.03019e-05
7.78848e-06
6.0278e-06
5.19859e-06
4.77733e-06
4.77915e-06
5.21673e-06
6.47888e-06
8.78519e-06
1.22501e-05
1.70514e-05
2.39634e-05
3.35e-05
8.75948e-06
6.522e-06
4.80202e-06
3.61438e-06
3.05133e-06
2.75798e-06
2.72922e-06
3.00676e-06
3.93368e-06
5.81174e-06
8.8246e-06
1.31359e-05
1.90628e-05
2.65172e-05
5.24381e-06
3.7462e-06
2.64744e-06
1.94332e-06
1.61421e-06
1.44486e-06
1.43559e-06
1.65146e-06
2.36935e-06
3.88581e-06
6.39433e-06
9.9939e-06
1.48014e-05
2.07507e-05
2.97416e-06
1.90981e-06
1.26608e-06
9.09983e-07
7.50368e-07
6.71907e-07
6.89232e-07
8.74281e-07
1.43566e-06
2.62654e-06
4.64074e-06
7.57011e-06
1.1462e-05
1.63088e-05
1.62046e-06
8.65703e-07
5.20408e-07
3.66221e-07
3.01978e-07
2.76596e-07
3.1189e-07
4.73623e-07
9.15349e-07
1.84154e-06
3.44315e-06
5.83764e-06
9.08973e-06
1.3298e-05
9.0566e-07
3.71851e-07
1.89274e-07
1.27329e-07
1.05697e-07
1.05534e-07
1.48791e-07
2.92354e-07
6.53347e-07
1.39748e-06
2.70242e-06
4.71039e-06
7.52307e-06
1.12764e-05
5.93381e-07
1.84166e-07
6.98758e-08
4.04208e-08
3.44103e-08
4.44633e-08
9.11656e-08
2.25588e-07
5.44659e-07
1.18857e-06
2.3183e-06
4.08474e-06
6.61848e-06
1.01022e-05
5.12947e-07
1.38605e-07
3.88748e-08
1.61904e-08
1.4868e-08
2.93335e-08
7.96101e-08
2.14622e-07
5.21719e-07
1.1251e-06
2.16887e-06
3.79916e-06
6.15723e-06
9.45817e-06
5.63243e-07
1.56552e-07
4.53002e-08
1.91193e-08
1.80838e-08
3.57348e-08
9.22944e-08
2.37224e-07
5.54427e-07
1.1584e-06
2.17886e-06
3.75375e-06
6.034e-06
9.2866e-06
7.43854e-07
2.3107e-07
8.87091e-08
5.10632e-08
4.72605e-08
6.87145e-08
1.35869e-07
2.99589e-07
6.42224e-07
1.27117e-06
2.30405e-06
3.87257e-06
6.15006e-06
9.46345e-06
1.1729e-06
4.30009e-07
2.17691e-07
1.5259e-07
1.39131e-07
1.65324e-07
2.5073e-07
4.46898e-07
8.35177e-07
1.5208e-06
2.61917e-06
4.26534e-06
6.67573e-06
1.02242e-05
2.20445e-06
9.49566e-07
5.43147e-07
4.22352e-07
3.86156e-07
4.17117e-07
5.34655e-07
7.90945e-07
1.26869e-06
2.08036e-06
3.35031e-06
5.21868e-06
7.91218e-06
1.17727e-05
4.14989e-06
2.05628e-06
1.26842e-06
1.03847e-06
9.67893e-07
1.0067e-06
1.18045e-06
1.54729e-06
2.19841e-06
3.26642e-06
4.9056e-06
7.27725e-06
1.06197e-05
1.52104e-05
6.83306e-06
3.97174e-06
2.69158e-06
2.2625e-06
2.15316e-06
2.22201e-06
2.49192e-06
3.04204e-06
3.98797e-06
5.50041e-06
7.79363e-06
1.11386e-05
1.62064e-05
2.23716e-05
6.41254e-06
5.06377e-06
4.13386e-06
3.44802e-06
3.21406e-06
3.13265e-06
3.20164e-06
3.40054e-06
3.92063e-06
4.98347e-06
6.79062e-06
9.41693e-06
1.34069e-05
2.0017e-05
3.71856e-06
2.86717e-06
2.28435e-06
1.87815e-06
1.74486e-06
1.69396e-06
1.7271e-06
1.85081e-06
2.21834e-06
3.0519e-06
4.59869e-06
7.05125e-06
1.08031e-05
1.64846e-05
2.08722e-06
1.47489e-06
1.12288e-06
9.15618e-07
8.51385e-07
8.26135e-07
8.49461e-07
9.46872e-07
1.24015e-06
1.92408e-06
3.24274e-06
5.41676e-06
8.71384e-06
1.34634e-05
1.15118e-06
6.85897e-07
4.84776e-07
3.92148e-07
3.65608e-07
3.57193e-07
3.79706e-07
4.64078e-07
7.0582e-07
1.2649e-06
2.35811e-06
4.20531e-06
7.01177e-06
1.09963e-05
6.47516e-07
2.98627e-07
1.85694e-07
1.46584e-07
1.36692e-07
1.37282e-07
1.6047e-07
2.35843e-07
4.38298e-07
8.97227e-07
1.79809e-06
3.35044e-06
5.75106e-06
9.20769e-06
4.01561e-07
1.36284e-07
6.66301e-08
4.84401e-08
4.50879e-08
4.97079e-08
7.29978e-08
1.42235e-07
3.19316e-07
7.12506e-07
1.48092e-06
2.81669e-06
4.91363e-06
7.98067e-06
2.9837e-07
8.00462e-08
2.69004e-08
1.53183e-08
1.43891e-08
2.08123e-08
4.47385e-08
1.12752e-07
2.80892e-07
6.45484e-07
1.34633e-06
2.55654e-06
4.4634e-06
7.27551e-06
2.75507e-07
6.89372e-08
1.76282e-08
6.80895e-09
6.73845e-09
1.4526e-08
4.07193e-08
1.12889e-07
2.85808e-07
6.49671e-07
1.33031e-06
2.48199e-06
4.27546e-06
6.90925e-06
3.0252e-07
7.91001e-08
2.17241e-08
9.13998e-09
9.18052e-09
1.8742e-08
4.94345e-08
1.31011e-07
3.19573e-07
7.02589e-07
1.39601e-06
2.53761e-06
4.2819e-06
6.82516e-06
3.78264e-07
1.13244e-07
4.33869e-08
2.57984e-08
2.50364e-08
3.71793e-08
7.50884e-08
1.71103e-07
3.8333e-07
7.974e-07
1.52012e-06
2.67396e-06
4.40381e-06
6.91879e-06
5.40354e-07
2.06065e-07
1.11736e-07
8.12738e-08
7.63958e-08
9.20678e-08
1.41696e-07
2.59123e-07
5.03163e-07
9.57175e-07
1.71986e-06
2.9066e-06
4.67013e-06
7.24484e-06
9.23921e-07
4.4114e-07
2.9583e-07
2.38255e-07
2.20972e-07
2.39937e-07
3.08604e-07
4.59717e-07
7.50185e-07
1.26215e-06
2.09164e-06
3.34984e-06
5.19377e-06
7.88404e-06
1.7102e-06
9.56359e-07
7.1855e-07
6.19963e-07
5.79902e-07
6.02333e-07
7.02962e-07
9.13727e-07
1.28914e-06
1.91531e-06
2.895e-06
4.33438e-06
6.37419e-06
9.22251e-06
2.98048e-06
1.93501e-06
1.54507e-06
1.40608e-06
1.35134e-06
1.39219e-06
1.55345e-06
1.87736e-06
2.42638e-06
3.30411e-06
4.61597e-06
6.46224e-06
8.97098e-06
1.21557e-05
2.79293e-06
2.22914e-06
1.92481e-06
1.73915e-06
1.73572e-06
1.78199e-06
1.87874e-06
2.01567e-06
2.27359e-06
2.77326e-06
3.70189e-06
5.19365e-06
7.5323e-06
1.14613e-05
1.50916e-06
1.13319e-06
9.58046e-07
8.63973e-07
8.67611e-07
8.94286e-07
9.46198e-07
1.02618e-06
1.20102e-06
1.58245e-06
2.34929e-06
3.68853e-06
5.89545e-06
9.51144e-06
7.96919e-07
5.26418e-07
4.26436e-07
3.83537e-07
3.87795e-07
4.02226e-07
4.3106e-07
4.85429e-07
6.2024e-07
9.33545e-07
1.5851e-06
2.77414e-06
4.77044e-06
7.97279e-06
4.28643e-07
2.27866e-07
1.69274e-07
1.50223e-07
1.5252e-07
1.60177e-07
1.78221e-07
2.20099e-07
3.29038e-07
5.87445e-07
1.13423e-06
2.16155e-06
3.91314e-06
6.70269e-06
2.51364e-07
9.87724e-08
6.11076e-08
5.17587e-08
5.24551e-08
5.69829e-08
7.02578e-08
1.05486e-07
1.97432e-07
4.15392e-07
8.79442e-07
1.76592e-06
3.29878e-06
5.75798e-06
1.71771e-07
4.99327e-08
2.1928e-08
1.60896e-08
1.61598e-08
1.95394e-08
3.08219e-08
6.27297e-08
1.45786e-07
3.41267e-07
7.55118e-07
1.54504e-06
2.91328e-06
5.1162e-06
1.40256e-07
3.46345e-08
1.00213e-08
5.10229e-09
5.07958e-09
8.31228e-09
1.94303e-08
5.15186e-08
1.34366e-07
3.26054e-07
7.23238e-07
1.46708e-06
2.73898e-06
4.76847e-06
1.36939e-07
3.29198e-08
7.74435e-09
2.64729e-09
2.70693e-09
6.40018e-09
1.88659e-08
5.4451e-08
1.44278e-07
3.45876e-07
7.49554e-07
1.48231e-06
2.70514e-06
4.61632e-06
1.53624e-07
3.84671e-08
1.00348e-08
4.17333e-09
4.33298e-09
9.03715e-09
2.43911e-08
6.67606e-08
1.69829e-07
3.91972e-07
8.19413e-07
1.56739e-06
2.78005e-06
4.63311e-06
1.89891e-07
5.49711e-08
2.07177e-08
1.26114e-08
1.26226e-08
1.8982e-08
3.89459e-08
9.1192e-08
2.12232e-07
4.61726e-07
9.23347e-07
1.7025e-06
2.92958e-06
4.76632e-06
2.63114e-07
1.02858e-07
5.68464e-08
4.20835e-08
4.03278e-08
4.91229e-08
7.64054e-08
1.42589e-07
2.86508e-07
5.68864e-07
1.07093e-06
1.8907e-06
3.15096e-06
5.01137e-06
4.36879e-07
2.32925e-07
1.61314e-07
1.30432e-07
1.21958e-07
1.33446e-07
1.73061e-07
2.60897e-07
4.36025e-07
7.59622e-07
1.31124e-06
2.18411e-06
3.49814e-06
5.42178e-06
8.07251e-07
5.32143e-07
4.16654e-07
3.57234e-07
3.33799e-07
3.47851e-07
4.08318e-07
5.33488e-07
7.60093e-07
1.14968e-06
1.78166e-06
2.74868e-06
4.16506e-06
6.21341e-06
1.49412e-06
1.11541e-06
9.38044e-07
8.4896e-07
8.11203e-07
8.35394e-07
9.35039e-07
1.13005e-06
1.45645e-06
1.97651e-06
2.76324e-06
3.89716e-06
5.47537e-06
7.66593e-06
1.25254e-06
9.70929e-07
8.35932e-07
7.84789e-07
8.18299e-07
8.82295e-07
9.74131e-07
1.09033e-06
1.26947e-06
1.57683e-06
2.1195e-06
3.01125e-06
4.44028e-06
6.81716e-06
6.31379e-07
4.51142e-07
3.79086e-07
3.5687e-07
3.76367e-07
4.09312e-07
4.5515e-07
5.16351e-07
6.24415e-07
8.38896e-07
1.26196e-06
2.02418e-06
3.32784e-06
5.54383e-06
3.18055e-07
1.93397e-07
1.54228e-07
1.45036e-07
1.54436e-07
1.69725e-07
1.92023e-07
2.26889e-07
3.00052e-07
4.63419e-07
8.08672e-07
1.46703e-06
2.63467e-06
4.6308e-06
1.69954e-07
7.95778e-08
5.65161e-08
5.21904e-08
5.58621e-08
6.24327e-08
7.37901e-08
9.63027e-08
1.50376e-07
2.7904e-07
5.61573e-07
1.12205e-06
2.14698e-06
3.92044e-06
1.03675e-07
3.50329e-08
1.94093e-08
1.66961e-08
1.782e-08
2.07543e-08
2.75047e-08
4.42243e-08
8.75664e-08
1.93619e-07
4.31393e-07
9.15788e-07
1.82231e-06
3.41164e-06
7.50962e-08
1.96753e-08
7.22399e-09
4.95947e-09
5.20113e-09
6.88213e-09
1.19367e-08
2.62573e-08
6.476e-08
1.59944e-07
3.74409e-07
8.14211e-07
1.64019e-06
3.08609e-06
6.50051e-08
1.54863e-08
3.89676e-09
1.63912e-09
1.6591e-09
3.07833e-09
7.91413e-09
2.23326e-08
6.13526e-08
1.56916e-07
3.68669e-07
7.95311e-07
1.58268e-06
2.93679e-06
6.6621e-08
1.56893e-08
3.44005e-09
1.02116e-09
1.04032e-09
2.6489e-09
8.1995e-09
2.47094e-08
6.85542e-08
1.72919e-07
3.96186e-07
8.30421e-07
1.60725e-06
2.90544e-06
7.68038e-08
1.85584e-08
4.58186e-09
1.8417e-09
1.94191e-09
4.07211e-09
1.11965e-08
3.17082e-08
8.4223e-08
2.04195e-07
4.49769e-07
9.07468e-07
1.69782e-06
2.97936e-06
9.61285e-08
2.68056e-08
9.77425e-09
5.98411e-09
6.12045e-09
9.20132e-09
1.89736e-08
4.55552e-08
1.10205e-07
2.50981e-07
5.26584e-07
1.01947e-06
1.84299e-06
3.1425e-06
1.36925e-07
5.29144e-08
2.87177e-08
2.1292e-08
2.07406e-08
2.54696e-08
3.97472e-08
7.5282e-08
1.55864e-07
3.22107e-07
6.3407e-07
1.17247e-06
2.04613e-06
3.39201e-06
2.3951e-07
1.28821e-07
8.73516e-08
6.98796e-08
6.58596e-08
7.30242e-08
9.56655e-08
1.45963e-07
2.49317e-07
4.48822e-07
8.06801e-07
1.40449e-06
2.34863e-06
3.76939e-06
4.71466e-07
3.13732e-07
2.39205e-07
2.00962e-07
1.87662e-07
1.97967e-07
2.3614e-07
3.13645e-07
4.55643e-07
7.06974e-07
1.13244e-06
1.81512e-06
2.85936e-06
4.40043e-06
9.19415e-07
6.89858e-07
5.65936e-07
4.9972e-07
4.73714e-07
4.91014e-07
5.57893e-07
6.8643e-07
9.01062e-07
1.2449e-06
1.77789e-06
2.57637e-06
3.73859e-06
5.41883e-06
6.29828e-07
4.62771e-07
3.74131e-07
3.41305e-07
3.5385e-07
3.91237e-07
4.52592e-07
5.37391e-07
6.68401e-07
8.85713e-07
1.2556e-06
1.86033e-06
2.82455e-06
4.39682e-06
2.96482e-07
1.96852e-07
1.5437e-07
1.41409e-07
1.48564e-07
1.65934e-07
1.93593e-07
2.3403e-07
3.05237e-07
4.42903e-07
7.09957e-07
1.19371e-06
2.02646e-06
3.45247e-06
1.42194e-07
7.76641e-08
5.69908e-08
5.21474e-08
5.54166e-08
6.26441e-08
7.47225e-08
9.52102e-08
1.38212e-07
2.33541e-07
4.36166e-07
8.30078e-07
1.54477e-06
2.79901e-06
7.50025e-08
3.04336e-08
1.91382e-08
1.70503e-08
1.8226e-08
2.10293e-08
2.65321e-08
3.82293e-08
6.69118e-08
1.36266e-07
2.9228e-07
6.11804e-07
1.2181e-06
2.31179e-06
4.70268e-08
1.38397e-08
6.30431e-09
5.01511e-09
5.32907e-09
6.48718e-09
9.45185e-09
1.7294e-08
3.84715e-08
9.21365e-08