/*--------------------------------*- C++ -*----------------------------------*\
| =========                 |                                                 |
| \\      /  F ield         | OpenFOAM: The Open Source CFD Toolbox           |
|  \\    /   O peration     | Version:  v2106                                 |
|   \\  /    A nd           | Website:  www.openfoam.com                      |
|    \\/     M anipulation  |                                                 |
\*---------------------------------------------------------------------------*/
FoamFile
{
    version     2.0;
    format      ascii;
    arch        "LSB;label=32;scalar=64";
    class       volScalarField;
    location    "0.000188";
    object      p;
}
// * * * * * * * * * * * * * * * * * * * * * * * * * * * * * * * * * * * * * //

dimensions      [1 -1 -2 0 0 0 0];

internalField   nonuniform List<scalar> 
144746
(
197200
197166
196695
196509
196401
196276
196032
195823
195334
194878
194311
194076
193759
194445
196750
196849
196610
196568
196417
196270
196011
195739
195277
194790
194266
194017
193823
194523
197213
197074
196849
196727
196524
196350
196104
195800
195365
194848
194317
193942
193603
193915
197476
197241
197008
196856
196649
196463
196210
195876
195448
194938
194479
194077
193761
193866
197855
197517
197204
196974
196771
196584
196335
195998
195573
195090
194651
194241
193931
193952
198164
197764
197451
197166
196930
196710
196435
196078
195645
195182
194749
194368
194088
194074
198303
197926
197584
197261
196993
196748
196465
196111
195701
195286
194884
194548
194306
194160
198357
198031
197712
197379
197068
196783
196489
196141
195745
195323
194939
194555
194281
194203
198390
198059
197737
197412
197094
196814
196529
196195
195803
195379
194976
194594
194287
194161
198264
198003
197705
197377
197081
196824
196559
196231
195835
195403
194973
194547
194222
194092
198192
197928
197623
197285
197033
196817
196581
196261
195864
195433
194988
194517
194165
193965
198196
197797
197593
197269
197059
196874
196664
196339
195920
195467
195019
194585
194348
194110
198344
197683
197476
197230
197077
196964
196766
196440
196001
195495
194996
194524
194370
194030
198385
197397
197417
197234
197210
197039
196930
196577
196144
195676
195265
195070
195441
195174
197377
197313
197113
197016
197086
197000
196969
196792
196418
195959
195386
194988
194316
194517
197290
197384
197265
197213
197199
197113
197017
196790
196413
195927
195377
194963
194450
194610
197634
197590
197500
197429
197355
197250
197100
196835
196480
196009
195481
195021
194487
194351
197862
197807
197706
197584
197468
197341
197174
196907
196594
196156
195703
195259
194793
194526
198045
197948
197790
197687
197546
197424
197238
196975
196689
196294
195898
195482
195059
194806
198157
198052
197910
197763
197609
197446
197248
197002
196735
196412
196088
195769
195437
195233
198222
198108
197987
197827
197661
197460
197244
197001
196744
196458
196149
195871
195600
195371
198204
198132
198039
197855
197686
197460
197225
196978
196737
196475
196203
195966
195719
195552
198177
198112
198012
197857
197686
197452
197206
196950
196708
196434
196152
195908
195687
195530
198169
198109
198001
197844
197670
197436
197190
196909
196668
196352
196049
195777
195548
195410
198111
198063
197994
197858
197680
197442
197190
196880
196609
196250
195898
195552
195297
195157
198190
197996
197986
197803
197677
197447
197196
196871
196541
196162
195774
195427
195179
195023
198279
197939
197935
197799
197703
197499
197203
196873
196432
196000
195551
195158
194896
194567
198321
197815
197910
197816
197719
197536
197215
196931
196402
195937
195465
195201
195200
195094
199286
199126
198849
198587
198429
198228
198008
197672
197226
196660
195994
195294
194578
194273
199371
199328
199099
198826
198610
198352
198087
197723
197268
196712
196072
195432
194788
194408
199663
199604
199324
199030
198771
198448
198122
197714
197249
196700
196079
195425
194753
194252
199928
199812
199516
199223
198901
198537
198167
197726
197245
196679
196086
195468
194844
194289
200156
199971
199690
199364
199006
198605
198197
197724
197235
196681
196156
195578
195002
194480
200310
200101
199819
199468
199097
198666
198230
197738
197252
196704
196231
195679
195179
194737
200359
200183
199918
199557
199175
198728
198277
197782
197313
196783
196371
195858
195394
194957
200377
200229
199971
199610
199226
198768
198304
197815
197353
196840
196452
195982
195577
195193
200356
200234
199997
199657
199267
198814
198343
197859
197394
196911
196514
196072
195676
195295
200371
200247
200021
199692
199300
198858
198379
197892
197412
196957
196542
196110
195692
195297
200344
200246
200048
199727
199329
198904
198419
197919
197417
196965
196526
196079
195632
195187
200472
200233
200047
199743
199352
198927
198436
197921
197396
196929
196494
196075
195648
195137
200632
200335
200190
199858
199437
198983
198481
197945
197385
196865
196339
195855
195463
194859
200688
200319
200227
199916
199539
199068
198540
197959
197376
196821
196290
195932
195640
195302
195975
197340
197766
198935
199634
201118
193982
195362
196245
198063
198935
201296
193892
195292
196018
197840
198527
201548
193801
194833
195493
197360
198116
201286
193939
194792
195492
197409
198119
201453
194111
194730
195379
197277
197994
201249
194150
194833
195587
197404
198212
201177
194249
194867
195620
197254
198324
200984
194234
194884
195707
197308
198397
201023
194228
194905
195726
197233
198407
201190
194270
194931
195924
197555
198666
201282
194440
195185
196197
197791
198940
201145
195024
195751
196698
198264
199286
201266
194838
195630
196977
198839
199779
201544
195472
196493
196491
197246
197471
198791
193682
194566
194960
196475
196637
199003
193962
194639
194991
196520
196334
199345
194198
194590
194943
196227
196223
199116
194580
194858
195214
196412
196506
199231
195035
195181
195376
196400
196608
199017
195219
195457
195729
196711
196830
199133
195426
195635
195853
196778
196867
199175
195419
195652
195869
196781
196860
199071
195340
195521
195706
196537
196490
198869
195176
195288
195491
196444
196358
198879
194970
194952
195164
196206
196271
198558
194795
194920
195172
196229
196462
198412
193812
193908
194541
196135
196766
198511
195138
196143
196030
196102
196593
197195
193266
193575
193889
194810
195435
197367
193462
193474
193712
194700
195134
197748
193623
193342
193466
194437
194834
197483
193953
193586
193641
194615
195037
197471
194317
194001
193890
194713
195038
197067
194543
194343
194281
195072
195179
197205
194832
194672
194545
195208
195274
197453
194983
194791
194740
195388
195499
197712
195001
194779
194779
195337
195413
197884
194925
194687
194772
195254
195480
198281
194867
194580
194605
195083
195448
197888
194764
194471
194539
195168
195778
197797
193617
193371
193516
194550
195721
197647
196545
197949
198322
199416
200053
201533
194555
196007
196747
198589
199309
201684
194933
196241
196752
198542
198985
202006
195212
196133
196604
198269
198669
201985
195777
196450
197006
198590
198836
202389
196276
196782
197268
198671
198996
202304
196757
197258
197641
199034
199432
202503
197075
197461
197924
199264
199680
202279
197229
197729
198220
199535
199978
202491
197331
197826
198346
199531
200036
202604
197426
197935
198527
199714
200393
202725
197601
197983
198570
199771
200585
202613
197924
198469
199024
200070
200774
202726
197565
198146
199033
200550
201291
201957
195670
196599
196541
197155
197267
198622
194152
194928
195120
196463
196633
199001
194729
195200
195340
196708
196684
199580
195148
195365
195484
196717
196726
199783
195809
195926
196158
197349
197286
200423
196354
196477
196703
197706
197818
200511
197015
197194
197369
198328
198470
200871
197286
197586
197839
198798
198885
200820
197708
198045
198267
199187
199139
201247
197852
198160
198400
199307
199154
201358
197914
198221
198455
199261
199186
201503
197944
198124
198214
198883
198995
201613
198088
198294
198443
199131
199371
200758
197332
197447
197796
198918
199433
200189
195969
196487
196470
196723
196924
198223
194751
194957
194975
195691
196020
198255
195413
195364
195314
196056
196266
198736
195960
195807
195742
196445
196546
198903
196684
196544
196586
197292
197418
199843
197399
197324
197416
198059
198281
200277
198021
198156
198314
198934
199213
201268
198667
198850
199091
199863
200141
201950
199256
199612
199842
200624
200768
202676
199733
200147
200367
201183
201332
203154
200170
200513
200773
201557
201748
203749
200500
200664
200795
201367
201770
203909
200688
200854
201001
201500
201685
202957
199872
199988
200138
200706
201140
201906
202476
200912
199904
198576
197496
197025
202646
200820
199962
198955
198025
197611
203029
200752
199754
198669
197993
197647
203271
200773
200131
199031
198326
197921
203007
200788
200234
199173
198618
198239
203031
200845
200379
199374
198934
198512
202992
200881
200480
199463
199120
198649
203375
200811
200459
199390
199024
198605
203382
200522
200332
199444
199082
198698
203532
200620
200426
199299
198886
198488
203243
200442
200299
199112
198767
198301
202986
200766
200497
199190
198849
198110
202802
200964
200560
199214
198755
197653
202689
201623
201244
200512
200394
199195
200127
199340
198451
197368
196614
196656
200402
199524
198880
198215
197731
197637
201255
198770
198470
198005
197780
197742
201106
199096
198935
198300
198048
197966
200593
199297
199031
198388
198219
198120
200656
199561
199118
198477
198390
198262
200553
199449
199087
198526
198482
198330
200790
199356
199005
198422
198329
198269
200493
199076
198859
198401
198377
198274
200791
198795
198692
198172
198147
198154
200803
198363
198417
197993
198009
198019
200404
198852
198718
198075
198026
197960
200303
198991
198860
198125
198030
197677
200608
199870
199819
199528
199579
199025
198906
199194
198687
198417
198294
198536
199742
199800
199613
199624
199528
199667
199852
199875
199762
199738
199661
199809
199567
199769
199784
199979
199933
200127
198672
199530
199569
200049
200073
200274
197945
199326
199477
200159
200274
200390
197443
199120
199332
200137
200355
200447
197283
199029
199314
200080
200328
200464
197524
199197
199413
200064
200259
200405
198563
199603
199668
200116
200309
200412
199326
200048
199943
200115
200233
200313
200426
200572
200342
200281
200357
200305
201332
200925
200587
200319
200382
200189
202067
201672
201686
201528
201660
201265
201137
199688
198651
196992
195651
194839
200902
199138
198045
196707
195683
195000
201040
198849
197796
196383
195274
194690
201244
198724
197687
196406
195467
194840
201216
198826
197827
196563
195759
195193
201444
198880
198046
196782
196089
195546
201505
198733
198190
196941
196445
195950
201938
199014
198474
197081
196625
196114
202157
198849
198410
197107
196790
196359
202200
199234
198774
197401
196977
196442
202243
199308
199063
197555
197131
196455
202248
199744
199455
197973
197493
196522
202057
200221
199694
198189
197533
196347
202220
201004
200454
199612
199468
198430
198745
197418
196746
195165
194240
194035
198957
197062
196627
195705
195140
194927
199304
197031
196571
195726
195301
195208
199712
197319
197012
196296
195869
195647
199874
197579
197352
196682
196306
196106
199580
197790
197728
197052
196763
196531
199976
198303
198015
197235
197073
196871
200083
198350
198089
197301
197136
196973
200358
198343
198037
197151
197015
196914
199971
198525
198200
197162
196976
196973
200110
198245
197980
196918
196764
196759
200700
198025
198019
197116
196884
196708
200119
198743
198295
197254
196893
196438
200119
199492
199282
198825
198827
198157
196826
195829
194399
193390
192714
193238
197155
196159
195422
194910
194623
194933
197106
195859
195498
195194
195034
195324
197152
196508
196091
195892
195736
196018
196540
196813
196364
196449
196312
196608
195964
197124
196793
197115
196967
197225
196064
197048
196985
197481
197435
197643
196380
197236
197225
197717
197796
197951
196755
197519
197446
197787
197939
198113
197570
197904
197762
197918
198071
198253
198200
198311
198130
198035
198158
198359
198662
199232
198871
198593
198470
198507
199152
199545
199111
198846
198660
198506
199390
199943
199999
200392
200421
199896
202816
202368
201729
201064
200605
200102
199643
199161
198664
198104
197475
196790
196230
195816
202588
202103
201499
200964
200480
199968
199495
198998
198475
197911
197320
196753
196199
195675
202295
201888
201349
200869
200368
199852
199361
198852
198324
197775
197238
196687
196077
195496
202129
201777
201295
200821
200314
199786
199276
198746
198209
197653
197139
196578
196024
195390
202066
201719
201253
200780
200272
199741
199218
198675
198144
197592
197080
196510
195986
195416
202041
201669
201215
200736
200234
199706
199180
198634
198099
197555
197043
196490
195976
195432
202017
201623
201184
200707
200215
199694
199166
198616
198073
197533
197013
196478
195991
195499
202007
201603
201170
200691
200203
199685
199156
198608
198059
197517
196977
196456
195966
195482
202007
201591
201158
200684
200199
199684
199153
198603
198042
197499
196953
196442
195937
195454
202030
201602
201170
200704
200212
199696
199158
198599
198025
197469
196899
196399
195868
195385
202083
201655
201210
200742
200234
199713
199161
198586
198003
197425
196846
196348
195799
195290
202214
201725
201249
200786
200274
199744
199179
198593
197993
197379
196818
196279
195751
195213
202454
201884
201357
200869
200337
199790
199217
198637
198030
197427
196873
196282
195757
195044
202547
201940
201395
200883
200324
199763
199193
198637
198050
197507
197013
196550
196154
195483
204565
203922
203302
202569
201958
201331
200772
200241
199703
199149
198561
197901
197287
196764
204244
203708
203049
202359
201714
201066
200470
199909
199348
198796
198245
197663
197073
196552
203937
203419
202800
202138
201493
200848
200242
199674
199124
198574
198033
197463
196873
196417
203712
203193
202604
201961
201320
200675
200060
199475
198924
198377
197850
197298
196705
196228
203560
203024
202440
201808
201181
200547
199938
199348
198794
198241
197711
197174
196600
196114
203431
202881
202308
201693
201084
200467
199864
199266
198700
198134
197590
197047
196491
195991
203331
202773
202208
201608
201017
200415
199819
199219
198639
198054
197492
196938
196397
195895
203264
202699
202141
201551
200970
200377
199782
199177
198583
197981
197402
196831
196284
195777
203225
202661
202106
201523
200945
200354
199755
199140
198526
197908
197313
196725
196187
195680
203221
202658
202098
201518
200931
200334
199728
199104
198481
197855
197254
196646
196115
195592
203261
202692
202118
201534
200937
200336
199721
199088
198458
197823
197207
196610
196049
195524
203321
202721
202132
201552
200950
200342
199724
199092
198455
197822
197203
196631
196058
195500
203459
202828
202192
201588
200971
200355
199739
199114
198479
197848
197234
196647
196082
195393
203504
202803
202120
201512
200917
200329
199747
199155
198554
197962
197401
196867
196370
195613
206326
205738
205016
204250
203510
202789
202116
201489
200908
200348
199822
199263
198728
198160
205948
205310
204608
203868
203103
202359
201655
201002
200401
199833
199323
198831
198352
197802
205547
204916
204218
203482
202731
201995
201297
200648
200057
199509
199010
198520
198017
197478
205246
204601
203912
203186
202447
201714
201018
200369
199781
199237
198739
198254
197750
197216
204990
204339
203656
202942
202223
201507
200821
200173
199576
199023
198511
198016
197505
197003
204780
204115
203439
202741
202047
201353
200682
200035
199423
198848
198307
197787
197253
196747
204605
203932
203266
202586
201914
201240
200581
199933
199301
198701
198126
197580
197035
196524
204457
203784
203127
202462
201807
201146
200493
199842
199193
198568
197958
197382
196829
196303
204359
203688
203033
202377
201729
201072
200417
199758
199091
198447
197808
197208
196640
196110
204287
203621
202964
202316
201669
201010
200349
199682
199008
198351
197702
197080
196488
195951
204253
203598
202937
202279
201619
200952
200287
199617
198943
198284
197633
196992
196391
195823
204226
203560
202888
202236
201577
200916
200259
199590
198918
198252
197591
196944
196354
195761
204257
203577
202889
202220
201547
200880
200229
199574
198916
198262
197607
196997
196382
195719
204209
203426
202720
202071
201432
200807
200198
199588
198968
198351
197759
197203
196650
195918
207566
206928
206187
205429
204662
203911
203185
202508
201881
201309
200803
200301
199838
199273
207119
206497
205760
204985
204195
203410
202657
201960
201325
200755
200259
199798
199351
198848
206699
206035
205290
204522
203739
202959
202213
201530
200916
200371
199890
199445
199002
198506
206331
205654
204918
204155
203378
202599
201857
201181
200576
200043
199566
199120
198682
198194
206001
205307
204578
203829
203071
202310
201585
200921
200318
199775
199288
198831
198388
197909
205732
205030
204306
203564
202823
202083
201375
200716
200107
199545
199033
198555
198083
197583
205496
204785
204073
203346
202625
201905
201210
200549
199926
199339
198796
198286
197781
197266
205292
204582
203881
203170
202467
201763
201075
200406
199765
199149
198569
198018
197491
196950
205141
204432
203736
203032
202336
201636
200948
200269
199612
198972
198359
197766
197219
196657
205008
204309
203619
202922
202229
201534
200844
200157
199482
198822
198185
197562
196996
196422
204914
204225
203533
202835
202139
201443
200749
200057
199375
198706
198055
197422
196835
196234
204795
204103
203416
202732
202040
201356
200677
199996
199322
198650
197989
197353
196759
196122
204725
204036
203339
202652
201961
201283
200616
199947
199285
198621
197952
197347
196728
196049
204555
203776
203084
202442
201806
201178
200563
199935
199307
198680
198063
197466
196839
196104
208587
207942
207203
206461
205705
204951
204212
203507
202856
202270
201754
201254
200826
200312
208062
207451
206712
205959
205184
204397
203621
202900
202249
201673
201173
200712
200305
199817
207599
206931
206183
205427
204654
203876
203119
202416
201786
201234
200752
200313
199916
199478
207157
206480
205741
204994
204224
203446
202694
202003
201390
200854
200386
199947
199550
199117
206762
206067
205332
204595
203842
203082
202352
201677
201074
200537
200067
199629
199219
198790
206413
205723
205006
204275
203534
202788
202074
201410
200808
200264
199782
199335
198909
198453
206145
205445
204738
204013
203285
202554
201852
201189
200577
200019
199515
199049
198600
198121
205925
205218
204517
203798
203081
202362
201666
200999
200372
199792
199259
198761
198283
197773
205754
205039
204339
203619
202907
202194
201497
200823
200181
199578
199013
198476
197966
197439
205591
204876
204177
203456
202748
202039
201343
200666
200012
199389
198794
198227
197677
197141
205444
204725
204020
203300
202596
201895
201202
200523
199862
199225
198608
198018
197427
196864
205248
204527
203830
203126
202435
201755
201082
200415
199756
199109
198473
197879
197260
196648
205073
204364
203663
202971
202295
201632
200974
200318
199668
199022
198372
197772
197134
196491
204753
204018
203371
202736
202111
201495
200884
200258
199632
199000
198394
197771
197110
196422
209346
208722
208020
207330
206623
205898
205175
204472
203806
203198
202652
202150
201730
201239
208742
208159
207454
206759
206042
205304
204567
203850
203183
202586
202070
201586
201177
200732
208223
207582
206870
206173
205463
204739
204027
203349
202713
202137
201632
201162
200764
200365
207706
207055
206356
205669
204966
204250
203550
202888
202272
201720
201232
200779
200375
199988
207257
206593
205901
205219
204527
203830
203152
202510
201909
201364
200883
200447
200047
199670
206894
206222
205535
204852
204168
203482
202816
202181
201587
201051
200575
200143
199736
199354
206629
205943
205264
204575
203888
203201
202536
201903
201310
200775
200296
199860
199441
199040
206426
205730
205048
204346
203654
202965
202300
201666
201071
200528
200037
199579
199136
198704
206243
205530
204846
204135
203441
202751
202086
201451
200852
200298
199785
199297
198819
198357
206040
205319
204636
203926
203240
202558
201899
201265
200662
200089
199546
199029
198496
198000
205811
205085
204404
203704
203031
202363
201715
201083
200476
199892
199322
198778
198192
197651
205511
204803
204144
203469
202820
202178
201553
200931
200323
199724
199127
198560
197945
197359
205215
204529
203884
203244
202624
202007
201391
200773
200162
199559
198943
198361
197733
197102
204754
204132
203563
202994
202422
201843
201253
200653
200048
199447
198842
198253
197599
196899
209902
209302
208652
208041
207426
206794
206149
205490
204839
204221
203655
203122
202684
202166
209246
208698
208045
207429
206813
206184
205542
204885
204230
203615
203067
202568
202133
201655
208667
208068
207422
206820
206221
205612
204995
204376
203757
203170
202631
202145
201701
201282
208125
207510
206875
206280
205690
205093
204489
203883
203282
202721
202211
201746
201316
200923
207662
207032
206405
205812
205228
204642
204054
203464
202882
202339
201846
201399
200987
200612
207306
206661
206035
205431
204840
204251
203666
203082
202514
201995
201520
201087
200681
200301
207057
206394
205765
205143
204537
203933
203339
202759
202202
201700
201234
200807
200400
200009
206858
206181
205543
204901
204276
203655
203055
202479
201935
201440
200978
200544
200120
199707
206649
205955
205315
204660
204030
203405
202804
202231
201693
201194
200719
200259
199806
199381
206388
205689
205055
204403
203784
203171
202582
202017
201480
200969
200474
199995
199488
199017
206069
205377
204761
204131
203535
202944
202370
201808
201266
200739
200214
199701
199135
198634
205678
205024
204443
203848
203284
202720
202169
201615
201069
200526
199972
199436
198840
198293
205279
204666
204127
203576
203046
202501
201955
201397
200840
200284
199707
199139
198510
197914
204782
204266
203797
203299
202802
202279
201740
201191
200636
200082
199503
198910
198265
197581
210297
209751
209191
208693
208204
207704
207183
206621
206025
205414
204824
204253
203751
203191
209669
209174
208596
208077
207581
207087
206579
206026
205427
204815
204235
203701
203215
202712
209099
208551
207978
207470
206987
206509
206020
205494
204931
204352
203792
203275
202785
202350
208592
208013
207440
206928
206449
205974
205486
204966
204417
203870
203347
202863
202406
201995
208154
207554
206982
206466
205980
205501
205011
204496
203963
203445
202949
202497
202072
201687
207816
207200
206623
206088
205579
205076
204569
204054
203536
203052
202588
202164
201760
201380
207557
206928
206342
205786
205252
204724
204202
203687
203181
202718
202276
201866
201468
201088
207313
206678
206088
205512
204959
204413
203879
203367
202877
202423
201995
201582
201175
200778
207033
206398
205818
205238
204682
204133
203600
203092
202608
202149
201710
201274
200844
200450
206689
206069
205510
204944
204408
203875
203358
202857
202369
201898
201434
200977
200496
200065
206290
205697
205174
204640
204134
203624
203121
202624
202132
201644
201145
200649
200113
199656
205838
205298
204818
204327
203857
203378
202901
202404
201895
201380
200845
200313
199730
199234
205395
204890
204459
204014
203575
203108
202626
202132
201618
201093
200533
199964
199339
198796
204857
204442
204076
203682
203266
202816
202337
201849
201336
200816
200253
199680
199044
198369
210687
210219
209762
209366
208986
208611
208227
207794
207313
206773
206204
205618
205075
204439
210148
209709
209213
208792
208401
208024
207642
207211
206720
206174
205604
205050
204543
203970
209659
209160
208664
208236
207842
207465
207083
206662
206195
205683
205142
204614
204094
203601
209235
208692
208176
207726
207319
206926
206531
206103
205644
205157
204653
204170
203693
203244
208826
208264
207739
207272
206846
206432
206020
205592
205144
204691
204220
203774
203333
202919
208466
207900
207370
206884
206427
205983
205546
205107
204667
204243
203807
203398
202987
202590
208131
207575
207043
206545
206065
205597
205140
204694
204261
203853
203442
203053
202661
202280
207795
207255
206738
206237
205746
205263
204792
204337
203903
203499
203096
202713
202322
201941
207436
206916
206428
205935
205453
204970
204494
204033
203589
203169
202752
202344
201937
201565
207040
206547
206091
205625
205168
204701
204232
203770
203304
202852
202403
201975
201532
201136
206611
206158
205739
205311
204885
204444
203990
203518
203029
202549
202055
201580
201079
200675
206149
205745
205371
204982
204593
204169
203721
203246
202736
202229
201694
201173
200626
200179
205693
205320
204994
204643
204275
203857
203410
202931
202408
201883
201322
200761
200151
199657
205103
204823
204562
204253
203904
203509
203067
202592
202062
201523
200936
200356
199765
199155
203939
205027
205913
206774
208177
210013
202532
203251
203795
204948
207063
209275
202002
202710
203390
204604
206679
208928
201267
201872
202474
203585
205681
208123
200833
201291
201800
202718
204644
207249
200303
200625
200991
201691
203365
205873
199838
200062
200304
200755
202324
204440
199355
199507
199678
199849
201370
202996
198845
198916
199176
199170
200636
201771
198242
198147
198516
198599
200078
200709
197642
197415
197898
198134
199825
200434
196955
196656
197064
197407
199083
199938
196575
196117
196417
196957
198697
199973
194836
194096
194502
195540
197537
199118
205559
206695
207659
208675
209562
210954
204334
205178
205792
206967
208452
210330
203815
204673
205483
206645
208072
210034
203022
203745
204523
205676
207169
209217
202453
203130
203896
204984
206493
208542
201794
202385
203102
204080
205541
207273
201217
201732
202379
203168
204458
205779
200644
201091
201669
202296
203302
204312
200074
200457
201002
201457
202327
203126
199495
199762
200250
200619
201405
202094
198905
198988
199509
199847
200715
201522
198220
198072
198553
198840
199737
200865
197697
197328
197624
197859
198890
200102
196152
195470
195616
196019
197300
198811
207265
208326
209448
210532
211370
212395
206320
207272
208312
209439
210621
212063
205823
206834
207880
208952
210098
211605
204922
205932
206886
207987
209244
210907
204149
205151
206071
207245
208576
210287
203387
204307
205188
206323
207658
209315
202694
203508
204338
205351
206572
207937
202050
202746
203504
204346
205332
206274
201429
202010
202691
203338
204107
204772
200809
201279
201882
202382
203056
203553
200244
200574
201136
201553
202240
202757
199657
199811
200313
200640
201354
202036
199219
199061
199457
199648
200352
201248
197957
197531
197725
197912
198737
199815
208380
209170
209914
210881
211659
212445
207673
208600
209427
210490
211448
212536
207053
208050
209006
210111
211124
212291
206240
207256
208254
209378
210463
211765
205443
206450
207438
208550
209720
211082
204647
205606
206548
207617
208811
210127
203873
204773
205653
206638
207688
208899
203142
203974
204757
205612
206501
207409
202442
203194
203864
204596
205199
205782
201813
202452
203006
203539
203942
204371
201256
201730
202184
202555
202945
203293
200702
200950
201305
201526
201950
202318
200253
200200
200505
200639
201107
201519
199283
198999
199097
199120
199538
200047
209128
209789
210400
211079
211704
212384
208580
209377
210103
210952
211831
212760
207955
208851
209734
210716
211744
212768
207238
208194
209156
210236
211336
212442
206495
207482
208480
209581
210688
211859
205729
206702
207682
208743
209833
211042
204965
205882
206832
207822
208865
209983
204213
205052
205934
206812
207696
208734
203486
204231
204994
205710
206454
207089
202817
203462
204072
204660
205081
205461
202221
202718
203217
203572
203848
204106
201661
202010
202325
202497
202712
202891
201213
201301
201485
201561
201814
202053
200502
200303
200340
200303
200550
200874
209805
210368
210823
211250
211651
212103
209287
209989
210603
211235
211867
212589
208717
209515
210287
211104
211958
212885
208079
208960
209849
210810
211834
212886
207398
208334
209288
210320
211415
212534
206674
207624
208581
209604
210664
211801
205927
206844
207772
208749
209759
210928
205177
206011
206877
207758
208672
209743
204440
205172
205943
206689
207461
208302
203743
204360
205009
205628
206223
206676
203113
203635
204126
204580
204913
205185
202575
202898
203260
203478
203631
203764
202061
202225
202431
202448
202588
202674
201488
201408
201393
201255
201324
201460
210392
210942
211354
211718
211961
212172
209892
210546
211080
211545
211929
212364
209353
210100
210783
211425
212052
212757
208786
209610
210423
211248
212096
213003
208182
209059
209950
210894
211908
212973
207542
208429
209339
210309
211366
212483
206870
207723
208609
209562
210629
211788
206163
206944
207778
208671
209643
210722
205446
206135
206882
207701
208526
209505
204745
205340
205972
206646
207301
208086
204107
204585
205128
205645
206094
206472
203523
203868
204215
204536
204732
204917
203041
203205
203397
203475
203591
203641
202429
202407
202374
202197
202202
202190
210796
211326
211769
212162
212413
212538
210359
210973
211488
211931
212234
212477
209868
210577
211207
211767
212198
212668
209405
210184
210921
211614
212254
212981
208924
209749
210566
211383
212221
213140
208415
209242
210072
210930
211892
212954
207868
208662
209461
210326
211353
212491
207260
207982
208726
209541
210464
211512
206602
207222
207884
208629
209459
210456
205911
206440
207009
207653
208324
209203
205247
205675
206149
206680
207217
207830
204613
204926
205276
205606
205899
206161
204095
204282
204447
204562
204704
204767
203462
203428
203426
203310
203268
203230
211151
211638
212080
212484
212674
212737
210800
211377
211861
212262
212499
212642
210368
211042
211632
212127
212447
212740
210002
210732
211404
212012
212496
213022
209633
210390
211114
211813
212512
213295
209262
210013
210761
211518
212440
213374
208870
209600
210336
211186
212249
213318
208406
209081
209773
210590
211546
212565
207874
208463
209063
209776
210603
211551
207262
207757
208255
208859
209508
210332
206614
207004
207390
207867
208355
209051
205955
206226
206502
206833
207106
207420
205376
205544
205648
205716
205782
205860
204669
204620
204597
204432
204390
204295
196610
197454
197466
197488
198367
199185
194891
195007
195142
195649
197147
198209
194777
194623
194659
195134
196705
197585
194720
194295
194179
194524
196046
196602
194843
194268
194047
194139
195486
195739
194876
194300
194020
193755
194717
194258
194967
194399
194095
193647