/*--------------------------------*- C++ -*----------------------------------*\
| =========                 |                                                 |
| \\      /  F ield         | OpenFOAM: The Open Source CFD Toolbox           |
|  \\    /   O peration     | Version:  v2106                                 |
|   \\  /    A nd           | Website:  www.openfoam.com                      |
|    \\/     M anipulation  |                                                 |
\*---------------------------------------------------------------------------*/
FoamFile
{
    version     2.0;
    format      ascii;
    arch        "LSB;label=32;scalar=64";
    class       volVectorField;
    location    "0.000136";
    object      U;
}
// * * * * * * * * * * * * * * * * * * * * * * * * * * * * * * * * * * * * * //

dimensions      [0 1 -1 0 0 0 0];

internalField   nonuniform List<vector> 
18259
(
(0.000394491 0.000745873 -0.0896142)
(0.000281508 0.000747095 -0.0896019)
(0.000169249 0.000745569 -0.0895941)
(5.54755e-05 0.000744396 -0.0895915)
(-5.53154e-05 0.000744516 -0.0895911)
(-0.000169151 0.00074557 -0.0895929)
(-0.000281665 0.000746982 -0.0896)
(-0.000395 0.000745601 -0.0896119)
(-0.000508641 0.000750125 -0.0896318)
(-0.000622636 0.000729378 -0.0896518)
(-0.00074107 0.000742563 -0.0896597)
(0.00061665 0.00062186 -0.0896423)
(0.000509728 0.000638045 -0.0896198)
(0.000401417 0.000636182 -0.089597)
(0.000289176 0.000638509 -0.0895804)
(0.000174947 0.000639172 -0.0895657)
(5.7135e-05 0.000639419 -0.0895599)
(-5.67843e-05 0.000639731 -0.0895595)
(-0.000174712 0.000639486 -0.0895647)
(-0.000289375 0.000638922 -0.089579)
(-0.000402153 0.000636509 -0.0895955)
(-0.000511027 0.000638072 -0.0896183)
(-0.000618241 0.000621404 -0.089641)
(-0.000727888 0.0006257 -0.0896527)
(0.000747298 0.000513029 -0.0896338)
(0.000632772 0.000515328 -0.0896202)
(0.000523156 0.000528692 -0.0895892)
(0.000410471 0.000528164 -0.0895667)
(0.00029514 0.000530988 -0.0895485)
(0.000178136 0.000531756 -0.0895344)
(5.78828e-05 0.00053225 -0.0895286)
(-5.71361e-05 0.000532651 -0.0895284)
(-0.000177629 0.000532404 -0.0895338)
(-0.000295227 0.000531955 -0.0895477)
(-0.000411343 0.000529201 -0.0895659)
(-0.000524893 0.000529501 -0.0895886)
(-0.000635119 0.000515571 -0.08962)
(-0.000749606 0.000512704 -0.0896343)
(0.000742196 0.000398966 -0.0896143)
(0.00063067 0.000406071 -0.0895981)
(0.000522471 0.000414785 -0.0895675)
(0.00041091 0.000415123 -0.0895444)
(0.000296162 0.000417585 -0.0895255)
(0.000179176 0.000418604 -0.0895105)
(5.82442e-05 0.000419243 -0.0895042)
(-5.67955e-05 0.000419774 -0.089504)
(-0.000178163 0.000419673 -0.0895102)
(-0.000295974 0.000419181 -0.089525)
(-0.000411818 0.000416965 -0.0895441)
(-0.000524597 0.000416454 -0.0895674)
(-0.00063371 0.000407141 -0.0895986)
(-0.000745541 0.000399244 -0.0896156)
(0.00074298 0.000284126 -0.0896032)
(0.000632521 0.000291694 -0.0895826)
(0.000524866 0.000297032 -0.0895506)
(0.000413125 0.000297666 -0.0895268)
(0.000298197 0.000299648 -0.0895064)
(0.000180682 0.00030062 -0.089491)
(5.89434e-05 0.00030124 -0.0894841)
(-5.65229e-05 0.000301887 -0.0894839)
(-0.000178906 0.000302038 -0.0894907)
(-0.000297557 0.000301748 -0.0895062)
(-0.000413994 0.000300155 -0.0895267)
(-0.000527378 0.000299407 -0.0895509)
(-0.000636306 0.000293519 -0.0895836)
(-0.00074742 0.000285072 -0.0896051)
(0.000741079 0.000169281 -0.0895968)
(0.000632587 0.000174353 -0.0895695)
(0.000525007 0.000176618 -0.0895384)
(0.000413595 0.000176903 -0.089514)
(0.00029886 0.000177988 -0.089493)
(0.000181387 0.000178706 -0.089477)
(5.95009e-05 0.000179183 -0.0894698)
(-5.60976e-05 0.000179973 -0.0894694)
(-0.000178807 0.000180534 -0.0894764)
(-0.000297747 0.000180672 -0.0894923)
(-0.000414363 0.000180083 -0.0895134)
(-0.000527763 0.000179732 -0.0895384)
(-0.000636953 0.000176971 -0.0895704)
(-0.0007463 0.000170972 -0.0895988)
(0.000738613 5.3276e-05 -0.0895957)
(0.000631746 5.44098e-05 -0.0895652)
(0.000524745 5.45228e-05 -0.0895343)
(0.000413838 5.41747e-05 -0.0895094)
(0.000299498 5.42675e-05 -0.0894881)
(0.000182226 5.45001e-05 -0.0894718)
(6.05159e-05 5.46282e-05 -0.0894644)
(-5.54936e-05 5.51539e-05 -0.0894639)
(-0.000178291 5.57644e-05 -0.089471)
(-0.000297572 5.61701e-05 -0.0894869)
(-0.000414397 5.64462e-05 -0.0895084)
(-0.000527882 5.67659e-05 -0.0895337)
(-0.000637002 5.63533e-05 -0.0895656)
(-0.000745042 5.47891e-05 -0.0895973)
(0.000738059 -6.05756e-05 -0.0895965)
(0.000630925 -6.37282e-05 -0.0895667)
(0.000523959 -6.53589e-05 -0.0895361)
(0.000413238 -6.62635e-05 -0.0895116)
(0.000299256 -6.69488e-05 -0.0894904)
(0.000182355 -6.68877e-05 -0.0894742)
(6.12352e-05 -6.6854e-05 -0.0894668)
(-5.50079e-05 -6.61754e-05 -0.0894659)
(-0.000177437 -6.50782e-05 -0.0894727)
(-0.000296806 -6.42217e-05 -0.0894882)
(-0.000413714 -6.30527e-05 -0.0895093)
(-0.000527354 -6.21085e-05 -0.0895343)
(-0.000636675 -6.07422e-05 -0.0895659)
(-0.000744983 -5.83165e-05 -0.0895973)
(0.00073835 -0.000175009 -0.0895987)
(0.00062988 -0.000182 -0.0895727)
(0.000522799 -0.000185859 -0.0895424)
(0.00041214 -0.000187375 -0.0895188)
(0.000298409 -0.000189099 -0.0894982)
(0.000181881 -0.000189579 -0.0894823)
(6.14694e-05 -0.000189921 -0.089475)
(-5.47904e-05 -0.000189588 -0.0894739)
(-0.000176531 -0.000188512 -0.0894803)
(-0.000295641 -0.000187441 -0.0894951)
(-0.000412386 -0.000185471 -0.0895154)
(-0.000526059 -0.000183909 -0.0895395)
(-0.000635602 -0.000180131 -0.0895708)
(-0.000745403 -0.000173358 -0.0895986)
(0.00073861 -0.000287223 -0.0896057)
(0.000628423 -0.000295985 -0.0895868)
(0.000521437 -0.000302573 -0.0895563)
(0.000410896 -0.000304067 -0.0895338)
(0.000297502 -0.000306551 -0.0895141)
(0.00018143 -0.000307368 -0.089499)
(6.18615e-05 -0.000307941 -0.089492)
(-5.45446e-05 -0.000307877 -0.0894907)
(-0.00017546 -0.000306881 -0.0894964)
(-0.000294298 -0.000305734 -0.0895102)
(-0.000410916 -0.000303117 -0.0895295)
(-0.000524734 -0.000301482 -0.0895523)
(-0.000634271 -0.000294759 -0.089584)
(-0.000745931 -0.000285863 -0.0896045)
(0.000736599 -0.000398912 -0.0896169)
(0.000625618 -0.000406393 -0.0896024)
(0.000518115 -0.000415862 -0.0895737)
(0.000408007 -0.000416707 -0.0895521)
(0.000295123 -0.000419451 -0.0895341)
(0.000179988 -0.000420437 -0.0895197)
(6.17573e-05 -0.000421086 -0.0895132)
(-5.42983e-05 -0.00042129 -0.0895117)
(-0.000173813 -0.000420598 -0.0895166)
(-0.000291774 -0.000419626 -0.0895294)
(-0.000407864 -0.00041685 -0.0895468)
(-0.00052125 -0.000415842 -0.0895686)
(-0.000631171 -0.000406027 -0.0895985)
(-0.000743647 -0.000398146 -0.0896146)
(0.000741082 -0.000509859 -0.0896355)
(0.000627353 -0.000511659 -0.0896236)
(0.000518395 -0.000525073 -0.0895948)
(0.000407295 -0.000524664 -0.0895739)
(0.000293962 -0.000527582 -0.0895566)
(0.000178936 -0.000528494 -0.0895432)
(6.15067e-05 -0.000529025 -0.0895372)
(-5.44878e-05 -0.000529394 -0.0895357)
(-0.000172994 -0.000529176 -0.0895398)
(-0.000290697 -0.000528619 -0.0895516)
(-0.000407083 -0.000525836 -0.0895681)
(-0.000521327 -0.000526153 -0.0895891)
(-0.000632473 -0.000512267 -0.0896191)
(-0.000747643 -0.000509893 -0.0896328)
(0.000721036 -0.00062107 -0.0896535)
(0.000611604 -0.000615416 -0.0896439)
(0.000505231 -0.000630943 -0.0896233)
(0.000398291 -0.000628726 -0.0896022)
(0.000287934 -0.000630812 -0.0895866)
(0.000175649 -0.000631591 -0.0895727)
(6.05345e-05 -0.000631832 -0.0895668)
(-5.41761e-05 -0.000632314 -0.0895653)
(-0.00017021 -0.000632773 -0.0895691)
(-0.000284984 -0.000632532 -0.0895815)
(-0.000398091 -0.000630628 -0.0895964)
(-0.000507785 -0.000632723 -0.0896177)
(-0.000615884 -0.000616602 -0.0896393)
(-0.000726344 -0.000621705 -0.0896507)
(0.000734721 -0.000735919 -0.0896598)
(0.000617256 -0.000721708 -0.0896539)
(0.000504084 -0.000740774 -0.0896356)
(0.00039203 -0.000735368 -0.0896169)
(0.000280541 -0.000736358 -0.0896054)
(0.00016984 -0.000735243 -0.0895981)
(5.82604e-05 -0.000734076 -0.0895957)
(-5.29739e-05 -0.000734421 -0.0895944)
(-0.000165354 -0.000736639 -0.089595)
(-0.000278029 -0.000738538 -0.0896008)
(-0.000391751 -0.000738104 -0.0896114)
(-0.000506056 -0.000743718 -0.0896302)
(-0.00062097 -0.000724188 -0.0896494)
(-0.000740339 -0.000738526 -0.0896571)
(0.000825478 0.000829067 -0.10029)
(0.000695593 0.000817413 -0.100281)
(0.000572254 0.000842115 -0.100259)
(0.000447602 0.000840632 -0.100237)
(0.00032174 0.000845138 -0.100223)
(0.000194947 0.000846124 -0.100215)
(6.55365e-05 0.000846386 -0.100212)
(-6.20029e-05 0.000845865 -0.100211)
(-0.000192028 0.000844828 -0.100213)
(-0.000319836 0.000843054 -0.10022)
(-0.000447048 0.000838092 -0.100233)
(-0.000573136 0.00083916 -0.100255)
(-0.000697829 0.000814334 -0.100277)
(-0.000828618 0.000826082 -0.100287)
(0.000812824 0.000698663 -0.100282)
(0.000693016 0.000696287 -0.10027)
(0.000577519 0.000718028 -0.100246)
(0.000458546 0.00072045 -0.100221)
(0.000333368 0.00072668 -0.100203)
(0.000203585 0.000730102 -0.100188)
(6.79459e-05 0.000731887 -0.100181)
(-6.51262e-05 0.00073163 -0.100181)
(-0.000201316 0.000728892 -0.100186)
(-0.000332155 0.000724735 -0.100201)
(-0.000458684 0.000717915 -0.100218)
(-0.000579104 0.000714866 -0.100243)
(-0.000695705 0.000692534 -0.100267)
(-0.000815865 0.000694738 -0.100281)
(0.000837468 0.000573476 -0.100262)
(0.000714771 0.000578853 -0.100248)
(0.000596883 0.000597868 -0.100215)
(0.00047313 0.000601625 -0.100192)
(0.000343589 0.000608268 -0.100173)
(0.000209318 0.000611634 -0.100159)
(6.9124e-05 0.000613577 -0.100153)
(-6.69844e-05 0.000613522 -0.100153)
(-0.000207684 0.00061081 -0.100158)
(-0.00034296 0.000606946 -0.100172)
(-0.000473887 0.000599844 -0.10019)
(-0.000599216 0.000595507 -0.100214)
(-0.000718351 0.000575738 -0.100246)
(-0.000841416 0.000570024 -0.100262)
(0.000835102 0.000446568 -0.100243)
(0.000716576 0.000457109 -0.100226)
(0.000600309 0.000470957 -0.100195)
(0.000477528 0.000475297 -0.100172)
(0.000347732 0.000481176 -0.100153)
(0.000212313 0.000484448 -0.100139)
(6.98731e-05 0.000486312 -0.100133)
(-6.78591e-05 0.00048659 -0.100133)
(-0.000210901 0.000484464 -0.100139)
(-0.000347431 0.000481076 -0.100153)
(-0.000478786 0.000474958 -0.100172)
(-0.000603365 0.000470131 -0.100195)
(-0.000721067 0.000455316 -0.100226)
(-0.000840111 0.000444045 -0.100243)
(0.000838409 0.00031842 -0.100232)
(0.000721725 0.00032919 -0.100212)
(0.000606253 0.000338331 -0.10018)
(0.000483072 0.000342063 -0.100157)
(0.000352348 0.000346559 -0.100137)
(0.000215407 0.000349197 -0.100123)
(7.11569e-05 0.000350734 -0.100117)
(-6.86622e-05 0.000351376 -0.100117)
(-0.000213682 0.000350185 -0.100123)
(-0.000351986 0.000347864 -0.100138)
(-0.000484649 0.000343426 -0.100157)
(-0.000610032 0.000339372 -0.10018)
(-0.000727308 0.000329277 -0.100213)
(-0.000844839 0.000317504 -0.100233)
(0.000838384 0.000189732 -0.100227)
(0.000724143 0.000196907 -0.100199)
(0.000608832 0.000201257 -0.100169)
(0.000485787 0.000203352 -0.100145)
(0.000354714 0.000205843 -0.100126)
(0.000217114 0.000207512 -0.100111)
(7.2062e-05 0.000208519 -0.100105)
(-6.8829e-05 0.000209554 -0.100105)
(-0.00021483 0.000209581 -0.100112)
(-0.000354095 0.000208746 -0.100127)
(-0.000487491 0.000206652 -0.100146)
(-0.00061312 0.000204417 -0.10017)
(-0.000730529 0.000199237 -0.100201)
(-0.000845871 0.000190887 -0.100228)
(0.000836383 5.93917e-05 -0.100226)
(0.000724052 6.0345e-05 -0.100194)
(0.000609529 6.04787e-05 -0.100164)
(0.000487078 6.02652e-05 -0.100141)
(0.000356285 6.05621e-05 -0.100121)
(0.000218607 6.10679e-05 -0.100106)
(7.33724e-05 6.13796e-05 -0.1001)
(-6.79505e-05 6.25301e-05 -0.1001)
(-0.000214524 6.35833e-05 -0.100107)
(-0.000354536 6.42332e-05 -0.100123)
(-0.000488462 6.4676e-05 -0.100142)
(-0.000614362 6.50263e-05 -0.100166)
(-0.000731723 6.45134e-05 -0.100196)
(-0.000845688 6.25567e-05 -0.100227)
(0.000834617 -6.85198e-05 -0.100225)
(0.000722179 -7.36498e-05 -0.100195)
(0.000607828 -7.70537e-05 -0.100165)
(0.00048581 -7.94939e-05 -0.100142)
(0.000355718 -8.12615e-05 -0.100122)
(0.000218724 -8.18156e-05 -0.100107)
(7.42891e-05 -8.22694e-05 -0.100101)
(-6.65952e-05 -8.10599e-05 -0.100101)
(-0.000212791 -7.89386e-05 -0.100108)
(-0.000352838 -7.69137e-05 -0.100123)
(-0.000486871 -7.41913e-05 -0.100143)
(-0.000613022 -7.16535e-05 -0.100166)
(-0.000730712 -6.87128e-05 -0.100196)
(-0.000844976 -6.47306e-05 -0.100227)
(0.000833016 -0.000196358 -0.100226)
(0.000718773 -0.000206773 -0.100199)
(0.000604208 -0.000214205 -0.100169)
(0.000482491 -0.000218763 -0.100146)
(0.000353228 -0.000222776 -0.100127)
(0.000217348 -0.000224607 -0.100112)
(7.43374e-05 -0.000225826 -0.100106)
(-6.54047e-05 -0.000224834 -0.100106)
(-0.000210352 -0.00022204 -0.100113)
(-0.000349593 -0.000218809 -0.100128)
(-0.000483126 -0.000213867 -0.100147)
(-0.000609257 -0.000209094 -0.100169)
(-0.000727425 -0.000201701 -0.1002)
(-0.000843644 -0.000191753 -0.100227)
(0.000830195 -0.000321314 -0.100231)
(0.000713781 -0.00033395 -0.100212)
(0.000599396 -0.000345495 -0.10018)
(0.00047815 -0.000351082 -0.100158)
(0.000350048 -0.000356913 -0.100139)
(0.00021564 -0.000359798 -0.100125)
(7.4469e-05 -0.000361658 -0.100119)
(-6.38099e-05 -0.000360929 -0.100119)
(-0.000207143 -0.000357656 -0.100126)
(-0.000345278 -0.000353558 -0.100139)
(-0.000478068 -0.000346971 -0.100158)
(-0.000604182 -0.000341071 -0.10018)
(-0.00072262 -0.000329304 -0.100212)
(-0.000841357 -0.00031666 -0.100231)
(0.00082512 -0.00044509 -0.100241)
(0.000706817 -0.000455962 -0.100225)
(0.000591651 -0.000471126 -0.100195)
(0.000471146 -0.000476535 -0.100173)
(0.000344537 -0.000483321 -0.100155)
(0.0002124 -0.000486928 -0.100142)
(7.4016e-05 -0.00048917 -0.100136)
(-6.20333e-05 -0.000488866 -0.100135)
(-0.000202813 -0.000485704 -0.100141)
(-0.000338966 -0.000481338 -0.100155)
(-0.000470455 -0.000474068 -0.100172)
(-0.000596052 -0.000468326 -0.100194)
(-0.000715361 -0.000452707 -0.100224)
(-0.000836078 -0.000441447 -0.100241)
(0.000827078 -0.000567645 -0.100261)
(0.000704422 -0.000572112 -0.100247)
(0.00058742 -0.000591008 -0.100215)
(0.000465951 -0.000594931 -0.100193)
(0.000339665 -0.000601929 -0.100175)
(0.000208944 -0.000605637 -0.100162)
(7.31681e-05 -0.000607879 -0.100156)
(-6.07783e-05 -0.000607997 -0.100156)
(-0.000199028 -0.000605556 -0.100161)
(-0.000333767 -0.00060168 -0.100174)
(-0.000464927 -0.000594609 -0.100191)
(-0.000591503 -0.000590488 -0.100213)
(-0.000712555 -0.000571047 -0.100245)
(-0.000837527 -0.000566114 -0.100259)
(0.000804061 -0.00068973 -0.10028)
(0.000683722 -0.000685718 -0.100268)
(0.000568696 -0.000705991 -0.100245)
(0.000451544 -0.000707533 -0.100221)
(0.000329229 -0.000713396 -0.100205)
(0.000202819 -0.000717008 -0.10019)
(7.14157e-05 -0.000718989 -0.100184)
(-5.93164e-05 -0.000719478 -0.100184)
(-0.000193228 -0.000718258 -0.100189)
(-0.000323529 -0.000715105 -0.100203)
(-0.000450417 -0.000709534 -0.100219)
(-0.00057225 -0.000707908 -0.100242)
(-0.00069088 -0.000686923 -0.100265)
(-0.000813161 -0.00069058 -0.100278)
(0.000817382 -0.000818276 -0.100288)
(0.000687785 -0.000805119 -0.10028)
(0.000564886 -0.000827058 -0.100258)
(0.000442012 -0.000823746 -0.100237)
(0.000318391 -0.000827337 -0.100224)
(0.000194188 -0.000828497 -0.100216)
(6.79481e-05 -0.000828746 -0.100214)
(-5.74391e-05 -0.000829363 -0.100214)
(-0.000185772 -0.000830869 -0.100215)
(-0.000313062 -0.000830836 -0.100222)
(-0.00044051 -0.000828076 -0.100234)
(-0.000567619 -0.000831579 -0.100255)
(-0.000694273 -0.000808713 -0.100276)
(-0.000827151 -0.000822571 -0.100285)
(0.000928748 0.000929185 -0.111744)
(0.000780887 0.000914115 -0.111732)
(0.000643116 0.000940059 -0.111706)
(0.000503875 0.000937621 -0.111681)
(0.000363091 0.000942523 -0.111668)
(0.000220847 0.000943705 -0.111661)
(7.57292e-05 0.000944497 -0.111659)
(-6.85455e-05 0.000943462 -0.111659)
(-0.000215086 0.000941655 -0.11166)
(-0.000359203 0.000939695 -0.111667)
(-0.000502519 0.000934668 -0.11168)
(-0.000644569 0.000937364 -0.111704)
(-0.000785402 0.000911485 -0.11173)
(-0.000936266 0.000927831 -0.111744)
(0.000911471 0.000777004 -0.111734)
(0.000776516 0.000773186 -0.111719)
(0.000647997 0.00079655 -0.111693)
(0.000515196 0.000798795 -0.111669)
(0.000375805 0.000805479 -0.111653)
(0.000230553 0.000808516 -0.111639)
(7.86796e-05 0.000810321 -0.111634)
(-7.30257e-05 0.000809367 -0.111633)
(-0.0002259 0.000805697 -0.111638)
(-0.000372766 0.000801372 -0.111651)
(-0.000514421 0.000794091 -0.111667)
(-0.000649826 0.000791647 -0.111691)
(-0.00078091 0.000768313 -0.111717)
(-0.000918049 0.000773019 -0.111734)
(0.000937153 0.000635117 -0.111712)
(0.000799987 0.000639762 -0.111697)
(0.000669006 0.000660008 -0.111664)
(0.000531391 0.000663532 -0.111643)
(0.000387193 0.000669876 -0.111629)
(0.000236827 0.000672904 -0.111617)
(7.99585e-05 0.000674827 -0.111613)
(-7.62311e-05 0.000674099 -0.111613)
(-0.000233718 0.000670128 -0.111616)
(-0.000385235 0.000665484 -0.111627)
(-0.00053124 0.000658345 -0.111642)
(-0.000671124 0.000654527 -0.111662)
(-0.000804396 0.00063414 -0.111695)
(-0.000943361 0.000630279 -0.111711)
(0.00093322 0.000492951 -0.111691)
(0.000801215 0.000503126 -0.111676)
(0.000672047 0.000518278 -0.111647)
(0.000535514 0.000522488 -0.111629)
(0.000390939 0.000528309 -0.111616)
(0.000239282 0.000531336 -0.111606)
(8.0394e-05 0.000532813 -0.111603)
(-7.82617e-05 0.000532413 -0.111603)
(-0.000237589 0.00052932 -0.111606)
(-0.000390145 0.000525256 -0.111616)
(-0.000536181 0.000518376 -0.111629)
(-0.00067466 0.000513736 -0.111646)
(-0.000805876 0.000498084 -0.111675)
(-0.000939445 0.00048838 -0.11169)
(0.000936221 0.000351269 -0.111681)
(0.000806402 0.000362272 -0.111664)
(0.000677888 0.000372447 -0.111635)
(0.000541007 0.000376097 -0.111619)
(0.000395268 0.000380282 -0.111607)
(0.000241928 0.000382646 -0.111598)
(8.13884e-05 0.000383642 -0.111596)
(-8.01368e-05 0.000383637 -0.111596)
(-0.000241058 0.000381607 -0.111599)
(-0.000395224 0.000378616 -0.111608)
(-0.000542245 0.000373962 -0.11162)
(-0.000680915 0.00037 -0.111636)
(-0.000811433 0.000359144 -0.111663)
(-0.000942679 0.000348056 -0.11168)
(0.000935869 0.000210261 -0.111676)
(0.000808576 0.000217986 -0.111652)
(0.000680349 0.000222954 -0.111627)
(0.000543538 0.000224843 -0.111612)
(0.000397353 0.000226894 -0.111601)
(0.000243108 0.000228399 -0.111592)
(8.18668e-05 0.000229096 -0.11159)
(-8.1186e-05 0.000229806 -0.11159)
(-0.000242887 0.000229155 -0.111593)
(-0.000397892 0.000227738 -0.111602)
(-0.000545292 0.000225314 -0.111614)
(-0.000683799 0.000223106 -0.111628)
(-0.000813928 0.000217435 -0.111653)
(-0.000942623 0.00020917 -0.111676)
(0.000934181 6.87516e-05 -0.111675)
(0.000808681 7.02212e-05 -0.111647)
(0.000681134 7.06521e-05 -0.111623)
(0.000544754 7.04392e-05 -0.111608)
(0.000398761 7.04798e-05 -0.111597)
(0.000244285 7.05991e-05 -0.111589)
(8.2898e-05 7.03349e-05 -0.111588)
(-8.08634e-05 7.11243e-05 -0.111588)
(-0.000243024 7.18311e-05 -0.111592)
(-0.000398675 7.23212e-05 -0.111601)
(-0.000546504 7.27068e-05 -0.111612)
(-0.000685173 7.31512e-05 -0.111626)
(-0.000815032 7.23561e-05 -0.111649)
(-0.000942131 7.0193e-05 -0.111676)
(0.000932256 -7.31719e-05 -0.111673)
(0.000806812 -7.81682e-05 -0.111645)
(0.000679407 -8.19409e-05 -0.111621)
(0.000543337 -8.43536e-05 -0.111606)
(0.000397957 -8.62914e-05 -0.111595)
(0.000244172 -8.71834e-05 -0.111587)
(8.35752e-05 -8.79846e-05 -0.111586)
(-7.97652e-05 -8.68308e-05 -0.111587)
(-0.00024149 -8.48667e-05 -0.111591)
(-0.000396956 -8.28391e-05 -0.1116)
(-0.000544807 -7.99775e-05 -0.111611)
(-0.000683658 -7.72716e-05 -0.111625)
(-0.000813728 -7.35822e-05 -0.111649)
(-0.000940939 -6.9136e-05 -0.111675)
(0.000930974 -0.000212557 -0.111671)
(0.000803551 -0.000223628 -0.111646)
(0.000675676 -0.000231435 -0.11162)
(0.000539718 -0.000235929 -0.111605)
(0.000394975 -0.000239875 -0.111593)
(0.000242551 -0.000241895 -0.111585)
(8.34479e-05 -0.000243399 -0.111584)
(-7.85527e-05 -0.000242196 -0.111585)
(-0.000238988 -0.000239138 -0.111589)
(-0.000393409 -0.000235722 -0.111599)
(-0.000540718 -0.000230593 -0.111611)
(-0.0006796 -0.000225816 -0.111626)
(-0.000810246 -0.000217517 -0.111651)
(-0.000939497 -0.000206979 -0.111674)
(0.000929226 -0.000351577 -0.111675)
(0.000799018 -0.000363502 -0.111656)
(0.000671047 -0.000376464 -0.111627)
(0.000535337 -0.0003823 -0.11161)
(0.000391465 -0.000387847 -0.111597)
(0.000240659 -0.000390786 -0.111589)
(8.35111e-05 -0.000392988 -0.111587)
(-7.66e-05 -0.000391951 -0.111588)
(-0.000235382 -0.000388135 -0.111593)
(-0.000388599 -0.000383724 -0.111603)
(-0.000535351 -0.000377007 -0.111617)
(-0.000674473 -0.000370708 -0.111633)
(-0.000805727 -0.00035762 -0.111661)
(-0.000937926 -0.000345532 -0.111678)
(0.000925475 -0.000491203 -0.111685)
(0.000792396 -0.000500947 -0.111668)
(0.000663519 -0.000516584 -0.111637)
(0.000528298 -0.000522003 -0.111618)
(0.00038603 -0.000529424 -0.111605)
(0.000237251 -0.000533459 -0.111595)
(8.30734e-05 -0.000536085 -0.111593)
(-7.43284e-05 -0.000535394 -0.111594)
(-0.000230718 -0.000531445 -0.1116)
(-0.000381949 -0.000526222 -0.111611)
(-0.000527509 -0.00051792 -0.111625)
(-0.00066643 -0.000512187 -0.111643)
(-0.000798722 -0.000495728 -0.111672)
(-0.000933774 -0.00048563 -0.111688)
(0.000930096 -0.000631231 -0.111707)
(0.000791031 -0.000634806 -0.111689)
(0.000659888 -0.000654372 -0.111655)
(0.000523205 -0.00065768 -0.111633)
(0.000381135 -0.000664231 -0.111618)
(0.000233797 -0.000667519 -0.111607)
(8.20802e-05 -0.000670091 -0.111605)
(-7.22437e-05 -0.000669848 -0.111606)
(-0.000226397 -0.000666579 -0.111612)
(-0.00037624 -0.00066244 -0.111624)
(-0.000521717 -0.000655419 -0.11164)
(-0.000662094 -0.000651664 -0.111661)
(-0.000796631 -0.00063131 -0.111694)
(-0.000937439 -0.000627581 -0.111709)
(0.000906464 -0.00077233 -0.111732)
(0.000769201 -0.000766673 -0.111714)
(0.000639899 -0.000788049 -0.111687)
(0.000507504 -0.000789057 -0.111661)
(0.00036964 -0.000795039 -0.111645)
(0.000227035 -0.000798349 -0.111631)
(7.97632e-05 -0.000800343 -0.111627)
(-6.95704e-05 -0.000800473 -0.111628)
(-0.00021938 -0.000798651 -0.111635)
(-0.000364448 -0.00079522 -0.11165)
(-0.000505529 -0.000789191 -0.111667)
(-0.000641342 -0.000787916 -0.111692)
(-0.000773917 -0.000765653 -0.111717)
(-0.000913023 -0.000771332 -0.111733)
(0.000925013 -0.000925319 -0.111744)
(0.000775022 -0.000908018 -0.111731)
(0.000636341 -0.000931502 -0.111703)
(0.00049785 -0.000926577 -0.111678)
(0.000358191 -0.000929703 -0.111664)
(0.000217838 -0.00093041 -0.111657)
(7.57224e-05 -0.000930408 -0.111656)
(-6.65494e-05 -0.000930963 -0.111658)
(-0.000210573 -0.000932006 -0.11166)
(-0.000352845 -0.000931855 -0.111668)
(-0.000495183 -0.000928979 -0.111682)
(-0.000637053 -0.00093358 -0.111707)
(-0.000779231 -0.000908727 -0.111732)
(-0.000931949 -0.00092693 -0.111744)
(0.00105813 0.00105359 -0.124079)
(0.000882622 0.00102781 -0.124063)
(0.000720797 0.00105016 -0.124033)
(0.000560849 0.00103974 -0.124008)
(0.000401249 0.00103818 -0.123995)
(0.000242777 0.00103492 -0.12399)
(8.36493e-05 0.00103341 -0.12399)
(-7.61118e-05 0.00103293 -0.123991)
(-0.000237472 0.00103449 -0.123992)
(-0.000398389 0.00103845 -0.123998)
(-0.000561023 0.001041 -0.124012)
(-0.000724384 0.0010529 -0.124039)
(-0.000890299 0.00103025 -0.124068)
(-0.00106988 0.00105819 -0.124085)
(0.00103008 0.000870699 -0.124066)
(0.000870526 0.00085914 -0.124047)
(0.000719299 0.000877007 -0.124019)
(0.000566571 0.000870673 -0.123995)
(0.000409998 0.000870602 -0.123982)
(0.000250526 0.000870847 -0.12397)
(8.62628e-05 0.000871321 -0.123968)
(-7.96911e-05 0.00087021 -0.123968)
(-0.000245215 0.000867759 -0.123971)
(-0.000406897 0.000866552 -0.123983)
(-0.000566131 0.000868183 -0.123997)
(-0.00072215 0.000875493 -0.124022)
(-0.000877194 0.000858851 -0.12405)
(-0.00104054 0.000872387 -0.12407)
(0.00105153 0.000704242 -0.124038)
(0.000888316 0.000701874 -0.124021)
(0.000733828 0.000715446 -0.123989)
(0.000577132 0.000712651 -0.123971)
(0.000417761 0.000714426 -0.123961)
(0.000253766 0.000712481 -0.123953)
(8.69236e-05 0.000711611 -0.123953)
(-8.25744e-05 0.000710719 -0.123953)
(-0.000250079 0.000709524 -0.123954)
(-0.000415182 0.000710538 -0.123961)
(-0.000576247 0.000706526 -0.123971)
(-0.000735776 0.000710891 -0.123989)
(-0.000893623 0.00069874 -0.124022)
(-0.00106051 0.000703191 -0.12404)
(0.00103971 0.000542846 -0.124014)
(0.000881288 0.000546718 -0.123999)
(0.000729148 0.000556738 -0.123972)
(0.000575837 0.000554796 -0.12396)
(0.000415695 0.000554566 -0.123954)
(0.000252251 0.000553466 -0.123949)
(8.61417e-05 0.000552347 -0.12395)
(-8.4249e-05 0.000551429 -0.12395)
(-0.000250472 0.000549948 -0.123949)
(-0.000414236 0.000549358 -0.123954)
(-0.000575341 0.000549043 -0.12396)
(-0.000730565 0.000550399 -0.123972)
(-0.00088514 0.000541612 -0.123998)
(-0.00104667 0.000539866 -0.124013)
(0.00103635 0.000385511 -0.124002)
(0.000879344 0.00039221 -0.123986)
(0.000730892 0.000398909 -0.123962)
(0.000575531 0.000397378 -0.123953)
(0.000415845 0.000396997 -0.123949)
(0.000251987 0.000396268 -0.123947)
(8.54936e-05 0.000394981 -0.123949)
(-8.58618e-05 0.000394152 -0.123949)
(-0.000252093 0.000392821 -0.123948)
(-0.000415523 0.000391969 -0.123951)
(-0.000575323 0.000391198 -0.123954)
(-0.000732527 0.000393051 -0.123962)
(-0.000881793 0.000386698 -0.123985)
(-0.00104146 0.000381509 -0.124)
(0.00103207 0.000232045 -0.123996)
(0.000877257 0.000237795 -0.123974)
(0.00073013 0.000240504 -0.123955)
(0.000574393 0.000240461 -0.123948)
(0.000414646 0.00024113 -0.123946)
(0.00025067 0.000240793 -0.123945)
(8.41236e-05 0.00023924 -0.123948)
(-8.70421e-05 0.000238426 -0.123948)
(-0.000253157 0.000237276 -0.123946)
(-0.00041596 0.000236402 -0.123948)
(-0.000574979 0.000235605 -0.12395)
(-0.000730644 0.000236508 -0.123955)
(-0.000880216 0.000233507 -0.123974)
(-0.00103529 0.000228429 -0.123994)
(0.00102943 8.02157e-05 -0.123994)
(0.000876376 8.23032e-05 -0.123969)
(0.00072959 8.2884e-05 -0.12395)
(0.000574177 8.15656e-05 -0.123945)
(0.000414503 8.01269e-05 -0.123944)
(0.000250386 7.91906e-05 -0.123943)
(8.35542e-05 7.82799e-05 -0.123947)
(-8.71304e-05 7.86311e-05 -0.123948)
(-0.000253773 7.88024e-05 -0.123946)
(-0.000416408 7.88041e-05 -0.123948)
(-0.00057497 7.88838e-05 -0.123949)
(-0.000729906 7.93809e-05 -0.123954)
(-0.000879743 7.9541e-05 -0.12397)
(-0.00103167 7.80677e-05 -0.123993)
(0.00102924 -7.25319e-05 -0.123992)
(0.000875599 -7.41543e-05 -0.123966)
(0.000729165 -7.54791e-05 -0.123947)
(0.000573504 -7.57166e-05 -0.123941)
(0.00041395 -7.64253e-05 -0.123939)
(0.000249972 -7.69648e-05 -0.123939)
(8.30276e-05 -7.82902e-05 -0.123943)
(-8.6721e-05 -7.81737e-05 -0.123944)
(-0.000253846 -7.78212e-05 -0.123943)
(-0.00041623 -7.7794e-05 -0.123945)
(-0.000574574 -7.70282e-05 -0.123947)
(-0.000729415 -7.65754e-05 -0.123952)
(-0.000878727 -7.47331e-05 -0.123969)
(-0.00103063 -7.23936e-05 -0.123993)
(0.00103306 -0.000226517 -0.123989)
(0.000876989 -0.00023133 -0.123965)
(0.000728084 -0.00023452 -0.123943)
(0.000572956 -0.00023411 -0.123935)
(0.000412982 -0.0002346 -0.123932)
(0.000248973 -0.000234577 -0.123931)
(8.21057e-05 -0.00023565 -0.123934)
(-8.63746e-05 -0.00023524 -0.123936)
(-0.000253683 -0.000234396 -0.123936)
(-0.000415631 -0.000234356 -0.123939)
(-0.000573941 -0.000233162 -0.123944)
(-0.000729121 -0.000233501 -0.123951)
(-0.000877761 -0.000230126 -0.12397)
(-0.00103325 -0.000222857 -0.123992)
(0.00103888 -0.000381881 -0.123993)
(0.000880526 -0.000388535 -0.123973)
(0.0007275 -0.000394899 -0.123946)
(0.000573866 -0.000393345 -0.123935)
(0.000413217 -0.000393697 -0.12393)
(0.000248968 -0.00039308 -0.123927)
(8.18529e-05 -0.00039379 -0.12393)
(-8.57126e-05 -0.000393389 -0.123932)
(-0.000253258 -0.000392352 -0.123934)
(-0.000415229 -0.000392393 -0.123939)
(-0.000573828 -0.000391057 -0.123946)
(-0.00072876 -0.000392742 -0.123956)
(-0.000879693 -0.000384059 -0.123981)
(-0.00103824 -0.00037854 -0.123997)
(0.0010436 -0.000543593 -0.124005)
(0.000882701 -0.000545296 -0.123986)
(0.000728271 -0.000554754 -0.123954)
(0.000572249 -0.000555445 -0.123938)
(0.00041329 -0.000554626 -0.12393)
(0.000249016 -0.000553122 -0.123926)
(8.18598e-05 -0.000553352 -0.123928)
(-8.57614e-05 -0.000553009 -0.12393)
(-0.000251836 -0.000552085 -0.123933)
(-0.000414368 -0.000552579 -0.123941)
(-0.000572723 -0.000552605 -0.123951)
(-0.000727605 -0.000551081 -0.123966)
(-0.000881152 -0.000542015 -0.123995)
(-0.00104195 -0.000539269 -0.124011)
(0.00105752 -0.00070883 -0.124033)
(0.000890314 -0.000705664 -0.124011)
(0.000733619 -0.000717373 -0.123973)
(0.000574156 -0.000710932 -0.123951)
(0.000413154 -0.000714014 -0.123939)
(0.000249842 -0.000715068 -0.123931)
(8.24764e-05 -0.000716453 -0.123931)
(-8.56231e-05 -0.000716152 -0.123934)
(-0.000251557 -0.000714197 -0.123939)
(-0.000414238 -0.00071232 -0.12395)
(-0.000573969 -0.000708582 -0.123965)
(-0.000731452 -0.000714537 -0.123985)
(-0.000887592 -0.000701316 -0.12402)
(-0.00105467 -0.000704467 -0.124039)
(0.00103677 -0.000879333 -0.124065)
(0.000873921 -0.000867031 -0.124042)
(0.000720142 -0.000883488 -0.124009)
(0.000564754 -0.000876124 -0.123981)
(0.000405815 -0.000874666 -0.123965)
(0.000245348 -0.000871955 -0.123953)
(8.20713e-05 -0.000870033 -0.123951)
(-8.3822e-05 -0.000869859 -0.123954)
(-0.000246987 -0.000870934 -0.123961)
(-0.000406196 -0.000872787 -0.123976)
(-0.000563008 -0.000873348 -0.123993)
(-0.000716689 -0.000879826 -0.124021)
(-0.000870396 -0.000862237 -0.124051)
(-0.00103386 -0.000875079 -0.12407)
(0.00106564 -0.00106604 -0.124083)
(0.000886299 -0.00103919 -0.124064)
(0.000721952 -0.00106218 -0.124031)
(0.000560168 -0.00104998 -0.124001)
(0.000398793 -0.00104658 -0.123987)
(0.000238697 -0.00104241 -0.12398)
(8.03586e-05 -0.001039 -0.123981)
(-8.08892e-05 -0.00103887 -0.123984)
(-0.000239976 -0.00104115 -0.123987)
(-0.000397901 -0.00104421 -0.123996)
(-0.000557508 -0.00104623 -0.124012)
(-0.000718379 -0.00105714 -0.12404)
(-0.000882903 -0.0010329 -0.124071)
(-0.00106265 -0.00106074 -0.124087)
(0.00121082 0.00120304 -0.137353)
(0.00100064 0.00116274 -0.137336)
(0.000806002 0.00117918 -0.137304)
(0.000619821 0.00115611 -0.137276)
(0.000437963 0.00114463 -0.137263)
(0.000261561 0.00113369 -0.137258)
(8.79307e-05 0.00112792 -0.13726)
(-8.7178e-05 0.00112937 -0.137262)
(-0.000263038 0.0011374 -0.137264)