/*--------------------------------*- C++ -*----------------------------------*\
| =========                 |                                                 |
| \\      /  F ield         | OpenFOAM: The Open Source CFD Toolbox           |
|  \\    /   O peration     | Version:  v2106                                 |
|   \\  /    A nd           | Website:  www.openfoam.com                      |
|    \\/     M anipulation  |                                                 |
\*---------------------------------------------------------------------------*/
FoamFile
{
    version     2.0;
    format      ascii;
    arch        "LSB;label=32;scalar=64";
    class       volScalarField;
    location    "0.000161";
    object      alphat;
}
// * * * * * * * * * * * * * * * * * * * * * * * * * * * * * * * * * * * * * //

dimensions      [1 -1 -1 0 0 0 0];

internalField   nonuniform List<scalar> 
144746
(
6.12676e-05
5.05329e-05
4.11196e-05
3.31107e-05
2.87285e-05
2.83213e-05
3.15179e-05
3.7356e-05
4.48059e-05
5.25529e-05
5.83836e-05
6.0642e-05
6.09748e-05
6.38098e-05
6.26695e-05
4.963e-05
3.65056e-05
2.39571e-05
1.56944e-05
1.27066e-05
1.38305e-05
1.79641e-05
2.43343e-05
3.19427e-05
3.90041e-05
4.3608e-05
4.66055e-05
5.21749e-05
6.65227e-05
4.95081e-05
3.19117e-05
1.66443e-05
8.03256e-06
4.82381e-06
4.83683e-06
7.23065e-06
1.17903e-05
1.80173e-05
2.45844e-05
3.02689e-05
3.60427e-05
4.51946e-05
6.80075e-05
4.48269e-05
2.36176e-05
9.26788e-06
3.37183e-06
1.47697e-06
1.35813e-06
2.52761e-06
5.16131e-06
9.38454e-06
1.47571e-05
2.09367e-05
2.94354e-05
4.27894e-05
6.55838e-05
3.61585e-05
1.47985e-05
4.71467e-06
1.67863e-06
6.40459e-07
4.88309e-07
1.00197e-06
2.37975e-06
5.05482e-06
9.51329e-06
1.6655e-05
2.82713e-05
4.58748e-05
6.07397e-05
2.80529e-05
1.00549e-05
4.10236e-06
1.89501e-06
8.08449e-07
5.33304e-07
8.29308e-07
1.81063e-06
4.06199e-06
8.7006e-06
1.74359e-05
3.19887e-05
5.2919e-05
5.60077e-05
2.37553e-05
1.02244e-05
5.73753e-06
3.09122e-06
1.61837e-06
1.21693e-06
1.64139e-06
2.99524e-06
5.99598e-06
1.19488e-05
2.25697e-05
3.90491e-05
6.13589e-05
5.36288e-05
2.41535e-05
1.41586e-05
9.32164e-06
5.75783e-06
3.56164e-06
2.90683e-06
3.68357e-06
5.93074e-06
1.03081e-05
1.78717e-05
2.98313e-05
4.68332e-05
6.85116e-05
5.6377e-05
2.84014e-05
2.09171e-05
1.55932e-05
1.09274e-05
7.53621e-06
6.20256e-06
7.20346e-06
1.04143e-05
1.60234e-05
2.45493e-05
3.68021e-05
5.31203e-05
7.28756e-05
6.15829e-05
3.72232e-05
3.07405e-05
2.57859e-05
2.03349e-05
1.53507e-05
1.23714e-05
1.24994e-05
1.58328e-05
2.1927e-05
3.04886e-05
4.26446e-05
5.76866e-05
7.40242e-05
6.70116e-05
4.66831e-05
4.22518e-05
4.06997e-05
3.63784e-05
3.03991e-05
2.50312e-05
2.24856e-05
2.38988e-05
2.94343e-05
3.71467e-05
4.75278e-05
5.94293e-05
7.26119e-05
7.28361e-05
5.64088e-05
5.37683e-05
5.68258e-05
5.82183e-05
5.49884e-05
4.94015e-05
4.46563e-05
4.20472e-05
4.36216e-05
4.76727e-05
5.46034e-05
6.304e-05
7.38139e-05
7.96961e-05
6.5136e-05
6.32804e-05
6.92485e-05
7.71677e-05
8.18597e-05
8.12621e-05
7.82516e-05
7.36671e-05
7.02213e-05
6.82557e-05
6.97662e-05
7.40045e-05
8.16952e-05
8.80343e-05
7.4492e-05
7.2571e-05
7.87823e-05
8.89428e-05
9.98186e-05
0.000107076
0.000109482
0.000108235
0.000104305
9.87119e-05
9.44081e-05
9.41963e-05
9.87565e-05
5.62979e-05
4.80475e-05
4.20077e-05
3.82004e-05
3.81815e-05
4.0393e-05
4.32337e-05
4.60372e-05
4.88707e-05
5.15639e-05
5.3248e-05
5.35587e-05
5.4465e-05
5.9834e-05
5.24131e-05
4.0999e-05
3.10192e-05
2.25721e-05
1.81152e-05
1.74206e-05
1.92285e-05
2.27797e-05
2.72604e-05
3.22253e-05
3.66904e-05
3.9967e-05
4.40829e-05
5.33129e-05
5.23019e-05
3.77255e-05
2.44479e-05
1.37302e-05
7.77111e-06
5.86084e-06
6.5471e-06
9.11657e-06
1.32476e-05
1.85823e-05
2.41673e-05
2.96882e-05
3.75182e-05
5.13531e-05
5.20374e-05
3.33004e-05
1.7595e-05
7.25664e-06
2.83261e-06
1.51496e-06
1.71591e-06
3.08718e-06
5.78007e-06
9.92115e-06
1.53066e-05
2.24261e-05
3.41379e-05
5.33422e-05
5.07815e-05
2.75507e-05
1.1361e-05
3.66287e-06
1.22956e-06
4.88432e-07
4.96481e-07
1.12218e-06
2.62381e-06
5.51407e-06
1.06212e-05
1.97217e-05
3.55445e-05
5.96228e-05
4.9561e-05
2.28205e-05
8.11844e-06
3.12274e-06
1.29491e-06
5.256e-07
4.05687e-07
7.74816e-07
1.87709e-06
4.5077e-06
1.02353e-05
2.14466e-05
4.02172e-05
6.67642e-05
4.96843e-05
2.08611e-05
8.43435e-06
4.29765e-06
2.13443e-06
1.09395e-06
9.1149e-07
1.41651e-06
2.90018e-06
6.34282e-06
1.34354e-05
2.62151e-05
4.57108e-05
7.14658e-05
5.21165e-05
2.23725e-05
1.16533e-05
7.01107e-06
4.13811e-06
2.57875e-06
2.29632e-06
3.19994e-06
5.55028e-06
1.02639e-05
1.86035e-05
3.17193e-05
4.98379e-05
7.24099e-05
5.78976e-05
2.6935e-05
1.71546e-05
1.18835e-05
8.1216e-06
5.7357e-06
5.1101e-06
6.40515e-06
9.67198e-06
1.53511e-05
2.40249e-05
3.63124e-05
5.2018e-05
7.09601e-05
6.61482e-05
3.56035e-05
2.52324e-05
1.98863e-05
1.54273e-05
1.19753e-05
1.03906e-05
1.12977e-05
1.47591e-05
2.06944e-05
2.88708e-05
4.03242e-05
5.384e-05
6.84244e-05
7.29016e-05
4.53808e-05
3.54088e-05
3.14473e-05
2.77031e-05
2.37918e-05
2.09745e-05
2.03729e-05
2.25238e-05
2.80995e-05
3.53254e-05
4.51416e-05
5.54394e-05
6.69443e-05
7.9165e-05
5.59471e-05
4.7112e-05
4.5875e-05
4.54656e-05
4.33155e-05
4.08745e-05
3.97916e-05
4.00302e-05
4.31812e-05
4.74429e-05
5.40979e-05
6.12682e-05
7.03593e-05
8.59178e-05
6.57894e-05
5.76181e-05
5.80943e-05
6.22328e-05
6.58768e-05
6.78034e-05
6.98332e-05
7.04578e-05
7.0958e-05
7.05184e-05
7.22337e-05
7.54818e-05
8.131e-05
9.34289e-05
7.57415e-05
6.8159e-05
6.87965e-05
7.52222e-05
8.45538e-05
9.38507e-05
0.000100942
0.000105397
0.000107062
0.000104574
0.000100683
9.92581e-05
0.000101293
5.64124e-05
4.98604e-05
4.71842e-05
4.74098e-05
5.09387e-05
5.3645e-05
5.363e-05
5.05612e-05
4.66884e-05
4.42663e-05
4.36693e-05
4.51641e-05
4.96702e-05
5.88808e-05
4.60404e-05
3.55468e-05
2.86115e-05
2.40929e-05
2.3413e-05
2.45816e-05
2.58899e-05
2.64771e-05
2.6971e-05
2.84168e-05
3.0766e-05
3.46844e-05
4.19792e-05
5.551e-05
3.98433e-05
2.72899e-05
1.80244e-05
1.16591e-05
8.71575e-06
8.24958e-06
9.14726e-06
1.06932e-05
1.28736e-05
1.63739e-05
2.09607e-05
2.74271e-05
3.84495e-05
5.69935e-05
3.63901e-05
2.19134e-05
1.1449e-05
5.30508e-06
2.65872e-06
1.96768e-06
2.33138e-06
3.46163e-06
5.45914e-06
8.82895e-06
1.39547e-05
2.23606e-05
3.75005e-05
6.16847e-05
3.52526e-05
1.84625e-05
7.51308e-06
2.56125e-06
8.85547e-07
4.21375e-07
5.18032e-07
1.09018e-06
2.37672e-06
5.02362e-06
1.04075e-05
2.12091e-05
4.05731e-05
6.87732e-05
3.62871e-05
1.67627e-05
5.91786e-06
2.1302e-06
7.6167e-07
2.80218e-07
2.51358e-07
5.84026e-07
1.57841e-06
4.17699e-06
1.04096e-05
2.32336e-05
4.45333e-05
7.28638e-05
3.98613e-05
1.70054e-05
6.42111e-06
2.84523e-06
1.22505e-06
5.75638e-07
5.16667e-07
9.49013e-07
2.25897e-06
5.57975e-06
1.29072e-05
2.64926e-05
4.68436e-05
7.19702e-05
4.61999e-05
1.95894e-05
8.77541e-06
4.60748e-06
2.47111e-06
1.48452e-06
1.4114e-06
2.17629e-06
4.15527e-06
8.40794e-06
1.6416e-05
2.92526e-05
4.64397e-05
6.63643e-05
5.57843e-05
2.46196e-05
1.2789e-05
7.8575e-06
5.0604e-06
3.56864e-06
3.39689e-06
4.59558e-06
7.3209e-06
1.22218e-05
2.00176e-05
3.10765e-05
4.46602e-05
6.0108e-05
6.60755e-05
3.33451e-05
1.87984e-05
1.32871e-05
9.8809e-06
7.78387e-06
7.22595e-06
8.52064e-06
1.15955e-05
1.65979e-05
2.36601e-05
3.32576e-05
4.45017e-05
5.74272e-05
7.29232e-05
4.23973e-05
2.69777e-05
2.13918e-05
1.81107e-05
1.57507e-05
1.47656e-05
1.56499e-05
1.83952e-05
2.31629e-05
2.93669e-05
3.89354e-05
4.7906e-05
5.83103e-05
7.9011e-05
5.33211e-05
3.90247e-05
3.32262e-05
3.06346e-05
2.90109e-05
2.87461e-05
3.01741e-05
3.2793e-05
3.7359e-05
4.20684e-05
4.94078e-05
5.63278e-05
6.49929e-05
8.56085e-05
6.40787e-05
5.08226e-05
4.53949e-05
4.48359e-05
4.58321e-05
4.85798e-05
5.3386e-05
5.8017e-05
6.25467e-05
6.4274e-05
6.76464e-05
7.12547e-05
7.73739e-05
9.27977e-05
7.56796e-05
6.4035e-05
5.86399e-05
5.88456e-05
6.26789e-05
6.9709e-05
7.87477e-05
8.71296e-05
9.37157e-05
9.52773e-05
9.37811e-05
9.33211e-05
9.52285e-05
7.27821e-05
9.11969e-05
0.000122634
0.000190267
0.000336409
0.000119298
6.33613e-05
8.21595e-05
0.000111919
0.000173268
0.000310553
0.000131209
5.95902e-05
8.08978e-05
0.000111572
0.000166843
0.000295956
0.000142634
6.15242e-05
8.69882e-05
0.000120718
0.000171267
0.00028248
0.000152287
6.87148e-05
9.81739e-05
0.000134653
0.000181528
0.00027227
0.000160629
7.83498e-05
0.00010987
0.000147336
0.000191723
0.000263135
0.00016847
8.62937e-05
0.000116551
0.00015276
0.000196923
0.000258595
0.00017724
8.97899e-05
0.000116155
0.000149819
0.000197052
0.000259506
0.000187567
8.90458e-05
0.000110468
0.000140955
0.000190912
0.000264315
0.000199302
8.61272e-05
0.000102963
0.000129795
0.00017921
0.00027258
0.000206766
8.32111e-05
9.69432e-05
0.000120573
0.000168996
0.000282761
0.000207219
8.35596e-05
9.60239e-05
0.000118321
0.000166447
0.000295138
0.000199679
9.04551e-05
0.000103435
0.000127045
0.000176772
0.000312753
0.000182222
0.00010489
0.000120684
0.000148783
0.00020358
0.0003333
0.00015157
7.27378e-05
9.06833e-05
0.000116208
0.000160474
0.000248786
0.000129668
6.98677e-05
9.11518e-05
0.000119584
0.000160763
0.000235433
0.000143601
7.23354e-05
9.90137e-05
0.000132674
0.000172905
0.000235642
0.000157558
8.00575e-05
0.000113509
0.000152819
0.000192405
0.000238989
0.000170392
9.07422e-05
0.000128848
0.000171271
0.000210749
0.000245322
0.000182234
9.86303e-05
0.000137367
0.000180104
0.000221629
0.000250634
0.000194741
0.00010007
0.000135155
0.000175024
0.000221061
0.000258746
0.000208075
9.44803e-05
0.000122483
0.000157074
0.00020865
0.000268671
0.000220993
8.60254e-05
0.000106012
0.000133983
0.00018543
0.000270533
0.000231055
7.882e-05
9.25626e-05
0.00011457
0.000160126
0.000261751
0.000234488
7.55838e-05
8.59569e-05
0.000104098
0.000144183
0.000250325
0.000227875
7.85047e-05
8.82419e-05
0.000105335
0.000142231
0.000245298
0.000212011
8.89171e-05
9.99767e-05
0.000118822
0.000154576
0.000251611
0.000187793
0.000106772
0.000121398
0.000144194
0.000180876
0.000266303
0.000155922
7.51977e-05
9.29224e-05
0.000115152
0.000145708
0.000182426
0.000133955
7.63067e-05
9.91966e-05
0.000127359
0.000161547
0.000198692
0.00015424
8.28807e-05
0.000112382
0.000147361
0.000185402
0.000218636
0.000177541
9.33266e-05
0.000130254
0.000171884
0.000212051
0.000238355
0.000201463
0.000103093
0.000144467
0.000188885
0.000229644
0.000253936
0.000223501
0.000105684
0.000145782
0.000187665
0.000228335
0.0002553
0.000241363
9.94663e-05
0.000132661
0.000167591
0.000208034
0.000244864
0.000252399
8.63117e-05
0.000110307
0.000136862
0.000176431
0.00022865
0.000255063
7.3326e-05
8.88977e-05
0.000108048
0.000143809
0.000208736
0.000248512
6.5966e-05
7.51982e-05
8.96933e-05
0.000119711
0.000187868
0.000234915
6.52298e-05
7.19915e-05
8.41525e-05
0.000110106
0.000174674
0.000215951
7.11025e-05
7.8045e-05
9.02227e-05
0.000114852
0.000173228
0.000194701
8.29594e-05
9.17359e-05
0.000106205
0.000131513
0.000183467
0.000172979
9.92954e-05
0.000112063
0.000131225
0.000157882
0.000199777
0.000151095
0.000123794
0.000148301
0.000184101
0.000242921
0.000338696
0.000118574
0.000120484
0.000146065
0.000178693
0.000229028
0.000309892
0.000130412
0.000123201
0.000149566
0.000178972
0.000222482
0.000289533
0.000141083
0.000128602
0.000153181
0.000178049
0.000216233
0.000272213
0.000151701
0.000131363
0.000151456
0.000171745
0.000207572
0.00026253
0.000164672
0.000129586
0.000143809
0.000161202
0.000197225
0.000260018
0.000180418
0.000122735
0.000131937
0.000148635
0.00018638
0.00026208
0.000197868
0.000112904
0.000119444
0.000135825
0.000174157
0.0002623
0.00021514
0.000102568
0.000108378
0.000123677
0.000160658
0.00025783
0.00022935
9.24317e-05
9.81544e-05
0.000112757
0.000149451
0.000255957
0.00023586
8.34586e-05
9.05057e-05
0.00010622
0.000144842
0.000262159
0.000234021
7.92232e-05
8.89293e-05
0.000107539
0.000150359
0.000281458
0.000223401
8.30092e-05
9.60594e-05
0.000119369
0.000169172
0.000313842
0.000203206
9.53456e-05
0.00011332
0.000143877
0.000203522
0.000351089
0.000167098
0.000129212
0.000152291
0.000178962
0.00021417
0.000270739
0.000136851
0.00012911
0.000155579
0.000182951
0.000214098
0.000256623
0.000153938
0.000133715
0.000162315
0.000188306
0.000216515
0.000251111
0.000170576
0.00013875
0.000165544
0.000187872
0.000213595
0.0002417
0.00018893
0.000137722
0.000159518
0.000177132
0.000203091
0.000238307
0.000208372
0.00013048
0.000145414
0.000158936
0.000187782
0.000238618
0.00022756
0.00011849
0.000127367
0.000138546
0.000170065
0.000237365
0.000245136
0.000104353
0.000110178
0.000120733
0.000151614
0.000228095
0.000257077
9.10281e-05
9.64146e-05
0.0001072
0.000136107
0.000215432
0.000260402
8.08326e-05
8.66034e-05
9.82747e-05
0.00012707
0.000207327
0.00025595
7.52455e-05
8.24581e-05
9.61217e-05
0.000126842
0.000209615
0.000244543
7.6141e-05
8.58302e-05
0.000102601
0.000136647
0.000225361
0.000226321
8.46952e-05
9.76301e-05
0.000119264
0.000158054
0.000253213
0.0002019
0.000100698
0.000119216
0.000147783
0.000191122
0.000284156
0.000167052
0.000120009
0.000141092
0.000164636
0.000189029
0.000209738
0.000153067
0.000119642
0.000144696
0.000171279
0.000196021
0.000214568
0.00017811
0.000123156
0.000151258
0.000177865
0.000201209
0.000220105
0.000202955
0.000126101
0.000152787
0.0001752
0.000194555
0.000214025
0.000226752
0.000121722
0.000144325
0.000159873
0.000175584
0.000202886
0.000246557
0.000111846
0.000128656
0.000138389
0.00015209
0.000187076
0.000259736
9.88269e-05
0.000110426
0.000117361
0.000131154
0.000171961
0.000265348
8.506e-05
9.37013e-05
0.00010129
0.000117012
0.000160124
0.000261847
7.37984e-05
8.1646e-05
9.13699e-05
0.000109967
0.000152888
0.000252512
6.79914e-05
7.57811e-05
8.70734e-05
0.000108654
0.000153323
0.000239931
6.83112e-05
7.65781e-05
8.92189e-05
0.000113372
0.000162145
0.00022541
7.36404e-05
8.32884e-05
9.80337e-05
0.000125199
0.000179384
0.000207559
8.38366e-05
9.55659e-05
0.000114277
0.00014548
0.000202313
0.000186954
9.8416e-05
0.000114511
0.000139421
0.000174481
0.000227524
0.000163271
0.000155965
0.000284902
0.0001383
9.27012e-05
7.40935e-05
6.49004e-05
0.000183944
0.000240222
0.000124012
8.95055e-05
7.54477e-05
6.78298e-05
0.000203446
0.000217604
0.000123451
9.49412e-05
8.23927e-05
7.44109e-05
0.000216034
0.000211729
0.000131147
0.000105337
9.23956e-05
8.18579e-05
0.000222596
0.000212611
0.000142855
0.000117786
0.00010356
8.84983e-05
0.000222752
0.00021687
0.000155362
0.000130549
0.000114869
9.34978e-05
0.000217201
0.000222691
0.000166884
0.000142998
0.000125695
9.66294e-05
0.000206507
0.00023082
0.000178217
0.000155135
0.000135068
9.92184e-05
0.000191557
0.000241145
0.000190673
0.000166087
0.00014158
0.000101874
0.000175964
0.000256217
0.000203591
0.000173574
0.000143373
0.000101897
0.000161722
0.000275708
0.000215234
0.000177241
0.000142289
0.000102012
0.000149251
0.000302797
0.00022332
0.000176449
0.000139026
0.000102163
0.000137942
0.000328988
0.000232051
0.00017643
0.000137923
0.000105538
0.000126565
0.000367043
0.000248849
0.000182529
0.000142028
0.000112768
0.00015429
0.00022717
0.000126863
8.95635e-05
7.09781e-05
6.04672e-05
0.000182332
0.000191242
0.000109766
8.02082e-05
6.64397e-05
5.82747e-05
0.000205735
0.000174083
0.00010594
8.10128e-05
6.87505e-05
6.0425e-05
0.000224138
0.000171033
0.000111468
8.898e-05
7.6118e-05
6.50986e-05
0.000237422
0.000176593
0.000123196
0.000102182
8.76761e-05
7.1669e-05
0.000244675
0.000185698
0.000138003
0.000118567
0.000102361
7.94784e-05
0.000244103
0.000196259
0.000154181
0.000136765
0.000118682
8.77556e-05
0.0002371
0.000206397
0.000171487
0.000156213
0.000134801
9.59582e-05
0.00022471
0.000214406
0.000188859
0.000174406
0.000148394
0.00010502
0.000209567
0.000223071
0.000205455
0.00018871
0.000156679
0.00011062
0.000193471
0.000234601
0.000219078
0.000196142
0.000159489
0.000113968
0.000175983
0.000254363
0.000225415
0.000194682
0.000156077
0.000114059
0.000159676
0.000270866
0.000225919
0.00018958
0.000152045
0.000116129
0.000143234
0.000294064
0.000229076
0.000187462
0.000152244
0.00012169
0.000146139
0.000178017
0.000123052
9.18823e-05
7.29532e-05
6.09511e-05
0.000169462
0.000154623
0.000103108
7.70415e-05
6.28615e-05
5.34665e-05
0.000191081
0.000139141
9.5615e-05
7.24863e-05
5.94122e-05
4.97604e-05
0.000208563
0.000132749
9.7079e-05
7.54576e-05
6.11013e-05
4.95097e-05
0.000224219
0.000132571
0.00010417
8.50558e-05
6.83627e-05
5.27666e-05
0.000237839
0.000136776
0.00011429
9.97353e-05
8.10681e-05
5.95873e-05
0.000249218
0.000144883
0.000126322
0.000117305
9.76406e-05
6.94301e-05
0.00025642
0.00015727
0.00014191
0.000136276
0.000115188
8.13659e-05
0.000255713
0.000174523
0.000161556
0.000153977
0.000130423
9.43003e-05
0.000245782
0.000194566
0.000182918
0.000169741
0.000141965
0.000104035
0.000229532
0.000211492
0.000201555
0.000181283
0.000148836
0.0001103
0.000208669
0.000227026
0.00021109
0.000182851
0.000147276
0.000110732
0.000185686
0.000232997
0.000210301
0.000178014
0.000143557
0.000112441
0.000162089
0.000238121
0.00020814
0.000175006
0.000143859
0.000117466
0.000148112
0.000307898
0.000159386
0.000105466
8.16404e-05
6.92348e-05
0.000175628
0.000281667
0.000149274
0.000102578
8.12685e-05
6.93448e-05
0.000194455
0.000267781
0.000153547
0.000109117
8.6344e-05
7.22653e-05
0.000205877
0.000260803
0.00016601
0.000121171
9.37375e-05
7.49373e-05
0.000210114
0.00025527
0.000181101
0.000134652
0.000100787
7.49896e-05
0.000207774
0.000250851
0.000194598
0.00014645
0.000105157
7.18475e-05
0.000200893
0.000249265
0.000203645
0.000154153
0.000105009
6.63062e-05
0.000193036
0.000252225
0.00020464
0.000153394
0.000100306
5.99729e-05
0.000184225
0.000260998
0.000197253
0.000144022
9.19177e-05
5.38323e-05
0.000174591
0.000274408
0.000182933
0.000128441
8.17104e-05
4.93836e-05
0.000163922
0.000286615
0.000168122
0.000113485
7.41365e-05
4.83413e-05
0.000152502
0.000301131
0.000158602
0.000103404
7.10467e-05
5.0951e-05
0.000140131
0.000310604
0.000160709
0.000101833
7.34895e-05
5.67947e-05
0.000127412
0.000334354
0.000172642
0.000108802
8.12043e-05
6.57545e-05
0.000148771
0.0002309
0.00013209
9.43419e-05
7.51905e-05
6.426e-05
0.000179124
0.00021764
0.000121063
8.66188e-05
7.02447e-05
6.08236e-05
0.000203742
0.000219698
0.000124981
9.01485e-05
7.2935e-05
6.22598e-05
0.000221243
0.000232274
0.000141979
0.000103591
8.1556e-05
6.63442e-05
0.000230226
0.000247414
0.000168874
0.000124815
9.46736e-05
7.12776e-05
0.000230484
0.000257223
0.000199242
0.000150426
0.000109607
7.56422e-05
0.000224532
0.000255683
0.000224736
0.000175209
0.000122064
7.8359e-05
0.00021567
0.000248612
0.000238046
0.000189546
0.000128467
7.87354e-05
0.00020468
0.000249935
0.000238171
0.000187987
0.000125482
7.53341e-05
0.000192473
0.000255427
0.00022452
0.000173022
0.000114239
6.88259e-05
0.000180335
0.00025728
0.000203224
0.000150966
0.000100085
6.29442e-05
0.000167026
0.0002589
0.000180845
0.000129928
8.91799e-05
6.05866e-05
0.000151865
0.000257879
0.000165854
0.000117335
8.45928e-05
6.21945e-05
0.000136601
0.000267925
0.000161311
0.000112877
8.54826e-05
6.70914e-05
0.000135916
0.000161029
0.000113506
8.78277e-05
7.21791e-05
6.21928e-05
0.000159799
0.000146464
9.6972e-05
7.44145e-05
6.23424e-05
5.48572e-05
0.000184972
0.000145977
9.37423e-05
7.14413e-05
5.96404e-05
5.20956e-05
0.000208854
0.000154924
0.000103847
7.87934e-05
6.38859e-05
5.35406e-05
0.000229951
0.000172884
0.000126322
9.70909e-05
7.59438e-05
5.90138e-05
0.000246917
0.000197187
0.000158249
0.000125151
9.51562e-05
6.82474e-05
0.000256779
0.00022204
0.000193852
0.000157506
0.000117277
7.95994e-05
0.000257757
0.000244586
0.000224904
0.000184994
0.000135638
8.91538e-05
0.000249261
0.000260469
0.000243619
0.00019908
0.000143296
9.23403e-05
0.000233761
0.000266796
0.000243521
0.000195042
0.000138472
8.89421e-05
0.000214023
0.000258231
0.000225088
0.000175267
0.00012396
8.10424e-05
0.000190925
0.000242497
0.000198183
0.000150566
0.0001083
7.42077e-05
0.00016683
0.000223975
0.000175169
0.000132255
9.81428e-05
7.14761e-05
0.000145025
0.000209792
0.000160195
0.000121596
9.44168e-05
7.34377e-05
5.17607e-05
4.40223e-05
4.107e-05
4.11218e-05
4.38779e-05
4.57652e-05
4.54783e-05
4.26174e-05
3.81538e-05
3.4582e-05
3.37514e-05
3.6843e-05
4.36094e-05
5.29936e-05
3.89809e-05
2.81125e-05
2.24229e-05
1.97271e-05
2.01627e-05
2.15237e-05
2.26315e-05
2.25886e-05
2.15947e-05
2.0829e-05
2.22466e-05
2.66823e-05
3.47256e-05
4.7397e-05
2.94812e-05
1.7979e-05
1.13221e-05
7.88202e-06
6.93579e-06
7.24345e-06
8.10984e-06
8.90374e-06
9.5897e-06
1.07843e-05
1.40589e-05
2.01786e-05
3.05533e-05
4.67719e-05
2.51953e-05
1.30671e-05
6.03504e-06
2.87641e-06
1.80791e-06
1.66043e-06
1.99321e-06
2.60343e-06
3.56802e-06
5.32993e-06
8.92147e-06
1.58253e-05
2.86033e-05
4.89124e-05
2.52774e-05
1.17499e-05
4.17252e-06
1.36329e-06
5.01529e-07
2.89915e-07
3.62787e-07
6.61626e-07
1.34878e-06
2.90005e-06
6.53228e-06
1.4692e-05
3.01599e-05
5.33652e-05
2.77622e-05
1.19816e-05
3.85036e-06
1.20986e-06
3.66791e-07
1.17465e-07
1.04465e-07
2.66572e-07
7.9962e-07
2.36742e-06
6.53473e-06
1.59167e-05
3.26739e-05
5.60053e-05
3.16214e-05
1.29939e-05
4.32929e-06
1.54137e-06
5.44248e-07
2.18975e-07
1.88184e-07
3.82683e-07
1.06331e-06
3.03848e-06
7.94656e-06
1.80004e-05
3.42787e-05
5.52359e-05
3.70711e-05
1.52588e-05
5.58206e-06
2.40637e-06
1.11389e-06
6.22716e-07
5.81618e-07
9.16465e-07
1.91865e-06
4.41348e-06
9.83086e-06
1.96813e-05
3.40346e-05
5.11406e-05
4.35782e-05
1.93532e-05
7.7363e-06
4.11501e-06
2.44314e-06
1.69927e-06
1.63104e-06
2.19828e-06
3.61881e-06
6.55079e-06
1.20186e-05
2.08708e-05
3.26596e-05
4.59923e-05
5.02082e-05
2.52295e-05
1.122e-05
7.14416e-06
5.16087e-06
4.14062e-06
3.97264e-06
4.72569e-06
6.49426e-06
9.65723e-06
1.47736e-05
2.23328e-05
3.19571e-05
4.30665e-05
5.58097e-05
3.13614e-05
1.68193e-05
1.22582e-05
1.01707e-05
9.0944e-06
8.83685e-06
9.57204e-06
1.14218e-05
1.46065e-05
1.93505e-05
2.62325e-05
3.45471e-05
4.56607e-05
6.24164e-05
4.1266e-05
2.67593e-05
2.03992e-05
1.85352e-05
1.79121e-05
1.81212e-05
1.90848e-05
2.09528e-05
2.40417e-05
2.829e-05
3.54113e-05
4.30343e-05
5.38173e-05
7.01209e-05
5.23741e-05
3.84527e-05
3.14142e-05
3.00526e-05
3.05852e-05
3.25436e-05
3.50996e-05
3.79289e-05
4.13841e-05
4.47101e-05
5.01389e-05
5.58263e-05
6.55636e-05
7.93987e-05
6.67489e-05
5.40455e-05
4.59751e-05
4.35742e-05
4.47596e-05
4.91444e-05
5.47702e-05
6.00128e-05
6.46419e-05
6.72787e-05
6.94089e-05
7.21559e-05
7.78922e-05
4.0027e-05
3.1276e-05
2.7453e-05
2.64678e-05
2.80615e-05
3.01096e-05
3.16207e-05
3.15313e-05
2.99475e-05
2.77157e-05
2.67156e-05
2.89519e-05
3.51722e-05
4.25766e-05
2.99008e-05
1.95224e-05
1.42844e-05
1.20206e-05
1.20766e-05
1.3161e-05
1.46765e-05
1.56585e-05
1.58841e-05
1.56177e-05
1.62127e-05
1.94431e-05
2.57938e-05
3.48086e-05
2.21883e-05
1.20846e-05
6.74826e-06
4.44754e-06
3.82712e-06
4.05683e-06
4.80577e-06
5.63697e-06
6.42618e-06
7.37406e-06
9.31066e-06
1.35544e-05
2.08324e-05
3.19629e-05
1.98039e-05
9.1021e-06
3.61245e-06
1.55181e-06
9.23265e-07
8.46772e-07
1.06381e-06
1.46719e-06
2.11807e-06
3.27753e-06
5.49077e-06
9.82052e-06
1.80061e-05
3.1594e-05
2.05767e-05
8.65627e-06
2.77829e-06
8.39853e-07
2.81169e-07
1.43741e-07
1.75305e-07
3.36812e-07
7.3169e-07
1.64214e-06
3.72995e-06
8.52269e-06
1.83028e-05
3.40776e-05
2.25348e-05
8.96061e-06
2.72637e-06
8.06323e-07
2.28214e-07
6.63903e-08
5.17257e-08
1.32918e-07
4.13115e-07
1.25603e-06
3.58954e-06
9.23161e-06
2.02339e-05
3.68141e-05
2.49022e-05
9.60104e-06
3.05845e-06
9.9287e-07
3.21584e-07
1.22796e-07
1.00536e-07
1.94266e-07
5.39054e-07
1.60263e-06
4.48145e-06
1.09464e-05
2.24899e-05
3.84304e-05
2.81933e-05
1.10397e-05
3.84726e-06
1.49764e-06
6.40703e-07
3.51424e-07
3.28229e-07
4.94504e-07
1.01819e-06
2.43598e-06
5.85266e-06
1.27555e-05
2.38865e-05
3.81287e-05
3.16129e-05
1.36447e-05
5.19283e-06
2.56991e-06
1.44363e-06
9.99504e-07
9.69523e-07
1.27661e-06
2.08188e-06
3.89469e-06
7.6387e-06
1.43994e-05
2.43757e-05
3.63421e-05
3.61132e-05
1.73337e-05
7.44827e-06
4.61159e-06
3.24391e-06
2.58995e-06
2.50088e-06
2.95436e-06
4.05923e-06
6.17104e-06
9.92733e-06
1.60392e-05
2.45626e-05
3.45569e-05
4.0597e-05
2.17175e-05
1.138e-05
8.2781e-06
6.87375e-06
6.08857e-06
5.87628e-06
6.31845e-06
7.56065e-06
9.82778e-06
1.34278e-05
1.88921e-05
2.62856e-05
3.54423e-05
4.72282e-05
2.98186e-05
1.84738e-05
1.45457e-05
1.33801e-05
1.28393e-05
1.26983e-05
1.30426e-05
1.41356e-05
1.63277e-05
1.97999e-05
2.51589e-05
3.20177e-05
4.23848e-05
5.52445e-05
4.00359e-05
2.8515e-05
2.39102e-05
2.31728e-05
2.35697e-05
2.42596e-05
2.51304e-05
2.63042e-05
2.8288e-05
3.11451e-05
3.64132e-05
4.27951e-05
5.38949e-05
6.64291e-05
5.53076e-05
4.29695e-05
3.67999e-05
3.54109e-05
3.69305e-05
3.92907e-05
4.174e-05
4.38672e-05
4.61306e-05
4.8206e-05
5.15071e-05
5.56791e-05
6.41468e-05
2.7082e-05
1.87089e-05
1.49346e-05
1.34558e-05
1.39493e-05
1.55056e-05
1.75958e-05
1.91191e-05
1.97354e-05
1.94715e-05
1.90032e-05
1.97461e-05
2.40191e-05
3.03956e-05
1.96089e-05
1.1078e-05
7.13104e-06
5.58501e-06
5.40123e-06
6.00191e-06
7.1787e-06
8.3782e-06
9.33253e-06
9.86201e-06
1.03351e-05
1.19495e-05
1.62283e-05
2.24619e-05
1.51097e-05
6.99261e-06
3.21886e-06
1.91027e-06
1.5771e-06
1.69043e-06
2.11909e-06
2.69472e-06
3.34593e-06
4.08068e-06
5.22234e-06
7.54886e-06
1.19818e-05
1.86348e-05
1.45929e-05
5.78609e-06
1.90479e-06
7.00208e-07
3.7705e-07
3.36805e-07
4.38402e-07
6.44026e-07
9.91544e-07
1.61297e-06
2.79803e-06
5.04132e-06
9.27847e-06
1.66616e-05
1.5118e-05
5.59639e-06
1.64858e-06
4.72237e-07
1.44525e-07
6.2366e-08
7.07886e-08
1.41804e-07
3.2553e-07
7.61638e-07
1.7528e-06
3.97727e-06
8.726e-06
1.73996e-05
1.57015e-05
5.59875e-06
1.66527e-06
4.75153e-07
1.27602e-07
3.39029e-08
2.22039e-08
5.60579e-08
1.78678e-07
5.49775e-07
1.58634e-06
4.19406e-06
9.77698e-06
1.95508e-05
1.63798e-05
5.79136e-06
1.83484e-06
5.513e-07
1.65519e-07
5.9543e-08
4.55189e-08
8.27451e-08
2.27345e-07
6.90579e-07
2.00788e-06
5.21278e-06
1.16502e-05
2.20987e-05
1.75562e-05
6.46469e-06
2.23061e-06
7.85329e-07
3.12104e-07
1.71877e-07
1.60009e-07
2.27599e-07
4.52002e-07
1.10079e-06
2.79212e-06
6.58217e-06
1.35593e-05
2.39848e-05
1.90917e-05
7.72916e-06
2.93785e-06
1.33639e-06
7.18112e-07
5.11096e-07
5.02767e-07
6.37104e-07
1.00278e-06
1.89987e-06
3.95606e-06
8.1349e-06
1.52093e-05
2.50116e-05
2.19609e-05
9.63083e-06
4.27913e-06
2.5211e-06
1.72684e-06
1.39526e-06
1.35914e-06
1.57958e-06
2.13052e-06
3.27634e-06
5.56822e-06
9.7945e-06
1.6496e-05
2.53787e-05
2.52895e-05
1.22696e-05
6.78207e-06
4.94572e-06
3.99952e-06
3.48487e-06
3.32258e-06
3.5476e-06
4.25541e-06
5.62201e-06
7.99506e-06
1.20164e-05
1.81568e-05
2.61984e-05
3.09301e-05
1.78723e-05
1.14772e-05
9.534e-06
8.5698e-06
7.91546e-06
7.54122e-06
7.5636e-06
8.20276e-06
9.70943e-06
1.22028e-05
1.60885e-05
2.1744e-05
2.94325e-05
3.82036e-05
2.65369e-05
1.92371e-05
1.70626e-05
1.64134e-05
1.59489e-05
1.55456e-05
1.53015e-05
1.55627e-05
1.68299e-05
1.92705e-05
2.33659e-05
2.87483e-05
3.79385e-05
5.02932e-05
4.022e-05
3.07728e-05
2.78139e-05
2.75026e-05
2.77903e-05
2.80194e-05
2.80285e-05
2.79839e-05
2.85581e-05
3.01133e-05
3.37351e-05
3.85788e-05
4.81042e-05
1.60949e-05
9.80472e-06
7.07723e-06
5.86805e-06
5.7202e-06
6.32214e-06
7.56544e-06
8.96794e-06
1.02602e-05
1.11395e-05
1.17223e-05
1.21608e-05
1.40683e-05
1.81802e-05
1.18983e-05
5.6032e-06
3.02216e-06
2.16095e-06
1.96034e-06
2.10773e-06
2.57184e-06
3.20176e-06
3.89404e-06
4.55079e-06
5.22005e-06
6.16665e-06
8.51337e-06
1.27357e-05
1.03007e-05
3.89382e-06
1.36477e-06
6.70172e-07
5.06223e-07
5.14175e-07
6.36593e-07
8.38806e-07
1.11043e-06
1.48322e-06
2.11682e-06
3.37181e-06
5.82044e-06
9.70271e-06
1.01458e-05
3.44111e-06
9.39807e-07
2.83862e-07
1.22647e-07
9.14959e-08
1.11354e-07
1.65752e-07
2.72909e-07
5.02569e-07
1.01512e-06
2.08706e-06
4.15722e-06
7.68814e-06
9.81324e-06
3.19174e-06
8.84792e-07
2.4548e-07
6.75936e-08
2.09394e-08
1.65353e-08
3.33947e-08
8.73876e-08
2.39341e-07
6.29589e-07
1.54725e-06
3.52592e-06
7.35877e-06
9.40999e-06
3.04575e-06
9.04434e-07
2.52251e-07
6.43524e-08
1.51942e-08
6.69852e-09
1.50396e-08
5.24805e-08
1.77101e-07
5.45582e-07
1.52037e-06
3.79689e-06
8.37508e-06
9.12077e-06
3.09978e-06
9.78562e-07
2.73659e-07
7.5458e-08
2.45778e-08
1.62305e-08
2.52856e-08
6.6975e-08
2.13165e-07
6.66864e-07
1.89785e-06
4.74551e-06
1.02264e-05
9.42507e-06
3.48105e-06
1.14462e-06
3.59049e-07
1.29596e-07
6.97319e-08
6.31325e-08
8.00514e-08
1.43072e-07
3.49927e-07
9.64985e-07
2.56532e-06
6.0475e-06
1.23029e-05
1.04128e-05
4.1377e-06
1.45773e-06
5.91659e-07
2.98694e-07
2.18524e-07
2.16526e-07
2.55016e-07
3.64969e-07
6.73453e-07
1.50277e-06
3.49799e-06
7.54665e-06
1.43111e-05
1.23217e-05
4.98968e-06
2.1733e-06
1.17692e-06
7.74385e-07
6.39126e-07
6.32529e-07
7.09997e-07
9.02758e-07
1.35248e-06
2.40778e-06
4.73601e-06
9.13329e-06
1.6023e-05
1.44993e-05
6.44324e-06
3.73835e-06
2.5841e-06
1.99382e-06
1.71515e-06
1.64322e-06
1.74599e-06
2.05514e-06
2.69233e-06
3.95029e-06
6.46788e-06
1.09854e-05
1.7728e-05
1.82864e-05
9.81851e-06
6.92807e-06
5.64726e-06
4.78755e-06
4.22088e-06
3.92542e-06
3.92483e-06
4.29786e-06
5.1569e-06
6.63148e-06
9.17691e-06
1.34966e-05
1.98832e-05
2.37812e-05
1.60407e-05
1.28085e-05
1.13502e-05
1.02916e-05
9.36591e-06
8.64134e-06
8.24869e-06
8.38911e-06
9.30819e-06
1.10405e-05
1.37943e-05
1.78854e-05
2.41984e-05
3.39442e-05
2.62485e-05
2.16768e-05
2.02831e-05
1.93706e-05
1.83633e-05
1.72194e-05
1.61214e-05
1.55041e-05
1.59043e-05
1.75074e-05
2.06089e-05
2.44939e-05
3.13884e-05
9.58025e-06
4.82107e-06
2.96414e-06
2.23794e-06
2.0326e-06
2.16146e-06
2.65238e-06
3.40128e-06
4.3364e-06
5.32385e-06
6.22242e-06
6.83999e-06
7.72091e-06
9.69705e-06
7.70379e-06
2.90759e-06
1.13568e-06
6.71931e-07
5.70811e-07
5.95023e-07
7.32729e-07
9.69333e-07
1.29729e-06
1.70486e-06
2.1843e-06
2.78608e-06
3.925e-06
6.33695e-06
6.95957e-06
2.21333e-06
5.56981e-07
1.89412e-07
1.19583e-07
1.16608e-07
1.45393e-07
1.99652e-07
2.85362e-07
4.26954e-07
6.92526e-07
1.24849e-06
2.40416e-06
4.51234e-06
6.57187e-06
1.95983e-06
4.53966e-07
1.11443e-07
3.4529e-08
1.8187e-08
1.99197e-08
3.04451e-08
5.57252e-08
1.22088e-07
2.96866e-07
7.16443e-07
1.60248e-06
3.24573e-06
5.94726e-06
1.73764e-06
4.53142e-07
1.18275e-07
2.93316e-08
6.72442e-09
2.80683e-09
5.34767e-09
1.7348e-08
5.84334e-08
1.80936e-07