/*--------------------------------*- C++ -*----------------------------------*\
| =========                 |                                                 |
| \\      /  F ield         | OpenFOAM: The Open Source CFD Toolbox           |
|  \\    /   O peration     | Version:  v2106                                 |
|   \\  /    A nd           | Website:  www.openfoam.com                      |
|    \\/     M anipulation  |                                                 |
\*---------------------------------------------------------------------------*/
FoamFile
{
    version     2.0;
    format      ascii;
    arch        "LSB;label=32;scalar=64";
    class       volScalarField;
    location    "0.000161";
    object      p;
}
// * * * * * * * * * * * * * * * * * * * * * * * * * * * * * * * * * * * * * //

dimensions      [1 -1 -2 0 0 0 0];

internalField   nonuniform List<scalar> 
144746
(
199158
199407
198973
198908
198740
198750
198653
198503
198243
198077
197981
198086
198248
198657
198317
198447
198218
198288
198220
198221
198157
198066
197947
197859
197809
197952
198143
198671
197899
198072
197913
197913
197839
197840
197801
197717
197635
197566
197522
197576
197710
198155
197496
197614
197601
197656
197581
197572
197528
197471
197439
197402
197385
197428
197604
197965
197316
197408
197395
197439
197353
197328
197282
197244
197189
197162
197144
197181
197392
197635
197209
197238
197263
197266
197163
197123
197075
197046
196998
196961
196960
197012
197240
197540
197258
197186
197182
197108
196978
196912
196867
196844
196811
196773
196774
196828
197045
197323
197338
197146
197069
196936
196800
196718
196674
196650
196634
196597
196603
196631
196840
197081
197466
197107
196929
196716
196560
196484
196475
196473
196478
196433
196457
196479
196672
196887
197560
197030
196736
196429
196272
196212
196233
196254
196293
196285
196347
196401
196623
196869
197830
197016
196587
196132
195941
195878
195927
195994
196106
196170
196320
196423
196732
197000
197914
196954
196426
195847
195594
195501
195606
195773
196032
196228
196522
196699
197176
197336
198356
197283
196450
195686
195365
195207
195330
195563
195934
196265
196747
196997
197779
197857
198593
197266
196438
195738
195311
195093
195205
195541
196083
196581
197217
197643
198424
198823
199349
199408
198746
198603
198339
198218
198056
197917
197874
197993
198247
198423
198603
198816
198932
198893
198544
198520
198337
198234
198111
198008
197998
198119
198254
198398
198478
198666
198791
198771
198477
198429
198292
198224
198097
197983
197895
197919
197981
197997
197943
197934
198516
198460
198308
198287
198185
198112
198031
197935
197910
197888
197895
197861
197810
197706
198256
198236
198156
198161
198048
197974
197903
197809
197770
197727
197686
197590
197533
197311
198021
197976
197976
197976
197891
197839
197768
197690
197645
197595
197537
197398
197270
197029
197929
197881
197917
197888
197793
197715
197638
197570
197509
197428
197354
197175
197027
196761
197928
197855
197870
197776
197683
197597
197511
197425
197363
197269
197211
197013
196892
196650
198001
197849
197827
197673
197561
197474
197403
197316
197245
197145
197070
196923
196880
196727
198100
197885
197803
197645
197486
197326
197231
197137
197093
197018
196969
196887
196971
196936
198400
197988
197831
197574
197416
197246
197123
197012
196979
196946
196973
196958
197162
197194
198482
197985
197750
197437
197240
197029
196918
196863
196923
196976
197127
197166
197542
197558
198996
198394
197831
197329
197081
196801
196655
196617
196739
196878
197162
197255
197968
197901
199182
198171
197695
197246
196904
196561
196420
196456
196710
197014
197421
197577
198283
198666
200203
200460
199366
198969
198391
197861
197447
197178
197216
197534
197968
198431
198861
199068
199992
200214
199585
199291
198855
198479
198210
198070
198108
198426
198727
199106
199288
199349
199651
199960
199588
199378
199097
198826
198593
198465
198433
198526
198672
198693
198634
198285
199153
199521
199451
199346
199184
199022
198873
198738
198705
198689
198673
198538
198330
197902
198633
199139
199216
199197
199112
199000
198875
198774
198699
198603
198487
198221
197855
197257
198140
198777
198999
199037
199002
198916
198781
198689
198595
198462
198229
197833
197283
196519
197929
198508
198790
198835
198856
198792
198710
198580
198425
198276
197969
197463
196798
195930
197845
198331
198667
198738
198683
198604
198522
198374
198222
197974
197639
197140
196450
195528
197898
198242
198529
198584
198584
198443
198339
198196
198044
197845
197463
196990
196357
195477
198056
198253
198403
198376
198277
198159
198033
197923
197798
197611
197305
196922
196549
195728
198378
198315
198322
198149
197919
197696
197578
197491
197433
197364
197200
196973
196917
196193
198395
198243
198131
197846
197556
197203
197016
196955
196999
197065
197102
196962
197195
196636
199126
198692
198182
197586
197052
196559
196330
196300
196426
196608
196797
196730
197359
196983
199232
198323
197847
197199
196564
195916
195560
195528
195800
196165
196635
196645
197410
197638
199682
200434
200795
201455
201627
202229
198704
199409
200140
201029
201618
202343
198688
199536
200369
201209
201893
202761
198504
199307
200270
201265
201948
202827
198405
199349
200330
201420
202096
203105
198271
199200
200123
201382
202061
203154
197945
198909
199860
201263
202080
203240
197631
198550
199453
201017
202012
203274
197426
198385
199370
200849
201887
203228
197427
198262
199329
200748
201904
203118
197793
198625
199719
200933
202074
203045
198381
199173
200195
201311
202364
203339
198990
199757
200694
201698
202545
203366
199634
200351
201119
202053
202918
203798
199845
200610
200835
201364
201673
202199
198292
198720
199171
199714
200422
201159
197994
198243
198746
199263
200030
200516
197465
197539
198019
198674
199451
200409
197080
197181
197729
198782
199518
201211
196752
197008
197629
199140
199736
202489
196631
197090
197793
199482
200327
202999
196560
197068
197879
199780
200779
203441
196766
197315
198204
200057
201184
203976
197231
197857
198918
200727
202104
204367
197838
198574
199785
201389
202809
204600
198524
199252
200412
201834
203151
204840
198972
199636
200648
201850
202958
204095
199229
199816
200644
201746
202729
203762
200532
200732
200266
199443
198783
197958
198538
198539
198334
197632
197193
195272
198101
197986
197820
197070
196722
194024
197430
197075
196813
196044
196203
193540
196631
196064
195757
195339
196048
194238
195725
195004
194666
194924
195752
196209
195125
194415
194285
195531
196497
199088
194760
194064
194290
196423
197851
202141
194921
194524
195010
197156
198784
203891
195457
195333
196104
198061
199858
204386
196295
196437
197359
198896
200509
203797
197071
197369
198339
199380
200454
202663
197795
198065
198849
199549
200099
201327
197638
197843
198381
198940
199360
199882
200024
201159
201676
202578
202835
203514
198705
199943
200845
202099
202847
203612
198435
199799
200626
201898
202752
203895
197727
199001
199929
201460
202392
203907
197088
198414
199491
201213
202303
203910
196378
197575
198799
200711
202087
203836
195782
196913
198375
200398
201831
203828
195435
196412
197929
200108
201625
203670
195434
196377
197927
200115
201664
203495
195707
196770
198295
200269
201698
203298
196392
197508
198907
200622
201960
203373
197366
198424
199652
201069
202286
203322
198334
199316
200299
201553
202658
203824
199099
200129
200933
202156
203129
204051
199505
200549
200910
201836
202185
203074
198044
198879
199617
201028
201899
203322
197904
198761
199441
200968
201770
203803
197485
198146
198916
200587
201287
204003
197118
197787
198670
200203
201032
204171
196684
197154
197976
199699
200783
204338
196367
196953
197721
199480
200444
205325
196230
196777
197523
199497
200360
205695
196428
197062
197928
200090
201217
205373
196881
197547
198558
200690
201811
205387
197529
198239
199369
201294
202389
205470
198281
199097
200161
201711
202848
204708
199008
199708
200542
201913
203135
204595
199201
200120
200819
202173
203130
204123
198901
199585
199549
199666
199618
199900
196729
197411
197844
198455
198962
199702
196657
197329
197741
198480
199105
199717
196100
196420
196705
197859
198676
200826
195588
195820
196260
198017
199474
202714
195092
195114
195598
197809
199589
204542
194830
194739
195486
198041
200076
206267
194896
194716
195673
198390
200507
207083
195398
195482
196612
199186
200955
207347
196273
196640
197788
200011
201569
207229
197296
197898
198914
200573
201904
206977
198284
198922
199927
201387
202131
205285
199032
199540
200326
201504
202205
204108
198748
199503
200062
201227
201894
202915
203713
202631
201723
200674
199823
199157
202972
201926
201144
200212
199434
198941
203274
201938
200976
199725
198873
198180
203417
201812
200779
199302
198421
197736
203877
201860
200682
198947
198002
197417
204337
201963
200708
198873
197877
197287
205341
202008
200684
198927
197888
197328
206213
201626
200663
199215
198230
197510
205407
202008
201136
199520
198618
197748
204637
202532
201723
200007
199092
197985
204358
202601
201829
200237
199375
198267
204284
202969
202095
200685
199903
198623
203878
203040
202096
200714
199893
198607
203860
203132
202735
201717
201237
199901
204492
203122
201753
200690
199831
199274
204643
203073
202309
201237
200248
199702
205797
203167
202283
200760
199763
199109
206244
202864
202106
200360
199460
198817
206560
202260
201601
199668
198887
198411
206913
201367
200957
199132
198506
198129
205953
201077
200603
198776
198280
197949
205172
200883
200421
198781
198300
197946
204478
200759
200286
198775
198334
198028
204088
200936
200662
199338
198746
198190
204447
200838
200793
199531
199059
198404
204292
201731
201439
200048
199609
198696
204010
202330
201588
200084
199622
198639
203854
202957
202573
201514
201389
200207
202754
201793
201091
200578
199893
199825
205351
203184
202611
201505
200746
200759
208053
203471
202238
201037
200186
199932
208582
203349
202078
200359
199403
199150
209221
202814
201455
199308
198528
198400
209210
202226
200719
198312
197721
197820
208997
201851
200008
197476
197127
197421
208519
201686
199828
197283
197046
197263
207505
201194
199495
197235
197201
197302
205587
201121
199807
197789
197655
197480
204107
200720
199691
198199
198179
197795
202847
200766
200362
199132
199051
198208
202347
200862
200476
199369
199147
198288
202809
202036
202027
201431
201651
200668
202654
201818
201082
200303
199545
199044
202749
201814
201016
200263
199500
199036
202906
202003
201023
200073
199234
198662
203533
202355
201269
200084
199180
198560
204050
202652
201631
200200
199256
198577
204451
202901
202043
200510
199606
198783
204762
203284
202488
200893
200085
199124
204864
203517
202832
201337
200455
199388
204726
203511
202842
201486
200600
199545
204570
203510
202823
201533
200594
199477
204112
203161
202447
201285
200483
199454
203980
203146
202462
201428
200560
199486
203850
202742
202144
201097
200212
199258
203425
202948
202598
201761
201244
200289
203825
202661
201498
200519
199568
199141
204577
203125
202103
201121
200056
199573
205067
203301
202077
200737
199649
199059
205565
203108
201864
200301
199311
198773
205530
202568
201461
199650
198816
198378
205257
201814
200938
199100
198441
198020
204748
201390
200722
198833
198351
197970
204587
200674
200160
198766
198347
197968
204075
200684
200172
198794
198326
198068
202845
200829
200075
198877
198393
198241
202008
200715
199940
199018
198611
198580
202116
201341
200435
199618
199174
198762
202217
201311
200628
199899
199394
198893
202857
202393
202069
201459
201175
200481
200525
199809
199265
199035
198567
198770
202531
201151
200615
200035
199380
199666
204739
201697
200290
199343
198625
198733
205945
201644
199655
198310
197666
198012
206006
200755
199063
197029
196563
197175
205706
199877
198342
196134
195948
196638
204089
199101
197689
195677
195573
196321
201822
198194
196991
195654
195836
196589
199019
197170
196570
195991
196352
197076
196899
197652
196867
197000
197265
197851
196517
197758
197371
197974
198160
198490
196983
198556
198546
199083
199187
199149
197812
199022
199291
199751
199748
199604
200411
200908
201468
201959
202289
201767
203556
203423
202163
201470
200759
199940
199338
199022
198976
199333
199962
200885
201733
202915
202410
202548
201968
201485
201125
200586
200170
199970
200090
200387
200985
201723
202318
203161
201620
201955
201583
201358
201243
200947
200709
200606
200620
200830
201165
201535
201908
201996
200678
201215
201197
201147
201155
201006
200883
200843
200942
201076
201251
201424
201462
201327
199919
200545
200704
200870
200949
200920
200834
200887
200983
201077
201162
201168
200943
200478
199363
200081
200388
200630
200743
200720
200779
200796
200842
200898
200885
200656
200163
199375
198997
199694
200155
200418
200559
200596
200628
200625
200633
200554
200516
200114
199441
198447
198805
199529
199954
200206
200334
200360
200417
200390
200397
200306
200036
199600
198861
197739
198892
199515
199894
200078
200155
200156
200186
200152
200159
200067
199825
199358
198558
197435
199163
199641
199893
199959
199931
199895
199884
199856
199901
199833
199622
199188
198591
197556
199594
199740
199870
199876
199745
199590
199470
199517
199587
199565
199455
199228
198943
197973
199819
199907
199878
199677
199395
199141
198918
198963
199078
199203
199267
199270
199405
198567
200965
200420
199948
199383
198846
198381
198133
198152
198359
198700
198963
199146
199787
199263
201119
200090
199558
198832
198088
197330
197000
197080
197450
197992
198657
198956
200084
200203
205176
205221
204128
203493
202870
202068
201417
200974
200859
201141
201650
202680
203717
205224
203844
204094
203683
203290
202960
202456
202093
201883
201941
202217
202793
203605
204447
205671
202885
203334
203124
203025
202905
202612
202419
202330
202421
202644
203107
203622
204311
204804
201846
202555
202582
202712
202690
202608
202520
202564
202682
202915
203243
203580
203945
204168
201057
201872
202164
202407
202469
202414
202487
202554
202675
202841
203055
203257
203423
203379
200596
201424
201827
202124
202229
202285
202360
202430
202524
202628
202761
202785
202624
202266
200284
201139
201613
201893
202034
202109
202193
202261
202329
202371
202346
202230
201857
201247
200288
201001
201466
201711
201827
201881
201968
202029
202095
202109
202006
201707
201191
200407
200561
201110
201424
201554
201633
201654
201717
201771
201834
201846
201745
201413
200829
199905
200980
201337
201493
201459
201416
201376
201408
201474
201556
201608
201525
201251
200714
199759
201530
201524
201458
201326
201159
201034
201045
201142
201294
201423
201417
201261
200984
200085
201957
201821
201554
201224
200881
200612
200519
200653
200932
201180
201374
201434
201550
200735
202986
202152
201583
200938
200353
200021
199861
200043
200436
200907
201323
201618
202073
201422
202772
201695
201081
200259
199482
199021
198928
199231
199791
200503
201259
201753
202830
202422
207373
207387
206706
206139
205607
205002
204561
204205
204116
204252
204745
205682
206861
208568
205865
206178
206053
205774
205478
205110
204891
204784
204915
205300
205815
206639
207579
208916
204664
205261
205317
205358
205258
205119
205045
205083
205268
205588
206053
206748
207580
208376
203655
204495
204740
204958
204959
205024
205064
205222
205430
205738
206155
206681
207261
207757
202935
203895
204293
204608
204742
204842
205018
205193
205405
205653
205946
206290
206668
207007
202497
203436
203933
204288
204510
204708
204880
205065
205263
205468
205679
205893
206059
206111
202254
203148
203684
204037
204291
204508
204687
204872
205053
205199
205296
205437
205393
205242
202277
203029
203509
203830
204065
204272
204448
204631
204799
204926
205005
204953
204795
204436
202512
203086
203411
203669
203839
204007
204174
204356
204523
204657
204725
204657
204421
203900
202986
203314
203470
203504
203590
203692
203840
204035
204234
204401
204493
204426
204192
203642
203452
203499
203474
203386
203333
203366
203498
203697
203912
204190
204368
204387
204279
203579
203988
203812
203532
203260
203027
202923
203050
203265
203640
204019
204328
204487
204637
203990
204943
204078
203557
202990
202657
202442
202458
202744
203226
203791
204295
204773
205153
204571
204712
203628
202987
202292
201855
201669
201709
202122
202743
203492
204253
204954
205950
205649
208897
208965
208546
208177
207810
207393
207129
206888
206883
207145
207536
208220
209311
210903
207408
207955
207950
207818
207606
207383
207272
207220
207380
207748
208367
209166
210106
211175
206380
207146
207284
207375
207324
207304
207327
207441
207692
208060
208562
209188
210032
210787
205595
206475
206732
206970
207047
207167
207280
207499
207772
208138
208580
209118
209752
210282
205017
205885
206285
206603
206799
206981
207201
207432
207696
208022
208386
208785
209226
209675
204596
205413
205905
206281
206551
206821
207051
207299
207559
207854
208155
208469
208760
208987
204363
205112
205625
206019
206322
206610
206859
207109
207354
207601
207814
208053
208198
208253
204338
204963
205436
205801
206097
206374
206625
206880
207126
207359
207547
207665
207703
207564
204493
205007
205311
205624
205871
206121
206360
206623
206879
207107
207293
207381
207343
207054
204885
205207
205359
205465
205642
205836
206063
206339
206616
206876
207097
207163
207141
206716
205262
205356
205361
205369
205427
205548
205738
206019
206329
206667
206967
207092
207170
206603
205753
205565
205350
205193
205137
205205
205392
205671
206039
206480
206886
207120
207366
206777
206378
205720
205373
205019
204842
204748
204931
205258
205761
206336
206862
207311
207635
207200
206327
205275
204776
204322
204171
204135
204301
204721
205315
206025
206709
207461
208183
208097
210446
210672
210526
210376
210252
209995
209905
209774
209866
210128
210541
211110
212015
213291
209163
209835
209968
210038
209997
209947
209941
209971
210155
210479
211002
211752
212644
213546
208377
209199
209376
209617
209705
209838
209906
210074
210329
210688
211175
211786
212551
213367
207690
208578
208920
209254
209444
209631
209820
210058
210346
210718
211168
211722
212351
212975
207233
208040
208508
208907
209196
209470
209703
209965
210257
210611
211014
211479
211982
212509
206908
207645
208187
208620
208960
209280
209546
209821
210110
210440
210802
211188
211599
211981
206708
207400
207929
208375
208736
209068
209353
209638
209923
210227
210529
210830
211125
211373
206671
207259
207758
208177
208520
208843
209132
209426
209717
210008
210288
210522
210716
210830
206864
207291
207626
208011
208305
208605
208889
209191
209494
209789
210054
210260
210386
210357
207103
207389
207605
207832
208086
208345
208620
208934
209260
209585
209870
210087
210199
210071
207383
207504
207617
207726
207876
208075
208332
208663
209026
209400
209753
210009
210200
209983
207746
207625
207562
207538
207611
207774
208012
208369
208778
209241
209710
210025
210339
209972
208106
207690
207504
207344
207302
207403
207633
208019
208517
209099
209684
210162
210487
210217
207983
207275
206920
206750
206764
206832
207124
207624
208221
208931
209593
210290
210750
210769
211900
212274
212408
212432
212429
212365
212332
212361
212515
212771
213182
213696
214415
215360
210973
211710
211890
212116
212194
212299
212356
212492
212710
213027
213496
214113
214932
215712
210290
211143
211425
211763
211953
212159
212302
212521
212803
213162
213625
214179
214857
215573
209773
210591
211039
211441
211721
211978
212188
212461
212767
213143
213596
214126
214726
215322
209425
210167
210700
211143
211485
211799
212057
212344
212659
213029
213455
213929
214439
214947
209141
209851
210424
210888
211261
211599
211888
212187
212502
212859
213258
213680
214129
214550
208993
209652
210200
210663
211045
211388
211694
212004
212320
212665
213027
213389
213755
214072
208942
209519
210035
210471
210836
211171
211483
211804
212128
212472
212813
213127
213428
213650
209029
209493
209923
210309
210635
210953
211263
211594
211936
212287
212616
212910
213143
213283
209224
209570
209846
210133
210423
210719
211033
211382
211752
212123
212468
212752
212959
213020
209368
209650
209834
210014
210226
210480
210790
211159
211566
211977
212358
212651
212876
212849
209662
209715
209751
209834
210000
210212
210518
210910
211358
211833
212289
212639
212950
212767
209877
209695
209674
209645
209726
209905
210193
210620
211117
211686
212225
212689
213042
212925
209848
209320
209171
209131
209265
209477
209796
210297
210853
211511
212116
212732
213127
213232
213661
214203
214441
214660
214770
214879
214952
215078
215254
215517
215890
216345
216952
217642
212936
213733
214013
214356
214555
214772
214924
215128
215377
215698
216125
216633
217299
217973
212402
213223
213630
214051
214343
214616
214842
215106
215411
215774
216213
216705
217283
217892
212015
212794
213320
213777
214130
214446
214716
215015
215342
215725
216163
216655
217197
217744
211722
212463
213042
213522
213912
214262
214564
214878
215216
215599
216026
216483
216970
217450
211498
212213
212811
213296
213700
214063
214380
214706
215046
215422
215832
216257
216702
217130
211378
212051
212620
213092
213494
213858
214183
214519
214864
215234
215619
215997
216389
216746
211374
211935
212469
212911
213298
213654
213984
214330
214682
215050
215415
215758
216091
216380
211425
211905
212360
212760
213114
213454
213786
214143
214508
214883
215239
215564
215859
216075
211639
211966
212301
212613
212937
213253
213588
213958
214345
214736
215102
215424
215690
215841
211747
212042
212289
212510
212771
213052
213385
213766
214184
214608
215001
215333
215601
215723
211968
212108
212238
212390
212580
212829
213155
213552
214007
214480
214929
215280
215579
215630
212103
212140
212187
212232
212346
212553
212878
213299
213793
214343
214857
215271
215633
215666
212107
211812
211733
211819
211969
212180
212526
213005
213561
214189
214765
215273
215646
215817
215596
216238
216533
216857
217050
217245
217398
217584
217804
218085
218450
218855
219372
219906
215026
215835
216198
216605
216879
217157
217382
217639
217922
218255
218664
219115
219675
220216
214602
215400
215883
216347
216698
217026
217311
217619
217949
218323
218747
219199
219707
220211
214304
215067
215625
216114
216509
216872
217193
217529
217882
218275
218707
219164
219653
220131
214061
214806
215391
215895
216311
216697
217040
217391
217757
218155
218581
219015
219468
219896
213885
214606
215196
215698
216117
216506
216859
217220
217590
217982
218396
218810
219228
219619
213802
214477
215034
215518
215927
216312
216669
217035
217407
217792
218186
218565
218940
219286
213802
214390
214906
215358
215747
216121
216478
216850
217226
217607
217984
218333
218661
218962
213880
214381
214828
215229
215584
215941
216295
216672
217055
217438
217803
218133
218435
218683
214084
214451
214779
215105
215429
215766
216118
216504
216902
217295
217663
217984
218263
218461
214206
214530
214783
215021
215290
215591
215939
216334
216753
217171
217555
217884
218159
218327
214416
214586
214754
214921
215127
215394
215738
216147
216599
217055
217476
217819
218111
218248
214517
214646
214724
214774
214916
215154
215498
215929
216420
216929
217404
217787
218118
218239
214502
214390
214385
214466
214590
214815
215182
215655
216207
216794
217330
217755
218099
218264
217734
218439
218786
219173
219443
219701
219933
220172
220431
220734
221099
221476
221925
222328
217275
218088
218523
218972
219313
219639
219936
220248
220567
220919
221323
221741
222216
222655
216965
217743
218271
218763
219165
219546
219893
220255
220625
221016
221433
221851
222292
222701
216738
217488
218064
218575
219009
219423
219804
220192
220587
220997
221426
221848
222275
222671
216545
217282
217875
218398
218847
219276
219674
220076
220484
220897
221319
221721
222117
222475
216436
217142
217723
218238
218685
219114
219517
219924
220333
220740
221152
221535
221901
222223
216412
217048
217601
218093
218527
218949
219350
219756
220160
220557
220947
221302
221633
221918
216446
217009
217519
217967
218377
218784
219179
219582
219981
220369
220741
221071
221370
221607
216565
217023
217471
217862
218239
218626
219012
219412
219808
220192
220550
220860
221132
221346
216760
217106
217434
217765
218104
218469
218848
219250
219649
220038
220391
220690
220946
221121
216929
217200
217445
217688
217976
218305
218676
219082
219495
219900
220260
220564
220816
220971
217107
217250
217405
217577
217810
218111
218483
218902
219339
219771
220154
220474
220734
220868
217175
217280
217326
217416
217601
217881
218255
218695
219162
219633
220046
220401
220690
220827
217102
217027
217032
217110
217272
217551
217947
218430
218956
219482
219949
220322
220641
220787
205893
207610
208921
210329
212366
214226
203086
204103
205330
207058
209646
212490
202298
203111
203762
204912
207339
210800
201171
201471
201834
202579
204447
207902
200172
199805
199744
200278
201713
204353
198915
198013
197569
197822
198699
199761
198110
196828
196155
196138
196791
197103
197625
196049
195209
195223
196327
196626
197743
196138
195374
195440
197106
197594
198672
197067
196605
196918
199283
200061
200036
198772
198991
199785
202232
203460
201474
200701
201655
202684
205130
206732
202830
202725
204195
205461
208135
209575
202512
203139
204935
206956
209905
212116
207643
209438
210843
212054
213357
214919
205211
206343
207802
209684
212022
213959
204551
205574
206710
208117
210259
212219
203597
204167
204967
205963
207593
209281
202616
202644
202656
203051
204194
205697
201383
200715
200055
199849
200255
201132
200398
199060
198012
197278
197318
198171
199794
198018
196652
195724
195764
196599
199667
197749
196269
195237
195488
196425
200165
198414
197066
196150
196899
198090
201458
199928
199236
198840
199992
201501
203018
202007
202015
202250
203581
205418
204630
204152
204941
205786
207657
209535
204339
204463
205832
207552
209963
212337
209534
211294
212737
214177
215283
216541
207829
209245
210824
212614
214638
216482
207419
208650
209984
211569
213459
215363
206661
207546
208607
209968
211608
213028
205800
206204
206866
207461
208230
209163
204787
204702
204597
204256
204177
204280
203988
203345
202322
201375
200670
200363
203395
202182
200586
199252
198248
198113
203286
201563
199837
198292
197362
197522
203664
201765
200316
198723
198168
198682
204571
203031
202124
200914
201072
201908
205960
204907
204629
204132
204800
205920
207507
207065
207504
207937
209276
210617
207768
207756
208699
210008
211941
213878
210569
211774
212977
214125
215090
216152
209546
210744
212009
213456
214976
216422
209229
210339
211543
212921
214438
215971
208681
209544
210496
211618
213000
214409
208076
208553
209108
209887
210894
211663
207376
207342
207374
207554
207566
207678
206794
206199
205707
204892
204193
203530
206307
205297
204351
202874
201725
200797
206211
204955
203616
201820
200373
199367
206564
205256
203678
201967
200521
199598
207354
206005
204933
203691
202662
202181
208441
207489
207008
206263
205845
205907
209731
209349
209468
209483
209844
210502
210486
210516
210899
211546
212690
213843
211694
212359
213328
214232
215171
216139
211216
212102
213088
214254
215525
216876
211198
212089
213067
214228
215506
216824
210857
211568
212388
213376
214496
215514
210561
210992
211517
212123
212782
213527
210054
210098
210210
210300
210600
210611
209745
209372
208895
208499
207817
207088
209394
208685
207857
206971
205578
204514
209360
208420
207409
206081
204473
203213
209646
208665
207707
205961
204401
203144
210230
209456
208455
207045
205937
204865
211185
210514
209920
209105
208446
207840
212281
211998
211883
211696
211734
211790
213177
213188
213483
213714
214277
214995
212822
213233
214081
214695
215530
216364
212776
213415
214259
215180
216296
217469
213004
213643
214465
215430
216615
217760
212837
213391
214077
214955
215946
216874
212705
213066
213546
214144
214720
215205
212444
212512
212680
212822
212921
213007
212272
212086
211854
211447
211015
210177
212126
211649
211015
210112
209047
207590
212182
211539
210594
209476
208005
206511
212404
211742
210722
209619
207898
206490
212864
212348
211430
210411
209001
208022
213591
213170
212586
211824
211091
210469
214535
214269
214098
213827
213682
213525
215415
215425
215610
215705
216013
216330
214410
214602
215254
215655
216282
216816
214631
215066
215735
216436
217360
218387
214987
215454
216151
216940
217942
219003
215038
215497
216095
216778
217678
218548
215047
215357
215780
216247
216853
217362
215019
215095
215229
215353
215484
215573
214956
214800
214661
214383
214033
213639
214954
214599
214112
213302
212473
211155
215029
214530
213823
212691
211645
209928
215252
214693
213856
212697
211646
209780
215639
215146
214466
213429
212381
210864
216201
215812
215294
214625
213811
213003
216972
216732
216523
216173
215904
215605
217762
217700
217822
217839
218033
218144
216164
216238
216661
216912
217392
217758
216601
216863
217372
217900
218643
219489
216987
217301
217858
218523
219402
220350
217180
217502
218002
218643
219433
220274
217273
217488
217846
218326
218906
219499
217346
217392
217560
217744
217937
218126
217393
217249
217185
217039
216791
216585
217480
217190
216888
216371
215586
214783
217612
217195
216690
215899
214824
213655
217866
217414
216791
215817
214697
213377
218244
217839
217252
216397
215372
214053
218731
218411
217912
217267
216518
215482
219357
219138
218877
218510
218071
217610
220022
219874
219901
219856
219858
219891
218198
218154
218411
218533
218862
219098
218729
218871
219244
219632
220219
220840
219144
219376
219841
220392
221137
221952
219434
219698
220131
220695
221429
222194
219618
219802
220136
220594
221115
221665
219777
219822
219989
220215
220401
220600
219918
219804
219747
219659
219463
219384
220066
219807
219567
219171
218557
217984
220242
219859
219423
218763
217824
216900
220510
220090
219553
218760
217654
216610
220880
220483
219964
219201
218179
217196
221310
220984
220577
219934
219170
218339
221845
221603
221332
220934
220503
219881
222390
222224
222190
222036
221928
221799
205095
206840
208269
209622
212128
213967
202755
203889
205254
207137
210062
212870
202131
203050
203876
205205
207871
211722
201173
201672
202332
203460
205797
209936
200016
199963
200307
201282
203587
207597
198516
197974
198073
198994
201117
203837
197379
196423
196320
197246