/*--------------------------------*- C++ -*----------------------------------*\
| =========                 |                                                 |
| \\      /  F ield         | OpenFOAM: The Open Source CFD Toolbox           |
|  \\    /   O peration     | Version:  v2106                                 |
|   \\  /    A nd           | Website:  www.openfoam.com                      |
|    \\/     M anipulation  |                                                 |
\*---------------------------------------------------------------------------*/
FoamFile
{
    version     2.0;
    format      ascii;
    arch        "LSB;label=32;scalar=64";
    class       volScalarField;
    location    "0.000132";
    object      alphat;
}
// * * * * * * * * * * * * * * * * * * * * * * * * * * * * * * * * * * * * * //

dimensions      [1 -1 -1 0 0 0 0];

internalField   nonuniform List<scalar> 
144746
(
1.23719e-05
1.32075e-05
1.47448e-05
1.58824e-05
1.63165e-05
1.58122e-05
1.45952e-05
1.31457e-05
1.1519e-05
9.74107e-06
7.46674e-06
5.00386e-06
3.4025e-06
3.1432e-06
7.39901e-06
6.99788e-06
7.3443e-06
7.75001e-06
7.9383e-06
7.78769e-06
7.35549e-06
6.7686e-06
6.05384e-06
5.25659e-06
4.03372e-06
2.63969e-06
1.92886e-06
2.44444e-06
6.21802e-06
4.50663e-06
3.66902e-06
3.27945e-06
3.10051e-06
2.96688e-06
2.86009e-06
2.68685e-06
2.48061e-06
2.26215e-06
1.75656e-06
1.23825e-06
1.31968e-06
2.60997e-06
7.89221e-06
4.99663e-06
2.99982e-06
1.76612e-06
1.15807e-06
9.01352e-07
8.02547e-07
7.54877e-07
7.37007e-07
7.28274e-07
5.99291e-07
5.78187e-07
1.15196e-06
2.97086e-06
1.1186e-05
7.12212e-06
3.9755e-06
1.91416e-06
8.27414e-07
3.51995e-07
1.82378e-07
1.40147e-07
1.45245e-07
1.64941e-07
1.75668e-07
3.71844e-07
1.22507e-06
3.43986e-06
1.41357e-05
8.97928e-06
4.91254e-06
2.28841e-06
8.92028e-07
2.87151e-07
7.79206e-08
2.41799e-08
1.81657e-08
2.75173e-08
7.95363e-08
3.7778e-07
1.44002e-06
4.01214e-06
1.64416e-05
1.01724e-05
5.43995e-06
2.43807e-06
8.94665e-07
2.62707e-07
5.95584e-08
1.04681e-08
2.44002e-09
8.69697e-09
7.95192e-08
4.50262e-07
1.67047e-06
4.48749e-06
1.87246e-05
1.13766e-05
5.94449e-06
2.57506e-06
9.03538e-07
2.52438e-07
5.76785e-08
1.33517e-08
4.8032e-09
1.10857e-08
9.65817e-08
5.19812e-07
1.83502e-06
4.72635e-06
2.07514e-05
1.22765e-05
6.26765e-06
2.65753e-06
9.26152e-07
2.78002e-07
9.07565e-08
4.38513e-08
2.6798e-08
2.65774e-08
1.16007e-07
5.52332e-07
1.85758e-06
4.63255e-06
2.19651e-05
1.25923e-05
6.27703e-06
2.65192e-06
9.89168e-07
4.01879e-07
2.35307e-07
1.74826e-07
1.26884e-07
9.60816e-08
1.55709e-07
5.19615e-07
1.63383e-06
4.04741e-06
2.18587e-05
1.21477e-05
5.94926e-06
2.60322e-06
1.20281e-06
7.86375e-07
6.8079e-07
5.94637e-07
4.71767e-07
3.55153e-07
3.25754e-07
5.29887e-07
1.28587e-06
3.12284e-06
2.03272e-05
1.10585e-05
5.45946e-06
2.71268e-06
1.81611e-06
1.73594e-06
1.76816e-06
1.6586e-06
1.40775e-06
1.11154e-06
8.84581e-07
8.3577e-07
1.11681e-06
2.23133e-06
1.80186e-05
9.71096e-06
5.12401e-06
3.3044e-06
3.19328e-06
3.65305e-06
3.93001e-06
3.84417e-06
3.46033e-06
2.88653e-06
2.29859e-06
1.85614e-06
1.57317e-06
1.93992e-06
1.59296e-05
8.85135e-06
5.50252e-06
4.86696e-06
5.7744e-06
6.90498e-06
7.53133e-06
7.59623e-06
7.19281e-06
6.32637e-06
5.20588e-06
4.13445e-06
3.15737e-06
2.76825e-06
2.85479e-05
2.96336e-05
3.07623e-05
3.08116e-05
2.93291e-05
2.64611e-05
2.28402e-05
1.92721e-05
1.57996e-05
1.23956e-05
8.68457e-06
5.45401e-06
4.07109e-06
5.2673e-06
1.55e-05
1.57199e-05
1.61181e-05
1.61026e-05
1.54091e-05
1.40643e-05
1.23216e-05
1.04927e-05
8.68335e-06
6.95169e-06
4.89006e-06
3.076e-06
2.90671e-06
5.32383e-06
9.81344e-06
8.39634e-06
7.53091e-06
6.89883e-06
6.27722e-06
5.60267e-06
4.98547e-06
4.27645e-06
3.60841e-06
3.02406e-06
2.17832e-06
1.66191e-06
2.59919e-06
6.11959e-06
9.88153e-06
6.94824e-06
4.66982e-06
3.10189e-06
2.17615e-06
1.6801e-06
1.39299e-06
1.17775e-06
1.04745e-06
9.56814e-07
7.73267e-07
1.00153e-06
2.66305e-06
6.98399e-06
1.40892e-05
9.67489e-06
5.80051e-06
3.02208e-06
1.38515e-06
6.04166e-07
2.96861e-07
2.0358e-07
1.92841e-07
2.10402e-07
2.73157e-07
8.38459e-07
2.92467e-06
7.77209e-06
1.90863e-05
1.30785e-05
7.65663e-06
3.76409e-06
1.53012e-06
5.06641e-07
1.36012e-07
3.65793e-08
2.24397e-08
3.97521e-08
1.7741e-07
9.00788e-07
3.25044e-06
8.3689e-06
2.35938e-05
1.58023e-05
9.014e-06
4.2546e-06
1.62347e-06
4.9058e-07
1.13e-07
1.9848e-08
4.31165e-09
2.01746e-08
1.8933e-07
1.00628e-06
3.45638e-06
8.55506e-06
2.85623e-05
1.8791e-05
1.05319e-05
4.83419e-06
1.77528e-06
5.15053e-07
1.23589e-07
3.26508e-08
1.3975e-08
2.75305e-08
2.09135e-07
1.04716e-06
3.44382e-06
8.232e-06
3.36499e-05
2.15927e-05
1.18623e-05
5.34428e-06
1.95355e-06
6.11781e-07
2.14524e-07
1.15749e-07
7.67399e-08
6.96666e-08
2.30491e-07
9.91651e-07
3.12944e-06
7.34068e-06
3.82236e-05
2.37224e-05
1.26977e-05
5.66712e-06
2.18009e-06
8.96553e-07
5.46753e-07
4.36662e-07
3.39782e-07
2.61637e-07
3.3109e-07
8.70991e-07
2.48314e-06
5.79834e-06
4.11745e-05
2.45846e-05
1.28144e-05
5.78995e-06
2.6024e-06
1.63737e-06
1.46776e-06
1.37631e-06
1.1759e-06
9.37047e-07
8.01706e-07
9.91793e-07
1.88886e-06
4.09294e-06
4.1571e-05
2.40074e-05
1.23362e-05
5.95689e-06
3.56024e-06
3.28003e-06
3.51519e-06
3.55465e-06
3.26167e-06
2.76911e-06
2.25329e-06
1.92767e-06
1.97438e-06
2.99476e-06
3.97861e-05
2.23521e-05
1.16897e-05
6.58653e-06
5.47931e-06
6.2883e-06
7.21117e-06
7.61262e-06
7.42859e-06
6.71791e-06
5.66364e-06
4.57704e-06
3.61775e-06
3.44787e-06
3.71936e-05
2.07603e-05
1.1617e-05
8.17301e-06
8.71417e-06
1.08667e-05
1.2758e-05
1.38951e-05
1.42666e-05
1.36569e-05
1.21105e-05
9.99876e-06
7.8189e-06
6.35478e-06
5.92795e-05
5.7625e-05
5.53078e-05
5.10958e-05
4.53668e-05
3.87255e-05
3.19562e-05
2.54742e-05
1.96206e-05
1.42989e-05
9.2519e-06
5.87637e-06
6.10789e-06
1.14586e-05
3.34587e-05
3.31902e-05
3.22505e-05
3.02389e-05
2.70093e-05
2.30482e-05
1.89242e-05
1.48327e-05
1.13568e-05
8.24609e-06
5.3355e-06
3.78005e-06
5.61897e-06
1.25696e-05
1.82757e-05
1.70341e-05
1.56561e-05
1.4061e-05
1.21113e-05
1.01009e-05
8.14469e-06
6.22793e-06
4.78002e-06
3.62081e-06
2.47782e-06
2.5843e-06
5.84384e-06
1.41288e-05
1.31054e-05
1.0227e-05
7.6355e-06
5.56319e-06
4.05742e-06
3.03217e-06
2.27755e-06
1.67177e-06
1.34758e-06
1.13012e-06
9.98425e-07
2.06802e-06
6.21997e-06
1.53285e-05
1.62458e-05
1.178e-05
7.50388e-06
4.14319e-06
1.99829e-06
8.92892e-07
4.21411e-07
2.61598e-07
2.29542e-07
2.51544e-07
4.99319e-07
2.00189e-06
6.59225e-06
1.5937e-05
2.29582e-05
1.70262e-05
1.04725e-05
5.30181e-06
2.19484e-06
7.26296e-07
1.87841e-07
4.44401e-08
2.44041e-08
6.57051e-08
4.24467e-07
2.0943e-06
6.78847e-06
1.58328e-05
2.98696e-05
2.16012e-05
1.29243e-05
6.29647e-06
2.44955e-06
7.39064e-07
1.65684e-07
2.76342e-08
6.2317e-09
4.77137e-08
4.3599e-07
2.12488e-06
6.64115e-06
1.49576e-05
3.75789e-05
2.69507e-05
1.60596e-05
7.68691e-06
2.88828e-06
8.41127e-07
2.02166e-07
5.79678e-08
2.83979e-08
5.99644e-08
4.26468e-07
1.97152e-06
5.97526e-06
1.31764e-05
4.60321e-05
3.26247e-05
1.92847e-05
9.13593e-06
3.41798e-06
1.07566e-06
3.87866e-07
2.2772e-07
1.62318e-07
1.49299e-07
4.28257e-07
1.67e-06
4.89959e-06
1.07516e-05
5.52434e-05
3.81497e-05
2.21344e-05
1.03981e-05
4.04947e-06
1.63368e-06
1.01023e-06
8.57738e-07
7.12291e-07
5.79521e-07
6.55799e-07
1.40056e-06
3.54313e-06
7.69247e-06
6.38042e-05
4.24366e-05
2.39785e-05
1.12771e-05
4.9e-06
2.88343e-06
2.62018e-06
2.61091e-06
2.39068e-06
2.05568e-06
1.77842e-06
1.88376e-06
2.78939e-06
5.11135e-06
7.01753e-05
4.48064e-05
2.46425e-05
1.19232e-05
6.34599e-06
5.38974e-06
5.94987e-06
6.40612e-06
6.33032e-06
5.84597e-06
5.07005e-06
4.32464e-06
3.85903e-06
4.47982e-06
7.29207e-05
4.49757e-05
2.44859e-05
1.27343e-05
8.77094e-06
9.56909e-06
1.15054e-05
1.29534e-05
1.36107e-05
1.33872e-05
1.22035e-05
1.04193e-05
8.4049e-06
7.3087e-06
7.27338e-05
4.40524e-05
2.43536e-05
1.42632e-05
1.2391e-05
1.52935e-05
1.90389e-05
2.21338e-05
2.44044e-05
2.53639e-05
2.44859e-05
2.18072e-05
1.82048e-05
1.52934e-05
4.67658e-06
8.04666e-06
1.42143e-05
2.55022e-05
7.23092e-05
8.24384e-05
4.56882e-06
8.02466e-06
1.40942e-05
2.46616e-05
6.26707e-05
7.91365e-05
5.57331e-06
1.02007e-05
1.80279e-05
3.10628e-05
6.86672e-05
7.64112e-05
6.68388e-06
1.27818e-05
2.29873e-05
3.94227e-05
7.99471e-05
7.51869e-05
7.81692e-06
1.53467e-05
2.79869e-05
4.84355e-05
9.58512e-05
7.6483e-05
8.89464e-06
1.74433e-05
3.19318e-05
5.63639e-05
0.00011396
7.98825e-05
9.63871e-06
1.85391e-05
3.37694e-05
6.13384e-05
0.00013102
8.43258e-05
9.84635e-06
1.83707e-05
3.32471e-05
6.24787e-05
0.000143288
8.93324e-05
9.46814e-06
1.71707e-05
3.08887e-05
6.01252e-05
0.000149392
9.35659e-05
8.33836e-06
1.48828e-05
2.68469e-05
5.42394e-05
0.000146287
9.54306e-05
6.63396e-06
1.18268e-05
2.16077e-05
4.53674e-05
0.000133975
9.51084e-05
4.74671e-06
8.63035e-06
1.62145e-05
3.5369e-05
0.000112302
9.30765e-05
3.4163e-06
6.35107e-06
1.23376e-05
2.72472e-05
8.76407e-05
9.08629e-05
3.38483e-06
6.04519e-06
1.1526e-05
2.26806e-05
7.15844e-05
8.72699e-05
9.96485e-06
1.64327e-05
2.61528e-05
3.77781e-05
5.91451e-05
6.95991e-05
1.10434e-05
1.88808e-05
3.06945e-05
4.54472e-05
6.38378e-05
6.95793e-05
1.30248e-05
2.30075e-05
3.8071e-05
5.72236e-05
8.01505e-05
7.22874e-05
1.49399e-05
2.71849e-05
4.57702e-05
6.97096e-05
9.98432e-05
7.79103e-05
1.63797e-05
3.01688e-05
5.1339e-05
7.95584e-05
0.000118798
8.53988e-05
1.71009e-05
3.12905e-05
5.33242e-05
8.52081e-05
0.000134371
9.28369e-05
1.69044e-05
3.01843e-05
5.10097e-05
8.48095e-05
0.000145332
9.84771e-05
1.58448e-05
2.73495e-05
4.57835e-05
7.8766e-05
0.000149054
0.000101511
1.40006e-05
2.34716e-05
3.88579e-05
6.88003e-05
0.000143699
0.000101524
1.13051e-05
1.86782e-05
3.08879e-05
5.63582e-05
0.000128776
9.74881e-05
8.25603e-06
1.37061e-05
2.29622e-05
4.32808e-05
0.000107541
9.08128e-05
5.63535e-06
9.57039e-06
1.653e-05
3.21389e-05
8.24897e-05
8.40146e-05
4.70587e-06
8.03603e-06
1.40604e-05
2.62378e-05
6.17161e-05
7.8403e-05
6.68753e-06
1.08022e-05
1.77622e-05
2.77996e-05
5.20878e-05
7.3035e-05
2.37127e-05
3.65205e-05
5.30073e-05
7.01256e-05
8.44506e-05
6.44083e-05
2.59217e-05
4.1817e-05
6.25137e-05
8.48968e-05
0.000102517
7.67318e-05
2.84685e-05
4.70468e-05
7.12824e-05
9.79284e-05
0.000118176
9.1319e-05
3.02327e-05
5.06911e-05
7.72669e-05
0.0001066
0.000129613
0.000104847
3.05224e-05
5.10381e-05
7.75044e-05
0.000107693
0.000134375
0.000114509
2.92383e-05
4.8129e-05
7.24126e-05
0.000102205
0.000133939
0.000119478
2.6672e-05
4.27847e-05
6.35294e-05
9.18582e-05
0.000128726
0.000119761
2.30525e-05
3.58324e-05
5.26949e-05
7.77353e-05
0.000119364
0.000115364
1.88656e-05
2.84956e-05
4.15279e-05
6.15577e-05
0.000104214
0.000106167
1.40864e-05
2.10351e-05
3.07106e-05
4.58214e-05
8.35893e-05
9.30334e-05
9.64637e-06
1.45589e-05
2.17608e-05
3.30339e-05
6.2057e-05
7.90621e-05
6.96582e-06
1.08967e-05
1.69886e-05
2.60533e-05
4.68273e-05
6.81635e-05
8.03237e-06
1.2887e-05
2.04266e-05
3.00776e-05
4.65459e-05
6.29901e-05
1.46887e-05
2.28737e-05
3.46905e-05
4.71214e-05
6.18594e-05
5.99934e-05
5.34861e-06
8.69916e-06
1.42473e-05
2.27577e-05
6.43202e-05
8.33918e-05
6.36161e-06
1.0392e-05
1.69801e-05
2.68575e-05
6.28731e-05
7.97569e-05
8.22557e-06
1.37742e-05
2.26477e-05
3.56912e-05
7.33451e-05
7.7167e-05
1.02246e-05
1.75515e-05
2.91168e-05
4.62343e-05
8.87896e-05
7.65637e-05
1.20218e-05
2.08385e-05
3.47803e-05
5.63107e-05
0.000107765
7.84799e-05
1.30909e-05
2.26136e-05
3.79142e-05
6.35073e-05
0.000126528
8.20314e-05
1.33237e-05
2.269e-05
3.81817e-05
6.65187e-05
0.000141909
8.57919e-05
1.29284e-05
2.15824e-05
3.6276e-05
6.56349e-05
0.000151771
8.89438e-05
1.19127e-05
1.95366e-05
3.28328e-05
6.1665e-05
0.000154923
9.16361e-05
1.01565e-05
1.65456e-05
2.81206e-05
5.49044e-05
0.000149908
9.24743e-05
8.10318e-06
1.32456e-05
2.28479e-05
4.65869e-05
0.000135009
9.09912e-05
7.25646e-06
1.14843e-05
1.94482e-05
3.91183e-05
0.00011432
8.91251e-05
9.2614e-06
1.3873e-05
2.1422e-05
3.69711e-05
9.3022e-05
8.80208e-05
1.51775e-05
2.20644e-05
3.08629e-05
4.19246e-05
8.41494e-05
8.47472e-05
1.29546e-05
1.99714e-05
2.91249e-05
3.77906e-05
5.42192e-05
6.96169e-05
1.55472e-05
2.45958e-05
3.69315e-05
5.03681e-05
6.61648e-05
6.98412e-05
1.91149e-05
3.09327e-05
4.72025e-05
6.58311e-05
8.76219e-05
7.35286e-05
2.23429e-05
3.65971e-05
5.66143e-05
8.08907e-05
0.000111377
8.04154e-05
2.41014e-05
3.94401e-05
6.15547e-05
9.03765e-05
0.000131539
8.85995e-05
2.40343e-05
3.88321e-05
6.08496e-05
9.29256e-05
0.000145375
9.57385e-05
2.25218e-05
3.55872e-05
5.57061e-05
8.85328e-05
0.000151119
9.99706e-05
2.0209e-05
3.10595e-05
4.8087e-05
7.93461e-05
0.000150454
0.000100574
1.72038e-05
2.58756e-05
3.97067e-05
6.76916e-05
0.000140631
9.80754e-05
1.37323e-05
2.04643e-05
3.16497e-05
5.54237e-05
0.00012246
9.28686e-05
1.12719e-05
1.67959e-05
2.59856e-05
4.58493e-05
0.000101455
8.66436e-05
1.27207e-05
1.84531e-05
2.73183e-05
4.38951e-05
8.44657e-05
8.14508e-05
2.05135e-05
2.91264e-05
3.94449e-05
5.30534e-05
7.52565e-05
7.86604e-05
3.5626e-05
4.90954e-05
6.1677e-05
7.03484e-05
7.66798e-05
7.42065e-05
3.02343e-05
4.31127e-05
5.81666e-05
7.32649e-05
8.28832e-05
6.35844e-05
3.46358e-05
5.15224e-05
7.1436e-05
9.2219e-05
0.000103806
7.70828e-05
3.92916e-05
5.9504e-05
8.33805e-05
0.00010837
0.000121808
9.2829e-05
4.19641e-05
6.36297e-05
8.94627e-05
0.000116446
0.000133008
0.000106274
4.13133e-05
6.18806e-05
8.6466e-05
0.000113801
0.000135163
0.000114827
3.79537e-05
5.56626e-05
7.7063e-05
0.000103325
0.000129976
0.000118151
3.31433e-05
4.73087e-05
6.45974e-05
8.83238e-05
0.000119198
0.000116278
2.78135e-05
3.84378e-05
5.16411e-05
7.18528e-05
0.0001051
0.000109672
2.22164e-05
3.00254e-05
3.99068e-05
5.60949e-05
8.66409e-05
9.84886e-05
1.73088e-05
2.34164e-05
3.15844e-05
4.48514e-05
7.02526e-05
8.64966e-05
1.66921e-05
2.28696e-05
3.14174e-05
4.35683e-05
6.42384e-05
7.89742e-05
2.4835e-05
3.38905e-05
4.54161e-05
5.86262e-05
7.49913e-05
7.79023e-05
4.38975e-05
5.8688e-05
7.44071e-05
8.90733e-05
9.67608e-05
7.97577e-05
7.01599e-05
8.97408e-05
0.00010725
0.00012092
0.000115716
7.8982e-05
8.56678e-05
9.51447e-05
4.72919e-05
3.13294e-05
2.02262e-05
1.31221e-05
9.27821e-05
0.000110725
4.63184e-05
2.51059e-05
1.50313e-05
9.41207e-06
9.57824e-05
0.00013321
4.96797e-05
2.47742e-05
1.47458e-05
9.42237e-06
9.72955e-05
0.000154621
5.73577e-05
2.90597e-05
1.80431e-05
1.21384e-05
9.72773e-05
0.000169928
6.75584e-05
3.57823e-05
2.31936e-05
1.62008e-05
9.49615e-05
0.000178375
7.77288e-05
4.34573e-05
2.86251e-05
2.00166e-05
9.0649e-05
0.000178858
8.69899e-05
5.16306e-05
3.42655e-05
2.36928e-05
8.54121e-05
0.000171718
9.37325e-05
5.98406e-05
4.04303e-05
2.76184e-05
8.12655e-05
0.000157507
9.61838e-05
6.61825e-05
4.59894e-05
3.14758e-05
7.76266e-05
0.00014077
9.40289e-05
6.90368e-05
4.94342e-05
3.41969e-05
7.52681e-05
0.000123608
8.72018e-05
6.76654e-05
4.96832e-05
3.49355e-05
7.49916e-05
0.000107256
7.6144e-05
6.20812e-05
4.67582e-05
3.33701e-05
7.66894e-05
9.34191e-05
6.36736e-05
5.42542e-05
4.20873e-05
3.05701e-05
7.97756e-05
8.71425e-05
5.24416e-05
4.68413e-05
3.79568e-05
2.80655e-05
7.5449e-05
8.29872e-05
6.90915e-05
5.68453e-05
4.17283e-05
2.8765e-05
8.32219e-05
8.76862e-05
5.64939e-05
3.88228e-05
2.6007e-05
1.71548e-05
8.8804e-05
9.99268e-05
4.97063e-05
2.94684e-05
1.89378e-05
1.27004e-05
9.43092e-05
0.000116654
5.09697e-05
2.90116e-05
1.94586e-05
1.39756e-05
9.8864e-05
0.000135571
5.9604e-05
3.48854e-05
2.48205e-05
1.88619e-05
0.000101877
0.000152261
7.28938e-05
4.44684e-05
3.22888e-05
2.47004e-05
0.000102683
0.000163449
8.87079e-05
5.64551e-05
4.09927e-05
3.08895e-05
0.000102282
0.000165032
0.000104415
7.06458e-05
5.17131e-05
3.8424e-05
9.95164e-05
0.000160918
0.000116488
8.46531e-05
6.3032e-05
4.66508e-05
9.42652e-05
0.00015381
0.000123641
9.59042e-05
7.3356e-05
5.45354e-05
8.72041e-05
0.000143616
0.000124894
0.000102512
8.08108e-05
6.05662e-05
7.98539e-05
0.000128263
0.000118363
0.000102757
8.37914e-05
6.33091e-05
7.39914e-05
0.000108715
0.000105028
9.66631e-05
8.21963e-05
6.29962e-05
7.10585e-05
8.89607e-05
8.7365e-05
8.73157e-05
7.84983e-05
6.18928e-05
8.04222e-05
0.000118572
0.000115645
9.95492e-05
7.85372e-05
5.77024e-05
8.31453e-05
0.000102076
8.77784e-05
6.97467e-05
5.05743e-05
3.46563e-05
8.32713e-05
8.28046e-05
6.04697e-05
4.45561e-05
3.04826e-05
2.06587e-05
8.45638e-05
7.17967e-05
4.47993e-05
3.20099e-05
2.28348e-05
1.68192e-05
9.00409e-05
7.40398e-05
4.25926e-05
3.15601e-05
2.50639e-05
2.05403e-05
9.88201e-05
8.4542e-05
4.98066e-05
3.83115e-05
3.21904e-05
2.74278e-05
0.000108194
9.72917e-05
6.28912e-05
4.87544e-05
4.14092e-05
3.53308e-05
0.000115533
0.000109005
7.85209e-05
6.21346e-05
5.29334e-05
4.50107e-05
0.000119601
0.000118787
9.49461e-05
7.77408e-05
6.66546e-05
5.65555e-05
0.000120543
0.000128305
0.000112048
9.51701e-05
8.24722e-05
6.96098e-05
0.000118043
0.000137157
0.000129356
0.000113473
9.89872e-05
8.29668e-05
0.000111599
0.000140892
0.000142864
0.000129173
0.000113594
9.45428e-05
0.000100244
0.000137104
0.000148079
0.000137285
0.000122594
0.000102306
8.51763e-05
0.000125263
0.000142233
0.000134632
0.000124354
0.000106524
8.93069e-05
8.66794e-05
2.97299e-05
1.43898e-05
7.39609e-06
4.20394e-06
9.65558e-05
0.000106672
3.55753e-05
1.67894e-05
9.14385e-06
5.4151e-06
9.99408e-05
0.000131405
4.37054e-05
2.13069e-05
1.26533e-05
8.05871e-06
0.000101513
0.000151191
5.40183e-05
2.76968e-05
1.73474e-05
1.15632e-05
0.000101158
0.000164347
6.55109e-05
3.52509e-05
2.25877e-05
1.51399e-05
9.80714e-05
0.000170382
7.67897e-05
4.34362e-05
2.79611e-05
1.84448e-05
9.22846e-05
0.00016928
8.61817e-05
5.15929e-05
3.32959e-05
2.15497e-05
8.4966e-05
0.000161223
9.19269e-05
5.88105e-05
3.83539e-05
2.44655e-05
7.96317e-05
0.000146344
9.25269e-05
6.35519e-05
4.25072e-05
2.71397e-05
7.56242e-05
0.000129401
8.82485e-05
6.39476e-05
4.39605e-05
2.83703e-05
7.34578e-05
0.000113021
7.98126e-05
6.02427e-05
4.23517e-05
2.77838e-05
7.35916e-05
9.91751e-05
6.88234e-05
5.39852e-05
3.88522e-05
2.60051e-05
7.54723e-05
8.90555e-05
5.7983e-05
4.69931e-05
3.44692e-05
2.35944e-05
7.84337e-05
8.96458e-05
5.23706e-05
4.29555e-05
3.23075e-05
2.23409e-05
7.55269e-05
6.26388e-05
3.05509e-05
1.7757e-05
1.00741e-05
6.18527e-06
8.41551e-05
7.51841e-05
3.03902e-05
1.61234e-05
9.45931e-06
5.88364e-06
9.13865e-05
9.53466e-05
3.59424e-05
1.95618e-05
1.26251e-05
8.41867e-06
9.79176e-05
0.000117372
4.61012e-05
2.64945e-05
1.81329e-05
1.28424e-05
0.000102829
0.000136692
5.93423e-05
3.56466e-05
2.50212e-05
1.80337e-05
0.000105319
0.000150939
7.489e-05
4.6563e-05
3.28474e-05
2.34164e-05
0.000104522
0.000159072
9.10314e-05
5.89435e-05
4.15048e-05
2.90631e-05
0.000101333
0.000159622
0.000105386
7.20327e-05
5.10098e-05
3.52037e-05
9.68266e-05
0.000153267
0.000114662
8.38482e-05
6.03196e-05
4.16805e-05
9.06667e-05
0.000143851
0.000118289
9.15084e-05
6.74174e-05
4.69391e-05
8.35396e-05
0.000131756
0.000115935
9.39031e-05
7.08441e-05
4.9773e-05
7.69609e-05
0.000116369
0.000107228
9.12021e-05
7.08488e-05
5.04285e-05
7.23018e-05
9.95865e-05
9.49322e-05
8.50552e-05
6.8648e-05
4.98369e-05
7.02444e-05
8.66442e-05
8.25585e-05
7.91345e-05
6.70945e-05
5.02016e-05
6.21313e-05
6.38392e-05
4.53765e-05
3.10993e-05
1.8953e-05
1.19002e-05
6.67877e-05
5.02953e-05
2.98345e-05
1.96764e-05
1.2158e-05
7.75401e-06
7.26225e-05
5.09478e-05
2.63431e-05
1.81628e-05
1.27672e-05
8.86762e-06
8.16888e-05
6.2371e-05
3.16107e-05
2.33018e-05
1.78416e-05
1.34457e-05
9.28497e-05
7.83607e-05
4.168e-05
3.17327e-05
2.52358e-05
1.97551e-05
0.000104114
9.41806e-05
5.47911e-05
4.18696e-05
3.39253e-05
2.67099e-05
0.000113331
0.000106673
6.98069e-05
5.38617e-05
4.38473e-05
3.44351e-05
0.000119343
0.000115936
8.52316e-05
6.73907e-05
5.53444e-05
4.35974e-05
0.000122085
0.000123525
9.98092e-05
8.16127e-05
6.77301e-05
5.35509e-05
0.000121752
0.000130581
0.000113679
9.60462e-05
8.04014e-05
6.353e-05
0.000118161
0.000135876
0.000126248
0.000109367
9.19458e-05
7.2623e-05
0.000110873
0.000137144
0.000134879
0.000119418
0.000101175
8.00463e-05
9.94342e-05
0.000133079
0.000137736
0.000124723
0.000107438
8.58955e-05
8.52105e-05
0.000123539
0.000134145
0.000124439
0.000111129
9.1988e-05
8.48374e-05
7.72839e-05
7.0034e-05
6.13848e-05
5.24007e-05
4.33568e-05
3.51692e-05
2.75787e-05
2.09572e-05
1.47792e-05
9.43476e-06
6.77451e-06
9.79256e-06
2.12839e-05
5.19502e-05
4.84746e-05
4.45167e-05
3.93033e-05
3.32944e-05
2.70188e-05
2.13068e-05
1.60873e-05
1.1905e-05
8.24518e-06
5.30431e-06
4.74407e-06
9.52825e-06
2.21461e-05
2.87309e-05
2.58362e-05
2.26804e-05
1.91735e-05
1.55111e-05
1.20893e-05
9.19872e-06
6.68755e-06
4.8538e-06
3.46898e-06
2.49567e-06
3.6378e-06
9.79028e-06
2.3301e-05
1.7566e-05
1.36952e-05
1.01853e-05
7.32366e-06
5.1564e-06
3.61856e-06
2.55801e-06
1.75279e-06
1.28098e-06
1.02532e-06
1.10253e-06
3.12803e-06
9.87802e-06
2.3505e-05
1.80885e-05
1.27814e-05
7.99407e-06
4.43147e-06
2.19085e-06
1.00067e-06
4.52835e-07
2.4276e-07
1.96586e-07
2.2948e-07
6.58276e-07
2.97579e-06
9.73689e-06
2.27143e-05
2.45759e-05
1.78701e-05
1.09307e-05
5.51737e-06
2.27663e-06
7.52084e-07
1.92439e-07
4.19437e-08
1.9739e-08
7.57594e-08
5.79507e-07
2.8903e-06
9.24957e-06
2.09818e-05
3.17666e-05
2.30277e-05
1.37563e-05
6.66235e-06
2.5744e-06
7.74317e-07
1.74792e-07
2.97238e-08
6.81647e-09
6.04055e-08
5.58836e-07
2.73299e-06
8.48332e-06
1.869e-05
3.97698e-05
2.93271e-05
1.76924e-05
8.4834e-06
3.16269e-06
9.13901e-07
2.2145e-07
6.61254e-08
3.44251e-08
7.35128e-08
5.12431e-07
2.3818e-06
7.22762e-06
1.57405e-05
4.8876e-05
3.64438e-05
2.21744e-05
1.06197e-05
3.94416e-06
1.22075e-06
4.39008e-07
2.66388e-07
2.00112e-07
1.92525e-07
5.14332e-07
1.94967e-06
5.69815e-06
1.2435e-05
5.9748e-05
4.42348e-05
2.68966e-05
1.29163e-05
4.97054e-06
1.9177e-06
1.16044e-06
1.01557e-06
8.86976e-07
7.77405e-07
8.72679e-07
1.69252e-06
4.04546e-06
8.66172e-06
7.10912e-05
5.1326e-05
3.08491e-05
1.49216e-05
6.26081e-06
3.38203e-06
3.01826e-06
3.11845e-06
3.00242e-06
2.80555e-06
2.5731e-06
2.67421e-06
3.55064e-06
5.9782e-06
8.19473e-05
5.70713e-05
3.37059e-05
1.66619e-05
8.16321e-06
6.22172e-06
6.85352e-06
7.67638e-06
7.97817e-06
7.9755e-06
7.4721e-06
6.77434e-06
6.11138e-06
6.56984e-06
8.98333e-05
6.04958e-05
3.52999e-05
1.82707e-05
1.09761e-05
1.08719e-05
1.32133e-05
1.5437e-05
1.70146e-05
1.79222e-05
1.76452e-05
1.6301e-05
1.40499e-05
1.27232e-05
9.6639e-05
6.30536e-05
3.65111e-05
2.01916e-05
1.49078e-05
1.72413e-05
2.17461e-05
2.60061e-05
2.98639e-05
3.28568e-05
3.399e-05
3.29299e-05
2.96535e-05
2.70303e-05
5.90739e-05
5.65292e-05
5.3364e-05
4.80079e-05
4.19041e-05
3.51312e-05
2.87149e-05
2.26939e-05
1.73632e-05
1.22959e-05
7.80325e-06
5.33246e-06
6.95555e-06
1.32731e-05
3.83073e-05
3.63717e-05
3.37595e-05
2.97728e-05
2.52484e-05
2.04549e-05
1.61162e-05
1.21889e-05
9.04594e-06
6.35876e-06
4.09797e-06
3.49197e-06
6.60897e-06
1.43147e-05
2.20755e-05
1.94808e-05
1.67108e-05
1.37672e-05
1.095e-05
8.42946e-06
6.38352e-06
4.64466e-06
3.39374e-06
2.48649e-06
1.81274e-06
2.5646e-06
6.73415e-06
1.55622e-05
1.44406e-05
1.0692e-05
7.5512e-06
5.14927e-06
3.4617e-06
2.34113e-06
1.62049e-06
1.09401e-06
8.20514e-07
6.91011e-07
7.648e-07
2.16926e-06
6.82897e-06
1.61294e-05
1.60478e-05
1.08437e-05
6.49748e-06
3.44351e-06
1.60277e-06
6.70255e-07
2.71979e-07
1.43332e-07
1.20352e-07
1.51111e-07
4.565e-07
2.06633e-06
6.81236e-06
1.60192e-05
2.18881e-05
1.50019e-05
8.69424e-06
4.21075e-06
1.68252e-06
5.38261e-07
1.31901e-07
2.65419e-08
1.23123e-08
5.38954e-08
4.06397e-07
2.01798e-06
6.55764e-06
1.51913e-05
2.73898e-05
1.86341e-05
1.05363e-05
4.88477e-06
1.82491e-06
5.34574e-07
1.17973e-07
1.99744e-08
5.25591e-09
4.44377e-08
3.90717e-07
1.91452e-06
6.10302e-06
1.39309e-05
3.32763e-05
2.31664e-05
1.32002e-05
6.01969e-06
2.16039e-06
6.10676e-07
1.49461e-07
4.78531e-08
2.60849e-08
5.40137e-08
3.58413e-07
1.67764e-06
5.25582e-06
1.19433e-05
3.97788e-05
2.81864e-05
1.62436e-05
7.38847e-06
2.64343e-06
8.14538e-07
3.09354e-07
1.9629e-07
1.45458e-07
1.36747e-07
3.5708e-07
1.37743e-06
4.18182e-06
9.56071e-06
4.69317e-05
3.35201e-05
1.94759e-05
8.93512e-06
3.3448e-06
1.32291e-06
8.44149e-07
7.39837e-07
6.26638e-07
5.35791e-07
5.93022e-07
1.17694e-06
2.94709e-06
6.62993e-06
5.33775e-05
3.80171e-05
2.21364e-05
1.03456e-05
4.3089e-06
2.44383e-06
2.23367e-06
2.2585e-06
2.09305e-06
1.90432e-06
1.71615e-06
1.79757e-06
2.49174e-06
4.41046e-06
5.89532e-05
4.14144e-05
2.41535e-05
1.17082e-05
5.8344e-06
4.6772e-06
5.15319e-06
5.59752e-06
5.5725e-06
5.40284e-06
4.94213e-06
4.4562e-06
4.07405e-06
4.46559e-06
6.15658e-05
4.29149e-05
2.52639e-05
1.30897e-05
8.18564e-06
8.45015e-06
1.01476e-05
1.14576e-05
1.20389e-05
1.21939e-05
1.15951e-05
1.05202e-05
8.99923e-06
8.04004e-06
6.34903e-05
4.37324e-05
2.61658e-05
1.48562e-05
1.15828e-05
1.38127e-05
1.71152e-05
1.9701e-05
2.14326e-05
2.23587e-05
2.19497e-05
2.04612e-05
1.77825e-05
1.55578e-05
3.75667e-05
3.67258e-05
3.50911e-05
3.19662e-05
2.79717e-05
2.34658e-05
1.90347e-05
1.4971e-05
1.14143e-05
8.22052e-06
5.26716e-06
3.23477e-06
3.47764e-06
6.79385e-06
2.18136e-05
2.0588e-05
1.89037e-05
1.66454e-05
1.41179e-05
1.15099e-05
9.07885e-06
6.94048e-06
5.19335e-06
3.80624e-06
2.46718e-06
1.74403e-06
2.9448e-06
7.22897e-06
1.17528e-05
9.72587e-06
7.94659e-06
6.37928e-06
5.06231e-06
3.94668e-06
3.02295e-06
2.26422e-06
1.70427e-06
1.3301e-06
9.38917e-07
1.05615e-06
2.89586e-06
7.91777e-06
9.05955e-06
6.01588e-06
3.82549e-06
2.36467e-06
1.47392e-06
9.55119e-07
6.48201e-07
4.53559e-07
3.66551e-07
3.3003e-07
3.20193e-07
8.20936e-07
2.98149e-06
8.36171e-06
1.21736e-05
7.63136e-06
4.25499e-06
2.0744e-06
8.74495e-07
3.20587e-07
1.134e-07
5.7239e-08
5.06918e-08
6.23781e-08
1.60214e-07
7.95096e-07
3.06641e-06
8.4653e-06
1.66406e-05
1.034e-05
5.50052e-06
2.48852e-06
9.38555e-07
2.84376e-07
6.59322e-08
1.22722e-08
4.92197e-09
1.76584e-08
1.4215e-07
8.11325e-07
3.05021e-06
8.19524e-06
2.01772e-05
1.24467e-05
6.42924e-06
2.75539e-06
9.63518e-07
2.67348e-07
5.64511e-08
9.11248e-09
1.93562e-09
1.40372e-08
1.42948e-07
8.0116e-07
2.92653e-06
7.67714e-06
2.42972e-05
1.51594e-05
7.7611e-06
3.21247e-06
1.06495e-06
2.83537e-07
6.64858e-08
2.02948e-08
1.02448e-08
1.8284e-08
1.3679e-07
7.26638e-07
2.58338e-06
6.67627e-06
2.87204e-05
1.81147e-05
9.25006e-06
3.76542e-06
1.23417e-06
3.63485e-07
1.38588e-07
8.62034e-08
6.04528e-08
5.10972e-08
1.39873e-07
6.17425e-07
2.11487e-06
5.42988e-06
3.32433e-05
2.10657e-05
1.07696e-05
4.39436e-06
1.52537e-06
6.13494e-07
4.06502e-07
3.45036e-07
2.75593e-07
2.17189e-07
2.32005e-07
5.21156e-07
1.51053e-06
3.80642e-06
3.69986e-05
2.33585e-05
1.19679e-05
4.99728e-06
2.02266e-06
1.2486e-06
1.16149e-06
1.12273e-06
9.79706e-07
8.33232e-07
7.07281e-07
7.47262e-07
1.18589e-06
2.43898e-06
3.96183e-05
2.48576e-05
1.28373e-05
5.67402e-06
2.95283e-06
2.63274e-06
2.87841e-06
2.98194e-06
2.80398e-06
2.57539e-06
2.23688e-06
1.94699e-06
1.80821e-06
2.15402e-06
4.03322e-05
2.52787e-05
1.33569e-05
6.5499e-06
4.58593e-06
5.17965e-06
6.09023e-06
6.58432e-06
6.5913e-06
6.40245e-06
5.85232e-06
5.14089e-06
4.33694e-06
3.87808e-06
4.0365e-05
2.53929e-05
1.39625e-05
7.92261e-06
7.20215e-06
9.16229e-06
1.10652e-05
1.22803e-05
1.28673e-05
1.29824e-05
1.23668e-05
1.11908e-05
9.57438e-06
8.22194e-06
1.83878e-05
1.79474e-05
1.73415e-05
1.60004e-05
1.41252e-05
1.18725e-05
9.57171e-06
7.40077e-06
5.60429e-06
4.10152e-06
2.66576e-06
1.53501e-06
1.27221e-06
2.37509e-06
8.74109e-06
7.93882e-06
7.25131e-06
6.4547e-06
5.56904e-06
4.59461e-06
3.64975e-06
2.79132e-06
2.13438e-06
1.64166e-06
1.08727e-06
6.57762e-07
8.48561e-07
2.40235e-06
4.68784e-06
3.40225e-06
2.57762e-06
2.00218e-06
1.58559e-06
1.2427e-06
9.61543e-07
7.2044e-07
5.83044e-07
4.94031e-07
3.48877e-07
3.00482e-07
7.97705e-07
2.73376e-06
5.02735e-06
2.92355e-06
1.60926e-06
8.4941e-07
4.50997e-07
2.52698e-07
1.56004e-07
1.18568e-07
1.10284e-07
1.0854e-07
9.47629e-08
1.98296e-07
8.45222e-07
2.99463e-06
7.53061e-06
4.30961e-06
2.18417e-06
9.62958e-07
3.61689e-07
1.14159e-07
3.37873e-08
1.49937e-08
1.40817e-08
1.76602e-08
3.52326e-08
1.90131e-07
9.05918e-07
3.1253e-06
9.9817e-06
5.57642e-06
2.69486e-06
1.11613e-06
3.87472e-07
1.08357e-07
2.32267e-08
3.90845e-09
1.32272e-09
3.37818e-09
2.80846e-08
1.99869e-07
9.35305e-07
3.11711e-06
1.20626e-05
6.5806e-06
3.03743e-06
1.17672e-06
3.75595e-07
9.59083e-08
1.88113e-08
2.84386e-09
5.03329e-10
2.17247e-09
2.85681e-08
2.02771e-07
9.2036e-07
2.97469e-06
1.44932e-05
7.83861e-06
3.5127e-06
1.29047e-06
3.8559e-07
9.38148e-08
2.03706e-08
5.83007e-09
2.74207e-09
3.27331e-09
2.80608e-08
1.8771e-07
8.23019e-07
2.59278e-06
1.69954e-05
9.1464e-06
4.0152e-06
1.42782e-06
4.1844e-07
1.1414e-07
4.23913e-08
2.55795e-08
1.70196e-08
1.19527e-08
3.00992e-08
1.62816e-07
6.82002e-07
2.1032e-06
1.9399e-05
1.03658e-05
4.50081e-06
1.59063e-06
5.00951e-07
2.00401e-07
1.3521e-07
1.10359e-07
8.32719e-08
5.88655e-08
5.57946e-08
1.36582e-07
4.83515e-07
1.45797e-06
2.12021e-05
1.12121e-05
4.8444e-06
1.76318e-06
6.90862e-07
4.58335e-07
4.27781e-07
3.93591e-07
3.2376e-07
2.51817e-07
1.96538e-07
1.98359e-07
3.58898e-07
9.01101e-07
2.22381e-05
1.16558e-05
5.08179e-06
2.02535e-06
1.13155e-06
1.09718e-06
1.17776e-06
1.16081e-06
1.02863e-06
8.77878e-07
7.12941e-07
5.84006e-07
5.37452e-07
7.0812e-07
2.21955e-05
1.16587e-05
5.25859e-06
2.49405e-06
2.0372e-06
2.4274e-06
2.77807e-06
2.87519e-06
2.72696e-06
2.5038e-06
2.16486e-06
1.8139e-06
1.47862e-06
1.30373e-06
2.18387e-05
1.16613e-05
5.64204e-06
3.40724e-06
3.70173e-06
4.80966e-06
5.65489e-06
6.07054e-06
6.10872e-06
5.92047e-06
5.40512e-06
4.71176e-06
3.90468e-06
3.25127e-06
6.43961e-06
6.30448e-06
6.32624e-06
6.00911e-06
5.40209e-06
4.57883e-06
3.7076e-06
2.89827e-06
2.25551e-06
1.71622e-06
1.12324e-06
6.07937e-07
3.81191e-07
5.97189e-07
2.51198e-06
2.11043e-06
1.94723e-06
1.78953e-06
1.60092e-06
1.3626e-06
1.11793e-06
8.84196e-07
7.19246e-07
5.82061e-07
3.91946e-07
2.10609e-07
1.77846e-07
5.35298e-07
1.68492e-06
9.81954e-07
6.36066e-07
4.55558e-07
3.55564e-07
2.84257e-07
2.27023e-07
1.88079e-07
1.66899e-07
1.49053e-07
1.054e-07
6.77364e-08
1.45758e-07
6.55367e-07
2.52698e-06
1.28322e-06
6.04663e-07
2.64889e-07
1.13117e-07
5.12085e-08
3.13557e-08
2.71178e-08
2.75081e-08
2.82312e-08
2.24497e-08
3.1794e-08
1.60534e-07
7.6978e-07
3.9835e-06
2.06043e-06
9.38582e-07
3.70543e-07
1.23796e-07
3.45108e-08
8.68762e-09
3.31892e-09
3.10728e-09
3.82884e-09