/*--------------------------------*- C++ -*----------------------------------*\
| =========                 |                                                 |
| \\      /  F ield         | OpenFOAM: The Open Source CFD Toolbox           |
|  \\    /   O peration     | Version:  v2106                                 |
|   \\  /    A nd           | Website:  www.openfoam.com                      |
|    \\/     M anipulation  |                                                 |
\*---------------------------------------------------------------------------*/
FoamFile
{
    version     2.0;
    format      ascii;
    arch        "LSB;label=32;scalar=64";
    class       volScalarField;
    location    "0.000132";
    object      p;
}
// * * * * * * * * * * * * * * * * * * * * * * * * * * * * * * * * * * * * * //

dimensions      [1 -1 -2 0 0 0 0];

internalField   nonuniform List<scalar> 
144746
(
205161
205292
205243
205214
205118
205032
204929
204821
204734
204639
204546
204457
204384
204271
204893
205005
205009
205056
205020
204989
204947
204879
204807
204715
204594
204465
204387
204248
204542
204757
204767
204880
204883
204917
204905
204857
204801
204736
204637
204508
204436
204302
204367
204575
204635
204798
204854
204926
204955
204943
204903
204845
204745
204613
204522
204381
204181
204440
204550
204739
204835
204938
204990
204977
204942
204896
204802
204689
204581
204432
204086
204345
204487
204678
204804
204912
204990
204997
204961
204932
204850
204749
204637
204487
204047
204264
204415
204598
204747
204870
204947
204978
204956
204923
204847
204743
204628
204467
204015
204201
204331
204516
204671
204795
204885
204935
204928
204897
204810
204695
204575
204404
203992
204127
204223
204401
204538
204669
204772
204825
204824
204788
204692
204557
204434
204260
203954
204035
204089
204269
204389
204519
204627
204692
204687
204609
204488
204339
204226
204075
203903
203924
203922
204063
204160
204278
204382
204434
204428
204368
204255
204115
204003
203863
203800
203766
203716
203820
203890
203991
204093
204137
204142
204081
203987
203847
203743
203615
203719
203638
203571
203646
203683
203775
203877
203932
203947
203887
203805
203650
203540
203398
203566
203485
203326
203379
203400
203478
203578
203641
203665
203587
203517
203358
203266
203170
203153
203656
204114
204583
205003
205293
205527
205592
205610
205468
205191
204760
204243
203563
203779
204351
204780
205174
205520
205706
205863
205858
205842
205708
205455
205064
204579
203950
204279
204820
205172
205529
205798
205955
206066
206092
206063
205867
205633
205279
204837
204216
204654
205214
205513
205852
206071
206211
206276
206274
206200
206047
205819
205486
205079
204531
204925
205445
205669
206018
206200
206367
206437
206446
206365
206162
205981
205680
205282
204775
204884
205403
205647
206062
206292
206481
206554
206555
206439
206260
206011
205712
205377
204954
204650
205216
205552
206000
206224
206438
206540
206567
206454
206295
206066
205775
205462
205051
204413
205002
205442
205855
206117
206334
206449
206482
206367
206211
205990
205698
205431
205051
204011
204622
205206
205584
205928
206136
206256
206272
206155
206011
205811
205547
205298
204949
203634
204263
204891
205282
205637
205846
205969
205972
205857
205708
205515
205271
205024
204693
203120
203778
204474
204914
205273
205485
205585
205539
205414
205258
205096
204834
204583
204259
202624
203311
203977
204429
204777
205017
205116
205116
204976
204719
204552
204228
203977
203654
202015
202888
203565
204061
204366
204573
204566
204440
204268
204091
203872
203523
203227
202856
201254
202027
202664
203271
203601
203819
203803
203667
203532
203280
203013
202608
202255
201853
205395
206562
207522
208145
208837
209254
209811
210133
210541
210674
210380
209691
208497
206815
207297
208215
209174
209681
210259
210671
211099
211252
211333
211285
210940
210152
208859
207397
208695
209524
210381
210914
211343
211613
211805
211829
211910
211683
211282
210572
209463
208065
209590
210536
211258
211790
212154
212348
212423
212381
212255
212030
211618
210933
209904
208594
209857
210887
211622
212187
212549
212702
212737
212660
212510
212217
211791
211164
210288
209104
209658
210755
211583
212272
212662
212860
212908
212834
212650
212360
211941
211341
210547
209446
208841
210087
211205
211967
212482
212774
212885
212852
212663
212390
211977
211428
210736
209786
208094
209570
210858
211683
212285
212620
212751
212736
212541
212288
211897
211388
210731
209910
206999
208731
210146
211183
211894
212299
212469
212472
212278
212043
211673
211220
210641
209941
206260
208069
209521
210655
211422
211869
212043
212036
211813
211559
211175
210725
210180
209497
205261
207099
208708
209975
210820
211308
211436
211395
211124
210855
210447
209973
209405
208703
204418
206261
207864
209139
210001
210547
210626
210543
210189
209861
209355
208828
208163
207569
203214
205063
206710
208098
209003
209567
209575
209360
208878
208470
207819
207254
206479
205949
201593
203776
205458
206881
207735
208270
208249
207998
207505
206958
206143
205535
204474
203549
204320
204338
204492
204400
204580
204399
204381
204271
204490
204384
204620
204392
204359
204219
204394
204284
204497
204282
204417
204219
204364
204206
204358
204025
204440
204218
204340
204133
204283
203985
204463
204219
204327
204100
204241
204029
204429
204172
204262
204050
204191
204042
204353
204107
204194
203977
204154
203997
204199
203970
204086
203877
204094
203948
204048
203836
203958
203682
203904
203747
203812
203580
203701
203604
203904
203785
203591
203342
203415
203131
203304
203188
203378
203132
203229
203082
203263
203105
203201
202998
203108
202930
203124
202934
202915
202145
202178
201554
201897
200911
203543
202702
202674
201889
202246
201040
203664
202830
202772
202039
202471
201231
203990
203159
203092
202401
202844
201556
204224
203461
203428
202768
203210
202020
204483
203816
203801
203195
203629
202546
204636
204070
204082
203557
203950
203064
204728
204260
204281
203774
204133
203347
204686
204262
204220
203739
204092
203269
204456
203943
203846
203332
203615
202762
204011
203368
203189
202532
202649
201686
203383
202490
202256
201409
201501
200539
202619
201633
201488
200653
200776
199887
201693
200673
200676
199782
199992
198986
204484
201916
199531
195734
193288
184949
205852
203221
200774
196696
194215
184749
206366
203733
201269
197267
195215
185803
207034
204523
202313
198513
196818
188191
207687
205236
203193
199732
198361
191006
208168
205956
204209
201132
199990
193944
208645
206613
205090
202468
201494
196567
208886
207122
205787
203499
202562
198267
208993
207420
206248
204097
202989
198840
208774
207197
206065
203768
202473
197956
207947
206192
204990
202551
200977
195831
206530
204666
203033
199718
197732
191537
204984
202510
200506
197032
194895
187841
201800
199004
196962
193349
191228
183265
203059
202994
203066
203005
203139
202850
203215
202966
203072
202920
203108
202766
203294
203020
203093
202953
203100
202774
203432
203101
203136
202918
203017
202624
203483
203120
203153
202909
202977
202599
203541
203147
203175
202941
203018
202691
203508
203129
203146
202913
203028
202702
203423
203057
203100
202881
203002
202722
203360
203034
203142
202840
202943
202714
203276
202953
203061
202837
203208
202947
203318
203066
203168
202955
203206
203105
203311
203142
203318
203251
203561
203375
203488
203401
203559
203473
203674
203399
203521
203504
203632
203493
203752
203523
201076
200069
200075
199385
199664
198468
201742
200689
200523
199656
199885
198507
201918
200804
200566
199739
200115
198752
202251
201172
200975
200147
200564
199018
202489
201501
201304
200521
200952
199436
202836
201929
201760
201051
201483
200134
203058
202248
202104
201411
201809
200600
203310
202570
202383
201642
201954
200669
203365
202559
202354
201573
201857
200719
203149
202288
202028
201074
201286
199782
202854
201720
201407
200366
200517
199148
202304
201150
200932
199875
200053
198688
201903
200662
200558
199580
199793
198578
200910
199747
199878
199089
199524
198567
201178
198089
195681
191799
189444
180181
202537
199615
196940
192727
190314
179798
203302
200192
197421
193214
191005
180541
203967
201062
198302
194254
192276
182653
204639
201901
199281
195492
193704
185370
205347
202791
200404
196939
195294
188267
206024
203593
201455
198215
196642
190489
206557
204198
202364
199345
197760
192092
206857
204557
202830
199663
197837
191911
206495
204054
202310
199134
197320
190608
205674
203257
201328
197679
195460
188124
204267
201558
199524
195953
194009
185724
203132
200115
198089
194529
192851
183813
199783
196633
195043
192127
190893
181823
205432
205542
205307
205402
205236
205151
205303
205459
205240
205258
205029
204967
204923
204961
204751
204785
204569
204600
204683
204794
204394
204473
204284
204385
204116
204148
203978
204135
203971
204150
203885
203937
203757
203905
203820
204075
203723
203741
203595
203780
203746
204032
203716
203673
203551
203760
203738
204038
203715
203680
203575
203826
203797
204051
203750
203759
203672
203929
203877
204069
203780
203860
203773
204030
203950
204048
203921
203996
203883
204087
203993
204033
203892
204014
203849
203998
203832
203900
203800
204074
203976
204052
203989
203881
201164
202007
201496
202171
202012
202828
201230
202203
201895
202731
202727
203663
201551
202486
202229
203051
203112
203981
202090
202999
202768
203545
203670
204422
203053
203803
203491
203990
203976
204665
203700
204206
203826
204242
204158
204722
204061
204476
203982
204290
204133
204489
204081
204352
203766
204082
203865
204190
203656
203864
203285
203659
203335
203741
202998
203246
202710
203098
202716
203257
202152
202542
202077
202503
202110
202731
201216
201854
201388
201850
201525
202211
200333
201151
200666
201097
200850
201612
199572
200568
200194
200653
200426
201099
186928
194942
196355
199256
200851
203482
188838
196830
198611
201899
203782
206254
191034
198220
200218
203458
205234
207291
193529
199722
201659
204732
206644
208465
196489
201594
203415
206004
207144
208914
198362
202455
203662
205847
207057
208615
199501
202735
203448
205046
205924
207567
199373
202286
202537
203949
204740
206585
197663
200983
201121
202515
203369
205340
195178
199385
199532
201146
202244
204389
192177
197671
197998
199909
201158
203365
188982
195711
196254
198602
200151
202483
185688
193796
194644
197388
198934
201496
182911
191760
193020
196096
197981
200366
204611
204680
204499
204576
204351
204451
204432
204561
204423
204560
204371
204469
204973
205162
204790
204777
204540
204584
205097
205027
204738
204781
204557
204614
205298
205218
204903
204913
204680
204740
205413
205275
205013
205013
204795
204849
205579
205396
205164
205155
204927
204954
205694
205503
205301
205313
205072
205079
205760
205621
205434
205486
205227
205228
205856
205766
205584
205666
205394
205354
205897
205835
205677
205753
205515
205462
205997
205940
205798
205864
205616
205527
205873
205921
205730
205825
205610
205530
205833
206049
205885
205937
205771
205645
201397
202183
201927
202685
202644
203323
201992
202587
202411
203120
203200
203977
202742
203324
203167
203770
203913
204544
203909
204397
204101
204494
204475
205020
204881
205296
204897
205163
204995
205398
205596
205833
205383
205559
205311
205565
205913
205979
205461
205640
205417
205582
205818
205754
205187
205423
205196
205431
205380
205295
204776
205091
204860
205197
204825
204772
204296
204634
204405
204823
204074
204253
203818
204154
203917
204415
203289
203757
203311
203687
203433
203916
202527
203222
202713
203109
202843
203503
201936
202831
202391
202784
202553
203033
187875
195074
197219
200600
202668
204848
191695
198054
200250
203476
205324
207302
195454
200799
202723
205463
207103
208710
199464
203595
205192
207561
208478
209822
201949
205243
206216
207990
208970
210137
203661
206093
206531
207879
208660
209845
204194
206120
206191
207217
207887
209248
203451
205340
205174
206225
206902
208554
201608
204160
203934
205139
205964
207734
199142
202705
202538
204068
205115
207067
196319
201206
201219
203050
204255
206332
193421
199415
199770
202039
203478
205619
190487
197630
198435
201098
202665
204897
187829
195647
197025
199937
201734
203934
213517
213314
213846
213751
214147
214324
214826
215175
215727
216206
216566
216447
216098
214807
215200
215023
215356
215281
215504
215568
215956
216192
216591
216757
216848
216474
215794
214503
216432
216426
216712
216697
216790
216793
216930
216918
217081
217145
217048
216675
216086
215078
216916
217216
217436
217519
217545
217500
217484
217410
217444
217344
217187
216772
216073
215072
216595
217223
217593
217837
217892
217872
217817
217713
217656
217492
217267
216876
216266
215408
215975
216824
217425
217841
217979
218015
217983
217879
217780
217587
217313
216924
216321
215512
214834
216032
216941
217482
217808
217958
217994
217931
217818
217643
217379
217047
216548
215868
213873
215493
216514
217303
217719
217910
217955
217905
217779
217630
217384
217103
216676
216138
212873
214602
215865
216870
217433
217706
217792
217777
217651
217550
217354
217177
216867
216519
212452
214144
215620
216662
217258
217523
217566
217544
217378
217298
217121
217028
216817
216626
211681
213441
215142
216301
216964
217237
217215
217175
216950
216901
216740
216724
216557
216495
211506
213206
214908
216031
216639
216863
216742
216636
216297
216237
216005
216046
215805
216027
210554
212654
214347
215560
216159
216295
216052
215822
215376
215274
214944
215031
214718
214984
210325
212662
214117
215167
215552
215533
215196
214814
214256
214035
213518
213559
212791
212954
219575
218736
218772
218235
218396
218487
218980
219523
220138
220790
221406
221688
221817
221124
221010
220348
220286
219874
219844
219786
220070
220342
220803
221231
221477
221474
221201
220448
221936
221502
221435
221146
221037
220914
221002
221037
221204
221385
221470
221342
221094
220552
222174
222090
221986
221832
221689
221549
221502
221432
221463
221468
221412
221193
220768
220140
221443
221803
221934
222000
221933
221836
221767
221663
221612
221502
221349
221095
220681
220073
220594
221205
221639
221842
221904
221902
221872
221774
221677
221521
221288
220995
220536
219922
219258
220298
221005
221424
221678
221802
221829
221763
221654
221505
221271
220993
220592
220066
218168
219572
220495
221144
221521
221693
221732
221682
221570
221442
221237
221015
220696
220278
217091
218590
219854
220701
221214
221461
221537
221522
221419
221333
221182
221048
220845
220607
216588
218170
219620
220524
221053
221277
221305
221280
221149
221092
220979
220936
220846
220836
216005
217699
219276
220260
220820
221020
220995
220953
220778
220767
220702
220792
220789
220915
216184
217756
219252
220173
220650
220760
220609
220495
220223
220227
220170
220367
220373
220774
215762
217582
219002
219967
220386
220395
220081
219844
219480
219473
219410
219723
219770
220397
216231
218071
219302
219984
220068
219875
219429
219006
218553
218521
218414
218774
218519
219098
225295
224270
223985
223169
223011
222847
223066
223542
224100
224668
225317
225691
226183
225952
226377
225476
225076
224430
224180
223969
224020
224235
224482
224906
225216
225386
225503
225085
226784
226163
225775
225291
224967
224702
224594
224599
224666
224806
225005
225056
225129
224903
226755
226429
226050
225695
225357
225109
224947
224857
224816
224827
224854
224800
224679
224380
225972
226000
225885
225691
225483
225278
225131
225000
224900
224816
224723
224600
224420
224167
225127
225440
225594
225491
225430
225316
225207
225074
224949
224822
224657
224477
224218
223930
224048
224694
225028
225202
225278
225265
225188
225073
224941
224814
224638
224456
224199
223938
223246
224015
224663
224991
225164
225195
225139
225044
224913
224801
224641
224502
224331
224157
222341
223351
224203
224705
224979
225066
225035
224973
224858
224786
224680
224603
224526
224432
221934
223106
224045
224593
224882
224959
224906
224851
224727
224689
224636
224637
224673
224737
221518
222862
223901
224502
224775
224818
224738
224681
224544
224551
224557
224662
224841
225031
221836
223042
224030
224559
224745
224681
224515
224412
224223
224250
224320
224551
224775
225153
221742
223114
224042
224610
224726
224545
224235
224029
223783
223836
223943
224335
224589
225264
222331
223744
224472
224776
224635
224384
223836
223523
223237
223296
223380
223819
223853
224498
228871
227749
227369
226678
226440
226285
226419
226717
227024
227518
228086
228360
228924
228941
229528
228689
228171
227529
227187
226937
226934
227104
227363
227613
227911
228021
228264
227986
229689
229074
228591
228115
227782
227526
227403
227355
227381
227462
227649
227650
227759
227635
229554
229192
228767
228396
228047
227790
227616
227490
227443
227400
227427
227382
227301
227110
228859
228766
228569
228355
228112
227902
227741
227591
227482
227373
227271
227158
227001
226844
228178
228336
228358
228161
228061
227922
227786
227632
227494
227356
227193
227039
226814
226618
227283
227718
227890
227933
227956
227888
227763
227619
227473
227335
227167
227005
226789
226591
226632
227180
227598
227779
227851
227821
227713
227591
227449
227319
227171
227048
226911
226788
225854
226686
227250
227553
227695
227708
227625
227537
227416
227321
227221
227149
227096
227020
225564
226429
227085
227432
227602
227616
227532
227454
227335
227271
227214
227204
227235
227344
225333
226274
226989
227368
227520
227506
227422
227350
227229
227205
227209
227284
227466
227682
225576
226453
227102
227428
227502
227417
227284
227186
227029
227030
227096
227257
227486
227809
225578
226590
227197
227528
227515
227308
227085
226930
226738
226786
226910
227212
227518
228113
226169
227155
227558
227740
227545
227310
226895
226664
226424
226467
226556
226939
227103
227781
231256
230144
229770
229170
228906
228725
228791
229015
229271
229652
230130
230318
230850
230931
231725
230907
230365
229756
229432
229211
229195
229283
229488
229681
229930
230003
230238
230000
231695
231115
230641
230197
229885
229637
229504
229433
229452
229495
229649
229643
229714
229582
231533
231178
230780
230402
230077
229825
229658
229517
229458
229402
229402
229356
229280
229101
231003
230840
230633
230360
230128
229913
229747
229584
229461
229348
229243
229132
228983
228830
230461
230535
230502
230230
230120
229948
229787
229612
229456
229311
229151
229005
228810
228635
229766
230027
230166
230098
230051
229922
229768
229601
229440
229287
229117
228962
228776
228600
229309
229624
229894
229965
229975
229881
229741
229590
229429
229281
229127
229004
228887
228783
228726
229157
229600
229773
229829
229787
229672
229556
229418
229299
229190
229110
229054
229017
228432
228907
229411
229645
229735
229715
229614
229514
229387
229287
229216
229193
229194
229318
228157
228778
229295
229576
229667
229629
229543
229458
229347
229286
229269
229316
229456
229650
228277
228948
229381
229633
229672
229583
229473
229375
229248
229210
229230
229324
229504
229766
228238
229064
229452
229692
229670
229517
229355
229220
229061
229065
229154
229386
229664
230148
228808
229528
229810
229947
229770
229567
229257
229033
228847
228853
228919
229212
229389
230017
232956
231947
231590
231032
230771
230559
230645
230773
231011
231276
231650
231798
232209
232338
233222
232454
231966
231421
231123
230907
230884
230943
231082
231227
231424
231483
231665
231489
233040
232533
232118
231716
231425
231194
231062
230993
230989
231013
231143
231140
231176
231073
232890
232550
232193
231839
231541
231299
231138
231010
230956
230909
230903
230862
230792
230652
232484
232272
232053
231775
231557
231344
231174
231020
230910
230815
230725
230639
230518
230395
232076
232057
231965
231705
231559
231360
231184
231009
230866
230743
230612
230503
230357
230220
231559
231697
231711
231598
231491
231325
231156
230988
230835
230699
230560
230447
230314
230182
231175
231397
231512
231499
231432
231292
231137
230978
230825
230689
230560
230469
230396
230336
230678
231001
231249
231321
231313
231216
231098
230970
230837
230721
230628
230572
230548
230536
230420
230762
231089
231223
231243
231178
231079
230972
230852
230750
230684
230666
230692
230797
230222
230635
231000
231182
231205
231144
231051
230958
230860
230791
230783
230819
230957
231116
230345
230798
231083
231252
231234
231151
231049
230955
230855
230796
230807
230881
231051
231264
230313
230909
231135
231311
231250
231140
231000
230891
230768
230750
230819
230996
231264
231636
230877
231364
231459
231546
231364
231193
230964
230775
230612
230600
230668
230899
231093
231658
234286
233411
233099
232597
232345
232141
232181
232263
232461
232644
232926
233031
233321
233478
234386
233724
233313
232842
232575
232371
232313
232335
232428
232530
232682
232715
232851
232757
234190
233753
233390
233028
232756
232527
232387
232304
232285
232306
232401
232393
232416
232381
234052
233730
233408
233080
232798
232556
232386
232259
232211
232162
232155
232118
232067
231989
233729
233484
233248
232975
232747
232532
232358
232213
232115
232030
231959
231895
231811
231743
233426
233324
233177
232915
232722
232506
232323
232158
232030
231927
231828
231754
231659
231578
233000
233024
232963
232784
232635
232448
232275
232112
231973
231862
231759
231690
231612
231537
232687
232788
232800
232709
232577
232410
232246
232091
231954
231844
231752
231699
231671
231656
232266
232460
232574
232562
232482
232362
232229
232098
231976
231881
231821
231799
231810
231838
232048
232278
232470
232512
232459
232366
232253
232138
232028
231943
231902
231906
231957
232065
231924
232199
232431
232506
232455
232372
232265
232165
232076
232020
232032
232076
232218
232359
232074
232351
232527
232596
232522
232431
232318
232218
232129
232088
232115
232187
232354
232548
232077
232439
232589
232680
232578
232463
232321
232217
232119
232111
232181
232332
232600
232892
232570
232886
232879
232894
232718
232545
232348
232189
232047
232057
232137
232351
232560
233064
235360
234628
234329
233870
233619
233415
233385
233439
233585
233724
233939
234026
234250
234430
235308
234768
234407
233994
233737
233528
233448
233431
233507
233576
233691
233726
233840
233825
235087
234720
234396
234068
233806
233580
233443
233352
233327
233357
233423
233420
233451
233486
234937
234642
234338
234035
233769
233540
233373
233256
233210
233162
233167
233156
233135
233138
234639
234397
234154
233891
233663
233457
233296
233167
233087
233014
232967
232936
232900
232901
234387
234236
234051
233808
233599
233393
233223
233081
232977
232895
232828
232795
232758
232740
234028
233971
233860
233666
233498
233317
233155
233015
232903
232822
232754
232727
232706
232692
233772
233799
233741
233599
233440
233278
233122
232989
232879
232803
232750
232733
232746
232772
233460
233551
233578
233516
233386
233262
233127
233011
232914
232850
232822
232833
232884
232940
233338
233468
233553
233522
233403
233302
233182
233079
232996
232939
232929
232956
233047
233142
233304
233456
233564
233548
233433
233344
233231
233141
233074
233042
233078
233143
233304
233437
233480
233609
233679
233660
233532
233437
233321
233234
233169
233158
233212
233304
233479
233666
233521
233708
233769
233769
233623
233504
233365
233267
233190
233204
233295
233448
233716
233978
233953
234101
234015
233960
233771
233593
233417
233299
233201
233241
233349
233549
233794
234228
236217
235646
235397
234990
234748
234540
234475
234491
234587
234690
234863
234942
235116
235286
236105
235672
235373
235022
234786
234579
234479
234431
234478
234530
234622
234663
234765
234789
235874
235571
235291
235002
234765
234554
234419
234321
234289
234305
234360
234379
234423
234494
235700
235444
235173
234904
234661
234451
234299
234194
234148
234102
234113
234128
234138
234188
235417
235197
234970
234742
234533
234348
234201
234084
234007
233944
233915
233919
233923
233971
235194
235033
234850
234640
234443
234258
234104
233979
233887
233822
233779
233781
233789
233821
234901
234814
234688
234512
234342
234174
234024
233902
233808
233748
233708
233713
233734
233768
234718
234695
234611
234459
234297
234141
233993
233876
233784
233730
233702
233713
233755
233813
234517
234547
234521
234420
234279
234148
234010
233902
233819
233775
233765
233794
233874
233958
234476
234533
234539
234457
234319
234203
234075
233977
233908
233870
233879
233923
234036
234139
234487
234554
234579
234509
234369
234263
234143
234056
234001
233980
234028
234112
234282
234419
234657
234698
234695
234621
234470
234364
234246
234167
234118
234120
234188
234298
234485
234663
234715
234792
234784
234727
234560
234438
234307
234219
234164
234185
234285
234448
234707
234953
235087
235115
234980
234886
234689
234524
234374
234284
234231
234282
234406
234607
234866
235240
212581
212320
211781
211938
213523
216361
211220
210062
209498
209722
211173
213980
211646
210174
209139
208902
209962
212553
211458
209855
208752
208542
209465
211544
211917
210238
209131
208800
209566
211274
212266
210722
209927
209881
210801
212451
213081
211793
211327
211558
212726
214624
213898
213030
212870
213345
214765
216860
214913
214414
214493
214906
216592
218852
215690
215510
215777
216195
218004
220234
216212
216209
216338
216581
218485
221226
215925
215805
215661
216011
218009
220834
215390
215020
214759
215072
217283
220364
213181
213156
213099
213641
216044
219134
218881
219516
219186
219484
220444
221873
216506
215741
215268
215512
216461
217863
216392
215052
213929
213594
214087
215144
215752
214050
212546
212036
212448
213298
216002
214056
212368
211627
211915
212744
216295
214313
212807
212208
212786
213764
217123
215379
214253
213828
214857
215800
218187
217011
216421
216312
217765
218629
219324
218787
218700
219001
220713
221499
220457
220322
220572
221186
222934
223909
221333
221632
222353
223211
225059
226185
221579
221976
222515
223408
225205
226626
221527
221795
222300
223292
225019
226513
219897
220507
221107
222230
223981
225575
224810
225481
224958
224791
224704
225128
222243
221667
220912
220492
220345
220720
221825
220592
219224
218241
217619
217654
221070
219399
217541
216289
215552
215471
221128
219273
217190
215781
214831
214625
221278
219369
217384
216104
215406
215452
221904
220182
218683
217673
217393
217812
222714
221483
220691
220101
220272
221103
223586
223060
222824
222841
223485
224580
224572
224603
224795
225357
226335
227677
225475
225933
226643
227578
228849
230361
225986
226717
227370
228333
229493
231070
226332
226860
227465
228433
229547
231001
225219
225925
226575
227570
228505
229721
228423
229283
228891
228670
228251
228075
226190
225914
225201
224488
223748
223290
225594
224608
223288
222035
220842
219840
224940
223510
221650
219824
218216
216990
224849
223271
221190
219220
217394
216021
224910
223389
221283
219455
217831
216739
225330
223976
222320
220954
219852
219152
225964
224974
224088
223241
222771
222507
226689
226302
226000
225751
225844
226042
227532
227569
227807
228105
228708
229300
228343
228787
229425
230147
231129
232058
228755
229507
230242
231176
232150
233176
229272
229905
230575
231519
232403
233422
228597
229273
229877
230869
231536
232291
230694
231372
231128
230954
230474
230317
228928
228670
227933
227156
226207
225571
228322
227444
226164
224830
223366
222093
227753
226523
224885
222922
220876
219011
227617
226208
224471
222263
220046
217954
227657
226356
224656
222541
220517
218610
228015
226840
225399
223871
222406
221025
228426
227678
226927
226009
225227
224482
229050
228714
228444
228111
228003
227906
229692
229758
230007
230223
230623
231027
230399
230803
231373
231987
232772
233559
230707
231378
232085
232927
233814
234813
231227
231815
232466
233282
234076
235134
230790
231436
231886
232694
233344
234154
232507
233137
232944
232874
232584
232478
231113
231051
230394
229822
228946
228179
230516
229977
228819
227619
226056
224661
230023
229206
227697
226096
223903
221816
229846
228883
227233
225425
222960
220689
229824
228824
227440
225628
223385
221266
230112
229212
227951
226563
224973
223367
230410
229855
229144
228320
227407
226467
230885
230644
230365
230023
229822
229609
231353
231451
231661
231836
232155
232439
231925
232293
232798
233337
234013
234699
232150
232728
233386
234157
235007
235953
232595
233114
233759
234522
235308
236306
232332
232959
233393
234123
234741
235540
233906
234510
234415
234447
234313
234134
232800
232907
232392
231953
231275
230583
232305
231990
231121
230103
228812
227421
231886
231304
230237
228817
227119
225046
231732
230960
229842
228180
226310
223883
231659
230893
229818
228373
226490
224305
231884
231246
230246
228994
227580
225973
232071
231667
231101
230357
229541
228565
232422
232269
232058
231729
231495
231244
232744
232865
233052
233204
233485
233716
233185
233517
233958
234439
235048
235675
233345
233832
234418
235107
235905
236789
233698
234159
234773
235468
236228
237159
233568
234130
234581
235251
235842
236608
235055
235612
235609
235723
235694
235636
234209
234395
234075
233826
233346
232783
233805
233659
233071
232389
231322
230150
233426
233071
232335
231377
229886
228327
233249
232759
231905
230831
229137
227377
233120
232627
231811
230746
229266
227420
233227
232858
232163
231180
229938
228544
233358
233111
232691
232106
231388
230558
233622
233556
233412
233173
232916
232678
233859
233995
234158
234317
234530
234729
234190
234484
234860
235291
235820
236378
234320
234731
235226
235822
236532
237315
234596
234991
235540
236154
236843
237688
234540
235054
235470
236065
236606
237322
235999
236468
236508
236664
236701
236746
235353
235524
235349
235233
234949
234547
235038
234965
234581
234105
233364
232374
234712
234499
233996
233270
232197
230769
234537
234214
233604
232735
231552
230010
234392
234059
233465
232649
231479
230137
234405
234180
233732
233024
232026
230895
234471
234338
234046
233602
233032
232388
234657
234652
234579
234418
234229
234012
234838
234981
235132
235276
235468
235638
235099
235358
235679
236039
236492
236966
235209
235552
235961
236449
237052
237707
235424
235747
236202
236710
237297
238019
235383
235802
236156
236661
237134
237764
213629
213478
212957
213478
215751
218298
212964
211944
211183
211327
213447
216258
213422
212040
210934
210531
211997
214530
213528
211973
210619
209868
210991
213385
213985
212355
210847
209880
210604
212811
214313
212844
211451
210516
211074
212978
214871
213589
212465
211798