/*--------------------------------*- C++ -*----------------------------------*\
| =========                 |                                                 |
| \\      /  F ield         | OpenFOAM: The Open Source CFD Toolbox           |
|  \\    /   O peration     | Version:  v2106                                 |
|   \\  /    A nd           | Website:  www.openfoam.com                      |
|    \\/     M anipulation  |                                                 |
\*---------------------------------------------------------------------------*/
FoamFile
{
    version     2.0;
    format      ascii;
    arch        "LSB;label=32;scalar=64";
    class       volScalarField;
    location    "0.000132";
    object      rho;
}
// * * * * * * * * * * * * * * * * * * * * * * * * * * * * * * * * * * * * * //

dimensions      [1 -3 0 0 0 0 0];

internalField   nonuniform List<scalar> 
144746
(
2.40598
2.40916
2.41072
2.41244
2.41349
2.41454
2.41539
2.41602
2.41648
2.41641
2.41571
2.41417
2.4116
2.40748
2.40765
2.41194
2.41437
2.41658
2.41775
2.41877
2.41954
2.41993
2.42008
2.41981
2.41883
2.417
2.41426
2.40907
2.40822
2.41374
2.41646
2.41921
2.42049
2.42169
2.42222
2.42229
2.42218
2.42184
2.4209
2.41903
2.41621
2.41078
2.40886
2.41421
2.41739
2.42059
2.42229
2.4237
2.4244
2.42454
2.42432
2.42379
2.42267
2.42071
2.41776
2.4124
2.40765
2.41332
2.41703
2.42067
2.42287
2.42457
2.4254
2.42544
2.42515
2.42461
2.42346
2.42164
2.41864
2.41351
2.40624
2.412
2.41619
2.42007
2.42266
2.42446
2.42552
2.42573
2.42542
2.42499
2.42389
2.42216
2.41923
2.41442
2.40489
2.41046
2.41497
2.41899
2.42193
2.42393
2.42506
2.42548
2.42527
2.42478
2.42368
2.4219
2.4191
2.41454
2.40314
2.40874
2.41339
2.41768
2.42084
2.42295
2.42423
2.42482
2.42473
2.42426
2.42304
2.42116
2.41845
2.41414
2.4011
2.4067
2.41145
2.41594
2.41908
2.42132
2.42273
2.42335
2.42334
2.42282
2.42152
2.41948
2.41684
2.41271
2.39869
2.40431
2.40916
2.41389
2.41696
2.41922
2.42068
2.42142
2.42137
2.4205
2.41899
2.41689
2.4144
2.41053
2.39604
2.40159
2.40634
2.41093
2.41384
2.41596
2.41737
2.41798
2.41793
2.41722
2.41579
2.41381
2.41138
2.4076
2.39296
2.39823
2.40276
2.40718
2.40988
2.41182
2.41314
2.41363
2.41362
2.41284
2.41152
2.40953
2.4072
2.40349
2.39009
2.39464
2.39892
2.40321
2.40569
2.40746
2.4087
2.40917
2.40906
2.40809
2.40673
2.40457
2.4023
2.39868
2.38661
2.39003
2.39323
2.39743
2.39983
2.4014
2.40245
2.40279
2.40247
2.40103
2.39954
2.39727
2.39543
2.39311
2.38557
2.39137
2.39675
2.40211
2.4069
2.4105
2.41357
2.41524
2.41628
2.41573
2.41365
2.40923
2.40304
2.39483
2.39376
2.40047
2.40552
2.40994
2.41379
2.41631
2.41862
2.41953
2.42024
2.41971
2.41773
2.41364
2.4076
2.39908
2.40106
2.40762
2.412
2.41605
2.41919
2.42133
2.42305
2.4239
2.42419
2.42283
2.42061
2.41663
2.41083
2.40213
2.40645
2.41305
2.41714
2.4213
2.42421
2.42617
2.42723
2.42751
2.4271
2.42575
2.42323
2.41919
2.41355
2.40544
2.40959
2.4159
2.41959
2.42421
2.42702
2.42923
2.43019
2.4304
2.42974
2.4277
2.42535
2.4214
2.41577
2.4081
2.40934
2.41562
2.4197
2.42517
2.42857
2.43099
2.43197
2.43211
2.43106
2.42909
2.42609
2.42212
2.41705
2.41023
2.40692
2.41364
2.41873
2.42472
2.42822
2.43095
2.43223
2.43258
2.43151
2.42968
2.42686
2.42301
2.41821
2.41172
2.40362
2.41074
2.41705
2.42308
2.42722
2.43017
2.43159
2.43198
2.43089
2.42909
2.42638
2.42262
2.41839
2.41238
2.39867
2.40599
2.41378
2.41989
2.42508
2.42814
2.42965
2.42992
2.42884
2.42721
2.42479
2.42147
2.41762
2.41205
2.39379
2.40123
2.40954
2.41607
2.42165
2.42485
2.42639
2.42655
2.42554
2.42392
2.42163
2.41866
2.41505
2.40981
2.38749
2.39532
2.40439
2.4115
2.41723
2.4205
2.42185
2.42159
2.42045
2.41873
2.41672
2.41363
2.41008
2.40496
2.38098
2.38935
2.39849
2.40585
2.41144
2.41479
2.41603
2.41605
2.41467
2.41198
2.40987
2.40626
2.4027
2.39744
2.37339
2.38351
2.39294
2.40082
2.40593
2.40869
2.40883
2.40764
2.40566
2.40342
2.40071
2.3968
2.39293
2.38746
2.36466
2.37361
2.38271
2.39164
2.39688
2.39945
2.39928
2.3977
2.39564
2.39233
2.3889
2.38433
2.38013
2.37534
2.40826
2.42003
2.42975
2.43636
2.44317
2.44743
2.4529
2.45642
2.46016
2.46109
2.45801
2.4505
2.43753
2.4191
2.42595
2.43504
2.44416
2.44946
2.45535
2.45983
2.4644
2.46655
2.46772
2.46744
2.46416
2.45602
2.44208
2.42518
2.4402
2.44809
2.45618
2.46162
2.46628
2.46959
2.47208
2.47293
2.47395
2.47213
2.46823
2.46066
2.44833
2.43221
2.4498
2.45869
2.46574
2.47127
2.47536
2.47782
2.479
2.479
2.47819
2.47618
2.472
2.4646
2.45315
2.4382
2.45308
2.46277
2.47008
2.47612
2.48027
2.48228
2.48298
2.48254
2.48134
2.47859
2.47418
2.46731
2.45741
2.44394
2.45231
2.46231
2.47038
2.47756
2.482
2.48437
2.48508
2.48463
2.48308
2.48028
2.47591
2.46939
2.46049
2.44813
2.44626
2.45695
2.46727
2.47508
2.48068
2.48394
2.48519
2.48505
2.48347
2.48081
2.47652
2.47054
2.46276
2.45208
2.43991
2.45195
2.46358
2.47216
2.47885
2.48272
2.48422
2.48421
2.48258
2.48009
2.47605
2.47054
2.46326
2.45399
2.42974
2.44367
2.45636
2.46704
2.47503
2.4797
2.48159
2.48175
2.48014
2.47786
2.47415
2.46934
2.46288
2.45476
2.42203
2.43648
2.44957
2.46142
2.4702
2.47535
2.4773
2.4774
2.47552
2.4731
2.46935
2.4647
2.45863
2.45067
2.41164
2.42648
2.44114
2.4544
2.46405
2.46957
2.47108
2.47085
2.46844
2.46573
2.46172
2.45686
2.45057
2.44237
2.4019
2.41731
2.43241
2.446
2.45592
2.46181
2.46274
2.46198
2.45856
2.45501
2.4499
2.44446
2.43725
2.42976
2.3887
2.4049
2.42094
2.43573
2.44601
2.45182
2.45189
2.44973
2.44476
2.43996
2.43306
2.42689
2.41862
2.41149
2.37163
2.39128
2.40814
2.42328
2.43309
2.43858
2.43826
2.43542
2.42978
2.42317
2.41416
2.40676
2.39576
2.38577
2.40392
2.40075
2.39923
2.39649
2.39725
2.39586
2.40497
2.39958
2.39828
2.3956
2.39696
2.39527
2.40557
2.39918
2.39728
2.39463
2.39592
2.3943
2.40692
2.39965
2.39733
2.39447
2.39533
2.3927
2.40799
2.40047
2.39796
2.39486
2.39578
2.39342
2.40902
2.40155
2.39897
2.39562
2.39647
2.39484
2.40948
2.40224
2.39944
2.39591
2.39664
2.39558
2.40939
2.40257
2.39965
2.39568
2.3965
2.39529
2.40818
2.40175
2.3992
2.39523
2.39619
2.39492
2.40645
2.40045
2.39813
2.39366
2.39466
2.3932
2.40345
2.3976
2.3954
2.39245
2.39425
2.39326
2.39967
2.39385
2.39151
2.38743
2.38821
2.3874
2.39503
2.38972
2.38806
2.38521
2.38622
2.38515
2.39071
2.38632
2.385
2.38219
2.38347
2.38223
2.38598
2.37577
2.37111
2.36141
2.36186
2.35279
2.39145
2.38022
2.37501
2.36466
2.3658
2.35525
2.39299
2.38139
2.37649
2.3675
2.36989
2.35917
2.39635
2.38491
2.38073
2.37298
2.37607
2.36507
2.39913
2.38874
2.38569
2.37881
2.38232
2.37229
2.40219
2.39308
2.3907
2.38453
2.38811
2.37906
2.4044
2.39628
2.39416
2.38863
2.39157
2.38399
2.40598
2.39844
2.39612
2.39044
2.39258
2.38552
2.40622
2.39876
2.39548
2.3898
2.39143
2.38384
2.40433
2.39611
2.39201
2.3855
2.38616
2.37811
2.39956
2.3905
2.38532
2.37665
2.37534
2.36613
2.3919
2.38102
2.37501
2.36358
2.36152
2.3524
2.38207
2.37008
2.3641
2.35274
2.35122
2.34288
2.37059
2.35762
2.35296
2.34187
2.34147
2.33219
2.39442
2.36823
2.34356
2.30604
2.27833
2.20453
2.40664
2.37981
2.35482
2.31581
2.29066
2.20909
2.41287
2.38612
2.36127
2.32418
2.30466
2.22426
2.42017
2.39474
2.37264
2.33845
2.32396
2.25125
2.42734
2.40269
2.38271
2.3526
2.34241
2.2812
2.4331
2.41076
2.39357
2.36717
2.35916
2.3092
2.43868
2.41809
2.4027
2.37943
2.3712
2.32993
2.44199
2.42359
2.40899
2.38713
2.37706
2.33993
2.44354
2.42636
2.41208
2.3901
2.37752
2.34116
2.44127
2.42366
2.40907
2.38496
2.3695
2.32945
2.43266
2.41316
2.39744
2.37121
2.35185
2.30571
2.41733
2.39655
2.37652
2.34213
2.31846
2.26275
2.3991
2.37304
2.34941
2.31348
2.28829
2.22558
2.36734
2.33907
2.31593
2.27919
2.25385
2.18314
2.38844
2.38502
2.38331
2.38155
2.38248
2.38051
2.38996
2.38405
2.38255
2.38035
2.38183
2.3795
2.39119
2.38445
2.38267
2.38076
2.38206
2.3799
2.3931
2.38542
2.38342
2.38108
2.38208
2.37942
2.39444
2.38631
2.38423
2.38174
2.38253
2.37994
2.39591
2.38739
2.38501
2.3825
2.38326
2.38104
2.39643
2.38796
2.38507
2.38237
2.38331
2.38103
2.3961
2.38773
2.38472
2.38175
2.38258
2.38069
2.39552
2.38754
2.38489
2.38085
2.38144
2.37997
2.39411
2.38643
2.38373
2.38005
2.38277
2.38109
2.39254
2.38595
2.3835
2.37989
2.38148
2.38104
2.38912
2.38405
2.38294
2.38083
2.38295
2.38175
2.38674
2.38327
2.38289
2.38122
2.38264
2.38065
2.38402
2.382
2.38211
2.38057
2.38264
2.38089
2.36415
2.35096
2.3466
2.33726
2.3376
2.32668
2.37057
2.35641
2.35047
2.34019
2.34045
2.32811
2.37328
2.3587
2.35229
2.34274
2.34457
2.33246
2.37745
2.36365
2.35808
2.3489
2.35141
2.33787
2.38089
2.36817
2.36307
2.35457
2.35741
2.34421
2.38525
2.37328
2.36865
2.3607
2.36339
2.35148
2.38834
2.37718
2.37258
2.36425
2.366
2.35498
2.39111
2.38035
2.37479
2.36536
2.36589
2.35391
2.39173
2.3802
2.37371
2.3632
2.36315
2.35246
2.38928
2.37725
2.36985
2.35701
2.3557
2.3419
2.38459
2.37074
2.36268
2.3483
2.34599
2.33311
2.3762
2.36277
2.35583
2.34187
2.33995
2.32718
2.36928
2.35565
2.35073
2.33908
2.33825
2.32691
2.3593
2.34695
2.34568
2.33687
2.33925
2.33036
2.36015
2.32984
2.30521
2.26695
2.23968
2.15761
2.37305
2.34388
2.31733
2.27696
2.25112
2.15942
2.38243
2.35192
2.32487
2.28545
2.26252
2.17152
2.39092
2.36245
2.33588
2.29877
2.27915
2.19596
2.39938
2.37257
2.3473
2.31301
2.29623
2.22444
2.40786
2.38279
2.3593
2.32727
2.31067
2.24969
2.41542
2.39122
2.36944
2.33813
2.31994
2.26533
2.42071
2.3965
2.37617
2.34561
2.32621
2.2748
2.42325
2.39906
2.37851
2.34554
2.32306
2.26911
2.41904
2.39318
2.37169
2.33787
2.31456
2.25342
2.40956
2.38355
2.35997
2.32168
2.29434
2.22745
2.39479
2.36657
2.34216
2.30447
2.27959
2.20536
2.38232
2.35307
2.33079
2.29506
2.27417
2.19468
2.35368
2.32477
2.30914
2.28183
2.26879
2.19027
2.39835
2.39935
2.39795
2.40025
2.40108
2.40311
2.39774
2.39908
2.3981
2.40032
2.40145
2.40441
2.39558
2.39588
2.39512
2.39796
2.39984
2.40433
2.39485
2.39578
2.39352
2.39697
2.39933
2.40466
2.39118
2.3915
2.39115
2.39509
2.39736
2.4032
2.39019
2.39064
2.38997
2.39323
2.39564
2.40196
2.38962
2.38993
2.38927
2.39201
2.39423
2.40056
2.39024
2.3901
2.38942
2.39178
2.39335
2.39921
2.39016
2.39002
2.38928
2.39178
2.3927
2.39758
2.38956
2.38964
2.38894
2.39125
2.39153
2.39557
2.38814
2.38874
2.38794
2.39004
2.38982
2.393
2.38735
2.38785
2.38678
2.38841
2.38803
2.39063
2.38535
2.38616
2.3847
2.38595
2.38513
2.38764
2.38334
2.38541
2.38464
2.38542
2.38566
2.38626
2.35912
2.36675
2.36344
2.37115
2.372
2.38083
2.3555
2.36467
2.36472
2.37565
2.37928
2.38986
2.35666
2.36581
2.36754
2.37993
2.38503
2.39557
2.36291
2.37199
2.37405
2.38605
2.39184
2.40172
2.37436
2.38198
2.38281
2.3915
2.39561
2.40477
2.38341
2.38872
2.38806
2.39485
2.39763
2.40555
2.38986
2.39415
2.39182
2.39651
2.39756
2.40328
2.39322
2.3962
2.39257
2.39641
2.39568
2.39978
2.39259
2.39479
2.39051
2.39405
2.39131
2.39501
2.38878
2.39076
2.3858
2.38863
2.38504
2.38957
2.38087
2.38374
2.37887
2.38153
2.37799
2.38325
2.37021
2.37506
2.37015
2.37317
2.37032
2.37636
2.35805
2.3644
2.35975
2.36293
2.36103
2.36825
2.34526
2.35371
2.35072
2.35521
2.35424
2.36141
2.24666
2.31393
2.32463
2.35013
2.36589
2.39018
2.24813
2.31722
2.33668
2.36934
2.3904
2.41479
2.25834
2.32276
2.34802
2.38307
2.40485
2.42654
2.27932
2.33658
2.36228
2.3965
2.41938
2.43874
2.30894
2.35682
2.38063
2.40969
2.42513
2.4436
2.33115
2.36935
2.38615
2.4107
2.42613
2.44232
2.34682
2.37709
2.38855
2.40717
2.41904
2.43521
2.35281
2.37955
2.38547
2.40083
2.41068
2.42771
2.34671
2.37561
2.37833
2.39132
2.39971
2.41669
2.3341
2.36851
2.36767
2.38048
2.38988
2.40752
2.31335
2.35727
2.35521
2.36907
2.3792
2.39701
2.286
2.33994
2.33832
2.35521
2.36771
2.38666
2.25123
2.31777
2.31962
2.34024
2.35316
2.37455
2.21617
2.29029
2.29824
2.32298
2.33932
2.36043
2.39873
2.39932
2.39871
2.40138
2.40226
2.40606
2.39842
2.39976
2.3997
2.40295
2.40436
2.40865
2.40418
2.40616
2.40412
2.40644
2.40763
2.41162
2.406
2.40599
2.40477
2.40755
2.40875
2.41281
2.40824
2.40822
2.40692
2.40913
2.40988
2.41381
2.40959
2.40903
2.40802
2.40974
2.41022
2.41391
2.41102
2.40981
2.40877
2.40995
2.40994
2.41335
2.41143
2.41012
2.40901
2.40993
2.40935
2.41252
2.41068
2.40981
2.40856
2.4094
2.40845
2.41167
2.40944
2.40899
2.40766
2.4085
2.40746
2.41058
2.40755
2.40728
2.40618
2.40698
2.40631
2.40943
2.4065
2.40613
2.40521
2.40617
2.40545
2.40808
2.40387
2.40427
2.40304
2.40453
2.40417
2.40648
2.40218
2.40409
2.40331
2.40481
2.40505
2.40649
2.35706
2.3647
2.36552
2.3769
2.38161
2.39053
2.36451
2.37065
2.37277
2.38412
2.38916
2.39826
2.37447
2.38072
2.38289
2.39236
2.39714
2.405
2.38815
2.39366
2.3937
2.40011
2.40286
2.40988
2.39945
2.40408
2.40248
2.4067
2.40742
2.41296
2.40791
2.41063
2.4079
2.41059
2.40994
2.41391
2.41291
2.41376
2.40978
2.41183
2.41079
2.41349
2.41489
2.41425
2.40916
2.41077
2.40881
2.41135
2.41338
2.41215
2.40665
2.40805
2.40539
2.40834
2.40901
2.40752
2.40177
2.40303
2.40023
2.40388
2.40123
2.40139
2.39589
2.39722
2.39449
2.39895
2.39206
2.39457
2.38913
2.3911
2.38847
2.39301
2.38177
2.38641
2.38092
2.38351
2.38135
2.38769
2.37158
2.37872
2.37469
2.37824
2.37711
2.38227
2.22709
2.29167
2.31773
2.35315
2.37665
2.39952
2.26192
2.31938
2.34606
2.3807
2.40309
2.42437
2.29893
2.34772
2.37193
2.40244
2.42229
2.43977
2.33921
2.37719
2.3978
2.42415
2.43686
2.45134
2.36647
2.39675
2.41045
2.43041
2.44293
2.45526
2.38719
2.4092
2.41673
2.43189
2.44176
2.45359
2.39828
2.41556
2.41826
2.42909
2.4367
2.44897
2.39992
2.41567
2.41445
2.42346
2.42926
2.4428
2.39262
2.41243
2.40802
2.41639
2.42197
2.43555
2.37761
2.4048
2.39867
2.40845
2.41512
2.42959
2.35684
2.39432
2.38795
2.39933
2.40709
2.42252
2.33282
2.379
2.37387
2.38822
2.39831
2.41472
2.3035
2.35989
2.35828
2.37628
2.38806
2.40603
2.2711
2.33446
2.33973
2.36109
2.37577
2.39495
2.49153
2.49065
2.4956
2.49504
2.49813
2.499
2.50269
2.50533
2.50934
2.51208
2.51322
2.50973
2.50411
2.49038
2.50115
2.50013
2.50347
2.5034
2.5058
2.50685
2.51058
2.51314
2.51666
2.51753
2.51709
2.51171
2.50294
2.48863
2.51065
2.51097
2.51395
2.51463
2.51635
2.51723
2.51914
2.51966
2.52132
2.52172
2.52009
2.51503
2.50696
2.49465
2.5151
2.5185
2.52133
2.52306
2.52421
2.5246
2.52507
2.5248
2.52523
2.52425
2.52219
2.51706
2.50837
2.49632
2.51328
2.51958
2.52379
2.52689
2.52828
2.52882
2.52879
2.52816
2.52772
2.5261
2.52348
2.51876
2.51126
2.50092
2.51002
2.51751
2.5232
2.52758
2.52956
2.53045
2.53056
2.5299
2.52908
2.52722
2.52424
2.51967
2.51262
2.50317
2.50271
2.51176
2.51931
2.5246
2.5282
2.53005
2.53072
2.53039
2.52947
2.52778
2.52493
2.52101
2.51515
2.50722
2.49666
2.50761
2.51521
2.52246
2.52715
2.52957
2.53034
2.5301
2.52907
2.5276
2.52496
2.5217
2.51682
2.51058
2.4897
2.50022
2.50902
2.51806
2.52424
2.52751
2.52867
2.52876
2.52773
2.52666
2.52454
2.52225
2.5185
2.51401
2.48701
2.49617
2.50609
2.5155
2.52209
2.52533
2.52616
2.52624
2.52485
2.52387
2.52193
2.52039
2.51741
2.51416
2.48037
2.48955
2.50115
2.51162
2.51889
2.52216
2.52237
2.52223
2.52017
2.51927
2.5174
2.51643
2.51376
2.51147
2.478
2.48635
2.4981
2.50841
2.51527
2.51809
2.51735
2.51632
2.51299
2.51172
2.50899
2.50824
2.5048
2.50501
2.46861
2.4804
2.49233
2.50334
2.51004
2.51213
2.5103
2.50781
2.50315
2.50105
2.49695
2.49624
2.49207
2.4927
2.46479
2.47909
2.48924
2.49851
2.50315
2.50405
2.5016
2.49767
2.49165
2.48796
2.48158
2.47989
2.47185
2.47208
2.55467
2.5478
2.54725
2.54157
2.54112
2.53953
2.54164
2.54476
2.54887
2.55316
2.55665
2.55708
2.55683
2.55027
2.55719
2.55104
2.55056
2.54706
2.54648
2.54566
2.54779
2.55005
2.55395
2.5572
2.55819
2.55658
2.55268
2.54483
2.56111
2.55739
2.55722
2.55527
2.55479
2.55411
2.55519
2.55586
2.55755
2.55898
2.55906
2.55684
2.55304
2.54629
2.56249
2.56222
2.56204
2.56153
2.56094
2.56021
2.56022
2.55988
2.56022
2.56016
2.55927
2.55651
2.55137
2.54388
2.55701
2.56055
2.56231
2.56359
2.56362
2.5633
2.56304
2.56234
2.56193
2.56087
2.55919
2.55624
2.55145
2.54453
2.55163
2.55662
2.56056
2.56273
2.56371
2.56411
2.56413
2.56345
2.56265
2.56123
2.55893
2.55576
2.55075
2.54406
2.543
2.55001
2.55547
2.55931
2.56196
2.56335
2.56379
2.56337
2.56249
2.56116
2.5589
2.55593
2.55157
2.54585
2.53709
2.54497
2.55106
2.55662
2.56047
2.56241
2.56295
2.56265
2.56175
2.56059
2.5586
2.55622
2.55282
2.54838
2.53216
2.53824
2.54562
2.55249
2.55758
2.56028
2.56114
2.56114
2.56032
2.55951
2.55799
2.55643
2.55416
2.55148
2.53197
2.5362
2.54359
2.55058
2.55588
2.55839
2.55887
2.55882
2.55773
2.55708
2.55589
2.55509
2.55367
2.55288
2.52913
2.5329
2.54059
2.54804
2.55358
2.55583
2.55583
2.55559
2.55403
2.55363
2.55282
2.55313
2.55235
2.55252
2.53152
2.53347
2.54017
2.54699
2.55174
2.55319
2.5521
2.55102
2.54847
2.54808
2.54722
2.54835
2.54754
2.54996
2.52844
2.53214
2.53808
2.54494
2.54903
2.5496
2.54714
2.54473
2.5412
2.54054
2.53936
2.54123
2.54065
2.54517
2.53206
2.53682
2.5407
2.54465
2.54572
2.54465
2.54116
2.53716
2.53272
2.5316
2.52971
2.53179
2.529
2.53355
2.60296
2.59442
2.59087
2.58254
2.57915
2.57582
2.57595
2.57847
2.58236
2.58663
2.59124
2.59346
2.59703
2.59495
2.60343
2.59483
2.59142
2.58585
2.58324
2.58115
2.58132
2.58293
2.58511
2.58865
2.59079
2.59145
2.59189
2.58787
2.60369
2.59797
2.5949
2.59115
2.58861
2.58658
2.58587
2.58608
2.58683
2.58807
2.58947
2.58933
2.58935
2.58648
2.60279
2.60017
2.5973
2.59472
2.59229
2.59044
2.58928
2.58867
2.58841
2.58848
2.58857
2.58775
2.5861
2.58248
2.59639
2.59689
2.59622
2.59501
2.59368
2.59225
2.59118
2.59017
2.58935
2.5886
2.58771
2.58638
2.58429
2.58121
2.59039
2.59276
2.59419
2.59361
2.5934
2.5927
2.59193
2.59089
2.58986
2.58876
2.58728
2.58551
2.58286
2.57968
2.58317
2.58708
2.5896
2.59131
2.59222
2.59227
2.59179
2.5909
2.58981
2.58873
2.58717
2.58541
2.58283
2.58005
2.57919
2.58224
2.5865
2.5894
2.5912
2.59168
2.59135
2.59064
2.58957
2.5886
2.58719
2.58584
2.58406
2.58218
2.57553
2.57819
2.58282
2.58683
2.58955
2.59055
2.59041
2.58998
2.58904
2.58841
2.58746
2.58667
2.58581
2.58479
2.57618
2.57773
2.58172
2.58575
2.58859
2.58954
2.58922
2.58884
2.58781
2.58742
2.58689
2.58677
2.58693
2.5873
2.57509
2.57647
2.58061
2.58494
2.58758
2.5882
2.58766
2.58722
2.58604
2.58598
2.58594
2.58665
2.58789
2.58922
2.57932
2.57844
2.58177
2.58541
2.5872
2.58686
2.5856
2.58467
2.58301
2.58311
2.58353
2.58524
2.58675
2.58951
2.57973
2.57974
2.58224
2.5858
2.58694
2.58559
2.58305
2.58113
2.57894
2.57923
2.57986
2.5828
2.58457
2.59003
2.58471
2.58638
2.58655
2.58726
2.58606
2.58416
2.57964
2.57677
2.5742
2.57451
2.57489
2.57819
2.57827
2.58368
2.62688
2.61724
2.61331
2.60667
2.6036
2.6016
2.60211
2.60397
2.60628
2.61039
2.61495
2.61696
2.62138
2.62132
2.62798
2.6202
2.61592
2.61055
2.60751
2.60535
2.60532
2.60673
2.60899
2.61122
2.61367
2.61438
2.61619
2.6136
2.62808
2.62268
2.61878
2.61496
2.61225
2.61019
2.60931
2.60904
2.60937
2.61015
2.6117
2.61155
2.61227
2.61072
2.6267
2.62376
2.6204
2.61751
2.61481
2.61279
2.61143
2.61046
2.61012
2.60979
2.61001
2.60956
2.60868
2.60652
2.6209
2.62032
2.61888
2.61733
2.61554
2.61393
2.61265
2.61144
2.61055
2.60966
2.60881
2.60783
2.60631
2.60451
2.6156
2.61687
2.61726
2.61586
2.61519
2.61416
2.61308
2.61182
2.61068
2.60954
2.6082
2.60687
2.60482
2.60284
2.60885
2.61186
2.61341
2.61398
2.61433
2.61387
2.6129
2.61171
2.61051
2.60938
2.60798
2.60659
2.60464
2.60273
2.60465
2.60767
2.6109
2.61266
2.61344
2.61329
2.61248
2.61149
2.61032
2.60925
2.60803
2.60696
2.6057
2.6045
2.6002
2.6042
2.60806
2.61073
2.61213
2.61235
2.61175
2.61104
2.61003
2.60926
2.60844
2.60783
2.60733
2.60663
2.59995
2.60281
2.60681
2.60972
2.61135
2.6116
2.61097
2.61033
2.60933
2.60879
2.60833
2.60829
2.60856
2.60943
2.59937
2.60187
2.60605
2.60921
2.61066
2.61064
2.61002
2.60941
2.60838
2.60816
2.60819
2.6088
2.61029
2.61206
2.60243
2.60369
2.60708
2.60971
2.6105
2.60985
2.60879
2.60796
2.60662
2.60659
2.6071
2.60834
2.61012
2.61273
2.60351
2.60545
2.60818
2.61054
2.61054
2.60891
2.60704
2.60569
2.60405
2.6044
2.60535
2.60776
2.61019
2.61503
2.6089
2.6114
2.61176
2.61239
2.61076
2.60887
2.60538
2.60333
2.60128
2.60158
2.60221
2.60529
2.60669
2.61225
2.64245
2.63279
2.62904
2.62381
2.62155
2.62002
2.62051
2.62232
2.62459
2.62789
2.63193
2.63356
2.63778
2.63815
2.64479
2.63786
2.63337
2.62837
2.62572
2.62394
2.62387
2.62469
2.62651
2.62826
2.63043
2.63105
2.63291
2.63065
2.64446
2.63972
2.63591
2.63231
2.62976
2.62776
2.62674
2.62622
2.62641
2.62688
2.62823
2.62818
2.62871
2.62736
2.64307
2.64034
2.63722
2.63421
2.63162
2.62959
2.62824
2.6271
2.62663
2.62622
2.62627
2.62589
2.62519
2.6235
2.6387
2.63755
2.63603
2.63394
2.63213
2.63041
2.62905
2.62771
2.62671
2.62581
2.62497
2.62407
2.62277
2.6213
2.63424
2.63498
2.63491
2.63289
2.63208
2.63072
2.62938
2.62794
2.62666
2.62548
2.6242
2.62301
2.62136
2.61974
2.62856
2.63076
2.63211
2.63173
2.6315
2.63051
2.62923
2.62784
2.62652
2.62528
2.62392
2.62265
2.62107
2.61949
2.62498
2.62739
2.62981
2.63065
2.63085
2.63015
2.62901
2.62776
2.62644
2.62523
2.624
2.62301
2.622
2.62105
2.6207
2.62362
2.62736
2.62909
2.62967
2.62938
2.62847
2.62751
2.62636
2.6254
2.62454
2.62391
2.62344
2.62309
2.61895
2.62173
2.62584
2.62807
2.62895
2.62883
2.62803
2.62718
2.62612
2.62532
2.62478
2.62464
2.62468
2.62568
2.61708
2.62075
2.62492
2.62754
2.62843
2.62815
2.62745
2.62671
2.62577
2.62528
2.62516
2.62559
2.62678
2.62839
2.61856
2.62231
2.62572
2.62802
2.62847
2.62774
2.62683
2.62599
2.62491
2.62459
2.62474
2.62548
2.62699
2.62915
2.61903
2.62357
2.62649
2.62853
2.62841
2.62715
2.62577
2.62462
2.62328
2.6233
2.624
2.62589
2.62817
2.63208
2.62439
2.62807
2.62964
2.63057
2.62913
2.62748
2.62485
2.62293
2.62135
2.62138
2.62189
2.62426
2.62572
2.63083
2.6549
2.64624
2.64277
2.63816
2.63621
2.63462
2.63544
2.63668
2.63886
2.64114
2.64437
2.64573
2.64905
2.64988
2.65675
2.65053
2.64653
2.64209
2.63969
2.63798
2.63786
2.63841
2.63966
2.64097
2.64268
2.64322
2.64468
2.64298
2.65537
2.65144
2.64817
2.64493
2.64256
2.64068
2.63962
2.63906
2.63904
2.63934
2.64047
2.64044
2.64071
2.63965
2.65424
2.65167
2.64891
2.64608
2.64366
2.64169
2.64037
2.63932
2.63888
2.63853
2.63852
2.6382
2.63759
2.6363
2.6509
2.64938
2.64774
2.64557
2.64382
2.64208
2.64067
2.63941
2.63852
2.63776
2.63705
2.63637
2.63536
2.63423
2.64744
2.64748
2.64695
2.64498
2.64383
2.64221
2.64074
2.63929
2.63813
2.63714
2.6361
2.63524
2.63404
2.63281
2.64306
2.64446
2.6448
2.64405
2.64327
2.64192
2.64051
2.6391
2.63786
2.63676
2.63566
2.63477
2.63368
2.63251
2.63977
2.64194
2.64314
2.64319
2.64277
2.64166
2.64037
2.63904
2.63779
2.63669
2.63566
2.63495
2.63436
2.6338
2.63566
2.63861
2.64098
2.64178
2.6418
2.64105
2.64007
2.639
2.63791
2.63697
2.63624
2.63582
2.63563
2.63549
2.63353
2.63662
2.63969
2.64104
2.64129
2.64078
2.63996
2.63905
2.63806
2.63724
2.63675
2.63662
2.63685
2.6377
2.63188
2.63557
2.63898
2.64075
2.64102
2.64054
2.63976
2.63895
2.63813
2.63757
2.63752
2.63784
2.639
2.64031
2.63303
2.63697
2.63973
2.64134
2.64126
2.64059
2.63971
2.63889
2.63804
2.63754
2.63761
2.63822
2.63965
2.64147
2.63334
2.63802
2.64025
2.64186
2.64137
2.64041
2.63921
2.63829
2.63726
2.63709
2.63763
2.63906
2.64126
2.6443
2.63852
2.64191
2.64286
2.64364
2.64217
2.64074
2.63881
2.63721
2.63584
2.63572
2.63627
2.63809
2.63959
2.64415
2.66543
2.65816
2.65523
2.65111
2.64927
2.64774
2.64819
2.64906
2.65079
2.6524
2.6548
2.65575
2.65812
2.6593
2.66635
2.66107
2.65774
2.65391
2.65176
2.65013
2.64969
2.6499
2.65073
2.65164
2.65293
2.65323
2.65432
2.65342
2.66484
2.66146
2.65862
2.65574
2.65352
2.65164
2.65047
2.64979
2.64969
2.6499
2.65069
2.65063
2.65078
2.65031
2.6638
2.66136
2.65884
2.65621
2.65391
2.65192
2.65052
2.64949
2.6491
2.64872
2.64869
2.6484
2.64795
2.64721
2.66114
2.65934
2.65753
2.65535
2.6535
2.65173
2.6503
2.64911
2.64831
2.64762
2.64707
2.64657
2.64588
2.64526
2.65854
2.65791
2.65689
2.65485
2.65329
2.6515
2.64998
2.64863
2.64758
2.64676
2.64597
2.6454
2.64464
2.64392
2.65493
2.65537
2.65508
2.65376
2.65257
2.65103
2.64958
2.64824
2.6471
2.64622
2.6454
2.64487
2.64425
2.6436
2.65223
2.65342
2.65373
2.65311
2.6521
2.65074
2.64937
2.64808
2.64696
2.64607
2.64535
2.64496
2.64474
2.64458
2.64862
2.6507
2.65189
2.65191
2.65133
2.65036
2.64925
2.64816
2.64716
2.64639
2.64593
2.64578
2.64589
2.64609
2.64667
2.64916
2.65108
2.65155
2.65115
2.65041
2.64947
2.64852
2.64762
2.64694
2.64662
2.64667
2.64711
2.64799
2.64554
2.6485
2.65079
2.65155
2.65117
2.65051
2.64963
2.64878
2.64803
2.64757
2.64767
2.64804
2.64921
2.65038
2.64683
2.64977
2.6516
2.65232
2.65174
2.65101
2.65004
2.64917
2.64841
2.64806
2.64826
2.64886
2.65024
2.65186
2.64722
2.65056
2.65211
2.653
2.65219
2.6512
2.64997
2.64908
2.64826
2.64817
2.64872
2.64991
2.65212
2.65452
2.65158
2.65416
2.6543
2.65459
2.65322
2.65176
2.65011
2.64878
2.64758
2.64764
2.64825
2.64994
2.65164
2.65573
2.67427
2.6683
2.66574
2.66196
2.66
2.65847
2.65832
2.65881
2.66007
2.6613
2.6631
2.66383
2.66565
2.66708
2.674
2.6697
2.66677
2.66345
2.66138
2.65969
2.65905
2.65893
2.65959
2.66019
2.66114
2.66142
2.66233
2.66215
2.6723
2.66939
2.66682
2.6642
2.66207
2.66022
2.65909
2.65837
2.65818
2.65844
2.65897
2.65894
2.65915
2.65933
2.67111
2.66882
2.66641
2.66394
2.66178
2.6599
2.65854
2.65758
2.65722
2.65683
2.65688
2.65679
2.6566
2.65656
2.66865
2.66682
2.66491
2.66278
2.66091
2.65921
2.65789
2.65684
2.65618
2.6556
2.65523
2.655
2.65471
2.65469
2.66649
2.66545
2.66404
2.6621
2.66038
2.65868
2.65728
2.65611
2.65526
2.65461
2.65408
2.65385
2.65356
2.6534
2.6635
2.6632
2.66244
2.66093
2.65956
2.65806
2.65672
2.65556
2.65465
2.65401
2.65348
2.65329
2.65314
2.65301
2.66133
2.66177
2.66145
2.66038
2.6591
2.65776
2.65646
2.65536
2.65447
2.65385
2.65345
2.65334
2.65346
2.65366
2.65867
2.65976
2.66013
2.65968
2.65866
2.65764
2.65652
2.65555
2.65476
2.65425
2.65405
2.65416
2.6546
2.65506
2.65756
2.65908
2.65995
2.65974
2.65881
2.65798
2.65699
2.65614
2.65546
2.655
2.65494
2.65516
2.65593
2.65672
2.65717
2.65897
2.66005
2.65998
2.65909
2.65837
2.65744
2.65669
2.65612
2.65586
2.65615
2.65668
2.658
2.65912
2.65861
2.66021
2.66099
2.66093
2.65994
2.65915
2.65818
2.65743
2.65687
2.65677
2.65719
2.65794
2.65938
2.66094
2.65915
2.66103
2.6617
2.66181
2.66069
2.65969
2.65849
2.65763
2.65697
2.65706
2.65778
2.65901
2.66122
2.66339
2.6628
2.66414
2.66357
2.66328
2.66181
2.66032
2.65884
2.65784
2.65701
2.65731
2.65814
2.65974
2.66179
2.6653
2.68146
2.6768
2.67475
2.6714
2.66945
2.66783
2.66735
2.6675
2.66833
2.66922
2.67063
2.67126
2.67266
2.67402
2.68061
2.67714
2.67469
2.67185
2.66994
2.66828
2.66748
2.66711
2.66751
2.66794
2.66869
2.669
2.66981
2.66999
2.67878
2.67635
2.6741
2.67176
2.66983
2.66811
2.66702
2.66623
2.66598
2.66611
2.66655
2.66669
2.66702
2.66756
2.67736
2.67535
2.67317
2.67098
2.66899
2.66727
2.66603
2.66518
2.6648
2.66443
2.66453
2.66465
2.66472
2.66509
2.67505
2.67334
2.67152
2.66966
2.66794
2.66642
2.66521
2.66425
2.66363
2.66312
2.6629
2.66295
2.66299
2.66338
2.67318
2.67199
2.67054
2.66882
2.6672
2.66567
2.6644
2.66338
2.66264
2.66211
2.66178
2.66183
2.66191
2.66217
2.67073
2.67016
2.6692
2.66778
2.66638
2.66499
2.66375
2.66275
2.66199
2.66152
2.66121
2.66128
2.66147
2.66174
2.6692
2.66914
2.66856
2.66735
2.66602
2.66473
2.66351
2.66255
2.6618
2.66137
2.66116
2.66127
2.66164
2.66213
2.66751
2.66794
2.66782
2.66703
2.66588
2.6648
2.66366
2.66277
2.6621
2.66175
2.66168
2.66194
2.66261
2.66331
2.66715
2.66784
2.66797
2.66733
2.66621
2.66526
2.66421
2.66341
2.66285
2.66254
2.66262
2.66299
2.66393
2.66479
2.66719
2.66802
2.6683
2.66776
2.66665
2.66579
2.66481
2.66409
2.66362
2.66345
2.66384
2.66453
2.66593
2.66707
2.66855
2.66916
2.66925
2.66871
2.66751
2.66664
2.66567
2.665
2.66458
2.66458
2.66513
2.66603
2.66756
2.66904
2.66904
2.66992
2.66995
2.66959
2.66827
2.66727
2.66616
2.66539
2.66491
2.66506
2.66587
2.66721
2.66933
2.67134
2.67208
2.6725
2.6715
2.67085
2.66929
2.6679
2.66662
2.66585
2.6654
2.6658
2.66678
2.66842
2.67055
2.67359
2.49045
2.49595
2.50168
2.5167
2.55016
2.60372
2.48123
2.48076
2.48618
2.50029
2.53014
2.58048
2.48517
2.48191
2.48161
2.4891
2.51196
2.55583
2.48335
2.47829
2.47573
2.48002
2.49662
2.52953
2.48585
2.47865
2.47446
2.47487
2.48638
2.51089
2.48639
2.47811
2.4746
2.47535
2.48511
2.50507
2.4911
2.4828
2.47983
2.48124
2.49038
2.50847
2.4962
2.48944
2.48737
2.48906
2.49752
2.51348
2.50255
2.49759
2.49609
2.49512
2.50377
2.51972
2.50661
2.50327
2.50168
2.49928
2.50853
2.52533
2.50871
2.50593
2.50213
2.49746
2.5083
2.53223
2.50375
2.49929
2.49268
2.48914
2.5022
2.52977
2.49609
2.48894
2.48148
2.47905
2.4965
2.53003
2.47503
2.47174
2.46789
2.46949
2.49194
2.5305
2.56359
2.58577
2.60178
2.62346
2.65121
2.68251
2.54526
2.55642
2.57007
2.58892
2.61422
2.64367
2.54214
2.54681
2.55187
2.56235
2.58057
2.60392
2.53419
2.53414
2.53248
2.53702
2.54993
2.56673
2.53243
2.52782
2.5219
2.52067
2.52812
2.54057
2.52991
2.52253
2.51566
2.51282
2.51943
2.52998
2.53224
2.52408
2.51768
2.51434
2.52201
2.52895
2.53712
2.53058
2.52661
2.52484
2.53413
2.53785
2.54334
2.53954
2.53848
2.5392
2.54965
2.55181
2.55005
2.54823
2.54883
2.55109
2.56218
2.56729
2.55516
2.55623
2.56003
2.56459
2.57819
2.58693
2.55546
2.55746
2.56002
2.56585
2.58063
2.5938
2.55388
2.55516
2.55801
2.56629
2.58317
2.59957
2.53983
2.54485
2.55084
2.56366
2.58443
2.60466
2.61369
2.63865
2.65675
2.6767
2.69437
2.71366
2.5942
2.61063
2.6274
2.64389
2.659
2.67567
2.58846
2.59819
2.60725
2.61631
2.6246
2.63521
2.57941
2.5835
2.58499
2.58796
2.59135
2.5968
2.57556
2.57554
2.57151
2.56916
2.5668
2.56793
2.57194
2.56824
2.56169
2.55694
2.5537
2.55487
2.57264
2.56705
2.56127
2.55556
2.55319
2.55536
2.57534
2.57015
2.56709
2.56298
2.56273
2.56656
2.57969
2.57734
2.57643
2.5762
2.57944
2.58497
2.58597
2.58633
2.58762
2.59116
2.59727
2.60562
2.59215
2.59536
2.60049
2.60733
2.61681
2.62795
2.59546
2.60116
2.60631
2.61418
2.6238
2.63649
2.59797
2.60247
2.60771
2.61647
2.62728
2.64087
2.5889
2.5956
2.60287
2.61433
2.62644
2.64101
2.63178
2.65309
2.66992
2.69029
2.7075
2.72383
2.61505
2.63018
2.64757
2.66508
2.67912
2.69115
2.60912
2.61881
2.63022
2.64118
2.64831
2.65233
2.60185
2.60649
2.6109
2.61406
2.6142
2.61236
2.59855
2.59955
2.59867
2.59707
2.59145
2.58439
2.59619
2.59449
2.58973
2.58557
2.57854
2.57151
2.59701
2.59333
2.58846
2.5844
2.57876
2.57279
2.59992
2.59609
2.5939
2.5906
2.58768
2.58448
2.60442
2.60314
2.60283
2.6019
2.6025
2.60277
2.61064
2.61127
2.61354
2.61597
2.6202
2.62368
2.61686
2.62026
2.62521
2.63075
2.63822
2.64503
2.61992
2.62589
2.63176
2.63927
2.6473
2.65577
2.624
2.62923
2.63481