/*--------------------------------*- C++ -*----------------------------------*\
| =========                 |                                                 |
| \\      /  F ield         | OpenFOAM: The Open Source CFD Toolbox           |
|  \\    /   O peration     | Version:  v2106                                 |
|   \\  /    A nd           | Website:  www.openfoam.com                      |
|    \\/     M anipulation  |                                                 |
\*---------------------------------------------------------------------------*/
FoamFile
{
    version     2.0;
    format      ascii;
    arch        "LSB;label=32;scalar=64";
    class       volScalarField;
    location    "0.000147";
    object      p;
}
// * * * * * * * * * * * * * * * * * * * * * * * * * * * * * * * * * * * * * //

dimensions      [1 -1 -2 0 0 0 0];

internalField   nonuniform List<scalar> 
144746
(
201119
200720
200512
200264
200238
200293
200531
200697
200960
201150
201463
201639
201779
201643
201260
200920
200650
200528
200516
200580
200767
200877
201081
201240
201417
201588
201589
201515
201606
201305
201052
200930
200856
200881
201034
201079
201197
201266
201338
201438
201376
201306
201805
201594
201356
201248
201215
201216
201274
201266
201308
201333
201353
201404
201267
201058
201836
201689
201522
201419
201394
201405
201450
201443
201440
201408
201352
201335
201164
200933
201609
201534
201490
201478
201496
201536
201555
201549
201501
201424
201391
201269
201128
200891
201428
201432
201383
201439
201515
201597
201637
201644
201584
201489
201392
201258
201151
200892
200981
201066
201114
201300
201455
201608
201682
201681
201617
201517
201427
201292
201242
200968
200564
200669
200851
201175
201435
201622
201690
201688
201611
201515
201444
201344
201396
201145
200213
200262
200546
200928
201308
201556
201656
201629
201578
201500
201460
201394
201559
201368
199975
199987
200441
200879
201376
201607
201666
201578
201511
201436
201470
201442
201702
201596
199950
199911
200396
200863
201361
201554
201579
201436
201386
201255
201314
201280
201581
201561
200162
200309
200778
201197
201637
201716
201632
201350
201210
201025
201088
201154
201499
201621
200353
200594
200965
201356
201659
201602
201477
201054
200881
200662
200670
200823
201042
201081
201939
201843
201555
201219
201092
201198
201495
201563
201351
201131
200770
200379
200317
200809
200836
201002
200962
201064
201234
201474
201732
201793
201686
201421
201166
200903
200780
201251
200741
200904
201024
201252
201479
201677
201910
201944
201843
201661
201434
201218
200925
201287
200640
200981
201243
201539
201807
201948
202065
202114
202021
201850
201581
201372
201129
201192
200756
201124
201422
201643
201902
201999
202170
202190
202098
201959
201772
201580
201369
201316
200951
201304
201581
201776
201992
202074
202180
202194
202115
201976
201782
201570
201404
201315
201129
201384
201557
201723
201891
202001
202096
202119
202057
201941
201766
201572
201411
201300
201006
201164
201383
201502
201639
201829
201937
201941
201870
201745
201595
201410
201213
200993
200668
200590
200831
201132
201368
201590
201686
201711
201629
201502
201334
201152
200946
200677
200519
200248
200288
200510
200880
201185
201365
201380
201313
201190
200993
200776
200604
200121
200527
200081
199985
200129
200482
200743
200977
200981
200903
200747
200539
200246
200152
199655
200707
199926
199639
199572
199963
200259
200570
200565
200557
200329
200177
199873
199932
199476
201015
200163
199838
199571
199763
199901
200248
200248
200344
200097
200014
199854
199994
199671
201024
200002
199661
199327
199397
199461
199852
199959
200099
199981
200033
200251
200366
200046
198789
199566
200119
200893
202158
202789
203201
203158
202717
201948
201028
199807
198663
198500
197794
199090
200174
201447
202617
203100
203595
203684
203337
202716
202009
201268
200298
200353
198401
199873
200911
201973
202865
203412
203940
204082
203870
203497
202849
202330
201492
201457
198831
200318
201518
202571
203310
203833
204285
204454
204328
204062
203577
203160
202505
202257
199876
201132
202182
202965
203619
204152
204563
204752
204711
204521
204174
203841
203466
203269
200878
201915
202754
203482
204045
204442
204745
204907
204864
204750
204482
204209
203880
203606
201529
202367
203069
203664
204163
204535
204840
204983
204968
204892
204694
204468
204180
203795
201757
202551
203044
203497
203948
204341
204646
204791
204808
204701
204481
204212
203923
203475
201509
201994
202615
203074
203582
203977
204321
204450
204450
204335
204017
203666
203181
202662
200728
200857
201625
202103
202833
203332
203815
203978
203976
203763
203304
202818
202207
201649
199634
199429
200363
200949
201836
202425
203061
203283
203246
202992
202500
201867
201128
200174
198657
198030
198830
199462
200583
201472
202244
202594
202551
202202
201544
200765
200131
198811
198087
197327
197877
198284
199340
200402
201333
201911
201930
201665
200809
199880
199100
197745
197254
196248
196468
196846
198018
199351
200449
201237
201314
201349
200550
199840
199031
197819
201947
202180
202228
202229
202203
202471
201230
201219
201458
201519
201648
202086
201086
200991
201120
201195
201317
201788
200783
200678
200783
200887
201064
201460
200721
200542
200657
200741
200947
201205
200746
200515
200666
200745
200946
201059
200870
200637
200847
200846
201067
201248
201057
200888
201167
201192
201539
201752
201373
201270
201678
201786
202196
202374
201698
201759
202195
202295
202678
202762
201989
202047
202480
202540
202893
202938
201998
202078
202483
202492
202785
202880
202055
202037
202360
202380
202631
202778
201381
201330
201765
201924
202251
202538
201785
202180
202431
202598
203140
203765
201093
201489
202347
202880
203494
204297
201362
201657
202417
203056
203799
204579
201138
201498
202280
202889
203712
204356
201203
201371
202085
202562
203359
203872
201297
201273
201727
201946
202656
202832
201317
201085
201417
201359
202013
201837
200922
200463
200760
200419
201141
200770
200721
199966
200343
199765
200514
199881
200121
199427
199819
199289
200097
199653
199865
199333
199939
199632
200428
200273
199823
199592
200278
200145
200880
200835
200357
200400
201020
201091
201832
201991
200448
200600
201522
201779
202449
202790
199279
199246
199306
199056
199733
200061
199202
199177
199705
200149
201037
202000
200766
200538
200940
201341
202083
202975
201722
201474
201801
201797
202333
202463
202965
202629
202692
202025
201901
200799
203454
203091
202707
201359
200590
197781
203378
202526
201910
200010
198846
194172
202910
201864
200821
198395
196931
190890
201960
200511
199498
196889
195653
188348
200848
198987
197933
195284
194480
187209
199569
197657
196908
194568
194091
187840
198321
196525
196114
194433
194249
189846
198222
196865
196721
195823
196013
193620
197615
196703
197265
197327
198031
197021
201493
201533
201544
201535
201583
201885
200661
200758
200888
200945
201018
201407
200628
200495
200591
200629
200713
201024
200461
200314
200414
200430
200580
200752
200523
200302
200425
200402
200542
200671
200819
200540
200685
200630
200861
201098
201104
200953
201277
201316
201586
201841
201673
201600
201960
201990
202237
202532
201898
201926
202348
202426
202653
202963
202055
202139
202596
202718
202954
203203
201867
201991
202472
202672
203008
203339
201586
201715
202210
202451
202829
203296
201291
201409
201790
202073
202488
202829
201070
201146
201587
201868
202245
202715
201219
201538
201956
202379
202917
203472
200294
201034
201803
202334
203020
203623
200405
200782
201675
202214
202990
203520
200111
200470
201349
201833
202675
203099
200107
200287
201027
201350
202131
202315
200119
199968
200438
200468
201398
201576
199915
199637
200148
200119
201019
201055
199688
199356
199832
199795
200733
201197
199386
199226
199840
200094
200892
201705
199490
199523
200234
200755
201556
202527
199624
200010
200895
201678
202587
203583
200222
200756
201704
202729
203648
204651
200963
201594
202421
203550
204518
205439
201928
202660
203455
204601
205482
206453
199039
199261
199403
199645
200395
200982
198656
199089
199812
200351
201331
202091
199791
199901
200606
200891
201676
202192
200464
200374
200905
200796
201293
200860
201188
200751
200826
200207
200406
198639
200874
200254
200123
199215
199215
196342
200592
199697
199333
198258
198311
194601
199641
198541
198187
197105
197481
193921
198434
197199
197068
196271
196932
194383
197096
196012
196157
196022
197042
196113
196340
195940
196401
196963
198186
198967
196315
196428
197161
198308
199604
201328
196991
197390
198479
200171
201365
203776
197603
198260
199834
202160
203550
205872
203111
202655
202282
201784
201337
201105
203374
202962
202660
202302
201969
201726
203689
203143
202879
202462
202125
201863
203935
203372
203115
202740
202371
202080
203865
203360
203136
202773
202379
202066
203816
203308
203056
202663
202203
201870
203416
202912
202588
202189
201730
201565
202995
202499
202081
201734
201339
201174
202497
201996
201573
201224
200822
200652
202038
201630
201241
200845
200436
200203
201825
201378
200987
200570
200177
199841
201889
201318
201033
200588
200228
199803
201985
201375
201090
200730
200467
199895
202345
201754
201629
201131
201011
200677
206343
205382
204627
203184
202310
201672
205537
204393
203639
202467
201908
201369
204649
203364
202701
201677
201212
200867
204025
202514
201931
201187
200762
200592
203134
201738
201239
200732
200388
200504
202465
201449
200849
200554
200311
200682
202102
201522
200737
200680
200444
200817
202429
202182
201286
201181
200813
201032
203168
202834
201942
201688
201119
200859
204205
203806
202969
202384
201517
200882
205143
204492
203597
202780
201772
200883
206094
205193
204307
203356
202286
201182
206384
205440
204532
203535
202496
201108
206414
205598
205110
203999
203373
202386
205000
202622
201441
199261
197994
197718
203792
200423
199516
198231
197861
197849
200637
198813
197823
197006
196984
197536
198271
197675
196829
196473
196606
197780
195583
196662
195947
196417
196879
198586
194218
196511
196083
197215
197915
199665
193856
196823
196700
198226
199098
200559
194688
197795
197918
199253
199827
201043
196511
198891
198796
199794
200219
200996
199093
200349
200015
200411
200158
200502
201867
201695
200840
200468
199574
199385
204454
203181
201844
200649
199387
198566
205731
203967
202320
200493
198997
197572
206935
204446
203310
201523
200605
199276
202898
202492
202268
202080
201759
201733
203019
202828
202605
202495
202220
202079
202987
202836
202568
202460
202093
201877
203098
202977
202607
202381
201977
201707
202923
202705
202248
201925
201458
201299
202753
202358
201826
201418
201102
201021
202127
201700
201284
200996
200724
200666
201933
201447
201109
200775
200476
200436
201797
201267
200896
200464
200186
200126
201847
201239
200860
200402
200140
200006
202009
201228
200860
200371
200127
199891
202283
201428
201179
200652
200460
200152
202476
201766
201479
200985
200682
200233
202937
202305
202223
201757
201811
201314
202592
202216
201585
201210
200401
200337
201883
201743
201029
201024
200558
200635
200773
200774
200145
200300
199894
200291
200266
200528
199769
200102
199856
200539
199846
200342
199625
200195
200154
200963
200419
200898
200234
200661
200561
201177
201527
201720
201087
201250
201180
201482
202980
202837
202125
201873
201447
201445
204204
203726
202876
202245
201563
201222
205692
204843
203868
202908
202000
201297
206606
205455
204382
203211
202246
201322
207259
206042
205086
203698
202792
201671
207349
206152
205242
203711
202770
201346
207599
206241
205766
204494
204101
202996
195326
196824
196075
196191
195901
197000
191797
194758
194738
196070
196633
198369
187883
192867
193292
195449
196417
198670
185875
192529
193386
196157
197500
199813
185274
192705
194084
197108
198765
200859
186680
193863
195650
198622
200266
201822
189579
195559
197229
199707
201100
202419
193406
197845
199181
201175
202110
202826
197530
200051
200617
201683
201935
202546
201571
202106
201759
201797
201383
201738
204075
203346
202151
201232
200439
200400
206318
204426
202800
201181
200181
199615
207004
204478
202825
200734
199619
198369
207428
204391
203367
201868
201318
200128
199787
201678
203165
204744
206399
207571
208511
208764
208405
207500
206180
204781
203196
202759
198987
201147
202947
204862
206366
207560
208410
208778
208534
207915
206859
206108
204707
204557
200063
202029
203639
205311
206586
207698
208453
208856
208789
208435
207678
207143
206164
206098
201115
202873
204500
205972
207038
207927
208566
208924
208915
208739
208309
207993
207349
207085
202843
204201
205400
206476
207415
208193
208787
209113
209175
209152
208929
208776
208537
208496
204388
205368
206330
207147
207821
208350
208798
209043
209100
209230
209156
209105
209059
209117
205258
205985
206752
207351
207944
208399
208810
209023
209088
209305
209317
209421
209565
209756
205479
206087
206772
207247
207743
208151
208591
208807
208907
209098
209062
209172
209229
209419
205117
205566
205989
206578
207272
207744
208253
208455
208567
208683
208549
208570
208433
208504
204184
204376
204990
205585
206478
207059
207762
208025
208181
208103
207791
207528
207135
207066
202841
202701
203454
204223
205447
206168
207088
207449
207629
207469
207036
206500
206045
205571
201280
200705
201682
202513
204116
205112
206314
206829
206976
206617
205957
205142
204416
203458
200067
199345
200254
200910
202660
204089
205456
206213
206390
205946
205054
204083
203124
201978
198219
197370
198233
199348
201348
203328
204728
205617
205939
205507
204504
203761
202606
201617
200429
203225
205322
207257
209135
210555
211579
212066
211903
211177
209866
208587
206892
205827
200616
203191
205462
207465
209129
210381
211256
211739
211608
211068
210177
209379
208175
207595
202031
204304
206229
207956
209390
210404
211172
211627
211661
211381
210843
210288
209520
209180
203757
205577
207237
208653
209799
210591
211223
211584
211647
211508
211220
210941
210521
210321
205770
206947
208123
209226
210202
210879
211424
211745
211870
211870
211753
211722
211664
211813
207285
208084
209025
209802
210522
211017
211446
211709
211827
211949
211942
212032
212157
212521
208187
208790
209480
210051
210668
211081
211461
211700
211825
212031
212090
212342
212669
213246
208532
209013
209519
209955
210481
210888
211305
211547
211688
211862
211897
212181
212445
213066
208084
208405
208902
209449
210084
210562
211032
211263
211395
211509
211478
211659
211731
212266
207218
207298
207854
208519
209339
209971
210598
210924
211073
211065
210869
210790
210655
210974
205332
205516
206356
207212
208314
209129
209928
210363
210533
210449
210088
209718
209340
209282
203329
203227
204369
205499
207056
208171
209280
209878
210052
209796
209188
208561
207925
207202
201485
201257
202517
203720
205716
207151
208631
209437
209667
209244
208324
207378
206386
205394
198772
198728
200157
202033
204625
206509
208234
209176
209464
208956
207842
206951
205647
204371
204456
207379
209575
211361
213292
214634
215637
216221
216326
215910
215148
213947
213026
211839
205201
207700
209789
211592
213217
214393
215285
215804
215911
215605
215013
214230
213627
213128
206953
209000
210642
212123
213480
214446
215181
215681
215878
215730
215389
214947
214601
214369
208758
210192
211595
212769
213830
214625
215232
215628
215796
215733
215560
215357
215238
215270
210604
211445
212474
213382
214275
214915
215422
215768
215926
215961
215908
215945
216065
216391
211594
212278
213153
213831
214560
215059
215477
215758
215901
216024
216038
216216
216458
216936
212454
212888
213531
214054
214706
215114
215490
215735
215875
216035
216116
216409
216761
217432
212654
212982
213453
213930
214529
214938
215345
215588
215733
215869
215923
216264
216577
217310
212135
212399
212910
213519
214163
214646
215085
215327
215463
215555
215576
215848
216026
216722
211004
211409
212002
212723
213483
214112
214657
214985
215141
215176
215104
215200
215220
215789
209375
209897
210660
211611
212580
213387
214045
214468
214648
214629
214448
214359
214170
214411
207559
208004
209001
210277
211553
212672
213529
214089
214263
214183
213864
213604
213249
213048
205443
205819
207225
208950
210514
211934
213013
213777
213980
213773
213212
212735
212085
211557
202526
203394
205203
207796
209751
211518
212790
213686
213923
213596
212786
212195
211203
210186
208399
210917
213008
214820
216565
217790
218695
219237
219525
219367
218866
218165
217367
216190
209458
211518
213465
215040
216487
217579
218380
218857
219067
218930
218554
218120
217660
217148
211002
212607
214299
215579
216762
217638
218293
218751
218977
218945
218753
218526
218233
218039
212730
213814
215210
216177
217111
217820
218337
218704
218864
218898
218841
218800
218660
218813
214201
214863
215914
216648
217443
218049
218494
218811
218941
219040
219029
219179
219254
219643
215087
215598
216460
217047
217718
218187
218543
218803
218924
219066
219133
219358
219608
220119
215683
216098
216737
217229
217843
218230
218557
218789
218912
219080
219199
219496
219828
220442
215814
216161
216654
217110
217690
218064
218424
218655
218786
218946
219058
219401
219739
220448
215307
215657
216200
216763
217373
217798
218188
218413
218542
218678
218776
219098
219365
220110
214405
214799
215402
216072
216780
217343
217831
218127
218284
218375
218408
218607
218749
219388
212871
213374
214237
215153
216045
216759
217331
217689
217869
217923
217873
217943
217966
218475
211268
211782
212862
214072
215228
216210
216940
217407
217577
217566
217427
217354
217175
217335
209334
210038
211446
212974
214322
215572
216452
217086
217306
217207
216870
216621
216266
216232
206910
208026
209932
212061
213759
215321
216334
217024
217245
217030
216492
216066
215409
214869
212596
215055
216695
218286
219704
220773
221556
222063
222389
222394
222056
221522
220936
220163
213923
215613
217125
218489
219693
220631
221317
221774
221983
221979
221783
221521
221178
220929
215159
216486
217857
218978
219975
220740
221294
221712
221907
221979
221883
221734
221582
221430
216608
217494
218606
219507
220263
220919
221352
221686
221829
221924
221906
221887
221926
222076
217588
218211
219149
219870
220578
221126
221504
221785
221913
222027
222059
222152
222291
222617
218324
218833
219586
220170
220790
221244
221570
221819
221936
222060
222129
222294
222535
222987
218719
219152
219772
220283
220871
221276
221590
221821
221936
222074
222182
222432
222705
223209
218750
219120
219649
220141
220728
221135
221472
221704
221827
221968
222083
222378
222689
223291
218342
218737
219310
219846
220441
220873
221234
221468
221603
221744
221865
222163
222432
223079
217606
217984
218610
219262
219939
220474
220904
221185
221348
221472
221553
221780
221985
222585
216400
216932
217727
218548
219326
219975
220460
220777
220963
221068
221112
221286
221418
221868
215093
215728
216705
217766
218715
219540
220145
220533
220708
220762
220733
220747
220760
221061
213411
214307
215513
216794
217930
218935
219682
220190
220410
220429
220300
220198
220034
220064
211579
212883
214509
216197
217588
218767
219591
220140
220340
220281
220011
219745
219361
218864
216211
218507
219844
221218
222361
223269
223922
224379
224673
224794
224662
224271
223821
223255
217605
219096
220263
221422
222408
223183
223768
224172
224373
224448
224409
224217
224042
223780
218635
219887
220931
221874
222686
223310
223785
224132
224324
224418
224415
224306
224253
224168
219880
220614
221488
222301
222911
223467
223843
224129
224274
224369
224412
224434
224493
224619
220645
221138
221931
222570
223174
223647
223980
224229
224355
224455
224514
224613
224750
224991
221159
221551
222232
222775
223339
223751
224051
224281
224398
224509
224579
224722
224929
225280
221343
221739
222341
222830
223385
223779
224087
224307
224419
224543
224635
224834
225068
225449
221243
221635
222190
222693
223257
223660
223994
224221
224346
224482
224591
224831
225107
225570
220898
221332
221905
222445
223009
223428
223782
224019
224165
224319
224451
224712
224970
225483
220220
220711
221368
221999
222620
223106
223505
223776
223950
224103
224224
224462
224686
225183
219288
219912
220680
221419
222127
222683
223118
223414
223614
223766
223887
224108
224295
224673
218188
218962
219903
220806
221638
222323
222845
223182
223368
223492
223524
223682
223826
223999
217021
217947
219022
220088
221031
221833
222452
222879
223102
223194
223230
223256
223274
223261
215175
216677
218116
219609
220753
221720
222391
222822
223011
223058
222997
222866
222698
222336
219736
221687
222697
223861
224826
225600
226175
226601
226895
227053
227055
226820
226506
226087
220887
222175
223136
224071
224910
225550
226061
226425
226642
226730
226762
226692
226579
226372
221838
222824
223659
224456
225119
225648
226067
226381
226583
226691
226742
226715
226673
226643
222795
223381
224115
224742
225267
225758
226106
226375
226532
226638
226716
226783
226841
226950
223410
223784
224423
224957
225474
225900
226217
226463
226606
226713
226792
226903
227024
227228
223728
224037
224624
225092
225592
225976
226275
226511
226652
226776
226863
227005
227173
227454
223792
224127
224649
225093
225612
225995
226310
226545
226683
226823
226925
227114
227317
227622
223623
223987
224507
224980
225509
225903
226240
226485
226639
226796
226917
227143
227380
227749
223333
223714
224247
224752
225298
225709
226066
226324
226500
226683
226828
227077
227306
227720
222770
223206
223823
224408
224995
225450
225840
226123
226325
226520
226674
226913
227120
227544
222076
222600
223281
223956
224598
225099
225508
225813
226043
226243
226416
226644
226838
227212
221200
221887
222694
223498
224213
224811
225274
225600
225812
225993
226117
226303
226481
226698
220363
221170
222059
222989
223754
224415
224942
225346
225596
225741
225839
225948
226033
226049
218704
220139
221292
222590
223530
224328
224889
225270
225474
225599
225664
225567
225503
225285
222898
224360
225162
226093
226905
227589
228128
228556
228872
229055
229149
229053
228835
228552
223809
224801
225542
226287
226980
227552
228021
228384
228626
228742
228828
228843
228805
228661
224652
225329
225949
226582
227124
227596
227985
228304
228526
228669
228769
228810
228811
228804
225325
225746
226296
226761
227217
227656
227989
228270
228453
228590
228709
228812
228894
228998
225767
226025
226510
226916
227349
227738
228051
228321
228499
228641
228755
228881
229018
229204
225948
226174
226642
227005
227427
227783
228084
228343
228521
228686
228810
228971
229137
229382
225923
226160
226598
226975
227429
227788
228105
228367
228547
228728
228865
229067
229266
229539
225728
226026
226454
226868
227342
227716
228054
228326
228520
228718
228871
229105
229325
229643
225450
225775
226207
226664
227161
227560
227921
228207
228420
228639
228813
229065
229281
229637
225000
225369
225885
226396
226929
227364
227753
228057
228288
228513
228698
228943
229148
229531
224484
224898
225485
226055
226621
227086
227490
227813
228067
228292
228491
228728
228934
229292
223809
224381
225061
225720
226342
226873
227310
227641
227878
228091
228255
228453
228649
228923
223243
223879
224614
225362
226016
226587
227067
227445
227705
227865
227997
228147
228289
228395
221924
223067
224072
225091
225884
226544
227026
227376
227591
227749
227870
227842
227843
227798
225873
226870
227478
228195
228868
229460
229952
230367
230694
230920
231076
231102
230988
230844
226578
227252
227779
228361
228922
229402
229822
230182
230438
230607
230749
230826
230875
230827
227238
227650
228085
228561
228969
229387
229743
230060
230297
230479
230631
230722
230806
230859
227702
227950
228320
228654
229031
229393
229701
229982
230187
230360
230526
230665
230807
230949
227970
228111
228462
228749
229097
229420
229712
229983
230185
230367
230525
230689
230853
231067
228049
228178
228513
228768
229119
229426
229706
229968
230171
230374
230542
230741
230929
231181
227939
228097
228437
228728
229101
229409
229701
229969
230177
230396
230573
230805
231020
231294
227741
227947
228285
228619
229015
229345
229660
229936
230157
230390
230578
230836
231059
231365
227448
227708
228054
228439
228861
229222
229561
229850
230084
230331
230535
230810
231032
231370
227082
227390
227802
228230
228685
229080
229444
229747
229993
230238
230450
230720
230939
231303
226702
227023
227503
227972
228456
228875
229253
229573
229833
230074
230294
230552
230782
231128
226191
226668
227216
227741
228269
228725
229126
229451
229697
229918
230122
230331
230550
230865
225817
226326
226925
227510
228051
228538
228961
229307
229560
229744
229905
230095
230292
230449
224841
225732
226569
227347
227991
228537
228943
229259
229470
229632
229795
229863
229941
229994
201444
202060
202471
203247
204601
205941
200390
201125
202338
204288
206646
208459
202765
203088
204296
206234
208747
210929
204672
205010
206323
207983
210755
213092
206727
207062
208061
209319
212049
214518
207828
208384
209299
210252
212842
215447
208762
208878
209134
209544
211760
214751
208746
208542
208317
208428
210461
213866
207982
207429
206917
206894
208840
212567
206744
205742
204941
204893
206928
211186
205308
203850
203143
203161
205331
209691
203810
201926
201552
201636
203696
207352
203096
201510
201539
201812
203691
206286
201338
200184
201010
202089
204179
206491
201565
201392
201176
201240
202205
204018
201736
201276
201650
202836
204910
207191
204580
204116
204650
205917
208453
210811
206994
206869
207818
209304
211994
214280
209347
209724
211008
212489
215210
217226
211004
211717
212978
214650
217497
219259
212201
212921
214226
215616
218274
220046
212516
213111
214165
215555
218190
220034
212048
212364
213108
214417
216885
219116
210941
210940
211498
212598
214783
217135
209416
209156
209162
209936
211769
214030
207929
206582
206390
206812
208306
209941
206870
205170
205135
205245
206557
207824
204500
202703
203032
203650
205294
206678
204469
203482
202622
202066
202298
203438
205914
204442
203985
203984
205020
206970
208878
207649
207466
207829
209116
211389
211060
210391
210800
211796
213367
215740
213383
213365
214269
215563
217333
219641
215034
215696
216899
218449
220163
222455
216311
217260
218593
220117
221966
224120
216908
217820
219007
220443
222177
224204
216717
217453
218347
219618
221196
223094
215892
216273
216818
217864
219097
220816
214960
215033
214946
215287
216031
217374
213586
212865
212317
212209
212438
213101
212652
211414
210856
210345
210308
210543
210501
208558
208205
207863
208391
209033
207642
206050
204790
203221
202716
202743
209854
208053
206924
205758
205605
206104
212418
211159
210407
209829
209989
210820
214490
213684
213544
213673
214424
215723
216687
216544
216987
217704
218726
220224
218194
218660
219672
220781
222173
223726
219340
220226
221482
222846
224409
225994
219970
221001
222263
223749
225348
226849
220062
220959
222076
223501
224869
226233
219634
220247
220961
222139
223139
224258
218905
219507
219769
220154
220439
221056
217942
217524
217194
217009
216713
216672
216967
216287
215608
214746
213943
213275
215167
213607
212820
211871
211340
210891
211516
209863
208261
206308
204852
204276
214036
212022
210797
209098
207969
207762
216084
214682
213843
212786
212178
212327
218013
217074
216721
216282
216310
216939
219770
219526
219763
219999
220530
221419
221098
221434
222133
222953
223949
225076
222093
222847
223878
225027
226310
227635
222665
223604
224761
226091
227476
228907
222932
223788
224822
226060
227297
228658
222694
223370
224112
224988
225856
226922
222097
222485
222866
223316
223677
224320
221363
221222
220817
220715
220270
220094
220763
220195
219524
218688
217597
216616
219363
218277
217419
216248
215187
214140
214914
213305
211828
209962
208121
206576
217530
215624
214213
212626
211040
209938
219082
217816
216825
215755
214768
214195
220811
219966
219428
218860
218520
218524
222283
222019
222030
222104
222382
222916
223456
223665
224183
224753
225570
226514
224321
224920
225804
226795
227961
229185
224863
225650
226686
227925
229264
230684
225160
225981
226995
228267
229474
230848
225098
225798
226671
227682
228545
229529
224739
225125
225652
226199
226668
227229
224267
224401
224362
224183
223877
223587
223854
223589
223087
222428
221459
220364
223047
222284
221462
220450
219229
218007
218504
216952
215495
213871
212150
210227
220878
219182
217665
216131
214601
213005
222090
220872
219831
218768
217806
216791
223545
222705
222100
221481
221044
220672
224723
224399
224331
224270
224418
224681
225728
225825
226194
226621
227217
227998
226479
226944
227658
228509
229508
230597
227010
227681
228551
229621
230806
232100
227313
228056
228977
230131
231284
232593
227369
228041
228868
229867
230757
231806
227216
227682
228150
228673
229192
229819
226869
227141
227285
227322
227220
227044
226566
226558
226253
225807
225123
224201
226198
225739
225077
224257
223310
222102
221765
220486
219321
217837
216395
214724
223801
222373
221107
219543
218076
216577
224718
223638
222743
221607
220617
219619
225886
225116
224572
223876
223380
222945
226861
226503
226382
226265
226330
226440
227704
227753
227996
228335
228785
229397
228388
228756
229312
230024
230873
231837
228920
229511
230248
231151
232174
233315
229263
229928
230735
231760
232812
234007
229403
230033
230782
231716
232588
233620
229370
229909
230433
230958
231409
232056
229128
229464
229718
229959
230043
230108
228922
229088
228994
228784
228369
227743
228828
228610
228182
227595
226858
225758
224876
223883
222983
221862
220645
219324
226449
225351
224362
223117
221789
220472
227124
226262
225522
224566
223618
222709
228043
227419
226955
226326
225786
225308
228832
228545
228407
228220
228199
228286
229568
229594
229757
230004
230353
230836
230188
230493
230932
231496
232188
233014
230706
231232
231870
232620
233484
234455
231084
231684
232388
233246
234183
235233
231270
231890
232573
233381
234156
235117
231337
231890
232452
233031
233447
234012
231262
231612
231879
232179
232386
232614
231109
231375
231405
231371
231132
230775
231162
231115
230866
230501
229955
229118
203516
203921
204052
204531
205999
207906
203155
203261
204145
205520
207794
209708
205353
205157
206021
207505
209990
212152
206717
206751
207820
209498
212111
214329
208509
208841
209938
211313
213954
216185
209300
209668
210517
211540
214116
216678
210027
210305
210839
211480