/*--------------------------------*- C++ -*----------------------------------*\
| =========                 |                                                 |
| \\      /  F ield         | OpenFOAM: The Open Source CFD Toolbox           |
|  \\    /   O peration     | Version:  v2106                                 |
|   \\  /    A nd           | Website:  www.openfoam.com                      |
|    \\/     M anipulation  |                                                 |
\*---------------------------------------------------------------------------*/
FoamFile
{
    version     2.0;
    format      ascii;
    arch        "LSB;label=32;scalar=64";
    class       volScalarField;
    location    "0.0002";
    object      p;
}
// * * * * * * * * * * * * * * * * * * * * * * * * * * * * * * * * * * * * * //

dimensions      [1 -1 -2 0 0 0 0];

internalField   nonuniform List<scalar> 
17924
(
243036
243067
243093
243122
242818
242827
242838
242851
242868
242887
242909
242735
242746
242758
242775
242794
242816
242841
242658
242671
242684
242703
242724
242749
242777
242582
242596
242611
242632
242656
242685
242716
242510
242523
242539
242562
242589
242621
242655
242435
242448
242466
242492
242522
242556
242593
242357
242371
242392
242420
242452
242489
242528
242276
242291
242315
242345
242379
242417
242458
242192
242208
242235
242265
242301
242341
242382
242105
242122
242150
242182
242220
242260
242302
242015
242030
242061
242093
242132
242174
242217
241918
241933
241966
241999
242040
242083
242128
241817
241831
241864
241899
241942
241986
242033
241708
241725
241759
241798
241843
241888
241936
242612
242599
242591
242589
242589
242593
242601
242612
242626
242642
242660
242679
242703
242726
242520
242514
242506
242502
242502
242506
242514
242526
242541
242558
242578
242595
242619
242633
242437
242432
242422
242418
242419
242424
242433
242446
242463
242480
242501
242518
242541
242553
242357
242352
242342
242340
242341
242347
242358
242373
242392
242410
242432
242450
242471
242482
242282
242275
242265
242265
242267
242275
242288
242305
242326
242347
242369
242388
242408
242420
242207
242199
242192
242193
242198
242208
242223
242242
242265
242288
242311
242330
242349
242362
242134
242125
242120
242123
242130
242143
242161
242183
242208
242232
242256
242276
242294
242307
242059
242051
242050
242054
242064
242080
242101
242125
242151
242178
242202
242223
242241
242253
241985
241978
241979
241986
241999
242018
242041
242068
242097
242125
242149
242171
242188
242199
241909
241903
241908
241918
241936
241957
241983
242012
242042
242071
242097
242120
242135
242147
241832
241827
241835
241849
241870
241895
241925
241956
241988
242019
242045
242069
242084
242097
241752
241748
241761
241780
241805
241834
241867
241901
241934
241966
241994
242018
242034
242046
241671
241668
241686
241710
241740
241773
241810
241847
241882
241915
241944
241969
241987
242000
241585
241589
241613
241643
241678
241714
241754
241792
241830
241864
241895
241920
241939
241949
242410
242383
242363
242349
242339
242334
242333
242337
242345
242357
242373
242392
242419
242446
242317
242299
242275
242259
242247
242240
242236
242238
242245
242256
242271
242288
242314
242329
242233
242213
242188
242170
242156
242148
242144
242144
242149
242159
242174
242190
242215
242227
242152
242131
242104
242086
242071
242062
242057
242056
242060
242069
242082
242097
242120
242133
242074
242051
242024
242006
241990
241981
241975
241974
241977
241985
241998
242013
242034
242050
241998
241974
241948
241930
241915
241905
241900
241899
241902
241910
241922
241936
241955
241972
241925
241899
241875
241858
241844
241835
241831
241831
241834
241843
241855
241869
241887
241903
241852
241827
241806
241790
241778
241772
241770
241770
241775
241785
241797
241811
241826
241842
241781
241757
241740
241726
241718
241714
241715
241717
241724
241735
241748
241762
241775
241790
241711
241691
241677
241667
241663
241662
241665
241670
241679
241691
241705
241720
241732
241746
241644
241627
241618
241613
241613
241616
241623
241631
241642
241655
241670
241685
241696
241709
241580
241566
241564
241564
241568
241575
241585
241597
241611
241625
241640
241655
241666
241678
241519
241508
241512
241518
241528
241539
241554
241569
241587
241603
241618
241632
241642
241652
241458
241453
241466
241478
241494
241510
241528
241545
241564
241582
241598
241611
241623
241630
242202
242169
242144
242126
242114
242107
242104
242105
242111
242122
242137
242156
242185
242214
242112
242090
242062
242042
242027
242017
242011
242010
242014
242022
242036
242052
242078
242095
242032
242009
241979
241958
241941
241929
241920
241916
241917
241923
241935
241950
241976
241990
241952
241928
241899
241877
241858
241844
241834
241828
241826
241831
241841
241854
241878
241891
241876
241850
241821
241799
241779
241763
241751
241744
241741
241744
241752
241765
241788
241802
241801
241775
241747
241725
241704
241688
241675
241667
241662
241664
241671
241683
241702
241719
241728
241702
241676
241654
241634
241618
241605
241596
241590
241591
241596
241607
241624
241643
241659
241634
241611
241590
241571
241555
241542
241532
241527
241525
241529
241539
241553
241573
241592
241569
241549
241530
241513
241498
241486
241477
241472
241469
241472
241480
241491
241510
241530
241510
241494
241477
241463
241450
241439
241430
241425
241421
241423
241429
241437
241455
241472
241457
241444
241431
241419
241408
241400
241392
241387
241384
241384
241389
241394
241409
241425
241411
241402
241393
241384
241376
241369
241362
241358
241354
241353
241356
241359
241371
241381
241371
241368
241361
241357
241352
241347
241343
241340
241337
241335
241335
241335
241342
241349
241342
241343
241340
241338
241335
241332
241328
241326
241322
241320
241317
241316
241318
241949
241929
241912
241901
241893
241888
241888
241891
241899
241910
241925
241946
241973
242002
241869
241858
241842
241830
241820
241814
241812
241813
241819
241828
241842
241858
241882
241898
241800
241790
241772
241760
241747
241739
241735
241734
241737
241744
241756
241771
241796
241809
241729
241718
241701
241688
241675
241667
241661
241659
241660
241666
241675
241689
241712
241723
241660
241649
241632
241618
241605
241596
241589
241586
241586
241591
241599
241613
241633
241648
241593
241581
241566
241553
241540
241531
241523
241519
241517
241520
241528
241540
241558
241576
241529
241517
241503
241491
241479
241469
241460
241455
241453
241454
241461
241472
241488
241509
241468
241457
241446
241434
241423
241412
241404
241396
241393
241393
241398
241408
241423
241444
241412
241404
241394
241383
241372
241361
241352
241344
241340
241338
241342
241350
241363
241384
241364
241357
241349
241338
241328
241318
241308
241299
241293
241289
241290
241296
241307
241327
241322
241316
241310
241300
241291
241280
241270
241260
241253
241247
241246
241249
241256
241275
241291
241284
241280
241271
241262
241252
241241
241229
241220
241212
241207
241207
241211
241228
241262
241259
241257
241250
241242
241231
241219
241206
241195
241185
241178
241174
241175
241186
241251
241247
241246
241239
241230
241219
241206
241191
241175
241162
241151
241142
241140
241144
241601
241608
241612
241618
241624
241630
241638
241648
241661
241676
241693
241714
241738
241763
241546
241556
241560
241568
241574
241581
241590
241600
241612
241626
241642
241661
241682
241699
241494
241506
241512
241519
241524
241529
241537
241546
241557
241570
241586
241603
241625
241641
241439
241454
241461
241469
241474
241480
241486
241494
241504
241515
241530
241546
241567
241584
241388
241404
241411
241419
241423
241429
241434
241441
241450
241461
241474
241491
241511
241529
241340
241355
241363
241371
241375
241380
241385
241391
241398
241407
241420
241435
241454
241475
241294
241307
241316
241323
241328
241332
241336
241341
241347
241356
241367
241382
241400
241421
241252
241264
241274
241280
241285
241289
241292
241295
241300
241307
241317
241330
241347
241369
241214
241226
241236
241242
241246
241248
241250
241252
241255
241260
241269
241281
241296
241319
241183
241194
241205
241210
241213
241213
241213
241213
241214
241217
241223
241233
241247
241270
241159
241169
241179
241183
241184
241183
241181
241178
241177
241178
241182
241189
241201
241223
241142
241151
241160
241162
241162
241159
241154
241148
241145
241142
241143
241147
241156
241176
241133
241140
241147
241148
241145
241139
241131
241123
241115
241110
241108
241110
241117
241135
241139
241141
241145
241143
241136
241127
241115
241102
241090
241080
241073
241071
241076
241084
241081
241125
241161
241194
241221
241247
241270
241291
241313
241335
241359
241383
241406
241431
241063
241109
241143
241177
241206
241234
241259
241283
241306
241329
241353
241376
241402
241424
241041
241089
241126
241160
241190
241216
241241
241265
241288
241311
241335
241358
241384
241407
241020
241066
241104
241138
241169
241196
241222
241246
241269
241291
241314
241337
241362
241386
241000
241045
241084
241117
241148
241174
241199
241222
241244
241266
241289
241312
241336
241360
240978
241022
241061
241094
241124
241150
241175
241198
241220
241241
241263
241285
241308
241332
240960
241003
241041
241073
241102
241127
241150
241171
241192
241212
241233
241254
241276
241300
240944
240986
241022
241053
241080
241104
241125
241145
241164
241182
241202
241222
241243
241267
240932
240971
241006
241035
241059
241081
241100
241117
241134
241151
241169
241188
241208
241233
240924
240961
240993
241020
241041
241060
241076
241091
241105
241120
241136
241153
241171
241196
240921
240954
240982
241006
241024
241039
241052
241064
241076
241088
241102
241117
241134
241159
240921
240950
240975
240995
241009
241022
241031
241039
241048
241057
241068
241081
241095
241119
240925
240950
240971
240986
240996
241004
241009
241013
241019
241024
241033
241044
241058
241081
240939
240959
240974
240982
240986
240989
240989
240989
240990
240992
240997
241005
241016
241033
240350
240424
240491
240550
240601
240648
240690
240728
240765
240798
240830
240859
240888
240924
240370
240440
240507
240568
240624
240674
240720
240762
240802
240838
240872
240904
240935
240969
240390
240462
240532
240593
240650
240700
240747
240789
240829
240866
240901
240933
240964
240998
240407
240478
240548
240609
240667
240718
240767
240811
240852
240890
240927
240959
240991
241026
240426
240497
240567
240628
240685
240736
240784
240826
240867
240905
240941
240973
241006
241039
240442
240513
240580
240640
240696
240747
240795
240838
240879
240916
240952
240984
241017
241049
240461
240531
240595
240654
240708
240757
240802
240844
240882
240918
240953
240985
241017
241048
240480
240546
240607
240664
240715
240762
240805
240846
240883
240918
240951
240984
241014
241045
240498
240562
240619
240672
240720
240764
240804
240842
240878
240912
240944
240975
241005
241036
240518
240578
240630
240679
240722
240764
240801
240837
240870
240902
240932
240962
240990
241023
240538
240593
240639
240684
240722
240760
240794
240827
240857
240886
240915
240944
240971
241004
240557
240606
240647
240687
240721
240755
240784
240814
240841
240869
240895
240922
240948
240982
240575
240618
240653
240688
240717
240746
240770
240796
240820
240845
240870
240897
240924
240957
240597
240635
240661
240689
240711
240734
240755
240776
240798
240820
240843
240867
240893
240927
239446
239531
239614
239689
239758
239822
239881
239934
239983
240027
240070
240108
240147
240189
239499
239579
239666
239743
239818
239886
239949
240007
240060
240109
240155
240197
240238
240288
239564
239644
239732
239809
239884
239952
240016
240075
240129
240179
240226
240270
240312
240361
239622
239702
239788
239865
239942
240011
240078
240138
240195
240247
240295
240341
240385
240434
239682
239762
239847
239924
240000
240069
240135
240195
240252
240304
240354
240401
240446
240492
239740
239820
239902
239978
240052
240120
240186
240247
240304
240357
240408
240455
240501
240546
239797
239876
239955
240029
240100
240168
240232
240292
240348
240401
240451
240499
240545
240589
239854
239930
240004
240075
240144
240209
240272
240331
240387
240439
240489
240537
240583
240627
239906
239980
240049
240117
240182
240246
240305
240363
240417
240469
240519
240566
240612
240657
239956
240027
240091
240155
240216
240277
240334
240389
240442
240493
240542
240590
240636
240682
240002
240069
240127
240188
240245
240302
240356
240409
240461
240511
240560
240608
240654
240702
240045
240106
240159
240215
240268
240322
240374
240425
240475
240525
240573
240621
240667
240716
240082
240138
240185
240238
240287
240338
240387
240435
240484
240532
240580
240628
240674
240725
240119
240170
240209
240255
240300
240347
240394
240441
240489
240536
240583
240631
240678
240735
238538
238608
238685
238757
238827
238892
238955
239014
239069
239121
239171
239218
239266
239312
238624
238687
238767
238841
238914
238983
239049
239112
239171
239227
239281
239333
239382
239441
238720
238784
238864
238935
239009
239077
239144
239207
239267
239325
239380
239434
239484
239545
238812
238876
238954
239026
239099
239169
239237
239302
239365
239425
239482
239539
239591
239651
238904
238970
239046
239117
239190
239259
239328
239394
239457
239519
239578
239635
239690
239748
238997
239063
239136
239206
239278
239347
239416
239483
239548
239611
239671
239730
239787
239844
239086
239152
239223
239292
239362
239432
239500
239567
239633
239697
239758
239818
239876
239931
239174
239240
239307
239375
239444
239512
239581
239648
239714
239778
239842
239902
239962
240017
239256
239321
239385
239452
239519
239588
239656
239723
239790
239854
239918
239979
240040
240095
239336
239400
239461
239526
239591
239659
239727
239794
239860
239925
239989
240050
240113
240168
239409
239471
239529
239593
239657
239724
239791
239858
239925
239990
240056
240117
240181
240236
239480
239541
239595
239657
239720
239785
239852
239918
239985
240049
240115
240177
240242
240300
239543
239601
239653
239714
239775
239840
239906
239972
240040
240106
240172
240236
240302
240366
239606
239660
239710
239768
239828
239891
239956
240021
240088
240154
240220
240288
240355
240427
237847
237879
237926
237971
238020
238072
238123
238175
238226
238275
238324
238371
238418
238465
237951
237980
238027
238071
238121
238172
238226
238279
238332
238385
238435
238487
238535
238593
238056
238086
238134
238177
238227
238278
238332
238385
238439
238492
238544
238596
238645
238705
238163
238194
238241
238285
238335
238386
238440
238496
238550
238606
238659
238714
238765
238825
238267
238302
238347
238393
238443
238496
238551
238607
238663
238719
238774
238830
238882
238941
238374
238411
238455
238502
238553
238607
238663
238720
238777
238835
238892
238949
239004
239062
238478
238517
238562
238610
238662
238717
238774
238832
238890
238949
239008
239066
239123
239179
238583
238623
238668
238718
238770
238826
238884
238943
239004
239064
239125
239184
239243
239298
238683
238725
238770
238822
238875
238933
238992
239052
239114
239176
239238
239298
239360
239413
238783
238826
238872
238924
238979
239037
239097
239159
239223
239286
239350
239410
239475
239527
238876
238921
238967
239021
239077
239137
239199
239263
239328
239393
239459
239520
239586
239636
238969
239016
239062
239117
239174
239235
239298
239363
239429
239494
239561
239624
239692
239744
239051
239100
239148
239204
239262
239325
239391
239458
239527
239595
239664
239729
239798
239852
239139
239187
239237
239293
239353
239416
239482
239549
239617
239685
239753
239820
239890
239959
237449
237443
237456
237475
237496
237522
237550
237582
237616
237651
237688
237725
237761
237799
237551
237539
237552
237570
237591
237616
237645
237677
237711
237747
237784
237822
237859
237903
237646
237636
237650
237668
237690
237716
237744
237776
237809
237845
237881
237920
237956
238002
237744
237738
237752
237771
237793
237819
237848
237880
237914
237950
237987
238027
238064
238110
237839
237839
237855
237875
237899
237926
237955
237988
238023
238060
238097
238137
238176
238220
237937
237946
237962
237983
238007
238035
238066
238100
238136
238174
238213
238254
238294
238337
238037
238050
238068
238090
238116
238146
238179
238215
238252
238291
238331
238373
238415
238455
238139
238156
238174
238199
238227
238259
238294
238332
238371
238411
238453
238495
238539
238578
238239
238259
238279
238307
238338
238372
238410
238449
238490
238532
238575
238618
238664
238702
238340
238362
238384
238415
238449
238486
238526
238567
238610
238653
238699
238743
238792
238828
238437
238461
238487
238521
238558
238598
238641
238684
238729
238774
238822
238867
238918
238951
238536
238563
238591
238627
238667
238710
238755
238801
238847
238894
238944
238991
239045
239077
238627
238656
238689
238728
238772
238818
238866
238915
238965
239015
239066
239115
239170
239204
238727
238758
238794
238834
238880
238927
238977
239027
239079
239130
239182
239232
239287
239332
237269
237250
237240
237235
237234
237237
237243
237253
237265
237281
237299
237319
237339
237363
237350
237326
237317
237311
237309
237312
237317
237326
237338
237353
237370
237390
237408
237433
237423
237402
237394
237389
237388
237390
237395
237404
237415
237429
237444
237463
237480
237505
237503
237484
237477
237471
237470
237473
237477
237486
237496
237510
237524
237542
237559
237584
237581
237566
237559
237555
237555
237558
237563
237572
237582
237595
237610
237627
237644
237667
237661
237649
237644
237642
237643
237646
237652
237661
237672
237686
237701
237717
237735
237756
237740
237733
237730
237730
237732
237737
237745
237755
237766
237780
237796
237813
237831
237849
237822
237819
237818
237820
237824
237831
237840
237851
237864
237879
237896
237913
237933
237948
237903
237906
237907
237912
237918
237927
237938
237951
237966
237982
238000
238017
238038
238051
237988
237994
237997
238005
238014
238026
238039
238053
238070
238088
238108
238126
238149
238160
238072
238083
238089
238100
238112
238126
238141
238158
238177
238197
238218
238236
238261
238268
238159
238174
238183
238196
238211
238227
238245
238264
238286
238308
238330
238351
238377
238382
238246
238262
238275
238292
238310
238329
238350
238372
238395
238420
238443
238464
238491
238497
238344
238357
238373
238391
238412
238433
238456
238480
238505
238531
238555
238579
238607
238622
237218
237187
237166
237147
237132
237119
237109
237102
237098
237096
237095
237097
237099
237107
237270
237239
237218
237199
237183
237169
237158
237150
237144
237141
237138
237139
237139
237148
237318
237289
237269
237251
237235
237221
237210
237201
237194
237189
237186
237185
237184
237191
237371
237344
237325
237306
237290
237276
237264
237255
237247
237242
237237
237235
237233
237238
237424
237400
237381
237363
237348
237334
237322
237312
237304
237298
237292
237289
237286
237289
237479
237457
237440
237423
237408
237394
237382
237372
237364
237357
237351
237348
237344
237344
237535
237516
237499
237484
237470
237457
237446
237436
237427
237420
237414
237410
237406
237403
237592
237576
237561
237547
237534
237522
237512
237502
237494
237486
237481
237475
237472
237467
237651
237639
237625
237612
237601
237590
237581
237572
237564
237557
237551
237544
237542
237535
237713
237704
237691
237681
237671
237661
237653
237645
237637
237630
237624
237617
237616
237609
237776
237771
237760
237752
237743
237735
237727
237720
237714
237707
237701
237694
237694
237686
237843
237840
237831
237824
237817
237811
237805
237799
237794
237787
237783
237777
237778
237768
237912
237911
237904
237899
237894
237889
237885
237880
237875
237870
237865
237861
237861
237850
237992
237984
237977
237974
237971
237969
237966
237963
237960
237956
237952
237950
237952
237944
237201
237168
237141
237116
237094
237073
237054
237036
237020
237005
236991
236978
236967
236956
237230
237198
237172
237147
237124
237101
237081
237061
237044
237027
237012
236998
236985
236973
237256
237226
237201
237175
237152
237129
237108
237088
237070
237052
237036
237022
237007
236995
237285
237256
237231
237206
237182
237159
237138
237117
237098
237080
237063
237047
237031
237017
237315
237287
237263
237238
237214
237191
237169
237148
237128
237109
237091
237074
237056
237041
237346
237320
237296
237272
237248
237225
237203
237181
237160
237140
237120
237102
237083
237066
237379
237354
237331
237307
237283
237260
237238
237215
237194
237173
237152
237133
237113
237094
237413
237390
237367
237344
237321
237298
237274
237252
237229
237207
237186
237165
237145
237125
237448
237427
237404
237382
237359
237336
237313
237290
237267
237245
237223
237201
237180
237158
237485
237465
237443
237422
237399
237376
237353
237330
237306
237283
237261
237238
237217
237192
237522
237504
237483
237462
237440
237417
237395
237372
237348
237325
237302
237277
237255
237229
237562
237545
237524
237504
237483
237461
237438
237415
237391
237367
237343
237317
237295
237268
237605
237589
237569
237549
237528
237506
237483
237460
237436
237411
237386
237359
237336
237309
237653
237631
237611
237592
237572
237552
237530
237507
237484
237459
237434
237408
237384
237357
237174
237142
237114
237088
237061
237035
237010
236985
236961
236937
236915
236891
236870
236846
237182
237151
237125
237098
237072
237045
237019
236993
236968
236942
236918
236892
236870
236846
237190
237161
237135
237107
237081
237054
237028
237001
236975
236948
236923
236897
236873
236848
237200
237172
237145
237118
237091
237063
237036
237009
236982
236955
236929
236902
236877
236851
237209
237182
237155
237128
237100
237073
237045
237017
236990
236962
236934
236907
236880
236853
237218
237193
237166
237138
237110
237082
237054
237025
236997
236968
236939
236911
236883
236854
237228
237203
237176
237149
237120
237092
237063
237033
237004
236974
236945
236915
236886
236856
237238
237213
237186
237159
237130
237101
237072
237042
237011
236980
236950
236919
236889
236858
237249
237224
237197
237169
237141
237111
237081
237050
237019
236987
236955
236923
236892
236860
237259
237234
237207
237180
237151
237121
237090
237059
237026
236994
236961
236928
236895
236862
237271
237245
237218
237190
237161
237131
237099
237067
237034
237000
236966
236932
236898
236864
237282
237257
237229
237201
237171
237141
237109
237076
237042
237007
236972
236937
236901
236866
237294
237268
237240
237211
237181
237150
237118
237085
237050
237015
236979
236942
236905
236867
237304
237276
237249
237221
237191
237160
237127
237094
237060
237024
236988
236951
236914
236876
237089
237062
237036
237009
236981
236951
236922
236891
236860
236828
236798
236766
236738
236704
237079
237053
237027
237000
236972
236943
236913
236882
236850
236818
236786
236753
236724
236691
237067
237042
237016
236989
236961
236932
236902
236871
236839
236806
236775
236741
236710
236676
237056
237032
237005
236978
236950
236920
236890
236859
236827
236794
236761
236728
236696
236662
237044
237020
236993
236966
236938
236908
236877
236846
236813
236780
236747
236712
236679
236645
237031
237008
236981
236953
236924
236894
236863
236831
236798
236764
236730
236695
236661
236626
237019
236995
236968
236940
236910
236880
236848
236815
236781
236747
236712
236677
236642
236606
237005
236981
236953
236925
236895
236864
236831
236798
236763
236728
236693
236657
236621
236585
236992
236966
236939
236910
236879
236847
236814
236779
236744
236708
236672
236636
236598
236563
236976
236950
236922
236892
236861
236828
236794
236760
236724
236687
236650
236613
236575
236539
236962
236933
236905
236875
236843
236809
236775
236739
236701
236664
236626
236589
236549
236514
236945
236914
236886
236855
236822
236789
236753
236717
236679
236642
236602
236564
236524
236489
236928
236896
236867
236835
236802
236768
236731
236694
236655
236616
236576
236537
236496
236460
236909
236875
236846
236813
236780
236745
236708
236671
236632
236594
236554
236515
236473
236436
236869
236846
236822
236796
236769
236740
236710
236678
236645
236610
236576
236540
236508
236470
236839
236818
236795
236770
236743
236714
236684
236651
236618
236583
236548
236512
236479
236442
236807
236789
236765
236740
236714
236685
236655
236623
236590
236555
236521
236484
236451
236414
236776
236758
236734
236710
236683
236655
236624
236592
236559
236524
236490
236454
236420
236383
236746
236727
236702
236678
236651
236622
236592
236560
236527
236492
236458
236422
236388
236351
236714
236694
236669
236644
236617
236588
236557
236525
236492
236458
236423
236387
236352
236316
236681
236660
236635
236609
236581
236552
236521
236489
236456
236421
236386
236351
236316
236280
236646
236624
236599
236572
236544
236514
236483
236451
236417
236383
236347
236312
236276
236241
236612
236588
236562
236535
236506
236475
236444
236411
236377
236342
236306
236271
236235
236201
236575
236549
236523
236494
236465
236434
236402
236369
236335
236300
236264
236229
236192
236159
236538
236510
236484
236455
236425
236393
236360
236326
236291
236256
236219
236184
236147
236116
236499
236468
236441
236411
236381
236349
236316
236282
236247
236211
236174
236139
236102
236072
236461
236428
236400
236370
236339
236306
236272
236236
236200
236163
236126
236091
236053
236024
236417
236383
236355
236324
236292
236260
236225
236190
236155
236119
236082
236047
236010
235980
236431
236414
236395
236376
236354
236330
236305
236277
236249
236218
236187
236155
236386
236374
236356
236337
236315
236291
236266
236238
236209
236178
236147
236115
236343
236332
236313
236294
236272
236249
236224
236197
236169
236139
236108
236077
236300
236288
236269
236250
236229
236205
236180
236153
236125
236095
236065
236034
236257
236244
236225
236205
236183
236160
236135
236108
236080
236051
236022
235991
236212
236197
236178
236158
236136
236113
236088
236061
236034
236005
235976
235945
236167
236151
236131
236110
236088
236064
236039
236012
235985
235957
235928
235899
236119
236101
236081
236060
236038
236014
235988
235962
235935
235907
235878
235850
236072
236052
236032
236010
235987
235963
235937
235911
235883
235856
235827
235799
236022
236000
235980
235957
235934
235910
235884
235858
235831
235803
235775
235747
235974
235949
235929
235906
235882
235857
235831
235805
235777
235750
235721
235694
235922
235896
235875
235852
235828
235803
235777
235751
235723
235696
235667
235641
235873
235846
235824
235800
235775
235749
235723
235696
235668
235640
235612
235585
235817
235791
235768
235744
235719
235694
235668
235641
235614
235587
235559
235533
243105
243148
243202
243256
243313
243374
243128
243184
243248
243317
243389
243469
243161
243226
243299
243379
243464
243558
243191
243263
243344
243434
243530
243636
242899
242952
243011
243072
243133
243197
242900
242972
243046
243125
243204
243288
242918
243001
243089
243183
243278
243378
242933
243025
243125
243231
243342
243458
242953
243052
243159
243276
243399
243527
242972
243075
243189
243313
243444
243581
242994
243099
243215
243343
243478
243620
242694
242759
242819
242881
242941
243003
242678
242759
242840
242921
243000
243079
242682
242777
242873
242970
243066
243162
242686
242792
242902
243015
243127
243240
242692
242808
242930
243056
243183
243312
242700
242823
242953
243089
243228
243369
242709
242837
242973
243116
243262
243411
242720
242850
242987
243133
243283
243435
242732
242862
242997
243141
243290
243443
242746
242871
243001
243141
243284
243431
242760
242878
242999
243130
243263
243403
242774
242883
242993
243111
243230
243357
242787
242881
242976
243079
243182
243293
242811
242891
242968
243050
243131
243216
242490
242562
242623
242683
242742
242799
242462
242545
242625
242705
242779
242849
242457
242552
242645
242738
242826
242909
242451
242560
242667
242773
242876
242974
242448
242570
242690
242811
242928
243042
242449
242579
242710
242843
242974
243102
242452
242589
242729
242872
243013
243153
242458
242599
242744
242891
243040
243187
242466
242608
242753
242903
243053
243204
242476
242616
242758
242905
243053
243202
242489
242622
242755
242896
243037
243180
242503
242626
242749
242878
243006
243139
242517
242623
242730
242846
242959
243077
242546
242642
242732
242823
242911
243003
242278
242349
242404
242462
242515
242568
242241
242320
242393
242467
242531
242590
242231
242319
242403
242484
242558
242622
242220
242320
242415
242506
242590
242663
242216
242326
242433
242535
242629
242714
242214
242334
242451
242565
242671
242770
242216
242343
242470
242595
242714
242826
242221
242354
242487
242620
242749
242874
242229
242364
242501
242638
242774
242907
242239
242374
242510
242648
242785
242920
242252
242382
242511
242645
242779
242912
242267
242388
242508
242632
242756
242880
242282
242387
242493
242605
242715
242826
242314
242409
242498
242587
242672
242760
242016
242070
242118
242165
242209
242252
241986
242051
242112
242167
242217
242263
241981
242053
242120
242179
242231
242276
241975
242054
242128
242191
242246
242293
241974
242059
242140
242211
242271
242322
241974
242067
242155
242235
242303
242362
241979
242078
242174
242263
242342
242412
241986
242090
242194
242291
242382
242463
241996
242104
242212
242316
242417
242509
242008
242117
242227
242335
242441
242540
242022
242129
242236
242343
242449
242551
242039
242141
242240
242342
242442
242541
242057
242148
242235
242327
242416
242505
242087
242167
242241
242314
242385
242457
241643
241667
241691
241716
241739
241762
241644
241678
241707
241736
241763
241787
241654
241693
241726
241756
241783
241805
241663
241706
241740
241772
241798
241817
241672
241719
241757
241789
241813
241828
241681
241733
241775
241809
241834
241848
241693
241748
241796
241833
241861
241878
241706
241765
241818
241860
241895
241919
241722
241783
241842
241889
241932
241964
241738
241801
241864
241917
241967
242005
241755
241819
241883
241940
241995
242039
241775
241836
241898
241956
242011
242058
241792
241849
241904
241959
242013
242063
241818
241869
241915
241963
242008
242052
241088
241073
241064
241051
241040
241027
241131
241117
241113
241104
241097
241086
241164
241157
241153
241144
241136
241124
241195
241192
241187
241176
241164
241148
241223
241221
241215
241200
241184
241162
241250
241249
241240
241223
241202
241172
241277
241275
241266
241246
241220
241184
241302
241300
241291
241271
241243
241206
241327
241326
241319
241301
241273
241237
241351
241350
241348
241333
241310
241279
241376
241378
241380
241369
241354
241330
241400
241405