/*--------------------------------*- C++ -*----------------------------------*\
| =========                 |                                                 |
| \\      /  F ield         | OpenFOAM: The Open Source CFD Toolbox           |
|  \\    /   O peration     | Version:  v2106                                 |
|   \\  /    A nd           | Website:  www.openfoam.com                      |
|    \\/     M anipulation  |                                                 |
\*---------------------------------------------------------------------------*/
FoamFile
{
    version     2.0;
    format      ascii;
    arch        "LSB;label=32;scalar=64";
    class       volScalarField;
    location    "0.0002";
    object      Ttot;
}
// * * * * * * * * * * * * * * * * * * * * * * * * * * * * * * * * * * * * * //

dimensions      [0 0 0 1 0 0 0];

internalField   nonuniform List<scalar> 
17924
(
309.065
309.077
309.087
309.099
308.981
308.984
308.989
308.994
309.002
309.01
309.019
308.95
308.954
308.959
308.966
308.974
308.983
308.994
308.92
308.925
308.931
308.939
308.948
308.958
308.97
308.892
308.897
308.903
308.912
308.923
308.935
308.947
308.865
308.87
308.877
308.887
308.898
308.911
308.925
308.837
308.842
308.85
308.861
308.873
308.887
308.902
308.808
308.814
308.823
308.834
308.847
308.862
308.878
308.778
308.785
308.794
308.806
308.82
308.836
308.852
308.747
308.754
308.764
308.777
308.791
308.807
308.824
308.715
308.722
308.733
308.746
308.761
308.777
308.794
308.681
308.688
308.7
308.713
308.729
308.746
308.763
308.645
308.651
308.664
308.678
308.694
308.712
308.73
308.607
308.613
308.626
308.64
308.658
308.676
308.694
308.566
308.573
308.587
308.602
308.62
308.639
308.658
308.899
308.894
308.892
308.891
308.892
308.894
308.898
308.902
308.909
308.915
308.924
308.932
308.941
308.949
308.865
308.862
308.859
308.858
308.859
308.861
308.865
308.87
308.877
308.884
308.892
308.9
308.91
308.915
308.833
308.831
308.827
308.827
308.828
308.83
308.834
308.84
308.847
308.855
308.863
308.871
308.88
308.885
308.803
308.801
308.797
308.797
308.799
308.802
308.806
308.813
308.821
308.829
308.838
308.845
308.854
308.858
308.775
308.772
308.769
308.769
308.771
308.775
308.78
308.788
308.796
308.805
308.814
308.822
308.83
308.835
308.747
308.744
308.742
308.743
308.745
308.75
308.756
308.764
308.773
308.783
308.792
308.801
308.808
308.814
308.719
308.717
308.715
308.717
308.72
308.725
308.733
308.742
308.752
308.762
308.772
308.781
308.788
308.794
308.692
308.689
308.689
308.691
308.696
308.702
308.711
308.721
308.731
308.742
308.752
308.761
308.769
308.774
308.664
308.662
308.663
308.666
308.671
308.679
308.689
308.7
308.711
308.723
308.733
308.742
308.749
308.754
308.636
308.634
308.636
308.641
308.648
308.657
308.667
308.679
308.691
308.703
308.714
308.724
308.731
308.736
308.608
308.606
308.609
308.615
308.624
308.634
308.646
308.658
308.671
308.684
308.695
308.705
308.712
308.718
308.578
308.576
308.582
308.589
308.6
308.611
308.624
308.638
308.652
308.665
308.677
308.687
308.694
308.699
308.547
308.546
308.554
308.563
308.576
308.589
308.603
308.618
308.632
308.646
308.658
308.669
308.676
308.682
308.515
308.516
308.526
308.538
308.552
308.567
308.583
308.598
308.613
308.627
308.64
308.65
308.658
308.662
308.818
308.808
308.8
308.795
308.792
308.791
308.791
308.793
308.796
308.801
308.808
308.816
308.827
308.837
308.783
308.776
308.767
308.761
308.757
308.755
308.754
308.755
308.759
308.763
308.77
308.777
308.787
308.793
308.752
308.743
308.734
308.727
308.723
308.721
308.719
308.72
308.722
308.726
308.733
308.739
308.749
308.754
308.721
308.712
308.702
308.696
308.691
308.688
308.686
308.686
308.689
308.692
308.698
308.704
308.713
308.719
308.691
308.682
308.673
308.666
308.661
308.657
308.656
308.655
308.657
308.661
308.666
308.673
308.681
308.687
308.663
308.654
308.644
308.638
308.632
308.629
308.627
308.627
308.629
308.632
308.638
308.644
308.651
308.658
308.635
308.626
308.617
308.611
308.606
308.603
308.602
308.602
308.604
308.607
308.613
308.618
308.625
308.632
308.608
308.599
308.591
308.585
308.581
308.579
308.579
308.579
308.581
308.585
308.591
308.597
308.603
308.609
308.581
308.573
308.566
308.562
308.559
308.558
308.558
308.559
308.562
308.567
308.573
308.579
308.584
308.59
308.555
308.548
308.543
308.539
308.538
308.538
308.54
308.542
308.546
308.551
308.557
308.564
308.569
308.574
308.531
308.524
308.521
308.519
308.52
308.521
308.524
308.528
308.532
308.538
308.544
308.551
308.556
308.561
308.507
308.501
308.501
308.501
308.503
308.506
308.51
308.515
308.521
308.527
308.534
308.54
308.545
308.55
308.484
308.48
308.481
308.484
308.488
308.493
308.499
308.505
308.512
308.519
308.526
308.532
308.536
308.54
308.461
308.459
308.464
308.469
308.476
308.482
308.489
308.497
308.504
308.511
308.518
308.524
308.528
308.531
308.734
308.721
308.712
308.705
308.701
308.699
308.698
308.699
308.702
308.706
308.713
308.72
308.731
308.742
308.7
308.691
308.68
308.673
308.668
308.665
308.663
308.663
308.664
308.668
308.674
308.68
308.69
308.697
308.67
308.66
308.649
308.641
308.635
308.631
308.629
308.627
308.628
308.631
308.636
308.642
308.651
308.657
308.639
308.63
308.619
308.611
308.604
308.599
308.596
308.594
308.594
308.596
308.6
308.605
308.614
308.619
308.61
308.6
308.59
308.582
308.575
308.569
308.565
308.562
308.561
308.563
308.566
308.572
308.58
308.586
308.582
308.572
308.562
308.554
308.546
308.54
308.536
308.533
308.531
308.532
308.536
308.541
308.548
308.555
308.555
308.545
308.536
308.528
308.52
308.514
308.509
308.506
308.504
308.505
308.507
308.512
308.518
308.526
308.529
308.52
308.511
308.503
308.496
308.49
308.486
308.482
308.48
308.48
308.482
308.486
308.492
308.499
308.504
308.495
308.488
308.481
308.474
308.469
308.465
308.461
308.459
308.459
308.46
308.464
308.469
308.476
308.48
308.473
308.467
308.461
308.456
308.451
308.447
308.444
308.442
308.441
308.442
308.445
308.449
308.455
308.459
308.453
308.448
308.444
308.439
308.436
308.432
308.429
308.428
308.427
308.428
308.43
308.433
308.438
308.442
308.436
308.433
308.429
308.426
308.423
308.421
308.419
308.417
308.416
308.416
308.418
308.42
308.424
308.425
308.421
308.42
308.418
308.416
308.415
308.413
308.411
308.41
308.41
308.41
308.41
308.41
308.413
308.413
308.41
308.411
308.409
308.409
308.408
308.408
308.406
308.405
308.404
308.404
308.403
308.403
308.403
308.632
308.624
308.617
308.613
308.611
308.61
308.61
308.611
308.614
308.619
308.625
308.633
308.644
308.655
308.601
308.596
308.59
308.586
308.583
308.581
308.581
308.582
308.584
308.588
308.593
308.6
308.609
308.615
308.575
308.57
308.564
308.56
308.556
308.553
308.552
308.552
308.553
308.556
308.561
308.567
308.576
308.581
308.548
308.543
308.537
308.533
308.529
308.526
308.524
308.523
308.524
308.526
308.53
308.536
308.544
308.549
308.522
308.518
308.512
308.507
308.502
308.499
308.497
308.496
308.496
308.498
308.502
308.507
308.515
308.52
308.497
308.492
308.487
308.482
308.478
308.474
308.472
308.47
308.47
308.471
308.475
308.48
308.487
308.494
308.473
308.468
308.463
308.459
308.455
308.451
308.448
308.446
308.445
308.446
308.449
308.454
308.46
308.468
308.45
308.446
308.442
308.438
308.433
308.43
308.426
308.424
308.423
308.423
308.425
308.429
308.435
308.444
308.429
308.426
308.422
308.418
308.414
308.41
308.407
308.404
308.402
308.402
308.404
308.407
308.413
308.421
308.411
308.408
308.405
308.401
308.398
308.394
308.39
308.387
308.385
308.384
308.384
308.387
308.392
308.4
308.395
308.393
308.39
308.387
308.384
308.38
308.376
308.372
308.37
308.368
308.368
308.37
308.373
308.38
308.384
308.381
308.379
308.376
308.373
308.369
308.365
308.361
308.357
308.355
308.353
308.354
308.356
308.362
308.373
308.372
308.371
308.368
308.365
308.362
308.357
308.352
308.348
308.344
308.342
308.341
308.342
308.346
308.368
308.367
308.366
308.364
308.361
308.357
308.352
308.346
308.341
308.336
308.332
308.328
308.327
308.329
308.492
308.494
308.496
308.499
308.501
308.504
308.508
308.511
308.517
308.523
308.53
308.538
308.547
308.556
308.47
308.474
308.476
308.479
308.482
308.485
308.489
308.493
308.498
308.504
308.51
308.517
308.525
308.532
308.451
308.455
308.458
308.461
308.464
308.466
308.469
308.473
308.477
308.483
308.489
308.495
308.504
308.509
308.43
308.436
308.439
308.442
308.445
308.447
308.45
308.453
308.457
308.462
308.468
308.474
308.482
308.488
308.411
308.417
308.421
308.424
308.426
308.428
308.431
308.433
308.437
308.441
308.447
308.453
308.461
308.468
308.393
308.399
308.403
308.406
308.408
308.41
308.412
308.414
308.417
308.421
308.426
308.433
308.44
308.448
308.376
308.381
308.385
308.388
308.39
308.392
308.394
308.396
308.398
308.402
308.406
308.412
308.419
308.427
308.36
308.365
308.369
308.372
308.374
308.375
308.377
308.378
308.38
308.383
308.387
308.392
308.399
308.408
308.346
308.351
308.355
308.357
308.359
308.36
308.361
308.362
308.363
308.365
308.369
308.374
308.38
308.389
308.334
308.339
308.343
308.345
308.346
308.347
308.347
308.347
308.348
308.349
308.352
308.356
308.362
308.37
308.326
308.33
308.333
308.335
308.336
308.335
308.335
308.334
308.334
308.334
308.336
308.34
308.345
308.353
308.32
308.323
308.326
308.327
308.327
308.326
308.325
308.323
308.321
308.321
308.322
308.324
308.328
308.335
308.316
308.319
308.321
308.322
308.321
308.319
308.316
308.313
308.31
308.308
308.308
308.31
308.313
308.319
308.318
308.319
308.32
308.32
308.318
308.314
308.31
308.305
308.3
308.297
308.295
308.294
308.296
308.299
308.285
308.302
308.315
308.328
308.34
308.35
308.359
308.367
308.376
308.385
308.394
308.403
308.413
308.421
308.278
308.295
308.309
308.322
308.334
308.345
308.355
308.364
308.374
308.382
308.392
308.401
308.411
308.418
308.27
308.288
308.302
308.316
308.328
308.339
308.349
308.358
308.367
308.376
308.385
308.394
308.404
308.412
308.262
308.28
308.295
308.308
308.321
308.331
308.342
308.351
308.36
308.369
308.378
308.387
308.396
308.405
308.255
308.272
308.288
308.301
308.313
308.323
308.333
308.342
308.351
308.359
308.369
308.377
308.387
308.395
308.247
308.264
308.279
308.292
308.304
308.314
308.324
308.333
308.342
308.35
308.359
308.367
308.376
308.385
308.241
308.257
308.272
308.285
308.296
308.306
308.315
308.323
308.331
308.339
308.347
308.356
308.364
308.373
308.235
308.251
308.265
308.277
308.288
308.297
308.305
308.313
308.321
308.328
308.336
308.344
308.352
308.361
308.23
308.245
308.259
308.27
308.28
308.289
308.296
308.303
308.309
308.316
308.323
308.331
308.339
308.348
308.227
308.242
308.254
308.265
308.273
308.281
308.287
308.293
308.298
308.305
308.311
308.318
308.325
308.335
308.227
308.239
308.25
308.26
308.267
308.273
308.278
308.283
308.287
308.292
308.298
308.305
308.311
308.321
308.227
308.238
308.248
308.255
308.261
308.266
308.27
308.273
308.277
308.281
308.285
308.291
308.297
308.306
308.229
308.238
308.246
308.252
308.256
308.26
308.261
308.263
308.265
308.268
308.272
308.277
308.282
308.291
308.234
308.241
308.247
308.25
308.252
308.254
308.254
308.254
308.255
308.256
308.258
308.261
308.266
308.272
307.996
308.024
308.05
308.073
308.094
308.112
308.128
308.143
308.157
308.17
308.183
308.194
308.205
308.219
308.004
308.03
308.056
308.08
308.102
308.122
308.14
308.157
308.172
308.186
308.199
308.212
308.224
308.236
308.011
308.039
308.067
308.09
308.113
308.132
308.151
308.167
308.183
308.197
308.211
308.223
308.235
308.247
308.019
308.046
308.073
308.097
308.12
308.14
308.159
308.176
308.192
308.207
308.221
308.234
308.246
308.258
308.027
308.054
308.081
308.105
308.127
308.147
308.166
308.182
308.198
308.213
308.227
308.24
308.252
308.264
308.033
308.06
308.087
308.11
308.132
308.152
308.17
308.187
308.203
308.217
308.231
308.244
308.257
308.269
308.041
308.068
308.093
308.116
308.137
308.156
308.173
308.189
308.204
308.218
308.232
308.245
308.257
308.269
308.048
308.074
308.098
308.12
308.14
308.158
308.175
308.19
308.205
308.219
308.232
308.244
308.256
308.268
308.056
308.08
308.103
308.123
308.142
308.159
308.175
308.189
308.203
308.216
308.229
308.241
308.253
308.265
308.064
308.086
308.107
308.126
308.143
308.159
308.173
308.187
308.2
308.213
308.225
308.237
308.248
308.26
308.072
308.093
308.111
308.128
308.143
308.158
308.171
308.184
308.195
308.207
308.218
308.23
308.241
308.254
308.079
308.098
308.114
308.129
308.143
308.156
308.167
308.179
308.19
308.201
308.211
308.222
308.233
308.246
308.086
308.103
308.116
308.13
308.142
308.153
308.162
308.172
308.182
308.192
308.202
308.213
308.223
308.236
308.094
308.108
308.119
308.13
308.139
308.148
308.156
308.165
308.173
308.182
308.191
308.201
308.211
308.224
307.64
307.673
307.705
307.734
307.761
307.786
307.809
307.829
307.848
307.866
307.882
307.897
307.912
307.928
307.66
307.691
307.725
307.755
307.784
307.811
307.835
307.858
307.878
307.897
307.915
307.932
307.947
307.966
307.685
307.717
307.751
307.781
307.81
307.837
307.862
307.884
307.905
307.925
307.943
307.96
307.976
307.994
307.708
307.739
307.773
307.803
307.833
307.86
307.886
307.909
307.931
307.951
307.97
307.988
308.005
308.023
307.732
307.763
307.796
307.826
307.856
307.882
307.908
307.931
307.953
307.974
307.993
308.011
308.029
308.046
307.755
307.786
307.818
307.847
307.876
307.902
307.928
307.951
307.974
307.994
308.014
308.032
308.05
308.067
307.777
307.808
307.839
307.867
307.895
307.921
307.946
307.969
307.991
308.011
308.031
308.05
308.068
308.084
307.799
307.829
307.858
307.885
307.912
307.937
307.961
307.984
308.006
308.026
308.046
308.065
308.082
308.099
307.82
307.848
307.875
307.902
307.927
307.952
307.975
307.997
308.018
308.038
308.057
308.076
308.094
308.111
307.839
307.866
307.891
307.916
307.94
307.964
307.986
308.007
308.028
308.048
308.067
308.086
308.104
308.122
307.858
307.883
307.906
307.929
307.952
307.974
307.995
308.015
308.035
308.055
308.074
308.093
308.111
308.13
307.874
307.897
307.918
307.94
307.961
307.982
308.002
308.022
308.041
308.06
308.079
308.099
308.117
308.136
307.889
307.91
307.929
307.949
307.968
307.988
308.007
308.026
308.044
308.063
308.082
308.101
308.12
308.139
307.902
307.922
307.937
307.956
307.973
307.991
308.01
308.028
308.047
308.065
308.084
308.103
308.121
308.142
307.283
307.31
307.34
307.367
307.395
307.42
307.444
307.467
307.489
307.509
307.528
307.547
307.565
307.583
307.315
307.34
307.372
307.4
307.429
307.455
307.481
307.505
307.528
307.55
307.571
307.591
307.61
307.632
307.353
307.378
307.409
307.437
307.465
307.492
307.518
307.542
307.566
307.588
307.61
307.631
307.65
307.672
307.389
307.414
307.444
307.472
307.501
307.528
307.554
307.579
307.604
307.627
307.649
307.671
307.692
307.714
307.425
307.451
307.48
307.508
307.536
307.563
307.589
307.615
307.64
307.663
307.686
307.709
307.73
307.752
307.461
307.487
307.516
307.543
307.57
307.597
307.624
307.65
307.675
307.699
307.723
307.746
307.768
307.789
307.496
307.522
307.549
307.576
307.603
307.63
307.656
307.682
307.708
307.732
307.756
307.78
307.802
307.823
307.53
307.556
307.582
307.608
307.635
307.661
307.688
307.714
307.739
307.764
307.789
307.812
307.835
307.857
307.562
307.587
307.612
307.638
307.664
307.691
307.717
307.743
307.769
307.794
307.819
307.842
307.866
307.887
307.593
307.618
307.641
307.667
307.692
307.718
307.744
307.771
307.796
307.821
307.846
307.87
307.894
307.916
307.622
307.646
307.668
307.693
307.718
307.744
307.77
307.796
307.822
307.847
307.872
307.896
307.921
307.943
307.65
307.673
307.694
307.718
307.742
307.768
307.793
307.819
307.845
307.87
307.895
307.92
307.945
307.969
307.674
307.696
307.717
307.74
307.764
307.789
307.814
307.84
307.866
307.892
307.918
307.943
307.969
307.994
307.698
307.719
307.738
307.761
307.784
307.809
307.834
307.859
307.885
307.911
307.937
307.963
307.989
308.016
307.01
307.023
307.041
307.058
307.078
307.097
307.117
307.137
307.157
307.176
307.195
307.213
307.232
307.249
307.05
307.062
307.08
307.097
307.117
307.136
307.157
307.178
307.198
307.219
307.238
307.258
307.277
307.298
307.091
307.103
307.122
307.139
307.158
307.178
307.198
307.219
307.24
307.26
307.28
307.301
307.32
307.342
307.133
307.145
307.163
307.18
307.2
307.22
307.241
307.262
307.283
307.304
307.325
307.347
307.366
307.389
307.174
307.187
307.205
307.222
307.242
307.262
307.283
307.305
307.327
307.348
307.37
307.392
307.412
307.434
307.215
307.23
307.247
307.265
307.284
307.305
307.327
307.349
307.371
307.393
307.416
307.438
307.459
307.481
307.256
307.271
307.288
307.307
307.327
307.348
307.37
307.392
307.415
307.438
307.461
307.483
307.505
307.527
307.296
307.312
307.329
307.348
307.369
307.39
307.413
307.436
307.459
307.482
307.506
307.529
307.552
307.573
307.335
307.351
307.369
307.389
307.409
307.432
307.454
307.478
307.502
307.526
307.55
307.573
307.597
307.618
307.374
307.391
307.408
307.429
307.45
307.472
307.495
307.52
307.544
307.568
307.593
307.617
307.641
307.662
307.41
307.427
307.445
307.466
307.488
307.511
307.535
307.56
307.585
307.61
307.635
307.659
307.685
307.705
307.446
307.464
307.482
307.503
307.525
307.549
307.573
307.598
307.624
307.649
307.675
307.7
307.726
307.747
307.478
307.497
307.516
307.537
307.56
307.584
307.61
307.636
307.662
307.688
307.715
307.741
307.768
307.789
307.512
307.531
307.55
307.572
307.595
307.619
307.645
307.671
307.697
307.723
307.75
307.776
307.803
307.829
306.852
306.85
306.855
306.862
306.871
306.88
306.891
306.904
306.917
306.93
306.944
306.959
306.973
306.987
306.892
306.887
306.893
306.899
306.907
306.917
306.928
306.94
306.954
306.968
306.982
306.997
307.011
307.027
306.929
306.925
306.93
306.937
306.946
306.956
306.967
306.979
306.992
307.006
307.02
307.034
307.049
307.066
306.967
306.965
306.97
306.977
306.986
306.996
307.007
307.019
307.032
307.046
307.061
307.076
307.091
307.108
307.004
307.004
307.01
307.018
307.027
307.037
307.048
307.061
307.075
307.089
307.103
307.119
307.134
307.151
307.042
307.045
307.051
307.059
307.069
307.079
307.091
307.105
307.119
307.133
307.148
307.164
307.179
307.196
307.08
307.086
307.092
307.101
307.111
307.123
307.135
307.149
307.164
307.179
307.194
307.21
307.226
307.242
307.12
307.126
307.134
307.143
307.154
307.166
307.18
307.194
307.209
307.225
307.241
307.257
307.274
307.289
307.159
307.166
307.174
307.185
307.197
307.21
307.225
307.24
307.256
307.272
307.288
307.305
307.323
307.337
307.198
307.206
307.215
307.227
307.24
307.254
307.269
307.285
307.302
307.319
307.336
307.353
307.372
307.386
307.235
307.245
307.255
307.268
307.282
307.298
307.314
307.331
307.348
307.366
307.384
307.401
307.421
307.434
307.274
307.284
307.295
307.309
307.324
307.341
307.358
307.376
307.394
307.412
307.431
307.449
307.47
307.484
307.309
307.321
307.333
307.349
307.365
307.383
307.402
307.42
307.44
307.459
307.478
307.498
307.519
307.533
307.348
307.36
307.374
307.389
307.407
307.425
307.444
307.464
307.484
307.503
307.523
307.543
307.564
307.582
306.779
306.772
306.768
306.766
306.766
306.767
306.769
306.773
306.777
306.783
306.79
306.798
306.806
306.814
306.811
306.802
306.798
306.795
306.795
306.796
306.797
306.801
306.806
306.811
306.818
306.825
306.832
306.842
306.839
306.831
306.828
306.826
306.825
306.826
306.828
306.831
306.835
306.841
306.846
306.854
306.86
306.87
306.87
306.863
306.86
306.858
306.857
306.858
306.86
306.863
306.867
306.872
306.878
306.884
306.891
306.9
306.9
306.894
306.892
306.89
306.89
306.891
306.893
306.896
306.9
306.905
306.911
306.917
306.924
306.932
306.931
306.927
306.925
306.924
306.924
306.925
306.927
306.931
306.935
306.94
306.946
306.952
306.959
306.967
306.962
306.959
306.958
306.958
306.958
306.96
306.963
306.967
306.971
306.977
306.983
306.989
306.996
307.003
306.993
306.992
306.992
306.992
306.994
306.997
307
307.004
307.009
307.015
307.021
307.028
307.035
307.041
307.025
307.026
307.026
307.028
307.03
307.034
307.038
307.043
307.048
307.055
307.061
307.068
307.076
307.081
307.057
307.06
307.061
307.064
307.067
307.072
307.077
307.082
307.089
307.096
307.103
307.11
307.119
307.123
307.09
307.094
307.097
307.101
307.105
307.111
307.116
307.123
307.13
307.138
307.145
307.153
307.162
307.165
307.124
307.129
307.133
307.138
307.143
307.15
307.157
307.164
307.172
307.181
307.189
307.197
307.207
307.209
307.158
307.164
307.169
307.175
307.182
307.189
307.197
307.206
307.215
307.224
307.233
307.241
307.251
307.254
307.195
307.2
307.207
307.213
307.221
307.23
307.238
307.247
307.257
307.267
307.276
307.285
307.296
307.302
306.756
306.744
306.736
306.729
306.723
306.718
306.714
306.711
306.709
306.708
306.708
306.708
306.709
306.712
306.776
306.765
306.756
306.749
306.742
306.737
306.733
306.729
306.727
306.725
306.725
306.725
306.725
306.728
306.795
306.784
306.776
306.769
306.762
306.757
306.753
306.749
306.746
306.744
306.743
306.743
306.742
306.745
306.815
306.805
306.797
306.79
306.784
306.778
306.774
306.77
306.767
306.765
306.763
306.762
306.761
306.763
306.836
306.826
306.819
306.812
306.806
306.8
306.796
306.792
306.789
306.786
306.784
306.783
306.781
306.782
306.857
306.848
306.842
306.835
306.829
306.824
306.819
306.815
306.812
306.809
306.807
306.805
306.804
306.803
306.878
306.871
306.865
306.858
306.853
306.848
306.844
306.84
306.836
306.833
306.831
306.829
306.828
306.826
306.9
306.894
306.888
306.883
306.878
306.873
306.869
306.865
306.862
306.859
306.857
306.854
306.853
306.851
306.923
306.918
306.913
306.908
306.904
306.899
306.896
306.892
306.889
306.886
306.884
306.881
306.88
306.877
306.947
306.943
306.939
306.935
306.93
306.927
306.923
306.92
306.917
306.914
306.912
306.909
306.908
306.906
306.971
306.969
306.965
306.962
306.958
306.955
306.952
306.949
306.947
306.944
306.942
306.939
306.938
306.935
306.997
306.996
306.992
306.99
306.987
306.984
306.982
306.98
306.978
306.975
306.973
306.97
306.971
306.967
307.024
307.024
307.021
307.019
307.017
307.015
307.013
307.011
307.009
307.007
307.005
307.003
307.003
306.999
307.054
307.052
307.049
307.048
307.047
307.045
307.044
307.043
307.042
307.04
307.038
307.037
307.038
307.035
306.746
306.733
306.723
306.713
306.704
306.696
306.689
306.682
306.675
306.669
306.664
306.659
306.654
306.65
306.757
306.745
306.735
306.725
306.716
306.707
306.699
306.691
306.685
306.678
306.672
306.666
306.661
306.657
306.767
306.756
306.746
306.736
306.727
306.718
306.71
306.702
306.695
306.688
306.681
306.676
306.67
306.665
306.778
306.767
306.758
306.748
306.738
306.729
306.721
306.713
306.705
306.698
306.692
306.685
306.679
306.673
306.79
306.779
306.77
306.76
306.751
306.742
306.733
306.725
306.717
306.709
306.702
306.695
306.689
306.683
306.802
306.792
306.782
306.773
306.763
306.754
306.746
306.737
306.729
306.721
306.714
306.706
306.699
306.692
306.814
306.805
306.795
306.786
306.777
306.768
306.759
306.751
306.742
306.734
306.726
306.718
306.71
306.703
306.827
306.819
306.809
306.8
306.791
306.782
306.773
306.764
306.756
306.747
306.739
306.73
306.723
306.715
306.841
306.833
306.824
306.815
306.806
306.797
306.788
306.779
306.77
306.761
306.753
306.744
306.736
306.727
306.855
306.847
306.839
306.83
306.821
306.813
306.803
306.794
306.785
306.776
306.767
306.758
306.75
306.741
306.869
306.862
306.854
306.846
306.837
306.828
306.819
306.81
306.801
306.792
306.783
306.773
306.764
306.754
306.884
306.878
306.87
306.862
306.854
306.845
306.836
306.827
306.818
306.808
306.798
306.788
306.78
306.769
306.901
306.895
306.887
306.879
306.871
306.862
306.853
306.844
306.835
306.825
306.815
306.804
306.796
306.785
306.919
306.911
306.903
306.896
306.888
306.88
306.871
306.862
306.853
306.843
306.834
306.823
306.814
306.804
306.732
306.719
306.709
306.698
306.688
306.678
306.668
306.658
306.649
306.639
306.631
306.621
306.613
306.603
306.735
306.723
306.713
306.702
306.692
306.682
306.671
306.661
306.651
306.641
306.632
306.622
306.613
306.604
306.738
306.727
306.716
306.706
306.695
306.685
306.675
306.664
306.654
306.644
306.634
306.624
306.614
306.605
306.742
306.731
306.72
306.71
306.699
306.688
306.678
306.667
306.657
306.646
306.636
306.626
306.616
306.605
306.745
306.734
306.724
306.713
306.703
306.692
306.681
306.67
306.659
306.648
306.638
306.627
306.617
306.606
306.748
306.738
306.728
306.717
306.706
306.695
306.684
306.673
306.662
306.651
306.64
306.629
306.618
306.607
306.752
306.742
306.732
306.721
306.71
306.699
306.688
306.676
306.665
306.653
306.642
306.63
306.619
306.607
306.756
306.746
306.736
306.725
306.714
306.703
306.691
306.679
306.667
306.655
306.644
306.632
306.62
306.608
306.76
306.75
306.74
306.729
306.718
306.706
306.694
306.682
306.67
306.658
306.645
306.633
306.62
306.608
306.763
306.754
306.743
306.733
306.721
306.71
306.698
306.686
306.673
306.66
306.647
306.635
306.621
306.609
306.768
306.758
306.747
306.737
306.725
306.713
306.701
306.689
306.676
306.663
306.649
306.636
306.622
306.609
306.772
306.762
306.752
306.74
306.729
306.717
306.705
306.692
306.679
306.665
306.651
306.638
306.623
306.61
306.776
306.766
306.756
306.744
306.733
306.721
306.708
306.695
306.682
306.668
306.654
306.639
306.625
306.61
306.78
306.77
306.759
306.748
306.736
306.724
306.712
306.699
306.685
306.671
306.657
306.643
306.628
306.613
306.695
306.685
306.675
306.664
306.653
306.642
306.63
306.618
306.606
306.594
306.582
306.569
306.558
306.545
306.692
306.681
306.671
306.66
306.65
306.638
306.626
306.614
306.602
306.59
306.578
306.565
306.553
306.54
306.687
306.677
306.667
306.656
306.645
306.634
306.622
306.61
306.598
306.585
306.573
306.56
306.548
306.535
306.682
306.673
306.662
306.652
306.641
306.629
306.617
306.605
306.593
306.58
306.567
306.554
306.542
306.529
306.677
306.668
306.658
306.647
306.636
306.624
306.612
306.6
306.587
306.574
306.562
306.548
306.535
306.522
306.672
306.663
306.653
306.642
306.63
306.619
306.607
306.594
306.581
306.568
306.555
306.541
306.528
306.515
306.667
306.658
306.647
306.636
306.625
306.613
306.601
306.588
306.575
306.561
306.548
306.534
306.521
306.507
306.662
306.652
306.641
306.63
306.619
306.607
306.594
306.581
306.568
306.554
306.54
306.526
306.512
306.498
306.656
306.647
306.636
306.624
306.612
306.6
306.587
306.574
306.56
306.546
306.532
306.518
306.503
306.49
306.65
306.64
306.629
306.617
306.605
306.593
306.579
306.566
306.552
306.538
306.523
306.509
306.494
306.48
306.644
306.633
306.622
306.611
306.598
306.585
306.572
306.558
306.543
306.529
306.514
306.499
306.484
306.47
306.637
306.626
306.615
306.603
306.59
306.577
306.563
306.549
306.535
306.52
306.504
306.49
306.474
306.46
306.63
306.619
306.607
306.595
306.582
306.569
306.555
306.54
306.525
306.51
306.494
306.479
306.463
306.449
306.623
306.611
306.599
306.586
306.573
306.56
306.545
306.531
306.516
306.501
306.485
306.47
306.454
306.44
306.606
306.597
306.588
306.578
306.567
306.556
306.544
306.532
306.519
306.505
306.492
306.478
306.465
306.451
306.595
306.586
306.577
306.567
306.557
306.546
306.534
306.521
306.508
306.495
306.482
306.467
306.455
306.44
306.582
306.575
306.565
306.556
306.545
306.535
306.523
306.51
306.497
306.484
306.471
306.457
306.443
306.429
306.57
306.563
306.553
306.544
306.533
306.522
306.511
306.498
306.485
306.472
306.459
306.445
306.431
306.417
306.558
306.55
306.541
306.531
306.521
306.51
306.498
306.486
306.473
306.459
306.446
306.432
306.419
306.404
306.545
306.537
306.528
306.518
306.507
306.496
306.484
306.472
306.459
306.446
306.432
306.418
306.405
306.391
306.533
306.524
306.515
306.505
306.494
306.482
306.47
306.458
306.445
306.432
306.418
306.404
306.391
306.377
306.519
306.51
306.5
306.49
306.479
306.468
306.455
306.443
306.43
306.417
306.403
306.389
306.375
306.361
306.505
306.496
306.486
306.475
306.464
306.452
306.44
306.427
306.414
306.401
306.387
306.373
306.359
306.346
306.491
306.481
306.471
306.46
306.448
306.436
306.424
306.411
306.398
306.384
306.37
306.357
306.342
306.329
306.476
306.466
306.455
306.444
306.432
306.42
306.407
306.394
306.38
306.367
306.352
306.339
306.324
306.312
306.461
306.449
306.439
306.427
306.415
306.403
306.39
306.377
306.363
306.35
306.335
306.322
306.307
306.295
306.446
306.434
306.423
306.411
306.399
306.386
306.373
306.359
306.345
306.331
306.316
306.302
306.288
306.276
306.429
306.416
306.405
306.393
306.381
306.368
306.355
306.341
306.327
306.313
306.299
306.285
306.271
306.259
306.432
306.426
306.419
306.411
306.402
306.393
306.383
306.373
306.362
306.35
306.338
306.325
306.415
306.41
306.403
306.396
306.387
306.378
306.368
306.357
306.346
306.334
306.322
306.31
306.399
306.394
306.386
306.379
306.371
306.362
306.352
306.341
306.33
306.319
306.307
306.295
306.381
306.377
306.369
306.362
306.354
306.345
306.335
306.324
306.313
306.302
306.29
306.278
306.365
306.359
306.352
306.344
306.336
306.327
306.317
306.307
306.296
306.285
306.273
306.261
306.347
306.341
306.334
306.326
306.317
306.308
306.299
306.288
306.278
306.267
306.255
306.244
306.329
306.323
306.315
306.307
306.299
306.289
306.28
306.269
306.259
306.248
306.237
306.225
306.311
306.304
306.296
306.288
306.279
306.27
306.26
306.25
306.239
306.228
306.217
306.206
306.292
306.285
306.277
306.268
306.259
306.25
306.24
306.23
306.219
306.208
306.197
306.187
306.273
306.264
306.257
306.248
306.239
306.229
306.22
306.209
306.199
306.188
306.177
306.166
306.254
306.245
306.237
306.228
306.218
306.209
306.199
306.188
306.178
306.167
306.156
306.146
306.234
306.224
306.216
306.207
306.197
306.188
306.178
306.167
306.157
306.146
306.135
306.125
306.214
306.204
306.196
306.187
306.177
306.167
306.157
306.146
306.135
306.125
306.113
306.103
306.193
306.183
306.174
306.165
306.155
306.145
306.135
306.125
306.114
306.104
306.093
306.083
309.09
309.106
309.126
309.146
309.167
309.189
309.1
309.12
309.144
309.17
309.197
309.226
309.113
309.137
309.164
309.194
309.226
309.261
309.125
309.152
309.183
309.216
309.252
309.291
309.01
309.03
309.052
309.075
309.098
309.121
309.011
309.038
309.066
309.096
309.125
309.156
309.019
309.05
309.083
309.118
309.154
309.191
309.025
309.06
309.097
309.137
309.179
309.222
309.034
309.071
309.111
309.155
309.201
309.249
309.042
309.081
309.123
309.17
309.219
309.27
309.051
309.09
309.134
309.182
309.233
309.286
308.929
308.954
308.977
309
309.022
309.045
308.924
308.954
308.985
309.015
309.045
309.074
308.926
308.962
308.998
309.034
309.07
309.106
308.928