/*--------------------------------*- C++ -*----------------------------------*\
| =========                 |                                                 |
| \\      /  F ield         | OpenFOAM: The Open Source CFD Toolbox           |
|  \\    /   O peration     | Version:  v2106                                 |
|   \\  /    A nd           | Website:  www.openfoam.com                      |
|    \\/     M anipulation  |                                                 |
\*---------------------------------------------------------------------------*/
FoamFile
{
    version     2.0;
    format      ascii;
    arch        "LSB;label=32;scalar=64";
    class       volScalarField;
    location    "0.000165";
    object      alphat;
}
// * * * * * * * * * * * * * * * * * * * * * * * * * * * * * * * * * * * * * //

dimensions      [1 -1 -1 0 0 0 0];

internalField   nonuniform List<scalar> 
17920
(
9.33126e-17
9.33129e-17
9.33119e-17
9.33122e-17
9.33112e-17
9.33115e-17
9.33106e-17
9.3311e-17
9.33101e-17
9.33106e-17
9.33098e-17
9.33103e-17
9.33096e-17
9.33101e-17
9.33095e-17
9.33101e-17
9.33096e-17
9.33101e-17
9.33098e-17
9.33103e-17
9.33101e-17
9.33105e-17
9.33104e-17
9.33109e-17
9.33109e-17
9.33113e-17
9.33111e-17
9.33116e-17
9.31658e-17
9.3166e-17
9.31661e-17
9.31662e-17
9.31662e-17
9.31662e-17
9.31661e-17
9.3166e-17
9.31658e-17
9.31656e-17
9.31653e-17
9.3165e-17
9.31647e-17
9.31642e-17
9.3166e-17
9.31663e-17
9.31663e-17
9.31664e-17
9.31664e-17
9.31664e-17
9.31663e-17
9.31661e-17
9.3166e-17
9.31658e-17
9.31655e-17
9.31652e-17
9.31649e-17
9.31644e-17
9.3166e-17
9.31663e-17
9.31664e-17
9.31665e-17
9.31666e-17
9.31666e-17
9.31665e-17
9.31663e-17
9.31661e-17
9.31659e-17
9.31656e-17
9.31653e-17
9.31649e-17
9.31645e-17
9.31661e-17
9.31664e-17
9.31665e-17
9.31666e-17
9.31667e-17
9.31667e-17
9.31666e-17
9.31664e-17
9.31663e-17
9.3166e-17
9.31657e-17
9.31653e-17
9.3165e-17
9.31645e-17
9.31661e-17
9.31664e-17
9.31665e-17
9.31667e-17
9.31667e-17
9.31667e-17
9.31667e-17
9.31665e-17
9.31663e-17
9.31661e-17
9.31658e-17
9.31654e-17
9.3165e-17
9.31646e-17
9.31661e-17
9.31664e-17
9.31666e-17
9.31667e-17
9.31667e-17
9.31668e-17
9.31667e-17
9.31665e-17
9.31663e-17
9.31661e-17
9.31658e-17
9.31654e-17
9.3165e-17
9.31645e-17
9.31661e-17
9.31663e-17
9.31665e-17
9.31666e-17
9.31667e-17
9.31667e-17
9.31666e-17
9.31665e-17
9.31663e-17
9.3166e-17
9.31657e-17
9.31654e-17
9.31649e-17
9.31645e-17
9.3166e-17
9.31662e-17
9.31664e-17
9.31665e-17
9.31666e-17
9.31666e-17
9.31665e-17
9.31664e-17
9.31662e-17
9.31659e-17
9.31656e-17
9.31652e-17
9.31648e-17
9.31643e-17
9.31659e-17
9.31661e-17
9.31663e-17
9.31664e-17
9.31664e-17
9.31664e-17
9.31664e-17
9.31662e-17
9.3166e-17
9.31657e-17
9.31654e-17
9.31651e-17
9.31646e-17
9.31642e-17
9.31657e-17
9.31659e-17
9.31661e-17
9.31662e-17
9.31662e-17
9.31662e-17
9.31661e-17
9.3166e-17
9.31658e-17
9.31655e-17
9.31652e-17
9.31648e-17
9.31644e-17
9.3164e-17
9.31655e-17
9.31657e-17
9.31658e-17
9.31659e-17
9.31659e-17
9.31659e-17
9.31658e-17
9.31657e-17
9.31655e-17
9.31652e-17
9.31649e-17
9.31645e-17
9.31642e-17
9.31637e-17
9.31652e-17
9.31654e-17
9.31654e-17
9.31655e-17
9.31655e-17
9.31655e-17
9.31655e-17
9.31653e-17
9.31651e-17
9.31648e-17
9.31646e-17
9.31642e-17
9.31638e-17
9.31634e-17
9.31649e-17
9.31651e-17
9.31651e-17
9.31652e-17
9.31651e-17
9.31651e-17
9.3165e-17
9.31648e-17
9.31647e-17
9.31644e-17
9.31642e-17
9.31638e-17
9.31636e-17
9.31631e-17
9.31644e-17
9.31645e-17
9.31646e-17
9.31646e-17
9.31646e-17
9.31646e-17
9.31645e-17
9.31644e-17
9.31642e-17
9.3164e-17
9.31637e-17
9.31634e-17
9.3163e-17
9.31626e-17
9.30251e-17
9.30261e-17
9.30269e-17
9.30276e-17
9.3028e-17
9.30282e-17
9.30283e-17
9.30281e-17
9.30278e-17
9.30273e-17
9.30266e-17
9.30258e-17
9.30249e-17
9.30239e-17
9.30259e-17
9.3027e-17
9.30277e-17
9.30284e-17
9.30289e-17
9.30291e-17
9.30292e-17
9.30291e-17
9.30287e-17
9.30282e-17
9.30275e-17
9.30267e-17
9.30258e-17
9.30247e-17
9.30266e-17
9.30276e-17
9.30285e-17
9.30292e-17
9.30297e-17
9.303e-17
9.30301e-17
9.30299e-17
9.30296e-17
9.30291e-17
9.30283e-17
9.30275e-17
9.30265e-17
9.30254e-17
9.30272e-17
9.30282e-17
9.30291e-17
9.30298e-17
9.30303e-17
9.30306e-17
9.30307e-17
9.30306e-17
9.30302e-17
9.30297e-17
9.3029e-17
9.30281e-17
9.30271e-17
9.3026e-17
9.30276e-17
9.30287e-17
9.30296e-17
9.30303e-17
9.30308e-17
9.30311e-17
9.30312e-17
9.30311e-17
9.30307e-17
9.30302e-17
9.30295e-17
9.30286e-17
9.30275e-17
9.30264e-17
9.30279e-17
9.30289e-17
9.30298e-17
9.30306e-17
9.30311e-17
9.30314e-17
9.30315e-17
9.30314e-17
9.3031e-17
9.30305e-17
9.30297e-17
9.30288e-17
9.30277e-17
9.30266e-17
9.3028e-17
9.3029e-17
9.303e-17
9.30306e-17
9.30312e-17
9.30315e-17
9.30316e-17
9.30314e-17
9.30311e-17
9.30306e-17
9.30298e-17
9.30289e-17
9.30278e-17
9.30266e-17
9.3028e-17
9.30289e-17
9.30298e-17
9.30305e-17
9.3031e-17
9.30313e-17
9.30314e-17
9.30313e-17
9.3031e-17
9.30304e-17
9.30296e-17
9.30287e-17
9.30276e-17
9.30264e-17
9.30277e-17
9.30286e-17
9.30295e-17
9.30302e-17
9.30307e-17
9.3031e-17
9.30311e-17
9.30309e-17
9.30306e-17
9.30301e-17
9.30293e-17
9.30284e-17
9.30272e-17
9.3026e-17
9.30273e-17
9.30281e-17
9.3029e-17
9.30296e-17
9.30301e-17
9.30304e-17
9.30305e-17
9.30304e-17
9.303e-17
9.30295e-17
9.30288e-17
9.30278e-17
9.30267e-17
9.30255e-17
9.30266e-17
9.30275e-17
9.30282e-17
9.30289e-17
9.30293e-17
9.30296e-17
9.30297e-17
9.30296e-17
9.30293e-17
9.30288e-17
9.3028e-17
9.30271e-17
9.3026e-17
9.30249e-17
9.30258e-17
9.30265e-17
9.30273e-17
9.30279e-17
9.30284e-17
9.30287e-17
9.30288e-17
9.30287e-17
9.30284e-17
9.30279e-17
9.30271e-17
9.30262e-17
9.30252e-17
9.3024e-17
9.30248e-17
9.30256e-17
9.30262e-17
9.30268e-17
9.30272e-17
9.30275e-17
9.30276e-17
9.30275e-17
9.30272e-17
9.30268e-17
9.30261e-17
9.30252e-17
9.30243e-17
9.30231e-17
9.30235e-17
9.30243e-17
9.3025e-17
9.30255e-17
9.3026e-17
9.30262e-17
9.30264e-17
9.30263e-17
9.3026e-17
9.30256e-17
9.3025e-17
9.30242e-17
9.30232e-17
9.30221e-17
9.2889e-17
9.28903e-17
9.28915e-17
9.28924e-17
9.28931e-17
9.28935e-17
9.28937e-17
9.28935e-17
9.28931e-17
9.28925e-17
9.28917e-17
9.28906e-17
9.28894e-17
9.28881e-17
9.289e-17
9.28914e-17
9.28926e-17
9.28936e-17
9.28944e-17
9.28948e-17
9.2895e-17
9.28949e-17
9.28945e-17
9.28938e-17
9.2893e-17
9.28919e-17
9.28906e-17
9.28893e-17
9.28911e-17
9.28925e-17
9.28937e-17
9.28948e-17
9.28955e-17
9.2896e-17
9.28962e-17
9.28961e-17
9.28957e-17
9.28951e-17
9.28942e-17
9.28931e-17
9.28917e-17
9.28904e-17
9.2892e-17
9.28934e-17
9.28946e-17
9.28956e-17
9.28964e-17
9.28969e-17
9.28971e-17
9.2897e-17
9.28966e-17
9.2896e-17
9.28951e-17
9.2894e-17
9.28926e-17
9.28912e-17
9.28926e-17
9.2894e-17
9.28953e-17
9.28963e-17
9.28971e-17
9.28976e-17
9.28978e-17
9.28977e-17
9.28973e-17
9.28967e-17
9.28958e-17
9.28946e-17
9.28933e-17
9.28918e-17
9.2893e-17
9.28945e-17
9.28957e-17
9.28967e-17
9.28975e-17
9.2898e-17
9.28982e-17
9.28981e-17
9.28977e-17
9.28971e-17
9.28962e-17
9.2895e-17
9.28936e-17
9.28921e-17
9.28932e-17
9.28947e-17
9.28959e-17
9.28969e-17
9.28977e-17
9.28981e-17
9.28984e-17
9.28983e-17
9.28979e-17
9.28972e-17
9.28963e-17
9.28951e-17
9.28937e-17
9.28922e-17
9.28932e-17
9.28945e-17
9.28958e-17
9.28968e-17
9.28975e-17
9.2898e-17
9.28982e-17
9.28981e-17
9.28977e-17
9.28971e-17
9.28961e-17
9.2895e-17
9.28935e-17
9.28919e-17
9.28928e-17
9.28941e-17
9.28954e-17
9.28963e-17
9.28971e-17
9.28975e-17
9.28977e-17
9.28977e-17
9.28973e-17
9.28966e-17
9.28957e-17
9.28945e-17
9.28931e-17
9.28915e-17
9.28922e-17
9.28935e-17
9.28947e-17
9.28956e-17
9.28963e-17
9.28968e-17
9.2897e-17
9.2897e-17
9.28966e-17
9.28959e-17
9.2895e-17
9.28938e-17
9.28924e-17
9.28908e-17
9.28913e-17
9.28925e-17
9.28937e-17
9.28946e-17
9.28953e-17
9.28958e-17
9.2896e-17
9.2896e-17
9.28956e-17
9.2895e-17
9.2894e-17
9.28929e-17
9.28914e-17
9.28899e-17
9.28902e-17
9.28913e-17
9.28925e-17
9.28934e-17
9.28941e-17
9.28946e-17
9.28948e-17
9.28948e-17
9.28944e-17
9.28938e-17
9.28929e-17
9.28917e-17
9.28903e-17
9.28888e-17
9.28888e-17
9.28899e-17
9.2891e-17
9.28919e-17
9.28926e-17
9.28931e-17
9.28933e-17
9.28933e-17
9.28929e-17
9.28924e-17
9.28915e-17
9.28904e-17
9.2889e-17
9.28876e-17
9.28872e-17
9.28883e-17
9.28894e-17
9.28902e-17
9.28909e-17
9.28914e-17
9.28917e-17
9.28917e-17
9.28914e-17
9.28909e-17
9.28901e-17
9.2889e-17
9.28877e-17
9.28863e-17
9.27549e-17
9.27563e-17
9.27575e-17
9.27585e-17
9.27592e-17
9.27596e-17
9.27598e-17
9.27597e-17
9.27594e-17
9.27588e-17
9.2758e-17
9.27569e-17
9.27557e-17
9.27544e-17
9.2756e-17
9.27574e-17
9.27586e-17
9.27597e-17
9.27604e-17
9.27609e-17
9.27611e-17
9.27611e-17
9.27607e-17
9.27601e-17
9.27592e-17
9.27582e-17
9.27569e-17
9.27556e-17
9.27571e-17
9.27585e-17
9.27598e-17
9.27608e-17
9.27616e-17
9.27621e-17
9.27623e-17
9.27622e-17
9.27619e-17
9.27613e-17
9.27604e-17
9.27594e-17
9.27581e-17
9.27567e-17
9.2758e-17
9.27594e-17
9.27607e-17
9.27617e-17
9.27625e-17
9.2763e-17
9.27632e-17
9.27631e-17
9.27628e-17
9.27622e-17
9.27613e-17
9.27603e-17
9.2759e-17
9.27575e-17
9.27587e-17
9.27601e-17
9.27614e-17
9.27624e-17
9.27631e-17
9.27636e-17
9.27639e-17
9.27638e-17
9.27635e-17
9.27629e-17
9.2762e-17
9.27609e-17
9.27596e-17
9.27581e-17
9.27591e-17
9.27605e-17
9.27618e-17
9.27628e-17
9.27635e-17
9.2764e-17
9.27643e-17
9.27642e-17
9.27639e-17
9.27633e-17
9.27624e-17
9.27613e-17
9.276e-17
9.27585e-17
9.27593e-17
9.27607e-17
9.27619e-17
9.27629e-17
9.27637e-17
9.27642e-17
9.27644e-17
9.27643e-17
9.2764e-17
9.27634e-17
9.27625e-17
9.27614e-17
9.27601e-17
9.27585e-17
9.27592e-17
9.27606e-17
9.27618e-17
9.27628e-17
9.27635e-17
9.2764e-17
9.27642e-17
9.27642e-17
9.27638e-17
9.27632e-17
9.27624e-17
9.27613e-17
9.27599e-17
9.27583e-17
9.27588e-17
9.27601e-17
9.27614e-17
9.27623e-17
9.27631e-17
9.27636e-17
9.27638e-17
9.27637e-17
9.27634e-17
9.27628e-17
9.27619e-17
9.27608e-17
9.27594e-17
9.27579e-17
9.27582e-17
9.27595e-17
9.27607e-17
9.27616e-17
9.27624e-17
9.27629e-17
9.27631e-17
9.27631e-17
9.27627e-17
9.27621e-17
9.27612e-17
9.27601e-17
9.27587e-17
9.27572e-17
9.27573e-17
9.27585e-17
9.27597e-17
9.27606e-17
9.27614e-17
9.27619e-17
9.27621e-17
9.27621e-17
9.27618e-17
9.27612e-17
9.27603e-17
9.27592e-17
9.27578e-17
9.27563e-17
9.27561e-17
9.27573e-17
9.27585e-17
9.27594e-17
9.27602e-17
9.27607e-17
9.2761e-17
9.27609e-17
9.27606e-17
9.276e-17
9.27592e-17
9.27581e-17
9.27567e-17
9.27552e-17
9.27547e-17
9.27559e-17
9.2757e-17
9.27579e-17
9.27587e-17
9.27592e-17
9.27595e-17
9.27595e-17
9.27592e-17
9.27586e-17
9.27578e-17
9.27567e-17
9.27554e-17
9.27539e-17
9.27532e-17
9.27543e-17
9.27554e-17
9.27564e-17
9.27571e-17
9.27576e-17
9.27579e-17
9.27579e-17
9.27577e-17
9.27571e-17
9.27564e-17
9.27553e-17
9.2754e-17
9.27526e-17
9.26222e-17
9.26232e-17
9.26242e-17
9.2625e-17
9.26255e-17
9.26259e-17
9.26261e-17
9.2626e-17
9.26258e-17
9.26253e-17
9.26247e-17
9.26239e-17
9.26229e-17
9.26218e-17
9.26231e-17
9.26242e-17
9.26251e-17
9.26259e-17
9.26265e-17
9.26269e-17
9.26271e-17
9.26271e-17
9.26268e-17
9.26263e-17
9.26257e-17
9.26248e-17
9.26238e-17
9.26227e-17
9.2624e-17
9.2625e-17
9.2626e-17
9.26268e-17
9.26274e-17
9.26278e-17
9.2628e-17
9.26279e-17
9.26277e-17
9.26272e-17
9.26266e-17
9.26257e-17
9.26247e-17
9.26236e-17
9.26247e-17
9.26257e-17
9.26267e-17
9.26275e-17
9.26281e-17
9.26284e-17
9.26286e-17
9.26286e-17
9.26283e-17
9.26279e-17
9.26272e-17
9.26264e-17
9.26254e-17
9.26242e-17
9.26252e-17
9.26262e-17
9.26272e-17
9.2628e-17
9.26286e-17
9.26289e-17
9.26291e-17
9.26291e-17
9.26288e-17
9.26284e-17
9.26277e-17
9.26269e-17
9.26259e-17
9.26247e-17
9.26255e-17
9.26266e-17
9.26275e-17
9.26283e-17
9.26288e-17
9.26292e-17
9.26294e-17
9.26294e-17
9.26291e-17
9.26287e-17
9.2628e-17
9.26272e-17
9.26262e-17
9.2625e-17
9.26256e-17
9.26267e-17
9.26276e-17
9.26283e-17
9.26289e-17
9.26293e-17
9.26295e-17
9.26294e-17
9.26292e-17
9.26287e-17
9.26281e-17
9.26273e-17
9.26262e-17
9.2625e-17
9.26254e-17
9.26265e-17
9.26274e-17
9.26282e-17
9.26288e-17
9.26291e-17
9.26293e-17
9.26293e-17
9.2629e-17
9.26286e-17
9.26279e-17
9.26271e-17
9.26261e-17
9.26249e-17
9.26251e-17
9.26262e-17
9.26271e-17
9.26278e-17
9.26284e-17
9.26288e-17
9.2629e-17
9.26289e-17
9.26287e-17
9.26282e-17
9.26276e-17
9.26268e-17
9.26257e-17
9.26245e-17
9.26246e-17
9.26256e-17
9.26266e-17
9.26273e-17
9.26279e-17
9.26282e-17
9.26284e-17
9.26284e-17
9.26282e-17
9.26277e-17
9.26271e-17
9.26262e-17
9.26252e-17
9.2624e-17
9.26239e-17
9.26248e-17
9.26258e-17
9.26265e-17
9.26271e-17
9.26275e-17
9.26277e-17
9.26277e-17
9.26274e-17
9.2627e-17
9.26263e-17
9.26255e-17
9.26244e-17
9.26233e-17
9.26229e-17
9.26239e-17
9.26248e-17
9.26256e-17
9.26262e-17
9.26266e-17
9.26268e-17
9.26267e-17
9.26265e-17
9.26261e-17
9.26254e-17
9.26246e-17
9.26235e-17
9.26224e-17
9.26218e-17
9.26228e-17
9.26237e-17
9.26244e-17
9.2625e-17
9.26255e-17
9.26257e-17
9.26257e-17
9.26254e-17
9.2625e-17
9.26243e-17
9.26235e-17
9.26224e-17
9.26213e-17
9.26206e-17
9.26215e-17
9.26225e-17
9.26232e-17
9.26238e-17
9.26242e-17
9.26244e-17
9.26244e-17
9.26242e-17
9.26238e-17
9.26232e-17
9.26223e-17
9.26213e-17
9.26202e-17
9.24915e-17
9.24922e-17
9.24926e-17
9.24931e-17
9.24934e-17
9.24936e-17
9.24936e-17
9.24936e-17
9.24935e-17
9.24933e-17
9.24929e-17
9.24925e-17
9.24919e-17
9.24911e-17
9.24922e-17
9.24927e-17
9.24932e-17
9.24936e-17
9.24939e-17
9.24941e-17
9.24942e-17
9.24942e-17
9.24941e-17
9.24938e-17
9.24934e-17
9.24929e-17
9.24923e-17
9.24917e-17
9.24927e-17
9.24932e-17
9.24937e-17
9.24941e-17
9.24944e-17
9.24946e-17
9.24947e-17
9.24946e-17
9.24945e-17
9.24943e-17
9.24939e-17
9.24934e-17
9.24928e-17
9.24921e-17
9.2493e-17
9.24935e-17
9.2494e-17
9.24944e-17
9.24947e-17
9.24949e-17
9.2495e-17
9.2495e-17
9.24948e-17
9.24946e-17
9.24942e-17
9.24937e-17
9.24931e-17
9.24925e-17
9.24932e-17
9.24938e-17
9.24943e-17
9.24947e-17
9.2495e-17
9.24952e-17
9.24952e-17
9.24952e-17
9.24951e-17
9.24948e-17
9.24944e-17
9.2494e-17
9.24934e-17
9.24927e-17
9.24933e-17
9.24939e-17
9.24944e-17
9.24948e-17
9.24951e-17
9.24953e-17
9.24953e-17
9.24953e-17
9.24952e-17
9.24949e-17
9.24946e-17
9.24941e-17
9.24935e-17
9.24929e-17
9.24933e-17
9.24939e-17
9.24944e-17
9.24948e-17
9.24951e-17
9.24953e-17
9.24954e-17
9.24953e-17
9.24952e-17
9.24949e-17
9.24946e-17
9.24941e-17
9.24936e-17
9.24929e-17
9.24932e-17
9.24938e-17
9.24943e-17
9.24947e-17
9.2495e-17
9.24952e-17
9.24952e-17
9.24952e-17
9.24951e-17
9.24948e-17
9.24945e-17
9.2494e-17
9.24935e-17
9.24928e-17
9.2493e-17
9.24936e-17
9.24941e-17
9.24945e-17
9.24948e-17
9.2495e-17
9.2495e-17
9.2495e-17
9.24949e-17
9.24946e-17
9.24943e-17
9.24938e-17
9.24933e-17
9.24926e-17
9.24926e-17
9.24932e-17
9.24937e-17
9.24941e-17
9.24944e-17
9.24946e-17
9.24947e-17
9.24947e-17
9.24945e-17
9.24943e-17
9.2494e-17
9.24935e-17
9.2493e-17
9.24923e-17
9.24922e-17
9.24928e-17
9.24933e-17
9.24937e-17
9.2494e-17
9.24942e-17
9.24943e-17
9.24943e-17
9.24941e-17
9.24939e-17
9.24935e-17
9.24931e-17
9.24925e-17
9.24919e-17
9.24917e-17
9.24922e-17
9.24928e-17
9.24932e-17
9.24935e-17
9.24937e-17
9.24938e-17
9.24937e-17
9.24936e-17
9.24934e-17
9.2493e-17
9.24926e-17
9.2492e-17
9.24914e-17
9.24911e-17
9.24916e-17
9.24922e-17
9.24926e-17
9.24929e-17
9.24931e-17
9.24932e-17
9.24931e-17
9.2493e-17
9.24927e-17
9.24924e-17
9.24919e-17
9.24913e-17
9.24908e-17
9.24903e-17
9.2491e-17
9.24915e-17
9.24919e-17
9.24922e-17
9.24924e-17
9.24925e-17
9.24924e-17
9.24923e-17
9.2492e-17
9.24917e-17
9.24912e-17
9.24907e-17
9.249e-17
9.23652e-17
9.23652e-17
9.23652e-17
9.23652e-17
9.23652e-17
9.23652e-17
9.23652e-17
9.23652e-17
9.23653e-17
9.23652e-17
9.23652e-17
9.23652e-17
9.23651e-17
9.23649e-17
9.23653e-17
9.23653e-17
9.23653e-17
9.23653e-17
9.23653e-17
9.23653e-17
9.23653e-17
9.23653e-17
9.23653e-17
9.23653e-17
9.23652e-17
9.23651e-17
9.2365e-17
9.23649e-17
9.23654e-17
9.23654e-17
9.23654e-17
9.23654e-17
9.23654e-17
9.23653e-17
9.23653e-17
9.23653e-17
9.23653e-17
9.23653e-17
9.23652e-17
9.23651e-17
9.2365e-17
9.23649e-17
9.23654e-17
9.23654e-17
9.23654e-17
9.23654e-17
9.23654e-17
9.23654e-17
9.23653e-17
9.23653e-17
9.23653e-17
9.23652e-17
9.23652e-17
9.23651e-17
9.2365e-17
9.23648e-17
9.23653e-17
9.23654e-17
9.23654e-17
9.23654e-17
9.23654e-17
9.23653e-17
9.23653e-17
9.23653e-17
9.23653e-17
9.23652e-17
9.23652e-17
9.23651e-17
9.2365e-17
9.23648e-17
9.23652e-17
9.23653e-17
9.23653e-17
9.23653e-17
9.23653e-17
9.23653e-17
9.23653e-17
9.23653e-17
9.23652e-17
9.23652e-17
9.23652e-17
9.23651e-17
9.2365e-17
9.23648e-17
9.23651e-17
9.23652e-17
9.23653e-17
9.23653e-17
9.23653e-17
9.23653e-17
9.23652e-17
9.23652e-17
9.23652e-17
9.23652e-17
9.23651e-17
9.23651e-17
9.2365e-17
9.23649e-17
9.2365e-17
9.23652e-17
9.23652e-17
9.23652e-17
9.23652e-17
9.23652e-17
9.23652e-17
9.23652e-17
9.23652e-17
9.23651e-17
9.23651e-17
9.2365e-17
9.2365e-17
9.23649e-17
9.23649e-17
9.23651e-17
9.23651e-17
9.23652e-17
9.23652e-17
9.23652e-17
9.23651e-17
9.23651e-17
9.23651e-17
9.23651e-17
9.2365e-17
9.2365e-17
9.23649e-17
9.23648e-17
9.23649e-17
9.2365e-17
9.23651e-17
9.23651e-17
9.23651e-17
9.23651e-17
9.23651e-17
9.23651e-17
9.2365e-17
9.2365e-17
9.2365e-17
9.23649e-17
9.23649e-17
9.23648e-17
9.23648e-17
9.23649e-17
9.2365e-17
9.2365e-17
9.23651e-17
9.2365e-17
9.2365e-17
9.2365e-17
9.2365e-17
9.23649e-17
9.23649e-17
9.23648e-17
9.23648e-17
9.23648e-17
9.23647e-17
9.23648e-17
9.23649e-17
9.2365e-17
9.2365e-17
9.2365e-17
9.2365e-17
9.23649e-17
9.23649e-17
9.23648e-17
9.23648e-17
9.23647e-17
9.23647e-17
9.23647e-17
9.23647e-17
9.23647e-17
9.23649e-17
9.23649e-17
9.23649e-17
9.23649e-17
9.23649e-17
9.23648e-17
9.23648e-17
9.23647e-17
9.23647e-17
9.23646e-17
9.23645e-17
9.23646e-17
9.23646e-17
9.23648e-17
9.23648e-17
9.23649e-17
9.23649e-17
9.23648e-17
9.23648e-17
9.23647e-17
9.23646e-17
9.23645e-17
9.23645e-17
9.23644e-17
9.23644e-17
9.23644e-17
9.22456e-17
9.22451e-17
9.22447e-17
9.22444e-17
9.22442e-17
9.2244e-17
9.2244e-17
9.2244e-17
9.22441e-17
9.22443e-17
9.22445e-17
9.22448e-17
9.22451e-17
9.22455e-17
9.22452e-17
9.22448e-17
9.22444e-17
9.22441e-17
9.22439e-17
9.22438e-17
9.22437e-17
9.22437e-17
9.22438e-17
9.22439e-17
9.22441e-17
9.22444e-17
9.22447e-17
9.2245e-17
9.22449e-17
9.22445e-17
9.22441e-17
9.22438e-17
9.22436e-17
9.22435e-17
9.22434e-17
9.22434e-17
9.22435e-17
9.22436e-17
9.22438e-17
9.2244e-17
9.22443e-17
9.22446e-17
9.22446e-17
9.22443e-17
9.22439e-17
9.22436e-17
9.22434e-17
9.22432e-17
9.22431e-17
9.22431e-17
9.22432e-17
9.22434e-17
9.22435e-17
9.22438e-17
9.22441e-17
9.22444e-17
9.22444e-17
9.22441e-17
9.22437e-17
9.22434e-17
9.22432e-17
9.22431e-17
9.2243e-17
9.2243e-17
9.2243e-17
9.22432e-17
9.22434e-17
9.22436e-17
9.22439e-17
9.22442e-17
9.22442e-17
9.22439e-17
9.22436e-17
9.22433e-17
9.22431e-17
9.22429e-17
9.22428e-17
9.22428e-17
9.22429e-17
9.2243e-17
9.22432e-17
9.22435e-17
9.22438e-17
9.22441e-17
9.22441e-17
9.22438e-17
9.22435e-17
9.22432e-17
9.2243e-17
9.22429e-17
9.22428e-17
9.22428e-17
9.22429e-17
9.2243e-17
9.22432e-17
9.22435e-17
9.22438e-17
9.22441e-17
9.22441e-17
9.22438e-17
9.22435e-17
9.22432e-17
9.2243e-17
9.22429e-17
9.22428e-17
9.22428e-17
9.22429e-17
9.2243e-17
9.22432e-17
9.22435e-17
9.22438e-17
9.22442e-17
9.22442e-17
9.22439e-17
9.22436e-17
9.22433e-17
9.22431e-17
9.2243e-17
9.22429e-17
9.22429e-17
9.2243e-17
9.22431e-17
9.22433e-17
9.22436e-17
9.2244e-17
9.22443e-17
9.22443e-17
9.2244e-17
9.22437e-17
9.22435e-17
9.22433e-17
9.22432e-17
9.22431e-17
9.22431e-17
9.22432e-17
9.22433e-17
9.22435e-17
9.22438e-17
9.22441e-17
9.22445e-17
9.22445e-17
9.22443e-17
9.2244e-17
9.22437e-17
9.22435e-17
9.22434e-17
9.22433e-17
9.22433e-17
9.22434e-17
9.22435e-17
9.22437e-17
9.2244e-17
9.22443e-17
9.22447e-17
9.22448e-17
9.22446e-17
9.22443e-17
9.2244e-17
9.22438e-17
9.22437e-17
9.22436e-17
9.22436e-17
9.22436e-17
9.22438e-17
9.2244e-17
9.22442e-17
9.22446e-17
9.2245e-17
9.22452e-17
9.22449e-17
9.22447e-17
9.22444e-17
9.22442e-17
9.22441e-17
9.22439e-17
9.22439e-17
9.2244e-17
9.22441e-17
9.22443e-17
9.22445e-17
9.22449e-17
9.22453e-17
9.22458e-17
9.22454e-17
9.22451e-17
9.22448e-17
9.22446e-17
9.22444e-17
9.22443e-17
9.22442e-17
9.22443e-17
9.22444e-17
9.22445e-17
9.22448e-17
9.22452e-17
9.22457e-17
9.21346e-17
9.21339e-17
9.21334e-17
9.2133e-17
9.21327e-17
9.21325e-17
9.21324e-17
9.21324e-17
9.21326e-17
9.21328e-17
9.21332e-17
9.21336e-17
9.21342e-17
9.21349e-17
9.2134e-17
9.21334e-17
9.21329e-17
9.21325e-17
9.21322e-17
9.2132e-17
9.21319e-17
9.2132e-17
9.21321e-17
9.21324e-17
9.21327e-17
9.21331e-17
9.21336e-17
9.21342e-17
9.21335e-17
9.2133e-17
9.21325e-17
9.21321e-17
9.21318e-17
9.21316e-17
9.21315e-17
9.21316e-17
9.21317e-17
9.21319e-17
9.21323e-17
9.21327e-17
9.21332e-17
9.21337e-17
9.21332e-17
9.21327e-17
9.21322e-17
9.21318e-17
9.21315e-17
9.21313e-17
9.21312e-17
9.21312e-17
9.21314e-17
9.21316e-17
9.21319e-17
9.21323e-17
9.21329e-17
9.21334e-17
9.21329e-17
9.21324e-17
9.21319e-17
9.21316e-17
9.21313e-17
9.21311e-17
9.2131e-17
9.2131e-17
9.21312e-17
9.21314e-17
9.21317e-17
9.21321e-17
9.21326e-17
9.21332e-17
9.21328e-17
9.21323e-17
9.21318e-17
9.21314e-17
9.21311e-17
9.2131e-17
9.21309e-17
9.21309e-17
9.2131e-17
9.21312e-17
9.21316e-17
9.2132e-17
9.21325e-17
9.2133e-17
9.21327e-17
9.21322e-17
9.21317e-17
9.21314e-17
9.21311e-17
9.21309e-17
9.21308e-17
9.21309e-17
9.2131e-17
9.21312e-17
9.21316e-17
9.2132e-17
9.21325e-17
9.2133e-17
9.21328e-17
9.21323e-17
9.21318e-17
9.21315e-17
9.21312e-17
9.2131e-17
9.21309e-17
9.2131e-17
9.21311e-17
9.21313e-17
9.21317e-17
9.21321e-17
9.21326e-17
9.21331e-17
9.2133e-17
9.21325e-17
9.2132e-17
9.21317e-17
9.21314e-17
9.21312e-17
9.21311e-17
9.21312e-17
9.21313e-17
9.21315e-17
9.21318e-17
9.21323e-17
9.21328e-17
9.21333e-17
9.21332e-17
9.21328e-17
9.21323e-17
9.2132e-17
9.21317e-17
9.21315e-17
9.21314e-17
9.21314e-17
9.21316e-17
9.21318e-17
9.21321e-17
9.21325e-17
9.21331e-17
9.21336e-17
9.21336e-17
9.21332e-17
9.21327e-17
9.21323e-17
9.21321e-17
9.21319e-17
9.21318e-17
9.21318e-17
9.2132e-17
9.21322e-17
9.21325e-17
9.21329e-17
9.21335e-17
9.2134e-17
9.21341e-17
9.21337e-17
9.21332e-17
9.21328e-17
9.21325e-17
9.21324e-17
9.21323e-17
9.21323e-17
9.21324e-17
9.21326e-17
9.21329e-17
9.21334e-17
9.21339e-17
9.21345e-17
9.21347e-17
9.21342e-17
9.21338e-17
9.21334e-17
9.21331e-17
9.21329e-17
9.21328e-17
9.21328e-17
9.2133e-17
9.21332e-17
9.21335e-17
9.21339e-17
9.21344e-17
9.21351e-17
9.21355e-17
9.21349e-17
9.21344e-17
9.2134e-17
9.21337e-17
9.21335e-17
9.21334e-17
9.21334e-17
9.21335e-17
9.21337e-17
9.2134e-17
9.21345e-17
9.2135e-17
9.21357e-17
9.2033e-17
9.20325e-17
9.20321e-17
9.20318e-17
9.20316e-17
9.20315e-17
9.20314e-17
9.20314e-17
9.20316e-17
9.20318e-17
9.20321e-17
9.20325e-17
9.2033e-17
9.20336e-17
9.20326e-17
9.20322e-17
9.20318e-17
9.20315e-17
9.20312e-17
9.20311e-17
9.2031e-17
9.20311e-17
9.20312e-17
9.20314e-17
9.20318e-17
9.20322e-17
9.20326e-17
9.20332e-17
9.20322e-17
9.20318e-17
9.20314e-17
9.20311e-17
9.20309e-17
9.20307e-17
9.20307e-17
9.20307e-17
9.20309e-17
9.20311e-17
9.20314e-17
9.20318e-17
9.20323e-17
9.20329e-17
9.2032e-17
9.20316e-17
9.20311e-17
9.20309e-17
9.20306e-17
9.20305e-17
9.20304e-17
9.20305e-17
9.20306e-17
9.20309e-17
9.20312e-17
9.20316e-17
9.20321e-17
9.20326e-17
9.20318e-17
9.20314e-17
9.2031e-17
9.20307e-17
9.20305e-17
9.20303e-17
9.20303e-17
9.20303e-17
9.20305e-17
9.20307e-17
9.2031e-17
9.20314e-17
9.20319e-17
9.20325e-17
9.20318e-17
9.20313e-17
9.20309e-17
9.20306e-17
9.20304e-17
9.20303e-17
9.20302e-17
9.20303e-17
9.20304e-17
9.20306e-17
9.2031e-17
9.20314e-17
9.20319e-17
9.20324e-17
9.20318e-17
9.20314e-17
9.2031e-17
9.20307e-17
9.20304e-17
9.20303e-17
9.20303e-17
9.20303e-17
9.20305e-17
9.20307e-17
9.2031e-17
9.20314e-17
9.20319e-17
9.20324e-17
9.20319e-17
9.20315e-17
9.20311e-17
9.20308e-17
9.20306e-17
9.20304e-17
9.20304e-17
9.20304e-17
9.20306e-17
9.20308e-17
9.20311e-17
9.20315e-17
9.2032e-17
9.20326e-17
9.20321e-17
9.20317e-17
9.20313e-17
9.2031e-17
9.20308e-17
9.20306e-17
9.20306e-17
9.20307e-17
9.20308e-17
9.2031e-17
9.20313e-17
9.20317e-17
9.20322e-17
9.20327e-17
9.20324e-17
9.2032e-17
9.20316e-17
9.20313e-17
9.20311e-17
9.20309e-17
9.20309e-17
9.2031e-17
9.20311e-17
9.20313e-17
9.20316e-17
9.2032e-17
9.20325e-17
9.2033e-17
9.20328e-17
9.20324e-17
9.2032e-17
9.20317e-17
9.20315e-17
9.20313e-17
9.20313e-17
9.20313e-17
9.20315e-17
9.20317e-17
9.2032e-17
9.20324e-17
9.20329e-17
9.20334e-17
9.20333e-17
9.20329e-17
9.20325e-17
9.20322e-17
9.20319e-17
9.20318e-17
9.20318e-17
9.20318e-17
9.20319e-17
9.20322e-17
9.20325e-17
9.20329e-17
9.20334e-17
9.20338e-17
9.20338e-17
9.20334e-17
9.2033e-17
9.20327e-17
9.20325e-17
9.20324e-17
9.20323e-17
9.20324e-17
9.20325e-17
9.20327e-17
9.2033e-17
9.20334e-17
9.20339e-17
9.20344e-17
9.20345e-17
9.2034e-17
9.20336e-17
9.20333e-17
9.20331e-17
9.2033e-17
9.20329e-17
9.2033e-17
9.20331e-17
9.20333e-17
9.20336e-17
9.2034e-17
9.20345e-17
9.20351e-17
9.19403e-17
9.19402e-17
9.19401e-17
9.194e-17
9.19399e-17
9.19399e-17
9.19399e-17
9.19399e-17
9.194e-17
9.19401e-17
9.19403e-17
9.19405e-17
9.19408e-17
9.19411e-17
9.19402e-17
9.19401e-17
9.19399e-17
9.19398e-17
9.19397e-17
9.19397e-17
9.19397e-17
9.19398e-17
9.19399e-17
9.194e-17
9.19402e-17
9.19405e-17
9.19408e-17
9.19411e-17
9.19401e-17
9.194e-17
9.19398e-17
9.19397e-17
9.19396e-17
9.19396e-17
9.19396e-17
9.19397e-17
9.19398e-17
9.19399e-17
9.19401e-17
9.19404e-17
9.19407e-17
9.1941e-17
9.19401e-17
9.19399e-17
9.19397e-17
9.19397e-17
9.19396e-17
9.19395e-17
9.19396e-17
9.19396e-17
9.19397e-17
9.19399e-17
9.19401e-17
9.19403e-17
9.19407e-17
9.1941e-17
9.19401e-17
9.19399e-17
9.19397e-17
9.19396e-17
9.19396e-17
9.19395e-17
9.19396e-17
9.19396e-17
9.19397e-17
9.19399e-17
9.19401e-17
9.19403e-17
9.19407e-17
9.1941e-17
9.19402e-17
9.194e-17
9.19398e-17
9.19397e-17
9.19396e-17
9.19396e-17
9.19396e-17
9.19397e-17
9.19398e-17
9.19399e-17
9.19401e-17
9.19404e-17
9.19407e-17
9.19411e-17
9.19403e-17
9.19401e-17
9.19399e-17
9.19398e-17
9.19397e-17
9.19397e-17
9.19397e-17
9.19398e-17
9.19399e-17
9.194e-17
9.19402e-17
9.19405e-17
9.19408e-17
9.19411e-17
9.19405e-17
9.19402e-17
9.19401e-17
9.19399e-17
9.19398e-17
9.19398e-17
9.19398e-17
9.19399e-17
9.194e-17
9.19402e-17
9.19404e-17
9.19406e-17
9.19409e-17
9.19413e-17
9.19406e-17
9.19404e-17
9.19402e-17
9.19401e-17
9.194e-17
9.194e-17
9.194e-17
9.19401e-17
9.19402e-17
9.19404e-17
9.19406e-17
9.19408e-17
9.19411e-17
9.19414e-17
9.19409e-17
9.19407e-17
9.19405e-17
9.19404e-17
9.19403e-17
9.19402e-17
9.19403e-17
9.19403e-17
9.19404e-17
9.19406e-17
9.19408e-17
9.1941e-17
9.19413e-17
9.19416e-17
9.19411e-17
9.1941e-17
9.19408e-17
9.19406e-17
9.19406e-17
9.19405e-17
9.19405e-17
9.19406e-17
9.19407e-17
9.19409e-17
9.19411e-17
9.19413e-17
9.19416e-17
9.19418e-17
9.19414e-17
9.19413e-17
9.19411e-17
9.19409e-17
9.19409e-17
9.19408e-17
9.19409e-17
9.19409e-17
9.1941e-17
9.19412e-17
9.19414e-17
9.19416e-17
9.19419e-17
9.19421e-17
9.19418e-17
9.19416e-17
9.19414e-17
9.19413e-17
9.19412e-17
9.19412e-17
9.19412e-17
9.19413e-17
9.19414e-17
9.19416e-17
9.19418e-17
9.1942e-17
9.19423e-17
9.19425e-17
9.19421e-17
9.19419e-17
9.19418e-17
9.19417e-17
9.19416e-17
9.19416e-17
9.19416e-17
9.19417e-17
9.19418e-17
9.1942e-17
9.19422e-17
9.19424e-17
9.19426e-17
9.19429e-17
9.18544e-17
9.18547e-17
9.18548e-17
9.1855e-17
9.18551e-17
9.18552e-17
9.18552e-17
9.18553e-17
9.18553e-17
9.18553e-17
9.18553e-17
9.18553e-17
9.18553e-17
9.18553e-17
9.18547e-17
9.18549e-17
9.1855e-17
9.18552e-17
9.18553e-17
9.18553e-17
9.18554e-17
9.18555e-17
9.18555e-17
9.18556e-17
9.18556e-17
9.18556e-17
9.18556e-17
9.18556e-17
9.18549e-17
9.18551e-17
9.18552e-17
9.18553e-17
9.18554e-17
9.18555e-17
9.18556e-17
9.18557e-17
9.18557e-17
9.18558e-17
9.18558e-17
9.18558e-17
9.18558e-17
9.18559e-17
9.18551e-17
9.18553e-17
9.18554e-17
9.18555e-17
9.18556e-17
9.18557e-17
9.18558e-17
9.18559e-17
9.18559e-17
9.1856e-17
9.1856e-17
9.1856e-17
9.18561e-17
9.18561e-17
9.18553e-17
9.18554e-17
9.18556e-17
9.18557e-17
9.18558e-17
9.18559e-17
9.1856e-17
9.1856e-17
9.18561e-17
9.18562e-17
9.18562e-17
9.18562e-17
9.18563e-17
9.18563e-17
9.18555e-17
9.18556e-17
9.18557e-17
9.18559e-17
9.1856e-17
9.18561e-17
9.18561e-17
9.18562e-17
9.18563e-17
9.18563e-17
9.18564e-17
9.18564e-17
9.18564e-17
9.18565e-17
9.18557e-17
9.18558e-17
9.18559e-17
9.1856e-17
9.18561e-17
9.18562e-17
9.18563e-17
9.18564e-17
9.18564e-17
9.18565e-17
9.18565e-17
9.18566e-17
9.18566e-17
9.18566e-17
9.18559e-17
9.1856e-17
9.18561e-17
9.18562e-17
9.18563e-17
9.18564e-17
9.18564e-17
9.18565e-17
9.18566e-17
9.18566e-17
9.18567e-17
9.18567e-17
9.18567e-17
9.18567e-17
9.1856e-17
9.18561e-17
9.18562e-17
9.18563e-17
9.18564e-17
9.18565e-17
9.18566e-17
9.18567e-17
9.18567e-17
9.18568e-17
9.18568e-17
9.18568e-17
9.18568e-17
9.18569e-17
9.18561e-17
9.18563e-17
9.18563e-17
9.18564e-17
9.18565e-17
9.18566e-17
9.18567e-17
9.18568e-17
9.18569e-17
9.18569e-17
9.18569e-17
9.18569e-17
9.1857e-17
9.18569e-17
9.18562e-17
9.18564e-17
9.18565e-17
9.18566e-17
9.18567e-17
9.18567e-17
9.18568e-17
9.18569e-17
9.1857e-17
9.1857e-17
9.1857e-17
9.18571e-17
9.18571e-17
9.1857e-17
9.18563e-17
9.18565e-17
9.18565e-17
9.18566e-17
9.18567e-17
9.18568e-17
9.18569e-17
9.1857e-17
9.18571e-17
9.18571e-17
9.18571e-17
9.18571e-17
9.18572e-17
9.18571e-17
9.18563e-17
9.18565e-17
9.18566e-17
9.18567e-17
9.18568e-17
9.18569e-17
9.1857e-17
9.18571e-17
9.18572e-17
9.18572e-17
9.18573e-17
9.18573e-17
9.18573e-17
9.18572e-17
9.18563e-17
9.18565e-17
9.18566e-17
9.18568e-17
9.18569e-17
9.1857e-17
9.18571e-17
9.18572e-17
9.18573e-17
9.18573e-17
9.18573e-17
9.18573e-17
9.18573e-17
9.18572e-17
9.17729e-17
9.17733e-17
9.17737e-17
9.17741e-17
9.17743e-17
9.17745e-17
9.17746e-17
9.17747e-17
9.17747e-17
9.17746e-17
9.17745e-17
9.17743e-17
9.1774e-17
9.17738e-17
9.17734e-17
9.17738e-17
9.17742e-17
9.17745e-17
9.17748e-17
9.1775e-17
9.17751e-17
9.17752e-17
9.17752e-17
9.17751e-17
9.1775e-17
9.17748e-17
9.17746e-17
9.17743e-17
9.17739e-17
9.17743e-17
9.17746e-17
9.1775e-17
9.17752e-17
9.17754e-17
9.17756e-17
9.17757e-17
9.17757e-17
9.17756e-17
9.17755e-17
9.17753e-17
9.1775e-17
9.17748e-17
9.17743e-17
9.17747e-17
9.1775e-17
9.17754e-17
9.17756e-17
9.17758e-17
9.1776e-17
9.1776e-17
9.1776e-17
9.1776e-17
9.17759e-17
9.17757e-17
9.17754e-17
9.17752e-17
9.17746e-17
9.1775e-17
9.17754e-17
9.17757e-17
9.1776e-17
9.17762e-17
9.17763e-17
9.17764e-17
9.17764e-17
9.17763e-17
9.17762e-17