/*--------------------------------*- C++ -*----------------------------------*\
| =========                 |                                                 |
| \\      /  F ield         | OpenFOAM: The Open Source CFD Toolbox           |
|  \\    /   O peration     | Version:  v2106                                 |
|   \\  /    A nd           | Website:  www.openfoam.com                      |
|    \\/     M anipulation  |                                                 |
\*---------------------------------------------------------------------------*/
FoamFile
{
    version     2.0;
    format      ascii;
    arch        "LSB;label=32;scalar=64";
    class       volScalarField;
    location    "0.000136";
    object      alphat;
}
// * * * * * * * * * * * * * * * * * * * * * * * * * * * * * * * * * * * * * //

dimensions      [1 -1 -1 0 0 0 0];

internalField   nonuniform List<scalar> 
18109
(
1.65368e-07
1.11506e-07
8.30043e-08
5.13247e-08
3.63759e-08
2.99457e-08
2.68052e-08
5.06399e-08
2.03171e-08
9.80464e-09
4.28143e-09
2.97802e-09
2.83403e-09
3.02399e-09
5.79982e-08
1.94003e-08
6.39173e-09
2.00093e-09
6.22239e-10
2.84184e-10
2.6501e-10
1.1647e-07
4.28945e-08
1.42367e-08
4.08767e-09
9.98494e-10
2.08424e-10
4.67999e-11
1.82582e-07
6.6197e-08
2.09934e-08
5.755e-09
1.33816e-09
2.58724e-10
4.07975e-11
2.39637e-07
8.22356e-08
2.4672e-08
6.39456e-09
1.40833e-09
2.57713e-10
3.80135e-11
3.06503e-07
9.74809e-08
2.70732e-08
6.48643e-09
1.32288e-09
2.24512e-10
3.1136e-11
3.93067e-07
1.15992e-07
2.98555e-08
6.61916e-09
1.24839e-09
1.98387e-10
2.93668e-11
2.41471e-08
1.38237e-08
9.23771e-09
5.62611e-09
4.87547e-09
4.68161e-09
4.60368e-09
4.43233e-09
4.07859e-09
3.37656e-09
2.2239e-09
1.10722e-09
4.60772e-10
6.64457e-10
1.23546e-08
3.66385e-09
1.16427e-09
4.6184e-10
3.39085e-10
3.62579e-10
4.254e-10
4.85071e-10
5.153e-10
4.86923e-10
3.56854e-10
1.85184e-10
9.52911e-11
5.63613e-10
1.92733e-08
5.89366e-09
1.7399e-09
4.64182e-10
1.14448e-10
3.81013e-11
3.20619e-11
4.08182e-11
5.0073e-11
5.3805e-11
4.37807e-11
2.46197e-11
4.66659e-11
6.59588e-10
3.83043e-08
1.25016e-08
3.57944e-09
8.8823e-10
1.87469e-10
3.35681e-11
6.1321e-12
3.05457e-12
3.74287e-12
4.5976e-12
4.22864e-12
3.24923e-12
3.47716e-11
6.26388e-10
5.61239e-08
1.78916e-08
4.95779e-09
1.18099e-09
2.38002e-10
3.99156e-11
5.47067e-12
6.88153e-13
2.45702e-13
2.95244e-13
3.0668e-13
7.14643e-13
2.37822e-11
4.77846e-10
7.25911e-08
2.18091e-08
5.68604e-09
1.27467e-09
2.42081e-10
3.82611e-11
4.91296e-12
5.00724e-13
4.74801e-14
1.73807e-14
1.79182e-14
1.81593e-13
1.31904e-11
3.05627e-10
9.16238e-08
2.53953e-08
6.11824e-09
1.26828e-09
2.23244e-10
3.28001e-11
3.97146e-12
4.16671e-13
5.87194e-14
1.97393e-14
9.44686e-15
7.1754e-14
6.00069e-12
1.67782e-10
1.15883e-07
2.96612e-08
6.60974e-09
1.26908e-09
2.07143e-10
2.86028e-11
3.71098e-12
7.94922e-13
3.96931e-13
2.30285e-13
1.21674e-13
9.38011e-14
3.36992e-12
9.50753e-11
1.44366e-07
3.42729e-08
7.06133e-09
1.25399e-09
1.91983e-10
2.87954e-11
7.95393e-12
5.07773e-12
3.74622e-12
2.4581e-12
1.43504e-12
8.00478e-13
2.33733e-12
5.36697e-11
1.76928e-07
3.98099e-08
7.72761e-09
1.29239e-09
2.0597e-10
5.89357e-11
4.34502e-11
3.83693e-11
3.09891e-11
2.20767e-11
1.4106e-11
8.49856e-12
5.95898e-12
3.03054e-11
2.0368e-07
4.3722e-08
8.13269e-09
1.37082e-09
3.40305e-10
2.53231e-10
2.63175e-10
2.53499e-10
2.17741e-10
1.67176e-10
1.16089e-10
7.64658e-11
4.82165e-11
4.17028e-11
2.18393e-07
4.53797e-08
8.44359e-09
1.79641e-09
1.06309e-09
1.23395e-09
1.40821e-09
1.43705e-09
1.30925e-09
1.07914e-09
8.09416e-10
5.77152e-10
3.8202e-10
2.54878e-10
2.13637e-07
4.39846e-08
9.16323e-09
3.73065e-09
4.17959e-09
5.46039e-09
6.533e-09
7.01573e-09
6.77164e-09
5.98132e-09
4.82335e-09
3.68103e-09
2.56229e-09
1.71678e-09
2.18164e-07
4.94786e-08
1.46109e-08
1.16692e-08
1.58966e-08
2.13991e-08
2.64539e-08
2.97085e-08
3.03767e-08
2.88054e-08
2.49852e-08
2.01541e-08
1.46635e-08
1.00588e-08
8.53383e-07
2.74495e-06
6.88488e-06
1.39595e-05
2.38041e-05
3.49651e-05
1.47164e-07
6.24909e-07
2.04114e-06
5.15676e-06
1.07329e-05
1.87482e-05
1.44167e-07
7.34274e-07
2.65003e-06
7.05564e-06
1.47295e-05
2.50502e-05
1.27866e-07
7.48334e-07
2.86903e-06
7.85108e-06
1.63929e-05
2.75627e-05
9.36037e-08
6.54905e-07
2.69376e-06
7.59734e-06
1.60475e-05
2.71289e-05
6.43311e-08
4.73883e-07
2.16033e-06
6.47962e-06
1.42406e-05
2.46996e-05
5.07059e-08
3.54389e-07
1.62657e-06
5.05785e-06
1.15514e-05
2.07318e-05
4.18111e-08
2.68226e-07
1.20504e-06
3.79928e-06
8.89162e-06
1.63737e-05
3.39848e-08
1.97478e-07
8.50921e-07
2.67803e-06
6.37932e-06
1.19951e-05
2.64241e-08
1.37519e-07
5.59737e-07
1.73108e-06
4.12756e-06
7.88876e-06
1.78301e-08
8.20165e-08
3.15089e-07
9.65473e-07
2.3547e-06
4.66889e-06
9.88848e-09
4.11677e-08
1.5302e-07
4.70202e-07
1.17964e-06
2.41212e-06
4.29777e-09
1.68683e-08
6.29137e-08
1.98577e-07
5.26195e-07
1.12032e-06
1.53103e-09
6.37357e-09
2.64945e-08
9.14576e-08
2.71911e-07
6.69952e-07
9.75244e-10
5.0319e-09
2.55453e-08
1.11726e-07
4.09119e-07
1.23909e-06
4.6809e-09
2.26327e-08
1.00115e-07
3.83059e-07
1.22586e-06
3.26493e-06
5.87121e-09
3.68876e-08
1.87528e-07
7.69499e-07
2.50403e-06
6.42647e-06
7.56048e-09
5.54448e-08
3.06468e-07
1.2817e-06
4.04675e-06
9.79176e-06
7.7555e-09
6.44142e-08
3.78507e-07
1.60238e-06
4.9633e-06
1.16131e-05
6.24717e-09
5.76705e-08
3.62145e-07
1.58882e-06
4.97092e-06
1.15943e-05
4.19227e-09
4.23703e-08
2.85751e-07
1.31565e-06
4.25885e-06
1.0204e-05
2.47729e-09
2.63967e-08
1.90781e-07
9.61087e-07
3.30056e-06
8.20345e-06
1.53622e-09
1.69917e-08
1.26668e-07
6.4754e-07
2.28739e-06
5.86812e-06
9.00649e-10
9.87573e-09
7.31456e-08
3.74646e-07
1.35635e-06
3.59211e-06
4.47942e-10
4.68204e-09
3.37982e-08
1.74621e-07
6.57711e-07
1.82293e-06
2.1935e-10
2.12195e-09
1.44431e-08
7.15785e-08
2.73368e-07
7.79121e-07
3.10089e-10
1.78401e-09
9.6307e-09
4.2504e-08
1.51068e-07
4.18664e-07
1.69719e-09
6.68236e-09
2.55525e-08
8.7808e-08
2.62504e-07
6.80306e-07
1.00153e-08
3.46909e-08
1.14337e-07
3.40913e-07
8.99861e-07
2.0883e-06
5.19031e-08
1.54806e-07
4.33617e-07
1.10103e-06
2.51945e-06
5.15366e-06
7.29537e-08
2.44512e-07
7.38575e-07
1.96604e-06
4.57312e-06
9.19864e-06
9.58395e-08
3.45751e-07
1.09022e-06
2.95855e-06
6.80157e-06
1.31662e-05
1.12877e-07
4.22986e-07
1.35572e-06
3.64828e-06
8.18485e-06
1.53556e-05
1.21271e-07
4.55221e-07
1.44795e-06
3.83794e-06
8.44029e-06
1.55529e-05
1.18872e-07
4.34545e-07
1.3558e-06
3.54549e-06
7.75462e-06
1.42522e-05
1.09647e-07
3.83844e-07
1.15687e-06
2.97318e-06
6.47225e-06
1.19169e-05
9.40517e-08
3.15221e-07
9.1388e-07
2.28506e-06
4.90912e-06
9.03194e-06
7.46478e-08
2.38408e-07
6.6076e-07
1.59415e-06
3.3353e-06
6.0158e-06
5.53965e-08
1.67505e-07
4.3866e-07
1.005e-06
2.0067e-06
3.48084e-06
3.9397e-08
1.13198e-07
2.82146e-07
6.17041e-07
1.18892e-06
2.03577e-06
3.50522e-08
9.9999e-08
2.57857e-07
6.01581e-07
1.28251e-06
2.51932e-06
7.72945e-08
2.3106e-07
6.27475e-07
1.50624e-06
3.22004e-06
6.14767e-06
3.30024e-07
8.57248e-07
2.02658e-06
4.26258e-06
8.04311e-06
1.35949e-05
3.08057e-07
6.814e-07
1.41078e-06
2.70325e-06
4.65212e-06
6.82777e-06
1.72885e-07
4.05998e-07
8.90395e-07
1.84268e-06
3.59528e-06
6.43332e-06
1.46307e-07
4.00708e-07
1.10239e-06
2.83128e-06
6.33165e-06
1.20368e-05
3.88165e-07
1.17348e-06
3.13571e-06
7.15571e-06
1.38838e-05
2.29715e-05
8.67678e-07
2.17543e-06
4.75286e-06
9.03494e-06
1.53036e-05
2.3161e-05
9.47093e-07
2.61199e-06
6.05958e-06
1.18588e-05
2.0018e-05
2.97104e-05
9.38339e-07
2.73632e-06
6.53958e-06
1.29669e-05
2.18585e-05
3.22221e-05
8.35734e-07
2.5452e-06
6.24253e-06
1.2558e-05
2.13137e-05
3.14701e-05
6.86863e-07
2.14245e-06
5.38956e-06
1.11086e-05
1.92644e-05
2.88526e-05
5.27976e-07
1.65836e-06
4.26481e-06
9.0538e-06
1.61838e-05
2.48898e-05
3.92224e-07
1.21011e-06
3.14367e-06
6.87874e-06
1.28796e-05
2.04555e-05
2.86063e-07
8.45364e-07
2.19026e-06
5.04757e-06
9.6601e-06
1.56584e-05
2.10777e-07
5.86608e-07
1.49382e-06
3.45642e-06
6.72861e-06
1.1166e-05
1.56897e-07
4.10173e-07
9.8636e-07
2.22534e-06
4.35429e-06
7.18396e-06
1.1085e-07
2.7473e-07
6.3416e-07
1.3539e-06
2.61326e-06
4.19166e-06
6.29801e-08
1.57299e-07
3.68583e-07
7.88078e-07
1.54835e-06
2.74859e-06
4.30781e-08
1.14646e-07
3.04202e-07
8.02604e-07
1.99208e-06
4.44639e-06
7.27644e-08
2.47881e-07
7.86721e-07
2.15071e-06
5.0518e-06
1.01153e-05
2.85102e-05
5.22703e-05
7.56874e-05
9.33925e-05
0.000103652
3.69289e-05
5.98528e-05
7.95666e-05
9.17623e-05
9.11181e-05
3.98775e-05
6.12199e-05
7.93852e-05
9.00264e-05
8.17794e-05
3.91377e-05
5.97936e-05
7.88265e-05
8.867e-05
7.5943e-05
3.62214e-05
5.54535e-05
7.28695e-05
8.01682e-05
6.75068e-05
3.14531e-05
4.70187e-05
6.14912e-05
6.74178e-05
5.8054e-05
2.55555e-05
3.69269e-05
4.82856e-05
5.41614e-05
4.95022e-05
1.91297e-05
2.73457e-05
3.57285e-05
4.1668e-05
4.27849e-05
4.12981e-05
1.33403e-05
1.90629e-05
2.4865e-05
3.01293e-05
3.64969e-05
3.97287e-05
8.38723e-06
1.21519e-05
1.60306e-05
2.00412e-05
2.95512e-05
3.70602e-05
4.48623e-06
6.72741e-06
9.30356e-06
1.25337e-05
2.22247e-05
3.45961e-05
4.30322e-05
2.07131e-06
3.58973e-06
6.30558e-06
1.05878e-05
1.84629e-05
3.32056e-05
4.96762e-05
4.48561e-05
1.47749e-06
4.3488e-06
1.01853e-05
1.8514e-05
2.82664e-05
4.25024e-05
7.7691e-05
0.000124247
3.11018e-06
1.00439e-05
2.22462e-05
3.77813e-05
5.38598e-05
7.21717e-05
0.000119652
0.000287704
7.29246e-06
2.01918e-05
3.92373e-05
6.00762e-05
7.87967e-05
0.000100075
0.000166952
0.000407503
1.32326e-05
3.10362e-05
5.28493e-05
7.24758e-05
8.50688e-05
9.34126e-05
0.000134037
0.000442854
1.86867e-05
3.82942e-05
5.91777e-05
7.58923e-05
8.26839e-05
7.72022e-05
8.28695e-05
0.000247449
2.13158e-05
4.08283e-05
6.11216e-05
7.81365e-05
8.32341e-05
7.0078e-05
6.6486e-05
0.000270039
2.11913e-05
3.98619e-05
6.00865e-05
7.76854e-05
8.10283e-05
6.35542e-05
5.8753e-05
0.000258905
1.89993e-05
3.58138e-05
5.46011e-05
7.09532e-05
7.27433e-05
5.6341e-05
5.35559e-05
0.000217883
1.57165e-05
2.96561e-05
4.5559e-05
5.9767e-05
6.15384e-05
5.01139e-05
4.96633e-05
8.94805e-05
1.17557e-05
2.23352e-05
3.48062e-05
4.65483e-05
5.04294e-05
4.4591e-05
4.77446e-05
8.54229e-05
7.63204e-06
1.49495e-05
2.38701e-05
3.30502e-05
3.94197e-05
3.94005e-05
4.08825e-06
8.45018e-06
1.41577e-05
2.07546e-05
2.79867e-05
3.39598e-05
1.77438e-06
3.97245e-06
7.34284e-06
1.17818e-05
1.81713e-05
2.86177e-05
9.24221e-07
2.49761e-06
5.46479e-06
9.8983e-06
1.61168e-05
2.69357e-05
1.54495e-06
4.77137e-06
1.08272e-05
1.90703e-05
2.81928e-05
4.0111e-05
4.24974e-06
1.16794e-05
2.38638e-05
3.87748e-05
5.39167e-05
9.45607e-06
2.24988e-05
4.0677e-05
5.99538e-05
7.68528e-05
1.60873e-05
3.32766e-05
5.33606e-05
7.08382e-05
8.12918e-05
2.17295e-05
4.00611e-05
5.88139e-05
7.33582e-05
7.76593e-05
2.45721e-05
4.22477e-05
6.0171e-05
7.45096e-05
7.57899e-05
2.44646e-05
4.10278e-05
5.87172e-05
7.28733e-05
7.14783e-05
2.21965e-05
3.71504e-05
5.35274e-05
6.66894e-05
6.38945e-05
1.84537e-05
3.11322e-05
4.52598e-05
5.68983e-05
5.48046e-05
1.38167e-05
2.37692e-05
3.50304e-05
4.51481e-05
4.6056e-05
8.96262e-06
1.60711e-05
2.4263e-05
3.2362e-05
3.79406e-05
5.09874e-06
9.50333e-06
1.51517e-05
2.20359e-05
3.19485e-05
3.19098e-06
6.76288e-06
1.22388e-05
1.96777e-05
3.14121e-05
4.60017e-06
1.08761e-05
1.99518e-05
3.04388e-05
4.32233e-05
1.05768e-05
2.29343e-05
3.86268e-05
5.43987e-05
6.96088e-05
2.07997e-05
3.98544e-05
6.09843e-05
8.01574e-05
9.66112e-05
3.20723e-05
5.44029e-05
7.555e-05
9.14437e-05
0.000100559
4.02325e-05
6.087e-05
7.8063e-05
8.86698e-05
8.73837e-05
4.28822e-05
6.16006e-05
7.73411e-05
8.6025e-05
7.71717e-05
4.17856e-05
5.9805e-05
7.59845e-05
8.38373e-05
7.03248e-05
3.87138e-05
5.53192e-05
7.01873e-05
7.69028e-05
6.28425e-05
3.36097e-05
4.75438e-05
6.01164e-05
6.62189e-05
5.58102e-05
2.75363e-05
3.81185e-05
4.82481e-05
5.49395e-05
4.99479e-05
2.13853e-05
2.89872e-05
3.65942e-05
4.37333e-05
4.58489e-05
1.54397e-05
2.06601e-05
2.61388e-05
3.30703e-05
4.26092e-05
9.61989e-06
1.32024e-05
1.74852e-05
2.49935e-05
3.98682e-05
5.58104e-06
8.80051e-06
1.40407e-05
2.2949e-05
3.97167e-05
4.72664e-06
1.08558e-05
2.02406e-05
3.18529e-05
4.82357e-05
8.73114e-06
2.09958e-05
3.71773e-05
5.3894e-05
7.12271e-05
1.74738e-05
3.70655e-05
5.94896e-05
8.02189e-05
9.82865e-05
1.67009e-09
7.52084e-10
4.46425e-10
3.57869e-10
3.8165e-10
4.22224e-10
4.65154e-10
4.91244e-10
4.83868e-10
4.25303e-10
2.99731e-10
1.56227e-10
6.37637e-11
4.20425e-11
1.79209e-09
4.6105e-10
1.20206e-10
3.89311e-11
2.59897e-11
3.04718e-11
4.0077e-11
4.99132e-11
5.6451e-11
5.60095e-11
4.38539e-11
2.38586e-11
9.62696e-12
2.03056e-11
3.56137e-09
9.96912e-10
2.54537e-10
5.83067e-11
1.21996e-11
3.42281e-12
2.88809e-12
3.94708e-12
5.1127e-12
5.72408e-12
4.91925e-12
2.8307e-12
1.93544e-12
2.47468e-11
6.84184e-09
1.97189e-09
4.98419e-10
1.09278e-10
2.04832e-11
3.28248e-12
5.46763e-13
2.78669e-13
3.61324e-13
4.5777e-13
4.34826e-13
2.77674e-13
1.05653e-12
2.65499e-11
9.84029e-09
2.78699e-09
6.84906e-10
1.44859e-10
2.60614e-11
3.93454e-12
4.92714e-13
5.89628e-14
2.26521e-14
2.82369e-14
2.95504e-14
2.59632e-14
7.30534e-13
2.25836e-11
1.25666e-08
3.34619e-09
7.73413e-10
1.53998e-10
2.61198e-11
3.71845e-12
4.36426e-13
4.16973e-14
3.96198e-15
1.63278e-15
1.69486e-15
4.52639e-15
4.15344e-13
1.56859e-11
1.54155e-08
3.7735e-09
8.04157e-10
1.4794e-10
2.32344e-11
3.07312e-12
3.38578e-13
3.21148e-14
3.68308e-15
1.0343e-15
5.1379e-16
2.281e-15
2.51406e-13
9.80466e-12
1.87743e-08
4.21953e-09
8.27257e-10
1.40234e-10
2.03223e-11
2.51145e-12
2.86857e-13
5.00002e-14
2.14505e-14
1.14349e-14
5.61027e-15
3.92614e-15
1.60565e-13
6.16844e-12
2.22608e-08
4.60688e-09
8.3142e-10
1.29909e-10
1.75763e-11
2.31587e-12
5.58052e-13
3.26164e-13
2.25687e-13
1.36804e-13
7.29925e-14
3.66781e-14
1.28387e-13
3.76879e-12
2.55603e-08
4.96397e-09
8.36539e-10
1.22257e-10
1.72365e-11
4.67796e-12
3.38436e-12
2.82707e-12
2.14437e-12
1.40388e-12
8.14009e-13
4.35331e-13
2.99409e-13
2.35014e-12
2.70942e-08
4.9871e-09
8.01349e-10
1.18784e-10
2.93788e-11
2.34795e-11
2.3913e-11
2.16854e-11
1.74434e-11
1.22514e-11
7.6861e-12
4.47753e-12
2.50536e-12
2.49963e-12
2.62352e-08
4.64983e-09
7.51641e-10
1.57427e-10
1.1223e-10
1.3525e-10
1.49675e-10
1.43219e-10
1.21905e-10
9.15503e-11
6.18717e-11
3.89643e-11
2.27288e-11
1.36874e-11
2.25285e-08
4.00184e-09
7.8285e-10
4.11373e-10
5.31787e-10
7.00894e-10
8.12758e-10
8.1659e-10
7.34848e-10
5.88999e-10
4.27103e-10
2.88115e-10
1.76921e-10
1.04921e-10
2.04377e-08
4.20232e-09
1.46784e-09
1.60909e-09
2.36075e-09
3.19896e-09
3.84974e-09
4.04911e-09
3.85713e-09
3.30839e-09
2.57652e-09
1.84432e-09
1.17877e-09
7.07315e-10
1.67228e-10
5.31443e-11
3.4789e-11
3.79572e-11
4.85323e-11
6.1253e-11
7.47863e-11
8.54839e-11
8.89348e-11
8.12768e-11
5.96611e-11
3.20134e-11
1.29891e-11
5.58371e-12
3.24655e-10
7.88864e-11
1.85435e-11
5.16842e-12
3.38025e-12
4.41381e-12
6.37016e-12
8.46874e-12
1.00264e-11
1.02711e-11
8.23563e-12
4.65538e-12
1.82308e-12
1.22864e-12
7.13302e-10
1.82503e-10
4.22374e-11
8.76739e-12
1.67801e-12
4.67716e-13
4.47791e-13
6.57098e-13
8.86634e-13
1.01686e-12
8.83439e-13
5.27658e-13
2.24865e-13
1.19026e-12
1.36279e-09
3.59201e-10
8.29174e-11
1.66592e-11
2.88361e-12
4.33088e-13
7.28031e-14
4.44147e-14
6.1714e-14
7.95369e-14
7.55186e-14
4.82154e-14
5.71618e-14
1.46312e-12
1.99352e-09
5.15088e-10
1.15647e-10
2.24461e-11
3.73247e-12
5.26426e-13
6.26778e-14
7.78908e-15
3.77886e-15
4.92739e-15
5.11065e-15
3.68252e-15
3.63738e-14
1.46565e-12
2.49954e-09
6.07561e-10
1.2856e-10
2.35551e-11
3.70343e-12
4.94061e-13
5.51478e-14
5.19765e-15
6.04637e-16
3.50953e-16
3.64924e-16
4.84278e-16
2.613e-14
1.19208e-12
2.91414e-09
6.53358e-10
1.27923e-10
2.17487e-11
3.1795e-12
3.95695e-13
4.15274e-14
3.8195e-15
4.5612e-16
1.73292e-16
1.3305e-16
2.74964e-16
2.03097e-14
9.16973e-13
3.28373e-09
6.77038e-10
1.2229e-10
1.92307e-11
2.60508e-12
3.03426e-13
3.22465e-14
4.79235e-15
1.77237e-15
9.06321e-16
4.59496e-16
3.85271e-16
1.52749e-14
6.52081e-13
3.54712e-09
6.73914e-10
1.12375e-10
1.6344e-11
2.07095e-12
2.5312e-13
5.36843e-14
2.84125e-14
1.83959e-14
1.03684e-14
5.11973e-15
2.45361e-15
1.37165e-14
4.5298e-13
3.64546e-09
6.47378e-10
1.00702e-10
1.37297e-11
1.82159e-12
4.73827e-13
3.31057e-13
2.62539e-13
1.86749e-13
1.12546e-13
5.94134e-14
2.85893e-14
2.34333e-14
3.11976e-13
3.41867e-09
5.73989e-10
8.48777e-11
1.18441e-11
3.07188e-12
2.58533e-12
2.56077e-12
2.19449e-12
1.64625e-12
1.05688e-12
5.98693e-13
3.0978e-13
1.57277e-13
2.47916e-13
2.87912e-09
4.66938e-10
7.02406e-11
1.5802e-11
1.35858e-11
1.6667e-11
1.77433e-11
1.59452e-11
1.25764e-11
8.57624e-12
5.1923e-12
2.88291e-12
1.48356e-12
8.40302e-13
2.13026e-09
3.5115e-10
7.10935e-11
5.10944e-11
7.35757e-11
9.68761e-11
1.07427e-10
1.00775e-10
8.34475e-11
6.02724e-11
3.88249e-11
2.29341e-11
1.2337e-11
6.54408e-12
1.69503e-09
3.45273e-10
1.64962e-10
2.36027e-10
3.68377e-10
4.97538e-10
5.70543e-10
5.56924e-10
4.8466e-10
3.70899e-10
2.54223e-10
1.58511e-10
8.83829e-11
4.71551e-11
2.13989e-11
5.35517e-12
3.02348e-12
3.79805e-12
5.64802e-12
8.07382e-12
1.08841e-11
1.34271e-11
1.47467e-11
1.39713e-11
1.04773e-11
5.87816e-12
2.41503e-12
8.80796e-13
5.24396e-11
1.17855e-11
2.50501e-12
6.15489e-13
4.02138e-13
5.86503e-13
9.24856e-13
1.31111e-12
1.62401e-12
1.7146e-12
1.39286e-12
8.17182e-13
3.27084e-13
1.23662e-13
1.1859e-10
2.79051e-11
5.90542e-12
1.12234e-12
1.99211e-13
5.75822e-14
6.41335e-14
1.00961e-13
1.41833e-13
1.66572e-13
1.4569e-13
8.90971e-14
3.61301e-14
5.57891e-14
2.27122e-10
5.48195e-11
1.16063e-11
2.15118e-12
3.46753e-13
4.93321e-14
8.77255e-15
6.67747e-15
9.87368e-15
1.29282e-14
1.2274e-14
7.92129e-15
4.48673e-15
6.97017e-14
3.33119e-10
7.88847e-11
1.62888e-11
2.9232e-12
4.53044e-13
6.02145e-14
6.94048e-15
9.99832e-16
6.63542e-16
8.76055e-16
9.00034e-16
6.50044e-16
1.98088e-15
7.98235e-14
4.06152e-10
9.07698e-11
1.7734e-11
3.01522e-12
4.43095e-13
5.58364e-14
6.02406e-15
6.33264e-16
1.595e-16
1.39101e-16
1.41758e-16
1.42546e-16
1.79024e-15
8.02509e-14
4.48277e-10
9.29102e-11
1.68737e-11
2.67412e-12
3.66907e-13
4.33087e-14
4.42039e-15
4.69881e-16
1.31815e-16
1.06002e-16
1.033e-16
1.14187e-16
1.69575e-15
7.58527e-14
4.66341e-10
8.93692e-11
1.50434e-11
2.21504e-12
2.8267e-13
3.12871e-14
3.19937e-15
4.87676e-16
2.12848e-16
1.48285e-16
1.19556e-16
1.2142e-16
1.52032e-15
6.31107e-14
4.59383e-10
8.13968e-11
1.26949e-11
1.73602e-12
2.07742e-13
2.38201e-14
4.53053e-15
2.20603e-15
1.36809e-15
7.60397e-16
3.94049e-16
2.34051e-16
1.56772e-15
5.14786e-14
4.24274e-10
7.03189e-11
1.02591e-11
1.31929e-12
1.65516e-13
4.08326e-14
2.72846e-14
2.05979e-14
1.37724e-14
7.73251e-15
3.78182e-15
1.7102e-15
2.14153e-15
4.0697e-14
3.52755e-10
5.52873e-11
7.67169e-12
1.02137e-12
2.74935e-13
2.37019e-13
2.26466e-13
1.83929e-13
1.28713e-13
7.61135e-14
3.92879e-14
1.83418e-14
8.98153e-15
2.95919e-14
2.61555e-10
3.97662e-11
5.68967e-12
1.40488e-12
1.37946e-12
1.68161e-12
1.70797e-12
1.44617e-12
1.05684e-12
6.5886e-13
3.61053e-13
1.79317e-13
8.27288e-14
4.96198e-14
1.69038e-10
2.65914e-11
5.86904e-12
5.53677e-12
8.40097e-12
1.08221e-11
1.13557e-11
9.98507e-12
7.60465e-12
4.98398e-12
2.88721e-12
1.51706e-12
7.26588e-13
3.52326e-13
1.20273e-10
2.5675e-11
1.74042e-11
2.93675e-11
4.69836e-11
6.18147e-11
6.66296e-11
6.06401e-11
4.80895e-11
3.31111e-11
2.02365e-11
1.11588e-11
5.51502e-12
2.66217e-12
2.65333e-12
5.70533e-13
2.52791e-13
3.38019e-13
5.73558e-13
9.20346e-13
1.36184e-12
1.80776e-12
2.09594e-12
2.06158e-12
1.57774e-12
9.13918e-13
3.8791e-13
1.33675e-13
7.09258e-12
1.48641e-12
2.91714e-13
6.46156e-14
4.20496e-14
6.77942e-14
1.15984e-13
1.75056e-13
2.2706e-13
2.47405e-13
2.0395e-13
1.22377e-13
5.12216e-14
1.70857e-14
1.62991e-11
3.57103e-12
7.02572e-13
1.24374e-13
2.08514e-14
6.36881e-15
8.08923e-15
1.35249e-14
1.97412e-14
2.37768e-14
2.09982e-14
1.30548e-14
5.50947e-15
3.30781e-15
3.12572e-11
7.00236e-12
1.37943e-12
2.39143e-13
3.64348e-14
5.0386e-15
1.03261e-15
9.59615e-16
1.44939e-15
1.90621e-15
1.81958e-15
1.21042e-15
6.06532e-16
3.27116e-15
4.55889e-11
1.00438e-11
1.93592e-12
3.25812e-13
4.77826e-14
6.13125e-15
7.65475e-16
1.96577e-16
1.7643e-16
2.09072e-16
2.11952e-16
1.75694e-16
2.16135e-16
4.40461e-15
5.36775e-11
1.12072e-11
2.05319e-12
3.28705e-13
4.58439e-14
5.59557e-15
6.63035e-16
1.4986e-16
1.06594e-16
1.05434e-16
1.05831e-16
1.04929e-16
2.06189e-16
5.44531e-15
5.59015e-11
1.08784e-11
1.8614e-12
2.79205e-13
3.65409e-14
4.2153e-15
4.96589e-16
1.32714e-16
1.02723e-16
1.00562e-16
1.00399e-16
1.01186e-16
2.14517e-16
6.00812e-15
5.37495e-11
9.71542e-12
1.54702e-12
2.16563e-13
2.64844e-14
2.89587e-15
3.62788e-16
1.28223e-16
1.06578e-16
1.02574e-16
1.01051e-16
1.01729e-16
2.21185e-16
5.72787e-15
4.84099e-11
8.12062e-12
1.2029e-12
1.57119e-13
1.8096e-14
2.04381e-15
4.16121e-16
2.30916e-16
1.72127e-16
1.34349e-16
1.13814e-16
1.0723e-16
2.48012e-16
5.44046e-15
4.04375e-11
6.36425e-12
8.84956e-13
1.09094e-13
1.31551e-14
3.09566e-15
1.98094e-15
1.44674e-15
9.42979e-16
5.37176e-16
2.90957e-16
1.75815e-16
2.96276e-16
4.93921e-15
3.01686e-11
4.50253e-12
5.96856e-13
7.69786e-14
2.12524e-14
1.83335e-14
1.68513e-14
1.30131e-14
8.5524e-15
4.74485e-15
2.29193e-15
1.02565e-15
5.85594e-16
3.71397e-15
2.00274e-11
2.91524e-12
4.0445e-13
1.10414e-13
1.18158e-13
1.41111e-13
1.36698e-13
1.09201e-13
7.42206e-14
4.28151e-14
2.14646e-14
9.70381e-15
4.12307e-15
3.33083e-15
1.15634e-11
1.77426e-12
4.44014e-13
5.15652e-13
7.97073e-13
9.93755e-13
9.87447e-13
8.13722e-13
5.72516e-13
3.44562e-13
1.81331e-13
8.59002e-14
3.70551e-14
1.68963e-14
7.55667e-12
1.7798e-12
1.66373e-12
3.07533e-12
4.92447e-12
6.23548e-12
6.32296e-12
5.35647e-12
3.89568e-12
2.44251e-12
1.34575e-12
6.6506e-13
2.94854e-13
1.30527e-13
2.82072e-13
5.50559e-14
1.92953e-14
2.61239e-14
4.9823e-14
8.89828e-14
1.43685e-13
2.04557e-13
2.5014e-13
2.55444e-13
1.99751e-13
1.18231e-13
5.17378e-14
1.79784e-14
7.88844e-13
1.55511e-13
2.86125e-14
5.87377e-15
3.83273e-15
6.72638e-15
1.23552e-14
1.97667e-14
2.6825e-14
3.0186e-14
2.53229e-14
1.54814e-14
6.7334e-15
2.31808e-15
1.84657e-12
3.80132e-13
7.03236e-14
1.17915e-14
1.95533e-15
6.88428e-16
9.44682e-16
1.60914e-15
2.39898e-15
2.94905e-15
2.6462e-15
1.69606e-15
7.84214e-16
3.64561e-16
3.55092e-12
7.46203e-13
1.38311e-13
2.27246e-14
3.37275e-15
5.29377e-16
1.87882e-16
1.95549e-16
2.57603e-16
3.15776e-16
3.06713e-16
2.33833e-16
1.5899e-16
2.4305e-16
5.13797e-12
1.06448e-12
1.93648e-13
3.09658e-14
4.41345e-15
6.25039e-16
1.56781e-16
1.09309e-16
1.08919e-16
1.13069e-16
1.13405e-16
1.09025e-16
1.07797e-16
3.17587e-16
5.84067e-12
1.15191e-12
2.00142e-13
3.05805e-14
4.16416e-15
5.70505e-16
1.46874e-16
1.04213e-16
1.0072e-16
1.00707e-16
1.00763e-16
1.00614e-16
1.0584e-16
4.17333e-16
5.75632e-12
1.06386e-12
1.7358e-13
2.49993e-14
3.22793e-15
4.40965e-16
1.31883e-16
1.02673e-16
1.00284e-16
1.00125e-16
1.00123e-16
1.00186e-16
1.07258e-16
5.0124e-16
5.14188e-12
8.87707e-13
1.35445e-13
1.83152e-14
2.2439e-15
3.18773e-16
1.19644e-16
1.01974e-16
1.00433e-16
1.00214e-16
1.00151e-16
1.00244e-16
1.09392e-16
5.424e-16
4.25859e-12
6.86194e-13
9.79468e-14
1.24471e-14
1.46867e-15
2.38915e-16
1.1921e-16
1.06725e-16
1.03464e-16
1.01639e-16
1.00716e-16
1.00561e-16
1.13616e-16
5.93739e-16
3.24328e-12
4.92751e-13
6.63572e-14
8.01356e-15
1.00405e-15
2.83609e-16
2.04569e-16
1.70312e-16
1.40987e-16
1.19616e-16
1.07927e-16
1.03273e-16
1.18855e-16
6.11097e-16
2.19617e-12
3.17832e-13
4.09692e-14
5.21068e-15
1.45953e-15
1.23399e-15
1.10138e-15
8.35286e-16
5.52757e-16
3.31105e-16
1.98763e-16
1.37086e-16
1.2836e-16
5.05932e-16
1.32467e-12
1.87872e-13
2.56357e-14
7.47377e-15
8.26702e-15
9.6067e-15
8.92038e-15
6.7846e-15
4.36645e-15
2.39492e-15
1.15726e-15
5.31733e-16
2.66163e-16
3.57981e-16
6.95625e-13
1.05667e-13
2.98507e-14
3.93331e-14
6.07295e-14
7.31331e-14
6.91305e-14
5.37175e-14
3.5335e-14
1.97983e-14
9.62649e-15
4.21908e-15
1.71372e-15
8.20939e-16
4.25033e-13
1.13303e-13
1.34974e-13
2.60868e-13
4.12511e-13
5.01283e-13
4.80051e-13
3.80633e-13
2.56845e-13
1.4855e-13
7.47789e-14
3.37013e-14
1.36428e-14
5.68244e-15
2.55102e-14
4.70874e-15
1.40019e-15
1.81691e-15
3.75753e-15
7.33224e-15
1.27835e-14
1.93975e-14
2.4942e-14
2.64111e-14
2.11199e-14
1.27371e-14
5.74007e-15
2.09463e-15
7.3383e-14
1.37638e-14
2.46126e-15
5.41681e-16
3.78697e-16
6.42763e-16
1.18321e-15
1.94529e-15
2.7255e-15
3.15353e-15
2.70657e-15
1.71033e-15
8.08776e-16
3.41046e-16
1.74939e-13
3.4121e-14
6.04774e-15
1.03889e-15
2.42291e-16
1.46697e-16
1.74094e-16
2.4103e-16
3.24317e-16
3.86351e-16
3.5958e-16
2.63934e-16
1.71315e-16
1.24972e-16
3.36903e-13
6.70035e-14
1.18483e-14
1.93079e-15
3.53579e-16
1.32212e-16
1.07107e-16
1.08879e-16
1.15343e-16
1.2154e-16
1.20801e-16
1.13507e-16
1.05961e-16
1.06192e-16
4.82293e-13
9.47999e-14
1.64758e-14
2.59492e-15
4.34972e-16
1.39417e-16
1.04162e-16
1.00747e-16
1.00848e-16
1.01297e-16
1.01348e-16
1.00924e-16
1.00604e-16
1.08911e-16
5.29157e-13
9.9454e-14
1.65849e-14
2.50927e-15
4.0925e-16
1.3462e-16
1.03372e-16
1.00292e-16
1.00059e-16
1.00078e-16
1.00097e-16
1.00096e-16
1.00352e-16
1.15271e-16
4.94696e-13
8.76077e-14
1.38085e-14
1.99561e-15
3.29459e-16
1.24173e-16
1.02241e-16
1.00191e-16
1.00035e-16
1.00037e-16
1.0005e-16
1.0007e-16
1.00485e-16
1.22744e-16
4.1269e-13
6.86834e-14
1.01951e-14
1.41371e-15
2.48693e-16
1.14677e-16
1.01328e-16
1.00148e-16
1.0006e-16
1.00063e-16
1.00073e-16
1.00097e-16
1.00739e-16
1.30119e-16
3.16494e-13
4.94962e-14
6.93698e-15
9.36428e-16
1.88539e-16
1.08611e-16
1.01091e-16
1.00351e-16
1.00206e-16
1.00144e-16
1.00122e-16
1.00142e-16
1.01213e-16
1.39952e-16
2.21696e-13
3.28997e-14
4.40031e-15
5.97332e-16
1.52927e-16
1.0946e-16
1.04811e-16
1.03084e-16
1.01764e-16
1.00878e-16
1.00426e-16
1.00281e-16
1.0178e-16
1.46839e-16
1.37794e-13
1.96038e-14
2.55146e-15
3.93407e-16
1.72054e-16
1.56783e-16
1.47763e-16
1.33099e-16
1.19043e-16
1.09094e-16
1.03734e-16
1.01483e-16
1.02153e-16
1.39737e-16
7.65552e-14
1.07436e-14
1.51757e-15
5.12561e-16
5.57811e-16
6.17522e-16
5.60399e-16
4.3119e-16
2.98254e-16
1.9844e-16
1.4092e-16
1.15001e-16
1.06027e-16
1.23017e-16
3.71731e-14
5.68195e-15
1.81708e-15
2.53445e-15
3.82475e-15
4.43424e-15
4.01111e-15
2.97781e-15
1.87923e-15
1.02902e-15
5.13889e-16
2.6174e-16
1.56083e-16
1.28287e-16
2.14728e-14
6.52636e-15
9.19477e-15
1.80613e-14
2.7947e-14
3.25555e-14
2.95545e-14
2.20797e-14
1.39763e-14
7.57004e-15
3.57114e-15
1.53546e-15
6.28031e-16
3.03569e-16
2.01627e-15
4.26874e-16
1.76542e-16
1.93333e-16
3.24726e-16
5.93804e-16
1.03913e-15
1.62267e-15
2.15888e-15
2.35787e-15
1.94046e-15
1.21906e-15
6.05658e-16
2.81254e-16
5.77326e-15
1.10382e-15
2.63555e-16
1.28289e-16
1.16864e-16
1.36192e-16
1.78922e-16
2.43677e-16
3.14722e-16
3.58289e-16
3.24348e-16
2.39604e-16
1.61891e-16
1.21183e-16
1.388e-14
2.64385e-15
5.22012e-16
1.63054e-16
1.08889e-16
1.02849e-16
1.05185e-16
1.10733e-16
1.1801e-16
1.23794e-16
1.21849e-16
1.13788e-16
1.05967e-16
1.01943e-16
2.67243e-14
5.11926e-15
9.38542e-16
2.2458e-16
1.163e-16
1.01764e-16
1.00227e-16
1.00449e-16
1.0102e-16
1.01582e-16
1.01552e-16
1.00959e-16
1.00339e-16
1.00166e-16
3.77437e-14
7.13817e-15
1.26132e-15
2.69281e-16
1.21664e-16
1.02247e-16
1.00019e-16
9.98285e-17
9.98605e-17
9.99157e-17
9.99365e-17
9.99184e-17
9.98989e-17
1.00224e-16
3.99516e-14
7.2559e-15
1.2373e-15
2.59248e-16
1.19522e-16
1.01937e-16
9.99945e-17
9.9821e-17
9.98229e-17
9.9841e-17
9.98576e-17
9.98743e-17
9.98994e-17
1.00564e-16
3.55026e-14
6.12008e-15
1.00708e-15
2.20079e-16
1.1387e-16
1.01272e-16
9.99519e-17
9.98439e-17
9.98496e-17
9.98655e-17
9.98813e-17
9.98994e-17
9.99355e-17
1.01068e-16
2.78139e-14
4.55024e-15
7.31859e-16
1.78386e-16
1.0847e-16
1.00693e-16
9.99265e-17
9.98726e-17
9.98823e-17
9.98982e-17
9.99141e-17
9.99323e-17
9.99875e-17
1.01756e-16
1.9911e-14
3.10401e-15
5.01437e-16
1.46467e-16
1.04718e-16
1.00343e-16
9.99364e-17
9.99117e-17
9.99205e-17
9.99344e-17
9.99501e-17
9.99686e-17
1.00061e-16
1.02781e-16
1.29743e-14
1.95827e-15
3.34365e-16
1.25405e-16
1.02584e-16
1.00332e-16
1.00106e-16
1.00047e-16
1.00011e-16
9.99956e-17
9.99973e-17
1.00012e-16
1.00148e-16
1.03681e-16
7.51714e-15
1.12619e-15
2.22643e-16
1.13703e-16
1.0314e-16
1.02295e-16
1.01849e-16
1.01228e-16
1.00681e-16
1.00324e-16
1.00149e-16
1.00091e-16
1.00206e-16
1.03371e-16
3.93376e-15
6.19261e-16
1.64911e-16
1.19036e-16
1.20923e-16
1.22789e-16
1.19268e-16
1.13037e-16
1.07319e-16
1.03449e-16
1.01414e-16
1.00565e-16
1.0034e-16
1.02004e-16
1.83542e-15
3.53239e-16
1.8329e-16
2.23973e-16
2.86682e-16
3.09273e-16
2.79832e-16
2.24551e-16
1.71527e-16
1.3417e-16
1.13817e-16
1.05032e-16
1.01791e-16
1.01444e-16
1.04813e-15
4.16659e-16
6.08556e-16
1.11313e-15
1.63492e-15
1.8158e-15
1.57948e-15
1.14179e-15
7.16426e-16
4.08041e-16
2.30314e-16
1.4791e-16
1.15641e-16
1.06172e-16
2.19958e-16
1.18707e-16
1.03243e-16
1.03547e-16
1.10579e-16
1.2698e-16
1.56937e-16
1.99533e-16
2.42111e-16
2.61711e-16
2.34307e-16
1.82e-16
1.36922e-16
1.1303e-16
4.67408e-16
1.60947e-16
1.08801e-16
1.00845e-16
1.00225e-16
1.01437e-16
1.04236e-16
1.08778e-16
1.14137e-16
1.17765e-16
1.1563e-16
1.09577e-16
1.03996e-16
1.01064e-16
1.0087e-15
2.58755e-16
1.24444e-16
1.02911e-16
9.98346e-17
9.95356e-17
9.97214e-17
1.00125e-16
1.0067e-16
1.0113e-16
1.01032e-16
1.00481e-16
9.99412e-17
9.96684e-17
1.86168e-15
4.153e-16
1.49668e-16
1.06518e-16
1.00286e-16
9.95015e-17
9.94423e-17
9.94799e-17
9.95403e-17
9.96008e-17
9.96185e-17
9.95957e-17
9.95672e-17
9.95664e-17
2.55577e-15
5.37234e-16
1.68431e-16
1.09077e-16
1.0062e-16
9.95644e-17
9.94645e-17
9.94736e-17
9.94948e-17
9.95172e-17
9.95363e-17
9.95533e-17
9.95668e-17
9.95944e-17
2.60651e-15
5.29773e-16
1.6479e-16
1.08283e-16
1.0052e-16
9.95842e-17
9.95001e-17
9.95092e-17
9.95274e-17
9.95466e-17
9.95646e-17
9.95834e-17
9.95996e-17
9.96416e-17
2.21738e-15
4.44459e-16
1.49056e-16
1.05865e-16
1.0023e-16
9.95852e-17
9.95349e-17
9.95468e-17
9.95645e-17
9.95828e-17
9.96001e-17
9.9618e-17
9.96347e-17
9.97004e-17
1.65934e-15
3.3934e-16
1.3188e-16
1.03477e-16
9.99692e-17
9.9593e-17
9.95715e-17
9.9586e-17
9.96034e-17
9.96212e-17
9.96382e-17
9.96552e-17
9.96736e-17
9.97799e-17
1.14227e-15
2.50385e-16
1.18668e-16
1.01788e-16
9.98089e-17
9.96134e-17
9.96105e-17
9.96259e-17
9.96431e-17
9.96603e-17
9.96771e-17
9.96937e-17
9.97148e-17
9.98909e-17
7.2988e-16
1.85539e-16
1.09923e-16
1.0076e-16
9.97381e-17
9.96497e-17