/*--------------------------------*- C++ -*----------------------------------*\
| =========                 |                                                 |
| \\      /  F ield         | OpenFOAM: The Open Source CFD Toolbox           |
|  \\    /   O peration     | Version:  v2106                                 |
|   \\  /    A nd           | Website:  www.openfoam.com                      |
|    \\/     M anipulation  |                                                 |
\*---------------------------------------------------------------------------*/
FoamFile
{
    version     2.0;
    format      ascii;
    arch        "LSB;label=32;scalar=64";
    class       volScalarField;
    location    "0.000136";
    object      nut;
}
// * * * * * * * * * * * * * * * * * * * * * * * * * * * * * * * * * * * * * //

dimensions      [0 2 -1 0 0 0 0];

internalField   nonuniform List<scalar> 
18109
(
6.2721e-08
4.23805e-08
3.15617e-08
1.95293e-08
1.38392e-08
1.13863e-08
1.01814e-08
1.91886e-08
7.71568e-09
3.72544e-09
1.62798e-09
1.13238e-09
1.07731e-09
1.14846e-09
2.19737e-08
7.3634e-09
2.4279e-09
7.60571e-10
2.36551e-10
1.0802e-10
1.00662e-10
4.41587e-08
1.62846e-08
5.40963e-09
1.55405e-09
3.79664e-10
7.92381e-11
1.77816e-11
6.92873e-08
2.51479e-08
7.98143e-09
2.18896e-09
5.09038e-10
9.84026e-11
1.55079e-11
9.10615e-08
3.12738e-08
9.38717e-09
2.43376e-09
5.36003e-10
9.80606e-11
1.44563e-11
1.16646e-07
3.71166e-08
1.03107e-08
2.47092e-09
5.03852e-10
8.54833e-11
1.1848e-11
1.49823e-07
4.42189e-08
1.13807e-08
2.5234e-09
4.75737e-10
7.5572e-11
1.118e-11
9.11018e-09
5.22552e-09
3.49347e-09
2.12909e-09
1.84509e-09
1.77124e-09
1.74026e-09
1.67423e-09
1.5389e-09
1.2727e-09
8.37377e-10
4.16421e-10
1.73196e-10
2.49499e-10
4.65907e-09
1.38432e-09
4.40146e-10
1.74712e-10
1.28282e-10
1.37155e-10
1.60817e-10
1.83259e-10
1.94488e-10
1.83601e-10
1.34432e-10
6.96978e-11
3.58523e-11
2.11893e-10
7.26961e-09
2.22636e-09
6.57733e-10
1.75578e-10
4.32956e-11
1.44129e-11
1.21225e-11
1.54243e-11
1.89058e-11
2.02964e-11
1.65006e-11
9.27054e-12
1.75639e-11
2.48023e-10
1.44586e-08
4.72416e-09
1.35366e-09
3.36065e-10
7.09393e-11
1.27012e-11
2.31915e-12
1.15452e-12
1.41354e-12
1.73486e-12
1.5943e-12
1.22396e-12
1.30923e-11
2.35663e-10
2.1202e-08
6.76506e-09
1.8758e-09
4.46995e-10
9.00902e-11
1.51071e-11
2.06961e-12
2.60177e-13
9.28239e-14
1.1145e-13
1.1567e-13
2.69288e-13
8.95636e-12
1.79821e-10
2.74557e-08
8.25394e-09
2.15282e-09
4.82722e-10
9.1677e-11
1.44868e-11
1.85936e-12
1.89388e-13
1.79445e-14
6.56349e-15
6.76081e-15
6.84536e-14
4.96884e-12
1.15046e-10
3.46954e-08
9.6207e-09
2.31836e-09
4.80648e-10
8.45934e-11
1.24255e-11
1.50375e-12
1.57668e-13
2.22024e-14
7.45743e-15
3.56589e-15
2.70589e-14
2.26104e-12
6.31701e-11
4.39382e-08
1.12479e-08
2.50646e-09
4.81246e-10
7.85274e-11
1.08398e-11
1.40568e-12
3.00923e-13
1.5015e-13
8.70401e-14
4.59487e-14
3.53892e-14
1.27024e-12
3.58066e-11
5.48126e-08
1.30111e-08
2.68011e-09
4.75849e-10
7.28224e-11
1.09178e-11
3.01412e-12
1.92297e-12
1.41771e-12
9.29488e-13
5.42168e-13
3.02142e-13
8.81407e-13
2.02187e-11
6.7239e-08
1.51224e-08
2.93407e-09
4.9055e-10
7.81466e-11
2.23504e-11
1.64693e-11
1.45347e-11
1.17315e-11
8.35139e-12
5.33193e-12
3.20941e-12
2.24824e-12
1.14215e-11
7.74805e-08
1.6621e-08
3.0894e-09
5.20486e-10
1.29144e-10
9.605e-11
9.97698e-11
9.6047e-11
8.24528e-11
6.32616e-11
4.38987e-11
2.88892e-11
1.82008e-11
1.57242e-11
8.30932e-08
1.72514e-08
3.20699e-09
6.81929e-10
4.03367e-10
4.67982e-10
5.33846e-10
5.44496e-10
4.95866e-10
4.08467e-10
3.06208e-10
2.18149e-10
1.44297e-10
9.61481e-11
8.12879e-08
1.6721e-08
3.47947e-09
1.41559e-09
1.58517e-09
2.07024e-09
2.47626e-09
2.65827e-09
2.56519e-09
2.26467e-09
1.82551e-09
1.39201e-09
9.68542e-10
6.47999e-10
8.29271e-08
1.87834e-08
5.54184e-09
4.4238e-09
6.02477e-09
8.10863e-09
1.00228e-08
1.12539e-08
1.15078e-08
1.09088e-08
9.4593e-09
7.62478e-09
5.54603e-09
3.7992e-09
3.24096e-07
1.04111e-06
2.61144e-06
5.287e-06
9.00009e-06
1.31779e-05
5.55729e-08
2.35685e-07
7.69903e-07
1.94406e-06
4.04442e-06
7.05478e-06
5.45424e-08
2.77744e-07
1.00304e-06
2.67119e-06
5.57766e-06
9.48175e-06
4.84054e-08
2.83464e-07
1.08817e-06
2.98081e-06
6.2301e-06
1.04783e-05
3.54526e-08
2.48288e-07
1.02284e-06
2.88877e-06
6.11064e-06
1.03378e-05
2.43629e-08
1.79648e-07
8.20157e-07
2.46345e-06
5.42161e-06
9.41461e-06
1.91918e-08
1.3423e-07
6.16777e-07
1.92027e-06
4.39124e-06
7.88763e-06
1.58077e-08
1.01444e-07
4.55986e-07
1.43841e-06
3.36807e-06
6.20427e-06
1.28363e-08
7.45769e-08
3.21304e-07
1.01098e-06
2.40756e-06
4.52548e-06
9.96702e-09
5.18384e-08
2.10833e-07
6.51403e-07
1.55151e-06
2.96211e-06
6.71659e-09
3.08638e-08
1.1842e-07
3.62274e-07
8.82017e-07
1.74585e-06
3.72053e-09
1.5469e-08
5.74109e-08
1.76072e-07
4.40815e-07
8.99324e-07
1.61516e-09
6.33038e-09
2.35747e-08
7.42558e-08
1.96339e-07
4.16945e-07
5.75152e-10
2.39078e-09
9.92421e-09
3.41913e-08
1.01464e-07
2.49369e-07
3.66094e-10
1.88595e-09
9.56637e-09
4.17812e-08
1.52842e-07
4.62144e-07
1.75775e-09
8.48664e-09
3.75316e-08
1.43486e-07
4.58946e-07
1.2212e-06
2.20763e-09
1.38621e-08
7.04582e-08
2.89066e-07
9.40751e-07
2.41459e-06
2.84354e-09
2.08522e-08
1.1531e-07
4.82591e-07
1.52536e-06
3.69505e-06
2.91777e-09
2.42379e-08
1.42522e-07
6.04106e-07
1.87435e-06
4.39451e-06
2.35046e-09
2.17007e-08
1.36375e-07
5.99189e-07
1.87847e-06
4.39258e-06
1.57739e-09
1.59413e-08
1.07581e-07
4.95976e-07
1.60867e-06
3.86312e-06
9.32092e-10
9.9287e-09
7.17714e-08
3.61913e-07
1.24493e-06
3.09958e-06
5.78103e-10
6.39169e-09
4.76417e-08
2.43617e-07
8.61162e-07
2.2108e-06
3.38963e-10
3.7143e-09
2.74962e-08
1.40784e-07
5.09595e-07
1.34922e-06
1.68656e-10
1.7613e-09
1.27032e-08
6.55691e-08
2.46705e-07
6.82941e-07
8.26336e-11
7.98617e-10
5.42976e-09
2.68727e-08
1.02462e-07
2.9145e-07
1.16897e-10
6.71923e-10
3.6235e-09
1.59678e-08
5.66546e-08
1.56645e-07
6.40411e-10
2.51927e-09
9.62457e-09
3.30281e-08
9.86025e-08
2.5498e-07
3.78201e-09
1.30879e-08
4.31154e-08
1.28438e-07
3.38739e-07
7.84981e-07
1.96213e-08
5.84653e-08
1.63784e-07
4.15695e-07
9.50927e-07
1.94381e-06
2.76161e-08
9.25408e-08
2.79599e-07
7.44331e-07
1.73188e-06
3.48392e-06
3.62917e-08
1.30968e-07
4.13249e-07
1.12228e-06
2.58268e-06
5.00418e-06
4.27586e-08
1.60303e-07
5.14174e-07
1.38499e-06
3.11099e-06
5.84543e-06
4.59403e-08
1.72515e-07
5.49076e-07
1.45672e-06
3.20739e-06
5.91763e-06
4.5034e-08
1.64624e-07
5.13675e-07
1.34386e-06
2.94205e-06
5.41378e-06
4.15224e-08
1.45296e-07
4.37809e-07
1.12507e-06
2.4497e-06
4.51285e-06
3.56162e-08
1.19262e-07
3.45491e-07
8.63154e-07
1.85346e-06
3.40917e-06
2.82655e-08
9.01629e-08
2.49566e-07
6.01133e-07
1.25602e-06
2.26256e-06
2.09778e-08
6.33433e-08
1.65618e-07
3.78652e-07
7.54547e-07
1.306e-06
1.49244e-08
4.28204e-08
1.06554e-07
2.32507e-07
4.46939e-07
7.6304e-07
1.32896e-08
3.78673e-08
9.75068e-08
2.27012e-07
4.82905e-07
9.45548e-07
2.93373e-08
8.76134e-08
2.37711e-07
5.69741e-07
1.21616e-06
2.3154e-06
1.25458e-07
3.25683e-07
7.6973e-07
1.61759e-06
3.04867e-06
5.14164e-06
1.16605e-07
2.57231e-07
5.31167e-07
1.01423e-06
1.73959e-06
2.54311e-06
6.54278e-08
1.53268e-07
3.3534e-07
6.91723e-07
1.34547e-06
2.39746e-06
5.54e-08
1.51411e-07
4.15833e-07
1.06534e-06
2.37626e-06
4.49906e-06
1.47199e-07
4.44319e-07
1.18632e-06
2.70247e-06
5.23029e-06
8.61945e-06
3.30314e-07
8.27735e-07
1.80903e-06
3.43753e-06
5.81947e-06
8.79527e-06
3.60866e-07
9.95988e-07
2.31275e-06
4.52788e-06
7.64477e-06
1.13385e-05
3.57565e-07
1.04392e-06
2.49852e-06
4.9587e-06
8.36739e-06
1.23305e-05
3.18308e-07
9.70765e-07
2.38463e-06
4.80201e-06
8.16225e-06
1.20561e-05
2.61244e-07
8.15722e-07
2.05464e-06
4.23961e-06
7.36289e-06
1.10352e-05
2.00533e-07
6.30206e-07
1.62179e-06
3.44485e-06
6.16119e-06
9.47814e-06
1.48713e-07
4.58727e-07
1.19151e-06
2.60663e-06
4.87964e-06
7.74891e-06
1.08274e-07
3.19679e-07
8.27439e-07
1.90466e-06
3.64098e-06
5.89626e-06
7.96502e-08
2.21333e-07
5.62633e-07
1.29913e-06
2.5239e-06
4.18097e-06
5.91942e-08
1.54441e-07
3.7058e-07
8.33875e-07
1.62745e-06
2.67834e-06
4.17842e-08
1.03325e-07
2.37955e-07
5.06514e-07
9.74877e-07
1.55861e-06
2.37276e-08
5.91327e-08
1.38276e-07
2.94838e-07
5.77793e-07
1.02221e-06
1.62328e-08
4.31167e-08
1.1422e-07
3.00707e-07
7.45001e-07
1.65806e-06
2.74377e-08
9.33317e-08
2.96074e-07
8.08463e-07
1.89647e-06
3.78852e-06
1.06701e-05
1.93478e-05
2.75161e-05
3.30811e-05
3.55363e-05
1.39307e-05
2.24583e-05
2.95806e-05
3.34407e-05
3.19865e-05
1.5151e-05
2.32569e-05
3.00848e-05
3.36345e-05
2.95255e-05
1.49398e-05
2.28887e-05
3.01886e-05
3.36027e-05
2.79635e-05
1.38325e-05
2.12509e-05
2.79676e-05
3.05384e-05
2.51028e-05
1.19802e-05
1.79516e-05
2.34835e-05
2.55229e-05
2.1438e-05
9.68808e-06
1.40105e-05
1.82903e-05
2.02991e-05
1.80321e-05
7.21341e-06
1.03009e-05
1.34143e-05
1.54919e-05
1.55151e-05
1.42506e-05
5.001e-06
7.12746e-06
9.25153e-06
1.11027e-05
1.31678e-05
1.37155e-05
3.12803e-06
4.51359e-06
5.91986e-06
7.32759e-06
1.06217e-05
1.28603e-05
1.66649e-06
2.4844e-06
3.41404e-06
4.54965e-06
7.94898e-06
1.20291e-05
1.40896e-05
7.67441e-07
1.32085e-06
2.30236e-06
3.82721e-06
6.58083e-06
1.16379e-05
1.66045e-05
1.38458e-05
5.47492e-07
1.5999e-06
3.71524e-06
6.67873e-06
1.00729e-05
1.48548e-05
2.65052e-05
3.85925e-05
1.15573e-06
3.70641e-06
8.12901e-06
1.36224e-05
1.90944e-05
2.5144e-05
4.10964e-05
9.84037e-05
2.7203e-06
7.48428e-06
1.43886e-05
2.16862e-05
2.7866e-05
3.4474e-05
5.62665e-05
0.000137337
4.96607e-06
1.16067e-05
1.96354e-05
2.65067e-05
3.03204e-05
3.2159e-05
4.43676e-05
0.000141968
7.05771e-06
1.44612e-05
2.23313e-05
2.83515e-05
3.01583e-05
2.69108e-05
2.71414e-05
7.8675e-05
8.08498e-06
1.55466e-05
2.33324e-05
2.96273e-05
3.08837e-05
2.49033e-05
2.21615e-05
8.37692e-05
8.05585e-06
1.52366e-05
2.3038e-05
2.96237e-05
3.02996e-05
2.2816e-05
1.99898e-05
8.43536e-05
7.22032e-06
1.36606e-05
2.08633e-05
2.69425e-05
2.70991e-05
2.01459e-05
1.81674e-05
7.03995e-05
5.95149e-06
1.12483e-05
1.72771e-05
2.24816e-05
2.26608e-05
1.76083e-05
1.64852e-05
2.84307e-05
4.43245e-06
8.42111e-06
1.30884e-05
1.73538e-05
1.8467e-05
1.56855e-05
1.58536e-05
2.61749e-05
2.86454e-06
5.5982e-06
8.89505e-06
1.22074e-05
1.43476e-05
1.38333e-05
1.52801e-06
3.14533e-06
5.23758e-06
7.60425e-06
1.01128e-05
1.19105e-05
6.6137e-07
1.47206e-06
2.70143e-06
4.29214e-06
6.53088e-06
1.00744e-05
3.44314e-07
9.2383e-07
2.00413e-06
3.59466e-06
5.77216e-06
9.47234e-06
5.76567e-07
1.76766e-06
3.97302e-06
6.91504e-06
1.00901e-05
1.40892e-05
1.59192e-06
4.3447e-06
8.77963e-06
1.40631e-05
1.92069e-05
3.55679e-06
8.40358e-06
1.50272e-05
2.17752e-05
2.73195e-05
6.08444e-06
1.2542e-05
1.99545e-05
2.60623e-05
2.91575e-05
8.26137e-06
1.52345e-05
2.23242e-05
2.75424e-05
2.84145e-05
9.36932e-06
1.61735e-05
2.30767e-05
2.83477e-05
2.81246e-05
9.33569e-06
1.57373e-05
2.25879e-05
2.78648e-05
2.67037e-05
8.45234e-06
1.4205e-05
2.05102e-05
2.5388e-05
2.37604e-05
6.99788e-06
1.18366e-05
1.72211e-05
2.14679e-05
2.01462e-05
5.21584e-06
8.97773e-06
1.32215e-05
1.69071e-05
1.6852e-05
3.36641e-06
6.0245e-06
9.06896e-06
1.20059e-05
1.38119e-05
1.90702e-06
3.53904e-06
5.61265e-06
8.09168e-06
1.15489e-05
1.19037e-06
2.50521e-06
4.49965e-06
7.15862e-06
1.12489e-05
1.71711e-06
4.02256e-06
7.30114e-06
1.09862e-05
1.53586e-05
3.95992e-06
8.48683e-06
1.40847e-05
1.94713e-05
2.44208e-05
7.81692e-06
1.47773e-05
2.22183e-05
2.84988e-05
3.33753e-05
1.2118e-05
2.03341e-05
2.77183e-05
3.26945e-05
3.47927e-05
1.53198e-05
2.30674e-05
2.9315e-05
3.26195e-05
3.09677e-05
1.64264e-05
2.35961e-05
2.95599e-05
3.23526e-05
2.80177e-05
1.60523e-05
2.3043e-05
2.92861e-05
3.1918e-05
2.59684e-05
1.4842e-05
2.12896e-05
2.70408e-05
2.93643e-05
2.33819e-05
1.28164e-05
1.81856e-05
2.30033e-05
2.50851e-05
2.05772e-05
1.04355e-05
1.44617e-05
1.82786e-05
2.05776e-05
1.81337e-05
8.04619e-06
1.0897e-05
1.37168e-05
1.62238e-05
1.65283e-05
5.76939e-06
7.69784e-06
9.69377e-06
1.21467e-05
1.52797e-05
3.57396e-06
4.88071e-06
6.42553e-06
9.09672e-06
1.42569e-05
2.06507e-06
3.23293e-06
5.1191e-06
8.28029e-06
1.41287e-05
1.74796e-06
3.97838e-06
7.34199e-06
1.14123e-05
1.70217e-05
3.2366e-06
7.70093e-06
1.34427e-05
1.91461e-05
2.48453e-05
6.5049e-06
1.36226e-05
2.14909e-05
2.8299e-05
3.37176e-05
6.25896e-10
2.82311e-10
1.67665e-10
1.34502e-10
1.43461e-10
1.58714e-10
1.74778e-10
1.84479e-10
1.81556e-10
1.59463e-10
1.12288e-10
5.8473e-11
2.38496e-11
1.57092e-11
6.71796e-10
1.73086e-10
4.5155e-11
1.46326e-11
9.76959e-12
1.14547e-11
1.50611e-11
1.87496e-11
2.11908e-11
2.10081e-11
1.64349e-11
8.9342e-12
3.60286e-12
7.59374e-12
1.33548e-09
3.74252e-10
9.56221e-11
2.19152e-11
4.58607e-12
1.28676e-12
1.08549e-12
1.48285e-12
1.91956e-12
2.14757e-12
1.8442e-12
1.06037e-12
7.24553e-13
9.25599e-12
2.56745e-09
7.40611e-10
1.87319e-10
4.10857e-11
7.70219e-12
1.23428e-12
2.05541e-13
1.0471e-13
1.35681e-13
1.7178e-13
1.63048e-13
1.04039e-13
3.95622e-13
9.93388e-12
3.69503e-09
1.04726e-09
2.57501e-10
5.44775e-11
9.80186e-12
1.47971e-12
1.85248e-13
2.21582e-14
8.50743e-15
1.05979e-14
1.10828e-14
9.72955e-15
2.73588e-13
8.45101e-12
4.72286e-09
1.25824e-09
2.90924e-10
5.79367e-11
9.82687e-12
1.39878e-12
1.64118e-13
1.56728e-14
1.48828e-15
6.12929e-16
6.35769e-16
1.69654e-15
1.55567e-13
5.87069e-12
5.79853e-09
1.41991e-09
3.02664e-10
5.56836e-11
8.74456e-12
1.15635e-12
1.27352e-13
1.20737e-14
1.38382e-15
3.88345e-16
1.92766e-16
8.55086e-16
9.41724e-14
3.66985e-12
7.06798e-09
1.58873e-09
3.115e-10
5.28014e-11
7.65052e-12
9.45211e-13
1.0792e-13
1.88016e-14
8.06121e-15
4.29438e-15
2.10535e-15
1.47213e-15
6.01542e-14
2.30923e-12
8.38735e-09
1.73575e-09
3.13222e-10
4.89321e-11
6.61869e-12
8.71803e-13
2.09993e-13
1.22674e-13
8.48345e-14
5.13893e-14
2.73984e-14
1.3756e-14
4.8109e-14
1.41111e-12
9.63559e-09
1.87092e-09
3.15216e-10
4.60572e-11
6.4916e-12
1.7612e-12
1.27367e-12
1.06346e-12
8.06218e-13
5.27488e-13
3.05636e-13
1.63322e-13
1.12233e-13
8.80144e-13
1.02187e-08
1.88023e-09
3.01999e-10
4.4751e-11
1.10649e-11
8.84013e-12
9.00024e-12
8.15842e-12
6.55936e-12
4.60426e-12
2.88669e-12
1.68032e-12
9.39451e-13
9.36403e-13
9.89338e-09
1.75275e-09
2.83196e-10
5.92958e-11
4.22609e-11
5.0915e-11
5.63285e-11
5.38813e-11
4.58442e-11
3.44112e-11
2.32438e-11
1.46269e-11
8.52656e-12
5.12923e-12
8.49515e-09
1.50831e-09
2.9487e-10
1.54886e-10
2.00171e-10
2.63773e-10
3.05803e-10
3.0718e-10
2.76353e-10
2.2141e-10
1.60487e-10
1.08181e-10
6.63991e-11
3.93326e-11
7.69982e-09
1.58208e-09
5.5237e-10
6.05383e-10
8.88063e-10
1.20328e-09
1.44785e-09
1.5227e-09
1.45036e-09
1.24366e-09
9.6829e-10
6.92684e-10
4.42576e-10
2.65276e-10
6.22852e-11
1.98168e-11
1.29803e-11
1.41717e-11
1.81259e-11
2.28818e-11
2.79379e-11
3.19303e-11
3.32058e-11
3.0332e-11
2.22512e-11
1.19312e-11
4.83736e-12
2.07733e-12
1.21002e-10
2.9427e-11
6.92173e-12
1.93024e-12
1.26279e-12
1.64921e-12
2.38023e-12
3.16405e-12
3.74472e-12
3.83423e-12
3.07237e-12
1.73553e-12
6.79155e-13
4.57347e-13
2.65976e-10
6.81036e-11
1.57712e-11
3.27516e-12
6.27013e-13
1.74795e-13
1.67351e-13
2.45547e-13
3.31211e-13
3.79674e-13
3.29651e-13
1.96756e-13
8.37869e-14
4.43104e-13
5.0849e-10
1.34108e-10
3.09736e-11
6.22526e-12
1.0778e-12
1.6189e-13
2.72135e-14
1.65997e-14
2.30569e-14
2.97009e-14
2.81827e-14
1.79808e-14
2.13014e-14
5.44775e-13
7.44261e-10
1.92407e-10
4.32179e-11
8.39053e-12
1.39544e-12
1.96819e-13
2.34325e-14
2.91143e-15
1.41193e-15
1.84015e-15
1.90739e-15
1.37338e-15
1.35552e-14
5.45711e-13
9.33748e-10
2.27061e-10
4.80618e-11
8.8077e-12
1.3849e-12
1.84753e-13
2.06203e-14
1.94297e-15
2.25931e-16
1.31072e-16
1.36204e-16
1.80615e-16
9.73758e-15
4.43844e-13
1.08932e-09
2.44304e-10
4.7843e-11
8.13482e-12
1.18927e-12
1.47999e-13
1.55299e-14
1.42794e-15
1.7045e-16
6.4724e-17
4.9661e-17
1.02549e-16
7.56817e-15
3.41398e-13
1.22809e-09
2.53256e-10
4.5749e-11
7.19453e-12
9.74575e-13
1.13503e-13
1.20602e-14
1.79177e-15
6.62369e-16
3.38524e-16
1.71513e-16
1.43694e-16
5.69203e-15
2.42769e-13
1.32715e-09
2.52167e-10
4.2049e-11
6.11562e-12
7.74852e-13
9.46941e-14
2.00796e-14
1.06237e-14
6.87543e-15
3.87304e-15
1.91111e-15
9.15154e-16
5.11129e-15
1.68635e-13
1.3643e-09
2.42283e-10
3.76852e-11
5.13778e-12
6.8158e-13
1.77266e-13
1.23828e-13
9.81685e-14
6.97995e-14
4.20424e-14
2.21792e-14
1.06641e-14
8.73299e-15
1.16149e-13
1.2794e-09
2.14806e-10
3.17601e-11
4.43166e-12
1.14927e-12
9.67112e-13
9.57747e-13
8.20522e-13
6.15293e-13
3.94806e-13
2.235e-13
1.15554e-13
5.86164e-14
9.23023e-14
1.07712e-09
1.74687e-10
2.62745e-11
5.9108e-12
5.08137e-12
6.23314e-12
6.63463e-12
5.96097e-12
4.69991e-12
3.20349e-12
1.93837e-12
1.07543e-12
5.52978e-13
3.12878e-13
7.96671e-10
1.31318e-10
2.6581e-11
1.91029e-11
2.75059e-11
3.62151e-11
4.01556e-11
3.7664e-11
3.11787e-11
2.251e-11
1.44928e-11
8.55465e-12
4.59868e-12
2.43668e-12
6.3332e-10
1.28995e-10
6.16254e-11
8.81813e-11
1.37626e-10
1.85887e-10
2.13154e-10
2.08063e-10
1.81029e-10
1.3849e-10
9.48897e-11
5.9124e-11
3.29491e-11
1.75613e-11
7.93796e-12
1.98762e-12
1.12262e-12
1.41081e-12
2.09863e-12
3.00084e-12
4.04602e-12
4.99195e-12
5.48266e-12
5.19392e-12
3.89418e-12
2.18418e-12
8.97004e-13
3.26972e-13
1.94623e-11
4.37581e-12
9.30474e-13
2.28706e-13
1.49476e-13
2.18065e-13
3.43928e-13
4.87622e-13
6.04003e-13
6.37646e-13
5.17879e-13
3.03748e-13
1.21527e-13
4.59254e-14
4.40318e-11
1.03653e-11
2.19442e-12
4.17198e-13
7.4073e-14
2.14164e-14
2.38569e-14
3.75604e-14
5.27665e-14
6.19648e-14
5.4184e-14
3.31252e-14
1.34267e-14
2.0721e-14
8.43665e-11
2.03704e-11
4.31437e-12
7.99905e-13
1.28974e-13
1.83531e-14
3.26416e-15
2.48482e-15
3.67414e-15
4.81021e-15
4.56556e-15
2.94542e-15
1.66757e-15
2.58914e-14
1.23802e-10
2.93262e-11
6.05745e-12
1.08737e-12
1.68564e-13
2.24082e-14
2.58313e-15
3.72139e-16
2.46959e-16
3.26001e-16
3.34823e-16
2.41726e-16
7.36262e-16
2.96507e-14
1.5101e-10
3.37576e-11
6.59711e-12
1.12194e-12
1.64907e-13
2.07837e-14
2.2425e-15
2.35742e-16
5.93708e-17
5.17669e-17
5.27387e-17
5.30086e-17
6.65386e-16
2.98078e-14
1.6675e-10
3.45681e-11
6.27935e-12
9.95339e-13
1.36589e-13
1.61244e-14
1.64586e-15
1.74949e-16
4.90715e-17
3.94517e-17
3.84321e-17
4.24613e-17
6.30194e-16
2.81698e-14
1.73531e-10
3.32609e-11
5.59971e-12
8.24653e-13
1.05251e-13
1.16505e-14
1.1914e-15
1.81593e-16
7.92431e-17
5.51902e-17
4.44796e-17
4.51493e-17
5.64959e-16
2.34353e-14
1.70995e-10
3.03014e-11
4.7265e-12
6.46427e-13
7.73632e-14
8.87112e-15
1.6873e-15
8.21519e-16
5.09363e-16
2.83017e-16
1.46597e-16
8.70232e-17
5.82483e-16
1.9112e-14
1.57951e-10
2.61808e-11
3.82004e-12
4.91304e-13
6.16438e-14
1.5208e-14
1.01621e-14
7.67074e-15
5.12766e-15
2.87792e-15
1.40686e-15
6.35828e-16
7.95594e-16
1.5107e-14
1.31319e-10
2.05834e-11
2.85646e-12
3.80338e-13
1.02391e-13
8.8273e-14
8.43433e-14
6.84928e-14
4.79192e-14
2.83265e-14
1.46139e-14
6.81841e-15
3.33617e-15
1.09824e-14
9.73433e-11
1.48017e-11
2.11805e-12
5.23057e-13
5.13651e-13
6.26185e-13
6.36016e-13
5.38465e-13
3.93408e-13
2.45173e-13
1.34286e-13
6.66527e-14
3.07267e-14
1.84134e-14
6.28893e-11
9.8943e-12
2.18403e-12
2.0607e-12
3.12721e-12
4.02874e-12
4.22767e-12
3.71709e-12
2.83033e-12
1.85431e-12
1.07368e-12
5.638e-13
2.69822e-13
1.30717e-13
4.47196e-11
9.54794e-12
6.4732e-12
1.09253e-11
1.74821e-11
2.30031e-11
2.47975e-11
2.2568e-11
1.78942e-11
1.23169e-11
7.52463e-12
4.14661e-12
2.04803e-12
9.87728e-13
9.82865e-13
2.11377e-13
9.36624e-14
1.25253e-13
2.12544e-13
3.41083e-13
5.0472e-13
6.7003e-13
7.76855e-13
7.64133e-13
5.84777e-13
3.38722e-13
1.43751e-13
4.95284e-14
2.62769e-12
5.50743e-13
1.08096e-13
2.39465e-14
1.5585e-14
2.51298e-14
4.29962e-14
6.49e-14
8.41827e-14
9.17285e-14
7.56146e-14
4.53695e-14
1.89871e-14
6.33244e-15
6.03956e-12
1.32335e-12
2.60387e-13
4.61007e-14
7.72966e-15
2.36122e-15
2.99934e-15
5.01527e-15
7.32081e-15
8.81771e-15
7.78706e-15
4.84093e-15
2.0427e-15
1.22611e-15
1.15836e-11
2.59523e-12
5.11307e-13
8.8653e-14
1.35085e-14
1.86835e-15
3.82941e-16
3.55908e-16
5.3759e-16
7.07053e-16
6.74891e-16
4.48905e-16
2.24909e-16
1.21266e-15
1.68976e-11
3.72307e-12
7.17695e-13
1.20803e-13
1.77189e-14
2.27391e-15
2.83925e-16
7.29198e-17
6.54497e-17
7.75597e-17
7.8623e-17
6.51643e-17
8.01495e-17
1.63285e-15
1.98984e-11
4.15491e-12
7.61278e-13
1.21893e-13
1.70025e-14
2.07554e-15
2.45962e-16
5.55973e-17
3.95471e-17
3.91163e-17
3.92607e-17
3.89195e-17
7.64613e-17
2.01857e-15
2.07262e-11
4.03366e-12
6.90278e-13
1.03553e-13
1.35543e-14
1.56378e-15
1.84241e-16
4.92414e-17
3.81143e-17
3.73108e-17
3.72458e-17
3.75294e-17
7.95418e-17
2.22693e-15
1.99307e-11
3.60286e-12
5.73757e-13
8.03289e-14
9.82501e-15
1.07441e-15
1.3461e-16
4.75785e-17
3.95463e-17
3.80572e-17
3.74867e-17
3.77284e-17
8.20052e-17
2.12275e-15
1.79522e-11
3.01167e-12
4.46164e-13
5.82838e-14
6.71361e-15
7.58327e-16
1.54406e-16
8.56863e-17
6.38687e-17
4.98445e-17
4.22181e-17
3.97641e-17
9.19338e-17
2.01579e-15
1.49958e-11
2.36029e-12
3.28241e-13
4.04691e-14
4.8806e-15
1.14861e-15
7.3505e-16
5.36831e-16
3.49885e-16
1.99283e-16
1.07916e-16
6.51882e-17
1.09802e-16
1.82963e-15
1.11871e-11
1.66975e-12
2.21372e-13
2.85546e-14
7.88451e-15
6.80219e-15
6.25269e-15
4.82846e-15
3.17307e-15
1.76009e-15
8.49951e-16
3.80218e-16
2.16973e-16
1.37537e-15
7.42529e-12
1.08095e-12
1.4999e-13
4.09524e-14
4.38318e-14
5.2351e-14
5.07176e-14
4.05148e-14
2.75339e-14
1.58801e-14
7.95877e-15
3.59666e-15
1.52734e-15
1.23318e-15
4.28623e-12
6.57732e-13
1.64629e-13
1.91219e-13
2.95633e-13
3.68619e-13
3.66312e-13
3.0186e-13
2.12357e-13
1.27777e-13
6.72224e-14
3.18313e-14
1.37232e-14
6.25362e-15
2.80012e-12
6.59604e-13
6.16712e-13
1.14016e-12
1.82609e-12
2.31251e-12
2.34521e-12
1.98671e-12
1.44475e-12
9.05636e-13
4.98823e-13
2.46406e-13
1.09185e-13
4.83041e-14
1.04505e-13
2.03965e-14
7.14781e-15
9.67694e-15
1.84548e-14
3.29587e-14
5.32174e-14
7.57602e-14
9.26376e-14
9.45972e-14
7.39673e-14
4.37772e-14
1.91553e-14
6.65544e-15
2.92246e-13
5.76098e-14
1.05991e-14
2.17581e-15
1.41971e-15
2.49152e-15
4.57636e-15
7.32137e-15
9.93521e-15
1.11795e-14
9.37781e-15
5.73284e-15
2.49323e-15
8.58232e-16
6.84105e-13
1.40823e-13
2.60509e-14
4.368e-15
7.24311e-16
2.55011e-16
3.49926e-16
5.96043e-16
8.88575e-16
1.09228e-15
9.80044e-16
6.28104e-16
2.90397e-16
1.34976e-16
1.31549e-12
2.76433e-13
5.12359e-14
8.41803e-15
1.24938e-15
1.96099e-16
6.9597e-17
7.24362e-17
9.54192e-17
1.16962e-16
1.13598e-16
8.65982e-17
5.88759e-17
8.99883e-17
1.90341e-12
3.94337e-13
7.17348e-14
1.14709e-14
1.6349e-15
2.31538e-16
5.8077e-17
4.04912e-17
4.03451e-17
4.18804e-17
4.20023e-17
4.03758e-17
3.99169e-17
1.17579e-16
2.16367e-12
4.26713e-13
7.4139e-14
1.1328e-14
1.54254e-15
2.11335e-16
5.44069e-17
3.86029e-17
3.73074e-17
3.73006e-17
3.73186e-17
3.72589e-17
3.91897e-17
1.54497e-16
2.13236e-12
3.94081e-13
6.42982e-14
9.26039e-15
1.19571e-15
1.63346e-16
4.88526e-17
3.80316e-17
3.71447e-17
3.70829e-17
3.7079e-17
3.70972e-17
3.97102e-17
1.85535e-16
1.90463e-12
3.2881e-13
5.01693e-14
6.78407e-15
8.31162e-16
1.18077e-16
4.43168e-17
3.77703e-17
3.71971e-17
3.71128e-17
3.70856e-17
3.71141e-17
4.04945e-17
2.0074e-16
1.57731e-12
2.54149e-13
3.62773e-14
4.61016e-15
5.43975e-16
8.84907e-17
4.41527e-17
3.95267e-17
3.83159e-17
3.7636e-17
3.72898e-17
3.72259e-17
4.20501e-17
2.19697e-16
1.20111e-12
1.82479e-13
2.45743e-14
2.96774e-15
3.71845e-16
1.05033e-16
7.57596e-17
6.30692e-17
5.22056e-17
4.42868e-17
3.99534e-17
3.82232e-17
4.39794e-17
2.26068e-16
8.13196e-13
1.17685e-13
1.51702e-14
1.92947e-15
5.40465e-16
4.56944e-16
4.07828e-16
3.09277e-16
2.04648e-16
1.22569e-16
7.3566e-17
5.07279e-17
4.74848e-17
1.87114e-16
4.90401e-13
6.95501e-14
9.49077e-15
2.76699e-15
3.06077e-15
3.55676e-15
3.30259e-15
2.5117e-15
1.61633e-15
8.86403e-16
4.28244e-16
1.96721e-16
9.84387e-17
1.32358e-16
2.57468e-13
3.91097e-14
1.10491e-14
1.45594e-14
2.24803e-14
2.70717e-14
2.55896e-14
1.98829e-14
1.30775e-14
7.32621e-15
3.56149e-15
1.56049e-15
6.3363e-16
3.03434e-16
1.57276e-13
4.19257e-14
4.99481e-14
9.65405e-14
1.52667e-13
1.85522e-13
1.77662e-13
1.4086e-13
9.50403e-14
5.49589e-14
2.766e-14
1.24622e-14
5.04324e-15
2.09976e-15
9.46745e-15
1.74715e-15
5.19431e-16
6.73903e-16
1.39345e-15
2.71865e-15
4.73907e-15
7.18985e-15
9.24353e-15
9.78653e-15
7.82477e-15
4.71837e-15
2.12614e-15
7.75753e-16
2.7228e-14
5.10611e-15
9.12917e-16
2.00886e-16
1.4042e-16
2.38297e-16
4.38591e-16
7.20969e-16
1.00998e-15
1.16843e-15
1.00269e-15
6.33534e-16
2.99556e-16
1.263e-16
6.48976e-14
1.26562e-14
2.24286e-15
3.85223e-16
8.98288e-17
5.43794e-17
6.45262e-17
8.93226e-17
1.20171e-16
1.43138e-16
1.33202e-16
9.77589e-17
6.34477e-17
4.62769e-17
1.2496e-13
2.4849e-14
4.39341e-15
7.15849e-16
1.31072e-16
4.90043e-17
3.96936e-17
4.03448e-17
4.27345e-17
4.50247e-17
4.47453e-17
4.20379e-17
3.92398e-17
3.93191e-17
1.78856e-13
3.51519e-14
6.1084e-15
9.61938e-16
1.61223e-16
5.16684e-17
3.85977e-17
3.73278e-17
3.73605e-17
3.75218e-17
3.75363e-17
3.73742e-17
3.72516e-17
4.03211e-17
1.962e-13
3.68711e-14
6.14784e-15
9.30046e-16
1.51667e-16
4.98838e-17
3.83002e-17
3.71546e-17
3.70635e-17
3.70661e-17
3.70686e-17
3.70628e-17
3.71534e-17
4.267e-17
1.83388e-13
3.24733e-14
5.11777e-15
7.39542e-16
1.22079e-16
4.60062e-17
3.78759e-17
3.71122e-17
3.70499e-17
3.7046e-17
3.70463e-17
3.70483e-17
3.7197e-17
4.54294e-17
1.52956e-13
2.54535e-14
3.77786e-15
5.23807e-16
9.2136e-17
4.24811e-17
3.75321e-17
3.70906e-17
3.70535e-17
3.70494e-17
3.70487e-17
3.70521e-17
3.72841e-17
4.81504e-17
1.17278e-13
1.83391e-14
2.57005e-15
3.469e-16
6.98379e-17
4.02274e-17
3.74379e-17
3.71596e-17
3.71013e-17
3.70731e-17
3.70599e-17
3.7062e-17
3.74518e-17
5.17783e-17
8.21312e-14
1.2187e-14
1.6299e-15
2.21236e-16
5.66356e-17
4.05341e-17
3.88085e-17
3.81643e-17
3.76709e-17
3.73378e-17
3.71648e-17
3.71056e-17
3.76529e-17
5.43134e-17
5.10365e-14
7.26022e-15
9.44873e-16
1.45678e-16
6.37064e-17
5.80466e-17
5.47016e-17
4.9267e-17
4.40584e-17
4.03702e-17
3.83804e-17
3.75414e-17
3.77816e-17
5.16731e-17
2.83476e-14
3.97789e-15
5.61866e-16
1.89758e-16
2.06495e-16
2.28579e-16
2.07413e-16
1.59572e-16
1.10361e-16
7.34165e-17
5.21268e-17
4.25313e-17
3.92039e-17
4.54771e-17
1.37615e-14
2.10328e-15
6.72606e-16
9.38085e-16
1.41557e-15
1.641e-15
1.48425e-15
1.10175e-15
6.95194e-16
3.80606e-16
1.90038e-16
9.67732e-17
5.76952e-17
4.74104e-17
7.94715e-15
2.41523e-15
3.40265e-15
6.68347e-15
1.0341e-14
1.20451e-14
1.09336e-14
8.16725e-15
5.16907e-15
2.79926e-15
1.32029e-15
5.67552e-16
2.32086e-16
1.12152e-16
7.49779e-16
1.58702e-16
6.56185e-17
7.18435e-17
1.20645e-16
2.20569e-16
3.8591e-16
6.02512e-16
8.01467e-16
8.75191e-16
7.2014e-16
4.52346e-16
2.24706e-16
1.04332e-16
2.14619e-15
4.10267e-16
9.79363e-17
4.76618e-17
4.34088e-17
5.0578e-17
6.64343e-17
9.0462e-17
1.16816e-16
1.32965e-16
1.20351e-16
8.8893e-17
6.00544e-17
4.4947e-17
5.15835e-15
9.82401e-16
1.93928e-16
6.05628e-17
4.0437e-17
3.81873e-17
3.90477e-17
4.11004e-17
4.37942e-17
4.59337e-17
4.52056e-17
4.22086e-17
3.93031e-17
3.78047e-17
9.92914e-15
1.90172e-15
3.48585e-16
8.33964e-17
4.31797e-17
3.77763e-17
3.71995e-17
3.72759e-17
3.74821e-17
3.76848e-17
3.76684e-17
3.7443e-17
3.72089e-17
3.71392e-17
1.40197e-14
2.65101e-15
4.68351e-16
9.9972e-17
4.51608e-17
3.79471e-17
3.71145e-17
3.70382e-17
3.70445e-17
3.70597e-17
3.70623e-17
3.70503e-17
3.70388e-17
3.71538e-17
1.48357e-14
2.69401e-15
4.59313e-16
9.62237e-17
4.43551e-17
3.78237e-17
3.70971e-17
3.70273e-17
3.70227e-17
3.70241e-17
3.70253e-17
3.70262e-17
3.70311e-17
3.72722e-17
1.318e-14
2.27168e-15
3.73756e-16
8.16651e-17
4.22475e-17
3.7568e-17
3.70729e-17
3.70276e-17
3.70245e-17
3.70252e-17
3.70262e-17
3.70276e-17
3.70364e-17
3.74511e-17
1.03227e-14
1.68851e-15
2.71541e-16
6.61771e-17
4.02342e-17
3.73442e-17
3.70546e-17
3.70295e-17
3.7028e-17
3.70287e-17
3.70296e-17
3.70312e-17
3.70466e-17
3.76972e-17
7.38768e-15
1.15153e-15
1.86001e-16
5.43222e-17
3.88328e-17
3.72055e-17
3.70495e-17
3.70353e-17
3.70335e-17
3.70334e-17
3.7034e-17
3.70357e-17
3.70643e-17
3.80673e-17
4.81259e-15
7.26283e-16
1.23995e-16
4.64986e-17
3.8032e-17
3.71922e-17
3.71031e-17
3.70762e-17
3.7058e-17
3.70468e-17
3.70418e-17
3.70418e-17
3.70862e-17
3.83898e-17
2.78763e-15
4.17574e-16
8.25436e-17
4.21494e-17
3.82288e-17
3.79104e-17
3.77402e-17
3.75046e-17
3.72966e-17
3.71585e-17
3.70878e-17
3.7061e-17
3.70974e-17
3.8264e-17
1.45839e-15
2.2955e-16
6.11238e-17
4.41146e-17
4.48085e-17
4.54942e-17
4.41835e-17
4.1869e-17
3.9745e-17
3.83058e-17
3.75462e-17
3.72255e-17
3.71356e-17
3.77459e-17
6.80286e-16
1.30908e-16
6.79195e-17
8.29848e-17
1.06206e-16
1.1456e-16
1.03639e-16
8.31522e-17
6.35066e-17
4.96666e-17
4.2125e-17
3.88667e-17
3.76604e-17
3.7526e-17
3.88369e-16
1.5437e-16
2.25445e-16
4.12321e-16
6.05526e-16
6.72427e-16
5.84827e-16
4.22698e-16
2.65179e-16
1.51005e-16
8.52174e-17
5.47166e-17
4.27708e-17
3.92604e-17
8.19866e-17
4.42391e-17
3.84691e-17
3.85749e-17
4.11867e-17
4.72863e-17
5.8431e-17
7.42766e-17
9.01099e-17
9.73874e-17
8.71749e-17
6.77026e-17
5.09263e-17
4.20327e-17
1.74161e-16
5.99632e-17
4.05278e-17
3.75573e-17
3.73196e-17
3.77636e-17
3.87984e-17
4.04817e-17
4.24682e-17
4.38105e-17
4.30092e-17
4.0751e-17
3.86703e-17
3.75744e-17
3.7573e-16
9.63717e-17
4.63401e-17
3.83148e-17
3.71628e-17
3.70449e-17
3.71074e-17
3.72513e-17
3.74478e-17
3.76126e-17
3.75703e-17
3.73596e-17
3.71541e-17
3.70472e-17
6.93233e-16
1.54626e-16
5.57153e-17
3.9646e-17
3.73198e-17
3.70215e-17
3.69931e-17
3.7001e-17
3.70173e-17
3.70339e-17
3.70349e-17
3.70208e-17
3.70058e-17
3.70002e-17
9.51395e-16
1.99961e-16
6.26808e-17
4.05859e-17
3.7433e-17
3.70342e-17
3.6991e-17
3.69885e-17
3.69906e-17
3.69933e-17
3.69951e-17
3.6996e-17
3.69966e-17
3.70019e-17
9.69976e-16
1.97121e-16
6.13063e-17
4.0278e-17
3.73847e-17
3.70309e-17
3.69937e-17
3.69914e-17
3.69926e-17
3.69942e-17
3.69957e-17
3.69975e-17
3.69992e-17
3.70101e-17
8.24909e-16
1.65325e-16
5.54362e-17
3.9367e-17
3.72659e-17
3.70206e-17
3.69962e-17
3.69952e-17
3.69963e-17
3.69978e-17
3.69992e-17
3.70009e-17
3.70028e-17
3.70227e-17
6.17109e-16
1.26184e-16
4.90331e-17
3.84673e-17
3.71579e-17
3.70127e-17
3.69993e-17
3.69993e-17
3.70005e-17
3.70019e-17
3.70032e-17
3.70048e-17
3.70071e-17
3.70425e-17
4.24681e-16
9.30775e-17
4.4108e-17
3.78283e-17
3.70876e-17
3.70096e-17
3.70032e-17
3.70037e-17
3.70049e-17
3.70062e-17
3.70075e-17
3.70091e-17
3.70122e-17
3.70739e-17
2.71278e-16
6.89506e-17
4.08451e-17
3.74352e-17
3.70504e-17
3.70123e-17