/*--------------------------------*- C++ -*----------------------------------*\
| =========                 |                                                 |
| \\      /  F ield         | OpenFOAM: The Open Source CFD Toolbox           |
|  \\    /   O peration     | Version:  v2106                                 |
|   \\  /    A nd           | Website:  www.openfoam.com                      |
|    \\/     M anipulation  |                                                 |
\*---------------------------------------------------------------------------*/
FoamFile
{
    version     2.0;
    format      ascii;
    arch        "LSB;label=32;scalar=64";
    class       volScalarField;
    location    "0.000207";
    object      epsilon;
}
// * * * * * * * * * * * * * * * * * * * * * * * * * * * * * * * * * * * * * //

dimensions      [0 2 -3 0 0 0 0];

internalField   nonuniform List<scalar> 
18109
(
2026.68
1526.93
1144.72
881.035
714.027
643.585
676.557
945.053
711.302
530.165
399.151
311.608
266.009
263.479
440.278
317.125
232.63
171.198
129.496
105.994
100.504
205.953
136.133
96.6529
69.1236
50.7356
40.1501
36.9697
96.6354
56.548
38.0196
26.2122
18.6583
14.3548
13.0051
46.3105
23.1075
14.2194
9.32813
6.42538
4.82825
4.36995
24.4571
9.88598
5.19756
3.14018
2.07408
1.52893
1.41748
16.5127
5.23536
2.06701
1.04201
0.635231
0.461075
0.462435
1832.39
1395.77
1050.74
802.347
634.573
545.451
536.993
629.291
862.588
1284.56
1934.32
2849.65
4163.66
6117.32
829.61
637.279
478.004
359.052
276.064
227.584
213.804
241.829
331.479
515.857
835.652
1336.36
2118.79
3360.69
369.355
277.008
205.326
151.299
113.398
90.4072
82.1501
90.9153
125.636
204.674
357.355
625.555
1086.42
1886.67
162.176
115.166
83.3528
59.9033
43.7461
33.8998
30.1353
33.1883
47.1666
81.8373
156.055
303.063
584.218
1125.89
70.1518
45.8807
31.9456
22.249
15.8145
11.9556
10.5109
11.7877
17.8409
34.0964
72.6373
158.301
340.815
727.273
30.6596
17.7206
11.5785
7.74597
5.35174
3.96226
3.4936
4.14001
7.04913
15.4759
37.4854
91.518
217.667
504.468
14.9333
7.00238
4.04116
2.53903
1.69631
1.23636
1.12221
1.50104
3.08426
7.99455
21.9156
58.8302
151.045
370.897
9.81874
3.35854
1.47644
0.805105
0.507679
0.367608
0.364745
0.614025
1.60217
4.83901
14.5897
41.8634
113.1
287.916
9.72682
2.52598
0.726107
0.281316
0.15449
0.115876
0.144651
0.335618
1.06704
3.54259
11.2599
33.467
92.765
240.189
12.6845
2.93224
0.640996
0.174564
0.0899074
0.0881514
0.139562
0.336483
1.0357
3.37108
10.6163
31.3998
86.7299
223.684
18.3479
4.19471
0.939638
0.314232
0.234134
0.279791
0.408523
0.738744
1.70405
4.63527
13.2144
36.8302
97.7452
244.381
27.9814
7.00547
2.01612
1.01256
0.926531
1.12559
1.54419
2.37862
4.28733
9.18773
22.0692
54.9802
135.279
319.13
45.3908
13.9922
5.52934
3.56039
3.44591
4.13456
5.50737
7.94833
12.5958
22.5924
45.6031
99.1244
220.965
482.38
81.3356
33.2593
16.5612
11.855
11.5813
13.7153
17.9545
25.0747
37.093
59.2855
103.376
195.186
388.742
778.417
4333.16
7304.41
12250.4
20608.7
35424.9
64176
3976.09
6781.67
11468.8
19293.5
32730.5
57164.4
2894.85
5290.34
9503.27
16951.1
30696.4
58097.2
2179.24
4251.87
8100.33
15385.1
30133.1
63335
1697.05
3534.83
7230.02
14949
32653.2
78138.2
1392.49
3124.15
6976.3
16113.1
40041
107803
1265.62
3098.15
7685.69
19922.3
55015.9
156251
1326.67
3531.24
9578.01
26782.7
76853.8
217018
1621.27
4517.93
12689.8
35893.7
100793
270723
2213.3
6086.25
16684.7
45464.9
121407
304992
3128.81
8021.53
20507
52143.3
129679
300140
4370.16
10163.8
23650.1
54990.9
125820
269033
5937.34
12335.3
25805.6
54397.9
113711
224987
7991.64
14779.5
27727.6
52858.3
100487
183336
10939.1
18114.6
30491.6
52004.2
88269.6
146368
6936.88
11414.5
21087.9
38831.4
68295.7
113271
4389.12
7964.44
15655
29214.1
51607.7
89808.1
2961.93
5942.32
11996.6
22597.2
41004.1
77093.9
2125.68
4532.52
9256.85
17707.4
33302.3
67879.4
1575.55
3472.78
7198.93
14135.6
27813.7
62574.4
1185.01
2668.48
5640.14
11403.9
23382
56815.8
905.998
2075.46
4483.93
9345.02
20080.6
53115.4
713.51
1655.5
3649.62
7823.85
17548.1
50442.8
594.443
1386.75
3101.16
6807.77
15962.9
50651.6
544.153
1259.06
2817.86
6266.53
15201.3
50615.8
571.765
1283.02
2814.78
6218.57
15184.8
49404.1
700.167
1479.97
3098.75
6610.95
15539
45781.3
970.506
1887.79
3682.9
7373.73
16040.4
41441.6
1417.86
2516.44
4518.05
8326.24
16351.5
36116.5
1248.96
2032.53
3537.03
6597.33
13106
28046.5
805.04
1481.97
2798.71
5571.82
11408.2
24451.4
484.475
1043.09
2216.59
4721.28
9927.69
21476
303.153
747.524
1729.18
3843.97
8297.18
18501.9
199.088
537.073
1316.25
3051.15
6832.38
15955.7
134.115
380.772
976.628
2360.88
5497.09
13444.1
92.0136
268.702
716.705
1808.77
4400.18
11274.6
64.235
190.182
523.771
1377.82
3500.62
9413.26
47.3873
140.902
396.354
1078.19
2858.02
8145.46
40.0289
118.447
332.902
915.347
2496.32
7567.33
43.3089
126.223
343.822
923.296
2521.67
7901.03
60.2578
170.809
447.232
1147.8
3008.44
9046.8
92.6138
248.59
640.463
1583.75
3885.48
10544.6
139.854
343.847
871.16
2091.47
4830.02
11845.4
433.776
1365.15
4155.19
11894.8
31895.9
80224.5
767.449
2090.44
5534.17
13859.2
32755.2
73036.1
1361.24
3169.79
7216.14
15820.7
33373.4
67733.4
2445.2
4859.69
9501.52
18298.7
34850.1
65697
206.182
519.495
1251.62
2857.16
6183.28
13860.7
143.039
409.61
1052.65
2524.83
5833.02
13826.4
97.9507
304.524
831.137
2093.68
5112.04
13043
66.7196
218.144
632.42
1701.64
4465.32
12436.9
46.313
157.356
485.303
1426.37
4197.65
13698.6
34.9561
124.112
413.812
1364.16
4651.82
17482.6
32.7348
122.268
449.387
1672.49
6410.73
25492
42.8874
165.388
647.243
2533.89
9838.81
37443.1
75.013
283.673
1087.83
4066.97
14649.1
50238.9
148.951
523.285
1835.35
6159.83
19589.3
58543.6
298.639
939.025
2911.46
8554.65
23624.3
61083.3
581.188
1595.75
4310.59
11043.8
26650.4
60328.4
1113.2
2629.01
6114.54
13666.1
29180.3
59298
2118.94
4273.7
8505.68
16604
31752.6
59066
100683
508230
1.80645e+06
1.3938e+06
872769
114267
610326
1.99901e+06
1.35253e+06
843700
145559
765068
2.13908e+06
1.29984e+06
851189
205600
983274
2.21527e+06
1.27541e+06
888148
303538
1.25614e+06
2.19619e+06
1.22894e+06
911507
428996
1.50377e+06
2.06286e+06
1.16031e+06
926316
559233
1.64268e+06
1.91774e+06
1.1011e+06
952196
638972
1.6123e+06
1.8178e+06
1.11122e+06
1.00003e+06
1.24776e+06
658823
1.49588e+06
1.75734e+06
1.15862e+06
1.04108e+06
1.32449e+06
594672
1.27006e+06
1.66352e+06
1.18067e+06
1.03418e+06
1.36686e+06
493461
1.03455e+06
1.5913e+06
1.20304e+06
987405
1.35045e+06
2.08247e+06
384607
812106
1.54756e+06
1.26954e+06
941328
1.21251e+06
2.32474e+06
3.85242e+06
290146
631345
1.57203e+06
1.40414e+06
952290
1.01143e+06
2.13678e+06
6.84413e+06
220906
527651
1.73909e+06
1.63041e+06
1.0758e+06
971923
1.36243e+06
4.32544e+06
182806
534681
2.01826e+06
1.87092e+06
1.21343e+06
1.0132e+06
1.3155e+06
4.78935e+06
170976
588561
2.38109e+06
2.03129e+06
1.23718e+06
1.05113e+06
1.40369e+06
3.84315e+06
172325
702393
2.79977e+06
2.1131e+06
1.27007e+06
1.1334e+06
1.44688e+06
4.89821e+06
179276
889724
3.22566e+06
2.24569e+06
1.37113e+06
1.24571e+06
1.37052e+06
2.11692e+06
187746
1.14125e+06
3.48809e+06
2.27814e+06
1.37144e+06
1.28105e+06
1.38734e+06
1.47522e+06
196554
1.36364e+06
3.38099e+06
2.1331e+06
1.26103e+06
1.27059e+06
1.42528e+06
1.39257e+06
214738
1.51075e+06
3.12282e+06
1.953e+06
1.19299e+06
1.3058e+06
1.53542e+06
2.42657e+06
234937
1.52989e+06
2.918e+06
1.93546e+06
1.24036e+06
1.3961e+06
1.74616e+06
1.73289e+06
248979
1.41362e+06
2.66344e+06
1.97123e+06
1.28709e+06
1.47866e+06
240120
1.16965e+06
2.25778e+06
1.94843e+06
1.31548e+06
1.49117e+06
208038
873398
1.75588e+06
1.87333e+06
1.30619e+06
1.44703e+06
170686
617243
1.29682e+06
1.81279e+06
1.32261e+06
1.30082e+06
139946
439551
993807
1.78608e+06
1.43858e+06
1.14809e+06
115157
334400
879143
1.90465e+06
1.70541e+06
96986.1
275397
900466
2.22881e+06
2.00714e+06
84426
241903
1.01917e+06
2.63333e+06
2.12409e+06
74979.1
226004
1.26952e+06
3.05817e+06
2.15496e+06
66629.7
226641
1.71118e+06
3.6429e+06
2.31274e+06
59542.7
238477
2.2739e+06
4.07596e+06
2.26343e+06
52828
262960
2.72472e+06
4.00103e+06
1.93046e+06
47411.3
302866
2.88047e+06
3.58301e+06
1.67296e+06
43903
343822
2.77978e+06
3.21574e+06
1.59258e+06
43163.1
365775
2.41638e+06
2.85649e+06
1.52078e+06
44785.1
348812
1.82409e+06
2.40394e+06
1.39338e+06
48632.6
312367
1.30351e+06
1.98442e+06
1.29265e+06
53357.5
272388
948310
1.65124e+06
1.23556e+06
57178.9
240241
772939
1.49182e+06
1.21666e+06
58882.5
219106
751460
1.54442e+06
1.26474e+06
58336.8
208150
856674
1.73228e+06
1.30966e+06
55990
209615
1.08784e+06
1.91283e+06
1.2402e+06
53274.6
229798
1.48963e+06
2.05449e+06
1.17077e+06
51904
274199
2.05428e+06
2.17696e+06
1.15439e+06
56055.6
346194
2.67202e+06
2.1764e+06
1.07241e+06
71935.5
441282
3.04291e+06
1.98387e+06
932746
100327
559720
2.99116e+06
1.73345e+06
835543
133433
669927
2.71092e+06
1.59976e+06
816906
156402
696786
2.40045e+06
1.52058e+06
808320
155686
620228
2.03081e+06
1.42462e+06
787592
138945
507301
1.72304e+06
1.35561e+06
770071
118871
421555
1.51165e+06
1.3132e+06
778663
104872
405499
1.46362e+06
1.31156e+06
819322
98541.8
442377
1.59102e+06
1.35784e+06
862731
1682.23
1286.82
973.309
742.049
581.295
488.433
463.426
518.585
688.591
1021.43
1567.71
2376.84
3590.75
5434.12
740.521
573.738
432.091
324.813
248.756
202.285
185.231
201.702
267.942
413.31
679.583
1116.33
1825.4
2976.79
317.381
242.725
180.696
133.426
99.9942
79.1333
70.6949
75.9212
102.114
164.967
292.056
524.844
939.305
1680.08
132.655
97.7864
71.271
51.419
37.6785
29.1168
25.6039
27.553
38.3737
66.3738
128.705
256.806
510.664
1016.88
54.0276
37.5469
26.4955
18.5765
13.2944
10.0608
8.78986
9.69259
14.5093
27.9068
60.8109
136.404
303.096
668.828
22.0097
13.8537
9.29179
6.29042
4.39216
3.26637
2.87365
3.37162
5.74996
12.8562
32.0297
80.5223
197.398
472.055
9.96337
5.1387
3.11342
2.00232
1.35979
0.999253
0.909345
1.21726
2.54535
6.78314
19.16
52.8847
139.618
352.603
6.27822
2.25331
1.06327
0.610438
0.397059
0.291914
0.292839
0.501553
1.34885
4.19955
13.0262
38.3545
106.313
277.555
6.29955
1.5642
0.463158
0.197178
0.117207
0.0914084
0.117049
0.279252
0.91565
3.12747
10.2099
31.1155
88.3904
234.261
8.47102
1.77258
0.368758
0.111595
0.0695288
0.0739133
0.118237
0.286107
0.896623
2.99406
9.68692
29.4092
83.2568
219.579
12.6344
2.59345
0.562334
0.223585
0.198454
0.247799
0.360721
0.644903
1.48783
4.11939
12.0523
34.5212
93.9472
240.101
20.0277
4.61377
1.37311
0.808376
0.814175
1.01568
1.39312
2.12699
3.80652
8.21032
20.1105
51.3887
129.631
312.513
34.3554
10.1965
4.23743
3.01323
3.08564
3.77952
5.04378
7.23955
11.3908
20.432
41.7128
92.5273
211.112
470.718
65.9967
26.7168
13.645
10.389
10.5513
12.7213
16.7011
23.239
34.1637
54.4537
95.3558
182.44
370.454
756.744
1525.48
1160.67
879.67
667.534
518.657
422.422
378.86
384.149
461.472
649.023
1014.24
1633.92
2661.89
4317.33
625.285
479.946
362.176
271.743
207.645
165.831
146.089
146.641
178.112
259.655
430.617
746.301
1308.84
2283.15
248.644
187.683
139.667
103.029
77.4165
60.778
52.9274
53.0996
66.0695
101.516
181.622
344.01
661.95
1282.17
95.3218
69.4153
50.4507
36.3928
26.8849
20.7903
17.9934
18.256
23.7985
39.76
79.0934
167.664
361.97
793.025
35.045
24.2521
17.0659
11.9834
8.69861
6.63786
5.74516
6.0079
8.55041
16.3433
37.5209
90.738
221.031
540.363
12.6379
8.0424
5.41031
3.68035
2.62287
1.97973
1.73279
1.94053
3.24001
7.51799
20.2961
55.6573
150.001
395.933
5.06892
2.64131
1.62272
1.05614
0.737352
0.553184
0.502826
0.654987
1.41465
4.09181
12.7272
38.4482
111.249
307.599
3.1228
1.03544
0.487265
0.286898
0.194317
0.14698
0.149004
0.26143
0.771095
2.66678
9.12858
29.3744
88.7931
251.733
3.45861
0.709866
0.186244
0.0812951
0.0526824
0.0437456
0.0585057
0.150486
0.551211
2.0943
7.532
25.064
77.3207
220.947
5.1833
0.875386
0.149107
0.0489422
0.0396548
0.0470588
0.0737437
0.174014
0.573093
2.09431
7.44497
24.6802
75.5984
213.545
8.48999
1.43652
0.279867
0.139139
0.148494
0.192826
0.272543
0.461017
1.04133
3.0267
9.60617
29.9405
87.7393
238.614
14.8065
2.94924
0.865335
0.596542
0.657442
0.842148
1.14204
1.68935
2.93012
6.38882
16.5258
45.4307
122.788
313.543
27.8624
7.56438
3.14193
2.43729
2.62174
3.27612
4.34766
6.12534
9.41466
16.8224
35.3332
82.8235
201.087
473.425
57.1405
22.5258
11.3401
9.05793
9.43521
11.5367
15.0862
20.727
29.9476
47.3484
83.5948
165.127
351.911
755.732
1392.56
1047.64
789.05
594.136
461.065
371.11
325.848
313.312
352.809
467.73
719.776
1187.48
2040.09
3496.25
525.202
393.711
295.816
220.78
169.482
134.611
117.416
112.887
129.499
178.131
290.31
512.838
947.697
1762.73
192.183
139.711
103.48
76.0276
57.6524
45.1294
39.1702
37.8866
44.8732
65.3989
115.785
225.115
462.894
986.495
67.4252
46.7687
33.8436
24.3044
18.1611
13.9959
12.1066
11.8717
14.8298
23.7828
47.7788
106.39
251.773
623.761
22.5989
14.7677
10.3554
7.22086
5.30028
4.01438
3.47041
3.50459
4.82957
9.13067
21.9956
57.768
157.796
440.265
7.49415
4.43297
2.96547
1.99542
1.43447
1.06617
0.92813
1.00467
1.67401
4.0653
12.0255
36.7423
111.967
335.07
2.955
1.34509
0.803846
0.514162
0.360176
0.262888
0.236341
0.304327
0.703445
2.26642
7.93116
26.9725
88.0127
272.703
2.10664
0.544824
0.222456
0.125282
0.0843699
0.0612799
0.0618466
0.115701
0.394265
1.56559
6.07743
22.0334
74.5361
233.896
2.7454
0.45373
0.0883924
0.0332322
0.0216857
0.018167
0.025324
0.0721686
0.305246
1.33221
5.43572
20.3043
69.3432
216.283
4.56063
0.669684
0.0903293
0.0277433
0.0259447
0.0330896
0.0497317
0.108127
0.362863
1.46612
5.83611
21.4727
71.7794
217.868
8.15366
1.25421
0.213545
0.108964
0.122805
0.163305
0.226935
0.362823
0.785047
2.37167
8.1899
27.8612
87.7491
252.646
15.6114
2.86139
0.759414
0.523181
0.58308
0.755738
1.01999
1.47598
2.48454
5.44876
14.8388
43.7762
126.21
339.052
31.1608
7.822
3.02482
2.32119
2.46906
3.08393
4.0628
5.65522
8.54174
15.2151
32.7803
80.9949
208.703
516.407
62.9421
24.6008
11.897
9.32789
9.45573
11.45
14.7883
20.0963
28.698
45.1812
80.2223
162.681
361.965
816.185
1081.09
802.088
601.695
453.475
358.125
289.981
255.032
240.218
260.752
328.278
493.276
817.579
1487.08
2683.66
371.372
268.934
201.211
150.823
118.57
95.3367
83.7266
79.4249
88.1672
115.833
186.017
333.561
659.934
1347.03
123.799
84.4408
62.1525
45.9709
35.8825
28.5917
25.13
24.1202
27.6661
38.7712
68.9094
139.898
319.271
789.077
39.3641
24.7633
17.7272
12.8384
9.92444
7.82167
6.88711
6.71862
8.1102
12.696
26.5705
64.9346
177.854
522.092
12.0125
6.78092
4.66232
3.28251
2.50531
1.94839
1.72122
1.72818
2.31251
4.46778
11.9595
36.3879
117.581
385.667
3.94011
1.79251
1.13288
0.767045
0.576025
0.441628
0.393852
0.424117
0.713646
1.94183
6.79803
24.6914
88.5875
305.374
2.01635
0.563388
0.265451
0.164336
0.120323
0.0911075
0.0842102
0.111466
0.293157
1.15759
4.89788
19.7171
74.3959
259.976
2.19326
0.371092
0.0798417
0.0340003
0.0231497
0.0176375
0.0188677
0.0414699
0.180541
0.890171
4.12287
17.3836
66.5801
230.793
3.41985
0.498479
0.058375
0.0108255
0.00667697
0.00665262
0.0101015
0.0323107
0.164799
0.862824
4.10375
17.4235
65.8432
222.22
6.0784
0.893924
0.0981171
0.0201842
0.0187612
0.0246791
0.0349945
0.0686353
0.233018
1.05595
4.75408
19.4362
70.5346
227.821
11.2729
1.78808
0.251698
0.0967393
0.104029
0.136501
0.184166
0.280019
0.587557
1.86808
7.08862
26.3796
89.0804
270.013
21.6187
3.99514
0.861194
0.49277
0.522043
0.663694
0.876165
1.23589
2.02947
4.50177
13.0314
41.6237
128.931
365.297
40.9188
9.97092
3.3947
2.34173
2.35779
2.86827
3.6833
5.0271
7.45288
13.2178
29.2967
77.0223
212.965
557.954
75.5024
29.3149
13.8531
10.1691
9.7036
11.3906
14.2765
19.0107
26.722
41.775
74.466
155.48
363.351
868.491
478.911
340.46
253.299
194.14
161.972
138.669
129.2
125.614
136.269
165.618
243.266
400.595
773.909
1513.43
148.338
98.9173
72.2448
54.4586
45.2543
38.8106
36.5864
36.3116
40.7479
52.3631
83.3304
153.142
334.488
796.06
45.0032
26.7579
18.966
13.958
11.4878
9.80645
9.32746
9.46516
11.1078
15.5436
28.3356
62.8541
168.677
505.555
13.5559
6.77268
4.57375
3.26306
2.64397
2.23356
2.13748
2.22568
2.80077
4.58318
10.5967
30.6316
101.891
356.446
4.37512
1.64714
1.01227
0.693661
0.55021
0.457595
0.440118
0.478716
0.70282
1.58444
5.17319
19.369
74.9607
283.932
2.08949
0.476767
0.213518
0.133852
0.102957
0.0840438
0.0819555
0.100772
0.21618
0.784455
3.43846
15.0112
62.3381
241.259
1.89458
0.289264
0.0575868
0.024313
0.0172481
0.013826
0.0144895
0.0267658
0.108724
0.56964
2.89498
13.5108
57.3889
220.509
2.74906
0.391708
0.0426855
0.00601325
0.00284533
0.00234352
0.00339753
0.0134834
0.0850667
0.514882
2.76316
13.1382
55.3963
207.246
4.59952
0.680475
0.0676933
0.00578769
0.0022902
0.00276084
0.00444431
0.015382
0.0921977
0.561399
3.02005
14.1754
58.0602
208.824
8.32647
1.31831
0.141236
0.018001
0.0131346
0.0172617
0.0234328
0.0423273
0.145889
0.735593
3.68308
16.4161
63.8264
217.643
15.4982
2.66905
0.349471
0.0843879
0.0784148
0.101557
0.133606
0.194708
0.40158
1.36128
5.67129
22.8475
82.2702
262.788
29.1415
5.70659
1.06408
0.437328
0.419189
0.520402
0.670221
0.918669
1.47198
3.32682
10.336
35.7543
118.437
354.476
53.0758
12.9323
3.8492
2.20511
2.05181
2.41261
3.00223
3.99866
5.81204
10.2983
23.7105
66.5636
196.744
547.975
90.4174
33.8076
15.8212
10.476
9.24591
10.4047
12.5351
16.2778
22.4916
34.961
62.9127
135.565
333.202
851.763
92.1392
61.4919
45.446
35.3059
31.1197
28.3021
28.4777
29.4583
33.4612
41.0131
60.5208
103.334
215.908
479.463
25.8218
15.4648
11.0304
8.30052
7.16754
6.47425
6.56322
6.94693
8.19529
10.7953
17.8443
36.1774
91.3277
258.935
7.56104
3.65556
2.45609
1.77957
1.49433
1.32978
1.35055
1.46089
1.81223
2.69537
5.52671
14.9421
49.2653
176.227
2.60549
0.850644
0.500128
0.345305
0.280404
0.244249
0.247336
0.274805
0.376472
0.729204
2.17284
8.13608
32.9163
133.083
1.32449
0.247787
0.0972798
0.060224
0.0468876
0.0398147
0.0402351
0.0480116
0.0883106
0.28886
1.28937
6.01516
27.2342
116.965
1.19761
0.161066
0.0266616
0.00990427
0.00691309
0.00570724
0.00594058
0.00953054
0.034535
0.187176
1.03144
5.29416
25.0761
109.034
1.51746
0.205937
0.0216669
0.00248089
0.00093569
0.000734499
0.000970131
0.00364986
0.0248759
0.166487
0.993904
5.3036
25.3938
109.009
2.35451
0.339048
0.0342907
0.00233584
0.000291457
0.000250373
0.00051101
0.00306994
0.0244204
0.173218
1.06266
5.69372
26.7863
111.012
3.86397
0.590754
0.0621861
0.0045336
0.00117151
0.00142803
0.00202759
0.00536848
0.0316269
0.213983
1.29018
6.73566
30.4888
120.549
6.7119
1.08676
0.125119
0.0136051
0.0078752
0.0102058
0.013276
0.0207987
0.0619803
0.319489
1.74371
8.51737
36.2042
134.644
11.973
2.07319
0.284756
0.0587712
0.0492871
0.0629465
0.0806873
0.110784
0.205672
0.665496
2.90719
12.6621
49.607
172.477
22.3936
4.3331
0.836304
0.311585
0.281519
0.341923
0.428997
0.567564
0.859108
1.83117
5.69429
20.7365
73.5209
237.892
42.0616
9.96
3.05389
1.68397
1.50795
1.72453
2.07633
2.68087
3.76686
6.42332
14.5108
41.6624
129.429
388.076
78.1333
28.6703
13.8478
8.91791
7.53728
8.19969
9.47863
11.939
16.0818
24.4408
43.0481
91.9732
230.181
626.945
6.77043
4.23667
3.06209
2.34097
2.05718
1.92027
2.02564
2.25223
2.77322
3.66342
5.78851
10.7332
24.3062
61.123
1.78424
0.956073
0.658868
0.484194
0.407639
0.369449
0.384908
0.432816
0.551956
0.799118
1.49105
3.53937
10.3844
33.8038
0.553636
0.206914
0.128044
0.090143
0.0727588
0.0637423
0.0651995
0.0739843
0.100374
0.17717
0.465493
1.59983
6.19689
24.6351
0.272586
0.0547694
0.0232059
0.0148373
0.0114645
0.00971214
0.00975123
0.0114357
0.0190267
0.0540951
0.226037
1.02916
4.62051
20.0689
0.238486
0.0325701
0.00577177
0.00225723
0.00156338
0.00128025
0.00129073
0.0018651
0.0058737
0.0305716
0.168282
0.869233
4.21304
19.3508
0.306391
0.0409131
0.00447474
0.000541396
0.000193036
0.000145098
0.000172662
0.000558165
0.00370967
0.0251444
0.152681
0.839067
4.25013
19.9867
0.450896
0.0632597
0.00650055
0.000467883
4.33553e-05
2.3977e-05
5.44701e-05
0.000400068
0.00339128
0.0249147
0.159517
0.911849
4.71592
22.1493
0.726211
0.105785
0.0108454
0.000732722
9.12985e-05
8.90371e-05
0.000136599
0.000508751
0.00377336
0.0281934
0.185373
1.07271
5.50488
25.163
1.18901
0.179861
0.0189696
0.0015337
0.000572424
0.000725276
0.000936792
0.00157341
0.00606772
0.0388222
0.246922
1.39395
6.91152
30.2276
2.0207
0.319147
0.0372487
0.00520931
0.00391968
0.00512682
0.00651562
0.0087595
0.0174212
0.0695785
0.374085
1.94413
9.01659
37.0306
3.50879
0.59995
0.0907609
0.0262261
0.0248974
0.0316318
0.0398778
0.051447
0.0773643
0.184357
0.710061
3.15425
13.2907
50.6881
6.70689
1.36183
0.328357
0.158368
0.149593
0.178472
0.219051
0.278522
0.3814
0.660332
1.69244
5.81761
21.2499
73.8958
13.5975
3.9026
1.62655
1.05821
0.958494
1.06287
1.22316
1.50824
1.97421
2.96915
5.58129
14.0464
41.8682
129.69
31.7502
14.0546
8.12326
5.99171
5.34286
5.76004
6.4373
7.77492
9.87726
13.8958
21.7328
40.3209
88.504
229.816
0.370462
0.225446
0.159208
0.118747
0.0983213
0.0884934
0.091377
0.103339
0.131717
0.187138
0.324552
0.684737
1.75513
4.96379
0.0929429
0.0456596
0.0306285
0.0221269
0.017621
0.0152793
0.0153448
0.017181
0.0224472
0.0360522
0.0805705
0.23708
0.814162
2.91505
0.0344032
0.00969372
0.00518449
0.00353154
0.00271995
0.00229055
0.00224811
0.00252515
0.00369061
0.00853728
0.0308362
0.12996
0.549597
2.24101
0.0274672
0.00438837
0.00104789
0.000499545
0.000354303
0.00029056
0.000283256
0.000354609
0.000843318
0.00377424
0.019676
0.096901
0.441817
1.89696
0.0350049
0.00513279
0.000662719
0.000105184
4.13983e-05
3.07257e-05
3.26684e-05
7.63701e-05
0.000433674
0.00282249
0.0165213
0.0862213
0.412862
1.86306
0.0524726
0.00778141
0.000894162
8.14901e-05
8.7875e-06
3.37211e-06
6.15778e-06
4.20846e-05
0.000349127
0.00249592
0.0153746
0.0842393
0.423136
1.98824
0.0822202
0.0122895
0.00134369
0.000106443
9.03318e-06
4.13326e-06
7.32426e-06
4.05923e-05
0.000333688
0.00248021
0.016023
0.0920934
0.481178
2.31449
0.133027
0.0199119
0.00210262
0.000163101
3.09094e-05
3.26278e-05
4.23098e-05
8.19193e-05
0.000402892
0.00283013
0.0187534
0.110928
0.58851
2.82247
0.214823
0.0324146
0.00344401
0.000352026
0.000194289
0.000251836
0.000316169
0.000417886
0.000901979
0.00426438
0.0260367
0.150813
0.784398
3.65454
0.351061
0.0548197
0.00664145
0.00136383
0.00128876
0.00169505
0.0021249
0.00264625
0.00387039
0.00989631
0.0444753
0.229376
1.1133
4.89046
0.599613
0.105854
0.0193895
0.00819493
0.00848549
0.0106712
0.013198
0.0164184
0.0216519
0.0373311
0.105718
0.424914
1.80574
7.24171
1.11994
0.266864
0.088291
0.0552114
0.0556118
0.0661888
0.0797171
0.098511
0.125992
0.183094
0.351034
0.975795
3.30954
11.57
2.3364
0.838762
0.427424
0.315621
0.306575
0.345767
0.4015
0.488061
0.615588
0.846072
1.34121
2.74106
7.13996
21.3379
5.9809
3.08203
1.98198
1.60201
1.53357
1.67293
1.87857
2.23881
2.77191
3.70142
5.34561
8.82894
17.0714
40.8233
0.0277608
0.0165194
0.0114654
0.00836059
0.0065862
0.00562148
0.00548255
0.00595554
0.00739605
0.0108917
0.0208747
0.0511788
0.149637
0.473304
0.00691728
0.00297908
0.00189333
0.0013346
0.00102467
0.000854128
0.000814273
0.000870259
0.0011144
0.00199199
0.00554173
0.0199582
0.0770182
0.293825
0.00355572
0.000780704
0.000300334
0.000179446
0.000131876
0.000108108
0.000102042
0.000112389
0.000184791
0.000593108
0.00273454
0.0128438
0.0564388
0.23193
0.00406438
0.000674543
0.000113828
2.85831e-05
1.46555e-05
1.12454e-05
1.08823e-05
1.62649e-05
6.05091e-05
0.00035267
0.00200182
0.0101227
0.0461824
0.195166
0.00591901
0.000964888
0.000133391
1.66676e-05
2.61448e-06
1.08179e-06
1.29482e-06
5.51405e-06
4.10339e-05
0.000284684
0.00170295
0.00891735
0.0421672
0.185571
0.008995
0.00142477
0.000182601
1.94947e-05
1.90235e-06
3.45026e-07
5.52581e-07
4.03187e-06
3.40118e-05
0.00024653
0.00153222
0.00837728
0.0415388
0.191542
0.0138591
0.00211505
0.000250838
2.42902e-05
2.7666e-06
1.35488e-06
1.75139e-06
4.97915e-06
3.25232e-05
0.000235386
0.00152283
0.00875262
0.045623
0.219357
0.0215057
0.00316259
0.000351489
3.4471e-05
9.52113e-06
1.03505e-05
1.28335e-05
1.77845e-05
4.80458e-05
0.00026993
0.00173077
0.0102704
0.0552067
0.270562
0.0330563
0.00474438
0.000524488
7.70332e-05
5.70569e-05
7.42499e-05
9.248e-05
0.000113097
0.000168415
0.00048745
0.00250343
0.0141927
0.0751365
0.362483
0.0516762
0.0076303
0.00102721
0.000328297
0.000356381
0.000468621
0.000585633
0.00071274
0.000913828
0.00159834
0.00509658
0.0236794
0.114541
0.519693
0.0850851
0.0153069
0.00359725
0.00210114
0.00237612
0.00302426
0.00375919
0.00462536
0.00577895
0.00819916
0.0164085
0.0521193
0.205753
0.827258
0.158931
0.0423318
0.0168536
0.0121359
0.0131095
0.015976
0.0195191
0.0239753
0.0298045
0.0396573
0.0626908
0.139399
0.419442
1.43222
0.34905
0.143968
0.0793047
0.0624959
0.0644638
0.0747846
0.0886427
0.107478
0.13292
0.173474
0.247929
0.434154
0.990212
2.80436
0.942896
0.525573
0.346339
0.290823
0.29212
0.325645
0.373115
0.443148
0.541575
0.699806
0.957583
1.46004
2.57616
5.74184
0.00339735
0.00192208
0.0013081
0.000937946
0.00072264
0.000604228
0.000572588
0.000601748
0.000720734
0.00106662
0.00219023
0.00599641
0.0192512
0.0650184
0.000949707
0.000343989
0.000196656
0.000133161
0.000100162
8.26246e-05
7.73481e-05
8.0711e-05
0.00010244
0.000201227
0.000659254
0.00267272
0.0109686
0.0429325
0.000688251
0.000138863
3.75684e-05
1.70295e-05
1.14057e-05
9.2085e-06
8.64126e-06
9.72508e-06
1.85955e-05
7.43149e-05
0.00038308
0.00188298
0.00843481
0.0346376
0.000925679
0.000167962
2.78245e-05
4.85951e-06
1.41464e-06
8.74182e-07
8.52704e-07
1.60812e-06
7.86686e-06
5.01599e-05
0.000294307
0.00151446
0.00696424
0.0291955
0.00137726
0.000244337
3.74296e-05
4.98907e-06
6.31037e-07
1.30656e-07
1.37719e-07
7.46561e-07
5.86669e-06
4.13326e-05
0.000251003
0.00132764
0.00628875
0.0272815
0.00203739
0.000344076
4.91109e-05
5.98278e-06
6.62968e-07
1.17759e-07
1.22299e-07
6.24833e-07
4.92236e-06
3.55596e-05
0.000222826
0.00122427
0.00605131
0.0274616
0.00302594
0.000481849
6.33196e-05
7.14594e-06
9.62599e-07
4.81286e-07
5.62619e-07
1.06036e-06
4.98414e-06
3.3719e-05
0.000216728
0.00124508
0.00646177
0.0307554
0.00449088
0.000674986
8.27443e-05
9.77467e-06
3.12642e-06
3.37981e-06
4.14632e-06
5.20417e-06
9.73175e-06
4.08023e-05
0.000243685
0.00143021
0.00767097
0.0376483
0.00658102
0.000948194
0.000116501
2.1729e-05
1.75787e-05
2.28036e-05
2.8369e-05
3.40106e-05
4.43465e-05
9.14265e-05
0.000373126
0.00199754
0.0104838
0.0510109
0.00983508
0.00145609
0.000227072
9.15624e-05
0.000104622
0.000137787
0.000172458
0.000208801
0.00025582
0.000375637
0.000898108
0.00359249
0.0166995
0.0760087
0.0157431
0.0029344
0.000797731
0.000527655
0.000622019
0.000799296
0.000998123
0.0012224
0.00149325
0.00197133
0.00331461
0.00880014
0.0320064
0.127019
0.0300115
0.00855129
0.00367043
0.00282105
0.00318029
0.00393716
0.00485126
0.00594131
0.00726981
0.009304
0.0134148
0.0260535
0.0708539
0.234452
0.0698917
0.0300018
0.01675
0.0136339
0.0146155
0.0172911
0.0207845
0.0252269
0.0308593
0.0392306
0.0532072
0.0856225
0.178325
0.482173
0.194651
0.107843
0.070464
0.0599183
0.0620055
0.0703384
0.0819334
0.0976482
0.11869
0.15077
0.200091
0.291291
0.4845
1.03113
0.000453771
0.000229699
0.000150527
0.000106174
8.09045e-05
6.73118e-05
6.29622e-05
6.42458e-05
7.33263e-05
0.000106698
0.000232243
0.000705268
0.00245316
0.00873042
0.000164466
4.73326e-05
2.18669e-05
1.36609e-05
1.00794e-05
8.33964e-06
7.79675e-06
8.02356e-06
1.01382e-05
2.1916e-05
8.23538e-05
0.000363226
0.00155113
0.00616645
0.00016386
3.30086e-05
6.92891e-06
2.0624e-06
1.09807e-06
8.50533e-07
8.03661e-07
9.46047e-07
2.13077e-06
9.94579e-06
5.45194e-05
0.000274856
0.00124411
0.00510265
0.000238482
4.69675e-05
8.14387e-06
1.29358e-06
2.4137e-07
9.51326e-08
8.76622e-08
1.97704e-07
1.10529e-06
7.29133e-06
4.34633e-05
0.000226139
0.00104553
0.00436298
0.000352498
6.76847e-05
1.12465e-05
1.6133e-06
2.13096e-07
3.82796e-08
2.86622e-08
1.17629e-07
8.67926e-07
6.09118e-06
3.73022e-05
0.000198857
0.000943886
0.00405331
0.000505702
9.21201e-05
1.43625e-05
1.91765e-06
2.38924e-07
4.77425e-08
3.85506e-08
1.12809e-07
7.43033e-07
5.24447e-06
3.29619e-05
0.000181774
0.000896485
0.00401053
0.000722619
0.000123622
1.78659e-05
2.23718e-06
3.31254e-07
1.60552e-07
1.76639e-07
2.59526e-07
8.37903e-07
5.01498e-06
3.16367e-05
0.0001811
0.000934346
0.00438588
0.00102567
0.00016486
2.23833e-05
2.96072e-06
9.67257e-07
1.01352e-06
1.23138e-06
1.47595e-06
2.20489e-06
6.73093e-06
3.57938e-05
0.000204925
0.00108891
0.00529737
0.00143351
0.000220035
3.01681e-05
6.24952e-06
5.04826e-06
6.50291e-06
8.06566e-06
9.54202e-06
1.16246e-05
1.89989e-05
5.9847e-05
0.000291664
0.00149418
0.00722227
0.00203732
0.000320991
5.58589e-05
2.44667e-05
2.82757e-05
3.73151e-05
4.65484e-05
5.56649e-05
6.60784e-05
8.73039e-05
0.000167424
0.000563493
0.00246603
0.0110727
0.00314352
0.000619016
0.000179859
0.000125484
0.000152039
0.000197349
0.0002463
0.000298812
0.000357278
0.000448498
0.000669832
0.00151831
0.00503353
0.0194302
0.00604113
0.00179647
0.000793608
0.000638116
0.000745066
0.000937555
0.00115921
0.00140924
0.00169426
0.00209516
0.00282263
0.004896
0.0120362
0.0380625
0.0147049
0.00631155
0.00351344
0.00294813
0.00327372
0.00395542
0.00479695
0.00580333
0.00699987
0.00865763
0.011231
0.0167951
0.032177
0.0822772
0.0416038
0.0223095
0.0143554
0.0124121
0.0132434
0.0153542
0.0181219
0.0216244
0.0260443
0.0323759
0.041621
0.0577998
0.0911515
0.184487
6.7811e-05
2.82222e-05
1.70058e-05
1.16835e-05
8.86919e-06
7.46067e-06
7.023e-06
7.03753e-06
7.62487e-06
1.06783e-05
2.43447e-05
8.13363e-05
0.000303333
0.00112536
3.41161e-05
8.03156e-06
2.68292e-06
1.40046e-06
9.92778e-07
8.33644e-07
7.95095e-07
8.20823e-07
1.03908e-06
2.43629e-06
1.01442e-05
4.74774e-05
0.000208876
0.000841909
4.18417e-05
8.6423e-06
1.65159e-06
3.50962e-07
1.27185e-07
8.77841e-08
8.41343e-08
1.03956e-07
2.58493e-07
1.29697e-06
7.33296e-06
3.76586e-05
0.000172418
0.000710151
6.26988e-05
1.30378e-05
2.36766e-06
3.84572e-07
6.70794e-08
2.23797e-08
1.87483e-08
3.36397e-08
1.56427e-07
9.96693e-07
5.96675e-06
3.13979e-05
0.000146595
0.000613983
9.12373e-05
1.85284e-05
3.25486e-06
4.99262e-07
7.55563e-08
1.90603e-08
1.41086e-08
2.60042e-08
1.27974e-07
8.40019e-07
5.13926e-06
2.76526e-05
0.00013231
0.000568171
0.000127414
2.46545e-05
4.08427e-06
5.86672e-07
8.42123e-08
2.25264e-08
1.78935e-08
2.80187e-08
1.13832e-07
7.26581e-07
4.52832e-06
2.51017e-05
0.000124308