/*--------------------------------*- C++ -*----------------------------------*\
| =========                 |                                                 |
| \\      /  F ield         | OpenFOAM: The Open Source CFD Toolbox           |
|  \\    /   O peration     | Version:  v2106                                 |
|   \\  /    A nd           | Website:  www.openfoam.com                      |
|    \\/     M anipulation  |                                                 |
\*---------------------------------------------------------------------------*/
FoamFile
{
    version     2.0;
    format      ascii;
    arch        "LSB;label=32;scalar=64";
    class       volScalarField;
    location    "0.000139";
    object      alphat;
}
// * * * * * * * * * * * * * * * * * * * * * * * * * * * * * * * * * * * * * //

dimensions      [1 -1 -1 0 0 0 0];

internalField   nonuniform List<scalar> 
18109
(
5.27127e-07
2.43779e-07
1.28827e-07
6.39172e-08
3.83533e-08
2.81767e-08
2.4023e-08
1.36915e-07
4.71419e-08
1.791e-08
6.27727e-09
3.20374e-09
2.57662e-09
2.62909e-09
1.0054e-07
3.32063e-08
1.06629e-08
3.33344e-09
9.90908e-10
3.44901e-10
2.40317e-10
1.58236e-07
5.98085e-08
2.1038e-08
6.45023e-09
1.6588e-09
3.52234e-10
6.80456e-11
2.26867e-07
8.77783e-08
2.9758e-08
8.65544e-09
2.11015e-09
4.21277e-10
6.65635e-11
2.92434e-07
1.06954e-07
3.41624e-08
9.37571e-09
2.16634e-09
4.10825e-10
6.16428e-11
3.76791e-07
1.28095e-07
3.78872e-08
9.62784e-09
2.06437e-09
3.64486e-10
5.2396e-11
4.99192e-07
1.57806e-07
4.32802e-08
1.02249e-08
2.045e-09
3.46198e-10
5.90535e-11
8.43602e-08
3.25951e-08
1.43e-08
6.8821e-09
4.85205e-09
4.32145e-09
4.16269e-09
3.98511e-09
3.67588e-09
3.02509e-09
1.96425e-09
9.8175e-10
5.71691e-10
2.41263e-09
2.84313e-08
8.0021e-09
2.24082e-09
7.01222e-10
3.64248e-10
3.31505e-10
3.7677e-10
4.29627e-10
4.61651e-10
4.37831e-10
3.17564e-10
1.69814e-10
2.45462e-10
2.33487e-09
3.23215e-08
9.86347e-09
2.92987e-09
8.09952e-10
1.99656e-10
5.26707e-11
3.05832e-11
3.5843e-11
4.4345e-11
4.81469e-11
3.90725e-11
2.79036e-11
1.74313e-10
2.1561e-09
5.33782e-08
1.81928e-08
5.55502e-09
1.46384e-09
3.24091e-10
5.93222e-11
9.64391e-12
3.07384e-12
3.29418e-12
4.07304e-12
3.80801e-12
6.72596e-12
1.07796e-10
1.52736e-09
7.32221e-08
2.48792e-08
7.3498e-09
1.85815e-09
3.93374e-10
6.83541e-11
9.45758e-12
1.07794e-12
2.44034e-13
2.5936e-13
2.98963e-13
2.39002e-12
5.83228e-11
8.94982e-10
9.24016e-08
2.96521e-08
8.24892e-09
1.96205e-09
3.9203e-10
6.43928e-11
8.44154e-12
8.6034e-13
7.81881e-14
2.13209e-14
2.65174e-14
7.83452e-13
2.70514e-11
4.67186e-10
1.1805e-07
3.50478e-08
9.01279e-09
1.98494e-09
3.68586e-10
5.64743e-11
7.10415e-12
8.45502e-13
1.9234e-13
9.51692e-14
5.4612e-14
2.98498e-13
1.15258e-11
2.29775e-10
1.54399e-07
4.23748e-08
1.00898e-08
2.06674e-09
3.58269e-10
5.27596e-11
7.95704e-12
2.4827e-12
1.58102e-12
1.05655e-12
6.47046e-13
4.97669e-13
5.78017e-12
1.19412e-10
2.02065e-07
5.17946e-08
1.14795e-08
2.18712e-09
3.59249e-10
6.15547e-11
2.22515e-11
1.672e-11
1.34927e-11
9.95302e-12
6.6656e-12
4.48535e-12
5.72215e-12
6.57171e-11
2.65731e-07
6.49035e-08
1.37022e-08
2.49943e-09
4.43531e-10
1.48597e-10
1.20181e-10
1.13356e-10
9.83497e-11
7.83543e-11
5.69888e-11
4.17639e-11
3.07992e-11
5.37252e-11
3.32704e-07
7.78452e-08
1.58835e-08
2.97078e-09
8.0989e-10
6.11342e-10
6.50737e-10
6.61392e-10
6.07105e-10
5.18762e-10
4.08834e-10
3.24879e-10
2.42061e-10
2.00843e-10
4.00503e-07
9.12044e-08
1.884e-08
4.35715e-09
2.41492e-09
2.66811e-09
3.08466e-09
3.3035e-09
3.20371e-09
2.9263e-09
2.49734e-09
2.12135e-09
1.65321e-09
1.2989e-09
4.61176e-07
1.04954e-07
2.39484e-08
8.96054e-09
8.52508e-09
1.05611e-08
1.27016e-08
1.4222e-08
1.45575e-08
1.42153e-08
1.31196e-08
1.17865e-08
9.61022e-09
7.59086e-09
5.89645e-07
1.45837e-07
4.15634e-08
2.51529e-08
2.92052e-08
3.71838e-08
4.58232e-08
5.32555e-08
5.75709e-08
6.03372e-08
5.99973e-08
5.66575e-08
4.83554e-08
3.88231e-08
1.83759e-06
5.54486e-06
1.27619e-05
2.34583e-05
3.61142e-05
4.85235e-05
3.63492e-07
1.4662e-06
4.37897e-06
1.01246e-05
1.90625e-05
3.01004e-05
2.96434e-07
1.40589e-06
4.5917e-06
1.10816e-05
2.09555e-05
3.27405e-05
2.03292e-07
1.14341e-06
4.1076e-06
1.0461e-05
2.02862e-05
3.1989e-05
1.11587e-07
8.04264e-07
3.24023e-06
8.81783e-06
1.78779e-05
2.90487e-05
6.90736e-08
5.13627e-07
2.29189e-06
6.74592e-06
1.45306e-05
2.46959e-05
4.97643e-08
3.54893e-07
1.62697e-06
4.99281e-06
1.12173e-05
1.98299e-05
3.94778e-08
2.57112e-07
1.1545e-06
3.60185e-06
8.32086e-06
1.51133e-05
3.15263e-08
1.84016e-07
7.88398e-07
2.44701e-06
5.7204e-06
1.05583e-05
2.39318e-08
1.23104e-07
4.94099e-07
1.507e-06
3.57682e-06
6.84392e-06
1.57636e-08
7.18355e-08
2.75153e-07
8.42093e-07
2.06627e-06
4.11302e-06
8.58096e-09
3.59963e-08
1.36489e-07
4.29219e-07
1.10356e-06
2.29197e-06
3.80685e-09
1.67543e-08
6.87964e-08
2.27376e-07
6.09635e-07
1.33876e-06
1.84575e-09
9.94493e-09
4.67978e-08
1.78666e-07
5.72101e-07
1.57015e-06
3.37231e-09
1.96307e-08
9.90035e-08
4.0602e-07
1.34993e-06
3.61361e-06
1.9159e-08
8.66618e-08
3.43919e-07
1.15271e-06
3.22077e-06
7.40529e-06
2.11287e-08
1.1549e-07
5.15832e-07
1.83688e-06
5.13162e-06
1.13202e-05
2.08016e-08
1.31119e-07
6.29957e-07
2.30386e-06
6.37868e-06
1.36741e-05
1.59259e-08
1.15614e-07
6.02787e-07
2.29494e-06
6.45452e-06
1.38755e-05
9.79072e-09
8.08912e-08
4.64233e-07
1.8892e-06
5.57056e-06
1.24442e-05
5.27016e-09
4.73477e-08
2.99929e-07
1.34131e-06
4.27797e-06
1.01023e-05
2.75101e-09
2.57284e-08
1.82708e-07
9.22824e-07
3.13847e-06
7.68153e-06
1.59322e-09
1.57304e-08
1.1769e-07
5.95558e-07
2.07661e-06
5.26009e-06
9.42574e-10
9.2982e-09
6.62711e-08
3.36844e-07
1.20812e-06
3.16552e-06
5.40169e-10
5.14905e-09
3.43108e-08
1.66946e-07
6.08779e-07
1.65201e-06
4.68229e-10
3.55592e-09
2.10142e-08
9.41234e-08
3.26326e-07
8.70434e-07
1.55063e-09
7.09371e-09
3.03843e-08
1.11755e-07
3.44723e-07
8.95076e-07
8.37636e-09
3.14008e-08
1.09431e-07
3.39767e-07
9.28403e-07
2.2076e-06
4.19186e-08
1.37448e-07
4.15913e-07
1.12944e-06
2.69652e-06
5.57976e-06
1.76861e-07
4.8194e-07
1.21649e-06
2.79527e-06
5.77386e-06
1.05762e-05
2.12842e-07
6.39836e-07
1.72665e-06
4.11698e-06
8.5167e-06
1.52017e-05
2.38331e-07
7.65542e-07
2.13945e-06
5.12196e-06
1.04183e-05
1.8072e-05
2.39353e-07
7.95054e-07
2.25339e-06
5.39686e-06
1.08993e-05
1.8734e-05
2.2437e-07
7.46135e-07
2.11466e-06
5.06155e-06
1.02324e-05
1.7602e-05
1.99486e-07
6.48157e-07
1.81579e-06
4.33568e-06
8.7977e-06
1.5208e-05
1.74409e-07
5.43098e-07
1.4723e-06
3.45339e-06
6.99242e-06
1.21776e-05
1.45809e-07
4.37715e-07
1.14541e-06
2.61593e-06
5.21743e-06
9.05211e-06
1.17093e-07
3.3778e-07
8.48849e-07
1.86756e-06
3.60003e-06
6.04611e-06
9.19412e-08
2.53079e-07
6.05026e-07
1.27297e-06
2.36395e-06
3.87929e-06
7.46013e-08
1.98754e-07
4.70427e-07
1.01213e-06
1.9963e-06
3.67117e-06
9.12797e-08
2.60081e-07
6.89743e-07
1.67229e-06
3.64485e-06
7.1069e-06
2.6449e-07
7.4377e-07
1.89253e-06
4.29187e-06
8.55486e-06
1.49902e-05
1.13352e-06
2.61856e-06
5.49591e-06
1.02965e-05
1.72851e-05
2.60379e-05
4.10321e-07
9.11758e-07
1.88183e-06
3.57606e-06
6.17359e-06
9.7865e-06
2.93095e-07
7.15809e-07
1.70713e-06
3.87145e-06
8.01732e-06
1.4814e-05
4.16255e-07
1.21585e-06
3.26475e-06
7.65821e-06
1.53342e-05
2.59901e-05
1.54035e-06
3.9385e-06
8.84633e-06
1.68335e-05
2.74462e-05
3.94619e-05
1.87122e-06
4.46636e-06
9.1257e-06
1.61537e-05
2.51915e-05
3.50926e-05
1.82211e-06
4.62687e-06
9.79653e-06
1.75848e-05
2.73382e-05
3.79227e-05
1.57933e-06
4.24132e-06
9.31743e-06
1.70775e-05
2.6836e-05
3.72183e-05
1.2564e-06
3.531e-06
8.04529e-06
1.5182e-05
2.43728e-05
3.42986e-05
9.49661e-07
2.73972e-06
6.44469e-06
1.25685e-05
2.08084e-05
3.00379e-05
6.81797e-07
1.98807e-06
4.80299e-06
9.70386e-06
1.67358e-05
2.5099e-05
4.85336e-07
1.39401e-06
3.40727e-06
7.14445e-06
1.30524e-05
1.99319e-05
3.45048e-07
9.55317e-07
2.33085e-06
5.09089e-06
9.52019e-06
1.50903e-05
2.54226e-07
6.70697e-07
1.61212e-06
3.54577e-06
6.71789e-06
1.09011e-05
1.97011e-07
4.96509e-07
1.15942e-06
2.48595e-06
4.62132e-06
7.25158e-06
1.51341e-07
3.70423e-07
8.33861e-07
1.71249e-06
3.14548e-06
5.0478e-06
1.02286e-07
2.56102e-07
6.00565e-07
1.34962e-06
2.92351e-06
5.95909e-06
9.86555e-08
2.88706e-07
8.38073e-07
2.29129e-06
5.57203e-06
1.15416e-05
3.1133e-07
9.543e-07
2.62367e-06
6.19183e-06
1.24708e-05
2.13569e-05
4.17912e-05
6.60001e-05
8.54417e-05
9.62177e-05
9.57479e-05
4.46615e-05
6.6251e-05
8.27823e-05
9.10314e-05
8.16066e-05
4.36613e-05
6.40312e-05
8.12049e-05
8.96634e-05
7.58751e-05
4.03365e-05
5.95338e-05
7.63611e-05
8.42591e-05
7.06518e-05
3.55078e-05
5.18797e-05
6.6509e-05
7.35765e-05
6.33325e-05
2.98103e-05
4.20487e-05
5.39996e-05
6.08111e-05
5.49567e-05
2.32184e-05
3.21992e-05
4.15112e-05
4.81824e-05
4.77486e-05
1.70287e-05
2.3635e-05
3.04694e-05
3.6817e-05
4.25251e-05
4.61021e-05
1.17534e-05
1.65139e-05
2.15151e-05
2.72796e-05
3.82076e-05
4.72973e-05
7.42739e-06
1.07263e-05
1.44701e-05
1.97908e-05
3.40493e-05
4.84768e-05
4.16076e-06
6.57196e-06
1.01929e-05
1.6675e-05
3.17449e-05
5.24865e-05
6.79844e-05
2.59183e-06
5.96264e-06
1.24379e-05
2.20836e-05
3.67725e-05
6.23964e-05
9.62909e-05
7.38556e-05
3.69742e-06
1.09914e-05
2.33839e-05
3.8738e-05
5.5233e-05
8.17484e-05
0.000166637
0.000221907
7.84559e-06
2.12227e-05
4.05035e-05
6.11086e-05
7.94828e-05
9.94537e-05
0.00017711
0.000458826
1.41481e-05
3.28121e-05
5.52534e-05
7.53719e-05
8.88953e-05
9.95775e-05
0.000147917
0.000476718
2.02247e-05
4.0749e-05
6.17496e-05
7.80458e-05
8.43945e-05
8.01894e-05
0.000102404
0.00044019
2.34767e-05
4.36978e-05
6.37015e-05
7.97062e-05
8.36012e-05
6.87147e-05
6.97686e-05
0.000220956
2.38446e-05
4.33161e-05
6.36405e-05
8.10722e-05
8.5009e-05
6.46852e-05
6.03283e-05
0.000254942
2.18822e-05
3.96676e-05
5.90427e-05
7.59971e-05
7.84954e-05
5.87281e-05
5.48389e-05
0.000258213
1.84719e-05
3.36555e-05
5.04083e-05
6.52077e-05
6.72921e-05
5.22705e-05
5.12544e-05
0.000218544
1.46313e-05
2.65581e-05
3.98664e-05
5.19694e-05
5.54073e-05
4.71567e-05
4.95539e-05
8.89025e-05
1.05426e-05
1.92786e-05
2.92744e-05
3.90503e-05
4.49476e-05
4.35209e-05
4.99925e-05
8.63412e-05
6.67901e-06
1.26465e-05
1.97713e-05
2.76647e-05
3.55596e-05
4.14046e-05
3.58406e-06
7.30015e-06
1.23073e-05
1.84962e-05
2.78155e-05
4.06969e-05
1.84257e-06
4.32874e-06
8.54546e-06
1.46681e-05
2.48044e-05
4.30077e-05
1.98874e-06
5.67453e-06
1.2275e-05
2.12183e-05
3.27797e-05
5.34501e-05
4.58546e-06
1.23599e-05
2.46434e-05
3.90601e-05
5.37955e-05
7.68001e-05
1.0071e-05
2.36029e-05
4.19353e-05
6.06946e-05
7.69655e-05
1.73031e-05
3.52857e-05
5.57829e-05
7.33637e-05
8.42576e-05
2.36858e-05
4.27431e-05
6.14872e-05
7.54996e-05
7.89615e-05
2.72345e-05
4.55628e-05
6.32976e-05
7.67663e-05
7.62329e-05
2.78795e-05
4.51126e-05
6.28476e-05
7.70324e-05
7.46644e-05
2.59928e-05
4.16375e-05
5.83723e-05
7.21994e-05
6.80978e-05
2.23805e-05
3.58934e-05
5.05742e-05
6.31465e-05
5.89835e-05
1.78457e-05
2.8958e-05
4.10776e-05
5.19743e-05
5.03373e-05
1.3049e-05
2.16666e-05
3.10852e-05
4.03e-05
4.46357e-05
8.57491e-06
1.4889e-05
2.23788e-05
3.10037e-05
4.27011e-05
5.74229e-06
1.09376e-05
1.83738e-05
2.8836e-05
4.63822e-05
6.41048e-06
1.41508e-05
2.51241e-05
3.83625e-05
5.79214e-05
1.24449e-05
2.6307e-05
4.33178e-05
6.00165e-05
7.90696e-05
2.34663e-05
4.41109e-05
6.58993e-05
8.46034e-05
0.000101778
3.59626e-05
5.98882e-05
8.14031e-05
9.65727e-05
0.000106275
4.50171e-05
6.67548e-05
8.34541e-05
9.28631e-05
9.19041e-05
4.80301e-05
6.67545e-05
8.09472e-05
8.76467e-05
7.76482e-05
4.70618e-05
6.45978e-05
7.90749e-05
8.54668e-05
7.04624e-05
4.38709e-05
5.99539e-05
7.37808e-05
8.05643e-05
6.50973e-05
3.8555e-05
5.23345e-05
6.47053e-05
7.17374e-05
6.01518e-05
3.23354e-05
4.32401e-05
5.36113e-05
6.1464e-05
5.54438e-05
2.59766e-05
3.40768e-05
4.26354e-05
5.08678e-05
5.23405e-05
2.00564e-05
2.60619e-05
3.27331e-05
4.15023e-05
5.19362e-05
1.45198e-05
1.91015e-05
2.48173e-05
3.55098e-05
5.40915e-05
9.54966e-06
1.40065e-05
2.12776e-05
3.51084e-05
5.89547e-05
7.68377e-06
1.52171e-05
2.70641e-05
4.35953e-05
6.90513e-05
1.11962e-05
2.52498e-05
4.33925e-05
6.25751e-05
8.64702e-05
2.02897e-05
4.17902e-05
6.53474e-05
8.63037e-05
0.000106205
3.20254e-05
5.79468e-05
8.217e-05
9.94661e-05
0.000110408
5.08538e-09
1.82314e-09
7.38617e-10
3.98672e-10
3.69942e-10
3.97388e-10
4.35647e-10
4.60263e-10
4.55884e-10
3.99581e-10
2.76626e-10
1.42095e-10
6.13119e-11
9.7857e-11
3.42998e-09
8.82368e-10
2.23188e-10
6.24925e-11
2.93473e-11
2.87637e-11
3.68049e-11
4.6047e-11
5.266e-11
5.25445e-11
4.06501e-11
2.18979e-11
1.24633e-11
8.74613e-11
5.66393e-09
1.63255e-09
4.4027e-10
1.0656e-10
2.27109e-11
5.13362e-12
2.87439e-12
3.61319e-12
4.71196e-12
5.33052e-12
4.55907e-12
2.68647e-12
6.0055e-12
9.32096e-11
9.66425e-09
2.96914e-09
8.03326e-10
1.87864e-10
3.71395e-11
6.12601e-12
9.13522e-13
2.91809e-13
3.31117e-13
4.21471e-13
4.01285e-13
3.33761e-13
3.89773e-12
7.6925e-11
1.33772e-08
4.04714e-09
1.06495e-09
2.39924e-10
4.554e-11
7.15369e-12
9.09666e-13
9.85e-14
2.34526e-14
2.57805e-14
2.735e-14
7.02321e-14
2.30863e-12
5.12374e-11
1.68826e-08
4.81591e-09
1.19063e-09
2.52128e-10
4.51052e-11
6.68657e-12
8.03439e-13
7.66608e-14
6.62027e-15
1.82766e-15
1.7573e-15
2.19725e-14
1.14932e-12
2.95338e-11
2.12741e-08
5.58139e-09
1.27053e-09
2.48422e-10
4.11552e-11
5.66975e-12
6.46178e-13
6.72496e-14
1.18707e-14
5.02942e-15
2.61664e-15
1.02874e-14
5.7804e-13
1.62048e-11
2.69846e-08
6.50909e-09
1.36509e-09
2.46637e-10
3.78142e-11
4.94118e-12
6.45802e-13
1.67853e-13
9.70469e-14
5.98819e-14
3.35125e-14
2.18907e-14
3.12565e-13
8.92259e-12
3.38529e-08
7.55928e-09
1.46259e-09
2.43611e-10
3.51707e-11
5.28687e-12
1.73269e-12
1.22117e-12
9.33871e-13
6.34375e-13
3.84883e-13
2.26334e-13
2.99554e-13
5.04327e-12
4.14824e-08
8.7375e-09
1.59371e-09
2.51662e-10
3.94014e-11
1.29704e-11
1.0598e-11
9.49664e-12
7.80459e-12
5.69698e-12
3.73115e-12
2.38442e-12
1.55762e-12
3.60666e-12
4.79497e-08
9.54326e-09
1.66547e-09
2.72042e-10
7.49309e-11
6.25103e-11
6.67902e-11
6.41485e-11
5.56788e-11
4.34579e-11
3.06702e-11
2.12622e-11
1.38056e-11
1.04448e-11
5.23068e-08
1.00055e-08
1.7628e-09
3.94157e-10
2.68949e-10
3.20127e-10
3.68637e-10
3.72398e-10
3.41271e-10
2.842e-10
2.16266e-10
1.60702e-10
1.09189e-10
7.41237e-11
5.30242e-08
1.00874e-08
2.08608e-09
9.73941e-10
1.13745e-09
1.47331e-09
1.76581e-09
1.86857e-09
1.80819e-09
1.60674e-09
1.31996e-09
1.04096e-09
7.41231e-10
5.05425e-10
5.93433e-08
1.26822e-08
3.94494e-09
3.40167e-09
4.53782e-09
6.00155e-09
7.39125e-09
8.16032e-09
8.34802e-09
7.9468e-09
7.04065e-09
5.84947e-09
4.35896e-09
3.02751e-09
4.27464e-10
1.32366e-10
5.78506e-11
4.57145e-11
5.26266e-11
6.37405e-11
7.63803e-11
8.65643e-11
9.01835e-11
8.25879e-11
6.00168e-11
3.18363e-11
1.30127e-11
8.35499e-12
5.84927e-10
1.46128e-10
3.51511e-11
8.99946e-12
4.1998e-12
4.59348e-12
6.40436e-12
8.4697e-12
1.00809e-11
1.03928e-11
8.3107e-12
4.64196e-12
1.90501e-12
4.53803e-12
1.15978e-09
3.11651e-10
7.59918e-11
1.66127e-11
3.23879e-12
7.22529e-13
4.75711e-13
6.52307e-13
8.82397e-13
1.02093e-12
8.90208e-13
5.28994e-13
4.05618e-13
5.29229e-12
2.04999e-09
5.72494e-10
1.40498e-10
2.99268e-11
5.44213e-12
8.40439e-13
1.24584e-13
4.86401e-14
6.10923e-14
7.90755e-14
7.56363e-14
5.05653e-14
2.25369e-13
5.27154e-12
2.89979e-09
7.95601e-10
1.89782e-10
3.89636e-11
6.80495e-12
9.97997e-13
1.21034e-13
1.33804e-14
4.09403e-15
4.86517e-15
5.08536e-15
5.72493e-15
1.54314e-13
4.32472e-12
3.63591e-09
9.39466e-10
2.10961e-10
4.08395e-11
6.74417e-12
9.36162e-13
1.07256e-13
1.00697e-14
9.69571e-16
3.78635e-16
3.72868e-16
1.56869e-15
9.36907e-14
2.99405e-12
4.38115e-09
1.04376e-09
2.16467e-10
3.88272e-11
5.95819e-12
7.71319e-13
8.36266e-14
8.18209e-15
1.23431e-15
4.91388e-16
2.84421e-16
9.01304e-16
5.78779e-14
1.95992e-12
5.21582e-09
1.14297e-09
2.1854e-10
3.62889e-11
5.16432e-12
6.32419e-13
7.56128e-14
1.65708e-14
8.55329e-15
4.93306e-15
2.61102e-15
1.71221e-15
3.59867e-14
1.23277e-12
6.04434e-09
1.2238e-09
2.16271e-10
3.3238e-11
4.4614e-12
6.18386e-13
1.82422e-13
1.19754e-13
8.64247e-14
5.45191e-14
3.05747e-14
1.62731e-14
3.14587e-14
7.62623e-13
6.73992e-09
1.28086e-09
2.12445e-10
3.0839e-11
4.53667e-12
1.47628e-12
1.18229e-12
1.00926e-12
7.81729e-13
5.25925e-13
3.15172e-13
1.78926e-13
1.12252e-13
4.96269e-13
7.03406e-09
1.26594e-09
2.00946e-10
3.046e-11
8.8683e-12
7.90767e-12
8.24967e-12
7.50047e-12
6.10482e-12
4.36635e-12
2.7925e-12
1.70894e-12
9.909e-13
8.04757e-13
6.77149e-09
1.17248e-09
1.90098e-10
4.47103e-11
3.70515e-11
4.56864e-11
5.09326e-11
4.83819e-11
4.13355e-11
3.13754e-11
2.14123e-11
1.39856e-11
8.40771e-12
5.16457e-12
5.9278e-09
1.03612e-09
2.1517e-10
1.33388e-10
1.79619e-10
2.37017e-10
2.74454e-10
2.71502e-10
2.43392e-10
1.95715e-10
1.42578e-10
9.86364e-11
6.16954e-11
3.7651e-11
5.70909e-09
1.18059e-09
4.63699e-10
5.4759e-10
8.07275e-10
1.08932e-09
1.29863e-09
1.33547e-09
1.2571e-09
1.07203e-09
8.35309e-10
6.07494e-10
3.94041e-10
2.42902e-10
4.64248e-11
1.20164e-11
5.47216e-12
5.42885e-12
7.27655e-12
9.84742e-12
1.28552e-11
1.55574e-11
1.69607e-11
1.60523e-11
1.20117e-11
6.62934e-12
2.71308e-12
1.13227e-12
9.67095e-11
2.28807e-11
5.08318e-12
1.19591e-12
5.75503e-13
7.12429e-13
1.07861e-12
1.50643e-12
1.85983e-12
1.96629e-12
1.60266e-12
9.28202e-13
3.70597e-13
2.72282e-13
2.04719e-10
5.09617e-11
1.14145e-11
2.2935e-12
4.17231e-13
9.62257e-14
7.73799e-14
1.15216e-13
1.61225e-13
1.90023e-13
1.67458e-13
1.01838e-13
4.5961e-14
2.63153e-13
3.69927e-10
9.49184e-11
2.13978e-11
4.2131e-12
7.16327e-13
1.05391e-13
1.61552e-14
8.1303e-15
1.11646e-14
1.46446e-14
1.4043e-14
9.13037e-15
1.26008e-14
2.98508e-13
5.29982e-10
1.33271e-10
2.92378e-11
5.56402e-12
9.10274e-13
1.26755e-13
1.49433e-14
1.80461e-15
7.81874e-16
9.75901e-16
1.01159e-15
7.9001e-16
8.41106e-15
2.87568e-13
6.54363e-10
1.55252e-10
3.2173e-11
5.79177e-12
8.98235e-13
1.18622e-13
1.31935e-14
1.2998e-15
2.12107e-16
1.47496e-16
1.48315e-16
1.92073e-16
6.18025e-15
2.38357e-13
7.51839e-10
1.65345e-10
3.1813e-11
5.33013e-12
7.70974e-13
9.52595e-14
1.00326e-14
1.01532e-15
2.07311e-16
1.30155e-16
1.13762e-16
1.49267e-16
4.725e-15
1.89914e-13
8.34497e-10
1.69581e-10
3.02245e-11
4.70484e-12
6.33249e-13
7.39161e-14
8.32182e-15
1.62834e-15
7.897e-16
4.65907e-16
2.75742e-16
2.0988e-16
3.47436e-15
1.3585e-13
8.9014e-10
1.67589e-10
2.77016e-11
4.00787e-12
5.0925e-13
6.6061e-14
1.75249e-14
1.07507e-14
7.37403e-15
4.40589e-15
2.34924e-15
1.20207e-15
3.32744e-15
9.69288e-14
9.02731e-10
1.5951e-10
2.47592e-11
3.38849e-12
4.73007e-13
1.48904e-13
1.15367e-13
9.46524e-14
6.94387e-14
4.36244e-14
2.43204e-14
1.25837e-14
8.32642e-15
6.76166e-14
8.44686e-10
1.41303e-10
2.09759e-11
3.03483e-12
9.27066e-13
8.54897e-13
8.6408e-13
7.52442e-13
5.76655e-13
3.81969e-13
2.25362e-13
1.24242e-13
6.58395e-14
6.99069e-14
7.19303e-10
1.16281e-10
1.78444e-11
4.56e-12
4.36146e-12
5.4212e-12
5.79817e-12
5.24839e-12
4.19408e-12
2.92596e-12
1.82641e-12
1.06818e-12
5.78298e-13
3.3132e-13
5.48705e-10
9.09899e-11
1.998e-11
1.61895e-11
2.36369e-11
3.10479e-11
3.42923e-11
3.21578e-11
2.67664e-11
1.96339e-11
1.29515e-11
7.97687e-12
4.46593e-12
2.47307e-12
4.65504e-10
9.75714e-11
5.17164e-11
7.58981e-11
1.1804e-10
1.58295e-10
1.79416e-10
1.73806e-10
1.50618e-10
1.16168e-10
8.10062e-11
5.21621e-11
3.00399e-11
1.67349e-11
5.78057e-12
1.32042e-12
5.34357e-13
5.83024e-13
8.83992e-13
1.32375e-12
1.87197e-12
2.41086e-12
2.74852e-12
2.68215e-12
2.05152e-12
1.17541e-12
4.92154e-13
1.78058e-13
1.40301e-11
3.1195e-12
6.44008e-13
1.40594e-13
6.99178e-14
9.67321e-14
1.57723e-13
2.32159e-13
2.97341e-13
3.22199e-13
2.66379e-13
1.59045e-13
6.55143e-14
2.56397e-14
3.05556e-11
7.10067e-12
1.47884e-12
2.76639e-13
4.75584e-14
1.15816e-14
1.11817e-14
1.78008e-14
2.57012e-14
3.08669e-14
2.74211e-14
1.7059e-14
7.18112e-15
1.24002e-14
5.59244e-11
1.33133e-11
2.7865e-12
5.12326e-13
8.22212e-14
1.16661e-14
1.95391e-15
1.28318e-15
1.85263e-15
2.43959e-15
2.34683e-15
1.56249e-15
9.8719e-16
1.42931e-14
8.01031e-11
1.8708e-11
3.82298e-12
6.8163e-13
1.05451e-13
1.41058e-14
1.69621e-15
2.96017e-16
2.03626e-16
2.4082e-16
2.46034e-16
2.01514e-16
4.84943e-16
1.57247e-14
9.61738e-11
2.12644e-11
4.12242e-12
6.98059e-13
1.02666e-13
1.30585e-14
1.48772e-15
2.25407e-16
1.13027e-16
1.07287e-16
1.07672e-16
1.07859e-16
4.20357e-16
1.54428e-14
1.04774e-10
2.15701e-11
3.90163e-12
6.17948e-13
8.51638e-14
1.01941e-14
1.12138e-15
1.90065e-16
1.09166e-16
1.02227e-16
1.01143e-16
1.02885e-16
3.89993e-16
1.43385e-14
1.07999e-10
2.0629e-11
3.47156e-12
5.12905e-13
6.60498e-14
7.49321e-15
8.77173e-16
2.22746e-16
1.46725e-16
1.22453e-16
1.09919e-16
1.06691e-16
3.60777e-16
1.19137e-14
1.05922e-10
1.87903e-11
2.94213e-12
4.05566e-13
4.94233e-14
6.14981e-15
1.53785e-15
9.10675e-16
6.19967e-16
3.87601e-16
2.37181e-16
1.61816e-16
3.92038e-16
9.93583e-15
9.79436e-11
1.63282e-11
2.4048e-12
3.14552e-13
4.22782e-14
1.29641e-14
9.70154e-15
7.6429e-15
5.32657e-15
3.17915e-15
1.68979e-15
8.52154e-16
6.8625e-16
8.01114e-15
8.25581e-11
1.30578e-11
1.8426e-12
2.58914e-13
8.36215e-14
7.84904e-14
7.66141e-14
6.37494e-14
4.59884e-14
2.84886e-14
1.56228e-14
7.92603e-15
3.97954e-15
6.74696e-15
6.29715e-11
9.6795e-12
1.43539e-12
4.10149e-13
4.37184e-13
5.38109e-13
5.51203e-13
4.74367e-13
3.54596e-13
2.29584e-13
1.32155e-13
7.03869e-14
3.48198e-14
1.96086e-14
4.27295e-11
6.86454e-12
1.67276e-12
1.7154e-12
2.60539e-12
3.35113e-12
3.52368e-12
3.12549e-12
2.41852e-12
1.63489e-12
9.86856e-13
5.50131e-13
2.79539e-13
1.42724e-13
3.28893e-11
7.30636e-12
5.33055e-12
8.98521e-12
1.42593e-11
1.86543e-11
2.00294e-11
1.82479e-11
1.46004e-11
1.02945e-11
6.50305e-12
3.76704e-12
1.95844e-12
1.00015e-12
6.65824e-13
1.38554e-13
4.80601e-14
5.4748e-14
9.261e-14
1.52529e-13
2.32749e-13
3.18214e-13
3.79126e-13
3.81226e-13
2.96625e-13
1.74373e-13
7.53088e-14
2.63236e-14
1.72971e-12
3.62055e-13
7.01899e-14
1.44012e-14
7.44215e-15
1.13664e-14
1.97997e-14
3.0623e-14
4.06727e-14
4.5178e-14
3.7812e-14
2.30382e-14
9.87338e-15
3.42482e-15
3.84859e-12
8.40618e-13
1.64523e-13
2.90024e-14
4.81963e-15
1.31093e-15
1.47254e-15
2.43122e-15
3.58288e-15
4.37136e-15
3.92089e-15
2.5e-15
1.12215e-15
7.79398e-16
7.11435e-12
1.58674e-12
3.11634e-13
5.40274e-14
8.30626e-15
1.21158e-15
2.90177e-16
2.51421e-16
3.38033e-16
4.23142e-16
4.10953e-16
3.02897e-16
1.95685e-16
7.40829e-16
1.01565e-11
2.22667e-12
4.28236e-13
7.2208e-14
1.07043e-14
1.45187e-15
2.50043e-16
1.20044e-16
1.13667e-16
1.19413e-16
1.20088e-16
1.13741e-16
1.20508e-16
9.0286e-16
1.18272e-11
2.46394e-12
4.51559e-13
7.26154e-14
1.02671e-14
1.3339e-15
2.27817e-16
1.11366e-16
1.01297e-16
1.00933e-16
1.01035e-16
1.00919e-16
1.17429e-16
1.03293e-15
1.22416e-11
2.38564e-12
4.09832e-13
6.19545e-14
8.2599e-15
1.03294e-15
1.90933e-16
1.07715e-16
1.00661e-16
1.00124e-16
1.00094e-16
1.00269e-16
1.19018e-16
1.10553e-15
1.17581e-11
2.13608e-12
3.42865e-13
4.85683e-14
6.093e-15
7.46437e-16
1.63504e-16
1.08521e-16
1.02699e-16
1.01207e-16
1.00536e-16
1.00511e-16
1.21315e-16
1.0725e-15
1.06427e-11
1.80206e-12
2.70237e-13
3.5877e-14
4.29108e-15
5.84259e-16
2.00619e-16
1.50796e-16
1.30034e-16
1.15316e-16
1.06741e-16
1.0316e-16
1.27818e-16
1.05668e-15
8.9988e-12
1.43568e-12
2.03084e-13
2.56776e-14
3.39345e-15
1.04801e-15
7.73865e-16
6.04958e-16
4.29612e-16
2.80716e-16
1.84715e-16
1.35946e-16
1.45024e-16
9.91602e-16
6.88252e-12
1.04495e-12
1.41972e-13
1.95358e-14
6.5529e-15
6.1414e-15
5.79395e-15
4.6266e-15
3.18204e-15
1.88979e-15
1.00794e-15
5.18677e-16
3.01645e-16
8.10118e-16
4.74654e-12
7.03851e-13
1.02248e-13
3.2414e-14
3.69387e-14
4.45897e-14
4.38381e-14
3.59156e-14
2.52799e-14
1.5347e-14
8.24154e-15
4.08387e-15
1.9159e-15
1.21519e-15
2.90617e-12
4.5884e-13
1.27085e-13
1.55121e-13
2.38994e-13
2.98863e-13
2.99852e-13
2.51779e-13
1.82343e-13
1.14667e-13
6.39303e-14
3.2695e-14
1.533e-14
7.38353e-15
2.0683e-12
5.05509e-13
4.89931e-13
8.94822e-13
1.42131e-12
1.79948e-12
1.83313e-12
1.57209e-12
1.17018e-12
7.61731e-13
4.40725e-13
2.32821e-13
1.11091e-13
5.26766e-14
6.68788e-14
1.3021e-14
3.92988e-15
4.49696e-15
8.32852e-15
1.49402e-14
2.44605e-14
3.54028e-14
4.40497e-14
4.56612e-14
3.61704e-14
2.16597e-14
9.62915e-15
3.44887e-15
1.80892e-13
3.59179e-14
6.6542e-15
1.35698e-15
7.57032e-16
1.20831e-15
2.17322e-15
3.48063e-15
4.76846e-15
5.4255e-15
4.61573e-15
2.88201e-15
1.31393e-15
5.12357e-16
4.10997e-13
8.50032e-14
1.58224e-14
2.72033e-15
5.09829e-16
2.10855e-16
2.43155e-16
3.58131e-16
4.99542e-16
6.01484e-16
5.52992e-16
3.86547e-16
2.24074e-16
1.51795e-16
7.64989e-13
1.61306e-13
3.00739e-14
5.03076e-15
8.17465e-16
1.93978e-16
1.17227e-16
1.16473e-16
1.2726e-16
1.37769e-16
1.36486e-16
1.23803e-16
1.10743e-16
1.27778e-16
1.08551e-12
2.25507e-13
4.12577e-14
6.70734e-15
1.03136e-15
2.14439e-16
1.12375e-16
1.01765e-16
1.01484e-16
1.02218e-16
1.02313e-16
1.01579e-16
1.01453e-16
1.39425e-16
1.22534e-12
2.42803e-13
4.25066e-14
6.61642e-15
9.77544e-16
2.02507e-16
1.10296e-16
1.00847e-16
1.00059e-16
1.00058e-16
1.00089e-16
1.0009e-16
1.01075e-16
1.5516e-16
1.20765e-12
2.2486e-13
3.70786e-14
5.46309e-15
7.81067e-16
1.74731e-16
1.07068e-16
1.00531e-16
9.99912e-17
9.99685e-17
9.99886e-17
1.00028e-16
1.01343e-16
1.69316e-16
1.08623e-12
1.89476e-13
2.93253e-14
4.08408e-15
5.74332e-16
1.48706e-16
1.04562e-16
1.00489e-16
1.00098e-16
1.00033e-16
1.00023e-16
1.0006e-16
1.01783e-16
1.7843e-16
9.12335e-13
1.49012e-13
2.16599e-14
2.86162e-15
4.10264e-16
1.33127e-16
1.0597e-16
1.02658e-16
1.01476e-16
1.00728e-16
1.00328e-16
1.00211e-16
1.02634e-16
1.89813e-16
7.10385e-13
1.0974e-13
1.51218e-14
1.9318e-15
3.22411e-16
1.5804e-16
1.38503e-16
1.27181e-16
1.16558e-16
1.08449e-16
1.03726e-16
1.01597e-16
1.03931e-16
1.93981e-16
4.97901e-13
7.34559e-14
9.76907e-15
1.38408e-15
5.19665e-16
4.849e-16
4.50008e-16
3.65464e-16
2.7e-16
1.91364e-16
1.41871e-16
1.17238e-16
1.09553e-16
1.76216e-16
3.14307e-13
4.5495e-14
6.57457e-15
2.2839e-15
2.67237e-15
3.14021e-15
2.98008e-15
2.35245e-15
1.5983e-15
9.51695e-16
5.21071e-16
2.87046e-16
1.76711e-16
1.67364e-16
1.75935e-13
2.75894e-14
8.66223e-15
1.17997e-14
1.81522e-14
2.20385e-14
2.12036e-14
1.69526e-14
1.16103e-14
6.8846e-15
3.61488e-15
1.75506e-15
8.10894e-16
4.21754e-16
1.17234e-13
3.21945e-14
3.88082e-14
7.39947e-14
1.16447e-13
1.42455e-13
1.3835e-13
1.12291e-13
7.84457e-14
4.76465e-14
2.55598e-14
1.24947e-14
5.56144e-15
2.5206e-15
5.82071e-15
1.1439e-15
3.66296e-16
3.96935e-16
7.15574e-16
1.3154e-15
2.24271e-15
3.38672e-15
4.37319e-15
4.6676e-15
3.78056e-15
2.3279e-15
1.1004e-15
4.56278e-16
1.60718e-14
3.11343e-15
6.23538e-16
1.94669e-16
1.48607e-16
1.89847e-16
2.81388e-16
4.1288e-16
5.50266e-16
6.28463e-16
5.54758e-16
3.82686e-16
2.24889e-16
1.42717e-16
3.71438e-14
7.38099e-15
1.38366e-15
3.03962e-16
1.30534e-16
1.08529e-16
1.12337e-16
1.23699e-16
1.38254e-16
1.49375e-16
1.45088e-16
1.28597e-16
1.12483e-16
1.0454e-16
6.9517e-14
1.4015e-14
2.5662e-15
4.87969e-16
1.54122e-16
1.06733e-16
1.01198e-16
1.01371e-16
1.02491e-16
1.03592e-16
1.03503e-16
1.02268e-16
1.00978e-16
1.01269e-16
9.78888e-14
1.94649e-14
3.47914e-15
6.20067e-16
1.70472e-16
1.08255e-16
1.00733e-16
9.99925e-17
1.00008e-16
1.001e-16
1.00126e-16
1.00072e-16
1.00042e-16
1.01798e-16
1.07193e-13
2.04053e-14
3.50335e-15
6.02515e-16
1.64987e-16
1.07258e-16
1.00582e-16
9.99213e-17
9.98814e-17
9.9899e-17
9.99191e-17
9.99387e-17
1.00012e-16
1.02931e-16
1.0087e-13
1.81348e-14
2.95842e-15
4.98947e-16
1.48478e-16
1.05089e-16
1.00353e-16
9.99111e-17
9.98888e-17
9.99045e-17
9.9924e-17
9.99485e-17
1.00053e-16
1.04264e-16
8.5462e-14
1.44793e-14
2.24506e-15
3.81172e-16
1.31836e-16
1.03124e-16
1.00177e-16
9.99192e-17
9.99103e-17
9.99254e-17
9.99445e-17
9.99705e-17
1.0012e-16
1.05645e-16
6.70966e-14
1.07154e-14
1.59009e-15
2.82764e-16
1.1938e-16
1.01929e-16
1.00215e-16
1.00032e-16
9.99897e-17
9.99751e-17
9.99789e-17
1.00001e-16
1.0023e-16
1.0746e-16
4.85462e-14
7.3862e-15
1.06883e-15
2.11901e-16
1.12633e-16
1.02946e-16
1.01782e-16
1.0119e-16
1.00684e-16
1.00329e-16
1.00143e-16
1.00082e-16
1.00365e-16
1.08671e-16
3.15354e-14
4.62545e-15
6.77091e-16
1.71691e-16
1.22628e-16
1.20036e-16
1.17418e-16
1.12491e-16
1.07509e-16
1.03804e-16
1.01676e-16
1.00705e-16
1.00602e-16
1.07384e-16
1.84785e-14
2.69772e-15
4.58741e-16
2.24517e-16
2.48526e-16
2.71004e-16
2.55658e-16
2.1553e-16
1.71853e-16
1.37542e-16
1.16802e-16
1.06812e-16
1.02795e-16
1.05e-16
9.62129e-15
1.57076e-15
6.01639e-16
8.3641e-16
1.22959e-15
1.43373e-15
1.33311e-15
1.03877e-15
7.06057e-16
4.34025e-16
2.5877e-16
1.66921e-16
1.25332e-16
1.11563e-16
6.08071e-15
1.93408e-15
2.69628e-15
5.1782e-15
7.98622e-15
9.42376e-15
8.75963e-15
6.77629e-15
4.50084e-15
2.6059e-15
1.34819e-15
6.60215e-16
3.24656e-16
1.90843e-16
5.13628e-16
1.71282e-16
1.15617e-16
1.1574e-16
1.36978e-16
1.81867e-16
2.56953e-16
3.56138e-16
4.48541e-16
4.84505e-16
4.15291e-16
2.92494e-16
1.87019e-16
1.31117e-16
1.29014e-15
3.13932e-16
1.35045e-16
1.0569e-16
1.02703e-16
1.05763e-16
1.12884e-16
1.23845e-16
1.36095e-16
1.43804e-16
1.38232e-16
1.23794e-16
1.10458e-16
1.0346e-16
2.91575e-15
6.28184e-16
1.88678e-16
1.13162e-16
1.01576e-16
1.0021e-16
1.00575e-16
1.01526e-16
1.02785e-16
1.03799e-16
1.03498e-16
1.02139e-16
1.00805e-16
1.00129e-16
5.42006e-15
1.1184e-15
2.72522e-16
1.25764e-16
1.03151e-16
1.00074e-16
9.97466e-17
9.97892e-17
9.98998e-17
1.0001e-16
1.0002e-16
9.99334e-17
9.98398e-17
9.98384e-17
7.53693e-15
1.51008e-15
3.3575e-16
1.34642e-16
1.04249e-16
1.0019e-16
9.97264e-17
9.96965e-17
9.9714e-17
9.97371e-17
9.97545e-17
9.97664e-17
9.97777e-17
9.98719e-17
8.00805e-15
1.54035e-15
3.31562e-16
1.3262e-16
1.03835e-16
1.00142e-16
9.97359e-17
9.97103e-17
9.97228e-17
9.97398e-17
9.97568e-17
9.97751e-17
9.97955e-17
9.99579e-17
7.22176e-15
1.32891e-15
2.86789e-16
1.24771e-16
1.02702e-16
1.0002e-16
9.97425e-17
9.97309e-17
9.97445e-17
9.97614e-17
9.97788e-17
9.97979e-17
9.98218e-17
1.00073e-16
5.8086e-15
1.02971e-15
2.32519e-16
1.16407e-16
1.01612e-16
9.99159e-17
9.9755e-17
9.97551e-17
9.97701e-17
9.97874e-17
9.98057e-17
9.98255e-17
9.98547e-17
1.00222e-16
4.31165e-15
7.46167e-16
1.85984e-16
1.09915e-16
1.00844e-16
9.98626e-17
9.97793e-17
9.97851e-17
9.97996e-17
9.98166e-17
9.98353e-17
9.98561e-17
9.98935e-17
1.0043e-16
2.94833e-15
5.14105e-16
1.5149e-16
1.0558e-16
1.00435e-16
9.99176e-17
9.98702e-17
9.98594e-17
9.98552e-17