/*--------------------------------*- C++ -*----------------------------------*\
| =========                 |                                                 |
| \\      /  F ield         | OpenFOAM: The Open Source CFD Toolbox           |
|  \\    /   O peration     | Version:  v2106                                 |
|   \\  /    A nd           | Website:  www.openfoam.com                      |
|    \\/     M anipulation  |                                                 |
\*---------------------------------------------------------------------------*/
FoamFile
{
    version     2.0;
    format      ascii;
    arch        "LSB;label=32;scalar=64";
    class       volScalarField;
    location    "0.000139";
    object      nut;
}
// * * * * * * * * * * * * * * * * * * * * * * * * * * * * * * * * * * * * * //

dimensions      [0 2 -1 0 0 0 0];

internalField   nonuniform List<scalar> 
18109
(
2.02029e-07
9.34876e-08
4.93515e-08
2.4455e-08
1.46459e-08
1.07397e-08
9.13574e-09
5.23987e-08
1.80605e-08
6.85466e-09
2.40043e-09
1.22297e-09
9.81977e-10
9.99829e-10
3.84355e-08
1.27069e-08
4.07781e-09
1.27402e-09
3.78143e-10
1.3145e-10
9.14384e-11
6.04808e-08
2.28756e-08
8.04418e-09
2.4648e-09
6.33041e-10
1.3426e-10
2.58954e-11
8.67398e-08
3.35681e-08
1.13772e-08
3.3068e-09
8.0526e-10
1.60589e-10
2.53397e-11
1.11839e-07
4.09008e-08
1.30603e-08
3.58163e-09
8.26758e-10
1.56624e-10
2.34729e-11
1.44186e-07
4.90011e-08
1.44864e-08
3.67785e-09
7.8787e-10
1.38964e-10
1.99552e-11
1.91131e-07
6.03742e-08
1.65502e-08
3.90556e-09
7.80411e-10
1.31981e-10
2.24904e-11
3.21091e-08
1.24154e-08
5.44331e-09
2.61742e-09
1.84287e-09
1.63909e-09
1.57604e-09
1.50622e-09
1.38717e-09
1.13984e-09
7.39517e-10
3.69189e-10
2.14938e-10
9.06979e-10
1.08125e-08
3.04625e-09
8.52523e-10
2.6664e-10
1.38336e-10
1.25745e-10
1.42677e-10
1.62457e-10
1.74334e-10
1.65124e-10
1.19704e-10
6.39597e-11
9.24576e-11
8.79452e-10
1.2286e-08
3.7526e-09
1.11432e-09
3.07922e-10
7.58198e-11
1.99824e-11
1.15873e-11
1.35642e-11
1.67616e-11
1.81775e-11
1.47453e-11
1.05222e-11
6.57315e-11
8.13062e-10
2.02954e-08
6.92102e-09
2.11304e-09
5.5659e-10
1.23104e-10
2.25124e-11
3.65526e-12
1.16379e-12
1.24597e-12
1.53904e-12
1.43847e-12
2.53932e-12
4.06992e-11
5.76756e-10
2.78516e-08
9.46494e-09
2.79576e-09
7.06475e-10
1.49435e-10
2.59451e-11
3.58607e-12
4.08338e-13
9.23645e-14
9.80812e-14
1.13021e-13
9.03075e-13
2.20361e-11
3.38219e-10
3.51603e-08
1.12828e-08
3.13829e-09
7.46083e-10
1.48963e-10
2.44482e-11
3.20204e-12
3.26051e-13
2.9609e-14
8.06804e-15
1.00313e-14
2.96247e-13
1.02277e-11
1.76637e-10
4.49444e-08
1.33403e-08
3.42944e-09
7.54823e-10
1.40068e-10
2.14447e-11
2.69539e-12
3.20529e-13
7.28643e-14
3.60279e-14
2.06672e-14
1.12908e-13
4.35895e-12
8.68825e-11
5.88094e-08
1.61331e-08
3.83977e-09
7.85939e-10
1.3615e-10
2.00349e-11
3.01925e-12
9.41318e-13
5.99044e-13
4.00058e-13
2.44917e-13
1.88277e-13
2.18629e-12
4.51503e-11
7.70145e-08
1.97263e-08
4.36954e-09
8.31799e-10
1.36525e-10
2.33752e-11
8.44341e-12
6.33968e-12
5.11274e-12
3.76892e-12
2.52312e-12
1.69685e-12
2.164e-12
2.48414e-11
1.01315e-07
2.47216e-08
5.21465e-09
9.5046e-10
1.68519e-10
5.64197e-11
4.55963e-11
4.29755e-11
3.72637e-11
2.96671e-11
2.1569e-11
1.57962e-11
1.16439e-11
2.02993e-11
1.26915e-07
2.96605e-08
6.04517e-09
1.1297e-09
3.07691e-10
2.32087e-10
2.46854e-10
2.50709e-10
2.29995e-10
1.9639e-10
1.54709e-10
1.22849e-10
9.14911e-11
7.58557e-11
1.52811e-07
3.47491e-08
7.16798e-09
1.65621e-09
9.17138e-10
1.01259e-09
1.16985e-09
1.25195e-09
1.21345e-09
1.1076e-09
9.44825e-10
8.01918e-10
6.24708e-10
4.90313e-10
1.76034e-07
4.00005e-08
9.11265e-09
3.40593e-09
3.23725e-09
4.00731e-09
4.81628e-09
5.38925e-09
5.51366e-09
5.38063e-09
4.96382e-09
4.45595e-09
3.63211e-09
2.86537e-09
2.24929e-07
5.55249e-08
1.57998e-08
9.55203e-09
1.10834e-08
1.41029e-08
1.73709e-08
2.01784e-08
2.18052e-08
2.28405e-08
2.26998e-08
2.14212e-08
1.82748e-08
1.46567e-08
7.05997e-07
2.12973e-06
4.90396e-06
9.00285e-06
1.3833e-05
1.85344e-05
1.38596e-07
5.58881e-07
1.67043e-06
3.86266e-06
7.27128e-06
1.14682e-05
1.13041e-07
5.36848e-07
1.75585e-06
4.24198e-06
8.02824e-06
1.25442e-05
7.74889e-08
4.36549e-07
1.57131e-06
4.00872e-06
7.78713e-06
1.229e-05
4.24848e-08
3.06754e-07
1.23854e-06
3.37732e-06
6.86021e-06
1.11625e-05
2.62534e-08
1.95485e-07
8.7394e-07
2.5776e-06
5.56312e-06
9.46749e-06
1.88812e-08
1.34773e-07
6.18649e-07
1.90101e-06
4.27595e-06
7.56335e-06
1.49453e-08
9.73578e-08
4.37379e-07
1.36523e-06
3.15477e-06
5.72888e-06
1.19104e-08
6.94849e-08
2.97571e-07
9.2307e-07
2.15625e-06
3.97548e-06
9.02354e-09
4.63624e-08
1.85853e-07
5.65981e-07
1.34094e-06
2.56058e-06
5.9323e-09
2.69884e-08
1.03183e-07
3.15075e-07
7.71219e-07
1.53103e-06
3.22599e-09
1.35051e-08
5.11015e-08
1.60278e-07
4.10942e-07
8.50675e-07
1.42978e-09
6.27924e-09
2.57322e-08
8.48311e-08
2.26887e-07
4.96657e-07
6.93187e-10
3.72751e-09
1.75094e-08
6.67e-08
2.1318e-07
5.83611e-07
1.26636e-09
7.3597e-09
3.70997e-08
1.51996e-07
5.04896e-07
1.34936e-06
7.20674e-09
3.25625e-08
1.29215e-07
4.32889e-07
1.20941e-06
2.7795e-06
7.96098e-09
4.35028e-08
1.94368e-07
6.92473e-07
1.93615e-06
4.2738e-06
7.84821e-09
4.94793e-08
2.37906e-07
8.71004e-07
2.41485e-06
5.18479e-06
6.01533e-09
4.36894e-08
2.2799e-07
8.69075e-07
2.44791e-06
5.27345e-06
3.7007e-09
3.05883e-08
1.75677e-07
7.15683e-07
2.11352e-06
4.72951e-06
1.99279e-09
1.7908e-08
1.13504e-07
5.07958e-07
1.6218e-06
3.83316e-06
1.04025e-09
9.72831e-09
6.90911e-08
3.48944e-07
1.18694e-06
2.90495e-06
6.0232e-10
5.94442e-09
4.44559e-08
2.24808e-07
7.83275e-07
1.98213e-06
3.56149e-10
3.51047e-09
2.49952e-08
1.26861e-07
4.54219e-07
1.18797e-06
2.03966e-10
1.94219e-09
1.29243e-08
6.27652e-08
2.28361e-07
6.1817e-07
1.76721e-10
1.34029e-09
7.90786e-09
3.53427e-08
1.22234e-07
3.25082e-07
5.84994e-10
2.67263e-09
1.14313e-08
4.196e-08
1.29154e-07
3.34374e-07
3.16072e-09
1.1834e-08
4.11931e-08
1.27698e-07
3.48415e-07
8.26583e-07
1.58175e-08
5.18044e-08
1.56707e-07
4.25237e-07
1.01447e-06
2.09635e-06
6.68325e-08
1.81969e-07
4.59381e-07
1.05557e-06
2.18073e-06
3.99367e-06
8.04814e-08
2.42025e-07
6.53643e-07
1.55982e-06
3.23032e-06
5.77126e-06
9.01666e-08
2.89825e-07
8.10994e-07
1.94445e-06
3.96182e-06
6.88566e-06
9.05967e-08
3.01212e-07
8.54977e-07
2.05132e-06
4.15157e-06
7.14925e-06
8.49581e-08
2.82756e-07
8.02499e-07
1.9242e-06
3.89861e-06
6.71997e-06
7.55695e-08
2.4565e-07
6.88908e-07
1.64692e-06
3.3469e-06
5.79364e-06
6.609e-08
2.05831e-07
5.58205e-07
1.30997e-06
2.6542e-06
4.62501e-06
5.5269e-08
1.65883e-07
4.33975e-07
9.90683e-07
1.97496e-06
3.42433e-06
4.43985e-08
1.28008e-07
3.21437e-07
7.06339e-07
1.35968e-06
2.27953e-06
3.48822e-08
9.59466e-08
2.29132e-07
4.81281e-07
8.91815e-07
1.45951e-06
2.8328e-08
7.54173e-08
1.78313e-07
3.82989e-07
7.53767e-07
1.38178e-06
3.47095e-08
9.88465e-08
2.61942e-07
6.3423e-07
1.38e-06
2.68242e-06
1.00731e-07
2.83172e-07
7.20308e-07
1.63206e-06
3.24929e-06
5.67842e-06
4.32608e-07
9.99739e-07
2.09934e-06
3.93178e-06
6.59438e-06
9.91277e-06
1.56787e-07
3.47772e-07
7.16219e-07
1.35643e-06
2.33324e-06
3.67988e-06
1.12072e-07
2.73311e-07
6.5063e-07
1.47148e-06
3.0374e-06
5.58205e-06
1.59349e-07
4.64877e-07
1.24667e-06
2.91778e-06
5.82463e-06
9.82104e-06
5.90689e-07
1.50992e-06
3.39184e-06
6.44343e-06
1.04763e-05
1.49937e-05
7.15422e-07
1.70827e-06
3.49312e-06
6.1851e-06
9.64484e-06
1.34244e-05
6.96724e-07
1.77236e-06
3.75864e-06
6.75407e-06
1.05093e-05
1.4577e-05
6.03751e-07
1.6245e-06
3.57568e-06
6.56478e-06
1.03322e-05
1.43486e-05
4.80047e-07
1.3517e-06
3.08625e-06
5.83521e-06
9.38516e-06
1.3226e-05
3.62521e-07
1.04753e-06
2.46837e-06
4.82147e-06
7.99378e-06
1.15526e-05
2.60091e-07
7.59194e-07
1.83598e-06
3.71227e-06
6.40625e-06
9.61161e-06
1.84945e-07
5.31384e-07
1.29902e-06
2.72325e-06
4.97275e-06
7.58882e-06
1.31374e-07
3.63591e-07
8.86421e-07
1.93346e-06
3.60978e-06
5.71112e-06
9.67022e-08
2.54869e-07
6.11681e-07
1.34233e-06
2.5366e-06
4.10414e-06
7.49027e-08
1.88495e-07
4.39313e-07
9.39277e-07
1.74051e-06
2.72069e-06
5.75166e-08
1.40553e-07
3.15778e-07
6.46602e-07
1.18398e-06
1.89199e-06
3.88819e-08
9.72084e-08
2.27567e-07
5.10141e-07
1.10224e-06
2.23766e-06
3.75264e-08
1.09686e-07
3.18088e-07
8.68317e-07
2.10775e-06
4.35122e-06
1.18514e-07
3.63072e-07
9.98327e-07
2.3546e-06
4.7374e-06
8.0931e-06
1.58574e-05
2.48819e-05
3.1823e-05
3.49929e-05
3.34271e-05
1.7096e-05
2.53617e-05
3.15803e-05
3.41834e-05
2.9485e-05
1.68096e-05
2.47395e-05
3.13854e-05
3.42006e-05
2.79032e-05
1.55428e-05
2.30475e-05
2.96104e-05
3.2342e-05
2.62825e-05
1.36394e-05
1.99914e-05
2.56238e-05
2.80662e-05
2.35628e-05
1.13778e-05
1.60637e-05
2.05682e-05
2.29076e-05
2.01816e-05
8.79616e-06
1.218e-05
1.5611e-05
1.79092e-05
1.72477e-05
6.39851e-06
8.84995e-06
1.13325e-05
1.35505e-05
1.52718e-05
1.57499e-05
4.38316e-06
6.12741e-06
7.92546e-06
9.94871e-06
1.36657e-05
1.61937e-05
2.7533e-06
3.95035e-06
5.28859e-06
7.1662e-06
1.21507e-05
1.67082e-05
1.5366e-06
2.40771e-06
3.70418e-06
6.00077e-06
1.12765e-05
1.81352e-05
2.22189e-05
9.56633e-07
2.18267e-06
4.51041e-06
7.91624e-06
1.29887e-05
2.15684e-05
3.18762e-05
2.29512e-05
1.3685e-06
4.03669e-06
8.49611e-06
1.38733e-05
1.94493e-05
2.81259e-05
5.55398e-05
6.7774e-05
2.9198e-06
7.83899e-06
1.47752e-05
2.1911e-05
2.78298e-05
3.37568e-05
5.82999e-05
0.000149831
5.30117e-06
1.22362e-05
2.04217e-05
2.73071e-05
3.12708e-05
3.36406e-05
4.79541e-05
0.000153092
7.63655e-06
1.53696e-05
2.32395e-05
2.9011e-05
3.04917e-05
2.75487e-05
3.31083e-05
0.000136167
8.91268e-06
1.66421e-05
2.43123e-05
3.02006e-05
3.09199e-05
2.41467e-05
2.26448e-05
6.76815e-05
9.08199e-06
1.65808e-05
2.44413e-05
3.0992e-05
3.18228e-05
2.31893e-05
2.02384e-05
7.81848e-05
8.33607e-06
1.51631e-05
2.26304e-05
2.9035e-05
2.95031e-05
2.12311e-05
1.87955e-05
8.4814e-05
7.01422e-06
1.27966e-05
1.91875e-05
2.47202e-05
2.5064e-05
1.86667e-05
1.7405e-05
7.09288e-05
5.53183e-06
1.00368e-05
1.50452e-05
1.94849e-05
2.0325e-05
1.648e-05
1.63497e-05
2.80683e-05
3.96635e-06
7.23561e-06
1.09511e-05
1.45082e-05
1.63795e-05
1.52005e-05
1.6449e-05
2.61882e-05
2.49972e-06
4.71576e-06
7.33819e-06
1.01869e-05
1.28878e-05
1.4468e-05
1.33609e-06
2.70689e-06
4.53634e-06
6.75723e-06
1.00183e-05
1.42287e-05
6.84927e-07
1.59805e-06
3.13179e-06
5.32339e-06
8.87665e-06
1.50708e-05
7.39388e-07
2.09375e-06
4.48805e-06
7.66836e-06
1.16695e-05
1.86246e-05
1.7097e-06
4.5721e-06
9.01587e-06
1.40861e-05
1.90516e-05
2.65856e-05
3.77065e-06
8.76456e-06
1.5388e-05
2.1884e-05
2.7104e-05
6.52058e-06
1.32338e-05
2.07078e-05
2.67046e-05
2.98168e-05
8.99146e-06
1.62174e-05
2.32497e-05
2.81551e-05
2.85715e-05
1.03953e-05
1.74521e-05
2.42681e-05
2.91386e-05
2.81326e-05
1.06815e-05
1.73694e-05
2.42589e-05
2.95129e-05
2.78904e-05
9.95681e-06
1.60137e-05
2.24962e-05
2.76649e-05
2.55542e-05
8.54236e-06
1.37322e-05
1.93546e-05
2.39847e-05
2.19214e-05
6.78073e-06
1.10034e-05
1.55711e-05
1.95062e-05
1.84246e-05
4.93132e-06
8.17067e-06
1.16652e-05
1.49781e-05
1.62169e-05
3.22357e-06
5.57137e-06
8.31803e-06
1.14053e-05
1.54095e-05
2.15029e-06
4.06727e-06
6.77085e-06
1.05019e-05
1.65986e-05
2.39899e-06
5.24431e-06
9.20107e-06
1.38555e-05
2.05398e-05
4.66638e-06
9.74248e-06
1.57777e-05
2.14449e-05
2.76765e-05
8.82732e-06
1.63506e-05
2.3953e-05
2.99441e-05
3.49828e-05
1.36016e-05
2.23639e-05
2.97367e-05
3.4315e-05
3.64786e-05
1.71782e-05
2.53439e-05
3.13133e-05
3.40134e-05
3.23082e-05
1.84832e-05
2.57095e-05
3.10734e-05
3.30306e-05
2.81223e-05
1.8211e-05
2.50986e-05
3.07218e-05
3.26846e-05
2.59269e-05
1.69767e-05
2.3327e-05
2.87408e-05
3.10056e-05
2.42309e-05
1.4866e-05
2.02591e-05
2.50178e-05
2.73883e-05
2.23132e-05
1.23918e-05
1.65851e-05
2.04705e-05
2.31327e-05
2.02451e-05
9.88048e-06
1.29308e-05
1.60601e-05
1.88705e-05
1.87688e-05
7.56865e-06
9.78654e-06
1.21821e-05
1.52215e-05
1.84767e-05
5.44127e-06
7.10613e-06
9.13968e-06
1.28967e-05
1.9163e-05
3.56018e-06
5.17182e-06
7.77015e-06
1.26509e-05
2.08153e-05
2.85927e-06
5.59653e-06
9.82846e-06
1.56084e-05
2.42263e-05
4.17275e-06
9.28271e-06
1.56865e-05
2.21992e-05
3.00177e-05
7.59086e-06
1.53872e-05
2.35813e-05
3.03232e-05
3.62612e-05
1.20466e-05
2.14916e-05
2.98124e-05
3.50578e-05
3.75839e-05
1.91735e-09
6.87829e-10
2.78534e-10
1.50266e-10
1.39309e-10
1.4951e-10
1.63702e-10
1.72753e-10
1.70931e-10
1.49675e-10
1.03567e-10
5.31553e-11
2.2933e-11
3.65911e-11
1.29297e-09
3.32886e-10
8.41708e-11
2.35589e-11
1.10536e-11
1.0825e-11
1.38364e-11
1.72956e-11
1.97596e-11
1.96976e-11
1.52325e-11
8.20096e-12
4.66776e-12
3.27497e-11
2.13511e-09
6.15785e-10
1.66033e-10
4.01718e-11
8.55512e-12
1.93253e-12
1.08106e-12
1.3578e-12
1.76928e-12
2.00002e-12
1.70996e-12
1.00705e-12
2.25114e-12
3.49324e-11
3.6448e-09
1.12015e-09
3.03051e-10
7.08483e-11
1.39966e-11
2.3072e-12
3.43766e-13
1.09724e-13
1.24413e-13
1.58254e-13
1.50631e-13
1.25232e-13
1.46251e-12
2.88613e-11
5.04688e-09
1.52703e-09
4.01793e-10
9.04918e-11
1.71664e-11
2.69504e-12
3.42457e-13
3.70564e-14
8.81743e-15
9.68693e-15
1.02737e-14
2.6371e-14
8.66815e-13
1.92373e-11
6.37254e-09
1.81784e-09
4.49372e-10
9.51259e-11
1.70088e-11
2.52e-12
3.02596e-13
2.88541e-14
2.49033e-15
6.87147e-16
6.60522e-16
8.25594e-15
4.31801e-13
1.10952e-11
8.03307e-09
2.10748e-09
4.79635e-10
9.37463e-11
1.55225e-11
2.13731e-12
2.43441e-13
2.53208e-14
4.4672e-15
1.89175e-15
9.83945e-16
3.86708e-15
2.17253e-13
6.08956e-12
1.01938e-08
2.45866e-09
5.15439e-10
9.30895e-11
1.42646e-11
1.86296e-12
2.43345e-13
6.32142e-14
3.65305e-14
2.25305e-14
1.26057e-14
8.23131e-15
1.17508e-13
3.35364e-12
1.27954e-08
2.85642e-09
5.52384e-10
9.19681e-11
1.32699e-11
1.99365e-12
6.53005e-13
4.59977e-13
3.51592e-13
2.38723e-13
1.44797e-13
8.51164e-14
1.12625e-13
1.89552e-12
1.56842e-08
3.3021e-09
6.01912e-10
9.5007e-11
1.4866e-11
4.89121e-12
3.99428e-12
3.57731e-12
2.9386e-12
2.14401e-12
1.40379e-12
8.96704e-13
5.85605e-13
1.35542e-12
1.81362e-08
3.6076e-09
6.29125e-10
1.02713e-10
2.82729e-11
2.35738e-11
2.51734e-11
2.41649e-11
2.09652e-11
1.63554e-11
1.15395e-11
7.99571e-12
5.19012e-12
3.92467e-12
1.97873e-08
3.78226e-09
6.65785e-10
1.48794e-10
1.01468e-10
1.20716e-10
1.38934e-10
1.40278e-10
1.28499e-10
1.06955e-10
8.13666e-11
6.04268e-11
4.10465e-11
2.78456e-11
2.00657e-08
3.81426e-09
7.88022e-10
3.67682e-10
4.29142e-10
5.55567e-10
6.65524e-10
7.03902e-10
6.80874e-10
6.04722e-10
4.96641e-10
3.91445e-10
2.78675e-10
1.89864e-10
2.24448e-08
4.79191e-09
1.48924e-09
1.2835e-09
1.71147e-09
2.26262e-09
2.78542e-09
3.07404e-09
3.14368e-09
2.99123e-09
2.64914e-09
2.19983e-09
1.63878e-09
1.13736e-09
1.59717e-10
4.9484e-11
2.1625e-11
1.70866e-11
1.96601e-11
2.37997e-11
2.8499e-11
3.22775e-11
3.36011e-11
3.07481e-11
2.23317e-11
1.18386e-11
4.83752e-12
3.10499e-12
2.18642e-10
5.46522e-11
1.31462e-11
3.3652e-12
1.56965e-12
1.71593e-12
2.39075e-12
3.15954e-12
3.75764e-12
3.87112e-12
3.09388e-12
1.72722e-12
7.08689e-13
1.68783e-12
4.33654e-10
1.16577e-10
2.84274e-11
6.2138e-12
1.21089e-12
2.7001e-13
1.77661e-13
2.43452e-13
3.29085e-13
3.805e-13
3.31605e-13
1.96949e-13
1.50986e-13
1.96933e-12
7.66961e-10
2.1424e-10
5.2582e-11
1.11985e-11
2.03555e-12
3.14204e-13
4.65478e-14
1.81612e-14
2.27944e-14
2.94853e-14
2.81894e-14
1.88371e-14
8.39433e-14
1.96303e-12
1.08525e-09
2.97808e-10
7.10447e-11
1.45836e-11
2.546e-12
3.73216e-13
4.52358e-14
4.99772e-15
1.52816e-15
1.81494e-15
1.89624e-15
2.13381e-15
5.75056e-14
1.61126e-12
1.36129e-09
3.51784e-10
7.8995e-11
1.52894e-11
2.52386e-12
3.50173e-13
4.00961e-14
3.76216e-15
3.62024e-16
1.41301e-16
1.39094e-16
5.84967e-16
3.49314e-14
1.11612e-12
1.64069e-09
3.90917e-10
8.10695e-11
1.4538e-11
2.23002e-12
2.88555e-13
3.12676e-14
3.0575e-15
4.60979e-16
1.83429e-16
1.06133e-16
3.36217e-16
2.15869e-14
7.3089e-13
1.95368e-09
4.2814e-10
8.18526e-11
1.35882e-11
1.93296e-12
2.36599e-13
2.82726e-14
6.19271e-15
3.19484e-15
1.84177e-15
9.74531e-16
6.38887e-16
1.3426e-14
4.59861e-13
2.26443e-09
4.58468e-10
8.10043e-11
1.24461e-11
1.66985e-12
2.31348e-13
6.82098e-14
4.47548e-14
3.22833e-14
2.03567e-14
1.14132e-14
6.07301e-15
1.17388e-14
2.84532e-13
2.52527e-09
4.79867e-10
7.95663e-11
1.15472e-11
1.6979e-12
5.52267e-13
4.42049e-13
3.77169e-13
2.92009e-13
1.96378e-13
1.1766e-13
6.67795e-14
4.18926e-14
1.85177e-13
2.63583e-09
4.74315e-10
7.52603e-11
1.14049e-11
3.31891e-12
2.95805e-12
3.08434e-12
2.80287e-12
2.28037e-12
1.63036e-12
1.04254e-12
6.37828e-13
3.69821e-13
3.00282e-13
2.5374e-09
4.3926e-10
7.11859e-11
1.67377e-11
1.38642e-11
1.70878e-11
1.90404e-11
1.80787e-11
1.54399e-11
1.17152e-11
7.99406e-12
5.2199e-12
3.13803e-12
1.92708e-12
2.22151e-09
3.88211e-10
8.05801e-11
4.99364e-11
6.72112e-11
8.86495e-11
1.02602e-10
1.01453e-10
9.09152e-11
7.30791e-11
5.32306e-11
3.6815e-11
2.30273e-11
1.40481e-11
2.13874e-09
4.42119e-10
1.73584e-10
2.04937e-10
3.02005e-10
4.07369e-10
4.85436e-10
4.99014e-10
4.69572e-10
4.00307e-10
3.11866e-10
2.26755e-10
1.47075e-10
9.06385e-11
1.72582e-11
4.46908e-12
2.03558e-12
2.01977e-12
2.70694e-12
3.6624e-12
4.77906e-12
5.78098e-12
6.2987e-12
5.95765e-12
4.45526e-12
2.45739e-12
1.0052e-12
4.19274e-13
3.59768e-11
8.51535e-12
1.89218e-12
4.45207e-13
2.14213e-13
2.65095e-13
4.01169e-13
5.59993e-13
6.90906e-13
7.29967e-13
5.94581e-13
3.44149e-13
1.37341e-13
1.00859e-13
7.62019e-11
1.8976e-11
4.25128e-12
8.54232e-13
1.55373e-13
3.58205e-14
2.87911e-14
4.28444e-14
5.9913e-14
7.05659e-14
6.2145e-14
3.77687e-14
1.70371e-14
9.74964e-14
1.3778e-10
3.53622e-11
7.97343e-12
1.56987e-12
2.66849e-13
3.92452e-14
6.01273e-15
3.02415e-15
4.1499e-15
5.43964e-15
5.21278e-15
3.38711e-15
4.67234e-15
1.10635e-13
1.9747e-10
4.96691e-11
1.08985e-11
2.07387e-12
3.39188e-13
4.72122e-14
5.56292e-15
6.7138e-16
2.90684e-16
3.62571e-16
3.75589e-16
2.93144e-16
3.11957e-15
1.06607e-13
2.43893e-10
5.78778e-11
1.19952e-11
2.15913e-12
3.34751e-13
4.41886e-14
4.91208e-15
4.83625e-16
7.88669e-17
5.4807e-17
5.50777e-17
7.12882e-17
2.2928e-15
8.83927e-14
2.8028e-10
6.16503e-11
1.18624e-11
1.98717e-12
2.87341e-13
3.54874e-14
3.73542e-15
3.77799e-16
7.70893e-17
4.83683e-17
4.22522e-17
5.54106e-17
1.75329e-15
7.04455e-14
3.1112e-10
6.32324e-11
1.12699e-11
1.75393e-12
2.35995e-13
2.75341e-14
3.09823e-15
6.05878e-16
2.93654e-16
1.7315e-16
1.02425e-16
7.79246e-17
1.28952e-15
5.04046e-14
3.3186e-10
6.24852e-11
1.0328e-11
1.49391e-12
1.89757e-13
2.46046e-14
6.52376e-15
3.99978e-15
2.74192e-15
1.63739e-15
8.72669e-16
4.46352e-16
1.23518e-15
3.59702e-14
3.36527e-10
5.94648e-11
9.22908e-12
1.26279e-12
1.76214e-13
5.54486e-14
4.29385e-14
3.52101e-14
2.58173e-14
1.62118e-14
9.0346e-15
4.67294e-15
3.09138e-15
2.50975e-14
3.14851e-10
5.26688e-11
7.81723e-12
1.13075e-12
3.45288e-13
3.18274e-13
3.21536e-13
2.79853e-13
2.14372e-13
1.41935e-13
8.37168e-14
4.61385e-14
2.44471e-14
2.59505e-14
2.68056e-10
4.33297e-11
6.64809e-12
1.69847e-12
1.62394e-12
2.01772e-12
2.15704e-12
1.95162e-12
1.55893e-12
1.08716e-12
6.78461e-13
3.96692e-13
2.14755e-13
1.23011e-13
2.04451e-10
3.39005e-11
7.44218e-12
6.0289e-12
8.79884e-12
1.1553e-11
1.27546e-11
1.19556e-11
9.9475e-12
7.29432e-12
4.81088e-12
2.96241e-12
1.65853e-12
9.18233e-13
1.73382e-10
3.63348e-11
1.92552e-11
2.8253e-11
4.39246e-11
5.88838e-11
6.67141e-11
6.46045e-11
5.59683e-11
4.31556e-11
3.00902e-11
1.93728e-11
1.11567e-11
6.21451e-12
2.14256e-12
4.89598e-13
1.98196e-13
2.16296e-13
3.27984e-13
4.91143e-13
6.94446e-13
8.94136e-13
1.01901e-12
9.94011e-13
7.59962e-13
4.35219e-13
1.82157e-13
6.58682e-14
5.20386e-12
1.15743e-12
2.39017e-13
5.21877e-14
2.59548e-14
3.59062e-14
5.85327e-14
8.61304e-14
1.10267e-13
1.1943e-13
9.86913e-14
5.88961e-14
2.425e-14
9.48603e-15
1.13401e-11
2.63605e-12
5.49147e-13
1.02738e-13
1.76624e-14
4.3006e-15
4.15095e-15
6.60578e-15
9.53322e-15
1.14437e-14
1.01609e-14
6.31784e-15
2.65826e-15
4.58782e-15
2.07668e-11
4.94489e-12
1.03518e-12
1.90339e-13
3.05453e-14
4.33309e-15
7.25504e-16
4.76264e-16
6.87284e-16
9.04564e-16
8.69702e-16
5.78726e-16
3.65461e-16
5.28859e-15
2.97578e-11
6.95132e-12
1.42071e-12
2.53315e-13
3.91847e-14
5.24026e-15
6.29917e-16
1.09883e-16
7.55486e-17
8.93002e-17
9.11831e-17
7.46419e-17
1.79533e-16
5.8183e-15
3.57389e-11
7.90329e-12
1.53232e-12
2.59465e-13
3.81544e-14
4.85165e-15
5.5253e-16
8.36769e-17
4.1937e-17
3.97857e-17
3.99062e-17
3.99534e-17
1.55628e-16
5.71428e-15
3.89433e-11
8.01841e-12
1.45045e-12
2.29711e-13
3.16522e-14
3.78764e-15
4.16489e-16
7.05586e-17
4.0505e-17
3.79097e-17
3.74873e-17
3.81119e-17
1.44391e-16
5.30586e-15
4.01457e-11
7.66902e-12
1.29061e-12
1.90662e-13
2.45477e-14
2.78399e-15
3.25774e-16
8.26872e-17
5.44394e-17
4.541e-17
4.07407e-17
3.95236e-17
1.33581e-16
4.40889e-15
3.93749e-11
6.98545e-12
1.09374e-12
1.50749e-13
1.83667e-14
2.28464e-15
5.71089e-16
3.38031e-16
2.30014e-16
1.43732e-16
8.79096e-17
5.99461e-17
1.45164e-16
3.67719e-15
3.64067e-11
6.06951e-12
8.93865e-13
1.169e-13
1.57088e-14
4.81536e-15
3.60223e-15
2.83663e-15
1.97607e-15
1.17887e-15
6.26318e-16
3.15702e-16
2.54128e-16
2.96522e-15
3.06838e-11
4.85307e-12
6.84776e-13
9.6205e-14
3.10642e-14
2.9149e-14
2.84424e-14
2.36571e-14
1.70593e-14
1.05633e-14
5.79051e-15
2.93647e-15
1.47382e-15
2.49756e-15
2.33992e-11
3.5966e-12
5.33309e-13
1.52361e-13
1.62368e-13
1.99793e-13
2.0459e-13
1.76009e-13
1.31524e-13
8.51242e-14
4.89834e-14
2.6079e-14
1.28973e-14
7.25992e-15
1.5874e-11
2.55008e-12
6.2134e-13
6.37072e-13
9.67385e-13
1.24394e-12
1.30762e-12
1.15949e-12
8.96948e-13
6.0613e-13
3.65776e-13
2.03837e-13
1.03552e-13
5.28491e-14
1.22142e-11
2.71314e-12
1.97926e-12
3.33582e-12
5.2928e-12
6.92262e-12
7.43105e-12
6.76842e-12
5.41426e-12
3.81658e-12
2.41047e-12
1.39596e-12
7.25612e-13
3.7044e-13
2.46484e-13
5.13017e-14
1.77975e-14
2.02761e-14
3.42998e-14
5.64919e-14
8.61973e-14
1.17838e-13
1.40371e-13
1.41123e-13
1.09781e-13
6.45204e-14
2.78597e-14
9.73528e-15
6.40602e-13
1.34102e-13
2.60008e-14
5.33504e-15
2.75708e-15
4.21079e-15
7.33436e-15
1.13422e-14
1.50616e-14
1.67264e-14
1.39957e-14
8.52516e-15
3.65271e-15
1.26668e-15
1.42578e-12
3.11451e-13
6.09622e-14
1.0747e-14
1.78594e-15
4.8575e-16
5.45572e-16
9.00623e-16
1.32696e-15
1.6186e-15
1.45139e-15
9.25147e-16
4.15143e-16
2.88243e-16
2.63632e-12
5.88028e-13
1.15496e-13
2.00236e-14
3.07841e-15
4.48994e-16
1.07523e-16
9.31463e-17
1.25205e-16
1.56688e-16
1.52129e-16
1.12092e-16
7.23943e-17
2.73973e-16
3.76441e-12
8.25336e-13
1.58735e-13
2.67655e-14
3.96764e-15
5.38099e-16
9.26595e-17
4.44766e-17
4.21032e-17
4.4219e-17
4.44548e-17
4.20905e-17
4.45794e-17
3.3386e-16
4.38423e-12
9.13393e-13
1.67397e-13
2.69187e-14
3.80586e-15
4.94403e-16
8.44262e-17
4.12626e-17
3.75221e-17
3.73758e-17
3.74011e-17
3.73443e-17
4.34377e-17
3.81926e-16
4.53831e-12
8.84439e-13
1.5194e-13
2.29681e-14
3.06195e-15
3.82864e-16
7.07588e-17
3.99097e-17
3.72856e-17
3.70749e-17
3.7051e-17
3.7101e-17
4.40212e-17
4.08728e-16
4.3593e-12
7.91952e-13
1.27115e-13
1.80056e-14
2.25867e-15
2.76667e-16
6.05925e-17
4.0207e-17
3.80396e-17
3.74747e-17
3.72131e-17
3.71888e-17
4.48677e-17
3.96481e-16
3.94586e-12
6.68113e-13
1.00187e-13
1.33002e-14
1.59064e-15
2.16546e-16
7.43436e-17
5.58672e-17
4.81621e-17
4.26966e-17
3.95078e-17
3.81672e-17
4.72695e-17
3.90603e-16
3.33622e-12
5.32246e-13
7.52862e-14
9.5184e-15
1.25781e-15
3.88398e-16
2.86753e-16
2.24113e-16
1.59113e-16
1.03934e-16
6.83662e-17
5.02965e-17
5.3632e-17
3.66539e-16
2.55143e-12
3.87355e-13
5.26258e-14
7.24091e-15
2.42863e-15
2.27582e-15
2.14674e-15
1.71385e-15
1.17845e-15
6.99653e-16
3.73044e-16
1.91893e-16
1.11552e-16
2.99449e-16
1.75934e-12
2.60872e-13
3.78953e-14
1.20124e-14
1.36883e-14
1.65215e-14
1.6241e-14
1.33033e-14
9.36184e-15
5.68188e-15
3.05033e-15
1.51096e-15
7.08567e-16
4.49203e-16
1.077e-12
1.70032e-13
4.70918e-14
5.74769e-14
8.85491e-14
1.1072e-13
1.11075e-13
9.32523e-14
6.75227e-14
4.24516e-14
2.36617e-14
1.20968e-14
5.66993e-15
2.72959e-15
7.66296e-13
1.87275e-13
1.81499e-13
3.31481e-13
5.26496e-13
6.66534e-13
6.78952e-13
5.82207e-13
4.33312e-13
2.82012e-13
1.63133e-13
8.61526e-14
4.1095e-14
1.9478e-14
2.47642e-14
4.82131e-15
1.45503e-15
1.6649e-15
3.08329e-15
5.53067e-15
9.05438e-15
1.31039e-14
1.63031e-14
1.68979e-14
1.33842e-14
8.01374e-15
3.56225e-15
1.27566e-15
6.69909e-14
1.33008e-14
2.46397e-15
5.02442e-16
2.80286e-16
4.47344e-16
8.04519e-16
1.28842e-15
1.76497e-15
2.00795e-15
1.70805e-15
1.06634e-15
4.86095e-16
1.89514e-16
1.5222e-13
3.148e-14
5.85931e-15
1.00732e-15
1.88775e-16
7.80684e-17
9.00211e-17
1.32577e-16
1.84907e-16
2.22615e-16
2.04639e-16
1.43022e-16
8.28941e-17
5.61424e-17
2.83344e-13
5.97413e-14
1.11374e-14
1.86294e-15
3.02695e-16
7.18226e-17
4.34012e-17
4.31184e-17
4.71063e-17
5.09899e-17
5.05072e-17
4.58058e-17
4.09666e-17
4.72564e-17
4.02077e-13
8.35216e-14
1.52796e-14
2.48385e-15
3.81906e-16
7.93995e-17
4.16051e-17
3.76733e-17
3.75645e-17
3.78309e-17
3.78596e-17
3.75805e-17
3.75263e-17
5.15576e-17
4.53875e-13
8.99285e-14
1.57422e-14
2.45018e-15
3.61976e-16
7.49803e-17
4.08345e-17
3.73324e-17
3.70354e-17
3.70295e-17
3.70341e-17
3.70263e-17
3.73825e-17
5.73696e-17
4.47325e-13
8.32828e-14
1.37319e-14
2.02306e-15
2.89217e-16
6.46944e-17
3.96379e-17
3.72135e-17
3.70083e-17
3.69936e-17
3.69936e-17
3.69994e-17
3.74765e-17
6.25939e-17
4.02342e-13
7.01757e-14
1.08602e-14
1.51234e-15
2.12658e-16
5.50559e-17
3.87082e-17
3.71954e-17
3.7045e-17
3.70142e-17
3.70025e-17
3.70071e-17
3.76339e-17
6.59534e-17
3.37921e-13
5.51868e-14
8.02107e-15
1.05961e-15
1.51901e-16
4.92852e-17
3.92268e-17
3.79957e-17
3.7552e-17
3.72676e-17
3.71113e-17
3.70581e-17
3.79425e-17
7.01487e-17
2.63101e-13
4.06393e-14
5.59945e-15
7.15257e-16
1.19364e-16
5.85037e-17
5.12657e-17
4.70681e-17
4.31293e-17
4.01204e-17
3.83637e-17
3.75663e-17
3.84163e-17
7.16782e-17
1.84386e-13
2.71996e-14
3.61706e-15
5.12415e-16
1.92375e-16
1.79487e-16
1.66553e-16
1.35242e-16
9.98977e-17
7.07874e-17
5.24661e-17
4.33446e-17
4.04891e-17
6.51039e-17
1.16379e-13
1.68437e-14
2.43395e-15
8.45446e-16
9.89175e-16
1.16223e-15
1.10286e-15
8.70463e-16
5.91315e-16
3.52018e-16
1.92689e-16
1.06118e-16
6.53053e-17
6.1828e-17
6.5133e-14
1.02128e-14
3.20635e-15
4.36735e-15
6.71819e-15
8.15582e-15
7.84616e-15
6.2723e-15
4.29505e-15
2.54632e-15
1.33666e-15
6.48778e-16
2.9965e-16
1.55792e-16
4.33912e-14
1.19149e-14
1.4362e-14
2.73823e-14
4.30901e-14
5.27111e-14
5.1189e-14
4.1543e-14
2.9018e-14
1.76219e-14
9.45126e-15
4.61889e-15
2.05523e-15
9.31133e-16
2.15806e-15
4.24044e-16
1.3577e-16
1.47108e-16
2.65166e-16
4.87376e-16
8.30853e-16
1.25451e-15
1.6197e-15
1.72852e-15
1.39986e-15
8.61857e-16
4.07357e-16
1.68886e-16
5.95826e-15
1.15409e-15
2.31107e-16
7.21431e-17
5.5066e-17
7.03385e-17
1.04241e-16
1.52932e-16
2.03794e-16
2.32723e-16
2.05403e-16
1.41673e-16
8.32461e-17
5.2821e-17
1.37693e-14
2.73584e-15
5.12804e-16
1.1264e-16
4.83661e-17
4.0208e-17
4.16133e-17
4.58161e-17
5.12005e-17
5.53112e-17
5.37164e-17
4.76041e-17
4.16337e-17
3.86872e-17
2.57682e-14
5.19445e-15
9.5101e-16
1.80815e-16
5.71024e-17
3.95396e-17
3.74845e-17
3.75437e-17
3.79532e-17
3.83556e-17
3.83172e-17
3.78542e-17
3.73716e-17
3.74728e-17
3.62823e-14
7.21381e-15
1.28923e-15
2.29746e-16
6.31552e-17
4.01005e-17
3.73093e-17
3.70301e-17
3.70306e-17
3.70594e-17
3.70637e-17
3.70377e-17
3.7021e-17
3.76636e-17
3.97277e-14
7.56164e-15
1.29809e-15
2.23222e-16
6.11175e-17
3.97275e-17
3.72499e-17
3.70003e-17
3.69803e-17
3.69813e-17
3.6983e-17
3.69839e-17
3.70048e-17
3.80775e-17
3.73804e-14
6.71959e-15
1.09607e-15
1.84834e-16
5.49965e-17
3.89204e-17
3.71616e-17
3.69928e-17
3.69792e-17
3.69793e-17
3.69805e-17
3.69827e-17
3.70146e-17
3.85643e-17
3.1667e-14
5.36451e-15
8.31684e-16
1.41188e-16
4.88271e-17
3.81882e-17
3.70923e-17
3.69915e-17
3.69827e-17
3.69823e-17
3.69831e-17
3.69855e-17
3.70332e-17
3.90683e-17
2.48589e-14
3.96948e-15
5.88979e-16
1.04725e-16
4.42087e-17
3.77416e-17
3.71019e-17
3.70289e-17
3.70075e-17
3.69957e-17
3.69904e-17
3.6991e-17
3.70673e-17
3.97321e-17
1.79834e-14
2.73579e-15
3.95845e-16
7.84693e-17
4.17045e-17
3.8113e-17
3.76771e-17
3.74527e-17
3.72597e-17
3.71216e-17
3.70454e-17
3.70151e-17
3.71106e-17
4.01722e-17
1.16801e-14
1.71295e-15
2.50726e-16
6.35701e-17
4.53994e-17
4.44344e-17
4.34595e-17
4.16301e-17
3.97799e-17
3.84018e-17
3.76068e-17
3.72394e-17
3.71913e-17
3.96891e-17
6.84276e-15
9.98859e-16
1.69841e-16
8.31154e-17
9.19949e-17
1.00304e-16
9.46128e-17
7.97515e-17
6.35799e-17
5.08768e-17
4.31958e-17
3.94923e-17
3.79963e-17
3.88012e-17
3.56211e-15
5.8148e-16
2.22706e-16
3.09583e-16
4.55074e-16
5.30574e-16
4.93284e-16
3.84317e-16
2.61183e-16
1.60525e-16
9.56849e-17
6.1707e-17
4.63191e-17
4.12192e-17
2.25068e-15
7.15807e-16
9.97847e-16
1.91624e-15
2.95519e-15
3.48685e-15
3.24081e-15
2.50673e-15
1.66474e-15
9.63689e-16
4.98472e-16
2.44046e-16
1.19975e-16
7.05036e-17
1.90761e-16
6.36007e-17
4.29226e-17
4.29601e-17
5.0834e-17
6.74814e-17
9.53266e-17
1.32103e-16
1.66353e-16
1.79667e-16
1.5398e-16
1.08436e-16
6.93254e-17
4.85968e-17
4.79066e-16
1.16552e-16
5.0128e-17
3.92248e-17
3.81094e-17
3.92387e-17
4.1874e-17
4.59328e-17
5.04692e-17
5.33208e-17
5.12483e-17
4.58894e-17
4.09414e-17
3.83424e-17
1.0825e-15
2.33183e-16
7.00248e-17
4.19911e-17
3.7686e-17
3.71737e-17
3.73032e-17
3.76508e-17
3.81125e-17
3.84836e-17
3.83673e-17
3.78584e-17
3.73598e-17
3.71037e-17
2.01192e-15
4.15085e-16
1.01127e-16
4.66609e-17
3.82651e-17
3.71182e-17
3.69914e-17
3.70021e-17
3.70381e-17
3.70742e-17
3.70732e-17
3.70361e-17
3.69972e-17
3.69913e-17
2.79723e-15
5.60358e-16
1.2457e-16
4.9947e-17
3.86669e-17
3.7156e-17
3.69789e-17
3.69629e-17
3.69645e-17
3.69682e-17
3.69699e-17
3.69693e-17
3.69689e-17
3.69984e-17
2.97154e-15
5.71491e-16
1.22995e-16
4.91893e-17
3.85072e-17
3.71324e-17
3.6977e-17
3.69625e-17
3.69623e-17
3.69636e-17
3.6965e-17
3.69666e-17
3.69693e-17
3.70239e-17
2.67927e-15
4.92954e-16
1.06368e-16
4.62703e-17
3.80809e-17
3.70812e-17
3.69736e-17
3.69643e-17
3.69644e-17
3.69657e-17
3.69671e-17
3.69688e-17
3.69723e-17
3.70597e-17
2.15455e-15
3.8189e-16
8.6223e-17
4.31606e-17
3.76701e-17
3.70363e-17
3.69718e-17
3.69668e-17
3.69673e-17
3.69686e-17
3.697e-17
3.69718e-17
3.69767e-17
3.71069e-17
1.59896e-15
2.76676e-16
6.89538e-17
4.07459e-17
3.73785e-17
3.70099e-17
3.69741e-17
3.69712e-17
3.69714e-17
3.69723e-17
3.69735e-17
3.69755e-17
3.69829e-17
3.71755e-17
1.09314e-15
1.90586e-16
5.61533e-17
3.91309e-17
3.72196e-17
3.70232e-17