/*--------------------------------*- C++ -*----------------------------------*\
| =========                 |                                                 |
| \\      /  F ield         | OpenFOAM: The Open Source CFD Toolbox           |
|  \\    /   O peration     | Version:  v2106                                 |
|   \\  /    A nd           | Website:  www.openfoam.com                      |
|    \\/     M anipulation  |                                                 |
\*---------------------------------------------------------------------------*/
FoamFile
{
    version     2.0;
    format      ascii;
    arch        "LSB;label=32;scalar=64";
    class       volScalarField;
    location    "0.000189";
    object      alphat;
}
// * * * * * * * * * * * * * * * * * * * * * * * * * * * * * * * * * * * * * //

dimensions      [1 -1 -1 0 0 0 0];

internalField   nonuniform List<scalar> 
144746
(
0.000140006
0.000113305
8.4735e-05
5.74514e-05
4.11077e-05
3.60664e-05
4.41334e-05
6.6968e-05
0.000103746
0.000146371
0.000174034
0.000172715
0.000154391
0.000136132
0.000148153
0.000111831
7.45465e-05
4.47789e-05
2.86679e-05
2.22467e-05
2.47247e-05
3.74599e-05
6.14992e-05
9.45963e-05
0.000128015
0.000143188
0.000134992
0.000120172
0.00013706
9.24691e-05
5.45359e-05
2.98151e-05
1.7962e-05
1.29548e-05
1.32712e-05
1.99394e-05
3.46981e-05
5.70553e-05
8.294e-05
0.000105463
0.000109694
0.000104478
0.000104541
6.15408e-05
3.24581e-05
1.66364e-05
9.71404e-06
6.85136e-06
6.87412e-06
1.05102e-05
1.93894e-05
3.38322e-05
5.16117e-05
6.96487e-05
7.99872e-05
8.39333e-05
6.57285e-05
3.36668e-05
1.61241e-05
7.84356e-06
4.47364e-06
3.22264e-06
3.46426e-06
5.78123e-06
1.14763e-05
2.12717e-05
3.39704e-05
4.7028e-05
5.80006e-05
6.8051e-05
3.51803e-05
1.59015e-05
6.8976e-06
3.15449e-06
1.78015e-06
1.40281e-06
1.83457e-06
3.58488e-06
7.6393e-06
1.47395e-05
2.42596e-05
3.41423e-05
4.44609e-05
5.90914e-05
1.76336e-05
7.12743e-06
2.80153e-06
1.20814e-06
6.99672e-07
6.91612e-07
1.22205e-06
2.73334e-06
5.9648e-06
1.15145e-05
1.9055e-05
2.74217e-05
3.91665e-05
6.17333e-05
1.02207e-05
3.957e-06
1.53181e-06
6.97892e-07
4.63932e-07
5.89479e-07
1.1877e-06
2.62926e-06
5.4628e-06
1.0117e-05
1.64755e-05
2.47298e-05
4.14621e-05
7.61714e-05
9.0571e-06
3.73018e-06
1.69421e-06
9.57174e-07
7.32505e-07
8.92431e-07
1.54978e-06
2.99685e-06
5.64379e-06
9.83371e-06
1.58341e-05
2.6912e-05
5.36101e-05
0.000102076
1.24816e-05
5.46226e-06
2.88345e-06
1.92887e-06
1.56558e-06
1.67967e-06
2.37375e-06
3.87287e-06
6.52534e-06
1.0832e-05
1.84813e-05
3.72163e-05
7.66838e-05
0.00013196
2.43896e-05
1.11127e-05
5.61773e-06
4.05763e-06
3.42184e-06
3.39255e-06
4.10083e-06
5.77975e-06
8.91477e-06
1.48406e-05
2.73363e-05
5.80795e-05
0.000104729
0.000152551
5.01036e-05
3.15925e-05
1.66424e-05
9.42843e-06
7.33613e-06
6.94678e-06
7.70805e-06
9.89028e-06
1.43448e-05
2.37938e-05
4.42099e-05
8.32104e-05
0.000125336
0.00015652
8.1829e-05
6.61262e-05
4.36787e-05
2.51641e-05
1.62304e-05
1.36389e-05
1.41477e-05
1.71387e-05
2.36101e-05
3.71664e-05
6.2939e-05
9.97961e-05
0.000129136
0.000146509
0.000109216
0.000102689
8.38437e-05
5.86843e-05
3.84999e-05
2.77458e-05
2.48785e-05
2.75185e-05
3.52205e-05
5.07256e-05
7.53739e-05
0.000102896
0.00012094
0.000133348
0.000116592
8.96024e-05
6.42494e-05
4.31878e-05
3.11161e-05
2.67615e-05
3.14698e-05
4.64377e-05
7.15493e-05
0.000102837
0.000131643
0.000145614
0.000142411
0.000131523
0.00011317
8.14042e-05
5.33125e-05
3.28606e-05
2.19353e-05
1.72395e-05
1.86407e-05
2.74008e-05
4.45819e-05
6.79804e-05
9.24064e-05
0.000111997
0.000116247
0.000111492
9.57608e-05
6.32549e-05
3.79574e-05
2.19507e-05
1.3946e-05
1.03518e-05
1.04961e-05
1.5374e-05
2.65459e-05
4.32629e-05
6.22646e-05
7.92777e-05
8.97432e-05
9.19036e-05
6.83556e-05
4.08724e-05
2.27204e-05
1.2527e-05
7.70141e-06
5.60338e-06
5.60864e-06
8.43698e-06
1.55383e-05
2.70768e-05
4.09041e-05
5.38616e-05
6.41435e-05
7.06566e-05
4.11287e-05
2.21307e-05
1.13823e-05
6.00662e-06
3.62549e-06
2.6879e-06
2.87324e-06
4.7387e-06
9.41304e-06
1.74456e-05
2.77043e-05
3.79649e-05
4.6946e-05
5.57013e-05
2.12427e-05
1.01353e-05
4.80086e-06
2.41969e-06
1.45862e-06
1.17487e-06
1.51586e-06
2.93658e-06
6.26471e-06
1.20866e-05
1.9912e-05
2.82519e-05
3.61988e-05
4.63479e-05
1.02564e-05
4.27981e-06
1.82675e-06
8.723e-07
5.42722e-07
5.45644e-07
9.64918e-07
2.18138e-06
4.80067e-06
9.30515e-06
1.55127e-05
2.25819e-05
3.05774e-05
4.42701e-05
5.93567e-06
2.25978e-06
8.74722e-07
4.00449e-07
2.7939e-07
3.91138e-07
8.56243e-07
1.99466e-06
4.26138e-06
8.02351e-06
1.32584e-05
1.97567e-05
2.96225e-05
4.9535e-05
5.53886e-06
2.15269e-06
8.95843e-07
4.70471e-07
3.70914e-07
5.18703e-07
1.02499e-06
2.15538e-06
4.27003e-06
7.68096e-06
1.26064e-05
1.99018e-05
3.45643e-05
6.33791e-05
7.90539e-06
3.24688e-06
1.57103e-06
9.92463e-07
8.18063e-07
9.60338e-07
1.513e-06
2.69933e-06
4.85002e-06
8.38265e-06
1.40985e-05
2.46718e-05
4.74292e-05
8.3044e-05
1.52952e-05
6.48101e-06
3.21081e-06
2.25924e-06
1.91096e-06
1.99928e-06
2.62374e-06
4.00923e-06
6.58131e-06
1.1113e-05
1.93173e-05
3.65781e-05
6.61712e-05
0.000103731
3.33631e-05
1.89532e-05
9.3581e-06
5.31079e-06
4.29852e-06
4.2343e-06
4.99536e-06
6.84781e-06
1.03769e-05
1.6948e-05
2.98207e-05
5.36208e-05
8.57585e-05
0.000120249
5.93452e-05
4.24926e-05
2.55012e-05
1.39091e-05
9.37322e-06
8.52511e-06
9.38128e-06
1.19417e-05
1.69063e-05
2.61588e-05
4.29523e-05
7.04502e-05
0.000100701
0.000127602
8.57183e-05
7.13175e-05
5.19976e-05
3.33314e-05
2.14054e-05
1.66709e-05
1.65112e-05
1.9518e-05
2.5718e-05
3.68483e-05
5.56568e-05
8.29905e-05
0.000108408
0.000128549
7.80825e-05
5.79724e-05
4.15145e-05
2.91356e-05
2.22804e-05
1.91968e-05
2.05426e-05
2.70796e-05
3.95446e-05
5.66333e-05
7.63677e-05
9.61328e-05
0.000112936
0.000122565
6.55131e-05
4.6503e-05
3.15051e-05
2.09722e-05
1.51395e-05
1.23126e-05
1.26052e-05
1.68471e-05
2.62737e-05
4.01437e-05
5.65654e-05
7.2896e-05
8.65871e-05
9.68386e-05
4.87472e-05
3.31282e-05
2.14189e-05
1.36311e-05
9.39193e-06
7.2974e-06
7.25002e-06
9.89208e-06
1.65686e-05
2.72074e-05
4.02454e-05
5.37342e-05
6.5609e-05
7.55399e-05
3.2136e-05
2.07201e-05
1.26089e-05
7.66895e-06
5.09761e-06
3.88617e-06
3.87882e-06
5.57765e-06
1.0126e-05
1.78969e-05
2.79141e-05
3.86354e-05
4.85156e-05
5.75702e-05
1.89372e-05
1.11476e-05
6.28262e-06
3.65023e-06
2.3728e-06
1.83235e-06
1.95985e-06
3.15206e-06
6.25357e-06
1.18003e-05
1.94067e-05
2.80162e-05
3.65547e-05
4.54332e-05
1.0019e-05
5.16064e-06
2.64061e-06
1.4644e-06
9.45712e-07
7.82188e-07
1.00372e-06
1.92999e-06
4.15987e-06
8.20266e-06
1.40525e-05
2.11019e-05
2.86647e-05
3.71928e-05
5.17827e-06
2.23337e-06
9.94041e-07
5.13112e-07
3.3736e-07
3.41807e-07
6.08897e-07
1.40525e-06
3.16991e-06
6.32504e-06
1.10198e-05
1.70001e-05
2.39929e-05
3.27533e-05
3.34284e-06
1.21223e-06
4.45848e-07
2.00775e-07
1.42651e-07
2.11995e-07
5.05027e-07
1.25337e-06
2.80026e-06
5.48704e-06
9.50885e-06
1.48639e-05
2.17147e-05
3.15532e-05
3.30251e-06
1.15382e-06
4.16571e-07
1.93319e-07
1.52522e-07
2.47085e-07
5.68853e-07
1.32653e-06
2.81079e-06
5.31492e-06
9.08674e-06
1.43979e-05
2.20622e-05
3.46152e-05
4.67289e-06
1.72892e-06
7.35952e-07
4.249e-07
3.49965e-07
4.54103e-07
8.18477e-07
1.63802e-06
3.19017e-06
5.79455e-06
9.87344e-06
1.61059e-05
2.59026e-05
4.21055e-05
8.6114e-06
3.43753e-06
1.62279e-06
1.07588e-06
9.0383e-07
1.00138e-06
1.44137e-06
2.42498e-06
4.28429e-06
7.49063e-06
1.27586e-05
2.10873e-05
3.41134e-05
5.35886e-05
1.79307e-05
9.23948e-06
4.47868e-06
2.66141e-06
2.21215e-06
2.28271e-06
2.87165e-06
4.21475e-06
6.74782e-06
1.11593e-05
1.83815e-05
2.95739e-05
4.6457e-05
7.01228e-05
3.27605e-05
2.0516e-05
1.1527e-05
6.51703e-06
4.94369e-06
4.90325e-06
5.72638e-06
7.62317e-06
1.11143e-05
1.70626e-05
2.65867e-05
4.12285e-05
6.22522e-05
8.80815e-05
5.00353e-05
3.57911e-05
2.36879e-05
1.48069e-05
1.05745e-05
9.68357e-06
1.06471e-05
1.31412e-05
1.76105e-05
2.5003e-05
3.68472e-05
5.60036e-05
8.16617e-05
0.000106367
0.000126512
0.000133959
0.000146335
0.000165592
0.000188839
0.000233731
0.000111139
0.000119457
0.000135363
0.000161455
0.000198359
0.000261637
9.97565e-05
0.000109275
0.00012851
0.000158612
0.000206312
0.000284733
8.80743e-05
0.000103976
0.000128288
0.000159693
0.000212213
0.000302273
8.21172e-05
0.000106366
0.000136249
0.000166999
0.00021756
0.000315184
8.45256e-05
0.00011896
0.000152437
0.000178874
0.000220856
0.00032267
9.93865e-05
0.000141944
0.000172894
0.000190504
0.000221206
0.000326288
0.000124297
0.000167649
0.000187893
0.000194882
0.000216453
0.000327109
0.000151331
0.000183484
0.000189356
0.000189883
0.000206591
0.0003242
0.000167875
0.000182822
0.000179965
0.000179883
0.000195015
0.000316502
0.000168007
0.000171256
0.000167678
0.000170561
0.000184253
0.0003046
0.000157799
0.0001577
0.000157569
0.000162814
0.000176087
0.000287647
0.00014484
0.000145875
0.000148619
0.000156501
0.000171384
0.00026516
0.000133001
0.000135732
0.000140925
0.00015262
0.000170791
0.000237624
0.000123306
0.000130988
0.000140106
0.000155462
0.000176547
0.000218517
0.000105369
0.000114102
0.000128028
0.000150035
0.000184857
0.000243076
9.09374e-05
0.000101495
0.000119926
0.000146857
0.000192542
0.000264445
7.61038e-05
9.14795e-05
0.000116284
0.000147689
0.00019962
0.000281035
6.64324e-05
8.72075e-05
0.000119136
0.000154941
0.000207027
0.000293415
6.28844e-05
9.10751e-05
0.000130091
0.000167078
0.00021224
0.000301618
6.79442e-05
0.000104352
0.000148777
0.000181346
0.000213248
0.00030716
8.12057e-05
0.000124634
0.000168807
0.000191104
0.000208686
0.000309286
0.000100178
0.000144728
0.000180518
0.000190712
0.000198818
0.000307196
0.000119013
0.000156842
0.000180128
0.00018268
0.000187027
0.000299149
0.000131672
0.000158381
0.00017227
0.000173541
0.000178294
0.000286626
0.000136478
0.00015334
0.00016327
0.000166676
0.000173223
0.000269091
0.000136327
0.000147053
0.000155565
0.000162078
0.000171446
0.000246722
0.000132631
0.000141686
0.000149071
0.000158572
0.000172145
0.00022021
0.000128959
0.000142882
0.000151621
0.000158625
0.000169548
0.000193851
0.000102837
0.000117858
0.000133801
0.00015044
0.000174319
0.00021577
8.49671e-05
0.000101044
0.000121418
0.000144585
0.000179055
0.000236682
6.81765e-05
8.61137e-05
0.000111258
0.000141641
0.000185718
0.000254603
5.67481e-05
7.63511e-05
0.000105901
0.000142889
0.000194764
0.000270018
4.90441e-05
7.09729e-05
0.000105931
0.000149439
0.000202496
0.00027988
4.63336e-05
7.21158e-05
0.000114476
0.000160629
0.000205448
0.000285941
4.80999e-05
7.95204e-05
0.000127726
0.000173172
0.00020514
0.000287853
5.44031e-05
9.09161e-05
0.000142222
0.00018252
0.000201872
0.000286387
6.46307e-05
0.000103279
0.000153216
0.00018598
0.00019566
0.000280633
7.64552e-05
0.000113994
0.000159316
0.000186025
0.000190928
0.000269904
8.81452e-05
0.000122604
0.000162707
0.00018602
0.000190383
0.000253377
0.000101835
0.000132247
0.00016637
0.000186719
0.000193153
0.000231795
0.000115664
0.000143992
0.000170928
0.000184921
0.000194228
0.000205165
0.000123589
0.000129124
0.000137424
0.000153742
0.000176507
0.000243432
0.000110197
0.000115464
0.000127518
0.000150271
0.000184808
0.000271565
9.75905e-05
0.000102843
0.000118505
0.000146425
0.000191437
0.000295037
7.95838e-05
8.9643e-05
0.000111759
0.000144333
0.000196232
0.000312968
6.23019e-05
7.84667e-05
0.000108333
0.00014715
0.000201255
0.000325968
5.00328e-05
7.30234e-05
0.000110698
0.000154821
0.000206523
0.000332406
4.53195e-05
7.58554e-05
0.000121318
0.00016704
0.000211502
0.000333602
4.84829e-05
8.84991e-05
0.000140134
0.000181107
0.000212927
0.00033028
6.05484e-05
0.000109115
0.000160064
0.000189492
0.00020794
0.000323484
7.99979e-05
0.000129688
0.00017089
0.000187616
0.000197296
0.000313063
0.000100832
0.000141936
0.000169385
0.000178263
0.000184781
0.000299147
0.000115515
0.000143146
0.000159889
0.000166167
0.000173134
0.000280977
0.000120437
0.000136526
0.000146648
0.000152948
0.00016296
0.000258719
0.00011648
0.000125792
0.000131948
0.000139763
0.000155326
0.000231163
0.000125896
0.00013645
0.000145142
0.000158555
0.000176402
0.000225412
0.000106453
0.000117476
0.000131593
0.000151172
0.00018248
0.000251293
8.7785e-05
0.0001002
0.000118867
0.000144175
0.000185432
0.000273218
6.64496e-05
8.17384e-05
0.000106231
0.000138632
0.000187075
0.000289665
4.93378e-05
6.64495e-05
9.54173e-05
0.000135792
0.000190143
0.000301688
3.78846e-05
5.64531e-05
8.93115e-05
0.000136546
0.000195059
0.000308799
3.18421e-05
5.27618e-05
9.05953e-05
0.000142988
0.000200145
0.000311377
3.05531e-05
5.63294e-05
0.000101222
0.000155403
0.000202475
0.000309032
3.53124e-05
6.78758e-05
0.000118558
0.000167747
0.000199633
0.000303337
4.65769e-05
8.39122e-05
0.000133981
0.000172557
0.00019105
0.000293241
6.22133e-05
9.87368e-05
0.000140895
0.000168324
0.000180377
0.000279522
7.80829e-05
0.00010835
0.000139612
0.000159246
0.000171148
0.000261898
9.02599e-05
0.00011207
0.000133117
0.000148052
0.000163642
0.000239884
9.54548e-05
0.000110841
0.000124207
0.000136458
0.000156034
0.000213177
0.000126849
0.00015009
0.000168997
0.000181419
0.000193173
0.00020734
9.59264e-05
0.000118375
0.000143531
0.000167808
0.00019382
0.000231912
7.15101e-05
9.35087e-05
0.000121908
0.000153802
0.000190453
0.000253295
5.04677e-05
7.09879e-05
0.000101623
0.000140589
0.000186425
0.000269611
3.66033e-05
5.43788e-05
8.48153e-05
0.000128731
0.000183752
0.000282003
2.77294e-05
4.38068e-05
7.26079e-05
0.00011919
0.000182893
0.000289545
2.22753e-05
3.74179e-05
6.548e-05
0.000114346
0.000183322
0.000291719
1.94125e-05
3.4543e-05
6.40836e-05
0.00011584
0.000182864
0.000287867
1.9086e-05
3.58572e-05
6.91639e-05
0.000122525
0.00018034
0.000279401
2.19523e-05
4.1138e-05
7.78202e-05
0.00012918
0.000175222
0.000268061
2.84087e-05
4.90411e-05
8.61795e-05
0.000132399
0.000168714
0.000255712
3.76501e-05
5.78118e-05
9.17962e-05
0.000131538
0.000165344
0.000241065
4.81495e-05
6.6821e-05
9.59484e-05
0.000129287
0.000164845
0.000222662
5.76525e-05
7.50442e-05
9.96601e-05
0.000127277
0.000162513
0.000197638
0.000230491
0.00017722
0.000162045
0.000153948
0.000149197
0.000143818
0.000260605
0.000191644
0.000182147
0.000176159
0.000168818
0.000158875
0.000287487
0.000212899
0.000204214
0.000195918
0.000180563
0.000159982
0.00031091
0.000236949
0.000223198
0.000205328
0.000174201
0.000139584
0.000329588
0.000256882
0.000228607
0.0001926
0.000144657
0.000102399
0.000341913
0.000263451
0.000210794
0.000156971
0.000103567
6.48825e-05
0.000347072
0.000250689
0.000174689
0.00011447
6.80061e-05
3.83e-05
0.000346334
0.000224129
0.00013808
8.29347e-05
4.67784e-05
2.46557e-05
0.000338484
0.00019558
0.000113397
6.73352e-05
3.92091e-05
2.12433e-05
0.000325831
0.000173927
0.00010207
6.52356e-05
4.25427e-05
2.58062e-05
0.00030867
0.0001615
0.000101451
7.269e-05
5.51478e-05
3.9714e-05
0.000288338
0.000156515
0.000108435
8.62306e-05
7.36842e-05
6.18583e-05
0.000264539
0.00015514
0.000119664
0.000102817
9.36831e-05
8.45969e-05
0.000237177
0.000153668
0.000130351
0.000119549
0.000114192
0.000106612
0.000215206
0.000167656
0.000149348
0.000140013
0.000131836
0.000122225
0.00024619
0.000182584
0.000167172
0.000156532
0.000141372
0.000125571
0.00027254
0.000202027
0.000186101
0.000167663
0.000139959
0.000114618
0.000295287
0.000224219
0.000199967
0.00016652
0.000123736
9.13267e-05
0.000312387
0.000244623
0.000198691
0.000146788
9.55825e-05
6.30148e-05
0.000323631
0.000251545
0.000176354
0.000113481
6.56013e-05
3.84912e-05
0.000327325
0.000238713
0.000142321
8.07887e-05
4.28633e-05
2.23876e-05
0.00032388
0.000213607
0.000112729
5.93617e-05
3.04547e-05
1.47996e-05
0.000314258
0.00018691
9.51909e-05
5.07294e-05
2.71781e-05
1.3623e-05
0.000300964
0.000166363
8.93681e-05
5.22363e-05
3.12881e-05
1.73614e-05
0.000283863
0.000153381
9.24077e-05
6.15868e-05
4.27288e-05
2.78061e-05
0.00026463
0.000149512
0.000101705
7.69238e-05
6.07345e-05
4.6357e-05
0.000242788
0.000150716
0.000114903
9.54664e-05
8.18693e-05
6.86295e-05
0.000218148
0.000152635
0.000128539
0.000115583
0.000105745
9.31941e-05
0.000192607
0.000162897
0.000139585
0.000119154
9.8716e-05
8.18403e-05
0.000223391
0.000175041
0.000145519
0.000118233
9.09358e-05
7.18356e-05
0.000248978
0.000189124
0.000150535
0.000113819
7.86267e-05
5.72093e-05
0.000269591
0.000204438
0.00015141
0.000103123
6.29238e-05
4.17134e-05
0.000285885
0.000216466
0.000143463
8.56553e-05
4.69299e-05
2.80212e-05
0.000297436
0.000217742
0.00012623
6.62216e-05
3.31567e-05
1.76808e-05
0.000302319
0.000207632
0.000105591
5.01574e-05
2.37144e-05
1.12883e-05
0.000299579
0.00018959
8.93532e-05
4.11961e-05
1.9278e-05
8.60292e-06
0.000290037
0.000170112
8.11955e-05
3.89206e-05
1.90004e-05
8.6308e-06
0.000276421
0.000157425
8.06746e-05
4.21977e-05
2.25371e-05
1.11135e-05
0.000259844
0.000151012
8.56902e-05
5.01888e-05
3.04549e-05
1.74148e-05
0.000241669
0.000151319
9.62108e-05
6.37564e-05
4.3718e-05
2.90612e-05
0.000221625
0.000154868
0.000110619
8.12712e-05
6.07984e-05
4.48374e-05
0.000199315
0.000160054
0.000127305
0.000102477
8.21812e-05
6.43576e-05
0.000229139
0.000187216
0.000167031
0.00015075
0.00014143
0.000137198
0.000257046
0.000193997
0.000176197
0.00016275
0.000156062
0.000153582
0.000281144
0.000207196
0.000190584
0.000179568
0.000174692
0.000172345
0.000301919
0.00022607
0.000208773
0.000199708
0.000193979
0.000186024
0.000318816
0.000246436
0.000227236
0.000215794
0.0002009
0.000178837
0.000330378
0.000263188
0.000235336
0.000212992
0.000181323
0.000144649
0.000334735
0.000267879
0.000220534
0.000182804
0.000140299
0.000102417
0.000334786
0.000257749
0.000187543
0.000141224
0.000100578
7.02667e-05
0.000329787
0.000236534
0.000155379
0.000109712
7.67755e-05
5.44846e-05
0.000319028
0.000212624
0.000135026
9.50314e-05
7.00376e-05
5.39921e-05
0.000303496
0.000193532
0.000126618
9.3733e-05
7.58503e-05
6.51654e-05
0.000284258
0.000182935
0.000128854
0.000102631
9.06939e-05
8.48272e-05
0.000260725
0.000177226
0.000138237
0.00011854
0.000109948
0.00010494
0.000233957
0.000172674
0.000148871
0.000136564
0.000131576
0.00012731
0.000216087
0.000175512
0.00015846
0.000146413
0.000139359
0.000133831
0.00024583
0.000182259
0.000168853
0.000160033
0.000153087
0.000146996
0.000272113
0.000195855
0.000184717
0.000177226
0.000167363
0.000155314
0.000294282
0.000215188
0.000204712
0.000194754
0.00017566
0.000152841
0.000310961
0.000238578
0.000222582
0.000202115
0.000167185
0.000132608
0.000319455
0.000258896
0.000225546
0.000187476
0.000138815
0.000100783
0.000321989
0.000265807
0.000203216
0.000151898
0.000102578
6.98989e-05
0.000318376
0.000254746
0.000167864
0.000114081
7.34542e-05
4.86022e-05
0.000309729
0.000233211
0.000137995
8.8722e-05
5.77816e-05
3.93677e-05
0.000297205
0.00020753
0.000121522
7.92926e-05
5.54102e-05
4.10092e-05
0.0002802
0.000184919
0.00011542
8.11077e-05
6.26605e-05
5.11788e-05
0.000261938
0.000170265
0.000117417
9.13345e-05
7.76544e-05
6.89065e-05
0.000239785
0.000164496
0.00012658
0.000107186
9.65965e-05
8.88224e-05
0.000216031
0.000161954
0.000138214
0.000126009
0.000119516
0.000112374
0.0001953
0.000173496
0.000164669
0.000156805
0.000143178
0.000126616
0.000226132
0.000182373
0.000175159
0.00016265
0.000141147
0.000120924
0.000253205
0.000195478
0.000186599
0.000167918
0.000136259
0.000108441
0.000274694
0.000213515
0.000198182
0.000168328
0.000125789
9.3595e-05
0.000288215
0.000231212
0.000201837
0.000158071
0.000108445
7.49739e-05
0.000295614
0.000242961
0.000190571
0.000135618
8.67373e-05
5.62494e-05
0.000297738
0.000240557
0.000164642
0.00010736
6.58236e-05
4.09033e-05
0.00029375
0.000226275
0.000137163
8.38918e-05
5.09877e-05
3.17016e-05
0.000283577
0.000206085
0.000118346
7.06617e-05
4.39826e-05
2.85227e-05
0.000269066
0.00018676
0.000109705
6.75973e-05
4.47277e-05
3.10232e-05
0.000251549
0.000170027
0.000107949
7.17597e-05
5.10734e-05
3.80853e-05
0.000232212
0.000160376
0.000112522
8.28385e-05
6.375e-05
5.06516e-05
0.000211748
0.000157093
0.000121771
9.7721e-05
8.01013e-05
6.65679e-05
0.000190349
0.00015805
0.00013511
0.000117617
0.000102321
8.77776e-05
3.10362e-05
2.3252e-05
1.77032e-05
1.38447e-05
1.21022e-05
1.12595e-05
1.14051e-05
1.25207e-05
1.54193e-05
2.05108e-05
2.80442e-05
3.84079e-05
5.37618e-05
7.59572e-05
1.95006e-05
1.46078e-05
1.0857e-05
8.26931e-06
7.07722e-06
6.48016e-06
6.48752e-06
7.16258e-06
9.23135e-06
1.33221e-05
1.986e-05
2.92968e-05
4.26686e-05
6.0151e-05
1.16736e-05
8.4112e-06
6.01079e-06
4.46673e-06
3.76313e-06
3.41277e-06
3.42435e-06
3.92162e-06
5.49856e-06
8.79358e-06
1.4263e-05
2.22191e-05
3.30952e-05
4.69365e-05
6.69869e-06
4.34807e-06
2.91733e-06
2.1214e-06
1.77271e-06
1.60656e-06
1.65568e-06
2.06715e-06
3.29464e-06
5.89079e-06
1.0309e-05
1.68084e-05
2.56182e-05
3.68308e-05
3.7342e-06
2.01929e-06
1.22871e-06
8.73043e-07
7.28008e-07
6.72199e-07
7.51266e-07
1.10455e-06
2.06844e-06
4.09251e-06
7.61442e-06
1.29317e-05
2.02685e-05
2.99418e-05
2.13889e-06
8.8979e-07
4.59511e-07
3.12057e-07
2.61106e-07
2.59017e-07
3.52172e-07
6.62628e-07
1.44702e-06
3.07085e-06
5.93863e-06
1.03925e-05
1.67243e-05
2.53101e-05
1.41081e-06
4.4095e-07
1.71047e-07
1.01156e-07
8.61232e-08
1.06457e-07
2.06061e-07
4.94846e-07
1.1847e-06
2.58546e-06
5.06362e-06
8.97649e-06
1.4669e-05
2.26098e-05
1.19783e-06
3.18906e-07
8.97322e-08
3.84996e-08
3.48528e-08
6.50797e-08
1.72052e-07
4.61422e-07
1.12417e-06
2.43581e-06
4.72567e-06
8.33882e-06
1.3637e-05
2.11443e-05
1.28029e-06
3.45456e-07
9.62511e-08
3.92665e-08
3.69686e-08
7.41868e-08
1.94447e-07
5.05226e-07
1.19084e-06
2.50697e-06
4.75183e-06
8.25023e-06
1.33701e-05
2.07394e-05
1.64804e-06
4.95176e-07
1.80778e-07
1.00609e-07
9.3045e-08
1.38411e-07
2.81212e-07
6.33023e-07
1.37636e-06
2.75244e-06
5.03104e-06
8.52042e-06
1.36187e-05
2.10715e-05
2.53193e-06
9.03312e-07
4.39996e-07
3.02264e-07
2.7509e-07
3.30654e-07
5.11788e-07
9.32612e-07
1.77413e-06
3.27128e-06
5.68174e-06
9.31703e-06
1.46562e-05
2.25456e-05
4.66618e-06
1.97428e-06
1.10897e-06
8.48962e-07
7.7277e-07
8.37833e-07
1.08507e-06
1.62911e-06
2.65127e-06
4.39649e-06
7.13534e-06
1.118e-05
1.70345e-05
2.54873e-05
8.72445e-06
4.28629e-06
2.62511e-06
2.12605e-06
1.96701e-06
2.04362e-06
2.40428e-06
3.17236e-06
4.5416e-06
6.79665e-06
1.02679e-05
1.52964e-05
2.23849e-05
3.22465e-05
1.44944e-05
8.3451e-06
5.61859e-06
4.70429e-06
4.44746e-06
4.57575e-06
5.13334e-06
6.28529e-06
8.27424e-06
1.14673e-05
1.63098e-05
2.33405e-05
3.39657e-05
4.76327e-05
1.466e-05
1.15709e-05
9.48352e-06
7.97347e-06
7.50277e-06
7.38041e-06
7.61096e-06
8.1396e-06
9.3872e-06
1.18108e-05
1.58286e-05
2.15946e-05
3.04696e-05
4.56471e-05
8.44595e-06
6.53104e-06
5.23751e-06
4.34468e-06
4.07365e-06
3.9931e-06
4.107e-06
4.4203e-06
5.26796e-06
7.12174e-06
1.05103e-05
1.58648e-05
2.42104e-05
3.72697e-05
4.7486e-06
3.37977e-06
2.59889e-06
2.13659e-06
2.00505e-06
1.9651e-06
2.03458e-06
2.26344e-06
2.91752e-06
4.41577e-06
7.29119e-06
1.20505e-05
1.93989e-05
3.02864e-05
2.64959e-06
1.59762e-06
1.14284e-06
9.30819e-07
8.75904e-07
8.63409e-07
9.19021e-07
1.10723e-06
1.63693e-06
2.85591e-06
5.24276e-06
9.30106e-06
1.55579e-05
2.46342e-05
1.51845e-06
7.11099e-07
4.48292e-07
3.56351e-07
3.35444e-07
3.38184e-07
3.90082e-07
5.54045e-07
9.93797e-07
1.99213e-06
3.95932e-06
7.37133e-06
1.2709e-05
2.05267e-05
9.55284e-07
3.28686e-07
1.64103e-07
1.20986e-07
1.13562e-07
1.23552e-07
1.73769e-07
3.22488e-07
7.04259e-07
1.55558e-06
3.22814e-06
6.1564e-06
1.07998e-05
1.76952e-05
7.08578e-07
1.89776e-07
6.54699e-08
3.87107e-08
3.64504e-08
4.99651e-08
1.00853e-07
2.45879e-07
6.06098e-07
1.39132e-06
2.91018e-06
5.55391e-06
9.76157e-06
1.60549e-05
6.43141e-07
1.57264e-07
4.00126e-08
1.59379e-08
1.5633e-08
3.19805e-08
8.73929e-08
2.40799e-07
6.10288e-07
1.39216e-06
2.86448e-06
5.37691e-06
9.329e-06
1.52094e-05
6.91171e-07
1.74639e-07
4.59287e-08
1.85371e-08
1.86099e-08
3.87011e-08
1.03558e-07
2.77009e-07
6.803e-07
1.50432e-06
3.00623e-06
5.4996e-06
9.34449e-06
1.50128e-05
8.46634e-07
2.43041e-07
8.79258e-08
5.04688e-08
4.90822e-08
7.46285e-08
1.54795e-07
3.59447e-07
8.1506e-07
1.70961e-06
3.28178e-06
5.81139e-06
9.63446e-06
1.52334e-05
1.18177e-06
4.3098e-07
2.23698e-07
1.59742e-07
1.50285e-07
1.83403e-07
2.88275e-07
5.38832e-07
1.0643e-06
2.04893e-06
3.71466e-06
6.32399e-06
1.02234e-05
1.59362e-05
1.97852e-06
9.15778e-07
5.96842e-07
4.74412e-07
4.39306e-07
4.79689e-07
6.2467e-07
9.4622e-07
1.5704e-06
2.67907e-06
4.48664e-06
7.2447e-06
1.13055e-05
1.72409e-05
3.61267e-06
1.99673e-06
1.47169e-06
1.25385e-06
1.16778e-06
1.21449e-06
1.42588e-06
1.87048e-06
2.66851e-06
4.0091e-06
6.11724e-06
9.23184e-06
1.36723e-05
1.99186e-05
6.31047e-06
4.06829e-06
3.20938e-06
2.88783e-06
2.75951e-06
2.83961e-06
3.17664e-06
3.85623e-06
5.01189e-06
6.86493e-06
9.64306e-06
1.35667e-05
1.89155e-05
2.57736e-05
6.52236e-06
5.20502e-06
4.49314e-06
4.0712e-06
4.08318e-06
4.21571e-06
4.47246e-06
4.83436e-06
5.48523e-06
6.68488e-06
8.83418e-06
1.22106e-05
1.74792e-05
2.63984e-05
3.51516e-06
2.65606e-06
2.25041e-06
2.03561e-06
2.05348e-06
2.12772e-06
2.26423e-06
2.46921e-06
2.89364e-06
3.77946e-06
5.5122e-06
8.49121e-06
1.34084e-05
2.16083e-05
1.86175e-06
1.24689e-06
1.015e-06
9.16432e-07
9.30908e-07
9.7026e-07
1.04402e-06
1.17557e-06
1.48857e-06
2.19754e-06
3.65061e-06
6.28156e-06
1.07171e-05
1.7948e-05
1.00884e-06
5.47719e-07
4.10914e-07
3.66859e-07
3.74322e-07
3.94418e-07
4.38148e-07
5.34463e-07
7.80371e-07
1.35756e-06
2.57062e-06
4.84054e-06
8.72417e-06
1.49868e-05
5.95161e-07
2.39758e-07
1.5157e-07
1.29921e-07
1.32449e-07
1.43568e-07
1.73983e-07
2.52422e-07
4.56085e-07
9.37682e-07
1.96062e-06
3.9119e-06
7.29688e-06
1.27837e-05
4.06554e-07
1.19891e-07
5.47598e-08
4.14385e-08
4.19316e-08
4.96288e-08
7.45043e-08
1.44151e-07
3.25319e-07
7.51873e-07
1.65511e-06
3.38119e-06
6.38527e-06
1.12717e-05
3.29051e-07
8.03526e-08
2.39894e-08
1.30643e-08
1.31094e-08
2.01248e-08
4.4086e-08
1.13141e-07
2.91607e-07
7.05159e-07
1.56381e-06
3.17759e-06
5.95527e-06
1.04346e-05
3.16103e-07
7.38561e-08
1.71672e-08
6.04364e-09
6.20899e-09
1.40582e-08
4.05954e-08
1.16517e-07
3.08571e-07
7.40626e-07
1.60854e-06
3.19167e-06
5.85338e-06
1.00597e-05
3.48589e-07
8.42684e-08
2.1016e-08
8.35612e-09
8.73655e-09
1.86576e-08
5.1168e-08
1.41262e-07
3.61117e-07
8.36367e-07
1.75402e-06
3.36862e-06
6.00587e-06
1.008e-05
4.24134e-07
1.17447e-07
4.17722e-08
2.4598e-08
2.47715e-08
3.81639e-08
8.03978e-08
1.9157e-07
4.50231e-07
9.85221e-07
1.97874e-06
3.66527e-06
6.34112e-06
1.03861e-05
5.75252e-07
2.13773e-07
1.13305e-07
8.25623e-08
7.94015e-08
9.80131e-08
1.55674e-07
2.96662e-07
6.0519e-07
1.21321e-06
2.29935e-06
4.08372e-06
6.84564e-06
1.09527e-05
9.34634e-07
4.79424e-07
3.23646e-07
2.58948e-07
2.42342e-07
2.67153e-07
3.51101e-07
5.38373e-07
9.14942e-07
1.61494e-06
2.81453e-06
4.72379e-06
7.61744e-06
1.18667e-05
1.71134e-06
1.10083e-06
8.46466e-07
7.18806e-07
6.70373e-07
7.01268e-07
8.30065e-07
1.09688e-06
1.58394e-06
2.42733e-06
3.80299e-06
5.92025e-06
9.03712e-06
1.3551e-05
3.17629e-06
2.33186e-06
1.93244e-06
1.73205e-06
1.64821e-06
1.69928e-06
1.91192e-06
2.32765e-06
3.02672e-06
4.14627e-06
5.84878e-06
8.31942e-06
1.178e-05
1.65978e-05
3.00139e-06
2.32373e-06
1.99155e-06
1.86562e-06
1.94337e-06
2.09995e-06
2.33208e-06
2.63468e-06
3.09691e-06
3.86509e-06
5.16909e-06
7.25354e-06
1.05436e-05
1.59697e-05
1.51037e-06
1.08817e-06
9.12908e-07
8.57288e-07
9.02878e-07
9.83458e-07
1.09923e-06
1.25697e-06
1.52923e-06
2.04927e-06
3.04029e-06
4.78401e-06
7.73595e-06
1.27651e-05
7.6012e-07
4.71878e-07
3.77568e-07
3.54702e-07
3.77353e-07
4.15178e-07
4.71203e-07
5.58259e-07
7.35507e-07
1.11959e-06
1.91359e-06
3.40472e-06
6.03384e-06
1.05436e-05
4.04971e-07
1.95865e-07
1.4121e-07
1.30889e-07
1.40136e-07
1.56545e-07
1.84494e-07
2.38413e-07
3.6512e-07
6.61647e-07
1.30447e-06
2.56617e-06
4.86154e-06
8.83767e-06
2.44857e-07
8.55303e-08
4.92285e-08
4.31044e-08
4.61287e-08
5.33713e-08
6.93588e-08
1.07915e-07
2.06761e-07
4.46687e-07
9.80651e-07
2.0606e-06
4.07389e-06
7.60776e-06
1.74984e-07
4.63119e-08
1.79829e-08
1.30725e-08
1.38222e-08
1.77733e-08
2.92338e-08
6.12402e-08
1.46833e-07
3.57555e-07
8.30516e-07
1.79716e-06
3.61156e-06
6.79976e-06
1.49112e-07
3.49018e-08
8.99093e-09
4.18946e-09
4.31628e-09
7.46615e-09
1.80532e-08
4.94646e-08
1.34268e-07
3.41563e-07
8.00488e-07
1.72554e-06
3.43792e-06
6.40287e-06
1.50401e-07
3.4406e-08
7.3954e-09
2.27181e-09
2.35084e-09
5.80476e-09
1.77037e-08
5.30938e-08
1.47035e-07
3.7058e-07
8.49389e-07
1.78343e-06
3.46362e-06
6.2958e-06
1.71095e-07
3.99229e-08
9.4381e-09
3.6808e-09
3.91955e-09
8.42823e-09
2.35432e-08
6.71678e-08
1.78979e-07
4.34661e-07
9.5929e-07
1.94146e-06
3.64847e-06
6.44092e-06
2.11628e-07
5.63422e-08
1.95541e-08
1.17411e-08
1.21038e-08
1.85951e-08
3.92638e-08
9.57422e-08
2.33483e-07
5.34007e-07
1.124e-06
2.18433e-06
3.96751e-06
6.8043e-06
2.95864e-07
1.08638e-07
5.71231e-08
4.20086e-08
4.11702e-08
5.12024e-08
8.14049e-08
1.57083e-07
3.29544e-07
6.86459e-07
1.35834e-06
2.52335e-06
4.42553e-06
7.37479e-06
5.07228e-07
2.63228e-07
1.75093e-07
1.39195e-07
1.31713e-07
1.47353e-07
1.95508e-07
3.03008e-07
5.25483e-07
9.56873e-07
1.7336e-06
3.03607e-06
5.1058e-06
8.23133e-06
9.93402e-07
6.46176e-07
4.85174e-07
4.04679e-07
3.78424e-07
4.01893e-07
4.84006e-07
6.50368e-07
9.57174e-07
1.50345e-06
2.43211e-06
3.9303e-06
6.2327e-06
9.63164e-06
1.95087e-06
1.43725e-06
1.1628e-06
1.0181e-06
9.63858e-07
1.00345e-06
1.14916e-06
1.42731e-06
1.89276e-06
2.64186e-06
3.8098e-06
5.57051e-06
8.1474e-06
1.186e-05
1.55182e-06
1.13736e-06
9.14951e-07
8.29039e-07
8.54794e-07
9.44941e-07
1.09938e-06
1.31951e-06
1.66084e-06
2.21533e-06
3.12845e-06
4.58385e-06
6.85909e-06
1.05022e-05
7.28618e-07
4.88971e-07
3.831e-07
3.48494e-07
3.63999e-07
4.06233e-07
4.76175e-07
5.8084e-07
7.63561e-07
1.10684e-06
1.75171e-06
2.89124e-06
4.8211e-06
8.09683e-06
3.46884e-07
1.94861e-07
1.44183e-07
1.31269e-07
1.38826e-07
1.56802e-07
1.87511e-07
2.39628e-07
3.46726e-07
5.77995e-07
1.0584e-06
1.9754e-06
3.61879e-06
6.48816e-06
1.7995e-07
7.62004e-08
4.93753e-08
4.41027e-08
4.70234e-08
5.4143e-08
6.80233e-08
9.69164e-08
1.66307e-07
3.31143e-07
6.96205e-07
1.43303e-06
2.8153e-06
5.29365e-06
1.09959e-07
3.35329e-08
1.63163e-08
1.33389e-08
1.42044e-08
1.71354e-08
2.43894e-08
4.30956e-08
9.29124e-08
2.17733e-07
5.05577e-07
1.11196e-06