/*--------------------------------*- C++ -*----------------------------------*\
| =========                 |                                                 |
| \\      /  F ield         | OpenFOAM: The Open Source CFD Toolbox           |
|  \\    /   O peration     | Version:  v2106                                 |
|   \\  /    A nd           | Website:  www.openfoam.com                      |
|    \\/     M anipulation  |                                                 |
\*---------------------------------------------------------------------------*/
FoamFile
{
    version     2.0;
    format      ascii;
    arch        "LSB;label=32;scalar=64";
    class       volScalarField;
    location    "0.000181";
    object      epsilon;
}
// * * * * * * * * * * * * * * * * * * * * * * * * * * * * * * * * * * * * * //

dimensions      [0 2 -3 0 0 0 0];

internalField   nonuniform List<scalar> 
17924
(
1.48491e-08
1.48383e-08
1.48374e-08
1.48382e-08
1.48203e-08
1.48191e-08
1.48195e-08
1.482e-08
1.48209e-08
1.48221e-08
1.48235e-08
1.48274e-08
1.48253e-08
1.48255e-08
1.48258e-08
1.48266e-08
1.48277e-08
1.48291e-08
1.4835e-08
1.48315e-08
1.48314e-08
1.48318e-08
1.48327e-08
1.48338e-08
1.48353e-08
1.48434e-08
1.4838e-08
1.48374e-08
1.48379e-08
1.48389e-08
1.48402e-08
1.48417e-08
1.4852e-08
1.48444e-08
1.48435e-08
1.48441e-08
1.48453e-08
1.48467e-08
1.48483e-08
1.48605e-08
1.4851e-08
1.48498e-08
1.48505e-08
1.48518e-08
1.48533e-08
1.4855e-08
1.48685e-08
1.48574e-08
1.4856e-08
1.4857e-08
1.48584e-08
1.486e-08
1.48617e-08
1.48764e-08
1.48637e-08
1.48624e-08
1.48635e-08
1.4865e-08
1.48668e-08
1.48686e-08
1.48838e-08
1.48699e-08
1.48686e-08
1.487e-08
1.48717e-08
1.48735e-08
1.48754e-08
1.48912e-08
1.48762e-08
1.4875e-08
1.48765e-08
1.48783e-08
1.48803e-08
1.48822e-08
1.48977e-08
1.48823e-08
1.48813e-08
1.48829e-08
1.48849e-08
1.4887e-08
1.4889e-08
1.49035e-08
1.48885e-08
1.48877e-08
1.48895e-08
1.48916e-08
1.48938e-08
1.48959e-08
1.49087e-08
1.48943e-08
1.48939e-08
1.4896e-08
1.48986e-08
1.49011e-08
1.49035e-08
1.49187e-08
1.49023e-08
1.49014e-08
1.49042e-08
1.49082e-08
1.4912e-08
1.49152e-08
1.48192e-08
1.48184e-08
1.48183e-08
1.48181e-08
1.4818e-08
1.4818e-08
1.48182e-08
1.48185e-08
1.48191e-08
1.48198e-08
1.48206e-08
1.48216e-08
1.48225e-08
1.48231e-08
1.48245e-08
1.48237e-08
1.48235e-08
1.48233e-08
1.48232e-08
1.48232e-08
1.48234e-08
1.48237e-08
1.48243e-08
1.4825e-08
1.48258e-08
1.48267e-08
1.48275e-08
1.48285e-08
1.48295e-08
1.48285e-08
1.48285e-08
1.48283e-08
1.48283e-08
1.48285e-08
1.48287e-08
1.48291e-08
1.48296e-08
1.48303e-08
1.48309e-08
1.48317e-08
1.48324e-08
1.48336e-08
1.48345e-08
1.48335e-08
1.48335e-08
1.48335e-08
1.48336e-08
1.48339e-08
1.48342e-08
1.48346e-08
1.48351e-08
1.48357e-08
1.48363e-08
1.48369e-08
1.48376e-08
1.48387e-08
1.48391e-08
1.48383e-08
1.48384e-08
1.48386e-08
1.48389e-08
1.48393e-08
1.48397e-08
1.48401e-08
1.48406e-08
1.48412e-08
1.48417e-08
1.48423e-08
1.48429e-08
1.48437e-08
1.48439e-08
1.48433e-08
1.48435e-08
1.48439e-08
1.48443e-08
1.48448e-08
1.48452e-08
1.48457e-08
1.48462e-08
1.48467e-08
1.48473e-08
1.48478e-08
1.48484e-08
1.4849e-08
1.48487e-08
1.48482e-08
1.48486e-08
1.48491e-08
1.48496e-08
1.48502e-08
1.48507e-08
1.48513e-08
1.48518e-08
1.48523e-08
1.48528e-08
1.48534e-08
1.48539e-08
1.48544e-08
1.48536e-08
1.48532e-08
1.48538e-08
1.48544e-08
1.4855e-08
1.48557e-08
1.48562e-08
1.48568e-08
1.48574e-08
1.48579e-08
1.48585e-08
1.4859e-08
1.48596e-08
1.486e-08
1.48585e-08
1.48582e-08
1.48589e-08
1.48597e-08
1.48604e-08
1.48611e-08
1.48618e-08
1.48624e-08
1.4863e-08
1.48636e-08
1.48642e-08
1.48647e-08
1.48653e-08
1.48655e-08
1.48636e-08
1.48634e-08
1.48641e-08
1.4865e-08
1.48658e-08
1.48666e-08
1.48673e-08
1.4868e-08
1.48686e-08
1.48693e-08
1.48699e-08
1.48705e-08
1.48711e-08
1.48714e-08
1.48687e-08
1.48686e-08
1.48694e-08
1.48704e-08
1.48713e-08
1.48721e-08
1.48729e-08
1.48736e-08
1.48743e-08
1.4875e-08
1.48757e-08
1.48763e-08
1.48771e-08
1.48772e-08
1.4874e-08
1.48739e-08
1.48748e-08
1.48758e-08
1.48768e-08
1.48776e-08
1.48785e-08
1.48792e-08
1.488e-08
1.48808e-08
1.48815e-08
1.48822e-08
1.48831e-08
1.48832e-08
1.48788e-08
1.48789e-08
1.48801e-08
1.48812e-08
1.48822e-08
1.48832e-08
1.48841e-08
1.48849e-08
1.48858e-08
1.48866e-08
1.48873e-08
1.48881e-08
1.48888e-08
1.48888e-08
1.48837e-08
1.48842e-08
1.48856e-08
1.48869e-08
1.48881e-08
1.48891e-08
1.48901e-08
1.48909e-08
1.48917e-08
1.48925e-08
1.48931e-08
1.48938e-08
1.48943e-08
1.48945e-08
1.48262e-08
1.48257e-08
1.48252e-08
1.48245e-08
1.48239e-08
1.48231e-08
1.48225e-08
1.48219e-08
1.48214e-08
1.4821e-08
1.48207e-08
1.48204e-08
1.48202e-08
1.48199e-08
1.48303e-08
1.48296e-08
1.48291e-08
1.48284e-08
1.48277e-08
1.4827e-08
1.48263e-08
1.48257e-08
1.48252e-08
1.48248e-08
1.48245e-08
1.48242e-08
1.48238e-08
1.48241e-08
1.48339e-08
1.4833e-08
1.48326e-08
1.4832e-08
1.48314e-08
1.48308e-08
1.48302e-08
1.48297e-08
1.48292e-08
1.48287e-08
1.48282e-08
1.48278e-08
1.48274e-08
1.48278e-08
1.48374e-08
1.48366e-08
1.48363e-08
1.48357e-08
1.48351e-08
1.48346e-08
1.4834e-08
1.48335e-08
1.4833e-08
1.48325e-08
1.48319e-08
1.48315e-08
1.4831e-08
1.48313e-08
1.48405e-08
1.48399e-08
1.48397e-08
1.48392e-08
1.48388e-08
1.48383e-08
1.48378e-08
1.48373e-08
1.48368e-08
1.48363e-08
1.48357e-08
1.48352e-08
1.48346e-08
1.48346e-08
1.48438e-08
1.48434e-08
1.48433e-08
1.48429e-08
1.48425e-08
1.4842e-08
1.48416e-08
1.48411e-08
1.48406e-08
1.484e-08
1.48395e-08
1.4839e-08
1.48384e-08
1.48381e-08
1.48471e-08
1.48469e-08
1.48468e-08
1.48465e-08
1.48462e-08
1.48458e-08
1.48454e-08
1.48449e-08
1.48444e-08
1.48438e-08
1.48433e-08
1.48427e-08
1.48422e-08
1.48417e-08
1.48506e-08
1.48505e-08
1.48504e-08
1.48502e-08
1.48499e-08
1.48496e-08
1.48491e-08
1.48487e-08
1.48482e-08
1.48476e-08
1.48471e-08
1.48465e-08
1.4846e-08
1.48454e-08
1.48541e-08
1.48542e-08
1.48541e-08
1.4854e-08
1.48537e-08
1.48534e-08
1.4853e-08
1.48525e-08
1.4852e-08
1.48515e-08
1.4851e-08
1.48504e-08
1.48499e-08
1.48492e-08
1.48579e-08
1.4858e-08
1.48579e-08
1.48578e-08
1.48576e-08
1.48572e-08
1.48568e-08
1.48564e-08
1.48559e-08
1.48554e-08
1.48549e-08
1.48543e-08
1.4854e-08
1.48533e-08
1.48618e-08
1.48618e-08
1.48618e-08
1.48617e-08
1.48615e-08
1.48612e-08
1.48608e-08
1.48604e-08
1.486e-08
1.48594e-08
1.4859e-08
1.48584e-08
1.48582e-08
1.48576e-08
1.48658e-08
1.48659e-08
1.48658e-08
1.48657e-08
1.48655e-08
1.48652e-08
1.48648e-08
1.48644e-08
1.4864e-08
1.48636e-08
1.48632e-08
1.48627e-08
1.48626e-08
1.48619e-08
1.48695e-08
1.48697e-08
1.48698e-08
1.48698e-08
1.48696e-08
1.48693e-08
1.48689e-08
1.48686e-08
1.48682e-08
1.48677e-08
1.48673e-08
1.4867e-08
1.48667e-08
1.48659e-08
1.48735e-08
1.48737e-08
1.48739e-08
1.48739e-08
1.48738e-08
1.48735e-08
1.48732e-08
1.48728e-08
1.48724e-08
1.4872e-08
1.48715e-08
1.48712e-08
1.48708e-08
1.48702e-08
1.48356e-08
1.48348e-08
1.48342e-08
1.48333e-08
1.48323e-08
1.48312e-08
1.48301e-08
1.4829e-08
1.48279e-08
1.48268e-08
1.48258e-08
1.48247e-08
1.48236e-08
1.48223e-08
1.48382e-08
1.48373e-08
1.48367e-08
1.48356e-08
1.48346e-08
1.48335e-08
1.48324e-08
1.48312e-08
1.48301e-08
1.4829e-08
1.4828e-08
1.48269e-08
1.48259e-08
1.48249e-08
1.48403e-08
1.48393e-08
1.48387e-08
1.48377e-08
1.48367e-08
1.48356e-08
1.48346e-08
1.48335e-08
1.48324e-08
1.48313e-08
1.48302e-08
1.48292e-08
1.48281e-08
1.48272e-08
1.48424e-08
1.48415e-08
1.48408e-08
1.48398e-08
1.48389e-08
1.48378e-08
1.48368e-08
1.48357e-08
1.48346e-08
1.48334e-08
1.48323e-08
1.48312e-08
1.48301e-08
1.48293e-08
1.48443e-08
1.48435e-08
1.48429e-08
1.48419e-08
1.4841e-08
1.484e-08
1.48389e-08
1.48378e-08
1.48367e-08
1.48356e-08
1.48344e-08
1.48332e-08
1.4832e-08
1.48311e-08
1.48463e-08
1.48457e-08
1.4845e-08
1.48441e-08
1.48432e-08
1.48421e-08
1.48411e-08
1.48399e-08
1.48388e-08
1.48376e-08
1.48365e-08
1.48352e-08
1.4834e-08
1.48329e-08
1.48484e-08
1.48478e-08
1.48472e-08
1.48463e-08
1.48453e-08
1.48443e-08
1.48432e-08
1.48421e-08
1.48409e-08
1.48397e-08
1.48385e-08
1.48373e-08
1.4836e-08
1.48348e-08
1.48507e-08
1.48501e-08
1.48494e-08
1.48486e-08
1.48476e-08
1.48465e-08
1.48454e-08
1.48442e-08
1.4843e-08
1.48418e-08
1.48406e-08
1.48393e-08
1.48381e-08
1.48368e-08
1.48529e-08
1.48524e-08
1.48517e-08
1.48508e-08
1.48498e-08
1.48488e-08
1.48476e-08
1.48464e-08
1.48452e-08
1.4844e-08
1.48427e-08
1.48414e-08
1.48402e-08
1.48388e-08
1.48554e-08
1.48548e-08
1.4854e-08
1.48532e-08
1.48521e-08
1.4851e-08
1.48499e-08
1.48487e-08
1.48474e-08
1.48461e-08
1.48449e-08
1.48436e-08
1.48424e-08
1.48409e-08
1.48579e-08
1.48572e-08
1.48564e-08
1.48555e-08
1.48545e-08
1.48533e-08
1.48522e-08
1.4851e-08
1.48497e-08
1.48484e-08
1.48472e-08
1.48458e-08
1.48446e-08
1.48431e-08
1.48604e-08
1.48598e-08
1.48589e-08
1.4858e-08
1.48569e-08
1.48557e-08
1.48545e-08
1.48533e-08
1.4852e-08
1.48507e-08
1.48495e-08
1.48481e-08
1.48469e-08
1.48454e-08
1.48629e-08
1.48623e-08
1.48615e-08
1.48605e-08
1.48594e-08
1.48582e-08
1.48569e-08
1.48557e-08
1.48544e-08
1.48531e-08
1.48518e-08
1.48504e-08
1.48492e-08
1.48475e-08
1.48655e-08
1.48648e-08
1.48639e-08
1.4863e-08
1.48619e-08
1.48607e-08
1.48595e-08
1.48582e-08
1.4857e-08
1.48556e-08
1.48543e-08
1.48528e-08
1.48514e-08
1.48498e-08
1.48445e-08
1.48437e-08
1.48429e-08
1.48418e-08
1.48405e-08
1.48392e-08
1.48378e-08
1.48363e-08
1.48348e-08
1.48333e-08
1.48318e-08
1.48302e-08
1.48286e-08
1.48267e-08
1.48456e-08
1.48447e-08
1.48439e-08
1.48427e-08
1.48414e-08
1.484e-08
1.48386e-08
1.48371e-08
1.48356e-08
1.48341e-08
1.48326e-08
1.4831e-08
1.48295e-08
1.48279e-08
1.48464e-08
1.48455e-08
1.48446e-08
1.48434e-08
1.48421e-08
1.48408e-08
1.48394e-08
1.48379e-08
1.48364e-08
1.48349e-08
1.48335e-08
1.48319e-08
1.48305e-08
1.48289e-08
1.48474e-08
1.48464e-08
1.48454e-08
1.48442e-08
1.48429e-08
1.48415e-08
1.48402e-08
1.48387e-08
1.48372e-08
1.48357e-08
1.48342e-08
1.48327e-08
1.48312e-08
1.48298e-08
1.48481e-08
1.48472e-08
1.48462e-08
1.4845e-08
1.48437e-08
1.48423e-08
1.4841e-08
1.48395e-08
1.4838e-08
1.48364e-08
1.48349e-08
1.48333e-08
1.48318e-08
1.48303e-08
1.48489e-08
1.48481e-08
1.4847e-08
1.48458e-08
1.48445e-08
1.48431e-08
1.48417e-08
1.48402e-08
1.48387e-08
1.48371e-08
1.48355e-08
1.48339e-08
1.48323e-08
1.48308e-08
1.48499e-08
1.4849e-08
1.48479e-08
1.48467e-08
1.48454e-08
1.48439e-08
1.48425e-08
1.48409e-08
1.48394e-08
1.48377e-08
1.48361e-08
1.48345e-08
1.48328e-08
1.48312e-08
1.48509e-08
1.48499e-08
1.48488e-08
1.48476e-08
1.48462e-08
1.48447e-08
1.48432e-08
1.48416e-08
1.484e-08
1.48384e-08
1.48367e-08
1.4835e-08
1.48333e-08
1.48317e-08
1.48519e-08
1.48509e-08
1.48497e-08
1.48485e-08
1.4847e-08
1.48455e-08
1.48439e-08
1.48423e-08
1.48406e-08
1.4839e-08
1.48373e-08
1.48356e-08
1.48338e-08
1.48321e-08
1.48531e-08
1.4852e-08
1.48507e-08
1.48494e-08
1.48479e-08
1.48463e-08
1.48447e-08
1.4843e-08
1.48413e-08
1.48396e-08
1.48379e-08
1.48361e-08
1.48344e-08
1.48326e-08
1.48542e-08
1.48531e-08
1.48517e-08
1.48503e-08
1.48487e-08
1.48471e-08
1.48454e-08
1.48437e-08
1.4842e-08
1.48402e-08
1.48385e-08
1.48367e-08
1.48349e-08
1.48331e-08
1.48553e-08
1.48542e-08
1.48528e-08
1.48513e-08
1.48496e-08
1.48479e-08
1.48462e-08
1.48444e-08
1.48426e-08
1.48409e-08
1.48391e-08
1.48373e-08
1.48354e-08
1.48335e-08
1.48563e-08
1.48551e-08
1.48537e-08
1.48521e-08
1.48504e-08
1.48487e-08
1.48469e-08
1.48452e-08
1.48434e-08
1.48416e-08
1.48397e-08
1.48378e-08
1.48358e-08
1.48336e-08
1.48573e-08
1.4856e-08
1.48546e-08
1.4853e-08
1.48513e-08
1.48496e-08
1.48478e-08
1.4846e-08
1.48442e-08
1.48423e-08
1.48404e-08
1.48384e-08
1.48362e-08
1.4834e-08
1.48511e-08
1.48503e-08
1.48493e-08
1.48481e-08
1.48467e-08
1.48452e-08
1.48435e-08
1.48418e-08
1.48399e-08
1.48381e-08
1.48363e-08
1.48343e-08
1.48324e-08
1.483e-08
1.48511e-08
1.48502e-08
1.48492e-08
1.48479e-08
1.48464e-08
1.48448e-08
1.48432e-08
1.48414e-08
1.48397e-08
1.48378e-08
1.4836e-08
1.4834e-08
1.48322e-08
1.48301e-08
1.48508e-08
1.48499e-08
1.48488e-08
1.48474e-08
1.4846e-08
1.48444e-08
1.48428e-08
1.48411e-08
1.48393e-08
1.48375e-08
1.48357e-08
1.48338e-08
1.4832e-08
1.48301e-08
1.48506e-08
1.48495e-08
1.48484e-08
1.4847e-08
1.48455e-08
1.4844e-08
1.48424e-08
1.48407e-08
1.48389e-08
1.48371e-08
1.48353e-08
1.48335e-08
1.48317e-08
1.48298e-08
1.48501e-08
1.48491e-08
1.48479e-08
1.48466e-08
1.48451e-08
1.48435e-08
1.48419e-08
1.48402e-08
1.48384e-08
1.48366e-08
1.48348e-08
1.48329e-08
1.48311e-08
1.48292e-08
1.48498e-08
1.48487e-08
1.48475e-08
1.48461e-08
1.48446e-08
1.4843e-08
1.48414e-08
1.48396e-08
1.48379e-08
1.4836e-08
1.48342e-08
1.48323e-08
1.48304e-08
1.48285e-08
1.48495e-08
1.48484e-08
1.48471e-08
1.48457e-08
1.48442e-08
1.48426e-08
1.48409e-08
1.48391e-08
1.48373e-08
1.48354e-08
1.48335e-08
1.48316e-08
1.48297e-08
1.48277e-08
1.48492e-08
1.4848e-08
1.48467e-08
1.48453e-08
1.48437e-08
1.4842e-08
1.48403e-08
1.48385e-08
1.48366e-08
1.48347e-08
1.48328e-08
1.48308e-08
1.48289e-08
1.48269e-08
1.4849e-08
1.48478e-08
1.48464e-08
1.48449e-08
1.48432e-08
1.48415e-08
1.48397e-08
1.48378e-08
1.48359e-08
1.4834e-08
1.4832e-08
1.483e-08
1.4828e-08
1.4826e-08
1.48489e-08
1.48475e-08
1.4846e-08
1.48444e-08
1.48426e-08
1.48408e-08
1.4839e-08
1.48371e-08
1.48352e-08
1.48332e-08
1.48312e-08
1.48292e-08
1.48271e-08
1.48251e-08
1.48487e-08
1.48472e-08
1.48456e-08
1.48439e-08
1.48421e-08
1.48402e-08
1.48383e-08
1.48364e-08
1.48344e-08
1.48324e-08
1.48303e-08
1.48283e-08
1.48261e-08
1.48241e-08
1.48484e-08
1.48468e-08
1.48451e-08
1.48434e-08
1.48415e-08
1.48396e-08
1.48376e-08
1.48356e-08
1.48336e-08
1.48315e-08
1.48294e-08
1.48273e-08
1.48251e-08
1.48231e-08
1.48479e-08
1.48462e-08
1.48446e-08
1.48428e-08
1.48408e-08
1.48389e-08
1.48369e-08
1.48348e-08
1.48327e-08
1.48306e-08
1.48284e-08
1.48262e-08
1.48239e-08
1.48216e-08
1.48474e-08
1.48457e-08
1.4844e-08
1.48421e-08
1.48402e-08
1.48381e-08
1.48361e-08
1.4834e-08
1.48319e-08
1.48298e-08
1.48275e-08
1.48253e-08
1.48228e-08
1.48205e-08
1.48532e-08
1.48524e-08
1.48514e-08
1.485e-08
1.48486e-08
1.48469e-08
1.48451e-08
1.48433e-08
1.48413e-08
1.48393e-08
1.48372e-08
1.4835e-08
1.48328e-08
1.48301e-08
1.48521e-08
1.48511e-08
1.48501e-08
1.48487e-08
1.48471e-08
1.48455e-08
1.48437e-08
1.48418e-08
1.48399e-08
1.48379e-08
1.48358e-08
1.48337e-08
1.48316e-08
1.48292e-08
1.48507e-08
1.48497e-08
1.48485e-08
1.48471e-08
1.48456e-08
1.4844e-08
1.48423e-08
1.48404e-08
1.48385e-08
1.48365e-08
1.48345e-08
1.48324e-08
1.48303e-08
1.48281e-08
1.48493e-08
1.48483e-08
1.4847e-08
1.48456e-08
1.4844e-08
1.48424e-08
1.48407e-08
1.48389e-08
1.4837e-08
1.4835e-08
1.4833e-08
1.48309e-08
1.48289e-08
1.48268e-08
1.48478e-08
1.48467e-08
1.48454e-08
1.4844e-08
1.48425e-08
1.48409e-08
1.48391e-08
1.48373e-08
1.48354e-08
1.48335e-08
1.48315e-08
1.48294e-08
1.48274e-08
1.48253e-08
1.48463e-08
1.48452e-08
1.48439e-08
1.48424e-08
1.48409e-08
1.48392e-08
1.48375e-08
1.48357e-08
1.48338e-08
1.48318e-08
1.48298e-08
1.48277e-08
1.48257e-08
1.48236e-08
1.48449e-08
1.48437e-08
1.48423e-08
1.48409e-08
1.48393e-08
1.48376e-08
1.48358e-08
1.4834e-08
1.48321e-08
1.48301e-08
1.48281e-08
1.4826e-08
1.48239e-08
1.48218e-08
1.48434e-08
1.48421e-08
1.48407e-08
1.48392e-08
1.48376e-08
1.48358e-08
1.48341e-08
1.48322e-08
1.48302e-08
1.48282e-08
1.48262e-08
1.48241e-08
1.4822e-08
1.48199e-08
1.48421e-08
1.48407e-08
1.48392e-08
1.48376e-08
1.48359e-08
1.48341e-08
1.48323e-08
1.48303e-08
1.48284e-08
1.48263e-08
1.48243e-08
1.48222e-08
1.482e-08
1.4818e-08
1.48406e-08
1.48391e-08
1.48375e-08
1.48358e-08
1.48341e-08
1.48323e-08
1.48304e-08
1.48284e-08
1.48264e-08
1.48244e-08
1.48223e-08
1.48201e-08
1.48179e-08
1.48159e-08
1.48392e-08
1.48375e-08
1.48359e-08
1.48341e-08
1.48323e-08
1.48304e-08
1.48284e-08
1.48264e-08
1.48243e-08
1.48223e-08
1.48201e-08
1.4818e-08
1.48157e-08
1.48138e-08
1.48376e-08
1.48358e-08
1.48341e-08
1.48322e-08
1.48303e-08
1.48284e-08
1.48264e-08
1.48244e-08
1.48223e-08
1.48202e-08
1.4818e-08
1.48158e-08
1.48135e-08
1.48116e-08
1.48359e-08
1.48341e-08
1.48323e-08
1.48304e-08
1.48284e-08
1.48264e-08
1.48243e-08
1.48222e-08
1.482e-08
1.48178e-08
1.48155e-08
1.48134e-08
1.4811e-08
1.4809e-08
1.48338e-08
1.4832e-08
1.48302e-08
1.48283e-08
1.48263e-08
1.48243e-08
1.48222e-08
1.48201e-08
1.48179e-08
1.48157e-08
1.48134e-08
1.48112e-08
1.48087e-08
1.48065e-08
1.48475e-08
1.48467e-08
1.48456e-08
1.48443e-08
1.48429e-08
1.48415e-08
1.48398e-08
1.48381e-08
1.48363e-08
1.48343e-08
1.48323e-08
1.48301e-08
1.48279e-08
1.48253e-08
1.48454e-08
1.48446e-08
1.48434e-08
1.48421e-08
1.48407e-08
1.48392e-08
1.48375e-08
1.48358e-08
1.48339e-08
1.4832e-08
1.483e-08
1.48279e-08
1.48257e-08
1.48235e-08
1.48432e-08
1.48423e-08
1.48411e-08
1.48397e-08
1.48383e-08
1.48368e-08
1.48352e-08
1.48335e-08
1.48317e-08
1.48298e-08
1.48278e-08
1.48258e-08
1.48237e-08
1.48216e-08
1.4841e-08
1.484e-08
1.48387e-08
1.48374e-08
1.4836e-08
1.48344e-08
1.48328e-08
1.48311e-08
1.48293e-08
1.48274e-08
1.48254e-08
1.48234e-08
1.48214e-08
1.48193e-08
1.48387e-08
1.48376e-08
1.48363e-08
1.4835e-08
1.48335e-08
1.4832e-08
1.48304e-08
1.48287e-08
1.48269e-08
1.4825e-08
1.48231e-08
1.48211e-08
1.48191e-08
1.4817e-08
1.48364e-08
1.48352e-08
1.48339e-08
1.48326e-08
1.48311e-08
1.48295e-08
1.48279e-08
1.48262e-08
1.48244e-08
1.48225e-08
1.48206e-08
1.48186e-08
1.48166e-08
1.48145e-08
1.48341e-08
1.48329e-08
1.48315e-08
1.48301e-08
1.48286e-08
1.4827e-08
1.48253e-08
1.48236e-08
1.48218e-08
1.48199e-08
1.4818e-08
1.4816e-08
1.48141e-08
1.48121e-08
1.48317e-08
1.48304e-08
1.4829e-08
1.48275e-08
1.4826e-08
1.48244e-08
1.48227e-08
1.48209e-08
1.48191e-08
1.48172e-08
1.48153e-08
1.48134e-08
1.48114e-08
1.48094e-08
1.48293e-08
1.48279e-08
1.48265e-08
1.4825e-08
1.48234e-08
1.48217e-08
1.482e-08
1.48182e-08
1.48164e-08
1.48145e-08
1.48126e-08
1.48106e-08
1.48086e-08
1.48068e-08
1.48268e-08
1.48253e-08
1.48238e-08
1.48222e-08
1.48206e-08
1.48189e-08
1.48172e-08
1.48154e-08
1.48135e-08
1.48117e-08
1.48097e-08
1.48078e-08
1.48057e-08
1.4804e-08
1.48244e-08
1.48228e-08
1.48212e-08
1.48195e-08
1.48179e-08
1.48161e-08
1.48143e-08
1.48125e-08
1.48106e-08
1.48087e-08
1.48067e-08
1.48048e-08
1.48028e-08
1.48012e-08
1.48217e-08
1.482e-08
1.48184e-08
1.48167e-08
1.48149e-08
1.48132e-08
1.48114e-08
1.48096e-08
1.48076e-08
1.48057e-08
1.48037e-08
1.48018e-08
1.47998e-08
1.47982e-08
1.48191e-08
1.48173e-08
1.48157e-08
1.48139e-08
1.48121e-08
1.48103e-08
1.48084e-08
1.48065e-08
1.48045e-08
1.48025e-08
1.48005e-08
1.47986e-08
1.47966e-08
1.4795e-08
1.48159e-08
1.48142e-08
1.48125e-08
1.48108e-08
1.4809e-08
1.48072e-08
1.48053e-08
1.48035e-08
1.48015e-08
1.47996e-08
1.47975e-08
1.47956e-08
1.47936e-08
1.47919e-08
1.48326e-08
1.48318e-08
1.48308e-08
1.48298e-08
1.48287e-08
1.48275e-08
1.48263e-08
1.4825e-08
1.48236e-08
1.48221e-08
1.48205e-08
1.48189e-08
1.48171e-08
1.48151e-08
1.48301e-08
1.48293e-08
1.48283e-08
1.48272e-08
1.4826e-08
1.48248e-08
1.48235e-08
1.48222e-08
1.48207e-08
1.48192e-08
1.48176e-08
1.48159e-08
1.48142e-08
1.48124e-08
1.48274e-08
1.48266e-08
1.48255e-08
1.48244e-08
1.48232e-08
1.4822e-08
1.48207e-08
1.48194e-08
1.48179e-08
1.48165e-08
1.48149e-08
1.48133e-08
1.48117e-08
1.48099e-08
1.48247e-08
1.48239e-08
1.48227e-08
1.48216e-08
1.48204e-08
1.48192e-08
1.48179e-08
1.48165e-08
1.48151e-08
1.48136e-08
1.4812e-08
1.48104e-08
1.48088e-08
1.48071e-08
1.4822e-08
1.48211e-08
1.48199e-08
1.48188e-08
1.48176e-08
1.48163e-08
1.4815e-08
1.48136e-08
1.48122e-08
1.48107e-08
1.48092e-08
1.48076e-08
1.4806e-08
1.48043e-08
1.48193e-08
1.48182e-08
1.4817e-08
1.48159e-08
1.48146e-08
1.48134e-08
1.4812e-08
1.48107e-08
1.48092e-08
1.48077e-08
1.48062e-08
1.48046e-08
1.48031e-08
1.48015e-08
1.48165e-08
1.48153e-08
1.48142e-08
1.48129e-08
1.48117e-08
1.48104e-08
1.4809e-08
1.48076e-08
1.48062e-08
1.48047e-08
1.48032e-08
1.48017e-08
1.48002e-08
1.47986e-08
1.48135e-08
1.48124e-08
1.48112e-08
1.48099e-08
1.48086e-08
1.48073e-08
1.4806e-08
1.48046e-08
1.48031e-08
1.48017e-08
1.48002e-08
1.47987e-08
1.47972e-08
1.47957e-08
1.48106e-08
1.48094e-08
1.48081e-08
1.48069e-08
1.48056e-08
1.48042e-08
1.48028e-08
1.48014e-08
1.48e-08
1.47986e-08
1.47971e-08
1.47956e-08
1.47941e-08
1.47928e-08
1.48076e-08
1.48062e-08
1.4805e-08
1.48037e-08
1.48024e-08
1.4801e-08
1.47997e-08
1.47983e-08
1.47968e-08
1.47954e-08
1.47939e-08
1.47925e-08
1.4791e-08
1.47898e-08
1.48046e-08
1.48031e-08
1.48019e-08
1.48005e-08
1.47992e-08
1.47978e-08
1.47964e-08
1.4795e-08
1.47936e-08
1.47922e-08
1.47907e-08
1.47894e-08
1.47879e-08
1.47869e-08
1.48014e-08
1.47999e-08
1.47986e-08
1.47973e-08
1.47959e-08
1.47946e-08
1.47932e-08
1.47918e-08
1.47903e-08
1.4789e-08
1.47875e-08
1.47862e-08
1.47848e-08
1.47838e-08
1.47983e-08
1.47968e-08
1.47955e-08
1.47941e-08
1.47928e-08
1.47913e-08
1.47899e-08
1.47884e-08
1.4787e-08
1.47856e-08
1.47842e-08
1.4783e-08
1.47816e-08
1.47808e-08
1.47946e-08
1.47934e-08
1.4792e-08
1.47907e-08
1.47893e-08
1.4788e-08
1.47866e-08
1.47852e-08
1.47838e-08
1.47824e-08
1.47811e-08
1.47798e-08
1.47784e-08
1.47776e-08
1.48098e-08
1.48091e-08
1.48082e-08
1.48075e-08
1.48068e-08
1.48062e-08
1.48055e-08
1.48047e-08
1.4804e-08
1.48032e-08
1.48023e-08
1.48015e-08
1.48006e-08
1.47996e-08
1.48071e-08
1.48065e-08
1.48057e-08
1.48049e-08
1.48042e-08
1.48035e-08
1.48027e-08
1.48019e-08
1.48011e-08
1.48002e-08
1.47993e-08
1.47984e-08
1.47975e-08
1.47965e-08
1.48044e-08
1.48038e-08
1.4803e-08
1.48022e-08
1.48014e-08
1.48007e-08
1.47999e-08
1.47991e-08
1.47983e-08
1.47974e-08
1.47965e-08
1.47956e-08
1.47948e-08
1.47938e-08
1.48017e-08
1.48011e-08
1.48002e-08
1.47994e-08
1.47987e-08
1.47979e-08
1.47971e-08
1.47962e-08
1.47954e-08
1.47945e-08
1.47936e-08
1.47927e-08
1.47918e-08
1.47909e-08
1.4799e-08
1.47983e-08
1.47974e-08
1.47966e-08
1.47958e-08
1.4795e-08
1.47942e-08
1.47934e-08
1.47925e-08
1.47917e-08
1.47908e-08
1.47899e-08
1.47891e-08
1.47881e-08
1.47962e-08
1.47955e-08
1.47946e-08
1.47938e-08
1.4793e-08
1.47921e-08
1.47913e-08
1.47905e-08
1.47897e-08
1.47888e-08
1.47879e-08
1.47871e-08
1.47862e-08
1.47853e-08
1.47934e-08
1.47926e-08
1.47917e-08
1.47909e-08
1.47901e-08
1.47892e-08
1.47884e-08
1.47876e-08
1.47868e-08
1.47859e-08
1.47851e-08
1.47843e-08
1.47834e-08
1.47826e-08
1.47905e-08
1.47896e-08
1.47888e-08
1.47879e-08
1.47871e-08
1.47863e-08
1.47855e-08
1.47847e-08
1.47839e-08
1.4783e-08
1.47822e-08
1.47814e-08
1.47806e-08
1.47799e-08
1.47876e-08
1.47867e-08
1.47858e-08
1.4785e-08
1.47841e-08
1.47833e-08
1.47825e-08
1.47817e-08
1.47809e-08
1.47802e-08
1.47794e-08
1.47786e-08
1.47779e-08
1.47773e-08
1.47846e-08
1.47836e-08
1.47828e-08
1.4782e-08
1.47812e-08
1.47804e-08
1.47796e-08
1.47788e-08
1.4778e-08
1.47773e-08
1.47765e-08
1.47758e-08
1.47751e-08
1.47746e-08
1.47818e-08
1.47807e-08
1.47799e-08
1.4779e-08
1.47782e-08
1.47774e-08
1.47766e-08
1.47759e-08
1.47751e-08
1.47744e-08
1.47737e-08
1.47731e-08
1.47724e-08
1.47721e-08
1.47787e-08
1.47777e-08
1.47769e-08
1.4776e-08
1.47752e-08
1.47745e-08
1.47737e-08
1.4773e-08
1.47723e-08
1.47716e-08
1.47709e-08
1.47703e-08
1.47697e-08
1.47695e-08
1.47758e-08
1.47749e-08
1.4774e-08
1.47732e-08
1.47724e-08
1.47716e-08
1.47708e-08
1.47701e-08
1.47694e-08
1.47687e-08
1.47681e-08
1.47675e-08
1.47671e-08
1.47671e-08
1.47726e-08
1.47718e-08
1.47709e-08
1.47702e-08
1.47694e-08
1.47687e-08
1.47679e-08
1.47673e-08
1.47666e-08
1.4766e-08
1.47654e-08
1.47648e-08
1.47644e-08
1.47644e-08
1.47813e-08
1.47808e-08
1.47803e-08
1.47801e-08
1.47798e-08
1.47797e-08
1.47795e-08
1.47794e-08
1.47793e-08
1.47793e-08
1.47793e-08
1.47793e-08
1.47794e-08
1.47793e-08
1.47788e-08
1.47786e-08
1.47782e-08
1.47779e-08
1.47776e-08
1.47774e-08
1.47772e-08
1.4777e-08
1.47769e-08
1.47768e-08
1.47767e-08
1.47767e-08
1.47767e-08
1.47765e-08
1.47765e-08
1.47763e-08
1.47759e-08
1.47756e-08
1.47753e-08
1.47751e-08
1.47749e-08
1.47747e-08
1.47745e-08
1.47744e-08
1.47743e-08
1.47742e-08
1.47743e-08
1.4774e-08
1.47742e-08
1.4774e-08
1.47736e-08
1.47733e-08
1.4773e-08
1.47727e-08
1.47725e-08
1.47723e-08
1.47722e-08
1.4772e-08
1.47719e-08
1.47718e-08
1.47718e-08
1.47716e-08
1.47719e-08
1.47716e-08
1.47712e-08
1.47709e-08
1.47706e-08
1.47704e-08
1.47702e-08
1.477e-08
1.47698e-08
1.47697e-08
1.47696e-08
1.47695e-08
1.47695e-08
1.47693e-08
1.47696e-08
1.47693e-08
1.47689e-08
1.47686e-08
1.47683e-08
1.4768e-08
1.47678e-08
1.47676e-08
1.47675e-08
1.47674e-08
1.47673e-08
1.47672e-08
1.47672e-08
1.4767e-08
1.47673e-08
1.47669e-08
1.47666e-08
1.47662e-08
1.47659e-08
1.47657e-08
1.47655e-08
1.47653e-08
1.47652e-08
1.47651e-08
1.4765e-08
1.4765e-08
1.47649e-08
1.47649e-08
1.4765e-08
1.47646e-08
1.47642e-08
1.47639e-08
1.47636e-08
1.47634e-08
1.47632e-08
1.4763e-08
1.47629e-08
1.47629e-08
1.47628e-08
1.47628e-08
1.47628e-08
1.47628e-08
1.47627e-08
1.47622e-08
1.47619e-08
1.47616e-08
1.47613e-08
1.47611e-08
1.47609e-08
1.47608e-08
1.47607e-08
1.47607e-08
1.47607e-08
1.47607e-08
1.47607e-08
1.47609e-08
1.47604e-08
1.47599e-08
1.47596e-08
1.47593e-08
1.4759e-08
1.47588e-08
1.47587e-08
1.47586e-08
1.47586e-08
1.47585e-08
1.47586e-08
1.47587e-08
1.47587e-08
1.4759e-08
1.47582e-08
1.47576e-08
1.47573e-08
1.4757e-08
1.47568e-08
1.47567e-08
1.47565e-08
1.47565e-08
1.47564e-08
1.47565e-08
1.47565e-08
1.47567e-08
1.47568e-08
1.47571e-08
1.47559e-08
1.47553e-08
1.47551e-08
1.47548e-08
1.47547e-08
1.47545e-08
1.47544e-08
1.47544e-08
1.47544e-08
1.47544e-08
1.47545e-08
1.47547e-08
1.47549e-08
1.47553e-08
1.47539e-08
1.47532e-08
1.4753e-08
1.47528e-08
1.47526e-08
1.47525e-08
1.47524e-08
1.47523e-08
1.47524e-08
1.47525e-08
1.47526e-08
1.47529e-08
1.47532e-08
1.47536e-08
1.47515e-08
1.4751e-08
1.47508e-08
1.47506e-08
1.47505e-08
1.47504e-08
1.47504e-08
1.47504e-08
1.47505e-08
1.47506e-08
1.47508e-08
1.47511e-08
1.47514e-08
1.47518e-08
1.47493e-08
1.47493e-08
1.47493e-08
1.47494e-08
1.47496e-08
1.475e-08
1.47503e-08
1.47508e-08
1.47512e-08
1.47518e-08
1.47524e-08
1.47531e-08
1.4754e-08
1.47547e-08
1.47476e-08
1.47477e-08
1.47477e-08
1.47479e-08
1.47481e-08
1.47484e-08
1.47488e-08
1.47492e-08
1.47497e-08
1.47502e-08
1.47508e-08
1.47514e-08
1.47521e-08
1.47527e-08
1.4746e-08
1.47462e-08
1.47462e-08
1.47464e-08
1.47466e-08
1.47469e-08
1.47472e-08
1.47477e-08
1.47481e-08
1.47486e-08
1.47492e-08
1.47498e-08
1.47505e-08
1.4751e-08
1.47445e-08
1.47446e-08
1.47447e-08
1.47448e-08
1.47451e-08
1.47454e-08
1.47457e-08
1.47461e-08
1.47466e-08
1.47471e-08
1.47476e-08
1.47482e-08
1.47489e-08
1.47494e-08
1.4743e-08
1.47431e-08
1.47432e-08
1.47433e-08
1.47436e-08
1.47438e-08
1.47442e-08
1.47446e-08
1.47451e-08
1.47456e-08
1.47462e-08
1.47467e-08
1.47474e-08
1.47479e-08
1.47415e-08
1.47416e-08
1.47417e-08
1.47419e-08
1.47421e-08
1.47424e-08
1.47427e-08
1.47431e-08
1.47436e-08
1.47441e-08
1.47447e-08
1.47453e-08
1.47459e-08
1.47465e-08
1.47401e-08
1.47401e-08
1.47402e-08
1.47404e-08
1.47406e-08
1.47409e-08
1.47413e-08
1.47417e-08
1.47422e-08
1.47427e-08
1.47433e-08
1.47439e-08
1.47446e-08
1.47452e-08
1.47386e-08
1.47387e-08
1.47388e-08
1.4739e-08
1.47392e-08
1.47396e-08
1.47399e-08
1.47403e-08
1.47408e-08
1.47414e-08
1.4742e-08
1.47426e-08
1.47433e-08
1.47439e-08
1.47373e-08
1.47373e-08
1.47375e-08
1.47377e-08
1.47379e-08
1.47382e-08
1.47386e-08
1.47391e-08
1.47396e-08
1.47401e-08
1.47407e-08
1.47414e-08
1.47421e-08
1.47428e-08
1.47359e-08
1.4736e-08
1.47362e-08
1.47364e-08
1.47366e-08
1.4737e-08
1.47374e-08
1.47378e-08
1.47384e-08
1.47389e-08
1.47396e-08
1.47403e-08
1.47409e-08
1.47417e-08
1.47347e-08
1.47347e-08
1.47349e-08
1.47351e-08
1.47354e-08
1.47358e-08
1.47362e-08
1.47367e-08
1.47372e-08
1.47378e-08
1.47385e-08
1.47392e-08
1.47399e-08
1.47407e-08
1.47334e-08
1.47335e-08
1.47337e-08
1.4734e-08
1.47343e-08
1.47347e-08
1.47351e-08
1.47356e-08
1.47362e-08
1.47368e-08
1.47375e-08
1.47382e-08
1.47389e-08
1.47398e-08
1.47323e-08
1.47323e-08
1.47326e-08
1.47329e-08
1.47332e-08
1.47336e-08
1.47341e-08
1.47346e-08
1.47352e-08
1.47359e-08
1.47366e-08
1.47373e-08
1.47382e-08
1.4739e-08
1.47311e-08
1.47312e-08
1.47315e-08
1.47318e-08
1.47322e-08
1.47326e-08
1.47331e-08
1.47337e-08
1.47343e-08
1.4735e-08
1.47357e-08
1.47364e-08
1.47373e-08
1.47382e-08
1.47155e-08
1.47159e-08
1.47163e-08
1.47169e-08
1.47175e-08
1.47181e-08
1.47188e-08
1.47196e-08
1.47204e-08
1.47213e-08
1.47222e-08
1.47232e-08
1.47243e-08
1.47255e-08
1.47147e-08
1.47152e-08
1.47157e-08
1.47162e-08
1.47168e-08
1.47175e-08
1.47182e-08
1.4719e-08
1.47198e-08
1.47207e-08
1.47217e-08
1.47227e-08
1.47237e-08
1.47247e-08
1.4714e-08
1.47146e-08
1.4715e-08
1.47156e-08
1.47162e-08
1.47168e-08
1.47176e-08
1.47184e-08
1.47192e-08
1.47201e-08
1.47211e-08
1.47221e-08
1.47232e-08
1.47241e-08
1.47135e-08
1.4714e-08
1.47144e-08
1.4715e-08
1.47156e-08
1.47163e-08
1.4717e-08
1.47178e-08
1.47186e-08
1.47195e-08
1.47205e-08
1.47215e-08
1.47226e-08
1.47235e-08
1.47129e-08
1.47134e-08
1.47139e-08
1.47144e-08
1.4715e-08
1.47157e-08
1.47164e-08
1.47172e-08
1.47181e-08
1.4719e-08
1.47199e-08
1.47209e-08
1.4722e-08
1.4723e-08
1.47124e-08
1.47129e-08
1.47133e-08
1.47139e-08
1.47145e-08
1.47152e-08
1.47159e-08
1.47167e-08
1.47175e-08
1.47184e-08
1.47194e-08
1.47204e-08
1.47214e-08
1.47224e-08
1.47119e-08
1.47124e-08
1.47129e-08
1.47134e-08
1.4714e-08
1.47147e-08
1.47154e-08
1.47162e-08
1.47171e-08
1.4718e-08
1.47189e-08
1.47199e-08
1.47209e-08
1.47219e-08
1.47115e-08
1.4712e-08
1.47125e-08
1.4713e-08
1.47136e-08
1.47143e-08
1.4715e-08
1.47158e-08
1.47167e-08
1.47176e-08
1.47185e-08
1.47195e-08
1.47205e-08
1.47215e-08
1.47111e-08
1.47116e-08
1.47121e-08
1.47126e-08
1.47132e-08
1.47139e-08
1.47147e-08
1.47155e-08
1.47163e-08
1.47172e-08
1.47182e-08
1.47192e-08
1.47201e-08
1.47212e-08
1.47108e-08
1.47112e-08
1.47118e-08
1.47123e-08
1.4713e-08
1.47136e-08
1.47144e-08
1.47152e-08
1.4716e-08
1.4717e-08
1.47179e-08
1.47189e-08
1.47199e-08
1.47209e-08
1.47105e-08
1.47109e-08
1.47115e-08
1.47121e-08
1.47127e-08
1.47134e-08
1.47142e-08
1.4715e-08
1.47158e-08
1.47167e-08
1.47177e-08
1.47187e-08
1.47197e-08
1.47207e-08
1.47102e-08
1.47107e-08
1.47112e-08
1.47118e-08
1.47125e-08
1.47132e-08
1.4714e-08
1.47148e-08
1.47157e-08
1.47166e-08
1.47175e-08
1.47185e-08
1.47195e-08
1.47205e-08
1.471e-08
1.47105e-08
1.47111e-08
1.47117e-08
1.47124e-08
1.47131e-08
1.47139e-08
1.47148e-08
1.47156e-08
1.47166e-08
1.47175e-08
1.47185e-08
1.47195e-08
1.47206e-08
1.47098e-08
1.47103e-08
1.47109e-08
1.47116e-08
1.47123e-08