/*--------------------------------*- C++ -*----------------------------------*\
| =========                 |                                                 |
| \\      /  F ield         | OpenFOAM: The Open Source CFD Toolbox           |
|  \\    /   O peration     | Version:  v2106                                 |
|   \\  /    A nd           | Website:  www.openfoam.com                      |
|    \\/     M anipulation  |                                                 |
\*---------------------------------------------------------------------------*/
FoamFile
{
    version     2.0;
    format      ascii;
    arch        "LSB;label=32;scalar=64";
    class       volVectorField;
    location    "0.000134";
    object      U;
}
// * * * * * * * * * * * * * * * * * * * * * * * * * * * * * * * * * * * * * //

dimensions      [0 1 -1 0 0 0 0];

internalField   nonuniform List<vector> 
18069
(
(4.2021e-06 1.88807e-05 0.0015905)
(3.72547e-06 1.97355e-05 0.00158869)
(5.23376e-06 2.07274e-05 0.00158669)
(6.28199e-06 2.12568e-05 0.00158373)
(7.44964e-06 2.16407e-05 0.00158012)
(8.53675e-06 2.17386e-05 0.00157582)
(9.57523e-06 2.16653e-05 0.00157086)
(1.05497e-05 2.14136e-05 0.00156527)
(1.14909e-05 2.0991e-05 0.00155911)
(1.23469e-05 2.04044e-05 0.00155237)
(1.33242e-05 1.96165e-05 0.00154509)
(1.39913e-05 1.87259e-05 0.00153711)
(1.55297e-05 1.74733e-05 0.00152862)
(1.49115e-05 1.65918e-05 0.0015198)
(4.16199e-06 2.1013e-05 0.00158037)
(3.7695e-06 2.17058e-05 0.00157761)
(5.83614e-06 2.20965e-05 0.00157518)
(6.68033e-06 2.24848e-05 0.00157192)
(7.8278e-06 2.28399e-05 0.00156819)
(8.7813e-06 2.30751e-05 0.00156382)
(9.73898e-06 2.32288e-05 0.00155886)
(1.06211e-05 2.32887e-05 0.00155334)
(1.14896e-05 2.32653e-05 0.0015473)
(1.2265e-05 2.31642e-05 0.00154077)
(1.31671e-05 2.29623e-05 0.00153374)
(1.36189e-05 2.26187e-05 0.00152606)
(1.48469e-05 2.19714e-05 0.001518)
(1.32465e-05 2.10641e-05 0.00151016)
(5.06369e-06 2.18261e-05 0.00156887)
(4.51122e-06 2.28015e-05 0.00156591)
(6.36219e-06 2.33113e-05 0.00156311)
(7.02967e-06 2.37135e-05 0.00155966)
(8.04001e-06 2.395e-05 0.00155578)
(8.85665e-06 2.40765e-05 0.00155133)
(9.70266e-06 2.41008e-05 0.00154633)
(1.04752e-05 2.40284e-05 0.00154081)
(1.12427e-05 2.3863e-05 0.00153481)
(1.19184e-05 2.36046e-05 0.00152832)
(1.27119e-05 2.32466e-05 0.00152135)
(1.30673e-05 2.27718e-05 0.00151371)
(1.40755e-05 2.22225e-05 0.00150566)
(1.27931e-05 2.17011e-05 0.00149805)
(5.25644e-06 2.33778e-05 0.00155664)
(4.95944e-06 2.40561e-05 0.00155353)
(6.62788e-06 2.43164e-05 0.00155051)
(7.29497e-06 2.45984e-05 0.00154694)
(8.21625e-06 2.47716e-05 0.00154296)
(8.96315e-06 2.48924e-05 0.00153843)
(9.73266e-06 2.49387e-05 0.00153339)
(1.04324e-05 2.49175e-05 0.00152787)
(1.11247e-05 2.48261e-05 0.0015219)
(1.17219e-05 2.46586e-05 0.00151547)
(1.24125e-05 2.44113e-05 0.00150859)
(1.26633e-05 2.4054e-05 0.00150111)
(1.35233e-05 2.36431e-05 0.00149326)
(1.22453e-05 2.31889e-05 0.00148578)
(5.44823e-06 2.43372e-05 0.00154371)
(5.46439e-06 2.49464e-05 0.00154052)
(6.85541e-06 2.51517e-05 0.00153734)
(7.51299e-06 2.53841e-05 0.0015337)
(8.32655e-06 2.54957e-05 0.00152963)
(9.01343e-06 2.55668e-05 0.00152505)
(9.70721e-06 2.55664e-05 0.00151999)
(1.03398e-05 2.5506e-05 0.00151448)
(1.09573e-05 2.53819e-05 0.00150855)
(1.14837e-05 2.51851e-05 0.00150221)
(1.20755e-05 2.49266e-05 0.00149546)
(1.22903e-05 2.45649e-05 0.00148821)
(1.30578e-05 2.42462e-05 0.00148067)
(1.20588e-05 2.38163e-05 0.00147328)
(5.42308e-06 2.53418e-05 0.00153013)
(5.87496e-06 2.5799e-05 0.00152693)
(6.9764e-06 2.5889e-05 0.00152364)
(7.66668e-06 2.60522e-05 0.00151996)
(8.39311e-06 2.61108e-05 0.00151582)
(9.04443e-06 2.61508e-05 0.00151121)
(9.67781e-06 2.61337e-05 0.00150614)
(1.02606e-05 2.60717e-05 0.00150065)
(1.08155e-05 2.59618e-05 0.00149477)
(1.12917e-05 2.57903e-05 0.00148851)
(1.17846e-05 2.55847e-05 0.00148188)
(1.20114e-05 2.52663e-05 0.00147488)
(1.26198e-05 2.50701e-05 0.00146765)
(1.2092e-05 2.45784e-05 0.00146039)
(5.11921e-06 2.60973e-05 0.001516)
(6.23864e-06 2.64904e-05 0.00151291)
(7.02728e-06 2.65011e-05 0.00150949)
(7.77029e-06 2.66072e-05 0.00150576)
(8.41372e-06 2.66152e-05 0.00150158)
(9.0411e-06 2.66156e-05 0.00149694)
(9.62328e-06 2.65703e-05 0.00149188)
(1.01688e-05 2.64918e-05 0.00148642)
(1.06705e-05 2.63802e-05 0.00148059)
(1.11186e-05 2.62179e-05 0.00147441)
(1.15134e-05 2.60514e-05 0.00146789)
(1.18196e-05 2.57622e-05 0.00146109)
(1.21705e-05 2.56941e-05 0.0014541)
(1.24136e-05 2.51345e-05 0.00144703)
(4.53131e-06 2.66873e-05 0.00150143)
(6.45949e-06 2.70415e-05 0.00149856)
(6.98041e-06 2.70075e-05 0.00149498)
(7.81221e-06 2.70374e-05 0.00149118)
(8.39107e-06 2.70005e-05 0.00148697)
(9.00876e-06 2.69659e-05 0.00148234)
(9.55448e-06 2.69025e-05 0.0014773)
(1.00781e-05 2.68191e-05 0.00147187)
(1.054e-05 2.67188e-05 0.00146609)
(1.09838e-05 2.65819e-05 0.00145997)
(1.1285e-05 2.64636e-05 0.00145353)
(1.17164e-05 2.62206e-05 0.00144685)
(1.16899e-05 2.62346e-05 0.00144002)
(1.29358e-05 2.55913e-05 0.00143321)
(4.12355e-06 2.72962e-05 0.00148647)
(6.49304e-06 2.74803e-05 0.00148388)
(6.88113e-06 2.74204e-05 0.00148015)
(7.78979e-06 2.73601e-05 0.00147628)
(8.33383e-06 2.72796e-05 0.00147207)
(8.94906e-06 2.72039e-05 0.00146747)
(9.47364e-06 2.71175e-05 0.00146246)
(9.98735e-06 2.7022e-05 0.00145707)
(1.0424e-05 2.69231e-05 0.00145134)
(1.08806e-05 2.68031e-05 0.00144527)
(1.11053e-05 2.67159e-05 0.00143887)
(1.16653e-05 2.65292e-05 0.00143224)
(1.12318e-05 2.6565e-05 0.00142549)
(1.34536e-05 2.58823e-05 0.00141899)
(3.99376e-06 2.77525e-05 0.0014709)
(6.41589e-06 2.77408e-05 0.00146873)
(6.76141e-06 2.76263e-05 0.00146501)
(7.69459e-06 2.75145e-05 0.00146113)
(8.23862e-06 2.74127e-05 0.00145694)
(8.85693e-06 2.73186e-05 0.00145238)
(9.37655e-06 2.72286e-05 0.00144741)
(9.89033e-06 2.71395e-05 0.00144207)
(1.03161e-05 2.70577e-05 0.00143638)
(1.07966e-05 2.69688e-05 0.00143035)
(1.09745e-05 2.69145e-05 0.00142396)
(1.16487e-05 2.6784e-05 0.00141732)
(1.08761e-05 2.67855e-05 0.00141059)
(1.39004e-05 2.60678e-05 0.00140441)
(3.8456e-06 2.82108e-05 0.00145498)
(6.3334e-06 2.81484e-05 0.00145312)
(6.61753e-06 2.78779e-05 0.00144959)
(7.57272e-06 2.76467e-05 0.00144578)
(8.133e-06 2.74756e-05 0.00144164)
(8.76223e-06 2.73336e-05 0.00143713)
(9.2882e-06 2.72094e-05 0.00143221)
(9.8094e-06 2.70915e-05 0.00142691)
(1.02361e-05 2.69845e-05 0.00142126)
(1.07428e-05 2.68796e-05 0.00141527)
(1.0891e-05 2.68144e-05 0.00140888)
(1.1649e-05 2.67168e-05 0.0014022)
(1.0568e-05 2.67219e-05 0.00139545)
(1.41389e-05 2.61331e-05 0.00138943)
(3.18327e-06 2.78561e-05 0.00143871)
(6.0426e-06 2.7891e-05 0.00143717)
(6.29508e-06 2.7619e-05 0.00143394)
(7.34178e-06 2.74121e-05 0.00143031)
(7.96499e-06 2.72887e-05 0.00142624)
(8.61881e-06 2.71941e-05 0.00142179)
(9.15913e-06 2.71261e-05 0.00141694)
(9.68715e-06 2.70698e-05 0.0014117)
(1.01193e-05 2.70298e-05 0.00140609)
(1.06528e-05 2.70047e-05 0.00140014)
(1.08069e-05 2.69991e-05 0.00139375)
(1.16854e-05 2.69669e-05 0.00138705)
(1.04444e-05 2.69023e-05 0.00138021)
(1.46777e-05 2.63619e-05 0.00137407)
(2.84577e-06 2.8672e-05 0.00142235)
(5.82477e-06 2.85151e-05 0.00142132)
(6.07601e-06 2.79919e-05 0.0014184)
(7.22138e-06 2.75329e-05 0.00141493)
(7.90749e-06 2.72976e-05 0.00141093)
(8.5707e-06 2.70912e-05 0.00140654)
(9.13184e-06 2.69145e-05 0.00140174)
(9.66942e-06 2.6727e-05 0.00139656)
(1.01215e-05 2.65304e-05 0.00139101)
(1.06639e-05 2.63345e-05 0.0013851)
(1.08191e-05 2.6134e-05 0.00137873)
(1.16604e-05 2.60172e-05 0.001372)
(1.012e-05 2.59589e-05 0.00136519)
(1.4313e-05 2.57442e-05 0.00135891)
(4.77316e-07 2.84693e-05 0.00140669)
(4.36307e-06 2.6891e-05 0.00140616)
(5.58107e-06 2.66047e-05 0.00140332)
(6.819e-06 2.65516e-05 0.00139985)
(7.69041e-06 2.67578e-05 0.00139584)
(8.33737e-06 2.68479e-05 0.00139145)
(8.90989e-06 2.69787e-05 0.0013867)
(9.41868e-06 2.71297e-05 0.00138158)
(9.86182e-06 2.73085e-05 0.0013761)
(1.03726e-05 2.75579e-05 0.00137025)
(1.06294e-05 2.77191e-05 0.00136392)
(1.15886e-05 2.81226e-05 0.00135718)
(1.093e-05 2.79377e-05 0.00135046)
(1.60016e-05 2.90257e-05 0.00134551)
(4.34126e-07 1.23992e-06 7.46117e-05)
(3.54068e-07 1.33442e-06 7.42995e-05)
(3.9045e-07 1.39863e-06 7.40002e-05)
(4.21542e-07 1.42799e-06 7.36819e-05)
(4.60606e-07 1.44342e-06 7.33358e-05)
(4.99221e-07 1.44317e-06 7.29583e-05)
(5.36019e-07 1.43337e-06 7.25507e-05)
(5.70301e-07 1.414e-06 7.21156e-05)
(6.02255e-07 1.38544e-06 7.16553e-05)
(6.30607e-07 1.34814e-06 7.11717e-05)
(6.59943e-07 1.29908e-06 7.0664e-05)
(6.71449e-07 1.24004e-06 7.01269e-05)
(6.99735e-07 1.14558e-06 6.95722e-05)
(5.98096e-07 1.07701e-06 6.90867e-05)
(4.74682e-07 1.3425e-06 7.36018e-05)
(3.72308e-07 1.38528e-06 7.32053e-05)
(4.33772e-07 1.41958e-06 7.28663e-05)
(4.44045e-07 1.443e-06 7.25318e-05)
(4.77609e-07 1.46102e-06 7.21772e-05)
(5.08112e-07 1.47113e-06 7.17959e-05)
(5.39924e-07 1.47573e-06 7.13887e-05)
(5.69101e-07 1.47519e-06 7.09583e-05)
(5.96844e-07 1.47009e-06 7.05069e-05)
(6.20419e-07 1.46086e-06 7.00363e-05)
(6.46472e-07 1.44661e-06 6.9545e-05)
(6.42825e-07 1.42577e-06 6.90252e-05)
(6.52794e-07 1.3851e-06 6.84984e-05)
(5.18661e-07 1.33164e-06 6.80936e-05)
(5.28761e-07 1.33514e-06 7.25508e-05)
(4.25182e-07 1.38777e-06 7.21285e-05)
(4.64735e-07 1.42033e-06 7.17579e-05)
(4.62819e-07 1.44141e-06 7.14068e-05)
(4.86873e-07 1.45252e-06 7.1042e-05)
(5.09549e-07 1.45696e-06 7.0656e-05)
(5.34933e-07 1.45535e-06 7.02484e-05)
(5.58002e-07 1.44823e-06 6.98217e-05)
(5.80079e-07 1.43586e-06 6.93776e-05)
(5.97755e-07 1.41826e-06 6.89174e-05)
(6.17437e-07 1.39453e-06 6.84389e-05)
(6.05054e-07 1.36297e-06 6.79338e-05)
(6.00669e-07 1.32492e-06 6.7424e-05)
(4.74968e-07 1.293e-06 6.70423e-05)
(5.35286e-07 1.38592e-06 7.14795e-05)
(4.55953e-07 1.41507e-06 7.10447e-05)
(4.80379e-07 1.42999e-06 7.06578e-05)
(4.75674e-07 1.44325e-06 7.02952e-05)
(4.93801e-07 1.45028e-06 6.99225e-05)
(5.11892e-07 1.45374e-06 6.95324e-05)
(5.32627e-07 1.45276e-06 6.91243e-05)
(5.51382e-07 1.44778e-06 6.87005e-05)
(5.6914e-07 1.43872e-06 6.82626e-05)
(5.82095e-07 1.42532e-06 6.78116e-05)
(5.9553e-07 1.40668e-06 6.73462e-05)
(5.77249e-07 1.3813e-06 6.68605e-05)
(5.65153e-07 1.3531e-06 6.63752e-05)
(4.3713e-07 1.33217e-06 6.60018e-05)
(5.28951e-07 1.40784e-06 7.03855e-05)
(4.82511e-07 1.43122e-06 6.99429e-05)
(4.89966e-07 1.4387e-06 6.95473e-05)
(4.84517e-07 1.44756e-06 6.91771e-05)
(4.9701e-07 1.45062e-06 6.87996e-05)
(5.11482e-07 1.45116e-06 6.84075e-05)
(5.27957e-07 1.44782e-06 6.80005e-05)
(5.42825e-07 1.44106e-06 6.75808e-05)
(5.56404e-07 1.43066e-06 6.71499e-05)
(5.64836e-07 1.41624e-06 6.67091e-05)
(5.7236e-07 1.39737e-06 6.62583e-05)
(5.50423e-07 1.37291e-06 6.5795e-05)
(5.37996e-07 1.34878e-06 6.53384e-05)
(4.15464e-07 1.33152e-06 6.49701e-05)
(5.09802e-07 1.43246e-06 6.92645e-05)
(5.00287e-07 1.44817e-06 6.8823e-05)
(4.92377e-07 1.44739e-06 6.84243e-05)
(4.89312e-07 1.45177e-06 6.80497e-05)
(4.97396e-07 1.45155e-06 6.76699e-05)
(5.09538e-07 1.44998e-06 6.72775e-05)
(5.22698e-07 1.44543e-06 6.68729e-05)
(5.34618e-07 1.43838e-06 6.64578e-05)
(5.44796e-07 1.4286e-06 6.60339e-05)
(5.49809e-07 1.41566e-06 6.56028e-05)
(5.52249e-07 1.3998e-06 6.51653e-05)
(5.29036e-07 1.37908e-06 6.47232e-05)
(5.13823e-07 1.36115e-06 6.4295e-05)
(4.12232e-07 1.33915e-06 6.39336e-05)
(4.78456e-07 1.44396e-06 6.81251e-05)
(5.12943e-07 1.45635e-06 6.76932e-05)
(4.90161e-07 1.4505e-06 6.72946e-05)
(4.90993e-07 1.45148e-06 6.69171e-05)
(4.95116e-07 1.44845e-06 6.65369e-05)
(5.05686e-07 1.44468e-06 6.61462e-05)
(5.16239e-07 1.43869e-06 6.5745e-05)
(5.25993e-07 1.43095e-06 6.53351e-05)
(5.33478e-07 1.42134e-06 6.49182e-05)
(5.36343e-07 1.40939e-06 6.44959e-05)
(5.34249e-07 1.39613e-06 6.40701e-05)
(5.1353e-07 1.37828e-06 6.36458e-05)
(4.89868e-07 1.36769e-06 6.32419e-05)
(4.28516e-07 1.34073e-06 6.28889e-05)
(4.33656e-07 1.45097e-06 6.69826e-05)
(5.19671e-07 1.45762e-06 6.65628e-05)
(4.83864e-07 1.44874e-06 6.61637e-05)
(4.89519e-07 1.44575e-06 6.57845e-05)
(4.905e-07 1.44029e-06 6.54059e-05)
(5.00239e-07 1.43462e-06 6.50183e-05)
(5.09032e-07 1.42762e-06 6.46216e-05)
(5.17471e-07 1.41963e-06 6.42173e-05)
(5.2308e-07 1.41067e-06 6.3807e-05)
(5.2515e-07 1.4002e-06 6.33925e-05)
(5.18941e-07 1.38982e-06 6.29758e-05)
(5.03732e-07 1.37491e-06 6.25645e-05)
(4.63577e-07 1.37054e-06 6.21789e-05)
(4.59113e-07 1.34006e-06 6.18369e-05)
(3.92485e-07 1.46024e-06 6.58353e-05)
(5.15083e-07 1.45468e-06 6.54335e-05)
(4.75659e-07 1.4422e-06 6.50352e-05)
(4.84469e-07 1.4342e-06 6.46567e-05)
(4.83952e-07 1.42632e-06 6.42816e-05)
(4.93367e-07 1.41868e-06 6.38986e-05)
(5.01251e-07 1.41066e-06 6.35073e-05)
(5.09095e-07 1.40232e-06 6.31087e-05)
(5.13617e-07 1.39375e-06 6.27048e-05)
(5.15978e-07 1.38449e-06 6.22969e-05)
(5.06334e-07 1.37631e-06 6.18869e-05)
(4.97747e-07 1.36438e-06 6.1483e-05)
(4.35787e-07 1.36338e-06 6.11096e-05)
(4.9262e-07 1.32942e-06 6.07832e-05)
(3.75134e-07 1.45473e-06 6.46666e-05)
(4.96313e-07 1.44155e-06 6.42997e-05)
(4.64852e-07 1.42516e-06 6.39119e-05)
(4.7551e-07 1.41319e-06 6.35383e-05)
(4.75496e-07 1.40356e-06 6.31686e-05)
(4.85121e-07 1.39482e-06 6.27913e-05)
(4.9291e-07 1.38654e-06 6.24058e-05)
(5.00755e-07 1.37849e-06 6.20132e-05)
(5.04918e-07 1.37081e-06 6.16152e-05)
(5.08329e-07 1.36314e-06 6.1213e-05)
(4.96493e-07 1.35702e-06 6.08074e-05)
(4.94082e-07 1.34823e-06 6.04064e-05)
(4.11365e-07 1.34755e-06 6.00406e-05)
(5.20924e-07 1.31127e-06 5.97327e-05)
(3.6428e-07 1.449e-06 6.34986e-05)
(4.74638e-07 1.42774e-06 6.31691e-05)
(4.50733e-07 1.40351e-06 6.27984e-05)
(4.64064e-07 1.38586e-06 6.24342e-05)
(4.66102e-07 1.37312e-06 6.20717e-05)
(4.76563e-07 1.36244e-06 6.17012e-05)
(4.84852e-07 1.35292e-06 6.1322e-05)
(4.93106e-07 1.34398e-06 6.09354e-05)
(4.97478e-07 1.33571e-06 6.0543e-05)
(5.02298e-07 1.32791e-06 6.01457e-05)
(4.89449e-07 1.32224e-06 5.9743e-05)
(4.92023e-07 1.31601e-06 5.93422e-05)
(3.92204e-07 1.31659e-06 5.89801e-05)
(5.38579e-07 1.28362e-06 5.86865e-05)
(3.36906e-07 1.39897e-06 6.23334e-05)
(4.45619e-07 1.37507e-06 6.2052e-05)
(4.29542e-07 1.34889e-06 6.1703e-05)
(4.48417e-07 1.33155e-06 6.13529e-05)
(4.54554e-07 1.32083e-06 6.1e-05)
(4.66532e-07 1.31247e-06 6.06372e-05)
(4.75685e-07 1.3057e-06 6.02648e-05)
(4.84403e-07 1.29956e-06 5.98845e-05)
(4.89189e-07 1.29415e-06 5.94978e-05)
(4.95599e-07 1.28964e-06 5.91053e-05)
(4.83519e-07 1.28681e-06 5.87051e-05)
(4.92774e-07 1.2842e-06 5.83039e-05)
(3.83056e-07 1.2837e-06 5.79413e-05)
(5.65883e-07 1.26073e-06 5.76485e-05)
(3.20762e-07 1.40494e-06 6.11917e-05)
(4.17067e-07 1.35354e-06 6.09804e-05)
(4.12042e-07 1.31e-06 6.0657e-05)
(4.36853e-07 1.28292e-06 6.03206e-05)
(4.47644e-07 1.26796e-06 5.99765e-05)
(4.60732e-07 1.2552e-06 5.96213e-05)
(4.70807e-07 1.24381e-06 5.92558e-05)
(4.79788e-07 1.23217e-06 5.88821e-05)
(4.85252e-07 1.22028e-06 5.85018e-05)
(4.92563e-07 1.20824e-06 5.81151e-05)
(4.81601e-07 1.19758e-06 5.77185e-05)
(4.92338e-07 1.19295e-06 5.73173e-05)
(3.73332e-07 1.197e-06 5.69539e-05)
(5.62379e-07 1.18794e-06 5.66542e-05)
(1.9073e-07 1.25358e-06 6.01439e-05)
(3.4053e-07 1.18799e-06 6.00047e-05)
(3.8491e-07 1.17254e-06 5.97034e-05)
(4.16048e-07 1.16733e-06 5.93712e-05)
(4.35083e-07 1.17547e-06 5.90275e-05)
(4.48413e-07 1.18103e-06 5.8675e-05)
(4.58896e-07 1.18827e-06 5.83135e-05)
(4.67075e-07 1.19524e-06 5.79449e-05)
(4.71804e-07 1.20217e-06 5.75706e-05)
(4.78642e-07 1.21145e-06 5.71904e-05)
(4.72953e-07 1.21792e-06 5.67994e-05)
(4.96814e-07 1.23275e-06 5.6398e-05)
(4.25098e-07 1.23102e-06 5.6029e-05)
(6.75459e-07 1.31908e-06 5.57843e-05)
(6.76079e-09 1.76665e-08 8.19321e-07)
(6.94952e-09 2.05359e-08 8.10415e-07)
(5.96557e-09 2.19409e-08 8.03708e-07)
(6.09304e-09 2.22625e-08 7.97344e-07)
(6.2444e-09 2.23563e-08 7.90951e-07)
(6.49574e-09 2.22809e-08 7.8438e-07)
(6.74649e-09 2.20511e-08 7.77592e-07)
(6.986e-09 2.17059e-08 7.70591e-07)
(7.18463e-09 2.12471e-08 7.63406e-07)
(7.33912e-09 2.06418e-08 7.56093e-07)
(7.40232e-09 1.98941e-08 7.48676e-07)
(7.40231e-09 1.90212e-08 7.41167e-07)
(7.13568e-09 1.76339e-08 7.33831e-07)
(4.65312e-09 1.62833e-08 7.28615e-07)
(9.088e-09 1.98551e-08 7.98082e-07)
(7.68571e-09 2.08382e-08 7.86779e-07)
(6.39967e-09 2.14987e-08 7.79436e-07)
(6.16303e-09 2.17252e-08 7.73094e-07)
(6.24946e-09 2.18037e-08 7.66793e-07)
(6.44768e-09 2.1792e-08 7.60323e-07)
(6.67375e-09 2.17483e-08 7.53656e-07)
(6.88434e-09 2.16678e-08 7.46805e-07)
(7.06666e-09 2.15578e-08 7.39798e-07)
(7.19566e-09 2.14355e-08 7.32669e-07)
(7.22938e-09 2.12565e-08 7.25405e-07)
(6.88059e-09 2.09269e-08 7.18026e-07)
(6.00873e-09 2.01488e-08 7.11329e-07)
(2.68847e-09 1.9007e-08 7.08338e-07)
(1.00456e-08 1.8181e-08 7.78667e-07)
(8.52415e-09 1.8601e-08 7.66874e-07)
(6.86027e-09 1.9046e-08 7.58987e-07)
(6.35377e-09 1.93168e-08 7.524e-07)
(6.29368e-09 1.94259e-08 7.4602e-07)
(6.39505e-09 1.94327e-08 7.3956e-07)
(6.54679e-09 1.93585e-08 7.32964e-07)
(6.69144e-09 1.92164e-08 7.26242e-07)
(6.81275e-09 1.90111e-08 7.19415e-07)
(6.8756e-09 1.87407e-08 7.12502e-07)
(6.81829e-09 1.83882e-08 7.0549e-07)
(6.30426e-09 1.79259e-08 6.98452e-07)
(5.17925e-09 1.73941e-08 6.92303e-07)
(2.01229e-09 1.69725e-08 6.89869e-07)
(1.00011e-08 1.82622e-08 7.59991e-07)
(8.87309e-09 1.82934e-08 7.48247e-07)
(7.07934e-09 1.84132e-08 7.40106e-07)
(6.48319e-09 1.85417e-08 7.33319e-07)
(6.32797e-09 1.85892e-08 7.26851e-07)
(6.36105e-09 1.8578e-08 7.20382e-07)
(6.45415e-09 1.85088e-08 7.13841e-07)
(6.54474e-09 1.83876e-08 7.0723e-07)
(6.61332e-09 1.82153e-08 7.00567e-07)
(6.61468e-09 1.79888e-08 6.93871e-07)
(6.4759e-09 1.76938e-08 6.87153e-07)
(5.8893e-09 1.73277e-08 6.80512e-07)
(4.7366e-09 1.69638e-08 6.74754e-07)
(1.77335e-09 1.67529e-08 6.72352e-07)
(9.71182e-09 1.80427e-08 7.41565e-07)
(9.04264e-09 1.79999e-08 7.29947e-07)
(7.16582e-09 1.79845e-08 7.21725e-07)
(6.54651e-09 1.80276e-08 7.14838e-07)
(6.32161e-09 1.80183e-08 7.08335e-07)
(6.30366e-09 1.79724e-08 7.01889e-07)
(6.34328e-09 1.78789e-08 6.95424e-07)
(6.3854e-09 1.77431e-08 6.88939e-07)
(6.40299e-09 1.75629e-08 6.82449e-07)
(6.34778e-09 1.73348e-08 6.75983e-07)
(6.14745e-09 1.7053e-08 6.6957e-07)
(5.53054e-09 1.67262e-08 6.63316e-07)
(4.47496e-09 1.64291e-08 6.57876e-07)
(1.70802e-09 1.63056e-08 6.55383e-07)
(9.2791e-09 1.80147e-08 7.23185e-07)
(9.07028e-09 1.78893e-08 7.11731e-07)
(7.14364e-09 1.77666e-08 7.03539e-07)
(6.54518e-09 1.77392e-08 6.96632e-07)
(6.27531e-09 1.76818e-08 6.90149e-07)
(6.22387e-09 1.76054e-08 6.83759e-07)
(6.2244e-09 1.7496e-08 6.7739e-07)
(6.23014e-09 1.7357e-08 6.71037e-07)
(6.20785e-09 1.71855e-08 6.64718e-07)
(6.1087e-09 1.69791e-08 6.58466e-07)
(5.86212e-09 1.67349e-08 6.52328e-07)
(5.22769e-09 1.64538e-08 6.46421e-07)
(4.25967e-09 1.61986e-08 6.41272e-07)
(1.71612e-09 1.60589e-08 6.387e-07)
(8.81611e-09 1.78903e-08 7.04884e-07)
(8.99445e-09 1.77034e-08 6.93657e-07)
(7.05515e-09 1.75171e-08 6.85573e-07)
(6.49669e-09 1.7441e-08 6.787e-07)
(6.19405e-09 1.73465e-08 6.72277e-07)
(6.12194e-09 1.72432e-08 6.65972e-07)
(6.09418e-09 1.71188e-08 6.59716e-07)
(6.07397e-09 1.69745e-08 6.53501e-07)
(6.02198e-09 1.68091e-08 6.47348e-07)
(5.89511e-09 1.66202e-08 6.4129e-07)
(5.60878e-09 1.64101e-08 6.3539e-07)
(4.97995e-09 1.61662e-08 6.29781e-07)
(4.0598e-09 1.59585e-08 6.2489e-07)
(1.7632e-09 1.57834e-08 6.22277e-07)
(8.42632e-09 1.76658e-08 6.86644e-07)
(8.8437e-09 1.74503e-08 6.75802e-07)
(6.91657e-09 1.72276e-08 6.6789e-07)
(6.40732e-09 1.71025e-08 6.61094e-07)
(6.08389e-09 1.69765e-08 6.54764e-07)
(6.00206e-09 1.6852e-08 6.48568e-07)
(5.95691e-09 1.67162e-08 6.42438e-07)
(5.92116e-09 1.6571e-08 6.36365e-07)
(5.85024e-09 1.64161e-08 6.30368e-07)
(5.70993e-09 1.62472e-08 6.24484e-07)
(5.39231e-09 1.60732e-08 6.18783e-07)
(4.78778e-09 1.58668e-08 6.13413e-07)
(3.85066e-09 1.56999e-08 6.0874e-07)
(1.79636e-09 1.5469e-08 6.06142e-07)
(8.09166e-09 1.74407e-08 6.6859e-07)
(8.60204e-09 1.71595e-08 6.58225e-07)
(6.74064e-09 1.68839e-08 6.50541e-07)
(6.27243e-09 1.66997e-08 6.43877e-07)
(5.95035e-09 1.65431e-08 6.37671e-07)
(5.8673e-09 1.63979e-08 6.31604e-07)
(5.81486e-09 1.62533e-08 6.25609e-07)
(5.7735e-09 1.61079e-08 6.19678e-07)
(5.69355e-09 1.59615e-08 6.13828e-07)
(5.55219e-09 1.5811e-08 6.08098e-07)
(5.21126e-09 1.56686e-08 6.02557e-07)
(4.6416e-09 1.54993e-08 5.97367e-07)
(3.60607e-09 1.53635e-08 5.92882e-07)
(1.80994e-09 1.50896e-08 5.90366e-07)
(7.77643e-09 1.70547e-08 6.50736e-07)
(8.2315e-09 1.67403e-08 6.40954e-07)
(6.50896e-09 1.64128e-08 6.33592e-07)
(6.09283e-09 1.6178e-08 6.27122e-07)
(5.79435e-09 1.59975e-08 6.2107e-07)
(5.72045e-09 1.58397e-08 6.15147e-07)
(5.67049e-09 1.56935e-08 6.09294e-07)
(5.63003e-09 1.5553e-08 6.03502e-07)
(5.54986e-09 1.54185e-08 5.97791e-07)
(5.41928e-09 1.52897e-08 5.92193e-07)
(5.06637e-09 1.51766e-08 5.86776e-07)
(4.53583e-09 1.50467e-08 5.81713e-07)
(3.35678e-09 1.49282e-08 5.77416e-07)
(1.82677e-09 1.46095e-08 5.75008e-07)
(7.54401e-09 1.66138e-08 6.33262e-07)
(7.8e-09 1.62333e-08 6.2409e-07)
(6.22783e-09 1.5824e-08 6.17121e-07)
(5.87942e-09 1.55294e-08 6.10908e-07)
(5.62637e-09 1.53163e-08 6.05042e-07)
(5.57032e-09 1.51415e-08 5.99277e-07)
(5.53043e-09 1.49867e-08 5.93569e-07)
(5.49651e-09 1.48433e-08 5.87915e-07)
(5.42205e-09 1.471e-08 5.82333e-07)
(5.30862e-09 1.4589e-08 5.76853e-07)
(4.95952e-09 1.44964e-08 5.71528e-07)
(4.46613e-09 1.44106e-08 5.66549e-07)
(3.12675e-09 1.43493e-08 5.624e-07)
(1.73779e-09 1.40787e-08 5.60103e-07)
(7.21141e-09 1.55709e-08 6.16155e-07)
(7.21974e-09 1.50647e-08 6.07699e-07)
(5.87222e-09 1.46192e-08 6.01233e-07)
(5.62674e-09 1.43323e-08 5.95366e-07)
(5.44106e-09 1.41514e-08 5.89735e-07)
(5.4127e-09 1.40104e-08 5.84153e-07)
(5.3866e-09 1.38912e-08 5.78603e-07)
(5.36054e-09 1.37807e-08 5.7309e-07)
(5.29448e-09 1.36784e-08 5.67637e-07)
(5.20416e-09 1.35882e-08 5.62264e-07)
(4.87912e-09 1.35237e-08 5.57008e-07)
(4.44776e-09 1.34775e-08 5.52064e-07)
(3.0054e-09 1.34381e-08 5.47977e-07)
(1.82752e-09 1.32027e-08 5.45683e-07)
(6.88656e-09 1.49855e-08 5.99824e-07)
(6.52003e-09 1.3927e-08 5.92415e-07)
(5.54027e-09 1.32753e-08 5.86576e-07)
(5.41568e-09 1.29239e-08 5.81122e-07)
(5.30894e-09 1.27023e-08 5.75761e-07)
(5.30348e-09 1.25229e-08 5.70381e-07)
(5.28856e-09 1.23648e-08 5.64996e-07)
(5.26445e-09 1.22117e-08 5.59632e-07)
(5.20308e-09 1.20621e-08 5.54313e-07)
(5.12548e-09 1.19173e-08 5.49053e-07)
(4.82803e-09 1.18096e-08 5.43859e-07)
(4.44741e-09 1.17856e-08 5.38906e-07)
(2.96043e-09 1.19598e-08 5.34771e-07)
(1.84199e-09 1.21248e-08 5.32267e-07)
(5.61805e-09 1.0772e-08 5.86902e-07)
(5.77749e-09 9.37718e-09 5.81241e-07)
(5.11436e-09 9.21451e-09 5.7584e-07)
(5.09023e-09 9.26033e-09 5.70441e-07)
(5.07486e-09 9.45683e-09 5.65059e-07)
(5.12012e-09 9.60624e-09 5.59693e-07)
(5.13471e-09 9.72996e-09 5.54352e-07)
(5.13259e-09 9.81499e-09 5.49059e-07)
(5.08495e-09 9.86372e-09 5.43836e-07)
(5.04979e-09 9.89416e-09 5.38692e-07)
(4.8248e-09 9.86071e-09 5.33612e-07)
(4.68933e-09 9.85381e-09 5.28694e-07)
(3.47728e-09 9.70709e-09 5.24575e-07)
(3.91041e-09 1.03556e-08 5.22261e-07)
(3.39003e-11 5.98894e-11 1.77805e-09)
(2.45091e-11 7.11646e-11 1.73323e-09)
(1.694e-11 7.36407e-11 1.7096e-09)
(1.66099e-11 7.34222e-11 1.68966e-09)
(1.58041e-11 7.28869e-11 1.67043e-09)
(1.5526e-11 7.20535e-11 1.6512e-09)
(1.56379e-11 7.14543e-11 1.63181e-09)
(1.63124e-11 7.05179e-11 1.61213e-09)
(1.60584e-11 6.93742e-11 1.59233e-09)
(1.59116e-11 6.85293e-11 1.57254e-09)
(1.53995e-11 6.71367e-11 1.55284e-09)
(1.48979e-11 6.60781e-11 1.53358e-09)
(6.7839e-12 6.27337e-11 1.51795e-09)
(-4.40065e-12 5.61797e-11 1.51734e-09)
(4.59682e-11 5.66317e-11 1.69522e-09)
(2.86127e-11 6.11231e-11 1.63472e-09)
(1.71016e-11 6.37197e-11 1.60815e-09)
(1.52045e-11 6.37162e-11 1.5887e-09)
(1.42801e-11 6.32488e-11 1.57068e-09)
(1.45822e-11 6.30238e-11 1.55256e-09)
(1.50609e-11 6.28603e-11 1.5342e-09)
(1.53434e-11 6.23025e-11 1.51556e-09)
(1.56873e-11 6.1427e-11 1.49674e-09)
(1.59182e-11 6.0402e-11 1.47791e-09)
(1.51699e-11 5.99932e-11 1.45893e-09)
(1.31363e-11 5.90867e-11 1.44083e-09)
(3.79097e-12 5.65935e-11 1.42873e-09)
(-1.55418e-11 5.15273e-11 1.44048e-09)
(4.68678e-11 4.71219e-11 1.63317e-09)
(3.11449e-11 4.62324e-11 1.571e-09)
(1.76747e-11 4.63767e-11 1.54274e-09)
(1.50827e-11 4.66253e-11 1.5225e-09)
(1.43177e-11 4.67771e-11 1.50445e-09)
(1.45843e-11 4.64655e-11 1.48673e-09)
(1.45108e-11 4.58289e-11 1.46894e-09)
(1.44853e-11 4.52227e-11 1.45094e-09)
(1.45867e-11 4.48658e-11 1.43288e-09)
(1.47742e-11 4.43699e-11 1.41485e-09)
(1.46847e-11 4.35617e-11 1.39689e-09)
(1.18913e-11 4.26559e-11 1.38032e-09)
(2.23453e-12 4.18983e-11 1.37025e-09)
(-1.74135e-11 4.19168e-11 1.38419e-09)
(4.48665e-11 4.57468e-11 1.57732e-09)
(3.07689e-11 4.31075e-11 1.51725e-09)
(1.7848e-11 4.26316e-11 1.48839e-09)
(1.46366e-11 4.238e-11 1.4679e-09)
(1.38668e-11 4.19523e-11 1.44995e-09)
(1.37765e-11 4.14103e-11 1.43256e-09)
(1.39755e-11 4.08442e-11 1.41516e-09)
(1.39206e-11 4.02504e-11 1.39775e-09)
(1.45776e-11 3.96708e-11 1.38038e-09)
(1.44597e-11 3.98091e-11 1.36292e-09)
(1.40683e-11 3.94311e-11 1.34572e-09)
(1.12954e-11 3.896e-11 1.33018e-09)
(1.84558e-12 3.83852e-11 1.32105e-09)
(-1.6665e-11 3.95596e-11 1.33422e-09)
(4.28727e-11 4.35641e-11 1.52399e-09)
(3.02151e-11 4.10225e-11 1.46644e-09)
(1.77805e-11 4.09178e-11 1.43777e-09)
(1.45247e-11 4.04122e-11 1.41735e-09)
(1.34809e-11 3.99439e-11 1.39979e-09)
(1.33135e-11 3.95828e-11 1.38282e-09)
(1.34611e-11 3.91025e-11 1.36588e-09)
(1.33614e-11 3.85585e-11 1.34904e-09)
(1.41179e-11 3.82523e-11 1.33226e-09)
(1.41211e-11 3.76525e-11 1.31531e-09)
(1.34908e-11 3.70786e-11 1.29881e-09)
(1.06948e-11 3.67301e-11 1.28412e-09)
(1.60342e-12 3.62588e-11 1.27559e-09)
(-1.52861e-11 3.75194e-11 1.2873e-09)
(4.0757e-11 4.26216e-11 1.47185e-09)
(2.96671e-11 4.0834e-11 1.4167e-09)
(1.75124e-11 4.01185e-11 1.38864e-09)
(1.37436e-11 3.93026e-11 1.36859e-09)
(1.30607e-11 3.88104e-11 1.35145e-09)
(1.29263e-11 3.81954e-11 1.33496e-09)
(1.27899e-11 3.77958e-11 1.31848e-09)
(1.32536e-11 3.74806e-11 1.30213e-09)
(1.36799e-11 3.73437e-11 1.2858e-09)
(1.31932e-11 3.67455e-11 1.26949e-09)
(1.33078e-11 3.5846e-11 1.25379e-09)
(1.01816e-11 3.56756e-11 1.23991e-09)
(1.79916e-12 3.51928e-11 1.23179e-09)
(-1.42557e-11 3.60832e-11 1.24209e-09)
(3.91753e-11 4.13914e-11 1.42061e-09)
(2.85792e-11 3.98835e-11 1.36786e-09)
(1.65943e-11 3.87211e-11 1.3409e-09)
(1.35045e-11 3.81853e-11 1.32123e-09)
(1.25009e-11 3.7848e-11 1.30448e-09)
(1.22437e-11 3.70659e-11 1.28845e-09)
(1.27086e-11 3.68366e-11 1.27252e-09)
(1.29185e-11 3.64801e-11 1.2567e-09)
(1.29774e-11 3.59966e-11 1.24079e-09)
(1.2955e-11 3.58092e-11 1.22514e-09)
(1.25666e-11 3.51362e-11 1.21013e-09)
(9.49919e-12 3.44176e-11 1.19706e-09)
(1.72305e-12 3.43301e-11 1.18921e-09)
(-1.35786e-11 3.45885e-11 1.19842e-09)
(3.76863e-11 4.03507e-11 1.37069e-09)
(2.756e-11 3.86084e-11 1.32028e-09)
(1.60981e-11 3.75966e-11 1.29437e-09)
(1.26747e-11 3.68455e-11 1.27529e-09)
(1.19641e-11 3.64677e-11 1.25896e-09)
(1.18693e-11 3.64011e-11 1.24339e-09)
(1.22225e-11 3.57606e-11 1.22803e-09)
(1.2677e-11 3.56047e-11 1.21266e-09)
(1.29287e-11 3.53329e-11 1.19723e-09)
(1.22477e-11 3.4567e-11 1.18209e-09)
(1.23852e-11 3.42132e-11 1.16776e-09)
(8.78279e-12 3.37032e-11 1.15542e-09)
(1.43106e-12 3.34443e-11 1.14788e-09)
(-1.3025e-11 3.36696e-11 1.15643e-09)
(3.65532e-11 3.87753e-11 1.32233e-09)
(2.62214e-11 3.75169e-11 1.27396e-09)
(1.53242e-11 3.61844e-11 1.24924e-09)
(1.23297e-11 3.58913e-11 1.2309e-09)
(1.17456e-11 3.51186e-11 1.21507e-09)
(1.18464e-11 3.49502e-11 1.19988e-09)
(1.19072e-11 3.47125e-11 1.18491e-09)
(1.25375e-11 3.44979e-11 1.16998e-09)
(1.23453e-11 3.43597e-11 1.15511e-09)
(1.16437e-11 3.36702e-11 1.14047e-09)
(1.1354e-11 3.35014e-11 1.12666e-09)
(8.7253e-12 3.25637e-11 1.11488e-09)
(1.52736e-12 3.23536e-11 1.10781e-09)
(-1.25257e-11 3.21338e-11 1.11626e-09)
(3.56123e-11 3.64501e-11 1.27585e-09)
(2.50928e-11 3.58588e-11 1.22937e-09)
(1.47391e-11 3.46004e-11 1.20582e-09)
(1.18648e-11 3.4127e-11 1.18818e-09)
(1.13029e-11 3.38299e-11 1.17272e-09)
(1.15968e-11 3.3351e-11 1.15789e-09)
(1.19566e-11 3.3409e-11 1.14328e-09)
(1.21607e-11 3.31781e-11 1.12871e-09)
(1.18791e-11 3.25521e-11 1.11434e-09)
(1.13703e-11 3.22212e-11 1.10031e-09)
(1.06764e-11 3.18495e-11 1.08706e-09)
(8.28403e-12 3.11793e-11 1.07573e-09)
(8.23355e-13 3.12051e-11 1.06913e-09)
(-1.29701e-11 3.01145e-11 1.07783e-09)
(3.48477e-11 3.44218e-11 1.23135e-09)
(2.38742e-11 3.3694e-11 1.18642e-09)
(1.39865e-11 3.31064e-11 1.164e-09)
(1.16205e-11 3.26087e-11 1.14713e-09)
(1.11886e-11 3.22402e-11 1.1322e-09)
(1.13021e-11 3.25164e-11 1.11781e-09)
(1.16647e-11 3.22686e-11 1.10354e-09)
(1.15364e-11 3.19848e-11 1.08936e-09)
(1.16423e-11 3.14996e-11 1.07543e-09)
(1.0842e-11 3.07796e-11 1.06196e-09)
(1.02085e-11 3.02114e-11 1.04924e-09)
(7.89994e-12 2.97577e-11 1.03831e-09)
(6.46074e-13 2.9285e-11 1.03203e-09)
(-1.35776e-11 2.87387e-11 1.04119e-09)
(3.47258e-11 3.10636e-11 1.18883e-09)
(2.3004e-11 2.98822e-11 1.14544e-09)
(1.31572e-11 2.92599e-11 1.12451e-09)
(1.14964e-11 2.913e-11 1.10855e-09)
(1.10812e-11 2.87817e-11 1.09428e-09)
(1.14878e-11 2.82164e-11 1.08051e-09)
(1.12151e-11 2.80257e-11 1.06676e-09)
(1.121e-11 2.76451e-11 1.05304e-09)
(1.11965e-11 2.74679e-11 1.03939e-09)
(1.00353e-11 2.72811e-11 1.02634e-09)
(9.6064e-12 2.67819e-11 1.014e-09)
(7.46312e-12 2.62617e-11 1.00336e-09)
(5.66635e-13 2.59526e-11 9.97159e-10)
(-1.35846e-11 2.53438e-11 1.00661e-09)
(3.30451e-11 2.68042e-11 1.15049e-09)
(2.09049e-11 2.27841e-11 1.11074e-09)
(1.29816e-11 2.14733e-11 1.09163e-09)
(1.12789e-11 2.13289e-11 1.07661e-09)
(1.05563e-11 2.14308e-11 1.06286e-09)
(1.10227e-11 2.15456e-11 1.04939e-09)
(1.10994e-11 2.11942e-11 1.03584e-09)
(1.09316e-11 2.0818e-11 1.02248e-09)
(1.06946e-11 2.05409e-11 1.00936e-09)
(9.9855e-12 1.99518e-11 9.96744e-10)
(9.32658e-12 1.93339e-11 9.8471e-10)
(7.20231e-12 1.90616e-11 9.74237e-10)
(4.56001e-13 1.89768e-11 9.67851e-10)
(-1.37112e-11 2.07926e-11 9.76382e-10)
(2.83463e-11 1.01033e-11 1.12855e-09)
(1.83404e-11 3.55884e-12 1.09686e-09)
(1.30481e-11 3.41357e-12 1.07866e-09)
(1.16536e-11 4.14498e-12 1.06321e-09)
(1.1133e-11 5.12378e-12 1.04867e-09)
(1.09847e-11 5.94012e-12 1.03465e-09)
(1.06503e-11 5.85566e-12 1.02091e-09)