/*--------------------------------*- C++ -*----------------------------------*\
| =========                 |                                                 |
| \\      /  F ield         | OpenFOAM: The Open Source CFD Toolbox           |
|  \\    /   O peration     | Version:  v2106                                 |
|   \\  /    A nd           | Website:  www.openfoam.com                      |
|    \\/     M anipulation  |                                                 |
\*---------------------------------------------------------------------------*/
FoamFile
{
    version     2.0;
    format      ascii;
    arch        "LSB;label=32;scalar=64";
    class       volScalarField;
    location    "0.000196";
    object      alphat;
}
// * * * * * * * * * * * * * * * * * * * * * * * * * * * * * * * * * * * * * //

dimensions      [1 -1 -1 0 0 0 0];

internalField   nonuniform List<scalar> 
144746
(
8.98708e-05
7.17598e-05
5.54498e-05
4.18943e-05
3.62893e-05
3.96643e-05
5.44541e-05
8.02604e-05
0.000111888
0.000137964
0.000147505
0.000137922
0.000123871
0.000114902
9.48985e-05
7.20052e-05
5.02574e-05
3.30417e-05
2.43945e-05
2.27799e-05
2.93023e-05
4.46578e-05
6.74534e-05
9.1943e-05
0.000110514
0.000115069
0.000106389
0.000100278
9.43739e-05
6.64332e-05
4.16463e-05
2.45703e-05
1.6213e-05
1.31952e-05
1.53354e-05
2.35957e-05
3.81127e-05
5.62585e-05
7.34285e-05
8.64424e-05
8.68029e-05
8.66074e-05
8.24968e-05
5.15844e-05
2.93032e-05
1.62835e-05
1.00834e-05
7.55522e-06
8.04155e-06
1.22815e-05
2.10888e-05
3.34542e-05
4.65124e-05
5.76047e-05
6.39935e-05
7.03726e-05
6.05796e-05
3.3996e-05
1.78643e-05
9.38157e-06
5.55405e-06
4.03016e-06
4.18685e-06
6.52979e-06
1.19715e-05
2.04302e-05
3.01844e-05
3.89053e-05
4.70001e-05
5.84303e-05
3.84559e-05
1.9369e-05
9.32157e-06
4.61532e-06
2.6508e-06
1.95082e-06
2.16346e-06
3.67843e-06
7.27431e-06
1.32894e-05
2.08562e-05
2.83587e-05
3.62973e-05
5.11511e-05
2.16743e-05
9.71201e-06
4.25065e-06
1.98348e-06
1.12462e-06
8.99931e-07
1.20322e-06
2.369e-06
5.00955e-06
9.55626e-06
1.56472e-05
2.23722e-05
3.1217e-05
5.27966e-05
1.1828e-05
4.73252e-06
1.89634e-06
8.47819e-07
4.98704e-07
4.93025e-07
8.58963e-07
1.89083e-06
4.0659e-06
7.77381e-06
1.29361e-05
1.93908e-05
3.10635e-05
6.24446e-05
7.80688e-06
2.99557e-06
1.20332e-06
5.81158e-07
3.96527e-07
4.73007e-07
8.83254e-07
1.88295e-06
3.85498e-06
7.14087e-06
1.19014e-05
1.93161e-05
3.72503e-05
7.90888e-05
8.05965e-06
3.3155e-06
1.52711e-06
8.97827e-07
6.93048e-07
7.75359e-07
1.21878e-06
2.24383e-06
4.18524e-06
7.43273e-06
1.27231e-05
2.35716e-05
5.08651e-05
9.73058e-05
1.31098e-05
6.11731e-06
2.97646e-06
1.92008e-06
1.5495e-06
1.56972e-06
2.03856e-06
3.16438e-06
5.32021e-06
9.20175e-06
1.66247e-05
3.41927e-05
6.85899e-05
0.000110462
2.60954e-05
1.62839e-05
8.74161e-06
4.86148e-06
3.57478e-06
3.34678e-06
3.833e-06
5.20387e-06
7.95947e-06
1.34101e-05
2.49218e-05
4.97396e-05
8.40904e-05
0.00011616
4.51389e-05
3.55951e-05
2.35581e-05
1.36705e-05
8.65109e-06
7.09379e-06
7.35514e-06
9.09039e-06
1.27907e-05
2.03244e-05
3.55121e-05
6.27318e-05
9.1295e-05
0.000114937
6.47652e-05
5.86556e-05
4.69957e-05
3.31103e-05
2.2e-05
1.59022e-05
1.41666e-05
1.56335e-05
2.00194e-05
2.89669e-05
4.49439e-05
6.90489e-05
9.12462e-05
0.000109672
7.26551e-05
5.55886e-05
4.18429e-05
3.13967e-05
2.66902e-05
2.74918e-05
3.51751e-05
4.93003e-05
6.76633e-05
8.6022e-05
0.000101166
0.0001105
0.000112798
0.000113063
6.80526e-05
5.0025e-05
3.50468e-05
2.39405e-05
1.82429e-05
1.67859e-05
2.02872e-05
2.91972e-05
4.28696e-05
5.85422e-05
7.29959e-05
8.44733e-05
9.0024e-05
9.26792e-05
6.00889e-05
4.18962e-05
2.7327e-05
1.74635e-05
1.22478e-05
1.01832e-05
1.13863e-05
1.65379e-05
2.59632e-05
3.82064e-05
5.07342e-05
6.13762e-05
6.97427e-05
7.52526e-05
4.74839e-05
3.108e-05
1.91548e-05
1.15781e-05
7.64166e-06
5.94633e-06
6.24211e-06
9.06726e-06
1.52118e-05
2.41976e-05
3.42203e-05
4.32177e-05
5.02657e-05
5.83759e-05
3.35484e-05
2.04055e-05
1.17286e-05
6.70988e-06
4.23401e-06
3.18987e-06
3.29166e-06
4.93043e-06
8.89242e-06
1.52863e-05
2.30322e-05
3.0645e-05
3.73416e-05
4.67033e-05
2.11822e-05
1.17112e-05
6.20189e-06
3.35383e-06
2.04802e-06
1.54602e-06
1.68216e-06
2.75758e-06
5.4062e-06
9.97359e-06
1.59967e-05
2.25191e-05
2.90118e-05
3.86612e-05
1.20255e-05
5.89751e-06
2.84812e-06
1.45535e-06
8.72453e-07
6.97712e-07
8.93353e-07
1.7125e-06
3.6381e-06
7.05548e-06
1.18602e-05
1.75607e-05
2.4144e-05
3.56232e-05
6.69156e-06
2.84872e-06
1.22889e-06
5.88078e-07
3.56392e-07
3.41271e-07
5.79833e-07
1.29512e-06
2.86238e-06
5.63228e-06
9.68044e-06
1.48857e-05
2.2121e-05
3.72223e-05
4.62978e-06
1.76986e-06
6.93538e-07
3.20707e-07
2.13423e-07
2.63898e-07
5.34276e-07
1.22563e-06
2.64873e-06
5.1174e-06
8.83204e-06
1.41383e-05
2.33505e-05
4.37194e-05
5.03881e-06
1.96083e-06
8.15205e-07
4.32803e-07
3.25235e-07
3.91384e-07
6.92199e-07
1.41275e-06
2.83817e-06
5.29715e-06
9.20281e-06
1.5674e-05
2.8833e-05
5.37302e-05
8.20163e-06
3.55072e-06
1.61068e-06
9.7295e-07
7.67858e-07
8.1019e-07
1.14911e-06
1.96561e-06
3.57016e-06
6.41492e-06
1.1312e-05
2.06125e-05
3.81219e-05
6.52178e-05
1.64767e-05
9.22068e-06
4.60476e-06
2.5229e-06
1.8836e-06
1.81823e-06
2.2092e-06
3.23375e-06
5.27117e-06
9.02637e-06
1.59732e-05
2.89851e-05
5.00047e-05
7.72968e-05
2.98482e-05
2.07735e-05
1.24979e-05
6.93179e-06
4.54139e-06
3.9866e-06
4.3865e-06
5.73534e-06
8.44794e-06
1.35062e-05
2.28007e-05
3.92618e-05
6.28693e-05
8.83113e-05
4.54019e-05
3.61861e-05
2.60329e-05
1.69294e-05
1.10437e-05
8.59549e-06
8.48137e-06
1.00603e-05
1.34595e-05
1.97014e-05
3.06716e-05
4.9571e-05
7.39914e-05
9.68679e-05
5.02021e-05
3.76748e-05
2.88089e-05
2.24119e-05
1.94256e-05
1.89289e-05
2.15641e-05
2.71076e-05
3.51727e-05
4.44724e-05
5.47231e-05
6.65706e-05
8.34374e-05
0.000103377
3.82281e-05
2.85593e-05
2.11244e-05
1.56543e-05
1.27126e-05
1.16311e-05
1.27373e-05
1.62703e-05
2.24471e-05
3.05216e-05
4.00512e-05
5.08408e-05
6.37753e-05
7.84401e-05
2.8308e-05
2.09021e-05
1.49432e-05
1.05698e-05
8.10301e-06
7.00495e-06
7.36556e-06
9.51118e-06
1.39808e-05
2.05549e-05
2.87441e-05
3.80064e-05
4.82735e-05
6.00721e-05
2.01449e-05
1.43165e-05
9.75447e-06
6.57801e-06
4.80149e-06
3.97742e-06
4.0694e-06
5.36192e-06
8.47139e-06
1.35249e-05
2.01367e-05
2.78173e-05
3.61261e-05
4.57749e-05
1.36445e-05
8.98086e-06
5.71759e-06
3.6574e-06
2.55935e-06
2.06436e-06
2.11158e-06
2.92415e-06
5.0389e-06
8.76501e-06
1.3942e-05
2.021e-05
2.72284e-05
3.59116e-05
8.76068e-06
5.11903e-06
2.97134e-06
1.789e-06
1.20639e-06
9.67212e-07
1.03802e-06
1.59494e-06
3.05188e-06
5.76465e-06
9.78786e-06
1.49539e-05
2.10938e-05
2.90872e-05
5.44341e-06
2.70959e-06
1.38452e-06
7.70647e-07
5.02512e-07
4.16441e-07
5.148e-07
9.44233e-07
2.01598e-06
4.06389e-06
7.27172e-06
1.16531e-05
1.72515e-05
2.49692e-05
3.61282e-06
1.48848e-06
6.32804e-07
3.09741e-07
1.94652e-07
1.83671e-07
3.01413e-07
6.78355e-07
1.56067e-06
3.24335e-06
5.96288e-06
9.87078e-06
1.52205e-05
2.3133e-05
2.97021e-06
1.06983e-06
3.78742e-07
1.56932e-07
9.69413e-08
1.17629e-07
2.51554e-07
6.22656e-07
1.44545e-06
2.98619e-06
5.50089e-06
9.25062e-06
1.47315e-05
2.34094e-05
3.32116e-06
1.20524e-06
4.3016e-07
1.88567e-07
1.27643e-07
1.58338e-07
3.11803e-07
7.11918e-07
1.56673e-06
3.13792e-06
5.71302e-06
9.67143e-06
1.57631e-05
2.57343e-05
4.89999e-06
1.99515e-06
8.1502e-07
4.27242e-07
3.16112e-07
3.41594e-07
5.25022e-07
9.95878e-07
1.97875e-06
3.76868e-06
6.72416e-06
1.13389e-05
1.84812e-05
3.02988e-05
8.73901e-06
4.3824e-06
2.079e-06
1.13112e-06
8.36681e-07
8.26995e-07
1.05951e-06
1.66806e-06
2.91241e-06
5.158e-06
8.85283e-06
1.4532e-05
2.3258e-05
3.79904e-05
1.52832e-05
9.2116e-06
5.16676e-06
2.95013e-06
2.09454e-06
1.95281e-06
2.25161e-06
3.08208e-06
4.72863e-06
7.65704e-06
1.24634e-05
1.98945e-05
3.18446e-05
4.91536e-05
2.39848e-05
1.63669e-05
1.06767e-05
6.82973e-06
4.86149e-06
4.30709e-06
4.63146e-06
5.74722e-06
7.91218e-06
1.16781e-05
1.78644e-05
2.83052e-05
4.58455e-05
6.47773e-05
0.000115965
0.000130689
0.000148003
0.000166146
0.000182887
0.000238652
0.000103659
0.000122578
0.000146577
0.000172062
0.000198329
0.000263995
9.42039e-05
0.000119048
0.00014949
0.000177879
0.000210423
0.000286509
8.58579e-05
0.000120325
0.000157386
0.000183183
0.000216782
0.000304692
8.30141e-05
0.000128879
0.000170211
0.000188946
0.000217976
0.000319513
8.73861e-05
0.000144929
0.000183649
0.000191878
0.000213668
0.000330229
0.000100905
0.000161749
0.000189939
0.000188965
0.000205305
0.000338065
0.0001185
0.000172121
0.000186349
0.000181088
0.000195149
0.000341189
0.000132915
0.000171225
0.000175607
0.000172182
0.000186065
0.000338946
0.000138131
0.000161139
0.000163551
0.000165058
0.000178585
0.000331631
0.000134555
0.000148262
0.000153763
0.000159172
0.000172929
0.000318106
0.000127384
0.000136881
0.00014472
0.000154213
0.000169519
0.000298401
0.000119769
0.000127781
0.000137603
0.000150884
0.000168359
0.000273199
0.000112445
0.000120956
0.000132948
0.000150468
0.000170505
0.000242822
0.000116948
0.000132164
0.000147551
0.000164646
0.000180881
0.000221189
9.78185e-05
0.000116157
0.000139657
0.000165358
0.00019443
0.00024601
8.34393e-05
0.000105151
0.000136473
0.00016886
0.000205224
0.00026821
7.01447e-05
9.69864e-05
0.00013751
0.000174245
0.000210889
0.000286162
6.17317e-05
9.49424e-05
0.000144628
0.000182278
0.000212381
0.000299446
5.8088e-05
9.99923e-05
0.000156243
0.000189551
0.000209621
0.000309197
6.09934e-05
0.000109661
0.000166746
0.000192247
0.00020364
0.000315889
6.84878e-05
0.000120302
0.000171822
0.000189402
0.000195174
0.000318009
7.82263e-05
0.000127346
0.000169312
0.000182362
0.000187897
0.00031562
8.70339e-05
0.000128034
0.000161706
0.00017529
0.000183472
0.000308635
9.2818e-05
0.000124425
0.000153355
0.000170179
0.00018172
0.000296328
9.66443e-05
0.000121014
0.000147045
0.000166512
0.00018139
0.000278395
0.000101493
0.000120562
0.000143363
0.000163287
0.000181147
0.00025515
0.000104975
0.000122033
0.000140894
0.000159937
0.000181191
0.0002266
0.000123151
0.000144735
0.000160693
0.000170017
0.000181797
0.000194841
9.49287e-05
0.000117329
0.000140644
0.000162049
0.000187783
0.000219659
7.56398e-05
9.8424e-05
0.000126898
0.000157784
0.000194642
0.000243138
5.95576e-05
8.27398e-05
0.000116387
0.000156438
0.000199309
0.000261901
4.87911e-05
7.25761e-05
0.000110905
0.000158505
0.00020293
0.00027675
4.14146e-05
6.63478e-05
0.000110736
0.000164529
0.000204147
0.000285464
3.75635e-05
6.48383e-05
0.000115784
0.000170358
0.000204844
0.000292279
3.68409e-05
6.78534e-05
0.000121959
0.000175615
0.000204059
0.000296063
3.89903e-05
7.27116e-05
0.000127115
0.000177803
0.00020164
0.000296642
4.32869e-05
7.68079e-05
0.00012882
0.000176872
0.000200195
0.000292313
4.83503e-05
7.92778e-05
0.000127983
0.000175857
0.000202262
0.000282837
5.37431e-05
8.2085e-05
0.000127847
0.000175915
0.000205187
0.000266521
6.32139e-05
8.95356e-05
0.000131738
0.000175768
0.00020547
0.000243548
7.51829e-05
0.000102763
0.000139969
0.000173564
0.000201123
0.00021451
0.000106058
0.000117955
0.000133975
0.000155777
0.000178032
0.000248111
8.86678e-05
0.000101035
0.000122493
0.000152531
0.000187952
0.000274491
7.20168e-05
8.54575e-05
0.000112292
0.000149396
0.000194786
0.000296373
5.39679e-05
7.10023e-05
0.000104201
0.00014666
0.000197447
0.000312385
4.06488e-05
6.10049e-05
0.00010004
0.000147157
0.000197666
0.000323666
3.2724e-05
5.75946e-05
0.000102413
0.000151035
0.00019589
0.000329392
3.00629e-05
6.04365e-05
0.000110056
0.000155858
0.000192418
0.000331711
3.23464e-05
6.87687e-05
0.000119737
0.000158582
0.000186309
0.000330678
3.94932e-05
7.92277e-05
0.000125446
0.000155695
0.000177449
0.000326986
4.98832e-05
8.70801e-05
0.000124307
0.000148131
0.00016795
0.000320437
6.02965e-05
8.99114e-05
0.000117921
0.000138365
0.000159373
0.000309117
6.78982e-05
8.89629e-05
0.000109549
0.000127994
0.000152346
0.000292938
7.15523e-05
8.57899e-05
0.00010142
0.000119173
0.000147724
0.000269627
7.12245e-05
8.21402e-05
9.55998e-05
0.000114221
0.000145582
0.000239346
0.000104013
0.000121783
0.000139839
0.000160389
0.00018432
0.000231403
7.94053e-05
9.6262e-05
0.000119149
0.00014813
0.00018695
0.000255882
5.86126e-05
7.48516e-05
0.000101168
0.000137299
0.000186715
0.000276171
4.0713e-05
5.64255e-05
8.5487e-05
0.000128285
0.000184053
0.00028954
2.93544e-05
4.48839e-05
7.48734e-05
0.000121989
0.000180648
0.000298102
2.23772e-05
3.81952e-05
7.01172e-05
0.000120138
0.00017723
0.00030202
1.87594e-05
3.58532e-05
7.08281e-05
0.000121485
0.000173014
0.000303071
1.79894e-05
3.77334e-05
7.5675e-05
0.000124079
0.000168383
0.000300875
2.03609e-05
4.29335e-05
8.13876e-05
0.00012468
0.000161716
0.000296334
2.57532e-05
4.90805e-05
8.40976e-05
0.000121408
0.000155267
0.000290642
3.30117e-05
5.41203e-05
8.33727e-05
0.000115986
0.000151507
0.00028183
4.04754e-05
5.78055e-05
8.1401e-05
0.000110451
0.000150327
0.000267333
4.69825e-05
6.07534e-05
8.04366e-05
0.000107376
0.000150885
0.00024643
5.14956e-05
6.38105e-05
8.20065e-05
0.000108438
0.00015318
0.000219762
8.62883e-05
0.000113642
0.000142863
0.000169874
0.000197628
0.000215741
6.01252e-05
8.24049e-05
0.000111759
0.000146476
0.000188371
0.000238152
3.98846e-05
5.88554e-05
8.69717e-05
0.000126425
0.000178207
0.000256362
2.67548e-05
4.10507e-05
6.70745e-05
0.000109681
0.000169734
0.000268562
1.90291e-05
3.10663e-05
5.39389e-05
9.5714e-05
0.000161181
0.000274866
1.41738e-05
2.48787e-05
4.57201e-05
8.61901e-05
0.000151437
0.000274853
1.12671e-05
2.11337e-05
4.10808e-05
8.04291e-05
0.000142521
0.000271328
9.7999e-06
1.94372e-05
3.95259e-05
7.77787e-05
0.000135419
0.000265332
9.60227e-06
1.96019e-05
4.03246e-05
7.70349e-05
0.000129561
0.000259461
1.08606e-05
2.12536e-05
4.17335e-05
7.61863e-05
0.000126151
0.000254693
1.35794e-05
2.38069e-05
4.30006e-05
7.53919e-05
0.000127074
0.00024968
1.74713e-05
2.71074e-05
4.48897e-05
7.62141e-05
0.000132403
0.000240156
2.22497e-05
3.15596e-05
4.91301e-05
8.1227e-05
0.000141348
0.000223211
2.76845e-05
3.80341e-05
5.75854e-05
9.20589e-05
0.000150974
0.000198588
0.000236919
0.000164103
0.000133582
0.000114277
0.000101522
9.31667e-05
0.000268717
0.000164846
0.000136963
0.000120969
0.00010937
0.000100698
0.000295275
0.000173268
0.000148089
0.0001333
0.000119326
0.0001058
0.000316367
0.000187361
0.000163845
0.000147084
0.00012574
0.000103128
0.000332085
0.000205291
0.000180352
0.000156158
0.000121511
8.80632e-05
0.000343076
0.000225016
0.000190774
0.000152239
0.000103227
6.48399e-05
0.000348832
0.000239938
0.000186014
0.000130982
7.73991e-05
4.2472e-05
0.000350815
0.000243324
0.000165492
0.000101955
5.39364e-05
2.66725e-05
0.000347508
0.000235026
0.000140484
7.8109e-05
3.91745e-05
1.87338e-05
0.000337583
0.000218239
0.000121521
6.56402e-05
3.43984e-05
1.76616e-05
0.000320977
0.000197675
0.000111796
6.38469e-05
3.79227e-05
2.29687e-05
0.000300139
0.0001789
0.00010917
6.99847e-05
4.82377e-05
3.49202e-05
0.000274575
0.00016482
0.000111763
8.08026e-05
6.25581e-05
5.05139e-05
0.000246384
0.000154889
0.000117325
9.46243e-05
7.96995e-05
6.80057e-05
0.000217173
0.000170428
0.000132409
0.000107613
8.91948e-05
7.65327e-05
0.000245919
0.000169601
0.000131381
0.000106333
8.69885e-05
7.40198e-05
0.000271301
0.000174531
0.000135709
0.000108914
8.55108e-05
6.88757e-05
0.000292763
0.000184464
0.000143791
0.000112445
8.17887e-05
6.00643e-05
0.00030795
0.000197849
0.000152076
0.000111726
7.22433e-05
4.74331e-05
0.000319277
0.000214296
0.000153904
0.000101689
5.82853e-05
3.41019e-05
0.000326674
0.000226366
0.000145004
8.42989e-05
4.32281e-05
2.24595e-05
0.000329322
0.000229508
0.000128694
6.63146e-05
3.1308e-05
1.46557e-05
0.000325561
0.000223722
0.000112169
5.34832e-05
2.46694e-05
1.11404e-05
0.000315635
0.000210086
0.00010146
4.85306e-05
2.371e-05
1.14467e-05
0.000298718
0.000193385
9.7704e-05
5.06203e-05
2.79861e-05
1.56344e-05
0.000277375
0.000178557
0.000100024
5.88863e-05
3.75347e-05
2.47619e-05
0.000252116
0.000167536
0.000106199
7.11047e-05
5.08858e-05
3.76963e-05
0.000225147
0.000162642
0.000115683
8.66554e-05
6.7578e-05
5.34829e-05
0.000189206
0.000175727
0.00013369
9.62057e-05
6.91306e-05
5.12934e-05
0.000216522
0.000175669
0.000125232
8.3525e-05
5.63788e-05
4.08853e-05
0.000240293
0.000175137
0.00011843
7.53117e-05
4.78004e-05
3.28673e-05
0.000259819
0.00017741
0.000113737
7.00359e-05
4.14398e-05
2.61503e-05
0.00027483
0.00018238
0.000110993
6.46774e-05
3.52989e-05
2.00908e-05
0.000287295
0.000189233
0.000108079
5.82211e-05
2.91723e-05
1.48769e-05
0.00029737
0.000195594
0.000103554
5.10056e-05
2.36009e-05
1.08564e-05
0.000303616
0.000199357
9.83371e-05
4.50107e-05
1.96729e-05
8.38151e-06
0.000303124
0.000198146
9.34964e-05
4.12894e-05
1.7761e-05
7.42104e-06
0.00029418
0.000190004
9.02631e-05
4.0613e-05
1.81848e-05
8e-06
0.000276985
0.000178509
8.91296e-05
4.28286e-05
2.10845e-05
1.03987e-05
0.000254039
0.000168512
9.22021e-05
4.93541e-05
2.74595e-05
1.5557e-05
0.000227986
0.00016289
9.86243e-05
5.88992e-05
3.66245e-05
2.33932e-05
0.000201336
0.000163046
0.000108822
7.17013e-05
4.85633e-05
3.36517e-05
0.000234195
0.00017333
0.000155477
0.000138601
0.000125642
0.000117093
0.000264245
0.000171154
0.000153053
0.000139074
0.000130066
0.00012492
0.000290508
0.00017558
0.000158028
0.000146839
0.000140916
0.000137467
0.000312157
0.00018576
0.000168913
0.00016066
0.000157401
0.000152745
0.000328837
0.000202018
0.000184684
0.00017955
0.000176027
0.00016216
0.000340262
0.000220767
0.000204156
0.000199631
0.000185688
0.000153315
0.000345127
0.00024063
0.000221458
0.000208421
0.000174674
0.000125864
0.000343691
0.00025658
0.000225833
0.000194181
0.000143809
9.25847e-05
0.000337105
0.000264396
0.000211045
0.000162315
0.000109381
6.71947e-05
0.000328106
0.000260196
0.000186222
0.000131178
8.5683e-05
5.49674e-05
0.000312757
0.000243255
0.000166251
0.000113467
7.65145e-05
5.39846e-05
0.000293187
0.000220377
0.00015307
0.000107919
7.85796e-05
6.1731e-05
0.000269202
0.000196571
0.000145501
0.00011
8.69769e-05
7.31962e-05
0.000241838
0.000176869
0.000142363
0.000117357
0.000100144
8.83478e-05
0.000216804
0.000173397
0.000156496
0.00014245
0.000129502
0.000117629
0.000245532
0.000172003
0.000156388
0.0001438
0.000130461
0.000119045
0.000271405
0.000175298
0.000161299
0.000149711
0.000134407
0.000119541
0.000293478
0.000183874
0.000171601
0.000161111
0.000142263
0.000120363
0.000311365
0.000197604
0.00018652
0.000175553
0.00014799
0.000112971
0.000323466
0.000216309
0.000203519
0.000185212
0.000141501
9.84957e-05
0.000327268
0.000237399
0.000214072
0.000178601
0.000123057
7.81412e-05
0.000326206
0.000253962
0.000207864
0.0001549
9.81256e-05
5.85322e-05
0.000320572
0.000261745
0.000186619
0.000125361
7.60207e-05
4.49932e-05
0.000309956
0.000257328
0.000163779
0.000103615
6.34334e-05
3.98939e-05
0.000293361
0.000241722
0.000149703
9.44097e-05
6.09146e-05
4.17399e-05
0.000272232
0.000221168
0.000143068
9.55216e-05
6.69328e-05
5.01707e-05
0.000247515
0.000199068
0.000140621
0.000102282
7.78108e-05
6.22167e-05
0.000220567
0.000181685
0.000142081
0.000114058
9.39533e-05
7.86984e-05
0.000192324
0.000180255
0.000169392
0.000156969
0.000134267
0.000109267
0.000219918
0.000183021
0.000172132
0.000150044
0.000119755
9.38828e-05
0.000245029
0.000187246
0.000174532
0.000146936
0.000109174
8.04722e-05
0.000267162
0.000194786
0.000179322
0.000146259
0.00010429
7.29424e-05
0.000283388
0.000204927
0.000183046
0.000144632
9.84367e-05
6.43517e-05
0.000292979
0.000217091
0.000184114
0.000137669
8.87443e-05
5.4462e-05
0.00029718
0.000230064
0.00017711
0.000123294
7.56319e-05
4.42316e-05
0.000298053
0.000234241
0.000163648
0.000106184
6.31457e-05
3.61673e-05
0.000292928
0.000232953
0.000149849
9.19552e-05
5.39821e-05
3.12367e-05
0.000281498
0.000225657
0.000139927
8.4449e-05
5.0294e-05
3.03484e-05
0.00026369
0.00021351
0.000134621
8.29919e-05
5.14145e-05
3.28186e-05
0.000241636
0.00019972
0.000134357
8.81899e-05
5.84329e-05
3.99644e-05
0.00021607
0.000187934
0.000137428
9.72764e-05
6.91437e-05
5.02733e-05
0.000190034
0.000181642
0.00014561
0.000112159
8.54854e-05
6.52909e-05
2.37898e-05
1.79667e-05
1.41338e-05
1.17362e-05
1.10286e-05
1.10158e-05
1.17265e-05
1.29916e-05
1.52058e-05
1.84224e-05
2.27932e-05
2.81263e-05
3.73837e-05
5.64298e-05
1.34465e-05
1.03287e-05
8.12734e-06
6.68431e-06
6.17272e-06
6.11594e-06
6.48015e-06
7.19115e-06
8.56598e-06
1.08308e-05
1.42781e-05
1.9146e-05
2.77492e-05
4.32993e-05
7.88558e-06
5.82374e-06
4.4969e-06
3.65135e-06
3.33388e-06
3.28056e-06
3.45969e-06
3.85987e-06
4.73748e-06
6.38365e-06
9.15691e-06
1.34682e-05
2.07035e-05
3.27572e-05
4.84397e-06
3.1993e-06
2.33769e-06
1.85661e-06
1.68171e-06
1.64911e-06
1.74106e-06
1.98183e-06
2.57802e-06
3.82001e-06
6.0826e-06
9.77833e-06
1.57213e-05
2.5057e-05
3.1276e-06
1.71864e-06
1.12819e-06
8.62236e-07
7.74298e-07
7.59762e-07
8.14614e-07
9.78003e-07
1.4127e-06
2.37369e-06
4.2111e-06
7.31488e-06
1.22148e-05
1.96852e-05
2.15253e-06
9.32671e-07
5.10395e-07
3.63239e-07
3.21329e-07
3.18317e-07
3.58404e-07
4.8356e-07
8.21061e-07
1.58423e-06
3.08157e-06
5.67611e-06
9.80472e-06
1.60755e-05
1.61001e-06
5.49179e-07
2.29182e-07
1.40963e-07
1.20536e-07
1.23814e-07
1.58734e-07
2.66213e-07
5.50022e-07
1.19099e-06
2.45838e-06
4.6885e-06
8.28884e-06
1.38165e-05
1.36203e-06
3.91888e-07
1.19448e-07
5.46742e-08
4.29289e-08
4.97093e-08
8.44959e-08
1.87995e-07
4.52437e-07
1.03884e-06
2.18699e-06
4.20737e-06
7.48725e-06
1.25592e-05
1.30398e-06
3.5435e-07
8.99163e-08
2.9148e-08
1.97067e-08
2.90177e-08
6.74977e-08
1.77952e-07
4.50567e-07
1.0381e-06
2.16189e-06
4.10881e-06
7.24301e-06
1.20755e-05
1.42816e-06
4.0367e-07
1.07787e-07
3.71512e-08
2.57826e-08
3.75656e-08
8.37797e-08
2.11281e-07
5.14032e-07
1.14422e-06
2.31195e-06
4.28149e-06
7.39253e-06
1.21477e-05
1.76527e-06
5.58995e-07
1.88249e-07
9.08861e-08
7.16424e-08
8.60974e-08
1.45637e-07
3.01775e-07
6.5456e-07
1.35963e-06
2.61879e-06
4.67726e-06
7.8658e-06
1.26961e-05
2.60187e-06
9.7448e-07
4.22368e-07
2.58409e-07
2.16069e-07
2.31678e-07
3.14237e-07
5.17818e-07
9.46805e-07
1.76112e-06
3.15613e-06
5.35921e-06
8.692e-06
1.368e-05
4.19857e-06
1.90225e-06
1.00613e-06
7.01453e-07
6.04711e-07
6.1557e-07
7.36733e-07
1.02116e-06
1.57392e-06
2.56475e-06
4.19761e-06
6.69368e-06
1.0361e-05
1.57001e-05
6.79353e-06
3.62845e-06
2.22433e-06
1.69223e-06
1.50804e-06
1.51654e-06
1.71217e-06
2.15229e-06
2.95374e-06
4.31485e-06
6.45783e-06
9.62369e-06
1.42953e-05
2.08203e-05
1.23246e-05
9.56279e-06
7.86939e-06
6.85988e-06
6.74659e-06
6.97913e-06
7.52375e-06
8.32199e-06
9.63156e-06
1.16284e-05
1.45365e-05
1.82323e-05
2.36629e-05
3.43364e-05
6.70291e-06
5.17462e-06
4.23755e-06
3.67437e-06
3.58668e-06
3.71001e-06
4.00559e-06
4.45609e-06
5.24149e-06
6.55868e-06
8.66828e-06
1.16764e-05
1.64977e-05
2.58823e-05
3.81378e-06
2.72939e-06
2.17607e-06
1.87497e-06
1.82852e-06
1.8925e-06
2.0451e-06
2.29229e-06
2.76845e-06
3.662e-06
5.25201e-06
7.80538e-06
1.20897e-05
1.98504e-05
2.29727e-06
1.4091e-06
1.05032e-06
8.91732e-07
8.70293e-07
9.02752e-07
9.80764e-07
1.12069e-06
1.42619e-06
2.06572e-06
3.30997e-06
5.48917e-06
9.21119e-06
1.5544e-05
1.48648e-06
7.29243e-07
4.7667e-07
3.90152e-07
3.79534e-07
3.95605e-07
4.37528e-07
5.25228e-07
7.38833e-07
1.22218e-06
2.21795e-06
4.05812e-06
7.23404e-06
1.24842e-05
1.05508e-06
4.00073e-07
2.08827e-07
1.56998e-07
1.50462e-07
1.58703e-07
1.84217e-07
2.47331e-07
4.11105e-07
7.9684e-07
1.61416e-06
3.16811e-06
5.87465e-06
1.03156e-05
8.28923e-07
2.51547e-07
9.55408e-08
5.94103e-08
5.45538e-08
5.97118e-08
7.87016e-08
1.31674e-07
2.71915e-07
6.04911e-07
1.31276e-06
2.66781e-06
5.03714e-06
8.92127e-06
7.2984e-07
1.94153e-07
5.37216e-08
2.32931e-08
1.91466e-08
2.36153e-08
4.12539e-08
9.28929e-08
2.2847e-07
5.45239e-07
1.2065e-06
2.45571e-06
4.62242e-06
8.15192e-06
7.11904e-07
1.83579e-07
4.36257e-08
1.32017e-08
9.06097e-09
1.40838e-08
3.3624e-08
9.05897e-08
2.36383e-07
5.66491e-07
1.23364e-06
2.45921e-06
4.54231e-06
7.88742e-06
7.70699e-07
2.08001e-07
5.29287e-08
1.77664e-08
1.27263e-08
1.91143e-08
4.34103e-08
1.11868e-07
2.80431e-07
6.4721e-07
1.3604e-06
2.62545e-06
4.71897e-06
8.01731e-06
9.06624e-07
2.75274e-07
9.14008e-08
4.51286e-08
3.70455e-08
4.55795e-08
7.82659e-08
1.65217e-07
3.68295e-07
7.90731e-07
1.58057e-06
2.93349e-06
5.11499e-06
8.48367e-06
1.22667e-06
4.53863e-07
2.07992e-07
1.34263e-07
1.16108e-07
1.27075e-07
1.74925e-07
2.92303e-07
5.46257e-07
1.04569e-06
1.94023e-06
3.41787e-06
5.73848e-06
9.25124e-06
1.85755e-06
8.69963e-07
5.10381e-07
3.79442e-07
3.36073e-07
3.48421e-07
4.23723e-07
5.94205e-07
9.28951e-07
1.54302e-06
2.58987e-06
4.25614e-06
6.78456e-06
1.05143e-05
3.00465e-06
1.72973e-06
1.18079e-06
9.53484e-07
8.67764e-07
8.85422e-07
1.01472e-06
1.28883e-06
1.77942e-06
2.6105e-06
3.93682e-06
5.94048e-06
8.84138e-06
1.28774e-05
6.06442e-06
4.78251e-06
4.04034e-06
3.68166e-06
3.74714e-06
4.00773e-06
4.44873e-06
5.06924e-06
5.98723e-06
7.32868e-06
9.29263e-06
1.19533e-05
1.57124e-05
2.20002e-05
3.25522e-06
2.49827e-06
2.08043e-06
1.88155e-06
1.90745e-06
2.04099e-06
2.27195e-06
2.60889e-06
3.14051e-06
3.98794e-06
5.34108e-06
7.34474e-06
1.04204e-05
1.57524e-05
1.78994e-06
1.25229e-06
1.00822e-06
9.06573e-07
9.21795e-07
9.89672e-07
1.1061e-06
1.28248e-06
1.58798e-06
2.13342e-06
3.10091e-06
4.69609e-06
7.33516e-06
1.19542e-05
1.04258e-06
6.12087e-07
4.57345e-07
4.0574e-07
4.14248e-07
4.47233e-07
5.04477e-07
5.97796e-07
7.80714e-07
1.15011e-06
1.874e-06
3.1803e-06
5.45413e-06
9.4039e-06
6.65397e-07
3.0399e-07
1.95938e-07
1.67373e-07
1.70758e-07
1.85914e-07
2.14349e-07
2.67542e-07
3.86486e-07
6.52528e-07
1.21351e-06
2.2921e-06
4.23471e-06
7.60207e-06
4.75077e-07
1.64922e-07
8.22928e-08
6.38586e-08
6.42833e-08
7.11244e-08
8.64545e-08
1.21073e-07
2.0723e-07
4.1277e-07
8.64982e-07
1.76797e-06
3.43049e-06
6.3224e-06
3.81534e-07
1.06597e-07
3.74307e-08
2.3197e-08
2.23148e-08
2.57872e-08
3.58446e-08
6.28373e-08
1.34332e-07
3.09474e-07
6.99715e-07
1.48881e-06
2.953e-06
5.50058e-06
3.44471e-07
8.6166e-08
2.20254e-08
9.00296e-09
7.64003e-09
1.00892e-08
1.87828e-08
4.43519e-08
1.13212e-07
2.80852e-07
6.49028e-07
1.38464e-06
2.73701e-06
5.06618e-06
3.45675e-07
8.49844e-08
1.90527e-08
5.42784e-09
3.81633e-09
6.35538e-09
1.59101e-08
4.43866e-08
1.19799e-07
2.98159e-07
6.77101e-07
1.41182e-06
2.73166e-06
4.95985e-06
3.81242e-07
9.81668e-08
2.39925e-08
8.1178e-09
6.17529e-09
9.5008e-09
2.17678e-08
5.71278e-08
1.47226e-07
3.51642e-07
7.6827e-07
1.54554e-06
2.90051e-06
5.13144e-06
4.48506e-07
1.31238e-07
4.34857e-08
2.24703e-08
1.94223e-08
2.43418e-08
4.17734e-08
8.87495e-08
2.01856e-07
4.46278e-07
9.23992e-07
1.78197e-06
3.23267e-06
5.55898e-06
5.88811e-07
2.19844e-07
1.05428e-07
7.10107e-08
6.36344e-08
7.13058e-08
9.90163e-08
1.66314e-07
3.151e-07
6.17335e-07
1.18145e-06
2.15692e-06
3.75536e-06
6.24596e-06
8.84726e-07
4.40188e-07
2.74182e-07
2.09648e-07
1.90207e-07
2.02142e-07
2.50596e-07
3.56115e-07
5.64473e-07
9.54714e-07
1.64305e-06
2.78596e-06
4.59029e-06
7.32045e-06
1.49669e-06
9.2881e-07
6.66185e-07
5.47192e-07
5.0553e-07
5.26754e-07
6.1763e-07
7.99964e-07
1.12179e-06
1.66664e-06
2.55392e-06
3.93967e-06
6.02175e-06
9.03529e-06
3.22796e-06
2.49586e-06
2.05519e-06
1.86389e-06
1.90409e-06
2.09674e-06
2.44782e-06
2.95701e-06
3.68272e-06
4.70741e-06
6.13796e-06
8.10399e-06
1.09048e-05
1.52304e-05
1.65894e-06
1.2423e-06
1.0028e-06
8.98275e-07
9.15118e-07
1.00752e-06
1.1785e-06
1.43714e-06
1.8339e-06
2.44965e-06
3.39811e-06
4.8183e-06
6.97904e-06
1.04821e-05
8.65549e-07
5.86872e-07
4.56113e-07
4.05359e-07
4.15215e-07
4.59734e-07
5.40738e-07
6.67726e-07
8.80643e-07
1.25192e-06
1.89611e-06
2.96804e-06
4.73205e-06
7.71664e-06
4.82147e-07
2.69938e-07
1.93613e-07
1.69673e-07
1.75133e-07
1.95689e-07
2.3289e-07
2.95171e-07
4.12958e-07
6.46833e-07
1.10251e-06
1.93551e-06
3.39778e-06
5.94091e-06
2.99053e-07
1.27433e-07
7.78832e-08
6.56308e-08
6.79813e-08
7.69471e-08
9.39692e-08
1.26249e-07
1.96748e-07
3.539e-07
6.88486e-07
1.34536e-06
2.55762e-06
4.71631e-06
2.10515e-07
6.73664e-08
3.11864e-08
2.36443e-08
2.42367e-08
2.80439e-08
3.63868e-08
5.53619e-08
1.02636e-07
2.16883e-07
4.74285e-07
1.00499e-06
2.0211e-06
3.8668e-06
1.6907e-07
4.3988e-08
1.40826e-08
8.24425e-09
8.04917e-09
9.83793e-09
1.48313e-08
2.84332e-08
6.52785e-08
1.58085e-07
3.7265e-07
8.25962e-07
1.71062e-06
3.33338e-06
1.55687e-07
3.69228e-08
8.71382e-09
3.21421e-09
2.72106e-09
3.89312e-09
7.97319e-09
2.0292e-08
5.4619e-08
1.41451e-07
3.41246e-07
7.61895e-07
1.58044e-06
3.07306e-06
1.61954e-07
3.77508e-08
7.98041e-09
2.14318e-09
1.5398e-09
2.7331e-09
7.18304e-09
2.08487e-08
5.8437e-08
1.51312e-07
3.59095e-07
7.85382e-07
1.59754e-06
3.04931e-06
1.85172e-07
4.46746e-08
1.05265e-08
3.74354e-09
3.09532e-09
4.74678e-09
1.06595e-08
2.81378e-08
7.43589e-08
1.84087e-07
4.19808e-07
8.8528e-07
1.74491e-06
3.23835e-06
2.25253e-07
6.23107e-08
2.07801e-08
1.15543e-08
1.06659e-08
1.34841e-08
2.25716e-08
4.72344e-08
1.08432e-07
2.464e-07
5.29824e-07
1.06695e-06
2.02541e-06
3.63634e-06
3.08751e-07
1.12953e-07
5.53346e-08
3.88059e-08
3.64286e-08
4.19595e-08
5.83064e-08
9.69814e-08
1.8369e-07
3.65851e-07
7.2113e-07
1.36638e-06
2.4761e-06
4.2737e-06
4.96324e-07
2.47126e-07
1.5406e-07
1.19132e-07
1.11698e-07
1.23085e-07
1.56108e-07
2.23997e-07
3.5706e-07
6.11074e-07
1.07537e-06
1.87955e-06
3.20454e-06
5.26635e-06
9.04273e-07
5.57825e-07
3.93299e-07
3.21445e-07
3.03199e-07
3.27347e-07
3.9692e-07
5.26874e-07
7.51046e-07
1.13121e-06
1.76475e-06
2.78827e-06
4.38414e-06
6.75218e-06
1.99625e-06
1.48775e-06
1.15431e-06
9.89951e-07
9.75748e-07
1.07942e-06
1.31218e-06
1.68637e-06
2.25229e-06
3.072e-06
4.21613e-06
5.80056e-06
8.01905e-06
1.12709e-05
9.73274e-07
7.02124e-07
5.33192e-07
4.50874e-07
4.41911e-07
4.86964e-07
5.90967e-07
7.66554e-07
1.05601e-06
1.52147e-06
2.24514e-06
3.34331e-06
4.98792e-06
7.52868e-06
4.77969e-07
3.10969e-07
2.27051e-07
1.90334e-07
1.87406e-07
2.07529e-07
2.53327e-07
3.33807e-07
4.79466e-07
7.43586e-07
1.20865e-06
1.99234e-06
3.26978e-06
5.36559e-06
2.49573e-07
1.33055e-07
8.95291e-08
7.40265e-08
7.35567e-08
8.23596e-08
1.02141e-07
1.39315e-07
2.15006e-07
3.71218e-07
6.8101e-07
1.25548e-06
2.26371e-06
4.00008e-06
1.4582e-07
5.85208e-08
3.34024e-08
2.65322e-08
2.65361e-08
3.02462e-08
3.88718e-08
5.71332e-08
9.96887e-08
1.98168e-07
4.12367e-07