/*--------------------------------*- C++ -*----------------------------------*\
| =========                 |                                                 |
| \\      /  F ield         | OpenFOAM: The Open Source CFD Toolbox           |
|  \\    /   O peration     | Version:  v2106                                 |
|   \\  /    A nd           | Website:  www.openfoam.com                      |
|    \\/     M anipulation  |                                                 |
\*---------------------------------------------------------------------------*/
FoamFile
{
    version     2.0;
    format      ascii;
    arch        "LSB;label=32;scalar=64";
    class       volScalarField;
    location    "0.000196";
    object      k;
}
// * * * * * * * * * * * * * * * * * * * * * * * * * * * * * * * * * * * * * //

dimensions      [0 2 -2 0 0 0 0];

internalField   nonuniform List<scalar> 
144746
(
7.52719
5.6485
4.24858
3.13477
2.77996
3.23062
4.75238
7.42603
10.8039
13.5404
14.1551
12.6547
11.066
10.2239
7.96804
5.62705
3.7271
2.33517
1.72385
1.69003
2.3345
3.76331
5.91765
8.24799
9.92965
10.1457
9.07337
8.58446
7.9911
5.19015
3.02673
1.67889
1.08454
0.905488
1.12336
1.8295
3.05468
4.59223
6.04014
7.16881
7.14675
7.37099
6.97413
3.97247
2.09063
1.09429
0.656679
0.493725
0.550815
0.889116
1.57207
2.52047
3.50598
4.3405
4.91241
5.81047
5.02369
2.57526
1.25924
0.624995
0.357264
0.256404
0.273468
0.447218
0.842486
1.44797
2.13221
2.7403
3.42275
4.77851
3.09726
1.43926
0.648133
0.304682
0.168987
0.122007
0.136686
0.240805
0.487797
0.897632
1.40671
1.92356
2.58003
4.22789
1.68084
0.700889
0.28883
0.128781
0.0707194
0.0552452
0.0738816
0.149082
0.321653
0.619262
1.01939
1.48742
2.25059
4.64266
0.86766
0.323875
0.122523
0.0526459
0.0301216
0.0290972
0.0508806
0.114415
0.250703
0.485794
0.821786
1.28859
2.36332
5.89619
0.528953
0.187514
0.0700726
0.0323989
0.0217186
0.0260511
0.0499512
0.109486
0.229404
0.434727
0.751503
1.33149
3.06578
7.89263
0.520293
0.196725
0.0829903
0.0470196
0.0361641
0.0410754
0.0665826
0.126795
0.244551
0.452636
0.829753
1.7446
4.49328
9.94304
0.885812
0.387125
0.170131
0.10353
0.0828566
0.0846875
0.112387
0.180439
0.316979
0.582328
1.15091
2.73313
6.31139
11.1335
1.91709
1.17607
0.601028
0.302847
0.205828
0.189305
0.220077
0.308588
0.493943
0.888588
1.82593
4.20127
7.7712
11.3091
3.53275
2.80974
1.83519
1.00792
0.580657
0.439155
0.444672
0.560543
0.820562
1.38738
2.66601
5.27358
8.14395
10.7599
5.33813
4.93162
3.97977
2.75166
1.74062
1.16232
0.958445
1.02824
1.34078
2.04694
3.43001
5.71848
7.88099
9.96946
6.43936
4.53107
3.26115
2.36907
2.0358
2.18468
2.95605
4.32858
6.1195
7.9268
9.43816
10.4254
10.861
11.139
5.8454
3.92949
2.59924
1.70072
1.29142
1.23013
1.57835
2.38272
3.5997
4.99608
6.27963
7.34119
7.93094
8.41735
5.05008
3.22527
1.97347
1.20125
0.827159
0.699875
0.826828
1.26569
2.0427
3.04218
4.06287
4.95522
5.74658
6.52957
3.90688
2.36161
1.36692
0.7857
0.503913
0.392113
0.428762
0.656527
1.13342
1.81748
2.56991
3.24748
3.82464
4.77587
2.69921
1.53342
0.83051
0.452068
0.275779
0.205174
0.216943
0.340641
0.631984
1.09394
1.64295
2.18253
2.70589
3.70257
1.66257
0.867105
0.434726
0.224229
0.132195
0.0977841
0.107537
0.182951
0.367853
0.683634
1.09445
1.54494
2.04676
3.01574
0.912022
0.425315
0.195955
0.0960836
0.0557039
0.0434254
0.0556296
0.109414
0.237328
0.464489
0.783659
1.17505
1.69245
2.85101
0.479194
0.19501
0.0810463
0.0376454
0.0221782
0.0206294
0.0349781
0.0796516
0.179291
0.357387
0.622541
0.985897
1.58372
3.146
0.305664
0.11067
0.0415278
0.018718
0.0122139
0.0149712
0.030861
0.0725251
0.160121
0.31589
0.56173
0.952247
1.76192
3.92007
0.319326
0.116239
0.0450093
0.0230389
0.0171587
0.0209752
0.0384033
0.081128
0.16831
0.326063
0.598211
1.10938
2.32465
5.01593
0.543144
0.221774
0.092053
0.0526552
0.0410367
0.0436384
0.063604
0.113121
0.214944
0.407742
0.771211
1.54933
3.22645
6.18231
1.18854
0.649434
0.307075
0.152131
0.106467
0.101987
0.12645
0.192132
0.328519
0.59599
1.13659
2.2832
4.35974
7.36646
2.33089
1.61039
0.944207
0.488024
0.287241
0.237349
0.261034
0.351257
0.539591
0.909695
1.65144
3.14575
5.52882
8.4477
3.81105
3.02182
2.14814
1.34443
0.813617
0.576034
0.537639
0.638274
0.880119
1.34989
2.25085
4.01056
6.57145
9.36789
4.77107
3.27425
2.37755
1.78413
1.53751
1.51334
1.77206
2.28671
3.0247
3.88474
4.89296
6.25411
8.49364
11.3114
3.38972
2.33122
1.62965
1.16095
0.931614
0.86039
0.974223
1.2901
1.8247
2.52495
3.3866
4.46378
5.90224
7.66884
2.37394
1.6377
1.10821
0.751037
0.563759
0.488144
0.529957
0.714982
1.08391
1.62141
2.30453
3.12709
4.12025
5.42414
1.62188
1.09387
0.708209
0.456905
0.324133
0.266239
0.279097
0.385238
0.630181
1.02218
1.5364
2.15372
2.87
3.84773
1.06532
0.673335
0.409568
0.250818
0.169793
0.134634
0.139713
0.202111
0.360675
0.636449
1.01746
1.48659
2.04568
2.87242
0.664567
0.375998
0.210006
0.121408
0.0790546
0.0619333
0.0668235
0.106494
0.21025
0.402479
0.686245
1.05593
1.52468
2.249
0.39791
0.192909
0.0957928
0.0515712
0.0325332
0.0262379
0.0323626
0.0609614
0.133474
0.272723
0.491638
0.797472
1.21868
1.90362
0.250566
0.100263
0.0418751
0.0201278
0.012335
0.011293
0.0184235
0.0422628
0.0992557
0.209512
0.390776
0.661577
1.06807
1.77634
0.194479
0.0666575
0.0229278
0.00938615
0.00571911
0.00682822
0.0147708
0.0373769
0.0886467
0.187001
0.353366
0.617704
1.0493
1.84055
0.212466
0.0723423
0.0243018
0.0101848
0.00677348
0.00855037
0.0175115
0.0413881
0.0938783
0.194238
0.368792
0.660907
1.16266
2.08999
0.323101
0.124595
0.0473455
0.0232391
0.0167346
0.0182214
0.029002
0.0574371
0.119209
0.238058
0.448962
0.80775
1.41512
2.53999
0.618087
0.299322
0.134373
0.0667044
0.0464009
0.045553
0.0598401
0.0982916
0.180312
0.336944
0.613569
1.07371
1.84595
3.33001
1.16808
0.684983
0.369876
0.194538
0.124865
0.112359
0.131368
0.186181
0.298722
0.509348
0.879875
1.50447
2.63633
4.52498
1.99973
1.31827
0.829041
0.496901
0.320737
0.263572
0.28002
0.355168
0.506724
0.783223
1.27139
2.197
4.03773
6.35654
10.3587
11.8939
13.721
16.5612
23.9009
54.3727
9.15893
11.1423
13.3973
15.876
22.0022
50.7344
8.40527
11.0945
13.9607
16.023
20.8463
48.0591
7.76834
11.6804
15.2338
16.4752
19.9919
46.1319
7.75515
13.1329
17.0326
17.0293
19.2779
44.9778
8.56896
15.4717
18.7443
17.2224
18.6317
44.66
10.4537
17.7145
19.323
16.7263
17.9477
45.1748
12.6949
18.7726
18.5086
15.8459
17.4749
46.1938
14.2614
18.098
16.8927
15.1295
17.4061
47.4893
14.3693
16.2508
15.3893
14.8366
17.5861
49.0905
13.3116
14.3131
14.4312
14.7503
17.9733
50.8406
12.0749
12.8955
13.6452
14.7219
18.6223
52.5158
11.0162
11.8895
13.0399
14.7655
19.5837
54.1741
10.2451
11.2799
12.6616
15.0609
21.1205
56.0246
11.7651
13.6401
15.1777
16.8768
21.6903
47.1069
9.28447
11.5806
14.1731
16.3674
20.4016
44.2303
7.72402
10.4363
14.0492
16.7664
19.9362
42.1934
6.33138
9.6963
14.5472
17.5827
19.8379
40.6188
5.55685
9.72573
15.8009
18.6744
19.857
39.4075
5.32091
10.6396
17.5422
19.5922
19.4941
39.0033
5.84463
12.0592
18.9306
19.8156
18.9063
39.2729
6.83313
13.4045
19.3448
19.3476
18.2887
40.0026
7.95227
14.0374
18.6112
18.504
18.1393
41.0785
8.78346
13.6843
17.3263
17.9227
18.5456
42.5742
9.12549
12.8202
16.1972
17.787
19.3406
44.327
9.32614
12.247
15.5822
17.8768
20.2849
46.0644
9.8321
12.2674
15.3446
17.8392
21.124
47.6981
10.3999
12.744
15.2252
17.4787
21.8872
49.3005
14.2393
17.4828
19.4785
19.8516
22.1037
37.4025
9.86024
13.0392
16.1797
18.2923
21.3282
35.8549
7.39432
10.4876
14.2757
17.6379
21.2268
35.0266
5.50181
8.52506
12.9685
17.591
21.273
34.39
4.36153
7.362
12.4134
17.9998
21.4697
33.6843
3.60801
6.66869
12.5671
18.8542
21.5383
33.1133
3.25216
6.54702
13.3699
19.6535
21.7018
33.2772
3.21752
6.96987
14.2587
20.3609
21.8527
34.1869
3.46311
7.55954
14.8605
20.6455
22.0456
35.6969
3.90606
7.96611
14.8841
20.6634
22.6759
37.6348
4.36922
8.10763
14.6379
20.9377
23.9912
39.8774
4.89949
8.39132
14.7419
21.5602
25.45
41.9212
6.01877
9.46106
15.5437
21.9921
26.2679
43.32
7.63508
11.5328
17.0691
21.8146
26.0124
44.0644
9.46024
10.8765
12.7868
16.1101
23.7741
58.135
7.5093
8.89315
11.2305
14.5796
21.3302
54.0115
5.87639
7.30349
10.1789
13.8942
19.8133
50.5119
4.16193
5.92602
9.4982
13.5822
18.8934
47.6387
3.01732
5.08442
9.25366
13.6916
18.275
45.3112
2.40975
4.94736
9.71094
14.1786
17.937
43.4881
2.29597
5.42797
10.7015
14.6942
17.4888
42.4671
2.62326
6.424
11.7977
14.9061
16.8906
42.3819
3.36763
7.52089
12.2719
14.4767
16.261
43.1697
4.35496
8.19309
11.8956
13.6371
15.8869
45.0012
5.26044
8.22438
10.9557
12.6954
15.8674
47.406
5.84298
7.89985
9.92219
11.7906
16.1768
50.1406
6.03558
7.40569
8.99176
11.0893
16.777
52.9286
5.93541
7.04157
8.49816
10.9548
17.6645
54.78
10.226
12.5731
14.8248
17.3546
23.0205
51.1485
7.01027
9.08519
11.9243
15.2347
20.8128
47.5394
4.76286
6.60825
9.78685
13.8182
19.3706
44.3234
3.04996
4.64421
8.05863
12.856
18.6191
41.365
2.09124
3.58533
6.97806
12.176
18.1359
38.8313
1.54954
3.05399
6.60199
12.0259
17.6415
36.9425
1.30868
2.9674
6.85761
12.2245
17.0433
35.7626
1.32092
3.28722
7.51329
12.4868
16.4449
35.3792
1.60162
3.88547
8.13566
12.4463
15.7706
35.7958
2.12867
4.49097
8.28463
11.966
15.4538
37.3356
2.78846
4.89786
7.99587
11.3262
15.7975
39.7754
3.43796
5.14638
7.61825
10.7913
16.6548
42.4236
3.9866
5.35155
7.44869
10.6483
17.7244
44.7014
4.38565
5.67537
7.73633
11.1166
18.8821
46.8054
9.14542
12.9292
17.0746
20.6342
25.4166
44.3627
5.45365
8.15165
12.0479
16.604
22.4946
41.1517
3.18516
5.22822
8.72234
13.7175
20.2556
38.1493
1.94874
3.27761
6.28964
11.5477
18.8325
35.3141
1.31145
2.34873
4.82471
9.79293
17.6153
32.7043
0.939108
1.8216
3.97676
8.64341
16.2677
30.2224
0.729427
1.53381
3.56801
7.9921
15.0386
28.2952
0.6382
1.4416
3.50813
7.70927
14.114
27.1592
0.654746
1.51614
3.67326
7.62792
13.4338
27.083
0.792061
1.71007
3.8372
7.51155
13.3468
28.3939
1.04622
1.96441
3.93442
7.44497
14.1538
31.0117
1.39567
2.27748
4.10009
7.67504
15.6964
34.1939
1.82371
2.71149
4.58198
8.53577
17.6863
36.9134
2.33815
3.40874
5.66624
10.2332
19.5669
38.6865
54.734
20.3752
13.1458
10.3936
8.8492
7.86975
53.4934
19.1383
12.8916
10.6826
9.34094
8.43466
51.9544
18.7765
13.4552
11.6509
10.2391
8.9425
49.9529
19.054
14.587
12.9616
10.9791
8.83378
48.6745
19.8611
16.0711
14.0926
10.8028
7.55784
47.8526
21.4127
17.2683
14.0035
9.18211
5.47413
47.5337
23.0157
17.0302
12.0111
6.73473
3.46945
47.8422
23.6665
15.0564
9.08324
4.48898
2.07038
48.7436
23.0565
12.5626
6.65577
3.06827
1.35891
49.6914
21.7426
10.7059
5.37242
2.56276
1.21652
50.7372
20.2552
9.84613
5.14868
2.80251
1.60093
52.2642
18.9577
9.7426
5.72525
3.67948
2.56707
54.5233
19.1284
10.4412
6.86695
4.99855
3.89889
57.7764
20.3569
11.8509
8.56458
6.7914
5.57144
46.6386
21.1889
14.127
10.8533
8.50454
6.89305
45.4105
20.0393
13.5208
10.2521
7.91198
6.433
44.5009
19.5307
13.4191
10.1846
7.59074
5.8654
43.4971
19.5482
13.7837
10.4291
7.21469
5.05641
42.4007
20.1228
14.4593
10.4306
6.34094
3.93921
41.9449
21.49
14.6393
9.48426
5.04985
2.77725
42.141
22.8204
13.7648
7.73179
3.64664
1.77132
42.6804
23.3971
12.1157
5.89917
2.53577
1.09796
43.3436
23.0728
10.4639
4.59465
1.8996
0.781666
44.0682
21.8395
9.45829
4.08588
1.76537
0.772356
44.6605
20.4208
9.1901
4.27348
2.1017
1.07959
45.4667
19.447
9.60083
5.11599
2.95689
1.82578
46.7873
19.2692
10.5743
6.44811
4.24889
2.97149
48.9865
20.8263
12.2839
8.38109
6.09006
4.56804
37.5899
22.1078
16.0764
10.8794
7.23412
4.91153
37.283
21.3799
14.5665
8.86318
5.45024
3.6445
36.7935
20.4905
13.0983
7.5375
4.35407
2.78606
35.939
19.9575
11.9212
6.72125
3.64043
2.14707
35.1209
19.763
11.177
6.03682
3.0305
1.61168
35.0304
19.8937
10.6283
5.32945
2.45769
1.16601
35.7941
20.2576
10.0745
4.59794
1.9475
0.826421
37.1094
20.699
9.57226
4.02436
1.59023
0.615278
38.38
20.912
9.19799
3.69299
1.4114
0.525571
39.1
20.4298
9.03385
3.665
1.43704
0.557653
39.1585
19.6482
9.06463
3.90174
1.67897
0.736312
38.9194
19.188
9.60382
4.61502
2.27416
1.16546
38.8871
19.7128
10.6866
5.73429
3.20378
1.87978
39.6841
21.6869
12.6317
7.48292
4.60376
2.95269
52.8707
20.9071
14.8491
12.6077
11.3194
10.4202
51.612
19.3108
14.12
12.3856
11.5038
11.0076
50.6198
18.631
14.1037
12.8215
12.3545
12.1965
49.724
18.6201
14.6132
13.8699
13.963
13.9932
48.9436
19.3576
15.7072
15.7728
16.3234
15.6161
48.367
20.5005
17.5736
18.3874
18.1687
15.2555
47.7237
22.2304
19.8056
20.1874
17.5588
12.419
47.1052
24.1022
20.8951
19.1367
14.2277
8.74202
47.1121
25.4765
19.6953
15.6445
10.2979
5.95
48.116
25.6494
17.1438
12.0835
7.5845
4.56791
49.3517
25.0458
15.2213
10.0695
6.4702
4.30916
51.017
24.0726
14.1635
9.46809
6.57119
4.93078
53.3758
23.0988
13.9659
9.82279
7.39303
5.95187
56.7062
23.5978
14.7455
11.0076
8.90481
7.5364
45.6964
19.9328
15.994
14.7578
13.3582
11.7502
44.8733
18.9863
15.7973
14.5595
12.9564
11.4962
44.3876
18.494
15.8981
14.7439
12.9384
11.2369
44.1257
18.4547
16.3816
15.6006
13.6419
11.3366
43.9696
18.9369
17.4925
17.208
14.5239
10.7949
43.7552
20.1713
19.2685
18.7351
14.1954
9.46071
43.0282
22.2701
20.8288
18.479
12.3496
7.37389
42.5482
24.4683
20.5196
15.9023
9.59485
5.31783
42.5892
26.1024
18.309
12.4382
7.11376
3.88729
42.9995
26.396
15.8607
9.89486
5.69611
3.31502
43.5403
25.6146
14.5389
8.85371
5.36864
3.40762
44.3128
24.553
14.1887
9.06051
5.99274
4.1918
45.6291
23.2763
14.4358
9.98845
7.19441
5.39662
47.8286
23.637
15.5008
11.7266
9.2171
7.3161
37.0744
21.592
20.3481
19.3244
16.0513
12.1179
37.1935
21.415
20.5371
17.6078
13.2393
9.61644
37.5586
21.1911
20.1997
16.4722
11.3066
7.71585
37.7395
21.1239
19.9599
15.896
10.5011
6.82599
37.554
21.2434
19.744
15.4999
9.84054
5.96672
36.9952
21.7531
19.5379
14.6138
8.80921
5.00217
36.5156
22.9284
18.6029
12.8473
7.38421
3.99672
36.5955
23.3811
16.9307
10.7893
6.03973
3.20381
36.7556
23.8136
15.3617
9.17025
5.07991
2.71555
36.7609
23.8446
14.4632
8.43882
4.73164
2.62751
36.5722
23.4481
14.2279
8.42081
4.88766
2.86004
36.4464
22.8618
14.6717
9.21565
5.72456
3.60499
36.6466
22.8091
15.6334
10.5453
7.04506
4.74981
37.5872
23.9476
17.5341
12.9053
9.33938
6.67564
2.33336
1.62925
1.21857
0.975672
0.904631
0.891186
0.94236
1.04289
1.23171
1.5169
1.91907
2.44821
3.52929
6.05653
1.19183
0.858202
0.643399
0.510897
0.465264
0.456175
0.482066
0.536647
0.647078
0.831911
1.12036
1.55741
2.45064
4.26381
0.640094
0.450182
0.333722
0.262237
0.235514
0.229149
0.241045
0.270427
0.337359
0.463668
0.680135
1.03751
1.70917
2.96539
0.36869
0.234578
0.165965
0.127864
0.11357
0.109811
0.115352
0.132118
0.175329
0.265984
0.433809
0.72121
1.22564
2.10735
0.227687
0.121163
0.0776625
0.05774
0.0507312
0.048928
0.052025
0.0628479
0.0928972
0.160207
0.291261
0.521514
0.910523
1.56479
0.151739
0.0634521
0.0342056
0.0238231
0.0206109
0.0200118
0.022276
0.0302602
0.0526659
0.104304
0.207813
0.393634
0.707002
1.22812
0.110437
0.0358273
0.0148225
0.00905183
0.00759928
0.00763041
0.00964851
0.0163201
0.0345377
0.076636
0.161977
0.317501
0.582749
1.02741
0.0913474
0.0243656
0.00726772
0.00338117
0.00264492
0.00298803
0.00501619
0.0112946
0.0277894
0.0652941
0.140835
0.278789
0.515575
0.915593
0.0856336
0.0210931
0.00504498
0.00164393
0.00113164
0.00165396
0.00387941
0.010432
0.0270085
0.0636894
0.136099
0.266783
0.489983
0.866673
0.0924359
0.0234877
0.00576573
0.00188787
0.0013014
0.00196997
0.00460405
0.0120106
0.0300137
0.0685428
0.142451
0.272902
0.492415
0.860262
0.113991
0.0326193
0.0100927
0.00459637
0.0035333
0.00432009
0.00766243
0.0166043
0.0372914
0.0798579
0.158744
0.294185
0.5181
0.889775
0.174544
0.0593121
0.0234713
0.013514
0.0109999
0.0117698
0.0163589
0.0280289
0.0532768
0.102649
0.190454
0.336136
0.570725
0.952985
0.299799
0.123103
0.0588487
0.0382729
0.0321526
0.0325573
0.0393813
0.0560065
0.0893533
0.1511
0.25702
0.427601
0.695091
1.11533
0.528421
0.251705
0.137669
0.0968047
0.0839604
0.084168
0.0957569
0.122599
0.173277
0.262948
0.411667
0.647782
1.03813
1.65691
1.11572
0.808854
0.642247
0.547259
0.535822
0.548981
0.586073
0.642399
0.743507
0.907634
1.16243
1.50537
2.05924
3.32918
0.542885
0.397844
0.316264
0.268927
0.261433
0.268734
0.288309
0.318889
0.375828
0.475275
0.641366
0.890217
1.33274
2.33183
0.283633
0.19507
0.152226
0.129016
0.125082
0.128582
0.138047
0.153956
0.186501
0.249586
0.365574
0.561161
0.922916
1.66884
0.161036
0.0956152
0.0702983
0.0588487
0.0569687
0.0585677
0.0630829
0.071645
0.0915121
0.134467
0.220763
0.379519
0.674668
1.23489
0.100216
0.0476008
0.030906
0.0250206
0.024104
0.0248405
0.0271606
0.0323609
0.0457828
0.0771994
0.144142
0.273874
0.514478
0.951012
0.0693566
0.0252096
0.0131486
0.00984871
0.00934969
0.00972656
0.0111273
0.0148293
0.0249146
0.0494796
0.103351
0.210458
0.408893
0.761782
0.053446
0.0152462
0.00577649
0.00363981
0.00332844
0.00358402
0.00464296
0.00774624
0.0162783
0.0371902
0.0831801
0.174984
0.344512
0.643108
0.0462095
0.0112884
0.00304288
0.00136653
0.00113942
0.00138071
0.00237734
0.00539364
0.0135533
0.0331925
0.0755726
0.158879
0.310822
0.57535
0.043974
0.0102557
0.00229188
0.000702595
0.000500653
0.000781116
0.00188492
0.0051817
0.0138379
0.033999
0.0760923
0.156473
0.2999
0.545628
0.0462794
0.0112892
0.00266605
0.000859469
0.000618575
0.000976584
0.00233668
0.00624107
0.0160807
0.0380817
0.0822584
0.163721
0.305312
0.543619
0.0531238
0.0147596
0.00460387
0.00218458
0.00175647
0.00221084
0.00400991
0.00888854
0.0205343
0.0454023
0.0933955
0.178932
0.324044
0.564237
0.0722957
0.0247329
0.0107503
0.00672135
0.00567223
0.00617824
0.00872946
0.015214
0.0295905
0.0585939
0.112172
0.204286
0.356686
0.6048
0.112681
0.0488658
0.0272281
0.0197237
0.017144
0.0175706
0.0214703
0.0307901
0.0497044
0.0853893
0.148171
0.252261
0.418787
0.68202
0.190949
0.100811
0.0652105
0.0515088
0.0463688
0.0469685
0.0537905
0.0690055
0.0973183
0.147076
0.229682
0.360877
0.564112
0.865142
0.455123
0.348686
0.294764
0.270796
0.279282
0.299613
0.331221
0.37413
0.438973
0.537267
0.691883
0.919934
1.27109
1.92811
0.223058
0.16815
0.140681
0.128351
0.131658
0.141353
0.156874
0.178798
0.213896
0.271318
0.367867
0.520647
0.776386
1.27423
0.114973
0.0795525
0.0646098
0.0586178
0.0601633
0.0647002
0.0719932
0.0827485
0.101668
0.136312
0.200496
0.312775
0.515429
0.912754
0.0642288
0.0372918
0.0282135
0.0252678
0.0259861
0.0280419
0.0314158
0.0368004
0.0475817
0.0700346
0.116007
0.203994
0.370512
0.691667
0.0400166
0.0179167
0.011734
0.0101426
0.010411
0.0113063
0.0129082
0.015874
0.0227011
0.0385511
0.0735362
0.144801
0.283268
0.546377
0.0281502
0.00941011
0.00477975
0.00378346
0.0038354
0.00422348
0.00506414
0.00697556
0.0118995
0.0241221
0.0522394
0.111476
0.228008
0.447265
0.0222674
0.0058585
0.00207634
0.00133872
0.00130602
0.00149805
0.00204627
0.00354933
0.00767069
0.0181489
0.0424692
0.0940514
0.195369
0.383827
0.0196405
0.00453882
0.00113685
0.000494065
0.000435095
0.000569899
0.00104746
0.00248866
0.0064907
0.01656
0.0395015
0.0873105
0.179645
0.348159
0.0190314
0.00429818
0.000916027
0.000268252
0.000200472
0.000340798
0.000868811
0.00247972
0.00686099
0.0175344
0.0409828
0.0882078
0.17687
0.334649
0.0202138
0.00483478
0.00112324
0.000371068
0.000286791
0.000470735
0.00114715
0.00313355
0.00831625
0.0203987
0.0458028
0.0949097
0.184139
0.338723
0.0231486
0.00643632
0.00207269
0.00104307
0.000883054
0.0011397
0.00208656
0.00468695
0.0110831
0.0252558
0.0537777
0.106791
0.200187
0.358014
0.0302895
0.0109945
0.00520344
0.00342548
0.00297964
0.00331912
0.00475922
0.00839923
0.0166431
0.033793
0.0667064
0.125598
0.226318
0.39244
0.0461241
0.0226021
0.0139833
0.0105241
0.00931093
0.00971442
0.0120831
0.0176074
0.0289191
0.0506901
0.0901974
0.158188
0.270646
0.451814
0.0798916
0.0490249
0.0350635
0.0285872
0.0260101
0.0266629
0.031013
0.0403893
0.0576896
0.0880413
0.139217
0.222605
0.355295
0.561455
0.204971
0.158487
0.133715
0.125227
0.131971
0.14833
0.174981
0.211344
0.261782
0.332451
0.434874
0.588202
0.830526
1.24597
0.0984986
0.0740765
0.0612789
0.0565615
0.059258
0.066401
0.0783266
0.0954274
0.121
0.160364
0.222643
0.322208
0.488633
0.788001
0.0491673
0.033478
0.0266638
0.0243779
0.0256119
0.0287716
0.0340061
0.0418077
0.0545775
0.0767611
0.116275
0.18597
0.311388
0.547621
0.0267203
0.0149096
0.0109575
0.00987222
0.0104321
0.0117961
0.0140531
0.0176438
0.0243045
0.0376204
0.0644693
0.116603
0.21644
0.409312
0.0163706
0.00685055
0.00429111
0.00372453
0.0039459
0.00450909
0.00548845
0.00726111
0.0111076
0.0198727
0.0393712
0.0801144
0.161661
0.321365
0.0113795
0.00350985
0.00166529
0.00131256
0.00137813
0.0016054
0.00206422
0.00307881
0.00563936
0.0120451
0.0271822
0.0602966
0.128392
0.262539
0.00892227
0.00219368
0.000713109
0.000444698
0.000448836
0.000550288
0.000817423
0.00154592
0.00357465
0.00888228
0.0217143
0.0502753
0.109469
0.225578
0.00790786
0.0017499
0.000407181
0.000163473
0.000147231
0.00021136
0.000429668
0.00110247
0.00303515
0.00809636
0.0202064
0.0468565
0.101374
0.206463
0.00788123
0.00172068
0.000350625
9.7747e-05
7.61225e-05
0.000141056
0.000382083
0.00113962
0.0032815
0.00873801
0.0213702
0.0482939
0.101825
0.202206
0.00876011
0.00201697
0.000462412
0.00016205
0.000136612
0.000226714
0.0005488
0.00151857
0.00414607
0.0105569
0.0247595
0.0537829
0.109482
0.210624
0.0106199
0.00287976
0.000953769
0.00051512
0.000463642
0.000607464
0.00109649
0.00244925
0.00587876
0.0138051
0.0305576
0.0633428
0.12404
0.230681
0.0148655
0.00544467
0.00265967
0.0018061
0.00163109
0.00187147
0.00270793
0.00477562
0.0095281
0.0197507
0.0402337
0.0786223
0.147214
0.263823
0.0246107
0.0123545
0.00768205
0.00579115
0.00523581
0.00564469
0.00721592
0.0106968
0.0177913
0.0317163
0.0578898
0.104774
0.185419
0.31813
0.0461793
0.0287364
0.0202808
0.0163269
0.0149944
0.0158004
0.0189796
0.0254131
0.0370681
0.0575821
0.0929905
0.152644
0.250854
0.406956
0.115062
0.0860366
0.0684525
0.061065
0.0629353
0.0723591
0.0904418
0.117607
0.157117
0.212937
0.291747
0.408432
0.588783
0.881444
0.053403
0.0386633
0.0300219
0.0263081
0.0268389
0.0305671
0.0379487
0.0496645
0.0682846
0.0975504
0.143341
0.216484
0.336044
0.540128
0.0254263
0.0165393
0.0123151
0.0106684
0.0108986
0.0124191
0.0154236
0.0203929
0.0290671
0.044505
0.0719322
0.120337
0.205984
0.361891
0.0130542
0.00689346
0.00472012
0.00402716
0.00414294
0.00475771
0.00597161
0.00811402
0.0123314
0.0209612
0.0384222
0.0725037
0.137456
0.261748
0.00752609
0.00295456
0.00171721
0.00141017
0.00145866
0.00169985
0.00219735
0.00318923
0.00545081
0.0107311
0.0226237
0.047829
0.0987935
0.199662
0.00498557
0.00143662
0.00062546
0.000462171
0.000475147
0.000569428
0.000790924
0.00132178
0.00271906
0.00631903
0.0150307
0.0345808
0.0757995
0.159165
0.00386336
0.000895323
0.000263325
0.00014809
0.000145758
0.000187625
0.000310848
0.000667891
0.00170353
0.00451499
0.011559
0.0278348
0.0628968
0.13446
0.00354614
0.000749848
0.000159962
5.49738e-05
4.72825e-05
7.42992e-05
0.000172009
0.000487525
0.00143334
0.00402032
0.0104988
0.0254521
0.0575913
0.122718
0.00378833
0.000789199
0.00015145
3.91175e-05
3.04496e-05
5.91395e-05
0.000167554
0.000520841
0.00156304
0.00434468
0.0111237
0.0263791
0.0584484
0.122004
0.00452614
0.000986864
0.000220067
8.18791e-05
7.372e-05
0.000117749
0.000270371
0.000738993
0.0020574
0.00542658
0.0132975
0.0303192
0.0649041
0.131262
0.00588219
0.00152579
0.000506112
0.000289724
0.000275294
0.000359271
0.000617461
0.00132418
0.00316013
0.00758171
0.017413
0.0377358
0.0774441
0.150736
0.00887453
0.00315812
0.00152676
0.00105883
0.000997885
0.00117795
0.00169362
0.00291054
0.0057143
0.0119225
0.0249148
0.0504807
0.09837
0.183074
0.0158362
0.00769235
0.00462396
0.00347749
0.00324635
0.00364728
0.00478415
0.00713425
0.0118379
0.0211868
0.0393218
0.0730626
0.133324
0.235186
0.0315052
0.0187662
0.0126527
0.0100244
0.0093931
0.0103109
0.0128874
0.017741
0.0262942
0.0413255
0.0677469
0.113511
0.190928
0.316167
0.0797482
0.0575546
0.0427455
0.0349507
0.0332563
0.0368493
0.0466323
0.0638819
0.092214
0.135658
0.199076
0.292136
0.43305
0.652048
0.0354021
0.0247665
0.0179096
0.014326
0.0134313
0.0147115
0.018477
0.0255038
0.0380629
0.0595052
0.0944849
0.150697
0.241518
0.391225
0.0158076
0.00998617
0.00691606
0.00544246
0.00509272
0.00558589
0.00705099
0.00991282
0.0154982
0.0262201
0.0460529
0.0815522
0.143989
0.255423
0.00746653
0.00386441
0.00246781
0.00190418
0.00179213
0.00198918
0.00256222
0.00376093
0.00637661
0.0120821
0.0240395
0.0477992
0.0931376
0.179312
0.00394242
0.00152088
0.000829222
0.000614195
0.000582001
0.000661067
0.000892533
0.00143636
0.00278953
0.00611413
0.0138346
0.0305315
0.0646112
0.132416
0.0024694
0.00069177
0.000280992
0.00018542
0.00017509
0.000208062
0.000311763
0.000596645
0.00139782
0.00354956
0.00891305
0.0212433
0.0477409
0.102325
0.00193384
0.000433215
0.000116586
5.59862e-05
5.02337e-05
6.64646e-05
0.000124722
0.000309491
0.000872827
0.00246384
0.00658919
0.0164302
0.0382933
0.0843484
0.00190428
0.000388952
7.65411e-05
2.16361e-05
1.65292e-05
2.80789e-05
7.39451e-05
0.000230329
0.000720281
0.00211993
0.00577706
0.0145788
0.0343077
0.0760346
0.00221236
0.000440367
7.97839e-05
1.95144e-05
1.49665e-05
2.82516e-05
7.93111e-05
0.000251468
0.000780756
0.00226018
0.006045
0.014997
0.0347822
0.0760004
0.00282863
0.000583428
0.000126527
5.05959e-05
4.79694e-05
7.14201e-05
0.00014784
0.000384001
0.00107012
0.00290267
0.00740117
0.017658
0.0396388
0.0840704
0.00390852
0.000962195
0.000316044
0.000191735
0.000191499
0.000246838
0.000395039
0.000785951
0.00181171
0.00437104
0.0103276
0.0232902
0.0499505
0.101581
0.00625484
0.00211947
0.00100128
0.000712962
0.000703839
0.000850921
0.00120076
0.00197244
0.00372147
0.00767285
0.0162499
0.0338982
0.068461
0.131951
0.0117533
0.00539922
0.00311763
0.00235922
0.00229227
0.00267977
0.00356822
0.00528057
0.00860834
0.0152503
0.0284319
0.05376
0.100552
0.18164
0.0242719
0.0136042
0.00872616
0.00685984
0.00662528
0.00759501
0.00980096
0.0137186
0.0204238
0.0321416
0.0529273
0.0896455
0.153256
0.257725
0.0642984
0.0457311
0.0324795
0.0245743
0.0210772
0.0212349
0.0254992
0.0352271
0.0537341
0.0854423
0.13522
0.209819
0.32228
0.49374
0.027522
0.0190588
0.0131623
0.0097042
0.0081611
0.00810654
0.00967274
0.0135228
0.0214502
0.036427
0.0626744
0.106399
0.177443
0.293539
0.0115759
0.0073442
0.00485891
0.00349973
0.00291598
0.00289327
0.00348916
0.00503803
0.00851142
0.015808
0.0301832
0.0569561
0.104666
0.189636
0.005003
0.00266783
0.00163992
0.0011491
0.000954456
0.000957841
0.001194
0.0018475
0.00347369
0.00730133
0.0157398
0.0331125
0.0668504
0.131202
0.00239203
0.000967908
0.000515538
0.000344458
0.000285742
0.000294922
0.00039605
0.000700103
0.00154454
0.00374532
0.00905885
0.0209
0.0455486
0.0950557
0.00141959
0.000410425
0.000163388
9.6236e-05
7.89322e-05
8.68128e-05
0.000136265
0.0002991
0.000794619
0.00218624
0.00576906
0.0142356
0.0328421
0.0717915
0.00114756
0.000257844
6.63747e-05
2.74529e-05
2.10206e-05
2.69505e-05
5.65852e-05
0.000161177
0.000498075
0.00148745
0.00413883
0.0106573
0.025548
0.0576961
0.00122423
0.000246458
4.61694e-05
1.11864e-05
7.18757e-06
1.23788e-05
3.57836e-05
0.000120444
0.000398226
0.00122594
0.00347655
0.0091022
0.0221825
0.0508222
0.00153145
0.000295899
5.16749e-05
1.25475e-05
9.50648e-06
1.62297e-05
4.21882e-05
0.000132422
0.000421597
0.00126747
0.00353473
0.00914967
0.022131
0.0503678
0.00206733
0.000410218
8.75372e-05
3.7579e-05
3.69666e-05
5.13411e-05
9.33725e-05
0.000221308
0.000602312
0.00166241
0.00438902
0.0109175
0.0255993
0.0566927
0.0029994
0.0007084
0.000230846
0.000147552
0.000153258
0.000195256
0.000291286
0.000528368
0.00114559
0.00272609
0.00655143
0.0152601
0.0339891
0.0718465
0.00499863
0.00161736
0.00075
0.0005505
0.000565691
0.000695302
0.000960093
0.00150046
0.00268536
0.00538121
0.0113912
0.0242181
0.0502975
0.0998391
0.00966885
0.00421878
0.00236472
0.00181806
0.00183432
0.00220833
0.0029546
0.00430637
0.00684067
0.0118692
0.0219796
0.0419079
0.0798065
0.146959
0.020391
0.0108473
0.00669636
0.00528354
0.00526861
0.00624986
0.00821896
0.0115602
0.0171164
0.0267337
0.0438355
0.0744441
0.12864
0.219041
0.0567055
0.0403586
0.0280341
0.0201372
0.0157793
0.014185
0.0153752
0.0202327
0.0312545
0.0525587
0.089501
0.148729
0.240157
0.380259
0.023653
0.0164592
0.0111087
0.00775212
0.00593454
0.00524793
0.00567108
0.00761718
0.0123518
0.0222697
0.041215
0.0750727
0.132112
0.226974
0.00950437
0.00614965
0.00398259
0.00270084
0.00203457
0.00179019
0.00196679
0.00277828
0.00490438
0.00979098
0.0201345
0.0406378
0.0787063
0.148064
0.00381392
0.00213515
0.00129519
0.000849808
0.000632576
0.00056094
0.000645908
0.00101046
0.00204572
0.00466877
0.0107859
0.0240309
0.0507556
0.102934
0.00166529
0.000726433
0.0003886
0.000242246
0.00017836
0.000162849
0.000208528
0.000391406
0.000950352
0.00248769
0.00635838
0.0153356
0.0346588
0.0743369
0.000936048
0.000287463
0.000116486
6.39852e-05
4.61339e-05
4.55362e-05
7.23274e-05
0.000175755
0.000510203
0.00148628
0.00408412
0.010433
0.0248126
0.0555808
0.000776317
0.000177369
4.53903e-05
1.73602e-05
1.15548e-05
1.38873e-05
3.14575e-05
9.8564e-05
0.000323708
0.00100691
0.00289677
0.00769525
0.0189873
0.0439507
0.000882169
0.000175883
3.20036e-05
7.21288e-06
4.12137e-06
6.89692e-06
2.08017e-05
7.33173e-05
0.000252036
0.00080409
0.00236104
0.00639407
0.0160827
0.0378739
0.00116757
0.000220465
3.74716e-05
9.32825e-06
7.23438e-06
1.13132e-05
2.66538e-05
8.09574e-05
0.000261071
0.000809355
0.00234088
0.00628526
0.0157332
0.0369136
0.001648
0.000317153
6.68869e-05
3.06104e-05
3.11849e-05
4.17109e-05
6.88151e-05
0.000148567
0.000389411
0.00108196
0.00293285
0.00753787
0.0182633
0.0416967
0.00248845
0.000566572
0.000183609
0.000122947
0.000131871
0.0001676
0.000239288
0.000403946
0.000824064
0.00191525
0.00462919
0.011009
0.0251663
0.0546372
0.00426691
0.00132352
0.000607067
0.000459921
0.000488053
0.000607371
0.000827102
0.00124684
0.00213395
0.00414627
0.00870198
0.0186697
0.0394956
0.0800973
0.00838923
0.0035087
0.00193285
0.00151817
0.00157977
0.00193861
0.00259566
0.00373172
0.00579314
0.0098423
0.0180396
0.0344913
0.0665112
0.124408
0.0179389
0.00917645
0.0055277
0.00441459
0.00452591
0.00549004
0.0072831
0.010229
0.0150154
0.0232194
0.0378159
0.0642129
0.111867
0.192705
0.0513175
0.0367924
0.0253499
0.0176713
0.0130164
0.0106929
0.0105107
0.0129008
0.0195279