/*--------------------------------*- C++ -*----------------------------------*\
| =========                 |                                                 |
| \\      /  F ield         | OpenFOAM: The Open Source CFD Toolbox           |
|  \\    /   O peration     | Version:  v2106                                 |
|   \\  /    A nd           | Website:  www.openfoam.com                      |
|    \\/     M anipulation  |                                                 |
\*---------------------------------------------------------------------------*/
FoamFile
{
    version     2.0;
    format      ascii;
    arch        "LSB;label=32;scalar=64";
    class       volScalarField;
    location    "0.000196";
    object      rho;
}
// * * * * * * * * * * * * * * * * * * * * * * * * * * * * * * * * * * * * * //

dimensions      [1 -3 0 0 0 0 0];

internalField   nonuniform List<scalar> 
144746
(
2.35854
2.35926
2.35558
2.35238
2.3493
2.34464
2.341
2.33652
2.33244
2.32998
2.32889
2.33078
2.3314
2.33846
2.35601
2.35702
2.35497
2.35265
2.3495
2.34509
2.34128
2.33703
2.33308
2.3305
2.32975
2.33187
2.33312
2.34079
2.35869
2.35812
2.35579
2.35313
2.35001
2.34585
2.34199
2.33796
2.33421
2.33131
2.32996
2.33063
2.33181
2.33761
2.35908
2.3577
2.35575
2.35344
2.35041
2.34655
2.3427
2.33898
2.33552
2.33275
2.33132
2.33148
2.33269
2.33705
2.36031
2.35799
2.35596
2.35369
2.35056
2.34707
2.34347
2.34003
2.33682
2.33421
2.33271
2.33256
2.33374
2.33725
2.36127
2.35847
2.3562
2.3537
2.35086
2.34765
2.34437
2.34113
2.33807
2.33572
2.33447
2.33432
2.33542
2.33804
2.36274
2.3598
2.3572
2.35436
2.35147
2.34858
2.34559
2.34264
2.33982
2.3377
2.33645
2.33633
2.33728
2.3393
2.36494
2.36156
2.35874
2.35564
2.3526
2.34976
2.3471
2.34441
2.34185
2.33991
2.3389
2.33878
2.33924
2.34056
2.36686
2.36334
2.36038
2.35723
2.35408
2.3512
2.3487
2.34632
2.34398
2.34212
2.34094
2.34046
2.3405
2.34137
2.37006
2.36595
2.36246
2.35894
2.35565
2.35271
2.35023
2.348
2.34586
2.34406
2.34289
2.3425
2.34242
2.34262
2.37287
2.3686
2.36473
2.3611
2.3576
2.35449
2.35198
2.34971
2.34768
2.34601
2.34494
2.34445
2.34459
2.34421
2.37716
2.37197
2.36784
2.36371
2.36027
2.35713
2.35461
2.35225
2.35016
2.34861
2.34791
2.34785
2.34882
2.34798
2.38096
2.3747
2.3709
2.36678
2.36337
2.36069
2.35827
2.35585
2.35358
2.35195
2.35116
2.35092
2.3519
2.34972
2.38211
2.37546
2.37417
2.37066
2.36793
2.3654
2.36329
2.3611
2.35883
2.35735
2.35693
2.35791
2.36128
2.35954
2.36137
2.36371
2.36234
2.36184
2.35972
2.35908
2.35717
2.35491
2.35236
2.35101
2.34988
2.35095
2.34948
2.35389
2.36254
2.36321
2.36218
2.36165
2.35964
2.35835
2.35644
2.35429
2.35208
2.35104
2.35065
2.35204
2.35233
2.35646
2.36418
2.36349
2.36197
2.36102
2.35897
2.35761
2.35577
2.35376
2.3518
2.35065
2.35015
2.35096
2.35175
2.35504
2.36343
2.36208
2.36105
2.35995
2.35837
2.35687
2.35513
2.35333
2.35172
2.35078
2.35048
2.35122
2.3524
2.35526
2.36284
2.36109
2.35989
2.35859
2.35738
2.35602
2.35458
2.35308
2.35178
2.35107
2.35093
2.35182
2.35331
2.35613
2.3617
2.36001
2.35898
2.35809
2.35698
2.35578
2.35452
2.35321
2.35212
2.35159
2.35176
2.35267
2.35441
2.35726
2.36137
2.35995
2.35886
2.35811
2.35718
2.35603
2.35486
2.35371
2.35284
2.35242
2.35278
2.35433
2.35615
2.35871
2.36166
2.36049
2.35934
2.35859
2.35774
2.35669
2.35556
2.35449
2.35373
2.3534
2.35387
2.3552
2.35699
2.35964
2.3626
2.36145
2.36033
2.35956
2.35874
2.35769
2.35654
2.3554
2.3546
2.35432
2.35485
2.35622
2.35788
2.36015
2.36444
2.36274
2.36156
2.36069
2.3599
2.35886
2.35769
2.3564
2.35551
2.35523
2.35571
2.35702
2.35859
2.3605
2.36683
2.36479
2.36312
2.36207
2.36128
2.36035
2.35908
2.35777
2.35673
2.3564
2.35705
2.35838
2.35987
2.36109
2.37043
2.36737
2.36529
2.36364
2.36273
2.36185
2.36066
2.35937
2.3584
2.35806
2.35878
2.36019
2.36198
2.36275
2.37382
2.37006
2.36796
2.36601
2.36489
2.36392
2.36273
2.36161
2.36059
2.36019
2.36078
2.36181
2.36323
2.36249
2.37609
2.37266
2.37141
2.36932
2.36776
2.3668
2.36564
2.36468
2.36373
2.36336
2.36399
2.36555
2.36753
2.36838
2.35507
2.35835
2.35825
2.35695
2.35717
2.35651
2.35551
2.35402
2.35221
2.35054
2.34905
2.34863
2.34742
2.34853
2.35849
2.35905
2.35926
2.35814
2.35802
2.35701
2.35597
2.35464
2.35312
2.3521
2.35162
2.35199
2.35164
2.35393
2.36006
2.3603
2.35998
2.35895
2.35843
2.35728
2.35627
2.35515
2.35404
2.35327
2.35269
2.35279
2.35279
2.35476
2.36179
2.36149
2.36087
2.36026
2.3594
2.35833
2.35724
2.35606
2.35488
2.35397
2.35338
2.35358
2.35412
2.35581
2.36337
2.36268
2.36239
2.36172
2.36095
2.35984
2.35868
2.35737
2.35604
2.35491
2.35412
2.35443
2.35542
2.35724
2.36463
2.36428
2.36427
2.36377
2.3631
2.36202
2.36073
2.35923
2.35768
2.3564
2.35548
2.35575
2.35692
2.35921
2.36614
2.3662
2.36634
2.36591
2.36544
2.36441
2.36307
2.36143
2.35974
2.35835
2.35737
2.35766
2.35888
2.36108
2.36821
2.3685
2.36865
2.36836
2.36798
2.36698
2.36554
2.36373
2.36188
2.36041
2.35942
2.3597
2.36111
2.36353
2.37057
2.37086
2.37096
2.37077
2.37046
2.36952
2.36802
2.36605
2.36404
2.36249
2.36154
2.36185
2.36351
2.36595
2.37347
2.37357
2.37356
2.37335
2.37292
2.37196
2.37039
2.3683
2.36621
2.36465
2.36384
2.36423
2.36591
2.36832
2.37658
2.3764
2.37621
2.37585
2.37525
2.37428
2.3727
2.37064
2.36855
2.36696
2.3664
2.36686
2.36839
2.37036
2.38018
2.37935
2.3791
2.37845
2.37767
2.37653
2.37491
2.37289
2.37087
2.36935
2.36924
2.36995
2.37143
2.3727
2.38397
2.38272
2.38198
2.38125
2.38038
2.37906
2.37736
2.37549
2.37366
2.37247
2.37228
2.37281
2.37411
2.37356
2.3859
2.3856
2.38509
2.38415
2.38308
2.38182
2.38003
2.37828
2.37666
2.37591
2.37621
2.37764
2.37897
2.3784
2.35455
2.36758
2.37301
2.38503
2.3908
2.41048
2.33774
2.35125
2.3621
2.37966
2.38877
2.41001
2.33989
2.35314
2.36363
2.38144
2.39074
2.41392
2.34079
2.35211
2.36241
2.3797
2.38908
2.41295
2.34221
2.35281
2.36329
2.38025
2.38996
2.41336
2.34237
2.35148
2.36126
2.37659
2.38747
2.40698
2.34265
2.35074
2.35925
2.37351
2.38331
2.40307
2.34322
2.34973
2.35695
2.36952
2.37758
2.39844
2.34342
2.3489
2.35589
2.3686
2.3751
2.39578
2.34408
2.34924
2.35724
2.37056
2.37668
2.39754
2.3467
2.35278
2.36073
2.37423
2.38056
2.39947
2.35041
2.35609
2.36446
2.37889
2.38643
2.40488
2.35572
2.36338
2.37213
2.38636
2.3947
2.41337
2.3535
2.36232
2.37592
2.39559
2.4054
2.41597
2.36609
2.37665
2.37919
2.3867
2.38649
2.40015
2.3527
2.36197
2.36945
2.38235
2.38551
2.40529
2.35618
2.3651
2.37298
2.38766
2.3916
2.41172
2.35785
2.36561
2.37365
2.38848
2.39342
2.41519
2.36012
2.36785
2.37576
2.39097
2.39619
2.41654
2.36108
2.36812
2.37535
2.38877
2.39363
2.4119
2.3621
2.36887
2.37487
2.38648
2.39026
2.40868
2.3628
2.36869
2.37311
2.38244
2.38407
2.40267
2.36288
2.3677
2.37106
2.37931
2.37923
2.39899
2.36273
2.36606
2.36879
2.37678
2.37605
2.39611
2.36312
2.36563
2.36855
2.37608
2.37647
2.39376
2.36439
2.36613
2.3687
2.37625
2.37908
2.39547
2.36558
2.3683
2.37157
2.37962
2.38447
2.40191
2.35786
2.36157
2.36761
2.3834
2.39158
2.40331
2.35948
2.36601
2.36769
2.36736
2.37052
2.37189
2.34957
2.3526
2.35554
2.3645
2.36886
2.3846
2.35353
2.35618
2.36029
2.37252
2.38024
2.39897
2.35675
2.35907
2.36414
2.37648
2.38391
2.40197
2.35979
2.36296
2.36902
2.38234
2.39047
2.4157
2.36246
2.36665
2.3729
2.38589
2.39458
2.41673
2.36468
2.37018
2.37679
2.3895
2.39774
2.42097
2.36744
2.3732
2.37912
2.38986
2.39679
2.41936
2.37001
2.3755
2.38044
2.38892
2.39351
2.41839
2.37211
2.37665
2.38029
2.38663
2.38985
2.41328
2.37377
2.37698
2.38011
2.38548
2.38823
2.40841
2.37623
2.37791
2.3802
2.38424
2.38752
2.4035
2.37868
2.37865
2.38143
2.38639
2.39113
2.40529
2.37021
2.37178
2.37453
2.38232
2.39184
2.40594
2.37317
2.38713
2.39298
2.40549
2.41188
2.42343
2.35709
2.3722
2.38272
2.40069
2.40736
2.42865
2.36042
2.37486
2.38572
2.40477
2.41038
2.43584
2.36197
2.37442
2.38543
2.40395
2.4109
2.43483
2.36416
2.37622
2.38815
2.40656
2.41363
2.43638
2.36606
2.37742
2.389
2.40634
2.41372
2.43393
2.36839
2.3789
2.38962
2.40641
2.41336
2.43288
2.37011
2.37971
2.38925
2.40397
2.41027
2.42759
2.3717
2.3804
2.38819
2.40047
2.40536
2.42454
2.37319
2.38
2.38573
2.39595
2.40115
2.41957
2.37548
2.38104
2.38566
2.3934
2.39803
2.41437
2.37768
2.38098
2.38435
2.39063
2.39468
2.41565
2.38035
2.38395
2.38724
2.39383
2.39804
2.40917
2.37647
2.37956
2.38492
2.39521
2.40134
2.40777
2.37786
2.38707
2.38964
2.39837
2.40067
2.40961
2.36444
2.37388
2.37912
2.39217
2.39475
2.41329
2.36649
2.37499
2.38174
2.39736
2.39932
2.42332
2.36706
2.37462
2.38226
2.39713
2.40194
2.42222
2.36779
2.37555
2.38482
2.40088
2.40694
2.42446
2.36846
2.37684
2.38691
2.40274
2.40883
2.42204
2.36973
2.37808
2.38769
2.40287
2.40741
2.423
2.37032
2.37897
2.38819
2.40216
2.4071
2.41832
2.37188
2.37999
2.38828
2.39941
2.40234
2.41381
2.37287
2.37992
2.38655
2.39451
2.39688
2.40993
2.37444
2.38041
2.38568
2.39151
2.39309
2.40339
2.37579
2.38025
2.38397
2.38796
2.39015
2.39692
2.37737
2.38011
2.3827
2.38594
2.38834
2.39619
2.37265
2.3739
2.37598
2.38062
2.38472
2.39177
2.38744
2.39457
2.39783
2.40315
2.40432
2.41175
2.37782
2.38407
2.38797
2.39795
2.40234
2.41395
2.37879
2.38475
2.38949
2.40185
2.40743
2.42488
2.37886
2.3849
2.39119
2.40574
2.4143
2.43215
2.37977
2.38594
2.39429
2.41066
2.42114
2.43677
2.38062
2.38779
2.39707
2.4134
2.42413
2.43796
2.38244
2.38942
2.39944
2.41561
2.42565
2.4399
2.38452
2.39197
2.40151
2.41641
2.42458
2.43518
2.38644
2.39397
2.40259
2.4154
2.42209
2.43052
2.3878
2.3948
2.40209
2.41122
2.41632
2.42232
2.38887
2.39472
2.4007
2.40601
2.40885
2.41186
2.38986
2.39389
2.3982
2.4
2.40004
2.39855
2.39102
2.39164
2.39374
2.39335
2.39225
2.38834
2.3851
2.38382
2.38407
2.38221
2.38249
2.37696
2.38459
2.37837
2.37473
2.36501
2.35799
2.35404
2.38869
2.37728
2.37412
2.36774
2.36393
2.36161
2.39206
2.37863
2.3736
2.36636
2.36255
2.36075
2.40739
2.3817
2.37725
2.37028
2.36549
2.36238
2.41135
2.39092
2.3843
2.37463
2.36873
2.36407
2.41635
2.40035
2.39398
2.38146
2.37306
2.36594
2.41808
2.40822
2.39977
2.38567
2.37589
2.36766
2.42393
2.41111
2.40339
2.38893
2.37902
2.37014
2.42495
2.41059
2.40402
2.38983
2.38052
2.37201
2.42589
2.41066
2.40389
2.3905
2.38303
2.37523
2.42343
2.40527
2.40121
2.39007
2.38445
2.37717
2.42432
2.40131
2.40088
2.39128
2.38709
2.3797
2.41728
2.40142
2.39927
2.39049
2.38688
2.37905
2.41346
2.40602
2.40447
2.39875
2.39754
2.3892
2.36792
2.36223
2.35895
2.35386
2.35251
2.35618
2.37265
2.36627
2.36604
2.36383
2.36309
2.36551
2.37532
2.36945
2.36886
2.3673
2.36591
2.36628
2.38773
2.37883
2.37672
2.37309
2.36948
2.36722
2.39609
2.38563
2.38251
2.37699
2.37118
2.36685
2.40218
2.39414
2.38864
2.37975
2.3716
2.36591
2.40532
2.39794
2.39009
2.37978
2.3711
2.36505
2.40925
2.39977
2.39044
2.37911
2.37064
2.365
2.40918
2.39947
2.39012
2.3783
2.37048
2.36543
2.40846
2.39824
2.38925
2.37826
2.37199
2.36731
2.40377
2.39398
2.38736
2.37818
2.37335
2.36897
2.40198
2.39209
2.38758
2.37955
2.37624
2.37197
2.39599
2.38794
2.38555
2.37951
2.37763
2.3729
2.39517
2.39052
2.39038
2.38734
2.38639
2.38092
2.29702
2.31809
2.31897
2.32765
2.33505
2.34713
2.30485
2.32793
2.33523
2.3466
2.35212
2.36056
2.31316
2.33614
2.34449
2.35535
2.35745
2.36206
2.33072
2.34902
2.35595
2.36311
2.36193
2.36402
2.34916
2.36168
2.36495
2.36785
2.36477
2.36489
2.365
2.37373
2.37221
2.37132
2.36681
2.36562
2.37562
2.38175
2.37673
2.37323
2.36816
2.36665
2.38204
2.38697
2.3791
2.37458
2.36974
2.3685
2.38362
2.38867
2.37932
2.37537
2.37176
2.37089
2.3827
2.38829
2.37914
2.37647
2.37446
2.37368
2.37966
2.38581
2.37868
2.37774
2.37726
2.37671
2.37685
2.38455
2.38008
2.38048
2.38069
2.38027
2.37567
2.38324
2.38101
2.383
2.38411
2.38321
2.37893
2.38602
2.3883
2.39104
2.3917
2.3901
2.39887
2.38681
2.37671
2.35954
2.34562
2.3371
2.39176
2.37647
2.36746
2.35453
2.34545
2.33899
2.38491
2.36828
2.3604
2.34792
2.33926
2.33394
2.38106
2.36324
2.35689
2.34572
2.33729
2.33156
2.38105
2.36165
2.35517
2.34364
2.33601
2.33201
2.38331
2.364
2.35643
2.34559
2.3386
2.33392
2.38703
2.36832
2.3592
2.34851
2.34217
2.33766
2.39262
2.37227
2.3645
2.35288
2.34675
2.3419
2.39258
2.37401
2.36801
2.35606
2.3508
2.34549
2.39614
2.37717
2.37063
2.35789
2.3535
2.3492
2.39436
2.37483
2.37042
2.35885
2.35623
2.35204
2.39706
2.37655
2.37313
2.36218
2.35936
2.35391
2.3955
2.372
2.37248
2.36344
2.36001
2.35351
2.39132
2.38086
2.3816
2.37631
2.37455
2.36708
2.38884
2.37868
2.37225
2.35697
2.34984
2.347
2.38353
2.36973
2.36732
2.35933
2.3554
2.35411
2.37973
2.36152
2.35948
2.3537
2.35157
2.35179
2.37686
2.35983
2.35971
2.35389
2.35123
2.3509
2.37927
2.36127
2.36075
2.35506
2.35289
2.35213
2.38265
2.3666
2.36481
2.35906
2.35592
2.3537
2.38426
2.37336
2.36971
2.36298
2.35912
2.35639
2.38991
2.37988
2.37494
2.36607
2.36174
2.35851
2.39315
2.38226
2.37651
2.36657
2.36308
2.36019
2.39442
2.38159
2.37614
2.36565
2.36235
2.36
2.39093
2.37748
2.3733
2.36412
2.36247
2.36135
2.38804
2.37475
2.37136
2.3634
2.36153
2.36044
2.38202
2.36788
2.36695
2.36073
2.35964
2.35861
2.37475
2.36957
2.37045
2.36984
2.3707
2.36693
2.35185
2.35105
2.33872
2.33188
2.32905
2.33595
2.34466
2.34699
2.34022
2.34138
2.34254
2.34885
2.33548
2.3397
2.3354
2.33821
2.34082
2.34771
2.33952
2.33996
2.3382
2.3401
2.34246
2.348
2.3429
2.34336
2.34167
2.34406
2.34561
2.34961
2.3467
2.35081
2.34798
2.34956
2.34945
2.3516
2.35006
2.3564
2.35167
2.35347
2.35245
2.35363
2.35432
2.35929
2.35404
2.35565
2.3545
2.35522
2.35353
2.35913
2.35383
2.3553
2.35481
2.35596
2.35137
2.35757
2.35222
2.35377
2.35421
2.35612
2.34431
2.35223
2.34818
2.35059
2.35256
2.35544
2.33644
2.34591
2.3434
2.34774
2.35111
2.35497
2.31934
2.33497
2.33527
2.34329
2.34881
2.35304
2.30694
2.32716
2.33621
2.34912
2.35457
2.35815
2.37776
2.3767
2.37297
2.36974
2.36752
2.36481
2.36269
2.36037
2.35828
2.35617
2.35419
2.35287
2.35202
2.35274
2.37815
2.37522
2.37191
2.36922
2.36689
2.36451
2.3624
2.36013
2.35796
2.35586
2.35411
2.35332
2.3535
2.35542
2.37751
2.37445
2.3716
2.3692
2.36702
2.36489
2.36289
2.36082
2.35864
2.35641
2.35458
2.35383
2.35378
2.35558
2.37687
2.37439
2.37209
2.36993
2.36803
2.36606
2.36404
2.36188
2.35957
2.35721
2.35532
2.35438
2.35451
2.35608
2.37705
2.37511
2.37332
2.37153
2.3698
2.36792
2.36588
2.36361
2.36118
2.35864
2.35662
2.35554
2.35542
2.35669
2.378
2.37641
2.37497
2.37349
2.37199
2.37022
2.36818
2.36579
2.36323
2.36056
2.35839
2.35721
2.35698
2.35801
2.37939
2.37799
2.37685
2.37565
2.37435
2.37268
2.37063
2.36814
2.36548
2.36275
2.3605
2.35918
2.35884
2.35979
2.38129
2.37999
2.379
2.37798
2.37679
2.37515
2.37304
2.37045
2.36769
2.36491
2.3626
2.36114
2.36079
2.36176
2.38334
2.38212
2.38121
2.3803
2.37918
2.37753
2.37533
2.37262
2.36974
2.36691
2.3646
2.3631
2.36295
2.36408
2.38636
2.38494
2.3838
2.38276
2.38154
2.37979
2.37745
2.37461
2.37163
2.36875
2.3665
2.36505
2.36517
2.36647
2.38943
2.38786
2.38654
2.38529
2.38386
2.38193
2.37943
2.37646
2.3734
2.37056
2.36839
2.36704
2.36747
2.36873
2.3937
2.39133
2.38959
2.38802
2.38628
2.38414
2.38144
2.37835
2.37519
2.37235
2.3703
2.36933
2.36997
2.3714
2.39793
2.39533
2.39304
2.39097
2.38878
2.38632
2.38339
2.38023
2.37705
2.37427
2.37235
2.37168
2.37252
2.37339
2.4025
2.39988
2.3972
2.39469
2.39187
2.38908
2.38609
2.38305
2.38015
2.37779
2.37638
2.37613
2.37685
2.37649
2.38686
2.38323
2.37905
2.37456
2.37151
2.36819
2.36509
2.36201
2.35912
2.35659
2.35448
2.35327
2.35232
2.35217
2.38639
2.38205
2.37829
2.37476
2.37182
2.36871
2.36561
2.36247
2.35934
2.35646
2.35398
2.35241
2.35153
2.35244
2.38562
2.3817
2.37847
2.37535
2.37261
2.3698
2.36692
2.36394
2.36086
2.35772
2.35485
2.35259
2.3514
2.35264
2.38545
2.38196
2.37924
2.37664
2.3742
2.37161
2.36879
2.36579
2.36262
2.35936
2.35636
2.35388
2.3523
2.35278
2.38576
2.38271
2.38052
2.37837
2.37616
2.37369
2.37092
2.36789
2.36467
2.36133
2.3582
2.3556
2.35398
2.35393
2.38673
2.38402
2.38223
2.38043
2.37845
2.3761
2.37336
2.37028
2.36696
2.36354
2.36032
2.35767
2.35592
2.35553
2.38814
2.38575
2.38423
2.38271
2.3809
2.37862
2.3759
2.37275
2.36934
2.36584
2.36256
2.35985
2.3581
2.35751
2.39007
2.38793
2.38649
2.38508
2.38338
2.38113
2.37838
2.37516
2.37165
2.36808
2.36476
2.362
2.36023
2.3596
2.39236
2.3904
2.38897
2.38757
2.38584
2.38354
2.3807
2.37736
2.37374
2.37013
2.36679
2.36406
2.36235
2.36182
2.39538
2.39332
2.39172
2.39017
2.3883
2.38584
2.38282
2.37933
2.37561
2.37195
2.36864
2.36599
2.36441
2.36405
2.39869
2.39648
2.39462
2.39283
2.39068
2.38795
2.38469
2.38102
2.37722
2.37359
2.37041
2.36788
2.36655
2.36625
2.40287
2.40005
2.39765
2.39554
2.39305
2.39005
2.38656
2.38276
2.3789
2.3753
2.37228
2.36993
2.36896
2.36869
2.40678
2.40376
2.40087
2.39836
2.39543
2.39211
2.38844
2.38456
2.38073
2.37724
2.37439
2.37241
2.3717
2.37128
2.41186
2.40834
2.40471
2.40151
2.39807
2.39455
2.39092
2.38721
2.3836
2.38041
2.37776
2.37627
2.37531
2.37458
2.40234
2.39757
2.39284
2.38776
2.38348
2.37913
2.37466
2.3703
2.36629
2.36277
2.35992
2.35762
2.35584
2.35467
2.40108
2.3959
2.39177
2.38766
2.38367
2.37949
2.37508
2.37073
2.36654
2.36262
2.35924
2.35658
2.35467
2.35402
2.39928
2.39469
2.3912
2.38769
2.38409
2.38027
2.37617
2.37201
2.36787
2.36379
2.36002
2.35675
2.3543
2.354
2.39841
2.39442
2.39135
2.38832
2.38513
2.38161
2.37772
2.37364
2.36946
2.36525
2.36125
2.35775
2.35501
2.35387
2.39832
2.39484
2.3922
2.38954
2.38663
2.38331
2.37955
2.37549
2.37126
2.36697
2.36285
2.35922
2.35629
2.3548
2.39894
2.39591
2.39358
2.39118
2.38844
2.38522
2.38153
2.37747
2.37317
2.36883
2.36466
2.36099
2.3579
2.35623
2.40016
2.39745
2.39532
2.3931
2.39046
2.38727
2.3836
2.37952
2.37516
2.37077
2.36658
2.36291
2.35983
2.35799
2.40184
2.39928
2.39718
2.39503
2.39243
2.38928
2.38561
2.38152
2.37713
2.37271
2.36854
2.36489
2.36189
2.35994
2.40389
2.40142
2.39929
2.39707
2.39441
2.39119
2.38745
2.3833
2.37891
2.37451
2.3704
2.36683
2.36399
2.3621
2.40633
2.40373
2.40142
2.39906
2.39626
2.3929
2.38905
2.38485
2.38047
2.37614
2.37212
2.36864
2.36594
2.36415
2.40909
2.40629
2.40371
2.40107
2.398
2.39439
2.39035
2.38604
2.38168
2.37745
2.37363
2.37029
2.36778
2.36607
2.41218
2.40884
2.40587
2.40295
2.39962
2.39579
2.39158
2.3872
2.38289
2.37878
2.37513
2.37194
2.36948
2.36791
2.41565
2.41195
2.40858
2.4052
2.40144
2.39729
2.3929
2.38844
2.38414
2.3801
2.37654
2.37358
2.37139
2.36977
2.41927
2.41507
2.41104
2.40721
2.4032
2.39902
2.39472
2.39039
2.38622
2.38231
2.37887
2.37598
2.37377
2.37216
2.41229
2.40816
2.40357
2.39894
2.39421
2.38935
2.38448
2.37957
2.37465
2.37004
2.36595
2.36255
2.35987
2.35778
2.41086
2.40645
2.40227
2.39817
2.39394
2.38936
2.38451
2.37958
2.37462
2.36997
2.36569
2.36209
2.35908
2.35729
2.40891
2.40494
2.40132
2.39767
2.39377
2.38947
2.38483
2.38004
2.37525
2.37068
2.36634
2.36247
2.35914
2.3572
2.40823
2.40453
2.40131
2.39795
2.39427
2.39013
2.38565
2.38096
2.3762
2.37156
2.36715
2.36318
2.3597
2.35729
2.40825
2.40485
2.40192
2.39882
2.39534
2.39131
2.38684
2.38211
2.37731
2.37263
2.36816
2.36412
2.3605
2.35777
2.40889
2.40578
2.40306
2.40011
2.39672
2.39276
2.3883
2.38353
2.37867
2.3739
2.36938
2.36528
2.36159
2.35869
2.41002
2.40714
2.40457
2.4017
2.39832
2.39436
2.38991
2.38512
2.38021
2.37536
2.3708
2.36669
2.36299
2.36007
2.41148
2.4087
2.40615
2.40328
2.39989
2.39593
2.39148
2.38669
2.38178
2.37691
2.37233
2.36824
2.36462
2.36164
2.4132
2.41041
2.40779
2.40479
2.40131
2.39728
2.3928
2.38804
2.38318
2.37838
2.37388
2.36986
2.36639
2.36342
2.41509
2.41212
2.40929
2.40613
2.40253
2.39842
2.39393
2.38922
2.38445
2.37978
2.3754
2.37145
2.36808
2.36513
2.41712
2.41387
2.41072
2.40729
2.40349
2.39928
2.39475
2.39005
2.38539
2.3809
2.37671
2.37287
2.36958
2.36668
2.41917
2.41544
2.41194
2.40828
2.40432
2.40001
2.39545
2.39082
2.38629
2.38195
2.37786
2.37424
2.37086
2.36807
2.42175
2.41756
2.41366
2.40961
2.40532
2.4008
2.39618
2.39156
2.38711
2.38283
2.37888
2.37538
2.37213
2.36923
2.42387
2.41904
2.4147
2.41056
2.40626
2.40186
2.39738
2.39287
2.38852
2.38429
2.38053
2.37695
2.37373
2.3708
2.42172
2.41698
2.41236
2.40798
2.40355
2.39892
2.39401
2.38892
2.38373
2.37856
2.37373
2.36912
2.36537
2.36252
2.42017
2.41569
2.41139
2.40718
2.40282
2.39825
2.39344
2.38845
2.38337
2.37827
2.37342
2.36896
2.36519
2.36259
2.41866
2.41453
2.41054
2.4066
2.40241
2.39794
2.39323
2.3883
2.38333
2.37841
2.37369
2.36924
2.36546
2.36248
2.41819
2.41433
2.4107
2.40699
2.40292
2.39843
2.39361
2.38859
2.38354
2.37861
2.37391
2.36958
2.36572
2.36254
2.41811
2.41461
2.41124
2.40775
2.40382
2.39935
2.39445
2.38928
2.38408
2.37906
2.37434
2.36999
2.36604
2.36269
2.41858
2.41537
2.41226
2.40889
2.40498
2.40048
2.39551
2.39023
2.38489
2.37976
2.37493
2.37055
2.36648
2.36309
2.41954
2.41652
2.41353
2.41014
2.40617
2.40159
2.39656
2.39124
2.38584
2.38063
2.37572
2.37126
2.36716
2.36365
2.42072
2.41776
2.41475
2.41126
2.40721
2.40257
2.3975
2.3922
2.38681
2.3816
2.37665
2.37216
2.36809
2.36454
2.42203
2.41895
2.41579
2.4121
2.4079
2.40319
2.39816
2.39297
2.38768
2.38255
2.37767
2.37325
2.36926
2.36578
2.42328
2.41996
2.41654
2.4126
2.40826
2.40353
2.39858
2.39355
2.38849
2.38353
2.37881
2.3745
2.37058
2.36718
2.42444
2.42077
2.41701
2.41283
2.40839
2.40368
2.39883
2.39398
2.38914
2.38443
2.37993
2.37578
2.37198
2.36859
2.42542
2.42127
2.41718
2.41285
2.40842
2.40379
2.39911
2.39441
2.38978
2.38529
2.38096
2.37694
2.37321
2.36966
2.42662
2.42204
2.41766
2.41314
2.40861
2.40395
2.3993
2.39469
2.39022
2.38586
2.3817
2.37793
2.37421
2.37043
2.42703
2.42185
2.41744
2.41311
2.40871
2.40423
2.39982
2.3954
2.39108
2.38678
2.38282
2.37886
2.37499
2.37127
2.43011
2.42493
2.42001
2.41533
2.41076
2.40623
2.40164
2.39679
2.3918
2.3867
2.38152
2.37648
2.37144
2.36767
2.42885
2.42429
2.41949
2.41476
2.41
2.40527
2.40058
2.39582
2.39093
2.38599
2.38097
2.37618
2.3713
2.36767
2.42759
2.42318
2.41872
2.41428
2.40971
2.40506
2.40036
2.39554
2.39065
2.38578
2.38091
2.37627
2.37159
2.36804
2.42703
2.42302
2.41898
2.41477
2.41029
2.40561
2.40074
2.39573
2.39069
2.38572
2.38086
2.37618
2.37174
2.36788
2.42684
2.42316
2.41939
2.41542
2.41112
2.40643
2.40143
2.39622
2.39096
2.38586
2.38093
2.37623
2.37178
2.36786
2.42708
2.42365
2.42016
2.41637
2.41206
2.40731
2.40219
2.39684
2.3914
2.38613
2.38107
2.37629
2.3718
2.36783
2.42773
2.42449
2.421
2.41713
2.4128
2.40797
2.40279
2.39737
2.39184
2.38646
2.38126
2.37639
2.37183
2.36778
2.42853
2.42517
2.42161
2.41757
2.41314
2.40828
2.4031
2.39773
2.3922
2.38678
2.38149
2.37656
2.37196
2.36787
2.42935
2.42573
2.42195
2.41769
2.41311
2.40821
2.40309
2.39784
2.39245
2.38712
2.38184
2.37692
2.37233
2.36828
2.42981
2.42594
2.42197
2.41751
2.41279
2.40787
2.40287
2.39783
2.39268
2.38752
2.38237
2.37754
2.37302
2.36903
2.42998
2.42579
2.42157
2.41693
2.4122
2.40739
2.40257
2.39777
2.3929
2.38797
2.38304
2.37834
2.37392
2.37
2.42964
2.42511
2.42074
2.41613
2.4116
2.407
2.40241
2.39782
2.39318
2.38845
2.38372
2.37918
2.37487
2.37082
2.42939
2.42463
2.42012
2.4156
2.41121
2.40675
2.40228
2.39776
2.39327
2.38874
2.38422
2.37987
2.3757
2.37151
2.42842
2.42341
2.41916
2.41499
2.41084
2.40661
2.40244
2.39813
2.39375
2.38923
2.38486
2.38058
2.37628
2.37198
2.43744
2.43182
2.42638
2.42116
2.41626
2.41167
2.40737
2.40306
2.39868
2.39409
2.38924
2.38408
2.37891
2.3738
2.43611
2.43127
2.4262
2.42106
2.41594
2.41106
2.40646
2.40206
2.39767
2.39316
2.38843
2.38345
2.37857
2.37363
2.43496
2.43043
2.42559
2.4207
2.41579
2.41102
2.4064
2.4019
2.39741
2.39286
2.38814
2.38332
2.37858
2.37405
2.43445
2.43032
2.42589
2.4212
2.4164
2.41163
2.40688
2.4022
2.39753
2.39283
2.38801
2.38316
2.37832
2.37386
2.43422
2.43038
2.42623
2.42182
2.41719
2.41244
2.40757
2.40267
2.39777
2.39287
2.38796
2.38305
2.37817
2.37374
2.43431
2.43061
2.42665
2.42247
2.41789
2.41311
2.40816
2.40311
2.39801
2.39293
2.38786
2.38284
2.3779
2.37337
2.43456
2.43089
2.42699
2.42266
2.41809
2.4133
2.40835
2.40325
2.39804
2.39281
2.38758
2.38244
2.37742
2.37277
2.4348
2.43095
2.42692
2.42252
2.41793
2.41312
2.40814
2.40303
2.39778
2.39246
2.38709
2.38186
2.37679
2.37211
2.4349
2.43074
2.42653
2.42199
2.41733
2.41253
2.40763
2.40262
2.39741
2.39206
2.38661
2.38133
2.37624
2.37163
2.43441
2.43007
2.42575
2.42109
2.41641
2.41168
2.40694
2.40213
2.39707
2.39177
2.38633
2.38102
2.37598
2.37144
2.43347
2.42898
2.4246
2.41991
2.41529
2.4107
2.40616
2.40156
2.39672
2.39158
2.38627
2.38105
2.37606
2.37159
2.43192
2.42739
2.42312
2.41865
2.4143
2.40995
2.40559
2.40113
2.39645
2.39147
2.38633
2.38125
2.37636
2.37186
2.43078
2.42624
2.42198
2.41775
2.41371
2.40955
2.40528
2.40081
2.39619
2.39135
2.38642
2.38153
2.37681
2.37215
2.42915
2.42465
2.42078
2.41691
2.41319
2.40928
2.40524
2.40085
2.39624
2.39142
2.38665
2.38187
2.37723
2.37243
2.44314
2.4377
2.43219
2.42671
2.42151
2.41668
2.41238
2.40831
2.40427
2.40008
2.39563
2.39079
2.38602
2.38027
2.44181
2.43708
2.43201
2.4267
2.42145
2.41646
2.4118
2.40751
2.40339
2.39924
2.39491
2.39013
2.38518
2.38005
2.44097
2.43663
2.43175
2.42659
2.42148
2.41657
2.41194
2.40762
2.4034
2.39917
2.39473
2.39003
2.38512
2.38024
2.44057
2.43654
2.43198
2.42705
2.42207
2.41724
2.41256
2.4081
2.40375
2.39938
2.3948
2.39001
2.38493
2.38
2.44034
2.43649
2.43216
2.42749
2.42271
2.41796
2.41325
2.40865
2.4041
2.39957
2.39488
2.38999
2.38483
2.37993
2.4401
2.43631
2.43215
2.42771
2.42309
2.4184
2.41367
2.40897
2.4043
2.39963
2.39481
2.38979
2.38459
2.37956
2.43978
2.43599
2.43194
2.42754
2.42295
2.41832
2.41365
2.40894
2.40418
2.39938
2.39441
2.38927
2.38398
2.37879
2.43913
2.43515
2.43108
2.42675
2.42229
2.41774
2.41313
2.40842
2.4036
2.39868
2.39357
2.38832
2.38296
2.37768
2.43795
2.43383
2.42978
2.42549
2.42115
2.41675
2.41227
2.40765
2.40279
2.39773
2.39246
2.38709
2.38169
2.37649
2.43633
2.43217
2.42815
2.42391
2.4197
2.41548
2.41121
2.40675
2.40192
2.39674
2.39132
2.38583
2.38038
2.37522
2.43447
2.43034
2.42639
2.42226
2.4182
2.41418
2.41007
2.40576
2.401
2.39579
2.39028
2.38469
2.37922
2.37421
2.43237
2.42839
2.42463
2.42072
2.41689
2.41302
2.40901
2.40472
2.39998
2.3948
2.38935
2.38387
2.37849
2.37351
2.4311
2.42714
2.42345
2.41965
2.41596
2.41215
2.40808
2.40369
2.39894
2.39385
2.38857
2.38331
2.3781
2.37307
2.42943
2.42561
2.42234
2.41885
2.4154
2.41165
2.40751
2.40297
2.39812
2.39304
2.38797
2.38283
2.37802
2.37282
2.44766
2.44324
2.43818
2.43287
2.42764
2.42266
2.41813
2.4139
2.40982
2.40558
2.40116
2.39646
2.3919
2.38617
2.44684
2.44264
2.43793
2.4327
2.42744
2.42236
2.41759
2.41312
2.40888
2.40472
2.40044
2.39584
2.39107
2.38589
2.44622
2.44235
2.43773
2.43259
2.42739
2.42235
2.41758
2.41317
2.40892
2.40471
2.40037
2.3958
2.39092
2.38588
2.44586
2.4421
2.43766
2.43269
2.42764
2.42271
2.41798
2.41351
2.40918
2.40492
2.40047
2.39581
2.39072
2.38556
2.44536
2.44162
2.43735
2.43263
2.4278
2.42301
2.41835
2.41385
2.40945
2.4051
2.40056
2.39578
2.39058
2.38538
2.44453
2.44082
2.43672
2.43229
2.42769
2.42304
2.41843
2.41393
2.40949
2.40508
2.40046
2.39558
2.39029
2.38496
2.44332
2.43963
2.43566
2.4314
2.42705
2.42264
2.41815
2.41366
2.40921
2.40474
2.40003
2.39503
2.38967
2.3842
2.44152
2.43776
2.43397
2.42997
2.42584
2.42163
2.41732
2.41292
2.40847
2.40392
2.3991
2.394
2.38857
2.38301
2.43939
2.43566
2.43201
2.42819
2.42428
2.42029
2.41616
2.41186
2.40738
2.4027
2.39774
2.39252
2.38706
2.38158
2.43703
2.43334
2.42979
2.42617
2.42249
2.41873
2.4148
2.41062
2.40612
2.4013
2.39618
2.39083
2.38535
2.37994
2.43476
2.43107
2.42762
2.42414
2.42067
2.41712
2.41334
2.40923
2.40468
2.39973
2.39446
2.38901
2.38349
2.37825
2.43253
2.42899
2.4257
2.42234
2.419
2.41557
2.41183
2.40771
2.40311
2.39808
2.39275
2.38733
2.38194
2.37678
2.43133
2.42774
2.42444
2.42099
2.4176
2.41411
2.41021
2.40597
2.4013
2.39628
2.39103
2.38576
2.38039
2.37528
2.4297
2.4262
2.42331
2.41992
2.41649
2.41288
2.40881
2.40437
2.39956
2.39451
2.38943
2.3843
2.37942
2.37417
2.38551
2.39257
2.39708
2.39977
2.41301
2.43347
2.37595
2.37866
2.37999
2.38527
2.40446
2.43312
2.37383
2.37593
2.37752
2.38428
2.40389
2.4357
2.37018
2.37171
2.37309
2.37985
2.40005
2.43031
2.368
2.36919
2.37075
2.37668
2.3953
2.42055
2.36501
2.36612
2.36796
2.37225
2.38801
2.40642
2.36294
2.36407
2.36618
2.36862
2.3804
2.39202
2.36075
2.36175
2.36387
2.36463
2.37259
2.37971
2.35875
2.35903
2.36113
2.36086
2.36602
2.37016
2.35658
2.35561
2.35698
2.35621
2.36145
2.36748
2.35477
2.35246
2.35239
2.35138
2.35798
2.36765
2.35377
2.3498
2.34827
2.34719
2.35557
2.36645
2.35455
2.34974
2.34814
2.34751
2.35853
2.37012
2.34311
2.33611
2.3357
2.34005
2.35712
2.37422
2.39469
2.40383
2.41199
2.41875
2.42587
2.44059
2.38483
2.39047
2.39561
2.40462
2.41801
2.4378
2.38116
2.38575
2.39112
2.40057
2.41551
2.4391
2.37609
2.37958
2.38428
2.39405
2.41062
2.43563
2.37278
2.37552
2.38027
2.39005
2.40619
2.42937
2.36902
2.37119
2.37619
2.38557
2.39954
2.41815
2.36582
2.36791
2.37336
2.38182
2.39265
2.40581
2.36269
2.36493
2.37053
2.37731
2.38477
2.39365
2.36013
2.36253
2.36799
2.37279
2.3773
2.38327
2.35806
2.36009
2.36505
2.36771
2.37081
2.37645
2.35671
2.3577
2.36168
2.36213
2.3648
2.3725
2.35565
2.35512
2.35716
2.35672
2.35974
2.36871
2.35623
2.35394
2.35439
2.35392
2.35877
2.36855
2.347
2.34228
2.34217
2.34386
2.35228
2.36636
2.40994
2.42003
2.43002
2.43892
2.44637
2.45645
2.40086
2.40809
2.4156
2.42419
2.43513
2.45041
2.3963
2.40297
2.40985
2.41823
2.42928
2.44757
2.38973
2.39527
2.40048
2.40892
2.42173
2.44258
2.38465
2.38937
2.39359
2.40244
2.41589
2.43672
2.37939
2.38324
2.38678
2.39594
2.40858
2.42644
2.37464
2.37787
2.38146
2.39042
2.40091
2.41414
2.37038
2.37306
2.37715
2.38514
2.39316
2.40188
2.36669
2.36912
2.37407
2.38087
2.38744
2.39344
2.36365
2.36599
2.37162
2.3772
2.38305
2.38846
2.3616
2.36377
2.36972
2.37383
2.37934
2.38574
2.36025
2.36159
2.36661
2.36874
2.37321
2.38026
2.3606
2.35994
2.36341
2.36396
2.36817
2.37527
2.35267
2.35066
2.35204
2.35296
2.35742
2.36641
2.41927
2.42665
2.43465
2.44413
2.45168
2.46047
2.41261
2.41949
2.42662
2.43573
2.44429
2.45532
2.40817
2.41465
2.42143
2.42917
2.43713
2.44897
2.40214
2.40732
2.41276
2.41925
2.42759
2.44156
2.39659
2.40053
2.4045
2.41003
2.41871
2.43431
2.39066
2.3934
2.39603
2.4012
2.41002
2.4251
2.38492
2.38697
2.38892
2.39421
2.40258
2.41515
2.37939
2.38096
2.38279
2.38822
2.39548
2.4047
2.37432
2.37551
2.37774
2.38322
2.38945
2.39619
2.3699
2.3707
2.37367
2.37872
2.38458
2.39024
2.36641
2.367
2.37091
2.37533
2.38175
2.38772
2.36382
2.36403
2.36841
2.37184
2.37769
2.38342
2.36278
2.36245