/*--------------------------------*- C++ -*----------------------------------*\
| =========                 |                                                 |
| \\      /  F ield         | OpenFOAM: The Open Source CFD Toolbox           |
|  \\    /   O peration     | Version:  v2106                                 |
|   \\  /    A nd           | Website:  www.openfoam.com                      |
|    \\/     M anipulation  |                                                 |
\*---------------------------------------------------------------------------*/
FoamFile
{
    version     2.0;
    format      ascii;
    arch        "LSB;label=32;scalar=64";
    class       volScalarField;
    location    "0.000188";
    object      p;
}
// * * * * * * * * * * * * * * * * * * * * * * * * * * * * * * * * * * * * * //

dimensions      [1 -1 -2 0 0 0 0];

internalField   nonuniform List<scalar> 
17924
(
241930
242037
242134
242220
241336
241441
241537
241623
241702
241773
241839
241402
241495
241595
241685
241770
241846
241917
241476
241571
241671
241761
241846
241923
241995
241548
241641
241740
241830
241916
241995
242069
241620
241714
241812
241901
241987
242065
242139
241693
241785
241879
241966
242050
242129
242202
241763
241852
241942
242027
242108
242185
242257
241830
241915
241999
242080
242158
242232
242303
241889
241969
242047
242124
242198
242269
242337
241942
242017
242087
242159
242228
242295
242360
241987
242056
242118
242184
242247
242309
242369
242024
242085
242138
242195
242251
242310
242368
242051
242105
242149
242200
242250
242302
242354
242073
242116
242151
242195
242237
242284
242331
240529
240616
240702
240781
240858
240930
240999
241064
241125
241183
241238
241289
241339
241389
240623
240698
240784
240865
240944
241018
241089
241157
241221
241281
241338
241392
241444
241503
240724
240797
240882
240960
241037
241110
241180
241247
241311
241371
241429
241484
241537
241595
240820
240890
240972
241048
241125
241198
241268
241336
241401
241463
241522
241579
241634
241691
240914
240984
241062
241136
241211
241283
241353
241420
241486
241549
241609
241668
241724
241779
241006
241073
241148
241219
241292
241363
241433
241501
241568
241632
241695
241755
241813
241868
241092
241157
241227
241296
241367
241437
241507
241575
241643
241709
241774
241835
241896
241951
241174
241236
241302
241368
241437
241506
241576
241645
241714
241781
241848
241912
241975
242033
241247
241307
241368
241432
241499
241567
241637
241707
241778
241848
241917
241983
242049
242110
241315
241374
241430
241491
241555
241623
241692
241763
241836
241907
241979
242049
242119
242183
241374
241431
241482
241542
241603
241670
241740
241813
241887
241962
242037
242111
242184
242252
241426
241481
241528
241586
241646
241713
241783
241857
241933
242010
242088
242165
242243
242317
241470
241523
241565
241622
241681
241748
241819
241895
241974
242055
242137
242220
242301
242385
241505
241555
241593
241648
241708
241776
241849
241927
242009
242094
242180
242269
242355
242448
239587
239642
239706
239771
239839
239909
239981
240054
240126
240197
240267
240335
240400
240469
239704
239747
239811
239872
239939
240007
240080
240153
240226
240299
240370
240441
240507
240583
239822
239863
239923
239981
240044
240109
240179
240250
240323
240395
240466
240538
240605
240680
239936
239974
240030
240085
240146
240210
240279
240351
240424
240497
240570
240643
240711
240786
240045
240083
240136
240189
240248
240311
240380
240450
240523
240598
240671
240745
240815
240890
240154
240191
240241
240291
240350
240413
240481
240552
240626
240702
240777
240852
240925
240999
240257
240294
240341
240392
240450
240513
240582
240654
240729
240806
240883
240960
241035
241108
240359
240396
240441
240492
240550
240615
240684
240758
240835
240913
240993
241071
241149
241222
240452
240491
240535
240588
240647
240714
240786
240862
240942
241022
241104
241183
241265
241337
240544
240585
240629
240685
240746
240815
240889
240968
241050
241132
241218
241299
241384
241456
240628
240672
240718
240776
240840
240913
240991
241074
241160
241246
241334
241417
241506
241576
240710
240759
240807
240869
240937
241013
241094
241180
241268
241357
241447
241533
241625
241699
240782
240837
240887
240953
241026
241107
241194
241284
241378
241472
241567
241657
241750
241828
240852
240912
240969
241041
241118
241203
241293
241385
241481
241576
241672
241766
241863
241957
238755
238765
238801
238841
238891
238950
239014
239084
239157
239232
239306
239380
239450
239525
238887
238885
238917
238954
239003
239059
239122
239191
239264
239339
239414
239489
239558
239638
239011
239008
239039
239074
239121
239174
239235
239301
239371
239444
239518
239593
239662
239741
239135
239134
239162
239195
239241
239293
239353
239418
239487
239560
239634
239709
239779
239858
239252
239259
239286
239319
239364
239416
239475
239539
239607
239679
239752
239828
239899
239977
239371
239385
239411
239447
239492
239544
239603
239667
239735
239807
239881
239956
240029
240106
239490
239509
239537
239575
239622
239675
239735
239799
239868
239940
240014
240089
240163
240237
239611
239635
239665
239707
239755
239810
239871
239937
240008
240080
240155
240230
240307
240378
239729
239757
239792
239837
239889
239948
240011
240079
240151
240224
240301
240375
240453
240521
239847
239881
239921
239971
240026
240089
240155
240225
240299
240374
240452
240526
240607
240670
239958
240000
240044
240101
240161
240228
240299
240373
240450
240527
240607
240681
240763
240821
240071
240121
240172
240234
240300
240371
240446
240523
240602
240680
240761
240836
240920
240978
240173
240231
240290
240358
240432
240509
240590
240672
240755
240837
240921
240998
241082
241139
240283
240351
240416
240491
240570
240651
240734
240818
240902
240985
241068
241147
241230
241301
238260
238245
238249
238264
238288
238320
238358
238402
238450
238503
238559
238618
238675
238739
238387
238362
238368
238382
238404
238435
238471
238514
238562
238614
238668
238726
238781
238847
238503
238479
238486
238502
238525
238555
238590
238632
238677
238726
238778
238835
238888
238953
238620
238603
238611
238627
238650
238680
238715
238756
238801
238850
238901
238957
239009
239071
238736
238728
238738
238755
238779
238810
238846
238886
238931
238979
239029
239084
239136
239195
238857
238857
238869
238888
238913
238945
238981
239023
239068
239116
239166
239220
239272
239330
238977
238985
239001
239023
239050
239084
239122
239164
239210
239258
239308
239360
239414
239468
239101
239115
239135
239160
239191
239226
239267
239311
239357
239406
239457
239508
239563
239613
239223
239244
239268
239298
239333
239372
239415
239460
239508
239556
239608
239659
239715
239761
239347
239375
239403
239438
239477
239520
239565
239613
239662
239711
239764
239815
239872
239914
239468
239503
239536
239577
239621
239668
239717
239767
239818
239868
239921
239972
240030
240066
239592
239634
239673
239719
239768
239819
239871
239923
239975
240027
240081
240133
240192
240225
239708
239756
239803
239855
239910
239966
240023
240079
240134
240188
240243
240295
240353
240385
239836
239890
239943
239999
240058
240117
240176
240234
240291
240346
240401
240453
240509
240549
238098
238069
238057
238050
238049
238051
238058
238071
238087
238108
238132
238161
238192
238225
238194
238167
238157
238150
238149
238152
238159
238172
238187
238208
238231
238259
238286
238319
238289
238264
238257
238253
238253
238256
238264
238276
238291
238310
238331
238357
238381
238414
238387
238368
238362
238360
238360
238365
238373
238385
238400
238419
238439
238464
238487
238518
238485
238472
238469
238468
238471
238477
238485
238498
238513
238532
238552
238574
238597
238627
238587
238579
238580
238581
238585
238592
238602
238615
238631
238649
238669
238691
238714
238741
238689
238687
238689
238694
238700
238710
238721
238735
238751
238770
238790
238812
238835
238857
238793
238796
238802
238809
238818
238830
238843
238859
238876
238894
238915
238937
238961
238979
238897
238905
238914
238925
238938
238952
238968
238984
239002
239022
239044
239065
239089
239104
239005
239017
239029
239044
239060
239077
239094
239113
239133
239154
239177
239197
239222
239233
239112
239130
239145
239164
239184
239203
239223
239243
239265
239288
239311
239330
239356
239361
239224
239246
239265
239287
239310
239332
239354
239376
239400
239424
239447
239468
239495
239496
239334
239358
239383
239410
239436
239461
239487
239511
239536
239560
239583
239603
239630
239630
239457
239481
239510
239538
239567
239594
239621
239647
239672
239697
239721
239742
239768
239778
238092
238064
238043
238023
238006
237991
237978
237968
237961
237956
237954
237956
237960
237970
238166
238136
238117
238098
238082
238067
238055
238044
238036
238030
238026
238027
238027
238040
238233
238206
238189
238172
238157
238144
238132
238121
238113
238105
238100
238098
238096
238107
238303
238280
238265
238249
238235
238222
238211
238200
238191
238183
238176
238174
238171
238179
238371
238352
238340
238326
238313
238301
238291
238281
238272
238264
238257
238253
238248
238253
238443
238428
238417
238405
238394
238383
238373
238363
238354
238347
238340
238334
238329
238330
238515
238504
238495
238485
238475
238466
238456
238448
238439
238432
238425
238419
238413
238409
238591
238583
238575
238567
238559
238550
238542
238534
238526
238518
238511
238504
238499
238492
238667
238664
238657
238651
238644
238637
238629
238622
238615
238607
238600
238592
238587
238578
238747
238747
238742
238738
238732
238726
238719
238712
238706
238698
238691
238682
238679
238669
238829
238832
238829
238827
238822
238817
238811
238805
238799
238791
238785
238776
238774
238762
238915
238920
238918
238917
238914
238910
238906
238901
238895
238888
238881
238874
238874
238860
239004
239009
239009
239011
239009
239007
239003
238997
238992
238984
238978
238972
238970
238954
239105
239102
239103
239105
239105
239104
239101
239097
239092
239085
239079
239075
239073
239062
238140
238109
238084
238058
238033
238008
237985
237961
237939
237917
237897
237879
237862
237846
238182
238152
238129
238104
238080
238055
238031
238006
237983
237960
237939
237920
237901
237887
238220
238193
238171
238147
238124
238100
238076
238052
238029
238006
237984
237963
237942
237927
238261
238237
238217
238193
238170
238147
238123
238099
238075
238051
238028
238006
237983
237966
238302
238280
238261
238239
238217
238193
238170
238146
238122
238098
238074
238051
238026
238007
238345
238325
238307
238286
238264
238241
238218
238194
238169
238144
238120
238095
238071
238048
238389
238372
238354
238333
238312
238290
238266
238242
238218
238192
238167
238142
238116
238092
238436
238421
238403
238383
238362
238340
238316
238292
238266
238241
238215
238189
238163
238137
238485
238470
238452
238433
238412
238391
238367
238342
238317
238291
238265
238237
238211
238182
238535
238522
238504
238486
238465
238443
238419
238394
238368
238341
238314
238286
238259
238228
238587
238575
238557
238539
238517
238495
238471
238446
238420
238392
238365
238335
238308
238275
238642
238630
238611
238593
238572
238550
238525
238499
238472
238444
238415
238385
238359
238325
238700
238688
238670
238651
238629
238605
238580
238553
238525
238496
238467
238436
238409
238376
238766
238745
238725
238705
238684
238661
238636
238609
238581
238552
238524
238493
238466
238434
238176
238144
238117
238088
238058
238027
237996
237964
237933
237900
237869
237836
237807
237774
238189
238160
238136
238108
238078
238047
238015
237982
237950
237916
237884
237851
237821
237789
238201
238175
238151
238123
238095
238065
238033
238000
237968
237934
237902
237869
237837
237805
238217
238193
238169
238142
238113
238083
238052
238019
237986
237952
237919
237885
237852
237819
238234
238211
238187
238160
238132
238102
238071
238037
238004
237969
237935
237900
237865
237831
238251
238230
238206
238179
238151
238120
238089
238055
238021
237985
237950
237914
237878
237842
238270
238249
238224
238198
238169
238138
238106
238072
238037
238001
237964
237927
237890
237852
238289
238268
238243
238216
238187
238156
238122
238088
238052
238015
237977
237939
237900
237862
238309
238287
238261
238234
238204
238172
238138
238103
238066
238028
237989
237950
237910
237871
238330
238307
238280
238252
238221
238188
238153
238117
238079
238040
238000
237961
237920
237879
238352
238328
238300
238270
238237
238203
238167
238131
238092
238052
238011
237970
237928
237886
238374
238348
238319
238289
238255
238219
238182
238144
238104
238063
238022
237980
237937
237894
238396
238369
238339
238306
238271
238234
238196
238157
238117
238076
238033
237990
237946
237900
238420
238388
238356
238322
238286
238249
238210
238171
238130
238088
238046
238003
237959
237912
238151
238122
238095
238065
238033
237999
237963
237926
237888
237848
237811
237770
237732
237687
238146
238119
238093
238063
238031
237997
237960
237922
237884
237843
237804
237762
237723
237681
238137
238113
238087
238057
238025
237991
237955
237917
237879
237838
237798
237756
237716
237673
238130
238107
238080
238050
238018
237984
237948
237910
237871
237830
237790
237747
237707
237664
238121
238099
238072
238042
238010
237975
237939
237901
237861
237820
237778
237736
237695
237651
238113
238090
238063
238033
238000
237965
237928
237889
237849
237807
237765
237722
237679
237636
238105
238081
238053
238023
237989
237954
237916
237876
237835
237793
237750
237706
237662
237618
238096
238071
238041
238010
237976
237940
237901
237861
237819
237776
237732
237688
237643
237599
238088
238061
238030
237998
237962
237925
237885
237844
237801
237757
237712
237667
237621
237577
238079
238049
238017
237983
237946
237908
237867
237825
237782
237737
237691
237646
237598
237555
238070
238038
238004
237968
237930
237890
237848
237805
237760
237715
237668
237622
237573
237530
238059
238024
237989
237951
237911
237870
237827
237784
237738
237692
237645
237598
237548
237505
238049
238011
237974
237934
237893
237850
237806
237761
237714
237667
237619
237572
237522
237476
238038
237996
237957
237916
237873
237829
237783
237738
237692
237645
237598
237551
237501
237454
238019
237993
237966
237936
237904
237869
237832
237793
237751
237708
237665
237618
237576
237526
237989
237966
237939
237910
237878
237843
237805
237765
237724
237680
237636
237590
237546
237498
237958
237937
237909
237880
237847
237813
237775
237736
237694
237651
237607
237561
237517
237469
237926
237906
237878
237848
237815
237781
237743
237703
237662
237618
237574
237529
237485
237438
237895
237874
237845
237815
237782
237747
237709
237669
237628
237584
237540
237495
237451
237405
237863
237840
237811
237780
237746
237711
237672
237632
237590
237547
237503
237457
237413
237367
237830
237805
237775
237744
237709
237673
237634
237593
237551
237507
237463
237418
237374
237328
237795
237768
237737
237705
237669
237632
237593
237552
237509
237466
237421
237376
237330
237285
237761
237731
237699
237665
237629
237591
237551
237509
237465
237421
237376
237331
237285
237242
237725
237691
237658
237623
237586
237546
237506
237464
237420
237376
237330
237285
237238
237196
237690
237653
237618
237581
237542
237502
237460
237417
237372
237327
237281
237236
237188
237148
237650
237611
237575
237536
237496
237455
237412
237369
237324
237279
237233
237188
237139
237100
237613
237572
237533
237492
237451
237408
237364
237319
237273
237227
237180
237134
237086
237048
237571
237526
237486
237444
237401
237358
237314
237270
237224
237179
237133
237087
237040
236999
237695
237673
237649
237623
237594
237563
237530
237494
237455
237415
237373
237329
237287
237239
237645
237627
237603
237578
237548
237517
237483
237447
237408
237367
237325
237281
237239
237193
237596
237580
237554
237528
237499
237468
237434
237398
237360
237320
237279
237236
237195
237150
237547
237530
237504
237478
237448
237417
237383
237347
237309
237269
237228
237186
237145
237102
237499
237480
237452
237426
237396
237364
237330
237294
237257
237217
237177
237136
237096
237053
237448
237427
237399
237372
237341
237309
237275
237239
237202
237162
237123
237082
237042
237000
237398
237374
237346
237317
237286
237253
237219
237183
237145
237106
237067
237027
236988
236947
237344
237318
237290
237260
237228
237195
237160
237124
237087
237048
237009
236970
236930
236891
237292
237263
237234
237202
237170
237136
237101
237065
237027
236989
236950
236911
236871
236834
237236
237204
237175
237142
237110
237075
237040
237004
236966
236928
236888
236850
236810
236775
237182
237148
237117
237083
237050
237015
236979
236941
236903
236865
236825
236788
236748
236716
237124
237087
237055
237021
236986
236951
236915
236878
236840
236802
236763
236725
236685
236655
237069
237030
236997
236961
236926
236889
236852
236814
236775
236736
236696
236659
236619
236591
237005
236966
236931
236896
236859
236823
236787
236749
236711
236673
236634
236597
236559
236529
237145
237130
237111
237092
237071
237049
237024
236998
236970
236941
236909
236877
236844
236807
237086
237076
237056
237038
237016
236994
236968
236942
236913
236883
236851
236818
236786
236750
237030
237020
236999
236981
236959
236936
236911
236885
236857
236828
236797
236765
236734
236699
236974
236963
236942
236922
236900
236877
236852
236826
236798
236769
236739
236707
236677
236643
236918
236905
236883
236863
236841
236817
236792
236766
236739
236710
236681
236650
236620
236588
236861
236845
236823
236803
236780
236756
236732
236705
236678
236650
236621
236591
236561
236530
236804
236785
236763
236741
236719
236695
236670
236644
236617
236589
236560
236531
236502
236473
236744
236723
236701
236679
236656
236632
236607
236581
236554
236526
236498
236470
236441
236413
236684
236661
236639
236616
236593
236568
236543
236517
236491
236464
236436
236408
236380
236355
236622
236597
236576
236552
236528
236504
236479
236453
236426
236400
236372
236345
236318
236295
236562
236535
236513
236488
236464
236439
236414
236388
236362
236335
236308
236282
236255
236236
236498
236469
236447
236422
236398
236373
236348
236322
236296
236271
236244
236219
236191
236175
236436
236408
236384
236359
236334
236309
236283
236256
236230
236204
236178
236154
236127
236113
236365
236340
236315
236292
236267
236242
236216
236191
236165
236140
236114
236090
236065
236049
236402
236395
236384
236374
236364
236353
236341
236329
236315
236301
236285
236269
236252
236237
236347
236344
236332
236324
236313
236302
236290
236277
236262
236247
236231
236214
236198
236179
236297
236293
236281
236271
236261
236249
236237
236224
236210
236195
236179
236163
236147
236129
236244
236240
236228
236218
236208
236196
236184
236170
236156
236141
236126
236110
236095
236076
236193
236187
236175
236165
236154
236142
236130
236116
236102
236088
236073
236057
236043
236025
236141
236133
236121
236110
236099
236088
236075
236062
236048
236034
236020
236005
235990
235973
236089
236078
236067
236055
236044
236032
236020
236007
235994
235980
235966
235952
235938
235922
236035
236023
236012
236000
235989
235977
235965
235952
235940
235926
235913
235899
235885
235871
235981
235968
235956
235945
235933
235921
235909
235897
235885
235872
235859
235846
235832
235821
235926
235911
235900
235888
235877
235865
235854
235842
235829
235817
235804
235792
235779
235770
235872
235855
235844
235833
235821
235809
235798
235786
235774
235762
235750
235738
235727
235721
235815
235798
235787
235776
235765
235753
235742
235731
235719
235707
235695
235684
235673
235671
235761
235744
235733
235721
235709
235698
235687
235675
235664
235653
235641
235631
235621
235622
235700
235686
235674
235664
235653
235642
235631
235620
235610
235599
235588
235578
235569
235569
235538
235538
235536
235536
235536
235537
235538
235539
235540
235541
235542
235542
235544
235546
235496
235499
235498
235498
235499
235500
235500
235501
235502
235503
235503
235503
235503
235500
235460
235462
235461
235461
235461
235462
235462
235463
235463
235463
235463
235463
235464
235460
235422
235423
235423
235423
235423
235423
235424
235424
235425
235425
235425
235424
235424
235420
235384
235385
235384
235384
235384
235385
235385
235386
235386
235386
235386
235386
235386
235383
235346
235346
235346
235345
235345
235346
235347
235347
235347
235348
235348
235348
235348
235346
235308
235307
235306
235306
235307
235307
235308
235308
235309
235310
235310
235310
235311
235310
235269
235268
235267
235267
235268
235268
235269
235270
235271
235272
235272
235273
235274
235274
235230
235228
235228
235228
235228
235229
235230
235231
235233
235234
235235
235237
235238
235240
235191
235188
235188
235188
235189
235190
235191
235193
235194
235196
235198
235201
235202
235205
235152
235148
235149
235149
235150
235152
235153
235155
235157
235159
235162
235165
235166
235172
235114
235108
235109
235110
235112
235113
235115
235117
235120
235122
235125
235129
235131
235138
235076
235070
235071
235072
235074
235076
235078
235081
235083
235086
235090
235094
235097
235106
235036
235032
235033
235035
235037
235039
235041
235044
235047
235051
235055
235059
235064
235071
234617
234623
234630
234639
234648
234658
234668
234679
234690
234702
234715
234729
234743
234759
234597
234604
234611
234620
234629
234639
234649
234660
234672
234683
234696
234709
234721
234733
234577
234585
234592
234600
234609
234619
234629
234640
234652
234663
234675
234687
234700
234711
234557
234566
234572
234581
234590
234600
234610
234621
234632
234644
234655
234667
234679
234690
234538
234546
234553
234561
234570
234580
234590
234601
234613
234624
234636
234648
234660
234670
234518
234526
234533
234542
234551
234561
234571
234582
234593
234605
234616
234628
234640
234651
234498
234506
234514
234522
234531
234541
234552
234562
234574
234585
234597
234609
234621
234633
234478
234486
234494
234503
234512
234522
234533
234544
234555
234567
234579
234591
234603
234615
234459
234466
234475
234484
234493
234503
234514
234525
234537
234549
234561
234573
234586
234598
234439
234447
234456
234465
234474
234485
234496
234507
234519
234531
234544
234556
234569
234582
234420
234428
234437
234446
234456
234467
234478
234490
234502
234514
234527
234540
234553
234568
234402
234409
234419
234429
234439
234450
234461
234473
234485
234498
234511
234524
234538
234553
234384
234392
234401
234411
234422
234433
234445
234457
234470
234484
234497
234511
234524
234541
234368
234376
234385
234395
234406
234417
234429
234441
234454
234468
234482
234497
234512
234529
233687
233698
233711
233723
233736
233750
233765
233781
233798
233815
233833
233852
233871
233893
233683
233695
233707
233720
233733
233748
233763
233779
233796
233813
233832
233851
233870
233891
233681
233693
233704
233717
233730
233745
233760
233776
233793
233810
233829
233848
233867
233887
233678
233690
233701
233714
233728
233742
233758
233774
233791
233808
233826
233845
233864
233883
233676
233687
233699
233712
233726
233740
233755
233772
233788
233806
233824
233842
233861
233880
233673
233685
233697
233710
233724
233738
233754
233770
233787
233804
233822
233840
233859
233877
233671
233683
233696
233709
233722
233737
233752
233769
233785
233803
233820
233838
233857
233875
233670
233682
233694
233708
233721
233736
233752
233768
233784
233802
233819
233837
233856
233874
233668
233681
233693
233707
233721
233736
233751
233767
233784
233801
233819
233837
233855
233873
233668
233680
233693
233707
233721
233736
233752
233768
233785
233802
233819
233837
233856
233873
233668
233680
233693
233707
233721
233737
233752
233769
233786
233803
233821
233839
233857
233875
233669
233681
233694
233708
233723
233738
233754
233771
233788
233805
233823
233841
233860
233878
233669
233682
233695
233710
233724
233740
233756
233773
233791
233809
233827
233845
233863
233883
233672
233685
233698
233712
233727
233743
233759
233776
233793
233811
233829
233848
233867
233888
232774
232785
232798
232810
232824
232837
232852
232867
232883
232900
232918
232936
232955
232976
232781
232793
232805
232818
232831
232845
232861
232877
232893
232911
232929
232947
232966
232987
232790
232801
232814
232826
232840
232854
232870
232885
232902
232920
232937
232956
232975
232996
232799
232810
232823
232835
232849
232864
232879
232895
232912
232930
232948
232967
232986
233007
232808
232820
232832
232845
232859
232874
232889
232905
232922
232939
232957
232976
232995
233016
232818
232830
232843
232856
232870
232884
232899
232916
232932
232950
232968
232987
233006
233026
232829
232841
232853
232867
232881
232895
232911
232927
232943
232961
232979
232997
233016
233035
232840
232852
232865
232878
232892
232907
232922
232938
232955
232972
232990
233008
233027
233045
232852
232864
232877
232890
232904
232919
232935
232951
232967
232984
233002
233019
233038
233055
232864
232877
232890
232903
232917
232932
232947
232963
232980
232997
233014
233032
233050
233067
232877
232890
232902
232916
232930
232945
232961
232977
232993
233010
233027
233044
233063
233078
232891
232904
232916
232930
232944
232959
232975
232991
233007
233024
233041
233058
233076
233092
232904
232917
232929
232944
232958
232973
232989
233006
233022
233039
233056
233073
233090
233107
232918
232932
232945
232959
232973
232988
233004
233020
233036
233053
233070
233087
233105
233123
231896
231904
231914
231923
231934
231944
231955
231966
231978
231990
232003
232016
231908
231916
231926
231936
231946
231957
231969
231981
231993
232006
232019
232032
231922
231929
231940
231950
231960
231971
231983
231995
232007
232020
232033
232047
231935
231944
231954
231964
231975
231986
231997
232009
232022
232035
232049
232063
231950
231958
231969
231979
231990
232001
232012
232025
232037
232050
232064
232078
231965
231974
231984
231994
232005
232016
232028
232040
232053
232066
232080
232094
231981
231990
232000
232010
232021
232033
232044
232056
232069
232082
232096
232110
231997
232007
232017
232027
232038
232049
232061
232073
232086
232099
232112
232126
232014
232024
232034
232044
232055
232066
232078
232090
232103
232115
232129
232142
232032
232042
232051
232062
232073
232084
232096
232108
232120
232133
232146
232159
232049
232060
232069
232080
232091
232102
232114
232126
232138
232150
232163
232175
232068
232078
232087
232098
232109
232120
232132
232144
232156
232168
232180
232193
232085
232096
232105
232116
232127
232139
232150
232162
232174
232187
232199
232210
232104
232115
232125
232136
232146
232158
232169
232181
232192
232204
232216
232227
241887
241815
241768
241715
241672
241632
241999
241930
241884
241835
241800
241771
242083
242018
241973
241929
241901
241879
242166
242100
242053
242009
241979
241956
241247
241136
241055
240967
240891
240815
241364
241255
241174
241086
241011
240942
241450
241344
241263
241181
241115
241056
241536
241431
241348
241267
241203
241148
241612
241508
241422
241341
241275
241219
241683
241579
241489
241404
241332
241268
241747
241643
241548
241457
241375
241302
240414
240284
240176
240059
239954
239848
240513
240378
240265
240142
240030
239919
240591
240454
240340
240220
240114
240013
240672
240536
240421
240305
240203
240111
240748
240616
240501
240389
240292
240205
240821
240694
240580
240471
240375
240291
240891
240770
240658
240552
240456
240370
240959
240845
240735
240632
240535
240447
241023
240918
240813
240712
240616
240525
241085
240991
240891
240795
240700
240607
241145
241062
240970
240881
240790
240698
241201
241133
241051
240972
240888
240802
241260
241206
241136
241069
240997
240922
241307
241275
241221
241170
241115
241058
239460
239336
239223
239103
238995
238885
239527
239388
239262
239127
238999
238866
239583
239433
239298
239155
239019
238884
239648
239497
239361
239218
239081
238950
239718
239570
239435
239298
239169
239050
239791
239652
239522
239394
239276
239169
239867
239739
239617
239501
239395
239299
239944
239829
239717
239613
239517
239431
240022
239921
239820
239727
239641
239562
240099
240013
239922
239841
239763
239689
240175
240104
240026
239955
239884
239816
240248
240195
240128
240068
240005
239942
240324
240285
240231
240181
240127
240072
240389
240372
240331
240293
240251
240207
238626
238523
238428
238336
238245
238155
238652
238533
238416
238293
238174
238056
238676
238535
238402
238265
238131
238000
238716
238564
238418
238274
238134
237997
238763
238613
238468
238323
238182
238047
238823
238679
238541
238406
238277
238155
238893
238760
238634
238513
238401
238297
238969
238851
238740
238637
238542
238457
239051
238950
238854
238768
238691
238622
239132
239051
238969
238898
238836
238781
239215
239151
239083
239026
238974
238930
239294
239249
239194
239148
239106
239068
239374
239345
239303
239267
239232
239200
239447
239438
239409
239384
239357
239331
238152
238083
238013
237951
237891
237833
238147
238052
237960
237871
237785
237699
238135
238023
237912
237806
237702
237600
238141
238015
237893
237775
237660
237546
238160
238023
237896
237773
237654
237538
238191
238051
237920
237797
237679
237565
238231
238095
237968
237850
237741
237639
238281
238154
238038
237932
237837
237751
238336
238226
238125
238036
237959
237893
238397
238306
238224
238153
238095
238048
238464
238393
238328
238275
238233
238201
238530
238480
238430
238391
238361
238338
238601
238569
238532
238503
238481
238463
238663
238652
238629
238610
238595
238581
238015
237968
237915
237873
237833
237794
237988
237920
237851
237785
237722
237657
237961
237876
237791
237708
237627
237544
237947
237847
237749
237653
237559
237463
237941
237830
237722
237619
237518
237417
237941
237825
237713
237606
237505
237405
237947
237829
237719
237614
237516
237421
237961
237846
237740
237642
237552
237468
237981
237872
237774
237686
237607
237536
238008
237909
237822
237746
237680
237625
238040
237956
237883
237821
237772
237734
238076
238011
237955
237909
237875
237853
238122
238075
238036
238004
237983
237970
238157
238135
238109
238091
238080
238072
238037
238010
237976
237950
237925
237903
238004
237960
237912
237866
237824
237782
237974
237915
237851
237788
237730
237670
237949
237875
237799
237723
237650
237577
237927
237842
237757
237672
237590
237508
237907
237817
237727
237637
237550
237465
237892
237800
237709
237619
237532
237448
237882
237790
237701
237616
237534
237455
237878
237788
237703
237624
237549
237478
237877
237794
237716
237644
237578
237518
237881
237806
237738
237676
237621
237571
237892
237824