/*--------------------------------*- C++ -*----------------------------------*\
| =========                 |                                                 |
| \\      /  F ield         | OpenFOAM: The Open Source CFD Toolbox           |
|  \\    /   O peration     | Version:  v2106                                 |
|   \\  /    A nd           | Website:  www.openfoam.com                      |
|    \\/     M anipulation  |                                                 |
\*---------------------------------------------------------------------------*/
FoamFile
{
    version     2.0;
    format      ascii;
    arch        "LSB;label=32;scalar=64";
    class       volScalarField;
    location    "0.000213";
    object      alphat;
}
// * * * * * * * * * * * * * * * * * * * * * * * * * * * * * * * * * * * * * //

dimensions      [1 -1 -1 0 0 0 0];

internalField   nonuniform List<scalar> 
18069
(
9.14381e-17
9.14387e-17
9.14392e-17
9.14397e-17
9.144e-17
9.14403e-17
9.14404e-17
9.14405e-17
9.14404e-17
9.14401e-17
9.14397e-17
9.14391e-17
9.14384e-17
9.14375e-17
9.14387e-17
9.14393e-17
9.14398e-17
9.14403e-17
9.14407e-17
9.14409e-17
9.1441e-17
9.1441e-17
9.14409e-17
9.14406e-17
9.14401e-17
9.14395e-17
9.14388e-17
9.14379e-17
9.14391e-17
9.14398e-17
9.14403e-17
9.14408e-17
9.14412e-17
9.14414e-17
9.14416e-17
9.14415e-17
9.14413e-17
9.1441e-17
9.14405e-17
9.14399e-17
9.14391e-17
9.14382e-17
9.14394e-17
9.14401e-17
9.14407e-17
9.14412e-17
9.14415e-17
9.14418e-17
9.14419e-17
9.14419e-17
9.14416e-17
9.14413e-17
9.14408e-17
9.14401e-17
9.14394e-17
9.14385e-17
9.14396e-17
9.14403e-17
9.14409e-17
9.14414e-17
9.14418e-17
9.1442e-17
9.14421e-17
9.14421e-17
9.14418e-17
9.14415e-17
9.1441e-17
9.14403e-17
9.14395e-17
9.14387e-17
9.14397e-17
9.14404e-17
9.1441e-17
9.14415e-17
9.14418e-17
9.14421e-17
9.14422e-17
9.14421e-17
9.14419e-17
9.14415e-17
9.1441e-17
9.14404e-17
9.14396e-17
9.14387e-17
9.14395e-17
9.14402e-17
9.14409e-17
9.14414e-17
9.14418e-17
9.1442e-17
9.14421e-17
9.1442e-17
9.14418e-17
9.14415e-17
9.1441e-17
9.14403e-17
9.14396e-17
9.14387e-17
9.14392e-17
9.14399e-17
9.14406e-17
9.14411e-17
9.14415e-17
9.14417e-17
9.14418e-17
9.14418e-17
9.14416e-17
9.14412e-17
9.14407e-17
9.14401e-17
9.14394e-17
9.14386e-17
9.14388e-17
9.14396e-17
9.14402e-17
9.14407e-17
9.14411e-17
9.14413e-17
9.14415e-17
9.14414e-17
9.14412e-17
9.14409e-17
9.14404e-17
9.14398e-17
9.14391e-17
9.14383e-17
9.14383e-17
9.1439e-17
9.14397e-17
9.14402e-17
9.14406e-17
9.14408e-17
9.14409e-17
9.14409e-17
9.14407e-17
9.14403e-17
9.14399e-17
9.14393e-17
9.14386e-17
9.14378e-17
9.14377e-17
9.14384e-17
9.1439e-17
9.14395e-17
9.14399e-17
9.14401e-17
9.14403e-17
9.14402e-17
9.144e-17
9.14397e-17
9.14392e-17
9.14387e-17
9.1438e-17
9.14373e-17
9.14369e-17
9.14376e-17
9.14382e-17
9.14388e-17
9.14391e-17
9.14394e-17
9.14395e-17
9.14394e-17
9.14392e-17
9.14389e-17
9.14384e-17
9.14379e-17
9.14373e-17
9.14366e-17
9.14361e-17
9.14369e-17
9.14374e-17
9.14379e-17
9.14382e-17
9.14384e-17
9.14385e-17
9.14385e-17
9.14383e-17
9.1438e-17
9.14375e-17
9.1437e-17
9.14364e-17
9.14358e-17
9.14353e-17
9.14359e-17
9.14365e-17
9.1437e-17
9.14373e-17
9.14375e-17
9.14375e-17
9.14375e-17
9.14372e-17
9.14369e-17
9.14365e-17
9.1436e-17
9.14354e-17
9.14348e-17
9.12758e-17
9.12767e-17
9.12776e-17
9.12784e-17
9.1279e-17
9.12795e-17
9.12798e-17
9.12799e-17
9.12798e-17
9.12796e-17
9.12792e-17
9.12785e-17
9.12777e-17
9.12768e-17
9.12768e-17
9.12778e-17
9.12787e-17
9.12795e-17
9.12802e-17
9.12807e-17
9.1281e-17
9.12811e-17
9.1281e-17
9.12807e-17
9.12802e-17
9.12795e-17
9.12787e-17
9.12777e-17
9.12778e-17
9.12788e-17
9.12798e-17
9.12806e-17
9.12812e-17
9.12817e-17
9.1282e-17
9.12821e-17
9.1282e-17
9.12817e-17
9.12812e-17
9.12805e-17
9.12795e-17
9.12785e-17
9.12785e-17
9.12796e-17
9.12806e-17
9.12814e-17
9.12821e-17
9.12826e-17
9.12828e-17
9.12829e-17
9.12828e-17
9.12825e-17
9.12819e-17
9.12812e-17
9.12803e-17
9.12792e-17
9.1279e-17
9.12802e-17
9.12812e-17
9.1282e-17
9.12827e-17
9.12832e-17
9.12835e-17
9.12836e-17
9.12834e-17
9.12831e-17
9.12825e-17
9.12818e-17
9.12808e-17
9.12798e-17
9.12793e-17
9.12805e-17
9.12816e-17
9.12825e-17
9.12831e-17
9.12836e-17
9.12839e-17
9.1284e-17
9.12838e-17
9.12835e-17
9.12829e-17
9.12822e-17
9.12812e-17
9.12801e-17
9.12795e-17
9.12807e-17
9.12818e-17
9.12827e-17
9.12834e-17
9.12838e-17
9.12841e-17
9.12842e-17
9.12841e-17
9.12837e-17
9.12832e-17
9.12824e-17
9.12814e-17
9.12803e-17
9.12794e-17
9.12807e-17
9.12818e-17
9.12826e-17
9.12834e-17
9.12838e-17
9.12841e-17
9.12842e-17
9.12841e-17
9.12837e-17
9.12832e-17
9.12824e-17
9.12815e-17
9.12804e-17
9.12792e-17
9.12804e-17
9.12815e-17
9.12824e-17
9.12831e-17
9.12836e-17
9.12839e-17
9.1284e-17
9.12839e-17
9.12835e-17
9.1283e-17
9.12823e-17
9.12813e-17
9.12803e-17
9.12788e-17
9.128e-17
9.12811e-17
9.1282e-17
9.12827e-17
9.12832e-17
9.12835e-17
9.12836e-17
9.12835e-17
9.12831e-17
9.12826e-17
9.12819e-17
9.1281e-17
9.128e-17
9.12782e-17
9.12794e-17
9.12805e-17
9.12814e-17
9.12821e-17
9.12826e-17
9.12829e-17
9.1283e-17
9.12829e-17
9.12825e-17
9.1282e-17
9.12813e-17
9.12804e-17
9.12795e-17
9.12775e-17
9.12786e-17
9.12797e-17
9.12806e-17
9.12813e-17
9.12818e-17
9.12821e-17
9.12822e-17
9.12821e-17
9.12818e-17
9.12812e-17
9.12805e-17
9.12797e-17
9.12788e-17
9.12766e-17
9.12778e-17
9.12788e-17
9.12797e-17
9.12803e-17
9.12808e-17
9.12811e-17
9.12812e-17
9.12811e-17
9.12807e-17
9.12803e-17
9.12796e-17
9.12788e-17
9.12779e-17
9.12757e-17
9.12768e-17
9.12778e-17
9.12786e-17
9.12793e-17
9.12797e-17
9.128e-17
9.128e-17
9.12799e-17
9.12796e-17
9.12791e-17
9.12785e-17
9.12777e-17
9.12769e-17
9.11243e-17
9.11253e-17
9.11263e-17
9.11271e-17
9.11277e-17
9.11282e-17
9.11285e-17
9.11287e-17
9.11286e-17
9.11284e-17
9.1128e-17
9.11273e-17
9.11266e-17
9.11257e-17
9.11255e-17
9.11265e-17
9.11275e-17
9.11284e-17
9.11291e-17
9.11296e-17
9.11299e-17
9.11301e-17
9.113e-17
9.11297e-17
9.11292e-17
9.11286e-17
9.11277e-17
9.11268e-17
9.11265e-17
9.11276e-17
9.11287e-17
9.11296e-17
9.11303e-17
9.11308e-17
9.11311e-17
9.11313e-17
9.11312e-17
9.11309e-17
9.11304e-17
9.11297e-17
9.11288e-17
9.11278e-17
9.11274e-17
9.11286e-17
9.11297e-17
9.11306e-17
9.11313e-17
9.11318e-17
9.11321e-17
9.11322e-17
9.11321e-17
9.11318e-17
9.11313e-17
9.11306e-17
9.11297e-17
9.11287e-17
9.11281e-17
9.11293e-17
9.11304e-17
9.11313e-17
9.11321e-17
9.11326e-17
9.11329e-17
9.1133e-17
9.11329e-17
9.11326e-17
9.11321e-17
9.11313e-17
9.11304e-17
9.11293e-17
9.11285e-17
9.11298e-17
9.1131e-17
9.11319e-17
9.11326e-17
9.11332e-17
9.11335e-17
9.11336e-17
9.11335e-17
9.11332e-17
9.11326e-17
9.11319e-17
9.11309e-17
9.11298e-17
9.11288e-17
9.11301e-17
9.11313e-17
9.11322e-17
9.1133e-17
9.11335e-17
9.11339e-17
9.1134e-17
9.11339e-17
9.11335e-17
9.1133e-17
9.11322e-17
9.11313e-17
9.11301e-17
9.11289e-17
9.11303e-17
9.11314e-17
9.11324e-17
9.11332e-17
9.11337e-17
9.1134e-17
9.11341e-17
9.1134e-17
9.11337e-17
9.11331e-17
9.11324e-17
9.11314e-17
9.11303e-17
9.11288e-17
9.11302e-17
9.11314e-17
9.11323e-17
9.11331e-17
9.11336e-17
9.11339e-17
9.11341e-17
9.11339e-17
9.11336e-17
9.11331e-17
9.11323e-17
9.11314e-17
9.11303e-17
9.11285e-17
9.11299e-17
9.11311e-17
9.1132e-17
9.11328e-17
9.11333e-17
9.11336e-17
9.11338e-17
9.11337e-17
9.11333e-17
9.11328e-17
9.11321e-17
9.11311e-17
9.113e-17
9.11281e-17
9.11294e-17
9.11306e-17
9.11315e-17
9.11323e-17
9.11328e-17
9.11331e-17
9.11333e-17
9.11332e-17
9.11328e-17
9.11323e-17
9.11316e-17
9.11307e-17
9.11296e-17
9.11275e-17
9.11287e-17
9.11299e-17
9.11308e-17
9.11316e-17
9.11321e-17
9.11324e-17
9.11326e-17
9.11325e-17
9.11321e-17
9.11316e-17
9.11309e-17
9.113e-17
9.1129e-17
9.11267e-17
9.1128e-17
9.1129e-17
9.11299e-17
9.11307e-17
9.11312e-17
9.11315e-17
9.11316e-17
9.11315e-17
9.11312e-17
9.11307e-17
9.11301e-17
9.11292e-17
9.11283e-17
9.11259e-17
9.11271e-17
9.11281e-17
9.1129e-17
9.11296e-17
9.11301e-17
9.11304e-17
9.11305e-17
9.11304e-17
9.11302e-17
9.11297e-17
9.11291e-17
9.11283e-17
9.11274e-17
9.09805e-17
9.09814e-17
9.09822e-17
9.09829e-17
9.09834e-17
9.09838e-17
9.0984e-17
9.09841e-17
9.0984e-17
9.09838e-17
9.09835e-17
9.09829e-17
9.09823e-17
9.09815e-17
9.09815e-17
9.09824e-17
9.09832e-17
9.0984e-17
9.09845e-17
9.09849e-17
9.09852e-17
9.09853e-17
9.09852e-17
9.09849e-17
9.09845e-17
9.0984e-17
9.09833e-17
9.09825e-17
9.09824e-17
9.09833e-17
9.09842e-17
9.09849e-17
9.09855e-17
9.09859e-17
9.09862e-17
9.09863e-17
9.09862e-17
9.09859e-17
9.09855e-17
9.09849e-17
9.09842e-17
9.09834e-17
9.09832e-17
9.09841e-17
9.0985e-17
9.09857e-17
9.09863e-17
9.09868e-17
9.0987e-17
9.09871e-17
9.0987e-17
9.09867e-17
9.09863e-17
9.09857e-17
9.0985e-17
9.09842e-17
9.09837e-17
9.09848e-17
9.09857e-17
9.09864e-17
9.0987e-17
9.09874e-17
9.09877e-17
9.09878e-17
9.09877e-17
9.09874e-17
9.0987e-17
9.09864e-17
9.09856e-17
9.09848e-17
9.09842e-17
9.09852e-17
9.09862e-17
9.09869e-17
9.09875e-17
9.09879e-17
9.09882e-17
9.09883e-17
9.09882e-17
9.09879e-17
9.09875e-17
9.09869e-17
9.09861e-17
9.09852e-17
9.09845e-17
9.09856e-17
9.09865e-17
9.09872e-17
9.09878e-17
9.09883e-17
9.09885e-17
9.09886e-17
9.09885e-17
9.09882e-17
9.09878e-17
9.09872e-17
9.09864e-17
9.09855e-17
9.09846e-17
9.09857e-17
9.09867e-17
9.09874e-17
9.0988e-17
9.09884e-17
9.09887e-17
9.09888e-17
9.09887e-17
9.09884e-17
9.09879e-17
9.09873e-17
9.09866e-17
9.09856e-17
9.09847e-17
9.09857e-17
9.09867e-17
9.09874e-17
9.0988e-17
9.09884e-17
9.09887e-17
9.09888e-17
9.09886e-17
9.09884e-17
9.09879e-17
9.09873e-17
9.09865e-17
9.09856e-17
9.09845e-17
9.09855e-17
9.09865e-17
9.09872e-17
9.09878e-17
9.09882e-17
9.09885e-17
9.09886e-17
9.09884e-17
9.09882e-17
9.09877e-17
9.09871e-17
9.09864e-17
9.09854e-17
9.09842e-17
9.09852e-17
9.09861e-17
9.09869e-17
9.09874e-17
9.09879e-17
9.09881e-17
9.09882e-17
9.09881e-17
9.09878e-17
9.09874e-17
9.09868e-17
9.0986e-17
9.09851e-17
9.09837e-17
9.09847e-17
9.09856e-17
9.09863e-17
9.09869e-17
9.09873e-17
9.09876e-17
9.09876e-17
9.09876e-17
9.09873e-17
9.09869e-17
9.09863e-17
9.09855e-17
9.09847e-17
9.09831e-17
9.09841e-17
9.09849e-17
9.09856e-17
9.09862e-17
9.09866e-17
9.09868e-17
9.09869e-17
9.09868e-17
9.09866e-17
9.09862e-17
9.09856e-17
9.09849e-17
9.09841e-17
9.09823e-17
9.09833e-17
9.09841e-17
9.09848e-17
9.09853e-17
9.09857e-17
9.0986e-17
9.0986e-17
9.0986e-17
9.09858e-17
9.09854e-17
9.09849e-17
9.09842e-17
9.09834e-17
9.08432e-17
9.08439e-17
9.08444e-17
9.08448e-17
9.08451e-17
9.08453e-17
9.08454e-17
9.08454e-17
9.08453e-17
9.08451e-17
9.08449e-17
9.08445e-17
9.08441e-17
9.08435e-17
9.08438e-17
9.08444e-17
9.08449e-17
9.08453e-17
9.08457e-17
9.08459e-17
9.0846e-17
9.0846e-17
9.08459e-17
9.08458e-17
9.08455e-17
9.08451e-17
9.08447e-17
9.08443e-17
9.08443e-17
9.08449e-17
9.08454e-17
9.08459e-17
9.08462e-17
9.08464e-17
9.08465e-17
9.08466e-17
9.08465e-17
9.08463e-17
9.08461e-17
9.08457e-17
9.08453e-17
9.08448e-17
9.08448e-17
9.08453e-17
9.08459e-17
9.08463e-17
9.08466e-17
9.08469e-17
9.0847e-17
9.0847e-17
9.0847e-17
9.08468e-17
9.08465e-17
9.08462e-17
9.08457e-17
9.08453e-17
9.08451e-17
9.08457e-17
9.08463e-17
9.08467e-17
9.0847e-17
9.08472e-17
9.08474e-17
9.08474e-17
9.08473e-17
9.08472e-17
9.08469e-17
9.08466e-17
9.08461e-17
9.08456e-17
9.08454e-17
9.0846e-17
9.08465e-17
9.0847e-17
9.08473e-17
9.08475e-17
9.08477e-17
9.08477e-17
9.08476e-17
9.08474e-17
9.08472e-17
9.08468e-17
9.08464e-17
9.08459e-17
9.08457e-17
9.08463e-17
9.08467e-17
9.08472e-17
9.08475e-17
9.08477e-17
9.08478e-17
9.08479e-17
9.08478e-17
9.08476e-17
9.08474e-17
9.0847e-17
9.08466e-17
9.0846e-17
9.08458e-17
9.08464e-17
9.08469e-17
9.08473e-17
9.08476e-17
9.08478e-17
9.08479e-17
9.0848e-17
9.08479e-17
9.08477e-17
9.08475e-17
9.08471e-17
9.08467e-17
9.08461e-17
9.08458e-17
9.08464e-17
9.08469e-17
9.08473e-17
9.08476e-17
9.08478e-17
9.08479e-17
9.08479e-17
9.08479e-17
9.08477e-17
9.08474e-17
9.08471e-17
9.08466e-17
9.0846e-17
9.08457e-17
9.08463e-17
9.08468e-17
9.08472e-17
9.08475e-17
9.08477e-17
9.08478e-17
9.08478e-17
9.08477e-17
9.08476e-17
9.08473e-17
9.08469e-17
9.08465e-17
9.08459e-17
9.08455e-17
9.08461e-17
9.08466e-17
9.08469e-17
9.08472e-17
9.08475e-17
9.08476e-17
9.08476e-17
9.08475e-17
9.08474e-17
9.08471e-17
9.08467e-17
9.08463e-17
9.08457e-17
9.08452e-17
9.08457e-17
9.08462e-17
9.08466e-17
9.08469e-17
9.08471e-17
9.08473e-17
9.08473e-17
9.08472e-17
9.08471e-17
9.08468e-17
9.08465e-17
9.0846e-17
9.08454e-17
9.08448e-17
9.08453e-17
9.08458e-17
9.08462e-17
9.08465e-17
9.08467e-17
9.08469e-17
9.08469e-17
9.08468e-17
9.08467e-17
9.08464e-17
9.08461e-17
9.08456e-17
9.08451e-17
9.08442e-17
9.08448e-17
9.08453e-17
9.08457e-17
9.0846e-17
9.08462e-17
9.08464e-17
9.08464e-17
9.08464e-17
9.08462e-17
9.0846e-17
9.08456e-17
9.08452e-17
9.08446e-17
9.07127e-17
9.0713e-17
9.07131e-17
9.07132e-17
9.07133e-17
9.07133e-17
9.07133e-17
9.07132e-17
9.07132e-17
9.07131e-17
9.07129e-17
9.07128e-17
9.07128e-17
9.07126e-17
9.07128e-17
9.0713e-17
9.07132e-17
9.07133e-17
9.07133e-17
9.07134e-17
9.07134e-17
9.07133e-17
9.07133e-17
9.07132e-17
9.07131e-17
9.0713e-17
9.07129e-17
9.07129e-17
9.07129e-17
9.07131e-17
9.07132e-17
9.07133e-17
9.07134e-17
9.07134e-17
9.07134e-17
9.07134e-17
9.07133e-17
9.07133e-17
9.07132e-17
9.07131e-17
9.0713e-17
9.0713e-17
9.0713e-17
9.07132e-17
9.07133e-17
9.07133e-17
9.07134e-17
9.07134e-17
9.07135e-17
9.07134e-17
9.07134e-17
9.07133e-17
9.07133e-17
9.07132e-17
9.07131e-17
9.07131e-17
9.07131e-17
9.07132e-17
9.07133e-17
9.07134e-17
9.07134e-17
9.07135e-17
9.07135e-17
9.07135e-17
9.07134e-17
9.07134e-17
9.07133e-17
9.07133e-17
9.07132e-17
9.07131e-17
9.07132e-17
9.07133e-17
9.07134e-17
9.07134e-17
9.07135e-17
9.07135e-17
9.07135e-17
9.07135e-17
9.07135e-17
9.07134e-17
9.07134e-17
9.07133e-17
9.07132e-17
9.07131e-17
9.07133e-17
9.07134e-17
9.07134e-17
9.07134e-17
9.07135e-17
9.07135e-17
9.07135e-17
9.07135e-17
9.07134e-17
9.07134e-17
9.07134e-17
9.07133e-17
9.07132e-17
9.07131e-17
9.07133e-17
9.07134e-17
9.07134e-17
9.07134e-17
9.07135e-17
9.07135e-17
9.07135e-17
9.07135e-17
9.07134e-17
9.07134e-17
9.07133e-17
9.07133e-17
9.07132e-17
9.0713e-17
9.07133e-17
9.07134e-17
9.07134e-17
9.07134e-17
9.07135e-17
9.07135e-17
9.07135e-17
9.07134e-17
9.07134e-17
9.07134e-17
9.07133e-17
9.07132e-17
9.07131e-17
9.0713e-17
9.07133e-17
9.07133e-17
9.07134e-17
9.07134e-17
9.07134e-17
9.07134e-17
9.07134e-17
9.07134e-17
9.07134e-17
9.07133e-17
9.07132e-17
9.07131e-17
9.0713e-17
9.07129e-17
9.07132e-17
9.07132e-17
9.07133e-17
9.07133e-17
9.07134e-17
9.07134e-17
9.07134e-17
9.07133e-17
9.07133e-17
9.07132e-17
9.07132e-17
9.07131e-17
9.07129e-17
9.07128e-17
9.07131e-17
9.07131e-17
9.07132e-17
9.07132e-17
9.07133e-17
9.07133e-17
9.07133e-17
9.07133e-17
9.07132e-17
9.07132e-17
9.07131e-17
9.0713e-17
9.07129e-17
9.07127e-17
9.07129e-17
9.07129e-17
9.0713e-17
9.07131e-17
9.07132e-17
9.07132e-17
9.07132e-17
9.07132e-17
9.07132e-17
9.07131e-17
9.07131e-17
9.07129e-17
9.07128e-17
9.07126e-17
9.07127e-17
9.07128e-17
9.07129e-17
9.0713e-17
9.0713e-17
9.07131e-17
9.07131e-17
9.07131e-17
9.07131e-17
9.07131e-17
9.0713e-17
9.07129e-17
9.07127e-17
9.07125e-17
9.05903e-17
9.05901e-17
9.05899e-17
9.05897e-17
9.05896e-17
9.05895e-17
9.05894e-17
9.05893e-17
9.05893e-17
9.05893e-17
9.05894e-17
9.05895e-17
9.05896e-17
9.05898e-17
9.05899e-17
9.05897e-17
9.05896e-17
9.05894e-17
9.05893e-17
9.05892e-17
9.05891e-17
9.0589e-17
9.0589e-17
9.0589e-17
9.05891e-17
9.05892e-17
9.05893e-17
9.05896e-17
9.05897e-17
9.05895e-17
9.05893e-17
9.05891e-17
9.05889e-17
9.05888e-17
9.05887e-17
9.05887e-17
9.05887e-17
9.05887e-17
9.05888e-17
9.0589e-17
9.05891e-17
9.05893e-17
9.05895e-17
9.05893e-17
9.0589e-17
9.05888e-17
9.05887e-17
9.05886e-17
9.05885e-17
9.05884e-17
9.05884e-17
9.05885e-17
9.05886e-17
9.05887e-17
9.05889e-17
9.05891e-17
9.05893e-17
9.05891e-17
9.05888e-17
9.05886e-17
9.05885e-17
9.05883e-17
9.05883e-17
9.05882e-17
9.05882e-17
9.05883e-17
9.05884e-17
9.05885e-17
9.05887e-17
9.05889e-17
9.05892e-17
9.05889e-17
9.05887e-17
9.05885e-17
9.05883e-17
9.05882e-17
9.05881e-17
9.0588e-17
9.0588e-17
9.05881e-17
9.05882e-17
9.05883e-17
9.05886e-17
9.05888e-17
9.05891e-17
9.05888e-17
9.05886e-17
9.05883e-17
9.05882e-17
9.0588e-17
9.05879e-17
9.05879e-17
9.05879e-17
9.0588e-17
9.05881e-17
9.05882e-17
9.05884e-17
9.05886e-17
9.05891e-17
9.05888e-17
9.05885e-17
9.05883e-17
9.05881e-17
9.05879e-17
9.05879e-17
9.05878e-17
9.05878e-17
9.05879e-17
9.0588e-17
9.05881e-17
9.05883e-17
9.05885e-17
9.05891e-17
9.05888e-17
9.05885e-17
9.05882e-17
9.0588e-17
9.05879e-17
9.05878e-17
9.05878e-17
9.05878e-17
9.05878e-17
9.05879e-17
9.05881e-17
9.05882e-17
9.05884e-17
9.05891e-17
9.05888e-17
9.05885e-17
9.05882e-17
9.05881e-17
9.05879e-17
9.05878e-17
9.05878e-17
9.05878e-17
9.05878e-17
9.05879e-17
9.0588e-17
9.05882e-17
9.05884e-17
9.05891e-17
9.05888e-17
9.05885e-17
9.05883e-17
9.05881e-17
9.0588e-17
9.05879e-17
9.05879e-17
9.05879e-17
9.05879e-17
9.0588e-17
9.05881e-17
9.05883e-17
9.05884e-17
9.05892e-17
9.05889e-17
9.05886e-17
9.05884e-17
9.05882e-17
9.05881e-17
9.0588e-17
9.0588e-17
9.0588e-17
9.0588e-17
9.05881e-17
9.05882e-17
9.05883e-17
9.05885e-17
9.05892e-17
9.05889e-17
9.05887e-17
9.05885e-17
9.05884e-17
9.05883e-17
9.05882e-17
9.05881e-17
9.05882e-17
9.05882e-17
9.05883e-17
9.05884e-17
9.05884e-17
9.05886e-17
9.05893e-17
9.0589e-17
9.05888e-17
9.05886e-17
9.05885e-17
9.05884e-17
9.05884e-17
9.05883e-17
9.05884e-17
9.05884e-17
9.05885e-17
9.05885e-17
9.05887e-17
9.05887e-17
9.04766e-17
9.04762e-17
9.04758e-17
9.04755e-17
9.04753e-17
9.04752e-17
9.04751e-17
9.0475e-17
9.0475e-17
9.04751e-17
9.04752e-17
9.04754e-17
9.04756e-17
9.04759e-17
9.04761e-17
9.04757e-17
9.04754e-17
9.04751e-17
9.04749e-17
9.04747e-17
9.04746e-17
9.04745e-17
9.04745e-17
9.04746e-17
9.04748e-17
9.0475e-17
9.04752e-17
9.04755e-17
9.04757e-17
9.04753e-17
9.0475e-17
9.04747e-17
9.04744e-17
9.04742e-17
9.04741e-17
9.04741e-17
9.04741e-17
9.04742e-17
9.04743e-17
9.04745e-17
9.04748e-17
9.04751e-17
9.04753e-17
9.0475e-17
9.04746e-17
9.04743e-17
9.0474e-17
9.04739e-17
9.04737e-17
9.04737e-17
9.04737e-17
9.04738e-17
9.04739e-17
9.04741e-17
9.04744e-17
9.04747e-17
9.04751e-17
9.04747e-17
9.04743e-17
9.0474e-17
9.04737e-17
9.04735e-17
9.04734e-17
9.04734e-17
9.04734e-17
9.04735e-17
9.04736e-17
9.04738e-17
9.04741e-17
9.04744e-17
9.04748e-17
9.04744e-17
9.0474e-17
9.04737e-17
9.04735e-17
9.04733e-17
9.04732e-17
9.04731e-17
9.04731e-17
9.04732e-17
9.04734e-17
9.04736e-17
9.04739e-17
9.04742e-17
9.04747e-17
9.04743e-17
9.04739e-17
9.04735e-17
9.04733e-17
9.04731e-17
9.0473e-17
9.04729e-17
9.04729e-17
9.0473e-17
9.04732e-17
9.04734e-17
9.04737e-17
9.0474e-17
9.04746e-17
9.04741e-17
9.04738e-17
9.04734e-17
9.04732e-17
9.0473e-17
9.04728e-17
9.04728e-17
9.04728e-17
9.04729e-17
9.04731e-17
9.04733e-17
9.04736e-17
9.04739e-17
9.04745e-17
9.04741e-17
9.04737e-17
9.04734e-17
9.04731e-17
9.04729e-17
9.04728e-17
9.04727e-17
9.04728e-17
9.04728e-17
9.0473e-17
9.04732e-17
9.04735e-17
9.04739e-17
9.04745e-17
9.04741e-17
9.04737e-17
9.04734e-17
9.04731e-17
9.0473e-17
9.04728e-17
9.04728e-17
9.04728e-17
9.04729e-17
9.0473e-17
9.04732e-17
9.04735e-17
9.04739e-17
9.04746e-17
9.04742e-17
9.04738e-17
9.04735e-17
9.04732e-17
9.04731e-17
9.04729e-17
9.04729e-17
9.04729e-17
9.0473e-17
9.04731e-17
9.04733e-17
9.04736e-17
9.04739e-17
9.04748e-17
9.04744e-17
9.0474e-17
9.04737e-17
9.04734e-17
9.04732e-17
9.04731e-17
9.0473e-17
9.04731e-17
9.04731e-17
9.04733e-17
9.04735e-17
9.04737e-17
9.0474e-17
9.0475e-17
9.04745e-17
9.04742e-17
9.04739e-17
9.04736e-17
9.04735e-17
9.04733e-17
9.04733e-17
9.04733e-17
9.04734e-17
9.04735e-17
9.04737e-17
9.04739e-17
9.04742e-17
9.04752e-17
9.04747e-17
9.04744e-17
9.04741e-17
9.04739e-17
9.04737e-17
9.04736e-17
9.04736e-17
9.04736e-17
9.04737e-17
9.04738e-17
9.0474e-17
9.04742e-17
9.04744e-17
9.03718e-17
9.03715e-17
9.03711e-17
9.03709e-17
9.03707e-17
9.03706e-17
9.03705e-17
9.03705e-17
9.03705e-17
9.03706e-17
9.03706e-17
9.03708e-17
9.03709e-17
9.03711e-17
9.03715e-17
9.03711e-17
9.03708e-17
9.03706e-17
9.03704e-17
9.03702e-17
9.03701e-17
9.03701e-17
9.03701e-17
9.03701e-17
9.03702e-17
9.03704e-17
9.03705e-17
9.03707e-17
9.03711e-17
9.03708e-17
9.03705e-17
9.03702e-17
9.037e-17
9.03698e-17
9.03697e-17
9.03697e-17
9.03697e-17
9.03697e-17
9.03698e-17
9.037e-17
9.03702e-17
9.03703e-17
9.03708e-17
9.03705e-17
9.03702e-17
9.03699e-17
9.03697e-17
9.03695e-17
9.03694e-17
9.03694e-17
9.03693e-17
9.03694e-17
9.03695e-17
9.03696e-17
9.03699e-17
9.037e-17
9.03705e-17
9.03702e-17
9.03699e-17
9.03696e-17
9.03694e-17
9.03692e-17
9.03691e-17
9.03691e-17
9.03691e-17
9.03691e-17
9.03692e-17
9.03694e-17
9.03696e-17
9.03698e-17
9.03703e-17
9.037e-17
9.03697e-17
9.03694e-17
9.03692e-17
9.0369e-17
9.03689e-17
9.03688e-17
9.03688e-17
9.03689e-17
9.0369e-17
9.03691e-17
9.03694e-17
9.03696e-17
9.03701e-17
9.03698e-17
9.03695e-17
9.03692e-17
9.0369e-17
9.03688e-17
9.03687e-17
9.03687e-17
9.03687e-17
9.03687e-17
9.03688e-17
9.0369e-17
9.03692e-17
9.03694e-17
9.037e-17
9.03697e-17
9.03694e-17
9.03691e-17
9.03689e-17
9.03687e-17
9.03686e-17
9.03685e-17
9.03685e-17
9.03686e-17
9.03687e-17
9.03688e-17
9.03691e-17
9.03693e-17
9.03699e-17
9.03696e-17
9.03693e-17
9.0369e-17
9.03688e-17
9.03686e-17
9.03685e-17
9.03685e-17
9.03685e-17
9.03685e-17
9.03686e-17
9.03688e-17
9.0369e-17
9.03693e-17
9.03699e-17
9.03696e-17
9.03693e-17
9.0369e-17
9.03688e-17
9.03686e-17
9.03685e-17
9.03685e-17
9.03685e-17
9.03685e-17
9.03686e-17
9.03688e-17
9.0369e-17
9.03692e-17
9.03699e-17
9.03696e-17
9.03693e-17
9.03691e-17
9.03688e-17
9.03687e-17
9.03686e-17
9.03685e-17
9.03685e-17
9.03686e-17
9.03687e-17
9.03688e-17
9.0369e-17
9.03693e-17
9.037e-17
9.03697e-17
9.03694e-17
9.03691e-17
9.03689e-17
9.03688e-17
9.03687e-17
9.03686e-17
9.03686e-17
9.03686e-17
9.03687e-17
9.03689e-17
9.03691e-17
9.03693e-17
9.03701e-17
9.03698e-17
9.03695e-17
9.03693e-17
9.03691e-17
9.03689e-17
9.03688e-17
9.03688e-17
9.03688e-17
9.03688e-17
9.03689e-17
9.0369e-17
9.03692e-17
9.03694e-17
9.03703e-17
9.037e-17
9.03697e-17
9.03694e-17
9.03692e-17
9.03691e-17
9.0369e-17
9.03689e-17
9.03689e-17
9.03689e-17
9.0369e-17
9.03691e-17
9.03693e-17
9.03695e-17
9.0275e-17
9.02749e-17
9.02748e-17
9.02747e-17
9.02746e-17
9.02746e-17
9.02745e-17
9.02745e-17
9.02745e-17
9.02745e-17
9.02744e-17
9.02744e-17
9.02744e-17
9.02743e-17
9.02749e-17
9.02748e-17
9.02747e-17
9.02746e-17
9.02745e-17
9.02744e-17
9.02744e-17
9.02743e-17
9.02743e-17
9.02743e-17
9.02743e-17
9.02742e-17
9.02742e-17
9.02741e-17
9.02748e-17
9.02747e-17
9.02745e-17
9.02745e-17
9.02744e-17
9.02743e-17
9.02742e-17
9.02742e-17
9.02741e-17
9.02741e-17
9.02741e-17
9.0274e-17
9.0274e-17
9.02739e-17
9.02746e-17
9.02745e-17
9.02744e-17
9.02743e-17
9.02742e-17
9.02741e-17
9.02741e-17
9.0274e-17
9.0274e-17
9.02739e-17
9.02739e-17
9.02739e-17
9.02739e-17
9.02738e-17
9.02745e-17
9.02744e-17
9.02743e-17
9.02742e-17
9.02741e-17
9.0274e-17
9.02739e-17
9.02739e-17
9.02738e-17
9.02738e-17
9.02738e-17
9.02737e-17
9.02737e-17
9.02737e-17
9.02743e-17
9.02742e-17
9.02741e-17
9.0274e-17
9.02739e-17
9.02739e-17
9.02738e-17
9.02737e-17
9.02737e-17
9.02736e-17
9.02736e-17
9.02736e-17
9.02736e-17
9.02736e-17
9.02742e-17
9.02741e-17
9.0274e-17
9.02739e-17
9.02738e-17
9.02737e-17
9.02737e-17
9.02736e-17
9.02735e-17
9.02735e-17
9.02735e-17
9.02735e-17
9.02735e-17
9.02735e-17
9.02741e-17
9.0274e-17
9.02739e-17
9.02738e-17
9.02737e-17
9.02736e-17
9.02735e-17
9.02735e-17
9.02734e-17
9.02734e-17
9.02734e-17
9.02734e-17
9.02734e-17
9.02734e-17
9.02739e-17
9.02738e-17
9.02737e-17
9.02737e-17
9.02736e-17
9.02735e-17
9.02734e-17
9.02734e-17
9.02733e-17
9.02733e-17
9.02733e-17
9.02733e-17
9.02733e-17
9.02733e-17
9.02738e-17
9.02737e-17
9.02736e-17
9.02736e-17
9.02735e-17
9.02734e-17
9.02733e-17
9.02733e-17
9.02732e-17
9.02732e-17
9.02732e-17
9.02732e-17
9.02732e-17
9.02732e-17
9.02737e-17
9.02737e-17
9.02736e-17
9.02735e-17
9.02734e-17
9.02733e-17
9.02733e-17
9.02732e-17
9.02732e-17
9.02731e-17
9.02731e-17
9.02731e-17
9.02731e-17
9.02731e-17
9.02737e-17
9.02736e-17
9.02735e-17
9.02734e-17
9.02733e-17
9.02732e-17
9.02732e-17
9.02731e-17
9.02731e-17
9.0273e-17
9.0273e-17
9.0273e-17
9.0273e-17
9.0273e-17
9.02736e-17
9.02736e-17
9.02735e-17
9.02734e-17
9.02733e-17
9.02732e-17
9.02731e-17
9.0273e-17
9.0273e-17
9.0273e-17
9.02729e-17
9.02729e-17
9.0273e-17
9.02729e-17
9.02736e-17
9.02735e-17
9.02734e-17
9.02733e-17
9.02732e-17
9.02731e-17
9.02731e-17
9.0273e-17
9.02729e-17
9.02729e-17
9.02728e-17
9.02728e-17
9.02728e-17
9.02728e-17
9.01845e-17
9.01847e-17
9.01848e-17
9.01849e-17
9.0185e-17
9.0185e-17
9.0185e-17
9.01849e-17
9.01849e-17
9.01847e-17
9.01846e-17
9.01844e-17
9.01841e-17
9.01838e-17
9.01846e-17
9.01848e-17
9.01849e-17
9.0185e-17
9.01851e-17
9.01851e-17
9.01851e-17
9.0185e-17
9.0185e-17
9.01848e-17
9.01847e-17
9.01845e-17
9.01842e-17
9.01839e-17
9.01847e-17
9.01849e-17
9.0185e-17
9.01851e-17
9.01852e-17
9.01852e-17
9.01852e-17
9.01851e-17
9.0185e-17
9.01849e-17
9.01847e-17
9.01845e-17
9.01843e-17
9.01839e-17
9.01847e-17
9.01849e-17
9.01851e-17
9.01852e-17
9.01852e-17
9.01852e-17
9.01852e-17
9.01852e-17
9.01851e-17
9.0185e-17
9.01848e-17
9.01845e-17
9.01843e-17
9.0184e-17
9.01848e-17
9.01849e-17
9.01851e-17
9.01852e-17
9.01852e-17
9.01853e-17
9.01852e-17
9.01852e-17
9.01851e-17
9.0185e-17
9.01848e-17
9.01846e-17
9.01843e-17
9.0184e-17
9.01847e-17
9.01849e-17
9.0185e-17
9.01851e-17
9.01852e-17
9.01852e-17
9.01852e-17
9.01852e-17
9.01851e-17
9.01849e-17
9.01847e-17
9.01845e-17
9.01843e-17
9.0184e-17
9.01846e-17
9.01848e-17
9.0185e-17
9.01851e-17
9.01851e-17
9.01851e-17
9.01851e-17
9.01851e-17
9.0185e-17
9.01848e-17
9.01847e-17
9.01844e-17
9.01842e-17
9.01839e-17
9.01845e-17
9.01847e-17
9.01848e-17
9.01849e-17
9.0185e-17
9.0185e-17
9.0185e-17
9.0185e-17
9.01849e-17
9.01847e-17
9.01846e-17
9.01843e-17
9.01841e-17
9.01838e-17
9.01843e-17
9.01845e-17
9.01847e-17
9.01848e-17
9.01848e-17
9.01849e-17
9.01849e-17
9.01848e-17
9.01847e-17
9.01846e-17
9.01844e-17
9.01842e-17
9.01839e-17
9.01837e-17
9.01841e-17
9.01843e-17
9.01845e-17
9.01846e-17
9.01847e-17
9.01847e-17
9.01847e-17
9.01846e-17
9.01845e-17
9.01844e-17
9.01842e-17
9.0184e-17
9.01838e-17
9.01835e-17
9.01839e-17
9.01841e-17
9.01842e-17
9.01844e-17
9.01844e-17
9.01845e-17
9.01844e-17
9.01844e-17
9.01843e-17
9.01841e-17
9.0184e-17
9.01838e-17
9.01835e-17
9.01833e-17
9.01837e-17
9.01838e-17
9.0184e-17
9.01841e-17
9.01841e-17
9.01842e-17
9.01842e-17
9.01841e-17
9.0184e-17
9.01839e-17
9.01837e-17
9.01835e-17
9.01833e-17
9.0183e-17
9.01834e-17
9.01836e-17
9.01837e-17
9.01838e-17
9.01838e-17
9.01839e-17
9.01838e-17
9.01838e-17
9.01837e-17
9.01835e-17
9.01834e-17
9.01832e-17
9.0183e-17
9.01827e-17
9.01831e-17
9.01832e-17
9.01834e-17
9.01834e-17
9.01835e-17
9.01835e-17
9.01835e-17
9.01834e-17
9.01833e-17
9.01832e-17
9.0183e-17
9.01828e-17
9.01826e-17
9.01824e-17
9.00983e-17
9.00987e-17
9.0099e-17
9.00993e-17
9.00994e-17
9.00995e-17
9.00996e-17
9.00995e-17
9.00994e-17
9.00992e-17
9.00989e-17
9.00986e-17
9.00982e-17
9.00977e-17
9.00986e-17
9.0099e-17
9.00993e-17
9.00996e-17
9.00998e-17
9.00999e-17
9.00999e-17
9.00999e-17
9.00997e-17
9.00995e-17
9.00992e-17
9.00989e-17
9.00985e-17
9.00979e-17
9.00989e-17
9.00993e-17
9.00996e-17
9.00999e-17
9.01e-17
9.01002e-17
9.01002e-17
9.01001e-17
9.01e-17
9.00998e-17
9.00995e-17
9.00991e-17
9.00987e-17
9.00982e-17
9.00991e-17
9.00995e-17
9.00998e-17
9.01001e-17
9.01002e-17
9.01004e-17
9.01004e-17
9.01003e-17
9.01002e-17
9.01e-17
9.00997e-17
9.00993e-17
9.00989e-17
9.00984e-17
9.00992e-17
9.00996e-17
9.00999e-17
9.01002e-17
9.01004e-17
9.01005e-17
9.01005e-17
9.01005e-17
9.01003e-17
9.01001e-17
9.00998e-17
9.00995e-17
9.0099e-17
9.00985e-17
9.00992e-17
9.00996e-17
9.01e-17
9.01002e-17
9.01004e-17
9.01005e-17
9.01006e-17
9.01005e-17
9.01004e-17
9.01002e-17
9.00999e-17
9.00995e-17
9.00991e-17
9.00985e-17
9.00992e-17
9.00996e-17
9.00999e-17
9.01002e-17
9.01004e-17
9.01005e-17
9.01005e-17
9.01005e-17
9.01004e-17
9.01002e-17
9.00999e-17
9.00995e-17
9.0099e-17
9.00985e-17
9.00991e-17
9.00995e-17
9.00998e-17
9.01001e-17
9.01003e-17
9.01004e-17
9.01004e-17
9.01004e-17
9.01002e-17
9.01e-17
9.00997e-17
9.00994e-17
9.00989e-17
9.00984e-17
9.00989e-17
9.00993e-17
9.00996e-17
9.00999e-17
9.01001e-17
9.01002e-17
9.01002e-17
9.01002e-17
9.01001e-17
9.00998e-17
9.00996e-17
9.00992e-17
9.00987e-17
9.00982e-17
9.00986e-17
9.0099e-17
9.00994e-17
9.00996e-17
9.00998e-17
9.00999e-17
9.01e-17
9.00999e-17
9.00998e-17
9.00996e-17
9.00993e-17
9.00989e-17
9.00985e-17
9.0098e-17
9.00983e-17
9.00987e-17
9.0099e-17
9.00993e-17
9.00995e-17
9.00996e-17
9.00996e-17
9.00996e-17
9.00994e-17
9.00992e-17
9.00989e-17
9.00986e-17
9.00982e-17
9.00977e-17
9.00979e-17
9.00983e-17
9.00986e-17
9.00989e-17
9.00991e-17
9.00992e-17
9.00992e-17
9.00991e-17
9.0099e-17
9.00988e-17
9.00985e-17
9.00982e-17
9.00977e-17
9.00973e-17
9.00975e-17
9.00978e-17
9.00981e-17
9.00984e-17
9.00985e-17
9.00986e-17
9.00987e-17
9.00986e-17
9.00985e-17
9.00983e-17
9.0098e-17
9.00977e-17
9.00973e-17
9.00969e-17
9.00969e-17
9.00973e-17
9.00976e-17
9.00978e-17
9.0098e-17
9.00981e-17
9.00981e-17
9.0098e-17
9.00979e-17
9.00977e-17
9.00975e-17
9.00972e-17
9.00968e-17
9.00963e-17
9.00152e-17
9.00157e-17
9.00161e-17
9.00164e-17
9.00166e-17
9.00167e-17
9.00168e-17
9.00167e-17
9.00166e-17
9.00164e-17
9.00161e-17
9.00157e-17
9.00152e-17
9.00147e-17
9.00156e-17
9.0016e-17
9.00164e-17
9.00168e-17
9.0017e-17
9.00172e-17
9.00172e-17
9.00172e-17
9.0017e-17
9.00168e-17
9.00165e-17
9.00161e-17
9.00156e-17
9.0015e-17
9.00159e-17
9.00164e-17
9.00168e-17
9.00171e-17
9.00174e-17
9.00175e-17
9.00176e-17
9.00176e-17
9.00174e-17
9.00172e-17
9.00168e-17
9.00164e-17
9.00159e-17
9.00154e-17
9.00161e-17
9.00166e-17
9.00171e-17
9.00174e-17
9.00177e-17
9.00178e-17
9.00179e-17
9.00178e-17
9.00177e-17
9.00175e-17
9.00171e-17
9.00167e-17
9.00162e-17
9.00156e-17
9.00163e-17
9.00168e-17
9.00173e-17
9.00176e-17
9.00178e-17
9.0018e-17
9.00181e-17
9.0018e-17
9.00179e-17
9.00176e-17
9.00173e-17
9.00169e-17
9.00164e-17
9.00158e-17
9.00164e-17
9.00169e-17
9.00174e-17
9.00177e-17
9.00179e-17
9.00181e-17
9.00182e-17
9.00181e-17
9.0018e-17
9.00177e-17
9.00174e-17
9.0017e-17
9.00165e-17
9.00159e-17
9.00164e-17
9.00169e-17
9.00174e-17
9.00177e-17
9.00179e-17
9.00181e-17
9.00182e-17
9.00181e-17
9.0018e-17