/*--------------------------------*- C++ -*----------------------------------*\
| =========                 |                                                 |
| \\      /  F ield         | OpenFOAM: The Open Source CFD Toolbox           |
|  \\    /   O peration     | Version:  v2106                                 |
|   \\  /    A nd           | Website:  www.openfoam.com                      |
|    \\/     M anipulation  |                                                 |
\*---------------------------------------------------------------------------*/
FoamFile
{
    version     2.0;
    format      ascii;
    arch        "LSB;label=32;scalar=64";
    class       volScalarField;
    location    "0.000216";
    object      Ttot;
}
// * * * * * * * * * * * * * * * * * * * * * * * * * * * * * * * * * * * * * //

dimensions      [0 0 0 1 0 0 0];

internalField   nonuniform List<scalar> 
18109
(
295.275
295.278
295.291
295.276
295.268
295.258
295.269
295.503
295.484
295.483
295.454
295.431
295.405
295.395
295.664
295.642
295.633
295.6
295.572
295.546
295.53
295.839
295.807
295.781
295.744
295.712
295.689
295.674
296.012
295.967
295.923
295.885
295.853
295.837
295.826
296.184
296.128
296.067
296.026
295.998
295.989
295.988
296.352
296.282
296.208
296.166
296.144
296.143
296.152
296.507
296.418
296.343
296.301
296.287
296.295
296.315
295.385
295.36
295.352
295.324
295.304
295.271
295.258
295.24
295.227
295.204
295.205
295.174
295.14
295.12
295.601
295.554
295.529
295.48
295.444
295.4
295.372
295.347
295.331
295.322
295.339
295.346
295.323
295.33
295.746
295.695
295.662
295.609
295.566
295.524
295.495
295.47
295.454
295.445
295.454
295.465
295.464
295.483
295.903
295.845
295.796
295.74
295.693
295.656
295.63
295.609
295.594
295.587
295.592
295.606
295.62
295.641
296.06
295.991
295.927
295.871
295.825
295.797
295.778
295.764
295.752
295.742
295.744
295.757
295.773
295.794
296.218
296.14
296.061
296.007
295.967
295.948
295.937
295.929
295.92
295.916
295.919
295.931
295.945
295.961
296.372
296.281
296.197
296.144
296.114
296.105
296.101
296.1
296.101
296.103
296.105
296.112
296.124
296.136
296.514
296.41
296.329
296.282
296.263
296.264
296.271
296.279
296.289
296.295
296.297
296.301
296.311
296.314
296.636
296.533
296.459
296.423
296.416
296.429
296.444
296.458
296.471
296.478
296.478
296.48
296.489
296.487
296.754
296.661
296.594
296.569
296.571
296.592
296.611
296.626
296.639
296.644
296.642
296.643
296.656
296.652
296.884
296.808
296.747
296.728
296.733
296.754
296.769
296.78
296.79
296.792
296.793
296.792
296.81
296.798
297.033
296.967
296.904
296.883
296.888
296.905
296.914
296.922
296.929
296.929
296.938
296.94
296.968
296.955
297.211
297.151
297.085
297.059
297.054
297.059
297.06
297.065
297.068
297.069
297.083
297.093
297.133
297.136
297.42
297.342
297.268
297.232
297.216
297.21
297.206
297.213
297.222
297.231
297.251
297.272
297.319
297.363
295.236
295.111
294.992
294.9
294.794
294.75
295.353
295.25
295.144
295.058
294.958
294.918
295.267
295.173
295.045
294.989
294.865
294.82
295.257
295.164
295.027
294.974
294.775
294.566
295.225
295.136
294.982
294.918
294.622
294.162
295.207
295.127
294.953
294.837
294.412
293.688
295.17
295.081
294.884
294.683
294.131
293.181
295.15
295.045
294.827
294.515
293.81
292.658
295.108
294.978
294.736
294.311
293.493
292.239
295.098
294.955
294.689
294.195
293.259
291.963
295.067
294.872
294.538
293.972
293.046
291.874
295.085
294.827
294.485
293.884
293.005
291.876
295.048
294.748
294.371
293.758
292.962
291.977
295.038
294.729
294.368
293.83
293.151
292.247
294.859
294.5
294.121
293.61
293.062
292.623
294.98
294.688
294.392
293.947
293.574
293.299
295.204
294.923
294.637
294.284
293.971
293.769
295.386
295.152
294.929
294.674
294.487
294.362
295.574
295.393
295.247
295.071
294.96
294.801
295.755
295.633
295.556
295.443
295.361
295.168
295.946
295.878
295.847
295.784
295.72
295.481
296.143
296.125
296.123
296.102
296.049
295.778
296.348
296.379
296.399
296.413
296.353
296.089
296.546
296.622
296.672
296.714
296.645
296.395
296.736
296.852
296.937
296.988
296.93
296.708
296.911
297.053
297.16
297.2
297.153
296.963
297.092
297.244
297.353
297.379
297.326
297.169
297.266
297.409
297.485
297.494
297.426
297.323
297.481
297.601
297.637
297.624
297.543
297.474
297.555
297.66
297.704
297.683
297.625
297.587
297.496
297.637
297.723
297.751
297.734
297.715
297.459
297.631
297.756
297.834
297.88
297.93
297.431
297.619
297.791
297.936
298.057
298.187
297.412
297.621
297.828
298.029
298.214
298.411
297.4
297.615
297.845
298.077
298.295
298.509
297.393
297.609
297.847
298.087
298.314
298.526
297.388
297.598
297.831
298.06
298.27
298.452
297.394
297.596
297.811
298.015
298.191
298.322
297.407
297.602
297.798
297.971
298.105
298.172
297.435
297.626
297.803
297.947
298.038
298.045
297.472
297.651
297.804
297.918
297.976
297.953
297.524
297.692
297.813
297.902
297.937
297.887
297.608
297.744
297.826
297.889
297.883
297.825
295.853
295.788
295.751
295.662
295.557
295.288
295.674
295.569
295.497
295.381
295.242
294.977
295.522
295.368
295.274
295.156
295.037
294.845
295.284
295.084
294.952
294.818
294.753
294.73
297.566
297.704
297.767
297.833
297.846
297.848
297.333
297.488
297.595
297.726
297.803
297.86
297.186
297.365
297.52
297.694
297.801
297.906
297.043
297.248
297.439
297.637
297.742
297.851
296.92
297.138
297.335
297.509
297.576
297.653
296.791
296.994
297.155
297.268
297.285
297.266
296.649
296.794
296.899
296.946
296.914
296.802
296.484
296.567
296.608
296.589
296.53
296.339
296.303
296.332
296.332
296.274
296.188
295.969
296.121
296.103
296.074
295.992
295.896
295.674
295.942
295.887
295.857
295.777
295.688
295.46
295.78
295.687
295.645
295.565
295.46
295.229
295.632
295.502
295.459
295.377
295.289
295.121
295.405
295.23
295.14
295.025
294.973
294.962
293.792
291.373
290.523
292.383
295.597
293.452
290.661
289.728
291.745
295.031
292.896
289.628
288.943
291.375
294.987
292.132
288.453
288.268
290.978
293.862
291.298
287.598
288.15
291.59
294.58
290.54
287.007
287.788
291.596
295.199
290.013
286.788
287.806
291.348
294.924
289.749
286.709
287.503
290.835
295.027
296.389
289.589
286.781
287.76
290.918
294.968
297.149
289.734
287.048
287.735
290.634
295.617
298.551
289.805
287.482
287.891
290.327
295.778
299.038
298.113
290.118
288.155
288.113
289.679
294.952
298.803
298.376
299.656
290.52
288.963
288.621
289.463
293.777
297.847
299.344
303.297
291.248
289.898
289.146
289.921
294.4
299.136
301.213
298.388
292.124
290.984
289.899
291.014
295.732
301.062
302.365
297.045
292.914
291.913
290.307
291.84
296.596
300.698
301.105
298.911
293.443
292.234
290.738
292.671
296.875
299.487
301.836
299.393
293.805
292.139
290.934
293.325
297.614
300.135
300.671
296.566
294.071
292.131
291.498
294.622
298.708
300.154
300.606
295.465
294.302
292.203
291.731
295.068
299.772
301.684
299.973
296.582
294.565
292.52
292.208
294.942
299.174
301.191
301.703
298.417
294.869
292.908
292.647
295.492
299.625
302.494
302.283
300.768
295.188
293.443
293.371
296.477
300.549
302.956
295.559
294.06
293.976
296.972
301.945
305.315
295.985
294.718
294.643
296.906
301.974
306.416
296.42
295.39
295.311
296.658
301.123
306.047
296.829
296.039
296.042
296.484
299.655
304.406
297.194
296.631
296.7
296.699
299.764
297.55
297.182
297.167
297.171
300.967
297.854
297.726
297.414
297.296
301.161
298.159
298.156
297.42
297.418
301.193
298.418
298.362
297.546
298.256
302.46
298.606
298.379
297.622
299.137
303.354
298.634
298.208
297.505
299.591
303.393
298.569
298.097
297.553
299.371
302.08
298.402
297.897
297.443
298.908
300.818
298.2
297.726
297.416
298.852
300.203
298.031
297.64
297.418
298.66
300.346
297.918
297.577
297.371
298.284
300.668
297.868
297.6
297.408
297.985
300.601
297.889
297.698
297.495
297.908
300.341
297.917
297.769
297.546
298.241
300.437
297.938
297.673
297.271
298.413
301.458
297.872
297.297
296.617
298.044
301.137
297.771
296.823
296.04
297.703
300.879
297.463
296.11
295.393
297.516
300.535
296.917
295.208
294.736
297.582
300.521
296.274
294.448
294.21
297.235
300.365
295.701
293.959
293.858
296.382
298.521
295.269
293.672
293.561
295.683
297.606
295.042
293.475
293.348
295.282
297.3
294.816
293.234
292.93
294.487
296.838
294.674
292.96
292.417
293.687
296.893
294.492
292.668
291.933
292.534
295.435
294.347
292.326
291.371
292.303
295.067
294.083
291.88
290.85
291.896
294.557
295.565
295.519
295.496
295.454
295.424
295.376
295.34
295.301
295.268
295.237
295.221
295.174
295.127
295.089
295.768
295.693
295.646
295.582
295.533
295.473
295.428
295.387
295.354
295.328
295.315
295.298
295.268
295.274
295.897
295.814
295.756
295.684
295.628
295.568
295.526
295.49
295.461
295.434
295.414
295.402
295.387
295.404
296.027
295.94
295.867
295.791
295.73
295.676
295.639
295.607
295.579
295.551
295.531
295.525
295.52
295.535
296.152
296.059
295.975
295.901
295.841
295.795
295.762
295.735
295.708
295.683
295.665
295.659
295.657
295.67
296.278
296.182
296.093
296.023
295.967
295.928
295.901
295.878
295.855
295.835
295.819
295.813
295.813
295.825
296.407
296.31
296.222
296.156
296.107
296.076
296.054
296.037
296.018
296.001
295.985
295.979
295.98
295.991
296.537
296.44
296.357
296.298
296.257
296.234
296.218
296.204
296.189
296.174
296.162
296.158
296.164
296.169
296.664
296.576
296.501
296.451
296.419
296.4
296.388
296.375
296.361
296.347
296.339
296.336
296.344
296.347
296.802
296.721
296.65
296.607
296.581
296.564
296.552
296.538
296.524
296.511
296.505
296.505
296.519
296.525
296.948
296.881
296.815
296.777
296.748
296.727
296.71
296.69
296.673
296.66
296.659
296.665
296.692
296.683
297.109
297.046
296.975
296.934
296.9
296.875
296.852
296.827
296.808
296.798
296.808
296.831
296.866
296.848
297.291
297.228
297.15
297.1
297.052
297.021
296.99
296.961
296.941
296.939
296.958
296.995
297.037
297.024
297.48
297.395
297.304
297.244
297.192
297.157
297.123
297.099
297.086
297.095
297.125
297.17
297.222
297.246
295.866
295.815
295.771
295.705
295.65
295.581
295.524
295.471
295.433
295.405
295.385
295.337
295.271
295.192
296.053
295.956
295.89
295.804
295.736
295.664
295.604
295.552
295.512
295.477
295.448
295.417
295.366
295.339
296.158
296.047
295.971
295.881
295.814
295.746
295.693
295.646
295.607
295.57
295.535
295.501
295.455
295.44
296.256
296.148
296.064
295.975
295.906
295.843
295.794
295.75
295.71
295.67
295.63
295.595
295.554
295.543
296.341
296.242
296.155
296.071
296.002
295.943
295.896
295.855
295.817
295.778
295.737
295.699
295.663
295.65
296.437
296.347
296.265
296.188
296.118
296.06
296.013
295.973
295.936
295.898
295.859
295.823
295.793
295.78
296.553
296.471
296.393
296.318
296.249
296.19
296.141
296.101
296.065
296.029
295.993
295.96
295.937
295.928
296.678
296.601
296.524
296.452
296.385
296.327
296.278
296.238
296.204
296.172
296.143
296.116
296.104
296.101
296.809
296.738
296.663
296.593
296.528
296.471
296.423
296.383
296.349
296.32
296.296
296.275
296.275
296.279
296.945
296.869
296.791
296.723
296.661
296.608
296.562
296.522
296.49
296.466
296.448
296.442
296.458
296.458
297.084
297.01
296.927
296.861
296.8
296.747
296.699
296.66
296.629
296.611
296.601
296.608
296.639
296.629
297.219
297.139
297.048
296.985
296.925
296.875
296.827
296.789
296.763
296.756
296.762
296.785
296.827
296.809
297.367
297.295
297.199
297.132
297.059
297.003
296.952
296.918
296.9
296.906
296.927
296.965
297.007
296.993
297.512
297.423
297.322
297.254
297.184
297.128
297.08
297.051
297.042
297.063
297.099
297.15
297.202
297.198
296.237
296.206
296.156
296.076
295.994
295.909
295.836
295.778
295.737
295.718
295.704
295.67
295.61
295.5
296.414
296.319
296.255
296.163
296.08
295.999
295.925
295.863
295.811
295.775
295.742
295.711
295.661
295.626
296.509
296.395
296.323
296.232
296.156
296.084
296.019
295.96
295.906
295.864
295.822
295.788
295.739
295.721
296.595
296.484
296.407
296.321
296.25
296.181
296.118
296.06
296.002
295.953
295.902
295.864
295.818
295.805
296.655
296.562
296.485
296.406
296.337
296.272
296.211
296.156
296.099
296.05
295.999
295.96
295.914
295.893
296.716
296.641
296.573
296.503
296.434
296.369
296.309
296.255
296.201
296.154
296.107
296.068
296.024
295.999
296.792
296.728
296.664
296.598
296.529
296.466
296.407
296.356
296.309
296.268
296.226
296.188
296.148
296.121
296.878
296.816
296.752
296.688
296.622
296.562
296.509
296.463
296.423
296.388
296.354
296.317
296.286
296.258
296.968
296.906
296.841
296.776
296.714
296.658
296.61
296.571
296.537
296.506
296.476
296.441
296.42
296.395
297.073
296.992
296.919
296.854
296.796
296.748
296.708
296.676
296.65
296.626
296.604
296.574
296.562
296.543
297.199
297.103
297.005
296.936
296.879
296.835
296.803
296.777
296.759
296.742
296.727
296.705
296.708
296.699
297.322
297.216
297.101
297.023
296.959
296.919
296.889
296.869
296.862
296.858
296.859
296.856
296.878
296.873
297.446
297.357
297.236
297.15
297.068
297.014
296.978
296.963
296.966
296.981
297.002
297.024
297.05
297.045
297.542
297.445
297.328
297.243
297.167
297.113
297.08
297.073
297.085
297.116
297.155
297.198
297.226
297.241
296.787
296.774
296.742
296.665
296.593
296.491
296.415
296.341
296.283
296.248
296.225
296.191
296.113
295.953
296.945
296.867
296.822
296.738
296.67
296.569
296.489
296.41
296.341
296.293
296.248
296.21
296.143
296.087
297.048
296.954
296.895
296.801
296.736
296.649
296.576
296.508
296.439
296.387
296.33
296.291
296.225
296.197
297.141
297.04
296.983
296.887
296.821
296.735
296.66
296.591
296.519
296.464
296.4
296.36
296.297
296.283
297.234
297.129
297.069
296.971
296.903
296.822
296.748
296.683
296.613
296.56
296.497
296.456
296.39
296.371
297.324
297.224
297.162
297.062
296.987
296.903
296.826
296.762
296.695
296.647
296.589
296.55
296.488
296.465
297.421
297.319
297.253
297.149
297.069
296.986
296.91
296.851
296.793
296.751
296.7
296.66
296.602
296.571
297.508
297.415
297.343
297.237
297.152
297.07
296.996
296.939
296.887
296.848
296.806
296.768
296.719
296.685
297.595
297.515
297.431
297.319
297.231
297.147
297.074
297.02
296.975
296.94
296.906
296.869
296.836
296.801
297.667
297.592
297.502
297.399
297.315
297.237
297.174
297.126
297.09
297.059
297.03
296.992
296.963
296.923
297.72
297.654
297.574
297.486
297.41
297.337
297.278
297.231
297.197
297.167
297.145
297.112
297.098
297.057
297.761
297.693
297.61
297.55
297.489
297.43
297.386
297.348
297.321
297.299
297.284
297.254
297.244
297.192
297.791
297.736
297.655
297.609
297.566
297.525
297.486
297.451
297.428
297.419
297.422
297.406
297.395
297.329
297.747
297.715
297.668
297.641
297.613
297.589
297.556
297.536
297.533
297.541
297.557
297.554
297.552
297.464
297.632
297.642
297.613
297.537
297.48
297.396
297.348
297.26
297.217
297.178
297.155
297.13
297.054
296.877
297.746
297.701
297.655
297.581
297.528
297.439
297.384
297.294
297.242
297.193
297.148
297.105
297.053
296.998
297.834
297.752
297.715
297.633
297.587
297.509
297.457
297.376
297.318
297.262
297.202
297.161
297.102
297.081
297.911
297.815
297.778
297.695
297.646
297.567
297.512
297.436
297.374
297.316
297.252
297.213
297.154
297.14
297.977
297.874
297.84
297.755
297.705
297.63
297.578
297.51
297.452
297.398
297.336
297.295
297.225
297.205
298.052
297.947
297.909
297.821
297.768
297.695
297.642
297.579
297.523
297.474
297.414
297.37
297.295
297.26
298.107
298.009
297.964
297.872
297.817
297.747
297.696
297.64
297.591
297.549
297.498
297.454
297.383
297.342
298.163
298.074
298.023
297.93
297.872
297.804
297.753
297.702
297.656
297.619
297.571
297.529
297.46
297.412
298.211
298.133
298.069
297.973
297.915
297.852
297.801
297.757
297.716
297.684
297.642
297.602
297.542
297.496
298.272
298.19
298.115
298.022
297.967
297.906
297.859
297.821
297.785
297.757
297.72
297.683
297.632
297.583
298.341
298.254
298.163
298.073
298.018
297.963
297.919
297.885
297.852
297.823
297.789
297.754
297.717
297.676
298.385
298.301
298.21
298.128
298.075
298.026
297.988
297.959
297.933
297.909
297.885
297.853
297.822
297.773
298.432
298.337
298.251
298.181
298.134
298.086
298.05
298.019
297.995
297.976
297.972
297.957
297.934
297.865
298.366
298.312
298.255
298.207
298.169
298.13
298.104
298.085
298.08
298.082
298.094
298.084
298.057
297.908
298.864
298.8
298.767
298.708
298.668
298.608
298.564
298.488
298.455
298.399
298.383
298.372
298.325
298.23
298.917
298.837
298.793
298.735
298.693
298.631
298.582
298.506
298.463
298.403
298.368
298.338
298.326
298.288
298.953
298.865
298.833
298.776
298.737
298.68
298.633
298.565
298.52
298.46
298.415
298.375
298.345
298.326
299.003
298.912
298.887
298.826
298.784
298.727
298.68
298.617
298.571
298.512
298.464
298.423
298.384
298.369
299.039
298.951
298.93
298.87
298.83
298.778
298.736
298.682
298.64
298.586
298.539
298.496
298.442
298.424
299.091
299.003
298.981
298.919
298.88
298.832
298.794
298.747
298.709
298.661
298.612
298.566
298.502
298.469
299.117
299.038
299.016
298.955
298.922
298.881
298.848
298.811
298.778
298.738
298.694
298.648
298.581
298.541
299.143
299.075
299.054
298.997
298.967
298.931
298.902
298.87
298.839
298.804
298.758
298.711
298.638
298.585
299.156
299.106
299.084
299.028
299.002
298.973
298.947
298.924
298.896
298.865
298.823
298.776
298.704
298.651
299.157
299.113
299.097
299.056
299.042
299.022
298.999
298.979
298.951
298.922
298.878
298.833
298.762
298.7
299.166
299.129
299.11
299.074
299.064
299.054
299.036
299.024
298.997
298.966
298.92
298.867
298.797
298.737
299.151
299.116
299.112
299.09
299.089
299.086
299.073
299.069
299.045
299.016
298.968
298.915
298.843
298.783
299.135
299.108
299.101
299.088
299.093
299.098
299.086
299.082
299.062
299.035
298.998
298.947
298.884
298.792
299.001
299.044
299.068
299.074
299.087
299.1
299.104
299.111
299.105
299.091
299.066
299.01
298.933
298.741
300.34
300.244
300.216
300.174
300.148
300.117
300.1
300.068
300.06
300.038
300.048
300.058
300.059
300.087
300.337
300.248
300.215
300.173
300.144
300.111
300.087
300.052
300.035
300.008
300.005
300.008
300.024
300.036
300.34
300.256
300.224
300.181
300.153
300.121
300.096
300.065
300.046
300.021
300.012
300.006
300.012
300.016
300.364
300.28
300.251
300.207
300.176
300.142
300.117
300.087
300.068
300.042
300.026
300.011
300.001
300.001
300.382
300.303
300.276
300.233
300.203
300.172
300.149
300.124
300.105
300.079
300.057
300.034
300.011
300.006
300.411
300.335
300.308
300.266
300.237
300.21
300.188
300.166
300.147
300.12
300.093
300.063
300.028
300.012
300.424
300.356
300.332
300.293
300.267
300.244
300.225
300.205
300.186
300.159
300.13
300.096
300.053
300.03
300.433
300.376
300.356
300.321
300.298
300.277
300.259
300.24
300.219
300.192
300.158
300.12
300.07
300.036
300.431
300.385
300.368
300.34
300.321
300.305
300.288
300.27
300.248
300.221
300.185
300.142
300.088
300.046
300.426
300.387
300.376
300.353
300.339
300.328
300.312
300.296
300.271
300.24
300.199
300.152
300.091
300.045
300.417
300.385
300.379
300.36
300.347
300.339
300.324
300.31
300.283
300.25
300.207
300.155
300.098
300.051
300.4
300.363
300.373
300.363
300.354
300.35
300.337
300.328
300.302
300.27
300.225
300.173
300.113
300.068
300.381
300.358
300.36
300.35
300.347
300.347
300.335
300.329
300.305
300.277
300.235
300.182
300.132
300.054
300.294
300.314
300.337
300.34
300.34
300.346
300.341
300.347
300.332
300.314
300.281
300.23
300.166
300.026
301.831
301.731
301.698
301.663
301.646
301.635
301.638
301.644
301.667
301.685
301.73
301.781
301.837
301.927
301.807
301.725
301.69
301.656
301.638
301.626
301.625
301.627
301.642
301.654
301.685
301.724
301.775
301.834
301.797
301.726
301.698
301.668
301.653
301.641
301.639
301.639
301.647
301.657
301.679
301.706
301.745
301.792
301.796
301.737
301.715
301.691
301.678
301.667
301.663
301.661
301.664
301.668
301.679
301.693
301.716
301.75
301.797
301.748
301.734
301.718
301.709
301.702
301.698
301.694
301.692
301.689
301.688
301.691
301.7
301.723
301.803
301.764
301.756
301.745
301.742
301.736
301.732
301.725
301.718
301.708
301.698
301.692
301.689
301.7
301.8
301.773
301.771
301.767
301.768
301.766
301.762
301.753
301.741
301.726
301.71
301.695
301.683
301.685
301.803
301.785
301.787
301.787
301.792
301.792
301.788
301.778
301.762
301.743
301.721
301.697
301.675
301.667
301.799
301.792
301.8
301.805
301.811
301.813
301.81
301.8
301.782
301.759
301.732
301.702
301.675
301.662
301.804
301.801
301.815
301.823
301.83
301.833
301.83
301.82
301.799
301.771
301.737
301.702
301.67
301.653
301.809
301.808
301.827
301.839
301.845
301.849
301.845
301.835
301.812
301.782
301.747
301.71
301.679
301.663
301.822
301.819
301.842
301.856
301.861
301.865
301.859
301.851
301.828
301.8
301.765
301.727
301.697
301.683
301.831
301.839
301.855
301.866
301.87
301.874
301.868
301.864
301.842
301.818
301.785
301.748
301.723
301.681
301.832
301.849
301.87
301.886
301.89
301.894
301.887
301.89
301.872
301.857
301.831
301.8
301.773
301.724
303.146
303.077
303.053
303.034
303.031
303.04
303.065
303.095
303.139
303.19
303.262
303.35
303.453
303.593
303.13
303.076
303.054
303.036
303.033
303.04
303.061
303.088
303.127
303.173
303.237
303.313
303.402
303.507
303.129
303.087
303.073
303.06
303.059
303.064
303.081
303.106
303.139
303.179
303.231
303.294
303.37
303.459
303.133
303.105
303.099
303.092
303.094
303.1
303.115
303.136
303.161
303.191
303.229
303.275
303.333
303.403
303.139
303.123
303.128
303.129
303.137
303.145
303.157
303.172
303.187
303.204
303.228
303.259
303.301
303.357
303.148
303.141
303.153
303.162
303.175
303.183
303.192
303.198
303.203
303.21
303.221
303.24
303.269
303.311
303.154
303.157
303.175
303.19
303.207
303.216
303.22
303.219
303.215
303.213
303.214
303.223
303.24
303.271
303.167
303.177
303.198
303.215
303.233
303.242
303.243
303.237
303.224
303.213
303.206
303.204
303.212
303.232
303.182
303.197
303.22
303.238
303.255
303.263
303.262
303.251
303.233
303.215
303.199
303.19
303.191
303.207
303.206
303.223
303.246
303.263
303.276
303.281
303.277
303.264
303.242
303.218
303.195
303.179
303.174
303.186
303.235
303.252
303.274
303.289
303.297
303.299
303.291
303.276
303.251
303.225
303.2
303.182
303.175
303.191
303.271
303.287
303.307
303.318
303.32
303.319
303.307
303.291
303.265
303.24
303.215
303.198
303.192
303.209
303.305
303.324
303.339
303.346
303.343
303.34
303.325
303.311
303.285
303.263
303.239
303.224
303.218
303.224
303.355
303.361
303.374
303.383
303.377
303.373
303.355
303.344
303.321
303.303
303.284
303.274
303.271
303.287
304.189
304.153
304.134
304.122
304.122
304.134
304.162
304.198
304.247
304.304
304.38
304.474
304.586
304.729
304.199
304.163
304.144
304.131
304.13
304.139
304.163
304.199
304.247
304.305
304.381
304.474
304.581
304.708
304.216
304.19
304.175
304.162
304.16
304.166
304.188
304.222
304.268
304.326
304.398
304.483
304.583
304.696
304.25
304.23
304.22
304.208
304.206
304.21
304.229
304.261
304.303
304.356
304.421
304.497
304.584
304.683
304.283
304.274
304.269
304.261
304.261
304.264
304.28
304.308
304.345
304.391
304.447
304.513
304.59
304.676
304.325
304.321
304.321
304.316
304.317
304.318
304.33
304.354
304.383
304.421
304.468
304.524
304.588
304.661
304.366
304.368
304.373
304.372
304.374
304.374
304.382
304.398
304.42
304.449
304.486
304.531
304.584
304.647
304.411
304.418
304.426
304.426
304.428
304.427
304.429
304.437
304.45
304.47
304.496
304.532
304.575
304.629
304.458
304.467
304.478
304.479
304.48
304.477
304.472
304.472
304.477
304.488
304.505
304.533
304.567
304.616
304.51
304.519
304.53
304.53
304.53
304.523
304.513
304.505
304.501
304.505
304.514
304.534
304.561
304.606
304.565
304.571
304.582
304.58
304.577
304.567
304.551
304.538
304.527
304.525
304.529
304.544
304.565
304.61
304.621
304.628
304.637
304.632
304.626
304.612
304.592
304.575
304.558
304.55
304.552
304.564
304.579
304.621
304.679
304.685
304.69
304.683
304.673
304.657
304.635
304.616
304.595
304.584
304.581
304.592
304.608
304.65
304.749
304.742
304.75
304.743
304.729
304.711
304.685
304.665
304.644
304.633
304.628
304.639
304.654
304.713
305.015
304.994
304.976
304.964
304.96
304.964
304.982
305.013
305.057
305.113
305.186
305.273
305.372
305.495
305.037
305.009
304.988
304.972
304.966
304.967
304.983
305.014
305.059
305.119
305.197
305.289
305.394
305.512
305.063
305.039
305.016
304.998
304.989
304.989
305.004
305.036
305.082
305.143
305.221
305.311
305.416
305.532
305.113
305.088
305.066
305.045
305.034
305.03
305.043
305.076
305.122
305.184
305.261
305.351
305.449
305.56
305.166
305.145
305.123
305.102
305.089
305.083
305.096
305.127
305.173
305.235
305.311
305.397
305.493
305.595
305.23
305.21
305.189
305.166
305.152
305.146
305.156
305.186
305.23
305.29
305.363
305.444
305.534
305.627
305.295
305.279
305.259
305.237
305.223
305.216
305.224
305.252
305.292
305.348
305.415
305.491
305.574
305.658
305.364
305.35
305.332
305.31
305.296
305.287
305.293
305.316
305.351
305.401
305.46
305.529
305.604
305.68
305.432
305.421
305.404
305.384
305.37
305.359
305.361
305.379
305.407
305.449
305.5
305.561
305.628
305.698
305.499
305.49
305.476
305.456
305.441
305.428
305.426
305.438
305.458
305.492
305.534
305.587
305.645
305.708
305.565
305.556
305.544
305.525
305.509
305.495
305.487
305.493
305.506
305.531
305.564
305.61
305.66
305.721
305.631
305.623
305.613
305.593
305.576
305.559
305.547
305.546
305.552
305.57
305.595
305.635
305.677
305.734
305.696
305.683
305.676
305.657
305.641
305.622
305.605
305.598
305.598
305.609
305.626
305.659
305.695
305.753
305.769
305.747
305.744
305.724
305.706
305.685
305.664
305.651
305.645
305.652
305.665
305.693
305.721
305.786
305.728
305.713
305.694
305.681
305.672
305.669
305.675
305.694
305.727
305.771
305.829
305.897
305.972
306.066
305.749
305.726
305.705
305.687
305.675
305.671
305.677
305.696
305.73
305.778
305.843
305.918
306.002
306.094
305.77
305.745
305.721
305.701
305.689
305.684
305.691
305.713
305.748
305.797
305.862
305.939
306.026
306.121
305.812
305.784
305.758
305.736
305.721
305.715
305.721
305.743
305.78
305.832
305.899
305.978
306.065
306.16
305.857
305.828
305.801
305.778
305.763
305.756
305.763
305.786
305.825
305.879
305.948
306.027
306.116
306.21
305.915
305.885
305.857
305.832
305.816
305.808
305.815
305.84
305.879
305.935
306.004
306.083
306.171
306.261
305.975
305.946
305.918
305.893
305.877
305.869
305.878
305.903
305.943
305.999
306.068
306.145
306.231
306.318
306.039
306.012
305.984
305.959
305.943
305.936
305.944
305.969
306.009
306.063
306.129
306.203
306.287
306.368
306.103
306.078
306.051
306.027
306.011
306.005
306.013
306.038
306.075
306.126
306.189
306.259
306.338
306.414
306.166
306.145
306.118
306.095
306.08
306.074
306.081
306.103
306.136
306.184
306.242
306.307
306.381
306.452
306.227
306.208
306.184
306.161
306.147
306.14
306.146
306.165
306.194
306.237
306.288
306.348
306.416
306.483
306.286
306.27
306.247
306.226
306.21
306.203
306.206
306.222
306.245
306.283
306.328
306.383
306.446
306.51
306.344
306.326
306.308
306.287
306.272
306.264
306.264
306.276
306.294
306.326
306.364
306.414
306.469
306.534
306.404
306.384
306.365
306.345
306.33
306.32
306.318
306.325
306.337
306.362
306.394
306.437
306.489
306.552
306.378
306.367
306.353
306.34
306.33
306.323
306.322
306.328
306.344
306.368
306.402
306.441
306.486
306.54
306.392
306.377
306.36
306.344
306.332
306.325
306.323
306.33
306.349
306.376
306.415
306.461
306.513
306.569
306.403
306.383
306.365
306.348
306.337
306.331
306.332
306.341
306.362
306.391
306.431
306.48
306.534
306.596
306.425
306.402
306.382
306.365
306.353
306.347
306.349
306.36
306.382
306.414
306.457
306.509
306.566
306.631
306.449
306.424
306.403
306.386
306.375
306.37
306.374
306.388
306.413
306.448
306.494
306.548
306.609
306.676
306.485
306.458
306.436
306.418
306.407
306.403
306.408
306.423
306.45
306.487
306.536
306.593
306.656
306.724
306.523
306.496
306.474
306.456
306.445
306.442
306.449
306.467
306.496
306.536
306.587
306.645
306.711
306.779
306.565
306.539
306.517
306.498
306.488
306.486
306.495
306.514
306.545
306.587
306.64
306.7
306.767
306.834
306.61
306.586
306.563
306.545
306.535
306.535
306.545
306.566
306.598
306.642
306.696
306.755
306.823
306.888
306.656
306.634
306.61
306.593
306.585
306.585
306.595
306.618
306.651
306.695
306.749
306.807
306.876
306.938
306.702
306.682
306.659
306.643
306.635
306.636
306.647
306.669
306.702
306.745
306.799
306.854
306.922
306.981
306.747
306.73
306.707
306.692
306.684
306.685
306.696
306.718
306.749
306.791
306.842
306.897
306.963
307.022
306.794
306.775
306.756
306.741
306.734
306.735
306.744
306.765
306.794
306.834
306.882
306.936
306.997
307.058
306.837
306.821
306.8
306.787
306.78
306.781
306.789
306.807
306.833
306.868
306.912
306.961
307.02
307.079
306.926
306.919
306.911
306.901
306.892
306.885
306.879
306.876
306.878
306.883
306.893
306.905
306.92
306.939
306.937
306.926
306.915
306.904
306.894
306.887
306.882
306.881
306.884
306.891
306.905
306.922
306.943
306.967
306.944
306.929
306.917
306.905
306.896
306.891
306.888
306.889
306.896
306.907
306.923
306.944
306.967
306.996
306.954
306.937
306.924
306.912
306.904
306.899
306.897
306.9
306.909
306.923
306.943
306.968
306.995
307.028
306.966
306.946
306.933
306.921
306.914
306.911
306.912
306.918
306.93
306.948
306.971
307
307.03
307.067
306.983
306.962
306.949
306.937
306.931
306.928
306.93
306.939
306.953
306.974
307.001
307.033
307.068
307.108
307.003
306.983
306.969
306.957
306.951
306.95
306.955
306.966
306.984
307.008
307.038
307.073
307.112
307.154
307.028
307.008
306.993
306.982
306.976
306.977
306.983
306.997
307.018
307.045
307.078
307.116
307.159
307.202
307.056
307.038
307.022
307.011
307.006
307.008
307.017
307.033
307.056
307.085
307.121
307.161
307.207
307.251
307.086
307.07
307.054
307.043
307.04
307.043
307.053
307.071
307.096
307.127
307.167
307.208
307.258
307.302
307.121
307.106
307.09
307.08
307.077
307.081
307.093
307.112
307.138
307.17
307.212
307.254
307.306
307.348
307.156
307.144
307.127
307.118
307.116
307.121
307.133
307.153
307.181
307.214
307.257
307.301
307.354
307.397
307.195
307.183
307.168
307.159
307.157
307.163
307.175
307.195
307.223
307.257
307.3
307.346
307.398
307.441
307.232
307.223
307.207
307.2
307.198
307.203
307.216
307.236
307.264
307.298
307.339
307.383
307.434
307.477
307.324