/*--------------------------------*- C++ -*----------------------------------*\
| =========                 |                                                 |
| \\      /  F ield         | OpenFOAM: The Open Source CFD Toolbox           |
|  \\    /   O peration     | Version:  v2106                                 |
|   \\  /    A nd           | Website:  www.openfoam.com                      |
|    \\/     M anipulation  |                                                 |
\*---------------------------------------------------------------------------*/
FoamFile
{
    version     2.0;
    format      ascii;
    arch        "LSB;label=32;scalar=64";
    class       volScalarField;
    location    "0.000206";
    object      rho;
}
// * * * * * * * * * * * * * * * * * * * * * * * * * * * * * * * * * * * * * //

dimensions      [1 -3 0 0 0 0 0];

internalField   nonuniform List<scalar> 
17920
(
2.68389
2.68376
2.68389
2.68375
2.68392
2.68378
2.68397
2.68381
2.68402
2.68385
2.68408
2.6839
2.68415
2.68396
2.68423
2.68403
2.68432
2.68411
2.68442
2.68421
2.68453
2.6843
2.68465
2.68441
2.68477
2.68452
2.68492
2.68467
2.68518
2.68494
2.68472
2.68451
2.6843
2.68409
2.68388
2.68367
2.68346
2.68326
2.68307
2.68287
2.6827
2.68249
2.68513
2.6849
2.6847
2.68449
2.68428
2.68406
2.68384
2.68362
2.68341
2.6832
2.683
2.68278
2.6826
2.68239
2.68507
2.68486
2.68465
2.68444
2.68422
2.68401
2.6838
2.68358
2.68336
2.68314
2.68293
2.68271
2.68251
2.68229
2.68503
2.68482
2.6846
2.68439
2.68418
2.68396
2.68374
2.68352
2.6833
2.68307
2.68285
2.68263
2.68242
2.68219
2.68498
2.68477
2.68456
2.68434
2.68412
2.68391
2.68368
2.68346
2.68323
2.683
2.68277
2.68254
2.68232
2.68209
2.68493
2.68472
2.68451
2.68429
2.68407
2.68385
2.68362
2.68339
2.68316
2.68292
2.68269
2.68245
2.68222
2.68198
2.68488
2.68468
2.68445
2.68424
2.68401
2.68378
2.68355
2.68332
2.68308
2.68284
2.6826
2.68235
2.68211
2.68186
2.68482
2.68462
2.6844
2.68417
2.68394
2.68371
2.68348
2.68324
2.68299
2.68275
2.6825
2.68225
2.682
2.68175
2.68477
2.68456
2.68434
2.68411
2.68388
2.68364
2.6834
2.68315
2.6829
2.68265
2.6824
2.68214
2.68188
2.68163
2.68471
2.68449
2.68427
2.68404
2.6838
2.68356
2.68332
2.68307
2.68281
2.68256
2.68229
2.68203
2.68176
2.68151
2.68465
2.68443
2.6842
2.68397
2.68373
2.68348
2.68323
2.68297
2.68271
2.68245
2.68218
2.68191
2.68164
2.68138
2.68457
2.68434
2.68412
2.68389
2.68364
2.6834
2.68314
2.68288
2.68261
2.68235
2.68207
2.6818
2.68151
2.68126
2.68451
2.68427
2.68405
2.68381
2.68356
2.68331
2.68305
2.68278
2.68251
2.68223
2.68195
2.68167
2.68138
2.68111
2.68443
2.68419
2.68396
2.68372
2.68347
2.68321
2.68295
2.68268
2.68241
2.68214
2.68186
2.68158
2.68129
2.68102
2.68346
2.68326
2.68306
2.68286
2.68266
2.68244
2.68222
2.68199
2.68176
2.68152
2.68129
2.68105
2.68084
2.68058
2.68327
2.68309
2.6829
2.6827
2.6825
2.68228
2.68206
2.68182
2.68159
2.68135
2.68111
2.68086
2.68064
2.68039
2.68306
2.6829
2.68271
2.68252
2.68231
2.6821
2.68188
2.68165
2.68141
2.68117
2.68093
2.68068
2.68045
2.6802
2.68287
2.68271
2.68252
2.68233
2.68213
2.68191
2.68169
2.68146
2.68122
2.68097
2.68073
2.68048
2.68025
2.67999
2.68267
2.68252
2.68232
2.68213
2.68193
2.68171
2.68149
2.68126
2.68102
2.68077
2.68053
2.68027
2.68003
2.67977
2.68247
2.68231
2.68212
2.68192
2.68172
2.6815
2.68128
2.68104
2.6808
2.68055
2.6803
2.68005
2.6798
2.67954
2.68227
2.6821
2.6819
2.68171
2.6815
2.68128
2.68105
2.68081
2.68057
2.68032
2.68007
2.67981
2.67955
2.67929
2.68205
2.68187
2.68167
2.68147
2.68126
2.68104
2.68081
2.68057
2.68033
2.68008
2.67982
2.67956
2.67929
2.67903
2.68184
2.68165
2.68145
2.68124
2.68102
2.6808
2.68056
2.68032
2.68007
2.67982
2.67955
2.67929
2.67902
2.67877
2.6816
2.6814
2.6812
2.68098
2.68076
2.68054
2.6803
2.68006
2.6798
2.67955
2.67928
2.67902
2.67874
2.67849
2.68137
2.68116
2.68095
2.68073
2.68051
2.68027
2.68003
2.67978
2.67952
2.67926
2.67899
2.67873
2.67845
2.67821
2.68112
2.68089
2.68068
2.68046
2.68023
2.67999
2.67975
2.6795
2.67924
2.67898
2.6787
2.67844
2.67816
2.67792
2.68088
2.68064
2.68043
2.6802
2.67996
2.67972
2.67947
2.67921
2.67894
2.67867
2.67839
2.67812
2.67784
2.67761
2.68061
2.68036
2.68014
2.67991
2.67967
2.67942
2.67917
2.67892
2.67865
2.67839
2.67811
2.67785
2.67757
2.67733
2.68016
2.68001
2.67986
2.6797
2.67953
2.67935
2.67915
2.67895
2.67873
2.67851
2.67828
2.67804
2.67783
2.67757
2.67985
2.67974
2.67959
2.67944
2.67927
2.67908
2.67889
2.67868
2.67847
2.67824
2.67801
2.67777
2.67755
2.67731
2.67955
2.67946
2.6793
2.67915
2.67898
2.6788
2.67861
2.67841
2.6782
2.67797
2.67775
2.67751
2.67729
2.67705
2.67925
2.67916
2.67901
2.67886
2.67869
2.67851
2.67832
2.67811
2.6779
2.67768
2.67746
2.67722
2.677
2.67676
2.67896
2.67885
2.6787
2.67855
2.67838
2.6782
2.67801
2.67781
2.6776
2.67738
2.67716
2.67693
2.67671
2.67647
2.67864
2.67853
2.67838
2.67823
2.67806
2.67788
2.67769
2.67749
2.67728
2.67706
2.67684
2.67661
2.67639
2.67616
2.67833
2.67821
2.67806
2.6779
2.67773
2.67755
2.67736
2.67716
2.67695
2.67673
2.67651
2.67629
2.67606
2.67583
2.678
2.67787
2.67771
2.67756
2.67739
2.6772
2.67701
2.67681
2.6766
2.67639
2.67617
2.67594
2.67572
2.6755
2.67767
2.67752
2.67737
2.67721
2.67703
2.67685
2.67666
2.67645
2.67624
2.67603
2.67581
2.67559
2.67536
2.67515
2.67732
2.67716
2.67701
2.67684
2.67666
2.67648
2.67629
2.67609
2.67588
2.67566
2.67544
2.67522
2.67499
2.6748
2.67699
2.67681
2.67665
2.67647
2.6763
2.67611
2.67591
2.67571
2.6755
2.67528
2.67506
2.67485
2.67462
2.67444
2.67663
2.67643
2.67627
2.67609
2.67591
2.67572
2.67553
2.67533
2.67512
2.6749
2.67468
2.67447
2.67424
2.67407
2.67629
2.67608
2.67591
2.67573
2.67554
2.67535
2.67514
2.67494
2.67472
2.6745
2.67428
2.67407
2.67385
2.67369
2.6759
2.67569
2.67551
2.67533
2.67514
2.67495
2.67475
2.67455
2.67434
2.67412
2.67391
2.6737
2.67348
2.67332
2.67493
2.67487
2.67478
2.67469
2.67459
2.67447
2.67435
2.67421
2.67406
2.6739
2.67374
2.67356
2.6734
2.6732
2.67459
2.67455
2.67448
2.67439
2.67429
2.67418
2.67405
2.67391
2.67376
2.6736
2.67344
2.67326
2.6731
2.67291
2.67428
2.67425
2.67416
2.67408
2.67398
2.67386
2.67373
2.6736
2.67345
2.6733
2.67315
2.67298
2.67282
2.67264
2.67395
2.67392
2.67384
2.67375
2.67365
2.67353
2.67341
2.67327
2.67313
2.67298
2.67283
2.67266
2.67251
2.67233
2.67363
2.67359
2.6735
2.67341
2.67331
2.6732
2.67307
2.67294
2.6728
2.67266
2.67251
2.67235
2.6722
2.67202
2.67329
2.67324
2.67316
2.67307
2.67296
2.67285
2.67273
2.6726
2.67246
2.67232
2.67217
2.67201
2.67187
2.6717
2.67295
2.67289
2.6728
2.67271
2.67261
2.67249
2.67237
2.67224
2.67211
2.67197
2.67182
2.67167
2.67153
2.67137
2.6726
2.67252
2.67244
2.67235
2.67224
2.67213
2.67201
2.67188
2.67175
2.67161
2.67147
2.67132
2.67118
2.67103
2.67225
2.67216
2.67207
2.67198
2.67187
2.67176
2.67164
2.67151
2.67138
2.67124
2.6711
2.67096
2.67082
2.67069
2.67189
2.67178
2.6717
2.6716
2.67149
2.67138
2.67126
2.67114
2.671
2.67087
2.67073
2.6706
2.67045
2.67034
2.67153
2.67142
2.67132
2.67122
2.67112
2.671
2.67088
2.67076
2.67063
2.6705
2.67036
2.67023
2.67009
2.67
2.67116
2.67103
2.67094
2.67084
2.67073
2.67062
2.6705
2.67037
2.67024
2.67012
2.66998
2.66986
2.66972
2.66964
2.67082
2.67067
2.67058
2.67047
2.67036
2.67024
2.67012
2.66999
2.66986
2.66973
2.6696
2.66949
2.66935
2.66929
2.67042
2.67029
2.67018
2.67008
2.66997
2.66985
2.66974
2.66961
2.66948
2.66936
2.66923
2.66912
2.66899
2.66892
2.66805
2.66806
2.66805
2.66804
2.66803
2.668
2.66797
2.66793
2.66788
2.66782
2.66775
2.66768
2.6676
2.66752
2.66778
2.66781
2.6678
2.66779
2.66778
2.66775
2.66772
2.66768
2.66763
2.66757
2.66751
2.66743
2.66736
2.66726
2.66754
2.66756
2.66755
2.66754
2.66752
2.6675
2.66746
2.66742
2.66738
2.66732
2.66726
2.66719
2.66712
2.66703
2.66728
2.6673
2.66728
2.66727
2.66725
2.66723
2.6672
2.66716
2.66711
2.66706
2.667
2.66693
2.66687
2.66678
2.66702
2.66703
2.66701
2.667
2.66698
2.66696
2.66693
2.66689
2.66684
2.66679
2.66674
2.66667
2.66661
2.66653
2.66675
2.66675
2.66674
2.66673
2.66671
2.66668
2.66665
2.66661
2.66657
2.66652
2.66647
2.66641
2.66635
2.66628
2.66647
2.66647
2.66646
2.66644
2.66642
2.6664
2.66636
2.66633
2.66629
2.66624
2.66619
2.66614
2.66608
2.66602
2.66619
2.66618
2.66617
2.66616
2.66614
2.66611
2.66608
2.66604
2.666
2.66596
2.66591
2.66586
2.66581
2.66576
2.66591
2.66589
2.66588
2.66586
2.66584
2.66582
2.66579
2.66575
2.66572
2.66568
2.66563
2.66559
2.66554
2.6655
2.66563
2.6656
2.66559
2.66557
2.66555
2.66553
2.6655
2.66546
2.66543
2.66539
2.66534
2.6653
2.66526
2.66524
2.66535
2.66531
2.6653
2.66528
2.66526
2.66523
2.6652
2.66517
2.66514
2.6651
2.66506
2.66502
2.66498
2.66498
2.66506
2.66501
2.665
2.66499
2.66496
2.66494
2.66491
2.66488
2.66484
2.66481
2.66477
2.66473
2.66469
2.66471
2.66479
2.66473
2.66472
2.6647
2.66467
2.66465
2.66462
2.66459
2.66455
2.66452
2.66449
2.66445
2.66442
2.66445
2.66449
2.66445
2.66443
2.66441
2.66438
2.66436
2.66433
2.6643
2.66427
2.66424
2.6642
2.66417
2.66415
2.66416
2.66024
2.66031
2.66037
2.66043
2.66049
2.66054
2.66059
2.66064
2.66068
2.66071
2.66074
2.66076
2.66077
2.66078
2.66011
2.66018
2.66024
2.6603
2.66036
2.66041
2.66046
2.66051
2.66055
2.66058
2.66061
2.66063
2.66064
2.66064
2.65998
2.66006
2.66011
2.66017
2.66022
2.66028
2.66033
2.66037
2.66041
2.66045
2.66047
2.66049
2.66051
2.6605
2.65985
2.65992
2.65997
2.66003
2.66009
2.66014
2.66019
2.66023
2.66027
2.6603
2.66033
2.66035
2.66037
2.66037
2.65971
2.65978
2.65983
2.65989
2.65994
2.65999
2.66004
2.66009
2.66013
2.66016
2.66019
2.66021
2.66024
2.66024
2.65956
2.65963
2.65968
2.65974
2.65979
2.65985
2.65989
2.65994
2.65998
2.66001
2.66004
2.66007
2.66009
2.66011
2.65941
2.65947
2.65953
2.65959
2.65964
2.65969
2.65974
2.65979
2.65983
2.65986
2.6599
2.65992
2.65995
2.65997
2.65926
2.65932
2.65938
2.65943
2.65949
2.65954
2.65959
2.65963
2.65967
2.65971
2.65975
2.65978
2.6598
2.65983
2.6591
2.65916
2.65922
2.65928
2.65933
2.65938
2.65943
2.65948
2.65952
2.65956
2.65959
2.65963
2.65966
2.65969
2.65895
2.659
2.65906
2.65912
2.65917
2.65923
2.65927
2.65932
2.65936
2.6594
2.65944
2.65948
2.65951
2.65954
2.65879
2.65884
2.65891
2.65896
2.65901
2.65907
2.65911
2.65916
2.6592
2.65925
2.65929
2.65932
2.65936
2.6594
2.65863
2.65868
2.65875
2.6588
2.65885
2.65891
2.65895
2.659
2.65905
2.65909
2.65913
2.65917
2.6592
2.65925
2.65848
2.65852
2.65858
2.65864
2.65869
2.65875
2.65879
2.65884
2.65889
2.65893
2.65897
2.65902
2.65905
2.65911
2.65833
2.65838
2.65843
2.65849
2.65854
2.65859
2.65863
2.65868
2.65872
2.65877
2.65881
2.65886
2.6589
2.65895
2.65227
2.65237
2.65246
2.65256
2.65266
2.65275
2.65284
2.65293
2.65303
2.65311
2.65319
2.65327
2.65334
2.65341
2.65226
2.65236
2.65245
2.65255
2.65265
2.65275
2.65284
2.65294
2.65302
2.65311
2.65319
2.65327
2.65334
2.6534
2.65226
2.65235
2.65245
2.65255
2.65265
2.65274
2.65284
2.65293
2.65302
2.6531
2.65318
2.65326
2.65332
2.65339
2.65225
2.65235
2.65244
2.65254
2.65264
2.65274
2.65283
2.65292
2.65301
2.65309
2.65317
2.65324
2.65331
2.65337
2.65224
2.65234
2.65243
2.65253
2.65263
2.65273
2.65282
2.65291
2.653
2.65308
2.65316
2.65323
2.6533
2.65336
2.65222
2.65232
2.65242
2.65252
2.65262
2.65271
2.65281
2.6529
2.65298
2.65307
2.65314
2.65322
2.65328
2.65334
2.6522
2.6523
2.6524
2.6525
2.6526
2.6527
2.65279
2.65288
2.65297
2.65305
2.65312
2.6532
2.65327
2.65333
2.65217
2.65228
2.65238
2.65248
2.65258
2.65268
2.65277
2.65286
2.65295
2.65303
2.65311
2.65318
2.65325
2.65331
2.65215
2.65225
2.65235
2.65245
2.65255
2.65265
2.65274
2.65284
2.65292
2.653
2.65308
2.65316
2.65323
2.65329
2.65212
2.65222
2.65232
2.65243
2.65253
2.65262
2.65272
2.65281
2.6529
2.65298
2.65306
2.65313
2.65321
2.65327
2.65209
2.65219
2.65229
2.65239
2.65249
2.65259
2.65269
2.65278
2.65287
2.65295
2.65303
2.65311
2.65318
2.65325
2.65205
2.65216
2.65226
2.65236
2.65246
2.65256
2.65265
2.65275
2.65283
2.65292
2.653
2.65307
2.65315
2.65322
2.65202
2.65212
2.65222
2.65232
2.65242
2.65252
2.65262
2.65271
2.6528
2.65289
2.65297
2.65304
2.65312
2.6532
2.65199
2.6521
2.6522
2.6523
2.65239
2.65249
2.65258
2.65267
2.65275
2.65284
2.65292
2.653
2.65308
2.65316
2.64461
2.64469
2.64478
2.64488
2.64497
2.64507
2.64517
2.64526
2.64536
2.64545
2.64554
2.64563
2.64572
2.64581
2.64468
2.64476
2.64486
2.64495
2.64505
2.64515
2.64525
2.64535
2.64545
2.64554
2.64563
2.64571
2.6458
2.64589
2.64476
2.64484
2.64494
2.64504
2.64514
2.64524
2.64534
2.64543
2.64553
2.64562
2.6457
2.64579
2.64587
2.64596
2.64483
2.64492
2.64502
2.64512
2.64522
2.64532
2.64542
2.64552
2.64561
2.6457
2.64579
2.64587
2.64595
2.64603
2.6449
2.645
2.6451
2.6452
2.6453
2.6454
2.6455
2.6456
2.64569
2.64578
2.64586
2.64594
2.64602
2.6461
2.64497
2.64507
2.64517
2.64528
2.64538
2.64548
2.64558
2.64568
2.64577
2.64586
2.64594
2.64602
2.6461
2.64617
2.64504
2.64514
2.64525
2.64535
2.64545
2.64556
2.64565
2.64575
2.64584
2.64593
2.64601
2.64609
2.64617
2.64624
2.6451
2.64521
2.64531
2.64542
2.64552
2.64562
2.64572
2.64582
2.64591
2.646
2.64608
2.64616
2.64624
2.6463
2.64516
2.64527
2.64538
2.64548
2.64559
2.64569
2.64579
2.64589
2.64598
2.64607
2.64615
2.64623
2.64631
2.64637
2.64522
2.64533
2.64544
2.64555
2.64565
2.64575
2.64585
2.64595
2.64604
2.64613
2.64621
2.64629
2.64637
2.64643
2.64528
2.64539
2.64549
2.6456
2.64571
2.64581
2.64591
2.64601
2.6461
2.64619
2.64627
2.64635
2.64643
2.6465
2.64533
2.64544
2.64555
2.64566
2.64576
2.64586
2.64596
2.64606
2.64616
2.64625
2.64633
2.64641
2.64649
2.64656
2.64538
2.64549
2.64559
2.6457
2.64581
2.64591
2.64601
2.64611
2.64621
2.6463
2.64639
2.64647
2.64654
2.64662
2.64543
2.64555
2.64565
2.64576
2.64586
2.64596
2.64606
2.64616
2.64625
2.64634
2.64643
2.64651
2.64659
2.64667
2.63745
2.6375
2.63757
2.63764
2.6377
2.63777
2.63784
2.63791
2.63797
2.63804
2.63811
2.63818
2.63825
2.63833
2.63755
2.6376
2.63767
2.63773
2.63781
2.63788
2.63795
2.63802
2.63809
2.63816
2.63823
2.63829
2.63836
2.63844
2.63764
2.6377
2.63777
2.63784
2.63791
2.63799
2.63806
2.63813
2.6382
2.63826
2.63833
2.6384
2.63846
2.63854
2.63774
2.6378
2.63788
2.63795
2.63802
2.63809
2.63816
2.63824
2.63831
2.63837
2.63844
2.63851
2.63857
2.63864
2.63784
2.63791
2.63798
2.63805
2.63813
2.6382
2.63827
2.63834
2.63841
2.63848
2.63855
2.63861
2.63867
2.63874
2.63794
2.63801
2.63809
2.63816
2.63823
2.63831
2.63838
2.63845
2.63852
2.63859
2.63866
2.63872
2.63878
2.63884
2.63804
2.63811
2.63819
2.63826
2.63834
2.63841
2.63848
2.63856
2.63863
2.63869
2.63876
2.63882
2.63888
2.63894
2.63814
2.63821
2.63829
2.63836
2.63844
2.63851
2.63859
2.63866
2.63873
2.6388
2.63886
2.63893
2.63899
2.63904
2.63823
2.63831
2.63839
2.63846
2.63854
2.63862
2.63869
2.63876
2.63883
2.6389
2.63897
2.63903
2.63909
2.63914
2.63833
2.63841
2.63848
2.63856
2.63864
2.63871
2.63879
2.63886
2.63893
2.639
2.63906
2.63912
2.63919
2.63923
2.63842
2.6385
2.63858
2.63866
2.63873
2.63881
2.63888
2.63896
2.63903
2.6391
2.63916
2.63922
2.63928
2.63933
2.63851
2.6386
2.63867
2.63875
2.63883
2.6389
2.63898
2.63905
2.63912
2.63919
2.63926
2.63932
2.63938
2.63943
2.6386
2.63868
2.63876
2.63884
2.63892
2.63899
2.63907
2.63914
2.63922
2.63928
2.63935
2.63941
2.63947
2.63952
2.6387
2.63878
2.63885
2.63893
2.63901
2.63908
2.63916
2.63923
2.6393
2.63937
2.63944
2.6395
2.63956
2.63963
2.63087
2.63089
2.63092
2.63094
2.63097
2.631
2.63103
2.63106
2.6311
2.63113
2.63117
2.63121
2.63125
2.6313
2.63094
2.63096
2.63099
2.63102
2.63105
2.63108
2.63111
2.63114
2.63118
2.63122
2.63126
2.6313
2.63134
2.63139
2.63102
2.63104
2.63107
2.63109
2.63112
2.63116
2.63119
2.63122
2.63126
2.6313
2.63134
2.63138
2.63142
2.63147
2.6311
2.63112
2.63115
2.63117
2.63121
2.63124
2.63127
2.63131
2.63135
2.63138
2.63142
2.63147
2.63151
2.63156
2.63118
2.6312
2.63123
2.63126
2.63129
2.63132
2.63136
2.63139
2.63143
2.63147
2.63151
2.63155
2.63159
2.63164
2.63126
2.63128
2.63131
2.63134
2.63138
2.63141
2.63144
2.63148
2.63152
2.63156
2.6316
2.63164
2.63168
2.63172
2.63134
2.63137
2.6314
2.63143
2.63146
2.6315
2.63153
2.63157
2.63161
2.63165
2.63169
2.63172
2.63177
2.63181
2.63143
2.63146
2.63149
2.63152
2.63155
2.63159
2.63162
2.63166
2.6317
2.63174
2.63177
2.63181
2.63185
2.63189
2.63152
2.63155
2.63158
2.63161
2.63164
2.63168
2.63171
2.63175
2.63179
2.63183
2.63186
2.6319
2.63194
2.63197
2.63161
2.63164
2.63167
2.6317
2.63173
2.63177
2.63181
2.63184
2.63188
2.63192
2.63195
2.63199
2.63203
2.63206
2.63169
2.63173
2.63176
2.63179
2.63183
2.63186
2.6319
2.63193
2.63197
2.63201
2.63204
2.63208
2.63212
2.63214
2.63178
2.63182
2.63185
2.63188
2.63192
2.63195
2.63199
2.63203
2.63206
2.6321
2.63214
2.63217
2.63221
2.63223
2.63187
2.63191
2.63194
2.63198
2.63201
2.63205
2.63208
2.63212
2.63216
2.63219
2.63223
2.63226
2.63229
2.63232
2.63197
2.632
2.63203
2.63207
2.6321
2.63214
2.63218
2.63221
2.63225
2.63228
2.63232
2.63235
2.63239
2.63243
2.62486
2.62486
2.62485
2.62485
2.62484
2.62484
2.62485
2.62485
2.62485
2.62486
2.62488
2.62489
2.62491
2.62493
2.6249
2.62489
2.62488
2.62488
2.62488
2.62488
2.62488
2.62488
2.62489
2.6249
2.62492
2.62493
2.62495
2.62498
2.62493
2.62492
2.62492
2.62491
2.62491
2.62491
2.62491
2.62492
2.62493
2.62494
2.62495
2.62497
2.62499
2.62502
2.62497
2.62496
2.62495
2.62495
2.62495
2.62495
2.62495
2.62496
2.62497
2.62498
2.62499
2.62501
2.62503
2.62506
2.62501
2.625
2.625
2.62499
2.62499
2.62499
2.62499
2.625
2.62501
2.62502
2.62504
2.62506
2.62508
2.62511
2.62506
2.62505
2.62504
2.62504
2.62504
2.62504
2.62504
2.62505
2.62505
2.62507
2.62508
2.6251
2.62513
2.62515
2.62511
2.6251
2.62509
2.62509
2.62509
2.62509
2.62509
2.62509
2.6251
2.62512
2.62513
2.62515
2.62517
2.6252
2.62517
2.62516
2.62515
2.62514
2.62514
2.62514
2.62514
2.62515
2.62516
2.62517
2.62519
2.6252
2.62523
2.62525
2.62522
2.62521
2.62521
2.6252
2.6252
2.6252
2.6252
2.6252
2.62521
2.62523
2.62524
2.62526
2.62528
2.6253
2.62528
2.62527
2.62527
2.62526
2.62526
2.62526
2.62526
2.62526
2.62527
2.62528
2.6253
2.62531
2.62533
2.62535
2.62534
2.62534
2.62533
2.62532
2.62532
2.62532
2.62532
2.62533
2.62534
2.62535
2.62536
2.62537
2.62539
2.6254
2.6254
2.6254
2.62539
2.62539
2.62539
2.62539
2.62539
2.62539
2.6254
2.62541
2.62542
2.62543
2.62545
2.62546
2.62547
2.62546
2.62546
2.62546
2.62545
2.62545
2.62546
2.62546
2.62547
2.62548
2.62549
2.6255
2.62551
2.62552
2.62554
2.62553
2.62552
2.62552
2.62552
2.62552
2.62553
2.62553
2.62554
2.62555
2.62555
2.62556
2.62557
2.62558
2.6194
2.61939
2.61937
2.61935
2.61934
2.61932
2.61931
2.6193
2.61929
2.61928
2.61928
2.61928
2.61928
2.61928
2.61941
2.61939
2.61937
2.61935
2.61934
2.61932
2.61931
2.6193
2.61929
2.61928
2.61928
2.61928
2.61928
2.61929
2.61941
2.61939
2.61937
2.61935
2.61934
2.61932
2.61931
2.6193
2.61929
2.61929
2.61928
2.61928
2.61929
2.61929
2.61942
2.6194
2.61938
2.61936
2.61934
2.61933
2.61931
2.6193
2.6193
2.61929
2.61929
2.61929
2.6193
2.6193
2.61943
2.61941
2.61939
2.61937
2.61935
2.61933
2.61932
2.61931
2.6193
2.6193
2.6193
2.6193
2.61931
2.61931
2.61945
2.61942
2.6194
2.61938
2.61936
2.61935
2.61933
2.61932
2.61931
2.61931
2.61931
2.61931
2.61932
2.61933
2.61947
2.61944
2.61942
2.6194
2.61938
2.61936
2.61935
2.61934
2.61933
2.61933
2.61933
2.61933
2.61933
2.61934
2.61949
2.61946
2.61944
2.61942
2.6194
2.61938
2.61937
2.61935
2.61935
2.61934
2.61934
2.61934
2.61935
2.61936
2.61951
2.61948
2.61946
2.61944
2.61942
2.6194
2.61939
2.61938
2.61937
2.61936
2.61936
2.61936
2.61937
2.61938
2.61953
2.61951
2.61949
2.61946
2.61944
2.61943
2.61941
2.6194
2.61939
2.61939
2.61939
2.61939
2.61939
2.6194
2.61956
2.61954
2.61951
2.61949
2.61947
2.61945
2.61944
2.61943
2.61942
2.61941
2.61941
2.61941
2.61941
2.61942
2.61959
2.61957
2.61954
2.61952
2.6195
2.61949
2.61947
2.61946
2.61945
2.61944
2.61944
2.61944
2.61944
2.61944
2.61962
2.6196
2.61958
2.61956
2.61954
2.61952
2.6195
2.61949
2.61948
2.61947
2.61947
2.61947
2.61947
2.61946
2.61965
2.61963
2.61961
2.61959
2.61957
2.61955
2.61954
2.61953
2.61952
2.61951
2.6195
2.6195
2.6195
2.61949
2.61446
2.61445
2.61443
2.61442
2.61441
2.61439
2.61438
2.61437
2.61435
2.61434
2.61433
2.61432
2.6143
2.61429
2.61446
2.61444
2.61443
2.61441
2.6144
2.61438
2.61437
2.61436
2.61434
2.61433
2.61432
2.61431
2.6143
2.61428
2.61445
2.61444
2.61442
2.6144
2.61439
2.61437
2.61436
2.61435
2.61433
2.61432
2.61431
2.6143
2.61429
2.61428
2.61445
2.61443
2.61441
2.6144
2.61438
2.61437
2.61435
2.61434
2.61432
2.61431
2.6143
2.61429
2.61428
2.61427
2.61444
2.61442
2.61441
2.61439
2.61437
2.61436
2.61434
2.61433
2.61432
2.6143
2.61429
2.61428
2.61428
2.61427
2.61444
2.61442
2.6144
2.61438
2.61437
2.61435
2.61434
2.61432
2.61431
2.6143
2.61429
2.61428
2.61427
2.61426
2.61444
2.61442
2.6144
2.61438
2.61436
2.61435
2.61433
2.61432
2.6143
2.61429
2.61428
2.61427
2.61427
2.61426
2.61443
2.61441
2.6144
2.61438
2.61436
2.61434
2.61433
2.61431
2.6143
2.61429
2.61428
2.61427
2.61426
2.61426
2.61443
2.61441
2.61439
2.61438
2.61436
2.61434
2.61433
2.61431
2.6143
2.61429
2.61428
2.61427
2.61426
2.61425
2.61443
2.61441
2.61439
2.61438
2.61436
2.61434
2.61433
2.61431
2.6143
2.61429
2.61427
2.61427
2.61426
2.61425
2.61443
2.61442
2.61439
2.61438
2.61436
2.61434
2.61433
2.61431
2.6143
2.61429
2.61427
2.61426
2.61426
2.61425
2.61444
2.61442
2.6144
2.61438
2.61436
2.61434
2.61433
2.61431
2.6143
2.61429
2.61427
2.61426
2.61426
2.61425
2.61444
2.61442
2.6144
2.61438
2.61436
2.61435
2.61433
2.61431
2.6143
2.61429
2.61428
2.61427
2.61426
2.61425
2.61444
2.61442
2.6144
2.61438
2.61437
2.61435
2.61433
2.61432
2.6143
2.61429
2.61428
2.61427
2.61426
2.61425
2.60998
2.60998
2.60998
2.60998
2.60997
2.60997
2.60996
2.60995
2.60994
2.60993
2.60991
2.6099
2.60988
2.60986
2.60998
2.60999
2.60998
2.60998
2.60997
2.60997
2.60996
2.60995
2.60994
2.60993
2.60991
2.60989
2.60988
2.60986
2.60998
2.60998
2.60998
2.60998
2.60997
2.60996
2.60996
2.60995
2.60993
2.60992
2.60991
2.60989
2.60987
2.60985
2.60998
2.60998
2.60998
2.60997
2.60997
2.60996
2.60995
2.60994
2.60993
2.60992
2.6099
2.60989
2.60987
2.60985
2.60998
2.60997
2.60997
2.60997
2.60996
2.60996
2.60995
2.60994
2.60992
2.60991
2.6099
2.60988
2.60986
2.60984
2.60997
2.60997
2.60996
2.60996
2.60995
2.60995
2.60994
2.60993
2.60992
2.6099
2.60989
2.60987
2.60985
2.60984
2.60996
2.60996
2.60996
2.60995
2.60995
2.60994
2.60993
2.60992
2.60991
2.60989
2.60988
2.60986
2.60985
2.60983
2.60995
2.60995
2.60994
2.60994
2.60994
2.60993
2.60992
2.60991
2.6099
2.60988
2.60987
2.60985
2.60984
2.60982
2.60994
2.60994
2.60993
2.60993
2.60992
2.60992
2.60991
2.6099
2.60989
2.60987
2.60986
2.60984
2.60983
2.60981
2.60993
2.60992
2.60992
2.60992
2.60991
2.6099
2.60989
2.60988
2.60987
2.60986
2.60984
2.60983
2.60981
2.6098
2.60991
2.60991
2.60991
2.6099
2.6099
2.60989
2.60988
2.60987
2.60986
2.60984
2.60983
2.60982
2.6098
2.60978
2.6099
2.6099
2.60989
2.60989
2.60988
2.60987
2.60986
2.60985
2.60984
2.60983
2.60981
2.6098
2.60978
2.60977
2.60988
2.60988
2.60988
2.60987
2.60987
2.60986
2.60985
2.60984
2.60982
2.60981
2.6098
2.60978
2.60977
2.60975
2.60987
2.60986
2.60986
2.60985
2.60985
2.60984
2.60983
2.60982
2.60981
2.60979
2.60978
2.60977
2.60975
2.60974
2.60591
2.60593
2.60594
2.60594
2.60595
2.60595
2.60595
2.60595
2.60594
2.60593
2.60592
2.6059
2.60589
2.60586
2.60593
2.60594
2.60595
2.60596
2.60596
2.60597
2.60597
2.60596
2.60595
2.60594
2.60593
2.60591
2.60589
2.60587
2.60594
2.60595
2.60596
2.60597
2.60597
2.60598
2.60598
2.60597
2.60596
2.60595
2.60594
2.60592
2.6059
2.60587
2.60594
2.60596
2.60597
2.60598
2.60598
2.60598
2.60598
2.60598
2.60597
2.60596
2.60594
2.60593
2.6059
2.60588
2.60594
2.60596
2.60597
2.60598
2.60598
2.60599
2.60599
2.60598
2.60597
2.60596
2.60595
2.60593
2.60591
2.60588
2.60594
2.60596
2.60597
2.60598
2.60598
2.60599
2.60599
2.60598
2.60597
2.60596
2.60595
2.60593
2.6059
2.60588
2.60594
2.60595
2.60596
2.60597
2.60598
2.60598
2.60598
2.60598
2.60597
2.60596
2.60594
2.60592
2.6059
2.60587
2.60593
2.60594
2.60596
2.60597
2.60597
2.60598
2.60597
2.60597
2.60596
2.60595
2.60593
2.60591
2.60589
2.60587
2.60591
2.60593
2.60594
2.60595
2.60596
2.60596
2.60596
2.60596
2.60595
2.60594
2.60592
2.6059
2.60588
2.60586
2.6059
2.60592
2.60593
2.60594
2.60595
2.60595
2.60595
2.60594
2.60594
2.60592
2.60591
2.60589
2.60587
2.60585
2.60588
2.6059
2.60591
2.60592
2.60593
2.60593
2.60593
2.60592
2.60592
2.6059
2.60589
2.60587
2.60585
2.60583
2.60586
2.60588
2.60589
2.6059
2.60591
2.60591
2.60591
2.6059
2.60589
2.60588
2.60587
2.60585
2.60583
2.60581
2.60584
2.60586
2.60587
2.60588
2.60588
2.60588
2.60588
2.60588
2.60587
2.60586
2.60584
2.60583
2.60581
2.60579
2.60582
2.60583
2.60584
2.60585
2.60585
2.60585
2.60585
2.60585
2.60584
2.60583
2.60582
2.6058
2.60578
2.60577
2.60218
2.6022
2.60222
2.60223
2.60225
2.60225
2.60226
2.60226
2.60226
2.60225
2.60224
2.60222
2.6022
2.60218
2.6022
2.60222
2.60224
2.60226
2.60227
2.60228
2.60228
2.60228
2.60228
2.60227
2.60226
2.60224
2.60222
2.6022
2.60222
2.60224
2.60226
2.60228
2.60229
2.6023
2.60231
2.60231
2.6023
2.60229
2.60228
2.60226
2.60224
2.60221
2.60223
2.60226
2.60228
2.6023
2.60231
2.60232
2.60232
2.60232
2.60232
2.60231
2.60229
2.60228
2.60225
2.60223
2.60224
2.60227
2.60229
2.60231
2.60232
2.60233
2.60234
2.60233
2.60233
2.60232
2.60231
2.60229
2.60226
2.60224
2.60225
2.60227
2.6023
2.60231
2.60233
2.60234
2.60234
2.60234
2.60234
2.60233
2.60231
2.60229
2.60227
2.60224
2.60225
2.60228
2.6023
2.60232
2.60233
2.60234
2.60235
2.60235
2.60234
2.60233
2.60232
2.6023
2.60227
2.60225
2.60225
2.60227
2.6023
2.60231
2.60233
2.60234
2.60234
2.60234
2.60234
2.60233
2.60231
2.60229
2.60227
2.60224
2.60224
2.60226
2.60229
2.60231
2.60232
2.60233
2.60234
2.60233
2.60233
2.60232
2.60231
2.60229
2.60226
2.60224
2.60223
2.60225
2.60228
2.60229
2.60231
2.60232
2.60232
2.60232
2.60232
2.60231
2.60229
2.60228
2.60225
2.60223
2.60221
2.60224
2.60226
2.60228
2.60229
2.6023
2.60231
2.60231
2.6023
2.60229
2.60228
2.60226
2.60224
2.60221
2.60219
2.60222
2.60224
2.60226
2.60227
2.60228
2.60228
2.60228
2.60228
2.60227
2.60226
2.60224
2.60222
2.6022
2.60217
2.6022
2.60222
2.60223
2.60225
2.60225
2.60226
2.60226
2.60225
2.60224
2.60223
2.60222
2.6022
2.60217
2.60215
2.60217
2.60219
2.60221
2.60222
2.60223
2.60223
2.60223
2.60222
2.60222
2.6022
2.60219
2.60217
2.60215
2.59871
2.59873
2.59876
2.59877
2.59879
2.5988
2.5988
2.59881
2.5988
2.5988
2.59879
2.59877
2.59876
2.59874
2.59874
2.59876
2.59878
2.5988
2.59881
2.59883
2.59883
2.59883
2.59883
2.59883
2.59881
2.5988
2.59878
2.59876
2.59876
2.59878
2.59881
2.59882
2.59884
2.59885
2.59886
2.59886
2.59886
2.59885
2.59884
2.59882
2.5988
2.59878
2.59878
2.5988
2.59883
2.59884
2.59886
2.59887
2.59888
2.59888
2.59888
2.59887
2.59886
2.59884
2.59882
2.5988
2.59879
2.59882
2.59884
2.59886
2.59888
2.59889
2.59889
2.5989
2.59889
2.59889
2.59887
2.59886
2.59884
2.59881
2.5988
2.59883
2.59885
2.59887
2.59889
2.5989
2.59891
2.59891
2.5989
2.5989
2.59888
2.59887
2.59885
2.59882
2.5988
2.59883
2.59886
2.59888
2.59889
2.59891
2.59891
2.59891
2.59891
2.5989
2.59889
2.59887
2.59885
2.59883
2.59881
2.59883
2.59886
2.59888
2.5989
2.59891
2.59891
2.59892
2.59891
2.59891
2.59889
2.59888
2.59886
2.59883
2.5988
2.59883
2.59886
2.59888
2.59889
2.5989
2.59891
2.59891
2.59891
2.5989
2.59889
2.59887
2.59885
2.59883
2.5988
2.59882
2.59885
2.59887
2.59889
2.5989
2.5989
2.59891
2.5989
2.5989
2.59888
2.59887
2.59885
2.59882
2.59878
2.59881
2.59884
2.59886
2.59887
2.59888
2.59889
2.59889
2.59889
2.59888
2.59887
2.59886
2.59884
2.59881
2.59877
2.5988
2.59882
2.59884
2.59886
2.59887
2.59887
2.59888
2.59887
2.59887
2.59885
2.59884
2.59882
2.5988
2.59875
2.59878
2.5988
2.59882
2.59883
2.59885
2.59885
2.59885
2.59885
2.59884
2.59883
2.59882
2.5988
2.59878
2.59873
2.59875
2.59878
2.5988
2.59881
2.59882
2.59883
2.59883
2.59882
2.59882
2.59881
2.59879
2.59878
2.59876
2.59545
2.59547
2.59549
2.5955
2.59552
2.59552
2.59553
2.59553
2.59553
2.59552
2.59552
2.5955
2.59549
2.59547
2.59547
2.59549
2.59551
2.59553
2.59554
2.59555
2.59555
2.59556
2.59555
2.59555
2.59554
2.59553
2.59551
2.5955
2.59549
2.59551
2.59553
2.59555
2.59556
2.59557
2.59557
2.59558
2.59557
2.59557
2.59556
2.59555
2.59553
2.59552
2.59551
2.59553
2.59555
2.59556
2.59558
2.59559
2.59559
2.59559
2.59559
2.59559
2.59558
2.59557
2.59555
2.59553
2.59552
2.59554
2.59556
2.59558
2.59559
2.5956
2.59561
2.59561
2.59561
2.5956
2.59559
2.59558
2.59556
2.59555
2.59553
2.59555
2.59557
2.59559
2.5956
2.59561
2.59562
2.59562
2.59562
2.59561
2.5956
2.59559
2.59557
2.59555
2.59554
2.59556
2.59558
2.5956
2.59561
2.59562
2.59563
2.59563
2.59563
2.59562
2.59561
2.5956
2.59558
2.59556
2.59554
2.59556
2.59558
2.5956
2.59561
2.59562
2.59563
2.59563
2.59563
2.59562
2.59561
2.5956
2.59558
2.59556
2.59554
2.59556
2.59558
2.5956
2.59561
2.59562
2.59563
2.59563
2.59563
2.59562
2.59561
2.5956
2.59558
2.59556
2.59553
2.59556
2.59558
2.59559
2.59561
2.59562
2.59562
2.59563
2.59562
2.59562
2.59561
2.5956
2.59558
2.59556
2.59553
2.59555
2.59557
2.59559
2.5956
2.59561
2.59561
2.59562
2.59562
2.59561
2.5956
2.59559
2.59557
2.59555
2.59552
2.59554
2.59556
2.59557
2.59559
2.5956
2.5956
2.59561
2.5956
2.5956
2.59559
2.59558
2.59556
2.59554
2.5955
2.59552
2.59554
2.59556
2.59557
2.59558
2.59559
2.59559
2.59559
2.59558
2.59557
2.59556
2.59555
2.59553
2.59548
2.59551
2.59552
2.59554
2.59555
2.59556
2.59557
2.59557
2.59557
2.59556
2.59556
2.59554
2.59553
2.59551
2.68384
2.68375
2.68371
2.68368
2.68366
2.68367
2.68371
2.68363
2.68359
2.68356
2.68355
2.68356
2.68526
2.68542
2.68553
2.68568
2.6858
2.68594
2.68503
2.68517
2.6853
2.68544
2.68556
2.68568
2.68482
2.68495
2.68506
2.68517
2.68528
2.68539
2.6846
2.68471
2.68481
2.6849
2.68499
2.68508
2.68438
2.68447
2.68454
2.68461
2.68468
2.68475
2.68415
2.68422
2.68428
2.68433
2.68437
2.68442
2.68393
2.68398
2.68401
2.68404
2.68407
2.68409
2.68371
2.68374
2.68376
2.68377
2.68378
2.68378
2.6835
2.68351
2.68351
2.68351
2.68351
2.6835
2.68329
2.68327
2.68327
2.68326
2.68325
2.68324
2.68309
2.68307
2.68305
2.68303
2.68301
2.683
2.68289
2.68285
2.68282
2.6828
2.68278
2.68277
2.68273
2.68266
2.68262
2.68259
2.68257
2.68256
2.68251
2.68243
2.68239
2.68235
2.68233
2.68231
2.68363
2.68386
2.68403
2.68423
2.68441
2.68459
2.68345
2.68369
2.6839
2.68413
2.68432
2.68452
2.68328
2.68352
2.68374
2.68397
2.68417
2.68437
2.68308
2.68333
2.68355
2.68377
2.68397
2.68415
2.68286
2.68311
2.68332
2.68353
2.68371
2.68388
2.68264
2.68287
2.68306
2.68325
2.68341