/*--------------------------------*- C++ -*----------------------------------*\
| =========                 |                                                 |
| \\      /  F ield         | OpenFOAM: The Open Source CFD Toolbox           |
|  \\    /   O peration     | Version:  v2106                                 |
|   \\  /    A nd           | Website:  www.openfoam.com                      |
|    \\/     M anipulation  |                                                 |
\*---------------------------------------------------------------------------*/
FoamFile
{
    version     2.0;
    format      ascii;
    arch        "LSB;label=32;scalar=64";
    class       volScalarField;
    location    "0.000218";
    object      p;
}
// * * * * * * * * * * * * * * * * * * * * * * * * * * * * * * * * * * * * * //

dimensions      [1 -1 -2 0 0 0 0];

internalField   nonuniform List<scalar> 
144746
(
193717
193640
193475
193423
193379
193428
193477
193535
193612
193741
193846
193985
193963
194381
193545
193703
193586
193603
193588
193635
193707
193784
193872
193964
194050
194125
194122
194348
193652
193817
193762
193794
193789
193837
193903
193970
194060
194138
194199
194223
194194
194287
193740
193908
193908
193962
193978
194032
194090
194159
194233
194302
194355
194362
194310
194284
193823
193989
194029
194085
194130
194191
194239
194307
194380
194449
194495
194502
194448
194362
193913
194069
194148
194217
194274
194339
194389
194448
194511
194570
194614
194628
194585
194497
193984
194132
194242
194330
194402
194459
194514
194568
194618
194663
194705
194727
194707
194638
194053
194201
194325
194433
194512
194578
194630
194678
194718
194752
194787
194803
194808
194757
194115
194270
194407
194529
194616
194684
194734
194772
194799
194830
194863
194890
194917
194902
194182
194335
194482
194607
194700
194770
194819
194857
194885
194915
194947
194985
195019
195044
194266
194413
194556
194677
194771
194835
194879
194915
194948
194991
195044
195099
195139
195168
194357
194473
194611
194719
194805
194867
194908
194950
194997
195058
195130
195193
195239
195263
194479
194563
194674
194761
194827
194878
194914
194960
195023
195092
195180
195258
195319
195310
194541
194506
194633
194727
194806
194856
194886
194950
195023
195115
195231
195363
195451
195545
194133
194524
194521
194573
194631
194739
194849
194956
195064
195220
195389
195640
195796
196344
193833
194344
194419
194573
194704
194829
194959
195086
195239
195421
195631
195880
196034
196417
193841
194296
194411
194570
194737
194864
195045
195202
195368
195546
195732
195939
196078
196329
193817
194213
194388
194581
194791
194913
195101
195268
195450
195620
195775
195954
196099
196287
193800
194142
194339
194553
194763
194933
195124
195306
195481
195644
195797
195945
196075
196236
193821
194125
194358
194582
194785
194974
195155
195330
195498
195655
195796
195929
196037
196177
193802
194119
194335
194574
194780
194973
195153
195328
195493
195645
195786
195902
195999
196110
193780
194094
194336
194588
194802
194995
195171
195337
195487
195628
195749
195854
195932
196027
193762
194075
194348
194602
194820
195005
195171
195327
195469
195601
195706
195799
195866
195943
193763
194073
194369
194624
194839
195014
195167
195308
195439
195561
195655
195741
195803
195865
193782
194075
194376
194626
194828
194991
195134
195268
195393
195512
195599
195685
195750
195816
193767
194052
194335
194582
194778
194935
195072
195200
195325
195445
195524
195649
195689
195752
193770
194017
194291
194508
194690
194839
194969
195094
195229
195350
195456
195564
195624
195645
193558
193790
194108
194342
194528
194680
194822
194952
195102
195231
195363
195485
195583
195642
193829
194614
194889
195222
195499
195808
196096
196392
196640
196847
197036
197251
197418
197872
193813
194601
194909
195277
195603
195934
196251
196551
196810
197046
197269
197501
197715
198121
194063
194691
195080
195447
195776
196113
196436
196745
197012
197239
197439
197648
197847
198154
194258
194808
195230
195615
195953
196292
196610
196913
197176
197407
197610
197784
197975
198200
194432
194941
195378
195768
196115
196450
196766
197065
197333
197564
197767
197938
198109
198272
194592
195072
195529
195922
196277
196607
196916
197207
197473
197708
197916
198085
198243
198388
194679
195188
195652
196054
196418
196752
197060
197349
197613
197847
198054
198217
198360
198497
194771
195312
195792
196213
196581
196914
197219
197500
197756
197981
198174
198331
198452
198575
194841
195426
195929
196367
196738
197066
197363
197640
197889
198107
198283
198425
198516
198629
194948
195566
196091
196538
196905
197221
197504
197767
198003
198211
198372
198499
198561
198662
195009
195657
196199
196648
197010
197318
197595
197852
198085
198290
198440
198562
198596
198678
194983
195637
196206
196672
197041
197352
197632
197892
198130
198334
198480
198584
198594
198596
194882
195515
196110
196583
196955
197277
197569
197846
198102
198313
198462
198555
198551
198506
194377
195194
195842
196385
196794
197134
197439
197731
198001
198209
198364
198405
198357
198243
194957
195569
195300
195600
195380
196288
193892
194376
194267
194887
195002
195583
194036
194335
194190
194788
194818
195369
194106
194249
194054
194570
194544
195224
194232
194294
194128
194599
194533
195206
194371
194394
194240
194692
194641
195482
194524
194555
194434
194880
194844
195673
194685
194713
194621
195034
195035
195887
194872
194919
194868
195258
195306
195957
195041
195111
195104
195405
195542
196011
195217
195308
195367
195596
195798
196072
195356
195424
195474
195641
195838
196021
195461
195531
195593
195819
195944
196066
195123
195193
195259
195407
195604
195882
197069
197549
197384
197692
197431
197884
196104
196612
196547
197050
197161
197416
196213
196581
196544
197007
197156
197453
196255
196488
196454
196777
196956
197185
196276
196445
196460
196696
196863
197023
196258
196397
196437
196621
196711
196860
196208
196328
196374
196539
196603
196804
196129
196248
196305
196421
196486
196673
196041
196133
196212
196275
196362
196527
195960
196013
196110
196111
196247
196362
195901
195900
196018
195975
196149
196171
195875
195801
195903
195808
195944
195897
195834
195689
195727
195682
195836
195747
195355
195244
195280
195309
195439
195448
198620
198968
198988
199130
198960
199077
197980
198358
198287
198572
198625
198809
198108
198349
198307
198532
198606
198644
198237
198408
198381
198469
198473
198386
198380
198522
198538
198504
198389
198102
198498
198645
198668
198530
198292
197849
198566
198735
198717
198469
198138
197490
198615
198767
198675
198297
197875
197063
198656
198713
198536
198080
197520
196578
198638
198613
198348
197821
197114
196046
198601
198522
198150
197478
196660
195445
198487
198336
197893
197024
196073
194674
198383
198056
197544
196459
195454
193916
197885
197323
196649
195448
194346
192752
195822
196138
196045
196265
196194
196492
195269
195554
195502
195777
195740
195823
195267
195459
195401
195659
195679
195922
195170
195286
195245
195397
195420
195577
195102
195175
195169
195262
195368
195657
195012
195043
195051
195101
195172
195439
194932
194921
194939
194984
195097
195407
194839
194813
194850
194873
194948
195253
194830
194756
194796
194796
194886
195181
194828
194727
194774
194720
194771
195065
194823
194696
194720
194690
194737
195069
194800
194671
194646
194664
194658
194954
194743
194634
194530
194598
194615
195165
194011
193852
193731
193885
194081
194640
195811
195870
195812
195802
195855
195861
195447
195496
195429
195437
195476
195269
195370
195354
195308
195271
195338
195241
195243
195195
195112
195042
195106
194942
195107
195027
194925
194852
194943
194816
194954
194841
194710
194611
194708
194488
194779
194630
194489
194362
194510
194290
194639
194407
194263
194113
194298
194037
194514
194191
194035
193852
194098
193843
194388
193984
193838
193607
193819
193656
194240
193792
193669
193429
193585
193532
194083
193607
193484
193264
193333
193199
193956
193432
193303
193150
193320
193371
193038
192487
192312
192335
192579
192669
198131
197736
197172
195775
194518
192610
198188
197787
197184
195709
194360
192186
198199
197764
197172
195717
194246
191753
198171
197763
197113
195700
194129
191269
197993
197594
196920
195519
193900
190768
197760
197338
196628
195198
193534
190197
197447
196984
196228
194759
193091
189559
197106
196606
195782
194263
192590
188840
196751
196200
195284
193642
192035
188185
196382
195725
194783
192948
191473
187674
196016
195144
194247
192260
190899
187394
195597
194432
193579
191546
190252
186917
195112
193684
192861
190966
189775
187035
193553
191941
191053
189433
188675
186252
195412
194020
193797
193068
192816
192822
195316
194621
194554
194057
193848
193836
194772
194153
194106
193667
193630
193724
195310
193780
193880
193535
193629
193748
195620
193514
193609
193356
193515
193725
194974
193796
193744
193469
193572
193778
194771
193808
193807
193560
193654
193837
194677
193716
193815
193663
193770
193918
194589
193689
193797
193706
193838
193961
194666
193890
193958
193833
193957
194015
194602
193919
193947
193856
194032
194066
194788
194113
194235
194076
194230
194130
194680
194161
194321
194149
194357
194181
195404
194922
195085
195019
194955
194760
194865
193572
193400
192891
192767
193047
194403
193702
193799
193684
193744
194095
193912
193228
193289
193198
193383
193865
194048
192989
193109
193059
193307
193754
193680
192726
192862
192854
193156
193632
193353
192592
192757
192838
193160
193575
193121
192404
192644
192817
193145
193522
192996
192379
192592
192800
193126
193476
192880
192330
192521
192736
193067
193415
192919
192460
192601
192772
193060
193391
192877
192488
192588
192780
193077
193398
192976
192776
192793
192878
193100
193364
193000
192829
192790
192885
193145
193338
193518
193615
193578
193728
193626
193724
191334
191448
191189
191294
191642
192614
190622
191461
191526
192234
192719
193872
189543
190713
190947
191953
192562
193786
188937
190411
190722
191888
192610
193781
188106
190141
190551
191854
192713
193816
187828
190091
190658
191954
192910
193873
187707
190155
190819
192076
193052
193966
187841
190268
190984
192245
193194
194075
187983
190327
191066
192322
193256
194134
188060
190304
191117
192423
193361
194231
187923
190094
191021
192415
193395
194292
187743
189964
190996
192429
193355
194243
187355
189642
190606
192254
193242
194080
187035
189608
190828
192470
193356
194097
196253
195151
194859
194047
193757
193478
196340
195353
195163
194572
194330
194121
196409
195270
195017
194268
194083
193972
196539
195263
195007
194180
193949
193793
196608
195100
194828
193896
193715
193593
196643
194990
194718
193747
193576
193420
196527
194793
194489
193572
193456
193302
196285
194691
194355
193504
193378
193247
196006
194526
194182
193414
193334
193238
195777
194418
194144
193480
193370
193234
195308
194477
194197
193516
193370
193219
195667
194528
194304
193602
193557
193284
195464
194172
194232
193613
193558
193169
196108
195010
195126
194822
194932
194350
197111
196628
196225
195694
195523
195329
197149
196617
196428
196076
196021
195972
196857
196200
196058
195527
195543
195640
197015
195723
195758
195235
195240
195313
196843
195413
195449
194894
194980
195076
196715
195211
195319
194756
194849
194908
196542
194976
195154
194647
194758
194804
196332
194949
195064
194614
194711
194725
196058
195017
195029
194634
194679
194665
195871
195001
195058
194671
194658
194578
195458
195041
195003
194569
194556
194466
195983
194967
194943
194456
194562
194348
195474
194479
194732
194256
194348
194134
195747
195010
195285
195148
195287
194946
198149
197720
197364
197192
197184
197191
198289
197779
197693
197524
197467
197619
198001
197366
197246
197019
197063
197205
197966
197009
196999
196697
196751
196856
197751
196557
196509
196269
196447
196595
197553
196169
196217
196009
196182
196363
197032
195667
195849
195734
195925
196130
196403
195362
195526
195489
195672
195880
195662
195169
195305
195280
195437
195618
195316
194929
195032
194993
195163
195310
194838
194392
194507
194568
194804
194972
194636
194039
194175
194181
194448
194584
193528
193461
193671
193795
194067
194161
193101
193292
193742
194370
194370
194606
194615
195249
195566
195892
196191
196531
196857
197161
197442
197719
197988
198317
198658
199195
194761
195317
195643
196015
196358
196728
197082
197414
197720
198001
198272
198583
198911
199441
194969
195485
195834
196217
196562
196932
197292
197634
197946
198219
198474
198748
199064
199515
195125
195636
196002
196395
196749
197116
197483
197836
198163
198457
198722
198985
199276
199654
195336
195806
196179
196558
196921
197292
197663
198023
198359
198663
198934
199187
199465
199797
195549
195974
196344
196722
197092
197465
197839
198204
198549
198865
199148
199411
199676
199973
195753
196148
196524
196908
197283
197658
198032
198397
198743
199063
199349
199614
199865
200137
195987
196378
196759
197142
197513
197879
198245
198604
198945
199265
199548
199816
200050
200317
196218
196623
197020
197403
197769
198125
198479
198827
199160
199475
199750
200016
200234
200505
196535
196934
197326
197694
198047
198384
198725
199061
199384
199694
199962
200229
200439
200716
196797
197220
197610
197964
198302
198628
198961
199294
199614
199925
200192
200464
200671
200957
197121
197516
197883
198211
198533
198850
199184
199526
199858
200181
200453
200737
200934
201233
197253
197700
198045
198362
198679
199009
199365
199736
200097
200442
200725
201031
201237
201586
197382
197874
198257
198595
198912
199245
199609
200000
200387
200764
201063
201406
201561
202046
195413
195944
196263
196561
196858
197169
197462
197716
197929
198128
198335
198603
198913
199406
195603
196083
196407
196781
197108
197438
197754
198043
198297
198523
198745
199009
199303
199759
195794
196296
196643
197021
197367
197707
198036
198339
198604
198833
199040
199275
199565
199968
196009
196470
196839
197225
197583
197936
198280
198606
198901
199163
199394
199624
199883
200221
196257
196663
197031
197415
197786
198153
198515
198862
199181
199463
199705
199924
200166
200454
196514
196883
197240
197627
198005
198383
198756
199118
199452
199752
200011
200242
200473
200723
196800
197150
197499
197879
198257
198637
199015
199382
199725
200033
200299
200533
200754
200984
197125
197468
197809
198178
198550
198924
199298
199663
200005
200315
200582
200818
201034
201258
197502
197837
198172
198524
198881
199241
199603
199959
200294
200601
200864
201101
201310
201535
197912
198230
198553
198881
199221
199563
199914
200263
200590
200894
201153
201390
201595
201826
198305
198615
198924
199224
199545
199874
200219
200566
200893
201198
201457
201699
201901
202145
198697
198976
199259
199530
199835
200162
200512
200871
201210
201526
201793
202047
202249
202508
198891
199221
199502
199775
200084
200426
200798
201182
201547
201884
202161
202437
202640
202949
199268
199566
199836
200109
200414
200764
201147
201548
201938
202307
202605
202913
203084
203505
196334
196772
197023
197257
197492
197727
197941
198116
198241
198333
198436
198604
198828
199217
196526
196935
197229
197528
197795
198051
198286
198493
198664
198805
198953
199137
199344
199696
196760
197154
197470
197785
198076
198356
198613
198845
199040
199206
199352
199524
199734
200056
197010
197350
197677
198009
198319
198621
198905
199170
199407
199617
199800
199989
200196
200452
197294
197602
197912
198246
198566
198884
199193
199490
199762
200005
200212
200398
200594
200835
197632
197912
198199
198522
198843
199170
199497
199817
200118
200388
200620
200819
201009
201219
198027
198286
198549
198853
199168
199497
199833
200165
200481
200766
201009
201210
201390
201580
198470
198714
198959
199243
199545
199867
200201
200533
200853
201141
201390
201591
201773
201944
198944
199175
199401
199664
199952
200263
200588
200915
201230
201517
201766
201968
202150
202311
199431
199642
199851
200096
200372
200672
200990
201310
201617
201899
202146
202349
202537
202698
199912
200094
200280
200505
200771
201066
201382
201703
202010
202293
202540
202748
202946
203113
200365
200503
200676
200893
201159
201457
201779
202105
202415
202700
202954
203173
203392
203579
200756
200875
201034
201245
201516
201830
202171
202520
202847
203150
203414
203655
203883
204114
201192
201299
201445
201658
201934
202259
202609
202966
203307
203623
203906
204179
204441
204709
197073
197408
197650
197868
198064
198228
198362
198450
198494
198501
198498
198544
198613
198835
197306
197614
197876
198142
198375
198578
198743
198874
198964
199029
199085
199165
199254
199438
197532
197845
198125
198415
198672
198905
199103
199269
199401
199504
199573
199646
199743
199954
197828
198088
198372
198669
198942
199199
199429
199637
199811
199964
200080
200187
200294
200460
198175
198406
198665
198953
199228
199498
199755
199999
200215
200405
200555
200677
200787
200940
198591
198793
199018
199285
199550
199825
200101
200370
200620
200840
201019
201161
201282
201413
199063
199243
199433
199671
199923
200196
200481
200764
201033
201271
201468
201615
201738
201862
199564
199721
199885
200100
200340
200609
200893
201179
201454
201697
201904
202053
202186
202301
200065
200200
200350
200552
200786
201051
201331
201613
201885
202126
202335
202486
202626
202726
200553
200668
200816
201012
201246
201509
201786
202062
202324
202560
202768
202921
203074
203164
201015
201115
201261
201456
201695
201962
202243
202519
202779
203015
203226
203381
203547
203621
201458
201556
201703
201903
202148
202420
202704
202979
203238
203474
203695
203858
204048
204112
201863
201970
202110
202323
202584
202873
203172
203463
203736
203988
204226
204404
204597
204662
202273
202433
202576
202803
203070
203363
203664
203959
204240
204501
204756
204953
205165
205243
197586
197794
198011
198203
198381
198506
198598
198624
198603
198528
198446
198414
198372
198419
197858
198052
198275
198502
198708
198879
199013
199096
199122
199106
199074
199077
199068
199098
198136
198340
198562
198805
199029
199228
199392
199521
199611
199635
199618
199610
199610
199681
198490
198660
198872
199111
199340
199560
199751
199923
200053
200138
200166
200188
200210
200269
198896
199040
199227
199448
199672
199900
200112
200314
200483
200608
200679
200717
200745
200813
199346
199470
199626
199827
200038
200265
200490
200710
200905
201063
201169
201235
201280
201347
199815
199930
200057
200242
200440
200665
200895
201122
201333
201507
201634
201719
201776
201845
200287
200390
200509
200685
200880
201102
201329
201555
201767
201945
202086
202181
202260
202323
200747
200840
200962
201144
201344
201568
201792
202009
202214
202389
202535
202633
202724
202775
201185
201284
201421
201616
201827
202055
202276
202485
202680
202848
202993
203085
203187
203229
201611
201723
201878
202091
202317
202553
202775
202982
203171
203336
203478
203560
203668
203694
202036
202177
202347
202577
202816
203057
203281
203488
203676
203835
203978
204055
204172
204178
202449
202623
202805
203049
203303
203554
203791
204011
204210
204376
204525
204605
204716
204712
202888
203124
203314
203563
203816
204065
204303
204532
204740
204914
205073
205166
205274
205276
197923
198027
198193
198356
198525
198637
198705
198690
198597
198467
198324
198233
198138
198101
198291
198371
198522
198696
198885
199036
199144
199186
199148
199059
198968
198920
198848
198817
198648
198736
198875
199051
199244
199418
199552
199633
199666
199623
199540
199485
199420
199402
199051
199126
199249
199414
199599
199784
199940
200054
200124
200147
200109
200074
200037
200015
199462
199529
199640
199792
199967
200155
200324
200462
200565
200621
200634
200617
200594
200588
199884
199946
200042
200187
200355
200539
200714
200867
200991
201072
201125
201145
201148
201159
200307
200371
200459
200605
200769
200951
201124
201281
201413
201511
201587
201632
201662
201691
200732
200801
200901
201052
201215
201394
201559
201712
201841
201946
202036
202097
202158
202201
201162
201245
201363
201529
201697
201872
202028
202169
202288
202391
202484
202550
202632
202672
201595
201711
201849
202033
202208
202379
202525
202653
202759
202856
202946
203010
203104
203133
202032
202189
202354
202556
202737
202906
203045
203163
203260
203349
203434
203492
203587
203590
202494
202700
202880
203092
203277
203442
203575
203688
203781
203866
203951
204004
204094
204066
202965
203207
203398
203612
203800
203964
204102
204223
204326
204416
204504
204552
204622
204570
203486
203745
203937
204138
204319
204480
204624
204758
204875
204975
205069
205121
205172
205111
198149
198152
198236
198348
198489
198593
198669
198650
198535
198341
198115
197934
197801
197742
198607
198576
198637
198745
198889
199015
199111
199139
199078
198928
198758
198641
198511
198457
199002
198990
199043
199146
199289
199424
199534
199588
199589
199487
199343
199231
199117
199050
199410
199408
199453
199549
199682
199822
199940
200014
200047
200017
199919
199832
199747
199678
199800
199805
199859
199953
200079
200219
200340
200430
200482
200490
200451
200383
200317
200266
200186
200202
200262
200363
200486
200621
200741
200835
200900
200937
200939
200916
200880
200852
200572
200611
200680
200796
200920
201047
201155
201243
201310
201360
201396
201407
201404
201398
200983
201046
201137
201264
201386
201500
201590
201666
201728
201785
201838
201880
201914
201924
201422
201517
201633
201776
201893
201988
202055
202115
202168
202225
202287
202341
202402
202413
201895
202037
202170
202321
202426
202500
202546
202593
202639
202696
202760
202815
202886
202889
202396
202584
202732
202884
202976
203030
203060
203099
203141
203198
203258
203303
203372
203348
202934
203155
203302
203443
203521
203563
203588
203627
203671
203729
203788
203824
203883
203830
203488
203718
203855
203974
204041
204084
204120
204170
204222
204281
204335
204359
204397
204321
204060
204254
204377
204475
204540
204595
204649
204715
204782
204846
204901
204924
204940
204865
198382
198326
198338
198359
198425
198486
198539
198499
198370
198151
197871
197603
197418
197322
198858
198780
198781
198797
198861
198926
198985
198984
198895
198722
198504
198315
198121
198037
199263
199203
199205
199228
199294
199363
199426
199443
199406
199267
199088
198919
198754
198650
199667
199614
199616
199648
199716
199788
199857
199890
199877
199794
199662
199531
199400
199298
200035
200000
200017
200065
200136
200213
200281
200320
200321
200278
200192
200091
199987
199902
200396
200389
200423
200487
200564
200639
200699
200735
200747
200729
200688
200630
200562
200498
200777
200805
200858
200941
201019
201081
201123
201148
201158
201159
201151
201128
201100
201060
201206
201269
201344
201434
201499
201539
201556
201567
201575
201590
201607
201616
201625
201601
201681
201786
201877
201967
202009
202018
202011
202007
202013
202038
202069
202098
202131
202106
202219
202361
202448
202521
202530
202508
202481
202471
202482
202518
202558
202594
202635
202592
202787
202949
203023
203072
203051
203008
202973
202966
202982
203026
203065
203097
203130
203060
203371
203532
203574
203597
203558
203508
203481
203487
203511
203561
203597
203622
203638
203547
203933
204074
204089
204090
204048
204013
204004
204025
204057
204104
204129
204136
204131
204020
204467
204557
204559
204549
204524
204517
204531
204568
204609
204655
204676
204673
204654
204553
198582
198492
198439
198372
198348
198299
198247
198128
197984
197774
197522
197239
196997
196856
199052
198933
198880
198821
198798
198754
198709
198619
198506
198336
198134
197930
197680
197555
199434
199331
199293
199253
199239
199211
199180
199119
199035
198895
198717
198533
198322
198192
199818
199725
199696
199676
199675
199666
199655
199618
199556
199446
199303
199154
198984
198858
200172
200110
200101
200106
200119
200128
200128
200103
200053
199969
199857
199735
199595
199481
200548
200520
200529
200552
200577
200592
200589
200566
200525
200466
200387
200299
200194
200093
200965
200974
201000
201035
201058
201060
201044
201015
200978
200935
200884
200825
200754
200667
201446
201488
201520
201548
201550
201530
201494
201456
201424
201398
201371
201338
201292
201216
201979
202040
202061
202074
202049
202000
201943
201902
201878
201865
201855
201838
201806
201728
202549
202612
202608
202598
202541
202463
202398
202362
202350
202349
202353
202342
202317
202216
203111
203167
203135
203098
203017
202929
202870
202848
202845
202851
202855
202834
202806
202674
203651
203689
203622
203563
203478
203400
203360
203352
203357
203370
203366
203339
203294
203139
204148
204165
204080
204016
203942
203886
203864
203865
203871
203879
203857
203813
203751
203580
204616
204610
204522
204457
204401
204372
204366
204374
204382
204389
204364
204307
204232
204091
195248
195420
195584
195289
195630
195980
194870
194867
194781
194805
195272
195803
195244
195067
194927
194925
195331
195723
195618
195349
195113
194923
195040
195039
195988
195685
195411
195098
194986
194489
196331
195995
195697
195276
194932
194174
196654
196267
195952
195487
195104
194292
196959
196548
196260
195799
195521
194633
197238
196851
196605
196229
196207
195325
197503
197166
196941
196593
196870
196345
197799
197538
197466
197271
197783
197366
198204
198023
198106
197949
198694
198576
198712
198590
198936
199021
199757
199647
198996
199102
199286
199616
200369
200866
195813
195925
196028
195926
195892
196068
195603
195581
195461
195501
195588
196016
195885
195694
195469
195450
195573
196108
196159
195874
195553
195411
195449
196000
196479
196154
195810
195608
195529
195846
196801
196447
196033
195640
195205
195163
197104
196684
196172
195608
194944
194723
197375
196880
196333
195697
194986
194651
197614
197087
196615
196040
195425
194957
197817
197330
196918
196415
196024
195524
198049
197686
197403
197112
196945
196439
198386
198134
197965
197753
197852
197580
198836
198653
198777
198788
198991
198831
199111
199137
199191
199295
199557
199897
196482
196467
196531
196370
196196
195997
196459
196312
196108
195983
196039
196069
196670
196403
196141
195943
195859
195909
196837
196450
196065
195815
195720
195999
197044
196616
196212
195981
195869
196062
197275
196832
196375
196023
195631
195504
197496
197026
196461
195916
195284
194920
197682
197154
196522
195855
195122
194649
197843
197251
196671
195998
195275
194750
197973
197352
196833
196186
195609
195134
198096
197576
197185
196693
196244
195824
198308
197883
197561
197200
197022
196812
198678
198369
198280
198175
198054
197888
198858
198728
198675
198640
198715
198944
197031
196894
196821
196588
196315
195977
197114
196860
196634
196428
196244
196103
197322
196996
196676
196299
195941
195595
197447
197021
196558
196068
195584
195254
197588
197087
196522
196030
195583
195435
197713
197184
196549
196039
195532
195279
197830
197282
196564
195979
195322
194865
197911
197325
196583
195921
195148
194618
197989
197360
196668
195995
195227
194644
198049
197361
196744
196092
195448
194896
198097
197468
196980
196418
195826
195313
198163
197596
197150
196673
196318
196032
198383
197938
197673
197386
197079
196802
198404
198097
197923
197734
197640
197661
197518
197313
197194
196919
196605
196280
197539
197277
197055
196831
196594
196368
197714
197366
197076
196736
196347
195931
197828
197394
196952
196438
195848
195301
197937
197414
196818
196226
195549
194991
197993
197409
196719
196081
195370
194817
198033
197418
196648
195951
195200
194531
198019
197367
196554
195843
195018
194373
197998
197327
196545
195837
195018
194364
197988
197262
196556
195885
195184
194582
197995
197284
196733
196121
195451
194829
197976
197333
196812
196234
195761
195350
198089
197564
197186
196770
196334
195912
197918
197467
197178
196873
196640
196521
197852
197629
197494
197251
196966
196636
197776
197489
197265
197050
196802
196585
197889
197556
197278
196999
196663
196344
197990
197580
197203
196806
196324
195832
198102
197605
197099
196546
195928
195309
198142
197559
196924
196277
195554
194878
198144
197495
196740
196002
195214
194515
198052
197353
196528
195777
194950
194291
197948
197234
196409
195660
194815
194126
197837
197100
196311
195607
194891
194280
197806
197049
196409
195774
195106
194452
197742
197051
196472
195848
195315
194839
197799
197230
196782
196308
195813
195295
197555
197032
196647
196239
195918
195675
198038
197826
197697
197499
197268
196987
197880
197571
197324
197109
196886
196670
197925
197574
197284
197018
196718
196434
197974
197558
197193
196866
196446
196049
198065
197583
197127
196671
196136
195602
198110
197553
196981
196422
195777
195111
198130
197499
196805
196096
195341
194667
198033
197337
196543
195785
195003
194346
197894
197157
196331
195549
194730
194034
197685
196918
196092
195353
194651
194059
197552
196755
196065
195397
194747
194108
197404
196681
196063
195428
194878
194379
197421
196813
196320
195823
195325
194770
197154
196584
196152
195710
195321
195013
198262
198067
197960
197842
197693
197495
198054
197770
197526
197324
197136
196955
198006
197666
197373
197113
196825
196555
197964
197553
197183
196878
196519
196196
197987
197520
197077
196684
196254
195835
197996
197465
196933
196453
195919
195360
198018
197423
196786
196141
195449
194817
197917
197255
196520
195781
195051
194419
197761
197044
196256
195469
194682
194009
197512
196745
195917
195142
194448
193891
197301
196489
195774
195067
194402
193796
197057
196302
195648
194981
194410
193907
197006
196363
195821
195296
194790
194237
196711
196121
195665
195228
194837
194518
198464
198275
198165
198077
197980
197834
198236
197991
197764
197569
197388
197236
198117
197806
197517
197249
196943
196642
197975
197585
197204
196890
196516
196163
197898
197450
196995
196623
196217
195830
197805
197307
196785
196358
195868
195371
197734
197185
196595
196034
195392
194786
197575
196969
196317
195658
194958
194335
197415
196756
196056
195327
194557
193870
197181
196460
195707
194944
194222
193604
196978
196203
195506
194779
194097
193446
196704
195948
195272
194575
193969
193400
196580
195917
195326
194764
194233
193648
196226
195575
195075
194603
194194
193873
200095
200619
201310
201723
202279
202265
199768
200325
201022
201647
202448
202921
199900
200489
201196
201859
202708
203503
200030
200603
201294
201953
202856
203920
200156
200678
201323
202002
203009
204192
200296
200729
201333
202041
203212
204400
200449
200806
201385
202159