/*--------------------------------*- C++ -*----------------------------------*\
| =========                 |                                                 |
| \\      /  F ield         | OpenFOAM: The Open Source CFD Toolbox           |
|  \\    /   O peration     | Version:  v2106                                 |
|   \\  /    A nd           | Website:  www.openfoam.com                      |
|    \\/     M anipulation  |                                                 |
\*---------------------------------------------------------------------------*/
FoamFile
{
    version     2.0;
    format      ascii;
    arch        "LSB;label=32;scalar=64";
    class       volScalarField;
    location    "0.000218";
    object      Ttot;
}
// * * * * * * * * * * * * * * * * * * * * * * * * * * * * * * * * * * * * * //

dimensions      [0 0 0 1 0 0 0];

internalField   nonuniform List<scalar> 
144746
(
294.027
293.83
293.814
294.023
294.119
294.15
294.12
294.083
294.036
294.004
293.908
293.85
293.702
293.783
294.168
294.516
294.56
294.809
294.941
294.999
295.002
294.976
294.928
294.847
294.718
294.565
294.179
293.705
294.479
294.98
295.108
295.333
295.44
295.505
295.531
295.521
295.486
295.388
295.228
294.983
294.578
294.062
294.799
295.277
295.451
295.651
295.752
295.816
295.839
295.841
295.817
295.755
295.642
295.419
295.103
294.624
295.06
295.479
295.65
295.809
295.907
295.962
295.977
295.987
295.984
295.952
295.885
295.752
295.531
295.144
295.277
295.646
295.823
295.948
296.01
296.04
296.044
296.05
296.058
296.057
296.031
295.966
295.827
295.509
295.438
295.771
295.957
296.05
296.077
296.074
296.063
296.06
296.072
296.095
296.106
296.083
295.99
295.729
295.578
295.89
296.074
296.147
296.146
296.121
296.09
296.073
296.077
296.102
296.13
296.128
296.068
295.842
295.689
295.996
296.172
296.232
296.221
296.184
296.138
296.107
296.095
296.106
296.132
296.142
296.101
295.916
295.769
296.08
296.254
296.307
296.293
296.256
296.208
296.173
296.151
296.146
296.152
296.154
296.107
295.939
295.814
296.138
296.318
296.37
296.359
296.323
296.278
296.242
296.217
296.203
296.196
296.184
296.119
295.929
295.816
296.135
296.339
296.406
296.402
296.373
296.336
296.305
296.281
296.26
296.237
296.197
296.105
295.907
295.856
296.129
296.319
296.409
296.421
296.396
296.366
296.34
296.318
296.28
296.212
296.1
295.976
295.834
295.934
296.017
296.196
296.321
296.369
296.357
296.329
296.309
296.279
296.222
296.105
295.968
295.806
295.812
294.65
294.724
294.811
294.994
295.103
295.152
295.151
295.143
295.109
295.072
294.987
294.924
294.851
295.035
294.574
295.155
295.323
295.509
295.638
295.689
295.7
295.7
295.689
295.652
295.59
295.518
295.305
295.033
294.858
295.432
295.622
295.787
295.906
295.947
295.988
295.992
295.988
295.94
295.855
295.748
295.548
295.24
295.161
295.61
295.789
295.927
296.048
296.086
296.132
296.137
296.133
296.105
296.058
295.992
295.87
295.626
295.342
295.682
295.854
296.004
296.112
296.158
296.188
296.197
296.208
296.206
296.198
296.167
296.117
295.964
295.471
295.761
295.96
296.105
296.192
296.231
296.243
296.247
296.258
296.275
296.296
296.3
296.287
296.189
295.557
295.842
296.025
296.162
296.226
296.254
296.263
296.275
296.299
296.33
296.371
296.394
296.396
296.321
295.643
295.927
296.112
296.235
296.285
296.305
296.311
296.328
296.353
296.393
296.431
296.463
296.464
296.407
295.725
296.011
296.2
296.302
296.339
296.349
296.353
296.372
296.405
296.453
296.494
296.528
296.53
296.489
295.811
296.099
296.292
296.381
296.409
296.41
296.409
296.426
296.463
296.513
296.553
296.586
296.593
296.563
295.903
296.177
296.37
296.441
296.457
296.453
296.455
296.477
296.516
296.567
296.608
296.641
296.655
296.631
295.968
296.231
296.416
296.485
296.502
296.503
296.512
296.535
296.568
296.607
296.63
296.679
296.672
296.635
296.021
296.231
296.435
296.518
296.536
296.535
296.544
296.565
296.597
296.621
296.628
296.649
296.638
296.569
295.96
296.127
296.385
296.499
296.528
296.53
296.542
296.558
296.582
296.588
296.583
296.568
296.526
296.501
294.911
295.201
295.27
295.379
295.469
295.581
295.675
295.772
295.811
295.801
295.74
295.629
295.507
295.69
295.008
295.498
295.626
295.74
295.827
295.917
296.004
296.085
296.129
296.138
296.124
296.068
295.973
295.866
295.418
295.702
295.868
295.986
296.072
296.155
296.223
296.283
296.323
296.338
296.326
296.278
296.214
296.085
295.723
295.913
296.056
296.179
296.26
296.329
296.376
296.416
296.447
296.467
296.479
296.462
296.451
296.363
295.908
296.075
296.213
296.328
296.397
296.448
296.483
296.515
296.548
296.577
296.608
296.621
296.649
296.604
296.072
296.235
296.373
296.463
296.519
296.557
296.587
296.616
296.648
296.684
296.729
296.761
296.807
296.802
296.207
296.369
296.493
296.57
296.62
296.656
296.687
296.722
296.762
296.807
296.856
296.897
296.938
296.955
296.372
296.526
296.637
296.707
296.746
296.778
296.807
296.845
296.893
296.946
296.994
297.035
297.061
297.092
296.534
296.691
296.792
296.852
296.878
296.901
296.926
296.97
297.027
297.093
297.143
297.181
297.191
297.233
296.736
296.883
296.976
297.029
297.048
297.061
297.079
297.118
297.173
297.24
297.288
297.32
297.319
297.37
296.934
297.067
297.149
297.183
297.19
297.199
297.222
297.266
297.325
297.391
297.43
297.458
297.446
297.504
297.136
297.245
297.328
297.349
297.345
297.348
297.373
297.418
297.474
297.53
297.557
297.564
297.541
297.57
297.322
297.434
297.511
297.505
297.469
297.457
297.481
297.531
297.593
297.654
297.681
297.685
297.665
297.695
297.291
297.601
297.675
297.691
297.662
297.643
297.65
297.686
297.738
297.782
297.805
297.799
297.765
297.727
293.225
292.831
291.958
291.615
291.155
291.366
292.663
292.264
291.425
291.311
290.987
291.031
293.253
292.698
291.848
291.731
291.295
291.181
293.835
293.081
292.144
291.891
291.401
291.347
294.441
293.59
292.596
292.251
291.726
291.655
294.828
293.939
292.912
292.506
291.981
291.952
295.12
294.306
293.295
292.859
292.307
292.142
295.306
294.559
293.564
293.055
292.474
292.248
295.467
294.818
293.856
293.284
292.708
292.173
295.55
294.979
294.059
293.4
292.879
292.063
295.599
295.08
294.243
293.531
293.074
292.012
295.578
295.055
294.256
293.584
293.213
292.004
295.497
295.014
294.241
293.696
293.343
292.07
295.231
294.788
294.04
293.566
293.284
292
294.659
294.078
293.143
292.715
292.177
292.059
294.231
293.72
292.832
292.544
292.146
291.84
294.693
294.192
293.397
293.075
292.642
292.098
295.149
294.613
293.87
293.346
292.907
292.197
295.59
295.064
294.351
293.697
293.211
292.358
295.848
295.309
294.604
293.86
293.366
292.426
296.024
295.509
294.813
294.044
293.523
292.516
296.155
295.681
294.99
294.198
293.662
292.539
296.29
295.851
295.167
294.371
293.837
292.52
296.418
296.004
295.352
294.527
294.007
292.484
296.51
296.099
295.509
294.664
294.152
292.46
296.52
296.104
295.559
294.728
294.261
292.458
296.437
296.046
295.498
294.776
294.392
292.534
296.126
295.761
295.248
294.666
294.36
292.475
295.706
295.244
294.523
294.013
293.651
292.827
295.469
295.053
294.338
294.004
293.805
293.031
295.803
295.436
294.893
294.616
294.436
293.368
296.179
295.876
295.479
295.114
294.81
293.531
296.516
296.293
296
295.555
295.131
293.582
296.758
296.615
296.372
295.858
295.329
293.568
296.916
296.869
296.65
296.091
295.492
293.509
297.05
297.058
296.866
296.282
295.62
293.485
297.198
297.207
297.038
296.503
295.774
293.543
297.345
297.357
297.214
296.721
295.934
293.635
297.498
297.538
297.418
296.903
296.062
293.676
297.611
297.697
297.62
297.037
296.097
293.607
297.802
297.887
297.839
297.139
296.088
293.512
297.734
297.74
297.626
296.841
295.797
293.271
295.52
295.243
294.445
294.059
293.619
292.158
295.281
294.975
294.166
293.836
293.393
291.787
295.534
295.168
294.375
294.063
293.654
291.923
295.748
295.363
294.614
294.164
293.786
291.864
295.971
295.604
294.972
294.469
294.175
292.242
296.085
295.733
295.221
294.721
294.453
292.514
296.146
295.821
295.403
294.937
294.745
292.786
296.177
295.862
295.521
295.003
294.779
292.793
296.232
295.905
295.607
295.028
294.741
292.704
296.276
295.927
295.617
294.918
294.489
292.459
296.269
295.897
295.471
294.668
294.057
292.146
296.155
295.736
295.113
294.265
293.551
291.718
295.849
295.343
294.527
293.744
292.988
291.451
295.304
294.72
293.839
293.174
292.524
291.015
296.341
296.071
295.506
294.966
294.605
292.585
296.218
295.946
295.384
294.887
294.504
292.389
296.347
296.067
295.58
295.099
294.847
292.625
296.426
296.183
295.767
295.303
295.104
292.766
296.485
296.275
295.961
295.55
295.408
293.041
296.497
296.318
296.08
295.696
295.576
293.137
296.479
296.327
296.128
295.736
295.615
293.149
296.469
296.301
296.117
295.665
295.495
292.996
296.468
296.25
296.051
295.505
295.267
292.723
296.475
296.168
295.916
295.211
294.818
292.282
296.444
296.041
295.715
294.867
294.252
291.793
296.333
295.83
295.38
294.448
293.712
291.314
296.127
295.516
294.904
293.97
293.282
291.097
295.547
294.884
294.216
293.333
292.767
290.678
297.9
297.976
297.937
297.064
295.969
293.361
297.918
297.993
297.945
297.139
296.121
293.544
297.932
298.007
298.033
297.413
296.55
293.851
297.948
298.044
298.111
297.668
296.88
294.05
297.922
298.049
298.152
297.796
297.048
294.074
297.879
298.022
298.134
297.774
296.962
293.847
297.826
297.97
298.063
297.63
296.678
293.401
297.791
297.936
297.968
297.392
296.212
292.736
297.781
297.907
297.825
296.984
295.543
291.921
297.789
297.861
297.678
296.465
294.806
291.05
297.817
297.724
297.468
295.902
294.093
290.304
297.823
297.424
297.055
295.269
293.442
289.763
297.822
297.127
296.51
294.657
292.923
289.529
297.176
296.286
295.485
293.738
292.337
289.176
291.324
290.846
291.248
291.423
292.206
293.013
291.413
291.238
291.703
292.144
293.003
293.729
291.177
291.465
291.953
292.491
293.383
294.138
291.516
291.581
292.25
292.829
293.718
294.467
292.037
291.424
292.156
292.813
293.772
294.644
291.963
291.689
292.293
292.969
293.9
294.807
291.921
291.799
292.457
293.151
294.071
294.948
291.882
291.898
292.653
293.401
294.305
295.104
291.674
291.885
292.71
293.527
294.449
295.195
291.419
292.007
292.844
293.597
294.519
295.227
291.039
291.985
292.77
293.521
294.498
295.202
291.07
292.136
292.997
293.616
294.595
295.168
290.862
292.162
293.025
293.703
294.708
295.181
291.208
292.735
293.59
294.289
295.102
295.543
290.822
290.581
291.13
291.626
292.556
293.536
290.68
290.646
291.299
292.172
293.28
294.208
290.436
290.817
291.483
292.463
293.566
294.552
290.578
291.015
291.785
292.836
293.886
294.852
290.77
291.066
291.933
293.043
294.079
295.012
291.027
291.298
292.124
293.298
294.318
295.128
291.172
291.477
292.303
293.519
294.513
295.204
291.241
291.753
292.559
293.743
294.665
295.279
291.209
291.95
292.753
293.855
294.719
295.325
291.161
292.209
292.962
293.94
294.756
295.375
290.995
292.317
293.002
293.954
294.785
295.435
290.95
292.55
293.203
294.046
294.824
295.471
290.778
292.52
293.237
294.157
294.946
295.518
290.99
293.048
293.796
294.741
295.322
295.777
289.065
289.965
290.586
291.605
292.692
293.902
288.663
289.925
290.831
292.233
293.445
294.765
288.23
289.876
290.96
292.667
293.86
295.165
288.171
290.002
291.274
293.159
294.295
295.438
288.219
290.204
291.661
293.617
294.715
295.614
288.523
290.619
292.215
294.101
295.137
295.76
288.936
291.093
292.729
294.5
295.44
295.945
289.356
291.611
293.219
294.882
295.717
296.152
289.709
292.073
293.638
295.173
295.927
296.328
290.022
292.502
294.021
295.457
296.152
296.539
290.147
292.687
294.187
295.604
296.322
296.738
290.138
292.82
294.262
295.744
296.477
296.93
289.931
292.59
294.02
295.737
296.662
297.136
289.616
292.654
294.221
295.993
296.922
297.387
291.248
290.959
291.265
291.384
292.103
292.686
291.112
290.889
291.293
291.638
292.431
293.089
290.959
290.706
291.159
291.507
292.392
293.216
290.947
290.611
291.099
291.441
292.314
293.187
290.996
290.54
290.991
291.174
292.042
293.035
291.148
290.611
290.98
290.985
291.804
292.879
291.26
290.639
290.887
290.788
291.604
292.791
291.234
290.66
290.834
290.708
291.518
292.791
291.062
290.524
290.669
290.653
291.555
292.863
291.061
290.561
290.73
290.81
291.714
292.928
290.842
290.622
290.866
291.014
291.858
292.918
291.044
290.764
291.118
291.215
292.019
292.834
291.025
290.6
290.991
291.132
292.011
292.637
291.457
291.175
291.675
292.02
292.836
293.372
291.603
291.735
291.988
292.38
293.282
293.991
291.31
291.336
291.754
292.487
293.556
294.363
290.952
290.951
291.458
292.202
293.392
294.401
290.942
290.617
291.241
292.012
293.258
294.35
290.909
290.49
291.065
291.748
293.044
294.248
291.007
290.512
291.015
291.578
292.879
294.163
291.112
290.507
290.949
291.463
292.791
294.141
291.111
290.566
290.94
291.473
292.803
294.153
290.992
290.604
290.952
291.577
292.879
294.196
291.028
290.731
291.135
291.774
292.999
294.2
290.87
290.846
291.322
291.931
293.029
294.11
291.101
290.949
291.487
291.941
292.995
293.919
290.927
290.665
291.253
291.735
292.812
293.664
291.078
291.157
291.789
292.369
293.382
294.163
292.076
292.722
292.899
293.479
294.35
295.026
291.534
291.984
292.505
293.495
294.486
295.255
290.985
291.304
291.995
293.142
294.266
295.187
290.777
290.888
291.752
292.959
294.207
295.18
290.737
290.678
291.536
292.782
294.167
295.201
290.886
290.661
291.494
292.748
294.16
295.213
290.918
290.605
291.488
292.774
294.18
295.195
290.867
290.641
291.523
292.841
294.18
295.126
290.753
290.788
291.651
292.901
294.148
295.04
290.744
290.978
291.833
292.939
294.073
294.91
290.597
290.932
291.772
292.798
293.871
294.738
290.474
290.858
291.658
292.549
293.64
294.549
289.94
290.521
291.314
292.362
293.486
294.387
289.674
290.689
291.598
292.818
293.806
294.721
295.09
295.316
295.434
295.524
295.603
295.711
295.819
295.91
295.969
295.995
295.985
295.96
295.91
295.964
295.289
295.544
295.643
295.725
295.807
295.916
296.022
296.113
296.181
296.218
296.24
296.265
296.273
296.269
295.555
295.74
295.813
295.903
295.977
296.073
296.161
296.241
296.309
296.353
296.389
296.424
296.467
296.464
295.755
295.88
295.93
296.025
296.1
296.18
296.256
296.33
296.402
296.464
296.522
296.576
296.645
296.671
295.93
295.998
296.041
296.121
296.188
296.257
296.326
296.396
296.468
296.538
296.608
296.674
296.766
296.828
296.09
296.12
296.149
296.206
296.259
296.321
296.387
296.459
296.536
296.614
296.695
296.777
296.878
296.962
296.241
296.241
296.257
296.299
296.341
296.396
296.459
296.531
296.612
296.697
296.782
296.874
296.976
297.075
296.405
296.389
296.394
296.423
296.451
296.495
296.549
296.619
296.7
296.792
296.881
296.978
297.072
297.195
296.561
296.541
296.544
296.564
296.584
296.616
296.663
296.728
296.808
296.902
296.99
297.088
297.172
297.309
296.79
296.741
296.729
296.735
296.746
296.767
296.806
296.865
296.939
297.03
297.113
297.21
297.287
297.428
297.012
296.944
296.91
296.892
296.895
296.913
296.958
297.021
297.096
297.185
297.262
297.355
297.424
297.569
297.352
297.242
297.168
297.105
297.086
297.093
297.139
297.205
297.281
297.368
297.439
297.527
297.583
297.743
297.636
297.545
297.409
297.298
297.249
297.254
297.311
297.39
297.479
297.576
297.652
297.747
297.813
298.02
297.918
297.957
297.808
297.672
297.584
297.559
297.592
297.66
297.745
297.848
297.933
298.07
298.133
298.395
295.058
295.261
295.392
295.518
295.642
295.769
295.883
295.97
296.023
296.042
296.034
296.003
295.937
295.956
295.219
295.439
295.557
295.7
295.819
295.941
296.052
296.143
296.209
296.247
296.267
296.286
296.284
296.271
295.408
295.611
295.716
295.853
295.974
296.089
296.191
296.276
296.34
296.382
296.405
296.427
296.45
296.457
295.615
295.753
295.848
295.981
296.097
296.202
296.293
296.372
296.443
296.502
296.548
296.586
296.624
296.644
295.784
295.878
295.969
296.092
296.198
296.294
296.38
296.459
296.535
296.601
296.657
296.698
296.748
296.783
295.936
296.012
296.09
296.198
296.29
296.379
296.462
296.543
296.623
296.697
296.764
296.821
296.881
296.923
296.084
296.152
296.214
296.304
296.382
296.464
296.546
296.629
296.714
296.795
296.869
296.936
297.001
297.054
296.228
296.292
296.347
296.424
296.493
296.568
296.646
296.728
296.812
296.897
296.973
297.046
297.112
297.182
296.389
296.448
296.5
296.564
296.625
296.692
296.763
296.842
296.922
297.005
297.077
297.149
297.208
297.287
296.556
296.599
296.65
296.706
296.764
296.824
296.892
296.968
297.044
297.121
297.187
297.254
297.305
297.385
296.722
296.75
296.795
296.839
296.894
296.954
297.028
297.107
297.182
297.256
297.315
297.372
297.409
297.484
296.912
296.917
296.943
296.963
297.017
297.082
297.167
297.254
297.333
297.405
297.46
297.509
297.534
297.604
297.017
297.056
297.061
297.069
297.123
297.201
297.304
297.408
297.498
297.573
297.625
297.668
297.689
297.776
297.262
297.314
297.29
297.272
297.303
297.374
297.472
297.575
297.67
297.756
297.817
297.873
297.896
298.034
295.063
295.246
295.371
295.503
295.641
295.775
295.888
295.969
296.008
296.008
295.984
295.952
295.899
295.909
295.207
295.388
295.525
295.677
295.811
295.935
296.038
296.12
296.174
296.202
296.212
296.219
296.211
296.207
295.369
295.536
295.672
295.823
295.954
296.07
296.165
296.242
296.297
296.333
296.351
296.368
296.381
296.399
295.552
295.677
295.807
295.952
296.073
296.178
296.264
296.338
296.401
296.454
296.495
296.533
296.563
296.577
295.714
295.827
295.94
296.07
296.177
296.272
296.355
296.43
296.501
296.563
296.614
296.654
296.693
296.73
295.879
295.984
296.074
296.181
296.273
296.361
296.445
296.526
296.605
296.677
296.74
296.791
296.841
296.88
296.047
296.142
296.21
296.296
296.375
296.459
296.545
296.63
296.716
296.794
296.864
296.921
296.974
297.017
296.223
296.305
296.362
296.432
296.5
296.578
296.661
296.747
296.833
296.914
296.986
297.046
297.101
297.152
296.399
296.467
296.516
296.573
296.635
296.708
296.79
296.874
296.959
297.037
297.105
297.164
297.212
297.267
296.56
296.618
296.667
296.719
296.779
296.849
296.929
297.011
297.09
297.164
297.226
297.28
297.322
297.374
296.707
296.753
296.801
296.848
296.909
296.982
297.068
297.154
297.234
297.304
297.359
297.403
297.437
297.481
296.83
296.87
296.924
296.972
297.042
297.122
297.215
297.306
297.385
297.452
297.504
297.54
297.57
297.609
296.944
296.985
297.034
297.076
297.152
297.244
297.353
297.459
297.548
297.617
297.668
297.699
297.729
297.775
297.114
297.14
297.167
297.204
297.28
297.385
297.502
297.613
297.708
297.786
297.845
297.879
297.919
297.98
295.086
295.244
295.384
295.533
295.676
295.802
295.901
295.963
295.984
295.962
295.919
295.873
295.809
295.813
295.245
295.387
295.534
295.691
295.828
295.946
296.036
296.104
296.141
296.157
296.15
296.139
296.11
296.089
295.379
295.529
295.678
295.834
295.961
296.071
296.156
296.223
296.268
296.297
296.301
296.3
296.292
296.292
295.551
295.676
295.815
295.961
296.076
296.176
296.255
296.323
296.377
296.422
296.451
296.475
296.486
296.487
295.723
295.837
295.952
296.077
296.178
296.269
296.35
296.423
296.487
296.543
296.583
296.612
296.635
296.656
295.903
296.004
296.089
296.188
296.276
296.363
296.448
296.528
296.603
296.668
296.721
296.761
296.798
296.823
296.085
296.17
296.23
296.306
296.383
296.467
296.555
296.642
296.724
296.795
296.856
296.9
296.942
296.975
296.267
296.332
296.38
296.44
296.508
296.588
296.676
296.764
296.849
296.922
296.986
297.033
297.078
297.119
296.437
296.485
296.524
296.575
296.641
296.721
296.81
296.897
296.98
297.052
297.113
297.158
297.199
297.24
296.58
296.62
296.662
296.711
296.78
296.861
296.95
297.035
297.114
297.182
297.238
297.278
297.315
297.353
296.703
296.736
296.783
296.834
296.909
296.997
297.092
297.18
297.258
297.324
297.375
297.404
297.437
297.467
296.813
296.848
296.904
296.962
297.045
297.137
297.237
297.327
297.406
297.47
297.519
297.54
297.575
297.597
296.922
296.962
297.013
297.072
297.162
297.266
297.378
297.48
297.567
297.635
297.689
297.708
297.742
297.76
297.049
297.104
297.148
297.21
297.301
297.411
297.525
297.628
297.718
297.792
297.858
297.886
297.929
297.949
295.127
295.247
295.386
295.533
295.674
295.79
295.884
295.932
295.94
295.905
295.844
295.794
295.731
295.72
295.299
295.404
295.545
295.691
295.82
295.932
296.016
296.074
296.097
296.096
296.072
296.048
296.012
295.985
295.439
295.557
295.693
295.834
295.95
296.053
296.131
296.19
296.232
296.243
296.228
296.21
296.185
296.175
295.61
295.715
295.836
295.963
296.064
296.158
296.231
296.294
296.342
296.373
296.382
296.384
296.374
296.361
295.788
295.879
295.972
296.076
296.164
296.251
296.327
296.395
296.451
296.494
296.518
296.528
296.525
296.53
295.967
296.041
296.103
296.183
296.262
296.344
296.423
296.497
296.561
296.614
296.654
296.679
296.694
296.705
296.137
296.196
296.234
296.296
296.366
296.445
296.527
296.605
296.675
296.732
296.781
296.817
296.844
296.863
296.295
296.341
296.371
296.421
296.486
296.562
296.644
296.721
296.792
296.852
296.904
296.945
296.982
297.012
296.439
296.472
296.5
296.546
296.613
296.691
296.772
296.847
296.917
296.976
297.027
297.066
297.105
297.142
296.561
296.593
296.628
296.678
296.751
296.832
296.912
296.984
297.049
297.104
297.152
297.183
297.222
297.262
296.672
296.705
296.75
296.808
296.89
296.976
297.059
297.131
297.194
297.247
297.289
297.31
297.347
297.381
296.782
296.827
296.885
296.952
297.041
297.129
297.214
297.286
297.348
297.397
297.439
297.453
297.489
297.512
296.902
296.96
297.019
297.09
297.182
297.276
297.368
297.449
297.518
297.57
297.615
297.628
297.662
297.677
297.04
297.123
297.182
297.254
297.342
297.435
297.526
297.608
297.681
297.74
297.795
297.818
297.854
297.866
295.171
295.256
295.381
295.515
295.647
295.76
295.849
295.887
295.87
295.821
295.753
295.691
295.628
295.613
295.379
295.443
295.557
295.678
295.795
295.897
295.978
296.023
296.023
295.994
295.96
295.936
295.894
295.872
295.53
295.608
295.712
295.822
295.922
296.015
296.09
296.138
296.16
296.144
296.11
296.093
296.063
296.046
295.698
295.771
295.856
295.951
296.035
296.119
296.188
296.24
296.272
296.282
296.265
296.257
296.245
296.229
295.857
295.919
295.981
296.058
296.131
296.211
296.28
296.337
296.379
296.403
296.407
296.402
296.397
296.395
296.01
296.057
296.094
296.157
296.225
296.302
296.373
296.435
296.485
296.52
296.544
296.556
296.565
296.576
296.148
296.185
296.206
296.26
296.326
296.401
296.472
296.536
296.591
296.636
296.67
296.693
296.716
296.739
296.278
296.306
296.33
296.379
296.443
296.515
296.585
296.646
296.702
296.752
296.793
296.823
296.857
296.894
296.403
296.427
296.455
296.506
296.573
296.645
296.712
296.77
296.823
296.872
296.917
296.947
296.986
297.026
296.522
296.554
296.59
296.645
296.717
296.791
296.855
296.907
296.955
297.002
297.046
297.073
297.112
297.143
296.641
296.686
296.731
296.793
296.87
296.944
297.007
297.057
297.102
297.147
297.189
297.213
297.244
297.253
296.775
296.838
296.891
296.957
297.036
297.108
297.169
297.219
297.264
297.307
297.349
297.37
297.393
297.377
296.927
297.004
297.057
297.119
297.195
297.266
297.331
297.391
297.444
297.491
297.533
297.55
297.562
297.533
297.108
297.194
297.243
297.298
297.363
297.431
297.498
297.565
297.628
297.679
297.721
297.742
297.753
297.723
295.213
295.262
295.359
295.47
295.59
295.695
295.785
295.823
295.809
295.749
295.666
295.577
295.513
295.501
295.448
295.475
295.552
295.644
295.746
295.837
295.911
295.95
295.947
295.902
295.852
295.811
295.761
295.755
295.599
295.641
295.708
295.789
295.876
295.96
296.025
296.062
296.074
296.042
295.995
295.967
295.933
295.926
295.75
295.793
295.849
295.919
295.989
296.066
296.126
296.162
296.182
296.178
296.148
296.133
296.114
296.104
295.886
295.921
295.964
296.024
296.086
296.158
296.218
296.258
296.284
296.296
296.289
296.279
296.27
296.268
296.012
296.039
296.068
296.12
296.18
296.247
296.308
296.352
296.382
296.407
296.423
296.43
296.437
296.446
296.129
296.154
296.174
296.225
296.284
296.346
296.402
296.446
296.481
296.511
296.542
296.567
296.589
296.61
296.251
296.274
296.299
296.348
296.404
296.459
296.508
296.548
296.584
296.618
296.658
296.699
296.737
296.767
296.38
296.406
296.437
296.488
296.541
296.59
296.631
296.665
296.698
296.735
296.78
296.827
296.872
296.901
296.519
296.556
296.594
296.643
296.694
296.734
296.77
296.798
296.828
296.867
296.914
296.961
297.005
297.021
296.668
296.721
296.762
296.809
296.855
296.89
296.923
296.948
296.976
297.015
297.061
297.105
297.14
297.129
296.838
296.904
296.943
296.983
297.023
297.057
297.088
297.115
297.144
297.181
297.227
297.268
297.294
297.258
297.026
297.095
297.125
297.155
297.188
297.224
297.261
297.296
297.33
297.365
297.41
297.445
297.461
297.417
297.236
297.292
297.309
297.328
297.358
297.397
297.439
297.481
297.522
297.561
297.609
297.643
297.659
297.625
295.291
295.325
295.398
295.467
295.554
295.635
295.707
295.731
295.711
295.643
295.553
295.446
295.38
295.358
295.526
295.541
295.596
295.645
295.712
295.771
295.824
295.846
295.829
295.78
295.723
295.667
295.607
295.613
295.675
295.697
295.741
295.784
295.838
295.89
295.933
295.955
295.953
295.908
295.859
295.82
295.782
295.788
295.815
295.832
295.864
295.903
295.948
295.996
296.035
296.06
296.062
296.039
296.007
295.984
295.964
295.966
295.93
295.94
295.963
296.001
296.042
296.092
296.131
296.158
296.166
296.16
296.144
296.132
296.124
296.129
296.031
296.042
296.057
296.096
296.137
296.185
296.224
296.251
296.267
296.274
296.278
296.284
296.292
296.3
296.137
296.15
296.164
296.205
296.245
296.286
296.319
296.345
296.365
296.384
296.404
296.424
296.448
296.47
296.261
296.275
296.296
296.335
296.371
296.4
296.425
296.447
296.469
296.498
296.532
296.567
296.604
296.634
296.397
296.421
296.449
296.486
296.514
296.53
296.546
296.564
296.587
296.621
296.666
296.71
296.752
296.776
296.559
296.595
296.621
296.648
296.667
296.672
296.681
296.696
296.723
296.763
296.814
296.863
296.901
296.905
296.735
296.78
296.802
296.817
296.826
296.825
296.834
296.849
296.877
296.922
296.972
297.018
297.046
297.023
296.925
296.97
296.979
296.983
296.985
296.984
296.998
297.019
297.05
297.099
297.147
297.186
297.204
297.166
297.123
297.158
297.155
297.149
297.147
297.153
297.175
297.203
297.236
297.287
297.329
297.358
297.368
297.322
297.325
297.339
297.322
297.31
297.311
297.328
297.356
297.391
297.434
297.486
297.528
297.556
297.568
297.534
295.384
295.402
295.446
295.474
295.525
295.559
295.591
295.588
295.566
295.51
295.447
295.347
295.272
295.243
295.603
295.599
295.629
295.643
295.676
295.691
295.705
295.697
295.679
295.64
295.599
295.546
295.474
295.487
295.731
295.73
295.755
295.769
295.794
295.807
295.82
295.817
295.805
295.77
295.73
295.692
295.646
295.665
295.848
295.844
295.861
295.881
295.902
295.921
295.937
295.939
295.93
295.905
295.877
295.855
295.829
295.845
295.943
295.94
295.954
295.979
296.004
296.028
296.048
296.055
296.05
296.036
296.019
296.008
295.996
296.011
296.041
296.044
296.055
296.083
296.112
296.138
296.156
296.165
296.167
296.166
296.164
296.167
296.169
296.183
296.159
296.168
296.18
296.207
296.234
296.253
296.265
296.273
296.282
296.291
296.302
296.318
296.333
296.35
296.307
296.314
296.327
296.349
296.367
296.377
296.381
296.387
296.401
296.42
296.442
296.468
296.495
296.516
296.468
296.479
296.49
296.503
296.51
296.508
296.506
296.512
296.529
296.554
296.585
296.618
296.649
296.664
296.65
296.66
296.661
296.661
296.655
296.641
296.639
296.648
296.671
296.701
296.739
296.774
296.805
296.802
296.832
296.84
296.832
296.819
296.803
296.786
296.788
296.802
296.828
296.861
296.897
296.926
296.949
296.927
297.016
297.011
296.986
296.963
296.946
296.935
296.946
296.968
297
297.036
297.069
297.092
297.104
297.067
297.195
297.177
297.142
297.117
297.102
297.1
297.118
297.144
297.177
297.213
297.239
297.255
297.259
297.21
297.372
297.343
297.296
297.271
297.259
297.268
297.292
297.324
297.361
297.401
297.432
297.448
297.45
297.414
295.117
294.592
293.748
292.772
291.901
290.815
294.884
294.276
293.33
292.452
291.65
290.738
294.999
294.336
293.481
292.629
291.762
290.644
295.125
294.493
293.64
292.698
291.655
290.346
295.256
294.675
293.845
292.787
291.579
290.106
295.374
294.804
293.948
292.701
291.301
289.827
295.487
294.883
293.991
292.587
291.088
289.604
295.581
294.924
293.991
292.492
291.068
289.549
295.632
294.936
293.962
292.432
291.174
289.607
295.637
294.94
293.936
292.374
291.182
289.637
295.621
294.95
294.01
292.503
291.376
290.036
295.64
294.974
294.11
292.725
291.867
290.878
295.687
295.113
294.42
293.312
292.658
291.858
295.696
295.295
294.685
293.956
293.617
293.145
295.112
294.81
294.262
293.576
292.749
291.991
294.998
294.637
293.991
293.355
292.591
291.962
295.094
294.682
294.06
293.446
292.62
291.853
295.206
294.793
294.135
293.439
292.494
291.581
295.336
294.944
294.273
293.487
292.393
291.245
295.467
295.074
294.366
293.407
292.002
290.58
295.588
295.154
294.393
293.266
291.605
290.027
295.686
295.19
294.392
293.154
291.381
289.772
295.749
295.201
294.401
293.142
291.414
289.87
295.76
295.192
294.383
293.128
291.508
290.065
295.744
295.198
294.421
293.266
291.82
290.527
295.717
295.185
294.448
293.381
292.266
291.265
295.692
295.232
294.654
293.817
292.935
292.185
295.642
295.294
294.788
294.174
293.617
293.252
295.072
294.904
294.612
294.127
293.519
292.871
295.063
294.83
294.417
293.93
293.466
292.871
295.168
294.877
294.443
293.93
293.295
292.531
295.267
294.934
294.434
293.855
293.075
292.17
295.386
295.056
294.528
293.875
292.937
291.692
295.516
295.195
294.634
293.84
292.594
290.938
295.637
295.304
294.682
293.722
292.193
290.279
295.731
295.357
294.691
293.621
291.967
289.98
295.79
295.366
294.724
293.639
292.019
290.077
295.794
295.333
294.719
293.65
292.178
290.436
295.757
295.319
294.762
293.79
292.473
291.004
295.709
295.269
294.716
293.864
292.888
291.81
295.707
295.32
294.89
294.253
293.467
292.688
295.653
295.354
295.011
294.509
294.028
293.69
295.06
294.928
294.741
294.388
293.89
293.374
295.107
294.913
294.654
294.354
293.867
293.399
295.227
294.994
294.68
294.307
293.653
292.874
295.328
295.06
294.677
294.204
293.351
292.326
295.449
295.169
294.728
294.147
293.143
291.862
295.564
295.287
294.796
294.108
292.918
291.246
295.667
295.386
294.837
294.038
292.62
290.632
295.733
295.417
294.832
293.949
292.389
290.332
295.769
295.412
294.834
293.919
292.386
290.4
295.756
295.349
294.788
293.893
292.526
290.707
295.712
295.32
294.823
293.995
292.749
291.194
295.647
295.254
294.758
293.994
293.063
291.927
295.656
295.301