/*--------------------------------*- C++ -*----------------------------------*\
| =========                 |                                                 |
| \\      /  F ield         | OpenFOAM: The Open Source CFD Toolbox           |
|  \\    /   O peration     | Version:  v2106                                 |
|   \\  /    A nd           | Website:  www.openfoam.com                      |
|    \\/     M anipulation  |                                                 |
\*---------------------------------------------------------------------------*/
FoamFile
{
    version     2.0;
    format      ascii;
    arch        "LSB;label=32;scalar=64";
    class       volScalarField;
    location    "0.000163";
    object      nut;
}
// * * * * * * * * * * * * * * * * * * * * * * * * * * * * * * * * * * * * * //

dimensions      [0 2 -1 0 0 0 0];

internalField   nonuniform List<scalar> 
144746
(
2.50437e-05
2.11858e-05
1.8076e-05
1.57782e-05
1.48718e-05
1.50352e-05
1.60008e-05
1.75046e-05
1.96159e-05
2.16299e-05
2.28941e-05
2.33398e-05
2.42218e-05
2.73083e-05
2.36856e-05
1.86986e-05
1.39969e-05
9.79586e-06
7.30544e-06
6.55464e-06
7.10763e-06
8.65303e-06
1.09649e-05
1.35646e-05
1.58032e-05
1.74384e-05
1.96089e-05
2.40985e-05
2.41994e-05
1.77878e-05
1.14762e-05
6.19831e-06
3.29125e-06
2.31024e-06
2.50404e-06
3.59297e-06
5.46769e-06
7.87996e-06
1.03614e-05
1.28793e-05
1.65569e-05
2.28122e-05
2.4487e-05
1.59617e-05
8.38762e-06
3.34165e-06
1.26327e-06
6.50399e-07
7.16401e-07
1.30864e-06
2.48974e-06
4.2907e-06
6.63084e-06
9.82405e-06
1.50265e-05
2.32714e-05
2.37755e-05
1.29793e-05
5.29133e-06
1.68446e-06
5.92869e-07
2.49844e-07
2.48246e-07
5.32666e-07
1.21051e-06
2.5014e-06
4.77382e-06
8.76671e-06
1.54939e-05
2.54517e-05
2.26069e-05
1.03178e-05
3.67835e-06
1.46668e-06
6.60158e-07
2.95064e-07
2.35964e-07
4.20266e-07
9.52942e-07
2.17448e-06
4.72725e-06
9.53308e-06
1.73293e-05
2.80563e-05
2.18413e-05
9.07346e-06
3.80704e-06
2.06576e-06
1.09372e-06
6.0051e-07
5.15469e-07
7.75795e-07
1.50414e-06
3.10112e-06
6.2255e-06
1.16416e-05
1.97237e-05
3.01016e-05
2.20983e-05
9.54632e-06
5.32048e-06
3.40424e-06
2.09135e-06
1.34873e-06
1.21975e-06
1.66889e-06
2.79541e-06
4.9455e-06
8.5845e-06
1.41702e-05
2.18024e-05
3.10106e-05
2.44986e-05
1.14468e-05
7.95186e-06
5.79141e-06
4.0503e-06
2.89015e-06
2.57209e-06
3.17259e-06
4.68317e-06
7.24123e-06
1.10458e-05
1.64102e-05
2.32345e-05
3.11486e-05
2.85047e-05
1.54935e-05
1.18371e-05
9.74932e-06
7.67478e-06
5.92856e-06
5.04717e-06
5.40593e-06
6.95967e-06
9.64576e-06
1.33109e-05
1.85713e-05
2.444e-05
3.04407e-05
3.20972e-05
2.01343e-05
1.65991e-05
1.55987e-05
1.39578e-05
1.18814e-05
1.0166e-05
9.74816e-06
1.06808e-05
1.33384e-05
1.66562e-05
2.09237e-05
2.54186e-05
3.02515e-05
3.52193e-05
2.49305e-05
2.16511e-05
2.20575e-05
2.26716e-05
2.19125e-05
2.03315e-05
1.96062e-05
1.95516e-05
2.09808e-05
2.28347e-05
2.56383e-05
2.8717e-05
3.25474e-05
3.86335e-05
2.93415e-05
2.60865e-05
2.71785e-05
3.01015e-05
3.26891e-05
3.38493e-05
3.44676e-05
3.45136e-05
3.47404e-05
3.44799e-05
3.49768e-05
3.62133e-05
3.86879e-05
4.24534e-05
3.38145e-05
3.04307e-05
3.13825e-05
3.49675e-05
3.96594e-05
4.42791e-05
4.74731e-05
4.94392e-05
5.03295e-05
4.97957e-05
4.83326e-05
4.76765e-05
4.87676e-05
2.52447e-05
2.23584e-05
2.05969e-05
1.98338e-05
2.02242e-05
2.04498e-05
2.02309e-05
1.98502e-05
1.98318e-05
2.00274e-05
2.02976e-05
2.09637e-05
2.31488e-05
2.82154e-05
2.09396e-05
1.66129e-05
1.31378e-05
1.04663e-05
9.32893e-06
9.10538e-06
9.40656e-06
1.02016e-05
1.14197e-05
1.29075e-05
1.44607e-05
1.63699e-05
1.99801e-05
2.68414e-05
1.91285e-05
1.36978e-05
9.04391e-06
5.46446e-06
3.61495e-06
3.08116e-06
3.35009e-06
4.25336e-06
5.72704e-06
7.69965e-06
9.97911e-06
1.30431e-05
1.8382e-05
2.7312e-05
1.8237e-05
1.1527e-05
6.11982e-06
2.64618e-06
1.1717e-06
7.74288e-07
9.18723e-07
1.50641e-06
2.60612e-06
4.32496e-06
6.81146e-06
1.08447e-05
1.79648e-05
2.91604e-05
1.75902e-05
9.44852e-06
3.90062e-06
1.28061e-06
4.41394e-07
2.09255e-07
2.60071e-07
5.66681e-07
1.26093e-06
2.63834e-06
5.31015e-06
1.0398e-05
1.90999e-05
3.17077e-05
1.73892e-05
7.95822e-06
2.8391e-06
1.06845e-06
4.30647e-07
1.86274e-07
1.79396e-07
3.82449e-07
9.53859e-07
2.33867e-06
5.38247e-06
1.12053e-05
2.0469e-05
3.28755e-05
1.81065e-05
7.54523e-06
3.00357e-06
1.4734e-06
7.16429e-07
3.86421e-07
3.71712e-07
6.46191e-07
1.40203e-06
3.13984e-06
6.63533e-06
1.26695e-05
2.14152e-05
3.23648e-05
2.00087e-05
8.40703e-06
4.19222e-06
2.44027e-06
1.42702e-06
9.31187e-07
9.18528e-07
1.37922e-06
2.48776e-06
4.67092e-06
8.43275e-06
1.41347e-05
2.16538e-05
3.05506e-05
2.33978e-05
1.04291e-05
6.25347e-06
4.21015e-06
2.86682e-06
2.10012e-06
2.02031e-06
2.67356e-06
4.11912e-06
6.56696e-06
1.023e-05
1.53156e-05
2.15806e-05
2.87951e-05
2.89582e-05
1.42977e-05
9.34129e-06
7.17333e-06
5.55099e-06
4.41478e-06
4.04698e-06
4.63836e-06
6.16188e-06
8.65434e-06
1.20213e-05
1.68424e-05
2.21285e-05
2.75577e-05
3.33819e-05
1.9102e-05
1.34088e-05
1.15301e-05
1.01279e-05
8.83755e-06
8.08001e-06
8.34044e-06
9.56391e-06
1.21124e-05
1.52542e-05
1.94795e-05
2.36189e-05
2.80905e-05
3.69497e-05
2.4383e-05
1.86567e-05
1.72279e-05
1.69102e-05
1.63111e-05
1.57659e-05
1.62932e-05
1.74262e-05
1.96737e-05
2.18746e-05
2.49411e-05
2.80015e-05
3.16463e-05
4.07445e-05
2.94887e-05
2.37246e-05
2.23682e-05
2.34082e-05
2.49627e-05
2.65047e-05
2.85931e-05
3.07214e-05
3.29106e-05
3.38839e-05
3.51062e-05
3.659e-05
3.89196e-05
4.44697e-05
3.44971e-05
2.89196e-05
2.73179e-05
2.88275e-05
3.21853e-05
3.66777e-05
4.11959e-05
4.52737e-05
4.86388e-05
5.0024e-05
4.95597e-05
4.92278e-05
5.00387e-05
2.68423e-05
2.46558e-05
2.41551e-05
2.45919e-05
2.54988e-05
2.48693e-05
2.28345e-05
2.00411e-05
1.79091e-05
1.6791e-05
1.68744e-05
1.86543e-05
2.26975e-05
2.9421e-05
1.97188e-05
1.58041e-05
1.35249e-05
1.21933e-05
1.21772e-05
1.20609e-05
1.16029e-05
1.09128e-05
1.06285e-05
1.09556e-05
1.21341e-05
1.49008e-05
2.02015e-05
2.88649e-05
1.51963e-05
1.04994e-05
7.33746e-06
5.27298e-06
4.49019e-06
4.30896e-06
4.39728e-06
4.64106e-06
5.21173e-06
6.52683e-06
8.70803e-06
1.26083e-05
1.95471e-05
3.03284e-05
1.28504e-05
7.61233e-06
4.09153e-06
2.0893e-06
1.27891e-06
1.08838e-06
1.2229e-06
1.59787e-06
2.32172e-06
3.74308e-06
6.29402e-06
1.11271e-05
1.97598e-05
3.25387e-05
1.20905e-05
6.17129e-06
2.5221e-06
9.01767e-07
3.55412e-07
2.20529e-07
2.86731e-07
5.38871e-07
1.11026e-06
2.39298e-06
5.26635e-06
1.11159e-05
2.09617e-05
3.42489e-05
1.24399e-05
5.63439e-06
1.98174e-06
6.96758e-07
2.45633e-07
1.02199e-07
1.19739e-07
2.95334e-07
8.0674e-07
2.16061e-06
5.3642e-06
1.16437e-05
2.13385e-05
3.34311e-05
1.39054e-05
5.85348e-06
2.17326e-06
9.18753e-07
3.85512e-07
1.93397e-07
2.08206e-07
4.32887e-07
1.08486e-06
2.70328e-06
6.14255e-06
1.21703e-05
2.06472e-05
3.05413e-05
1.66582e-05
6.94153e-06
2.9952e-06
1.51176e-06
7.98816e-07
5.08399e-07
5.41544e-07
9.05161e-07
1.80092e-06
3.68687e-06
7.13576e-06
1.24251e-05
1.91669e-05
2.66533e-05
2.0949e-05
9.00958e-06
4.42441e-06
2.63496e-06
1.68779e-06
1.24611e-06
1.28288e-06
1.82301e-06
2.9662e-06
4.98727e-06
8.17663e-06
1.25959e-05
1.78795e-05
2.38039e-05
2.70299e-05
1.26654e-05
6.6334e-06
4.56436e-06
3.39198e-06
2.75523e-06
2.70148e-06
3.32042e-06
4.61099e-06
6.63394e-06
9.48762e-06
1.34286e-05
1.80671e-05
2.3292e-05
3.14376e-05
1.71323e-05
9.73775e-06
7.55296e-06
6.38326e-06
5.65978e-06
5.4965e-06
6.11209e-06
7.43674e-06
9.51866e-06
1.21793e-05
1.64304e-05
2.04057e-05
2.50244e-05
3.50789e-05
2.25613e-05
1.50935e-05
1.21157e-05
1.10897e-05
1.06179e-05
1.07745e-05
1.18266e-05
1.35575e-05
1.60756e-05
1.85543e-05
2.21934e-05
2.55793e-05
2.96215e-05
3.88347e-05
2.80303e-05
2.06362e-05
1.72081e-05
1.66546e-05
1.70671e-05
1.83997e-05
2.08824e-05
2.39346e-05
2.72964e-05
2.92648e-05
3.15882e-05
3.36914e-05
3.65098e-05
4.22454e-05
3.35987e-05
2.69504e-05
2.3281e-05
2.25633e-05
2.36793e-05
2.66293e-05
3.10028e-05
3.58083e-05
4.05077e-05
4.32763e-05
4.3994e-05
4.44945e-05
4.56359e-05
3.36236e-05
4.23952e-05
5.64096e-05
8.49239e-05
0.000142844
5.28839e-05
3.17356e-05
4.14911e-05
5.52289e-05
8.02178e-05
0.000131193
5.79643e-05
3.19619e-05
4.34321e-05
5.79619e-05
8.02637e-05
0.000125351
6.26428e-05
3.4302e-05
4.7597e-05
6.31834e-05
8.33979e-05
0.000119803
6.66763e-05
3.76142e-05
5.18119e-05
6.75732e-05
8.61031e-05
0.000115816
7.06243e-05
4.01558e-05
5.39718e-05
6.91184e-05
8.69677e-05
0.000113137
7.51171e-05
4.06953e-05
5.27723e-05
6.68557e-05
8.56584e-05
0.000113516
8.04365e-05
3.91415e-05
4.89161e-05
6.18117e-05
8.24496e-05
0.000115526
8.6524e-05
3.69291e-05
4.4449e-05
5.58243e-05
7.65292e-05
0.000116468
9.22881e-05
3.49846e-05
4.0759e-05
5.04227e-05
7.0223e-05
0.000117236
9.51281e-05
3.4411e-05
3.93117e-05
4.7853e-05
6.68473e-05
0.000118837
9.42958e-05
3.65753e-05
4.13663e-05
4.9767e-05
6.84029e-05
0.000123053
8.95534e-05
4.23238e-05
4.7513e-05
5.67375e-05
7.60104e-05
0.00013036
8.05331e-05
5.11211e-05
5.75315e-05
6.85836e-05
8.9435e-05
0.000138331
6.54336e-05
3.69907e-05
4.62216e-05
5.81227e-05
7.59683e-05
0.000108503
5.71037e-05
3.74833e-05
4.90672e-05
6.28725e-05
7.94246e-05
0.000105175
6.37188e-05
3.99456e-05
5.4302e-05
7.02482e-05
8.62111e-05
0.000106462
7.00167e-05
4.39521e-05
6.05708e-05
7.78788e-05
9.32806e-05
0.000107859
7.58521e-05
4.68924e-05
6.39626e-05
8.13018e-05
9.69106e-05
0.00010904
8.1959e-05
4.68158e-05
6.2651e-05
7.89529e-05
9.57399e-05
0.000110278
8.87827e-05
4.35889e-05
5.65559e-05
7.0905e-05
8.99741e-05
0.000113521
9.55241e-05
3.84389e-05
4.79293e-05
5.99208e-05
8.02915e-05
0.00011407
0.000101134
3.40577e-05
4.05168e-05
4.99692e-05
6.86818e-05
0.000108956
0.0001042
3.15375e-05
3.60958e-05
4.36338e-05
5.99767e-05
0.000102028
0.00010345
3.18046e-05
3.56875e-05
4.23438e-05
5.70651e-05
9.77183e-05
9.87293e-05
3.53563e-05
3.94723e-05
4.63007e-05
6.01877e-05
9.85647e-05
9.06825e-05
4.24202e-05
4.73105e-05
5.51608e-05
6.88421e-05
0.000104364
7.98708e-05
5.23692e-05
5.87045e-05
6.79128e-05
8.14965e-05
0.000111977
6.59463e-05
3.94911e-05
4.89099e-05
6.01319e-05
7.36003e-05
8.57858e-05
6.11824e-05
4.10221e-05
5.31884e-05
6.7174e-05
8.17016e-05
9.29456e-05
7.13474e-05
4.43487e-05
5.9536e-05
7.60785e-05
9.15566e-05
0.000100805
8.20075e-05
4.82267e-05
6.56941e-05
8.38353e-05
9.94499e-05
0.000107178
9.2228e-05
4.95383e-05
6.72317e-05
8.47509e-05
0.000100019
0.000109015
0.000100844
4.67321e-05
6.21832e-05
7.71306e-05
9.17495e-05
0.000104981
0.000106756
4.07267e-05
5.23789e-05
6.39805e-05
7.8287e-05
9.77402e-05
0.000109453
3.36662e-05
4.1594e-05
5.02844e-05
6.40533e-05
8.88817e-05
0.000108644
2.86865e-05
3.36075e-05
4.02556e-05
5.2755e-05
7.9644e-05
0.000104609
2.68161e-05
3.00777e-05
3.55183e-05
4.66907e-05
7.30726e-05
9.83533e-05
2.82046e-05
3.10781e-05
3.60507e-05
4.64286e-05
7.12366e-05
9.07661e-05
3.24835e-05
3.56467e-05
4.09817e-05
5.12813e-05
7.42394e-05
8.26404e-05
3.9029e-05
4.31566e-05
4.97263e-05
6.03586e-05
8.08019e-05
7.42807e-05
4.74322e-05
5.32648e-05
6.16478e-05
7.22075e-05
8.79376e-05
6.57151e-05
6.10763e-05
7.08829e-05
8.42401e-05
0.000104483
0.00013664
5.15647e-05
6.04367e-05
7.05364e-05
8.19094e-05
9.86238e-05
0.000123464
5.66534e-05
6.12715e-05
7.06596e-05
8.00618e-05
9.48137e-05
0.000114998
6.19156e-05
6.17833e-05
6.93742e-05
7.67535e-05
9.05827e-05
0.000109451
6.84504e-05
5.99542e-05
6.52156e-05
7.13802e-05
8.56427e-05
0.000108432
7.64066e-05
5.63514e-05
5.95592e-05
6.53513e-05
8.03725e-05
0.000109528
8.50718e-05
5.13557e-05
5.34689e-05
5.93709e-05
7.48861e-05
0.000109942
9.37596e-05
4.6109e-05
4.7947e-05
5.35604e-05
6.85845e-05
0.000107416
0.000101418
4.11849e-05
4.3098e-05
4.8313e-05
6.26009e-05
0.00010381
0.000106191
3.6841e-05
3.90678e-05
4.45526e-05
5.89639e-05
0.000102553
0.000107358
3.39592e-05
3.71791e-05
4.36982e-05
5.91879e-05
0.00010633
0.00010488
3.40663e-05
3.87048e-05
4.68068e-05
6.41842e-05
0.000116238
9.87591e-05
3.81628e-05
4.43482e-05
5.45612e-05
7.46269e-05
0.000130033
8.80748e-05
4.59577e-05
5.43547e-05
6.72666e-05
8.99087e-05
0.000142465
7.10658e-05
6.35476e-05
7.28587e-05
8.24694e-05
9.38948e-05
0.000111991
5.90488e-05
6.32165e-05
7.37134e-05
8.28681e-05
9.28497e-05
0.000106068
6.69467e-05
6.39682e-05
7.42004e-05
8.20306e-05
9.11569e-05
0.000102401
7.55022e-05
6.35597e-05
7.19646e-05
7.78758e-05
8.68147e-05
9.92958e-05
8.50422e-05
5.99377e-05
6.58451e-05
7.02029e-05
8.03567e-05
9.88868e-05
9.45945e-05
5.43317e-05
5.79151e-05
6.14061e-05
7.28523e-05
9.79761e-05
0.000103269
4.76171e-05
4.98734e-05
5.33038e-05
6.5095e-05
9.4519e-05
0.000109829
4.09344e-05
4.30093e-05
4.68658e-05
5.80356e-05
8.84578e-05
0.000113214
3.53998e-05
3.77959e-05
4.21839e-05
5.31353e-05
8.34629e-05
0.000113099
3.19572e-05
3.48012e-05
3.9961e-05
5.14845e-05
8.17617e-05
0.000109808
3.10924e-05
3.48273e-05
4.10781e-05
5.37821e-05
8.5401e-05
0.000103936
3.33541e-05
3.82583e-05
4.60607e-05
6.0387e-05
9.45188e-05
9.57887e-05
3.91472e-05
4.55385e-05
5.5544e-05
7.15593e-05
0.000107034
8.46507e-05
4.8202e-05
5.70865e-05
6.95111e-05
8.58959e-05
0.000117919
6.96592e-05
5.72017e-05
6.61794e-05
7.53206e-05
8.31492e-05
8.87485e-05
6.6687e-05
5.65423e-05
6.68829e-05
7.65608e-05
8.41994e-05
8.89272e-05
7.75105e-05
5.67057e-05
6.73225e-05
7.58204e-05
8.24196e-05
8.84631e-05
8.81535e-05
5.57333e-05
6.48785e-05
7.09375e-05
7.59792e-05
8.47628e-05
9.78319e-05
5.14144e-05
5.88736e-05
6.25631e-05
6.68592e-05
7.9551e-05
0.000105498
4.55128e-05
5.1274e-05
5.36944e-05
5.79482e-05
7.33941e-05
0.000110146
3.89896e-05
4.35024e-05
4.61046e-05
5.11296e-05
6.79616e-05
0.000110974
3.28786e-05
3.68012e-05
4.0585e-05
4.72013e-05
6.39949e-05
0.000108528
2.8548e-05
3.23975e-05
3.72315e-05
4.55051e-05
6.26576e-05
0.000104549
2.70676e-05
3.09334e-05
3.64123e-05
4.6036e-05
6.44521e-05
9.96734e-05
2.8372e-05
3.24847e-05
3.84619e-05
4.91529e-05
6.95727e-05
9.39294e-05
3.1784e-05
3.64504e-05
4.32853e-05
5.52137e-05
7.80606e-05
8.6895e-05
3.74103e-05
4.28743e-05
5.147e-05
6.48071e-05
8.77817e-05
7.83061e-05
4.50147e-05
5.24437e-05
6.35008e-05
7.74485e-05
9.68258e-05
6.85911e-05
6.85465e-05
0.000122901
6.10437e-05
4.08284e-05
3.17956e-05
2.69546e-05
8.15013e-05
0.000100933
5.13866e-05
3.63014e-05
2.97932e-05
2.61706e-05
9.02501e-05
8.78742e-05
4.84651e-05
3.63617e-05
3.09758e-05
2.75455e-05
9.62766e-05
8.3602e-05
5.00558e-05
3.95479e-05
3.43224e-05
3.00184e-05
9.96475e-05
8.40775e-05
5.4563e-05
4.47228e-05
3.90574e-05
3.28651e-05
0.000100263
8.67184e-05
6.03517e-05
5.07955e-05
4.46056e-05
3.58142e-05
9.80985e-05
8.96812e-05
6.59812e-05
5.68694e-05
5.05596e-05
3.88046e-05
9.32874e-05
9.34259e-05
7.13161e-05
6.29083e-05
5.65978e-05
4.18914e-05
8.68508e-05
9.68341e-05
7.66809e-05
6.8832e-05
6.18039e-05
4.56614e-05
7.96462e-05
0.000100915
8.25673e-05
7.40308e-05
6.52562e-05
4.81118e-05
7.2338e-05
0.000106258
8.90001e-05
7.84039e-05
6.74801e-05
5.01366e-05
6.5532e-05
0.000115568
9.46767e-05
8.05818e-05
6.76649e-05
5.10128e-05
5.98164e-05
0.000125949
9.96939e-05
8.1793e-05
6.75657e-05
5.2648e-05
5.47133e-05
0.000141815
0.000106477
8.42386e-05
6.87538e-05
5.56363e-05
6.69902e-05
0.000101582
6.00423e-05
4.292e-05
3.32247e-05
2.75206e-05
7.87467e-05
8.3029e-05
4.85229e-05
3.49027e-05
2.80533e-05
2.39261e-05
8.79673e-05
7.15946e-05
4.34605e-05
3.22638e-05
2.6643e-05
2.28351e-05
9.55498e-05
6.75874e-05
4.32696e-05
3.34644e-05
2.7927e-05
2.34415e-05
0.000101285
6.8407e-05
4.67044e-05
3.77852e-05
3.16384e-05
2.53789e-05
0.000104781
7.17995e-05
5.23568e-05
4.43933e-05
3.75109e-05
2.85618e-05
0.000105792
7.64791e-05
5.89316e-05
5.22748e-05
4.50232e-05
3.2845e-05
0.000104022
8.16032e-05
6.59472e-05
6.09354e-05
5.33975e-05
3.78507e-05
9.93973e-05
8.6031e-05
7.32994e-05
6.95307e-05
6.14582e-05
4.39278e-05
9.26951e-05
8.9815e-05
8.08115e-05
7.72653e-05
6.76649e-05
4.89357e-05
8.50249e-05
9.35308e-05
8.81291e-05
8.36489e-05
7.20413e-05
5.29482e-05
7.6882e-05
9.96999e-05
9.40082e-05
8.65962e-05
7.31327e-05
5.45492e-05
6.8863e-05
0.000106932
9.71751e-05
8.66856e-05
7.26413e-05
5.62382e-05
6.11126e-05
0.00011696
9.94843e-05
8.65507e-05
7.3031e-05
5.92033e-05
6.46052e-05
8.38992e-05
6.00247e-05
4.51709e-05
3.5371e-05
2.9088e-05
7.33027e-05
7.05773e-05
4.73867e-05
3.49332e-05
2.78317e-05
2.31525e-05
8.10857e-05
6.11322e-05
4.08988e-05
3.00671e-05
2.40447e-05
1.96125e-05
8.7665e-05
5.61109e-05
3.91563e-05
2.91796e-05
2.3044e-05
1.82192e-05
9.31326e-05
5.46646e-05
4.08801e-05
3.16695e-05
2.46897e-05
1.87027e-05
9.78781e-05
5.56217e-05
4.48765e-05
3.72215e-05
2.91179e-05
2.09782e-05
0.000101998
5.82304e-05
4.99423e-05
4.48543e-05
3.60234e-05
2.49843e-05
0.000105085
6.22307e-05
5.57685e-05
5.35246e-05
4.43614e-05
3.03967e-05
0.000105786
6.75923e-05
6.27425e-05
6.17567e-05
5.25421e-05
3.71842e-05
0.000102557
7.48329e-05
7.08819e-05
6.90548e-05
5.91462e-05
4.33043e-05
9.60298e-05
8.16513e-05
7.92504e-05
7.54056e-05
6.42131e-05
4.82557e-05
8.76066e-05
8.74901e-05
8.56523e-05
7.89471e-05
6.58792e-05
5.00445e-05
7.81592e-05
9.13397e-05
8.90103e-05
7.95314e-05
6.57382e-05
5.17303e-05
6.81452e-05
9.61626e-05
8.99233e-05
7.89449e-05
6.61019e-05
5.42808e-05
6.58143e-05
0.000130647
6.77821e-05
4.51245e-05
3.49892e-05
2.94875e-05
7.85666e-05
0.000117311
5.94643e-05
4.04137e-05
3.20369e-05
2.73618e-05
8.71235e-05
0.000110049
5.85161e-05
4.07675e-05
3.24966e-05
2.74769e-05
9.23268e-05
0.000107982
6.27102e-05
4.48856e-05
3.52016e-05
2.8715e-05
9.43752e-05
0.000108203
6.99785e-05
5.13863e-05
3.91579e-05
2.99478e-05
9.32629e-05
0.000108607
7.80424e-05
5.86518e-05
4.32786e-05
3.05275e-05
8.96641e-05
0.000108357
8.49226e-05
6.54984e-05
4.65232e-05
3.02723e-05
8.53575e-05
0.000107805
8.89523e-05
7.00694e-05
4.82918e-05
2.96791e-05
8.07815e-05
0.000109797
9.02549e-05
7.07154e-05
4.75452e-05
2.83877e-05
7.61466e-05
0.00011514
8.81793e-05
6.69849e-05
4.43024e-05
2.66459e-05
7.14935e-05
0.000121258
8.38089e-05
6.10614e-05
4.05006e-05
2.54847e-05
6.67112e-05
0.000128645
7.87793e-05
5.49497e-05
3.75541e-05
2.54835e-05
6.15808e-05
0.000134075
7.7235e-05
5.1658e-05
3.68749e-05
2.70207e-05
5.62822e-05
0.000144012
7.93381e-05
5.1548e-05
3.80464e-05
2.96594e-05
6.42843e-05
9.87049e-05
6.00311e-05
4.4417e-05
3.55939e-05
3.02007e-05
7.68452e-05
8.85543e-05
5.06502e-05
3.67846e-05
2.98568e-05
2.58006e-05
8.72112e-05
8.49518e-05
4.80265e-05
3.46288e-05
2.82024e-05
2.42671e-05
9.52049e-05
8.77211e-05
5.1502e-05
3.73259e-05
2.9841e-05
2.48431e-05
0.00010039
9.47149e-05
6.03732e-05
4.45184e-05
3.44569e-05
2.68269e-05
0.000102081
0.000102684
7.31192e-05
5.5393e-05
4.14615e-05
2.96596e-05
0.000100404
0.000107372
8.67398e-05
6.82407e-05
4.94565e-05
3.27124e-05
9.63565e-05
0.000106748
9.72059e-05
7.98591e-05
5.66402e-05
3.5633e-05
9.10634e-05
0.000105732
0.000103153
8.61658e-05
6.01618e-05
3.70487e-05
8.5252e-05
0.000108469
0.000104038
8.55031e-05
5.90947e-05
3.63773e-05
7.92975e-05
0.000112041
9.93303e-05
7.91554e-05
5.44059e-05
3.41337e-05
7.33712e-05
0.000114162
9.08339e-05
6.98592e-05
4.86957e-05
3.22023e-05
6.69471e-05
0.000114755
8.32276e-05
6.24022e-05
4.50303e-05
3.20045e-05
6.01377e-05
0.000118748
7.86211e-05
5.75338e-05
4.33114e-05
3.30859e-05
6.04613e-05
7.64974e-05
5.65115e-05
4.43288e-05
3.62994e-05
3.09996e-05
6.90097e-05
6.56718e-05
4.4913e-05
3.44945e-05
2.86812e-05
2.50112e-05
7.79013e-05
6.09055e-05
3.94793e-05
2.98513e-05
2.48623e-05
2.16403e-05
8.66011e-05
6.05069e-05
3.98185e-05
2.97979e-05
2.4335e-05
2.06671e-05
9.48183e-05
6.47463e-05
4.54823e-05
3.45691e-05
2.73189e-05
2.19072e-05
0.000101981
7.33944e-05
5.60178e-05
4.43911e-05
3.42155e-05
2.53232e-05
0.00010706
8.42238e-05
7.0042e-05
5.79168e-05
4.40457e-05
3.05187e-05
0.00010892
9.48075e-05
8.51588e-05
7.22683e-05
5.4503e-05
3.66783e-05
0.000107177
0.000104198
9.82161e-05
8.35864e-05
6.22834e-05
4.12284e-05
0.000102299
0.000110517
0.000105677
8.87096e-05
6.5202e-05
4.29851e-05
9.4792e-05
0.00011196
0.000104703
8.58087e-05
6.24752e-05
4.16221e-05
8.55003e-05
0.000108215
9.64849e-05
7.70208e-05
5.63861e-05
3.8743e-05
7.52762e-05
0.000101607
8.67894e-05
6.83933e-05
5.12801e-05
3.7171e-05
6.51053e-05
9.6076e-05
7.90811e-05
6.20188e-05
4.82046e-05
3.71578e-05
2.29165e-05
2.02912e-05
1.94271e-05
1.95727e-05
2.00216e-05
1.95456e-05
1.81718e-05
1.6124e-05
1.40072e-05
1.27723e-05
1.28493e-05
1.49043e-05
1.89198e-05
2.44362e-05
1.60987e-05
1.21869e-05
1.03321e-05
9.55844e-06
9.73015e-06
9.76473e-06
9.49273e-06
8.81791e-06
8.02412e-06
7.66898e-06
8.46747e-06
1.10262e-05
1.575e-05
2.27769e-05
1.11286e-05
6.90753e-06
4.70471e-06
3.66579e-06
3.49029e-06
3.54545e-06
3.65032e-06
3.65346e-06
3.6555e-06
4.04768e-06
5.59983e-06
8.85485e-06
1.45566e-05
2.30849e-05
8.71203e-06
4.39983e-06
2.13192e-06
1.17558e-06
9.02915e-07
8.81783e-07
9.80839e-07
1.14257e-06
1.44115e-06
2.15759e-06
3.88619e-06
7.54602e-06
1.42191e-05
2.41324e-05
8.40272e-06
3.71087e-06
1.31597e-06
4.5964e-07
2.07473e-07
1.56526e-07
1.95447e-07
3.16746e-07
6.10855e-07
1.35811e-06
3.23587e-06
7.39726e-06
1.47773e-05
2.50484e-05
9.19442e-06
3.779e-06
1.19424e-06
3.67789e-07
1.12164e-07
4.34279e-08
5.28382e-08
1.38179e-07
4.13098e-07
1.22252e-06
3.31003e-06
7.7263e-06
1.5027e-05
2.45449e-05
1.05712e-05
4.17844e-06
1.36345e-06
4.61435e-07
1.5763e-07
6.81803e-08
7.43893e-08
1.78001e-07
5.20191e-07
1.48129e-06
3.74944e-06
8.09917e-06
1.47076e-05
2.27524e-05
1.26759e-05
5.00754e-06
1.78743e-06
7.3152e-07
3.29632e-07
1.96575e-07
2.10495e-07
3.7271e-07
8.32726e-07
1.94706e-06
4.26818e-06
8.26786e-06
1.38147e-05
2.01371e-05
1.57917e-05
6.46059e-06
2.50512e-06
1.28618e-06
7.60733e-07
5.58617e-07
5.83372e-07
8.38112e-07
1.43428e-06
2.64356e-06
4.85958e-06
8.34787e-06
1.28626e-05
1.7858e-05
1.92463e-05
8.96373e-06
3.70089e-06
2.30676e-06
1.67924e-06
1.41026e-06
1.44038e-06
1.78834e-06
2.5084e-06
3.75769e-06
5.77725e-06
8.75687e-06
1.25511e-05
1.70693e-05
2.22639e-05
1.17723e-05
5.68268e-06
4.11483e-06
3.442e-06
3.18275e-06
3.24077e-06
3.65258e-06
4.46103e-06
5.75524e-06
7.6692e-06
1.05064e-05
1.39826e-05
1.90132e-05
2.55828e-05
1.62072e-05
9.64071e-06
7.13206e-06
6.53941e-06
6.43219e-06
6.72709e-06
7.35958e-06
8.37746e-06
9.86473e-06
1.17984e-05
1.48934e-05
1.84159e-05
2.33994e-05
2.93633e-05
2.1246e-05
1.4549e-05
1.14269e-05
1.09669e-05
1.12657e-05
1.22246e-05
1.35632e-05
1.5213e-05
1.72056e-05
1.91518e-05
2.19333e-05
2.47396e-05
2.9046e-05
3.35275e-05
2.74813e-05
2.14001e-05
1.76337e-05
1.65339e-05
1.70163e-05
1.87098e-05
2.12271e-05
2.39335e-05
2.67855e-05
2.88863e-05
3.05413e-05
3.22473e-05
3.48472e-05
1.62425e-05
1.33681e-05
1.23109e-05
1.22056e-05
1.268e-05
1.29402e-05
1.2794e-05
1.20826e-05
1.10207e-05
9.99513e-06
9.86068e-06
1.11973e-05
1.4205e-05
1.78924e-05
1.14446e-05
7.82969e-06
6.17736e-06
5.59078e-06
5.72417e-06
5.99013e-06
6.23459e-06
6.19338e-06
5.91971e-06
5.6062e-06
5.93166e-06
7.57854e-06
1.08023e-05
1.54331e-05
7.93328e-06
4.36001e-06
2.63568e-06
1.98245e-06
1.88007e-06
1.98206e-06
2.1867e-06
2.35226e-06
2.47986e-06
2.7135e-06
3.51539e-06
5.554e-06
9.26244e-06
1.49109e-05
6.56517e-06
2.91342e-06
1.20147e-06
6.03947e-07
4.46507e-07
4.47841e-07
5.29903e-07
6.57739e-07
8.69017e-07
1.29901e-06
2.27414e-06
4.42752e-06
8.59309e-06
1.51239e-05
6.60884e-06
2.63121e-06
8.36754e-07
2.66264e-07
1.0673e-07
7.48908e-08
9.60616e-08
1.64621e-07
3.32367e-07
7.47233e-07
1.7848e-06
4.21291e-06
8.90599e-06
1.59197e-05
7.22014e-06
2.72326e-06
8.15557e-07
2.36709e-07
6.68915e-08
2.2883e-08
2.57277e-08
6.90529e-08
2.12363e-07
6.45175e-07
1.8232e-06
4.53192e-06
9.45587e-06
1.63345e-05
8.05339e-06
2.96616e-06
9.28983e-07
2.87635e-07
9.0519e-08
3.69218e-08
3.81576e-08
8.907e-08
2.65761e-07
7.95453e-07
2.16435e-06
5.05459e-06
9.87214e-06
1.61389e-05
9.29179e-06
3.47236e-06
1.18491e-06
4.40743e-07
1.83967e-07
1.08002e-07
1.14288e-07
1.95737e-07
4.42856e-07
1.09897e-06
2.61305e-06
5.50465e-06
9.91475e-06
1.53119e-05
1.11039e-05
4.36421e-06
1.62621e-06
7.78577e-07
4.39734e-07
3.23312e-07
3.40227e-07
4.79976e-07
8.26275e-07
1.59363e-06
3.14885e-06
5.85776e-06
9.70874e-06
1.42147e-05
1.33246e-05
5.78964e-06
2.38677e-06
1.45341e-06
1.03856e-06
8.71081e-07
8.91178e-07
1.09764e-06
1.54704e-06
2.39201e-06
3.88145e-06
6.27884e-06
9.5877e-06
1.35043e-05
1.54836e-05
7.59991e-06
3.74062e-06
2.72875e-06
2.30198e-06
2.11259e-06
2.12705e-06
2.37025e-06
2.89276e-06
3.78643e-06
5.20416e-06
7.37929e-06
1.03469e-05
1.4226e-05
1.84225e-05
1.10127e-05
6.3686e-06
4.99709e-06
4.65781e-06
4.58341e-06
4.68341e-06
4.98494e-06
5.5602e-06
6.52563e-06
7.96396e-06
1.01924e-05
1.30552e-05
1.76193e-05
2.20542e-05
1.52507e-05
1.02808e-05
8.56709e-06
8.35266e-06
8.63219e-06
9.08522e-06
9.69088e-06
1.04832e-05
1.15993e-05
1.30111e-05
1.53155e-05
1.80931e-05
2.27896e-05
2.67026e-05
2.15156e-05
1.63034e-05
1.37783e-05
1.32725e-05
1.38712e-05
1.49469e-05
1.61916e-05
1.74765e-05
1.88792e-05
2.02356e-05
2.19842e-05
2.39338e-05
2.73891e-05
1.00586e-05
7.32876e-06
6.26883e-06
6.00074e-06
6.31524e-06
6.82061e-06
7.33032e-06
7.51844e-06
7.38842e-06
7.02505e-06
6.73967e-06
7.2682e-06
9.16933e-06
1.18004e-05
6.97034e-06
4.09116e-06
2.86579e-06
2.47673e-06
2.5237e-06
2.76795e-06
3.1281e-06
3.40326e-06
3.53525e-06
3.52454e-06
3.61951e-06
4.40595e-06
6.30633e-06
9.11335e-06
5.06047e-06
2.33767e-06
1.16744e-06
8.08342e-07
7.53099e-07
8.2513e-07
9.78144e-07
1.14327e-06
1.30248e-06
1.48748e-06
1.89107e-06
2.90068e-06
4.91684e-06
8.08013e-06
4.60994e-06
1.75989e-06
5.92808e-07
2.53589e-07
1.72842e-07
1.7488e-07
2.18662e-07
2.89858e-07
4.05347e-07
6.27483e-07
1.10511e-06
2.12528e-06
4.1694e-06
7.7241e-06
4.70426e-06
1.6525e-06
4.79995e-07
1.41369e-07
4.94686e-08
3.0028e-08
3.82859e-08
6.8975e-08
1.45803e-07
3.35878e-07
8.00256e-07
1.89537e-06
4.20228e-06
8.21891e-06
4.87968e-06
1.65822e-06
4.84725e-07
1.35696e-07
3.61625e-08
1.0901e-08
1.06204e-08
2.87923e-08
9.04894e-08
2.78151e-07
8.00579e-07
2.07384e-06
4.66683e-06
8.95682e-06
5.10975e-06
1.74536e-06
5.39984e-07
1.55801e-07
4.55943e-08
1.73337e-08
1.6505e-08
3.70548e-08
1.11869e-07
3.46364e-07
9.89072e-07
2.47502e-06
5.29381e-06
9.61454e-06
5.58552e-06
1.99337e-06
6.64401e-07
2.24376e-07
8.76932e-08
5.14962e-08
5.33643e-08
8.67103e-08
1.94523e-07
5.02687e-07
1.27917e-06
2.9353e-06
5.82792e-06
9.95545e-06
6.39799e-06
2.42188e-06
8.91547e-07
3.94622e-07
2.15265e-07
1.62511e-07
1.7048e-07
2.30592e-07
3.90567e-07
7.82308e-07
1.66656e-06
3.4008e-06
6.21909e-06
1.00073e-05
7.72708e-06
3.04669e-06
1.33825e-06
7.79999e-07
5.46985e-07
4.62609e-07
4.7207e-07
5.68932e-07
7.93133e-07
1.26119e-06
2.1917e-06
3.87759e-06
6.50545e-06
9.95783e-06
9.12134e-06
3.97923e-06
2.20289e-06
1.60853e-06
1.32691e-06
1.19428e-06
1.1818e-06
1.30015e-06
1.58654e-06
2.12085e-06
3.0576e-06
4.65134e-06
7.07301e-06
1.02857e-05
1.13701e-05
6.10966e-06
3.86073e-06
3.24055e-06
2.95649e-06
2.79915e-06
2.74804e-06
2.84216e-06
3.14634e-06
3.74621e-06
4.72114e-06
6.27057e-06
8.53695e-06
1.17295e-05
1.43293e-05
9.44784e-06
6.7534e-06
6.01319e-06
5.85397e-06
5.79942e-06
5.78756e-06
5.86748e-06
6.12866e-06
6.72731e-06
7.72177e-06
9.36691e-06
1.15395e-05
1.52854e-05
1.9016e-05
1.4796e-05
1.12882e-05
1.01958e-05
1.01125e-05
1.0363e-05
1.06412e-05
1.08913e-05
1.11667e-05
1.16574e-05
1.24231e-05
1.38968e-05
1.57806e-05
1.95887e-05
5.62033e-06
3.58065e-06
2.76698e-06
2.46977e-06
2.54014e-06
2.82129e-06
3.25412e-06
3.66728e-06
3.98252e-06
4.12546e-06
4.16677e-06
4.29372e-06
5.14451e-06
6.8198e-06
3.97774e-06
1.93223e-06
1.14234e-06
9.05203e-07
8.83382e-07
9.69692e-07
1.14396e-06
1.34058e-06
1.52626e-06
1.67909e-06
1.83965e-06
2.19599e-06
3.20049e-06
4.90065e-06
3.25554e-06
1.21728e-06
4.60067e-07
2.67246e-07
2.30738e-07
2.45976e-07
2.95384e-07
3.61899e-07
4.42621e-07
5.57216e-07
7.81885e-07
1.28387e-06
2.29914e-06
3.92868e-06
3.1366e-06
1.02336e-06
2.79816e-07
9.37326e-08
5.07079e-08
4.5148e-08
5.48956e-08
7.50387e-08
1.13917e-07
2.02632e-07
4.11647e-07
8.67785e-07
1.77259e-06
3.3846e-06
3.0269e-06
9.44678e-07
2.57015e-07
7.07766e-08
2.04914e-08
8.27764e-09
8.50714e-09
1.63528e-08
4.03446e-08
1.08523e-07
2.86493e-07
7.13194e-07
1.64771e-06
3.46931e-06
2.90476e-06
9.07806e-07
2.63456e-07
7.14627e-08
1.78882e-08
4.44168e-09
2.85179e-09
7.6821e-09
2.67499e-08
8.91953e-08
2.72399e-07
7.50903e-07
1.84221e-06
3.96135e-06
2.84609e-06
9.3913e-07
2.86593e-07
7.72386e-08
2.08596e-08
7.09042e-09
5.58426e-09
1.09111e-08
3.28651e-08
1.08025e-07
3.35292e-07
9.29646e-07
2.24316e-06
4.66271e-06
3.00166e-06
1.07087e-06
3.38082e-07
1.02892e-07
3.71468e-08
2.12438e-08
2.07385e-08
2.9468e-08
6.10843e-08
1.6338e-07
4.5956e-07
1.19612e-06
2.72505e-06
5.36278e-06
3.41303e-06
1.28381e-06
4.38773e-07
1.76115e-07
9.17568e-08
7.09744e-08
7.32611e-08
9.06891e-08
1.41093e-07
2.83772e-07
6.59949e-07
1.53528e-06
3.2358e-06
5.97806e-06
4.12681e-06
1.56693e-06
6.76144e-07
3.69456e-07
2.51361e-07
2.15683e-07
2.19818e-07
2.53475e-07
3.3511e-07
5.29241e-07
9.84967e-07
1.95997e-06
3.74774e-06
6.48215e-06
4.89044e-06
2.08271e-06
1.21283e-06
8.51315e-07
6.74617e-07
5.9649e-07
5.866e-07
6.36546e-07
7.63456e-07
1.02215e-06
1.54144e-06
2.56846e-06
4.36167e-06
7.01509e-06
6.33419e-06
3.26849e-06
2.33491e-06
1.93073e-06
1.67241e-06
1.50738e-06
1.4366e-06
1.46805e-06
1.63059e-06
1.96585e-06
2.54499e-06
3.56251e-06
5.27065e-06
7.79429e-06
8.50523e-06
5.53726e-06
4.43131e-06
3.99065e-06
3.68659e-06
3.42687e-06
3.23561e-06
3.16021e-06
3.26874e-06
3.6381e-06
4.30095e-06
5.37594e-06
6.98246e-06
9.49223e-06
1.23051e-05
9.409e-06
7.78319e-06
7.31211e-06
7.0938e-06
6.86209e-06
6.57852e-06
6.31916e-06
6.19976e-06
6.41742e-06
7.0262e-06
8.20834e-06
9.71237e-06
1.23675e-05
3.14827e-06
1.66016e-06
1.10704e-06
9.03538e-07
8.80413e-07
9.70796e-07
1.18054e-06
1.45924e-06
1.77394e-06
2.06626e-06
2.2767e-06
2.39687e-06
2.70584e-06
3.57063e-06
2.40848e-06
9.22364e-07
4.03122e-07
2.74016e-07
2.54074e-07
2.75468e-07
3.38055e-07
4.30295e-07
5.45768e-07
6.74501e-07
8.10475e-07
9.99897e-07
1.44492e-06
2.41544e-06
2.11369e-06
6.51535e-07
1.71434e-07
7.06517e-08
5.39003e-08
5.65282e-08
7.02763e-08
9.22912e-08
1.24198e-07
1.74866e-07
2.72307e-07
4.87699e-07
9.4812e-07
1.79041e-06
1.99152e-06
5.68241e-07
1.29301e-07
3.29169e-08
1.2282e-08
8.66213e-09
1.03056e-08
1.50482e-08
2.58436e-08
5.39957e-08
1.27662e-07
3.03568e-07
6.75653e-07
1.38231e-06
1.80463e-06
5.07926e-07
1.29396e-07
3.28837e-08
8.10922e-09
2.1249e-09
1.39336e-09
2.91234e-09