/*--------------------------------*- C++ -*----------------------------------*\
| =========                 |                                                 |
| \\      /  F ield         | OpenFOAM: The Open Source CFD Toolbox           |
|  \\    /   O peration     | Version:  v2106                                 |
|   \\  /    A nd           | Website:  www.openfoam.com                      |
|    \\/     M anipulation  |                                                 |
\*---------------------------------------------------------------------------*/
FoamFile
{
    version     2.0;
    format      ascii;
    arch        "LSB;label=32;scalar=64";
    class       volVectorField;
    location    "0.000121";
    object      U;
}
// * * * * * * * * * * * * * * * * * * * * * * * * * * * * * * * * * * * * * //

dimensions      [0 1 -1 0 0 0 0];

internalField   nonuniform List<vector> 
18109
(
(6.45218 11.4383 4.66922)
(8.06314 11.1169 4.27758)
(9.1968 11.3435 3.69211)
(10.2347 10.7171 3.33106)
(10.6873 9.95453 2.50457)
(10.8794 8.90772 1.74666)
(10.58 7.68353 1.03887)
(7.27149 7.8436 4.21063)
(8.39644 7.97906 3.53455)
(9.14889 8.31787 2.94168)
(9.86971 8.03409 2.43806)
(10.0621 7.59742 1.67641)
(9.98163 6.90065 0.959221)
(9.4847 6.02968 0.344472)
(8.03578 4.65055 3.07446)
(8.86556 5.23801 2.45669)
(9.30977 5.67726 1.94727)
(9.68819 5.65597 1.41785)
(9.58561 5.47794 0.810147)
(9.26337 5.06209 0.209012)
(8.63501 4.46713 -0.31857)
(8.99006 1.63018 2.35921)
(9.45512 2.56602 1.83079)
(9.67395 3.15552 1.32689)
(9.65336 3.3836 0.74274)
(9.33792 3.42315 0.177308)
(8.8054 3.24926 -0.346842)
(8.05017 2.87871 -0.824338)
(10.2386 -0.914974 1.87961)
(10.3198 0.193383 1.37126)
(10.2428 0.897332 0.793089)
(9.86737 1.30577 0.244185)
(9.32333 1.49193 -0.312779)
(8.60817 1.51643 -0.821459)
(7.69786 1.3268 -1.24713)
(11.5285 -3.11954 1.75809)
(11.3073 -1.90862 1.17475)
(10.8667 -1.13542 0.533703)
(10.2562 -0.587258 -0.0444885)
(9.48029 -0.29774 -0.600155)
(8.57917 -0.144331 -1.10032)
(7.52716 -0.189851 -1.49735)
(12.8912 -4.94682 1.94654)
(12.3248 -3.72914 1.20145)
(11.5798 -2.89925 0.500577)
(10.7284 -2.2897 -0.13564)
(9.75487 -1.92506 -0.721841)
(8.67462 -1.7042 -1.20307)
(7.49711 -1.65132 -1.5912)
(14.3019 -6.34108 2.42067)
(13.3627 -5.22465 1.48544)
(12.3197 -4.39002 0.69844)
(11.2136 -3.7847 -0.00797159)
(10.0444 -3.39389 -0.632086)
(8.80638 -3.15009 -1.12209)
(7.51792 -3.04858 -1.50597)
(5.53082 8.47823 8.27011)
(6.85378 8.22449 7.93341)
(7.80415 8.42371 7.45042)
(8.70677 7.90502 7.13977)
(9.1533 7.29731 6.40108)
(9.38148 6.44746 5.70358)
(9.20571 5.45101 5.04351)
(8.73712 4.30826 4.51921)
(7.96521 3.10444 4.1237)
(6.91841 1.94117 3.82571)
(5.5192 0.811375 3.82209)
(3.90725 -0.388693 4.06636)
(2.19136 -1.75166 4.53213)
(0.103179 -3.06784 4.88905)
(6.18559 5.63489 7.93728)
(7.09596 5.72593 7.33995)
(7.76682 5.99719 6.86371)
(8.4073 5.75185 6.41857)
(8.62874 5.40926 5.72614)
(8.64434 4.84405 5.06332)
(8.31818 4.13177 4.47657)
(7.76431 3.25391 4.01687)
(6.92854 2.32602 3.71164)
(5.86457 1.37819 3.59635)
(4.575 0.412932 3.74668)
(3.068 -0.588973 4.05385)
(1.40857 -1.71194 4.53408)
(-0.611485 -2.40606 5.06101)
(6.79065 3.15303 6.94892)
(7.46091 3.58938 6.3993)
(7.88051 3.92207 5.99046)
(8.23788 3.88447 5.53893)
(8.22706 3.73992 4.98201)
(8.04208 3.40152 4.41959)
(7.60935 2.91466 3.91952)
(6.94497 2.28084 3.56446)
(6.08409 1.57389 3.34152)
(5.0005 0.87261 3.30278)
(3.74189 0.173731 3.48764)
(2.29913 -0.526309 3.86686)
(0.686586 -1.32254 4.44448)
(-1.27282 -1.84964 5.00192)
(7.55926 0.772756 6.39276)
(7.946 1.4775 5.92014)
(8.15097 1.92659 5.48624)
(8.21094 2.08955 4.97897)
(8.02331 2.11846 4.47061)
(7.66039 1.97277 3.97936)
(7.13421 1.66564 3.5197)
(6.37961 1.24835 3.22783)
(5.48227 0.737649 3.05921)
(4.37565 0.236226 3.08506)
(3.12965 -0.27762 3.33304)
(1.73754 -0.776094 3.73425)
(0.161197 -1.22626 4.23223)
(-1.60844 -1.42706 4.81178)
(8.59162 -1.18448 6.0239)
(8.66876 -0.355663 5.54217)
(8.61714 0.174505 5.04025)
(8.3844 0.478239 4.54265)
(8.01103 0.626369 4.0439)
(7.48909 0.637813 3.58445)
(6.83435 0.473218 3.17308)
(6.00981 0.234062 2.92588)
(5.05509 -0.0992685 2.81116)
(3.95304 -0.423336 2.85103)
(2.73403 -0.754142 3.10381)
(1.38228 -1.01667 3.50086)
(-0.105687 -1.2488 4.05123)
(-1.73922 -1.25563 4.63395)
(9.62677 -2.88539 5.95758)
(9.4582 -1.9723 5.40331)
(9.13146 -1.38538 4.82818)
(8.68811 -0.972514 4.30738)
(8.1194 -0.745311 3.80838)
(7.453 -0.628711 3.36309)
(6.67664 -0.678346 2.98915)
(5.79169 -0.785838 2.7813)
(4.8009 -0.981704 2.69478)
(3.70346 -1.16263 2.76116)
(2.51976 -1.35131 3.02047)
(1.24162 -1.45556 3.41188)
(-0.123583 -1.49319 3.94763)
(-1.6258 -1.25602 4.47416)
(10.7233 -4.26837 6.13682)
(10.2675 -3.35183 5.44934)
(9.71152 -2.71588 4.80469)
(9.06432 -2.25181 4.24065)
(8.33852 -1.96994 3.71304)
(7.52396 -1.80111 3.28967)
(6.65289 -1.76962 2.92691)
(5.69971 -1.78545 2.7515)
(4.69068 -1.87997 2.68174)
(3.60877 -1.94391 2.75067)
(2.47519 -2.01171 3.0111)
(1.26292 -1.96627 3.35622)
(-0.0149627 -1.84578 3.86547)
(-1.40283 -1.48219 4.34244)
(11.8289 -5.31037 6.55075)
(11.0755 -4.46356 5.71802)
(10.2997 -3.81886 4.98775)
(9.44439 -3.35753 4.36494)
(8.56264 -3.0602 3.79775)
(7.62378 -2.87255 3.36759)
(6.66755 -2.79884 3.0159)
(5.66989 -2.76167 2.84702)
(4.65046 -2.78821 2.78863)
(3.59607 -2.77059 2.86546)
(2.52443 -2.74154 3.12144)
(1.40317 -2.57273 3.43574)
(0.257702 -2.3109 3.93009)
(-1.00614 -1.8619 4.29568)
(12.8281 -6.06691 7.13355)
(11.7979 -5.30831 6.18665)
(10.8521 -4.67247 5.35055)
(9.81859 -4.26184 4.65746)
(8.80744 -3.99339 4.04831)
(7.76825 -3.83081 3.59342)
(6.74116 -3.75556 3.24216)
(5.71218 -3.70467 3.0661)
(4.68963 -3.69919 3.01068)
(3.67362 -3.62917 3.08842)
(2.67363 -3.53364 3.33126)
(1.65668 -3.26784 3.6246)
(0.664494 -2.88934 4.10519)
(-0.486308 -2.42194 4.34872)
(13.7809 -6.41243 7.81429)
(12.4315 -5.87974 6.7422)
(11.289 -5.31901 5.79905)
(10.0708 -4.99353 5.08197)
(8.9375 -4.79431 4.43614)
(7.81391 -4.68722 3.95856)
(6.74141 -4.64619 3.59435)
(5.70739 -4.6108 3.41544)
(4.70876 -4.60655 3.36424)
(3.75247 -4.51875 3.42796)
(2.84437 -4.38712 3.67971)
(1.94214 -4.0651 3.94843)
(1.13462 -3.60434 4.41122)
(0.112459 -3.15318 4.54949)
(14.5225 -6.50143 8.51195)
(12.8358 -6.16401 7.44797)
(11.5568 -5.7222 6.38364)
(10.2086 -5.51433 5.63632)
(8.99265 -5.42263 4.96954)
(7.82178 -5.41862 4.47546)
(6.73152 -5.45752 4.09605)
(5.71246 -5.48121 3.89197)
(4.74663 -5.51619 3.82947)
(3.84799 -5.43731 3.8876)
(3.0319 -5.30278 4.15729)
(2.23768 -4.96193 4.41767)
(1.63024 -4.46262 4.87269)
(0.761317 -4.05137 4.96223)
(15.1466 -6.1319 8.99024)
(13.1963 -6.12546 8.13419)
(11.7394 -5.95473 6.97925)
(10.2268 -5.92003 6.18592)
(8.89741 -5.96445 5.49612)
(7.66095 -6.07081 5.02192)
(6.55955 -6.20776 4.66511)
(5.5779 -6.30715 4.47766)
(4.68147 -6.40128 4.43825)
(3.87125 -6.36848 4.50344)
(3.1841 -6.24966 4.81106)
(2.51835 -5.93259 5.0703)
(2.1384 -5.4562 5.49981)
(1.45458 -5.13118 5.60451)
(15.3529 -5.81026 9.64891)
(13.3326 -5.90474 8.83935)
(11.786 -5.91211 7.6249)
(10.1511 -6.07933 6.80719)
(8.75527 -6.32132 6.08761)
(7.47864 -6.5952 5.63307)
(6.37798 -6.88947 5.30003)
(5.43061 -7.12625 5.11696)
(4.58712 -7.33019 5.08184)
(3.83699 -7.36432 5.1888)
(3.26113 -7.27006 5.55705)
(2.72521 -6.99816 5.87001)
(2.57948 -6.58978 6.27771)
(2.17137 -6.38415 6.45361)
(15.9162 -5.36459 10.0499)
(13.7363 -5.62144 9.42572)
(11.9037 -5.81024 8.30867)
(10.0735 -6.20678 7.47162)
(8.54 -6.66657 6.66852)
(7.1471 -7.10126 6.19131)
(5.99737 -7.54559 5.89861)
(5.0496 -7.90004 5.80578)
(4.28915 -8.20261 5.87959)
(3.67765 -8.34867 6.06317)
(3.29576 -8.30828 6.45006)
(2.98638 -8.15372 6.76491)
(2.96533 -7.88358 7.03306)
(2.79348 -7.87156 7.19178)
(6.58904 14.3625 5.7505)
(4.9861 15.8104 7.0645)
(3.51849 17.7572 8.84878)
(1.5041 19.8459 10.2859)
(-0.194023 21.9922 12.1304)
(-2.36709 24.4818 13.2001)
(5.61838 10.7583 9.24927)
(4.33045 11.9044 10.325)
(3.11701 13.4052 11.8415)
(1.50221 15.0255 13.1324)
(0.162251 16.6185 14.7874)
(-1.65715 18.5209 15.7996)
(6.91419 10.348 9.19964)
(6.3617 12.4432 10.4073)
(5.78387 14.4212 12.2934)
(4.77093 16.9365 13.9352)
(3.66681 19.5071 16.0785)
(1.98083 22.5546 17.8711)
(8.18026 10.6849 8.92144)
(8.06238 13.2896 10.3703)
(7.92977 15.6971 12.5602)
(7.56562 18.607 14.602)
(7.04091 21.5301 17.1053)
(6.1157 25.0724 19.4406)
(9.40191 9.98957 8.59835)
(9.85701 12.7129 9.99762)
(10.3734 15.364 12.162)
(10.7265 18.659 14.2393)
(10.9272 21.9757 17.0761)
(10.7673 26.0858 19.7917)
(10.1098 9.25216 7.70587)
(11.1788 11.8733 9.03328)
(12.405 14.4043 11.2024)
(13.617 17.6341 13.3322)
(14.7275 20.9559 16.2324)
(15.4089 25.0219 19.1654)
(10.5762 8.12766 6.906)
(12.1311 10.4565 8.07328)
(13.9875 12.7133 10.0476)
(16.0018 15.5344 12.1073)
(17.8789 18.4112 14.7932)
(19.1829 21.8818 17.3674)
(10.608 6.80311 6.09144)
(12.586 8.59802 7.16294)
(14.9285 10.4465 8.80944)
(17.5127 12.6598 10.5848)
(19.8309 14.756 12.784)
(21.349 17.2365 14.4716)
(10.2393 5.36414 5.33227)
(12.4683 6.45814 6.30174)
(15.0713 7.74342 7.6167)
(17.8469 9.17673 8.99475)
(20.0733 10.3277 10.4184)
(21.0779 11.64 11.0372)
(9.44305 3.85932 4.66272)
(11.6914 4.16885 5.50915)
(14.4217 4.78807 6.4978)
(17.1716 5.30362 7.4227)
(19.1147 5.60711 7.99107)
(19.8553 5.78459 8.03401)
(8.30907 2.1964 4.30927)
(10.3227 1.82348 4.88632)
(12.7794 1.78536 5.58446)
(15.1381 1.43946 6.0739)
(16.8087 0.895773 6.21132)
(17.6666 0.161748 5.83447)
(6.6332 0.531727 4.19639)
(8.21434 -0.281145 4.55454)
(10.2422 -0.887144 5.01804)
(12.1237 -1.91159 5.25774)
(13.5163 -3.12344 5.28346)
(14.1999 -4.4732 4.59958)
(4.64517 -1.06843 4.23372)
(5.72833 -2.04129 4.42416)
(7.11286 -2.97857 4.78328)
(8.30523 -4.38693 4.92276)
(9.33076 -5.96824 5.02629)
(9.65697 -7.83917 4.48035)
(2.62345 -2.65543 4.56592)
(3.15978 -3.63536 4.66987)
(3.80285 -4.65439 5.11402)
(4.12369 -6.10095 5.1666)
(4.58012 -7.70303 5.47701)
(4.3469 -9.65204 5.25111)
(0.40657 -3.98662 4.73679)
(0.328903 -4.44626 5.21463)
(0.101228 -5.41428 5.56888)
(-0.283219 -6.66824 5.81237)
(-0.522858 -8.11137 6.42646)
(-1.19842 -9.95363 6.58746)
(-2.02236 -3.43574 5.19385)
(-2.34294 -4.35164 5.81379)
(-3.43323 -5.27157 6.3771)
(-4.22599 -6.72817 7.01063)
(-5.23661 -7.99122 8.08029)
(-6.39148 -9.76947 8.6132)
(-2.64052 -2.28072 5.42846)
(-3.82686 -3.26176 6.16254)
(-5.41518 -3.98252 7.15113)
(-6.95777 -5.36131 8.08146)
(-8.76918 -6.44452 9.48865)
(-10.7395 -8.19745 10.5366)
(-3.39563 -1.82317 5.46324)
(-4.99297 -2.5741 6.51654)
(-7.04306 -3.05564 7.60979)
(-9.12545 -4.02967 8.93612)
(-11.5063 -4.70768 10.6157)
(-14.168 -6.11434 12.2103)
(-3.62883 -1.30382 5.45079)
(-5.55697 -1.75289 6.58919)
(-7.87384 -1.84904 7.81966)
(-10.372 -2.3539 9.37858)
(-13.2 -2.60965 11.2296)
(-16.3499 -3.47096 13.3119)
(-3.61663 -0.972696 5.39064)
(-5.66758 -1.03671 6.55292)
(-8.0575 -0.709645 7.83109)
(-10.7157 -0.63923 9.49122)
(-13.7339 -0.351365 11.4382)
(-17.1428 -0.589198 13.8595)
(-3.34949 -0.813365 5.30071)
(-5.35633 -0.497335 6.42125)
(-7.60664 0.214219 7.67094)
(-10.2492 0.862019 9.19022)
(-13.2332 1.7355 11.1366)
(-16.6215 2.35864 13.7661)
(-2.89278 -0.936967 5.21945)
(-4.70847 -0.268143 6.25299)
(-6.73081 0.81359 7.44248)
(-9.17165 2.05462 8.87611)
(-11.9847 3.53936 10.7721)
(-14.962 4.93576 13.2924)
(-2.2665 -1.26207 5.1473)
(-3.78819 -0.380729 6.1314)
(-5.5099 1.05279 7.17851)
(-7.62172 2.83067 8.52121)
(-9.95779 4.75267 10.2933)
(-12.1759 6.36685 12.2824)
(-1.50585 -1.81807 5.13682)
(-2.62718 -0.753634 6.07746)
(-4.01013 0.868034 7.0194)
(-5.64513 2.9755 8.19258)
(-7.34102 4.99607 9.7464)
(-8.73615 6.51402 10.9428)
(-0.649857 -2.61347 5.28359)
(-1.32793 -1.46838 6.1703)
(-2.26661 0.23174 7.12139)
(-3.29123 2.37842 8.1599)
(-4.18231 4.2027 9.21374)
(-4.72657 5.07715 9.68196)
(0.311152 -3.59854 5.65182)
(-0.00257587 -2.54222 6.44866)
(-0.384603 -0.95474 7.38924)
(-0.742176 0.935612 8.22806)
(-0.851448 2.49902 8.75642)
(-0.710459 3.2681 8.88468)
(1.3491 -4.73421 6.18622)
(1.26401 -3.93348 6.85591)
(1.27838 -2.7956 7.64948)
(1.47078 -1.45449 8.31412)
(1.90867 -0.250963 8.76262)
(2.62564 0.500503 8.9918)
(2.35743 -6.08446 6.7296)
(2.34205 -5.58452 7.30939)
(2.59821 -4.9911 8.03857)
(3.06582 -4.33523 8.69026)
(3.75984 -3.66511 9.20881)
(4.71977 -3.33058 9.64713)
(2.95656 -7.50109 7.36791)
(2.99965 -7.39017 7.87191)
(3.48324 -7.43878 8.43656)
(3.98065 -7.457 9.21472)
(4.79084 -7.39168 9.93086)
(5.81226 -7.61198 10.5911)
(3.42209 -9.1399 7.54931)
(3.747 -9.37668 8.33034)
(4.09151 -9.94671 9.16619)
(4.77144 -10.383 10.1307)
(5.38651 -10.9443 11.2375)
(6.44347 -11.6551 12.1087)
(3.24306 -9.19458 7.46125)
(3.44609 -10.2479 8.45495)
(3.59949 -11.3464 9.59206)
(4.25036 -12.3938 10.8344)
(4.8154 -13.6486 12.2332)
(6.01267 -15.0414 13.5357)
(3.24916 -9.46663 7.39865)
(3.3629 -10.712 8.52677)
(3.52283 -12.2264 9.70558)
(3.89931 -13.7489 11.2575)
(4.23785 -15.5425 12.9533)
(5.12498 -17.5569 14.7488)
(3.28841 -9.59007 7.21531)
(3.23077 -10.8315 8.47828)
(3.09793 -12.4831 9.70893)
(3.14623 -14.2704 11.3773)
(3.12777 -16.4323 13.2315)
(3.613 -18.8979 15.4584)
(3.58498 -9.54154 7.01301)
(3.23497 -10.7532 8.32419)
(2.72014 -12.34 9.59141)
(2.36303 -14.1295 11.269)
(1.89572 -16.3555 13.1569)
(1.78471 -18.8695 15.6503)
(4.08483 -9.22814 6.89475)
(3.49529 -10.3499 8.15489)
(2.5998 -11.7712 9.39669)
(1.73325 -13.4761 11.0271)
(0.771967 -15.6248 12.9429)
(0.00584751 -18.0475 15.4752)
(4.78302 -8.70861 6.83737)
(4.00218 -9.63586 8.01699)
(2.79947 -10.8048 9.22584)
(1.43519 -12.2794 10.7795)
(-0.0307671 -14.1166 12.6164)
(-1.29744 -16.1027 14.8499)
(5.72221 -8.09216 6.90248)
(4.81646 -8.73231 8.01417)
(3.35135 -9.5209 9.20561)
(1.61004 -10.6668 10.6111)
(-0.119015 -11.9564 12.2863)
(-1.43448 -13.248 13.9444)
(6.85032 -7.34746 7.14589)
(5.89468 -7.69253 8.22063)
(4.33741 -8.06725 9.44305)
(2.44611 -8.74991 10.771)
(0.745673 -9.31476 12.1724)
(-0.108361 -9.85465 13.1658)
(8.25527 -6.58988 7.5708)
(7.34982 -6.62194 8.69571)
(5.8035 -6.52939 10.0026)
(3.99247 -6.60363 11.2584)
(2.58473 -6.46873 12.1366)
(1.96421 -6.25446 12.4819)
(9.82491 -5.82357 8.27967)
(9.13545 -5.57634 9.37201)
(7.98085 -5.1252 10.5474)
(6.58086 -4.61049 11.5577)
(5.41514 -3.8527 12.265)
(4.85169 -2.90479 12.7966)
(11.7136 -5.18421 8.95523)
(11.3734 -4.82004 9.97861)
(10.7416 -4.15318 11.0534)
(9.95905 -3.35076 12.0958)
(9.25763 -2.20396 12.8869)
(9.06224 -0.807499 13.6309)
(13.6016 -5.03909 10.0604)
(13.7879 -4.71155 10.9909)
(13.8014 -3.99648 12.0629)
(13.7923 -3.02671 13.1653)
(13.6502 -1.68566 14.1029)
(13.9774 -0.0557891 14.9588)
(15.6559 -4.96082 10.8385)
(16.4142 -4.84315 11.7464)
(17.0349 -4.14553 13.0428)
(17.775 -3.31728 14.3898)
(18.292 -1.96096 15.5945)
(19.166 -0.365889 16.7055)
(8.01185 0.474269 3.01285)
(6.55748 -0.977106 3.61841)
(5.21812 -2.66734 4.25823)
(3.3854 -3.85197 4.45818)
(1.17521 -4.29297 4.47967)
(-1.52436 -3.69524 3.78228)
(6.60875 3.89278 3.44036)
(4.95265 3.11546 4.09974)
(3.16323 2.11566 4.89962)
(0.859777 1.55211 5.18364)
(-1.81109 1.62462 5.51014)
(-4.84683 2.69497 5.12389)
(5.86065 7.47548 4.53677)
(4.34906 7.47898 5.19336)
(2.64471 7.37201 6.20889)
(0.288942 7.74081 6.62271)
(-2.36754 8.43627 7.39856)
(-5.53958 9.8561 7.39708)
(5.08281 11.2139 5.14112)
(4.27231 12.0781 6.02341)
(2.77372 13.0299 7.19494)
(0.646488 14.2728 8.11239)
(-1.80377 15.7165 9.2616)
(-4.76673 17.5603 9.7482)
(17.2731 -5.39548 11.3469)
(18.5676 -4.91603 12.4961)
(19.5241 -3.96543 14.2002)
(21.0389 -3.04811 15.728)
(22.2289 -1.95821 17.4909)
(23.8532 -0.787959 18.984)
(16.5625 -6.11293 11.2162)
(18.4212 -6.05166 12.3457)
(19.932 -5.76023 14.3573)
(22.1493 -5.31521 16.2363)
(24.2436 -4.46619 18.538)
(26.8844 -3.43732 20.6012)
(16.6172 -6.68278 10.6624)
(18.8887 -7.0665 12)
(20.6624 -7.27586 14.3645)
(23.1633 -7.30844 16.5329)
(25.5784 -6.94577 19.2109)
(28.7369 -6.43803 21.7316)
(15.8919 -7.31848 10.1975)
(18.1757 -8.10603 11.5555)
(20.0328 -8.82909 13.8868)
(22.639 -9.48693 16.0935)
(25.3394 -9.86028 18.9648)
(28.8327 -10.0347 21.8755)
(15.0157 -7.32159 9.31678)
(17.0673 -8.52742 10.5778)
(18.8776 -9.87042 12.7661)
(21.3677 -11.3678 15.005)
(23.9674 -12.6073 17.909)
(27.2088 -13.4394 20.8774)
(13.8499 -7.13991 8.49635)
(15.491 -8.81426 9.7262)
(17.0644 -10.7165 11.6678)
(19.067 -12.8364 13.7496)
(21.1206 -14.6387 16.3007)
(23.6801 -15.8502 18.6963)
(12.5699 -6.52036 7.77145)
(13.5968 -8.55197 8.8669)
(14.6891 -10.8747 10.5216)
(16.0305 -13.3634 12.2911)
(17.2735 -15.3738 14.268)
(18.7583 -16.551 15.7129)
(11.1846 -5.53227 7.1876)
(11.4571 -7.73146 8.14283)
(11.9676 -10.271 9.50316)
(12.4888 -12.7969 10.9159)
(12.8482 -14.5139 12.1127)
(13.2204 -15.1237 12.5411)
(9.71777 -4.10581 6.89207)
(9.25413 -6.17513 7.70673)
(9.10884 -8.6579 8.80345)
(8.73334 -10.969 9.68434)
(8.30024 -12.3838 10.1352)
(7.64378 -12.896 10.0026)
(8.23686 -2.25766 6.84256)
(7.24951 -3.90005 7.52921)
(6.48812 -6.01759 8.33172)
(5.26913 -8.00976 8.79527)
(3.88101 -9.44288 8.97268)
(2.30514 -10.0713 8.52258)
(6.7553 -0.0758201 7.05557)
(5.45002 -1.20355 7.67425)
(4.28701 -2.74654 8.4109)
(2.66799 -4.02429 8.72922)
(0.813295 -4.81348 8.91227)
(-1.38029 -4.96313 8.44425)
(5.60628 2.57883 7.3762)
(4.19556 1.99636 8.02897)
(2.73057 1.12775 8.86598)
(0.806731 0.481972 9.24101)
(-1.36865 0.170803 9.64107)
(-3.88639 0.541048 9.34718)
(4.99214 5.35687 8.30773)
(3.71107 5.41271 8.89239)
(2.33998 5.31178 9.83914)
(0.433542 5.49602 10.3083)
(-1.66587 5.76791 11.0816)
(-4.27116 6.60725 11.0941)
(4.40076 8.30412 8.76409)
(3.73389 9.01097 9.53639)
(2.53644 9.73896 10.5788)
(0.845371 10.6585 11.4581)
(-1.09777 11.6068 12.5466)
(-3.54282 12.9271 12.9954)
(-5.34578 22.5676 18.592)
(-12.4411 27.9887 22.1455)
(-19.9867 33.2873 26.4507)
(-29.3271 36.8808 29.4726)
(-38.781 40.036 31.3782)
(-1.39738 28.1149 22.1519)
(-8.23003 35.4306 27.9928)
(-15.9756 42.535 34.3101)
(-26.5415 47.1189 39.3007)
(-37.3657 50.3457 43.4516)
(4.01676 30.9925 24.8492)
(-1.99182 39.8169 31.576)
(-11.8019 48.3616 37.9875)
(-26.2714 54.8275 43.9234)
(-42.9083 60.4167 49.9627)
(9.46718 32.1564 25.7518)
(3.00695 41.6204 32.2562)
(-10.4325 50.1225 37.6889)
(-31.3103 57.9566 43.4842)
(-58.9375 63.6968 47.9816)
(14.6454 30.9692 24.7555)
(7.08044 39.8238 30.0937)
(-10.4967 47.635 33.5625)
(-39.2377 55.5729 36.6905)
(-79.8917 58.9985 35.6855)
(18.2446 27.0864 21.7761)
(9.11966 34.7172 24.9853)
(-12.9503 40.7262 25.7715)
(-49.7205 48.5612 24.4173)
(-100.788 50.0116 23.0782)
(19.6731 21.0164 17.2216)
(9.64746 26.4254 17.0832)
(-14.8616 31.605 15.2956)
(-57.1051 38.0522 10.7361)
(-114.313 39.1843 11.3433)
(19.6073 13.4303 11.9381)
(10.214 15.6863 9.02261)
(-14.3979 20.8426 4.49583)
(-59.5458 25.1678 -0.588704)
(-121.657 27.2351 2.36363)
(-183.649 21.6935 7.97861)
(18.5683 5.39026 7.05129)
(10.48 5.02997 3.15944)
(-10.6567 8.43723 -3.30521)
(-52.6543 9.8398 -7.4315)
(-115.213 13.6699 -4.25813)
(-184.342 12.4792 3.11262)
(16.4327 -1.9055 3.88371)
(9.36968 -4.16288 0.144536)
(-6.98138 -4.39076 -5.58053)
(-39.3775 -4.74648 -10.2896)
(-93.7907 -2.07147 -6.53064)
(-164.471 2.38371 2.54365)
(12.8134 -7.57786 2.79013)
(7.27738 -11.3426 -0.503909)
(-4.2603 -14.2681 -4.58732)
(-26.1622 -16.1036 -8.523)
(-64.7463 -13.9449 -4.12421)
(-126.099 -7.55681 5.756)
(-199.872 -1.3473 8.15113)
(8.48431 -11.7217 3.18664)
(4.09871 -16.469 0.742004)
(-3.74444 -20.598 -1.8356)
(-16.8232 -23.2125 -4.22684)
(-38.3866 -22.5242 -0.779836)
(-76.7034 -16.0303 8.20366)
(-145.273 -6.47111 14.1784)
(-233.572 4.58643 8.60243)
(3.03019 -13.7672 4.72677)
(-0.504397 -19.0673 3.31555)
(-5.5385 -23.807 2.54923)
(-12.5362 -26.5278 1.88434)
(-22.2648 -27.2676 3.47368)
(-36.8364 -28.5713 7.81397)
(-65.3033 -20.7564 8.65308)
(-144.012 22.8353 10.2938)
(-3.00273 -14.0643 7.1718)
(-6.16196 -19.9833 6.84044)
(-9.77267 -25.6466 7.33824)
(-13.5593 -30.767 7.26918)
(-17.956 -35.4766 7.09675)
(-23.9279 -40.0417 8.10028)
(-29.0976 -45.0324 5.29036)
(-45.3991 -63.5351 -0.082576)
(-9.16116 -13.2614 10.0865)
(-12.9094 -19.3383 11.1427)
(-16.7184 -25.555 13.044)
(-19.8337 -32.3354 14.0795)
(-22.886 -39.1454 14.5837)
(-26.4227 -45.5635 15.016)
(-30.4177 -52.0261 13.2586)
(-36.4746 -47.9102 15.0427)
(-14.7669 -11.214 13.0656)
(-19.7062 -17.3108 16.2484)
(-24.647 -23.48 20.3866)
(-28.2023 -30.7136 23.815)
(-30.3975 -37.3767 26.2172)
(-31.083 -42.345 27.7031)
(-33.5354 -46.6077 25.4418)
(-34.1217 -40.6937 23.8465)
(-19.1667 -8.33265 15.7368)
(-25.5309 -13.5848 20.9403)
(-32.6596 -19.3532 26.948)
(-37.8375 -28.0537 32.4534)
(-40.7472 -37.2016 37.4185)
(-39.6668 -45.841 41.8077)
(-37.5682 -48.9257 42.7319)
(-35.3647 -45.9413 47.7425)
(-21.8779 -4.75846 17.7008)
(-29.518 -9.08687 24.1328)
(-37.8656 -15.5273 31.017)
(-43.6047 -27.7065 37.5631)
(-48.3695 -42.2735 44.9914)
(-45.95 -58.8012 52.4714)
(-42.564 -70.0744 56.7398)
(-23.448 -70.5981 56.9687)
(-22.867 -0.853732 18.6066)
(-30.9207 -4.35496 25.3481)
(-39.1351 -13.4415 31.5033)
(-44.961 -30.4809 37.5648)
(-50.4445 -53.5093 44.8302)
(-48.0884 -79.7635 52.3302)
(-47.2152 -102.247 54.7866)
(-23.6071 -99.6401 54.6752)
(-22.0042 3.00028 18.4655)
(-29.6085 -0.241058 24.4086)
(-36.4409 -11.6217 28.4774)
(-41.8166 -33.4187 32.5827)
(-45.2281 -64.9559 35.6895)
(-43.8457 -100.092 41.8413)
(-48.0124 -132.181 48.8139)
(-37.0735 -140.803 53.5753)
(-19.2954 6.05557 17.025)
(-25.4024 2.15424 21.1495)
(-29.7678 -11.6024 22.7466)
(-33.9154 -37.3813 23.1927)
(-35.233 -74.1003 22.7598)
(-34.1761 -114.61 27.4358)
(-36.2132 -153.028 36.1631)
(-37.8205 -168.964 49.4006)
(-15.0497 7.16895 14.3791)
(-18.8353 2.86824 16.3271)
(-21.8071 -11.3429 15.1374)
(-24.6675 -40.0062 13.5195)
(-25.2811 -81.7228 12.6086)
(-21.2317 -128.627 15.5732)
(-12.962 -170.132 19.9018)
(-1.57772 -191.112 27.5705)
(-9.88764 6.89994 11.6582)
(-11.2034 3.51837 11.6672)
(-13.2081 -9.47648 8.74792)
(-15.1588 -38.1158 6.144)
(-16.6746 -83.4906 6.80893)
(-12.7959 -138.806 10.8601)
(-4.70372 5.15274 9.78521)
(-4.1522 3.19609 8.59136)
(-4.36151 -6.3215 5.86115)
(-5.44962 -29.5827 2.26176)
(-7.11523 -72.3517 2.57355)
(-5.90366 -133.65 8.06449)
(0.233686 3.5211 8.68002)
(1.90758 1.74132 7.62575)
(3.56863 -4.39198 5.60561)
(3.95088 -19.5767 2.77705)
(3.64882 -50.9989 4.10032)
(2.18361 -108.074 10.5334)
(4.35303 0.835174 8.86604)
(7.00395 -0.428142 7.99033)
(9.92581 -3.97174 6.45373)
(12.0344 -12.2148 4.82854)
(13.0678 -29.2787 6.46243)
(11.8708 -65.135 12.8665)
(7.07108 -3.16449 10.0034)
(10.6966 -3.97772 9.69122)
(14.4166 -5.67517 9.27789)
(17.4294 -8.99934 8.92865)
(19.5944 -15.7125 10.192)
(24.2478 -29.0325 12.5198)
(8.494 -8.17382 11.6388)
(12.9511 -9.19296 12.084)
(17.8973 -10.1565 12.7751)
(23.1851 -11.1598 12.553)
(29.206 -13.2622 12.4134)
(8.75426 -13.3664 13.8665)
(13.5397 -15.4539 15.5927)
(19.1835 -17.2772 17.6476)
(25.9434 -18.536 18.4343)
(33.4523 -19.9349 18.7782)
(8.14371 -18.0704 16.2307)
(12.9889 -21.6817 19.9205)
(18.5592 -25.3144 24.0806)
(25.6037 -27.5818 27.3168)
(32.3352 -28.8097 29.5762)
(6.51921 -21.4762 18.4137)
(10.7274 -26.9112 23.7349)
(15.9831 -32.9573 29.6584)
(24.2908 -37.1663 34.9917)
(33.399 -39.4969 39.9806)
(4.46009 -23.4059 19.8326)
(7.6905 -30.0887 26.0398)
(14.0275 -37.4779 32.5533)
(25.6448 -43.0134 39.4299)
(39.9994 -47.401 46.7698)
(1.75196 -23.5744 20.2095)
(4.65653 -30.6849 26.674)
(13.3029 -38.2293 32.6012)
(29.9085 -44.1069 38.9145)
(52.8432 -49.1742 45.3877)
(-0.695111 -22.3259 19.6866)
(2.1797 -28.6945 25.2752)
(13.1388 -34.935 29.3527)
(34.4941 -40.0228 32.877)
(65.7901 -43.3668 35.5945)
(-2.08354 -19.3225 18.137)
(1.746 -24.0455 21.9987)
(14.78 -27.7729 23.33)
(40.1291 -31.2251 23.5781)
(76.5444 -32.8568 23.3644)
(-1.76086 -15.0144 15.9139)
(2.55535 -17.155 17.6453)
(16.4305 -19.2952 16.4027)
(44.5213 -21.3722 14.883)
(85.5702 -22.3537 14.651)
(-0.0972525 -10.0547 13.7535)
(3.31007 -9.82955 13.5508)
(15.9798 -10.7907 11.0618)
(43.7105 -11.3832 8.9567)
(87.4976 -12.765 10.7201)
(2.04509 -5.11162 12.5639)
(5.21716 -3.29951 11.6869)
(15.2086 -2.27295 9.50588)
(37.1711 -1.3254 6.96457)
(77.2998 -2.89582 8.60473)
(5.06249 -0.734126 12.7358)
(7.78426 2.30607 11.8959)
(14.3857 5.17507 10.2942)
(28.9842 7.27222 8.9604)
(57.9835 7.33438 12.3477)
(9.45552 2.23582 14.0402)
(11.5083 6.65572 13.7655)
(15.4167 11.1176 12.9482)
(23.5195 14.3246 12.6048)
(39.1109 16.393 16.2697)
(14.9529 3.49066 16.0948)
(16.9404 8.77438 16.9789)
(18.9618 14.041 17.9349)
(22.0151 18.3227 19.0206)
(27.6112 20.9497 22.4097)
(21.0851 3.32386 18.7693)
(23.7041 9.35551 21.1428)
(25.5707 16.0486 23.4884)
(26.5704 23.2859 24.8731)
(26.9793 30.4402 26.4291)
(27.0462 2.21239 22.1027)
(31.3436 8.007 26.3793)
(34.7048 15.032 30.7819)
(36.6328 23.9801 33.5918)
(37.974 33.8228 35.1261)
(31.3695 -0.952173 25.2157)
(37.7905 4.38448 31.4464)
(43.6749 12.0844 37.6814)
(47.3316 22.5404 42.7576)
(49.5548 33.5598 47.0566)
(33.8816 -4.77801 27.3243)
(41.85 0.405768 34.2582)
(49.144 10.1315 40.7134)
(55.4318 24.0915 47.0678)
(60.2556 40.9139 53.1111)
(34.1721 -8.97896 27.7889)
(42.7261 -2.9027 34.2603)
(50.5587 10.3724 39.6296)
(58.2952 30.941 45.8538)
(63.2951 58.8087 49.5256)
(32.2202 -12.6541 26.1061)
(40.1995 -5.33923 31.0947)
(47.4293 11.9789 34.7898)
(54.8345 40.6054 37.3235)
(58.205 81.1166 36.2967)
(27.7672 -14.593 22.6828)
(34.2464 -5.63824 25.4187)
(39.6369 15.9896 26.3332)
(46.9554 52.5786 24.9336)
(48.6776 103.215 23.7235)
(21.239 -14.6048 18.0281)
(25.2929 -4.74031 17.5572)
(29.807 19.3849 15.8827)
(35.4458 61.3205 12.1738)
(36.8369 117.777 12.9118)
(13.5562 -13.5241 12.8721)
(14.4882 -3.98434 10.2518)
(18.3641 20.2954 6.02678)
(21.822 64.6545 1.9048)
(23.8265 125.809 5.89305)
(5.77115 -11.1912 8.94274)
(4.223 -2.6178 5.28757)
(5.80074 18.146 -0.474723)
(6.21716 58.6848 -3.27553)
(9.38448 119.402 1.63301)
(-0.889136 -7.91483 6.85629)
(-4.49794 -0.347767 3.52698)
(-6.26787 15.8644 -1.26408)
(-8.09088 46.9631 -4.19667)
(-6.19236 98.6778 1.0973)
(-5.68761 -2.94633 6.99542)
(-10.9993 3.00405 4.37963)
(-15.4366 14.372 1.34481)
(-18.4235 35.4579 -0.868096)
(-17.3756 71.217 5.44625)
(-8.79898 2.70162 8.63619)
(-15.2103 7.71526 7.03274)
(-21.2836 15.2792 5.64902)
(-24.527 27.7539 4.96507)
(-25.6255 47.264 10.1542)
(-9.37226 9.12913 11.3973)
(-16.3473 13.5322 11.1884)
(-22.5193 18.4514 11.8777)
(-26.5183 24.7061 12.8964)
(-28.3478 33.0365 16.477)
(-8.44879 16.1625 14.5613)
(-15.9072 20.6887 15.941)
(-23.012 24.8755 18.2518)
(-30.1567 27.767 20.143)
(-36.4121 30.8468 22.0077)
(4.93246 5.6294 12.3181)
(5.88824 5.499 12.0559)
(6.55302 5.69817 11.7057)
(7.21394 5.35649 11.4692)
(7.56397 5.00002 10.9075)
(7.76128 4.43684 10.3747)
(7.67356 3.76046 9.83805)
(7.3521 2.95229 9.39972)
(6.87731 2.07523 9.04133)
(6.12073 1.28018 8.76368)
(5.21412 0.401175 8.67145)
(4.08311 -0.500681 8.77326)
(2.93328 -1.59572 8.97146)
(1.46253 -2.6066 9.16621)
(5.47269 3.61387 12.1543)
(6.09951 3.67828 11.6615)
(6.57691 3.91327 11.2842)
(7.04626 3.76433 10.907)
(7.21798 3.58171 10.3529)
(7.2686 3.21192 9.8251)
(7.06287 2.73578 9.33323)
(6.70166 2.11056 8.94442)
(6.15113 1.44594 8.66422)
(5.39431 0.787282 8.52576)
(4.52689 0.0441158 8.57489)
(3.48973 -0.737219 8.71556)
(2.33234 -1.61872 8.97231)
(0.88652 -2.15275 9.31194)
(5.95651 1.90105 11.4229)
(6.4231 2.19449 10.9491)
(6.71557 2.44254 10.5991)
(6.95195 2.42958 10.2017)
(6.95777 2.36705 9.73313)
(6.84684 2.14822 9.2669)
(6.54895 1.82585 8.84935)
(6.11325 1.36599 8.54447)
(5.51647 0.876961 8.34027)
(4.77829 0.361314 8.25295)
(3.90915 -0.168614 8.33456)
(2.90794 -0.712952 8.5455)
(1.76725 -1.32993 8.90238)
(0.364473 -1.73988 9.29462)
(6.51758 0.220566 11.0793)
(6.79046 0.700405 10.6467)
(6.93168 1.01479 10.2472)
(6.94835 1.13494 9.79975)
(6.83842 1.18116 9.34839)
(6.58324 1.09231 8.92315)
(6.22161 0.890818 8.52885)
(5.71864 0.58484 8.26956)
(5.08712 0.237051 8.08448)
(4.32733 -0.133262 8.04549)
(3.45746 -0.526072 8.18239)
(2.47825 -0.918544 8.42193)
(1.34704 -1.27764 8.74666)
(0.0700273 -1.43321 9.1738)
(7.29708 -1.12844 10.8726)
(7.33226 -0.571495 10.3965)
(7.28907 -0.209239 9.9296)
(7.09859 0.00228369 9.47767)
(6.84718 0.117838 9.01904)
(6.46413 0.132746 8.61911)
(6.01692 0.02484 8.24624)
(5.43685 -0.143346 8.03154)
(4.78006 -0.38406 7.8801)
(4.00824 -0.614988 7.8641)
(3.15642 -0.873414 8.00926)
(2.19534 -1.07517 8.25571)
(1.13443 -1.27176 8.64419)
(-0.0475125 -1.28599 9.07846)
(8.0344 -2.30881 10.8843)
(7.88316 -1.69541 10.342)
(7.65817 -1.29246 9.80323)
(7.31332 -1.00721 9.33037)
(6.91761 -0.848177 8.86244)
(6.43211 -0.765399 8.47406)
(5.90841 -0.800756 8.12365)
(5.27733 -0.870679 7.93468)
(4.60159 -1.0213 7.80307)
(3.83078 -1.1435 7.8042)
(2.9999 -1.29413 7.95064)
(2.08781 -1.37563 8.19319)
(1.11056 -1.41528 8.59276)
(0.00551765 -1.2578 8.99708)
(8.80182 -3.26033 11.0592)
(8.43982 -2.641 10.416)
(8.05719 -2.20331 9.80504)
(7.56868 -1.88307 9.29519)
(7.0564 -1.69572 8.8086)
(6.4723 -1.58161 8.43631)
(5.88425 -1.56719 8.09418)
(5.21088 -1.57137 7.93056)
(4.52101 -1.64853 7.81082)
(3.76194 -1.6857 7.81312)
(2.96171 -1.74382 7.9601)
(2.08975 -1.71819 8.17932)
(1.17199 -1.63624 8.58258)
(0.143103 -1.37904 8.95225)
(9.56702 -3.96255 11.3986)
(8.98731 -3.38995 10.6429)
(8.43831 -2.954 9.95649)
(7.8107 -2.63836 9.40158)
(7.1891 -2.44543 8.89915)
(6.52635 -2.32138 8.52186)
(5.8829 -2.28039 8.19244)
(5.18703 -2.24724 8.02755)
(4.49194 -2.27191 7.91984)
(3.75584 -2.24994 7.92447)
(2.99598 -2.23372 8.07027)
(2.18999 -2.11525 8.28815)
(1.35866 -1.92274 8.67016)
(0.405233 -1.60666 8.94672)
(10.258 -4.44637 11.8635)
(9.47299 -3.94517 11.0119)
(8.79708 -3.52876 10.246)
(8.04883 -3.25505 9.64988)
(7.34185 -3.08493 9.11951)
(6.61626 -2.97843 8.7241)
(5.92903 -2.93407 8.39825)
(5.21871 -2.89317 8.22299)
(4.52486 -2.88993 8.12021)
(3.81923 -2.82995 8.12521)
(3.11135 -2.76303 8.2718)
(2.38072 -2.5706 8.47709)
(1.65593 -2.28406 8.83671)
(0.781244 -1.94875 9.0189)
(10.8915 -4.63359 12.4176)
(9.88668 -4.29384 11.5001)
(9.07947 -3.9474 10.6531)
(8.20379 -3.74852 10.0209)
(7.41738 -3.63125 9.45105)
(6.63648 -3.56144 9.03696)
(5.9238 -3.53837 8.69856)
(5.21351 -3.50564 8.52402)
(4.54155 -3.50046 8.4232)
(3.88079 -3.43125 8.42185)
(3.24314 -3.33157 8.58793)
(2.59583 -3.09739 8.76949)
(2.00253 -2.74286 9.10054)
(1.22072 -2.41566 9.197)
(11.3589 -4.65856 13.019)
(10.119 -4.46153 12.1041)
(9.23005 -4.19855 11.1648)
(8.26825 -4.09077 10.4998)
(7.43471 -4.05399 9.90141)