/*--------------------------------*- C++ -*----------------------------------*\
| =========                 |                                                 |
| \\      /  F ield         | OpenFOAM: The Open Source CFD Toolbox           |
|  \\    /   O peration     | Version:  v2106                                 |
|   \\  /    A nd           | Website:  www.openfoam.com                      |
|    \\/     M anipulation  |                                                 |
\*---------------------------------------------------------------------------*/
FoamFile
{
    version     2.0;
    format      ascii;
    arch        "LSB;label=32;scalar=64";
    class       volScalarField;
    location    "0.000185";
    object      alphat;
}
// * * * * * * * * * * * * * * * * * * * * * * * * * * * * * * * * * * * * * //

dimensions      [1 -1 -1 0 0 0 0];

internalField   nonuniform List<scalar> 
144746
(
0.000181604
0.000148081
0.000110601
7.38252e-05
4.91865e-05
3.74426e-05
3.91568e-05
5.48508e-05
8.64967e-05
0.000131512
0.000173378
0.000190052
0.000179066
0.000159763
0.000180008
0.000135372
8.99593e-05
5.37617e-05
3.32089e-05
2.3407e-05
2.2557e-05
3.10734e-05
5.16545e-05
8.49076e-05
0.00012647
0.00015505
0.00015656
0.000141601
0.000149911
0.000100093
5.89871e-05
3.23434e-05
1.92626e-05
1.31561e-05
1.21793e-05
1.69099e-05
2.98745e-05
5.2501e-05
8.33046e-05
0.000114007
0.000126144
0.000121878
0.000101029
5.91543e-05
3.13121e-05
1.61078e-05
9.36228e-06
6.43988e-06
6.16278e-06
9.1152e-06
1.71993e-05
3.18724e-05
5.24875e-05
7.61803e-05
9.20858e-05
9.7223e-05
5.70478e-05
2.9202e-05
1.39034e-05
6.69525e-06
3.80075e-06
2.75305e-06
3.02663e-06
5.21279e-06
1.07408e-05
2.09377e-05
3.54782e-05
5.21057e-05
6.63135e-05
7.69306e-05
2.87814e-05
1.29403e-05
5.49714e-06
2.42856e-06
1.35642e-06
1.13223e-06
1.65279e-06
3.4673e-06
7.64663e-06
1.52105e-05
2.59372e-05
3.79361e-05
5.02149e-05
6.43148e-05
1.51198e-05
6.17495e-06
2.37779e-06
9.96205e-07
5.80098e-07
6.42445e-07
1.263e-06
2.91669e-06
6.40184e-06
1.2437e-05
2.08669e-05
3.05569e-05
4.38279e-05
6.43296e-05
1.08923e-05
4.41705e-06
1.80665e-06
8.75218e-07
5.96941e-07
7.48748e-07
1.45313e-06
3.0961e-06
6.25681e-06
1.14039e-05
1.84688e-05
2.81391e-05
4.63147e-05
7.75126e-05
1.20538e-05
5.20039e-06
2.54333e-06
1.52236e-06
1.1635e-06
1.3221e-06
2.10408e-06
3.79196e-06
6.79134e-06
1.146e-05
1.81561e-05
3.18686e-05
5.99488e-05
0.000104701
1.85555e-05
8.18612e-06
4.49667e-06
3.10332e-06
2.50774e-06
2.56188e-06
3.37224e-06
5.1362e-06
8.17898e-06
1.30796e-05
2.23652e-05
4.56708e-05
8.61213e-05
0.00013948
3.73891e-05
1.69171e-05
8.47031e-06
6.26794e-06
5.31481e-06
5.13365e-06
5.91452e-06
7.90983e-06
1.16562e-05
1.9131e-05
3.53012e-05
7.15541e-05
0.000119758
0.0001673
7.25307e-05
4.60428e-05
2.42187e-05
1.3809e-05
1.08937e-05
1.02883e-05
1.11568e-05
1.39077e-05
1.97038e-05
3.25358e-05
5.8823e-05
0.000102148
0.000145123
0.000174488
0.000110668
8.96281e-05
5.91695e-05
3.42992e-05
2.24858e-05
1.91887e-05
1.99695e-05
2.40602e-05
3.30041e-05
5.14982e-05
8.3321e-05
0.000121516
0.000149188
0.00016267
0.000140221
0.000132263
0.000107708
7.45571e-05
4.903e-05
3.58787e-05
3.28814e-05
3.69749e-05
4.77536e-05
6.83626e-05
9.62901e-05
0.000122391
0.000137394
0.000146816
0.000157863
0.000121919
8.67601e-05
5.6716e-05
3.81235e-05
2.90968e-05
2.97399e-05
4.1336e-05
6.59398e-05
0.000101595
0.000140548
0.000165638
0.000168141
0.000155438
0.000145341
0.000104175
6.74446e-05
4.08576e-05
2.61589e-05
1.8817e-05
1.77411e-05
2.40087e-05
4.02777e-05
6.62378e-05
9.78473e-05
0.000126338
0.00013742
0.000132556
0.000112783
7.36873e-05
4.36252e-05
2.49776e-05
1.55459e-05
1.08924e-05
9.90925e-06
1.34618e-05
2.39823e-05
4.21578e-05
6.56151e-05
8.99466e-05
0.000105135
0.000108608
7.22002e-05
4.23923e-05
2.31771e-05
1.27036e-05
7.75697e-06
5.45989e-06
5.12324e-06
7.44639e-06
1.42546e-05
2.65944e-05
4.30461e-05
6.03171e-05
7.46949e-05
8.27479e-05
3.88999e-05
2.01155e-05
1.01473e-05
5.31932e-06
3.21225e-06
2.36881e-06
2.5387e-06
4.32746e-06
9.04082e-06
1.77204e-05
2.96848e-05
4.25329e-05
5.40697e-05
6.36453e-05
1.84687e-05
8.33403e-06
3.8097e-06
1.87491e-06
1.13174e-06
9.56674e-07
1.3681e-06
2.88099e-06
6.44056e-06
1.28683e-05
2.18561e-05
3.17237e-05
4.1169e-05
5.16245e-05
9.22429e-06
3.68354e-06
1.47361e-06
6.63484e-07
4.15466e-07
4.83212e-07
9.87293e-07
2.35872e-06
5.28729e-06
1.03543e-05
1.74197e-05
2.54783e-05
3.46532e-05
4.86999e-05
6.73303e-06
2.60819e-06
1.00698e-06
4.59522e-07
3.24706e-07
4.71991e-07
1.03344e-06
2.36179e-06
4.96107e-06
9.22866e-06
1.51386e-05
2.24624e-05
3.41305e-05
5.48055e-05
7.82534e-06
3.18357e-06
1.41024e-06
7.81524e-07
6.07875e-07
7.77187e-07
1.39503e-06
2.73523e-06
5.17745e-06
9.04805e-06
1.46325e-05
2.3382e-05
4.11623e-05
7.16492e-05
1.22154e-05
5.1387e-06
2.59333e-06
1.69772e-06
1.38884e-06
1.53137e-06
2.20778e-06
3.62804e-06
6.13535e-06
1.02312e-05
1.70837e-05
3.11887e-05
5.79471e-05
9.61822e-05
2.42364e-05
1.03174e-05
5.1011e-06
3.68437e-06
3.13453e-06
3.19239e-06
3.96386e-06
5.67165e-06
8.81337e-06
1.44443e-05
2.5098e-05
4.80627e-05
8.18214e-05
0.000122684
5.08328e-05
2.93409e-05
1.45219e-05
8.21625e-06
6.71978e-06
6.59169e-06
7.59033e-06
1.00025e-05
1.45685e-05
2.33527e-05
4.0503e-05
7.00252e-05
0.00010613
0.000142377
8.5463e-05
6.1886e-05
3.74964e-05
2.04995e-05
1.38667e-05
1.26597e-05
1.38443e-05
1.73246e-05
2.40316e-05
3.66291e-05
5.83826e-05
9.03095e-05
0.000122542
0.000147871
0.000118761
9.95115e-05
7.27886e-05
4.65349e-05
2.98891e-05
2.32875e-05
2.30881e-05
2.71829e-05
3.55669e-05
5.06674e-05
7.43436e-05
0.000103342
0.000127093
0.000143744
0.000108872
8.03562e-05
5.63411e-05
3.81178e-05
2.71916e-05
2.13535e-05
2.0651e-05
2.61952e-05
4.0011e-05
6.14106e-05
8.78779e-05
0.000114996
0.000135902
0.000143754
8.8995e-05
6.28665e-05
4.1221e-05
2.64216e-05
1.81996e-05
1.37242e-05
1.26824e-05
1.60205e-05
2.60604e-05
4.28928e-05
6.4097e-05
8.57065e-05
0.000103013
0.000113323
6.30293e-05
4.175e-05
2.60144e-05
1.60359e-05
1.06648e-05
7.86889e-06
7.15361e-06
9.25163e-06
1.61755e-05
2.8663e-05
4.50159e-05
6.235e-05
7.7312e-05
8.89553e-05
3.8252e-05
2.36064e-05
1.37729e-05
8.16242e-06
5.30274e-06
3.92413e-06
3.69487e-06
5.20657e-06
9.9343e-06
1.88223e-05
3.10253e-05
4.43712e-05
5.64601e-05
6.67648e-05
2.02271e-05
1.1106e-05
5.997e-06
3.41391e-06
2.20414e-06
1.69658e-06
1.81345e-06
3.03939e-06
6.38401e-06
1.27124e-05
2.18201e-05
3.22701e-05
4.23191e-05
5.18683e-05
9.6254e-06
4.50514e-06
2.1804e-06
1.18301e-06
7.74535e-07
6.73901e-07
9.56863e-07
2.01652e-06
4.55405e-06
9.25117e-06
1.61952e-05
2.4541e-05
3.3095e-05
4.17975e-05
4.98726e-06
1.94565e-06
7.84558e-07
3.80931e-07
2.59527e-07
3.13265e-07
6.59573e-07
1.62429e-06
3.72108e-06
7.46057e-06
1.2998e-05
1.99253e-05
2.76073e-05
3.66265e-05
3.89507e-06
1.38608e-06
4.84692e-07
2.05212e-07
1.52524e-07
2.58991e-07
6.39414e-07
1.56905e-06
3.44257e-06
6.64259e-06
1.13402e-05
1.74303e-05
2.49018e-05
3.57184e-05
4.64543e-06
1.70812e-06
6.61947e-07
3.29607e-07
2.61242e-07
3.87619e-07
8.06169e-07
1.75066e-06
3.54466e-06
6.50908e-06
1.08946e-05
1.70107e-05
2.59291e-05
4.10658e-05
7.14607e-06
2.76614e-06
1.27438e-06
7.85303e-07
6.48723e-07
7.78206e-07
1.25175e-06
2.27268e-06
4.14895e-06
7.27346e-06
1.22079e-05
1.99996e-05
3.27917e-05
5.25743e-05
1.38878e-05
5.49504e-06
2.70859e-06
1.89848e-06
1.61762e-06
1.72919e-06
2.30926e-06
3.57318e-06
5.92832e-06
1.00334e-05
1.69563e-05
2.82843e-05
4.59374e-05
6.9489e-05
2.91623e-05
1.5326e-05
7.37794e-06
4.3815e-06
3.75105e-06
3.84418e-06
4.66584e-06
6.50412e-06
9.92842e-06
1.58999e-05
2.58287e-05
4.16593e-05
6.33674e-05
9.05856e-05
5.16569e-05
3.29524e-05
1.85144e-05
1.02312e-05
7.83536e-06
7.86182e-06
9.07121e-06
1.177e-05
1.66253e-05
2.4774e-05
3.77947e-05
5.75263e-05
8.28139e-05
0.000110522
7.55345e-05
5.50774e-05
3.65687e-05
2.25347e-05
1.59138e-05
1.45836e-05
1.59886e-05
1.95299e-05
2.56885e-05
3.57088e-05
5.16164e-05
7.53314e-05
0.000102006
0.000127954
0.000147175
0.000153572
0.000164828
0.000184601
0.000206791
0.000225955
0.000128122
0.000133776
0.000146545
0.000172755
0.000212956
0.000255767
0.000112925
0.000116976
0.000130716
0.00016032
0.000214229
0.000281229
9.67129e-05
0.000104735
0.0001217
0.000152572
0.000213568
0.000301296
8.57626e-05
0.000100104
0.000121852
0.000153295
0.000214952
0.000315332
8.29879e-05
0.000105524
0.000131783
0.000162324
0.00021853
0.000322788
9.32366e-05
0.000123314
0.000151269
0.000177873
0.000223782
0.000324804
0.000116483
0.000151056
0.000174799
0.000193212
0.000227065
0.000322931
0.000147719
0.000177657
0.000190246
0.00019953
0.000223716
0.000317218
0.000173178
0.000188864
0.00019048
0.000195079
0.000213513
0.000307195
0.000180666
0.000182979
0.000180604
0.000185341
0.000201326
0.000293586
0.000172259
0.000169664
0.000168781
0.00017571
0.000190451
0.000276896
0.000158166
0.000156898
0.000159104
0.00016763
0.000182801
0.000256227
0.000145085
0.000146243
0.000150369
0.000161487
0.000179359
0.000230762
0.000141252
0.000146123
0.00015287
0.000166739
0.000187394
0.000218351
0.000121024
0.000125718
0.000135414
0.00015547
0.000191033
0.000243041
0.000103413
0.000108744
0.00012073
0.000144542
0.000192206
0.000264214
8.51549e-05
9.47341e-05
0.000111416
0.000138369
0.000193528
0.000281163
7.19722e-05
8.64206e-05
0.00010899
0.000140086
0.000198874
0.000293678
6.57227e-05
8.60932e-05
0.000114477
0.00014837
0.000207281
0.000301803
6.92651e-05
9.59668e-05
0.000129438
0.000163465
0.000215008
0.000305773
8.31151e-05
0.000116128
0.000152404
0.000181596
0.000218097
0.000306368
0.000105499
0.000141842
0.000174747
0.00019317
0.000213533
0.000304104
0.000130027
0.000162702
0.000185042
0.000191837
0.00020166
0.000296382
0.000148541
0.000170871
0.000181504
0.000182204
0.000188284
0.000283044
0.000155735
0.000167184
0.00017127
0.000171668
0.000178238
0.000265376
0.000152977
0.000157996
0.000160592
0.000163623
0.000172426
0.000243421
0.00014459
0.000148245
0.000150946
0.000157759
0.000170697
0.000217013
0.000143101
0.000153036
0.000157949
0.000162721
0.000172556
0.000200055
0.000114596
0.000125939
0.000137486
0.000151103
0.000173681
0.000219831
9.47022e-05
0.000106805
0.000121677
0.000140562
0.000173474
0.000237754
7.57174e-05
9.00048e-05
0.000109054
0.000133999
0.000176107
0.000253191
6.20476e-05
7.8218e-05
0.000101592
0.00013225
0.000183698
0.000266632
5.28148e-05
7.11946e-05
9.8989e-05
0.000135087
0.00019487
0.000276815
4.97035e-05
7.15159e-05
0.000104232
0.00014398
0.000204382
0.000283103
5.25765e-05
7.89401e-05
0.000117188
0.000159428
0.00020882
0.000284652
6.15005e-05
9.2713e-05
0.000135796
0.000175728
0.000207534
0.000282611
7.52877e-05
0.000109799
0.000153666
0.000184492
0.000200599
0.00027704
9.13399e-05
0.000126274
0.000165187
0.000185767
0.000191391
0.000266859
0.000107457
0.000139068
0.000170659
0.00018371
0.000184662
0.000250899
0.000122908
0.000149023
0.000173039
0.000181569
0.000182632
0.000229234
0.000134999
0.000156784
0.00017304
0.000177974
0.000182584
0.000202329
0.000135273
0.000138742
0.000144484
0.000159027
0.000181383
0.0002371
0.000123019
0.000125066
0.000132524
0.000152343
0.000187022
0.000266949
0.000112096
0.000112446
0.000121157
0.00014467
0.000190101
0.000292035
9.5325e-05
9.94042e-05
0.000112894
0.000139548
0.000191961
0.000311276
7.71832e-05
8.77028e-05
0.00010852
0.000140223
0.000195784
0.000325261
6.19454e-05
8.01534e-05
0.000109157
0.000146743
0.000202285
0.000332827
5.47223e-05
8.06316e-05
0.000117519
0.000159356
0.00021177
0.000334445
5.66489e-05
9.19121e-05
0.000135799
0.000177198
0.000220159
0.000330097
6.97187e-05
0.000114642
0.000161317
0.000194512
0.000222281
0.000320979
9.33321e-05
0.000142336
0.000182664
0.000202129
0.000215507
0.000307962
0.000121037
0.00016342
0.000189823
0.000197081
0.000202502
0.000291637
0.000142895
0.000170671
0.000183901
0.000185649
0.000188738
0.000272223
0.00015108
0.000165464
0.000171272
0.000172816
0.000177013
0.000249923
0.000146252
0.000153037
0.000155371
0.000159163
0.000168087
0.000223827
0.00013487
0.000140404
0.000144919
0.000155743
0.00017321
0.000221632
0.000119705
0.000125413
0.000133709
0.000149135
0.000177959
0.000247569
0.000103769
0.000111146
0.000122748
0.000141957
0.000179531
0.00026966
8.32214e-05
9.46513e-05
0.000111958
0.00013653
0.000180152
0.000286658
6.35605e-05
7.86937e-05
0.000102231
0.000134258
0.000183665
0.000299186
4.89289e-05
6.66997e-05
9.54965e-05
0.00013504
0.000190951
0.00030762
4.08675e-05
6.15125e-05
9.52904e-05
0.000141145
0.000201625
0.000311892
3.89063e-05
6.46474e-05
0.000105008
0.000155066
0.00021167
0.000309983
4.49161e-05
7.82813e-05
0.000125995
0.000174738
0.000215536
0.000303354
5.98799e-05
0.000100159
0.000150784
0.000189596
0.000210306
0.00029278
8.16133e-05
0.000123151
0.000167437
0.000191454
0.000197851
0.000277886
0.000104822
0.000139942
0.000171209
0.000183539
0.000185192
0.000258623
0.000122612
0.000147103
0.000165314
0.000171444
0.000174648
0.000236376
0.000129138
0.000144236
0.000152412
0.000156793
0.000165414
0.000209488
0.000142308
0.000158874
0.000168865
0.000174884
0.000182563
0.000203894
0.000113165
0.000131644
0.000150103
0.000166947
0.000186053
0.000227825
8.98256e-05
0.000110093
0.000133438
0.000157258
0.00018485
0.000248873
6.77747e-05
8.85712e-05
0.00011604
0.000147314
0.000183001
0.000265255
4.99742e-05
6.98629e-05
9.99549e-05
0.000137718
0.000182937
0.000278065
3.81243e-05
5.63762e-05
8.6291e-05
0.00012879
0.000184518
0.000286723
3.07537e-05
4.81154e-05
7.76529e-05
0.000123682
0.000189705
0.000291764
2.68025e-05
4.42296e-05
7.51847e-05
0.000125668
0.000195879
0.000290618
2.64468e-05
4.61903e-05
8.16071e-05
0.000136305
0.000199647
0.000284325
3.09608e-05
5.4275e-05
9.56005e-05
0.000150904
0.000198395
0.000273254
4.08001e-05
6.70682e-05
0.000111624
0.000160832
0.000191682
0.000258863
5.50605e-05
8.18755e-05
0.000124406
0.000164365
0.000184194
0.000241422
7.13402e-05
9.67388e-05
0.000132686
0.000162409
0.000177911
0.000221211
8.54788e-05
0.000108448
0.000135571
0.000155364
0.000172
0.00019552
0.000223072
0.000203807
0.00019743
0.000194434
0.000191634
0.00018605
0.000252602
0.000224165
0.000220857
0.000217957
0.000209636
0.000196336
0.0002806
0.000249151
0.000240887
0.000229837
0.000207978
0.000180737
0.000305846
0.000272098
0.000247705
0.000218281
0.000178772
0.000140244
0.000325108
0.000280128
0.000227938
0.000179242
0.000131269
9.27049e-05
0.000336836
0.0002636
0.000186274
0.000130305
8.6553e-05
5.52765e-05
0.000340634
0.000229236
0.000143933
9.23084e-05
5.72476e-05
3.33956e-05
0.000336984
0.000193804
0.00011519
7.22523e-05
4.45154e-05
2.5149e-05
0.000327845
0.000168243
0.000101348
6.69982e-05
4.44066e-05
2.64554e-05
0.000316115
0.00015631
9.95918e-05
7.31803e-05
5.5205e-05
3.66505e-05
0.000300248
0.000154517
0.000106863
8.72648e-05
7.48961e-05
5.83104e-05
0.000281125
0.000158308
0.000119687
0.000105063
9.79849e-05
8.69013e-05
0.000257643
0.000162952
0.000134859
0.000123779
0.000119362
0.000112228
0.000229712
0.000163869
0.000147283
0.000140354
0.000138957
0.000134041
0.000215487
0.00019085
0.000183045
0.000180436
0.000175004
0.00016465
0.000246363
0.000212687
0.000208195
0.000200791
0.000183451
0.000163322
0.000274373
0.000238981
0.000227346
0.000204818
0.000170025
0.000138784
0.00029703
0.000263806
0.000229241
0.000185042
0.000136409
0.00010086
0.000312789
0.000272823
0.000203867
0.000144563
9.50431e-05
6.35067e-05
0.000320065
0.000254766
0.000161249
0.000101352
6.08289e-05
3.62828e-05
0.000319587
0.000219674
0.000122437
7.04934e-05
3.98609e-05
2.13841e-05
0.000313265
0.000184562
9.87056e-05
5.61483e-05
3.16647e-05
1.64491e-05
0.000302514
0.000158808
8.94685e-05
5.44958e-05
3.29934e-05
1.80926e-05
0.000289635
0.0001456
9.11072e-05
6.25447e-05
4.25548e-05
2.55634e-05
0.000275303
0.000143242
0.000100023
7.79614e-05
6.10177e-05
4.24862e-05
0.000258644
0.000147904
0.000113391
9.74934e-05
8.50806e-05
6.85645e-05
0.00023812
0.000154805
0.000129185
0.000117936
0.000109487
9.62729e-05
0.000213806
0.000158545
0.00014379
0.000138118
0.000134818
0.000124628
0.000201273
0.000182804
0.000169752
0.000157059
0.000135752
0.000115229
0.000232784
0.000202435
0.000184591
0.000158827
0.000124758
9.98423e-05
0.000258424
0.000221903
0.000189303
0.000146398
0.000102188
7.56646e-05
0.000278677
0.000239946
0.000180032
0.000122052
7.55048e-05
5.11948e-05
0.000292149
0.000241458
0.000154743
9.16157e-05
5.11261e-05
3.15563e-05
0.000297909
0.0002233
0.000122539
6.47246e-05
3.37909e-05
1.85129e-05
0.000296139
0.000194552
9.6431e-05
4.79839e-05
2.4396e-05
1.19221e-05
0.000289399
0.000168478
8.27613e-05
4.20911e-05
2.17237e-05
1.0244e-05
0.0002797
0.000150488
7.98162e-05
4.36119e-05
2.37815e-05
1.16888e-05
0.000267397
0.00014267
8.51379e-05
5.14469e-05
3.06934e-05
1.62973e-05
0.000253675
0.000142384
9.53812e-05
6.49255e-05
4.40451e-05
2.73624e-05
0.000238147
0.000147693
0.000110293
8.41848e-05
6.35738e-05
4.52978e-05
0.000219505
0.000156799
0.000128205
0.000106611
8.67443e-05
6.78126e-05
0.000197147
0.000163849
0.000146946
0.000132498
0.000114846
9.46954e-05
0.0002205
0.000210249
0.000191475
0.000174566
0.000164933
0.000160275
0.000246764
0.000221008
0.000203778
0.000190088
0.000182499
0.00017922
0.000271253
0.000237419
0.000219977
0.000208415
0.000201219
0.000195715
0.000293908
0.000257658
0.000236316
0.000222844
0.000209933
0.000195007
0.000312279
0.000272925
0.000240271
0.000217677
0.00019261
0.000166188
0.000324601
0.000272269
0.000219723
0.000185401
0.000151704
0.000122015
0.000329122
0.000254727
0.00018246
0.000141552
0.000108257
8.29356e-05
0.00032861
0.00022798
0.000148144
0.000107955
7.99483e-05
5.99006e-05
0.000322223
0.000203348
0.00012736
9.18064e-05
6.9718e-05
5.36539e-05
0.000312463
0.000187624
0.000120125
9.10892e-05
7.52724e-05
6.28308e-05
0.000297521
0.000184677
0.000125985
0.000102788
9.27429e-05
8.39628e-05
0.000278365
0.000188469
0.000141712
0.000123243
0.0001173
0.000112473
0.000254621
0.000192699
0.000161692
0.000147949
0.000143185
0.000138944
0.000226475
0.000191931
0.000177644
0.000170791
0.000169594
0.000166763
0.000216218
0.000192161
0.000177345
0.000166686
0.000160683
0.000156553
0.000245371
0.000204998
0.000194324
0.000186236
0.000179426
0.000173492
0.000271002
0.000224489
0.000214671
0.000205161
0.000192695
0.00017919
0.000292544
0.000249064
0.000232945
0.000214581
0.000189409
0.000164905
0.000306901
0.000269299
0.000234112
0.000200445
0.000162009
0.000131475
0.00031375
0.000272156
0.00020849
0.000163118
0.000121534
9.27001e-05
0.000313097
0.000252869
0.000168694
0.000120731
8.49963e-05
6.18859e-05
0.000308404
0.000224346
0.000134687
9.0806e-05
6.26942e-05
4.48577e-05
0.000299915
0.00019622
0.000114885
7.75414e-05
5.56281e-05
4.10663e-05
0.000288981
0.000175336
0.000108068
7.82661e-05
6.16581e-05
4.91924e-05
0.000275786
0.000165898
0.000112204
8.98057e-05
7.80305e-05
6.73658e-05
0.000258781
0.000167559
0.000125392
0.000108984
0.000101555
9.37063e-05
0.000238943
0.000172863
0.000143857
0.000132325
0.000127306
0.000121044
0.000215707
0.000175568
0.000161189
0.000156788
0.000156614
0.000152141
0.000203184
0.000181667
0.000175645
0.000171031
0.000160345
0.00014679
0.000235156
0.000197421
0.000193175
0.000183097
0.000162955
0.000143649
0.000261203
0.000218634
0.00020894
0.000187662
0.000155065
0.000128184
0.000279895
0.000241257
0.000217338
0.000180253
0.000135184
0.00010462
0.000290656
0.000255979
0.000207354
0.000155334
0.000107122
7.81734e-05
0.000294893
0.000251903
0.000177386
0.000121464
7.91817e-05
5.47703e-05
0.000292972
0.000230676
0.000142008
9.05669e-05
5.75156e-05
3.83976e-05
0.000286508
0.000204618
0.000115399
7.11393e-05
4.57403e-05
3.0684e-05
0.000276627
0.000179941
0.000102404
6.40627e-05
4.3353e-05
3.03706e-05
0.000264171
0.000160584
9.97091e-05
6.74291e-05
4.92907e-05
3.6756e-05
0.000249265
0.000151145
0.000104684
7.83475e-05
6.17692e-05
4.8948e-05
0.000233506
0.000151702
0.000116715
9.62767e-05
8.10785e-05
6.77761e-05
0.000216486
0.000158731
0.000134033
0.000118335
0.000104541
9.07302e-05
0.00019701
0.000165306
0.000153597
0.000145947
0.000135651
0.000120746
4.25405e-05
3.14417e-05
2.31658e-05
1.73228e-05
1.43043e-05
1.25153e-05
1.18938e-05
1.25272e-05
1.57069e-05
2.2326e-05
3.27202e-05
4.73119e-05
6.70174e-05
9.14502e-05
2.72156e-05
1.98754e-05
1.42118e-05
1.03303e-05
8.34848e-06
7.18328e-06
6.76295e-06
7.26412e-06
9.79543e-06
1.53571e-05
2.43797e-05
3.69347e-05
5.2972e-05
7.13594e-05
1.60835e-05
1.11439e-05
7.62871e-06
5.39939e-06
4.29307e-06
3.65118e-06
3.46409e-06
3.95513e-06
5.97635e-06
1.04456e-05
1.78221e-05
2.804e-05
4.08951e-05
5.57335e-05
8.74481e-06
5.39184e-06
3.44882e-06
2.39543e-06
1.8935e-06
1.61295e-06
1.603e-06
2.08744e-06
3.68398e-06
7.14514e-06
1.29564e-05
2.1158e-05
3.15309e-05
4.37167e-05
4.45527e-06
2.2638e-06
1.30374e-06
8.92529e-07
7.05311e-07
6.22623e-07
7.09907e-07
1.1658e-06
2.43649e-06
5.11376e-06
9.69433e-06
1.63536e-05
2.50487e-05
3.56927e-05
2.35896e-06
9.17231e-07
4.3931e-07
2.8232e-07
2.24987e-07
2.27755e-07
3.54485e-07
7.76037e-07
1.83228e-06
3.99393e-06
7.72153e-06
1.32972e-05
2.07928e-05
3.02881e-05
1.57778e-06
4.84457e-07
1.69029e-07
8.5795e-08
7.05599e-08
1.03804e-07
2.45569e-07
6.48918e-07
1.59519e-06
3.47642e-06
6.70099e-06
1.15947e-05
1.83329e-05
2.71506e-05
1.48323e-06
4.28937e-07
1.22353e-07
4.53384e-08
3.96211e-08
8.4942e-08
2.39017e-07
6.46485e-07
1.55798e-06
3.31363e-06
6.26984e-06
1.07436e-05
1.69647e-05
2.53116e-05
1.77086e-06
5.41651e-07
1.74463e-07
7.78107e-08
6.898e-08
1.23322e-07
2.97165e-07
7.32999e-07
1.66589e-06
3.40142e-06
6.25456e-06
1.05317e-05
1.65303e-05
2.484e-05
2.48912e-06
8.45671e-07
3.62753e-07
2.19086e-07
1.95417e-07
2.60158e-07
4.66451e-07
9.55133e-07
1.95001e-06
3.73253e-06
6.59724e-06
1.08573e-05
1.69361e-05
2.56822e-05
4.15226e-06
1.60778e-06
8.76092e-07
6.32568e-07
5.6748e-07
6.43403e-07
9.0829e-07
1.50012e-06
2.63979e-06
4.61463e-06
7.75295e-06
1.24189e-05
1.91819e-05
2.89965e-05
8.08623e-06
3.59929e-06
2.08497e-06
1.66457e-06
1.51966e-06
1.60884e-06
1.98362e-06
2.7893e-06
4.26779e-06
6.75803e-06
1.06542e-05
1.63743e-05
2.45309e-05
3.55321e-05
1.53036e-05
7.69694e-06
4.67625e-06
3.86682e-06
3.63629e-06
3.76613e-06
4.34257e-06
5.5443e-06
7.66541e-06
1.11238e-05
1.64172e-05
2.40476e-05
3.48892e-05
4.76372e-05
2.43385e-05
1.44411e-05
9.74259e-06
8.0609e-06
7.70461e-06
7.96136e-06
8.86612e-06
1.067e-05
1.37378e-05
1.86075e-05
2.59772e-05
3.69645e-05
5.22064e-05
6.92413e-05
1.9299e-05
1.51714e-05
1.21456e-05
9.82449e-06
8.82478e-06
8.27592e-06
8.13843e-06
8.34876e-06
9.4782e-06
1.22832e-05
1.74344e-05
2.51457e-05
3.64125e-05
5.34512e-05
1.13041e-05
8.56744e-06
6.63534e-06
5.29022e-06
4.72513e-06
4.40506e-06
4.32286e-06
4.51241e-06
5.4432e-06
7.82264e-06
1.23903e-05
1.95984e-05
3.00517e-05
4.47254e-05
6.26983e-06
4.28439e-06
3.14031e-06
2.48844e-06
2.21936e-06
2.06447e-06
2.05104e-06
2.2681e-06
3.08537e-06
5.09889e-06
9.00028e-06
1.52995e-05
2.43901e-05
3.67008e-05
3.32701e-06
1.88288e-06
1.27748e-06
1.00057e-06
8.93437e-07
8.38848e-07
8.75592e-07
1.10324e-06
1.80642e-06
3.45847e-06
6.66155e-06
1.19441e-05
1.96501e-05
3.00535e-05
1.7775e-06
7.74272e-07
4.55592e-07
3.43248e-07
3.06003e-07
3.00097e-07
3.61365e-07
5.82173e-07
1.18435e-06
2.54475e-06
5.17611e-06
9.60079e-06
1.62121e-05
2.53393e-05
1.08215e-06
3.5545e-07
1.57411e-07
1.0386e-07
9.20334e-08
1.05007e-07
1.74536e-07
3.85298e-07
9.22459e-07
2.10071e-06
4.35792e-06
8.17757e-06
1.39829e-05
2.21416e-05
8.34638e-07
2.33142e-07
7.14412e-08
3.30358e-08
2.92935e-08
4.92688e-08
1.235e-07
3.34387e-07
8.50777e-07
1.95262e-06
4.02347e-06
7.49773e-06
1.27954e-05
2.03171e-05
8.25438e-07
2.27839e-07
6.03018e-08
2.06555e-08
1.88933e-08
4.33709e-08
1.25661e-07
3.504e-07
8.81737e-07
1.97967e-06
3.98575e-06
7.28257e-06
1.22532e-05
1.93014e-05
9.67627e-07
2.83815e-07
8.69702e-08
3.85741e-08
3.59824e-08
6.59384e-08
1.6243e-07
4.1518e-07
9.89585e-07
2.13364e-06
4.15641e-06
7.39801e-06
1.22094e-05
1.90177e-05
1.27408e-06
4.29842e-07
1.84413e-07
1.14121e-07
1.06026e-07
1.43528e-07
2.62286e-07
5.56883e-07
1.19366e-06
2.40985e-06
4.48474e-06
7.7204e-06
1.24528e-05
1.91877e-05
1.90409e-06
8.07468e-07
4.70901e-07
3.4907e-07
3.20676e-07
3.6676e-07
5.22211e-07
8.81797e-07
1.60877e-06
2.93051e-06
5.10601e-06
8.42396e-06
1.32667e-05
2.02613e-05
3.35886e-06
1.70467e-06
1.19403e-06
9.77318e-07
8.99316e-07
9.50249e-07
1.16557e-06
1.63556e-06
2.51584e-06
4.03346e-06
6.45293e-06
1.00615e-05
1.52682e-05
2.27483e-05
6.36644e-06
3.56893e-06
2.74832e-06
2.41511e-06
2.2668e-06
2.32662e-06
2.64691e-06
3.32429e-06
4.5153e-06
6.46974e-06
9.48399e-06
1.38444e-05
1.98834e-05
2.79383e-05
1.08719e-05
7.02882e-06
5.65625e-06
5.21317e-06
5.05281e-06
5.18868e-06
5.71138e-06
6.76992e-06
8.56124e-06
1.14179e-05
1.56732e-05
2.16245e-05
2.96622e-05
3.90454e-05
8.14187e-06
6.46117e-06
5.50582e-06
4.86093e-06
4.71823e-06
4.71523e-06
4.83642e-06
5.02929e-06
5.5089e-06
6.64731e-06
9.03738e-06
1.31185e-05
1.95493e-05
2.99343e-05
4.3976e-06
3.22473e-06
2.66605e-06
2.34108e-06
2.28842e-06
2.2966e-06
2.36433e-06
2.50019e-06
2.88844e-06
3.86695e-06
5.97846e-06
9.77397e-06
1.59344e-05
2.55096e-05
2.29118e-06
1.44754e-06
1.13013e-06
9.8421e-07
9.68246e-07
9.77692e-07
1.02403e-06
1.14326e-06
1.48874e-06
2.34775e-06
4.18765e-06
7.5744e-06
1.31552e-05
2.17255e-05
1.21168e-06
6.0373e-07
4.19511e-07
3.56279e-07
3.50901e-07
3.60001e-07
3.98509e-07
5.07297e-07
8.07783e-07
1.53637e-06
3.09122e-06
6.01253e-06
1.0916e-05
1.84668e-05
7.11942e-07
2.61118e-07
1.42504e-07
1.11682e-07
1.08904e-07
1.17541e-07
1.5206e-07
2.5194e-07
5.17258e-07
1.14734e-06
2.48463e-06
5.02213e-06
9.34249e-06
1.6077e-05
5.00747e-07
1.43036e-07
5.25713e-08
3.22763e-08
3.05496e-08
3.92152e-08
7.1705e-08
1.66519e-07
4.14458e-07
9.95364e-07
2.21347e-06
4.50755e-06
8.40308e-06
1.44886e-05
4.27766e-07
1.12164e-07
2.9628e-08
1.12228e-08
1.0095e-08
1.9542e-08
5.3252e-08
1.51459e-07
4.04832e-07
9.86769e-07
2.17655e-06
4.36408e-06
8.01469e-06
1.36628e-05
4.39767e-07
1.16301e-07
2.84605e-08
8.77738e-09
7.98384e-09
1.93146e-08
5.80993e-08
1.6873e-07
4.46668e-07
1.0644e-06
2.28264e-06
4.44823e-06
7.96905e-06
1.33006e-05
5.15227e-07
1.43308e-07
4.13585e-08
1.8095e-08
1.73399e-08
3.19952e-08
8.02348e-08
2.12432e-07
5.31276e-07
1.2106e-06
2.49751e-06
4.7028e-06
8.18782e-06
1.33493e-05
6.59242e-07
2.14196e-07
8.99843e-08
5.66284e-08
5.40854e-08
7.38027e-08
1.36605e-07
2.9892e-07
6.70041e-07
1.42481e-06
2.79854e-06
5.06947e-06
8.55509e-06
1.36241e-05
9.51777e-07
4.14042e-07
2.44939e-07
1.84007e-07
1.71643e-07
1.97612e-07
2.83644e-07
4.88769e-07
9.25497e-07
1.76787e-06
3.23847e-06
5.58784e-06
9.1099e-06
1.42037e-05
1.62338e-06
9.27391e-07
6.68101e-07
5.47682e-07
5.05159e-07
5.3408e-07
6.57017e-07
9.28991e-07
1.45697e-06
2.41146e-06
4.00693e-06
6.48128e-06
1.01282e-05
1.5398e-05
2.99004e-06
2.04421e-06
1.6447e-06
1.43472e-06
1.33622e-06
1.36398e-06
1.54686e-06
1.93536e-06
2.62446e-06
3.78172e-06
5.6223e-06
8.38373e-06
1.2352e-05
1.80036e-05
5.3922e-06
4.11647e-06
3.52992e-06
3.25433e-06
3.12355e-06
3.18164e-06
3.4811e-06
4.0887e-06
5.10202e-06
6.69937e-06
9.07941e-06
1.24449e-05
1.69872e-05
2.30184e-05
3.46894e-06
2.6769e-06
2.28944e-06
2.12786e-06
2.19496e-06
2.32927e-06
2.5111e-06
2.71658e-06
3.04081e-06
3.6639e-06
4.92726e-06
7.1855e-06
1.09235e-05
1.71512e-05
1.75678e-06
1.21058e-06
9.96082e-07
9.26133e-07
9.6638e-07
1.03534e-06
1.12576e-06
1.23917e-06
1.45661e-06
1.94564e-06
3.01207e-06
5.041e-06
8.5613e-06
1.44195e-05
8.92277e-07
5.01696e-07
3.81912e-07
3.51863e-07
3.69914e-07
4.00731e-07
4.45594e-07
5.18463e-07
6.86794e-07
1.0938e-06
2.00142e-06
3.78408e-06
6.96425e-06
1.23072e-05
4.90419e-07
2.03941e-07
1.30696e-07
1.15685e-07
1.2152e-07
1.34363e-07
1.58984e-07
2.12515e-07
3.48813e-07
6.85231e-07
1.44378e-06
2.97629e-06
5.79634e-06
1.06291e-05
3.1489e-07
9.53576e-08
4.34138e-08
3.35021e-08
3.45636e-08
4.05894e-08
5.69817e-08
1.00828e-07
2.17773e-07
5.08495e-07
1.16814e-06
2.52391e-06
5.06448e-06
9.47049e-06
2.40754e-07
6.12621e-08
1.81705e-08
9.52233e-09
9.22742e-09
1.32647e-08
2.69506e-08
6.73476e-08
1.7769e-07
4.52742e-07
1.07479e-06
2.34835e-06
4.71786e-06
8.78864e-06
2.17874e-07
5.39118e-08
1.26034e-08
3.82313e-09
3.30143e-09
7.24757e-09
2.14264e-08
6.44713e-08
1.82029e-07
4.70926e-07
1.10861e-06
2.37929e-06
4.68121e-06
8.54335e-06
2.31563e-07
5.7866e-08
1.30167e-08
3.60554e-09
3.1987e-09
8.02836e-09
2.50786e-08
7.61171e-08
2.12165e-07
5.35557e-07
1.2208e-06
2.53129e-06
4.82107e-06
8.54438e-06
2.73905e-07
7.09118e-08
1.89081e-08
8.00823e-09
7.79629e-09
1.44109e-08
3.68231e-08
1.01278e-07
2.65969e-07
6.40047e-07
1.39635e-06
2.77883e-06
5.10556e-06
8.77856e-06
3.48966e-07
1.06194e-07
4.2505e-08
2.67298e-08
2.60351e-08
3.56723e-08
6.6666e-08
1.50245e-07
3.51819e-07
7.86627e-07
1.62652e-06
3.09928e-06
5.49675e-06
9.1864e-06
5.08015e-07
2.151e-07
1.24403e-07
9.29882e-08
8.76039e-08
1.01663e-07
1.46962e-07
2.58023e-07
5.05675e-07
1.0099e-06
1.94268e-06
3.5216e-06
6.01946e-06
9.78345e-06
8.99662e-07
5.17591e-07
3.65695e-07
2.95101e-07
2.72018e-07
2.89739e-07
3.59945e-07
5.15817e-07
8.2837e-07
1.42054e-06
2.46715e-06
4.18324e-06
6.82936e-06
1.07519e-05
1.74804e-06
1.21756e-06
9.59497e-07
8.17118e-07
7.54112e-07
7.72129e-07
8.84691e-07
1.1214e-06
1.54714e-06
2.28314e-06
3.50549e-06
5.42915e-06
8.31791e-06
1.25487e-05
3.30652e-06
2.56807e-06
2.16804e-06
1.9489e-06
1.84349e-06
1.87254e-06
2.06109e-06
2.44335e-06
3.08267e-06
4.0919e-06
5.62136e-06
7.86047e-06
1.10392e-05
1.55949e-05
1.64752e-06
1.19774e-06
9.69016e-07
8.87194e-07
9.22108e-07
1.01072e-06
1.1423e-06
1.30443e-06
1.54727e-06
1.97162e-06
2.77896e-06
4.21438e-06
6.60901e-06
1.06295e-05
7.85974e-07
4.93292e-07
3.80573e-07
3.48867e-07
3.66824e-07
4.06015e-07
4.63301e-07
5.40269e-07
6.79072e-07
9.71846e-07
1.59638e-06
2.80241e-06
4.94926e-06
8.63584e-06
3.89789e-07
1.89555e-07
1.3174e-07
1.19314e-07
1.26275e-07
1.41251e-07
1.65487e-07
2.06465e-07
2.98281e-07
5.1745e-07
1.01239e-06
2.01575e-06
3.88041e-06
7.1622e-06
2.18971e-07
7.58579e-08
4.16057e-08
3.54593e-08
3.73751e-08
4.27407e-08
5.39554e-08
7.94447e-08
1.45743e-07
3.1352e-07
7.05528e-07
1.53457e-06
3.14451e-06
6.07564e-06
1.48225e-07
3.87576e-08
1.39428e-08
9.50892e-09
9.70065e-09
1.19557e-08
1.85563e-08
3.73535e-08
9.01479e-08
2.27803e-07
5.56938e-07