/*--------------------------------*- C++ -*----------------------------------*\
| =========                 |                                                 |
| \\      /  F ield         | OpenFOAM: The Open Source CFD Toolbox           |
|  \\    /   O peration     | Version:  v2106                                 |
|   \\  /    A nd           | Website:  www.openfoam.com                      |
|    \\/     M anipulation  |                                                 |
\*---------------------------------------------------------------------------*/
FoamFile
{
    version     2.0;
    format      ascii;
    arch        "LSB;label=32;scalar=64";
    class       volScalarField;
    location    "0.000185";
    object      epsilon;
}
// * * * * * * * * * * * * * * * * * * * * * * * * * * * * * * * * * * * * * //

dimensions      [0 2 -3 0 0 0 0];

internalField   nonuniform List<scalar> 
144746
(
332941
252603
175571
102659
61018.1
46300.8
55313.8
89096.5
156339
262328
364528
381641
312886
245188
359374
240724
139240
70056.1
38178.1
26347.2
27885.2
43930.9
80671.6
144745
234620
293471
270833
214784
301747
171620
85370.3
39640
21288.5
14052.4
13601
21179
41064.7
77169.6
131351
191288
207482
188541
189935
93367.4
42052.7
18922.8
10142.4
6667.28
6417.08
10327.6
21101
40855.9
69687.7
106580
132973
142702
97099.9
42114
17429.4
7569.17
4030.85
2769.61
3002.8
5502.2
12076.6
24264.6
41683.7
62840.7
84574.3
108482
43599.5
16759.8
6312.76
2579.62
1376.53
1090.49
1576.48
3472.86
8013.42
16293.4
28015.3
41813.1
60189.9
92189.5
19492.9
6797.76
2313.75
900.481
513.793
563.254
1139.98
2755.88
6265.66
12435.4
21267.1
32733.4
55788.9
105672
11781.3
4024.35
1380.51
617.861
428.803
576.838
1204.26
2709.73
5695.23
10736.8
18277.4
31858.5
69546.3
151337
12543.5
4436.64
1787.87
1026.67
797.02
947.287
1606.36
3075.15
5813.92
10458.2
18480.7
42408.2
107979
237876
22047.4
7581.48
3331.35
2215.27
1804.87
1871.82
2543.33
4091.2
7034.29
12626.7
26428.2
73881
180358
351702
56054.7
20270.5
7322.65
4907.5
4187.59
4127.69
4899.23
6932.14
11225.3
21594.1
49876.5
136010
277799
431060
130850
77679.6
34773.5
15080.3
10020.2
9235.72
10349.2
13785.6
21628.6
42437.1
97005.9
214304
340596
413497
218944
181102
112253
55580.3
28945.1
20625.4
20486.9
25887.7
39452.4
73658.5
147091
250848
315513
327249
287251
293499
242989
156210
89274.7
53559.6
41106.8
44122
60909.7
102142
165824
227347
246664
255376
313234
212370
135215
76224.1
46276.6
35783.6
42233.2
67786.6
118529
196644
288575
340980
322716
272494
296423
180928
100451
52018.1
30199.4
21537.5
22373.2
34833.7
63912.3
111000
172260
230584
243806
220135
223861
122519
61613.8
30681
17544.9
11952.8
11419
17541.4
34103.8
62375.1
100013
142627
170114
175806
133274
66088
31167.1
15235.1
8644.64
5830.31
5545.59
8866.69
18353.8
35222.6
57323.7
81135.6
104049
121629
65827.3
29231.1
13006
6214.67
3521.34
2466.04
2630.2
4810.68
10694.2
21432.9
35796.4
51189.8
67357.8
87555.7
27996.2
11003.6
4553.66
2094.21
1201.74
961.768
1367.77
3031.67
7077.55
14403.3
24467.5
35660.6
48550.2
70592.9
11765.8
4106.43
1509.11
654.021
400.713
451.674
939.688
2339.56
5416.41
10814.6
18457
27896.2
42215.6
75097.6
7047.61
2348.51
785.471
343.523
250.359
388.6
907.319
2175.34
4733.12
9081.23
15561.7
25327.6
47847.7
100882
7847.71
2680.27
992.287
531.255
422.109
575.799
1116.46
2331.21
4654.29
8656.79
15520.6
29998.6
69391.2
154249
13645
4675.58
1923.65
1215.59
995.785
1121.32
1701.51
3002.18
5542.36
10427.4
20732
47819.6
113412
230084
33335.1
11502.1
4279.54
2886.9
2458.62
2551.92
3309.28
5114.11
8885.37
16854.2
34920.7
84004.8
176287
310268
86749.1
45942.6
19233.3
8179.43
5955.56
5860.67
7064.34
10054.4
16236.4
29783
61962.1
133132
238991
357571
171970
121049
67496.8
30482.9
15859.3
12716.4
13892.9
18462.4
28132.8
49165.5
94216.1
177580
269803
342419
270606
227458
160284
92065.8
49101.2
30332.9
26058.3
30590.6
43185.4
70689.5
123840
199519
259596
303644
223303
137003
83999.8
50274.8
33257.1
26193.6
28329.9
41647.2
69968.3
113366
170420
234803
286362
306428
176432
103883
58992.4
33578
21509.6
15958.6
15937.5
23312.8
41993.5
72256.2
110785
151482
184307
206740
117946
66053.9
36234.1
20071.1
12419.3
8864.53
8395.88
12353.7
23894.4
44004.2
69807.6
97917.7
123799
149935
66517.9
35968.5
18692.8
10078.7
6104.94
4319.12
4127.54
6456.6
13474.5
26409
43582.6
62223.2
80219.7
100799
32542.9
16056
7859.44
4126.29
2497.57
1825.27
1954.38
3548.44
7992.87
16392.9
28142
41398.3
55145.5
73186.5
13895.3
5962.95
2686.99
1376.98
854.631
703.737
1000.22
2232.24
5293.59
11029.6
19417
29510.1
40888.2
56701.2
5998.93
2155.24
834.996
403.004
267.798
309.29
660.606
1696.21
4026.09
8269.41
14653.8
23006
33774
51470.6
3878.18
1218.06
385.727
165.514
128.666
229.084
596.114
1527.21
3469.73
6907.68
12241.6
19990.9
31983
56276
4483.54
1406.82
465.767
226.783
186.075
302.241
685.135
1581.67
3367.67
6536.78
11853.5
20997
38479.1
75957.2
7606.37
2464.77
945.888
563.699
464.066
577.766
1002.21
1976.99
3941.21
7702.55
14923.3
29144
57677
109578
17732
5810.54
2240.35
1483.07
1259.96
1378.25
1958.11
3336.12
6247.14
12176.1
24052.2
47015.1
89696.8
155628
45446
22036
8829.59
3948.91
3245.67
3412.67
4408.09
6759.8
11589.7
21119.7
39417.5
73747
130443
215656
97717.9
58976.1
29894.1
12744.3
7614.35
7580.95
9178.5
12905
20092
33523.7
58326.2
103568
174691
270891
169265
116783
71701.8
37564.2
20630.6
15778.2
17045.5
22001.9
31316.6
48399.5
80595.6
139861
221381
322300
217217
237794
282147
395125
722331
2.29145e+06
183439
197230
228945
314592
583438
1.91438e+06
165701
170464
195647
263367
490933
1.63392e+06
142278
155726
184501
239427
437270
1.42608e+06
130565
157106
193868
240355
417122
1.27414e+06
136424
180948
224612
262280
420170
1.16586e+06
174843
237354
278278
298961
433138
1.09949e+06
249645
322785
339394
330179
437253
1.08627e+06
349074
398056
366830
332126
425385
1.11952e+06
419452
407504
342771
309991
410271
1.20441e+06
410683
356681
299183
290951
414894
1.35306e+06
347900
298470
269136
290453
445522
1.59522e+06
281916
259933
259791
305245
502793
1.95104e+06
241203
242096
259005
329881
589666
2.44391e+06
234247
253188
280727
358274
629700
2.11314e+06
193514
210483
238266
296075
493260
1.67795e+06
165827
182983
213383
262382
411354
1.38328e+06
132494
160868
203185
251721
379449
1.18275e+06
111924
150484
206852
260897
389355
1.05002e+06
107572
158688
227712
284770
416994
973188
128335
196003
276913
326497
438995
936103
176797
266076
352432
374903
440600
945703
250618
353188
419021
395134
419124
1.00219e+06
327352
412717
430595
372899
391128
1.09879e+06
371691
413244
393118
339706
384040
1.2351e+06
367956
374827
350875
323975
407228
1.43454e+06
334056
332594
324174
327893
453882
1.71428e+06
297565
306449
309883
342007
520996
2.09585e+06
305845
347264
367528
401664
558291
1.60646e+06
216422
262736
308213
350156
451338
1.22875e+06
172352
219529
275079
322129
394160
1.00071e+06
129180
180336
248078
310062
379672
865125
101918
154796
233161
307674
391355
792353
85384.9
140268
227598
312896
420270
760045
85270.5
147419
246030
336068
444765
754439
99879.4
175691
293407
385471
448550
770139
129575
223819
361858
436497
436942
815526
171255
281240
423029
455394
422924
899077
215496
331959
452901
456153
427197
1.02603e+06
258631
367587
465941
464247
460401
1.19698e+06
301883
399796
481948
485732
518469
1.4124e+06
345355
441247
501818
504170
584306
1.68291e+06
219280
235421
267883
372000
720914
2.63192e+06
195467
202915
226496
299335
556211
2.149e+06
181165
179410
200969
260163
454790
1.80227e+06
147904
155480
188796
246007
406157
1.55295e+06
112450
135070
185717
251146
396301
1.3778e+06
85253.7
126175
195186
271971
411264
1.2562e+06
78585.2
138267
225321
308019
439283
1.17592e+06
92756.8
178383
284214
357336
459409
1.13437e+06
133213
250302
362957
399328
454032
1.12915e+06
199647
333611
419181
405037
425980
1.17144e+06
274027
385736
419174
374906
400503
1.26879e+06
323754
384566
380492
341954
402427
1.44932e+06
324571
345372
332363
321849
434453
1.7346e+06
290974
295578
286831
311858
495043
2.15602e+06
260875
283135
302784
366599
609219
2.21543e+06
218204
239085
270611
323332
490200
1.76951e+06
182671
205430
246980
302670
421961
1.46563e+06
133545
164423
223661
295945
402831
1.25224e+06
90885.1
126981
201267
295519
416351
1.10506e+06
63493.1
103704
188085
301990
444014
1.01948e+06
52949.5
100779
196185
323354
482619
976571
56768
120662
237219
370829
513687
959738
79229.4
170046
316798
435370
510972
972232
123168
242948
403625
472526
474773
1.02348e+06
183522
313475
446399
457345
432383
1.11704e+06
245866
355562
437027
420998
420033
1.26553e+06
287970
361128
399074
384866
434536
1.49184e+06
296554
337573
344655
346599
463403
1.82447e+06
370571
440460
478161
506742
635971
1.70414e+06
242246
312525
392427
464528
567410
1.36841e+06
169546
238022
334232
432460
525206
1.14607e+06
110356
169436
274588
404111
512299
990853
70588.6
117045
221524
373580
509634
887113
48372.9
85800.8
179805
341243
512907
827572
36754.9
71139.2
158417
321757
531592
799622
32502.6
68926.3
159388
331002
551384
787349
36745.5
82585.2
192506
376124
552978
790972
52072.7
111870
251474
432767
530783
819150
78489.7
152685
311991
460863
498303
883490
115961
198583
353127
465995
488957
1.00245e+06
159522
243985
373432
456523
502713
1.18798e+06
199241
279234
373310
428332
526636
1.44708e+06
2.13935e+06
586336
378057
338981
337575
331642
1.78277e+06
559588
408699
399433
397755
380802
1.57265e+06
602199
463791
452303
418628
363590
1.4549e+06
692240
507494
449587
361506
273703
1.3732e+06
753872
476143
361631
250168
167704
1.30276e+06
709639
370951
242038
148959
90472.6
1.24983e+06
581473
263892
153703
87365.6
47944.2
1.2129e+06
448422
195760
109089
60550.1
31158.9
1.21528e+06
356109
164461
95975.4
57563.4
31189.8
1.27932e+06
315341
159305
106007
76161.6
47960.2
1.40682e+06
319001
174133
132902
113989
89131.4
1.61269e+06
361461
203385
167691
159460
146831
1.91178e+06
456083
251976
207679
200673
194377
2.33446e+06
594616
318514
251526
244162
238741
1.97392e+06
548070
374972
354756
348842
324692
1.67722e+06
539960
422673
413421
380381
333749
1.49351e+06
580257
478499
441950
358582
281874
1.35844e+06
668520
504806
406277
280153
195194
1.24985e+06
731890
449035
305347
182228
114197
1.14714e+06
685974
337492
196388
105919
59205.5
1.06288e+06
565591
239213
122002
61204.4
30130.9
1.01056e+06
445158
183362
87692.2
42194.6
19456.4
989558
360735
163106
81246.5
41394.3
20188.3
1.01903e+06
318427
167052
96318
57438.7
31316.4
1.12391e+06
308401
186769
129769
94727.1
62202.3
1.2993e+06
332190
217497
175180
148861
116584
1.55855e+06
403198
262096
225384
207069
179589
1.93708e+06
503035
318658
285640
284528
263672
1.57042e+06
542577
413425
372822
307147
241074
1.38379e+06
538856
438731
374758
273481
201973
1.23673e+06
549766
446923
341038
213107
144843
1.12104e+06
593691
421712
273199
146604
91250.8
1.0259e+06
602178
351806
191423
91316.4
52155
940588
552028
265672
122815
54445.4
27617.8
865716
475454
200467
81025.9
34201.2
15137.4
814322
413743
168867
64654.4
26616.8
11111.7
793960
375629
162670
64357
27879
12242
810994
363204
176701
79525.8
38719.3
18546.1
876326
367883
204056
111465
64803.7
37162
1.00339e+06
390600
248126
163874
110032
72754.6
1.20133e+06
448200
309260
233090
174033
127676
1.48672e+06
526074
391162
338663
283000
220946
2.13279e+06
610547
362501
278828
248100
237889
1.73213e+06
555275
354905
296421
282429
288668
1.48209e+06
554036
376429
340543
341763
356622
1.34151e+06
608541
424116
399451
395964
389244
1.25655e+06
677943
456420
416442
378218
333822
1.19544e+06
696278
417538
349688
284591
229444
1.1537e+06
638466
326338
245567
182924
140870
1.14666e+06
538153
245008
168996
120506
90522.9
1.17958e+06
446201
200470
133805
96703
72548.4
1.25625e+06
389431
186387
130382
103262
83753.8
1.39017e+06
394501
200524
150736
132642
118782
1.59002e+06
445786
239730
188826
176113
170062
1.87153e+06
542652
303077
240394
222705
213670
2.25623e+06
679857
381704
298513
279388
270583
2.05556e+06
554208
345916
292936
276610
266974
1.72998e+06
513556
352785
323403
317207
316277
1.49822e+06
511674
384398
371731
363962
352303
1.33323e+06
559960
436740
419305
380872
337651
1.20551e+06
634224
461371
408934
327626
264420
1.0972e+06
664760
409773
324710
233028
175350
1.01045e+06
612707
316060
222198
148765
106811
966685
524557
239792
153052
98611.6
68439.2
972792
436344
201228
123670
80082.9
55047.6
1.02175e+06
373150
191353
124673
88161.9
64508.7
1.12871e+06
352655
202432
147558
117852
95257.8
1.30593e+06
385133
233004
186275
164296
146284
1.58012e+06
467335
285302
236146
216236
199689
1.98726e+06
590801
354922
299836
292028
279864
1.69053e+06
522100
405868
388039
358075
309664
1.50389e+06
494831
415746
397687
348258
296599
1.33658e+06
487588
431719
402786
325217
260061
1.17507e+06
502353
448929
390285
278666
207120
1.04216e+06
530472
431096
332829
213639
149463
931642
531919
362159
249973
150777
99527.3
846338
494026
281821
175198
102055
64266.4
792562
447892
228038
129898
74078.3
45435.7
768896
406284
209215
113405
65222.4
40350.2
780438
371874
212699
121844
74527.9
48539.7
834843
361863
229627
147183
98607.3
69174.2
951320
383311
262710
191360
141555
106783
1.1556e+06
445951
314555
248146
198751
158781
1.48468e+06
544243
391210
340850
302381
253886
83284.7
52196.5
34194.9
23289.3
18197.6
15402.6
14888.2
16983.8
23810.5
36635.7
56656.6
88258.6
138633
213834
48158.8
31063.1
20045.6
13361.2
10159.7
8366.85
7889.45
9174.2
14003.4
23883.1
39815.3
63515.4
97616.2
143227
26179
16619.4
10437.5
6817.54
5089.89
4112.26
3862.2
4759.12
8127.17
15359.8
27227.7
44270.6
67857.7
100145
13156.7
7682.2
4581.5
2959.22
2198.21
1770.61
1733.34
2431.15
4778.66
9890.95
18477.3
30904
47808.9
71505.1
6073.66
3015.95
1662.69
1074.79
800.65
666.801
751.446
1324.56
3008.35
6646.25
12948.7
22316.4
35484
54962
2748.43
1068.07
516.716
326.086
247.686
236.578
368.337
855.426
2140.04
4858.46
9659.47
17082.6
27926.6
44647.7
1507.04
439.951
161.285
88.8556
72.5818
102.338
246.673
681.86
1748.65
3950.13
7859.77
14116
23711.8
39248.4
1254.84
313.498
84.399
34.6636
33.5105
76.0711
225.363
636.579
1594.19
3518.24
6924.05
12487.6
21361
36356.2
1486.42
382.364
110.793
49.2958
47.076
96.2929
255.645
669.471
1593.05
3402.25
6594.23
11927.7
20819.6
36494
2248.7
639.797
247.17
144.954
128.583
183.425
364.713
812.653
1774.55
3625.42
6915.06
12555
22287.3
39639.4
4287.78
1374.05
652.18
454.18
401.338
465.584
704.36
1272.74
2454.54
4710.24
8763.46
15740.2
27578.3
47572.3
9988.84
3734.97
1720.27
1304.11
1189.6
1291.51
1684.88
2577.11
4354.67
7655.86
13445.3
23136
38914.8
62879.2
23232.2
9814.58
4555.49
3314.14
3137.28
3355.01
4080.46
5608.66
8486.74
13610.5
22417.1
36989.4
61552
95482.1
43799.1
21384.1
11756.9
8074.5
7368.36
7783.31
9077.2
11637.7
16215.3
24145.3
37868
62341.6
105109
166810
31571.5
22621.4
16846
12715.3
10924.8
9859.54
9538.7
9993.28
12234.5
17420.5
26666.4
41277.5
66172.4
112826
16735.6
11985.9
8745.25
6535.71
5563.61
4959.16
4741.76
5039.75
6614.48
10548.3
18088.6
30649.4
51165.2
85351.4
8582.75
5697.4
3979.31
2974.57
2523.78
2235.51
2153.67
2432.96
3626.44
6628.95
12576.1
22673.9
38751.5
64050.8
4187.45
2365.34
1558.37
1161.5
987.319
880.511
890.873
1157.74
2076.92
4335.48
8877.65
16740.9
29215
48550
1983.17
886.491
526.991
385.632
328.8
305.772
359.215
604.951
1332.1
3062.81
6562.31
12753.5
22782.6
38728.6
1024.19
340.787
162.531
110.62
95.3436
103.256
170.509
395.602
1005.51
2413.24
5243.05
10307.1
18685.3
32335
676.192
174.008
56.7557
30.5572
28.04
45.9173
117.556
332.854
886.819
2128.08
4585.51
8982.91
16365.7
28689.7
612.9
144.95
36.2181
13.9515
14.8556
37.0431
113.529
331.297
869.519
2037.46
4296.79
8297.36
15036.3
26444.6
706.7
177.469
50.6949
22.6366
23.1649
49.3856
134.915
367.088
917.811
2071.96
4247.6
8053.45
14488.4
25546.3
974.512
285.658
116.728
70.446
65.1756
95.6993
196.224
455.019
1039.89
2220.36
4387.32
8128.81
14475.7
25561.2
1596.31
587.227
324.888
234.373
210.078
244.083
372.021
685.135
1353.84
2650.68
4972.28
8937.86
15695.8
27520
3209.02
1367.18
891.911
716.773
652.263
692.934
881.232
1320.22
2199.72
3829.84
6662.41
11369.8
19103.2
32100
7148.69
3213.56
2227.26
1933.02
1825.97
1904.76
2237.28
2961.76
4323
6738.91
10818.4
17353.4
27414.4
42306.9
13636.8
7179.47
5150.03
4581.81
4501.91
4746.77
5420.38
6754.74
9132.8
13266.3
20167.4
31192.4
48640.4
72332.8
10239.3
7968.7
6703.95
5754.09
5455.9
5283.77
5251.01
5331.02
5882.85
7487.34
11070.7
17631.5
29420.6
52614.2
5096.71
3729.28
3063.34
2621.55
2502.23
2431.28
2418.48
2494.01
2919.82
4173.68
7070.13
12719
23131.6
42347.6
2460.59
1580.27
1238.09
1054.95
1014.07
990.669
1001.06
1093.84
1464.27
2495.71
4875.76
9654.46
18521
34447
1187.82
613.688
437.976
367.516
354.445
351.297
374.792
471.818
787.214
1624.28
3553.57
7505.75
14896.3
27994
621.136
235.438
138.415
110.515
106.239
110.43
138.173
231.901
506.218
1209.09
2816.13
6128.45
12361.2
23436.7
385.863
105.976
43.3651
29.6662
28.4677
35.2032
63.6761
153.863
406.457
1038.44
2458.6
5349.74
10744.9
20286.4
295.934
68.007
18.2665
8.5193
8.55905
16.6403
46.6862
139.199
391.561
1006.36
2347.85
5005.94
9871.67
18388.9
282.119
63.9899
14.6779
5.01245
5.63964
15.3718
49.3757
150.774
418.374
1046.71
2366.15
4891.71
9398.89
17146.6
321.618
79.2217
21.9848
9.7204
10.3469
22.6303
63.6202
180.275
474.626
1135.42
2466.89
4927.42
9215.71
16489.7
422.623
127.105
52.964
32.4211
30.764
46.1347
97.3103
234.489
561.702
1261.24
2614.27
5031.53
9149.07
16083.7
651.975
269.816
158.507
115.306
103.405
120.255
186.011
352.25
722.86
1473.81
2866.81
5279.47
9328.49
16208.3
1209.02
656.194
468.731
377.189
337.353
350.089
438.424
654.265
1100.48
1951.93
3465.64
6015.83
10250.8
17496.2
2413.14
1555.72
1244.03
1084.25
1000.2
1009.98
1146.75
1468.48
2085.26
3193.38
5079.72
8151.65
13081.9
21283.3
4679.07
3376.96
2882.29
2688.52
2610.81
2683.95
2969.27
3558.05
4602.22
6383.96
9282.51
13803.4
20608
30929.8
3314.68
2621.72
2321.54
2208.49
2310.39
2432.1
2556.52
2663.52
2879.65
3438.91
4813.57
7644.13
13156.1
24371.6
1558.83
1106.25
945.191
901.343
955.433
1017.51
1079.72
1144.39
1300.83
1739.15
2844.16
5242.31
10137.9
20052.4
743.737
431.56
343.374
325.23
347.658
374.653
406.252
454.867
587.772
959.714
1893.56
3974.77
8310.7
17064.2
383.446
162.936
111.237
102.257
109.399
120.108
137.987
177.887
291.929
606.259
1395.08
3191.95
6999.65
14676.1
228.271
67.2804
33.6439
28.1481
29.842
34.5874
46.9494
82.0794
184.606
464.03
1162.59
2763.44
6159.26
12942.6
159.613
36.2298
11.4218
7.2269
7.52756
10.67
21.4805
55.5686
155.91
426.61
1093.49
2595.41
5706.77
11753.4
131.016
27.571
6.16401
2.30231
2.43254
5.58716
17.213
54.6169
163.455
449.892
1131.52
2608.67
5551.71
11069.5
129.065
28.0536
5.91604
1.77553
2.04128
5.96152
20.0997
64.5563
189.739
505.821
1222.22
2700.1
5516.76
10597.4
149.308
35.4447
9.24578
3.94618
4.30743
9.63992
28.0169
83.0901
230.77
584.907
1346.34
2839.7
5570.27
10348.1
197.074
58.4208
23.5342
14.2009
13.6703
20.9347
45.5372
114.453
288.009
681.19
1484.81
2991.01
5651.99
10209.7
309.852
132.676
76.7083
54.529
48.5071
56.9056
90.2425
177.31
380.265
812.403
1654.53
3175.39
5796.24
10242
597.072
348.499
245.903
191.758
167.356
171.845
216.753
330.623
574.602
1059.7
1961.64
3541.63
6221.12
10784.5
1241.64
877.802
697.277
586.838
524.268
516.93
579.803
741.587
1063.41
1659.39
2710.84
4492.54
7478.89
12626.9
2494.85
1969.84
1695.8
1538.47
1448.12
1448.27
1566.1
1839.28
2341.79
3206.56
4628.91
6914.7
10608.2
16992.6
1292.52
960.619
817.557
795.054
869.425
974.19
1095.35
1215.01
1381.33
1695.16
2389.03
3832.3
6745.3
12873.9
585.315
371.795
300.416
292.041
323.296
366.698
416.862
471.582
566.021
782.846
1306.66
2473.27
4972.94
10364.7
280.288
135.913
98.6999
94.6655
105.36
120.758
140.616
169.175
233.339
400.402
823.725
1811.75
4008.2
8791.57
151.427
50.8978
29.4304
26.8554
29.7742
34.7406
43.1587
60.8284
108.91
242.475
592.675
1443.4
3390.87
7655.48
95.7447
22.8699
8.73158
6.77728
7.37984
9.1828
13.841
27.2808
67.9172
184.496
495.761
1266.42
3045.29
6908.55
70.0064
14.1873
3.43155
1.70959
1.76488
2.81592
6.57762
19.1723
58.7092
172.862
476.12
1218.44
2897.12
6439.56
60.12
12.1281
2.36825
0.652273
0.63402
1.68169
5.79111
19.9529
64.134
189.083
510.602
1267.47
2906.85
6219.94
62.4648
13.1355
2.54121
0.64416
0.680996
2.05846
7.3166
24.9541
78.138
222.573
576.699
1367.67
2994.71
6129.99
75.531
17.0177
4.04037
1.59505
1.69291
3.71923
10.999
34.1197
100.386
271.232
667.631
1504.88
3143.39
6174.08
103.278
28.8851
10.7551
6.24506
5.97187
9.01866
19.5598
50.537
133.6
335.372
778.049
1665.08
3327.34
6304.98
170.066
69.6186
37.8376
25.8811
22.8113
26.8471
42.7887
85.6239
190.605
427.79
918.762
1858.02
3557.57
6533.75
347.026
195.537
130.146
97.0401
83.1227
85.801
110.138
171.997
308.486
591.948
1145.01
2162.08
3958.35
7084.15
761.318
520.918
390.962
313.133
272.052
267.203
304.255
399.326
590.654
954.395
1620.82
2799.79
4847.19
8436.62
1591.04
1220.31
998.523
862.267
785.019
774.467
840.174
1001.93
1303.06
1826.32
2709.01
4185.84
6709.1
11241.8
623.454
416.575
317.272
285.123
301.473
345.237
412.291
494.481
615.344
826.278
1255.71
2123.49
3867.37
7544.06
267.004
146.35
103.784
93.024
99.9062
116.015
140.385
172.953
230.85
356.346
650.394
1306.78
2731.62
5856.95
123.736
49.2502
30.1333
26.5315
28.7985
33.9138
42.3466
56.6406
89.5115
174.329
391.777
912.67
2105.22
4788.68
66.3704
18.0093
8.11399
6.62085
7.18448
8.69759
11.863
19.3901
40.7718
102.034
268.879
692.397
1707.94
4048.61
42.5037
8.74686
2.44443
1.51402
1.5886
2.11611
3.7212
8.81907
25.1977
74.856
215.111
583.788
1490.84
3598.38
32.2971
6.20625
1.22052
0.403555
0.363899
0.673306
1.91414
6.41034
21.5255
68.199
200.953
550.444
1404.6
3352.75
29.9243
5.96283
1.06572
0.212194
0.158352
0.477265
1.83779
6.86731
23.6938
74.8253
216.646
578.13
1428.73
3288.73
33.9196
6.93827
1.24035
0.262178
0.226922
0.670627
2.48145
8.96763
29.938
91.2723
253.926
647.705
1525.36
3345.52
43.6835
9.28773
1.98956
0.709962
0.697321
1.41403
4.10531
13.1605
40.9109
117.929
311.117
752.067
1680.76
3512.63
62.3577
16.0813
5.3986
2.98449
2.80635
4.04753
8.3827
21.6292
59.273
157.187
388.166
885.117
1879.42
3759.15
106.802
39.9681
19.8719
13.0224
11.448
13.4815
21.0889
41.6555
94.0864
219.428
495.783
1058.6
2135.43
4102.81
226.033
116.894
71.611
50.793
43.134
45.4273
59.4904
93.9423
170.858
336.528
675.88
1332.95
2545.26
4715.19
512.547
323.851
224.337
169.838
144.667
144.481
170.666
232.723
355.602
591.538
1036.06
1853.67
3320.99
5933.51
1102.84
786.609
596.449
485.414
428.948
424.66
474.926
591.644
804.326
1170.75
1794.4
2866.25
4748.56
8160.38
359.087
219.762
147.419
115.046
109.311
121.384
149.738
193.611
268.229
406.255
688.973
1259.27
2392.34
4742.48
143.22
69.6879
42.6728
32.9951
32.0119
36.3603
45.9254
62.0217
94.5744
168.643
345.67
747.607
1624.38
3540.9
62.328
21.3436
10.8856
8.1997
8.1229
9.48805
12.6391
19.2246
36.0221
81.4472
201.637
497.485
1185.58
2752.46
32.137
7.54869
2.67231
1.79277
1.7898
2.20896
3.38121
6.6452
16.6419
46.6536
131.58
354.615
904.775
2211.69
20.7455
3.987
0.882958
0.386524
0.359082
0.519488
1.11438
3.18965
10.2492
32.718
99.15
281.564
750.109
1891.36
16.9264
3.25669
0.582825
0.128518
0.0851591
0.185545
0.635209
2.36673
8.50286
28.4838
88.4762
255.231
686.323
1729.75
17.5715
3.5124
0.600199
0.0970137
0.0491411
0.153749
0.636459
2.52052
9.17878
30.6203
93.8427
265.479
696.486
1703.09
21.9523
4.36919
0.734368
0.136217
0.0928484
0.243947
0.897136
3.36391
11.8016
37.9913
112.028
303.608
760.806
1774.17
30.0427
6.03842
1.17829
0.384987
0.349438
0.619025
1.65027
5.27081
16.9828
51.4545
143.586
368.221
874.229
1937.72
44.592
10.5443
3.16016
1.66815
1.55705
2.11268
3.97692
9.74532
26.8181
73.6783
191.209
460.927
1035.86
2188.61
78.0961
26.1717
11.7265
7.40143
6.58643
7.76745
11.6642
21.8849
48.2995
114.09
267.387
599.257
1272.39
2566.95
166.741
77.3856
43.1192
29.2269
25.0367
27.1992
36.0865
56.4325
101.108
199.215
408.698
835.737
1663.55
3204.04
381.589
218.639
138.218
99.2182
84.3128
87.3074
107.668
151.331
234.735
394.508
701.689
1286.1
2369.78
4338.55
835.902
545.238
377.855
289.823
252.231
256.436
301.387
395.071
558.328
835.24
1307.36
2130.26
3594.47
6260.66
242.143
142.531
88.0337
60.374
49.5307
49.062
57.7528
76.99
118.465
206.469
396.199
786.778
1562.52
3144.92
89.5068
41.025
22.7255
15.1715
12.5976
12.7834
15.6373
22.5189
40.0285
84.7612
196.783
457.894
1032
2276.52
36.3091
11.45
5.12703
3.25675
2.74746
2.90137
3.89596
6.79867
15.6632
41.7484
113.597
294.987
721.224
1691.35
18.1286
3.95962
1.17537
0.622282
0.522437
0.605706
1.02792
2.51621
7.61662
23.851
71.4202
199.424
519.974
1290.62
12.2062
2.33258
0.456616
0.136582
0.095308
0.141757
0.376472
1.30469
4.6885
15.9759
50.5531
148.329
406.21
1052.61
11.0491
2.1802
0.380417
0.0649844
0.0254029
0.0579467
0.231848
0.952836
3.65771
12.9086
41.9433
126.103
353.018
927.91
12.8404
2.57362
0.430252
0.0629005
0.0198055
0.052944
0.22822
0.957061
3.69295
13.0255
42.1368
125.639
347.338
896.218
17.307
3.36186
0.542323
0.0930393
0.0493928
0.0995501
0.332476
1.26093
4.64043
15.8163
49.4797
142.288
378.494
937.691
24.7459
4.7612
0.867449
0.265719
0.224794
0.332987
0.730519
2.15434
7.00259
22.1721
65.3842
177.88
449.043
1058.13
37.7116
8.3053
2.26005
1.14901
1.07224
1.36809
2.2353
4.80262
12.539
34.8081
94.0352
238.903
567.922
1269.1
66.3708
20.1542
8.2265
5.05425
4.59056
5.42898
7.72262
13.2321
27.1225
62.55
149.063
347.075
770.983
1628.8
139.929
58.8335
30.1619
19.7995
17.3178
19.4239
25.8255
39.2042
67.2326
128.611
263.27
549.49
1128.2
2246.54
316.871
166.282
97.0899
67.022
57.717
62.325
79.3737
112.905
174.168
289.606
512.9
947.151
1773.7
3308.15
698.86
420.068
268.349
196.477
171.298
181.169
222.887
302.803
436.717
659.135
1034.63
1690.21
2867.21
5031.76
190.853
113.143
68.1063
43.2953
31.4879
27.1737
28.7105
37.1308
60.0892
114.664
238.696
504.948
1049.81
2170.85
65.4463
30.069
16.1001
9.7593
7.04745
6.17932
6.89186
10.0606
19.8595
47.3633
119.635
294.537
689.379
1553.03
24.6721
7.67102
3.27084
1.83641
1.31969
1.2056
1.55363
3.00954
8.06013
23.9006
69.2145
187.196
471.217
1125.9
12.0466
2.5752
0.701624
0.307555
0.212079
0.220779
0.408016
1.19245
4.08204
13.6754
42.6327
122.699
328.302
832.607
8.61454
1.66503
0.310087
0.0713884
0.0348243
0.0510408
0.163123
0.644464
2.48951
8.87472
29.0248
87.6539
246.9
657.843
8.56926
1.71078
0.295387
0.0453424
0.0111311
0.023081
0.102472
0.450804
1.82258
6.71966
22.7048
70.882
206.138
563.025
10.7648
2.13673
0.350787
0.0492518
0.0114198
0.0227185
0.0960265
0.41716
1.6897
6.27538
21.3785
67.1167
195.285
529.59
15.2217
2.88747
0.452547
0.0751419
0.0355034
0.0550853
0.150646
0.54328
2.04851
7.33749
24.3121
74.1841
209.134
547.586
22.4664
4.17923
0.727717
0.216771
0.179909
0.238856
0.42591
1.07027
3.32089
10.7326
33.1542
95.2327
253.909
630.204
34.9298
7.28959
1.85843
0.929717
0.878272
1.09201
1.60938
2.98294
7.02224
18.9492
52.1091
137.393
340.665
793.412
61.2601
17.243
6.6197
4.03384
3.7433
4.46429
6.13163
9.71998
18.2486
39.89
93.9999
222.285
506.624
1100.91
126.283
49.2823
24.0033
15.6022
13.9491
16.0171
21.2442
31.3353
51.2957
94.0137
188.159
392.535
815.949
1655.08
280.298
138.157
76.9066
52.3575
45.9543
51.1426
66.1007
93.8389
142.499
232.078
404.219
741.869
1395.42
2632.53
618.559
350.697
212.776
152.734
135.056
147.558
186.268
256.643
371.179
558.283
870.417
1411.39
2387.58
4206.68
134854
199424
286720
399014
526480
665992
83105.7
128838
201590
316462
473500
636230
55489.2
91302.7
155425
268018
430095
596345
38740.2
67000.7
123563
233448
400776
561892
31079.2
56446.4
110139
217793
382511
526570
27106.6
51276.4
103729
209112
370592
497696
27091.7
53116.7
108418
211387
363458
479225
30957.9
61722.4
123305
225134
362913
465613
40965.6
79785.8
151731
255684
370940
447090
57246.6
105968
191090
297992
384577
427885
79678.2
139436
237772
347404
413902
433631
109347
179859
288131
401129
459926
475152
152989
236705
351442
464425
508896
526804
217774
326584
438336
518871
536930
543681
57441.1
92423.9
151425
248580
391794
579635
40063.4
67113
114863
201544
352431
564402
29898.5
52378.3
94464.7
177248
331507
546640
23046.3
41953.2
80111.7
161553
315804
520389
20063.7
38076
76134.3
158991
305985
481886
18416.7
36168.2
74659.6
157352
292549
440072
18244.5
36986.6
77726.3
158554
278558
405209
19378.1
40230
83790.5
161896
266794
377467
23163.4
47810
95277.1
170290
264639
355766
30617.3
60185.1
112281
186898
272756
342529
42381.8
77918.4
137698
219417
302666
358480
58326
101487
172962
271009
365172
418669
82612.5
136607
224792
348148
460898
505718
125352
202257
312439
453655
558264
558110
19917.6
33248.4
57015.4
101078
181850
323732
15744
27876.2
50037
93336.7
179404
356028
13349.6
24828.1
46284.9
89716.7
181935
387837
11523.3
22262.3
43161.9
88117.6
189358
404224
10890.5
21635.2
43407.3
91765
200336
393107
10538.8
21342.3
43931.6
94955.2
203355
363233
10524.2
21617
45244.6
97720
198628
327215
10745
22382.9
47204
99003
187741
294861
11717.3
24509.7
50905.6
100738
178891
272504
14119.4
28871.4
57205.3
105511
176990
258240
19012.6
36837.5
68650.9
119439
190721
264578
27122.7
49439.5
88244.8
149138
230668
306391
40040
69508.7
120598
200980
303230
387227
62445
105810
176402
282243
402185
478201
6979.05
12378.7
22138.3
40334.5
76816.1
158997
5743.43
10986.4
20865.2
40314.9
82718.8
189716
5163.06
10448.5
20739.7
41753.2
89927
223753
4894.76
10272.9
21154.3
44541.2
100207
258426
5050.98
10816.3
22766.1
49331.7
113789
278647
5257.12
11361.4
24243
53702
125242
281477
5497.97
11915.2
25644.2
57379.3
131547
267099
5719.3
12388.7
26733.4
59289.1
129730
242204
6121.07
13222.5
28370.6
61022.5
125108
220554
6992.12
14872.9
31053.4
63244.1
120902
202611
8959.1
18313
36356.1
69190.1
123838
197504
12720.9
24586.2
46351
83806.7
143188
218393
19347.6
35390.3
64204.8
113608
188990
278546
31315.3
54795.4
96075.2
164960
263574
370481
2892.09
5467.4
10341.1
19735.8
39363.7
86518.4
2296.83
4754.17
9661.53
19551.5
41008.8
99682.4
2007.01
4436.22
9503.06
20146.5
44403.5
119981
1946.23
4469.49
9908.45
21805.5
50518
143371
2095.56
4904.14
11068
25042.3
60343.1
164982
2313.79
5444.77
12380.8
28620.5
70928.4
187212
2583.18
6072.5
13872
32634.1
81540.6
201411
2855.72
6669.36
15211.2
35671.6
86626.4
196009
3206.3