/*--------------------------------*- C++ -*----------------------------------*\
| =========                 |                                                 |
| \\      /  F ield         | OpenFOAM: The Open Source CFD Toolbox           |
|  \\    /   O peration     | Version:  v2106                                 |
|   \\  /    A nd           | Website:  www.openfoam.com                      |
|    \\/     M anipulation  |                                                 |
\*---------------------------------------------------------------------------*/
FoamFile
{
    version     2.0;
    format      ascii;
    arch        "LSB;label=32;scalar=64";
    class       volScalarField;
    location    "0.000185";
    object      nut;
}
// * * * * * * * * * * * * * * * * * * * * * * * * * * * * * * * * * * * * * //

dimensions      [0 2 -1 0 0 0 0];

internalField   nonuniform List<scalar> 
144746
(
7.60591e-05
6.20909e-05
4.6472e-05
3.10672e-05
2.07225e-05
1.57919e-05
1.65473e-05
2.32093e-05
3.66659e-05
5.58688e-05
7.3779e-05
8.09147e-05
7.6329e-05
6.79192e-05
7.55665e-05
5.68649e-05
3.78539e-05
2.26497e-05
1.40072e-05
9.88735e-06
9.54413e-06
1.31704e-05
2.1935e-05
3.61428e-05
5.39114e-05
6.61178e-05
6.67664e-05
6.02328e-05
6.28658e-05
4.20513e-05
2.48288e-05
1.36377e-05
8.13324e-06
5.56358e-06
5.15788e-06
7.1743e-06
1.27002e-05
2.23736e-05
3.55466e-05
4.86761e-05
5.3884e-05
5.19655e-05
4.23727e-05
2.48787e-05
1.31969e-05
6.80042e-06
3.95787e-06
2.726e-06
2.61217e-06
3.87074e-06
7.3182e-06
1.35926e-05
2.24086e-05
3.25383e-05
3.93325e-05
4.14647e-05
2.39242e-05
1.22842e-05
5.86263e-06
2.82874e-06
1.60807e-06
1.16617e-06
1.28379e-06
2.21495e-06
4.57232e-06
8.92959e-06
1.51448e-05
2.22513e-05
2.83138e-05
3.27952e-05
1.2076e-05
5.4463e-06
2.31917e-06
1.0264e-06
5.74103e-07
4.798e-07
7.01423e-07
1.47392e-06
3.25596e-06
6.48589e-06
1.10693e-05
1.61948e-05
2.14281e-05
2.74007e-05
6.34563e-06
2.59875e-06
1.00309e-06
4.21123e-07
2.45601e-07
2.72365e-07
5.36258e-07
1.24034e-06
2.72654e-06
5.30266e-06
8.90145e-06
1.30351e-05
1.86856e-05
2.73909e-05
4.5703e-06
1.8585e-06
7.62027e-07
3.69938e-07
2.5273e-07
3.17473e-07
6.17084e-07
1.31682e-06
2.66491e-06
4.86192e-06
7.87741e-06
1.20023e-05
1.97435e-05
3.29926e-05
5.05794e-06
2.18808e-06
1.07277e-06
6.43471e-07
4.92608e-07
5.60598e-07
8.93519e-07
1.6128e-06
2.89261e-06
4.88572e-06
7.74365e-06
1.35918e-05
2.55499e-05
4.45668e-05
7.78292e-06
3.44283e-06
1.89609e-06
1.31156e-06
1.06177e-06
1.08635e-06
1.43213e-06
2.18468e-06
3.48387e-06
5.57649e-06
9.53986e-06
1.9482e-05
3.67138e-05
5.93826e-05
1.56766e-05
7.11164e-06
3.56995e-06
2.6483e-06
2.24986e-06
2.17671e-06
2.51143e-06
3.36365e-06
4.96351e-06
8.15405e-06
1.50538e-05
3.05183e-05
5.10512e-05
7.1249e-05
3.0381e-05
1.934e-05
1.01951e-05
5.82863e-06
4.60797e-06
4.35895e-06
4.73324e-06
5.909e-06
8.38308e-06
1.38548e-05
2.50585e-05
4.35172e-05
6.17928e-05
7.42591e-05
4.6312e-05
3.76238e-05
2.48836e-05
1.4459e-05
9.49737e-06
8.1177e-06
8.45876e-06
1.02069e-05
1.40216e-05
2.19024e-05
3.54608e-05
5.17478e-05
6.35044e-05
6.92837e-05
5.86577e-05
5.55609e-05
4.52552e-05
3.13772e-05
2.06595e-05
1.51446e-05
1.38914e-05
1.56463e-05
2.02379e-05
2.90037e-05
4.08791e-05
5.19805e-05
5.82595e-05
6.22813e-05
6.60379e-05
5.10264e-05
3.63552e-05
2.37841e-05
1.59952e-05
1.22196e-05
1.25033e-05
1.73959e-05
2.77897e-05
4.28885e-05
5.94117e-05
7.00443e-05
7.12127e-05
6.5756e-05
6.08975e-05
4.36638e-05
2.82957e-05
1.71523e-05
1.09885e-05
7.91249e-06
7.46719e-06
1.01173e-05
1.69986e-05
2.8e-05
4.1413e-05
5.34886e-05
5.82268e-05
5.60918e-05
4.72782e-05
3.09252e-05
1.83261e-05
1.05015e-05
6.54046e-06
4.58695e-06
4.17619e-06
5.68007e-06
1.01335e-05
1.78352e-05
2.77862e-05
3.81003e-05
4.45656e-05
4.60041e-05
3.03092e-05
1.78213e-05
9.75231e-06
5.35002e-06
3.2692e-06
2.30261e-06
2.1619e-06
3.14522e-06
6.02756e-06
1.12562e-05
1.82315e-05
2.55449e-05
3.16375e-05
3.503e-05
1.63478e-05
8.46565e-06
4.27477e-06
2.24254e-06
1.35527e-06
9.99898e-07
1.07219e-06
1.82909e-06
3.82413e-06
7.5011e-06
1.25695e-05
1.80046e-05
2.28815e-05
2.69145e-05
7.76577e-06
3.509e-06
1.60564e-06
7.90919e-07
4.77759e-07
4.04078e-07
5.78141e-07
1.21828e-06
2.72476e-06
5.4467e-06
9.25063e-06
1.34199e-05
1.74049e-05
2.18064e-05
3.87875e-06
1.55096e-06
6.21115e-07
2.7993e-07
1.75425e-07
2.04161e-07
4.17373e-07
9.97767e-07
2.23728e-06
4.38238e-06
7.37098e-06
1.07738e-05
1.46433e-05
2.05619e-05
2.83051e-06
1.09798e-06
4.24389e-07
1.93874e-07
1.37113e-07
1.9944e-07
4.36937e-07
9.99206e-07
2.0994e-06
3.90572e-06
6.40403e-06
9.49561e-06
1.44168e-05
2.3129e-05
3.2883e-06
1.33994e-06
5.94341e-07
3.29724e-07
2.56677e-07
3.28382e-07
5.89813e-07
1.15726e-06
2.19113e-06
3.82963e-06
6.19092e-06
9.88614e-06
1.73894e-05
3.02384e-05
5.12772e-06
2.16091e-06
1.09234e-06
7.16094e-07
5.86335e-07
6.46942e-07
9.33371e-07
1.53505e-06
2.59652e-06
4.33099e-06
7.22974e-06
1.31915e-05
2.4493e-05
4.06121e-05
1.01658e-05
4.33536e-06
2.14719e-06
1.55306e-06
1.32262e-06
1.34815e-06
1.67538e-06
2.3996e-06
3.72972e-06
6.11501e-06
1.06238e-05
2.03381e-05
3.46067e-05
5.18388e-05
2.12944e-05
1.23164e-05
6.10486e-06
3.4602e-06
2.83295e-06
2.7819e-06
3.20676e-06
4.23006e-06
6.16299e-06
9.88215e-06
1.71389e-05
2.96237e-05
4.48796e-05
6.01607e-05
3.57779e-05
2.59635e-05
1.57474e-05
8.62176e-06
5.83859e-06
5.33629e-06
5.84292e-06
7.31836e-06
1.01597e-05
1.54927e-05
2.47032e-05
3.82244e-05
5.18636e-05
6.25949e-05
4.9703e-05
4.17427e-05
3.05253e-05
1.95371e-05
1.25622e-05
9.79941e-06
9.72912e-06
1.14635e-05
1.50177e-05
2.14065e-05
3.14311e-05
4.37026e-05
5.37253e-05
6.0762e-05
4.51772e-05
3.33745e-05
2.34281e-05
1.58667e-05
1.13278e-05
8.90931e-06
8.62753e-06
1.09622e-05
1.67743e-05
2.57843e-05
3.69269e-05
4.83623e-05
5.72003e-05
6.05295e-05
3.70054e-05
2.61686e-05
1.71815e-05
1.10251e-05
7.60098e-06
5.73912e-06
5.30965e-06
6.71794e-06
1.09457e-05
1.80393e-05
2.6976e-05
3.60838e-05
4.33897e-05
4.7746e-05
2.6257e-05
1.74157e-05
1.0867e-05
6.70739e-06
4.4649e-06
3.29826e-06
3.00185e-06
3.88802e-06
6.807e-06
1.2075e-05
1.89727e-05
2.62848e-05
3.26071e-05
3.75336e-05
1.59581e-05
9.86332e-06
5.76341e-06
3.41972e-06
2.22409e-06
1.6477e-06
1.55312e-06
2.19151e-06
4.18654e-06
7.9401e-06
1.30922e-05
1.87243e-05
2.3826e-05
2.81846e-05
8.44641e-06
4.64446e-06
2.5114e-06
1.43158e-06
9.254e-07
7.13137e-07
7.63131e-07
1.28072e-06
2.69299e-06
5.36703e-06
9.21248e-06
1.36213e-05
1.78587e-05
2.18925e-05
4.02078e-06
1.88481e-06
9.13503e-07
4.96305e-07
3.25344e-07
2.83432e-07
4.02919e-07
8.50202e-07
1.92205e-06
3.90738e-06
6.84038e-06
1.03622e-05
1.39678e-05
1.76391e-05
2.08373e-06
8.14162e-07
3.28751e-07
1.59853e-07
1.09047e-07
1.31801e-07
2.77848e-07
6.85045e-07
1.57079e-06
3.15094e-06
5.48923e-06
8.41078e-06
1.16501e-05
1.54555e-05
1.62742e-06
5.80044e-07
2.03131e-07
8.61296e-08
6.40988e-08
1.08986e-07
2.69408e-07
6.61832e-07
1.45331e-06
2.80535e-06
4.78811e-06
7.35591e-06
1.05058e-05
1.50672e-05
1.94051e-06
7.14835e-07
2.77447e-07
1.38349e-07
1.09807e-07
1.63135e-07
3.39705e-07
7.38453e-07
1.49632e-06
2.7484e-06
4.59868e-06
7.17667e-06
1.0936e-05
1.73184e-05
2.98317e-06
1.15729e-06
5.34083e-07
3.29628e-07
2.72708e-07
3.27563e-07
5.27511e-07
9.58641e-07
1.75123e-06
3.07039e-06
5.15197e-06
8.43674e-06
1.38299e-05
2.21735e-05
5.79329e-06
2.29791e-06
1.13471e-06
7.96674e-07
6.79894e-07
7.27753e-07
9.73064e-07
1.50702e-06
2.50183e-06
4.2344e-06
7.15494e-06
1.19322e-05
1.93778e-05
2.93155e-05
1.21506e-05
6.40507e-06
3.08898e-06
1.83781e-06
1.57605e-06
1.61738e-06
1.96534e-06
2.74207e-06
4.18781e-06
6.70714e-06
1.08941e-05
1.75676e-05
2.6721e-05
3.82052e-05
2.15008e-05
1.37561e-05
7.74254e-06
4.28669e-06
3.28856e-06
3.30454e-06
3.81735e-06
4.95762e-06
7.00604e-06
1.04439e-05
1.59372e-05
2.42635e-05
3.49288e-05
4.66387e-05
3.14179e-05
2.29775e-05
1.52752e-05
9.42944e-06
6.67044e-06
6.12239e-06
6.71978e-06
8.21504e-06
1.08098e-05
1.50343e-05
2.17401e-05
3.17307e-05
4.29727e-05
5.39155e-05
6.21988e-05
6.4593e-05
6.92477e-05
7.7262e-05
8.64288e-05
9.39941e-05
5.45639e-05
5.66482e-05
6.18085e-05
7.23628e-05
8.89973e-05
0.000106048
4.81005e-05
4.95053e-05
5.50739e-05
6.70142e-05
8.93022e-05
0.000116028
4.11981e-05
4.43607e-05
5.13103e-05
6.37561e-05
8.886e-05
0.000123727
3.64994e-05
4.23718e-05
5.13209e-05
6.39566e-05
8.92489e-05
0.000129063
3.52833e-05
4.46415e-05
5.54939e-05
6.77047e-05
9.06514e-05
0.000131992
3.96294e-05
5.21482e-05
6.36408e-05
7.41177e-05
9.2778e-05
0.000132817
4.94792e-05
6.38622e-05
7.35322e-05
8.05602e-05
9.41484e-05
0.000132303
6.27509e-05
7.51362e-05
8.00754e-05
8.33301e-05
9.28731e-05
0.000130278
7.35707e-05
7.99213e-05
8.02502e-05
8.16628e-05
8.89721e-05
0.000126743
7.67587e-05
7.74624e-05
7.61575e-05
7.7747e-05
8.41789e-05
0.000121666
7.31725e-05
7.18586e-05
7.12094e-05
7.37943e-05
7.98021e-05
0.000115175
6.70874e-05
6.63445e-05
6.70628e-05
7.03951e-05
7.66075e-05
0.000106744
6.15609e-05
6.1876e-05
6.33126e-05
6.76414e-05
7.4987e-05
9.60015e-05
5.95202e-05
6.13923e-05
6.42877e-05
7.00378e-05
7.88034e-05
9.14016e-05
5.13565e-05
5.31704e-05
5.71933e-05
6.53416e-05
8.03533e-05
0.00010141
4.38368e-05
4.5948e-05
5.09202e-05
6.05953e-05
8.06381e-05
0.000109706
3.60602e-05
4.00125e-05
4.69559e-05
5.79433e-05
8.10555e-05
0.000116218
3.04262e-05
3.64401e-05
4.58343e-05
5.85279e-05
8.30977e-05
0.000120998
2.77423e-05
3.6248e-05
4.80766e-05
6.19298e-05
8.63824e-05
0.000124281
2.9223e-05
4.03721e-05
5.42793e-05
6.81214e-05
8.94388e-05
0.000125884
3.50434e-05
4.88314e-05
6.38799e-05
7.56643e-05
9.07239e-05
0.000126322
4.44816e-05
5.9652e-05
7.32733e-05
8.0583e-05
8.89285e-05
0.000125537
5.48482e-05
6.84881e-05
7.77235e-05
8.02695e-05
8.43191e-05
0.000122874
6.27026e-05
7.20299e-05
7.63985e-05
7.6479e-05
7.911e-05
0.000117953
6.57939e-05
7.06086e-05
7.22845e-05
7.22721e-05
7.51798e-05
0.000111098
6.46854e-05
6.67984e-05
6.78303e-05
6.89587e-05
7.28025e-05
0.000102175
6.13448e-05
6.29196e-05
6.39108e-05
6.65278e-05
7.20218e-05
9.11605e-05
6.00137e-05
6.39755e-05
6.60629e-05
6.80708e-05
7.21689e-05
8.33839e-05
4.84702e-05
5.31796e-05
5.7977e-05
6.34795e-05
7.28156e-05
9.13908e-05
4.00442e-05
4.51366e-05
5.13497e-05
5.90418e-05
7.26425e-05
9.84921e-05
3.20183e-05
3.80779e-05
4.60816e-05
5.63197e-05
7.37429e-05
0.000104742
2.62174e-05
3.30717e-05
4.29088e-05
5.55495e-05
7.6857e-05
0.000110201
2.22999e-05
3.00717e-05
4.17746e-05
5.67116e-05
8.14576e-05
0.000114508
2.09824e-05
3.01891e-05
4.39406e-05
6.0349e-05
8.53212e-05
0.000117193
2.21841e-05
3.32862e-05
4.93342e-05
6.67529e-05
8.71684e-05
0.00011799
2.59361e-05
3.90731e-05
5.71267e-05
7.35579e-05
8.66717e-05
0.000117206
3.17511e-05
4.62771e-05
6.46572e-05
7.73056e-05
8.38897e-05
0.000114935
3.85283e-05
5.32383e-05
6.95409e-05
7.7965e-05
8.02435e-05
0.000110888
4.53292e-05
5.86582e-05
7.19283e-05
7.73092e-05
7.76561e-05
0.000104592
5.18378e-05
6.28942e-05
7.30089e-05
7.64596e-05
7.68276e-05
9.57962e-05
5.7141e-05
6.64814e-05
7.33165e-05
7.5164e-05
7.68746e-05
8.47512e-05
5.71026e-05
5.82409e-05
6.0566e-05
6.63949e-05
7.5635e-05
9.83861e-05
5.23097e-05
5.28566e-05
5.57861e-05
6.36295e-05
7.78666e-05
0.000110174
4.76067e-05
4.74491e-05
5.09228e-05
6.02809e-05
7.89232e-05
0.000119855
4.04318e-05
4.19152e-05
4.73941e-05
5.80633e-05
7.95387e-05
0.000127274
3.26717e-05
3.69038e-05
4.54248e-05
5.8163e-05
8.09179e-05
0.000132458
2.61753e-05
3.36732e-05
4.56145e-05
6.07779e-05
8.34536e-05
0.000135304
2.30792e-05
3.38058e-05
4.90149e-05
6.58786e-05
8.71775e-05
0.000135796
2.38547e-05
3.84915e-05
5.65815e-05
7.3196e-05
9.05501e-05
0.000134179
2.93282e-05
4.79646e-05
6.71545e-05
8.03177e-05
9.14214e-05
0.000130588
3.92175e-05
5.95448e-05
7.60652e-05
8.35583e-05
8.87375e-05
0.000125513
5.08231e-05
6.83681e-05
7.90844e-05
8.16179e-05
8.34987e-05
0.000119036
5.99433e-05
7.1406e-05
7.66825e-05
7.69939e-05
7.79361e-05
0.000111521
6.33244e-05
6.91856e-05
7.13594e-05
7.16517e-05
7.31566e-05
0.000102632
6.13457e-05
6.40382e-05
6.47625e-05
6.59884e-05
6.9498e-05
9.20804e-05
5.69057e-05
5.906e-05
6.09861e-05
6.54582e-05
7.2898e-05
9.28601e-05
5.0803e-05
5.30771e-05
5.65228e-05
6.27195e-05
7.48517e-05
0.00010324
4.39549e-05
4.69701e-05
5.18021e-05
5.95426e-05
7.52898e-05
0.000111861
3.52045e-05
3.99592e-05
4.71813e-05
5.7178e-05
7.53731e-05
0.000118466
2.6835e-05
3.315e-05
4.29488e-05
5.60276e-05
7.65689e-05
0.000123078
2.06298e-05
2.80465e-05
4.00239e-05
5.62253e-05
7.93618e-05
0.000126221
1.71977e-05
2.58033e-05
3.98339e-05
5.85971e-05
8.34691e-05
0.000127653
1.63606e-05
2.70779e-05
4.38165e-05
6.42429e-05
8.74269e-05
0.000126903
1.88548e-05
3.27256e-05
5.2474e-05
7.22835e-05
8.8964e-05
0.000124217
2.51077e-05
4.18448e-05
6.27765e-05
7.84572e-05
8.68907e-05
0.000119958
3.4196e-05
5.1446e-05
6.97528e-05
7.93664e-05
8.19502e-05
0.000114039
4.39053e-05
5.84979e-05
7.14557e-05
7.63212e-05
7.69493e-05
0.000106534
5.13432e-05
6.15375e-05
6.90852e-05
7.14299e-05
7.26796e-05
9.75486e-05
5.42394e-05
6.05422e-05
6.38694e-05
6.54232e-05
6.89158e-05
8.70546e-05
5.98332e-05
6.65939e-05
7.0785e-05
7.32871e-05
7.65211e-05
8.51125e-05
4.78234e-05
5.55769e-05
6.33356e-05
7.02283e-05
7.81353e-05
9.48016e-05
3.78847e-05
4.64185e-05
5.62549e-05
6.60623e-05
7.74398e-05
0.000103101
2.85504e-05
3.72993e-05
4.88552e-05
6.1786e-05
7.65211e-05
0.000109614
2.10208e-05
2.93674e-05
4.19774e-05
5.75778e-05
7.62281e-05
0.00011443
1.60209e-05
2.36644e-05
3.61607e-05
5.36984e-05
7.66399e-05
0.000117788
1.29147e-05
2.01606e-05
3.24533e-05
5.13923e-05
7.84945e-05
0.000119462
1.12455e-05
1.851e-05
3.13483e-05
5.20467e-05
8.07697e-05
0.000118819
1.10794e-05
1.92827e-05
3.39341e-05
5.62793e-05
8.20824e-05
0.000115957
1.29479e-05
2.2611e-05
3.96765e-05
6.21995e-05
8.14792e-05
0.000111348
1.70309e-05
2.79003e-05
4.62748e-05
6.62753e-05
7.87488e-05
0.00010543
2.29419e-05
3.40254e-05
5.15511e-05
6.78038e-05
7.58277e-05
9.85477e-05
2.96846e-05
4.0177e-05
5.4996e-05
6.71198e-05
7.33753e-05
9.04159e-05
3.56502e-05
4.51447e-05
5.63331e-05
6.43788e-05
7.11687e-05
8.05981e-05
9.18663e-05
8.43037e-05
8.19524e-05
8.1005e-05
8.01883e-05
7.79731e-05
0.000103584
9.25084e-05
9.14946e-05
9.06342e-05
8.74988e-05
8.21008e-05
0.000114584
0.000102691
9.97091e-05
9.5554e-05
8.67805e-05
7.55914e-05
0.000124576
0.000111925
0.000102286
9.06231e-05
7.45088e-05
5.86277e-05
0.000132355
0.000115165
9.40485e-05
7.43684e-05
5.46788e-05
3.87588e-05
0.000137016
0.000108361
7.68049e-05
5.40374e-05
3.60294e-05
2.31152e-05
0.000138663
9.4344e-05
5.94e-05
3.8323e-05
2.38571e-05
1.39745e-05
0.000137308
7.98463e-05
4.75844e-05
3.00053e-05
1.8548e-05
1.05201e-05
0.000133914
6.94624e-05
4.19127e-05
2.78526e-05
1.85196e-05
1.10701e-05
0.000129295
6.46571e-05
4.12075e-05
3.04381e-05
2.3032e-05
1.53375e-05
0.0001232
6.39829e-05
4.4258e-05
3.63325e-05
3.12686e-05
2.44163e-05
0.000115532
6.55593e-05
4.9557e-05
4.37314e-05
4.08839e-05
3.63947e-05
0.000105989
6.7463e-05
5.58478e-05
5.15261e-05
4.98218e-05
4.70796e-05
9.45498e-05
6.77016e-05
6.08812e-05
5.81764e-05
5.76557e-05
5.59001e-05
8.9354e-05
7.92568e-05
7.62674e-05
7.54438e-05
7.33981e-05
6.90615e-05
0.000101411
8.81782e-05
8.65829e-05
8.37369e-05
7.66489e-05
6.82805e-05
0.000112567
9.88924e-05
9.43628e-05
8.53686e-05
7.10543e-05
5.8093e-05
0.00012172
0.000108936
9.4962e-05
7.70541e-05
5.69983e-05
4.22521e-05
0.000128251
0.000112541
8.4421e-05
6.0209e-05
3.9735e-05
2.6634e-05
0.000131338
0.000105154
6.68046e-05
4.22336e-05
2.54376e-05
1.52245e-05
0.000131399
9.09071e-05
5.08266e-05
2.94156e-05
1.66822e-05
8.97453e-06
0.000129218
7.66506e-05
4.10784e-05
2.34543e-05
1.32568e-05
6.90244e-06
0.000125072
6.61836e-05
3.7306e-05
2.27884e-05
1.38143e-05
7.58869e-06
0.000119861
6.08519e-05
3.80523e-05
2.61788e-05
1.78228e-05
1.07167e-05
0.00011431
5.99007e-05
4.17945e-05
3.26519e-05
2.55625e-05
1.7808e-05
0.000107485
6.18676e-05
4.73535e-05
4.08208e-05
3.56321e-05
2.8729e-05
9.89828e-05
6.47331e-05
5.39242e-05
4.9364e-05
4.5859e-05
4.03813e-05
8.88118e-05
6.60293e-05
5.98299e-05
5.7512e-05
5.61314e-05
5.20132e-05
8.27567e-05
7.52299e-05
7.00569e-05
6.50689e-05
5.63961e-05
4.79087e-05
9.50733e-05
8.29499e-05
7.58752e-05
6.55536e-05
5.16504e-05
4.1405e-05
0.000105647
9.09087e-05
7.78585e-05
6.04712e-05
4.23783e-05
3.14469e-05
0.00011412
9.82732e-05
7.41168e-05
5.04395e-05
3.13473e-05
2.13025e-05
0.000120051
9.91557e-05
6.3854e-05
3.79329e-05
2.12551e-05
1.31508e-05
0.000122923
9.1962e-05
5.06996e-05
2.68455e-05
1.40569e-05
7.71951e-06
0.000122736
8.04167e-05
4.00076e-05
1.9932e-05
1.01545e-05
4.97246e-06
0.000120273
6.98101e-05
3.43913e-05
1.75006e-05
9.04566e-06
4.27217e-06
0.000116232
6.24544e-05
3.31781e-05
1.8129e-05
9.89839e-06
4.87307e-06
0.000111098
5.92413e-05
3.53843e-05
2.13856e-05
1.27664e-05
6.78802e-06
0.000105232
5.91597e-05
3.96499e-05
2.69887e-05
1.83123e-05
1.13924e-05
9.86261e-05
6.13195e-05
4.57762e-05
3.49528e-05
2.64047e-05
1.8849e-05
9.07693e-05
6.50347e-05
5.31219e-05
4.42339e-05
3.60218e-05
2.8232e-05
8.133e-05
6.76551e-05
6.0617e-05
5.4691e-05
4.74413e-05
3.92417e-05
9.17872e-05
8.79227e-05
8.02919e-05
7.35286e-05
6.97523e-05
6.79641e-05
0.000102625
9.24613e-05
8.54954e-05
8.00521e-05
7.71737e-05
7.59861e-05
0.000112381
9.92183e-05
9.22756e-05
8.78144e-05
8.51284e-05
8.30297e-05
0.00012129
0.000107315
9.88658e-05
9.37558e-05
8.87295e-05
8.27107e-05
0.000128522
0.000113427
0.000100305
9.14456e-05
8.12806e-05
7.04052e-05
0.000133147
0.000113161
9.15602e-05
7.77598e-05
6.39079e-05
5.16092e-05
0.000135028
0.000105677
7.59397e-05
5.93235e-05
4.55434e-05
3.50213e-05
0.000134746
9.46189e-05
6.16506e-05
4.52346e-05
3.36198e-05
2.52765e-05
0.000132579
8.45131e-05
5.30296e-05
3.84422e-05
2.92781e-05
2.2594e-05
0.000128508
7.82267e-05
5.00506e-05
3.81345e-05
3.15859e-05
2.64427e-05
0.000122713
7.69516e-05
5.24863e-05
4.30205e-05
3.88808e-05
3.53122e-05
0.000114995
7.84539e-05
5.89807e-05
5.15205e-05
4.91002e-05
4.72572e-05
0.000105256
8.01275e-05
6.72311e-05
6.17766e-05
5.99206e-05
5.84162e-05
9.35069e-05
7.95282e-05
7.36589e-05
7.09316e-05
7.04238e-05
6.94984e-05
9.05727e-05
8.08451e-05
7.46049e-05
7.03462e-05
6.79918e-05
6.62689e-05
0.00010249
8.61406e-05
8.16253e-05
7.84253e-05
7.57044e-05
7.325e-05
0.000112722
9.41026e-05
9.00899e-05
8.63387e-05
8.12415e-05
7.56541e-05
0.000121009
0.000103984
9.74359e-05
9.01157e-05
7.97469e-05
6.95773e-05
0.000126744
0.000112222
9.77225e-05
8.40501e-05
6.81184e-05
5.5412e-05
0.000129434
0.00011317
8.69109e-05
6.83337e-05
5.10311e-05
3.90103e-05
0.000129227
0.000105173
7.0329e-05
5.05601e-05
3.56639e-05
2.60118e-05
0.000127325
9.34095e-05
5.61896e-05
3.80504e-05
2.63114e-05
1.88474e-05
0.000124336
8.19134e-05
4.79839e-05
3.24982e-05
2.33257e-05
1.72331e-05
0.000119955
7.3397e-05
4.51893e-05
3.283e-05
2.58669e-05
2.06379e-05
0.00011446
6.9637e-05
4.69754e-05
3.76871e-05
3.27357e-05
2.82618e-05
0.000107646
7.02106e-05
5.24447e-05
4.56979e-05
4.25755e-05
3.92998e-05
9.9413e-05
7.23293e-05
6.00987e-05
5.54204e-05
5.33501e-05
5.08062e-05
8.95541e-05
7.31327e-05
6.70976e-05
6.52486e-05
6.51312e-05
6.34103e-05
8.48117e-05
7.61382e-05
7.38422e-05
7.21037e-05
6.77773e-05
6.19648e-05
9.77554e-05
8.25697e-05
8.08936e-05
7.68141e-05
6.84655e-05
6.03377e-05
0.000108459
9.13047e-05
8.74002e-05
7.86747e-05
6.51322e-05
5.38547e-05
0.000115979
0.000100322
9.06795e-05
7.54021e-05
5.6697e-05
4.38989e-05
0.000120721
0.000106205
8.64034e-05
6.48697e-05
4.48672e-05
3.27693e-05
0.000122556
0.000104565
7.38856e-05
5.06586e-05
3.31019e-05
2.29166e-05
0.000121825
9.58749e-05
5.91728e-05
3.77407e-05
2.3999e-05
1.60376e-05
0.000119199
8.50796e-05
4.80853e-05
2.96376e-05
1.9063e-05
1.27973e-05
0.000114993
7.48872e-05
4.26618e-05
2.66785e-05
1.80516e-05
1.26519e-05
0.000109678
6.68639e-05
4.15194e-05
2.80655e-05
2.05013e-05
1.52892e-05
0.000103531
6.28861e-05
4.35285e-05
3.25644e-05
2.56694e-05
2.03506e-05
9.68643e-05
6.29737e-05
4.84085e-05
3.9937e-05
3.36531e-05
2.81607e-05
8.95565e-05
6.57081e-05
5.54346e-05
4.90052e-05
4.33519e-05
3.76992e-05
8.12348e-05
6.8049e-05
6.31699e-05
5.99963e-05
5.58103e-05
4.9892e-05
1.75244e-05
1.29677e-05
9.56862e-06
7.16942e-06
5.92832e-06
5.19524e-06
4.94494e-06
5.21812e-06
6.55481e-06
9.3315e-06
1.36874e-05
1.98003e-05
2.8036e-05
3.82672e-05
1.12526e-05
8.23228e-06
5.89748e-06
4.29251e-06
3.47283e-06
2.99195e-06
2.82048e-06
3.03432e-06
4.09846e-06
6.43419e-06
1.02217e-05
1.54873e-05
2.22042e-05
2.99047e-05
6.66884e-06
4.62964e-06
3.17487e-06
2.24977e-06
1.79082e-06
1.52483e-06
1.4484e-06
1.65602e-06
2.50586e-06
4.38482e-06
7.48514e-06
1.17764e-05
1.71719e-05
2.33926e-05
3.63243e-06
2.24398e-06
1.43783e-06
9.99986e-07
7.91389e-07
6.74921e-07
6.71533e-07
8.75634e-07
1.54738e-06
3.0042e-06
5.4498e-06
8.89968e-06
1.32572e-05
1.83751e-05
1.85275e-06
9.43274e-07
5.44183e-07
3.73063e-07
2.95167e-07
2.60878e-07
2.97803e-07
4.89672e-07
1.02462e-06
2.15254e-06
4.08232e-06
6.88627e-06
1.05402e-05
1.50122e-05
9.81744e-07
3.82516e-07
1.83521e-07
1.18105e-07
9.42309e-08
9.55069e-08
1.48833e-07
3.26251e-07
7.71208e-07
1.68252e-06
3.25407e-06
5.60306e-06
8.75657e-06
1.27515e-05
6.56958e-07
2.02159e-07
7.06531e-08
3.59121e-08
2.95688e-08
4.35526e-08
1.0316e-07
2.7295e-07
6.71724e-07
1.46509e-06
2.82503e-06
4.88675e-06
7.72269e-06
1.14331e-05
6.17717e-07
1.79055e-07
5.11655e-08
1.8987e-08
1.66116e-08
3.56559e-08
1.00454e-07
2.72035e-07
6.56273e-07
1.39683e-06
2.64381e-06
4.52888e-06
7.1485e-06
1.06627e-05
7.37573e-07
2.26168e-07
7.29833e-08
3.25994e-08
2.89341e-08
5.17907e-08
1.24947e-07
3.08554e-07
7.0193e-07
1.43408e-06
2.63767e-06
4.4401e-06
6.9673e-06
1.04673e-05
1.03655e-06
3.53143e-07
1.51782e-07
9.1813e-08
8.20009e-08
1.09301e-07
1.96204e-07
4.02202e-07
8.21889e-07
1.57412e-06
2.78295e-06
4.57906e-06
7.14177e-06
1.08275e-05
1.72848e-06
6.71281e-07
3.66584e-07
2.65125e-07
2.38184e-07
2.70391e-07
3.82175e-07
6.31876e-07
1.1129e-06
1.94663e-06
3.27124e-06
5.23955e-06
8.09212e-06
1.2231e-05
3.36368e-06
1.5023e-06
8.72325e-07
6.97615e-07
6.37837e-07
6.76155e-07
8.34676e-07
1.17489e-06
1.79923e-06
2.85085e-06
4.49549e-06
6.909e-06
1.03493e-05
1.49905e-05
6.36129e-06
3.21065e-06
1.95527e-06
1.6197e-06
1.52553e-06
1.58211e-06
1.82642e-06
2.33402e-06
3.22968e-06
4.68929e-06
6.92329e-06
1.01438e-05
1.47156e-05
2.00992e-05
1.01158e-05
6.02056e-06
4.071e-06
3.37439e-06
3.23015e-06
3.34215e-06
3.72593e-06
4.48712e-06
5.78089e-06
7.83192e-06
1.09347e-05
1.55597e-05
2.19801e-05
2.91594e-05
7.92926e-06
6.2446e-06
5.00761e-06
4.05762e-06
3.64892e-06
3.42644e-06
3.37359e-06
3.46573e-06
3.9414e-06
5.11705e-06
7.27462e-06
1.05046e-05
1.52154e-05
2.23332e-05
4.6564e-06
3.53595e-06
2.74412e-06
2.19112e-06
1.95966e-06
1.82935e-06
1.79743e-06
1.87885e-06
2.27001e-06
3.26796e-06
5.18422e-06
8.20903e-06
1.25898e-05
1.87199e-05
2.58851e-06
1.77248e-06
1.30182e-06
1.03318e-06
9.22715e-07
8.59447e-07
8.5493e-07
9.46704e-07
1.28975e-06
2.13479e-06
3.77346e-06
6.42094e-06
1.02375e-05
1.53842e-05
1.3759e-06
7.80422e-07
5.30556e-07
4.16211e-07
3.72165e-07
3.49909e-07
3.65721e-07
4.61449e-07
7.56651e-07
1.45077e-06
2.798e-06
5.02121e-06
8.26157e-06
1.26195e-05
7.3608e-07
3.21372e-07
1.89461e-07
1.42972e-07
1.27633e-07
1.25343e-07
1.51141e-07
2.43852e-07
4.96813e-07
1.06904e-06
2.17708e-06
4.0412e-06
6.824e-06
1.06536e-05
4.48594e-07
1.477e-07
6.55306e-08
4.33049e-08
3.84247e-08
4.39015e-08
7.30727e-08
1.61556e-07
3.87363e-07
8.83436e-07
1.83484e-06
3.44553e-06
5.89049e-06
9.31863e-06
3.46263e-07
9.69657e-08
2.97668e-08
1.37859e-08
1.22401e-08
2.06146e-08
5.17459e-08
1.40317e-07
3.57525e-07
8.21706e-07
1.69498e-06
3.16043e-06
5.39195e-06
8.55465e-06
3.42661e-07
9.48295e-08
2.51441e-08
8.62598e-09
7.90038e-09
1.81602e-08
5.26896e-08
1.47138e-07
3.70764e-07
8.33501e-07
1.67969e-06
3.07029e-06
5.16433e-06
8.12992e-06
4.01888e-07
1.18194e-07
3.62873e-08
1.61202e-08
1.50578e-08
2.76315e-08
6.81594e-08
1.74462e-07
4.16363e-07
8.98725e-07
1.75209e-06
3.1192e-06
5.14639e-06
8.01261e-06
5.2934e-07
1.79079e-07
7.69856e-08
4.77209e-08
4.4402e-08
6.01918e-08
1.10146e-07
2.3417e-07
5.02528e-07
1.0155e-06
1.89104e-06
3.25577e-06
5.25078e-06
8.0879e-06
7.91186e-07
3.36473e-07
1.9666e-07
1.46038e-07
1.34375e-07
1.53911e-07
2.19448e-07
3.71031e-07
6.77672e-07
1.23551e-06
2.15402e-06
3.55385e-06
5.59696e-06
8.54515e-06
1.39567e-06
7.10486e-07
4.98818e-07
4.09014e-07
3.77003e-07
3.9897e-07
4.9007e-07
6.88552e-07
1.0603e-06
1.70133e-06
2.72322e-06
4.24684e-06
6.44453e-06
9.59895e-06
2.64481e-06
1.48715e-06
1.14792e-06
1.01065e-06
9.50271e-07
9.76975e-07
1.11312e-06
1.39978e-06
1.90334e-06
2.72933e-06
4.00297e-06
5.84505e-06
8.39496e-06
1.17977e-05
4.51719e-06
2.92878e-06
2.36228e-06
2.18126e-06
2.11775e-06
2.17813e-06
2.40087e-06
2.84914e-06
3.60656e-06
4.81293e-06
6.60903e-06
9.11929e-06
1.2511e-05
1.64757e-05
3.33342e-06
2.64978e-06
2.26166e-06
1.99995e-06
1.94388e-06
1.94529e-06
1.9977e-06
2.08022e-06
2.28218e-06
2.75885e-06
3.75798e-06
5.46461e-06
8.15224e-06
1.24897e-05
1.80465e-06
1.3259e-06
1.09816e-06
9.65881e-07
9.45551e-07
9.50247e-07
9.79528e-07
1.03725e-06
1.20015e-06
1.60955e-06
2.49289e-06
4.08204e-06
6.6612e-06
1.0665e-05
9.42057e-07
5.96428e-07
4.66541e-07
4.06992e-07
4.0099e-07
4.05483e-07
4.25265e-07
4.75428e-07
6.19996e-07
9.79335e-07
1.74983e-06
3.16982e-06
5.51005e-06
9.0986e-06
4.98972e-07
2.49173e-07
1.73477e-07
1.47581e-07
1.45572e-07
1.49567e-07
1.658e-07
2.11366e-07
3.37076e-07
6.42154e-07
1.29417e-06
2.52077e-06
4.58021e-06
7.747e-06
2.93567e-07
1.07926e-07
5.9016e-08
4.63294e-08
4.52431e-08
4.89014e-08
6.33524e-08
1.05119e-07
2.16158e-07
4.80266e-07
1.04178e-06
2.10864e-06
3.92555e-06
6.75316e-06
2.06731e-07
5.91997e-08
2.17999e-08
1.34063e-08
1.2707e-08
1.63344e-08
2.99093e-08
6.95601e-08
1.73408e-07
4.17154e-07
9.29226e-07
1.89488e-06
3.53516e-06
6.09305e-06
1.76786e-07
4.64754e-08
1.23e-08
4.66677e-09
4.20363e-09
8.14869e-09
2.22358e-08
6.33349e-08
1.69554e-07
4.13955e-07
9.14556e-07
1.83601e-06
3.37412e-06
5.74939e-06
1.81918e-07
4.82384e-08
1.18275e-08
3.65369e-09
3.32806e-09
8.06234e-09
2.42849e-08
7.06273e-08
1.87252e-07
4.46897e-07
9.5981e-07
1.87241e-06
3.35625e-06
5.59948e-06
2.13316e-07
5.94922e-08
1.72037e-08
7.53971e-09
7.23558e-09
1.33694e-08
3.35718e-08
8.90075e-08
2.22921e-07
5.08669e-07
1.05075e-06
1.98025e-06
3.44917e-06
5.62198e-06
2.73154e-07
8.89906e-08
3.74633e-08
2.36179e-08
2.25919e-08
3.08718e-08
5.72184e-08
1.2537e-07
2.81394e-07
5.99113e-07
1.17803e-06
2.13543e-06
3.60504e-06
5.74045e-06
3.94613e-07
1.7213e-07
1.02052e-07
7.68071e-08
7.17635e-08
8.27439e-08
1.18929e-07
2.052e-07
3.89025e-07
7.43936e-07
1.36409e-06
2.35509e-06
3.8411e-06
5.98905e-06
6.73484e-07
3.85807e-07
2.7856e-07
2.28781e-07
2.11379e-07
2.23825e-07
2.7573e-07
3.90369e-07
6.1295e-07
1.01554e-06
1.68892e-06
2.73352e-06
4.27342e-06
6.4982e-06
1.24086e-06
8.50679e-07
6.85971e-07
5.99553e-07
5.59414e-07
5.71988e-07
6.49639e-07
8.13866e-07
1.1049e-06
1.5936e-06
2.37108e-06
3.53798e-06
5.21552e-06
7.60484e-06
2.23884e-06
1.71406e-06
1.473e-06
1.36052e-06
1.30815e-06
1.33469e-06
1.46242e-06
1.71986e-06
2.14844e-06
2.82349e-06
3.8289e-06
5.25073e-06
7.17194e-06
9.72645e-06
1.41623e-06
1.09474e-06
9.3779e-07
8.72955e-07
9.01682e-07
9.58112e-07
1.03417e-06
1.1202e-06
1.25559e-06
1.51524e-06
2.04142e-06
2.98311e-06
4.5435e-06
7.1455e-06
7.18554e-07
4.96002e-07
4.08838e-07
3.80768e-07
3.97927e-07
4.26962e-07
4.64878e-07
5.12366e-07
6.03073e-07
8.06752e-07
1.25112e-06
2.09773e-06
3.56872e-06
6.01768e-06
3.65613e-07
2.05961e-07
1.5707e-07
1.44954e-07
1.52624e-07
1.65587e-07
1.84377e-07
2.1481e-07
2.84933e-07
4.54464e-07
8.32982e-07
1.57769e-06
2.90824e-06
5.14451e-06
2.01245e-07
8.38605e-08
5.38417e-08
4.77368e-08
5.02199e-08
5.561e-08
6.5892e-08
8.81992e-08
1.44974e-07
2.85244e-07
6.02027e-07
1.24324e-06
2.42483e-06
4.4504e-06
1.29399e-07
3.92733e-08
1.79137e-08
1.38464e-08
1.43056e-08
1.68234e-08
2.36494e-08
4.19043e-08
9.06386e-08
2.11986e-07
4.87836e-07
1.0559e-06
2.12181e-06
3.97069e-06
9.90668e-08
2.52679e-08
7.50867e-09
3.94134e-09
3.82464e-09
5.50549e-09
1.12005e-08
2.80269e-08
7.40548e-08
1.89001e-07
4.49475e-07
9.83836e-07
1.97937e-06
3.68959e-06
8.97695e-08
2.22675e-08
5.21545e-09
1.58463e-09
1.37028e-09
3.01213e-09
8.91622e-09
2.68641e-08
7.59589e-08
1.96836e-07
4.64182e-07
9.97932e-07
1.96609e-06
3.58971e-06
9.55261e-08
2.39305e-08
5.39324e-09
1.49636e-09
1.32936e-09
3.34092e-09
1.04492e-08
3.17559e-08
8.86412e-08
2.24108e-07
5.1171e-07
1.06268e-06
2.02649e-06
3.59245e-06
1.13122e-07
2.93593e-08
7.84356e-09
3.32765e-09
3.24417e-09
6.00443e-09
1.53615e-08
4.23038e-08
1.11247e-07
2.68115e-07
5.85842e-07
1.16746e-06
2.14735e-06
3.69274e-06
1.44284e-07
4.40154e-08
1.76523e-08
1.11201e-08
1.08469e-08
1.48814e-08
2.78442e-08
6.28292e-08
1.47315e-07
3.29838e-07
6.82974e-07
1.3029e-06
2.31297e-06
3.86612e-06
2.10267e-07
8.92461e-08
5.17208e-08
3.87287e-08
3.65417e-08
4.24625e-08
6.14564e-08
1.08027e-07
2.11969e-07
4.23859e-07
8.16377e-07
1.48139e-06
2.5343e-06
4.12028e-06
3.72779e-07
2.14982e-07
1.522e-07
1.23039e-07
1.13594e-07
1.21158e-07
1.50697e-07
2.16203e-07
3.47597e-07
5.96748e-07
1.03757e-06
1.76101e-06
2.87748e-06
4.53264e-06
7.24895e-07
5.06103e-07
3.9966e-07
3.40981e-07
3.1521e-07
3.23202e-07
3.7078e-07
4.70527e-07
6.49862e-07
9.60009e-07
1.47553e-06
2.28758e-06
3.50796e-06
5.29678e-06
1.37242e-06
1.06858e-06
9.03865e-07
8.13918e-07
7.71108e-07
7.84396e-07
8.64451e-07
1.02596e-06
1.29576e-06
1.72163e-06
2.36745e-06
3.31333e-06
4.65858e-06
6.58961e-06
6.7092e-07
4.88489e-07
3.95802e-07
3.62884e-07
3.77665e-07
4.14515e-07
4.69041e-07
5.36207e-07
6.36733e-07
8.12357e-07
1.14679e-06
1.74251e-06
2.73879e-06
4.41497e-06
3.2058e-07
2.01493e-07
1.55705e-07
1.42953e-07
1.50532e-07
1.66859e-07
1.90658e-07
2.22606e-07
2.80125e-07
4.01387e-07
6.60291e-07
1.16121e-06
2.05502e-06
3.5926e-06
1.5922e-07
7.75594e-08
5.39927e-08
4.89756e-08
5.19089e-08
5.81499e-08
6.82188e-08
8.52183e-08
1.23264e-07
2.14106e-07
4.19513e-07
8.36768e-07
1.61388e-06
2.98409e-06
8.95691e-08
3.10866e-08
1.70789e-08
1.45783e-08
1.5388e-08
1.76224e-08
2.22758e-08
3.28418e-08
6.03267e-08
1.29954e-07
2.9289e-07
6.38202e-07
1.31017e-06
2.53574e-06
6.07192e-08
1.59085e-08
5.73284e-09
3.91575e-09
4.00024e-09
4.93687e-09
7.67221e-09
1.54637e-08
3.73682e-08
9.45679e-08
2.31578e-07
5.3109e-07