/*--------------------------------*- C++ -*----------------------------------*\
| =========                 |                                                 |
| \\      /  F ield         | OpenFOAM: The Open Source CFD Toolbox           |
|  \\    /   O peration     | Version:  v2106                                 |
|   \\  /    A nd           | Website:  www.openfoam.com                      |
|    \\/     M anipulation  |                                                 |
\*---------------------------------------------------------------------------*/
FoamFile
{
    version     2.0;
    format      ascii;
    arch        "LSB;label=32;scalar=64";
    class       volScalarField;
    location    "0.000185";
    object      rho;
}
// * * * * * * * * * * * * * * * * * * * * * * * * * * * * * * * * * * * * * //

dimensions      [1 -3 0 0 0 0 0];

internalField   nonuniform List<scalar> 
144746
(
2.38768
2.38491
2.37994
2.37631
2.37358
2.371
2.36636
2.36332
2.35905
2.35394
2.34996
2.34879
2.34597
2.35225
2.38212
2.38059
2.37649
2.37362
2.37084
2.36737
2.36345
2.35933
2.35489
2.34923
2.34589
2.34506
2.34489
2.35089
2.38462
2.38027
2.37575
2.37163
2.36838
2.36469
2.3613
2.35701
2.35229
2.34657
2.34353
2.34214
2.34103
2.34536
2.3843
2.37771
2.37268
2.36865
2.36548
2.36239
2.35926
2.3549
2.35021
2.34484
2.34229
2.34125
2.34121
2.34472
2.38452
2.3772
2.37153
2.36687
2.36355
2.36076
2.35758
2.35346
2.34909
2.34475
2.3426
2.34169
2.34209
2.34579
2.38336
2.37598
2.37031
2.3661
2.36267
2.35981
2.35634
2.35243
2.34851
2.34516
2.34315
2.34248
2.34341
2.34719
2.38271
2.37613
2.37045
2.36559
2.36195
2.35876
2.35521
2.35153
2.34797
2.34543
2.34422
2.3442
2.34555
2.34858
2.38328
2.37668
2.37084
2.36585
2.36197
2.35846
2.35483
2.35119
2.34785
2.34556
2.34453
2.34447
2.34582
2.3494
2.38315
2.37669
2.3708
2.36586
2.36192
2.35838
2.35483
2.35117
2.34782
2.34561
2.34465
2.3447
2.34634
2.3493
2.38413
2.37773
2.37155
2.36612
2.36186
2.35824
2.3547
2.351
2.34767
2.34548
2.3444
2.34425
2.34575
2.34884
2.38503
2.37879
2.37267
2.36678
2.36229
2.35844
2.35504
2.35156
2.34838
2.3462
2.34499
2.34463
2.34584
2.34811
2.38737
2.3807
2.37553
2.36916
2.3641
2.36027
2.35711
2.35364
2.35042
2.34835
2.34743
2.34729
2.34855
2.34972
2.38962
2.38222
2.37785
2.37217
2.36758
2.3638
2.36081
2.35723
2.3538
2.35126
2.34967
2.34824
2.34926
2.34789
2.39049
2.3805
2.38
2.37615
2.37324
2.36907
2.36703
2.36317
2.35961
2.35703
2.35548
2.35456
2.35831
2.3573
2.39049
2.38934
2.38646
2.38462
2.38343
2.38116
2.37857
2.37619
2.37281
2.36881
2.36566
2.36476
2.36111
2.36385
2.38665
2.38585
2.38356
2.38205
2.38057
2.37814
2.37588
2.37304
2.36947
2.36563
2.36272
2.36196
2.36009
2.3632
2.38551
2.38276
2.3805
2.37849
2.37688
2.37465
2.3728
2.37001
2.36663
2.36373
2.36143
2.36078
2.35911
2.36084
2.38212
2.37874
2.37657
2.3745
2.37274
2.37117
2.36979
2.36753
2.3649
2.36263
2.36108
2.36122
2.36096
2.3622
2.37952
2.37613
2.37376
2.37201
2.37019
2.36905
2.36778
2.36591
2.36415
2.36238
2.36165
2.36233
2.36303
2.36472
2.37822
2.37505
2.3727
2.37055
2.36885
2.36755
2.36638
2.36479
2.36372
2.36259
2.36267
2.36393
2.36537
2.3674
2.37816
2.37501
2.37253
2.37018
2.36834
2.36681
2.36549
2.364
2.36327
2.3627
2.36329
2.36483
2.36649
2.36845
2.37874
2.37546
2.37276
2.37021
2.36816
2.36658
2.3652
2.36366
2.36309
2.36286
2.36391
2.36556
2.36741
2.36956
2.37975
2.37591
2.37279
2.37023
2.36825
2.36672
2.36521
2.36353
2.36291
2.36265
2.36354
2.36513
2.36709
2.36948
2.38223
2.37803
2.37411
2.37081
2.36868
2.3671
2.36538
2.36346
2.36291
2.36233
2.36298
2.3643
2.36586
2.36832
2.38411
2.37983
2.37571
2.37232
2.36993
2.36798
2.36594
2.36358
2.36301
2.36211
2.36243
2.36318
2.36432
2.36665
2.38714
2.38226
2.37874
2.3745
2.37201
2.3695
2.36698
2.36461
2.36388
2.36312
2.36322
2.36383
2.36477
2.36662
2.38871
2.38357
2.38112
2.37765
2.37501
2.37237
2.36942
2.36727
2.36539
2.36428
2.36336
2.36261
2.36277
2.36235
2.38942
2.38393
2.38453
2.38188
2.37929
2.37642
2.37309
2.37126
2.36833
2.36692
2.36529
2.36467
2.3656
2.36569
2.40988
2.40771
2.40485
2.40238
2.40044
2.39676
2.39361
2.38959
2.38525
2.3817
2.37978
2.37781
2.37589
2.37494
2.40492
2.40236
2.39916
2.39649
2.39437
2.39134
2.38855
2.38473
2.38088
2.37774
2.37607
2.3752
2.37413
2.37346
2.40047
2.39726
2.39389
2.39079
2.38859
2.38577
2.38307
2.37952
2.3763
2.37374
2.37267
2.3721
2.37102
2.37002
2.39703
2.39335
2.38971
2.38687
2.38422
2.38159
2.37899
2.37579
2.37291
2.37054
2.36975
2.36971
2.36968
2.36884
2.39475
2.39124
2.38791
2.38471
2.38183
2.37903
2.37632
2.37318
2.3706
2.36862
2.36854
2.3691
2.36967
2.36922
2.39392
2.39023
2.38685
2.38363
2.38067
2.37765
2.37483
2.37181
2.36938
2.36761
2.36758
2.36833
2.36938
2.3696
2.39343
2.38975
2.38648
2.38301
2.37996
2.3768
2.37387
2.37106
2.36891
2.36773
2.36791
2.36902
2.3697
2.36981
2.39341
2.38962
2.38611
2.3826
2.37951
2.37638
2.37341
2.37076
2.36878
2.36783
2.3684
2.36956
2.37029
2.37061
2.39392
2.38953
2.38585
2.38243
2.37911
2.37606
2.37314
2.37072
2.36893
2.36832
2.36908
2.37028
2.37098
2.37122
2.39546
2.39018
2.38612
2.38239
2.37882
2.37575
2.37293
2.37073
2.36917
2.36891
2.36956
2.37054
2.37107
2.37104
2.39722
2.39132
2.38704
2.38301
2.37922
2.37607
2.37319
2.37102
2.3696
2.36949
2.36987
2.37041
2.37062
2.37038
2.40008
2.3928
2.38847
2.38409
2.38003
2.37679
2.37406
2.37198
2.37079
2.37059
2.37089
2.37138
2.37144
2.37103
2.40256
2.39547
2.39126
2.38674
2.38261
2.3791
2.37631
2.37412
2.37299
2.37209
2.37148
2.37089
2.37093
2.36974
2.40418
2.39701
2.39399
2.38983
2.38572
2.38202
2.37933
2.37734
2.3764
2.37516
2.37425
2.37408
2.37374
2.37323
2.3662
2.37753
2.38027
2.38929
2.39262
2.40393
2.34811
2.36153
2.37094
2.38735
2.39283
2.4118
2.34768
2.3629
2.37346
2.39233
2.39892
2.42379
2.34751
2.36099
2.37185
2.39305
2.40342
2.43517
2.3497
2.36253
2.37432
2.39686
2.40845
2.44325
2.35205
2.36381
2.37472
2.39752
2.41066
2.4455
2.35271
2.36467
2.37692
2.39988
2.41201
2.44551
2.35418
2.36535
2.37717
2.39836
2.41177
2.44085
2.35405
2.36447
2.37584
2.39446
2.40884
2.43493
2.3539
2.36312
2.37358
2.38883
2.39977
2.42377
2.35368
2.36216
2.37145
2.3839
2.39165
2.41304
2.35415
2.36108
2.37021
2.38108
2.38655
2.40413
2.35762
2.36491
2.37246
2.38127
2.38621
2.40038
2.35676
2.36349
2.37503
2.3874
2.39187
2.40373
2.37318
2.38016
2.3779
2.3807
2.378
2.38892
2.35655
2.36443
2.36766
2.37935
2.37741
2.39661
2.35905
2.36667
2.37096
2.38537
2.38356
2.40838
2.36146
2.36761
2.37277
2.38801
2.3876
2.41928
2.36547
2.37158
2.37791
2.39349
2.39326
2.42714
2.36904
2.37511
2.38114
2.39578
2.39958
2.4284
2.37022
2.37706
2.38466
2.39961
2.40396
2.42901
2.37177
2.37815
2.38579
2.40002
2.40397
2.42529
2.37175
2.37783
2.38486
2.39716
2.40118
2.42242
2.37068
2.37563
2.38077
2.38991
2.39163
2.41208
2.36898
2.37222
2.37575
2.38241
2.38003
2.39964
2.36701
2.36775
2.36939
2.37531
2.37083
2.38866
2.36494
2.36526
2.36755
2.37277
2.36841
2.38239
2.357
2.3561
2.36183
2.37133
2.37007
2.38056
2.38448
2.39211
2.39089
2.39047
2.39101
2.3992
2.36426
2.36817
2.37138
2.38034
2.38521
2.40539
2.36494
2.36626
2.36957
2.38071
2.38805
2.41394
2.36481
2.3637
2.36655
2.37925
2.38812
2.41729
2.36665
2.3651
2.36764
2.38077
2.39012
2.41951
2.36839
2.36749
2.36959
2.382
2.39229
2.41743
2.36882
2.36893
2.37212
2.38579
2.39544
2.41569
2.37001
2.37156
2.37539
2.38833
2.3956
2.4125
2.37123
2.37281
2.37711
2.38898
2.39449
2.41124
2.37118
2.37264
2.37663
2.38653
2.39122
2.41041
2.37072
2.37187
2.37539
2.3827
2.38512
2.40656
2.37058
2.37082
2.37263
2.3763
2.37794
2.39884
2.37101
2.36942
2.37011
2.3747
2.37716
2.39293
2.36256
2.35831
2.36017
2.36781
2.37508
2.38733
2.36895
2.38221
2.38557
2.39517
2.39814
2.40989
2.35174
2.36613
2.37558
2.39423
2.40182
2.42297
2.35463
2.36982
2.37923
2.39992
2.40868
2.43658
2.35768
2.37156
2.38202
2.40338
2.41342
2.44572
2.36239
2.37653
2.389
2.41086
2.41954
2.45558
2.36656
2.38033
2.39303
2.41441
2.42392
2.45984
2.37107
2.38514
2.39762
2.41893
2.42918
2.46284
2.37475
2.38785
2.40005
2.42087
2.43135
2.46013
2.37719
2.39013
2.40218
2.42178
2.43139
2.45795
2.37986
2.3904
2.40142
2.41902
2.42859
2.45362
2.38154
2.39029
2.40025
2.41468
2.42522
2.44999
2.38384
2.39015
2.39821
2.41122
2.42171
2.441
2.38581
2.3916
2.40014
2.41189
2.41965
2.43513
2.38407
2.38978
2.39909
2.41199
2.41859
2.43077
2.37007
2.37731
2.37626
2.37927
2.37606
2.38673
2.35625
2.36285
2.36558
2.37782
2.37748
2.39799
2.36081
2.36632
2.36956
2.38413
2.38454
2.41067
2.36394
2.3687
2.37294
2.38781
2.39013
2.41975
2.36857
2.37386
2.38029
2.39627
2.39869
2.43087
2.37176
2.37818
2.38599
2.40177
2.40608
2.43716
2.37634
2.3839
2.39219
2.40874
2.41556
2.44329
2.37805
2.38746
2.39654
2.41374
2.42111
2.44268
2.38221
2.39205
2.40109
2.41739
2.42273
2.44214
2.38493
2.39359
2.40192
2.41655
2.42036
2.44068
2.38663
2.3938
2.40043
2.41228
2.41428
2.43676
2.38745
2.39226
2.39602
2.40483
2.40668
2.4276
2.38809
2.39046
2.39291
2.40017
2.40299
2.42316
2.38088
2.38241
2.3863
2.3966
2.40024
2.4064
2.3784
2.38571
2.3856
2.38628
2.38579
2.39558
2.3663
2.36869
2.36997
2.3772
2.38117
2.40318
2.37103
2.37175
2.37202
2.38045
2.38702
2.41388
2.37386
2.37461
2.37519
2.38426
2.39151
2.41989
2.37737
2.37892
2.38116
2.39186
2.39987
2.43
2.37966
2.38232
2.38632
2.39839
2.4076
2.43423
2.38129
2.3866
2.39276
2.40663
2.4168
2.44231
2.38339
2.3895
2.39837
2.41453
2.42515
2.44589
2.38701
2.39542
2.40487
2.42194
2.43227
2.45199
2.39118
2.40038
2.4095
2.42613
2.43491
2.45406
2.39565
2.40385
2.41219
2.42672
2.4341
2.45531
2.4
2.4063
2.41325
2.42413
2.42912
2.4498
2.40328
2.40782
2.41264
2.41969
2.42467
2.44659
2.39771
2.40223
2.4066
2.41328
2.4168
2.42586
2.42822
2.41754
2.40909
2.40028
2.38979
2.38607
2.43862
2.42318
2.41388
2.4048
2.39587
2.3914
2.44886
2.42621
2.4159
2.40531
2.3966
2.39097
2.4551
2.43106
2.4217
2.40866
2.39934
2.39212
2.45632
2.43241
2.42363
2.41018
2.40073
2.39184
2.45837
2.4326
2.4253
2.41139
2.40229
2.39135
2.45656
2.42979
2.42311
2.40869
2.39961
2.38974
2.45422
2.42721
2.42075
2.40798
2.40001
2.39058
2.44818
2.42207
2.41807
2.40546
2.39782
2.38981
2.44492
2.41752
2.41684
2.40424
2.39689
2.3896
2.43709
2.41498
2.41455
2.40184
2.39525
2.38818
2.43331
2.41473
2.41514
2.40247
2.39666
2.38775
2.43084
2.41543
2.41475
2.40226
2.39578
2.3838
2.42953
2.42046
2.41919
2.41256
2.41011
2.39786
2.41161
2.40799
2.40005
2.39166
2.38431
2.3841
2.42936
2.41201
2.40457
2.39787
2.39339
2.39193
2.43742
2.41658
2.40927
2.39922
2.39289
2.389
2.44026
2.42166
2.41403
2.40146
2.39321
2.3871
2.43888
2.4242
2.41488
2.40102
2.39193
2.38442
2.43696
2.42279
2.41374
2.39979
2.3913
2.38319
2.43219
2.41647
2.40891
2.39646
2.38943
2.38276
2.42432
2.40784
2.40286
2.39395
2.38857
2.38308
2.41872
2.39951
2.39823
2.39138
2.38835
2.38415
2.41643
2.3927
2.39426
2.38914
2.38767
2.38538
2.40838
2.39133
2.39321
2.38765
2.387
2.3858
2.40633
2.39065
2.39456
2.38832
2.38775
2.3866
2.40567
2.39143
2.39567
2.3891
2.38747
2.3841
2.40741
2.40112
2.40331
2.40155
2.40184
2.39608
2.4321
2.42993
2.42305
2.41373
2.40712
2.40519
2.44847
2.44045
2.43283
2.42287
2.41544
2.41136
2.44612
2.44094
2.43137
2.42095
2.41134
2.40611
2.44197
2.44162
2.42903
2.41977
2.40866
2.40323
2.43355
2.43514
2.42339
2.4152
2.40535
2.39957
2.42354
2.42818
2.41697
2.411
2.40387
2.3982
2.41281
2.4193
2.41032
2.40738
2.40248
2.39762
2.40619
2.41338
2.40646
2.40513
2.40156
2.39783
2.4064
2.40957
2.40569
2.40565
2.40256
2.39866
2.40685
2.40829
2.40609
2.40569
2.40423
2.4009
2.41062
2.40677
2.40559
2.40565
2.40522
2.40181
2.41465
2.40858
2.40939
2.40853
2.40767
2.40319
2.41828
2.411
2.41341
2.41016
2.40811
2.40198
2.42403
2.42183
2.42417
2.42266
2.4208
2.41313
2.40229
2.39129
2.38474
2.37412
2.36456
2.35822
2.40452
2.39028
2.38349
2.37455
2.36479
2.35858
2.41369
2.39289
2.38392
2.37336
2.36372
2.35717
2.42318
2.40096
2.39027
2.37685
2.36599
2.3577
2.42976
2.40617
2.3954
2.3804
2.3697
2.36045
2.43791
2.40602
2.39977
2.38428
2.37379
2.36421
2.43745
2.41043
2.40269
2.3861
2.377
2.36815
2.43874
2.40946
2.40296
2.38656
2.37801
2.36981
2.43043
2.40612
2.40168
2.38817
2.38123
2.37469
2.43147
2.39847
2.40006
2.38863
2.3831
2.37611
2.42453
2.39991
2.40033
2.38929
2.38531
2.37773
2.42068
2.40229
2.40268
2.39212
2.38899
2.38003
2.41907
2.4049
2.40502
2.3949
2.38959
2.37853
2.42202
2.41337
2.41171
2.40783
2.4082
2.39953
2.38723
2.3769
2.37712
2.36951
2.36327
2.36239
2.3941
2.3798
2.38068
2.37469
2.37008
2.36849
2.40417
2.38558
2.38285
2.37623
2.37188
2.36855
2.41753
2.39523
2.39075
2.38117
2.37512
2.3701
2.42142
2.3997
2.39568
2.38483
2.37834
2.37268
2.42401
2.40485
2.3989
2.38708
2.38158
2.3763
2.42285
2.40433
2.39865
2.38787
2.38326
2.37914
2.42218
2.40175
2.39701
2.38647
2.38277
2.38004
2.41213
2.39546
2.39424
2.38602
2.38485
2.38298
2.40908
2.38886
2.39144
2.38398
2.38366
2.38359
2.40946
2.38232
2.38858
2.38293
2.38365
2.38363
2.404
2.38652
2.39095
2.38487
2.3853
2.3844
2.40354
2.38995
2.39367
2.38765
2.38624
2.38247
2.40868
2.40068
2.4023
2.40294
2.40459
2.39931
2.39571
2.38601
2.37865
2.37202
2.36577
2.36892
2.40555
2.39096
2.38801
2.38364
2.3801
2.38075
2.40832
2.39456
2.39062
2.38528
2.38077
2.38017
2.41333
2.40483
2.39677
2.39056
2.38433
2.38321
2.40767
2.41025
2.39983
2.39456
2.38754
2.38557
2.40619
2.40906
2.40082
2.39769
2.39206
2.38999
2.40487
2.40601
2.39989
2.39972
2.39659
2.39423
2.40361
2.40502
2.39988
2.4003
2.39942
2.3977
2.40561
2.40283
2.40038
2.40129
2.40162
2.40047
2.40861
2.40166
2.40151
2.40257
2.40428
2.40404
2.40763
2.40348
2.40496
2.40593
2.40634
2.40523
2.41065
2.40897
2.41106
2.41072
2.40924
2.40676
2.41731
2.4157
2.41786
2.41475
2.41146
2.40669
2.4252
2.42922
2.4315
2.4326
2.43058
2.42014
2.42749
2.42462
2.42102
2.4162
2.41288
2.409
2.40524
2.40071
2.39624
2.39254
2.39052
2.38945
2.39041
2.38978
2.4186
2.41432
2.40982
2.40659
2.40395
2.40087
2.3978
2.39399
2.39003
2.3868
2.38509
2.38483
2.38567
2.38623
2.41174
2.40708
2.40284
2.39997
2.39727
2.39448
2.39167
2.38834
2.38495
2.38222
2.381
2.38104
2.38152
2.38253
2.40743
2.4028
2.39862
2.39547
2.39264
2.38984
2.38708
2.38392
2.38079
2.37838
2.37741
2.37738
2.3784
2.37913
2.40468
2.39994
2.39578
2.39243
2.38953
2.38664
2.38382
2.38078
2.37793
2.37569
2.37471
2.37481
2.37649
2.37758
2.40283
2.39789
2.39379
2.39042
2.38762
2.3847
2.38175
2.37865
2.37586
2.37378
2.37288
2.3732
2.37454
2.37527
2.40165
2.39642
2.39237
2.38903
2.3863
2.38341
2.38046
2.37742
2.37477
2.37284
2.37201
2.37268
2.3739
2.37474
2.40115
2.39556
2.39132
2.38787
2.38514
2.38227
2.37938
2.37647
2.37398
2.37226
2.37151
2.37225
2.37318
2.37385
2.40093
2.3949
2.39045
2.38688
2.38404
2.38117
2.37833
2.37559
2.3733
2.37185
2.37125
2.37194
2.37256
2.37311
2.40135
2.3947
2.38996
2.38622
2.38311
2.38019
2.37737
2.37476
2.3726
2.37119
2.37059
2.37108
2.37141
2.37194
2.40225
2.39509
2.38988
2.38592
2.38253
2.37953
2.37664
2.37407
2.37199
2.37057
2.37003
2.37022
2.37044
2.37073
2.40398
2.39585
2.39013
2.38609
2.38252
2.37939
2.37651
2.37409
2.372
2.37053
2.36997
2.36999
2.37028
2.37031
2.40574
2.39732
2.39161
2.38736
2.38362
2.38045
2.37764
2.37542
2.37343
2.37218
2.3713
2.37066
2.3709
2.3701
2.40599
2.39863
2.39317
2.38885
2.38522
2.38211
2.37957
2.37792
2.37641
2.37585
2.37566
2.37565
2.37517
2.37458
2.43389
2.42953
2.42544
2.42124
2.41846
2.41531
2.4124
2.40895
2.40478
2.40045
2.39661
2.39378
2.39314
2.39335
2.42765
2.42295
2.41802
2.41439
2.4112
2.40799
2.40502
2.40169
2.39788
2.39374
2.39
2.38742
2.38698
2.38919
2.42218
2.41717
2.41224
2.40853
2.40525
2.40209
2.39907
2.39579
2.39223
2.38848
2.38516
2.38274
2.38243
2.38562
2.41806
2.41265
2.40782
2.40401
2.40065
2.39733
2.39415
2.39081
2.38739
2.38388
2.38083
2.37873
2.37849
2.38152
2.41482
2.40927
2.40468
2.40082
2.39752
2.39421
2.39091
2.3874
2.3839
2.3804
2.37754
2.37573
2.37575
2.37846
2.41232
2.40656
2.4021
2.39834
2.39516
2.39188
2.38852
2.38492
2.38138
2.37788
2.37509
2.37338
2.37381
2.37605
2.41042
2.40438
2.40003
2.39634
2.39323
2.39
2.38666
2.38308
2.37963
2.3763
2.37376
2.37237
2.37306
2.37498
2.40891
2.40261
2.39825
2.39457
2.39145
2.38823
2.38492
2.38144
2.37816
2.37513
2.37291
2.37195
2.37266
2.37412
2.4077
2.40126
2.39671
2.3929
2.38962
2.38635
2.38309
2.37978
2.37674
2.37407
2.37226
2.37177
2.37241
2.37347
2.40693
2.4003
2.39542
2.39142
2.38787
2.38451
2.38126
2.37811
2.37531
2.37307
2.37158
2.3713
2.37162
2.37239
2.40662
2.3998
2.3945
2.39026
2.38643
2.38294
2.37966
2.37661
2.37396
2.3719
2.37046
2.37038
2.37033
2.37109
2.40663
2.3993
2.39373
2.38945
2.38543
2.38175
2.37838
2.37536
2.37277
2.37077
2.36959
2.36918
2.36918
2.36987
2.40714
2.39985
2.39418
2.38967
2.38543
2.38146
2.37791
2.37487
2.37231
2.37045
2.36924
2.36857
2.36849
2.36811
2.40679
2.39991
2.39441
2.38998
2.38593
2.38218
2.37888
2.37613
2.3738
2.37234
2.37149
2.37129
2.37088
2.36988
2.4425
2.43839
2.43442
2.43052
2.42722
2.42393
2.42099
2.41768
2.41388
2.40945
2.40485
2.40062
2.39802
2.39672
2.43682
2.43211
2.42774
2.42378
2.4202
2.41685
2.41374
2.41041
2.40674
2.40251
2.39821
2.39438
2.39213
2.3919
2.43211
2.42701
2.42237
2.41825
2.41464
2.41118
2.40797
2.4047
2.4012
2.39729
2.39318
2.38954
2.38749
2.38779
2.42835
2.42294
2.41826
2.41413
2.4105
2.40696
2.40356
2.40009
2.39644
2.39252
2.38857
2.3852
2.3833
2.38374
2.42514
2.41942
2.41466
2.4106
2.40708
2.40363
2.40023
2.39671
2.39296
2.38897
2.38499
2.38169
2.37992
2.38066
2.42221
2.41616
2.41154
2.40755
2.40414
2.40078
2.39742
2.39389
2.39007
2.38608
2.38206
2.3788
2.377
2.3779
2.41968
2.41341
2.40879
2.40484
2.40149
2.39818
2.39488
2.39141
2.38763
2.38376
2.3799
2.37694
2.37534
2.37639
2.41738
2.41097
2.4063
2.40234
2.39895
2.39565
2.39241
2.38902
2.38538
2.38175
2.37822
2.37568
2.37439
2.37532
2.41533
2.40885
2.40404
2.39996
2.39648
2.39316
2.38995
2.38667
2.38325
2.37994
2.37688
2.37485
2.37385
2.37448
2.41344
2.40695
2.40193
2.39769
2.39401
2.39062
2.38743
2.3843
2.38115
2.3782
2.3756
2.37399
2.37309
2.37334
2.41192
2.40541
2.40014
2.3957
2.39178
2.38823
2.38498
2.38192
2.37902
2.37637
2.37409
2.37266
2.37169
2.37161
2.41042
2.40377
2.39841
2.39392
2.38982
2.38615
2.38283
2.37978
2.37699
2.37455
2.37248
2.37103
2.37004
2.36957
2.40964
2.40303
2.39762
2.39298
2.38861
2.38463
2.3811
2.37798
2.37529
2.37307
2.3712
2.36964
2.36832
2.36738
2.40848
2.40158
2.39641
2.39198
2.38777
2.3838
2.38037
2.37734
2.37475
2.37273
2.37128
2.37014
2.36857
2.36658
2.44943
2.44523
2.44132
2.43754
2.4343
2.43111
2.42813
2.42508
2.42182
2.41803
2.41364
2.40873
2.40421
2.40028
2.44488
2.44068
2.43637
2.43228
2.42853
2.4249
2.42163
2.41852
2.41531
2.41169
2.40749
2.40307
2.39898
2.39619
2.4405
2.43588
2.43148
2.42741
2.42369
2.42006
2.41675
2.41359
2.41037
2.4068
2.40272
2.39849
2.39466
2.3923
2.43692
2.4319
2.42742
2.42339
2.41975
2.41617
2.4128
2.40949
2.40603
2.40226
2.39819
2.39399
2.39042
2.38834
2.43348
2.42805
2.4235
2.41955
2.41608
2.41268
2.40943
2.40615
2.40265
2.39872
2.39453
2.39029
2.38687
2.3851
2.43022
2.42451
2.41993
2.41601
2.41263
2.40936
2.4062
2.40296
2.39943
2.39544
2.39121
2.38693
2.38352
2.38201
2.42704
2.42109
2.41654
2.41263
2.40931
2.40613
2.40308
2.39991
2.39642
2.39248
2.38832
2.38422
2.38097
2.37996
2.42408
2.41809
2.41352
2.40954
2.40619
2.40304
2.40005
2.39694
2.39353
2.38973
2.38574
2.38199
2.37902
2.37843
2.42131
2.41531
2.41065
2.40658
2.40317
2.40004
2.39711
2.39407
2.39079
2.38721
2.3835
2.38024
2.37761
2.37725
2.4186
2.41266
2.4079
2.40373
2.40023
2.39711
2.39425
2.39133
2.38822
2.38489
2.38153
2.37877
2.37649
2.37613
2.41605
2.41019
2.40528
2.40101
2.39737
2.39419
2.39132
2.3885
2.38561
2.38262
2.37964
2.37722
2.37519
2.37447
2.41339
2.4076
2.40272
2.39843
2.39466
2.39141
2.38853
2.3858
2.38313
2.38047
2.37781
2.37548
2.37338
2.37211
2.41143
2.40576
2.40079
2.39637
2.39241
2.389
2.38603
2.38329
2.38072
2.37824
2.37575
2.37332
2.37115
2.36911
2.40927
2.40325
2.39863
2.39447
2.3907
2.38724
2.38427
2.38153
2.37904
2.37676
2.37444
2.37238
2.36965
2.36659
2.45561
2.45193
2.44824
2.44484
2.4416
2.43831
2.43539
2.43271
2.43002
2.42703
2.42325
2.41857
2.41311
2.4076
2.45172
2.44818
2.4442
2.44044
2.43685
2.43328
2.43001
2.42702
2.42417
2.42122
2.4177
2.41336
2.40837
2.40379
2.44812
2.444
2.43996
2.4362
2.43263
2.42908
2.42583
2.42278
2.41986
2.41679
2.41324
2.40897
2.4044
2.40013
2.44471
2.44021
2.43609
2.43234
2.42885
2.42537
2.42215
2.41901
2.4159
2.41254
2.40885
2.40451
2.40009
2.39601
2.44116
2.43629
2.43209
2.42838
2.42502
2.42172
2.41863
2.41556
2.41242
2.40888
2.40497
2.40054
2.39627
2.3927
2.43745
2.43236
2.42819
2.4245
2.42119
2.41798
2.415
2.41197
2.4088
2.40517
2.40112
2.39671
2.39253
2.38941
2.43373
2.4285
2.42429
2.42057
2.4173
2.41423
2.41135
2.40839
2.40523
2.40159
2.39754
2.39325
2.38923
2.38666
2.43017
2.42489
2.42072
2.41693
2.41366
2.4106
2.40777
2.40486
2.40171
2.39813
2.39415
2.39008
2.38625
2.38423
2.42676
2.42146
2.41725
2.41339
2.41015
2.40716
2.40439
2.40152
2.3984
2.3949
2.39106
2.38733
2.38383
2.38239
2.42338
2.4181
2.41383
2.40992
2.40672
2.40383
2.4012
2.39845
2.39543
2.39208
2.38844
2.38509
2.38189
2.38077
2.42009
2.41481
2.41044
2.4065
2.40332
2.40052
2.39802
2.39543
2.39258
2.38946
2.38606
2.383
2.38006
2.37882
2.41669
2.41146
2.40711
2.40319
2.4
2.39728
2.39487
2.39246
2.38985
2.38701
2.38389
2.381
2.37808
2.37609
2.4138
2.40861
2.40419
2.40028
2.39703
2.39429
2.39189
2.38955
2.38703
2.38436
2.38139
2.37847
2.37552
2.37288
2.4105
2.40544
2.40148
2.39785
2.39467
2.39189
2.38945
2.3871
2.38465
2.38217
2.37942
2.3765
2.37331
2.36942
2.46117
2.45793
2.45485
2.45205
2.44915
2.44597
2.44306
2.44044
2.4381
2.43565
2.43271
2.42862
2.42368
2.41709
2.45828
2.45505
2.45157
2.4483
2.44503
2.44161
2.43846
2.43555
2.43288
2.43023
2.42734
2.42359
2.41905
2.41348
2.45538
2.45162
2.44805
2.44467
2.44133
2.43791
2.43473
2.43179
2.42907
2.42633
2.42329
2.41945
2.41498
2.40974
2.45219
2.44805
2.44435
2.44093
2.43764
2.43433
2.43122
2.42822
2.42534
2.42231
2.41905
2.4151
2.4106
2.40564
2.44842
2.44411
2.44038
2.43699
2.43378
2.43058
2.42758
2.42464
2.42174
2.41857
2.41506
2.41098
2.4065
2.40207
2.4443
2.43996
2.43628
2.4329
2.42971
2.42658
2.42363
2.42071
2.41777
2.41451
2.41084
2.40674
2.40235
2.39833
2.44013
2.43587
2.43228
2.42887
2.42568
2.42254
2.4196
2.41669
2.41375
2.41045
2.40673
2.40272
2.39862
2.39505
2.43614
2.43182
2.42819
2.4247
2.42149
2.4184
2.41551
2.41266
2.40971
2.4064
2.4027
2.39878
2.39492
2.39184
2.43215
2.42777
2.42412
2.42055
2.41743
2.41442
2.41167
2.40883
2.40584
2.40251
2.39884
2.39513
2.39138
2.38913
2.42809
2.42364
2.41996
2.41643
2.41346
2.41063
2.40805
2.40534
2.40241
2.39913
2.3955
2.39201
2.38837
2.38667
2.424
2.41948
2.41579
2.41234
2.40955
2.40693
2.40457
2.40204
2.3992
2.39604
2.39251
2.38924
2.38579
2.38427
2.41983
2.41538
2.41175
2.4084
2.40573
2.4033
2.40112
2.3988
2.39617
2.39324
2.38987
2.38673
2.3833
2.38124
2.41612
2.41161
2.40807
2.40483
2.40229
2.39994
2.3978
2.39555
2.39298
2.39021
2.38698
2.3839
2.38055
2.37793
2.41197
2.4081
2.40498
2.40207
2.39964
2.39737
2.39512
2.39276
2.39014
2.38748
2.38442
2.3814
2.37793
2.37399
2.46715
2.46439
2.46179
2.45939
2.45683
2.45399
2.45125
2.44859
2.44625
2.44398
2.44152
2.43802
2.43355
2.42718
2.46518
2.46214
2.45907
2.45621
2.45332
2.45026
2.44726
2.44433
2.44157
2.4389
2.43621
2.43291
2.4289
2.42371
2.46244
2.45896
2.45582
2.45287
2.44993
2.44688
2.44386
2.44086
2.43804
2.43534
2.43255
2.42918
2.425
2.42004
2.45906
2.45539
2.45221
2.44926
2.44635
2.44334
2.44034
2.4373
2.43433
2.4314
2.42842
2.42494
2.42066
2.41581
2.45493
2.45137
2.44827
2.44537
2.44248
2.4395
2.43652
2.43354
2.43062
2.42763
2.42449
2.42085
2.41659
2.41196
2.45062
2.44724
2.44422
2.44127
2.43831
2.43529
2.43231
2.42936
2.42644
2.4234
2.42012
2.4164
2.4122
2.40781
2.44632
2.44307
2.44008
2.43703
2.43398
2.4309
2.42793
2.42502
2.42209
2.41906
2.41573
2.41208
2.40814
2.40416
2.44207
2.43873
2.43572
2.43261
2.42953
2.42643
2.42351
2.42061
2.4177
2.41467
2.41132
2.40776
2.40407
2.40048
2.43767
2.43418
2.43112
2.42789
2.42489
2.42193
2.41917
2.41638
2.41348
2.41042
2.40701
2.40352
2.39998
2.3971
2.43305
2.42941
2.42633
2.4232
2.42038
2.41762
2.41508
2.41244
2.4096
2.40654
2.40315
2.39985
2.39614
2.39401
2.42831
2.42456
2.42152
2.41851
2.41594
2.41347
2.41119
2.40877
2.40604
2.40303
2.39958
2.39631
2.39271
2.39098
2.42355
2.41979
2.41687
2.41402
2.41168
2.40944
2.4074
2.40518
2.4026
2.39978
2.39647
2.39333
2.38983
2.38776
2.41919
2.4154
2.41262
2.40995
2.40773
2.40562
2.40367
2.40155
2.39904
2.39634
2.39312
2.39005
2.38662
2.38418
2.41449
2.41159
2.40923
2.40696
2.40489
2.40276
2.40058
2.3983
2.39575
2.39322
2.39018
2.38722
2.38356
2.37998
2.47346
2.47104
2.46903
2.46723
2.46541
2.46314
2.46065
2.4579
2.45521
2.4526
2.45012
2.44695
2.44298
2.43708
2.47184
2.46914
2.46665
2.46447
2.46227
2.45974
2.45695
2.45386
2.45069
2.44757
2.44465
2.44149
2.43793
2.4332
2.46884
2.46584
2.46339
2.46118
2.45892
2.45635
2.45349
2.45033
2.44712
2.44404
2.44113
2.43797
2.43424
2.42968
2.4651
2.46217
2.45978
2.45756
2.45524
2.45261
2.44969
2.4465
2.44327
2.4401
2.43711
2.43392
2.43016
2.42562
2.46085
2.4582
2.45589
2.45366
2.45124
2.44851
2.44555
2.44242
2.4393
2.43623
2.43321
2.42995
2.42618
2.42177
2.45659
2.45422
2.45187
2.44949
2.44687
2.444
2.44098
2.4379
2.43485
2.43185
2.42879
2.42548
2.4217
2.41745
2.4523
2.44994
2.4475
2.44494
2.44215
2.43921
2.43623
2.43324
2.43029
2.42737
2.42433
2.42105
2.41736
2.41337
2.44781
2.44529
2.44278
2.44009
2.43723
2.43426
2.43135
2.42848
2.42565
2.4228
2.41974
2.41654
2.41284
2.40916
2.44301
2.44029
2.43769
2.4349
2.43209
2.42925
2.42656
2.42387
2.42113
2.4183
2.41513
2.41192
2.40838
2.40526
2.43781
2.43491
2.43228
2.42958
2.42698
2.42439
2.42197
2.41949
2.41685
2.41408
2.41091
2.40781
2.4041
2.40166
2.43253
2.4295
2.4269
2.4243
2.42197
2.41971
2.41759
2.41536
2.41287
2.41017
2.40701
2.40385
2.40013
2.39824
2.42728
2.42411
2.42168
2.41931
2.41726
2.41523
2.41335
2.41135
2.40901
2.40643
2.40337
2.40036
2.39682
2.39482
2.42235
2.4193
2.41709
2.41481
2.41296
2.41112
2.40931
2.4074
2.40515
2.40268
2.39971
2.39669
2.39311
2.39106
2.4175
2.41533
2.41358
2.4117
2.4098
2.40779
2.40573
2.40366
2.40133
2.39897
2.39619
2.39353
2.38989
2.3866
2.47949
2.47726
2.47584
2.47466
2.47363
2.47225
2.47035
2.46779
2.46495
2.46182
2.45876
2.4553
2.45157
2.44599
2.47774
2.4754
2.47364
2.47225
2.47094
2.46924
2.46697
2.46405
2.46067
2.45695
2.45339
2.4498
2.44635
2.44176
2.47464
2.47226
2.47064
2.46918
2.46774
2.46589
2.46343
2.46033
2.45689
2.45328
2.44991
2.44651
2.44297
2.43861
2.47081
2.46879
2.46721
2.46569
2.46404
2.46196
2.45933
2.45618
2.45274
2.44921
2.44589
2.44267
2.43917
2.43504
2.4667
2.46496
2.4633
2.46167
2.45981
2.45753
2.45482
2.45177
2.44857
2.44532
2.44217
2.43902
2.43549
2.43142
2.46254
2.46097
2.45918
2.45733
2.45517
2.4527
2.44993
2.44696
2.44397
2.44093
2.43794
2.43481
2.43128
2.42724
2.45826
2.45655
2.45461
2.45253
2.45018
2.44765
2.44492
2.44211
2.43935
2.43653
2.43363
2.43054
2.42704
2.42315
2.45356
2.45163
2.44959
2.44739
2.44497
2.44247
2.43986
2.43721
2.43464
2.432
2.42904
2.42606
2.42245
2.41875
2.44846
2.44635
2.44418
2.44194
2.43959
2.43727
2.4349
2.43248
2.43002
2.42747
2.42439
2.42137
2.41774
2.41436
2.44291
2.44061
2.43847
2.43636
2.43427
2.4322
2.43017
2.42799
2.42562
2.42314
2.42001
2.41702
2.41316
2.41027
2.43746
2.43491
2.43273
2.43076
2.42901
2.42726
2.42557
2.42368
2.42144
2.41902
2.41591
2.41275
2.4087
2.40654
2.43189
2.42919
2.42734
2.42551
2.42402
2.42249
2.42101
2.4194
2.4173
2.41497
2.41197
2.40883
2.40496
2.40284
2.4267
2.42421
2.42252
2.42075
2.41944
2.41801
2.41656
2.41509
2.41312
2.41091
2.40805
2.40482
2.40088
2.39865
2.42188
2.4202
2.41898
2.41733
2.41582
2.41418
2.41244
2.41081
2.40874
2.4066
2.40388
2.40108
2.39747
2.39405
2.44331
2.45921
2.47102
2.48128
2.48954
2.49251
2.4324
2.44492
2.45496
2.46573
2.47697
2.47866
2.4305
2.44276
2.45217
2.46146
2.47135
2.47375
2.42602
2.43709
2.44523
2.45365
2.46558
2.47408
2.42269
2.43216
2.43926
2.44647
2.46035
2.47873
2.41754
2.42528
2.43113
2.43827
2.45424
2.48137
2.41276
2.41907
2.42364
2.43067
2.44842
2.47897
2.40741
2.41297
2.41763
2.42518
2.44582
2.47737
2.40249
2.40783
2.41475
2.42252
2.44692
2.475
2.39818
2.4028
2.41249
2.42138
2.44738
2.46846
2.39614
2.39913
2.41066
2.41973
2.44336
2.45829
2.39424
2.39607
2.40573
2.4133
2.4327
2.44191
2.39702
2.39629
2.40176
2.40758
2.42246
2.42789
2.38514
2.38037
2.38538
2.39471
2.40735
2.41419
2.44726
2.46243
2.47677
2.49089
2.49918
2.50545
2.43879
2.45261
2.46445
2.47723
2.48709
2.49413
2.43694
2.45122
2.46353
2.47429
2.48237
2.4894
2.4324
2.44572
2.45729
2.46747
2.4772
2.48886
2.42959
2.44199
2.45295
2.46294
2.47428
2.49228
2.42563
2.43667
2.44651
2.45629
2.47033
2.49285
2.42189
2.43151
2.44001
2.44928
2.46506
2.48901
2.41741
2.42566
2.43355
2.44281
2.46011
2.48528
2.41237
2.41969
2.42828
2.4388
2.45746
2.48199
2.40732
2.41398
2.42412
2.4362
2.45706
2.47775
2.40364
2.40949
2.42164
2.43448
2.45452
2.47028
2.40119
2.40592
2.4185
2.42942
2.44512
2.45731
2.40231
2.40569
2.41542
2.42187
2.43297
2.44343
2.39306
2.39291
2.39939
2.40515
2.41501
2.42405
2.45175
2.46374
2.4795
2.49544
2.50724
2.5158
2.44634
2.45803
2.47234
2.48731
2.49983
2.50948
2.44467
2.45791
2.4727
2.48603
2.49614
2.5055
2.44051
2.45425
2.46857
2.48141
2.49154
2.50351
2.43755
2.45113
2.46492
2.47757
2.48906
2.5044
2.43408
2.44699
2.45976
2.472
2.48532
2.50274
2.43062
2.44224
2.45351
2.46489
2.47898
2.5
2.42651
2.43636
2.44601
2.4564
2.47125
2.49266
2.42161
2.42954
2.43796
2.4481
2.46345
2.48608
2.41604
2.42234
2.43051
2.44086
2.45854
2.47994
2.411
2.41639
2.4257
2.43743
2.45658
2.47375
2.40708
2.41233
2.42331
2.43527
2.45265
2.46482
2.40646
2.4111
2.4233
2.43279
2.44511
2.45492
2.39933
2.40275
2.41324
2.42034
2.43006
2.4394
2.45639
2.46436
2.47437
2.48817
2.50143
2.51158
2.45289
2.46153
2.4722
2.48596
2.49923
2.50961
2.44993
2.46005
2.47225
2.48605
2.49791
2.50741
2.4463
2.45736
2.47048
2.48456
2.49623
2.50616
2.44337
2.45523
2.46874
2.48264
2.49455
2.50668
2.44022
2.45216
2.46546
2.47876
2.49119
2.50522
2.43704
2.4485
2.46068
2.47266
2.48508
2.50007
2.43335
2.44358
2.45379
2.46398
2.47556
2.49145
2.42895
2.43725
2.44506
2.45354
2.46431
2.48173
2.42388
2.43021
2.43609
2.44324
2.45445
2.47263
2.41858
2.4231
2.42826
2.43563
2.44901
2.46629
2.41335
2.41665
2.42276
2.43186
2.44647
2.46094
2.40959
2.41165
2.42041
2.43042
2.44496
2.45589