/*--------------------------------*- C++ -*----------------------------------*\
| =========                 |                                                 |
| \\      /  F ield         | OpenFOAM: The Open Source CFD Toolbox           |
|  \\    /   O peration     | Version:  v2106                                 |
|   \\  /    A nd           | Website:  www.openfoam.com                      |
|    \\/     M anipulation  |                                                 |
\*---------------------------------------------------------------------------*/
FoamFile
{
    version     2.0;
    format      ascii;
    arch        "LSB;label=32;scalar=64";
    class       volScalarField;
    location    "0.000185";
    object      Ttot;
}
// * * * * * * * * * * * * * * * * * * * * * * * * * * * * * * * * * * * * * //

dimensions      [0 0 0 1 0 0 0];

internalField   nonuniform List<scalar> 
144746
(
293.88
293.763
294.396
295.299
296.283
296.993
297.348
297.466
296.999
295.786
294.166
292.838
292.176
292.891
293.926
294.397
295.018
295.809
296.515
296.991
297.327
297.445
297.226
296.347
294.97
293.557
292.655
292.719
294.983
295.537
296.11
296.623
297.077
297.323
297.536
297.583
297.446
296.81
295.699
294.296
293.154
292.985
296.227
296.635
297.027
297.315
297.568
297.715
297.822
297.791
297.637
297.131
296.278
295.108
294.034
293.644
297.272
297.486
297.727
297.883
298
298.076
298.096
298.022
297.834
297.412
296.733
295.777
294.886
294.518
297.807
297.934
298.139
298.276
298.322
298.326
298.288
298.196
297.999
297.625
297.012
296.25
295.548
295.126
297.995
298.156
298.376
298.475
298.476
298.429
298.371
298.277
298.078
297.736
297.209
296.602
295.967
295.397
297.966
298.166
298.416
298.524
298.528
298.47
298.402
298.297
298.096
297.762
297.268
296.695
296.045
295.399
297.672
297.954
298.277
298.444
298.483
298.438
298.373
298.261
298.051
297.723
297.243
296.652
295.891
294.917
297.179
297.565
297.993
298.247
298.348
298.336
298.277
298.153
297.92
297.552
296.996
296.231
295.178
293.852
296.332
296.864
297.443
297.847
298.078
298.139
298.094
297.941
297.643
297.149
296.394
295.325
294.011
292.587
295.384
295.96
296.747
297.312
297.655
297.807
297.787
297.585
297.169
296.475
295.457
294.105
292.779
291.621
294.507
295.039
295.868
296.612
297.088
297.306
297.284
297
296.427
295.533
294.311
292.886
291.869
291.127
294.527
294.272
294.991
295.801
296.462
296.704
296.76
296.44
295.771
294.811
293.557
292.443
291.967
292.024
293.843
293.849
294.57
295.462
296.328
296.974
297.424
297.591
297.288
296.347
294.888
293.355
292.209
292.197
294.331
294.808
295.413
296.087
296.718
297.175
297.562
297.715
297.541
296.845
295.612
294.118
292.758
292.081
295.433
295.952
296.471
296.95
297.394
297.645
297.873
297.942
297.798
297.281
296.282
294.941
293.545
292.755
296.582
296.987
297.301
297.598
297.877
298.031
298.153
298.155
298.01
297.599
296.804
295.691
294.483
293.662
297.434
297.663
297.81
298.003
298.181
298.29
298.34
298.302
298.161
297.8
297.174
296.288
295.328
294.683
297.818
297.96
298.063
298.2
298.322
298.386
298.408
298.353
298.225
297.898
297.378
296.705
295.999
295.465
297.856
298.002
298.148
298.282
298.375
298.406
298.408
298.343
298.21
297.914
297.469
296.961
296.413
295.926
297.757
297.947
298.142
298.279
298.36
298.385
298.377
298.305
298.161
297.884
297.505
297.069
296.584
296.106
297.445
297.738
298.025
298.219
298.321
298.345
298.33
298.249
298.089
297.814
297.442
297.017
296.49
295.864
296.98
297.427
297.834
298.09
298.231
298.267
298.25
298.149
297.97
297.654
297.235
296.717
296.015
295.102
296.222
296.84
297.432
297.849
298.062
298.113
298.09
297.944
297.729
297.316
296.763
296.028
295.061
293.927
295.391
296.137
296.935
297.456
297.755
297.818
297.782
297.601
297.3
296.76
296.005
295.011
293.804
292.703
294.575
295.369
296.244
296.95
297.34
297.432
297.336
297.091
296.605
295.912
294.946
293.75
292.557
291.71
294.458
294.693
295.472
296.258
296.764
296.937
296.807
296.518
295.902
295.099
293.952
292.774
291.821
291.718
295.853
295.652
295.956
296.375
296.838
297.094
297.355
297.407
297.261
296.639
295.458
293.94
292.557
291.901
296.417
296.692
296.898
297.125
297.395
297.507
297.653
297.647
297.515
296.98
295.95
294.544
293.076
291.767
297.358
297.629
297.732
297.782
297.911
297.912
297.934
297.863
297.714
297.249
296.388
295.11
293.675
292.359
298.08
298.205
298.174
298.164
298.168
298.113
298.081
297.984
297.816
297.378
296.63
295.545
294.321
293.134
298.425
298.464
298.401
298.317
298.236
298.137
298.068
297.961
297.804
297.408
296.805
295.935
294.934
293.963
298.522
298.502
298.429
298.329
298.211
298.081
297.994
297.891
297.727
297.355
296.823
296.107
295.35
294.606
298.458
298.434
298.388
298.275
298.148
298.002
297.897
297.793
297.626
297.308
296.846
296.275
295.665
295.087
298.35
298.365
298.32
298.211
298.085
297.935
297.81
297.69
297.512
297.218
296.801
296.318
295.81
295.332
298.097
298.205
298.212
298.147
298.03
297.888
297.752
297.62
297.423
297.146
296.752
296.318
295.854
295.367
297.755
297.974
298.054
298.035
297.946
297.822
297.691
297.553
297.328
297.049
296.661
296.209
295.72
295.139
297.243
297.612
297.842
297.883
297.816
297.718
297.584
297.424
297.161
296.858
296.442
295.922
295.313
294.549
296.712
297.164
297.508
297.599
297.567
297.5
297.363
297.151
296.849
296.485
295.985
295.352
294.561
293.646
296.201
296.719
297.113
297.267
297.278
297.207
297.017
296.702
296.326
295.829
295.198
294.392
293.506
292.603
296.084
296.177
296.443
296.654
296.74
296.723
296.512
296.125
295.669
295.06
294.239
293.299
292.37
292.094
294.336
295.665
296.523
297.87
298.7
299.552
293.037
294.446
295.418
296.993
298.019
299.336
293.457
294.752
295.293
296.467
296.972
298.293
293.703
294.515
294.739
295.597
295.622
296.93
294.311
294.681
294.529
295.075
294.693
295.824
294.61
294.526
294.028
294.371
293.807
294.902
294.654
294.225
293.522
293.718
293.078
294.135
294.38
293.495
292.686
292.84
292.457
293.37
293.563
292.546
292.076
292.49
292.546
293.457
292.465
291.765
291.799
292.622
293.316
294.538
291.574
291.389
291.966
293.338
294.649
296.122
291.18
291.47
292.574
294.312
295.831
297.248
291.468
292.154
293.437
295.264
296.746
297.942
291.976
292.903
294.345
296.198
297.498
298.506
292.808
293.982
294.867
296.155
296.861
297.854
291.755
292.839
293.815
295.463
296.15
297.617
292.67
293.354
293.837
295.114
295.21
296.729
293.359
293.575
293.536
294.358
294.018
295.581
294.307
294.185
293.75
294.041
293.26
294.454
294.918
294.473
293.693
293.548
292.66
293.333
295.293
294.655
293.54
292.948
291.931
292.551
295.317
294.295
292.893
292.109
291.221
291.852
294.745
293.388
292.067
291.599
291.102
291.905
293.698
292.303
291.39
291.545
291.525
292.551
292.538
291.5
291.137
291.909
292.389
293.717
291.602
291.019
291.159
292.457
293.253
294.749
291.07
290.948
291.537
293.012
294.04
295.404
290.771
291.052
291.997
293.626
294.736
295.858
291.789
292.489
293.048
294.354
295.749
296.796
290.67
291.134
291.892
293.544
294.973
296.624
291.532
291.665
292.332
293.544
294.179
295.56
292.306
292.049
292.338
293.114
293.1
294.159
293.23
292.726
292.621
292.851
292.271
292.885
293.937
293.307
292.813
292.366
291.361
291.452
294.478
293.756
292.905
291.914
290.51
290.292
294.752
293.863
292.544
291.016
289.552
289.431
294.702
293.438
291.75
290.144
288.901
289.038
294.213
292.605
290.853
289.627
288.869
289.472
293.329
291.636
290.189
289.656
289.546
290.59
292.311
290.83
289.847
289.97
290.574
291.912
291.388
290.33
289.823
290.462
291.696
293.087
290.623
289.825
289.797
291.012
292.703
293.911
293.156
294.577
295.486
296.78
297.56
298.436
291.94
293.31
294.323
295.923
296.707
297.991
292.523
293.712
294.362
295.629
295.816
297.089
293.105
293.668
293.866
294.856
294.818
296.2
294.175
294.293
294.089
294.632
294.182
295.529
294.969
294.622
293.945
294.015
293.377
294.685
295.579
295.01
294.007
293.717
292.855
293.958
295.797
294.98
293.598
293.022
292.104
293.063
295.7
294.631
293.115
292.47
291.649
292.56
295.302
293.969
292.597
292.171
291.644
292.478
294.578
293.345
292.446
292.412
292.316
293.209
293.957
293.072
292.645
293.083
293.367
294.158
293.61
293.209
293.281
294.043
294.606
295.421
293.495
293.649
294.165
295.288
296.014
296.679
291.729
292.629
293.234
294.401
295.001
296.015
290.948
291.608
292.252
293.783
294.369
295.84
292.041
292.223
292.561
293.82
293.855
295.283
293.009
292.657
292.547
293.405
293.159
294.596
294.21
293.566
293.065
293.427
292.746
294.046
295.04
294.206
293.251
293.053
292.113
293.16
295.693
294.768
293.553
292.974
291.756
292.391
295.934
294.964
293.43
292.444
291.106
291.54
296.059
294.874
292.997
291.83
290.58
291.013
295.727
294.25
292.334
291.355
290.42
291.032
295.042
293.481
291.872
291.372
290.843
291.766
294.255
292.926
291.848
291.883
291.743
292.719
293.671
292.793
292.276
292.744
292.938
293.839
293.168
292.689
292.778
293.796
294.425
294.393
291.365
291.257
291.324
292.315
293.659
294.754
290.756
290.398
290.472
291.767
293.112
294.707
291.937
291.214
291.187
292.217
292.956
294.272
292.99
292.009
291.672
292.266
292.468
293.512
294.027
292.997
292.444
292.518
292.144
292.865
294.793
293.792
292.965
292.435
291.549
291.839
295.391
294.503
293.489
292.499
291.034
291.009
295.824
294.908
293.722
292.308
290.437
290.151
296.065
295.202
293.683
291.908
289.958
289.792
296.021
295.081
293.335
291.491
289.732
289.763
295.891
294.771
293.008
291.448
290.167
290.629
295.692
294.476
292.943
291.832
291.085
291.913
295.347
294.259
293.078
292.476
292.261
293.111
294.821
294.018
293.222
293.242
293.491
293.462
297.358
296.688
295.765
294.636
293.696
293.356
295.918
295.15
294.51
293.833
293.5
293.688
294.835
293.909
293.746
293.609
293.817
294.417
294.448
293.605
293.916
294.142
294.776
295.565
294.758
294.042
294.755
295.191
296.04
296.699
295.853
295.189
296.151
296.451
297.17
297.452
297.093
296.413
297.336
297.226
297.574
297.689
298.468
297.661
298.221
297.74
297.776
297.735
299.589
298.42
298.451
297.657
297.504
297.413
300.626
298.932
298.545
297.409
297.09
296.904
300.685
299.015
298.12
296.66
296.204
295.949
300.364
298.823
297.78
296.148
295.561
294.987
299.487
298.077
296.873
295.203
294.574
293.758
298.022
297.338
296.562
295.506
295.211
294.388
295.432
295.585
294.794
293.661
292.977
293.045
294.397
293.807
293.606
293.155
293.197
293.707
293.417
292.69
292.963
293.079
293.722
294.631
292.762
292.396
293.184
293.753
294.779
295.821
292.862
292.964
294.048
294.927
296.048
296.881
293.626
294.155
295.387
296.174
297.038
297.51
294.9
295.511
296.513
296.839
297.334
297.65
296.159
296.634
297.133
297.036
297.255
297.516
297.376
297.194
297.239
296.798
296.901
297.132
298.469
297.332
297.086
296.362
296.305
296.55
298.549
297.309
296.61
295.547
295.382
295.683
298.266
296.932
296.17
294.847
294.519
294.742
297.333
295.975
295.156
293.823
293.507
293.534
295.969
295.43
294.919
294.115
294.026
293.954
293.932
294.632
294.065
293.772
294.126
294.893
292.866
293.14
293.34
293.864
294.775
295.72
291.643
292.01
292.886
294.194
295.571
296.704
290.771
291.892
293.148
295.137
296.61
297.655
290.635
292.397
294.066
296.311
297.527
298.16
291.391
293.659
295.353
297.3
298.09
298.375
292.603
295.152
296.396
297.797
298.23
298.396
293.955
296.309
296.946
297.82
298.091
298.276
295.443
296.874
297.192
297.62
297.719
297.914
296.618
297.334
297.058
297.092
297.139
297.421
297.267
297.032
296.383
296.159
296.275
296.67
297.167
296.444
295.603
295.214
295.477
295.938
296.336
295.306
294.477
294.063
294.592
295.12
295.037
294.726
294.34
294.318
294.998
295.588
299.203
298.354
297.194
295.606
294.291
293.274
298.624
297.598
296.292
294.73
293.478
292.752
297.821
296.506
295.342
294.099
293.179
292.841
296.582
295.508
294.928
294.163
293.679
293.747
295.711
294.91
295.003
294.772
294.861
295.226
296.357
295.259
295.913
295.979
296.425
296.65
297.141
296.69
297.405
297.274
297.607
297.444
298.551
298.032
298.537
297.982
297.934
297.433
299.882
299.197
298.961
298.033
297.749
297.17
301.331
299.477
298.965
297.762
297.182
296.42
301.629
299.745
298.745
297.124
296.207
295.257
301.349
299.763
298.568
296.73
295.604
294.351
300.499
299.07
297.668
295.776
294.568
293.26
298.943
298.201
297.186
295.899
295.277
294.263
297.513
296.532
295.425
293.761
292.489
291.879
297.066
295.813
294.703
293.151
292.272
292.052
296.058
294.761
293.915
292.862
292.528
292.789
294.821
293.756
293.646
293.22
293.422
294.098
294.035
293.408
293.93
294.106
294.79
295.645
294.322
294.402
295.168
295.552
296.225
296.892
295.047
295.803
296.658
296.857
297.155
297.49
296.495
297.197
297.84
297.434
297.352
297.393
297.798
298.28
298.265
297.345
297.094
296.98
299.304
298.641
298.288
296.958
296.394
296.262
300.266
298.474
297.886
296.241
295.378
295.196
299.95
298.432
297.553
295.733
294.593
294.163
299.034
297.705
296.565
294.74
293.619
292.974
297.505
296.797
296.091
294.971
294.412
293.749
295.939
294.893
293.15
291.624
290.944
291.151
295.106
293.795
292.562
291.637
291.53
292.008
293.507
292.617
292.184
292.003
292.36
293.191
292.234
292.11
292.352
292.913
293.626
294.676
291.541
292.446
293.129
294.338
295.101
296.09
291.954
293.517
294.536
295.929
296.407
297.032
293.097
295.095
295.959
297.05
297.166
297.347
294.69
296.78
296.995
297.449
297.343
297.304
296.627
297.702
297.443
297.303
297.062
296.937
298.559
298.261
297.445
296.842
296.543
296.521
299.302
298.527
297.139
296.124
295.743
295.847
299.127
298.255
296.695
295.467
295.116
295.253
298.18
297.152
295.619
294.429
294.374
294.558
296.302
296.09
295.361
294.904
295.231
295.35
297.656
297.58
297.605
297.553
297.621
297.575
297.553
297.47
297.371
297.084
296.473
295.404
294.139
293.346
297.97
298.142
298.126
298.055
298.021
297.902
297.8
297.655
297.508
297.228
296.741
295.908
294.716
293.273
298.301
298.42
298.38
298.287
298.188
298.048
297.925
297.786
297.65
297.397
296.981
296.273
295.151
293.735
298.426
298.461
298.413
298.295
298.17
298.024
297.908
297.788
297.662
297.444
297.077
296.443
295.469
294.214
298.408
298.401
298.344
298.203
298.052
297.898
297.794
297.711
297.625
297.445
297.105
296.541
295.738
294.703
298.35
298.319
298.234
298.056
297.884
297.722
297.625
297.564
297.507
297.361
297.053
296.534
295.81
294.916
298.26
298.207
298.107
297.906
297.718
297.551
297.456
297.403
297.353
297.229
296.95
296.485
295.844
295.09
298.177
298.119
298.005
297.792
297.597
297.428
297.327
297.261
297.196
297.064
296.78
296.344
295.746
295.074
298.037
298.014
297.919
297.725
297.535
297.371
297.26
297.174
297.08
296.924
296.621
296.201
295.642
295.003
297.864
297.893
297.831
297.678
297.5
297.344
297.229
297.123
296.991
296.794
296.458
296.032
295.483
294.843
297.621
297.74
297.714
297.613
297.447
297.309
297.186
297.056
296.886
296.655
296.3
295.862
295.277
294.556
297.349
297.537
297.53
297.472
297.327
297.206
297.072
296.919
296.71
296.446
296.067
295.572
294.908
294.053
297.043
297.263
297.27
297.219
297.096
296.98
296.826
296.64
296.383
296.073
295.65
295.089
294.401
293.438
296.66
296.73
296.734
296.713
296.647
296.558
296.392
296.18
295.864
295.492
294.971
294.357
293.664
293.134
298.484
298.432
298.355
298.191
298.111
297.963
297.831
297.699
297.572
297.39
297.092
296.457
295.555
294.712
298.607
298.659
298.591
298.442
298.301
298.128
297.961
297.785
297.633
297.446
297.223
296.776
295.98
294.747
298.586
298.618
298.55
298.414
298.278
298.127
297.975
297.815
297.678
297.527
297.352
296.968
296.21
295.024
298.519
298.498
298.424
298.292
298.153
298.003
297.863
297.728
297.622
297.504
297.351
296.999
296.299
295.225
298.43
298.364
298.268
298.105
297.95
297.801
297.682
297.587
297.526
297.452
297.324
296.987
296.339
295.382
298.343
298.242
298.106
297.903
297.727
297.571
297.466
297.399
297.371
297.327
297.216
296.883
296.265
295.38
298.25
298.13
297.968
297.735
297.536
297.373
297.277
297.223
297.209
297.173
297.058
296.724
296.139
295.34
298.153
298.038
297.861
297.614
297.401
297.235
297.137
297.081
297.059
297.008
296.861
296.514
295.951
295.227
298.036
297.953
297.78
297.541
297.328
297.165
297.062
296.995
296.95
296.874
296.687
296.331
295.792
295.137
297.901
297.859
297.706
297.494
297.293
297.138
297.033
296.955
296.885
296.786
296.561
296.194
295.647
295.018
297.73
297.741
297.621
297.451
297.264
297.124
297.022
296.939
296.851
296.726
296.456
296.089
295.506
294.845
297.517
297.562
297.476
297.351
297.195
297.08
296.984
296.894
296.78
296.611
296.325
295.915
295.292
294.516
297.263
297.319
297.247
297.149
297.027
296.934
296.839
296.733
296.575
296.359
296.042
295.598
294.93
294.002
296.87
296.924
296.874
296.792
296.698
296.613
296.511
296.387
296.177
295.894
295.485
294.981
294.364
293.68
298.938
298.902
298.83
298.696
298.549
298.351
298.15
297.94
297.761
297.579
297.392
297.083
296.597
295.954
298.871
298.852
298.791
298.667
298.523
298.348
298.158
297.945
297.751
297.565
297.423
297.229
296.816
295.978
298.734
298.692
298.618
298.496
298.368
298.226
298.077
297.911
297.759
297.611
297.491
297.315
296.898
296.056
298.598
298.518
298.414
298.27
298.136
298.005
297.883
297.761
297.658
297.559
297.469
297.306
296.895
296.072
298.482
298.358
298.21
298.028
297.878
297.749
297.648
297.564
297.505
297.454
297.398
297.249
296.846
296.068
298.38
298.212
298.028
297.813
297.644
297.508
297.415
297.352
297.315
297.293
297.254
297.109
296.692
295.955
298.285
298.09
297.874
297.635
297.452
297.311
297.221
297.167
297.141
297.128
297.085
296.927
296.49
295.796
298.186
297.983
297.747
297.497
297.302
297.158
297.068
297.017
296.988
296.967
296.9
296.705
296.243
295.592
298.072
297.88
297.64
297.394
297.201
297.058
296.967
296.911
296.874
296.837
296.736
296.5
296.018
295.418
297.936
297.774
297.547
297.324
297.14
297.004
296.91
296.847
296.796
296.74
296.602
296.335
295.841
295.27
297.776
297.66
297.463
297.273
297.105
296.98
296.886
296.817
296.751
296.672
296.501
296.214
295.712
295.131
297.564
297.499
297.345
297.199
297.062
296.961
296.877
296.805
296.722
296.608
296.4
296.083
295.58
294.93
297.33
297.295
297.175
297.069
296.966
296.89
296.814
296.737
296.627
296.467
296.219
295.869
295.342
294.599
297.02
296.953
296.867
296.794
296.726
296.671
296.606
296.523
296.376
296.158
295.846
295.457
294.947
294.297
299.126
299.052
298.994
298.896
298.779
298.609
298.41
298.183
297.963
297.749
297.571
297.392
297.156
296.712
298.984
298.928
298.852
298.751
298.641
298.5
298.336
298.133
297.929
297.725
297.553
297.403
297.195
296.702
298.8
298.718
298.623
298.509
298.401
298.281
298.158
298.011
297.859
297.699
297.562
297.428
297.217
296.714
298.66
298.546
298.411
298.261
298.134
298.016
297.913
297.804
297.697
297.588
297.501
297.39
297.187
296.688
298.542
298.382
298.206
298.023
297.88
297.759
297.666
297.58
297.505
297.434
297.383
297.299
297.108
296.617
298.439
298.237
298.024
297.816
297.659
297.534
297.44
297.362
297.303
297.252
297.221
297.149
296.948
296.451
298.331
298.093
297.856
297.633
297.472
297.344
297.251
297.177
297.127
297.085
297.059
296.986
296.752
296.253
298.212
297.96
297.71
297.479
297.311
297.182
297.089
297.019
296.973
296.933
296.895
296.797
296.506
296.007
298.077
297.828
297.575
297.348
297.178
297.048
296.955
296.887
296.844
296.803
296.742
296.606
296.254
295.761
297.917
297.693
297.458
297.248
297.081
296.954
296.859
296.79
296.74
296.69
296.6
296.423
296.032
295.555
297.737
297.557
297.354
297.173
297.021
296.902
296.806
296.731
296.666
296.598
296.473
296.271
295.874
295.415
297.529
297.4
297.245
297.104
296.979
296.879
296.79
296.711
296.626
296.529
296.368
296.134
295.74
295.273
297.332
297.241
297.116
297.011
296.917
296.843
296.765
296.686
296.581
296.449
296.246
295.971
295.596
295.063
297.068
296.947
296.858
296.791
296.739
296.699
296.65
296.59
296.476
296.311
296.059
295.749
295.333
294.781
299.205
299.14
299.097
299.041
298.959
298.83
298.672
298.466
298.244
298.017
297.813
297.64
297.469
297.183
299.042
298.991
298.915
298.831
298.743
298.632
298.504
298.34
298.161
297.959
297.773
297.605
297.44
297.16
298.89
298.792
298.682
298.568
298.47
298.368
298.27
298.149
298.017
297.861
297.715
297.575
297.437
297.158
298.769
298.634
298.482
298.33
298.206
298.097
298.006
297.906
297.802
297.686
297.591
297.492
297.385
297.111
298.657
298.475
298.285
298.106
297.967
297.851
297.759
297.667
297.581
297.494
297.434
297.37
297.287
297.033
298.539
298.315
298.098
297.905
297.76
297.637
297.538
297.443
297.364
297.293
297.249
297.204
297.126
296.875
298.403
298.149
297.913
297.713
297.568
297.447
297.347
297.252
297.176
297.114
297.078
297.041
296.944
296.676
298.25
297.983
297.743
297.541
297.394
297.271
297.17
297.078
297.008
296.953
296.914
296.866
296.719
296.416
298.085
297.819
297.584
297.384
297.234
297.109
297.009
296.922
296.857
296.807
296.76
296.688
296.474
296.132
297.907
297.66
297.441
297.25
297.1
296.975
296.873
296.791
296.728
296.679
296.614
296.509
296.228
295.853
297.722
297.507
297.315
297.145
297.007
296.887
296.786
296.702
296.63
296.569
296.474
296.335
296.017
295.635
297.517
297.352
297.202
297.064
296.951
296.85
296.758
296.672
296.583
296.493
296.356
296.173
295.846
295.459
297.324
297.195
297.075
296.978
296.901
296.828
296.744
296.661
296.554
296.432
296.25
296.016
295.693
295.315
297.066
296.941
296.869
296.82
296.784
296.752
296.702
296.641
296.532
296.39
296.164
295.879
295.53
295.091
299.261
299.2
299.169
299.137
299.082
298.984
298.863
298.704
298.525
298.312
298.107
297.909
297.746
297.507
299.134
299.07
298.99
298.913
298.835
298.74
298.64
298.511
298.367
298.191
298.015
297.836
297.677
297.463
299.028
298.913
298.795
298.679
298.577
298.477
298.388
298.285
298.176
298.039
297.902
297.761
297.639
297.451
298.929
298.773
298.615
298.466
298.341
298.23
298.136
298.037
297.936
297.823
297.726
297.632
297.549
297.396
298.814
298.621
298.436
298.268
298.133
298.014
297.911
297.806
297.708
297.61
297.54
297.482
297.429
297.312
298.679
298.454
298.252
298.08
297.944
297.819
297.707
297.592
297.489
297.399
297.341
297.304
297.266
297.158
298.515
298.277
298.07
297.897
297.763
297.637
297.52
297.401
297.297
297.213
297.162
297.136
297.103
296.982
298.335
298.09
297.88
297.707
297.571
297.446
297.33
297.216
297.12
297.044
296.995
296.963
296.906
296.741
298.145
297.899
297.695
297.522
297.386
297.258
297.148
297.041
296.952
296.883
296.833
296.791
296.674
296.468
297.952
297.717
297.526
297.356
297.219
297.09
296.981
296.884
296.805
296.742
296.682
296.618
296.428
296.169
297.766
297.551
297.381
297.222
297.093
296.967
296.858
296.763
296.68
296.613
296.531
296.438
296.193
295.902
297.56
297.394
297.259
297.121
297.013
296.903
296.803
296.709
296.612
296.526
296.406
296.262
295.98
295.667
297.359
297.221
297.123
297.027
296.959
296.882
296.796
296.704
296.586
296.467
296.298
296.095
295.793
295.481
297.097
297.001
296.949
296.908
296.886
296.858
296.8
296.718
296.592
296.451
296.23
295.971
295.639
295.272
299.379
299.329
299.3
299.273
299.228
299.151
299.055
298.92
298.773
298.585
298.392
298.197
298.024
297.799
299.297
299.219
299.135
299.06
298.986
298.902
298.813
298.698
298.568
298.408
298.245
298.076
297.921
297.743
299.213
299.084
298.964
298.853
298.755
298.661
298.57
298.464
298.355
298.227
298.098
297.965
297.844
297.715
299.113
298.949
298.8
298.666
298.55
298.443
298.341
298.228
298.114
297.994
297.893
297.8
297.716
297.622
298.983
298.799
298.635
298.49
298.366
298.251
298.137
298.014
297.894
297.781
297.698
297.634
297.584
297.516
298.833
298.634
298.46
298.313
298.19
298.067
297.945
297.813
297.687
297.575
297.499
297.451
297.419
297.359
298.654
298.451
298.276
298.13
298.007
297.883
297.756
297.622
297.494
297.387
297.318
297.284
297.265
297.205
298.46
298.251
298.078
297.933
297.811
297.684
297.559
297.427
297.308
297.212
297.148
297.116
297.091
297.003
298.255
298.042
297.873
297.722
297.598
297.471
297.354
297.235
297.128
297.044
296.981
296.943
296.886
296.769
298.045
297.837
297.678
297.528
297.401
297.271
297.159
297.053
296.959
296.886
296.823
296.781
296.654
296.494
297.846
297.65
297.507
297.361
297.239
297.111
297
296.902
296.813
296.744
296.664
296.594
296.408
296.211
297.636
297.476
297.366
297.237
297.129
297.014
296.908
296.811
296.711
296.632
296.527
296.414
296.184
295.941
297.426
297.292
297.22
297.132
297.059
296.976
296.883
296.786
296.666
296.555
296.4
296.227
295.961
295.705
297.16
297.081
297.064
297.035
297.011
296.971
296.891
296.804
296.68
296.545
296.344
296.113
295.798
295.487
299.565
299.513
299.487
299.462
299.43
299.373
299.292
299.171
299.034
298.859
298.675
298.485
298.317
298.106
299.494
299.409
299.333
299.266
299.204
299.132
299.045
298.928
298.795
298.634
298.47
298.308
298.171
298.021
299.404
299.271
299.166
299.069
298.985
298.9
298.806
298.691
298.567
298.431
298.3
298.169
298.057
297.952
299.276
299.123
298.999
298.888
298.79
298.69
298.581
298.456
298.327
298.195
298.085
297.985
297.905
297.828
299.129
298.97
298.835
298.719
298.611
298.501
298.38
298.245
298.111
297.983
297.884
297.81
297.76
297.71
298.966
298.803
298.662
298.544
298.433
298.314
298.184
298.039
297.9
297.774
297.681
297.622
297.587
297.552
298.778
298.611
298.467
298.349
298.237
298.116
297.984
297.839
297.701
297.581
297.498
297.452
297.429
297.396
298.574
298.4
298.258
298.138
298.024
297.9
297.771
297.633
297.504
297.396
297.319
297.281
297.248
297.202
298.357
298.178
298.037
297.91
297.793
297.669
297.551
297.427
297.313
297.216
297.141
297.102
297.057
296.998
298.135
297.957
297.821
297.689
297.57
297.446
297.337
297.23
297.131
297.05
296.977
296.936
296.842
296.753
297.928
297.754
297.628
297.496
297.378
297.256
297.152
297.059
296.971
296.901
296.823
296.76
296.608
296.484
297.711
297.56
297.466
297.348
297.242
297.129
297.025
296.936
296.845
296.774
296.679
296.59
296.392
296.211
297.487
297.366
297.313
297.227
297.154
297.073
296.976
296.885
296.778
296.684
296.552
296.406
296.156
295.954
297.236
297.17
297.177
297.146
297.108
297.058
296.971
296.885
296.766
296.649
296.481
296.288
295.995
295.723
299.742
299.685
299.665
299.647
299.629
299.591
299.523
299.414
299.29
299.122
298.935
298.742
298.582
298.379
299.664
299.575
299.517
299.468
299.428
299.372
299.291
299.178
299.041
298.874
298.7
298.53
298.402
298.259
299.577
299.455
299.374
299.299
299.235
299.161
299.066
298.943
298.807
298.657
298.515
298.377
298.271
298.17
299.443
299.316
299.22
299.135
299.056
298.966
298.853
298.716
298.571
298.423
298.294
298.187
298.111
298.042
299.299
299.171
299.064
298.972
298.881
298.78
298.655
298.511
298.365
298.221
298.104
298.018
297.964
297.919
299.134
299.004
298.889
298.796
298.699
298.59
298.458
298.308
298.162
298.022
297.915
297.841
297.8
297.766
298.944
298.805
298.689
298.595
298.498
298.387
298.256
298.107
297.967
297.838
297.74
297.679
297.646
297.618
298.732
298.585
298.471
298.376
298.276
298.166
298.041
297.901
297.773
297.656
297.562
297.511
297.468
297.434
298.506
298.356
298.238
298.139
298.038
297.932
297.821
297.698
297.581
297.476
297.384
297.334
297.283
297.241
298.276
298.126
298.012
297.906
297.806
297.701
297.607
297.503
297.401
297.313
297.22
297.168
297.078
297.018
298.064
297.909
297.804
297.696
297.597
297.496
297.409
297.326
297.236
297.164
297.071
297.001
296.856
296.771
297.839
297.703
297.634
297.529
297.437
297.343
297.254
297.181
297.096
297.031
296.934
296.848
296.656
296.51
297.602
297.503
297.472
297.393
297.324
297.254
297.165
297.095
297.001
296.925
296.812
296.676
296.432
296.246
297.377
297.326
297.346
297.299
297.256
297.217
297.137
297.065
296.955
296.859
296.716
296.548
296.283
296.025
297.286
296.731
295.896
295.686
296.423
297.915
296.601
295.916
295.186
295.474
297.37
299.968
296.755
296.258
295.846
296.522
298.7
301.147
296.89
296.55
296.42
297.273
299.36
301.196
297.165
296.999
297.107
297.952
299.478
300.243
297.247
297.195
297.431
298.171
298.986
298.649
297.322
297.284
297.483
297.842
298.029
296.771
297.285
297.182
297.152
296.969
296.447
294.647
297.185
296.896
296.454
295.481
294.562
292.731
296.743
296.062
295.21
293.723
292.869
291.359
295.868
294.757
293.678
292.282
291.983
291.033
294.611
293.356
292.317
291.439
291.79
291.575
293.277
292.159
291.425
291.244
292.234
293.106
292.101
291.035
290.711
291.386
293.023
294.921
298.335
297.826
296.715
295.791
295.293
296.076
297.86
297.148
296.059
295.424
295.752
297.516
297.818
297.136
296.408
296.103
296.834
298.853
297.712
297.129
296.662
296.66
297.625
299.567
297.733
297.31
297.039
297.208
298.115
299.368
297.651
297.353
297.242
297.485
298.109
298.63
297.591
297.389
297.354
297.45
297.665
296.972
297.51
297.358
297.274
297.078
296.533
294.851
297.402
297.212
296.959
296.252
294.906
292.805
297.162
296.795
296.19
294.871
293.152
291.285
296.738
295.972
294.989
293.284
291.73
290.589
295.886
294.724
293.503
291.923
290.994
290.623
294.656
293.311
292.071
290.971
290.81
291.464
293.442
291.985
290.953
290.436
291.014
292.475
298.916
298.662
297.952
296.918
295.954
295.556
298.697
298.306
297.505
296.633
296.049
296.305
298.673
298.227
297.53
296.943
296.662
297.299
298.524
298.108
297.549
297.21
297.236
298.151
298.388
298.03
297.647
297.494
297.726
298.676
298.184
297.893
297.671
297.645
297.958
298.756
297.98
297.765
297.64
297.649
297.878
298.134
297.776
297.62
297.519
297.437
297.381
296.652
297.61
297.468
297.302
296.997
296.366
294.831
297.417
297.212
296.89
296.173
294.975
293.124
297.195
296.784
296.198
295.003
293.478
291.808
296.761
296.026
295.142
293.616
292.184
291.097
296.039
294.957
293.756
292.238
291.213
290.742
295.102
293.795
292.446
291.171
290.593
290.744
299.2
299.129
298.667
297.794
296.761
296.078
299.13
299.003
298.504
297.658
296.806
296.256
299.082
298.926
298.422
297.689
297.009
296.691
298.958
298.791
298.329
297.76
297.312
297.312
298.802
298.631
298.242
297.87
297.658
297.976
298.582
298.405
298.108
297.907
297.884
298.387
298.34
298.176
297.988
297.895
297.949
298.355
298.077
297.933
297.819
297.754
297.771
297.721
297.851
297.74
297.633
297.515
297.276
296.583
297.647
297.55
297.39
297.084
296.377
295.092
297.473
297.304
296.992
296.341
295.13
293.511
297.25
296.889
296.313
295.228
293.706
292.154
296.9
296.239
295.316
293.848
292.35
291.217
296.25
295.345