/*--------------------------------*- C++ -*----------------------------------*\
| =========                 |                                                 |
| \\      /  F ield         | OpenFOAM: The Open Source CFD Toolbox           |
|  \\    /   O peration     | Version:  v2106                                 |
|   \\  /    A nd           | Website:  www.openfoam.com                      |
|    \\/     M anipulation  |                                                 |
\*---------------------------------------------------------------------------*/
FoamFile
{
    version     2.0;
    format      ascii;
    arch        "LSB;label=32;scalar=64";
    class       volScalarField;
    location    "0.00017";
    object      rho;
}
// * * * * * * * * * * * * * * * * * * * * * * * * * * * * * * * * * * * * * //

dimensions      [1 -3 0 0 0 0 0];

internalField   nonuniform List<scalar> 
18109
(
2.47313
2.47297
2.47375
2.47507
2.47646
2.47781
2.47938
2.46893
2.46984
2.47112
2.47314
2.47499
2.47679
2.47861
2.46477
2.46672
2.46889
2.47134
2.4734
2.47537
2.47722
2.46159
2.46423
2.46688
2.46929
2.4714
2.47343
2.47535
2.45882
2.46217
2.46498
2.46741
2.46952
2.47156
2.47347
2.45711
2.46078
2.4636
2.46587
2.46785
2.46978
2.47161
2.45639
2.45994
2.46266
2.46469
2.46647
2.46819
2.46987
2.45642
2.45957
2.46205
2.46376
2.46529
2.46674
2.46819
2.48534
2.48633
2.48798
2.48999
2.49202
2.49388
2.49579
2.49756
2.49936
2.50109
2.50284
2.50518
2.50763
2.51028
2.48147
2.48338
2.48544
2.48802
2.49037
2.49265
2.49482
2.4968
2.49866
2.50042
2.50215
2.50372
2.50537
2.50673
2.47784
2.4808
2.48349
2.48636
2.48887
2.49127
2.49346
2.49551
2.49735
2.49906
2.50062
2.50209
2.50336
2.50448
2.47504
2.47863
2.48166
2.48452
2.48704
2.48945
2.49169
2.49386
2.49585
2.49775
2.49946
2.50094
2.50202
2.50243
2.4728
2.47677
2.4799
2.48276
2.4853
2.48772
2.48996
2.49218
2.49426
2.49627
2.4981
2.49964
2.50063
2.50069
2.47147
2.47544
2.47854
2.48126
2.48371
2.48604
2.48823
2.49046
2.49261
2.49475
2.49669
2.49831
2.49919
2.49901
2.47086
2.47455
2.47751
2.47999
2.48228
2.48446
2.48657
2.48876
2.49093
2.49306
2.49499
2.4966
2.49744
2.49729
2.47087
2.4741
2.47675
2.47887
2.48092
2.48289
2.48485
2.48695
2.48906
2.49112
2.49296
2.49449
2.49533
2.49541
2.47104
2.47369
2.47597
2.47775
2.47951
2.48123
2.48299
2.48491
2.48685
2.48874
2.49044
2.49187
2.49283
2.49325
2.47134
2.47326
2.47507
2.47648
2.47789
2.4793
2.48078
2.48244
2.48415
2.48583
2.4874
2.48876
2.4899
2.49072
2.47139
2.47259
2.47374
2.47482
2.47584
2.4769
2.47809
2.47948
2.48097
2.48245
2.48391
2.48529
2.48657
2.48825
2.47119
2.47177
2.47223
2.4728
2.47325
2.47389
2.47475
2.47589
2.47719
2.47861
2.48006
2.48151
2.48308
2.48559
2.47053
2.47079
2.47031
2.47001
2.46982
2.46988
2.47042
2.47144
2.47275
2.47432
2.47594
2.47774
2.47987
2.48316
2.47057
2.47021
2.46849
2.46717
2.46576
2.46502
2.4651
2.46598
2.46742
2.46939
2.47141
2.4738
2.47625
2.47992
2.47732
2.48169
2.48483
2.48912
2.49142
2.49451
2.48948
2.49339
2.49621
2.50052
2.50306
2.50599
2.48787
2.49037
2.49313
2.49623
2.49723
2.49946
2.48937
2.49115
2.49249
2.4932
2.49215
2.49246
2.49059
2.49108
2.49072
2.48974
2.48664
2.48553
2.4922
2.49163
2.48996
2.48735
2.48379
2.48478
2.4938
2.49261
2.49044
2.48722
2.48523
2.48894
2.49568
2.49431
2.4923
2.48959
2.4899
2.49642
2.49757
2.49656
2.49536
2.49384
2.49695
2.50618
2.49968
2.49966
2.49944
2.5006
2.50735
2.51779
2.50218
2.50345
2.50506
2.50866
2.51825
2.52987
2.50497
2.50736
2.51101
2.51712
2.52848
2.53869
2.50769
2.51136
2.51667
2.52497
2.53531
2.54342
2.51081
2.51533
2.52134
2.52929
2.53691
2.54344
2.51285
2.51777
2.52276
2.52907
2.5348
2.5401
2.51432
2.51921
2.52311
2.52716
2.53041
2.53523
2.50836
2.51193
2.51487
2.51802
2.52105
2.5257
2.50562
2.50779
2.50871
2.50958
2.511
2.51334
2.50207
2.50216
2.50091
2.50029
2.50069
2.50409
2.49952
2.49793
2.49557
2.49346
2.49303
2.49651
2.49751
2.49513
2.49183
2.48828
2.4888
2.49523
2.4959
2.49365
2.49068
2.48804
2.49069
2.4982
2.49458
2.49301
2.49135
2.49141
2.49624
2.50346
2.49324
2.49289
2.49293
2.49556
2.50296
2.51094
2.49165
2.49211
2.49404
2.49965
2.5092
2.51658
2.48987
2.49122
2.49535
2.50278
2.51174
2.51786
2.48768
2.4898
2.49506
2.50255
2.51046
2.51575
2.48623
2.48833
2.49337
2.49882
2.50429
2.50942
2.48097
2.48336
2.4866
2.49057
2.49434
2.49955
2.48132
2.48475
2.48674
2.48851
2.48862
2.48998
2.47422
2.47493
2.47495
2.47502
2.47478
2.47634
2.47056
2.4688
2.46678
2.46444
2.46298
2.4657
2.46641
2.46205
2.45777
2.45353
2.4519
2.45694
2.46322
2.45703
2.45079
2.44639
2.44606
2.45317
2.46051
2.45318
2.4459
2.44329
2.44425
2.45095
2.45898
2.4516
2.44521
2.44337
2.44638
2.45178
2.45852
2.45162
2.44759
2.44707
2.45302
2.45736
2.45928
2.45427
2.45219
2.45595
2.46308
2.46779
2.4616
2.45859
2.45984
2.46581
2.47388
2.47837
2.4646
2.46393
2.46785
2.47502
2.48385
2.48793
2.4673
2.46885
2.47398
2.48091
2.4878
2.49156
2.47111
2.47307
2.47805
2.48284
2.48734
2.49083
2.46965
2.47227
2.47559
2.47904
2.48161
2.48388
2.45985
2.46066
2.46552
2.47578
2.48825
2.49759
2.46441
2.46686
2.47336
2.48377
2.4945
2.50257
2.46973
2.4731
2.4798
2.48826
2.49625
2.50293
2.47336
2.47783
2.48237
2.48854
2.49435
2.49985
2.47306
2.47594
2.47746
2.47858
2.47767
2.47659
2.4698
2.47115
2.47057
2.47029
2.46794
2.46664
2.46965
2.46936
2.4666
2.46328
2.45836
2.45665
2.46878
2.466
2.46123
2.45561
2.451
2.45093
2.46776
2.46336
2.45747
2.451
2.44878
2.45155
2.46669
2.46112
2.45479
2.44934
2.44906
2.45455
2.46613
2.46011
2.45406
2.45079
2.45252
2.45997
2.46617
2.46063
2.45595
2.45418
2.45962
2.46822
2.4673
2.46289
2.46007
2.46152
2.47038
2.47859
2.46941
2.4668
2.46613
2.47121
2.4814
2.49061
2.47253
2.47186
2.47399
2.48141
2.49233
2.50181
2.47644
2.47741
2.48181
2.49029
2.50053
2.5086
2.48124
2.48329
2.48892
2.49649
2.50419
2.51014
2.48484
2.4887
2.49289
2.499
2.50428
2.509
2.51644
2.54516
2.61618
2.76029
2.97247
2.51003
2.54012
2.62563
2.77741
3.00191
2.50066
2.54301
2.62753
2.77269
3.01914
2.4947
2.53699
2.60547
2.73884
2.97184
2.49713
2.53293
2.58444
2.69197
2.88151
2.50302
2.52909
2.56492
2.65163
2.81556
2.51152
2.52908
2.55612
2.64628
2.82747
2.52164
2.53303
2.55699
2.63663
2.8038
3.0543
2.53087
2.53741
2.55471
2.61638
2.75097
2.96644
2.53969
2.54439
2.56361
2.62104
2.74132
2.93682
2.54678
2.55307
2.57672
2.64029
2.76913
2.95813
3.09831
2.55108
2.56289
2.59211
2.66823
2.81088
3.01823
3.22997
3.36832
2.55303
2.57108
2.60798
2.69287
2.86744
3.13817
3.46902
3.83461
2.55135
2.57482
2.6197
2.71186
2.89596
3.15862
3.44482
3.6771
2.54915
2.57823
2.63634
2.74848
2.92617
3.13575
3.33435
3.43459
2.54047
2.57519
2.65373
2.78323
2.95901
3.18552
3.34464
3.45265
2.52875
2.57795
2.66314
2.78968
2.98319
3.25213
3.52695
3.63254
2.52196
2.57572
2.64813
2.76116
2.94679
3.20946
3.48388
3.77465
2.51816
2.55987
2.61081
2.70328
2.85839
3.08102
3.31019
3.43964
2.51684
2.54391
2.58139
2.6632
2.81068
3.03857
3.22662
3.33305
2.51505
2.52811
2.55959
2.64699
2.81859
3.10408
3.34867
3.4502
2.51381
2.51893
2.55009
2.6342
2.79536
3.05488
3.34285
3.6698
2.51554
2.51594
2.54426
2.61618
2.7537
2.9553
2.51993
2.52398
2.55871
2.64078
2.78831
2.97873
2.52232
2.53702
2.58343
2.68614
2.85115
3.05429
2.5238
2.55112
2.6119
2.73688
2.93167
3.15821
2.52263
2.55677
2.633
2.78042
3.0094
3.30603
2.516
2.55563
2.64331
2.79548
3.02117
2.50648
2.55447
2.64469
2.7782
2.96833
2.49284
2.54019
2.61574
2.74319
2.94882
2.48379
2.51973
2.57971
2.71018
2.95105
2.47102
2.49157
2.53875
2.65454
2.8777
2.4592
2.46729
2.50659
2.60593
2.78508
2.45002
2.44917
2.48477
2.58784
2.76813
2.4478
2.44469
2.48263
2.58931
2.81404
2.45308
2.44814
2.48494
2.58712
2.79412
2.46465
2.46259
2.49755
2.58816
2.75926
2.477
2.48444
2.52531
2.62479
2.80398
2.48897
2.50695
2.56182
2.68235
2.89112
2.49974
2.52611
2.59393
2.7385
2.98257
2.50182
2.53094
2.61372
2.78383
3.06658
2.49559
2.52938
2.62485
2.79541
3.07427
2.48682
2.52729
2.61564
2.76461
2.99817
2.4748
2.51121
2.58137
2.72237
2.96131
2.46852
2.49694
2.55305
2.69273
2.97357
2.46332
2.47914
2.52499
2.65366
2.9127
2.46079
2.46764
2.50823
2.62314
2.84178
2.45962
2.46058
2.49537
2.59559
2.79215
2.46325
2.4612
2.49562
2.60579
2.83431
2.47161
2.46833
2.50182
2.60639
2.81512
2.48274
2.48156
2.50987
2.59107
2.76293
2.49596
2.49992
2.52865
2.60886
2.77891
2.50815
2.51778
2.54978
2.63358
2.82037
2.51661
2.53165
2.57075
2.66348
2.87137
2.52101
2.54286
2.58318
2.68572
2.92089
2.52005
2.54193
2.59438
2.71694
2.95435
2.51159
2.5141
2.51661
2.51881
2.52098
2.5229
2.52478
2.52657
2.52839
2.53023
2.53205
2.53391
2.53612
2.53867
2.50821
2.51144
2.51405
2.51665
2.519
2.52132
2.5235
2.52562
2.52762
2.52957
2.53141
2.53332
2.53515
2.53683
2.50507
2.50914
2.5121
2.51503
2.51752
2.51998
2.52224
2.52447
2.52654
2.52849
2.53023
2.53186
2.53342
2.53484
2.50295
2.50725
2.51033
2.5133
2.51586
2.51838
2.52073
2.52308
2.52528
2.52735
2.52916
2.53076
2.5321
2.53298
2.50149
2.50568
2.50886
2.51181
2.51437
2.51689
2.51927
2.52167
2.52396
2.52614
2.52806
2.52964
2.53086
2.53143
2.50062
2.50455
2.50766
2.51047
2.51295
2.51543
2.51783
2.52027
2.52264
2.52491
2.52694
2.52857
2.5297
2.52999
2.50027
2.50383
2.50671
2.50927
2.51162
2.51404
2.51643
2.5189
2.52132
2.52365
2.52576
2.52745
2.52852
2.52867
2.50028
2.5033
2.50582
2.50803
2.51018
2.5125
2.51489
2.51739
2.51989
2.52229
2.52445
2.52618
2.52726
2.52745
2.50028
2.50267
2.50475
2.50663
2.50859
2.5108
2.51316
2.51568
2.51822
2.52065
2.52281
2.52456
2.52576
2.52617
2.50031
2.50187
2.50342
2.50491
2.50664
2.50869
2.51099
2.5135
2.51607
2.5185
2.52066
2.52243
2.52383
2.52462
2.49996
2.50075
2.50166
2.50281
2.50425
2.50612
2.50831
2.51078
2.51332
2.51574
2.51794
2.51985
2.52149
2.52266
2.49922
2.49929
2.49958
2.50031
2.50135
2.50295
2.50496
2.50737
2.50989
2.51234
2.51457
2.51656
2.51827
2.52037
2.49811
2.49755
2.49693
2.49708
2.49765
2.49898
2.50085
2.50325
2.50578
2.50833
2.51066
2.51295
2.51518
2.51806
2.49696
2.49564
2.49406
2.49357
2.49343
2.49424
2.49581
2.49817
2.50079
2.50363
2.50616
2.50888
2.5112
2.51476
2.55965
2.563
2.56598
2.56848
2.57071
2.57281
2.57469
2.57651
2.57827
2.5801
2.58206
2.5841
2.58655
2.58833
2.55708
2.5609
2.56374
2.5664
2.56871
2.57101
2.57317
2.57535
2.57747
2.57961
2.58181
2.58403
2.58639
2.5885
2.55536
2.55935
2.56223
2.56491
2.56727
2.56964
2.57193
2.57427
2.5766
2.57888
2.58113
2.58326
2.58539
2.58729
2.55447
2.55831
2.56117
2.56377
2.56609
2.56844
2.57078
2.57321
2.57566
2.57805
2.58034
2.58246
2.58445
2.58617
2.5542
2.55774
2.56046
2.5629
2.56512
2.56739
2.56973
2.57219
2.57471
2.57715
2.57949
2.5816
2.58344
2.58489
2.55423
2.55745
2.55993
2.56214
2.56424
2.56644
2.56878
2.57127
2.57385
2.57636
2.57875
2.58085
2.58253
2.58368
2.55455
2.5573
2.55945
2.56139
2.56337
2.56551
2.56789
2.57042
2.57307
2.57566
2.57811
2.58021
2.58177
2.58269
2.55492
2.55708
2.55884
2.56048
2.56231
2.56443
2.56686
2.5695
2.57227
2.57499
2.57754
2.57964
2.58112
2.58185
2.55511
2.55664
2.55796
2.55931
2.561
2.56311
2.56564
2.56844
2.57138
2.57426
2.57689
2.57901
2.58048
2.5811
2.55507
2.55583
2.55663
2.55769
2.55926
2.56138
2.56403
2.56703
2.57017
2.57322
2.57596
2.57814
2.57971
2.58038
2.55456
2.55457
2.55483
2.55562
2.55708
2.55923
2.562
2.56517
2.5685
2.5717
2.57457
2.57688
2.57861
2.57957
2.55364
2.55284
2.55262
2.55312
2.55443
2.55655
2.5594
2.56273
2.56622
2.56958
2.57259
2.57512
2.5771
2.57843
2.55196
2.55051
2.54981
2.54998
2.55112
2.55326
2.5562
2.55967
2.56329
2.56679
2.56996
2.57274
2.57494
2.57711
2.54969
2.54743
2.54623
2.54631
2.54727
2.54929
2.55221
2.55578
2.55954
2.56326
2.56661
2.56973
2.57186
2.57495
2.60479
2.60731
2.60944
2.61163
2.61367
2.61583
2.61796
2.62015
2.62239
2.62463
2.627
2.62937
2.63194
2.63411
2.60402
2.60641
2.60841
2.61044
2.61242
2.61455
2.61679
2.61918
2.62168
2.62422
2.62683
2.62943
2.63198
2.63446
2.60371
2.6061
2.60799
2.60985
2.61172
2.61379
2.61606
2.61854
2.62116
2.62384
2.62656
2.6292
2.63174
2.6342
2.60383
2.60606
2.60784
2.60952
2.61126
2.61323
2.61547
2.61796
2.62066
2.62343
2.62621
2.62886
2.63134
2.63371
2.60425
2.60625
2.60785
2.60937
2.61097
2.61282
2.615
2.61749
2.62022
2.62303
2.62582
2.62845
2.63084
2.63305
2.60492
2.60658
2.60792
2.6092
2.61065
2.61241
2.61456
2.61706
2.61982
2.62267
2.62547
2.62808
2.63036
2.63237
2.60558
2.60683
2.60788
2.60894
2.61028
2.61199
2.61415
2.61669
2.6195
2.6224
2.62522
2.62779
2.62996
2.6317
2.6061
2.60687
2.60761
2.60847
2.60972
2.61144
2.61367
2.6163
2.6192
2.62217
2.62503
2.62757
2.62961
2.63106
2.6063
2.60664
2.60707
2.60776
2.60896
2.61073
2.61308
2.61587
2.6189
2.622
2.62491
2.62742
2.62932
2.63054
2.60613
2.60601
2.60614
2.60671
2.60792
2.6098
2.61233
2.61533
2.61855
2.62178
2.62477
2.62728
2.62912
2.63022
2.60548
2.60494
2.60485
2.60537
2.60665
2.6087
2.61145
2.61467
2.61808
2.62146
2.62453
2.62708
2.62895
2.63005
2.60454
2.60351
2.6032
2.60373
2.60514
2.60741
2.61041
2.61387
2.61748
2.62099
2.62416
2.62681
2.62873
2.62997
2.60259
2.60141
2.60107
2.60173
2.60337
2.60592
2.60919
2.61289
2.61667
2.62032
2.62356
2.62632
2.62827
2.62988
2.60106
2.5994
2.59897
2.59967
2.60142
2.60415
2.60765
2.61158
2.61554
2.61932
2.62266
2.62555
2.62761
2.62944
2.64756
2.64833
2.64928
2.65064
2.65226
2.65423
2.65649
2.65896
2.66155
2.66414
2.66671
2.66917
2.67157
2.67376
2.64782
2.64849
2.64933
2.65051
2.65199
2.65388
2.65613
2.65866
2.66137
2.66412
2.66681
2.66943
2.67184
2.67431
2.64805
2.64875
2.64956
2.65062
2.65201
2.65384
2.65607
2.6586
2.66134
2.66414
2.66691
2.6696
2.67206
2.67456
2.64861
2.64923
2.64997
2.6509
2.65219
2.65393
2.65612
2.65864
2.66139
2.66424
2.66706
2.66977
2.67224
2.67474
2.6493
2.64978
2.65041
2.65123
2.65245
2.65414
2.65628
2.65879
2.66155
2.66441
2.66723
2.66994
2.67238
2.67481
2.64996
2.65031
2.65083
2.65157
2.65273
2.65437
2.65648
2.65899
2.66175
2.66461
2.66742
2.67008
2.67246
2.67478
2.65059
2.65076
2.65118
2.65185
2.65297
2.6546
2.65671
2.65923
2.66199
2.66485
2.66762
2.67022
2.6725
2.67465
2.65112
2.65107
2.65136
2.65199
2.65312
2.65478
2.65692
2.65947
2.66224
2.66509
2.66782
2.67034
2.6725
2.67445
2.65139
2.65116
2.65139
2.652
2.65319
2.65492
2.65714
2.65975
2.66255
2.6654
2.66809
2.67052
2.67253
2.6743
2.65137
2.65102
2.65124
2.65191
2.65321
2.65508
2.65743
2.66014
2.66299
2.66584
2.66848
2.67082
2.67271
2.6743
2.65115
2.65073
2.65096
2.65175
2.65321
2.65528
2.65781
2.66065
2.66356
2.66642
2.66903
2.67129
2.67308
2.67452
2.65065
2.65023
2.6505
2.65148
2.6532
2.65555
2.65833
2.66133
2.66433
2.66719
2.66976
2.67196
2.67366
2.67501
2.64996
2.64968
2.65
2.65119
2.6532
2.65587
2.65892
2.66212
2.66521
2.66808
2.67059
2.67275
2.67436
2.67575
2.64926
2.649
2.64929
2.65078
2.65313
2.65619
2.65956
2.66296
2.66618
2.66906
2.67154
2.6736
2.67524
2.67656
2.68077
2.68045
2.68044
2.68096
2.68197
2.68347
2.6854
2.68761
2.68995
2.69233
2.69458
2.69675
2.69875
2.70073
2.68079
2.68056
2.68062
2.68116
2.68216
2.68368
2.68565
2.68793
2.69033
2.69276
2.69506
2.69729
2.69924
2.70131
2.68085
2.68072
2.68087
2.68144
2.68251
2.68407
2.68606
2.68835
2.69076
2.6932
2.69552
2.69775
2.69973
2.70179
2.68104
2.68099
2.68124
2.68187
2.683
2.68462
2.68664
2.68895
2.69137
2.69382
2.69614
2.69836
2.70032
2.70236
2.68128
2.68133
2.68166
2.68238
2.68359
2.68527
2.68733
2.68966
2.69208
2.69452
2.69682
2.69901
2.70094
2.70293
2.68164
2.68176
2.68217
2.68297
2.68425
2.68599
2.68807
2.69041
2.69283
2.69525
2.69751
2.69965
2.70154
2.70346
2.68212
2.6823
2.68279
2.68367
2.68502
2.6868
2.6889
2.69123
2.69363
2.696
2.69821
2.70028
2.7021
2.70393
2.68271
2.68293
2.6835
2.68448
2.6859
2.68772
2.68983
2.69213
2.69448
2.69678
2.69891
2.70088
2.70262
2.70436
2.68335
2.68364
2.6843
2.68538
2.68691
2.68878
2.69089
2.69315
2.69542
2.69763
2.69964
2.70151
2.70315
2.7048
2.68398
2.6844
2.6852
2.68644
2.68809
2.69004
2.69217
2.69439
2.69656
2.69864
2.70052
2.70226
2.7038
2.70536
2.68468
2.68525
2.68621
2.68763
2.68944
2.69149
2.69365
2.69583
2.6979
2.69985
2.70158
2.70319
2.70462
2.7061
2.68538
2.68618
2.68732
2.68895
2.69095
2.69315
2.69537
2.69753
2.69951
2.7013
2.70289
2.70437
2.70571
2.7071
2.68608
2.68717
2.68851
2.69038
2.69261
2.69498
2.69731
2.69947
2.70136
2.70301
2.70443
2.70579
2.70702
2.70842
2.68688
2.68833
2.68978
2.69194
2.6944
2.69695
2.69938
2.70154
2.70336
2.70489
2.70621
2.7074
2.70862
2.70989
2.70124
2.70137
2.70148
2.702
2.70286
2.70402
2.70542
2.70699
2.70857
2.71018
2.71167
2.71318
2.71458
2.71619
2.70106
2.70133
2.70155
2.70218
2.70314
2.70442
2.70593
2.7076
2.70927
2.71094
2.71249
2.71405
2.71544
2.71705
2.70097
2.70129
2.70165
2.70242
2.70355
2.70496
2.70657
2.7083
2.71001
2.71169
2.71325
2.71478
2.71618
2.71777
2.70107
2.70143
2.70193
2.70285
2.70412
2.70566
2.70736
2.70916
2.71092
2.71263
2.71419
2.71572
2.71708
2.71864
2.70134
2.70175
2.70239
2.70345
2.70484
2.70647
2.70825
2.7101
2.71189
2.71362
2.71518
2.71667
2.71802
2.71951
2.70186
2.70234
2.70309
2.70425
2.70572
2.70742
2.70925
2.71113
2.71294
2.71466
2.7162
2.71765
2.71898
2.72041
2.70264
2.7032
2.70405
2.70528
2.7068
2.70854
2.71038
2.71226
2.71405
2.71574
2.71725
2.71865
2.71995
2.72131
2.70374
2.70437
2.7053
2.70659
2.70814
2.70988
2.71169
2.71352
2.71526
2.71688
2.71832
2.71965
2.72091
2.72221
2.70512
2.70585
2.70684
2.70817
2.70973
2.71144
2.71319
2.71493
2.71656
2.71808
2.71943
2.72068
2.72189
2.72312
2.70673
2.70761
2.70866
2.71003
2.71159
2.71324
2.71491
2.71653
2.71802
2.7194
2.72062
2.72178
2.72294
2.72411
2.70855
2.70961
2.71074
2.71214
2.7137
2.7153
2.71685
2.71833
2.71965
2.72086
2.72194
2.723
2.7241
2.72525
2.71052
2.71179
2.71299
2.71445
2.716
2.71754
2.71898
2.72029
2.72144
2.72247
2.72342
2.72438
2.72545
2.72654
2.71255
2.71397
2.71529
2.71684
2.71843
2.71994
2.72129
2.72245
2.72342
2.72429
2.72507
2.72597
2.72695
2.72812
2.7147
2.71637
2.71775
2.71937
2.72096
2.72241
2.72366
2.72468
2.72549
2.72621
2.72689
2.72767
2.72867
2.72978
2.71259
2.71366
2.71449
2.71556
2.71667
2.71782
2.71893
2.72001
2.72097
2.72192
2.72274
2.72363
2.72443
2.72555
2.71314
2.71416
2.71502
2.71612
2.7173
2.71854
2.71975
2.72092
2.72197
2.72298
2.72386
2.7248
2.72562
2.72668
2.71377
2.71469
2.71565
2.71683
2.71809
2.7194
2.72067
2.72189
2.72298
2.724
2.72489
2.72581
2.72661
2.72767
2.71457
2.71545
2.71646
2.71769
2.71901
2.72037
2.7217
2.72296
2.72409
2.72514
2.72603
2.72694
2.72773
2.72875
2.71556
2.71641
2.71747
2.71873
2.72008
2.72147
2.72283
2.72412
2.72527
2.72631
2.7272
2.72808
2.72886
2.72982
2.71676
2.7176
2.71867
2.71994
2.72129
2.72269
2.72406
2.72535
2.7265
2.72752
2.7284
2.72924
2.73
2.7309
2.71817
2.719
2.72007
2.72132
2.72266
2.72404
2.72539
2.72665
2.72777
2.72876
2.72962
2.73041
2.73116
2.73198
2.71979
2.72063
2.72167
2.72289
2.72419
2.72552
2.72682
2.72802
2.72909
2.73003
2.73085
2.7316
2.73233
2.73307
2.72159
2.72245
2.72346
2.72462
2.72587
2.72713
2.72834
2.72947
2.73046
2.73134
2.73212
2.73281
2.7335
2.73418
2.72351
2.72444
2.7254
2.72651
2.72768
2.72883
2.72994
2.73096
2.73187
2.73267
2.73339
2.73402
2.73469
2.7353
2.72554
2.72655
2.72745
2.72851
2.72959
2.73064
2.73162
2.73253
2.73333
2.73405
2.73469
2.73527
2.73592
2.73649
2.72759
2.72872
2.72957
2.73057
2.73155
2.73248
2.73334
2.73413
2.73482
2.73542
2.73601
2.73654
2.7372
2.73772
2.72964
2.73079
2.73163
2.7326
2.73351
2.73435
2.7351
2.73577
2.73635
2.73687
2.73738
2.73791
2.73853
2.73911
2.73167
2.73286
2.73371
2.73463
2.73546
2.73621
2.73685
2.7374
2.73787
2.73831
2.73879
2.73927
2.73994
2.74049
2.71918
2.72062
2.72164
2.72268
2.72361
2.72446
2.72519
2.72587
2.72642
2.72698
2.72742
2.72791
2.72829
2.72892
2.72071
2.72174
2.72267
2.72365
2.72457
2.72544
2.7262
2.7269
2.72747
2.72805
2.72851
2.72903
2.72946
2.73007
2.72207
2.7229
2.7238
2.72474
2.72563
2.72648
2.72725
2.72794
2.72853
2.72909
2.72955
2.73006
2.73047
2.73109
2.72341
2.7241
2.72496
2.72584
2.72671
2.72755
2.72831
2.729
2.72958
2.73014
2.73061
2.73111
2.73153
2.73214
2.7247
2.72532
2.72616
2.727
2.72784
2.72866
2.7294
2.73008
2.73066
2.73121
2.73168
2.73215
2.73258
2.73317
2.72602
2.7266
2.7274
2.7282
2.72901
2.72979
2.73052
2.73117
2.73175
2.73227
2.73273
2.73319
2.73362
2.73418
2.72733
2.72792
2.72867
2.72944
2.73021
2.73096
2.73165
2.73228
2.73285
2.73335
2.7338
2.73423
2.73467
2.73518
2.72868
2.72929
2.72998
2.73071
2.73144
2.73214
2.7328
2.7334
2.73395
2.73442
2.73486
2.73526
2.73572
2.73617
2.73003
2.73066
2.7313
2.73199
2.73268
2.73334
2.73397
2.73454
2.73507
2.73552
2.73595
2.73633
2.73678
2.73718
2.73138
2.73203
2.73262
2.73329
2.73392
2.73455
2.73514
2.73568
2.73618
2.73661
2.73703
2.73739
2.73783
2.73817
2.7327
2.73337
2.73393
2.73457
2.73517
2.73576
2.73632
2.73683
2.73731
2.73773
2.73814
2.73848
2.73891
2.73921
2.73397
2.7347
2.73523
2.73585
2.73642
2.73697
2.73749
2.73797
2.73842
2.73882
2.73923
2.73956
2.74
2.74025
2.73525
2.73601
2.73649
2.7371
2.73763
2.73815
2.73865
2.73911
2.73955
2.73995
2.74034
2.7407
2.7411
2.7414
2.73651
2.73723
2.73775
2.73831
2.73882
2.73932
2.73978
2.74022
2.74065
2.74103
2.74144
2.74181
2.74227
2.74255
2.72138
2.72238
2.72322
2.72402
2.72475
2.72541
2.72601
2.72656
2.727
2.72745
2.72778
2.72816
2.72844
2.72886
2.72316
2.7238
2.72453
2.72526
2.72593
2.72654
2.72709
2.7276
2.72802
2.72844
2.72875
2.72914
2.72943
2.72987
2.72467
2.72513
2.72587
2.72652
2.72713
2.72769
2.72819
2.72865
2.72904
2.72942
2.72972
2.73009
2.73037
2.7308
2.72609
2.72646
2.72715
2.72772
2.72829
2.7288
2.72926
2.72968
2.73004
2.7304
2.73069
2.73104
2.73132
2.73175
2.72736
2.72772
2.72837
2.72889
2.72941
2.72989
2.73031
2.7307
2.73104
2.73137
2.73166
2.73199
2.73228
2.73269
2.72858
2.72896
2.72954
2.73002
2.7305
2.73094
2.73134
2.7317
2.73203
2.73233
2.73262
2.73293
2.73322
2.73361
2.72971
2.73012
2.73064
2.7311
2.73155
2.73197
2.73235
2.73269
2.733
2.73329
2.73357
2.73386
2.73416
2.73451
2.73077
2.73122
2.7317
2.73215
2.73257
2.73297
2.73333
2.73365
2.73396
2.73423
2.73451
2.73477
2.73508
2.73539
2.73175
2.73223
2.73267
2.73312
2.73353
2.73392
2.73428
2.7346
2.73491
2.73518
2.73545
2.73569
2.736
2.73626
2.73266
2.73317
2.7336
2.73405
2.73444
2.73483
2.73519
2.73551
2.73582
2.73608
2.73636
2.73658
2.73689
2.7371
2.73348
2.73402
2.73443
2.73489
2.7353
2.7357
2.73607
2.7364
2.73672
2.73699
2.73727
2.73749
2.73779
2.73796
2.73422
2.73481
2.73523
2.73571
2.73612
2.73652
2.7369
2.73723
2.73757
2.73784
2.73813
2.73835
2.73867
2.73881
2.73491
2.73552
2.73594
2.73643
2.73685
2.73728
2.73768
2.73805
2.73841
2.73872
2.73902
2.73928
2.73959
2.73976
2.73555
2.73616
2.73663
2.73713
2.73758
2.73802
2.73844
2.73883
2.73921
2.73953
2.73987
2.74015
2.74053
2.74069
2.72005
2.7205
2.72108
2.72159
2.7221
2.72258
2.72303
2.72346
2.72384
2.72423
2.72454
2.7249
2.72517
2.72553
2.72171
2.72187
2.72244
2.72286
2.72332
2.72372
2.72411
2.72447
2.7248
2.72514
2.72541
2.72574
2.72597
2.7263
2.72305
2.72316
2.72371
2.72409
2.72449
2.72483
2.72514
2.72542
2.72568
2.72595
2.72618
2.72647
2.72669
2.72701
2.72427
2.72442
2.7249
2.72522
2.72555
2.72584
2.7261
2.72633
2.72654
2.72677
2.72697
2.72723
2.72743
2.72775
2.72531
2.72553
2.72596
2.72624
2.72654
2.72678
2.72699
2.72718
2.72736
2.72755
2.72773
2.72797
2.72819
2.72851
2.72625
2.72652
2.7269
2.72716
2.72743
2.72764
2.72783
2.728
2.72816
2.72832
2.7285
2.72872
2.72896
2.72928
2.72706
2.72736
2.72771
2.72797
2.72822
2.72843
2.72862
2.72878
2.72893
2.72909
2.72926
2.72948
2.72974
2.73008
2.72776
2.7281
2.72844
2.72871
2.72896
2.72918
2.72937
2.72954
2.7297
2.72985
2.73004
2.73026
2.73056
2.73089
2.72835
2.72873
2.72907
2.72937
2.72964
2.72988
2.7301
2.73028
2.73046
2.73064
2.73086
2.73108
2.73141
2.73173
2.72889
2.72934
2.72969
2.73002
2.73031
2.73057
2.73081
2.73101
2.73122
2.73141
2.73166
2.73191
2.73229
2.7326
2.72938
2.72987
2.73024
2.73061
2.73093
2.73122
2.7315
2.73175
2.73201
2.73224
2.73254
2.73281
2.73322
2.73352
2.72988
2.73041
2.73081
2.73121
2.73157
2.73189
2.7322
2.73248
2.73278
2.73305
2.73339
2.73369
2.73416
2.73445
2.73035
2.73092
2.73132
2.73176
2.73216
2.73254
2.73291
2.73325
2.73362
2.73396
2.73435
2.73471
2.73519
2.73551
2.7309
2.73149
2.73196
2.7324
2.73286
2.73326
2.73367
2.73405
2.73446
2.73483
2.73525
2.73565
2.73618
2.73655
2.7162
2.71609
2.71624
2.71638
2.71661
2.71687
2.71718
2.71755
2.71794
2.7184
2.71883
2.71934
2.71977
2.7203
2.71744
2.71728
2.7174
2.71748
2.71765
2.71785
2.7181
2.7184
2.71874
2.71914
2.71953
2.71998
2.72037
2.72083
2.7184
2.71831
2.71842
2.7185
2.71863
2.71877
2.71897
2.7192
2.71946
2.7198
2.72013
2.72055
2.72092
2.72138
2.71931
2.71928
2.71937
2.71944
2.71952
2.71965
2.71979
2.71998
2.7202
2.72049
2.7208
2.72118
2.72153
2.72197
2.72008
2.72012
2.72022
2.72028
2.72036
2.72047
2.72058
2.72073
2.72092
2.72117
2.72145
2.72181
2.72216
2.72261
2.72078
2.72088
2.72099
2.72106
2.72115
2.72124
2.72134
2.72148
2.72166
2.72189
2.72217
2.72251
2.72287
2.72333
2.72141
2.72156
2.72169
2.72179
2.72189
2.72199
2.7221
2.72224
2.72242
2.72264
2.72291
2.72325
2.72363
2.7241
2.72203
2.7222
2.72236
2.7225
2.72262
2.72274
2.72287
2.72302
2.72321
2.72343
2.72372
2.72406
2.72449
2.72496
2.72259
2.7228
2.723
2.72318
2.72333
2.72348
2.72364
2.72382
2.72403
2.72428
2.72459
2.72494
2.72541
2.72588
2.72316
2.72343
2.72366
2.72388
2.72406
2.72425
2.72444
2.72465
2.72489
2.72515
2.72551
2.72588
2.72641
2.72688
2.7237
2.72403
2.72429
2.72455
2.72479
2.72502
2.72526
2.72551
2.72581
2.72611
2.72652
2.72692
2.7275
2.72795
2.72433
2.72471
2.725
2.72531
2.72559
2.72585
2.72613
2.72642
2.72674
2.72709
2.72754
2.72799
2.72862
2.72909
2.72496
2.72537
2.72571
2.72605
2.72639
2.72671
2.72705
2.72739
2.72779
2.7282
2.72871
2.72921
2.72987
2.73036
2.7258
2.72621
2.72662
2.72697
2.72734
2.72768
2.72805
2.72842
2.72885
2.72929
2.72981
2.73035
2.73103
2.73163
2.71213
2.71185
2.71173
2.71163
2.71161
2.71165
2.7118
2.71203
2.71234
2.71274
2.71321
2.71376
2.71432
2.71497
2.71295
2.7127
2.71258
2.7125
2.71247
2.71251
2.71264
2.71285
2.71313
2.71351
2.71394
2.71444
2.71496
2.71554
2.7136
2.71344
2.71336
2.71331
2.71329
2.71333
2.71345
2.71362
2.71387
2.71419
2.71458
2.71505
2.71553
2.7161
2.71426
2.71418
2.71413
2.7141
2.71409
2.71413
2.71423
2.71439
2.71462
2.71493
2.71529
2.71573
2.71619
2.71672
2.7149
2.71487
2.71486
2.71486
2.71487
2.71492
2.71501
2.71516
2.71537
2.71565
2.71599
2.7164
2.71684
2.71737
2.71554
2.71557
2.7156
2.71562
2.71565
2.71571
2.7158
2.71594
2.71615
2.71642
2.71675
2.71716
2.71759
2.7181
2.71619
2.71627
2.71633
2.71638
2.71643
2.71651
2.7166
2.71675
2.71696
2.71722
2.71755
2.71794
2.71838
2.71889
2.71687
2.71699
2.71708
2.71715
2.71722
2.71731
2.71743
2.71759
2.71781
2.71808
2.71842
2.71881
2.71928
2.71977
2.71757
2.71772
2.71784
2.71794
2.71803
2.71815
2.71829
2.71848
2.71871
2.719
2.71935
2.71975
2.72023
2.72071
2.71832
2.7185
2.71864
2.71877
2.71889
2.71904
2.7192
2.71941
2.71966
2.71996
2.72034
2.72075
2.72128
2.72175
2.71909
2.7193
2.71947
2.71963
2.71979
2.71996
2.72016
2.72039
2.72067
2.721
2.72141
2.72184
2.7224
2.72283
2.71999
2.7202
2.72039
2.72058
2.72076
2.72096
2.72118
2.72143
2.72173
2.72208
2.72251
2.72297
2.72357
2.72401
2.72088
2.72111
2.72132
2.72154
2.72177
2.722
2.72225
2.72254
2.72288
2.72326
2.72373
2.72422
2.72483
2.72528
2.72202
2.72218
2.72244
2.72266
2.7229
2.72313
2.72341
2.7237
2.72405
2.72445
2.72493
2.72544
2.72606
2.72662
2.71005
2.70981
2.70965
2.70947
2.70932
2.70923
2.70919
2.7092
2.70929
2.70947
2.70972
2.71007
2.7105
2.71103
2.71056
2.71035
2.71022
2.71008
2.70997
2.70991
2.70988
2.70993
2.71004
2.71022
2.71049
2.71085
2.71126
2.71175
2.71099
2.71086
2.71078
2.71068
2.71061
2.71058
2.71058
2.71064
2.71075
2.71093
2.71118
2.71151
2.71188
2.71237
2.7115
2.71142
2.71136
2.7113
2.71125
2.71125
2.71127
2.71134
2.71147
2.71166
2.71191
2.71224
2.71259
2.71305
2.71204
2.71198
2.71195
2.71193
2.71191
2.71192
2.71196
2.71205
2.71218
2.71237
2.71261
2.71292
2.71326
2.71369
2.71262
2.71259
2.71259
2.71259
2.71259
2.71262
2.71267
2.71277
2.71291
2.71311
2.71335
2.71365
2.71399
2.71438
2.71324
2.71325
2.71326
2.71327
2.71329
2.71334
2.7134
2.71351
2.71365
2.71385
2.71409
2.71439
2.71472
2.71508
2.71392
2.71395
2.71398
2.714
2.71403
2.71408
2.71415
2.71427
2.71442
2.71462
2.71487
2.71516
2.7155
2.71583
2.71464
2.7147
2.71473
2.71476
2.71481
2.71487
2.71495
2.71507
2.71523
2.71544
2.71569
2.71597
2.71631
2.71661
2.71544
2.71551
2.71554
2.71557
2.71562
2.71569
2.71579
2.71592
2.71609
2.7163
2.71656
2.71683
2.71718
2.71745
2.71628
2.71636
2.71639
2.71644
2.71649
2.71657
2.71668
2.71682
2.71701
2.71721
2.71747
2.71774
2.7181
2.71833
2.71723
2.71729
2.71731
2.71737
2.71742
2.71751
2.71763
2.71778
2.71796
2.71817
2.71843
2.7187
2.71908
2.7193
2.71818
2.71825
2.71829
2.71835
2.71841
2.71851
2.71864
2.71879
2.71898
2.7192
2.71945
2.71973
2.7201
2.72032
2.71936
2.71932
2.71936
2.7194
2.71948
2.71957
2.7197
2.71984
2.72003
2.72024
2.7205
2.72079
2.72116
2.72147
2.70965
2.70951
2.70936
2.70916
2.70897
2.70877
2.70859
2.70844
2.70834
2.70829
2.7083
2.70834
2.70845
2.70866
2.70988
2.70977
2.70964
2.70948
2.70932
2.70918
2.70905
2.70896
2.70891
2.70888
2.70892
2.70901
2.70914
2.70942
2.71012
2.71004
2.70994
2.70982
2.7097
2.7096
2.70952
2.70947
2.70945
2.70945
2.7095
2.7096
2.70973
2.71002
2.71045
2.71038
2.7103
2.71022
2.71012
2.71006
2.71
2.70998
2.70997
2.71001
2.71008
2.7102
2.71034
2.71061
2.71085
2.71077
2.71071
2.71064
2.71057
2.71053
2.7105
2.71049
2.71051
2.71056
2.71064
2.71077
2.71091
2.71115
2.7113
2.71123
2.71117
2.71111
2.71105
2.71103
2.71102
2.71103
2.71106
2.71112
2.71121
2.71134
2.71148
2.71168
2.71179
2.71173
2.71168
2.71162
2.71158
2.71157
2.71156
2.71158
2.71162
2.71169
2.71178
2.7119
2.71204
2.7122
2.71235
2.71229
2.71224
2.71219
2.71215
2.71214
2.71213
2.71216
2.7122
2.71227
2.71236
2.71247
2.7126
2.71271
2.71296
2.71291
2.71285
2.7128
2.71276
2.71274
2.71274
2.71276
2.7128
2.71287
2.71296
2.71304
2.71317
2.71324
2.71363
2.71359
2.71351
2.71346
2.71342
2.71339
2.71338
2.71339
2.71343
2.71349
2.71357
2.71364
2.71376
2.71378
2.71435
2.71432
2.71423
2.71417
2.71412
2.71408
2.71407
2.71408
2.71411
2.71415
2.71422
2.71427
2.71438
2.71437
2.71516
2.71512
2.71499
2.71493
2.71486
2.71482
2.7148
2.7148
2.71482
2.71485
2.7149
2.71495
2.71504
2.715
2.71601
2.71594
2.71581
2.71573
2.71565
2.7156
2.71558
2.71556
2.71557
2.71558
2.71562
2.71565
2.71572
2.71564
2.71702
2.71681
2.71667
2.71657
2.71648
2.71642
2.71638
2.71636
2.71636
2.71636
2.71638
2.71639
2.71645
2.7164
2.70972
2.70962