/*--------------------------------*- C++ -*----------------------------------*\
| =========                 |                                                 |
| \\      /  F ield         | OpenFOAM: The Open Source CFD Toolbox           |
|  \\    /   O peration     | Version:  v2106                                 |
|   \\  /    A nd           | Website:  www.openfoam.com                      |
|    \\/     M anipulation  |                                                 |
\*---------------------------------------------------------------------------*/
FoamFile
{
    version     2.0;
    format      ascii;
    arch        "LSB;label=32;scalar=64";
    class       surfaceScalarField;
    location    "0.00019";
    object      phi;
}
// * * * * * * * * * * * * * * * * * * * * * * * * * * * * * * * * * * * * * //

dimensions      [1 0 -1 0 0 0 0];

internalField   nonuniform List<scalar> 
52267
(
-5.57259e-09
-5.55349e-09
-2.38328e-07
5.9555e-09
5.96993e-09
-4.92888e-09
-5.77738e-09
-2.38079e-07
6.03718e-09
-4.10025e-09
-6.0732e-09
-2.37843e-07
6.24244e-09
-3.24463e-09
-6.46574e-09
-2.37678e-07
6.68101e-09
-2.26082e-09
-6.85685e-09
-2.37527e-07
7.06789e-09
-1.17494e-09
-7.13484e-09
-2.37403e-07
7.30872e-09
-7.27813e-09
-2.37328e-07
7.42062e-09
-5.79626e-09
-4.90874e-09
-2.38075e-07
6.05151e-09
-5.32692e-09
-5.30597e-09
-2.37831e-07
-4.59511e-09
-5.71248e-09
-2.37576e-07
-3.67761e-09
-6.10078e-09
-2.37354e-07
-2.57544e-09
-6.47805e-09
-2.37172e-07
-1.34509e-09
-6.7709e-09
-2.3705e-07
-6.92919e-09
-2.36974e-07
-6.0928e-09
-4.08289e-09
-2.37839e-07
6.25713e-09
-5.73375e-09
-4.57601e-09
-2.37575e-07
-5.06063e-09
-5.04117e-09
-2.37298e-07
-4.07445e-09
-5.42298e-09
-2.37051e-07
-2.85813e-09
-5.75415e-09
-2.3685e-07
-1.49808e-09
-6.01692e-09
-2.36732e-07
-6.15701e-09
-2.36661e-07
-6.48662e-09
-3.23137e-09
-2.37673e-07
6.69539e-09
-6.12266e-09
-3.6624e-09
-2.37353e-07
-5.44265e-09
-4.05891e-09
-2.37051e-07
-4.40227e-09
-4.38614e-09
-2.3678e-07
-3.10541e-09
-4.65896e-09
-2.36576e-07
-1.63275e-09
-4.87829e-09
-2.36456e-07
-4.99555e-09
-2.36383e-07
-6.87758e-09
-2.25326e-09
-2.37521e-07
7.08165e-09
-6.49967e-09
-2.56482e-09
-2.37171e-07
-5.77368e-09
-2.84698e-09
-2.36849e-07
-4.67534e-09
-3.09325e-09
-2.36575e-07
-3.30219e-09
-3.28952e-09
-2.36375e-07
-1.73682e-09
-3.44757e-09
-2.36262e-07
-3.53151e-09
-2.36187e-07
-7.15537e-09
-1.1731e-09
-2.37401e-07
7.32276e-09
-6.7925e-09
-1.34012e-09
-2.37048e-07
-6.03722e-09
-1.49229e-09
-2.3673e-07
-4.89592e-09
-1.62603e-09
-2.36454e-07
-3.4611e-09
-1.72983e-09
-2.36261e-07
-1.82045e-09
-1.8132e-09
-2.36158e-07
-1.85676e-09
-2.36084e-07
-7.29665e-09
-4.61944e-11
-2.37324e-07
7.4331e-09
-6.95e-09
-4.63511e-11
-2.3697e-07
-6.17775e-09
-4.49315e-11
-2.36657e-07
-5.01441e-09
-4.36689e-11
-2.36379e-07
-3.5463e-09
-4.26203e-11
-2.36184e-07
-1.86494e-09
-4.19669e-11
-2.36082e-07
-4.02907e-11
-2.36007e-07
-7.29566e-09
1.08219e-09
-2.37321e-07
7.43076e-09
-6.94927e-09
1.24993e-09
-2.36968e-07
-6.1776e-09
1.40482e-09
-2.36656e-07
-5.01469e-09
1.54083e-09
-2.36377e-07
-3.54668e-09
1.64625e-09
-2.36181e-07
-1.86521e-09
1.7303e-09
-2.36079e-07
1.77665e-09
-2.36005e-07
-7.14944e-09
-2.37391e-07
7.31644e-09
-6.78686e-09
-2.37038e-07
-6.03285e-09
-2.36719e-07
-4.89262e-09
-2.36442e-07
-3.45891e-09
-2.36248e-07
-1.81942e-09
-2.36143e-07
-2.3607e-07
-3.10807e-09
-3.08108e-09
-2.38848e-07
3.39786e-09
3.42644e-09
-2.74847e-09
-3.09328e-09
-2.38663e-07
3.36068e-09
-2.19814e-09
-3.09609e-09
-2.3839e-07
3.14274e-09
-1.70705e-09
-3.29992e-09
-2.38175e-07
3.34461e-09
-1.21976e-09
-3.53893e-09
-2.37999e-07
3.53982e-09
-6.79673e-10
-3.76575e-09
-2.37881e-07
3.70945e-09
-3.00006e-11
-3.87942e-09
-2.37851e-07
3.77787e-09
6.17591e-10
-3.88371e-09
-2.37847e-07
3.78831e-09
1.16199e-09
-3.76842e-09
-2.37871e-07
3.714e-09
1.6533e-09
-3.54656e-09
-2.37986e-07
3.54806e-09
2.14618e-09
-3.31098e-09
-2.38157e-07
3.35651e-09
2.69995e-09
-3.10485e-09
-2.38367e-07
3.15589e-09
3.06276e-09
-3.10315e-09
-2.38636e-07
3.37773e-09
-3.08946e-09
-2.38818e-07
3.41507e-09
3.38692e-09
-3.12127e-09
-2.72404e-09
-2.38662e-07
3.38801e-09
-2.80422e-09
-2.7762e-09
-2.38471e-07
-2.39985e-09
-2.9813e-09
-2.38144e-07
-1.99587e-09
-3.20893e-09
-2.37917e-07
-1.48523e-09
-3.49172e-09
-2.37737e-07
-8.63672e-10
-3.75877e-09
-2.37618e-07
-3.24286e-11
-3.89525e-09
-2.37568e-07
8.00312e-10
-3.89492e-09
-2.37563e-07
1.42523e-09
-3.75813e-09
-2.37608e-07
1.94033e-09
-3.49526e-09
-2.37721e-07
2.3472e-09
-3.21417e-09
-2.37896e-07
2.75385e-09
-2.98472e-09
-2.38121e-07
3.07326e-09
-2.77656e-09
-2.38442e-07
-2.7228e-09
-2.38629e-07
3.34444e-09
-3.12454e-09
-2.17517e-09
-2.3839e-07
3.16786e-09
-3.01045e-09
-2.37286e-09
-2.38144e-07
-2.75606e-09
-2.7277e-09
-2.37863e-07
-2.32818e-09
-3.01199e-09
-2.37656e-07
-1.70594e-09
-3.30621e-09
-2.37477e-07
-9.54225e-10
-3.564e-09
-2.37362e-07
-3.30798e-11
-3.69084e-09
-2.37301e-07
8.88092e-10
-3.68988e-09
-2.37296e-07
1.64488e-09
-3.55975e-09
-2.37351e-07
2.27169e-09
-3.30419e-09
-2.3746e-07
2.70347e-09
-3.00991e-09
-2.37632e-07
2.96137e-09
-2.72347e-09
-2.37836e-07
3.07576e-09
-2.36547e-09
-2.38116e-07
-2.16581e-09
-2.38354e-07
3.12363e-09
-3.33012e-09
-1.6871e-09
-2.38175e-07
3.36956e-09
-3.23844e-09
-1.97237e-09
-2.3792e-07
-3.04022e-09
-2.30276e-09
-2.37657e-07
-2.60583e-09
-2.57985e-09
-2.37439e-07
-1.90111e-09
-2.84822e-09
-2.37258e-07
-1.02641e-09
-3.06274e-09
-2.37141e-07
-3.27909e-11
-3.17625e-09
-2.37074e-07
9.59664e-10
-3.17545e-09
-2.37069e-07
1.83993e-09
-3.05536e-09
-2.37129e-07
2.54899e-09
-2.8408e-09
-2.37239e-07
2.98682e-09
-2.57032e-09
-2.37414e-07
3.18959e-09
-2.29037e-09
-2.37627e-07
3.28502e-09
-1.95818e-09
-2.37886e-07
-1.67573e-09
-2.38138e-07
3.3256e-09
-3.56692e-09
-1.20478e-09
-2.37999e-07
3.56318e-09
-3.51991e-09
-1.46801e-09
-2.3774e-07
-3.33371e-09
-1.68711e-09
-2.37479e-07
-2.87411e-09
-1.88075e-09
-2.37258e-07
-2.08223e-09
-2.06098e-09
-2.37084e-07
-1.09117e-09
-2.18719e-09
-2.3697e-07
-3.13725e-11
-2.26143e-09
-2.36906e-07
1.02657e-09
-2.26053e-09
-2.36902e-07
2.02348e-09
-2.17942e-09
-2.36957e-07
2.81856e-09
-2.05093e-09
-2.37064e-07
3.28094e-09
-1.86687e-09
-2.37233e-07
3.47312e-09
-1.66997e-09
-2.37448e-07
3.52655e-09
-1.45066e-09
-2.37704e-07
-1.19217e-09
-2.37961e-07
3.52254e-09
-3.79126e-09
-6.6985e-10
-2.37885e-07
3.73161e-09
-3.78488e-09
-8.50712e-10
-2.37622e-07
-3.59133e-09
-9.42637e-10
-2.37364e-07
-3.09008e-09
-1.01292e-09
-2.37142e-07
-2.21036e-09
-1.07596e-09
-2.3697e-07
-1.15042e-09
-1.13276e-09
-2.36863e-07
-3.0271e-11
-1.17545e-09
-2.3681e-07
1.0918e-09
-1.17446e-09
-2.36807e-07
2.15486e-09
-1.12578e-09
-2.36851e-07
3.0379e-09
-1.06636e-09
-2.3695e-07
3.54121e-09
-9.99076e-10
-2.37116e-07
3.73859e-09
-9.25725e-10
-2.37332e-07
3.75038e-09
-8.32001e-10
-2.37585e-07
-6.53896e-10
-2.37843e-07
3.69211e-09
-3.90098e-09
-2.96373e-11
-2.37857e-07
3.79763e-09
-3.91806e-09
-2.87409e-11
-2.37572e-07
-3.71505e-09
-2.65383e-11
-2.37303e-07
-3.20098e-09
-2.39229e-11
-2.37074e-07
-2.2836e-09
-1.96096e-11
-2.36905e-07
-1.19318e-09
-1.88262e-11
-2.36809e-07
-2.80004e-11
-1.60879e-11
-2.36764e-07
1.14056e-09
-1.47466e-11
-2.36762e-07
2.23247e-09
-1.29021e-11
-2.36796e-07
3.1535e-09
-9.04869e-12
-2.36884e-07
3.66795e-09
-1.09091e-11
-2.37048e-07
3.87225e-09
-1.06728e-11
-2.37272e-07
3.85907e-09
-1.08492e-11
-2.37535e-07
-1.01333e-11
-2.37815e-07
3.75777e-09
-3.90132e-09
6.08953e-10
-2.3785e-07
3.80226e-09
-3.91589e-09
7.93684e-10
-2.37566e-07
-3.71305e-09
8.88635e-10
-2.37297e-07
-3.1999e-09
9.63356e-10
-2.37068e-07
-2.28284e-09
1.03095e-09
-2.36899e-07
-1.19259e-09
1.09402e-09
-2.36805e-07
-2.68002e-11
1.14391e-09
-2.36761e-07
1.14249e-09
1.14557e-09
-2.36759e-07
2.23441e-09
1.09765e-09
-2.36792e-07
3.15535e-09
1.03962e-09
-2.36879e-07
3.66809e-09
9.75829e-10
-2.37041e-07
3.87222e-09
9.0355e-10
-2.37266e-07
3.86306e-09
8.1045e-10
-2.37529e-07
6.29431e-10
-2.3781e-07
3.76616e-09
-3.7839e-09
1.14877e-09
-2.37872e-07
3.72575e-09
-3.77491e-09
1.41433e-09
-2.37608e-07
-3.57933e-09
1.63665e-09
-2.37349e-07
-3.07739e-09
1.83447e-09
-2.37126e-07
-2.20017e-09
2.01974e-09
-2.36953e-07
-1.14256e-09
2.15014e-09
-2.36846e-07
-2.47865e-11
2.22882e-09
-2.36793e-07
1.09457e-09
2.23041e-09
-2.3679e-07
2.156e-09
2.15223e-09
-2.36833e-07
3.03676e-09
2.02814e-09
-2.36932e-07
3.53781e-09
1.84491e-09
-2.37099e-07
3.73431e-09
1.64777e-09
-2.37318e-07
3.74667e-09
1.42606e-09
-2.37573e-07
1.16613e-09
-2.37832e-07
3.68851e-09
-3.56024e-09
1.63537e-09
-2.37984e-07
3.55806e-09
-3.50995e-09
1.92275e-09
-2.3772e-07
-3.32074e-09
2.25559e-09
-2.37457e-07
-2.85966e-09
2.53481e-09
-2.37235e-07
-2.06938e-09
2.80562e-09
-2.37059e-07
-1.08147e-09
3.02396e-09
-2.36944e-07
-2.20004e-11
3.14158e-09
-2.36879e-07
1.03402e-09
3.14287e-09
-2.36875e-07
2.03012e-09
3.02349e-09
-2.36931e-07
2.82314e-09
2.81108e-09
-2.37039e-07
3.28291e-09
2.54076e-09
-2.37209e-07
3.47393e-09
2.26062e-09
-2.37425e-07
3.5264e-09
1.92737e-09
-2.37683e-07
1.64471e-09
-2.37941e-07
3.51817e-09
-3.32297e-09
2.12624e-09
-2.38154e-07
3.3653e-09
-3.2274e-09
2.32656e-09
-2.37895e-07
-3.02539e-09
2.68366e-09
-2.37629e-07
-2.58828e-09
2.96813e-09
-2.3741e-07
-1.88446e-09
3.26251e-09
-2.37228e-07
-1.01355e-09
3.52157e-09
-2.37109e-07
-2.16989e-11
3.64909e-09
-2.37041e-07
9.68902e-10
3.64892e-09
-2.37036e-07
1.84642e-09
3.51785e-09
-2.37096e-07
2.55282e-09
3.26354e-09
-2.37208e-07
2.98906e-09
2.9697e-09
-2.37384e-07
3.19157e-09
2.68471e-09
-2.37598e-07
3.28622e-09
2.32559e-09
-2.37863e-07
2.12591e-09
-2.38113e-07
3.32127e-09
-3.1137e-09
2.68145e-09
-2.38365e-07
3.16378e-09
-2.99655e-09
2.73308e-09
-2.38119e-07
-2.73859e-09
2.9401e-09
-2.37833e-07
-2.30826e-09
3.16851e-09
-2.37622e-07
-1.68783e-09
3.45171e-09
-2.37443e-07
-9.40571e-10
3.71645e-09
-2.37326e-07
-2.18227e-11
3.85001e-09
-2.37264e-07
8.9671e-10
3.84893e-09
-2.3726e-07
1.6496e-09
3.71086e-09
-2.37314e-07
2.27313e-09
3.44995e-09
-2.37424e-07
2.70442e-09
3.16748e-09
-2.37597e-07
2.96035e-09
2.93648e-09
-2.378e-07
3.07118e-09
2.72714e-09
-2.38083e-07
2.67611e-09
-2.38324e-07
3.11692e-09
-3.11173e-09
3.04637e-09
-2.38635e-07
3.38636e-09
-2.78799e-09
3.05461e-09
-2.38442e-07
-2.38039e-09
3.05445e-09
-2.38114e-07
-1.97548e-09
3.2622e-09
-2.37883e-07
-1.46803e-09
3.50308e-09
-2.377e-07
-8.50083e-10
3.72653e-09
-2.37579e-07
-2.27747e-11
3.83688e-09
-2.37528e-07
8.05939e-10
3.83673e-09
-2.37523e-07
1.42721e-09
3.72063e-09
-2.37568e-07
1.93825e-09
3.49974e-09
-2.37681e-07
2.34418e-09
3.26036e-09
-2.3786e-07
2.7499e-09
3.04682e-09
-2.38085e-07
3.07032e-09
3.04606e-09
-2.38408e-07
3.03697e-09
-2.38599e-07
3.34358e-09
-3.09927e-09
-2.3882e-07
3.37341e-09
3.42568e-09
-2.73419e-09
-2.38631e-07
3.32973e-09
-2.18004e-09
-2.38354e-07
3.10633e-09
-1.69248e-09
-2.38138e-07
3.30587e-09
-1.20955e-09
-2.37961e-07
3.5006e-09
-6.72108e-10
-2.37838e-07
3.66927e-09
-2.35407e-11
-2.3781e-07
3.7378e-09
6.25396e-10
-2.37804e-07
3.73885e-09
1.16818e-09
-2.37828e-07
3.66328e-09
1.65475e-09
-2.37945e-07
3.49446e-09
2.14241e-09
-2.38116e-07
3.30069e-09
2.69631e-09
-2.38327e-07
3.09807e-09
3.06026e-09
-2.38601e-07
3.32245e-09
-2.38786e-07
3.38588e-09
3.3637e-09
-2.08493e-10
-1.79958e-10
-2.38787e-07
2.45737e-10
2.77866e-10
-2.80006e-10
-2.22896e-10
-2.38643e-07
2.83553e-10
-1.90633e-10
-9.27653e-11
-2.38375e-07
-1.36968e-10
-1.27672e-10
-2.29753e-10
-2.38189e-07
-6.09363e-11
-7.93078e-11
-3.51228e-10
-2.38018e-07
-8.77894e-13
-4.06806e-11
-4.67885e-10
-2.37906e-07
8.89612e-11
-1.32125e-12
-4.96374e-10
-2.37898e-07
1.18359e-10
3.01527e-11
-5.06334e-10
-2.37892e-07
1.343e-10
6.75846e-11
-4.70022e-10
-2.37897e-07
9.38519e-11
1.18159e-10
-3.51515e-10
-2.38007e-07
-5.6352e-13
1.81407e-10
-2.32369e-10
-2.38172e-07
-5.75178e-11
2.65783e-10
-9.26776e-11
-2.38352e-07
-1.3155e-10
1.87714e-10
-2.20376e-10
-2.38615e-07
2.8918e-10
-1.72394e-10
-2.38756e-07
2.41568e-10
2.51837e-10
-2.52531e-10
-2.56623e-10
-2.38645e-07
3.1768e-10
-2.72915e-10
-2.46609e-10
-2.38524e-07
-2.11145e-10
-3.08303e-10
-2.38202e-07
-2.3385e-10
-4.09576e-10
-2.37985e-07
-2.27998e-10
-5.91017e-10
-2.378e-07
-1.536e-10
-7.59559e-10
-2.37712e-07
-8.64789e-13
-8.24876e-10
-2.377e-07
1.4464e-10
-8.298e-10
-2.37694e-07
2.16708e-10
-7.57542e-10
-2.37703e-07
2.24417e-10
-5.88586e-10
-2.37785e-07
2.01209e-10
-4.06634e-10
-2.37964e-07
2.58345e-10
-2.99005e-10
-2.38178e-07
2.31724e-10
-2.32204e-10
-2.38495e-07
-2.42355e-10
-2.38613e-07
2.90658e-10
-1.21778e-10
-1.6911e-10
-2.38381e-07
-1.06225e-10
-3.35938e-10
-1.85005e-10
-2.38205e-07
-4.49637e-10
-4.23159e-10
-2.379e-07
-4.86356e-10
-5.64189e-10
-2.37731e-07
-4.19478e-10
-7.62604e-10
-2.37588e-07
-2.6018e-10
-9.48325e-10
-2.37511e-07
-1.82362e-12
-1.03901e-09
-2.37512e-07
2.51188e-10
-1.0419e-09
-2.37505e-07
4.09755e-10
-9.43914e-10
-2.375e-07
4.78949e-10
-7.55409e-10
-2.37571e-07
4.42348e-10
-5.52627e-10
-2.37708e-07
3.26341e-10
-4.03875e-10
-2.37871e-07
1.05985e-10
-1.62522e-10
-2.38175e-07
-1.50231e-10
-2.38346e-07
-1.29764e-10
-2.5895e-10
-1.09167e-10
-2.38196e-07
-3.06452e-11
-4.39103e-10
-2.08401e-10
-2.3799e-07
-5.91126e-10
-4.60282e-10
-2.37735e-07
-6.41313e-10
-6.13698e-10
-2.37567e-07
-5.68817e-10
-7.86521e-10
-2.37423e-07
-3.59578e-10
-9.82252e-10
-2.37347e-07
-2.38217e-12
-1.09117e-09
-2.37349e-07
3.51972e-10
-1.09275e-09
-2.37343e-07
5.62007e-10
-9.77543e-10
-2.37335e-07
6.36269e-10
-7.75451e-10
-2.37405e-07
5.86343e-10
-5.9671e-10
-2.37543e-07
4.32888e-10
-4.34677e-10
-2.37708e-07
2.46297e-10
-1.81879e-10
-2.37955e-07
-8.71265e-11
-2.38159e-07
-5.47162e-11
-3.78499e-10
-6.48894e-11
-2.38026e-07
2.74886e-11
-6.17681e-10
-2.04944e-10
-2.37809e-07
-7.89246e-10
-3.95287e-10
-2.37592e-07
-8.15079e-10
-5.3977e-10
-2.37426e-07
-7.13963e-10
-6.84081e-10
-2.37281e-07
-4.62909e-10
-8.66341e-10
-2.37212e-07
-1.54015e-12
-9.62422e-10
-2.37223e-07
4.60423e-10
-9.63157e-10
-2.37215e-07
7.15494e-10
-8.63173e-10
-2.37201e-07
8.16795e-10
-6.71278e-10
-2.37263e-07
7.88936e-10
-5.2056e-10
-2.37402e-07
6.14657e-10
-3.68139e-10
-2.37565e-07
3.68907e-10
-1.76276e-10
-2.37776e-07
-4.21216e-11
-2.37988e-07
4.29537e-12
-4.9123e-10
-3.08983e-11
-2.37916e-07
1.15769e-10
-7.81021e-10
-1.36861e-10
-2.37722e-07
-9.70151e-10
-2.40673e-10
-2.37518e-07
-1.00705e-09
-3.33459e-10
-2.37351e-07
-8.944e-10
-4.34725e-10
-2.37215e-07
-5.8822e-10
-5.60224e-10
-2.37145e-07
1.77691e-12
-6.13174e-10
-2.37147e-07
5.93893e-10
-6.13421e-10
-2.3714e-07
9.0665e-10
-5.57049e-10
-2.37133e-07
1.01789e-09
-4.212e-10
-2.37197e-07
9.73439e-10
-3.12912e-10
-2.37328e-07
7.75126e-10
-2.13874e-10
-2.37492e-07
4.7568e-10
-1.08941e-10
-2.37691e-07
-7.11525e-12
-2.37882e-07
8.92359e-11
-5.16768e-10
3.73726e-12
-2.37911e-07
1.39286e-10
-8.45279e-10
7.45953e-12
-2.37709e-07
-1.06118e-09
1.00855e-11
-2.3752e-07
-1.11636e-09
1.24468e-11
-2.37354e-07
-9.90978e-10
1.55388e-11
-2.37226e-07
-6.40951e-10
1.98073e-11
-2.37148e-07
4.67295e-12
2.341e-11
-2.3714e-07
6.52534e-10
2.47589e-11
-2.37132e-07
1.0094e-09
2.67455e-11
-2.37137e-07
1.13128e-09
3.11427e-11
-2.3721e-07
1.06617e-09
3.27294e-11
-2.37332e-07
8.40442e-10
3.33911e-11
-2.37495e-07
5.04437e-10
3.07198e-11
-2.37678e-07
2.5557e-11
-2.37877e-07
1.18725e-10
-5.19752e-10
2.90757e-11
-2.37903e-07
1.49224e-10
-8.4358e-10
1.43863e-10
-2.37701e-07
-1.05824e-09
2.54934e-10
-2.37512e-07
-1.11391e-09
3.54443e-10
-2.37346e-07
-9.90312e-10
4.64666e-10
-2.37218e-07
-6.41304e-10
5.99951e-10
-2.37141e-07
5.99941e-12
6.59989e-10
-2.37133e-07
6.56598e-10
6.63668e-10
-2.37126e-07
1.0168e-09
6.10035e-10
-2.37132e-07
1.13885e-09
4.78241e-10
-2.37205e-07
1.06975e-09
3.68533e-10
-2.37327e-07
8.41337e-10
2.69121e-10
-2.37489e-07
5.08109e-10
1.58184e-10
-2.37672e-07
4.63659e-11
-2.37871e-07
1.25993e-10
-4.8076e-10
6.03981e-11
-2.37904e-07
1.06967e-10
-7.67521e-10
2.07091e-10
-2.37709e-07
-9.55829e-10
4.0382e-10
-2.37506e-07
-9.95182e-10
5.54459e-10
-2.37339e-07
-8.874e-10
7.0924e-10
-2.37203e-07
-5.83963e-10
9.03449e-10
-2.37133e-07
8.33023e-12
1.00709e-09
-2.37136e-07
6.03186e-10
1.01312e-09
-2.3713e-07
9.13853e-10
9.11829e-10
-2.37124e-07
1.01826e-09
7.16607e-10
-2.3719e-07
9.65763e-10
5.6042e-10
-2.37321e-07
7.63867e-10
4.06179e-10
-2.37485e-07
4.64907e-10
2.09998e-10
-2.37684e-07
7.13901e-11
-2.37876e-07
7.72601e-11
-3.63213e-10
1.03337e-10
-2.38009e-07
1.24728e-11
-5.99939e-10
2.06955e-10
-2.37789e-07
-7.68794e-10
4.63192e-10
-2.37572e-07
-7.94224e-10
6.202e-10
-2.37406e-07
-6.95548e-10
7.99564e-10
-2.37263e-07
-4.4814e-10
1.00375e-09
-2.37195e-07
1.21953e-11
1.11808e-09
-2.37207e-07
4.71995e-10
1.12344e-09
-2.37202e-07
7.20496e-10
1.00597e-09
-2.37187e-07
8.15169e-10
7.99786e-10
-2.3725e-07
7.82418e-10
6.18091e-10
-2.37389e-07
6.04455e-10
4.5492e-10
-2.37552e-07
3.53588e-10
1.99353e-10
-2.37763e-07
1.04933e-10
-2.37975e-07
-1.86772e-11
-2.43111e-10
1.61077e-10
-2.38173e-07
-4.57618e-11
-4.18033e-10
1.7682e-10
-2.37964e-07
-5.64071e-10
4.17914e-10
-2.37709e-07
-6.13236e-10
5.61481e-10
-2.37541e-07
-5.43175e-10
7.6239e-10
-2.374e-07
-3.38682e-10
9.49505e-10
-2.37324e-07
1.33698e-11
1.04303e-09
-2.37328e-07
3.62306e-10
1.04407e-09
-2.37323e-07
5.64243e-10
9.44376e-10
-2.37316e-07
6.30837e-10
7.56775e-10
-2.37387e-07
5.76391e-10
5.53346e-10
-2.37524e-07
4.22871e-10
4.02643e-10
-2.3769e-07
2.30987e-10
1.59219e-10
-2.37931e-07
1.52249e-10
-2.38142e-07
-7.96668e-11
-1.01898e-10
2.41329e-10
-2.38353e-07
-1.2068e-10
-3.09173e-10
2.29641e-10
-2.38177e-07
-4.16373e-10
2.94602e-10
-2.37869e-07
-4.51201e-10
3.99074e-10
-2.37704e-07
-3.88037e-10
5.79363e-10
-2.3756e-07
-2.35882e-10
7.43083e-10
-2.37485e-07
1.37335e-11
8.09186e-10
-2.37488e-07
2.59143e-10
8.06705e-10
-2.37482e-07
4.07054e-10
7.34137e-10
-2.37477e-07
4.67022e-10
5.6923e-10
-2.37548e-07
4.25786e-10
3.88259e-10
-2.37686e-07
3.08683e-10
2.75727e-10
-2.37841e-07
8.6317e-11
2.0513e-10
-2.38149e-07
2.21276e-10
-2.38323e-07
-1.56008e-10
-2.31439e-10
1.59307e-10
-2.38615e-07
3.02867e-10
-2.43647e-10
1.99952e-10
-2.38494e-07
-1.76984e-10
7.01135e-11
-2.38172e-07
-2.00688e-10
2.08457e-10
-2.37951e-07
-1.98393e-10
3.2915e-10
-2.3777e-07
-1.31744e-10
4.38088e-10
-2.37682e-07
1.07001e-11
4.65762e-10
-2.37671e-07
1.48587e-10
4.63881e-10
-2.37664e-07
2.11985e-10
4.28161e-10
-2.37674e-07
2.12423e-10
3.13127e-10
-2.37756e-07
1.81986e-10
1.91691e-10
-2.37928e-07
2.3578e-10
4.7945e-11
-2.38147e-07
2.09504e-10
1.71247e-10
-2.38468e-07
1.25902e-10
-2.38588e-07
2.65728e-10
-1.85993e-10
-2.38756e-07
2.2314e-10
2.57867e-10
-2.55621e-10
-2.38611e-07
2.5911e-10
-1.65569e-10
-2.38342e-07
-1.64793e-10
-1.04206e-10
-2.38154e-07
-9.2804e-11
-6.07518e-11
-2.37983e-07
-3.65595e-11
-2.69255e-11
-2.37873e-07
4.81038e-11
6.20218e-12
-2.37868e-07
7.57548e-11
3.44089e-11
-2.37862e-07
7.63095e-11
6.84284e-11
-2.37866e-07
3.6275e-11
1.1301e-10
-2.3797e-07
-5.95145e-11
1.71072e-10
-2.38137e-07
-1.17593e-10
2.48925e-10
-2.38319e-07
-1.9392e-10
1.62445e-10
-2.38587e-07
2.25093e-10
-2.38729e-07
2.14804e-10
1.76323e-10
2.3745e-09
2.38474e-09
-2.37742e-07
-2.79484e-09
-2.78359e-09
1.83934e-09
2.26774e-09
-2.37644e-07
-2.60694e-09
1.52294e-09
2.41866e-09
-2.3741e-07
-3.02243e-09
1.19481e-09
2.34777e-09
-2.37216e-07
-2.99494e-09
8.50625e-10
2.27417e-09
-2.37033e-07
-2.96546e-09
4.43083e-10
2.20849e-09
-2.36928e-07
-2.87246e-09
1.66688e-11
2.13655e-09
-2.36935e-07
-2.79742e-09
-4.13432e-10
2.13536e-09
-2.3693e-07
-2.7923e-09
-8.20771e-10
2.21885e-09
-2.36923e-07
-2.88018e-09
-1.16534e-09
2.29383e-09
-2.37025e-07
-2.98161e-09
-1.49746e-09
2.37308e-09
-2.37204e-07
-3.0142e-09
-1.82506e-09
2.44601e-09
-2.37391e-07
-3.04167e-09
-2.3734e-09
2.29204e-09
-2.37622e-07
-2.62571e-09
2.41058e-09
-2.37719e-07
-2.82145e-09
-2.79007e-09
2.26147e-09
1.8438e-09
-2.3765e-07
-2.58988e-09
1.80533e-09
1.8096e-09
-2.37566e-07
1.50523e-09
1.78629e-09
-2.37282e-07
1.1323e-09
1.76964e-09
-2.37051e-07
7.66263e-10
1.6616e-09
-2.36859e-07
3.72907e-10
1.61055e-09
-2.36776e-07
2.21879e-11
1.49247e-09
-2.36774e-07
-3.32702e-10
1.49511e-09
-2.36769e-07
-7.2846e-10
1.62421e-09
-2.36769e-07
-1.09537e-09
1.68168e-09
-2.36848e-07
-1.47411e-09
1.79759e-09
-2.37034e-07
-1.78871e-09
1.81906e-09
-2.37261e-07
-2.26214e-09
1.83907e-09
-2.37543e-07
1.87099e-09
-2.37628e-07
-2.60184e-09
2.41125e-09
1.52805e-09
-2.37422e-07
-3.00511e-09
1.77785e-09
1.51483e-09
-2.37287e-07
1.32242e-09
1.33268e-09
-2.37018e-07
9.19007e-10
1.28738e-09
-2.36839e-07
5.8046e-10
1.13113e-09
-2.3669e-07
2.69012e-10
1.07204e-09
-2.36623e-07
2.6267e-11
9.09196e-10
-2.36641e-07
-2.21269e-10
9.14376e-10
-2.36635e-07
-5.37852e-10
1.08823e-09
-2.36615e-07
-8.77917e-10
1.1493e-09
-2.36678e-07
-1.28684e-09
1.31404e-09
-2.36823e-07
-1.75688e-09
1.36738e-09
-2.36995e-07
-2.40907e-09
1.54862e-09
-2.37264e-07
1.55701e-09
-2.37399e-07
-3.01616e-09
2.33832e-09
1.20392e-09
-2.3723e-07
-2.97788e-09
1.76056e-09
1.14612e-09
-2.37059e-07
1.27895e-09
9.30041e-10
-2.36844e-07
8.70365e-10
8.8399e-10
-2.36689e-07
5.20829e-10
7.22644e-10
-2.36538e-07
2.33237e-10
6.38828e-10
-2.36466e-07
3.09162e-11
4.48662e-10
-2.36484e-07
-1.76653e-10
4.54216e-10
-2.36478e-07
-4.71835e-10
6.54417e-10
-2.36457e-07
-8.26332e-10
7.38378e-10
-2.36525e-07
-1.24298e-09
9.07017e-10
-2.36673e-07
-1.73733e-09
9.59689e-10
-2.36825e-07
-2.33324e-09
1.1799e-09
-2.37033e-07
1.23114e-09
-2.37203e-07
-2.98914e-09
2.26392e-09
8.62639e-10
-2.37048e-07
-2.94857e-09
1.65684e-09
7.81763e-10
-2.36875e-07
1.12432e-09
5.94017e-10
-2.36697e-07
7.07639e-10
5.42141e-10
-2.36543e-07
3.83467e-10
4.03929e-10
-2.36401e-07
1.54622e-10
3.05071e-10
-2.36333e-07
3.36053e-11
1.3154e-10
-2.36364e-07
-9.18834e-11
1.35735e-10
-2.36357e-07
-3.26123e-10
3.16538e-10
-2.36324e-07
-6.56318e-10
4.17104e-10
-2.36389e-07
-1.08577e-09
5.62185e-10
-2.36529e-07
-1.63407e-09
6.16997e-10
-2.3668e-07
-2.25978e-09
8.10033e-10
-2.36855e-07
8.86347e-10
-2.37022e-07
-2.96216e-09
2.20041e-09
4.5684e-10
-2.36949e-07
-2.85858e-09
1.60291e-09
3.8949e-10
-2.36789e-07
1.06147e-09
2.86113e-10
-2.36635e-07
6.23191e-10
2.57316e-10
-2.36473e-07
2.84306e-10
1.77904e-10
-2.36335e-07
8.40282e-11
1.07473e-10
-2.36258e-07
3.50081e-11
7.91221e-12
-2.36288e-07
-1.72368e-11
1.02208e-11
-2.3628e-07
-2.19269e-10
1.13393e-10
-2.36248e-07
-5.64334e-10
1.87194e-10
-2.36323e-07
-1.01731e-09
2.71445e-10
-2.3646e-07
-1.58027e-09
3.01539e-10
-2.36619e-07
-2.19872e-09
4.08616e-10
-2.36772e-07
4.72902e-10
-2.36932e-07
-2.87729e-09
2.13267e-09
3.26092e-11
-2.36959e-07
-2.79011e-09
1.48532e-09
3.96598e-11
-2.36787e-07
8.98213e-10
4.52776e-11
-2.36655e-07
4.33455e-10
5.16311e-11
-2.36492e-07
1.09283e-10
5.52948e-11
-2.36368e-07
-1.77397e-11
5.72397e-11
-2.3629e-07
3.49735e-11
5.81232e-11
-2.36313e-07
8.47778e-11
6.13667e-11
-2.36304e-07
-4.57792e-11
6.2273e-11
-2.3628e-07
-3.77634e-10
6.41103e-11
-2.36358e-07
-8.56297e-10
6.17891e-11
-2.36481e-07
-1.46268e-09
5.63408e-11
-2.36644e-07
-2.12866e-09
5.0717e-11
-2.36772e-07
4.00908e-11
-2.36944e-07
-2.8026e-09
2.137e-09
-3.99652e-10
-2.36952e-07
-2.78898e-09
1.49355e-09
-3.16978e-10
-2.36781e-07
9.079e-10
-2.02462e-10
-2.36649e-07
4.42289e-10
-1.62263e-10
-2.36487e-07
1.15529e-10
-7.58585e-11
-2.36362e-07
-1.38124e-11
-8.17478e-13
-2.36284e-07
4.03625e-11
1.00736e-10
-2.36306e-07
9.26316e-11
1.06461e-10
-2.36298e-07
-4.20025e-11
4.83498e-12
-2.36276e-07
-3.79467e-10
-6.95332e-11
-2.36356e-07
-8.61841e-10
-1.57149e-10
-2.3648e-07
-1.46833e-09
-1.96987e-10
-2.36643e-07
-2.1336e-09
-3.14494e-10
-2.36771e-07
-3.97734e-10
-2.36943e-07
-2.8077e-09
2.21882e-09
-8.14974e-10
-2.3694e-07
-2.87372e-09
1.62545e-09
-7.2225e-10
-2.36781e-07
1.0861e-09
-5.27364e-10
-2.36627e-07
6.45561e-10
-4.66828e-10
-2.36465e-07
3.00015e-10
-3.19927e-10
-2.36329e-07
9.13107e-11
-2.12644e-10
-2.36251e-07
3.98048e-11
-3.95109e-11
-2.36281e-07
-1.3064e-11
-3.7118e-11
-2.36275e-07
-2.25205e-10
-2.15307e-10
-2.36245e-07
-5.79357e-10
-3.22199e-10
-2.36324e-07
-1.0382e-09
-4.6881e-10
-2.36462e-07
-1.6024e-09
-5.31354e-10
-2.36624e-07
-2.22023e-09
-7.32858e-10
-2.36776e-07
-8.21307e-10
-2.36938e-07
-2.8976e-09
2.28906e-09
-1.16799e-09
-2.37033e-07
-2.97246e-09
1.68154e-09
-1.10111e-09
-2.36859e-07
1.14663e-09
-8.80629e-10
-2.36684e-07
7.27973e-10
-8.30894e-10
-2.36532e-07
4.0031e-10
-6.61209e-10
-2.36392e-07
1.65356e-10
-5.68385e-10
-2.36325e-07
4.17908e-11
-3.81519e-10
-2.36358e-07
-8.6383e-11
-3.83794e-10
-2.36354e-07
-3.30128e-10
-5.77957e-10
-2.36323e-07
-6.68051e-10
-6.686e-10
-2.36391e-07
-1.10405e-09
-8.38919e-10
-2.36533e-07
-1.66137e-09
-8.95915e-10
-2.36685e-07
-2.29236e-09
-1.12145e-09
-2.36859e-07
-1.17976e-09
-2.37023e-07
-2.99692e-09
2.37167e-09
-1.50774e-09
-2.37211e-07
-3.00841e-09
1.79627e-09
-1.49016e-09
-2.37037e-07
1.3118e-09
-1.30316e-09
-2.36829e-07
8.9818e-10
-1.25901e-09
-2.36675e-07
5.45375e-10
-1.10052e-09
-2.36529e-07
2.5047e-10
-1.03286e-09
-2.36458e-07
4.03127e-11
-8.72186e-10
-2.36478e-07
-1.7344e-10
-8.77972e-10
-2.36475e-07
-4.77125e-10
-1.04627e-09
-2.36457e-07
-8.40774e-10
-1.11209e-09
-2.36529e-07
-1.26871e-09
-1.27676e-09
-2.36676e-07
-1.77384e-09
-1.33219e-09
-2.3683e-07
-2.37675e-09
-1.51588e-09
-2.37026e-07
-1.52621e-09
-2.37207e-07
-3.03281e-09
2.44417e-09
-1.84573e-09
-2.37396e-07
-3.03496e-09
1.81637e-09
-1.81266e-09
-2.37263e-07
1.36319e-09
-1.78422e-09
-2.36995e-07
9.53754e-10
-1.76653e-09
-2.36823e-07
6.06802e-10
-1.66052e-09
-2.36677e-07
2.87342e-10
-1.60614e-09
-2.36614e-07
3.72314e-11
-1.48951e-09
-2.36635e-07
-2.16256e-10
-1.49534e-09
-2.36632e-07
-5.439e-10
-1.62007e-09
-2.36614e-07
-8.97969e-10
-1.68023e-09
-2.36677e-07
-1.31986e-09
-1.79456e-09
-2.36824e-07
-1.79569e-09
-1.81763e-09
-2.36989e-07
-2.45109e-09
-1.84083e-09
-2.37259e-07
-1.87003e-09
-2.37398e-07
-3.0586e-09
2.28963e-09
-2.40509e-09
-2.37623e-07
-2.61749e-09
1.83685e-09
-2.29336e-09
-2.37543e-07
1.54262e-09
-2.44313e-09
-2.3726e-07
1.17104e-09
-2.37136e-09
-2.37028e-07
7.98576e-10
-2.29706e-09
-2.36847e-07
3.94707e-10
-2.23242e-09
-2.36764e-07
3.16098e-11
-2.16418e-09
-2.36762e-07
-3.34278e-10
-2.16848e-09
-2.36759e-07
-7.43428e-10
-2.24674e-09
-2.36763e-07
-1.1194e-09
-2.32315e-09
-2.36845e-07
-1.50406e-09
-2.40559e-09
-2.3702e-07
-1.82364e-09
-2.47847e-09
-2.37253e-07
-2.30182e-09
-2.32754e-09
-2.37538e-07
-2.44146e-09
-2.37624e-07
-2.64372e-09
2.40368e-09
-2.37718e-07
-2.82579e-09
-2.81385e-09
1.86555e-09
-2.37624e-07
-2.63971e-09
1.55063e-09
-2.37391e-07
-3.05729e-09
1.22182e-09
-2.37195e-07
-3.03313e-09
8.73695e-10
-2.37012e-07
-3.00591e-09
4.58987e-10
-2.36917e-07
-2.91742e-09
2.44463e-11
-2.36926e-07
-2.84895e-09
-4.12984e-10
-2.36923e-07
-2.85087e-09
-8.28649e-10
-2.36916e-07
-2.93264e-09
-1.17937e-09
-2.37008e-07
-3.03406e-09
-1.5187e-09
-2.37192e-07
-3.06735e-09
-1.85416e-09
-2.37383e-07
-3.09584e-09
-2.41275e-09
-2.37616e-07
-2.68213e-09
-2.37714e-07
-2.84046e-09
-2.8732e-09
4.46092e-09
4.43074e-09
-2.35338e-07
-5.38766e-09
-5.41684e-09
3.56231e-09
4.14779e-09
-2.35304e-07
-5.10258e-09
2.90471e-09
4.19607e-09
-2.35048e-07
-5.38293e-09
2.24618e-09
4.02056e-09
-2.34773e-07
-5.18923e-09
1.55907e-09
3.88239e-09
-2.3452e-07
-4.99608e-09
7.91915e-10
3.83936e-09
-2.34389e-07
-4.83074e-09
2.69486e-11
3.65142e-09
-2.34372e-07
-4.63341e-09
-7.39416e-10
3.6568e-09
-2.34369e-07
-4.63747e-09
-1.50671e-09
3.86092e-09
-2.34386e-07
-4.85279e-09
-2.19382e-09
3.91757e-09
-2.34515e-07
-5.0339e-09
-2.8576e-09
4.06973e-09
-2.34766e-07
-5.23871e-09
-3.52749e-09
4.25023e-09
-2.35037e-07
-5.43381e-09
-4.43993e-09
4.19864e-09
-2.35292e-07
-5.15101e-09
4.47561e-09
-2.35326e-07
-5.43535e-09
-5.40482e-09
4.17926e-09
3.53102e-09
-2.35312e-07
-5.12264e-09
3.24413e-09
3.21001e-09
-2.35169e-07
2.5379e-09
3.09364e-09
-2.34836e-07
1.81622e-09
3.04962e-09
-2.34534e-07
1.16715e-09
2.9375e-09
-2.34287e-07
5.53022e-10
2.92339e-09
-2.34155e-07
3.57513e-11
2.68595e-09
-2.3414e-07
-4.84058e-10
2.69231e-09
-2.34136e-07
-1.10217e-09
2.94474e-09
-2.34153e-07
-1.7543e-09
2.96654e-09
-2.34282e-07
-2.48247e-09
3.09142e-09
-2.34527e-07
-3.20188e-09
3.14094e-09
-2.34826e-07
-4.15557e-09
3.26035e-09
-2.35161e-07
3.57141e-09
-2.35306e-07
-5.11286e-09
4.22548e-09
2.87861e-09
-2.35064e-07
-5.39371e-09
3.1284e-09
2.50908e-09
-2.34841e-07
2.28824e-09
2.25607e-09
-2.34525e-07
1.57001e-09
2.22783e-09
-2.34263e-07
1.00641e-09
2.0669e-09
-2.34016e-07
4.90974e-10
2.06758e-09
-2.33884e-07
4.51342e-11
1.81921e-09
-2.3388e-07
-4.03269e-10
1.82491e-09
-2.33876e-07
-9.25757e-10
2.08651e-09
-2.33882e-07
-1.49871e-09
2.0889e-09
-2.34013e-07
-2.23117e-09
2.25984e-09
-2.34259e-07
-3.08645e-09
2.28954e-09
-2.34519e-07
-4.19988e-09
2.54839e-09
-2.34838e-07
2.91142e-09
-2.35062e-07
-5.38746e-09
4.04586e-09
2.2329e-09
-2.34786e-07
-5.19965e-09
3.08207e-09
1.80018e-09
-2.34541e-07
2.25797e-09
1.54834e-09
-2.34268e-07
1.56501e-09
1.54579e-09
-2.3402e-07
1.00081e-09
1.3616e-09
-2.33746e-07
4.88484e-10
1.37665e-09
-2.33603e-07
5.09226e-11
1.1418e-09
-2.3361e-07
-3.89142e-10
1.14453e-09
-2.33606e-07
-9.09607e-10
1.38907e-09
-2.33602e-07
-1.48503e-09
1.37216e-09
-2.33744e-07
-2.19764e-09
1.56479e-09
-2.34019e-07
-3.04441e-09
1.56367e-09
-2.34266e-07
-4.02486e-09
1.82017e-09
-2.34541e-07
2.25174e-09
-2.34781e-07
-5.20225e-09
3.90575e-09
1.56093e-09
-2.34534e-07
-5.00436e-09
2.96975e-09
1.16526e-09
-2.343e-07
2.09726e-09
1.00189e-09
-2.34024e-07
1.38058e-09
9.96974e-10
-2.33752e-07
8.25426e-10
8.20815e-10
-2.33511e-07
3.95984e-10
8.14553e-10
-2.33386e-07
5.32681e-11
6.20432e-10
-2.33413e-07
-2.89892e-10
6.18811e-10
-2.3341e-07
-7.25802e-10
8.185e-10
-2.33387e-07
-1.29251e-09
8.19325e-10
-2.33513e-07
-2.03057e-09
1.00038e-09
-2.33755e-07
-2.93205e-09
1.00193e-09
-2.34029e-07
-3.89171e-09
1.16543e-09
-2.34304e-07
1.56523e-09
-2.34535e-07
-5.01092e-09
3.85704e-09
8.07903e-10
-2.34407e-07
-4.83745e-09
2.94712e-09
5.68452e-10
-2.34167e-07
2.09079e-09
5.02718e-10
-2.33896e-07
1.39075e-09
4.98673e-10
-2.33611e-07
8.1647e-10
4.03128e-10
-2.33389e-07
3.92606e-10
4.00255e-10
-2.33267e-07
5.21065e-11
2.9932e-10
-2.33301e-07
-2.87641e-10
2.93471e-10
-2.33299e-07
-7.17341e-10
3.97971e-10
-2.33269e-07
-1.30283e-09
3.93797e-10
-2.33393e-07
-2.0219e-09
4.87996e-10
-2.33618e-07
-2.90657e-09
4.90641e-10
-2.33902e-07
-3.84237e-09
5.54669e-10
-2.34175e-07
7.97868e-10
-2.34415e-07
-4.84582e-09
3.67012e-09
5.52664e-11
-2.34393e-07
-4.64286e-09
2.71328e-09
6.33715e-11
-2.34153e-07
1.84603e-09
6.96626e-11