/*--------------------------------*- C++ -*----------------------------------*\
| =========                 |                                                 |
| \\      /  F ield         | OpenFOAM: The Open Source CFD Toolbox           |
|  \\    /   O peration     | Version:  v2106                                 |
|   \\  /    A nd           | Website:  www.openfoam.com                      |
|    \\/     M anipulation  |                                                 |
\*---------------------------------------------------------------------------*/
FoamFile
{
    version     2.0;
    format      ascii;
    arch        "LSB;label=32;scalar=64";
    class       volScalarField;
    location    "0.000199";
    object      k;
}
// * * * * * * * * * * * * * * * * * * * * * * * * * * * * * * * * * * * * * //

dimensions      [0 2 -2 0 0 0 0];

internalField   nonuniform List<scalar> 
18273
(
6.62381
4.92737
3.78453
2.9805
2.86578
3.50254
5.07072
7.508
10.2102
12.1304
12.4172
11.3824
10.5278
10.2236
6.52321
4.59681
3.14188
2.09887
1.67714
1.74421
2.42246
3.76444
5.6243
7.4564
8.70252
8.92135
8.32448
8.42648
6.3586
4.21401
2.57244
1.51198
1.0392
0.914819
1.15043
1.81728
2.91228
4.21866
5.37816
6.32746
6.42009
7.04765
5.65361
3.34261
1.86521
1.03342
0.647409
0.504409
0.568157
0.890172
1.50923
2.33356
3.16163
3.83315
4.38662
5.49593
4.27684
2.32305
1.20528
0.629946
0.370856
0.269904
0.284558
0.446406
0.805562
1.34035
1.93351
2.45261
3.04343
4.45294
2.83932
1.4078
0.673913
0.332117
0.187241
0.133386
0.141803
0.234059
0.454782
0.815984
1.25995
1.71229
2.28175
3.79917
1.66984
0.744578
0.326352
0.151777
0.0833309
0.0613177
0.0730854
0.136044
0.285366
0.544081
0.89214
1.30093
1.93162
4.00081
0.917518
0.364016
0.144963
0.0638097
0.0351528
0.0295601
0.0447206
0.0957511
0.209834
0.410555
0.700289
1.09607
1.92371
4.83578
0.549795
0.200135
0.0747319
0.0328008
0.0198669
0.0210646
0.0384371
0.0852363
0.183353
0.355584
0.622133
1.07801
2.33912
6.19979
0.479616
0.180285
0.0716357
0.036449
0.0259329
0.0286736
0.0475481
0.0944197
0.189155
0.358905
0.657405
1.32044
3.28318
7.62307
0.70851
0.312992
0.135156
0.0755011
0.0571192
0.0576403
0.0781274
0.130295
0.236887
0.441879
0.861446
1.96159
4.60092
8.56942
1.42752
0.864462
0.447128
0.224844
0.146325
0.131026
0.152792
0.218803
0.358294
0.648321
1.31231
2.99027
5.82169
9.01508
2.63143
2.03108
1.32722
0.738566
0.4237
0.313981
0.314972
0.399133
0.590329
0.99881
1.91118
3.87291
6.4064
9.04392
4.0866
3.61361
2.86403
1.98266
1.26513
0.849092
0.700705
0.751642
0.982296
1.49798
2.52414
4.40577
6.54109
8.74313
5.83221
4.07759
3.0057
2.30614
2.10441
2.32833
3.06881
4.23289
5.589
6.85485
8.01288
9.14147
10.1841
11.1205
4.84284
3.27667
2.2489
1.56189
1.26459
1.25826
1.60036
2.29885
3.27552
4.33632
5.32581
6.29057
7.19637
8.15967
3.98102
2.60146
1.68314
1.09061
0.795834
0.705279
0.833158
1.2149
1.85545
2.66205
3.48823
4.26813
5.07535
6.11908
3.07505
1.95225
1.1959
0.728853
0.490635
0.396576
0.434549
0.635339
1.03585
1.59839
2.22277
2.82062
3.36125
4.40682
2.21764
1.33513
0.767665
0.440992
0.279242
0.212511
0.221902
0.329157
0.575876
0.962393
1.42687
1.89844
2.37164
3.35505
1.47333
0.816577
0.434737
0.235006
0.141859
0.104816
0.109783
0.172368
0.327659
0.592723
0.941344
1.33265
1.78024
2.65001
0.890852
0.441973
0.215076
0.109373
0.0637558
0.0475776
0.0543897
0.09663
0.20124
0.389831
0.658606
0.99464
1.44085
2.40751
0.50972
0.220713
0.096287
0.0457073
0.0261634
0.0213657
0.0303895
0.0639746
0.142773
0.28772
0.50787
0.812539
1.29723
2.51926
0.326086
0.123373
0.0473838
0.0207757
0.0122105
0.0124486
0.0230441
0.0536313
0.121099
0.245169
0.444173
0.755545
1.36065
2.96552
0.304829
0.111787
0.0414251
0.0188095
0.0124272
0.0141793
0.0260423
0.0570304
0.122854
0.244956
0.455129
0.8342
1.68291
3.65541
0.450069
0.185818
0.0748278
0.0381253
0.0272916
0.0281664
0.0416517
0.0769153
0.15156
0.294405
0.559529
1.10082
2.24972
4.44804
0.894617
0.479649
0.228198
0.111202
0.0728196
0.0671061
0.0829175
0.128459
0.225437
0.416283
0.794116
1.57959
3.03459
5.37969
1.71135
1.14136
0.669015
0.351779
0.204381
0.162641
0.175748
0.237155
0.369085
0.629426
1.14776
2.19636
4.03221
6.49306
2.83388
2.14287
1.49906
0.946081
0.578819
0.408308
0.377203
0.445435
0.616022
0.949951
1.5934
2.88421
5.05952
7.56853
4.57447
3.14934
2.31707
1.7927
1.59238
1.592
1.82319
2.23924
2.81048
3.42574
4.13848
5.22924
7.47328
10.7437
2.94057
2.06075
1.48082
1.09902
0.918971
0.874466
0.981598
1.23628
1.63987
2.14246
2.77753
3.6593
5.07663
7.08692
1.92652
1.36833
0.963931
0.685858
0.539422
0.484717
0.526138
0.674282
0.951788
1.34575
1.8591
2.53883
3.48259
4.84026
1.3024
0.902396
0.612315
0.415868
0.308995
0.263271
0.276089
0.360075
0.545118
0.838116
1.23415
1.73918
2.39232
3.35421
0.885634
0.571495
0.364923
0.234891
0.165642
0.135186
0.138732
0.186847
0.30719
0.51658
0.81407
1.19894
1.69005
2.43815
0.591688
0.340542
0.198865
0.120045
0.0806335
0.0639546
0.066179
0.0954945
0.173789
0.320704
0.543231
0.844553
1.24398
1.87401
0.3884
0.191722
0.0987996
0.0549025
0.0351401
0.0277152
0.0307744
0.0508681
0.104342
0.209812
0.380193
0.625975
0.974279
1.5468
0.266916
0.109684
0.0473712
0.0231621
0.0139554
0.0115146
0.0155057
0.0315481
0.0721759
0.153891
0.292709
0.506006
0.831291
1.3974
0.212571
0.0748875
0.0264358
0.0106777
0.0059263
0.00570634
0.0104069
0.0252273
0.0607164
0.131854
0.25647
0.458627
0.789309
1.39371
0.218241
0.0745035
0.0243866
0.00907385
0.00504908
0.00553904
0.0109398
0.0263816
0.0619679
0.132775
0.259395
0.473447
0.839892
1.52294
0.292399
0.111016
0.0404742
0.0173278
0.0108322
0.0110011
0.0174381
0.0355455
0.076424
0.157499
0.304243
0.55583
0.984648
1.78423
0.498552
0.230719
0.101314
0.0478748
0.0303249
0.0279894
0.0361563
0.0601345
0.113074
0.216754
0.403281
0.718227
1.24716
2.25641
0.887654
0.49231
0.261306
0.137024
0.0845852
0.0718684
0.0817001
0.115504
0.187634
0.325802
0.57302
0.995997
1.7512
3.04247
1.49684
0.928013
0.570954
0.342525
0.219784
0.175579
0.181788
0.228633
0.327718
0.512311
0.842424
1.46567
2.73359
4.55382
10.8957
12.7805
14.6531
17.0759
23.7728
54.2926
9.59662
12.1353
14.5768
16.5974
22.0035
50.7618
8.71619
12.183
15.2824
16.7573
20.7569
48.2394
8.0148
12.8562
16.5809
17.0031
19.7441
46.556
7.87635
14.2275
18.0912
17.1791
18.8831
45.7248
8.43029
16.08
19.1194
16.9555
18.1448
45.74
9.74026
17.3961
18.9546
16.2526
17.4303
46.413
11.2579
17.5733
17.7635
15.5094
17.141
47.367
12.1331
16.3926
16.1765
15.0856
17.2953
48.6252
11.9296
14.5322
14.891
14.8869
17.5875
50.0799
11.0548
12.798
13.8663
14.7775
18.0255
51.6188
10.2389
11.6176
13.065
14.6716
18.6587
53.0541
9.6564
10.8864
12.5017
14.6088
19.5134
54.5876
9.24066
10.5138
12.1986
14.7867
20.8052
56.416
12.271
14.5393
16.2864
17.7599
21.8684
47.1283
9.4664
12.2265
15.2033
17.2991
20.7213
44.3312
7.69711
10.9331
15.0733
17.7141
20.1515
42.3574
6.21659
10.117
15.5668
18.4257
19.8118
40.8288
5.33223
9.97333
16.5872
19.2072
19.5216
39.8376
4.92629
10.4731
17.7656
19.6946
19.086
39.5267
5.13967
11.2673
18.332
19.5176
18.5621
39.7699
5.71558
11.9188
18.059
18.8809
18.338
40.487
6.35851
11.9529
16.9782
18.1344
18.5526
41.7494
6.80098
11.3155
15.665
17.6953
19.1475
43.3973
6.98738
10.4866
14.5837
17.5389
19.9748
45.1877
7.24704
10.1095
14.0182
17.4445
20.733
46.8555
7.92737
10.3954
13.8799
17.1687
21.2767
48.3289
8.66651
11.1074
13.9494
16.6775
21.6773
49.6814
14.217
17.9014
20.2387
20.6032
22.6828
37.737
9.61756
13.0636
16.5019
18.8654
21.9441
36.1633
6.93955
10.1861
14.2637
18.0354
21.6021
35.2326
4.99503
8.11574
12.8081
17.8097
21.2938
34.3779
3.85294
6.80163
12.0001
17.9499
21.3137
33.4913
3.1086
5.97391
11.8086
18.4455
21.3936
33.0651
2.70048
5.65816
12.1626
18.8633
21.5461
33.448
2.57532
5.79964
12.565
19.0889
21.6756
34.5714
2.67454
6.07367
12.6692
18.98
21.9702
36.3542
2.90847
6.19281
12.3173
18.7786
22.768
38.6177
3.16731
6.10929
11.8322
18.8332
23.9858
40.9149
3.51366
6.20908
11.7495
19.067
24.9121
42.6576
4.35674
7.05729
12.3807
19.1796
25.0623
43.6375
5.60832
8.75402
13.7974
19.0046
24.3789
43.9435
8.61499
10.2417
12.4018
15.7977
23.3076
58.3772
6.51616
8.09433
10.6694
14.1703
20.884
53.9532
4.8005
6.39853
9.47803
13.3579
19.2642
50.2444
3.25798
5.0434
8.67869
12.874
18.1424
47.2251
2.34615
4.27606
8.30986
12.7246
17.2236
44.8281
1.87268
4.13198
8.57358
12.8948
16.6316
43.0176
1.77665
4.45041
9.16155
13.0041
16.0229
42.1655
2.00251
5.08808
9.69694
12.8608
15.4503
42.3659
2.51022
5.71704
9.74364
12.3228
15.0246
43.7286
3.17461
6.03923
9.24916
11.5766
14.9422
46.0564
3.79616
6.00683
8.47713
10.8169
15.239
48.7821
4.24884
5.84213
7.77984
10.2266
15.9162
51.7022
4.50235
5.67901
7.35602
10.0295
16.9491
54.4905
4.60191
5.7167
7.47377
10.5662
18.4694
56.4345
8.7879
11.2278
13.7348
16.5156
22.542
51.1995
5.69996
7.73172
10.6245
14.1638
20.1096
47.1725
3.61643
5.32693
8.37687
12.5449
18.4349
43.5729
2.26666
3.62187
6.67333
11.4071
17.4671
40.3044
1.54464
2.78465
5.71166
10.553
16.5967
37.5523
1.14257
2.36733
5.35974
10.1975
15.738
35.5372
0.963196
2.28174
5.43426
10.0639
15.0242
34.4975
0.965926
2.46277
5.72381
9.97785
14.4911
34.4003
1.15137
2.80212
5.96525
9.75811
14.0358
35.3216
1.49943
3.13546
5.91225
9.33363
14.2169
37.5543
1.93998
3.38089
5.69005
8.95062
15.0683
40.4432
2.39717
3.59371
5.55624
8.8549
16.4112
43.2224
2.84338
3.8937
5.77975
9.34786
18.0848
45.7172
3.2736
4.43809
6.60214
10.6418
20.0915
48.1003
6.789
10.1103
14.1216
18.1241
23.7621
43.819
3.95215
6.1746
9.60472
14.1562
20.711
39.8798
2.19182
3.77166
6.6427
11.3087
18.5536
36.2146
1.34657
2.33119
4.62843
9.21762
16.8469
32.8848
0.901397
1.67302
3.52776
7.57244
15.0089
29.9242
0.64216
1.29478
2.90074
6.56104
13.3735
27.3659
0.498221
1.08812
2.58344
5.94981
12.1416
25.6634
0.436796
1.01483
2.49207
5.62749
11.32
25.0208
0.448849
1.04712
2.52884
5.4617
10.9327
25.6037
0.540785
1.15531
2.5765
5.36859
11.2351
27.6839
0.708903
1.31427
2.64274
5.4782
12.4001
30.9608
0.948671
1.54259
2.85487
6.02817
14.3756
34.5186
1.26972
1.92629
3.44842
7.3169
16.8399
37.5504
1.73172
2.66003
4.78112
9.56505
19.2944
39.8524
55.8307
21.7208
13.7777
10.425
8.31897
7.0405
54.3316
19.817
12.6874
9.83326
8.05545
7.00625
53.2491
18.9843
12.5406
10.0345
8.31838
7.0973
51.0669
18.5633
13.0915
10.8197
8.77014
7.00247
49.3817
18.7714
14.1006
11.7702
8.8461
6.21779
48.1883
19.7856
15.2815
12.1424
7.98262
4.82502
47.6963
21.4665
15.6968
11.1308
6.34478
3.29993
48.0351
22.9125
14.7511
9.06
4.53265
2.08654
49.093
23.4781
13.0696
6.9783
3.18583
1.37207
50.3772
23.2127
11.4964
5.65277
2.55691
1.14152
51.7503
22.5344
10.7164
5.28265
2.61242
1.35283
53.4571
21.7702
10.5689
5.69018
3.27247
2.05603
55.8045
20.8828
10.9953
6.66758
4.39139
3.14222
59.26
21.8316
12.1518
8.19078
5.98138
4.58596
47.8211
23.3816
15.2927
11.1921
8.19239
6.26332
46.3322
21.5321
13.9524
9.75147
6.9308
5.34226
45.1837
20.6283
13.1622
8.98867
6.18425
4.59728
44.0387
20.1052
12.8448
8.78339
5.73619
3.92041
42.8
20.0121
12.9942
8.71463
5.16119
3.18505
41.9985
20.6174
13.1685
8.19965
4.39164
2.41157
41.944
21.7787
12.7956
7.14339
3.44076
1.67617
42.5797
22.885
11.8863
5.86805
2.5692
1.1162
43.6341
23.4821
10.8967
4.83419
1.99308
0.80584
44.815
23.3548
10.1899
4.34612
1.80199
0.747506
45.8675
22.6775
10.0083
4.43885
2.01072
0.943025
46.9369
21.9116
10.3614
5.1244
2.67755
1.49023
48.2775
21.5547
11.1424
6.25084
3.7396
2.3874
50.3499
22.8441
12.7022
7.96352
5.29605
3.68064
39.2959
24.5053
17.599
11.6668
7.41172
4.69482
38.7199
23.5523
15.7919
9.13674
5.18396
3.20775
38.0477
22.3295
13.9651
7.42992
3.95992
2.34989
37.1274
21.1875
12.3155
6.40553
3.26099
1.80736
36.0319
20.373
11.1055
5.65471
2.74639
1.39965
35.387
19.9103
10.3272
5.05137
2.31763
1.07331
35.6026
19.9588
9.83204
4.52418
1.94131
0.816921
36.6919
20.4754
9.59911
4.15333
1.6761
0.6492
38.2455
21.2059
9.579
3.96569
1.53836
0.569108
39.6952
21.6338
9.69401
3.99418
1.55661
0.584999
40.547
21.3401
9.85523
4.20099
1.73205
0.709132
40.854
20.8526
10.328
4.78366
2.20005
1.0308
40.9338
21.0937
11.1511
5.6809
2.94268
1.58197
41.4011
22.2918
12.6827
7.11069
4.08347
2.43411
52.6556
20.7615
15.2594
13.2342
11.7948
10.6243
51.7139
19.0418
14.2567
12.593
11.4815
10.7046
50.7266
18.1315
13.92
12.6159
11.8229
11.3071
50.0861
17.8486
14.0905
13.253
12.9019
12.5675
49.6004
18.2009
14.7412
14.6043
14.8617
14.0457
49.2137
18.9522
16.0603
16.8699
16.9906
14.4022
48.8411
20.2563
18.1022
19.2284
17.6264
12.6958
48.3257
22.0568
20.0655
19.8725
15.7109
9.64378
48.022
24.052
20.5694
17.8501
12.247
6.84153
48.7901
25.5301
19.129
14.4424
9.11355
5.13181
50.2066
26.4562
17.4485
11.9434
7.4596
4.55185
51.9815
26.6489
16.2825
10.8777
7.18864
4.91523
54.3254
25.6015
15.8476
10.9504
7.79156
5.7927
57.7509
25.8397
16.2594
11.9088
9.14848
7.28889
45.5117
20.1864
16.8357
15.6784
13.8899
11.8725
44.6398
19.2301
16.4748
15.0488
12.9219
11.0497
44.0722
18.6347
16.3176
14.7403
12.276
10.1848
43.8056
18.3401
16.4559
15.0803
12.4763
9.97383
43.7223
18.4345
17.0549
16.2539
13.2917
9.55238
43.6812
19.0939
18.3435
17.8216
13.4712
8.80938
43.3716
20.6898
19.9865
18.3661
12.5242
7.38509
42.8698
22.7609
20.78
17.0453
10.5192
5.7151
42.9387
25.0788
19.8221
14.2923
8.25555
4.35616
43.6225
26.7685
17.8526
11.6642
6.65011
3.66415
44.5284
27.4506
16.57
10.2898
6.06217
3.60739
45.5168
27.4061
16.1497
10.246
6.50746
4.24571
46.866
26.5382
16.3719
11.0711
7.62562
5.37078
49.0732
26.9209
17.4244
12.8583
9.66804
7.27802
37.3306
22.2418
21.2648
20.0385
16.087
11.7166
37.1551
22.1181
21.4122
17.9467
12.8325
8.85847
37.3024
21.9572
21.0721
16.483
10.623
6.8176
37.56
21.8874
20.7787
15.672
9.78479
6.09012
37.6152
21.8829
20.3379
15.2435
9.3572
5.49682
37.2955
22.0705
19.9465
14.5981
8.6699
4.80795
36.8455
22.9539
19.2092
13.2633
7.57668
4.0291
36.8692
23.7297
17.9557
11.6033
6.4717
3.38082
37.255
24.4447
16.6743
10.1944
5.62597
2.94635
37.6804
25.1317
15.9601
9.52697
5.29991
2.85425
37.9175
25.4661
15.8729
9.52314
5.43978
3.0554
38.0873
25.3647
16.4243
10.327
6.28321
3.78032
38.463
25.4674
17.488
11.7228
7.66518
4.95609
39.4396
26.7654
19.5221
14.2421
10.0936
6.95909
2.51406
1.7351
1.27838
1.01991
0.943651
0.928077
0.972789
1.06085
1.22677
1.47431
1.81437
2.20939
2.97867
5.0978
1.22314
0.858166
0.636704
0.508025
0.46517
0.459983
0.486613
0.536933
0.631622
0.782015
1.00783
1.31564
1.92667
3.46323
0.640012
0.428003
0.315553
0.251276
0.228289
0.225728
0.239298
0.266254
0.320525
0.415739
0.573269
0.82027
1.2929
2.31711
0.370087
0.220057
0.154468
0.12104
0.10905
0.107542
0.113933
0.128185
0.160355
0.22401
0.340359
0.539393
0.906339
1.61227
0.235532
0.11747
0.0739049
0.055528
0.0493763
0.0485403
0.0516336
0.0597215
0.0802592
0.125254
0.214074
0.374702
0.662076
1.17927
0.165021
0.0665238
0.0346987
0.0239313
0.020766
0.0203879
0.0221324
0.0273844
0.0417447
0.0752446
0.144649
0.274696
0.505646
0.908422
0.126714
0.0415897
0.0166727
0.0097593
0.00804501
0.00795014
0.00920273
0.0132158
0.0243825
0.0510774
0.107613
0.215653
0.40839
0.742156
0.108671
0.0305876
0.00918203
0.00400485
0.00292803
0.00299779
0.00412685
0.00772162
0.0175363
0.0408684
0.0902006
0.184736
0.353778
0.646994
0.10241
0.0267791
0.00661876
0.00201496
0.00115982
0.00132943
0.00252398
0.00620597
0.0159377
0.0385203
0.0853297
0.173805
0.330785
0.601821
0.107629
0.0282956
0.00680838
0.00183688
0.000920777
0.00115954
0.00256973
0.00674179
0.0173444
0.0411198
0.0889113
0.176957
0.330471
0.592599
0.123185
0.0346908
0.00957807
0.00334303
0.0020481
0.00231362
0.00411165
0.00919748
0.0215109
0.0480347
0.0994988
0.191462
0.348279
0.612086
0.169832
0.0541855
0.0185945
0.00874445
0.00627313
0.0064035
0.00886991
0.0155692
0.0307568
0.0618164
0.119608
0.219292
0.384577
0.657009
0.263006
0.0988996
0.0422648
0.0241909
0.0187549
0.0183136
0.0219341
0.0315252
0.05163
0.0903472
0.159401
0.274757
0.460322
0.756393
0.435876
0.19019
0.0960175
0.0619208
0.050543
0.049091
0.0552052
0.0708393
0.101339
0.156763
0.251315
0.405415
0.657587
1.04522
1.26148
0.889281
0.686292
0.578613
0.560891
0.572239
0.61017
0.668933
0.771027
0.930762
1.16762
1.46842
1.89284
2.8601
0.597302
0.417023
0.321911
0.271275
0.262101
0.270431
0.292149
0.32536
0.38239
0.474658
0.619541
0.821124
1.14325
1.85859
0.31125
0.199095
0.150376
0.126429
0.121983
0.126484
0.137394
0.154611
0.185616
0.239898
0.332874
0.479502
0.735904
1.27595
0.179672
0.0982764
0.0693536
0.057418
0.0552788
0.0574259
0.0625769
0.0712373
0.0883955
0.121977
0.185858
0.298917
0.506847
0.920394
0.114858
0.0511105
0.031468
0.0249351
0.0238108
0.0247631
0.0271936
0.031763
0.0420047
0.0644603
0.111236
0.20123
0.370883
0.694063
0.0817546
0.0291126
0.0143317
0.010284
0.00959358
0.00999672
0.0112249
0.0139561
0.0208196
0.0371937
0.073359
0.146471
0.286003
0.545076
0.0642941
0.0189752
0.00696531
0.00409081
0.00359861
0.00377985
0.00451865
0.0064844
0.0117921
0.0249869
0.0548321
0.11637
0.234174
0.449678
0.0560065
0.014658
0.0040484
0.00168864
0.00128721
0.00139829
0.00197908
0.00371262
0.00849506
0.0204014
0.0471533
0.101969
0.206017
0.393764
0.052781
0.0132164
0.00310249
0.000890412
0.000514671
0.000621163
0.00121047
0.00302369
0.00795653
0.0199366
0.0461081
0.0983813
0.195619
0.368004
0.0539783
0.013801
0.00322405
0.000844995
0.000429314
0.000562676
0.00127393
0.00340985
0.00901691
0.022113
0.0496245
0.102636
0.198629
0.365301
0.0583459
0.0161331
0.00441582
0.00156732
0.00100274
0.00117067
0.00211943
0.0048285
0.0115806
0.0266415
0.057016
0.11344
0.212839
0.381757
0.0724893
0.0231097
0.00832411
0.00422357
0.00318979
0.00334369
0.00471571
0.00841396
0.0169838
0.0350215
0.0697916
0.131992
0.23839
0.415173
0.101387
0.0394769
0.0188461
0.012056
0.00984593
0.00983174
0.0119708
0.017452
0.0290537
0.0517861
0.0933749
0.164969
0.283112
0.473825
0.158951
0.0758629
0.0441109
0.0319811
0.0274396
0.027159
0.0309545
0.0401424
0.057832
0.0897622
0.144477
0.234281
0.376897
0.593795
0.520247
0.385169
0.316386
0.286565
0.293532
0.316084
0.353375
0.404896
0.479013
0.584286
0.73824
0.95276
1.26148
1.81052
0.252492
0.182047
0.147364
0.131806
0.133644
0.144311
0.16273
0.18941
0.229514
0.289633
0.381924
0.518012
0.729591
1.11654
0.132368
0.0864014
0.0674381
0.05959
0.0601056
0.0649647
0.0735394
0.0864608
0.107187
0.141179
0.198142
0.290591
0.447318
0.743799
0.0764503
0.0417521
0.0300237
0.0259585
0.026112
0.0282733
0.0321364
0.0382274
0.0489638
0.068827
0.106111
0.173455
0.296468
0.532073
0.0493461
0.0212173
0.0130572
0.0107504
0.0107445
0.0116736
0.0134001
0.0163552
0.0222767
0.0347725
0.0609142
0.112596
0.21205
0.403256
0.0353708
0.0119033
0.00571416
0.00422531
0.00413722
0.0045206
0.00531915
0.00690537
0.0105837
0.0192664
0.0389062
0.0801527
0.162064
0.319462
0.0278871
0.00775883
0.00271411
0.00161027
0.00148846
0.00164727
0.00206915
0.00309647
0.00578927
0.0125936
0.0285872
0.0631438
0.132662
0.265646
0.0241023
0.00603758
0.00158578
0.000647323
0.000514573
0.000593341
0.000887481
0.00173865
0.00411241
0.0102222
0.0245948
0.0555867
0.117566
0.234673
0.0225842
0.00552216
0.00125167
0.000346403
0.000205757
0.00026704
0.000551632
0.00143406
0.00390391
0.0101445
0.0244407
0.0544924
0.11329
0.22203
0.0229956
0.00582962
0.00133823
0.000351743
0.000191488
0.000266198
0.000616483
0.00168496
0.00457901
0.0116108
0.0270715
0.0583405
0.117628
0.224364
0.0248782
0.00692325
0.00191885
0.000721371
0.000500676
0.000607459
0.00110361
0.00252634
0.00616788
0.0145854
0.0322863
0.0666586
0.129715
0.24006
0.0299848
0.00998064
0.0038456
0.00210474
0.00168176
0.00182492
0.00261061
0.00468315
0.0095598
0.0201221
0.0412502
0.080612
0.150392
0.269016
0.0409566
0.0176486
0.00932774
0.00634315
0.00536939
0.00552582
0.00689105
0.0102073
0.0172232
0.0312047
0.0575513
0.104564
0.184898
0.317538
0.0646724
0.0357042
0.0230096
0.0174944
0.0153872
0.0156068
0.0182457
0.0241676
0.0353746
0.0555629
0.0907151
0.149926
0.246796
0.400321
0.240275
0.182102
0.149603
0.137337
0.14343
0.162516
0.195303
0.240531
0.301092
0.381254
0.489545
0.642751
0.871163
1.24908
0.116604
0.085683
0.0687495
0.0614358
0.0628632
0.0705412
0.0848549
0.106158
0.137064
0.181578
0.246237
0.342572
0.493428
0.749915
0.0600128
0.0396216
0.0304449
0.026662
0.0270376
0.0302044
0.0362956
0.0458309
0.0608149
0.084734
0.123324
0.186303
0.29249
0.482322
0.0340464
0.0184024
0.0129345
0.0110364
0.0111668
0.0124935
0.0150465
0.0192233
0.0264483
0.0395317
0.0635234
0.107072
0.186463
0.334899
0.0216019
0.00894775
0.00532949
0.00432112
0.00435691
0.00490428
0.00596885
0.00783955
0.0115151
0.0191646
0.0350555
0.0668255
0.128645
0.248132
0.015144
0.00482837
0.00221269
0.00160528
0.00159181
0.0018101
0.00226559
0.00317994
0.00527664
0.0102308
0.0215596
0.0458854
0.0954752
0.193363
0.0116403
0.00307201
0.00101409
0.000582501
0.00054589
0.000633096
0.00085301
0.00139017
0.00281049
0.00647025
0.0153153
0.0350992
0.0764962
0.158973
0.0098874
0.00238534
0.000593318
0.000228815
0.000182634
0.000223733
0.000365079
0.000779967
0.00196988
0.00513888
0.012902
0.0304127
0.067171
0.140064
0.00935145
0.0022279
0.000484248
0.000127156
7.60247e-05
0.000106936
0.000239521
0.000660623
0.00188235
0.00509862
0.0128235
0.0299158
0.0651797
0.133804
0.00990005
0.00244286
0.000545062
0.000146377
8.831e-05
0.00012798
0.000295913
0.000817564
0.00228033
0.00598846
0.0145531
0.0328233
0.0693779
0.138502
0.0113743
0.00308191
0.000856276
0.000348639
0.000268121
0.000334878
0.000593823
0.00133243
0.00327061
0.00792836
0.018196
0.039185
0.0796907
0.153742
0.0146218
0.00484427
0.0019231
0.00111538
0.000947756
0.00107023
0.00153925
0.0027246
0.0055298
0.011785
0.0248256
0.0502798
0.0975261
0.180768
0.0215405
0.00947638
0.00509843
0.00353482
0.00310193
0.00333383
0.00428573
0.00642206
0.0108688
0.0198564
0.0373401
0.0697662
0.127419
0.225122
0.0367387
0.0207503
0.0133243
0.0101074
0.00907167
0.00956668
0.0116361
0.0158594
0.0236198
0.0375824
0.0623827
0.105414
0.178124
0.296043
0.142966
0.106554
0.0835682
0.0729839
0.0740191
0.0853394
0.108099
0.142442
0.190881
0.256281
0.343591
0.465131
0.642325
0.918888
0.0682479
0.0494457
0.0378042
0.0319782
0.0314588
0.0354069
0.0443728
0.0591946
0.0822614
0.116715
0.167059
0.242216
0.35747
0.543811
0.0338239
0.0220743
0.0161535
0.0133412
0.0129329
0.0143829
0.0179002
0.0240719
0.0345864
0.0521321
0.080845
0.127977
0.206164
0.3403
0.0181308
0.00969544
0.00651341
0.00523358
0.00504826
0.00560783
0.00699116
0.0095418
0.0143342
0.0234063
0.0403097
0.0711992
0.126986
0.228996
0.0107435
0.00437875
0.00251314
0.00192308
0.00184913
0.00206893
0.00261809
0.00370635
0.00601269
0.0110082
0.0215625
0.042886
0.0844166
0.164377
0.00706459
0.00218513
0.000969735
0.000667168
0.000632806
0.000718839
0.00094553
0.00145401
0.00269392
0.00573012
0.0128214
0.0283228
0.0603414
0.12435
0.00522779
0.00132312
0.000418643
0.000226913
0.000203807
0.000238744
0.000345282
0.000629274
0.00141687
0.00352038
0.00875558
0.0208006
0.0466893
0.0997253
0.00448815
0.00103622
0.000243588
8.62545e-05
6.5281e-05
8.26926e-05
0.000149464
0.000357357
0.000979428
0.00270464
0.00710118
0.0174197
0.0399659
0.0865389
0.00450961
0.00102585
0.000210382
5.12881e-05
2.96983e-05
4.39793e-05
0.000106073
0.000310953
0.000930278
0.00263476
0.00692615
0.0168951
0.0385096
0.0827185
0.0051632
0.00120666
0.000257304
7.11976e-05
4.76152e-05
6.85189e-05
0.000150534
0.000408943
0.00115924
0.00314672
0.00797063
0.018818
0.0417239
0.0873993
0.00639006
0.001643
0.000450337
0.000198014
0.000167003
0.000210326
0.000351925
0.000745742
0.00179738
0.00442051
0.0104821
0.0235332
0.0500855
0.101106
0.00878012
0.00280985
0.00111564
0.00067675
0.000611183
0.000714778
0.00101669
0.0017312
0.00340781
0.00723464
0.0155332
0.0325017
0.0655164
0.126126
0.0138342
0.00593407
0.00314064
0.00220643
0.00202231
0.00227715
0.00299524
0.00447596
0.00747231
0.0135676
0.0257452
0.0491518
0.0923576
0.167714
0.0250716
0.0137281
0.00852695
0.00643918
0.00595682
0.00658269
0.00832164
0.0115926
0.0174039
0.0278008
0.0465085
0.0797633
0.137474
0.232952
0.10588
0.077549
0.0578206
0.046728
0.0434954
0.0474503
0.0597508
0.0819198
0.11738
0.169334
0.241118
0.340772
0.483356
0.697867
0.0489984
0.0351622
0.0255984
0.0200371
0.0180221
0.0190669
0.0235703
0.0325366
0.0483678
0.074237
0.113901
0.173765
0.265151
0.408778
0.0229369
0.015074
0.0105446
0.00803615
0.00709039
0.00738823
0.00906293
0.01264
0.0195316
0.0320921
0.0537417
0.0899816
0.150235
0.251959
0.0112888
0.00622743
0.00404521
0.00299154
0.00261358
0.00271748
0.00335364
0.00479525
0.0078431
0.0140915
0.0263024
0.0491613
0.0907245
0.166338
0.00603998
0.00258002
0.0014641
0.00103282
0.000896073
0.000939907
0.00118963
0.00179869
0.00323697
0.00656614
0.0138866
0.029048
0.0589205
0.116658
0.00365208
0.00116767
0.000522651
0.000334151
0.000285684
0.000306229
0.000411083
0.00069543
0.00145362
0.00340843
0.00812907
0.0187116
0.0409617
0.0860267
0.00263934
0.000667068
0.000210145
0.000106043
8.57748e-05
9.63346e-05
0.000147509
0.000304826
0.000770661
0.0020679
0.00540311
0.0133007
0.030719
0.067253
0.00238305
0.000535123
0.000121073
3.90012e-05
2.62855e-05
3.30014e-05
6.59013e-05
0.000177311
0.000527575
0.00153995
0.00422044
0.0107467
0.0255247
0.0571289
0.00260974
0.000567018
0.00011053
2.5362e-05
1.40431e-05
2.07744e-05
5.16351e-05
0.000157874
0.000492897
0.00145694
0.00399711
0.0101724
0.024175
0.0540944
0.00322697
0.000710928
0.000145851
4.27168e-05
3.15891e-05
4.36655e-05
8.67734e-05
0.000222782
0.000629826
0.00175525
0.00462016
0.0113921
0.0264196
0.0578687
0.00425623
0.00103203
0.000279782
0.000133705
0.000122237
0.000153815
0.000239552
0.000465949
0.00107236
0.00263362
0.00639825
0.0149028
0.0330652
0.0696245
0.00618047
0.00188646
0.000745147
0.000474668
0.000454912
0.000546854
0.000762554
0.00123312
0.00230887
0.00479844
0.0103711
0.0222399
0.0463359
0.0923124
0.0102557
0.00420971
0.00218199
0.00156682
0.0015065
0.00176577
0.00234843
0.00346015
0.00562864
0.0100329
0.0189914
0.0367216
0.0705461
0.13113
0.0193947
0.0101289
0.00607579
0.00461201
0.00443016
0.00511227
0.00663678
0.00932966
0.0139578
0.0221679
0.0370247
0.0638916
0.111657
0.192084
0.0887396
0.0646498
0.0467745
0.0355503
0.0300321
0.0295654
0.0347737
0.0473797
0.0709393
0.109641
0.167157
0.248798
0.366407
0.540643
0.0400158
0.0288192
0.020383
0.0150202
0.0122769
0.0116995
0.0134427
0.0183463
0.0284258
0.0467985
0.077278
0.12505
0.199102
0.315209
0.0177833
0.0120015
0.00818869
0.00586059
0.00468171
0.00438185
0.00499694
0.00691956
0.0112217
0.0198926
0.0360084
0.0643073
0.112311
0.19402
0.00802845
0.00472705
0.00303495
0.00210143
0.0016506
0.00153569
0.00177006
0.00254978
0.0044566
0.0087305
0.0176493
0.0351549
0.0677792
0.127811
0.00384001
0.00181676
0.00104749
0.00069268
0.000535937
0.000501408
0.000599998
0.000940095
0.00185596
0.00413783
0.00942422
0.0208284
0.0439004
0.0891317
0.00211667
0.00074631
0.000350437
0.00021208
0.000160622
0.000153778
0.000200578
0.000366798
0.000858017
0.00219701
0.00556308
0.0133718
0.0302342
0.0649848
0.0015068
0.000397665
0.000130707
6.32827e-05
4.5188e-05
4.59344e-05
7.19116e-05
0.000166738
0.000467868
0.00134269
0.00367016
0.00935874
0.0222616
0.0499233
0.00144856
0.000322712
7.25068e-05
2.22518e-05
1.32833e-05
1.56845e-05
3.36088e-05
9.99892e-05
0.000319172
0.000977887
0.0027863
0.00734521
0.0180108
0.0414787
0.00172286
0.000361106
6.8106e-05
1.53984e-05
8.50655e-06
1.20553e-05
2.91855e-05
9.04713e-05
0.000291668
0.000895319
0.00255435
0.00675593
0.0166618
0.0385926
0.00227122
0.000476731
9.56338e-05
3.02995e-05
2.45706e-05
3.27383e-05
5.83847e-05
0.000137936
0.000381548
0.00108145
0.00294193
0.00753766
0.0181772
0.0413399
0.00315959
0.000730676
0.000198401
0.000103036
0.000100444
0.000126427
0.000185761
0.000331642
0.000717859
0.00173465
0.00427434
0.0102467
0.0235189
0.0512633
0.00480397
0.00140804
0.000557903
0.00037416
0.000376847
0.00046196
0.000633037
0.000977625
0.001737
0.00349878
0.0075318
0.0164005
0.0350259
0.0717063
0.00828548
0.00326857
0.00167782
0.001242
0.00124638
0.00150277
0.00200554
0.00290707
0.00460031
0.00800822
0.015013
0.0291934
0.0570027
0.108006
0.0161619
0.00810065
0.00475425
0.0036685
0.00365404
0.00435169
0.00573051
0.00805766
0.0119416
0.0187573
0.0311129
0.0537444
0.0948926
0.165458
0.0285096
0.0429021
0.069782
0.114
0.180823
0.280037
0.427823
0.0109485
0.0170287
0.0294456
0.0520719
0.0902005
0.151611
0.24983
0.00408242
0.00671667
0.0125816
0.0244213
0.0467388
0.0863521
0.155624
0.00149255
0.00270597
0.00566693
0.0122848
0.0260927
0.0530148
0.104014
0.000555017
0.00116859
0.00280223
0.00679218
0.0158283
0.0348506
0.0731701
0.000224427
0.000568759
0.00155242
0.00412408
0.0103226
0.0241669
0.0534074
0.000107608
0.000323609
0.000972554
0.00275428
0.00725173
0.0177596
0.0408073
6.67232e-05
0.000222738
0.000705859
0.00207347
0.00562953
0.0141891
0.033453
0.0012173
0.000246214
4.52348e-05
1.04873e-05
6.16544e-06
8.52835e-06
1.98183e-05
6.11496e-05
0.000200886
0.000633945
0.00186496
0.00508551
0.0129042
0.0306318
0.00168437
0.000337337
6.6631e-05
2.31779e-05
2.05422e-05
2.70496e-05
4.50152e-05
9.9334e-05
0.000268001
0.000766832
0.00213763
0.00563638
0.0139784
0.0325976
0.00245047
0.000541489
0.000148652
8.41606e-05
8.66707e-05
0.000109786
0.000156396
0.000264016
0.000544166
0.00129156
0.00320535
0.00783525
0.0184083
0.0410625
0.00388333
0.00109569
0.000440131
0.000312079
0.000327803
0.000407942
0.000554042
0.000831527
0.0014229
0.00279076
0.0059688
0.0131187
0.0285089
0.0595394
0.00693017
0.00264411
0.00136063
0.00104479
0.00108743
0.00133633
0.00178561
0.00255761
0.00396361
0.00676545
0.0125696
0.024534
0.0485278
0.0934483
0.0139412
0.00676247
0.0039301
0.00310636
0.00319439
0.00388501
0.00514996
0.00721881
0.0105951
0.0164635
0.0271294
0.0469126
0.0836319
0.147826
5.07385
8.2725
13.0719
19.2526
26.0935
31.3887
3.37778
5.99213
10.2928
16.4491
24.1301
31.3273
2.54151
4.84895
8.88341
15.0476
23.3349
31.8843
2.05755
4.14982
8.00678
14.187
22.8477
32.3021
1.92439
3.93946
7.68673
13.7424
22.3449
32.2407
1.86611
3.82192
7.46529
13.3563
21.7056
31.4669
1.92196
3.89922
7.5506
13.4525
21.6065
30.6521
2.06533
4.15221
8.01215
14.2742
22.4165
30.1466
2.35426
4.69626
9.04201
16.0493
24.3517
30.2264
2.78122
5.46525
10.4841
18.4293
26.6173
30.2611
3.3227
6.34608
12.0537
20.7779
27.8765
29.4232
3.86558
7.14253
13.4972
22.6688
27.8868
28.1253
4.64844
8.34151