/*--------------------------------*- C++ -*----------------------------------*\
| =========                 |                                                 |
| \\      /  F ield         | OpenFOAM: The Open Source CFD Toolbox           |
|  \\    /   O peration     | Version:  v2106                                 |
|   \\  /    A nd           | Website:  www.openfoam.com                      |
|    \\/     M anipulation  |                                                 |
\*---------------------------------------------------------------------------*/
FoamFile
{
    version     2.0;
    format      ascii;
    arch        "LSB;label=32;scalar=64";
    class       volScalarField;
    location    "0.000199";
    object      T;
}
// * * * * * * * * * * * * * * * * * * * * * * * * * * * * * * * * * * * * * //

dimensions      [0 0 0 1 0 0 0];

internalField   nonuniform List<scalar> 
18273
(
288.534
288.617
288.556
288.692
288.852
288.986
289.071
289.102
289.019
288.81
288.525
288.377
288.175
288.276
288.392
288.527
288.647
288.866
289.06
289.225
289.35
289.419
289.379
289.203
288.924
288.686
288.384
288.443
288.508
288.684
288.873
289.12
289.324
289.514
289.648
289.741
289.752
289.634
289.377
289.054
288.674
288.456
288.689
288.95
289.2
289.451
289.657
289.82
289.954
290.054
290.09
290.024
289.815
289.492
289.092
288.73
288.981
289.312
289.59
289.825
289.985
290.122
290.234
290.326
290.368
290.323
290.139
289.833
289.45
289.041
289.271
289.639
289.929
290.123
290.262
290.369
290.459
290.538
290.577
290.534
290.362
290.061
289.692
289.262
289.483
289.853
290.135
290.324
290.447
290.536
290.609
290.674
290.704
290.66
290.484
290.176
289.804
289.378
289.631
289.979
290.232
290.419
290.554
290.646
290.716
290.768
290.788
290.733
290.557
290.247
289.869
289.44
289.681
290.012
290.257
290.448
290.597
290.706
290.779
290.823
290.831
290.759
290.551
290.233
289.86
289.442
289.695
290.012
290.247
290.438
290.607
290.732
290.814
290.853
290.855
290.768
290.561
290.23
289.824
289.396
289.592
289.912
290.167
290.383
290.581
290.731
290.822
290.856
290.848
290.748
290.51
290.135
289.701
289.273
289.41
289.69
289.988
290.244
290.488
290.673
290.786
290.82
290.798
290.678
290.414
289.991
289.56
289.167
289.243
289.395
289.706
289.992
290.267
290.488
290.632
290.674
290.647
290.51
290.222
289.759
289.337
289.026
289.109
289.126
289.36
289.614
289.901
290.132
290.296
290.35
290.324
290.196
289.932
289.592
289.436
289.196
288.515
288.799
288.887
289.09
289.208
289.368
289.429
289.454
289.363
289.167
288.856
288.591
288.294
288.35
288.61
288.903
289.137
289.388
289.522
289.673
289.753
289.793
289.725
289.565
289.296
289.004
288.708
288.702
288.886
289.189
289.449
289.702
289.834
289.972
290.056
290.097
290.057
289.92
289.682
289.39
289.067
288.814
289.213
289.537
289.794
290.014
290.14
290.252
290.327
290.366
290.355
290.265
290.077
289.804
289.467
289.126
289.548
289.88
290.114
290.265
290.382
290.472
290.539
290.586
290.601
290.553
290.409
290.165
289.844
289.497
289.862
290.171
290.351
290.471
290.561
290.635
290.7
290.755
290.78
290.754
290.657
290.432
290.132
289.777
290.099
290.386
290.526
290.611
290.67
290.728
290.789
290.856
290.897
290.887
290.801
290.599
290.303
289.936
290.243
290.511
290.632
290.697
290.738
290.78
290.837
290.907
290.955
290.959
290.886
290.67
290.356
289.982
290.308
290.575
290.706
290.77
290.802
290.829
290.877
290.937
290.98
290.989
290.917
290.702
290.37
289.954
290.329
290.596
290.753
290.836
290.873
290.897
290.932
290.973
290.997
290.995
290.903
290.663
290.301
289.852
290.28
290.568
290.763
290.879
290.938
290.972
290.996
291.015
291.01
290.975
290.838
290.565
290.172
289.705
290.154
290.459
290.716
290.877
290.978
291.025
291.044
291.047
291.016
290.933
290.721
290.389
289.99
289.577
290.012
290.281
290.592
290.817
290.953
291.015
291.039
291.034
290.981
290.835
290.554
290.16
289.788
289.447
289.89
290.064
290.378
290.645
290.836
290.934
290.97
290.961
290.882
290.675
290.36
290.018
289.814
289.592
288.32
288.809
289.062
289.243
289.374
289.416
289.413
289.349
289.2
288.962
288.648
288.326
288.034
288
288.827
289.313
289.636
289.8
289.895
289.905
289.884
289.805
289.661
289.467
289.234
288.965
288.692
288.603
289.448
289.88
290.146
290.27
290.323
290.308
290.26
290.174
290.056
289.909
289.701
289.46
289.153
288.899
289.994
290.353
290.555
290.626
290.646
290.618
290.562
290.48
290.379
290.258
290.109
289.909
289.613
289.289
290.415
290.7
290.837
290.855
290.853
290.819
290.771
290.711
290.646
290.562
290.44
290.271
290.023
289.711
290.733
290.939
291.025
291.016
290.996
290.959
290.923
290.89
290.857
290.809
290.726
290.591
290.375
290.102
290.973
291.12
291.163
291.139
291.104
291.066
291.047
291.039
291.036
291.018
290.965
290.861
290.672
290.404
291.175
291.287
291.307
291.277
291.227
291.188
291.176
291.183
291.198
291.198
291.168
291.08
290.899
290.614
291.327
291.434
291.451
291.424
291.373
291.331
291.322
291.335
291.358
291.365
291.345
291.255
291.065
290.742
291.455
291.582
291.617
291.604
291.557
291.513
291.498
291.507
291.524
291.531
291.508
291.398
291.182
290.812
291.527
291.698
291.781
291.795
291.763
291.725
291.704
291.706
291.71
291.703
291.654
291.51
291.258
290.854
291.555
291.769
291.923
291.981
291.982
291.958
291.935
291.922
291.908
291.867
291.768
291.586
291.298
290.905
291.569
291.795
291.994
292.112
292.158
292.16
292.146
292.132
292.1
292.019
291.859
291.6
291.284
290.896
291.518
291.725
291.976
292.15
292.247
292.283
292.284
292.268
292.211
292.093
291.903
291.648
291.411
291.087
288.548
288.594
288.099
287.748
287.311
287.923
287.815
287.772
287.387
287.409
287.117
287.706
288.008
287.801
287.403
287.439
287.173
287.768
288.224
287.82
287.402
287.414
287.157
287.724
288.548
288.128
287.774
287.789
287.561
288.106
288.8
288.424
288.161
288.213
288.091
288.539
288.979
288.697
288.515
288.677
288.602
289.19
289.075
288.834
288.685
288.903
288.877
289.652
289.1
288.905
288.81
289.056
289.039
289.831
289.069
288.922
288.834
289.061
289.02
289.777
288.992
288.852
288.761
288.937
288.822
289.467
288.862
288.669
288.529
288.634
288.451
288.996
288.908
288.672
288.337
288.319
288.132
288.536
288.567
288.348
287.976
287.998
287.81
287.993
288.552
288.421
287.904
287.538
287.114
287.763
288.022
287.71
287.204
287.117
286.82
287.489
288.326
287.935
287.36
287.213
286.845
287.607
288.653
288.18
287.559
287.307
286.846
287.541
289.05
288.582
288.015
287.783
287.312
287.953
289.333
288.899
288.411
288.203
287.79
288.25
289.499
289.112
288.709
288.639
288.333
288.888
289.549
289.189
288.849
288.882
288.655
289.367
289.523
289.191
288.915
289.05
288.913
289.717
289.432
289.12
288.908
289.084
288.985
289.774
289.316
289.037
288.883
289.031
288.926
289.599
289.215
288.915
288.721
288.788
288.634
289.262
289.188
288.918
288.647
288.587
288.329
288.807
288.781
288.539
288.236
288.284
288.103
288.395
288.308
287.965
287.394
286.629
285.985
285.917
287.931
287.457
286.779
286.278
285.64
285.681
288.334
287.774
287.045
286.503
285.811
286.167
288.803
288.2
287.465
286.819
286.047
286.367
289.287
288.715
288.03
287.446
286.718
287.306
289.697
289.175
288.559
288.048
287.461
287.964
290.004
289.528
289.007
288.649
288.213
288.789
290.194
289.749
289.332
289.126
288.83
289.469
290.305
289.889
289.568
289.494
289.318
290.144
290.359
289.965
289.704
289.736
289.654
290.439
290.411
290.05
289.835
289.856
289.798
290.396
290.523
290.162
289.909
289.81
289.71
290.124
290.695
290.31
290.037
289.812
289.542
289.837
290.449
290.113
289.766
289.506
289.234
289.55
289.313
289.125
288.415
287.914
287.517
287.735
288.718
288.448
287.647
287.329
286.835
287.381
289.002
288.512
287.592
287.188
286.607
287.369
289.281
288.522
287.516
287.003
286.428
287.108
289.543
288.673
287.611
287.018
286.426
287.015
289.678
288.779
287.692
287.017
286.418
286.875
289.716
288.839
287.822
287.221
286.647
287.165
289.655
288.85
287.987
287.51
286.991
287.584
289.534
288.848
288.208
287.93
287.549
288.153
289.349
288.8
288.367
288.238
287.996
288.592
289.176
288.793
288.52
288.455
288.266
288.947
289.026
288.757
288.592
288.628
288.502
288.804
288.986
288.819
288.685
288.686
288.565
288.761
288.689
288.542
288.467
288.538
288.437
288.601
289.795
289.595
289.02
288.596
288.172
288.27
289.278
289.013
288.249
287.894
287.396
287.917
289.563
289.118
288.243
287.763
287.162
287.796
289.937
289.363
288.374
287.686
287.068
287.498
290.311
289.7
288.67
287.85
287.143
287.661
290.561
289.961
288.929
288.082
287.364
287.649
290.661
290.06
289.109
288.398
287.78
287.964
290.637
290.099
289.298
288.741
288.292
288.249
290.601
290.103
289.458
289.04
288.688
288.811
290.509
290.044
289.559
289.267
289.015
289.231
290.357
289.981
289.637
289.405
289.238
289.471
290.16
289.871
289.61
289.41
289.281
289.479
289.948
289.703
289.515
289.375
289.329
289.549
289.524
289.234
289.098
289.054
289.05
289.187
291.383
291.26
290.775
290.169
289.492
289.36
291.113
290.901
290.269
289.733
289.041
289.17
291.392
291.105
290.411
289.84
289.086
289.213
291.739
291.468
290.743
289.997
289.137
289.04
292.047
291.809
291.112
290.239
289.311
289.229
292.21
292.042
291.395
290.525
289.618
289.464
292.289
292.119
291.528
290.74
289.955
289.738
292.295
292.136
291.577
290.905
290.327
290.185
292.264
292.079
291.566
291.012
290.632
290.472
292.196
291.971
291.528
291.076
290.789
290.629
292.089
291.838
291.497
291.147
290.899
290.569
291.929
291.695
291.451
291.149
290.859
290.436
291.752
291.531
291.324
291.002
290.73
290.161
291.371
291.077
290.811
290.342
289.928
289.133
289.049
288.654
288.535
288.288
288.224
288.204
289.245
288.759
288.643
288.474
288.492
288.552
289.142
288.57
288.48
288.315
288.354
288.465
289.231
288.169
288.233
288.179
288.296
288.502
288.453
287.772
287.906
287.945
288.221
288.611
287.582
287.134
287.462
287.755
288.25
288.792
286.819
286.664
287.063
287.542
288.283
288.957
286.728
286.457
286.91
287.512
288.39
289.103
286.729
286.419
286.929
287.569
288.488
289.165
286.966
286.615
287.11
287.696
288.572
289.203
287.251
286.903
287.366
287.84
288.592
289.116
287.849
287.404
287.756
288.056
288.652
288.98
288.259
287.916
288.167
288.267
288.692
288.792
289.02
288.638
288.818
288.926
289.152
289.148
288.985
288.611
288.331
288.037
287.965
288.184
289.466
288.972
288.694
288.516
288.512
288.726
289.394
288.906
288.597
288.454
288.517
288.79
289.275
288.715
288.467
288.405
288.572
288.948
288.478
288.084
288.06
288.242
288.624
289.153
287.598
287.418
287.672
288.152
288.751
289.403
286.898
286.835
287.308
288.054
288.873
289.617
286.659
286.609
287.153
288.048
289
289.778
286.658
286.608
287.202
288.128
289.107
289.851
286.886
286.836
287.424
288.279
289.211
289.88
287.224
287.172
287.737
288.454
289.269
289.835
287.867
287.775
288.21
288.683
289.32
289.731
288.503
288.362
288.683
288.908
289.352
289.592
289.247
289.096
289.316
289.539
289.77
289.867
285.484
286.528
286.588
286.941
287.09
287.718
286.403
287.432
287.394
287.775
287.97
288.599
286.647
287.567
287.418
287.848
288.242
289.011
286.784
287.491
287.412
287.942
288.547
289.455
286.462
287.16
287.326
288.072
288.917
289.868
285.976
286.75
287.341
288.349
289.341
290.249
285.605
286.462
287.438
288.693
289.787
290.58
285.463
286.379
287.613
289.079
290.195
290.863
285.455
286.45
287.843
289.427
290.494
291.061
285.623
286.702
288.148
289.728
290.712
291.198
285.899
287.081
288.513
289.972
290.85
291.262
286.472
287.68
289.008
290.252
290.97
291.318
287.259
288.421
289.538
290.538
291.077
291.307
288.328
289.397
290.388
291.122
291.406
291.548
287.937
287.627
287.778
287.759
287.94
287.98
288.337
287.97
288.129
288.069
288.207
288.302
289.137
288.395
288.462
288.228
288.18
288.258
289.675
288.867
288.788
288.447
288.385
288.418
289.944
289.015
288.834
288.498
288.472
288.58
289.825
288.944
288.772
288.484
288.566
288.74
289.342
288.682
288.644
288.477
288.598
288.811
288.868
288.286
288.406
288.341
288.538
288.787
288.441
287.933
288.192
288.167
288.445
288.726
288.458
287.893
288.124
288.058
288.358
288.595
288.368
287.814
288.068
287.964
288.287
288.48
288.69
287.945
288.174
288.092
288.366
288.376
288.917
288.106
288.316
288.147
288.358
288.288
289.291
288.816
288.888
288.816
288.954
288.825
287.559
287.16
287.204
287.08
287.228
287.596
288.131
287.487
287.612
287.617
287.858
288.22
288.62
287.961
287.99
287.867
288.031
288.379
289.188
288.371
288.349
288.181
288.297
288.594
289.36
288.502
288.528
288.385
288.533
288.845
289.248
288.486
288.575
288.513
288.706
289.027
288.723
288.26
288.43
288.476
288.737
289.097
288.113
287.822
288.13
288.34
288.703
289.076
287.644
287.39
287.783
288.107
288.605
289.018
287.444
287.059
287.493
287.864
288.443
288.87
287.223
286.86
287.357
287.727
288.301
288.751
287.451
287.131
287.552
287.859
288.298
288.574
287.858
287.568
287.965
288.051
288.287
288.414
288.74
288.469
288.674
288.818
288.884
288.763
285.481
285.728
285.596
285.797
286.214
286.951
285.951
286.279
286.175
286.533
286.995
287.737
286.282
286.627
286.494
286.797
287.192
287.904
286.821
286.983
286.925
287.165
287.504
288.152
287.139
287.083
287.155
287.436
287.812
288.429
286.968
287.132
287.273
287.607
288.035
288.657
286.406
286.882
287.083
287.566
288.125
288.794
285.797
286.366
286.741
287.457
288.153
288.853
285.075
285.716
286.299
287.241
288.079
288.838
284.383
285.116
285.916
287.033
287.97
288.771
283.705
284.683
285.715
286.926
287.847
288.623
283.62
284.743
285.867
287.06
287.814
288.414
283.769
285.14
286.264
287.329
287.831
288.196
284.709
286.091
287.06
287.926
288.119
288.367
290.053
290.273
290.345
290.378
290.379
290.307
290.212
290.079
289.906
289.659
289.329
288.951
288.579
288.465
290.356
290.655
290.794
290.832
290.8
290.704
290.59
290.454
290.311
290.121
289.865
289.561
289.265
289.073
290.761
291.029
291.145
291.159
291.106
291
290.873
290.741
290.617
290.479
290.296
290.064
289.769
289.457
291.106
291.309
291.378
291.356
291.285
291.178
291.058
290.94
290.838
290.74
290.624
290.459
290.211
289.876
291.374
291.493
291.508
291.459
291.373
291.272
291.172
291.084
291.013
290.952
290.882
290.768
290.567
290.264
291.571
291.617
291.592
291.515
291.421
291.328
291.25
291.194
291.158
291.132
291.098
291.024
290.876
290.624
291.736
291.733
291.679
291.58
291.478
291.39
291.33
291.301
291.295
291.297
291.293
291.249
291.136
290.918
291.912
291.879
291.798
291.685
291.573
291.484
291.435
291.425
291.439
291.462
291.477
291.45
291.356
291.144
292.08
292.041
291.951
291.833
291.717
291.627
291.584
291.582
291.606
291.64
291.663
291.639
291.545
291.317
292.276
292.241
292.154
292.038
291.919
291.827
291.781
291.779
291.803
291.838
291.857
291.827
291.719
291.46
292.45
292.438
292.377
292.277
292.164
292.073
292.025
292.018
292.037
292.064
292.072
292.023
291.89
291.586
292.679
292.678
292.639
292.56
292.455
292.368
292.315
292.298
292.303
292.31
292.294
292.213
292.053
291.721
292.824
292.879
292.867
292.828
292.749
292.675
292.621
292.591
292.572
292.543
292.488
292.367
292.182
291.857
293.087
293.105
293.104
293.093
293.045
292.987
292.932
292.882
292.826
292.74
292.62
292.452
292.272
291.993
291.07
291.115
291.129
291.075
291.004
290.889
290.775
290.637
290.469
290.248
289.95
289.61
289.23
289.006
291.234
291.353
291.386
291.346
291.273
291.164
291.048
290.926
290.799
290.646
290.445
290.183
289.866
289.572
291.432
291.527
291.555
291.512
291.437
291.336
291.228
291.12
291.023
290.928
290.81
290.625
290.342
289.991
291.603
291.647
291.651
291.6
291.524
291.432
291.338
291.248
291.174
291.116
291.056
290.946
290.706
290.364
291.743
291.737
291.709
291.64
291.559
291.477
291.4
291.333
291.285
291.257
291.234
291.172
290.992
290.703
291.883
291.842
291.776
291.683
291.593
291.514
291.451
291.405
291.383
291.38
291.38
291.354
291.219
290.985
292.034
291.97
291.873
291.757
291.653
291.571
291.515
291.488
291.484
291.5
291.516
291.51
291.416
291.228
292.211
292.139
292.018
291.882
291.762
291.67
291.617
291.599
291.609
291.638
291.664
291.666
291.595
291.429
292.405
292.332
292.203
292.057
291.924
291.824
291.77
291.754
291.769
291.804
291.834
291.835
291.769
291.604
292.634
292.561
292.431
292.281
292.142
292.036
291.978
291.96
291.974
292.005
292.032
292.021
291.946
291.764
292.861
292.805
292.685
292.541
292.403
292.297
292.234
292.213
292.22
292.241
292.259
292.227
292.134
291.921
293.125
293.084
292.976
292.841
292.706
292.602
292.537
292.508
292.504
292.507
292.51
292.448
292.33
292.083
293.335
293.347
293.271
293.158
293.036
292.937
292.866
292.822
292.795
292.77
292.74
292.648
292.504
292.228
293.655
293.659
293.586
293.489
293.382
293.289
293.21
293.148
293.089
293.023
292.929
292.788
292.61
292.336
292.059
291.99
291.927
291.799
291.668
291.514
291.354
291.188
291.01
290.808
290.562
290.264
289.923
289.65
292.115
292.085
292.021
291.913
291.798
291.666
291.517
291.364
291.215
291.061
290.892
290.697
290.44
290.122
292.17
292.125
292.054
291.953
291.85
291.741
291.615
291.483
291.356
291.244
291.137
291.01
290.786
290.474
292.233
292.165
292.078
291.974
291.873
291.772
291.664
291.554
291.451
291.367
291.299
291.217
291.047
290.752
292.316
292.217
292.102
291.982
291.877
291.783
291.691
291.602
291.523
291.465
291.421
291.369
291.241
291.004
292.419
292.297
292.157
292.019
291.902
291.806
291.721
291.648
291.589
291.553
291.528
291.499
291.402
291.209
292.554
292.421
292.258
292.099
291.965
291.858
291.774
291.712
291.669
291.651
291.64
291.624
291.552
291.391
292.722
292.581
292.402
292.226
292.074
291.956
291.868
291.811
291.779
291.771
291.77
291.76
291.702
291.56
292.913
292.769
292.581
292.395
292.232
292.104
292.014
291.958
291.932
291.928
291.93
291.917
291.864
291.73
293.129
292.984
292.794
292.604
292.435
292.303
292.211
292.157
292.132
292.126
292.123
292.099
292.043
291.899
293.354
293.222
293.038
292.85
292.681
292.549
292.457
292.401
292.373
292.358
292.349
292.31
292.244
292.075
293.607
293.49
293.312
293.128
292.962
292.834
292.744
292.686
292.651
292.622
292.599
292.541
292.456
292.252
293.878
293.787
293.628
293.455
293.294
293.163
293.065
292.993
292.939
292.888
292.84
292.756
292.646
292.415
294.195
294.099
293.944
293.785
293.636
293.509
293.404
293.317
293.238
293.156
293.063
292.931
292.771
292.519
292.606
292.498
292.363
292.207
292.052
291.882
291.71
291.54
291.362
291.166
290.951
290.716
290.457
290.183
292.64
292.528
292.383
292.235
292.098
291.955
291.802
291.637
291.466
291.3
291.144
290.992
290.811
290.555
292.648
292.526
292.376
292.23
292.101
291.978
291.845
291.699
291.546
291.406
291.285
291.182
291.036
290.829
292.686
292.54
292.378
292.227
292.1
291.984
291.866
291.74
291.609
291.491
291.397
291.32
291.208
291.026
292.749
292.577
292.394
292.23
292.098
291.985
291.878
291.77
291.662
291.57
291.497
291.44
291.352
291.199
292.833
292.644
292.446
292.267
292.125
292.008
291.905
291.81
291.722
291.651
291.597
291.555
291.482
291.346
292.946
292.748
292.537
292.346
292.189
292.063
291.96
291.872
291.799
291.746
291.705
291.672
291.607
291.482
293.089
292.883
292.662
292.46
292.292
292.158
292.052
291.969
291.906
291.863
291.83
291.799
291.736
291.612
293.26
293.049
292.82
292.61
292.433
292.294
292.188
292.108
292.05
292.012
291.98
291.943
291.877
291.75
293.454
293.245
293.01
292.797
292.616
292.476
292.37
292.294
292.238
292.199
292.16
292.112
292.036
291.899
293.675
293.477
293.241
293.028
292.845
292.705
292.6
292.524
292.466
292.419
292.372
292.309
292.221
292.067
293.915
293.731
293.499
293.291
293.113
292.978
292.876
292.798
292.734
292.674
292.612
292.531
292.428
292.249
294.201
294.04
293.82
293.617
293.439
293.298
293.186
293.094
293.015
292.935
292.853
292.756
292.641
292.436
294.486
294.336
294.127
293.941
293.774
293.636
293.519
293.414
293.315
293.209
293.093
292.957
292.804
292.581
293.063
292.889
292.708
292.532
292.365
292.197
292.026
291.856
291.682
291.502
291.307
291.094
290.877
290.609
293.08
292.903
292.708
292.53
292.373
292.228
292.078
291.917
291.742
291.567
291.404
291.256
291.096
290.901
293.078
292.895
292.693
292.514
292.364
292.233
292.1
291.953
291.793
291.631
291.489
291.364
291.242
291.078
293.098
292.899
292.691
292.507
292.356
292.231
292.111
291.98
291.839
291.697
291.57
291.468
291.365
291.229
293.132
292.915
292.695
292.504
292.353
292.232
292.122
292.007
291.887
291.768
291.66
291.574
291.485
291.364
293.192
292.962
292.735
292.539
292.382
292.257
292.15
292.047
291.943
291.845
291.756
291.684
291.601
291.491
293.275
293.041
292.809
292.605
292.441
292.311
292.204
292.107
292.015
291.933
291.859
291.793
291.712
291.599
293.386
293.145
292.907
292.697
292.528
292.394
292.286
292.193
292.109
292.037
291.97
291.904
291.821
291.698
293.528
293.281
293.033
292.818
292.644
292.509
292.401
292.311
292.232
292.165
292.098
292.027
291.934
291.803
293.696
293.45
293.194
292.976
292.799
292.664
292.557
292.47
292.392
292.324
292.25
292.168
292.064
291.921
293.9
293.665
293.406
293.186
293.006
292.868
292.76
292.672
292.591
292.515
292.432
292.336
292.222
292.062
294.119
293.901
293.647
293.435
293.258
293.122
293.014
292.922
292.834
292.743
292.644
292.529
292.401
292.225
294.382
294.189
293.951
293.747
293.569
293.426
293.304
293.195
293.091
292.982
292.865
292.734
292.595
292.397
294.641
294.457
294.236
294.049
293.883
293.741
293.615
293.495
293.373
293.238
293.095
292.939
292.771
292.563
293.442
293.248
293.054
292.871
292.698
292.526
292.353
292.176
291.993
291.804
291.616
291.406
291.205
290.971
293.462
293.281
293.072
292.878
292.703
292.544
292.384
292.219
292.036
291.845
291.664
291.499
291.339
291.16
293.451
293.253
293.042
292.85
292.684
292.539
292.397
292.243
292.072
291.892
291.718
291.568
291.426
291.272
293.451
293.236
293.02
292.827
292.663
292.525
292.394
292.258
292.105
291.941
291.782
291.644
291.523
291.395
293.457
293.23
293.005
292.806
292.644
292.512
292.393
292.272
292.138
291.995
291.856
291.737
291.628
291.513
293.485
293.243
293.017
292.821
292.658
292.526
292.411
292.299
292.179
292.056
291.938
291.835
291.736
291.627
293.532
293.284
293.054
292.854
292.692
292.562
292.45
292.344
292.235
292.128
292.027
291.936
291.842
291.727
293.612
293.357
293.118
292.915
292.752
292.622
292.512
292.41
292.31
292.215
292.124
292.036
291.94
291.814
293.724
293.458
293.209
293.002
292.837
292.708
292.6
292.502
292.409
292.32
292.232
292.14
292.034
291.897
293.864
293.596
293.338
293.129
292.963
292.834
292.727
292.631
292.54
292.45
292.356
292.254
292.135
291.986
294.042
293.785
293.525
293.314
293.144
293.011
292.901
292.801
292.705
292.607
292.502
292.384
292.255
292.088
294.236
293.998
293.748
293.546
293.378
293.244
293.13
293.022
292.915
292.8
292.677
292.539
292.396
292.215
294.466
294.262
294.029
293.835
293.667
293.523
293.394
293.269
293.146
293.013
292.872
292.715
292.563
292.364
294.698
294.498
294.284
294.109
293.952
293.809
293.675
293.541
293.402
293.249
293.085
292.911
292.726
292.521
293.757
293.593
293.42
293.254
293.089
292.917
292.736
292.548
292.352
292.145
291.94
291.741
291.552
291.361
293.776
293.62
293.44
293.264
293.094
292.927
292.752
292.572
292.376
292.169
291.967
291.796
291.629
291.468
293.758
293.583
293.397
293.221
293.057
292.901
292.742
292.574
292.389
292.194
292
291.832
291.684
291.542
293.75
293.551
293.356
293.174
293.01
292.861
292.713
292.56
292.391
292.211
292.033
291.877
291.745
291.627
293.74
293.525
293.318
293.126
292.96
292.817
292.68
292.541
292.389
292.228
292.071
291.936
291.822
291.721
293.752
293.517
293.298
293.109
292.945
292.803
292.671
292.539
292.398
292.255
292.121
292.008
291.912
291.819
293.776
293.524
293.302
293.111
292.951
292.815
292.689
292.563
292.432
292.304
292.188
292.091
292.006
291.91
293.834
293.576
293.344
293.149
292.989
292.855
292.733
292.613
292.491
292.374
292.271
292.182
292.098
291.993
293.925
293.657
293.415
293.215
293.054
292.92
292.8
292.685
292.572
292.464
292.367
292.277
292.183
292.066
294.042
293.774
293.525
293.324
293.16
293.025
292.905
292.791
292.681
292.575
292.475
292.375
292.267
292.132
294.194
293.937
293.688
293.487
293.32
293.178
293.053
292.934
292.819
292.707
292.596
292.48
292.355
292.205
294.358
294.121
293.884
293.692
293.527
293.382
293.251
293.124
292.998
292.87
292.74
292.602
292.463
292.29
294.562
294.353
294.13
293.943
293.777
293.623
293.48
293.338
293.199
293.056
292.909
292.751
292.6
292.41
294.759
294.553
294.351
294.177
294.019
293.866
293.722
293.575
293.428
293.269
293.105
292.928
292.752
292.549
292.95
292.74
292.517
292.299
292.091
291.909
291.738
292.941
292.733
292.514
292.297
292.107
291.945
291.791
292.905
292.707
292.499
292.293
292.115
291.976
291.847
292.847
292.664
292.471
292.281
292.12
291.994
291.891
292.789
292.617
292.441
292.274
292.135
292.029
291.947
292.755
292.591
292.428
292.28
292.164
292.079
292.011
292.752
292.595
292.443
292.313
292.216
292.144
292.075
292.784
292.633
292.494
292.378
292.29
292.221
292.144
294.104
293.854
293.63
293.442
293.28
293.134
292.991
292.847
292.703
292.572
292.464
292.377
292.302
292.214
294.215
293.965
293.734
293.542
293.375
293.225
293.08
292.937
292.798
292.672
292.564
292.472
292.384
292.278
294.357
294.114
293.879
293.682
293.509
293.351
293.202
293.056
292.918
292.79
292.677
292.572
292.467
292.344
294.497
294.267
294.04
293.849
293.677
293.516
293.363
293.214
293.072
292.937
292.809
292.684
292.559
292.413
294.672
294.454
294.234
294.044
293.871
293.706
293.549
293.395
293.249
293.106
292.965
292.819
292.678
292.506
294.818
294.601
294.401
294.221
294.057
293.899
293.748
293.6
293.455
293.305
293.151
292.983
292.822
292.633
290.176
290.276
290.265
290.123
289.923
289.353
289.763
289.52
289.127
288.709
288.284
287.657
289.812
289.312
288.657
287.91
287.197
286.514
289.813
289.163
288.301
287.342
286.56
285.893
289.806
289.08
288.141
287.138
286.397
285.777
289.739
288.976
288.032
287.071
286.39
285.747
289.649
288.888
288.01
287.14
286.571
285.927
289.507
288.749
287.958
287.239
286.784
286.188
289.307
288.541
287.871
287.333
287.092
286.741
289.025
288.239
287.677
287.318
287.305
287.288
288.688
287.928
287.48
287.216
287.32
287.381
288.379
287.608
287.157
286.873
286.944
286.781
288.174
287.389
286.864
286.501
286.464
285.976
287.475
286.736
286.18
285.8
285.801
285.119
291.177
291.245
291.251
291.153
290.903
290.405
290.786
290.649
290.388
290.181
289.755
289.017
290.8
290.47
290.022
289.51
288.72
287.762
290.705
290.261
289.643
288.894
287.891
286.931
290.617
290.094
289.378
288.509
287.477
286.673
290.488
289.896
289.113
288.199
287.252
286.639
290.355
289.714
288.917
288.032
287.262
286.838
290.179
289.495
288.706
287.882
287.273
287.014
289.955
289.22
288.46
287.743
287.316
287.167
289.661
288.865
288.17
287.582
287.334
287.261
289.34
288.515
287.892
287.421
287.275
287.225
289.014
288.193
287.596
287.156
286.999
286.864
288.75
287.984
287.417
286.971
286.712
286.37
288.128
287.4
286.844
286.39
286.113
285.706
292.12
292.198
292.256
292.288
292.171
291.839
291.811
291.741
291.601
291.508
291.309
290.759
291.755
291.612
291.362
291.066
290.514
289.593
291.58
291.381
290.978
290.47
289.659
288.552
291.412
291.157
290.628
289.968
289.008
287.932
291.212
290.892
290.26
289.507
288.522
287.609
291.041
290.641
289.967
289.202
288.295
287.569
290.866
290.383
289.691
288.929
288.136
287.527
290.661
290.106
289.424
288.678
288.038
287.55
290.401
289.777
289.115
288.407
287.919
287.528
290.099
289.41
288.775
288.123
287.759
287.444
289.773
289.02
288.388
287.802
287.474
287.156
289.473
288.737
288.152
287.65
287.317
286.896
288.911
288.2
287.636
287.168
286.845
286.406
292.668
292.707
292.719
292.795
292.785
292.695
292.422
292.395
292.333
292.35
292.332
292.114
292.322
292.273
292.19
292.097
291.839
291.254
292.142
292.045
291.875
291.614
291.115
290.205
291.958
291.807
291.522
291.077
290.351
289.263
291.737
291.527
291.125
290.542
289.669
288.549
291.526
291.274
290.795
290.151
289.24
288.2
291.323
291.02
290.496
289.82
288.911
287.939
291.125
290.76
290.211
289.508
288.652
287.783
290.905
290.465
289.885
289.136
288.365
287.601
290.648
290.125
289.517
288.748
288.101
287.482
290.338
289.717
289.089
288.356
287.789
287.235
290.04
289.374
288.781
288.188
287.765
287.261
289.585
288.914
288.335
287.837
287.466
287.037
293.119
293.131
293.118
293.181
293.19
293.217
292.868
292.896
292.861
292.915
292.969
293.004
292.738
292.757
292.735
292.753
292.707
292.483
292.54
292.536
292.486
292.437
292.227
291.682
292.349
292.302
292.192
292.015
291.577
290.737
292.143
292.032
291.839
291.496
290.854
289.809
291.933
291.77
291.497
291.013
290.255
289.137
291.722
291.521
291.165
290.604
289.77
288.627
291.52
291.281
290.859
290.247
289.371
288.284
291.321
291.015
290.53
289.853
288.944
287.922
291.098
290.712
290.17
289.434
288.6
287.731
290.837
290.335
289.755
289.01
288.301
287.613
290.558
289.971
289.406
288.779
288.282
287.717
290.143
289.516
288.946
288.406
287.999
287.564
293.47
293.48
293.466
293.502
293.52
293.525
293.234
293.26
293.235
293.287
293.36
293.455
293.085
293.104
293.098
293.148
293.196
293.2
292.89
292.907
292.902
292.925
292.9
292.691
292.699
292.699
292.665
292.625
292.441
291.947
292.498
292.457
292.365
292.215
291.837
291.075
292.294
292.201
292.047
291.767
291.218
290.284
292.085
291.941
291.725
291.313
290.662
289.639
291.88
291.703
291.411
290.918
290.222
289.143
291.678
291.456
291.098
290.538
289.736
288.637
291.461
291.185
290.763
290.139
289.319
288.334
291.236
290.855
290.365
289.706
288.933
288.12
290.996
290.509
289.994
289.398
288.824
288.208
290.635
290.091
289.565
289.018
288.558
288.082
293.784
293.788
293.787
293.809
293.812
293.794
293.585
293.596
293.572
293.611
293.66
293.723
293.445
293.438
293.428
293.47
293.531
293.576
293.271
293.263
293.257
293.294
293.335
293.313
293.09
293.077
293.061
293.064
293.036
292.829
292.894
292.861
292.812
292.758
292.598
292.137
292.69
292.625
292.53
292.388
292.07
291.394
292.477
292.371
292.222
291.975
291.506
290.681
292.262
292.119
291.921
291.572
291.009
290.101
292.042
291.876
291.616
291.179
290.541
289.534
291.834
291.615
291.309
290.801
290.107
289.139
291.612
291.332
290.955
290.383
289.653
288.785
291.416
291.031
290.584
290.021
289.403
288.71
291.106