/*--------------------------------*- C++ -*----------------------------------*\
| =========                 |                                                 |
| \\      /  F ield         | OpenFOAM: The Open Source CFD Toolbox           |
|  \\    /   O peration     | Version:  v2106                                 |
|   \\  /    A nd           | Website:  www.openfoam.com                      |
|    \\/     M anipulation  |                                                 |
\*---------------------------------------------------------------------------*/
FoamFile
{
    version     2.0;
    format      ascii;
    arch        "LSB;label=32;scalar=64";
    class       volScalarField;
    location    "0.00013";
    object      k;
}
// * * * * * * * * * * * * * * * * * * * * * * * * * * * * * * * * * * * * * //

dimensions      [0 2 -2 0 0 0 0];

internalField   nonuniform List<scalar> 
18273
(
0.479599
0.505534
0.595171
0.675295
0.736137
0.758931
0.744127
0.702233
0.642541
0.56749
0.459069
0.325985
0.221718
0.169249
0.349035
0.296653
0.307407
0.33364
0.359178
0.374403
0.375184
0.362136
0.338288
0.305509
0.24543
0.167549
0.11243
0.101359
0.373621
0.242599
0.177695
0.149695
0.142521
0.14367
0.145616
0.143813
0.138894
0.131217
0.105625
0.0738719
0.0625757
0.0940953
0.508915
0.307534
0.172203
0.0931881
0.0568347
0.0438943
0.0408236
0.0406906
0.0415055
0.0422066
0.0351103
0.0296851
0.0447677
0.103346
0.677218
0.415755
0.222162
0.101283
0.0410322
0.0168192
0.0091184
0.00764438
0.00831427
0.00954304
0.00932225
0.0150245
0.044371
0.124411
0.792702
0.490003
0.259816
0.115219
0.0424113
0.0128409
0.00336491
0.00116715
0.0010346
0.0014857
0.0032061
0.0139693
0.0548357
0.157512
0.86706
0.526423
0.272077
0.116538
0.0404737
0.0111356
0.00234346
0.000383736
0.000100569
0.000328948
0.00294511
0.0177529
0.0696275
0.193367
0.928535
0.554358
0.280144
0.115551
0.0380805
0.00984601
0.00201449
0.000379944
0.000106811
0.000374213
0.00392534
0.0226688
0.0839657
0.222318
0.964222
0.562483
0.278085
0.112066
0.0365347
0.0100518
0.00288945
0.00119965
0.000653151
0.000807489
0.00511295
0.0266696
0.0932655
0.236626
0.954635
0.540737
0.261987
0.106015
0.0377038
0.0146142
0.00799189
0.00539194
0.00354241
0.0026875
0.00642651
0.0266519
0.0888009
0.223107
0.888966
0.489865
0.235401
0.101725
0.0481145
0.0318374
0.0259852
0.0206419
0.0147837
0.0103429
0.0110545
0.0252376
0.0725437
0.183757
0.778357
0.422725
0.210528
0.111609
0.0825675
0.0786059
0.074201
0.0631504
0.0482919
0.0346718
0.0274434
0.0312826
0.0563222
0.132185
0.652438
0.357584
0.203349
0.15482
0.163353
0.178656
0.17642
0.156642
0.126921
0.095562
0.0714397
0.0595482
0.0585193
0.0960643
0.561876
0.333477
0.245925
0.261381
0.31742
0.353482
0.352287
0.323019
0.275899
0.218862
0.165464
0.127858
0.0975102
0.100018
1.17524
1.26141
1.41146
1.51443
1.54061
1.47968
1.34926
1.19237
1.0249
0.850212
0.640236
0.423515
0.28049
0.246898
0.704137
0.695965
0.745243
0.79123
0.807006
0.783638
0.727641
0.65199
0.564746
0.474547
0.354131
0.22629
0.159956
0.198322
0.577628
0.443927
0.376591
0.344509
0.326559
0.310827
0.293129
0.266518
0.235888
0.206181
0.15422
0.106872
0.113744
0.222963
0.722918
0.476865
0.293807
0.17846
0.118972
0.0932155
0.0820629
0.074634
0.0693188
0.065305
0.0517759
0.0504744
0.103861
0.264074
1.00839
0.661647
0.375263
0.18253
0.0784272
0.0332035
0.0172771
0.0130911
0.0130455
0.014187
0.0150114
0.0342052
0.115786
0.317492
1.25006
0.824538
0.463169
0.216808
0.0833491
0.0260109
0.00672962
0.00200124
0.00148951
0.00227978
0.00734738
0.0369329
0.140573
0.37741
1.43879
0.937267
0.515966
0.232468
0.084013
0.0238416
0.00510443
0.000816564
0.000172599
0.000801357
0.00790597
0.0453484
0.165845
0.426557
1.63582
1.05248
0.568811
0.247986
0.0854898
0.022937
0.00489784
0.00103369
0.000348898
0.00103385
0.00972719
0.0526112
0.182296
0.449147
1.8102
1.1394
0.603877
0.257429
0.0877691
0.0252073
0.00779938
0.0036312
0.00213978
0.00225336
0.0113567
0.0551294
0.182247
0.436214
1.92298
1.17304
0.607102
0.257671
0.0941287
0.037143
0.021318
0.0154803
0.0108278
0.00795746
0.0141536
0.0502732
0.157085
0.375807
1.9322
1.13517
0.574939
0.252858
0.115937
0.075349
0.0643544
0.0548909
0.0420418
0.0303385
0.0277441
0.0480512
0.119498
0.283721
1.81597
1.03434
0.52562
0.264068
0.178752
0.170013
0.169944
0.155619
0.127917
0.0972756
0.0746422
0.0701573
0.096514
0.192453
1.61997
0.906313
0.490546
0.321654
0.314611
0.355764
0.374566
0.358083
0.313206
0.253122
0.194198
0.151501
0.126229
0.154679
1.45282
0.827739
0.518065
0.460803
0.549428
0.648777
0.693873
0.684894
0.632402
0.54244
0.433319
0.332227
0.245956
0.209896
2.77563
2.84222
2.95628
2.94615
2.78792
2.51084
2.17098
1.80902
1.46823
1.14345
0.806303
0.506025
0.365738
0.456443
1.58932
1.63266
1.70084
1.71694
1.63787
1.48209
1.28287
1.05966
0.847357
0.655992
0.450785
0.283109
0.260183
0.46552
0.998747
0.895309
0.827231
0.773543
0.707912
0.632516
0.545817
0.448191
0.357972
0.285824
0.197838
0.153189
0.241899
0.557659
0.983383
0.711505
0.485703
0.330228
0.238346
0.186954
0.152881
0.122722
0.102451
0.0884373
0.0693661
0.0959397
0.258252
0.657286
1.34976
0.938229
0.556175
0.281482
0.125946
0.0551716
0.0279759
0.0194562
0.0178647
0.0186431
0.0255073
0.0858315
0.295068
0.753035
1.76249
1.24004
0.719731
0.344216
0.133815
0.0414537
0.0102647
0.00269116
0.00183681
0.00360999
0.0185545
0.0966179
0.337441
0.827494
2.11562
1.46773
0.841045
0.388621
0.142074
0.0398844
0.00821823
0.00121019
0.000247405
0.00210806
0.0207195
0.109498
0.366346
0.861884
2.50227
1.73922
0.98968
0.446066
0.155861
0.0415515
0.00877113
0.00199283
0.000805855
0.00263913
0.0228039
0.113752
0.364323
0.831485
2.91158
2.0014
1.12609
0.498458
0.171981
0.0492928
0.015773
0.00810352
0.00515462
0.00537376
0.023765
0.106522
0.329681
0.742983
3.29239
2.20399
1.21639
0.533997
0.195037
0.0756652
0.0446895
0.0346131
0.0257412
0.0194403
0.0292935
0.0893208
0.258873
0.587222
3.5627
2.29067
1.23163
0.549091
0.239319
0.148693
0.131099
0.118891
0.0971717
0.0744364
0.064601
0.0898398
0.18777
0.406974
3.63209
2.24042
1.18389
0.570319
0.343392
0.316555
0.330387
0.322212
0.284212
0.233091
0.184623
0.158333
0.172163
0.274867
3.49972
2.09335
1.12327
0.639006
0.546972
0.623837
0.691575
0.704702
0.663604
0.580762
0.474996
0.374331
0.292417
0.285019
3.31342
1.96458
1.12131
0.800943
0.870403
1.06757
1.21016
1.27306
1.26444
1.17659
1.0163
0.818137
0.622998
0.505606
0.191971
0.329364
0.623798
1.47029
9.17257
6.51191
0.149286
0.254952
0.459745
0.989165
6.10712
4.55713
0.183493
0.325699
0.572691
1.11008
5.48424
3.3857
0.227248
0.424196
0.749505
1.38132
5.51134
2.72458
0.283755
0.547071
0.976446
1.75029
6.08923
2.42909
0.35305
0.680239
1.21308
2.14695
7.06812
2.39045
0.4191
0.791125
1.39777
2.49692
8.2326
2.52731
0.465293
0.851301
1.49078
2.73211
9.33979
2.81245
0.482858
0.856834
1.49211
2.82947
10.3112
3.20886
0.456352
0.793358
1.38715
2.73603
10.9084
3.65666
0.388299
0.669782
1.184
2.44273
11.0371
4.15465
0.289883
0.507637
0.92188
2.0204
10.563
4.78346
0.195415
0.357601
0.687843
1.64901
9.86961
5.75662
0.14455
0.275271
0.572177
1.44973
9.77171
7.21272
0.35705
0.582805
0.974693
1.7421
6.25549
4.71029
0.365102
0.610654
0.995147
1.63026
4.79453
3.45392
0.459637
0.792129
1.28427
2.02532
4.97223
2.87887
0.56717
1.0099
1.65208
2.56342
5.62114
2.72873
0.680141
1.22847
2.02327
3.09435
6.53554
2.84983
0.782599
1.40336
2.30746
3.54206
7.47713
3.10483
0.852682
1.49278
2.42798
3.80169
8.35115
3.38811
0.870318
1.47534
2.38538
3.87378
9.10996
3.64394
0.833031
1.3719
2.20596
3.71218
9.53469
3.86666
0.728805
1.17764
1.89485
3.29507
9.37616
3.9622
0.574628
0.925076
1.50049
2.70189
8.8384
3.97683
0.398282
0.653631
1.08783
2.06909
7.81344
4.078
0.26677
0.454947
0.793048
1.60181
6.74338
4.46704
0.246098
0.417405
0.744801
1.4579
6.34052
5.21697
0.827002
1.2391
1.76895
2.34223
3.14631
3.74389
0.934069
1.47221
2.14116
2.82332
3.57623
3.92151
1.13022
1.82299
2.65369
3.49003
4.2869
4.55759
1.32307
2.1665
3.15559
4.13624
4.99301
5.24069
1.47644
2.41838
3.50316
4.56134
5.46909
5.68756
1.55999
2.52515
3.61883
4.72634
5.75459
5.80198
1.56213
2.47615
3.51336
4.68223
5.96787
5.65592
1.47094
2.27062
3.22241
4.42955
6.12404
5.32876
1.30979
1.96707
2.79894
3.88566
6.05037
4.81729
1.06876
1.57238
2.24363
3.12
5.42433
4.13164
0.787641
1.15098
1.65404
2.30495
4.32684
3.42691
0.522373
0.776881
1.14611
1.61649
3.12506
2.95916
0.393983
0.60599
0.922664
1.3175
2.39514
2.94503
0.503914
0.773885
1.17558
1.59837
2.54972
3.4436
0.16657
0.282394
0.521285
1.17711
8.17583
6.74752
0.187607
0.304613
0.517828
1.04019
6.10651
4.67484
0.253147
0.418616
0.695591
1.28484
5.82827
3.47477
0.332115
0.566701
0.94088
1.66409
6.12126
2.83222
0.427752
0.737508
1.22072
2.11049
6.90735
2.56758
0.51474
0.883721
1.45647
2.50251
7.95375
2.54583
0.578427
0.977353
1.6061
2.77967
9.04955
2.66218
0.615995
1.01718
1.66458
2.94095
10.0464
2.86645
0.618177
1.00059
1.63266
2.97571
10.8981
3.18219
0.568506
0.910013
1.49139
2.82431
11.4386
3.54468
0.466756
0.748738
1.24626
2.51463
11.4308
3.92708
0.373089
0.592302
1.00045
2.14826
11.0297
4.46609
0.381111
0.584692
0.951741
2.01079
10.5675
5.44356
0.541543
0.831536
1.28409
2.37315
11.1602
6.87675
0.395338
0.625182
0.975203
1.6188
5.58091
4.79793
0.483475
0.76135
1.16114
1.8081
4.89894
3.53771
0.644024
1.03358
1.57389
2.38291
5.41885
3.0246
0.824125
1.34284
2.05761
3.08441
6.35542
2.96807
0.988059
1.60817
2.46849
3.68068
7.4083
3.15493
1.0946
1.76076
2.69557
4.05725
8.39051
3.4085
1.13601
1.78806
2.73379
4.19159
9.09729
3.62977
1.12224
1.71928
2.6077
4.09544
9.67681
3.76515
1.04796
1.57009
2.3577
3.80807
9.84068
3.82036
0.899976
1.32625
1.98371
3.31215
9.45361
3.76563
0.713653
1.04822
1.56916
2.73316
8.57525
3.72469
0.635278
0.917265
1.36003
2.3732
7.78259
3.8392
0.832763
1.18694
1.64439
2.57171
7.55449
4.41798
1.37217
1.96605
2.58241
3.50405
8.19355
5.32252
0.979468
1.39176
1.86675
2.37337
3.04075
3.74256
1.20232
1.77003
2.40961
3.08232
3.70435
4.09121
1.51741
2.27862
3.12056
3.99768
4.65183
4.94922
1.81541
2.73786
3.76154
4.77621
5.49377
5.7682
1.99877
2.98514
4.06091
5.12567
5.90537
6.11686
2.04113
2.9964
4.02906
5.10928
6.02604
6.06115
1.97162
2.83377
3.78093
4.87441
6.03504
5.74144
1.82683
2.55954
3.37416
4.42549
5.96251
5.21956
1.60366
2.18811
2.83453
3.75775
5.42992
4.48625
1.30209
1.74144
2.23389
2.96742
4.49915
3.70095
1.06155
1.40805
1.81161
2.39199
3.59916
3.21873
1.18132
1.55614
1.97644
2.47371
3.32789
3.34961
1.90156
2.47989
3.00419
3.46724
3.94489
4.26612
3.12474
3.9121
4.48677
4.85781
5.06158
5.66784
6.86391
12.6914
3.08668
1.54597
0.899194
0.537826
5.88686
12.8358
2.91811
1.36
0.799083
0.495695
4.9781
13.2151
3.04946
1.47727
0.909562
0.59784
4.31758
13.599
3.44835
1.77663
1.14262
0.787218
3.79071
13.6782
3.91672
2.12869
1.40985
0.991691
3.3168
13.358
4.27703
2.45791
1.64062
1.14681
2.90225
12.6435
4.50651
2.74618
1.84542
1.27679
2.60978
11.6814
4.5994
2.97959
2.04453
1.39543
2.48488
10.615
4.60328
3.087
2.16845
1.48507
2.4997
9.69946
4.49071
3.05765
2.18446
1.51023
2.72707
9.01703
4.18473
2.86953
2.06778
1.44549
3.28755
8.68036
3.70696
2.54415
1.85536
1.29929
4.35612
8.93064
3.27857
2.19784
1.60482
1.12208
6.273
10.8559
3.20275
2.03041
1.46562
1.00666
5.36732
9.24794
3.87599
2.63304
1.81884
1.19
4.85941
9.26172
3.21692
1.9019
1.2565
0.82926
4.43803
9.784
3.08642
1.73224
1.16372
0.815668
4.21507
10.6032
3.41238
1.98853
1.39999
1.04009
4.07915
11.3023
4.03151
2.46071
1.78603
1.36113
3.96664
11.5745
4.71274
3.0085
2.19198
1.65741
3.84069
11.2795
5.3162
3.55867
2.597
1.94097
3.75342
10.5191
5.8054
4.10464
3.05436
2.25626
3.64029
9.83254
6.09982
4.52534
3.4558
2.56093
3.50557
9.31156
6.26833
4.7995
3.7605
2.80113
3.41464
8.8757
6.21944
4.86744
3.89965
2.91101
3.47579
8.33455
5.8304
4.68947
3.84688
2.84907
3.86965
7.97122
5.2972
4.28951
3.60072
2.64375
4.91106
8.43739
4.94787
4.0212
3.41693
2.5174
5.66017
5.22722
4.72628
4.30272
3.54884
2.65777
4.52909
4.45206
3.61113
3.01074
2.29493
1.62787
3.72999
4.09923
2.75619
2.17573
1.62696
1.19864
3.49436
4.39974
2.5961
2.05345
1.63521
1.30325
3.73851
5.10483
2.97847
2.4284
2.0311
1.69932
4.26667
5.7515
3.64197
3.00266
2.5406
2.13074
4.87419
6.0322
4.36377
3.61399
3.0788
2.57966
5.46679
6.03051
4.96013
4.22912
3.69254
3.09805
6.05198
5.96024
5.4162
4.84991
4.35125
3.68203
6.641
6.16378
5.94203
5.49791
5.03101
4.26118
7.17751
6.52833
6.53885
6.12258
5.6286
4.74954
7.50406
6.76534
6.91941
6.50137
5.98483
5.01835
7.28043
6.51953
6.76651
6.29745
5.94932
5.00268
6.73361
5.92031
6.06629
5.78579
5.66851
4.91916
7.37331
11.7873
2.14187
0.8923
0.442901
0.244558
6.31754
12.3931
2.41804
1.09026
0.60318
0.364493
5.34835
12.9172
2.78216
1.35149
0.817813
0.531599
4.5887
13.1469
3.2582
1.68753
1.06825
0.718643
3.98806
12.9652
3.75147
2.05202
1.32404
0.890107
3.42451
12.47
4.15825
2.39933
1.55983
1.03434
2.91062
11.6883
4.39436
2.69283
1.76562
1.15351
2.50653
10.7433
4.46223
2.90838
1.93092
1.2474
2.33341
9.71287
4.40313
2.9903
2.02396
1.30263
2.33649
8.81575
4.19966
2.86709
1.97467
1.27919
2.57013
8.21497
3.81755
2.59265
1.79957
1.17857
3.13736
8.09335
3.34944
2.26868
1.58506
1.04554
4.17679
8.5777
2.98249
1.95686
1.35474
0.890185
5.98826
11.1709
3.26183
1.97715
1.31712
0.832513
5.46542
7.78994
1.90816
0.950172
0.521931
0.315242
5.0423
8.71773
2.16875
1.11721
0.677543
0.432271
4.70892
9.82043
2.63197
1.46393
0.966469
0.662172
4.46878
10.6423
3.2677
1.93126
1.32817
0.950911
4.2938
10.9574
3.97253
2.46613
1.72828
1.24359
4.08373
10.8493
4.67836
3.02941
2.14124
1.52437
3.79705
10.4536
5.23378
3.56927
2.55241
1.79913
3.54288
9.79122
5.62536
4.05573
2.9552
2.07167
3.33718
9.12997
5.82668
4.44181
3.30239
2.32615
3.15992
8.63513
5.88511
4.58506
3.48113
2.46035
3.067
8.13922
5.70764
4.47861
3.45497
2.44398
3.17152
7.62649
5.25912
4.20324
3.29697
2.32486
3.62702
7.42769
4.82089
3.85128
3.06937
2.14743
4.69348
8.50918
4.84198
3.80467
3.01847
2.09351
3.6076
2.91776
1.66671
1.19653
0.764001
0.502327
3.27456
3.12281
1.51626
1.10311
0.763859
0.527047
3.26199
3.95944
1.85177
1.40932
1.05931
0.781029
3.53143
4.96796
2.44642
1.92547
1.4942
1.16079
4.00097
5.74673
3.14849
2.51234
1.99377
1.56942
4.53574
6.06954
3.87536
3.12267
2.52907
1.99167
5.05109
5.98618
4.5015
3.74414
3.11115
2.45102
5.52746
5.82096
4.96003
4.31932
3.71671
2.96625
6.00254
5.7941
5.31369
4.8444
4.28645
3.46796
6.47594
5.93208
5.70541
5.32867
4.78017
3.88733
6.86332
6.15113
6.07049
5.69003
5.11124
4.15906
7.01895
6.21786
6.20255
5.81747
5.24681
4.26763
6.79256
6.0074
6.0311
5.63887
5.18685
4.23799
6.44681
5.69455
5.65969
5.39724
5.13813
4.32864
5.06248
4.85622
4.74504
4.42827
3.95933
3.38624
2.8149
2.26405
1.79162
1.35539
0.946135
0.604944
0.532184
0.889445
2.97955
2.93022
2.88629
2.72236
2.43116
2.06529
1.69217
1.32832
1.02297
0.758655
0.507389
0.34574
0.44017
0.950502
1.69867
1.53713
1.39214
1.24161
1.06898
0.889452
0.718289
0.553788
0.423753
0.318263
0.218222
0.207062
0.4485
1.10605
1.33466
0.974209
0.679471
0.475126
0.343124
0.258063
0.198431
0.149912
0.116638
0.0930601
0.0784575
0.152037
0.481736
1.23487
1.65145
1.10894
0.644087
0.327926
0.151575
0.0694401
0.0355802
0.0218297
0.0181788
0.0186973
0.0345475
0.146263
0.5218
1.31511
2.11335
1.46643
0.843574
0.398334
0.1534
0.0472463
0.0115583
0.00279599
0.00168906
0.00427309
0.028824
0.156835
0.549702
1.33286
2.55623
1.78207
1.01446
0.463412
0.167073
0.0464854
0.00960156
0.00142299
0.000276338
0.00303624
0.0308847
0.16523
0.554233
1.29169
3.09958
2.19853
1.25594
0.561793
0.1932
0.0507576
0.0106984
0.00248716
0.00105786
0.00362243
0.0315637
0.159822
0.515932
1.17227
3.72398
2.65566
1.51594
0.669256
0.22674
0.0631372
0.0198422
0.0104712
0.00704549
0.00751308
0.0316458
0.142243
0.444532
1.00349
4.40345
3.10657
1.75625
0.770722
0.271919
0.0991807
0.057273
0.0460102
0.0363009
0.0291755
0.0413137
0.117667
0.337297
0.767687
5.00944
3.43679
1.90995
0.844761
0.340924
0.193807
0.170558
0.16198
0.140777
0.117197
0.10391
0.131275
0.249671
0.525882
5.42771
3.58536
1.9637
0.913512
0.479999
0.410134
0.436407
0.448008
0.420697
0.376479
0.319301
0.27642
0.275874
0.386758
5.51379
3.53772
1.94375
1.01318
0.73802
0.808085
0.92285
0.9888
0.990997
0.943575
0.836427
0.698214
0.557392
0.512124
5.61538
3.48771
1.94778
1.19639
1.14436
1.39491
1.62588
1.78848
1.88341
1.88523
1.76102
1.52387
1.22432
1.03123
4.17854
4.11006
4.0492
3.78418
3.37818
2.87922
2.38712
1.91873
1.519
1.15357
0.798293
0.501318
0.429678
0.67365
2.51465
2.45657
2.37879
2.20203
1.94181
1.63399
1.33162
1.0432
0.803591
0.601458
0.4014
0.269846
0.342263
0.724482
1.44282
1.25606
1.09139
0.939831
0.792332
0.650536
0.521727
0.401374
0.308396
0.235574
0.16314
0.15484
0.338911
0.842277
1.16492
0.802465
0.528358
0.349674
0.241478
0.176167
0.133386
0.099918
0.0780941
0.0644284
0.0559956
0.112399
0.362609
0.944163
1.46876
0.936901
0.521384
0.254674
0.111805
0.04756
0.0224101
0.0133665
0.0114983
0.0124232
0.0248693
0.108427
0.393124
1.01202
1.85605
1.21544
0.666146
0.303897
0.113923
0.0341989
0.00805331
0.00179702
0.00105882
0.00308025
0.0214181
0.11627
0.414121
1.03295
2.19706
1.4487
0.784086
0.343995
0.120571
0.0329178
0.00669824
0.000982574
0.000214132
0.00234766
0.0228125
0.121912
0.418985
1.01316
2.63308
1.76517
0.954958
0.40815
0.136096
0.0352213
0.00749536
0.00186833
0.000860427
0.00278449
0.0230527
0.117221
0.390036
0.925106
3.1319
2.11525
1.14291
0.481418
0.158065
0.0438796
0.0144794
0.00806403
0.00544511
0.00566013
0.0227933
0.103704
0.336232
0.795341
3.66191
2.46252
1.32345
0.555596
0.190889
0.0708366
0.0427432
0.0347557
0.0270664
0.0214862
0.0295264
0.084721
0.252782
0.60356
4.0993
2.71615
1.44733
0.615877
0.245124
0.14329
0.128087
0.120706
0.102995
0.0848984
0.0743008
0.0935943
0.183853
0.405267
4.38934
2.84483
1.50968
0.680304
0.35737
0.311711
0.331267
0.334793
0.307575
0.272215
0.229206
0.198518
0.200228
0.285484
4.39845
2.81703
1.51783
0.773332
0.569179
0.63102
0.715828
0.752695
0.735474
0.68867
0.603795
0.504997
0.405906
0.369999
4.4237
2.78393
1.54707
0.939825
0.91441
1.12409
1.298
1.39829
1.42873
1.39276
1.27277
1.09351
0.873716
0.721579
2.39507
2.41079
2.42106
2.31195
2.09436
1.8057
1.50079
1.2083
0.947379
0.720672
0.491655
0.29784
0.21877
0.316709
1.29073
1.24102
1.19145
1.11513
1.00155
0.859368
0.708948
0.563557
0.437605
0.335134
0.224568
0.137865
0.142721
0.321922
0.731376
0.576504
0.469704
0.396238
0.33901
0.285839
0.234579
0.185908
0.146549
0.116833
0.0808395
0.0638055
0.129679
0.380142
0.72278
0.441231
0.257276
0.15099
0.0956497
0.0673623
0.0512667
0.0396759
0.0323863
0.028516
0.0233317
0.0395455
0.141738
0.441847
1.00411
0.593732
0.306993
0.138271
0.0547723
0.0201728
0.00814052
0.00486758
0.00447415
0.0049403
0.00840909
0.0381401
0.16119
0.489622
1.26231
0.753773
0.382021
0.163366
0.0578038
0.0164336
0.00364299
0.000737788
0.000396831
0.000996442
0.00697254
0.0430731
0.177334
0.514193
1.48282
0.886867
0.437629
0.17723
0.0582119
0.0151109
0.00295774
0.000418352
7.35083e-05
0.000696457
0.00776086
0.0471826
0.185593
0.517348
1.75973
1.05747
0.51279
0.199223
0.0615829
0.0150609
0.00306868
0.000726149
0.000305251
0.000863395
0.00815426
0.046806
0.176435
0.477133
2.05871
1.23648
0.59156
0.223405
0.0673114
0.0177584
0.0058223
0.00318613
0.00204255
0.00188333
0.00822734
0.0424614
0.154892
0.412836
2.34875
1.3974
0.660465
0.246902
0.078556
0.0293297
0.0182976
0.0144982
0.0107062
0.00776379
0.0104468
0.0345239
0.117334
0.312765
2.55419
1.49362
0.69793
0.265894
0.103342
0.0649409
0.0588515
0.0534428
0.0432245
0.0331984
0.0269732
0.0355201
0.0822595
0.206133
2.6407
1.51579
0.709432
0.294231
0.163919
0.154571
0.162844
0.158511
0.138473
0.115936
0.0912665
0.0752097
0.0796798
0.131208
2.55975
1.46342
0.705883
0.350092
0.290026
0.338288
0.377796
0.384804
0.360163
0.323305
0.269286
0.213975
0.166729
0.154924
2.48186
1.4174
0.729579
0.465085
0.513912
0.648515
0.738724
0.776497
0.768996
0.725977
0.638654
0.526297
0.40722
0.32649
0.96614
0.972657
1.00737
0.991752
0.922288
0.809282
0.677731
0.543441
0.419849
0.316181
0.212161
0.122913
0.0784058
0.0985713
0.431303
0.393568
0.382908
0.370164
0.345067
0.304297
0.255485
0.205153
0.160263
0.12508
0.0842542
0.0477102
0.0378695
0.0872546
0.26984
0.179678
0.132655
0.108027
0.0933886
0.0802751
0.0672882
0.0543385
0.0439267
0.0369934
0.0259094
0.0173033
0.0302486
0.108505
0.353317
0.190054
0.0958294
0.0474383
0.0253809
0.0158291
0.0114385
0.00908752
0.00835016
0.00797936
0.00628491
0.00850091
0.0337662
0.133059
0.5235
0.281682
0.132469
0.0540962
0.0190262
0.00584268
0.00189776
0.00105484
0.00105976
0.00123817
0.00171786
0.0077878
0.0404755
0.15414
0.659215
0.352534
0.161472
0.0629908
0.0204754
0.00537447
0.00109694
0.000194992
9.14363e-05
0.000183202
0.00118972
0.00904841
0.046532
0.168747
0.780287
0.408466
0.178757
0.0651006
0.0195038
0.00467588
0.000855334
0.000114379
1.621e-05
9.25993e-05
0.00132697
0.0102206
0.0501977
0.174106
0.918665
0.473485
0.199745
0.0687315
0.0191736
0.00429404
0.000808211
0.000176485
6.69381e-05
0.00012169
0.00142543
0.0103342
0.0483072
0.161078
1.05531
0.535481
0.219396
0.0723592
0.0194845
0.00471269
0.00147316
0.000777483
0.000472977
0.000341324
0.00147545
0.00951365
0.042673
0.138388
1.17269
0.583439
0.233589
0.0756218
0.02168
0.00788568
0.00496345
0.00379545
0.00265713
0.00170387
0.00199975
0.00764314
0.0318592
0.102206
1.23844
0.600605
0.236042
0.0783573
0.0293114
0.0194448
0.0176414
0.0153193
0.0117186
0.00820507
0.00600559
0.00769541
0.0212043
0.0644809
1.23626
0.58776
0.231983
0.0874234
0.0522387
0.0523547
0.05432
0.0505623
0.0417663
0.0323703
0.023604
0.0180259
0.0194686
0.0378443
1.16695
0.553006
0.228668
0.113128
0.106885
0.128855
0.14128
0.138563
0.123078
0.103889
0.0811139
0.0607433
0.0452909
0.04232
1.10882
0.531998
0.245893
0.174532
0.217315
0.277822
0.31267
0.319808
0.3039
0.274137
0.228944
0.180008
0.133496
0.102297
0.27208
0.28117
0.317103
0.330183
0.318008
0.284947
0.241415
0.19352
0.149921
0.114035
0.0755346
0.0409367
0.021644
0.0231049
0.105676
0.0880337
0.0893068
0.0917483
0.0903179
0.0829626
0.0719833
0.059044
0.0472952
0.0378108
0.0254179
0.0133093
0.00773159
0.0162848
0.0882759
0.0470259
0.029189
0.021993
0.0191529
0.0170842
0.0149478
0.0125536
0.0108878
0.0094567
0.00658683
0.00370764
0.00480561
0.0214943
0.148107
0.0697488
0.0302216
0.0124063
0.00535882
0.00282329
0.00199355
0.00179859
0.0017821
0.00175407
0.00131946
0.00126779
0.0054122
0.0289696
0.233829
0.112723
0.0474111
0.017273
0.00536814
0.00142812
0.000383929
0.000191502
0.000198048
0.000231974
0.000248633
0.00100884
0.00701772
0.0361605
0.296545
0.141208
0.0579098
0.020308
0.00595751
0.00141706
0.00026282
4.1171e-05
1.59339e-05
2.37881e-05
0.000120004
0.00122923
0.00861943
0.0417495
0.353881
0.162325
0.0630961
0.020666
0.00561432
0.00122717
0.000205944
2.52077e-05
2.80499e-06
5.94135e-06
0.000128423
0.00142055
0.00946883
0.0435184
0.414031
0.183591
0.0678858
0.0208319
0.00524717
0.00106264
0.000175697
3.04608e-05
9.29149e-06
8.50308e-06
0.000136309
0.00143034
0.00902852
0.0394881
0.467
0.199771
0.0706062
0.0205003
0.00490407
0.00102882
0.000265938
0.000123929
7.16376e-05
4.02772e-05
0.000138701
0.00127026
0.00768671
0.0324752
0.505163
0.20811
0.070711
0.0198026
0.00490907
0.00154571
0.000916057
0.000683907
0.000463788
0.00027085
0.000227078
0.000965076
0.00537589
0.0223176
0.514485
0.203045
0.0665683
0.0188289
0.00622869
0.00407265
0.00375046
0.00321461
0.00238695
0.00154858
0.000962049
0.00100719
0.00321405
0.0126232
0.491055
0.187036
0.060834
0.0200164
0.0120543
0.0127973
0.0135248
0.0124303
0.00998143
0.00717807
0.00475658
0.00315859
0.00297328
0.0065464
0.436726
0.164315
0.0567208
0.0276678
0.0292301
0.0371088
0.0413333
0.0400991
0.0346024
0.0273497
0.0198265
0.0135612
0.00898668
0.00774322
0.396653
0.152988
0.0635147
0.0514079
0.0710992
0.0941756
0.10784
0.10967
0.101379
0.0869663
0.0683057
0.0499127
0.0337622
0.0234172
0.0516097
0.0558131
0.0709087
0.0795114
0.0804827
0.0745225
0.0648074
0.0538489
0.0434838
0.0334549
0.0217324
0.0110659
0.0047397
0.00407596
0.0207264
0.0140752
0.014085
0.0152321
0.0160868
0.0158358
0.0146974
0.0131265
0.0113068
0.00921621
0.00608229
0.00299585
0.00129041
0.00230343
0.0266884
0.0113364
0.00523776
0.00308515
0.00252011
0.00239037
0.00236366
0.00233815
0.00219995
0.00193493
0.00131576
0.000657316
0.000599057
0.00325768
0.0546542
0.0224809
0.00839912
0.00284869
0.000929082
0.000379313
0.000282698
0.000293589
0.000312358
0.000305715
0.00022109
0.000157139
0.00067171
0.00489981
0.0908763
0.0388278
0.0144088
0.00462891
0.00127051
0.000296804
6.78125e-05
3.02485e-05
3.11944e-05
3.49901e-05
3.11267e-05
9.84054e-05
0.000935029
0.00660914
0.11545
0.0483065
0.0175493
0.00548419
0.00144614
0.000313742
5.41893e-05
7.92439e-06
2.50627e-06
2.82349e-06
8.30107e-06
0.000117911
0.00119944
0.00800114
0.137571
0.0547629
0.0187701
0.00549419
0.00135173
0.000272304
4.31821e-05
5.15887e-06
5.2905e-07
2.38649e-07
6.59702e-06
0.000128712
0.00129525
0.00835694
0.158033
0.059409
0.0190839
0.0051996
0.00118364
0.000220157
3.34742e-05
4.99998e-06
1.27667e-06
5.2366e-07
5.74765e-06
0.000115697
0.00114492
0.00718253
0.173811
0.0612802
0.01835
0.00463936
0.000984684
0.000182742
4.06047e-05
1.74561e-05
1.01054e-05
5.11514e-06
5.99773e-06
8.93354e-05
0.000871382
0.00536563
0.182019
0.0602676
0.0168702
0.00398735
0.000846802
0.00023733
0.000140313
0.000107643
7.37727e-05
4.16618e-05
2.12939e-05
6.26391e-05
0.000537053
0.00325037
0.177634
0.055184
0.014514
0.0033646
0.000994231
0.000689823
0.000672164
0.000588791
0.000436055
0.000271267
0.000141591
9.33524e-05
0.000283746
0.00156603
0.159713
0.0472476
0.0121415
0.00339717
0.00222522
0.00261827
0.00287541
0.00267262
0.00211863
0.0014431
0.000843266
0.000467051
0.000316988
0.000675523
0.12933
0.0376272
0.0105081
0.00531603
0.00670699
0.00911658
0.0104456
0.010187
0.00862016
0.00638486
0.00417032
0.00251752
0.00140794
0.000978644
0.109531
0.0331603
0.0125802
0.0125819
0.0198554
0.0276146
0.0324426
0.0330939
0.0298634
0.0240163
0.0172959
0.0113823
0.00676916
0.00406516
0.00759676
0.00873493
0.0126718
0.014979
0.0152229
0.0135772
0.0115276
0.00992224
0.00843731
0.0068594
0.00465252
0.00237012
0.000900079
0.000528155
0.0032235
0.00179078
0.00175582
0.00192008
0.00199922
0.00188533
0.00183386
0.0018047
0.00173236
0.0015533
0.00109584
0.000549274
0.000196552
0.000221936
0.0059925
0.00215676
0.000787377
0.000338689
0.000207916
0.000190112
0.000215259
0.000249731
0.000275913
0.000274824
0.000202263
0.00010087
5.72299e-05
0.000319283
0.0151787
0.00546308
0.00177238
0.000510975
0.000131764
3.66595e-05
2.14731e-05
2.56952e-05
3.31619e-05
3.72474e-05
2.9112e-05
1.67625e-05
5.11851e-05
0.000524615
0.0257388
0.00950211
0.00306011
0.000852392
0.000201883
3.9924e-05
7.08329e-06
2.49195e-06
2.91662e-06
3.71834e-06
3.25575e-06
5.90271e-06
7.25028e-05
0.000750665
0.0331716
0.0117547
0.00364304
0.000974907
0.000220482
4.09814e-05
6.0504e-06
7.41227e-07
2.1477e-07
2.60191e-07
4.26454e-07
6.2453e-06
9.61636e-05
0.000942976
0.0397945
0.0130657
0.00374497
0.000925579
0.000193353
3.32127e-05
4.51823e-06
4.66672e-07
4.14278e-08
1.47242e-08
2.10455e-07
6.97322e-06
0.000107554
0.00100819
0.0462621
0.0140045
0.0036764
0.000828714
0.000157471
2.46338e-05
3.15338e-06
3.8524e-07
7.87773e-08
2.6951e-08
1.62797e-07
6.35917e-06
9.80257e-05
0.000881349
0.0514295
0.0143903
0.00345727
0.00070842
0.000122635
1.85518e-05
3.39462e-06
1.30382e-06
6.93252e-07
3.19573e-07
2.03012e-07
4.6868e-06
7.43096e-05
0.000656905
0.0537293
0.0140468
0.00312309
0.000587993
9.89513e-05
2.30159e-05
1.30542e-05
9.58304e-06
6.08464e-06
3.15366e-06
1.37764e-06
3.0183e-06
4.27995e-05
0.000375488
0.0511823
0.0125241
0.00259775
0.000470043
0.000112368
7.80809e-05
7.6387e-05
6.38357e-05
4.39977e-05
2.53815e-05
1.22778e-05
6.26653e-06
1.92423e-05
0.000158471
0.0437846
0.0102099
0.00205464
0.000447638
0.000288283
0.000364
0.000399363
0.000355552
0.000264677
0.000169368
9.2465e-05
4.63927e-05
2.53812e-05
5.57669e-05
0.0326663
0.0074564
0.00162479
0.000741885
0.00106699
0.00154678
0.00177695
0.00167459
0.00134675
0.000949285
0.000581501
0.000325766
0.000163268
9.36756e-05
0.0258324
0.00617871
0.00196282
0.00213491
0.00385149
0.00571228
0.00678244
0.00676512
0.00588766
0.00454255
0.00309941
0.00190971
0.0010316
0.000545852
0.00149949
0.00125098
0.00094343
0.000576824
0.000259444
8.34672e-05
4.10792e-05
0.000199273
0.00018768
0.000156649
0.000100962
4.52576e-05
1.37966e-05
1.55213e-05
2.01073e-05
2.20251e-05
2.06948e-05
1.41401e-05
6.3986e-06
3.18341e-06
2.60242e-05
1.55393e-06
1.99872e-06
2.14461e-06
1.58461e-06
8.11022e-07
2.90619e-06
4.62539e-05
1.2772e-07
1.379e-07
1.69398e-07
1.3984e-07
2.02298e-07
4.04121e-06
6.65625e-05
4.44342e-08
9.30314e-09
9.87512e-09
1.05497e-08
1.60182e-07
4.78561e-06
7.88238e-05
3.02694e-08
2.32887e-09
5.62345e-10
1.14453e-09
1.24855e-07
4.36566e-06
7.4171e-05
2.39404e-08
4.24677e-09
1.48266e-09
7.42746e-10
6.73145e-08
2.87027e-06
5.12651e-05
0.0130971
0.00298539
0.000585184
9.78447e-05
1.38137e-05
1.67733e-06
2.32247e-07
7.70114e-08
4.26993e-08
2.09151e-08
8.36472e-09
3.27107e-08
1.49774e-06
2.822e-05
0.0136406
0.00289185
0.000522653
8.00012e-05
1.07283e-05
1.8461e-06
9.09369e-07
6.89317e-07
4.63993e-07
2.52009e-07
1.10802e-07
5.39113e-08
6.73006e-07
1.27178e-05
0.012823
0.00253631
0.000426429
6.21495e-05
1.13996e-05
6.79899e-06
6.70298e-06
5.85184e-06
4.23618e-06
2.51949e-06
1.22872e-06
5.27263e-07
4.23975e-07
4.45141e-06
0.0106193
0.00201116
0.000329295
5.8822e-05
3.33837e-05
4.0618e-05
4.53187e-05
4.20258e-05
3.24935e-05
2.10662e-05
1.13703e-05
5.4001e-06
2.32781e-06
2.20417e-06
0.00746853
0.00141509
0.0002605
0.000116188
0.000160134
0.000224353
0.000262053
0.000256123
0.000211253
0.000148193
8.80395e-05
4.59795e-05
2.11087e-05
1.03689e-05
0.00549842
0.00114335
0.000367959
0.000437657
0.000743383
0.00107243
0.00129598
0.00133137
0.00117173
0.000885237
0.000575383
0.000327238
0.000161851
7.75775e-05
7.24085
8.23655
9.03705
9.41145
9.42062
8.49038
6.57111
7.67731
8.67229
9.36515
9.72199
9.20693
6.2665
7.3032
8.16252
8.79279
9.14145
8.7001
5.72832
6.62632
7.27162
7.71264
7.95676
7.69874
5.05453
5.80458
6.26297
6.5644
6.78078
6.69586
4.32384
4.9473
5.31027
5.58054
5.84164
5.86505
3.64299
4.17947
4.50775
4.80465
5.15236
5.20125
3.00305