/*--------------------------------*- C++ -*----------------------------------*\
| =========                 |                                                 |
| \\      /  F ield         | OpenFOAM: The Open Source CFD Toolbox           |
|  \\    /   O peration     | Version:  v2106                                 |
|   \\  /    A nd           | Website:  www.openfoam.com                      |
|    \\/     M anipulation  |                                                 |
\*---------------------------------------------------------------------------*/
FoamFile
{
    version     2.0;
    format      ascii;
    arch        "LSB;label=32;scalar=64";
    class       volScalarField;
    location    "0.000199";
    object      nut;
}
// * * * * * * * * * * * * * * * * * * * * * * * * * * * * * * * * * * * * * //

dimensions      [0 2 -1 0 0 0 0];

internalField   nonuniform List<scalar> 
18109
(
5.67455e-07
4.17231e-07
2.96905e-07
2.15206e-07
1.6634e-07
1.44522e-07
1.49104e-07
2.6419e-07
1.92792e-07
1.3412e-07
9.42973e-08
7.06318e-08
5.96012e-08
6.038e-08
1.17437e-07
8.18231e-08
5.51482e-08
3.76636e-08
2.75416e-08
2.2815e-08
2.30592e-08
5.11873e-08
3.22147e-08
2.06626e-08
1.36687e-08
9.80391e-09
8.057e-09
8.2995e-09
2.31639e-08
1.21386e-08
7.12499e-09
4.51609e-09
3.18141e-09
2.62673e-09
2.8609e-09
1.24516e-08
4.85669e-09
2.36009e-09
1.37546e-09
9.454e-10
8.02134e-10
9.9034e-10
9.39818e-09
2.61869e-09
8.75609e-10
4.0716e-10
2.62717e-10
2.40889e-10
3.80334e-10
9.90619e-09
2.24819e-09
4.99447e-10
1.45157e-10
7.85616e-11
8.69741e-11
1.93169e-10
5.02543e-07
3.71192e-07
2.63159e-07
1.87472e-07
1.39447e-07
1.14097e-07
1.09674e-07
1.30019e-07
1.88847e-07
3.11225e-07
5.29879e-07
8.77784e-07
1.38916e-06
2.11378e-06
2.30263e-07
1.6901e-07
1.17056e-07
8.0804e-08
5.81367e-08
4.61237e-08
4.35797e-08
5.22253e-08
7.95173e-08
1.41001e-07
2.61547e-07
4.75128e-07
8.18953e-07
1.34785e-06
9.96651e-08
7.04779e-08
4.73772e-08
3.17217e-08
2.22178e-08
1.72504e-08
1.62814e-08
2.02392e-08
3.33711e-08
6.53785e-08
1.34204e-07
2.69144e-07
5.08882e-07
9.12566e-07
4.15643e-08
2.70879e-08
1.74413e-08
1.13059e-08
7.74372e-09
5.9444e-09
5.74079e-09
7.7463e-09
1.4539e-08
3.23993e-08
7.41812e-08
1.63159e-07
3.34743e-07
6.44761e-07
1.76644e-08
9.84394e-09
5.88374e-09
3.66365e-09
2.45904e-09
1.89235e-09
1.95463e-09
3.08769e-09
6.93033e-09
1.76518e-08
4.43883e-08
1.04867e-07
2.28827e-07
4.6501e-07
8.92463e-09
3.72358e-09
1.88538e-09
1.09096e-09
7.14844e-10
5.66626e-10
6.81204e-10
1.37543e-09
3.72082e-09
1.05283e-08
2.82755e-08
7.02444e-08
1.60529e-07
3.40673e-07
6.62563e-09
1.88656e-09
6.5953e-10
3.12219e-10
1.941e-10
1.68768e-10
2.70581e-10
7.24039e-10
2.25458e-09
6.8184e-09
1.91173e-08
4.92715e-08
1.16927e-07
2.5785e-07
7.14293e-09
1.58386e-09
3.50749e-10
1.05017e-10
5.70808e-11
6.24803e-11
1.438e-10
4.6585e-10
1.55629e-09
4.8734e-09
1.40483e-08
3.72179e-08
9.10608e-08
2.07325e-07
9.21434e-09
1.84273e-09
3.32778e-10
8.03031e-11
5.14364e-11
6.82719e-11
1.44443e-10
4.20727e-10
1.34482e-09
4.16861e-09
1.20618e-08
3.22856e-08
8.01942e-08
1.85787e-07
1.26859e-08
2.46979e-09
4.88008e-10
1.96594e-10
1.93464e-10
2.45942e-10
3.65974e-10
7.12179e-10
1.77334e-09
4.88762e-09
1.33747e-08
3.48063e-08
8.52061e-08
1.95793e-07
1.82557e-08
3.86302e-09
1.09255e-09
7.24667e-10
8.1652e-10
1.02759e-09
1.37183e-09
2.08589e-09
3.86399e-09
8.54071e-09
2.043e-08
4.90067e-08
1.13706e-07
2.50746e-07
2.86874e-08
7.71546e-09
3.22692e-09
2.61365e-09
3.00417e-09
3.79404e-09
4.98149e-09
6.99322e-09
1.09769e-08
1.98916e-08
4.03408e-08
8.60141e-08
1.83477e-07
3.77587e-07
5.09311e-08
1.86215e-08
9.84875e-09
8.38793e-09
9.53616e-09
1.208e-08
1.59313e-08
2.19182e-08
3.20309e-08
5.12799e-08
9.02886e-08
1.69712e-07
3.26866e-07
6.15242e-07
1.0206e-07
4.76719e-08
2.79053e-08
2.3774e-08
2.64634e-08
3.34849e-08
4.44926e-08
6.10512e-08
8.64202e-08
1.28464e-07
2.02373e-07
3.3615e-07
5.78643e-07
9.90312e-07
1.15066e-06
1.85607e-06
2.93513e-06
4.56392e-06
7.06321e-06
1.09642e-05
1.03106e-06
1.69193e-06
2.7302e-06
4.33207e-06
6.80531e-06
1.06069e-05
7.48811e-07
1.32797e-06
2.27651e-06
3.79255e-06
6.22051e-06
1.02074e-05
5.4257e-07
1.03674e-06
1.89162e-06
3.32663e-06
5.74525e-06
9.99058e-06
4.00097e-07
8.20303e-07
1.59662e-06
2.99004e-06
5.49824e-06
1.01654e-05
3.09715e-07
6.79117e-07
1.41234e-06
2.82796e-06
5.54853e-06
1.08589e-05
2.63463e-07
6.14244e-07
1.36274e-06
2.9143e-06
6.07947e-06
1.25077e-05
2.61108e-07
6.36363e-07
1.48037e-06
3.31327e-06
7.19548e-06
1.5253e-05
3.10982e-07
7.67039e-07
1.80404e-06
4.06115e-06
8.85182e-06
1.86951e-05
4.37066e-07
1.04378e-06
2.3741e-06
5.17928e-06
1.09487e-05
2.24358e-05
6.75738e-07
1.50172e-06
3.19082e-06
6.55778e-06
1.31311e-05
2.54398e-05
1.06166e-06
2.14709e-06
4.20268e-06
8.05543e-06
1.51538e-05
2.73984e-05
1.61839e-06
2.97024e-06
5.3516e-06
9.53949e-06
1.67495e-05
2.81367e-05
2.38502e-06
3.9837e-06
6.60072e-06
1.0901e-05
1.78057e-05
2.78587e-05
3.42747e-06
5.25021e-06
8.03281e-06
1.22641e-05
1.84697e-05
2.67066e-05
2.48364e-06
4.24169e-06
6.97655e-06
1.10695e-05
1.68097e-05
2.41099e-05
1.96647e-06
3.47865e-06
5.82319e-06
9.3051e-06
1.43041e-05
2.10919e-05
1.5583e-06
2.80063e-06
4.78962e-06
7.82082e-06
1.23819e-05
1.90419e-05
1.19913e-06
2.20582e-06
3.88575e-06
6.57243e-06
1.07929e-05
1.7346e-05
9.07972e-07
1.73385e-06
3.17393e-06
5.58798e-06
9.59133e-06
1.64484e-05
6.89366e-07
1.37361e-06
2.62385e-06
4.81822e-06
8.64054e-06
1.57181e-05
5.38005e-07
1.11588e-06
2.2202e-06
4.24771e-06
7.98192e-06
1.53469e-05
4.43263e-07
9.48808e-07
1.95229e-06
3.87142e-06
7.58117e-06
1.54589e-05
4.01405e-07
8.72937e-07
1.83241e-06
3.72692e-06
7.53616e-06
1.61722e-05
4.17338e-07
9.00605e-07
1.88209e-06
3.83244e-06
7.7863e-06
1.70171e-05
5.10397e-07
1.05637e-06
2.12273e-06
4.17955e-06
8.2707e-06
1.77036e-05
7.11044e-07
1.3636e-06
2.55379e-06
4.71961e-06
8.85247e-06
1.78468e-05
1.05075e-06
1.83585e-06
3.15501e-06
5.3899e-06
9.42962e-06
1.75437e-05
1.53705e-06
2.44349e-06
3.85579e-06
6.09302e-06
9.87896e-06
1.67313e-05
1.36884e-06
2.01397e-06
3.15456e-06
5.10661e-06
8.45466e-06
1.43033e-05
1.00214e-06
1.61474e-06
2.67663e-06
4.48325e-06
7.52382e-06
1.27407e-05
7.00358e-07
1.27799e-06
2.26003e-06
3.88955e-06
6.60625e-06
1.13035e-05
4.94745e-07
9.97349e-07
1.84142e-06
3.23801e-06
5.62227e-06
9.92712e-06
3.51441e-07
7.53155e-07
1.43703e-06
2.61123e-06
4.71321e-06
8.67257e-06
2.48772e-07
5.505e-07
1.08478e-06
2.05446e-06
3.88114e-06
7.47357e-06
1.75574e-07
3.9473e-07
8.04991e-07
1.59808e-06
3.17725e-06
6.43717e-06
1.23636e-07
2.80853e-07
5.94774e-07
1.24246e-06
2.60383e-06
5.56044e-06
8.88799e-08
2.04417e-07
4.50947e-07
9.92758e-07
2.19308e-06
4.94489e-06
6.88404e-08
1.61837e-07
3.71501e-07
8.54313e-07
1.9673e-06
4.62654e-06
6.49876e-08
1.56241e-07
3.64344e-07
8.48456e-07
1.97244e-06
4.66892e-06
8.34909e-08
2.00113e-07
4.53314e-07
1.01745e-06
2.25468e-06
5.03963e-06
1.32798e-07
3.09346e-07
6.73008e-07
1.40246e-06
2.81042e-06
5.61086e-06
1.94139e-07
4.27552e-07
9.12313e-07
1.79453e-06
3.28381e-06
5.97588e-06
9.43626e-08
2.82956e-07
8.13395e-07
2.10875e-06
5.00659e-06
1.09778e-05
1.73688e-07
4.55329e-07
1.16542e-06
2.71486e-06
5.79898e-06
1.1433e-05
3.29898e-07
7.40308e-07
1.64043e-06
3.38646e-06
6.4891e-06
1.15623e-05
6.29893e-07
1.19933e-06
2.24623e-06
4.04536e-06
6.98215e-06
1.14581e-05
2.288e-07
5.33472e-07
1.12474e-06
2.11811e-06
3.68573e-06
6.38356e-06
1.59971e-07
4.46599e-07
1.00656e-06
1.93659e-06
3.45587e-06
6.22289e-06
1.11836e-07
3.48926e-07
8.22888e-07
1.62519e-06
3.02394e-06
5.76473e-06
7.90764e-08
2.56641e-07
6.29408e-07
1.28928e-06
2.54323e-06
5.2129e-06
5.60178e-08
1.81639e-07
4.60035e-07
9.88544e-07
2.09823e-06
4.69079e-06
3.97105e-08
1.28749e-07
3.32069e-07
7.57404e-07
1.75606e-06
4.33396e-06
2.91009e-08
9.47938e-08
2.55269e-07
6.35545e-07
1.63822e-06
4.49034e-06
2.40225e-08
7.89717e-08
2.28426e-07
6.32335e-07
1.77673e-06
5.0713e-06
2.54061e-08
8.38549e-08
2.6032e-07
7.68952e-07
2.19716e-06
6.04897e-06
3.68151e-08
1.17195e-07
3.67904e-07
1.07014e-06
2.9024e-06
7.35147e-06
6.70592e-08
1.96084e-07
5.76676e-07
1.54685e-06
3.81506e-06
8.68599e-06
1.34055e-07
3.48179e-07
9.12443e-07
2.18905e-06
4.82032e-06
9.79186e-06
2.72307e-07
6.15066e-07
1.39496e-06
2.95298e-06
5.79619e-06
1.05658e-05
5.4423e-07
1.05159e-06
2.01628e-06
3.71978e-06
6.55785e-06
1.09352e-05
1.59609e-05
4.75585e-05
0.000101315
0.000112917
9.75339e-05
1.66007e-05
4.82549e-05
0.000104595
0.000113662
9.64993e-05
1.74449e-05
5.00373e-05
0.000113514
0.000115227
9.61652e-05
1.85992e-05
5.3514e-05
0.000125141
0.000116812
9.67543e-05
2.08734e-05
5.88282e-05
0.000134713
0.000117331
9.63877e-05
2.50469e-05
6.71688e-05
0.000138234
0.000114648
9.43017e-05
3.08903e-05
7.86726e-05
0.000135324
0.000110173
9.27313e-05
3.70015e-05
8.81304e-05
0.000130101
0.000107782
9.3451e-05
8.85587e-05
4.24667e-05
9.35038e-05
0.000125361
0.00010637
9.40044e-05
9.06493e-05
4.52732e-05
9.28747e-05
0.000121127
0.000104828
9.4005e-05
9.34541e-05
4.53877e-05
8.83447e-05
0.000118382
0.000104432
9.46494e-05
9.66826e-05
0.000100801
4.34803e-05
8.13335e-05
0.000116992
0.000106292
9.64893e-05
9.76393e-05
0.000115548
0.000119284
4.00338e-05
7.28088e-05
0.000115751
0.000110311
9.92986e-05
9.67346e-05
0.000116829
0.000222912
3.60838e-05
6.53868e-05
0.000114749
0.000116897
0.000103485
9.56042e-05
9.66455e-05
0.000209718
3.24626e-05
6.17107e-05
0.000115757
0.000123539
0.000108061
9.59849e-05
9.14385e-05
0.000183019
2.97269e-05
6.08398e-05
0.000120486
0.000128415
0.00010995
9.70158e-05
9.14326e-05
0.000170101
2.94434e-05
6.12892e-05
0.000132195
0.000133015
0.00011166
9.91916e-05
9.29012e-05
0.0001011
2.96632e-05
6.52428e-05
0.000149438
0.000138047
0.00011525
0.000102227
9.29154e-05
0.00014638
2.98044e-05
7.30399e-05
0.000167198
0.000141679
0.000116089
0.000102024
8.93938e-05
0.000152229
3.01144e-05
8.37088e-05
0.000175064
0.000139939
0.000112591
9.98223e-05
8.60796e-05
0.000126121
3.14257e-05
9.60243e-05
0.000172574
0.000135398
0.000109301
9.96115e-05
8.84228e-05
6.10601e-05
3.4464e-05
0.000107663
0.000167766
0.000134173
0.000109973
0.000101771
9.49734e-05
7.80552e-05
3.83911e-05
0.000115213
0.000162756
0.000133179
0.000109327
0.000101285
4.07472e-05
0.000114786
0.00015511
0.000130047
0.000107089
9.99411e-05
4.01912e-05
0.00010614
0.000143137
0.000126848
0.000106434
9.99356e-05
3.78496e-05
9.34224e-05
0.000128978
0.000126074
0.000107803
9.92943e-05
3.5098e-05
8.01523e-05
0.000113147
0.000125009
0.000110261
9.88276e-05
3.22319e-05
6.89116e-05
0.000101032
0.00012537
0.000114547
2.94926e-05
5.99281e-05
9.32311e-05
0.000129066
0.000120353
2.7146e-05
5.27782e-05
8.89822e-05
0.000134577
0.000123267
2.49726e-05
4.72345e-05
8.97702e-05
0.000142898
0.000125546
2.27201e-05
4.32948e-05
9.76114e-05
0.000156421
0.000131319
2.05541e-05
4.10302e-05
0.000113456
0.000172071
0.000133814
1.85224e-05
3.99829e-05
0.000133995
0.000180572
0.000130095
1.67251e-05
4.02714e-05
0.000153976
0.000180893
0.000125251
1.52549e-05
4.27992e-05
0.000168334
0.000179236
0.000123995
1.43312e-05
4.70668e-05
0.000172621
0.000174384
0.000121488
1.39964e-05
5.07273e-05
0.000160955
0.00016308
0.000118044
1.429e-05
5.22671e-05
0.000138545
0.000148288
0.000116151
1.51886e-05
5.13251e-05
0.000114915
0.000133529
0.00011483
1.63411e-05
4.87257e-05
9.60814e-05
0.000120425
0.00011167
1.71861e-05
4.53991e-05
8.39156e-05
0.000113498
0.000109909
1.74451e-05
4.19235e-05
7.66889e-05
0.000112059
0.000109453
1.70133e-05
3.88749e-05
7.35571e-05
0.000113554
0.000106633
1.61569e-05
3.66248e-05
7.56883e-05
0.000118896
0.000104457
1.5225e-05
3.5623e-05
8.48518e-05
0.000128141
0.000104351
1.4337e-05
3.56996e-05
0.000100155
0.000136376
0.000101698
1.36052e-05
3.6502e-05
0.000118327
0.000137952
9.63115e-05
1.33389e-05
3.81695e-05
0.000135517
0.000134155
9.20172e-05
1.38507e-05
4.2457e-05
0.000144397
0.000129624
9.05618e-05
1.52865e-05
4.89154e-05
0.000144138
0.000124561
8.94912e-05
1.69119e-05
5.24048e-05
0.000137626
0.000118558
8.9218e-05
1.78341e-05
5.15561e-05
0.000129655
0.00011479
9.01534e-05
1.77637e-05
4.79137e-05
0.000120473
0.000112698
9.19856e-05
1.7125e-05
4.51763e-05
0.000110688
0.000111141
9.42802e-05
1.63632e-05
4.62543e-05
0.000103212
0.000111464
9.64627e-05
4.4005e-07
3.26075e-07
2.31595e-07
1.64009e-07
1.19796e-07
9.47112e-08
8.6935e-08
9.85518e-08
1.40135e-07
2.329e-07
4.08889e-07
7.05604e-07
1.15802e-06
1.81084e-06
1.9762e-07
1.45056e-07
1.00616e-07
6.90586e-08
4.88035e-08
3.74027e-08
3.38257e-08
3.88972e-08
5.83439e-08
1.04999e-07
2.0149e-07
3.81418e-07
6.8317e-07
1.16212e-06
8.31662e-08
5.89532e-08
3.97542e-08
2.64704e-08
1.8205e-08
1.3638e-08
1.23427e-08
1.48212e-08
2.43935e-08
4.91088e-08
1.04847e-07
2.18905e-07
4.29624e-07
7.97276e-07
3.32848e-08
2.19798e-08
1.42671e-08
9.20759e-09
6.19244e-09
4.58046e-09
4.25579e-09
5.62347e-09
1.07496e-08
2.49035e-08
5.9371e-08
1.35394e-07
2.86918e-07
5.69585e-07
1.3387e-08
7.68913e-09
4.6784e-09
2.91002e-09
1.91927e-09
1.42296e-09
1.42675e-09
2.2622e-09
5.27287e-09
1.39959e-08
3.64566e-08
8.87371e-08
1.98857e-07
4.14536e-07
6.41648e-09
2.76875e-09
1.44692e-09
8.43627e-10
5.44784e-10
4.17543e-10
4.97819e-10
1.03869e-09
2.9336e-09
8.5913e-09
2.37295e-08
6.03991e-08
1.4115e-07
3.0617e-07
4.72014e-09
1.33955e-09
4.81009e-10
2.33391e-10
1.44534e-10
1.23356e-10
2.02967e-10
5.6838e-10
1.83303e-09
5.69049e-09
1.63217e-08
4.2939e-08
1.03909e-07
2.33518e-07
5.19785e-09
1.11035e-09
2.41041e-10
7.45501e-11
4.19984e-11
4.68622e-11
1.12159e-10
3.75605e-10
1.28664e-09
4.11483e-09
1.2102e-08
3.26674e-08
8.13822e-08
1.88435e-07
6.84144e-09
1.29739e-09
2.23788e-10
5.76097e-11
4.14828e-11
5.61041e-11
1.17629e-10
3.43783e-10
1.11554e-09
3.52328e-09
1.03957e-08
2.835e-08
7.1675e-08
1.68741e-07
9.59742e-09
1.75558e-09
3.40816e-10
1.5713e-10
1.66614e-10
2.1314e-10
3.12702e-10
5.967e-10
1.4784e-09
4.11877e-09
1.14692e-08
3.0421e-08
7.58591e-08
1.77278e-07
1.42219e-08
2.8319e-09
8.26347e-10
6.11372e-10
7.16978e-10
9.08476e-10
1.20756e-09
1.8105e-09
3.30271e-09
7.27779e-09
1.75833e-08
4.28855e-08
1.01322e-07
2.27313e-07
2.34205e-08
5.99629e-09
2.59104e-09
2.24884e-09
2.66568e-09
3.39656e-09
4.46047e-09
6.21965e-09
9.64466e-09
1.73209e-08
3.52004e-08
7.59648e-08
1.6473e-07
3.44881e-07
4.37264e-08
1.54306e-08
8.19788e-09
7.29155e-09
8.52037e-09
1.09115e-08
1.44266e-08
1.97913e-08
2.87037e-08
4.55991e-08
8.01946e-08
1.52039e-07
2.97179e-07
5.68488e-07
9.03079e-08
4.11268e-08
2.38028e-08
2.08517e-08
2.37899e-08
3.04857e-08
4.06766e-08
5.57654e-08
7.8589e-08
1.1622e-07
1.82662e-07
3.05015e-07
5.31318e-07
9.23297e-07
3.36692e-07
2.51063e-07
1.80548e-07
1.27608e-07
9.17717e-08
6.96625e-08
5.98065e-08
6.14552e-08
8.07885e-08
1.30587e-07
2.36218e-07
4.33478e-07
7.64183e-07
1.26865e-06
1.40344e-07
1.02547e-07
7.2052e-08
4.94251e-08
3.4517e-08
2.54097e-08
2.14252e-08
2.22412e-08
3.11585e-08
5.58403e-08
1.12843e-07
2.29183e-07
4.4454e-07
8.17649e-07
5.41254e-08
3.79523e-08
2.59838e-08
1.73477e-08
1.18391e-08
8.50832e-09
7.13323e-09
7.7025e-09
1.21104e-08
2.5268e-08
5.85337e-08
1.32729e-07
2.83307e-07
5.72087e-07
1.93531e-08
1.27039e-08
8.41719e-09
5.47606e-09
3.67734e-09
2.60492e-09
2.22226e-09
2.6587e-09
5.09348e-09
1.2828e-08
3.38762e-08
8.4234e-08
1.9345e-07
4.15783e-07
6.90739e-09
3.94241e-09
2.45712e-09
1.54979e-09
1.02937e-09
7.30489e-10
6.68668e-10
1.00087e-09
2.51192e-09
7.47434e-09
2.15893e-08
5.69851e-08
1.37477e-07
3.08358e-07
3.23499e-09
1.29393e-09
6.71728e-10
3.96509e-10
2.60121e-10
1.91176e-10
2.12486e-10
4.59086e-10
1.46724e-09
4.82094e-09
1.46172e-08
4.00443e-08
1.00213e-07
2.32731e-07
2.78003e-09
6.6698e-10
2.07489e-10
9.6428e-11
6.06656e-11
5.04652e-11
8.44742e-11
2.66795e-10
9.76654e-10
3.35653e-09
1.04553e-08
2.94518e-08
7.60707e-08
1.82349e-07
3.56023e-09
6.54508e-10
1.14199e-10
2.93653e-11
1.65539e-11
1.91368e-11
4.97979e-11
1.87646e-10
7.15212e-10
2.50311e-09
7.95243e-09
2.29793e-08
6.11088e-08
1.50739e-07
5.10952e-09
8.452e-10
1.21373e-10
2.93894e-11
2.37975e-11
3.1528e-11
6.13981e-11
1.80963e-10
6.30736e-10
2.1672e-09
6.92092e-09
2.03002e-08
5.49159e-08
1.37725e-07
7.56886e-09
1.2045e-09
2.01095e-10
9.95749e-11
1.13811e-10
1.44009e-10
1.98719e-10
3.52011e-10
8.63416e-10
2.54321e-09
7.64486e-09
2.19135e-08
5.86904e-08
1.46275e-07
1.16138e-08
1.99915e-09
5.21584e-10
4.16875e-10
5.15926e-10
6.5856e-10
8.56806e-10
1.22358e-09
2.13067e-09
4.71936e-09
1.20158e-08
3.14421e-08
7.95486e-08
1.8962e-07
1.95875e-08
4.34864e-09
1.72839e-09
1.59033e-09
1.98023e-09
2.5692e-09
3.36126e-09
4.57783e-09
6.85958e-09
1.21239e-08
2.52032e-08
5.72826e-08
1.31785e-07
2.913e-07
3.70794e-08
1.16137e-08
5.76187e-09
5.33304e-09
6.49564e-09
8.49889e-09
1.12824e-08
1.53205e-08
2.17956e-08
3.41402e-08
6.04885e-08
1.18797e-07
2.43893e-07
4.8938e-07
7.73028e-08
3.29631e-08
1.77431e-08
1.58619e-08
1.86447e-08
2.4409e-08
3.28283e-08
4.48769e-08
6.26718e-08
9.19101e-08
1.44404e-07
2.45894e-07
4.4434e-07
8.05394e-07
2.23702e-07
1.64641e-07
1.18953e-07
8.48465e-08
6.25756e-08
4.85012e-08
4.19933e-08
4.18111e-08
5.17433e-08
7.86153e-08
1.39606e-07
2.60803e-07
4.82398e-07
8.44464e-07
8.48665e-08
6.03772e-08
4.2498e-08
2.92137e-08
2.08265e-08
1.55812e-08
1.32628e-08
1.33792e-08
1.77397e-08
3.04012e-08
6.17757e-08
1.30396e-07
2.70321e-07
5.40629e-07
2.97071e-08
2.00776e-08
1.37569e-08
9.12006e-09
6.2995e-09
4.55171e-09
3.83279e-09
4.01855e-09
6.06504e-09
1.25517e-08
3.03105e-08
7.32933e-08
1.69958e-07
3.7791e-07
9.61927e-09
6.03435e-09
3.99757e-09
2.55394e-09
1.71582e-09
1.20247e-09
1.02129e-09
1.19497e-09
2.29831e-09
6.06045e-09
1.71667e-08
4.61415e-08
1.15764e-07
2.74476e-07
3.24389e-09
1.70168e-09
1.04462e-09
6.38562e-10
4.17831e-10
2.87265e-10
2.61787e-10
4.04472e-10
1.1015e-09
3.56106e-09
1.11238e-08
3.17909e-08
8.38239e-08
2.07691e-07
1.73362e-09
5.60956e-10
2.60213e-10
1.44098e-10
9.09636e-11
6.36334e-11
7.37499e-11
1.82289e-10
6.58196e-10
2.36502e-09
7.76006e-09
2.30572e-08
6.32058e-08
1.62412e-07
1.86901e-09
3.64829e-10
8.47988e-11
3.18976e-11
1.82285e-11
1.46796e-11
2.89437e-11
1.09307e-10
4.501e-10
1.69518e-09
5.75099e-09
1.77182e-08
5.04591e-08
1.34181e-07
2.69921e-09
4.33392e-10
6.06488e-11
1.11815e-11
5.45988e-12
6.58607e-12
1.86894e-11
7.84489e-11
3.3338e-10
1.29352e-09
4.54576e-09
1.45634e-08
4.30064e-08
1.17639e-07
4.14581e-09
6.09677e-10
7.4962e-11
1.67649e-11
1.50065e-11
1.96305e-11
3.23929e-11
8.54818e-11
3.10406e-10
1.1806e-09
4.21798e-09
1.38253e-08
4.15104e-08
1.14525e-07
6.50456e-09
9.23936e-10
1.32086e-10
6.62511e-11
8.22502e-11
1.07391e-10
1.41293e-10
2.21557e-10
5.01592e-10
1.53618e-09
5.07114e-09
1.60769e-08
4.71602e-08
1.27319e-07
1.05187e-08
1.61525e-09
3.62523e-10
2.94897e-10
3.88407e-10
5.16499e-10
6.72394e-10
9.21557e-10
1.50556e-09
3.28902e-09
8.80464e-09
2.48162e-08
6.73181e-08
1.70817e-07
1.89016e-08
3.70621e-09
1.28709e-09
1.18005e-09
1.53097e-09
2.06437e-09
2.73701e-09
3.68804e-09
5.36432e-09
9.31455e-09
1.97545e-08
4.72069e-08
1.1473e-07
2.67007e-07
3.70009e-08
1.04289e-08
4.62075e-09
4.17353e-09
5.15637e-09
6.94443e-09
9.3696e-09
1.27456e-08
1.79374e-08
2.784e-08
4.96711e-08
1.00682e-07
2.16175e-07
4.54383e-07
7.62134e-08
3.16484e-08
1.54199e-08
1.32049e-08
1.5315e-08
2.03575e-08
2.77511e-08
3.82223e-08
5.34253e-08
7.83462e-08
1.23279e-07
2.12425e-07
3.946e-07
7.46405e-07
1.15163e-07
8.2346e-08
6.00878e-08
4.36635e-08
3.34688e-08
2.66139e-08
2.32987e-08
2.27064e-08
2.6318e-08
3.74524e-08
6.54087e-08
1.24735e-07
2.49321e-07
4.79127e-07
3.86052e-08
2.64779e-08
1.88104e-08
1.30884e-08
9.66826e-09
7.40634e-09
6.3669e-09
6.2361e-09
7.64257e-09
1.23681e-08
2.56254e-08
5.8016e-08
1.34194e-07
3.02631e-07
1.17681e-08
7.59227e-09
5.25483e-09
3.52095e-09
2.51875e-09
1.85503e-09
1.56445e-09
1.56477e-09
2.17134e-09
4.45198e-09
1.16917e-08
3.1865e-08
8.42745e-08
2.13085e-07
3.36726e-09
1.94102e-09
1.28928e-09
8.34653e-10
5.8174e-10
4.13938e-10
3.46956e-10
3.80216e-10
7.06628e-10
2.03718e-09
6.60836e-09
2.03679e-08
5.82989e-08
1.57041e-07
1.23451e-09
4.97293e-10
2.81996e-10
1.7304e-10
1.17526e-10
8.17936e-11
7.22755e-11
1.08628e-10
3.27521e-10
1.23833e-09
4.47235e-09
1.46228e-08
4.3904e-08
1.24065e-07
1.03124e-09
2.19983e-10
6.68718e-11
3.24284e-11
2.06993e-11
1.45897e-11
1.68883e-11
4.77738e-11
2.0747e-10
8.74274e-10
3.29696e-09
1.11854e-08
3.49757e-08
1.02784e-07
1.44894e-09
2.29313e-10
3.34809e-11
7.25535e-12
3.44261e-12
2.82006e-12
6.51678e-12
3.09335e-11
1.52612e-10
6.69645e-10
2.6122e-09
9.22014e-09
3.00125e-08
9.10006e-08
2.29126e-09
3.2122e-10
3.60833e-11
4.54141e-12
1.91729e-12
2.31925e-12
5.66886e-12
2.50254e-11
1.22561e-10
5.52372e-10
2.24045e-09
8.23102e-09
2.76365e-08
8.51585e-08
3.68132e-09
4.78608e-10
4.94304e-11
1.03569e-11
1.00832e-11
1.29557e-11
1.79706e-11
3.75505e-11
1.32953e-10
5.63072e-10
2.29539e-09
8.54114e-09
2.87661e-08
8.79448e-08
6.0078e-09
7.77991e-10
9.19043e-11
4.53361e-11
5.8898e-11
7.78961e-11
9.92119e-11
1.38931e-10
2.75501e-10
8.40794e-10
3.02731e-09
1.06457e-08
3.43553e-08
1.00923e-07
1.00631e-08
1.44674e-09
2.70663e-10
2.12511e-10
2.8537e-10
3.85948e-10
4.99845e-10
6.5982e-10
1.00141e-09
2.08217e-09
5.74182e-09
1.7391e-08
5.09124e-08
1.38873e-07
1.92604e-08
3.46187e-09
1.03353e-09
8.97643e-10
1.15679e-09
1.57856e-09
2.09233e-09
2.77563e-09
3.89221e-09
6.47196e-09
1.36348e-08
3.3998e-08
8.80373e-08
2.19223e-07
3.81291e-08
9.88092e-09
3.97842e-09
3.40073e-09
4.06529e-09
5.46948e-09
7.35851e-09
9.93381e-09
1.37396e-08
2.07729e-08
3.64231e-08
7.51389e-08
1.69432e-07
3.806e-07
7.35899e-08
3.09432e-08
1.44296e-08
1.16364e-08
1.2798e-08
1.6713e-08
2.25128e-08
3.07634e-08
4.26599e-08
6.18115e-08
9.57614e-08
1.64601e-07
3.13097e-07
6.28202e-07
3.19888e-08
2.13791e-08
1.50676e-08
1.06752e-08
8.221e-09
6.8012e-09
6.35654e-09
6.57218e-09
7.843e-09
1.10863e-08
1.92498e-08
3.8017e-08
8.26218e-08
1.80718e-07
9.23022e-09
5.86258e-09
4.08567e-09
2.79731e-09
2.07074e-09
1.6281e-09
1.46438e-09
1.49777e-09
1.8681e-09
3.02497e-09
6.48933e-09
1.62012e-08
4.282e-08
1.11377e-07
2.47104e-09
1.39956e-09
9.55689e-10
6.38968e-10
4.61091e-10
3.47381e-10
3.01408e-10
3.09419e-10
4.37491e-10
9.53434e-10
2.8258e-09
8.95562e-09
2.74437e-08
7.92024e-08
7.80775e-10
3.14992e-10
1.92506e-10
1.24591e-10
8.8301e-11
6.45798e-11
5.52085e-11
6.26268e-11
1.29465e-10
4.43107e-10
1.69178e-09
6.04081e-09
1.96898e-08
5.95804e-08
5.53604e-10
1.15485e-10
3.90118e-11
2.10176e-11
1.42924e-11
1.03019e-11
9.51178e-12
1.69865e-11
6.55532e-11
2.98909e-10
1.24972e-09
4.65187e-09
1.5747e-08
5.00495e-08
7.6214e-10
1.16186e-10
1.65897e-11
3.90282e-12
2.01423e-12
1.46244e-12
2.10786e-12
8.60309e-12
4.68639e-11
2.31075e-10
9.94973e-10
3.82168e-09
1.34983e-08
4.49491e-08
1.23492e-09
1.67227e-10
1.75088e-11
1.83526e-12
4.08536e-13
3.29789e-13
1.04941e-12
6.38309e-12
3.74842e-11
1.90531e-10
8.50345e-10
3.42185e-09
1.2696e-08
4.39129e-08
2.11569e-09
2.64645e-10
2.3523e-11
2.25766e-12
8.95996e-13
1.01968e-12
1.71668e-12
6.1651e-12
3.26897e-11
1.69513e-10
7.9283e-10
3.34811e-09
1.28682e-08
4.51305e-08
3.62602e-09
4.43335e-10
3.52813e-11
5.89964e-12
5.88803e-12
7.48664e-12
9.28741e-12
1.45132e-11
4.27421e-11
1.91898e-10
8.90728e-10
3.80039e-09
1.4598e-08
5.042e-08
6.30675e-09
8.40392e-10
7.33886e-11
2.69221e-11
3.52136e-11
4.6632e-11
5.75508e-11
7.29083e-11
1.19679e-10
3.35192e-10
1.29255e-09
5.10145e-09
1.85306e-08
6.07434e-08
1.08641e-08
1.65772e-09
2.20178e-10
1.32711e-10
1.75518e-10
2.3703e-10
3.00933e-10
3.78675e-10
5.20474e-10
9.70197e-10
2.66312e-09
8.7402e-09
2.83856e-08
8.56872e-08
1.92346e-08
3.79753e-09
8.51273e-10
6.0428e-10
7.44719e-10
1.00362e-09
1.30636e-09
1.67974e-09
2.22802e-09
3.42313e-09
6.8869e-09
1.77077e-08
4.94612e-08
1.34658e-07
3.38944e-08
9.60407e-09
3.39807e-09
2.51709e-09
2.80565e-09
3.66146e-09
4.80782e-09
6.32422e-09
8.45332e-09
1.21844e-08
2.04074e-08
4.18906e-08
9.87845e-08
2.40232e-07
6.30922e-08
2.78698e-08
1.32837e-08
9.59512e-09
9.63441e-09
1.19858e-08
1.55608e-08
2.06667e-08
2.79931e-08
3.96092e-08
5.96992e-08
1.00406e-07
1.9177e-07
4.06978e-07
3.99132e-09
2.57968e-09
1.83501e-09
1.31022e-09
9.97534e-10
7.98664e-10
7.22283e-10
7.3113e-10
8.65264e-10
1.24165e-09
2.3022e-09
5.18359e-09
1.32137e-08
3.4489e-08
1.00162e-09
5.77925e-10
4.06679e-10
2.86525e-10
2.15559e-10
1.68039e-10
1.46216e-10
1.4277e-10
1.71774e-10
2.90067e-10
7.24893e-10
2.22061e-09
7.10164e-09
2.18078e-08
2.9869e-10
1.18305e-10
7.53359e-11
5.1901e-11
3.8825e-11
2.99203e-11
2.55591e-11
2.50873e-11
3.61007e-11
9.57174e-11
3.6164e-10
1.39969e-09
5.01896e-09
1.64184e-08
2.05936e-10
4.00765e-11
1.36462e-11
7.87347e-12
5.7152e-12
4.3861e-12
3.82079e-12
4.58575e-12
1.23069e-11
5.57381e-11
2.57243e-10
1.06e-09
3.87369e-09
1.28061e-08
2.80118e-10
4.20984e-11
5.77663e-12
1.33641e-12
7.10834e-13
5.28061e-13
5.58148e-13
1.4827e-12
8.03127e-12
4.42359e-11
2.11922e-10
8.8182e-10
3.26598e-09
1.11464e-08
4.36976e-10
6.27279e-11
6.50164e-12
6.70007e-13
1.18596e-13
6.43815e-14
1.51169e-13
9.71896e-13
6.50499e-12
3.69652e-11
1.78834e-10
7.56867e-10
2.89894e-09
1.03998e-08
7.01537e-10
9.97124e-11
8.88018e-12
7.15439e-13
9.64016e-14
5.80349e-14
1.40124e-13
8.39936e-13
5.55953e-12
3.19451e-11
1.58709e-10
7.01542e-10
2.84399e-09
1.07991e-08
1.13953e-09
1.63028e-10
1.30372e-11
1.01419e-12
3.93541e-13
4.37885e-13
5.58153e-13
1.18186e-12
5.37273e-12
2.98339e-11
1.54355e-10
7.22278e-10
3.08658e-09
1.21261e-08
1.83123e-09
2.65964e-10
2.09004e-11
2.66597e-12
2.65189e-12
3.38743e-12
4.01625e-12
5.02211e-12
9.84092e-12
3.82861e-11
1.88088e-10
8.90419e-10
3.84385e-09
1.50196e-08
2.952e-09
4.48112e-10
4.22752e-11
1.24285e-11
1.63349e-11
2.16735e-11
2.6245e-11
3.1048e-11
4.13483e-11
8.79566e-11
3.16745e-10
1.33933e-09
5.42827e-09
2.00984e-08
4.81171e-09
8.10689e-10
1.19905e-10
6.4301e-11
8.50859e-11
1.14519e-10
1.42889e-10
1.73024e-10
2.16072e-10
3.33438e-10
7.87089e-10
2.58389e-09
9.09946e-09
3.05931e-08
8.35286e-09
1.81495e-09
4.72618e-10
3.16023e-10
3.8274e-10
5.08133e-10
6.4731e-10
8.08533e-10
1.01647e-09
1.41033e-09
2.48399e-09
6.01026e-09
1.72862e-08
5.09853e-08
1.50962e-08
4.83343e-09
1.99751e-09
1.45753e-09
1.56994e-09
1.98291e-09
2.51212e-09
3.20705e-09
4.12399e-09
5.61424e-09
8.61597e-09
1.64013e-08
3.79322e-08
9.67987e-08
3.19452e-08
1.53353e-08
8.1761e-09
6.09883e-09
5.9755e-09
7.10767e-09
8.75747e-09
1.12122e-08
1.4659e-08
2.00734e-08
2.90122e-08
4.63988e-08
8.40128e-08
1.77198e-07
2.8584e-10
1.77406e-10
1.29958e-10
9.76618e-11
7.72347e-11
6.27453e-11
5.49227e-11
5.13832e-11
5.49826e-11
7.60694e-11
1.54924e-10
4.17645e-10
1.26986e-09
3.90534e-09
7.12799e-11
3.24586e-11
2.22126e-11
1.64157e-11
1.29726e-11
1.05821e-11
9.27988e-12
8.60267e-12
9.54279e-12
1.71045e-11
5.35721e-11
2.04515e-10
7.68759e-10
2.67872e-09
4.12613e-11
8.92515e-12
3.49721e-12
2.2218e-12
1.71462e-12
1.4046e-12
1.25103e-12
1.24311e-12
2.02254e-12
7.23749e-12
3.42227e-11
1.53099e-10
6.11608e-10
2.18401e-09
5.58038e-11
8.9531e-12
1.37818e-12
3.43091e-13
1.87655e-13
1.45985e-13
1.39453e-13
2.22391e-13
9.28751e-13
5.32521e-12
2.80271e-11
1.27995e-10
5.10484e-10
1.80656e-09
8.51809e-11
1.29705e-11
1.61111e-12
1.96518e-13
3.32893e-14
1.39012e-14
2.02322e-14
1.04736e-13
7.44839e-13
4.6749e-12
2.48547e-11
1.13275e-10
4.50994e-10
1.60667e-09
1.2912e-10
1.88106e-11
2.07897e-12
2.13348e-13
2.40735e-14
4.99098e-15
1.13014e-14
8.63728e-14
6.51052e-13
4.11604e-12
2.19219e-11
1.00388e-10
4.05427e-10
1.48905e-09
1.96732e-10
2.7804e-11
2.70328e-12
2.44397e-13
3.80597e-14
2.29465e-14
3.06234e-14
9.71278e-14
5.94243e-13
3.66832e-12
1.97173e-11
9.25955e-11
3.90192e-10
1.5186e-09
2.99258e-10
4.14497e-11
3.63523e-12
3.54551e-13
1.7022e-13
1.93437e-13
2.24878e-13
2.96664e-13
7.48782e-13
3.59399e-12
1.90812e-11
9.35531e-11
4.18245e-10
1.72614e-09
4.49661e-10
6.19017e-11
5.39651e-12
1.02261e-12
1.12908e-12
1.45465e-12
1.7117e-12
1.95269e-12
2.56903e-12
5.95331e-12
2.46863e-11
1.17766e-10
5.35577e-10
2.24702e-09
6.78739e-10
9.75551e-11
1.10832e-11
5.0054e-12
6.82259e-12
9.07077e-12
1.09638e-11
1.26669e-11
1.48548e-11
2.15081e-11
5.26894e-11
1.99079e-10
8.25877e-10
3.27896e-09
1.05578e-09
1.81289e-10
3.7119e-11
2.64669e-11
3.55849e-11
4.76222e-11
5.89773e-11
7.00976e-11
8.24222e-11
1.05205e-10
1.76976e-10
4.63263e-10
1.5596e-09
5.48243e-09
1.80715e-09
4.47505e-10
1.58572e-10
1.26786e-10
1.58163e-10
2.08899e-10
2.63961e-10
3.22956e-10
3.8888e-10
4.8592e-10
6.92724e-10
1.32883e-09
3.41641e-09
1.00904e-08
3.49158e-09
1.33528e-09
6.69292e-10
5.47914e-10
6.22435e-10
7.85939e-10
9.90264e-10
1.23331e-09
1.52301e-09
1.92437e-09
2.5945e-09
4.14721e-09
8.37782e-09
2.06476e-08
8.27646e-09
4.37095e-09
2.64185e-09
2.1856e-09
2.28825e-09
2.71665e-09
3.32757e-09
4.13664e-09
5.18982e-09
6.67592e-09
8.89196e-09
1.28592e-08
2.10336e-08
4.19227e-08
2.18958e-11
1.21996e-11
8.83746e-12
6.7941e-12
5.5318e-12
4.72477e-12
4.33874e-12
4.07848e-12
4.04861e-12
5.17233e-12
1.12326e-11
3.59555e-11
1.27174e-10
4.43343e-10
7.62785e-12
2.26314e-12
1.2006e-12
8.50304e-13
6.83038e-13
5.89555e-13
5.52141e-13
5.32241e-13
5.95915e-13
1.22253e-12
4.74722e-12
2.1061e-11
8.73924e-11
3.29881e-10
8.89766e-12
1.64658e-12
3.21081e-13
1.06217e-13
6.64364e-14
5.56158e-14
5.37565e-14
6.14367e-14
1.39467e-13
6.71526e-13
3.61738e-12
1.75057e-11
7.46555e-11
2.83538e-10
1.39475e-11
2.43326e-12
3.71714e-13
5.54884e-14
1.04684e-14
4.55346e-15
4.78436e-15
1.35556e-14
8.42397e-14
5.48417e-13
3.11022e-12
1.51942e-11
6.47473e-11
2.43878e-10
2.07301e-11
3.4289e-12
4.94896e-13
6.58819e-14
8.13653e-15
1.11455e-15
1.20894e-15
9.12099e-15
7.28467e-14
4.92706e-13
2.81525e-12
1.37707e-11
5.85896e-11
2.20102e-10
2.9903e-11
4.6114e-12
6.08378e-13
7.39063e-14
8.75355e-15
1.55116e-15
1.63178e-15
8.55847e-15
6.48082e-14
4.38062e-13
2.51319e-12
1.23432e-11
5.28056e-11
2.00566e-10
4.30937e-11
6.20195e-12
7.37424e-13
8.25695e-14
1.3756e-14
8.13897e-15
9.0717e-15
1.53949e-14
6.47614e-14
3.94793e-13
2.24838e-12
1.11707e-11
4.89222e-11
1.93084e-10
6.16238e-11
8.33599e-12
9.08038e-13
1.15409e-13
5.63368e-14
6.38618e-14
7.344e-14
8.36114e-14
1.2944e-13
4.2753e-13
2.14008e-12
1.07089e-11
4.89592e-11
2.04909e-10
8.68471e-11
1.12836e-11
1.24005e-12
3.14345e-13
3.47283e-13
4.4824e-13
5.27046e-13
5.84987e-13
6.6789e-13
1.027e-12
3.01803e-12
1.32013e-11
6.01542e-11
2.5854e-10
1.22519e-10
1.66453e-11
2.49993e-12
1.46445e-12
2.01893e-12
2.6826e-12
3.2194e-12
3.64733e-12