/*--------------------------------*- C++ -*----------------------------------*\
| =========                 |                                                 |
| \\      /  F ield         | OpenFOAM: The Open Source CFD Toolbox           |
|  \\    /   O peration     | Version:  v2106                                 |
|   \\  /    A nd           | Website:  www.openfoam.com                      |
|    \\/     M anipulation  |                                                 |
\*---------------------------------------------------------------------------*/
FoamFile
{
    version     2.0;
    format      ascii;
    arch        "LSB;label=32;scalar=64";
    class       volScalarField;
    location    "0.000199";
    object      T;
}
// * * * * * * * * * * * * * * * * * * * * * * * * * * * * * * * * * * * * * //

dimensions      [0 0 0 1 0 0 0];

internalField   nonuniform List<scalar> 
18109
(
293.998
293.881
293.757
293.629
293.486
293.323
293.146
294.015
293.889
293.753
293.61
293.464
293.309
293.133
294
293.85
293.694
293.542
293.395
293.245
293.082
293.992
293.807
293.632
293.469
293.317
293.169
293.012
293.971
293.764
293.579
293.404
293.245
293.097
292.947
293.969
293.742
293.537
293.361
293.203
293.057
292.909
293.982
293.738
293.525
293.344
293.189
293.047
292.903
294.023
293.777
293.562
293.379
293.221
293.076
292.932
294.253
294.159
294.06
293.951
293.828
293.682
293.516
293.328
293.117
292.891
292.662
292.439
292.253
292.072
294.267
294.144
294.026
293.902
293.775
293.635
293.475
293.294
293.088
292.868
292.644
292.436
292.268
292.124
294.249
294.093
293.949
293.812
293.68
293.544
293.392
293.224
293.029
292.822
292.611
292.426
292.282
292.166
294.222
294.035
293.87
293.722
293.584
293.446
293.297
293.134
292.95
292.754
292.56
292.394
292.271
292.176
294.181
293.976
293.803
293.649
293.504
293.362
293.213
293.053
292.873
292.688
292.511
292.371
292.27
292.197
294.163
293.948
293.764
293.601
293.454
293.311
293.16
292.998
292.821
292.646
292.486
292.365
292.28
292.222
294.171
293.946
293.75
293.582
293.436
293.293
293.139
292.976
292.802
292.634
292.488
292.38
292.307
292.252
294.211
293.984
293.787
293.617
293.462
293.31
293.153
292.987
292.816
292.657
292.523
292.426
292.358
292.291
294.297
294.066
293.858
293.681
293.518
293.362
293.201
293.034
292.868
292.718
292.594
292.498
292.424
292.346
294.412
294.178
293.957
293.771
293.6
293.437
293.272
293.106
292.945
292.802
292.683
292.584
292.499
292.405
294.55
294.314
294.086
293.888
293.706
293.535
293.366
293.201
293.046
292.906
292.786
292.679
292.58
292.47
294.668
294.439
294.216
294.018
293.832
293.657
293.488
293.327
293.177
293.038
292.911
292.789
292.67
292.541
294.798
294.573
294.354
294.159
293.977
293.801
293.634
293.477
293.331
293.193
293.057
292.919
292.782
292.632
294.861
294.642
294.451
294.272
294.107
293.948
293.797
293.654
293.52
293.386
293.244
293.085
292.927
292.743
294.023
294.015
294.016
294.031
294.02
293.989
294.272
294.257
294.244
294.232
294.165
294.067
294.169
294.153
294.134
294.134
294.108
294.083
294.096
294.07
294.052
294.05
294.041
294.022
293.991
293.966
293.939
293.94
293.955
293.96
293.865
293.848
293.811
293.796
293.798
293.774
293.706
293.689
293.644
293.617
293.59
293.507
293.525
293.494
293.432
293.378
293.299
293.068
293.314
293.257
293.168
293.058
292.891
292.505
293.084
292.995
292.875
292.693
292.422
291.852
292.832
292.711
292.57
292.315
291.918
291.194
292.596
292.449
292.263
291.909
291.4
290.637
292.345
292.153
291.921
291.509
290.912
290.136
292.16
291.915
291.614
291.139
290.535
289.818
291.921
291.603
291.255
290.725
290.113
289.47
291.949
291.74
291.405
290.867
290.177
289.495
292.027
291.775
291.379
290.852
290.229
289.632
292.059
291.851
291.466
290.961
290.415
289.905
292.064
291.878
291.526
291.078
290.614
290.183
292.092
291.924
291.615
291.231
290.819
290.406
292.124
291.967
291.694
291.364
290.987
290.542
292.157
292.005
291.766
291.48
291.128
290.636
292.197
292.05
291.834
291.568
291.218
290.633
292.24
292.093
291.89
291.625
291.226
290.496
292.29
292.147
291.948
291.657
291.165
290.341
292.353
292.207
292.001
291.686
291.139
290.267
292.428
292.303
292.108
291.743
291.133
290.265
292.541
292.429
292.234
291.851
291.243
290.448
292.622
292.51
292.299
291.924
291.34
290.645
292.825
292.717
292.558
292.221
291.741
291.115
293.045
292.995
292.879
292.598
292.159
291.613
293.233
293.252
293.204
293.006
292.66
292.217
293.405
293.485
293.483
293.377
293.146
292.853
293.561
293.684
293.726
293.697
293.582
293.406
293.696
293.837
293.908
293.943
293.9
293.816
293.825
293.974
294.058
294.121
294.102
294.065
293.96
294.102
294.182
294.239
294.198
294.153
294.102
294.233
294.3
294.34
294.279
294.219
294.253
294.377
294.435
294.462
294.382
294.271
294.413
294.544
294.598
294.619
294.528
294.357
294.6
294.74
294.801
294.816
294.723
294.482
294.786
294.93
295.001
295.007
294.914
294.638
295.01
295.127
295.187
295.179
295.075
294.85
294.173
294.298
294.342
294.335
294.296
294.093
294.127
294.18
294.173
294.157
294.08
293.917
294.096
294.131
294.106
294.089
294.014
293.918
294.088
294.078
294.057
294.033
293.996
293.953
295.086
295.211
295.302
295.314
295.248
295.115
295.032
295.217
295.343
295.397
295.389
295.363
294.942
295.182
295.354
295.463
295.516
295.561
294.834
295.109
295.326
295.501
295.616
295.706
294.705
295.012
295.275
295.508
295.668
295.771
294.592
294.921
295.223
295.499
295.691
295.794
294.501
294.84
295.167
295.462
295.657
295.751
294.452
294.783
295.105
295.386
295.549
295.621
294.43
294.73
295.012
295.238
295.346
295.364
294.421
294.669
294.87
295.005
295.063
294.95
294.422
294.592
294.688
294.722
294.716
294.511
294.397
294.477
294.484
294.478
294.395
294.181
294.362
294.409
294.373
294.336
294.207
294.031
294.329
294.317
294.275
294.216
294.119
294.006
293.691
293.003
291.112
286.396
277.843
293.752
292.849
290.518
284.934
276.053
293.658
292.575
289.601
283.658
276.31
293.52
291.97
288.103
281.782
274.722
293.019
290.932
286.32
279.386
271.476
292.392
289.6
284.468
276.916
268.241
291.685
288.381
283.142
275.823
268.193
290.785
287.212
282.12
274.678
266.443
260.499
289.96
286.359
281.401
273.724
264.588
257.597
289.269
286.04
281.693
274.687
266.064
259.483
288.783
286.045
282.596
276.591
268.767
262.568
260.373
288.519
286.304
283.659
278.811
272.015
265.989
263.863
268.264
288.394
286.58
284.423
280.364
274.418
269.721
269.761
276.412
288.34
286.882
284.962
281.258
275.21
268.039
266.259
265.901
288.434
287.149
285.132
280.649
272.764
263.161
257.586
255.773
288.703
287.48
285.393
280.579
272.54
263.594
255.954
254.179
289.085
287.772
285.384
280.296
273.401
266.616
263.515
260.183
289.374
287.812
284.714
279.031
271.852
264.956
261.512
262.817
289.528
287.663
283.932
277.399
268.439
258.959
253.857
251.456
289.44
287.102
283.048
276.311
267.288
257.765
249.858
247.688
289.336
286.625
282.612
276.364
268.59
261.258
256.702
254.421
289.081
286.3
282.519
276.253
268.124
261.345
259.547
262.26
288.8
286.158
282.399
275.677
265.587
256.154
288.595
286.2
282.99
276.766
266.656
256.497
288.594
286.537
284.132
279.129
270.394
261.349
288.748
286.999
285.334
281.808
274.803
266.938
289.068
287.636
286.462
283.942
278.496
272.099
289.554
288.367
287.347
285.087
280.319
290.203
289.207
288.169
285.506
279.302
290.903
290.078
289.027
285.958
279.688
291.649
290.874
289.759
286.585
281.138
292.343
291.503
290.181
286.476
280.415
292.981
292.063
290.543
286.603
279.208
293.385
292.392
290.576
286.419
278.517
293.587
292.623
290.734
286.66
279.472
293.599
292.627
290.677
286.718
279.087
293.624
292.589
290.638
286.554
277.923
293.594
292.544
290.832
287.281
279.028
293.627
292.658
291.397
288.601
281.479
293.779
292.958
292.185
289.988
284.066
294.086
293.49
293.098
291.057
285.652
294.501
294.163
293.882
291.676
286.324
294.952
294.852
294.374
291.667
284.785
295.344
295.299
294.525
291.169
283.7
295.597
295.463
294.404
290.744
284.257
295.747
295.351
293.927
289.644
282.755
295.809
295.293
293.329
288.33
280.042
295.762
294.985
292.591
287.268
278.413
295.554
294.656
292.014
286.724
278.339
295.174
294.011
291.325
286.009
277.111
294.743
293.388
290.662
285.156
275.649
294.256
292.835
290.459
285.519
276.728
293.833
292.504
290.637
286.414
278.894
293.553
292.427
290.956
287.328
280.873
293.503
292.597
291.273
287.842
282.08
293.569
292.855
291.379
287.629
280.642
294.586
294.508
294.432
294.351
294.26
294.147
294.018
293.867
293.688
293.484
293.265
293.037
292.834
292.603
294.582
294.464
294.371
294.276
294.182
294.073
293.948
293.8
293.628
293.436
293.227
293.016
292.824
292.655
294.536
294.397
294.28
294.174
294.075
293.969
293.851
293.712
293.549
293.363
293.166
292.979
292.818
292.689
294.488
294.329
294.197
294.082
293.978
293.87
293.751
293.612
293.451
293.27
293.083
292.917
292.78
292.677
294.443
294.271
294.133
294.015
293.903
293.788
293.664
293.52
293.355
293.176
292.998
292.849
292.733
292.653
294.429
294.251
294.104
293.977
293.858
293.734
293.599
293.446
293.276
293.099
292.929
292.795
292.694
292.626
294.447
294.263
294.107
293.969
293.842
293.712
293.567
293.403
293.226
293.05
292.888
292.762
292.669
292.601
294.497
294.305
294.136
293.989
293.852
293.712
293.556
293.384
293.204
293.03
292.875
292.754
292.662
292.588
294.572
294.372
294.193
294.035
293.883
293.729
293.563
293.386
293.205
293.035
292.886
292.767
292.671
292.584
294.649
294.446
294.255
294.086
293.923
293.761
293.588
293.409
293.23
293.065
292.92
292.798
292.692
292.592
294.717
294.514
294.32
294.144
293.974
293.807
293.632
293.458
293.284
293.124
292.979
292.848
292.728
292.611
294.758
294.563
294.375
294.201
294.032
293.866
293.698
293.531
293.365
293.21
293.062
292.921
292.782
292.642
294.789
294.598
294.422
294.256
294.098
293.945
293.786
293.631
293.475
293.323
293.169
293.016
292.865
292.706
294.752
294.584
294.445
294.298
294.164
294.035
293.899
293.763
293.626
293.486
293.332
293.166
292.989
292.774
295.227
295.162
295.099
295.031
294.956
294.861
294.76
294.634
294.492
294.314
294.118
293.893
293.663
293.395
295.212
295.103
295.02
294.942
294.868
294.778
294.68
294.555
294.411
294.238
294.053
293.838
293.623
293.41
295.159
295.026
294.927
294.838
294.762
294.676
294.586
294.467
294.333
294.165
293.983
293.784
293.594
293.411
295.098
294.952
294.843
294.747
294.669
294.58
294.489
294.373
294.238
294.073
293.898
293.716
293.547
293.392
295.045
294.897
294.78
294.678
294.595
294.502
294.406
294.285
294.149
293.986
293.816
293.648
293.495
293.36
295.012
294.866
294.745
294.631
294.54
294.438
294.331
294.203
294.06
293.898
293.733
293.577
293.436
293.313
294.997
294.85
294.727
294.6
294.501
294.391
294.272
294.136
293.986
293.822
293.661
293.511
293.378
293.26
294.995
294.843
294.715
294.581
294.471
294.351
294.22
294.075
293.917
293.752
293.592
293.447
293.315
293.195
294.988
294.835
294.703
294.57
294.446
294.318
294.176
294.025
293.862
293.697
293.538
293.391
293.254
293.128
294.969
294.822
294.686
294.558
294.421
294.286
294.135
293.979
293.813
293.65
293.491
293.343
293.2
293.062
294.934
294.797
294.665
294.539
294.405
294.262
294.108
293.951
293.786
293.622
293.457
293.298
293.142
292.993
294.877
294.756
294.637
294.518
294.389
294.25
294.099
293.944
293.782
293.618
293.448
293.275
293.104
292.942
294.792
294.695
294.602
294.497
294.383
294.257
294.118
293.968
293.808
293.643
293.466
293.28
293.083
292.902
294.689
294.632
294.567
294.482
294.387
294.279
294.159
294.03
293.881
293.718
293.535
293.335
293.125
292.866
296.435
296.377
296.342
296.294
296.239
296.163
296.085
295.974
295.853
295.688
295.516
295.299
295.061
294.765
296.42
296.339
296.284
296.221
296.161
296.083
296.002
295.887
295.762
295.597
295.429
295.214
294.996
294.741
296.382
296.272
296.205
296.124
296.063
295.986
295.911
295.806
295.687
295.527
295.361
295.156
294.951
294.723
296.328
296.215
296.138
296.045
295.979
295.89
295.808
295.698
295.578
295.423
295.26
295.07
294.885
294.684
296.278
296.165
296.074
295.972
295.895
295.797
295.711
295.598
295.479
295.328
295.171
294.993
294.818
294.632
296.228
296.115
296.006
295.9
295.81
295.704
295.611
295.491
295.366
295.217
295.062
294.895
294.728
294.554
296.174
296.054
295.937
295.827
295.72
295.609
295.505
295.379
295.248
295.1
294.947
294.787
294.627
294.464
296.105
295.976
295.855
295.734
295.621
295.505
295.392
295.26
295.123
294.973
294.818
294.662
294.502
294.342
296.005
295.878
295.758
295.632
295.515
295.394
295.273
295.137
294.995
294.844
294.687
294.532
294.367
294.211
295.882
295.763
295.649
295.523
295.407
295.282
295.156
295.017
294.871
294.719
294.557
294.397
294.224
294.061
295.745
295.639
295.539
295.421
295.308
295.181
295.05
294.906
294.752
294.593
294.42
294.25
294.066
293.9
295.58
295.498
295.422
295.326
295.215
295.096
294.964
294.818
294.656
294.491
294.305
294.12
293.924
293.74
295.394
295.355
295.312
295.241
295.143
295.037
294.906
294.761
294.586
294.407
294.202
293.993
293.776
293.589
295.221
295.205
295.191
295.148
295.074
294.984
294.865
294.734
294.561
294.383
294.175
293.954
293.706
293.44
298.296
298.207
298.169
298.105
298.053
297.985
297.922
297.835
297.732
297.592
297.452
297.265
297.064
296.784
298.237
298.133
298.08
298
297.943
297.872
297.809
297.724
297.623
297.48
297.327
297.131
296.943
296.713
298.173
298.067
298.01
297.92
297.863
297.787
297.721
297.635
297.536
297.402
297.256
297.063
296.872
296.643
298.089
297.992
297.922
297.825
297.762
297.679
297.607
297.516
297.414
297.28
297.135
296.952
296.77
296.556
298.004
297.916
297.833
297.734
297.665
297.576
297.498
297.402
297.297
297.164
297.021
296.845
296.668
296.465
297.914
297.826
297.734
297.637
297.562
297.468
297.382
297.279
297.167
297.031
296.884
296.715
296.541
296.347
297.802
297.712
297.62
297.525
297.448
297.352
297.26
297.151
297.032
296.893
296.743
296.578
296.405
296.222
297.67
297.579
297.497
297.399
297.325
297.226
297.128
297.014
296.887
296.743
296.586
296.421
296.24
296.06
297.516
297.428
297.361
297.258
297.189
297.088
296.984
296.866
296.733
296.586
296.424
296.261
296.076
295.902
297.349
297.273
297.215
297.111
297.048
296.944
296.835
296.714
296.576
296.425
296.255
296.085
295.886
295.709
297.169
297.108
297.063
296.965
296.906
296.802
296.684
296.558
296.411
296.253
296.071
295.892
295.685
295.506
296.969
296.92
296.9
296.822
296.767
296.668
296.544
296.417
296.263
296.098
295.904
295.709
295.486
295.289
296.744
296.737
296.739
296.684
296.63
296.541
296.412
296.283
296.115
295.935
295.721
295.504
295.271
295.059
296.505
296.522
296.558
296.533
296.484
296.414
296.29
296.172
296.003
295.821
295.602
295.367
295.097
294.816
300.699
300.589
300.552
300.481
300.424
300.355
300.287
300.205
300.111
299.993
299.872
299.72
299.575
299.383
300.599
300.5
300.451
300.373
300.312
300.242
300.174
300.092
299.999
299.881
299.75
299.586
299.435
299.261
300.523
300.427
300.374
300.288
300.223
300.147
300.075
299.992
299.899
299.784
299.657
299.499
299.344
299.166
300.432
300.342
300.277
300.187
300.117
300.037
299.96
299.873
299.775
299.658
299.527
299.371
299.215
299.039
300.314
300.238
300.169
300.079
300.008
299.926
299.845
299.753
299.649
299.529
299.395
299.242
299.085
298.913
300.185
300.116
300.044
299.958
299.887
299.806
299.721
299.624
299.514
299.388
299.249
299.095
298.937
298.766
300.032
299.967
299.903
299.823
299.755
299.676
299.59
299.489
299.374
299.243
299.099
298.945
298.783
298.617
299.873
299.809
299.756
299.678
299.615
299.537
299.449
299.346
299.225
299.089
298.939
298.783
298.615
298.449
299.705
299.645
299.601
299.526
299.463
299.387
299.297
299.192
299.069
298.931
298.778
298.621
298.448
298.284
299.533
299.475
299.442
299.371
299.309
299.234
299.139
299.032
298.906
298.764
298.606
298.443
298.258
298.091
299.354
299.301
299.283
299.218
299.153
299.075
298.974
298.864
298.734
298.59
298.428
298.261
298.073
297.908
299.153
299.106
299.115
299.064
298.997
298.919
298.813
298.702
298.567
298.419
298.251
298.074
297.871
297.697
298.942
298.933
298.942
298.899
298.838
298.763
298.652
298.535
298.39
298.232
298.054
297.863
297.664
297.463
298.675
298.707
298.746
298.718
298.669
298.603
298.494
298.381
298.234
298.073
297.886
297.677
297.445
297.2
303.18
303.053
302.989
302.908
302.842
302.769
302.697
302.615
302.527
302.427
302.329
302.227
302.144
302.062
303.047
302.942
302.876
302.791
302.72
302.644
302.568
302.482
302.39
302.288
302.186
302.08
301.993
301.907
302.949
302.848
302.778
302.691
302.616
302.536
302.456
302.368
302.275
302.174
302.073
301.971
301.882
301.798
302.828
302.733
302.66
302.574
302.499
302.418
302.335
302.244
302.147
302.044
301.939
301.833
301.739
301.651
302.693
302.609
302.538
302.456
302.382
302.302
302.219
302.126
302.027
301.92
301.811
301.702
301.601
301.511
302.547
302.47
302.405
302.328
302.258
302.181
302.098
302.004
301.901
301.79
301.675
301.561
301.453
301.358
302.393
302.321
302.266
302.196
302.13
302.057
301.976
301.883
301.778
301.663
301.543
301.424
301.308
301.206
302.24
302.169
302.124
302.06
301.998
301.929
301.849
301.757
301.65
301.533
301.407
301.283
301.157
301.049
302.085
302.016
301.981
301.921
301.861
301.795
301.716
301.626
301.519
301.401
301.272
301.144
301.01
300.897
301.935
301.87
301.838
301.783
301.723
301.658
301.58
301.49
301.383
301.264
301.132
300.999
300.856
300.737
301.778
301.722
301.691
301.64
301.579
301.516
301.436
301.348
301.242
301.123
300.99
300.855
300.707
300.585
301.622
301.57
301.546
301.501
301.44
301.377
301.295
301.206
301.098
300.978
300.841
300.698
300.543
300.414
301.464
301.432
301.396
301.353
301.294
301.234
301.15
301.059
300.948
300.825
300.684
300.534
300.382
300.231
301.271
301.261
301.247
301.212
301.155
301.099
301.014
300.926
300.812
300.687
300.538
300.376
300.205
300.035
305.268
305.157
305.08
304.997
304.928
304.856
304.783
304.701
304.608
304.505
304.406
304.309
304.245
304.198
305.131
305.033
304.959
304.878
304.808
304.734
304.655
304.565
304.466
304.359
304.256
304.162
304.098
304.047
305
304.914
304.842
304.765
304.695
304.621
304.541
304.45
304.35
304.244
304.143
304.052
303.99
303.947
304.858
304.778
304.71
304.639
304.572
304.499
304.419
304.326
304.225
304.118
304.015
303.924
303.857
303.817
304.711
304.64
304.579
304.515
304.452
304.382
304.304
304.213
304.112
304.005
303.9
303.807
303.735
303.693
304.563
304.497
304.444
304.385
304.327
304.262
304.187
304.098
303.998
303.89
303.782
303.685
303.604
303.555
304.416
304.354
304.309
304.256
304.203
304.143
304.072
303.988
303.89
303.782
303.671
303.569
303.479
303.42
304.277
304.214
304.175
304.127
304.078
304.023
303.956
303.876
303.781
303.674
303.56
303.452
303.353
303.283
304.145
304.081
304.046
304.001
303.954
303.903
303.84
303.764
303.672
303.566
303.451
303.34
303.233
303.154
304.021
303.957
303.922
303.878
303.832
303.782
303.722
303.649
303.56
303.457
303.341
303.227
303.113
303.028
303.902
303.841
303.804
303.758
303.71
303.662
303.603
303.532
303.446
303.345
303.232
303.117
303.001
302.914
303.795
303.738
303.694
303.647
303.596
303.546
303.485
303.415
303.329
303.23
303.117
303.002
302.884
302.795
303.679
303.634
303.586
303.537
303.484
303.434
303.371
303.299
303.212
303.114
303.004
302.891
302.776
302.68
303.588
303.536
303.492
303.445
303.388
303.335
303.268
303.194
303.106
303.008
302.896
302.782
302.661
302.575
306.721
306.654
306.583
306.515
306.453
306.392
306.33
306.261
306.183
306.094
306.002
305.905
305.833
305.754
306.591
306.526
306.463
306.4
306.341
306.279
306.214
306.14
306.054
305.959
305.862
305.768
305.697
305.629
306.449
306.399
306.339
306.282
306.227
306.168
306.103
306.027
305.941
305.847
305.752
305.663
305.597
305.538
306.314
306.264
306.212
306.159
306.107
306.049
305.985
305.908
305.82
305.725
305.63
305.544
305.48
305.431
306.179
306.133
306.087
306.039
305.99
305.936
305.872
305.797
305.711
305.617
305.523
305.44
305.376
305.333
306.051
306.004
305.963
305.918
305.872
305.82
305.759
305.685
305.6
305.508
305.414
305.332
305.266
305.227
305.93
305.881
305.844
305.802
305.759
305.71
305.651
305.58
305.497
305.407
305.314
305.232
305.163
305.124
305.819
305.766
305.731
305.689
305.648
305.601
305.545
305.477
305.396
305.309
305.215
305.134
305.059
305.018
305.717
305.66
305.624
305.582
305.542
305.497
305.443
305.378
305.3
305.215
305.123
305.041
304.96
304.915
305.625
305.564
305.526
305.483
305.441
305.397
305.344
305.281
305.206
305.124
305.033
304.95
304.865
304.815
305.544
305.48
305.438
305.391
305.347
305.301
305.248
305.186
305.112
305.033
304.944
304.862
304.775
304.725
305.474
305.409
305.363
305.312
305.262
305.213
305.156
305.093
305.02
304.941
304.855
304.775
304.687
304.638
305.412
305.345
305.297
305.242
305.187
305.134
305.071
305.005
304.929
304.851
304.767
304.69
304.608
304.559
305.378
305.293
305.246
305.189
305.127
305.068
304.999
304.928
304.849
304.769
304.686
304.612
304.527
304.497
307.63
307.602
307.548
307.501
307.45
307.4
307.351
307.298
307.242
307.177
307.109
307.028
306.957
306.857
307.508
307.478
307.432
307.387
307.34
307.292
307.241
307.186
307.125
307.056
306.984
306.903
306.833
306.745
307.378
307.356
307.31
307.269
307.224
307.177
307.127
307.073
307.012
306.944
306.875
306.798
306.733
306.655
307.26
307.233
307.191
307.15
307.106
307.059
307.008
306.952
306.89
306.822
306.752
306.68
306.619
306.555
307.147
307.116
307.075
307.034
306.989
306.942
306.89
306.834
306.772
306.706
306.638
306.571
306.516
306.463
307.041
307.003
306.963
306.919
306.874
306.825
306.771
306.714
306.651
306.586
306.52
306.459
306.408
306.366
306.944
306.899
306.858
306.811
306.764
306.713
306.659
306.601
306.538
306.474
306.41
306.354
306.306
306.274
306.853
306.802
306.759
306.709
306.659
306.607
306.551
306.492
306.428
306.366
306.302
306.251
306.204
306.181
306.771
306.713
306.668
306.614
306.563
306.508
306.45
306.391
306.326
306.266
306.203
306.156
306.109
306.091
306.696
306.632
306.585
306.528
306.473
306.416
306.357
306.296
306.231
306.171
306.109
306.064
306.017
306.006
306.631
306.562
306.512
306.45
306.392
306.332
306.27
306.209
306.143
306.083
306.021
305.978
305.932
305.928
306.577
306.504
306.45
306.384
306.32
306.257
306.191
306.128
306.061
306.001
305.939
305.898
305.853
305.854
306.532
306.456
306.399
306.329
306.26
306.191
306.121
306.054
305.985
305.924
305.864
305.825
305.786
305.787
306.508
306.408
306.353
306.28
306.207
306.134
306.06
305.99
305.919
305.859
305.8
305.762
305.718
305.736
308.16
308.15
308.111
308.078
308.038
307.999
307.96
307.922
307.885
307.842
307.799
307.744
307.694
307.607
308.051
308.038
308.001
307.968
307.929
307.89
307.851
307.812
307.772
307.727
307.682
307.626
307.575
307.494
307.941
307.927
307.888
307.854
307.814
307.776
307.737
307.698
307.659
307.615
307.572
307.519
307.471
307.395
307.839
307.818
307.778
307.741
307.699
307.659
307.618
307.577
307.536
307.493
307.451
307.401
307.356
307.293
307.742
307.713
307.67
307.629
307.585
307.542
307.498
307.456
307.415
307.372
307.333
307.287
307.248
307.196
307.648
307.61
307.566
307.519
307.472
307.425
307.378
307.334
307.291
307.25
307.211
307.172
307.138
307.099
307.561
307.514
307.467
307.415
307.364
307.313
307.263
307.217
307.172
307.132
307.095
307.062
307.034
307.008
307.476
307.422
307.372
307.316
307.261
307.207
307.153
307.105
307.058
307.019
306.983
306.956
306.933
306.919
307.396
307.336
307.283
307.223
307.165
307.108
307.051
307.001
306.952
306.914
306.879
306.858
306.839
306.835
307.321
307.255
307.201
307.137
307.077
307.016
306.957
306.905
306.855
306.819
306.784
306.767
306.75
306.756
307.251
307.182
307.125
307.059
306.996
306.933
306.872
306.819
306.768
306.732
306.699
306.684
306.67
306.683
307.189
307.115
307.057
306.988
306.922
306.857
306.795
306.741
306.69
306.655
306.621
306.609
306.598
306.617
307.134
307.06
306.999
306.928
306.86
306.793
306.729
306.674
306.622
306.588
306.556
306.546
306.539
306.559
307.086
306.994
306.939
306.866
306.799
306.732
306.669
306.614
306.563
306.529
306.497
306.489
306.48
306.512
308.458
308.454
308.426
308.405
308.376
308.348
308.321
308.294
308.27
308.243
308.218
308.185
308.154
308.097
308.364
308.357
308.328
308.304
308.273
308.244
308.215
308.186
308.161
308.132
308.104
308.069
308.037
307.981
308.271
308.261
308.228
308.201
308.168
308.137
308.106
308.077
308.051
308.022
307.996
307.961
307.931
307.875
308.18
308.163
308.128
308.096
308.062
308.028
307.996
307.965
307.938
307.908
307.882
307.848
307.819
307.769
308.093
308.067
308.03
307.994
307.956
307.921
307.886
307.854
307.825
307.795
307.77
307.739
307.712
307.669
308.004
307.971
307.932
307.892
307.852
307.814
307.777
307.744
307.713
307.684
307.659
307.631
307.605
307.571
307.919
307.879
307.838
307.795
307.752
307.712
307.672
307.636
307.604
307.576
307.551
307.527
307.504
307.478
307.835
307.789
307.746
307.7
307.655
307.612
307.57
307.533
307.5
307.472
307.448
307.427
307.407
307.39
307.753
307.702
307.658
307.61
307.563
307.518
307.474
307.437
307.402
307.375
307.352
307.336
307.318
307.309
307.674
307.619
307.574
307.524
307.476
307.43
307.385
307.347
307.311
307.286
307.263
307.251
307.237
307.236
307.597
307.541
307.495
307.444
307.395
307.348
307.302
307.265
307.229
307.206
307.186
307.178
307.169
307.174
307.526
307.466
307.42
307.367
307.318
307.271
307.226
307.19
307.156
307.136
307.117
307.113
307.108
307.12
307.46
307.401
307.353
307.301
307.251
307.205
307.16
307.126
307.095
307.077
307.063
307.062
307.063
307.079
307.395
307.327
307.283
307.231
307.184
307.141
307.1
307.069
307.04
307.026
307.014
307.017
307.019
307.041
308.634
308.639
308.627
308.617
308.605
308.593
308.58
308.567
308.554
308.54
308.528
308.514
308.499
308.468
308.556
308.559
308.544
308.532
308.518
308.503
308.487
308.471
308.455
308.439
308.424
308.406
308.391
308.356
308.479
308.479
308.461
308.446
308.428
308.41
308.392
308.373
308.356
308.337
308.322
308.301
308.286
308.251
308.4
308.394
308.374
308.356
308.336
308.316
308.295
308.274
308.255
308.235
308.218
308.196
308.179
308.148
308.323
308.311
308.288
308.267
308.244
308.222
308.199
308.177
308.157
308.135
308.117
308.096
308.078
308.048
308.242
308.224
308.2
308.176
308.152
308.128
308.105
308.081
308.06
308.039
308.02
307.998
307.979
307.952
308.163
308.14
308.115
308.089
308.063
308.038
308.013
307.99
307.968
307.946
307.926
307.905
307.884
307.86
308.084
308.056
308.03
308.004
307.977
307.951
307.925
307.901
307.879
307.857
307.837
307.817
307.795
307.773
308.005
307.974
307.949
307.921
307.894
307.868
307.841
307.818
307.795
307.774
307.753
307.735
307.713
307.694
307.93
307.896
307.87
307.842
307.814
307.788
307.762
307.739
307.715
307.695
307.675
307.658
307.637
307.622
307.856
307.821
307.795
307.766
307.739
307.713
307.687
307.665
307.643
307.624
307.605
307.59
307.571
307.56
307.786
307.749
307.724
307.695
307.668
307.643
307.618
307.597
307.576
307.559
307.542
307.529
307.515
307.508
307.719
307.684
307.657
307.629
307.602
307.578
307.555
307.536
307.518
307.503
307.488
307.479
307.468
307.465
307.649
307.614
307.589
307.563
307.539
307.518
307.498
307.481
307.466
307.454
307.443
307.435
307.427
307.426
308.736
308.744
308.748
308.753
308.758
308.763
308.767
308.77
308.771
308.77
308.769
308.766
308.765
308.753
308.678
308.686
308.689
308.693
308.697
308.7
308.703
308.702
308.701
308.697
308.693
308.687
308.684
308.669
308.619
308.628
308.629
308.632
308.634
308.634
308.634
308.631
308.627
308.62
308.614
308.606
308.601
308.584
308.556
308.563
308.564
308.565
308.566
308.564
308.562
308.556
308.55
308.54
308.532
308.522
308.515
308.499
308.493
308.498
308.498
308.497
308.495
308.492
308.487
308.479
308.471
308.46
308.45
308.438
308.429
308.413
308.428
308.429
308.427
308.425
308.422
308.417
308.411
308.402
308.392
308.38
308.368
308.355
308.343
308.326
308.362
308.36
308.357
308.353
308.348
308.342
308.334
308.324
308.313
308.301
308.288
308.273
308.258
308.24
308.296
308.291
308.286
308.281
308.275
308.268
308.259
308.249
308.237
308.224
308.209
308.193
308.175
308.155
308.229
308.222
308.216
308.21
308.202
308.195
308.185
308.174
308.162
308.148
308.133
308.116
308.096
308.076
308.164
308.155
308.148
308.141
308.133
308.125
308.114
308.103
308.09
308.076
308.059
308.042
308.02
308.001
308.1
308.089
308.081
308.074
308.065
308.057
308.046
308.035
308.022
308.008
307.991
307.973
307.951
307.933
308.037
308.026
308.018
308.01
308.001
307.993
307.982
307.97
307.957
307.942
307.925
307.908
307.886
307.87
307.975
307.965
307.956
307.949
307.94
307.931
307.921
307.909
307.896
307.881
307.864
307.848
307.827
307.815
307.91
307.903
307.898
307.891
307.883
307.874
307.863
307.851
307.839
307.824
307.809
307.793
307.777
307.763
308.762
308.776
308.789
308.802
308.816
308.829
308.841
308.852
308.861
308.868
308.874
308.876
308.879
308.876
308.719
308.735
308.748
308.762
308.776
308.789
308.802
308.811
308.82
308.825
308.829
308.83
308.832
308.827
308.679
308.695
308.709
308.723
308.736
308.749
308.76
308.769
308.776
308.78
308.782
308.781
308.782
308.777
308.636
308.652
308.666
308.68
308.693
308.705
308.716
308.723
308.729
308.731
308.732
308.73
308.729
308.723
308.592
308.608
308.622
308.636
308.648
308.659
308.668
308.674
308.679
308.679
308.679
308.676
308.673
308.667
308.546
308.561
308.575
308.588
308.6
308.61
308.618
308.623
308.625
308.625
308.623
308.62
308.616
308.608
308.498
308.512
308.526
308.538
308.549
308.558
308.565
308.569
308.57
308.569
308.566
308.562
308.556
308.547
308.449
308.462
308.475
308.486
308.496
308.505
308.511
308.514
308.513
308.511
308.507
308.501
308.493
308.482
308.399
308.411
308.423
308.434
308.443
308.45
308.454
308.456
308.454
308.45
308.444
308.437
308.426
308.414
308.347
308.359
308.371
308.381
308.388
308.394
308.396
308.396
308.392
308.386
308.378
308.368
308.355
308.341
308.297
308.307
308.317
308.326
308.332
308.335
308.334
308.332
308.326
308.319
308.309
308.298
308.283
308.27
308.244
308.254
308.263
308.269
308.273
308.274
308.271
308.267
308.259
308.25
308.239
308.227
308.211
308.197
308.192
308.2
308.208
308.212
308.213
308.212
308.207
308.201
308.192
308.182
308.171
308.158
308.142
308.129
308.136
308.145
308.151
308.154
308.153
308.15
308.144
308.137
308.127
308.116
308.103