/*--------------------------------*- C++ -*----------------------------------*\
| =========                 |                                                 |
| \\      /  F ield         | OpenFOAM: The Open Source CFD Toolbox           |
|  \\    /   O peration     | Version:  v2106                                 |
|   \\  /    A nd           | Website:  www.openfoam.com                      |
|    \\/     M anipulation  |                                                 |
\*---------------------------------------------------------------------------*/
FoamFile
{
    version     2.0;
    format      ascii;
    arch        "LSB;label=32;scalar=64";
    class       volScalarField;
    location    "0.000212";
    object      p;
}
// * * * * * * * * * * * * * * * * * * * * * * * * * * * * * * * * * * * * * //

dimensions      [1 -1 -2 0 0 0 0];

internalField   nonuniform List<scalar> 
144746
(
195121
194995
194713
194582
194408
194305
194141
193982
193836
193756
193735
193760
193656
194053
194897
195060
194866
194798
194656
194563
194434
194293
194163
194052
194003
193972
193903
194127
194993
195187
195066
195030
194920
194830
194719
194603
194482
194358
194256
194167
194016
194033
195085
195280
195237
195237
195170
195103
195009
194901
194785
194672
194542
194395
194201
194055
195214
195396
195413
195425
195387
195330
195249
195151
195039
194923
194797
194633
194411
194177
195351
195522
195574
195607
195582
195532
195449
195355
195247
195138
195026
194859
194632
194367
195479
195635
195699
195743
195732
195692
195616
195523
195420
195319
195213
195075
194864
194585
195616
195724
195791
195842
195848
195818
195759
195679
195588
195494
195398
195269
195075
194800
195706
195768
195844
195900
195924
195908
195867
195801
195727
195653
195576
195460
195293
195041
195727
195782
195877
195938
195982
195983
195957
195909
195855
195803
195746
195651
195504
195276
195738
195813
195890
195970
196024
196042
196027
195996
195962
195935
195904
195836
195722
195517
195732
195808
195908
195986
196059
196086
196091
196077
196068
196060
196045
195996
195908
195721
195788
195823
195923
196014
196090
196125
196132
196133
196149
196149
196156
196108
196043
195828
195791
195715
195881
196003
196100
196136
196159
196184
196214
196232
196271
196312
196354
196296
194486
194916
194912
194943
194957
194982
194934
194864
194778
194758
194803
194857
194851
195258
194330
194814
194919
195034
195089
195115
195108
195082
195045
195043
195126
195208
195234
195514
194437
194879
194976
195122
195218
195259
195252
195219
195226
195271
195341
195400
195383
195515
194521
194905
195030
195188
195299
195332
195334
195317
195348
195383
195467
195516
195544
195589
194665
194980
195126
195279
195372
195413
195416
195411
195421
195470
195548
195624
195665
195703
194839
195102
195244
195384
195460
195499
195510
195516
195542
195576
195621
195713
195778
195831
194995
195233
195342
195459
195528
195571
195593
195612
195642
195685
195746
195794
195872
195946
195104
195316
195427
195535
195598
195646
195679
195707
195746
195797
195859
195911
195962
196044
195154
195350
195469
195565
195632
195690
195735
195783
195837
195904
195970
196032
196081
196156
195148
195339
195476
195577
195660
195733
195795
195862
195929
196013
196085
196156
196192
196253
195132
195290
195438
195553
195655
195746
195827
195913
195999
196101
196185
196288
196317
196367
195096
195265
195410
195544
195668
195777
195875
195972
196071
196183
196288
196393
196454
196465
195063
195194
195363
195514
195654
195775
195891
196001
196116
196242
196367
196483
196575
196543
194932
195055
195298
195485
195651
195784
195906
196021
196142
196279
196432
196595
196758
196751
193913
194597
194777
194940
195014
195052
195014
194976
194916
194894
194972
195084
195182
195673
194090
194704
194954
195157
195256
195305
195282
195243
195238
195293
195420
195614
195807
196275
194485
194967
195245
195454
195567
195625
195618
195591
195593
195625
195770
195946
196128
196504
194872
195262
195540
195750
195867
195923
195922
195913
195927
195988
196118
196291
196464
196748
195291
195620
195887
196076
196188
196239
196250
196255
196284
196349
196481
196618
196784
196997
195710
196015
196250
196413
196514
196562
196580
196591
196628
196710
196835
196959
197102
197253
196072
196359
196570
196723
196820
196874
196904
196927
196970
197059
197180
197298
197420
197517
196410
196685
196885
197027
197119
197184
197221
197258
197312
197399
197515
197634
197735
197788
196650
196925
197128
197275
197376
197456
197511
197571
197642
197742
197853
197969
198051
198071
196821
197100
197315
197483
197605
197708
197787
197874
197964
198077
198188
198297
198372
198371
196880
197188
197422
197617
197776
197912
198025
198144
198261
198393
198514
198626
198705
198690
196872
197199
197499
197737
197930
198095
198241
198393
198537
198692
198825
198946
199039
198985
196785
197126
197467
197743
197974
198180
198380
198580
198759
198940
199092
199224
199345
199368
196401
196941
197368
197761
198054
198315
198540
198761
198957
199150
199305
199422
199634
199609
194873
195582
195361
195633
195441
196723
193523
194095
194200
194927
195112
196055
193694
194025
194064
194773
194873
196059
193747
193866
193798
194459
194639
195685
193909
193898
193801
194418
194443
195725
194086
193988
193831
194396
194346
195846
194267
194167
194006
194559
194521
195992
194467
194352
194165
194688
194688
196179
194710
194627
194451
194917
194902
196411
194977
194898
194717
195155
195207
196775
195310
195320
195198
195660
195689
196642
195583
195555
195497
195902
196028
196724
195868
195971
196025
196358
196448
197267
195541
195724
195779
196325
196565
196903
196111
196659
196419
196504
196064
197176
194991
195370
195262
195828
195830
196750
195248
195541
195412
196065
195980
197094
195428
195594
195457
196063
196145
196813
195633
195760
195688
196297
196368
196747
195813
195933
195897
196389
196471
196764
195954
196093
196102
196547
196621
196857
196072
196227
196270
196650
196739
197049
196200
196355
196419
196741
196875
197114
196302
196445
196517
196768
196907
197084
196425
196558
196656
196838
196950
197175
196572
196632
196685
196821
196954
197126
196727
196768
196845
196990
197089
197269
196392
196448
196474
196599
196808
196913
196683
196931
196968
196981
196611
197081
195965
196243
196083
196440
196309
197240
196324
196547
196397
196836
196748
197319
196640
196773
196635
196948
196887
197495
196962
197067
196988
197278
197284
197735
197288
197368
197316
197526
197536
197810
197606
197664
197639
197742
197725
197819
197920
197953
197955
197933
197897
197801
198228
198254
198297
198170
198100
197766
198544
198572
198624
198399
198249
197755
198889
198932
198972
198721
198489
197891
199207
199286
199258
198989
198632
197974
199558
199584
199516
199216
198882
198133
199529
199492
199306
198985
198545
197928
196780
197281
197116
197470
197476
198171
196008
196468
196405
196943
196955
197161
196177
196502
196429
196996
197046
197539
196213
196394
196339
196771
196883
197196
196248
196369
196360
196660
196780
197163
196237
196308
196292
196456
196542
196717
196198
196230
196202
196311
196410
196731
196160
196157
196127
196181
196253
196504
196124
196095
196080
196113
196187
196553
196103
196048
196063
196084
196151
196500
196061
195981
196005
196047
196121
196535
196018
195923
195889
195988
196032
196484
195958
195899
195805
195960
196043
196666
195216
195088
195035
195320
195509
196191
197209
197484
197417
197553
197502
197707
196634
196927
196907
197151
197111
197178
196566
196798
196776
197014
197074
197244
196438
196611
196597
196747
196848
196881
196319
196438
196456
196530
196667
196688
196187
196256
196276
196275
196368
196292
196042
196073
196083
196027
196130
196056
195909
195886
195873
195768
195842
195723
195779
195706
195676
195563
195656
195543
195648
195500
195480
195369
195489
195394
195503
195276
195282
195155
195277
195268
195354
195067
195060
194949
195056
195025
195224
194903
194859
194817
194991
195189
194410
194045
193969
194071
194368
194517
200175
200312
200291
199937
199323
198501
199790
199974
200059
199696
199098
198164
199668
199807
199869
199490
198941
197821
199482
199627
199676
199250
198672
197409
199311
199415
199417
198898
198233
196721
199073
199134
199060
198380
197578
195728
198833
198815
198609
197714
196769
194567
198562
198439
198078
197029
195877
193220
198250
198033
197506
196316
194980
191999
197926
197617
196939
195539
194149
190969
197593
197130
196403
194774
193428
190203
197286
196551
195858
194072
192811
189588
196973
195941
195301
193611
192505
189783
195864
194541
193814
192357
191606
189150
197180
195489
195265
194545
194275
194263
196954
196199
196022
195516
195285
195292
196192
195594
195474
195064
194995
195135
196976
195090
195132
194826
194901
195104
197058
194868
194922
194713
194856
195109
196405
195357
195177
194878
194958
195196
196089
195149
195161
194975
195100
195311
196050
195201
195249
195121
195269
195423
195776
195088
195183
195139
195352
195478
195996
195298
195368
195251
195438
195511
195976
195301
195419
195268
195471
195505
196371
195584
195737
195454
195631
195491
196173
195563
195751
195462
195681
195464
196934
196308
196511
196366
196309
196058
195519
194299
193873
193254
193095
193463
195356
194568
194424
194211
194267
194650
194826
194119
194037
193936
194058
194500
195232
194096
194043
193938
194073
194497
194975
194043
194048
194021
194168
194555
194843
194032
194082
194160
194330
194684
194631
193952
194077
194224
194463
194783
194611
194057
194160
194326
194577
194884
194440
194026
194135
194329
194610
194927
194633
194268
194302
194398
194647
194918
194646
194350
194375
194420
194662
194876
194967
194623
194617
194501
194687
194786
194851
194607
194591
194489
194717
194720
195453
195338
195336
195323
195231
195183
190333
191107
190845
191117
191476
192645
190006
191406
191561
192516
193012
194225
189043
191037
191302
192558
193093
194316
189111
191234
191562
192896
193428
194557
189065
191450
191944
193248
193855
194846
189626
191916
192490
193722
194407
195254
190215
192383
192987
194148
194891
195645
190849
192843
193502
194602
195349
195994
191158
193044
193821
194907
195678
196245
191400
193239
194133
195196
195938
196437
191390
193252
194226
195311
196007
196498
191199
193178
194178
195317
195996
196481
190697
192799
193691
195047
195832
196352
190219
192623
193773
195190
195811
196348
196706
195360
195099
194049
193512
193160
196654
195564
195329
194567
194194
193954
196901
195513
195165
194242
193917
193785
197088
195488
195174
194191
193841
193663
197249
195416
195044
194003
193725
193603
197333
195449
195032
193988
193729
193568
197330
195413
194969
193981
193790
193692
197219
195548
195065
194161
194002
193887
197022
195635
195106
194323
194181
194078
197170
195693
195307
194546
194390
194226
197040
195699
195414
194657
194534
194369
197490
195990
195762
194981
194880
194533
197141
195842
195909
195148
195047
194538
197989
196603
196813
196503
196604
195877
196402
195530
195086
194269
193945
193980
196297
195377
195280
194870
194768
195002
196176
194949
194892
194449
194463
194752
196167
194744
194796
194296
194325
194581
196128
194519
194627
194122
194238
194486
196141
194493
194637
194153
194297
194525
196148
194542
194680
194268
194447
194640
196149
194865
194877
194486
194609
194726
196053
195000
195001
194641
194738
194793
196052
195147
195210
194777
194821
194788
195953
195235
195263
194746
194809
194751
196542
195342
195341
194772
194872
194711
196154
194896
195064
194590
194656
194495
196597
195528
195840
195673
195744
195311
195837
195208
194602
194212
194187
194418
195610
194751
194709
194669
194721
195242
194822
194130
194067
194130
194350
194866
194571
193855
193902
193906
194171
194630
194531
193598
193731
193719
194061
194508
194655
193617
193793
193780
194120
194520
194750
193793
193972
193952
194255
194598
195026
194102
194134
194084
194351
194664
194849
194127
194210
194188
194443
194732
194800
194141
194179
194137
194417
194706
194251
193674
193794
193911
194249
194573
194044
193492
193599
193723
194060
194363
192859
193020
193196
193493
193802
194037
192592
192948
193550
194355
194411
194668
194427
194839
194999
195130
195175
195169
195120
195071
195051
195076
195170
195341
195478
195905
194698
195045
195210
195386
195467
195502
195488
195457
195472
195525
195636
195832
196060
196572
195095
195388
195543
195713
195799
195837
195837
195824
195845
195904
196044
196240
196486
196940
195552
195798
195955
196096
196174
196205
196214
196211
196237
196318
196477
196693
196911
197327
196090
196275
196413
196520
196584
196609
196616
196611
196642
196736
196910
197133
197372
197750
196633
196766
196877
196962
197013
197036
197039
197035
197073
197182
197362
197593
197843
198186
197130
197242
197339
197408
197446
197466
197467
197474
197523
197641
197824
198060
198313
198627
197624
197713
197784
197836
197867
197887
197893
197917
197984
198110
198296
198536
198783
199086
198050
198117
198174
198223
198258
198286
198310
198359
198447
198589
198778
199021
199259
199561
198485
198512
198552
198601
198644
198686
198733
198807
198917
199077
199271
199522
199758
200060
198799
198832
198888
198950
199011
199074
199151
199255
199393
199575
199780
200043
200286
200577
199192
199195
199252
199316
199390
199474
199585
199719
199888
200094
200317
200599
200850
201128
199370
199460
199521
199608
199715
199839
199997
200177
200390
200632
200874
201180
201434
201751
199774
199884
199982
200090
200208
200338
200507
200703
200933
201203
201466
201822
202066
202507
195114
195268
195318
195348
195348
195302
195235
195160
195103
195076
195110
195236
195376
195705
195489
195585
195604
195671
195688
195675
195644
195609
195590
195610
195690
195851
196009
196417
195926
196019
196028
196081
196100
196092
196073
196052
196042
196065
196156
196324
196531
196942
196463
196502
196518
196554
196563
196554
196537
196520
196514
196556
196675
196875
197103
197484
197024
197038
197049
197068
197067
197053
197028
197005
197004
197058
197196
197408
197673
198047
197575
197581
197582
197593
197587
197569
197539
197515
197521
197592
197746
197975
198257
198619
198114
198116
198107
198113
198104
198084
198054
198035
198055
198144
198309
198546
198835
199181
198653
198634
198611
198607
198598
198584
198562
198563
198602
198709
198883
199122
199413
199742
199173
199128
199091
199082
199077
199074
199071
199095
199158
199284
199465
199705
199991
200307
199676
199607
199561
199548
199551
199562
199584
199634
199722
199866
200055
200299
200582
200888
200132
200063
200021
200007
200020
200048
200098
200177
200293
200456
200658
200906
201187
201482
200620
200551
200506
200490
200513
200557
200636
200742
200884
201064
201280
201534
201817
202113
200969
200956
200937
200939
200986
201060
201176
201316
201490
201698
201932
202202
202479
202803
201581
201567
201555
201559
201608
201679
201798
201948
202135
202365
202609
202907
203176
203561
195964
195863
195748
195674
195609
195527
195430
195330
195222
195131
195076
195124
195196
195398
196452
196298
196160
196063
195993
195932
195866
195801
195738
195702
195713
195807
195905
196152
196935
196786
196649
196546
196472
196411
196350
196299
196255
196227
196250
196351
196482
196797
197487
197328
197200
197102
197020
196951
196882
196832
196792
196780
196828
196964
197137
197409
198042
197904
197783
197692
197608
197530
197452
197395
197353
197355
197422
197575
197778
198081
198613
198485
198369
198287
198203
198123
198040
197979
197938
197954
198042
198217
198452
198760
199191
199062
198944
198866
198787
198712
198634
198575
198543
198574
198679
198867
199120
199440
199786
199642
199514
199434
199360
199293
199227
199176
199159
199206
199326
199520
199795
200108
200376
200215
200072
199984
199915
199859
199811
199778
199782
199847
199982
200180
200466
200768
200967
200794
200635
200541
200476
200432
200404
200391
200417
200498
200646
200850
201144
201431
201536
201359
201189
201089
201034
201004
200997
201011
201062
201158
201321
201527
201824
202085
202123
201943
201776
201675
201629
201609
201620
201656
201729
201842
202017
202226
202526
202757
202683
202506
202354
202251
202219
202218
202255
202320
202415
202552
202744
202962
203252
203473
203350
203171
203031
202922
202891
202893
202939
203018
203135
203288
203493
203719
203998
204196
196785
196474
196270
196068
195943
195820
195688
195530
195376
195177
195013
194921
194909
195025
197264
196977
196744
196545
196403
196281
196160
196024
195891
195756
195666
195646
195677
195835
197739
197498
197280
197090
196942
196813
196687
196563
196435
196330
196273
196277
196341
196543
198271
198047
197856
197682
197532
197392
197257
197134
197018
196933
196906
196953
197067
197267
198839
198628
198451
198292
198143
197999
197856
197734
197628
197562
197556
197632
197770
197996
199438
199225
199048
198898
198754
198613
198471
198350
198255
198208
198226
198325
198495
198734
200065
199837
199647
199499
199356
199221
199087
198974
198891
198861
198901
199018
199210
199462
200710
200464
200253
200097
199952
199824
199700
199597
199530
199518
199578
199709
199923
200172
201350
201092
200859
200694
200546
200427
200317
200228
200176
200179
200254
200392
200616
200853
201980
201722
201473
201301
201150
201039
200943
200869
200832
200850
200938
201083
201314
201533
202577
202328
202079
201909
201767
201670
201590
201532
201507
201534
201630
201777
202006
202192
203170
202943
202704
202540
202410
202323
202258
202215
202205
202243
202350
202495
202723
202868
203749
203544
203331
203186
203083
203011
202963
202934
202932
202979
203096
203236
203452
203570
204344
204197
204013
203873
203788
203724
203692
203676
203689
203741
203861
203989
204185
204295
197410
197038
196771
196503
196337
196167
195989
195779
195553
195298
195035
194828
194699
194698
197883
197559
197299
197041
196845
196656
196477
196276
196066
195863
195670
195556
195485
195519
198323
198046
197814
197580
197390
197199
197011
196815
196619
196453
196296
196223
196198
196282
198844
198586
198381
198167
197975
197780
197587
197394
197208
197068
196954
196921
196960
197072
199440
199176
198976
198772
198578
198381
198186
198002
197830
197704
197631
197628
197699
197841
200094
199815
199594
199388
199188
198992
198799
198622
198471
198358
198318
198347
198442
198609
200770
200478
200225
200008
199799
199604
199416
199250
199117
199033
199008
199057
199171
199352
201445
201146
200864
200634
200413
200218
200034
199880
199764
199702
199700
199762
199895
200074
202088
201797
201498
201262
201032
200840
200662
200519
200416
200365
200378
200450
200593
200763
202701
202428
202126
201891
201657
201471
201299
201166
201077
201037
201063
201143
201293
201446
203269
203026
202742
202526
202303
202128
201961
201835
201751
201717
201748
201828
201981
202096
203823
203619
203359
203165
202961
202797
202641
202524
202451
202423
202462
202540
202696
202762
204384
204215
203998
203839
203665
203510
203359
203243
203170
203145
203188
203258
203411
203433
204972
204848
204670
204522
204374
204226
204087
203977
203912
203886
203930
204001
204131
204140
197915
197578
197309
197014
196787
196564
196341
196085
195817
195513
195204
194901
194680
194543
198371
198056
197797
197521
197284
197043
196813
196565
196311
196048
195798
195583
195421
195348
198819
198520
198282
198022
197794
197557
197323
197078
196841
196612
196404
196235
196122
196104
199362
199063
198827
198577
198342
198101
197865
197626
197404
197203
197041
196915
196865
196886
199989
199675
199423
199168
198922
198675
198438
198209
197998
197822
197695
197608
197599
197659
200675
200345
200060
199782
199518
199266
199030
198812
198618
198460
198359
198310
198338
198426
201357
201020
200701
200408
200128
199872
199638
199429
199251
199111
199026
199014
199064
199165
202012
201679
201339
201036
200743
200487
200253
200053
199888
199768
199708
199716
199782
199883
202622
202304
201961
201662
201366
201112
200879
200686
200531
200427
200383
200401
200475
200567
203190
202902
202569
202283
201990
201742
201512
201330
201187
201096
201066
201090
201168
201245
203729
203485
203178
202919
202637
202396
202167
201990
201854
201769
201745
201769
201845
201892
204271
204071
203791
203558
203295
203062
202840
202671
202543
202465
202448
202471
202547
202555
204856
204708
204465
204257
204007
203770
203545
203370
203242
203165
203151
203162
203234
203200
205509
205370
205155
204945
204712
204474
204253
204079
203955
203878
203868
203879
203935
203892
198334
198019
197752
197451
197177
196900
196640
196354
196079
195781
195475
195142
194873
194650
198819
198486
198217
197921
197644
197357
197084
196810
196545
196281
196022
195771
195535
195379
199295
198954
198690
198395
198120
197838
197565
197295
197044
196805
196579
196376
196188
196082
199858
199512
199231
198925
198639
198351
198078
197815
197574
197354
197164
197004
196869
196802
200469
200124
199822
199507
199204
198908
198632
198374
198141
197937
197773
197648
197548
197521
201128
200784
200450
200115
199792
199491
199217
198966
198742
198551
198405
198304
198243
198252
201771
201426
201071
200729
200399
200098
199826
199581
199367
199187
199053
198963
198942
198966
202380
202041
201679
201339
201009
200714
200446
200209
200003
199837
199712
199644
199642
199665
202948
202621
202265
201940
201620
201333
201070
200841
200642
200487
200371
200318
200326
200333
203482
203183
202841
202535
202226
201951
201695
201476
201287
201145
201040
200999
201007
200999
204015
203759
203436
203154
202853
202585
202331
202117
201934
201800
201702
201660
201665
201635
204566
204354
204045
203780
203490
203226
202976
202769
202595
202470
202380
202335
202345
202288
205198
205033
204742
204475
204177
203899
203641
203430
203255
203130
203042
202988
202994
202899
205915
205707
205424
205137
204841
204559
204303
204095
203927
203806
203727
203677
203671
203581
198750
198428
198156
197855
197562
197241
196931
196601
196298
195997
195712
195406
195146
194908
199277
198918
198623
198304
197995
197664
197343
197029
196739
196468
196220
195980
195738
195548
199751
199388
199088
198759
198442
198114
197797
197491
197215
196965
196740
196534
196329
196182
200278
199920
199602
199258
198929
198599
198289
197994
197730
197493
197288
197114
196950
196843
200822
200479
200152
199807
199468
199137
198829
198542
198284
198057
197867
197716
197582
197503
201402
201070
200726
200377
200033
199708
199409
199132
198882
198660
198479
198337
198234
198173
201984
201649
201296
200953
200619
200306
200017
199748
199503
199286
199110
198974
198883
198833
202547
202210
201857
201527
201206
200909
200633
200374
200136
199924
199752
199623
199530
199483
203080
202747
202404
202094
201791
201512
201247
200998
200766
200560
200387
200262
200166
200117
203592
203281
202947
202658
202371
202108
201854
201615
201391
201191
201023
200902
200809
200748
204128
203852
203527
203251
202971
202713
202462
202226
202005
201811
201643
201526
201437
201353
204700
204457
204129
203855
203573
203316
203067
202837
202623
202438
202276
202161
202084
201971
205367
205149
204817
204522
204218
203942
203680
203446
203232
203047
202888
202768
202696
202551
206094
205818
205475
205146
204830
204547
204285
204058
203854
203684
203537
203424
203353
203237
199152
198840
198569
198269
197971
197631
197286
196909
196556
196215
195922
195621
195376
195157
199682
199333
199030
198704
198384
198034
197681
197325
196988
196678
196415
196170
195935
195743
200132
199782
199472
199137
198809
198464
198120
197778
197461
197175
196928
196710
196498
196331
200612
200264
199940
199598
199268
198930
198602
198279
197980
197711
197476
197280
197094
196954
201093
200760
200435
200101
199775
199450
199137
198832
198547
198288
198060
197872
197702
197575
201599
201274
200947
200627
200314
200009
199716
199431
199158
198903
198675
198484
198328
198203
202114
201789
201469
201166
200875
200593
200321
200051
199788
199532
199301
199102
198943
198811
202631
202308
201995
201711
201439
201181
200928
200672
200414
200159
199924
199715
199545
199402
203134
202821
202517
202253
202001
201762
201522
201274
201019
200762
200522
200306
200120
199968
203640
203346
203044
202795
202554
202327
202093
201849
201595
201339
201099
200882
200689
200538
204177
203908
203603
203359
203115
202887
202649
202400
202142
201887
201650
201439
201250
201079
204769
204510
204183
203924
203664
203426
203178
202928
202674
202431
202203
202003
201827
201647
205436
205172
204823
204534
204240
203974
203708
203451
203200
202964
202742
202547
202379
202203
206115
205790
205413
205084
204773
204496
204231
203984
203748
203536
203332
203162
203005
202866
195054
195187
195161
194736
195084
195403
194415
194294
194109
193947
194481
195007
194643
194416
194189
194039
194513
194904
194800
194510
194194
193871
194071
194249
194864
194514
194145
193742
193790
193711
194831
194411
194028
193645
193628
193331
194766
194286
193920
193600
193597
193283
194729
194224
193863
193469
193291
192745
194704
194145
193745
193250
192985
192277
194712
194132
193717
193159
193042
192285
194794
194273
193943
193421
193555
192662
195011
194448
194197
193664
194178
193327
195423
194847
194891
194540
195079
194226
195129
194729
194602
194558
195467
195417
195431
195651
195578
195494
195297
195429
194933
194962
194838
194832
194794
195249
195009
194926
194829
194903
194985
195554
195025
194871
194752
194747
194783
195403
195001
194778
194602
194449
194358
194781
194902
194582
194268
193912
193597
193833
194803
194352
193894
193449
193105
193416
194720
194160
193642
193114
192689
192949
194677
194041
193503
192880
192348
192453
194661
193960
193417
192766
192219
192095
194715
194054
193564
192965
192421
192006
194824
194194
193711
193162
192820
192354
195152
194610
194371
193978
193639
193159
194980
194548
194159
193946
194056
194132
196049
196158
196124
196063
195851
195764
195550
195477
195251
195139
195134
195262
195457
195341
195231
195268
195290
195507
195349
195194
195086
195172
195236
195562
195270
195079
194953
194994
194952
195089
195143
194874
194632
194476
194193
194114
194997
194603
194228
193851
193470
193477
194857
194338
193829
193308
192906
192980
194749
194114
193563
192963
192478
192432
194674
193950
193380
192703
192199
192036
194666
193942
193417
192751
192185
191833
194706
194015
193496
192863
192390
192062
194930
194348
193981
193500
192982
192563
194722
194233
193809
193457
193381
193338
196719
196747
196791
196653
196350
196150
196130
196025
195766
195519
195416
195386
195920
195756
195559
195382
195154
195131
195680
195463
195232
195101
194966
195050
195537
195297
195041
194922
194836
194950
195377
195087
194760
194558
194377
194263
195201
194834
194396
194049
193684
193436
195014
194545
193997
193469
192975
192810
194822
194229
193616
193023
192478
192305
194645
193943
193320
192684
192180
191975
194531
193802
193240
192630
192072
191733
194471
193762
193234
192635
192143
191836
194599
193989
193586
193083
192536
192140
194357
193844
193442
193028
192826
192667
197340
197311
197330
197325
197094
196930
196752
196647
196419
196294
196144
196111
196438
196255
196022
195856
195545
195422
196107
195827
195529
195324
195058
194965
195898
195565
195245
194994
194721
194696
195694
195312
194943
194628
194326
194212
195487
195063
194601
194228
193782
193477
195244
194769
194210
193676
193066
192667
194997
194426
193780
193169
192511
192133
194720
194050
193374
192727
192136
191804
194513
193786
193174
192554
191966
191564
194352
193583
193014
192402
191911
191607
194355
193647
193226
192708
192198
191851
194018
193441
193053
192634
192456
192323
197867
197817
197810
197818
197694
197621
197352
197263
197099
197037
196895
196865
197032
196865
196640
196472
196177
196014
196654
196373
196054
195833
195523
195357
196361
195992
195606
195327
195006
194895
196088
195654
195212
194866
194532
194389
195841
195374
194873
194463
194082
193832
195563
195064
194503
193964
193383
192951
195272
194714
194066
193445
192755
192257
194937
194282
193597
192943
192283
191812
194658
193956
193313
192665
192021
191471
194405
193631
193013
192354
191824
191405
194282
193552
193073
192539
192028
191609
193853
193225
192797
192355
192140
192037
198296
198248
198217
198205
198104
198035
197818
197755
197610
197569
197433
197359
197509
197374
197159
197020
196755
196507
197131
196889
196581
196353
195988
195718
196798
196452
196057
195742
195323
195054
196458
196035
195577
195193
194763
194520
196157
195691
195186
194759
194364
194119
195846
195347
194803
194302
193757
193362
195559
195025
194396
193800
193147
192636
195233
194603
193924
193277
192624
192144
194948
194267
193610
192940
192286
191698
194658
193890
193243
192542
191963
191486
194460
193721
193186
192598
192058
191546
193965
193272
192774
192263
191964
191768
198659
198582
198515
198464
198340
198269
198196
198077
197894
197820
197704
197642
197897
197735
197505
197363
197146
196984
197549
197320
197030
196826
196514
196244
197215
196918
196561
196266
195867
195526
196842
196475
196056
195687
195261
194906
196489
196063
195598
195198
194783
194454
196122
195651
195142
194680
194198
193808
195812
195320
194751
194225
193661
193201
195486
194906
194294
193729
193171
192742
195226
194609
194023
193422
192824
192260
194969
194275
193677
193011
192423
191925
194767
194086
193569
192982
192422
191860
194265
193591
193099
192568
192189
191867
199018
198909
198825
198778
198632
198492
198573
198395
198154
198016
197845
197743
198282
198065
197780
197569
197316
197144
197949
197687
197366
197119
196808
196535
197631
197335
196974
196671
196287
195899
197251
196906
196499
196135
195662
195201
196868
196461
196013
195594
195105
194634
196450
195992
195492
195018
194483
194012
196084
195607
195068
194552
193961
193493
195720
195166
194585
194042
193487
193083
195455
194870
194339
193769
193194
192665
195210
194574
194032
193388
192794
192279
195030
194402
193915
193337
192767
192162
194564
193927
193438
192888
192445
192049
196848
197137
197557
197354
197715
196963
196651
196948
197234
197416
198134
198178
197132
197382
197707
198094
198986
199546
197626
197902
198314
198839
199832
200647
198093
198450
198959
199586
200656
201684
198567
198999
199610
200365
201490
202682
199018
199534
200247
201139