/*--------------------------------*- C++ -*----------------------------------*\
| =========                 |                                                 |
| \\      /  F ield         | OpenFOAM: The Open Source CFD Toolbox           |
|  \\    /   O peration     | Version:  v2106                                 |
|   \\  /    A nd           | Website:  www.openfoam.com                      |
|    \\/     M anipulation  |                                                 |
\*---------------------------------------------------------------------------*/
FoamFile
{
    version     2.0;
    format      ascii;
    arch        "LSB;label=32;scalar=64";
    class       volVectorField;
    location    "0.000181";
    object      U;
}
// * * * * * * * * * * * * * * * * * * * * * * * * * * * * * * * * * * * * * //

dimensions      [0 1 -1 0 0 0 0];

internalField   nonuniform List<vector> 
17927
(
(0.0107343 0.0107562 -1.09679)
(0.0102203 0.0118211 -1.09749)
(0.00905351 0.0126752 -1.0985)
(0.00737559 0.0133692 -1.09906)
(0.00545542 0.0139469 -1.09938)
(0.00334959 0.0143377 -1.09961)
(0.00123591 0.0144936 -1.0999)
(0.0118011 0.0102334 -1.09749)
(0.0108648 0.0108779 -1.09912)
(0.0092618 0.011638 -1.09973)
(0.00749468 0.0122156 -1.10015)
(0.00553962 0.0126766 -1.10037)
(0.00342969 0.0130012 -1.10056)
(0.00127573 0.013113 -1.10085)
(0.0126535 0.00906123 -1.09852)
(0.0116243 0.00927036 -1.09974)
(0.0100421 0.0100499 -1.10022)
(0.00819945 0.0105802 -1.10075)
(0.00609143 0.0109636 -1.10112)
(0.00379092 0.011268 -1.10143)
(0.00140076 0.0113782 -1.10181)
(0.0133452 0.00737785 -1.09909)
(0.0121998 0.00749876 -1.10017)
(0.0105724 0.00820279 -1.10076)
(0.00866951 0.00867225 -1.10146)
(0.00646344 0.00898676 -1.10198)
(0.00403181 0.00924168 -1.10234)
(0.00148575 0.00933332 -1.10274)
(0.0139221 0.00545415 -1.09943)
(0.0126593 0.00553999 -1.1004)
(0.0109549 0.00609144 -1.10114)
(0.0089838 0.00646353 -1.10199)
(0.00669684 0.00669712 -1.1027)
(0.00416644 0.00688977 -1.10314)
(0.00153405 0.00696068 -1.10359)
(0.0143135 0.00334607 -1.09966)
(0.0129832 0.00342739 -1.10059)
(0.0112579 0.00378871 -1.10146)
(0.00923786 0.00403042 -1.10235)
(0.00688978 0.00416573 -1.10315)
(0.00427945 0.00427826 -1.10364)
(0.00157868 0.00432051 -1.10413)
(0.0144711 0.00123099 -1.09995)
(0.0130966 0.00127341 -1.10089)
(0.0113692 0.00140089 -1.10184)
(0.00932975 0.00148801 -1.10275)
(0.00696022 0.00153774 -1.1036)
(0.00432044 0.00158226 -1.10414)
(0.00159693 0.00160263 -1.10467)
(0.0144668 -0.00108606 -1.09994)
(0.0130968 -0.00111298 -1.10089)
(0.0113703 -0.00123252 -1.10184)
(0.00933112 -0.00131056 -1.10275)
(0.00696068 -0.00135443 -1.10359)
(0.00431988 -0.00139697 -1.10413)
(0.00159411 -0.00141308 -1.10466)
(0.0143307 -0.00321143 -1.09964)
(0.0130006 -0.00327677 -1.10058)
(0.0112719 -0.00362978 -1.10145)
(0.00924943 -0.00386196 -1.10234)
(0.00689811 -0.003991 -1.10314)
(0.0042834 -0.00410209 -1.10363)
(0.00157455 -0.00414102 -1.10411)
(0.00889174 0.0088737 -1.10356)
(0.00856138 0.00984598 -1.10415)
(0.00781899 0.0106505 -1.10533)
(0.00648106 0.0113617 -1.10605)
(0.00483767 0.0119489 -1.10648)
(0.00296905 0.0123668 -1.10681)
(0.00111799 0.012538 -1.10722)
(-0.00101265 0.0125365 -1.10724)
(-0.00287082 0.0123802 -1.10686)
(-0.00474507 0.0119664 -1.10655)
(-0.00639982 0.0113862 -1.10615)
(-0.0077529 0.0106789 -1.10543)
(-0.00851387 0.00987407 -1.10426)
(-0.00886108 0.00889491 -1.10367)
(0.00986784 0.00852851 -1.10417)
(0.00929908 0.00926306 -1.10596)
(0.00788656 0.009959 -1.1069)
(0.00639323 0.0105301 -1.10755)
(0.00469722 0.0109315 -1.10788)
(0.0028742 0.0111987 -1.10817)
(0.00110661 0.0112647 -1.10861)
(-0.0009868 0.0112638 -1.10863)
(-0.00276498 0.0112164 -1.10822)
(-0.00459349 0.010955 -1.10796)
(-0.00630181 0.0105616 -1.10765)
(-0.00781104 0.00999513 -1.10701)
(-0.00923976 0.00929889 -1.10608)
(-0.00983753 0.0085577 -1.10428)
(0.0106701 0.00778817 -1.10536)
(0.00999329 0.00785122 -1.10692)
(0.008574 0.00853636 -1.10765)
(0.00702964 0.00902891 -1.10844)
(0.00520694 0.00934893 -1.10893)
(0.00321198 0.00959041 -1.10939)
(0.00123744 0.00964356 -1.10997)
(-0.00111193 0.00964444 -1.10999)
(-0.00309574 0.00960675 -1.10944)
(-0.00509576 0.00937308 -1.10901)
(-0.00693179 0.0090631 -1.10854)
(-0.00849491 0.00857564 -1.10777)
(-0.00993203 0.00788865 -1.10704)
(-0.0106389 0.00782181 -1.10547)
(0.0113759 0.00645153 -1.10611)
(0.0105599 0.00636186 -1.10759)
(0.0090648 0.00699603 -1.10845)
(0.00743048 0.00739673 -1.10944)
(0.0055065 0.00763995 -1.11017)
(0.00339271 0.00782382 -1.11069)
(0.00131169 0.00784792 -1.11131)
(-0.00117634 0.00784997 -1.11133)
(-0.00326659 0.00783741 -1.11074)
(-0.00538613 0.00766083 -1.11025)
(-0.00732538 0.00742838 -1.10955)
(-0.00898219 0.00703485 -1.10857)
(-0.0104999 0.00640048 -1.10771)
(-0.0113453 0.00648538 -1.10622)
(0.0119607 0.00481571 -1.10655)
(0.0109593 0.0046742 -1.10793)
(0.00938447 0.00518189 -1.10896)
(0.00767386 0.00548066 -1.11018)
(0.00568181 0.00565567 -1.11116)
(0.00348697 0.00580259 -1.11179)
(0.00135432 0.00582951 -1.11248)
(-0.00121024 0.00583204 -1.1125)
(-0.00335269 0.00581427 -1.11184)
(-0.00555369 0.0056729 -1.11124)
(-0.0075605 0.00550601 -1.11028)
(-0.00929688 0.00521537 -1.10907)
(-0.0108988 0.00470904 -1.10804)
(-0.0119315 0.00484582 -1.10665)
(0.0123758 0.00295506 -1.10688)
(0.0112233 0.00286059 -1.10822)
(0.00962386 0.00319693 -1.10943)
(0.00785619 0.00337652 -1.11071)
(0.00582883 0.00347087 -1.1118)
(0.00357772 0.00356125 -1.11246)
(0.00139591 0.0035773 -1.1132)
(-0.00124317 0.00357987 -1.11322)
(-0.00343612 0.00357184 -1.11251)
(-0.00569509 0.00348646 -1.11187)
(-0.00773918 0.00339864 -1.1108)
(-0.00953377 0.00322395 -1.10953)
(-0.0111628 0.00288855 -1.10833)
(-0.0123489 0.00297952 -1.10698)
(0.0125514 0.00112142 -1.1073)
(0.0112896 0.0011076 -1.10867)
(0.00967661 0.0012353 -1.11001)
(0.00788038 0.00130857 -1.11134)
(0.00585548 0.00135132 -1.1125)
(0.00359326 0.00139327 -1.11321)
(0.00140977 0.00140895 -1.114)
(-0.00125182 0.00141095 -1.11401)
(-0.00344609 0.0014014 -1.11325)
(-0.0057162 0.00136341 -1.11257)
(-0.00775807 0.00132456 -1.11142)
(-0.00958179 0.00125288 -1.11011)
(-0.0112271 0.00112451 -1.10876)
(-0.012524 0.00113564 -1.10739)
(0.0125482 -0.00100468 -1.10731)
(0.0112884 -0.000977248 -1.10868)
(0.00967617 -0.00110261 -1.11002)
(0.00788178 -0.00116752 -1.11135)
(0.00585754 -0.00120275 -1.11251)
(0.00359569 -0.00123716 -1.11322)
(0.00141159 -0.00124475 -1.11401)
(-0.00125061 -0.00124389 -1.11402)
(-0.00344579 -0.00123255 -1.11326)
(-0.00571677 -0.00119695 -1.11257)
(-0.0077586 -0.00116148 -1.11143)
(-0.00958166 -0.00109808 -1.11011)
(-0.0112262 -0.000975628 -1.10877)
(-0.0125213 -0.00100443 -1.10739)
(0.0123849 -0.00284677 -1.10691)
(0.0112361 -0.00274161 -1.10826)
(0.00963528 -0.00307393 -1.10947)
(0.00786842 -0.00324592 -1.11076)
(0.00584069 -0.00333303 -1.11184)
(0.00358909 -0.00341714 -1.11251)
(0.00140367 -0.00342509 -1.11324)
(-0.00123847 -0.00342505 -1.11325)
(-0.00343592 -0.00341534 -1.11254)
(-0.00569951 -0.00333239 -1.1119)
(-0.00774813 -0.00324808 -1.11082)
(-0.00954776 -0.00308094 -1.10954)
(-0.0111825 -0.00275337 -1.10834)
(-0.0123683 -0.00285922 -1.10698)
(0.0119747 -0.0047172 -1.1066)
(0.0109772 -0.00456562 -1.108)
(0.00940333 -0.00506835 -1.10903)
(0.00769319 -0.00535989 -1.11026)
(0.00570034 -0.0055283 -1.11124)
(0.00350449 -0.00567015 -1.11186)
(0.00136684 -0.00568963 -1.11255)
(-0.00120336 -0.00569054 -1.11256)
(-0.00335306 -0.00567151 -1.11189)
(-0.00556255 -0.00553355 -1.11128)
(-0.007576 -0.00537025 -1.11031)
(-0.00931829 -0.00508635 -1.10909)
(-0.0109273 -0.00459044 -1.10805)
(-0.0119616 -0.00474294 -1.10666)
(0.0113947 -0.0063671 -1.10618)
(0.010583 -0.00626918 -1.10767)
(0.00909155 -0.00689893 -1.10855)
(0.00745903 -0.00729431 -1.10954)
(0.00553257 -0.00753106 -1.11027)
(0.00341682 -0.00771117 -1.11078)
(0.00132949 -0.00772959 -1.1114)
(-0.00116815 -0.00773073 -1.11141)
(-0.00326796 -0.00771633 -1.11081)
(-0.00539961 -0.00754279 -1.1103)
(-0.00734944 -0.00731488 -1.10958)
(-0.00901437 -0.00692904 -1.10859)
(-0.01054 -0.00630603 -1.10772)
(-0.0113873 -0.00640574 -1.10623)
(0.0106918 -0.00771927 -1.10546)
(0.010018 -0.00777703 -1.10702)
(0.00860446 -0.00846013 -1.10776)
(0.00706434 -0.0089492 -1.10855)
(0.00524079 -0.00926625 -1.10905)
(0.00324194 -0.00950559 -1.1095)
(0.00125922 -0.00955467 -1.11007)
(-0.00110504 -0.00955596 -1.11008)
(-0.00309967 -0.00951682 -1.10952)
(-0.00511433 -0.00928484 -1.10907)
(-0.00696314 -0.00897871 -1.10858)
(-0.00853712 -0.00850074 -1.10779)
(-0.00998258 -0.0078229 -1.10706)
(-0.0106908 -0.00776925 -1.10549)
(0.00989401 -0.00848241 -1.10428)
(0.00932457 -0.00920724 -1.10608)
(0.00791659 -0.00989998 -1.10702)
(0.00642794 -0.0104692 -1.10768)
(0.00473212 -0.0108707 -1.108)
(0.00290511 -0.0111373 -1.10829)
(0.00113152 -0.0112041 -1.10871)
(-0.000982337 -0.011206 -1.10872)
(-0.00277115 -0.0111568 -1.10829)
(-0.00461615 -0.010899 -1.10802)
(-0.00633815 -0.0105087 -1.10769)
(-0.00785766 -0.00994962 -1.10704)
(-0.00929551 -0.00926166 -1.10611)
(-0.00989281 -0.008536 -1.1043)
(0.00891617 -0.00883429 -1.10368)
(0.00858671 -0.00980896 -1.10428)
(0.00784835 -0.010611 -1.10545)
(0.00651187 -0.0113208 -1.10618)
(0.00486677 -0.0119097 -1.1066)
(0.00299386 -0.0123286 -1.10692)
(0.00114258 -0.0125092 -1.10733)
(-0.00101004 -0.0125065 -1.10733)
(-0.00287606 -0.0123506 -1.10693)
(-0.00476662 -0.011941 -1.10661)
(-0.00643541 -0.0113628 -1.10619)
(-0.00780054 -0.0106638 -1.10546)
(-0.00856874 -0.00986531 -1.10429)
(-0.00891422 -0.00888964 -1.10369)
(0.00758357 0.00751922 -1.10518)
(0.00727813 0.00833105 -1.10552)
(0.00668798 0.00893603 -1.10644)
(0.00555992 0.00947962 -1.10699)
(0.00414777 0.00991135 -1.10725)
(0.00253201 0.0102501 -1.10751)
(0.000952119 0.0103634 -1.10794)
(-0.000949878 0.0103701 -1.10798)
(-0.00252624 0.0102591 -1.1076)
(-0.00413517 0.0099207 -1.10739)
(-0.00553872 0.00949117 -1.10718)
(-0.0066585 0.00894509 -1.10665)
(-0.00723926 0.00833848 -1.10573)
(-0.00753891 0.00752761 -1.1054)
(0.00839965 0.00720015 -1.10553)
(0.00786111 0.00777831 -1.10705)
(0.00657673 0.00829647 -1.10786)
(0.00524598 0.00873331 -1.10836)
(0.0037765 0.00897276 -1.10845)
(0.00225412 0.00912279 -1.10861)
(0.000873609 0.00908766 -1.10904)
(-0.00086298 0.00908533 -1.10907)
(-0.00224478 0.009132 -1.1087)
(-0.00375754 0.00898399 -1.10859)
(-0.00521709 0.00875164 -1.10854)
(-0.00653971 0.00831856 -1.10808)
(-0.00781067 0.00779497 -1.10728)
(-0.00835444 0.00721241 -1.10577)
(0.00900324 0.00662229 -1.10647)
(0.00837719 0.00650257 -1.10788)
(0.00704572 0.00696879 -1.10841)
(0.0056855 0.00729643 -1.10896)
(0.00413798 0.00744558 -1.10912)
(0.00250233 0.0075546 -1.10936)
(0.000976668 0.00749076 -1.10992)
(-0.000965135 0.00748847 -1.10995)
(-0.0024937 0.0075639 -1.10945)
(-0.00411467 0.00745651 -1.10926)
(-0.00564986 0.00731628 -1.10915)
(-0.00700687 0.00699667 -1.10864)
(-0.00832633 0.00652889 -1.10814)
(-0.00895269 0.00664228 -1.10673)
(0.00953967 0.00550446 -1.10704)
(0.00880836 0.00518461 -1.10839)
(0.00737052 0.00562096 -1.10897)
(0.0059031 0.00583885 -1.10964)
(0.00427289 0.00592062 -1.10997)
(0.00256503 0.00597408 -1.1102)
(0.00100704 0.00588658 -1.11079)
(-0.000990211 0.00588444 -1.11081)
(-0.00255162 0.00598334 -1.11029)
(-0.00424186 0.00593419 -1.11011)
(-0.0058588 0.00585981 -1.10983)
(-0.00732358 0.00565077 -1.1092)
(-0.00875707 0.00521739 -1.10865)
(-0.00949302 0.005531 -1.10731)
(0.00996633 0.00410991 -1.10731)
(0.00904306 0.00373261 -1.10849)
(0.00751797 0.00409048 -1.10913)
(0.00598581 0.00422425 -1.10997)
(0.00431642 0.00426626 -1.11053)
(0.0025667 0.0043063 -1.11079)
(0.00101573 0.00423318 -1.11144)
(-0.000991592 0.00423233 -1.11147)
(-0.0025477 0.00431654 -1.11089)
(-0.00427771 0.0042826 -1.11067)
(-0.00593592 0.00425013 -1.11017)
(-0.00746243 0.00412286 -1.10937)
(-0.00898977 0.00376822 -1.10875)
(-0.00992667 0.00414279 -1.10759)
(0.0102982 0.00251009 -1.10756)
(0.00918581 0.0022283 -1.10864)
(0.00762189 0.00247384 -1.10938)
(0.0060368 0.00253525 -1.1102)
(0.0043551 0.00253506 -1.11079)
(0.00257943 0.00254822 -1.11102)
(0.00102598 0.00248617 -1.11171)
(-0.000992589 0.00248658 -1.11173)
(-0.0025533 0.00255982 -1.11111)
(-0.0043102 0.00255411 -1.11094)
(-0.00598204 0.00256252 -1.11041)
(-0.00756244 0.00250708 -1.10962)
(-0.00913132 0.00226468 -1.1089)
(-0.0102619 0.00254576 -1.10784)
(0.010418 0.000960783 -1.10801)
(0.00915104 0.000876895 -1.10908)
(0.00755734 0.000974653 -1.10994)
(0.00594874 0.00100324 -1.1108)
(0.00428133 0.00101054 -1.11144)
(0.00251665 0.00102105 -1.11171)
(0.00101247 0.00100877 -1.11246)
(-0.000968634 0.00101169 -1.11249)
(-0.00248298 0.00103763 -1.11181)
(-0.00422807 0.00103527 -1.1116)
(-0.00588651 0.00103547 -1.111)
(-0.00749224 0.00101121 -1.11019)
(-0.00909341 0.000914816 -1.10935)
(-0.0103809 0.000994623 -1.10829)
(0.0104172 -0.000926339 -1.10803)
(0.00914604 -0.000839542 -1.10911)
(0.00755341 -0.000945309 -1.10997)
(0.00594606 -0.000973163 -1.11082)
(0.00428041 -0.000977603 -1.11147)
(0.00251717 -0.00098135 -1.11173)
(0.0010152 -0.000958117 -1.11249)
(-0.000963499 -0.000953554 -1.11252)
(-0.00247665 -0.000963641 -1.11184)
(-0.00422081 -0.000953032 -1.11163)
(-0.0058792 -0.000943218 -1.11103)
(-0.00748498 -0.000913995 -1.11022)
(-0.00908658 -0.000810531 -1.10937)
(-0.0103781 -0.000901247 -1.10831)
(0.0102932 -0.00248006 -1.10764)
(0.00918287 -0.00219864 -1.10872)
(0.00762176 -0.00245067 -1.10946)
(0.00604007 -0.00251091 -1.11029)
(0.00436208 -0.00250876 -1.11088)
(0.00258905 -0.0025162 -1.11111)
(0.00104067 -0.00244601 -1.1118)
(-0.000973757 -0.00244051 -1.11183)
(-0.00253504 -0.0024992 -1.11121)
(-0.00429495 -0.00248597 -1.11103)
(-0.00597124 -0.00248413 -1.11049)
(-0.00755816 -0.0024247 -1.1097)
(-0.00913571 -0.00217777 -1.10898)
(-0.010271 -0.00246435 -1.1079)
(0.00995787 -0.00408193 -1.10743)
(0.00903861 -0.00370272 -1.10861)
(0.00751749 -0.00406061 -1.10926)
(0.00599222 -0.00418929 -1.11011)
(0.00432865 -0.00422693 -1.11067)
(0.00258303 -0.0042613 -1.11093)
(0.00103833 -0.00417991 -1.11159)
(-0.000964154 -0.00417363 -1.11162)
(-0.00252161 -0.00424691 -1.11103)
(-0.00425614 -0.00420755 -1.11082)
(-0.00592107 -0.00416993 -1.1103)
(-0.00745642 -0.00404462 -1.10949)
(-0.0089968 -0.00369287 -1.10886)
(-0.00994218 -0.00407789 -1.10769)
(0.00952741 -0.00548086 -1.10721)
(0.00880612 -0.00515749 -1.10856)
(0.00737591 -0.00558915 -1.10915)
(0.00591579 -0.00579922 -1.10982)
(0.00429411 -0.00587776 -1.11016)
(0.00258942 -0.0059257 -1.11039)
(0.0010378 -0.00583142 -1.11099)
(-0.000955979 -0.00582553 -1.11102)
(-0.00251955 -0.00591557 -1.11049)
(-0.00421877 -0.0058645 -1.1103)
(-0.00584507 -0.00578772 -1.11001)
(-0.00732204 -0.00558439 -1.10937)
(-0.00877302 -0.00515861 -1.10879)
(-0.00951721 -0.00548683 -1.10744)
(0.00898788 -0.00660295 -1.10667)
(0.00837736 -0.00648121 -1.10809)
(0.00705846 -0.00694619 -1.10864)
(0.00570685 -0.00726419 -1.10919)
(0.00416617 -0.0074049 -1.10935)
(0.00253266 -0.00750655 -1.1096)
(0.00101354 -0.00743877 -1.11017)
(-0.000927825 -0.00743286 -1.1102)
(-0.00245911 -0.00750212 -1.10969)
(-0.00409231 -0.0073978 -1.10948)
(-0.00564117 -0.00726098 -1.10936)
(-0.00701431 -0.00695223 -1.10883)
(-0.00835165 -0.00649038 -1.10831)
(-0.00898046 -0.00661721 -1.10688)
(0.00839021 -0.00719376 -1.10575)
(0.00785963 -0.00775871 -1.10729)
(0.00659075 -0.00827253 -1.10812)
(0.00527219 -0.00870419 -1.10862)
(0.00380982 -0.00893832 -1.10872)
(0.00228862 -0.00908155 -1.10887)
(0.000917526 -0.00904665 -1.10932)
(-0.000824875 -0.00904117 -1.10934)
(-0.00221023 -0.00908425 -1.10895)
(-0.0037376 -0.00894192 -1.10884)
(-0.00521267 -0.00871379 -1.10877)
(-0.00655071 -0.00829031 -1.1083)
(-0.0078393 -0.00777639 -1.10748)
(-0.00838656 -0.00720615 -1.10592)
(0.0075767 -0.00750496 -1.10541)
(0.00727681 -0.00831549 -1.10576)
(0.00670438 -0.00891214 -1.10671)
(0.00558719 -0.00945421 -1.10728)
(0.00418295 -0.00988708 -1.10755)
(0.00256711 -0.0102215 -1.1078)
(0.000998597 -0.0103458 -1.10824)
(-0.000914193 -0.0103417 -1.10827)
(-0.00249313 -0.0102287 -1.10787)
(-0.00411889 -0.00989564 -1.10765)
(-0.00553724 -0.00946463 -1.10741)
(-0.00667365 -0.00892478 -1.10686)
(-0.00726661 -0.00832843 -1.10591)
(-0.00757087 -0.00751665 -1.10555)
(0.00779909 0.00769248 -1.10025)
(0.00740322 0.00852474 -1.10012)
(0.00673727 0.00902434 -1.10012)
(0.00562492 0.00942252 -1.10001)
(0.00419332 0.00968556 -1.09964)
(0.0025113 0.00992136 -1.09954)
(0.000876666 0.00992664 -1.09983)
(-0.000998626 0.00994056 -1.09984)
(-0.00261713 0.00991961 -1.09959)
(-0.00428446 0.00968074 -1.09972)
(-0.00569052 0.00942192 -1.10011)
(-0.00677477 0.00902295 -1.10025)
(-0.00740523 0.00850362 -1.10027)
(-0.00777755 0.00767341 -1.10042)
(0.00862998 0.00730867 -1.10012)
(0.00773682 0.0076359 -1.10077)
(0.00649357 0.00800394 -1.10053)
(0.00512413 0.0084022 -1.10025)
(0.00364436 0.00856656 -1.0998)
(0.00208949 0.0086709 -1.09966)
(0.000732728 0.00853547 -1.09996)
(-0.000855115 0.00853322 -1.09997)
(-0.00220197 0.0086629 -1.09972)
(-0.0037357 0.00855363 -1.0999)
(-0.0051873 0.00838992 -1.10037)
(-0.0065284 0.00799188 -1.10066)
(-0.0077374 0.00761697 -1.10092)
(-0.00861178 0.00728621 -1.10031)
(0.00912449 0.00665973 -1.10012)
(0.00810268 0.00640758 -1.10052)
(0.00684431 0.00675926 -1.10018)
(0.00541623 0.00698684 -1.10006)
(0.00391143 0.00703375 -1.09967)
(0.00228087 0.00707572 -1.09959)
(0.000807782 0.00688249 -1.10001)
(-0.000935377 0.00687419 -1.10003)
(-0.00240474 0.00706661 -1.09966)
(-0.0040089 0.00701624 -1.09978)
(-0.00547949 0.00696414 -1.10021)
(-0.0068752 0.00673832 -1.10035)
(-0.00810064 0.00638914 -1.10069)
(-0.00909849 0.00663779 -1.10032)
(0.00951532 0.00556532 -1.09999)
(0.00849771 0.00505602 -1.10024)
(0.0070698 0.00534696 -1.10006)
(0.00553416 0.0054662 -1.10006)
(0.00395063 0.00545594 -1.09988)
(0.00228378 0.0054804 -1.09979)
(0.000802734 0.00529046 -1.10028)
(-0.000935158 0.00527986 -1.1003)
(-0.00241512 0.00547084 -1.09987)
(-0.00404989 0.00543917 -1.1)
(-0.00559659 0.00544525 -1.10022)
(-0.00709428 0.00532676 -1.10026)
(-0.00848976 0.00503649 -1.10046)
(-0.009484 0.00555124 -1.10021)
(0.00977174 0.00415405 -1.09963)
(0.00865835 0.00359734 -1.0998)
(0.00711765 0.00386324 -1.09967)
(0.00552522 0.0039034 -1.09988)
(0.00391493 0.00386738 -1.09994)
(0.00223248 0.00389281 -1.09989)
(0.000778306 0.00374524 -1.10048)
(-0.000915047 0.00373525 -1.1005)
(-0.00237077 0.00388514 -1.09998)
(-0.00401658 0.00385569 -1.10007)
(-0.00558866 0.00388911 -1.10006)
(-0.00714079 0.00384934 -1.09989)
(-0.0086447 0.0035846 -1.10004)
(-0.00973397 0.00414917 -1.09985)
(0.00999885 0.002489 -1.09952)
(0.0087561 0.00206354 -1.09965)
(0.00715787 0.00225413 -1.09959)
(0.00554906 0.00225809 -1.09979)
(0.00393941 0.00220696 -1.09989)
(0.0022497 0.00222538 -1.09973)
(0.000774265 0.00212506 -1.10029)
(-0.000911694 0.00211698 -1.10031)
(-0.00239112 0.00222049 -1.09983)
(-0.00404346 0.00220112 -1.10002)
(-0.00561486 0.00225165 -1.09998)
(-0.00718043 0.00224965 -1.09982)
(-0.0087391 0.00206207 -1.09991)
(-0.00995892 0.00249265 -1.09977)
(0.0100109 0.000883082 -1.09982)
(0.00862403 0.000734945 -1.09996)
(0.00696798 0.000807285 -1.10001)
(0.0053619 0.000803504 -1.10028)
(0.00379322 0.000780402 -1.10047)
(0.00214989 0.000777775 -1.10029)
(0.000739868 0.000744152 -1.10086)
(-0.000873389 0.000740888 -1.10089)
(-0.00229158 0.000780592 -1.10039)
(-0.0038957 0.000784635 -1.10062)
(-0.00542639 0.000810875 -1.10049)
(-0.00698639 0.000817591 -1.10026)
(-0.00860107 0.000747814 -1.10023)
(-0.00996533 0.000894453 -1.10009)
(0.0100163 -0.000969465 -1.09983)
(0.0086205 -0.000827775 -1.09998)
(0.00696252 -0.000911748 -1.10003)
(0.00535537 -0.000912878 -1.1003)
(0.00378672 -0.000893993 -1.10049)
(0.00214426 -0.000891415 -1.10031)
(0.000737209 -0.000853038 -1.10088)
(-0.000870119 -0.000849737 -1.10091)
(-0.00228533 -0.000876068 -1.10042)
(-0.00388602 -0.000872863 -1.10065)
(-0.00541435 -0.00088345 -1.10051)
(-0.00697388 -0.000879011 -1.10028)
(-0.00859042 -0.000793748 -1.10025)
(-0.0099653 -0.000937742 -1.10012)
(0.00997918 -0.00256938 -1.09957)
(0.00873862 -0.00215432 -1.09972)
(0.00714768 -0.0023586 -1.09966)
(0.00554269 -0.00236892 -1.09986)
(0.00393541 -0.00232397 -1.09996)
(0.00224753 -0.00234515 -1.09982)
(0.000776346 -0.00224435 -1.10038)
(-0.000897156 -0.00223764 -1.10041)
(-0.00237564 -0.0023272 -1.09992)
(-0.00402427 -0.00230088 -1.10012)
(-0.0055941 -0.00233591 -1.10008)
(-0.00715973 -0.00232267 -1.09991)
(-0.00871776 -0.0021175 -1.1)
(-0.00994292 -0.0025369 -1.09985)
(0.00974048 -0.00422859 -1.0997)
(0.00863224 -0.0036774 -1.0999)
(0.0070997 -0.00395148 -1.09978)
(0.00551316 -0.0039931 -1.09999)
(0.00390783 -0.00396012 -1.10006)
(0.00222921 -0.00398811 -1.10002)
(0.000780557 -0.00384001 -1.10061)
(-0.000893901 -0.00382988 -1.10064)
(-0.00234889 -0.00396611 -1.10012)
(-0.00398803 -0.00392971 -1.10022)
(-0.0055565 -0.00395164 -1.1002)
(-0.007108 -0.00390623 -1.10003)
(-0.00861285 -0.00363044 -1.10017)
(-0.00970682 -0.00418991 -1.09996)
(0.00948222 -0.005632 -1.1001)
(0.00846922 -0.00512377 -1.10037)
(0.00704646 -0.00541523 -1.1002)
(0.00551883 -0.00553343 -1.10021)
(0.00394171 -0.00552551 -1.10004)
(0.00227945 -0.00555261 -1.09997)
(0.000806348 -0.00536405 -1.10047)
(-0.000905502 -0.00535186 -1.1005)
(-0.00238412 -0.00552851 -1.10007)
(-0.0040111 -0.00549013 -1.1002)
(-0.00555435 -0.00548627 -1.10042)
(-0.00705186 -0.00536374 -1.10045)
(-0.00845302 -0.00506714 -1.10063)
(-0.00945339 -0.00558383 -1.10036)
(0.00908696 -0.00671873 -1.10025)
(0.00807591 -0.00646656 -1.10065)
(0.00682287 -0.00681215 -1.10035)
(0.00540203 -0.0070338 -1.10025)
(0.00390329 -0.00708053 -1.09987)
(0.00227766 -0.00712122 -1.0998)
(0.000814127 -0.00692808 -1.10024)
(-0.00089986 -0.00691514 -1.10027)
(-0.00236807 -0.00709581 -1.09991)
(-0.0039634 -0.00704122 -1.10002)
(-0.00543083 -0.00698157 -1.10045)
(-0.00682632 -0.00675528 -1.10058)
(-0.00805906 -0.00640558 -1.10088)
(-0.00905786 -0.00665608 -1.1005)
(0.00858071 -0.00736158 -1.10028)
(0.00770598 -0.00768028 -1.10093)
(0.00647426 -0.00804154 -1.10069)
(0.00511039 -0.00843476 -1.10045)
(0.00363667 -0.00859146 -1.10003)
(0.00208868 -0.00868845 -1.0999)
(0.000744944 -0.00855233 -1.10021)
(-0.000813138 -0.00854053 -1.10024)
(-0.00215845 -0.0086594 -1.09999)
(-0.00368295 -0.00854896 -1.10017)
(-0.00513037 -0.00838186 -1.10063)
(-0.00647574 -0.00798621 -1.10088)
(-0.00769161 -0.00761611 -1.10115)
(-0.00856031 -0.00728922 -1.10051)
(0.00774797 -0.00773579 -1.10043)
(0.00737117 -0.00856141 -1.10031)
(0.00672103 -0.00905036 -1.10032)
(0.00562217 -0.009441 -1.10022)
(0.00419782 -0.0096913 -1.09986)
(0.00251743 -0.00991825 -1.09978)
(0.000894479 -0.00992664 -1.10009)
(-0.000953292 -0.00992402 -1.10011)
(-0.002571 -0.00989168 -1.09986)
(-0.00423519 -0.0096504 -1.09997)
(-0.00563887 -0.00938591 -1.10037)
(-0.00672155 -0.00898731 -1.1005)
(-0.00735862 -0.00847557 -1.1005)
(-0.00773057 -0.00764581 -1.10063)
(0.00948807 0.00937421 -1.09058)
(0.00879246 0.010414 -1.09017)
(0.00822001 0.0110387 -1.08885)
(0.00678043 0.0114007 -1.08769)
(0.00508947 0.0116852 -1.08642)
(0.00302567 0.0119907 -1.0858)
(0.000987563 0.0119204 -1.08578)
(-0.00119166 0.0119346 -1.08578)
(-0.00320632 0.0119789 -1.08582)
(-0.00525018 0.0116678 -1.08645)
(-0.0069101 0.0113826 -1.08772)
(-0.00831669 0.0110261 -1.08889)
(-0.00884622 0.0103852 -1.0902)
(-0.00951654 0.00932765 -1.09066)
(0.0105168 0.00870915 -1.09016)
(0.00903611 0.00895443 -1.08915)
(0.00766907 0.00957703 -1.08773)
(0.00602988 0.0100424 -1.08648)
(0.00439737 0.010274 -1.08506)
(0.00254277 0.010556 -1.08422)
(0.000789792 0.010422 -1.0841)
(-0.00100635 0.0104219 -1.0841)
(-0.00273955 0.0105338 -1.08423)
(-0.00457189 0.0102404 -1.08508)
(-0.00616695 0.00999661 -1.08651)
(-0.00776674 0.00952857 -1.0878)
(-0.00909707 0.00889947 -1.08921)
(-0.0105353 0.00864243 -1.09026)
(0.011126 0.00816133 -1.08883)
(0.00965764 0.00760583 -1.08771)
(0.00811877 0.00805296 -1.08629)
(0.0064719 0.00852629 -1.08476)
(0.00485188 0.00881697 -1.08304)
(0.00286993 0.00899648 -1.08201)
(0.000880158 0.0087254 -1.08188)
(-0.00110517 0.00871421 -1.08187)
(-0.00308258 0.00897451 -1.08201)
(-0.00503901 0.00878581 -1.08305)
(-0.00662724 0.00847735 -1.08478)
(-0.00821857 0.00798953 -1.08635)
(-0.00971391 0.00753806 -1.08781)
(-0.0111328 0.00809614 -1.08894)
(0.011483 0.00673576 -1.08765)
(0.0101202 0.00597709 -1.08645)
(0.00858767 0.00642057 -1.08475)
(0.00682548 0.00677034 -1.08292)
(0.00503983 0.00696031 -1.0811)
(0.00305542 0.00732595 -1.07984)
(0.000900312 0.00720593 -1.07967)
(-0.00113969 0.00718889 -1.07966)
(-0.00328341 0.00730135 -1.07984)
(-0.00524278 0.00692539 -1.0811)
(-0.00698304 0.00671939 -1.08293)
(-0.00871021 0.0063534 -1.0848)
(-0.0101722 0.0059032 -1.08655)
(-0.0114835 0.00666838 -1.08778)
(0.0117604 0.00505925 -1.08637)
(0.0103473 0.00436261 -1.08502)
(0.0088882 0.0048197 -1.08302)
(0.00700857 0.00501197 -1.08109)
(0.00524353 0.00521494 -1.07917)
(0.00321402 0.00552053 -1.07777)
(0.000906161 0.00542192 -1.0776)
(-0.00116329 0.00540264 -1.07758)
(-0.00345967 0.00549813 -1.07777)
(-0.00546137 0.00518213 -1.07917)
(-0.00718602 0.00495618 -1.08111)
(-0.00900297 0.00476017 -1.08307)
(-0.0104084 0.00430042 -1.08512)
(-0.011755 0.0049991 -1.08654)
(0.0120586 0.00300972 -1.08575)
(0.0106262 0.00252579 -1.08418)
(0.00907074 0.00285691 -1.08197)
(0.00737255 0.00304295 -1.07982)
(0.00554876 0.00320359 -1.07776)
(0.00344159 0.00343187 -1.07617)
(0.000946529 0.00340245 -1.07591)
(-0.00121394 0.00338473 -1.0759)
(-0.00370006 0.00341232 -1.07617)
(-0.00578024 0.00317417 -1.07777)
(-0.00756688 0.00299891 -1.07985)
(-0.00917687 0.00280639 -1.08204)
(-0.0107035 0.00247912 -1.08428)
(-0.0120563 0.00296498 -1.08593)
(0.0119938 0.000990668 -1.08573)
(0.0105019 0.000790721 -1.08406)
(0.00880137 0.000882313 -1.08184)
(0.0072553 0.000905786 -1.07965)
(0.00545159 0.000914278 -1.07759)
(0.00341198 0.00095583 -1.07591)
(0.000913508 0.000924486 -1.07558)
(-0.00118968 0.000912411 -1.07557)
(-0.0036828 0.000944756 -1.07591)
(-0.00569554 0.000897695 -1.0776)
(-0.00745651 0.000882932 -1.0797)
(-0.00891416 0.00085098 -1.08193)
(-0.0105765 0.000751423 -1.08418)
(-0.0119871 0.000951886 -1.08593)
(0.0120019 -0.00116403 -1.08574)
(0.0105019 -0.000980714 -1.08406)
(0.00879563 -0.00108302 -1.08183)
(0.00724493 -0.00111832 -1.07964)
(0.00543874 -0.00114127 -1.07758)
(0.00339873 -0.00119163 -1.0759)
(0.00090363 -0.00116537 -1.07558)
(-0.00119862 -0.00117401 -1.07557)
(-0.0036839 -0.00120284 -1.07591)
(-0.00568959 -0.00116098 -1.07761)
(-0.00744601 -0.0011366 -1.07971)
(-0.00890187 -0.00109247 -1.08195)
(-0.0105686 -0.000978013 -1.0842)
(-0.011989 -0.00115894 -1.08596)
(0.012033 -0.00317101 -1.08578)
(0.0105998 -0.00270415 -1.08419)
(0.00905325 -0.00304968 -1.08198)
(0.00735386 -0.00324803 -1.07983)
(0.00553199 -0.00342254 -1.07777)
(0.00342455 -0.0036618 -1.07618)
(0.000936092 -0.0036418 -1.07592)
(-0.00122829 -0.00364229 -1.07592)
(-0.00370674 -0.00366637 -1.0762)
(-0.00577822 -0.00343249 -1.07782)
(-0.00755397 -0.0032489 -1.07992)
(-0.009152 -0.00304455 -1.08212)
(-0.0106715 -0.0026937 -1.08437)
(-0.0120258 -0.00315447 -1.08601)
(0.0117183 -0.00520964 -1.08641)
(0.0103054 -0.00452904 -1.08504)
(0.00886025 -0.00499614 -1.08303)
(0.00698034 -0.00520008 -1.0811)
(0.00521712 -0.00541448 -1.07919)
(0.00318766 -0.0057316 -1.07779)
(0.000890222 -0.005645 -1.07763)
(-0.00118614 -0.00563787 -1.07763)
(-0.00347106 -0.00572622 -1.07783)
(-0.0054577 -0.00540864 -1.07926)
(-0.00716459 -0.00516922 -1.08121)
(-0.00896887 -0.00495806 -1.08319)
(-0.0103586 -0.00448597 -1.08524)
(-0.0117018 -0.00515804 -1.08666)
(0.0114366 -0.00687209 -1.08769)
(0.0100681 -0.00612146 -1.08649)
(0.0085447 -0.00658094 -1.08478)
(0.00678671 -0.0069308 -1.08294)
(0.00499385 -0.00713508 -1.08113)
(0.00301559 -0.00751363 -1.07988)
(0.000877333 -0.00740376 -1.07973)
(-0.00116196 -0.00739159 -1.07974)
(-0.00328863 -0.00749472 -1.07994)
(-0.00521846 -0.00710764 -1.08122)
(-0.00694385 -0.00687816 -1.08307)
(-0.00866644 -0.00652045 -1.08495)
(-0.0101001 -0.00604146 -1.08671)
(-0.0114129 -0.00678781 -1.08792)
(0.0110799 -0.00828486 -1.08888)
(0.00960472 -0.00772633 -1.08779)
(0.00806592 -0.0081757 -1.08636)
(0.00641944 -0.00866821 -1.08482)
(0.00480433 -0.00895265 -1.0831)
(0.00282544 -0.00912313 -1.08208)
(0.000848127 -0.00886382 -1.08197)
(-0.00111355 -0.00884972 -1.08199)
(-0.00308069 -0.00908889 -1.08215)
(-0.00500758 -0.00890895 -1.08321)
(-0.0065783 -0.0086075 -1.08496)
(-0.00814985 -0.00808755 -1.08654)
(-0.00962665 -0.0076208 -1.08801)
(-0.0110488 -0.00816843 -1.0891)
(0.0104518 -0.00881974 -1.09021)
(0.00898132 -0.00906013 -1.08922)
(0.00761343 -0.00967504 -1.08783)
(0.00597121 -0.0101351 -1.08657)
(0.00434535 -0.0103711 -1.08515)
(0.00250089 -0.0106626 -1.08432)
(0.000751707 -0.0105382 -1.08422)
(-0.000998315 -0.0105262 -1.08424)
(-0.00272857 -0.0106192 -1.0844)
(-0.00452995 -0.0103062 -1.08527)
(-0.00609759 -0.0100364 -1.08672)
(-0.00768025 -0.00956345 -1.08802)
(-0.00899966 -0.00893309 -1.0894)
(-0.0104299 -0.00867288 -1.09043)
(0.00940843 -0.00948076 -1.09066)
(0.00873073 -0.0104967 -1.09027)
(0.0081683 -0.0111009 -1.08896)
(0.0067302 -0.0114529 -1.08781)
(0.00504298 -0.0117268 -1.08657)
(0.00298868 -0.0120292 -1.08597)
(0.000956545 -0.0119654 -1.08597)
(-0.00117403 -0.0119625 -1.08599)
(-0.00318306 -0.0119825 -1.08604)
(-0.00519639 -0.0116593 -1.08668)
(-0.00683512 -0.0113567 -1.08794)
(-0.00822236 -0.010994 -1.0891)
(-0.00874515 -0.0103566 -1.09041)
(-0.00940094 -0.00931231 -1.09084)
(0.0137369 0.0136586 -1.07697)
(0.0125578 0.0152739 -1.07578)
(0.0118683 0.0164907 -1.07305)
(0.0099688 0.0174625 -1.07044)
(0.00758712 0.0180619 -1.06799)
(0.0046059 0.0185015 -1.06655)
(0.00147067 0.0184124 -1.06603)
(-0.00164701 0.018424 -1.06601)
(-0.00476432 0.0184922 -1.06651)
(-0.00773586 0.0180452 -1.06791)
(-0.0100914 0.0174308 -1.07034)
(-0.0119702 0.0164495 -1.07294)
(-0.0126304 0.015239 -1.07565)
(-0.0138034 0.0135946 -1.07687)
(0.0153006 0.0125434 -1.07577)
(0.0135465 0.0135366 -1.07291)
(0.0118781 0.0147917 -1.06974)
(0.00945097 0.0157686 -1.06685)
(0.00723114 0.0167242 -1.064)
(0.00441401 0.0176301 -1.06222)
(0.00134231 0.0177225 -1.06156)
(-0.00152556 0.0177242 -1.06153)