/*--------------------------------*- C++ -*----------------------------------*\
| =========                 |                                                 |
| \\      /  F ield         | OpenFOAM: The Open Source CFD Toolbox           |
|  \\    /   O peration     | Version:  v2106                                 |
|   \\  /    A nd           | Website:  www.openfoam.com                      |
|    \\/     M anipulation  |                                                 |
\*---------------------------------------------------------------------------*/
FoamFile
{
    version     2.0;
    format      ascii;
    arch        "LSB;label=32;scalar=64";
    class       volScalarField;
    location    "0.00019";
    object      alphat;
}
// * * * * * * * * * * * * * * * * * * * * * * * * * * * * * * * * * * * * * //

dimensions      [1 -1 -1 0 0 0 0];

internalField   nonuniform List<scalar> 
17924
(
9.96236e-17
9.89788e-17
9.88536e-17
9.88485e-17
9.86624e-17
9.86351e-17
9.86554e-17
9.86838e-17
9.87098e-17
9.87339e-17
9.87558e-17
9.87684e-17
9.86661e-17
9.86678e-17
9.86912e-17
9.87173e-17
9.87415e-17
9.87632e-17
9.89435e-17
9.87159e-17
9.86864e-17
9.87035e-17
9.87294e-17
9.87543e-17
9.87771e-17
9.91628e-17
9.8774e-17
9.8705e-17
9.87142e-17
9.87398e-17
9.87655e-17
9.87896e-17
9.93683e-17
9.88263e-17
9.87224e-17
9.87253e-17
9.87502e-17
9.87762e-17
9.88004e-17
9.9517e-17
9.88595e-17
9.87339e-17
9.87337e-17
9.87579e-17
9.87841e-17
9.88084e-17
9.96275e-17
9.8882e-17
9.87435e-17
9.8742e-17
9.87654e-17
9.87906e-17
9.88137e-17
9.97094e-17
9.88961e-17
9.875e-17
9.87481e-17
9.87701e-17
9.87942e-17
9.88163e-17
9.97555e-17
9.89037e-17
9.87559e-17
9.87534e-17
9.87738e-17
9.87967e-17
9.88171e-17
9.97679e-17
9.89057e-17
9.87602e-17
9.87575e-17
9.87768e-17
9.87979e-17
9.88163e-17
9.97286e-17
9.88997e-17
9.87646e-17
9.87639e-17
9.87833e-17
9.88035e-17
9.88201e-17
9.96561e-17
9.88937e-17
9.87762e-17
9.87851e-17
9.88149e-17
9.88438e-17
9.88638e-17
9.96247e-17
9.8915e-17
9.88272e-17
9.88831e-17
9.89714e-17
9.90489e-17
9.909e-17
9.99571e-17
9.90615e-17
9.9038e-17
9.92898e-17
9.96283e-17
9.99199e-17
1.0006e-16
9.83409e-17
9.83801e-17
9.8418e-17
9.84515e-17
9.8481e-17
9.85077e-17
9.85315e-17
9.85524e-17
9.85705e-17
9.85859e-17
9.85993e-17
9.86097e-17
9.86188e-17
9.86285e-17
9.83736e-17
9.84004e-17
9.84373e-17
9.84714e-17
9.85031e-17
9.85318e-17
9.85577e-17
9.85802e-17
9.86003e-17
9.86179e-17
9.86339e-17
9.86466e-17
9.86573e-17
9.86712e-17
9.84152e-17
9.84292e-17
9.84626e-17
9.84962e-17
9.85284e-17
9.85578e-17
9.85847e-17
9.86083e-17
9.86298e-17
9.86483e-17
9.86654e-17
9.8679e-17
9.86914e-17
9.87048e-17
9.84584e-17
9.84557e-17
9.84852e-17
9.85185e-17
9.85516e-17
9.8582e-17
9.861e-17
9.86347e-17
9.86572e-17
9.86767e-17
9.86944e-17
9.87087e-17
9.87225e-17
9.87363e-17
9.85004e-17
9.8483e-17
9.85086e-17
9.85415e-17
9.85747e-17
9.86052e-17
9.86334e-17
9.86586e-17
9.86814e-17
9.87013e-17
9.87195e-17
9.87343e-17
9.87485e-17
9.87614e-17
9.85359e-17
9.85076e-17
9.85301e-17
9.85624e-17
9.85952e-17
9.86258e-17
9.8654e-17
9.86795e-17
9.87025e-17
9.87227e-17
9.8741e-17
9.87564e-17
9.87707e-17
9.87834e-17
9.8567e-17
9.85307e-17
9.85508e-17
9.85823e-17
9.86142e-17
9.8644e-17
9.86715e-17
9.86964e-17
9.87189e-17
9.87392e-17
9.87574e-17
9.87734e-17
9.87876e-17
9.88004e-17
9.8594e-17
9.8551e-17
9.85688e-17
9.85992e-17
9.86297e-17
9.86586e-17
9.86851e-17
9.87095e-17
9.87315e-17
9.87517e-17
9.87696e-17
9.87862e-17
9.88001e-17
9.8814e-17
9.86157e-17
9.85688e-17
9.85847e-17
9.86135e-17
9.86421e-17
9.86693e-17
9.86942e-17
9.87172e-17
9.8738e-17
9.87577e-17
9.87753e-17
9.87925e-17
9.88066e-17
9.88218e-17
9.86325e-17
9.85836e-17
9.85973e-17
9.86236e-17
9.86498e-17
9.86751e-17
9.86987e-17
9.87209e-17
9.87409e-17
9.87602e-17
9.87775e-17
9.87951e-17
9.88092e-17
9.88252e-17
9.86421e-17
9.85947e-17
9.86068e-17
9.86306e-17
9.86546e-17
9.8678e-17
9.86996e-17
9.87201e-17
9.87389e-17
9.87575e-17
9.87746e-17
9.87926e-17
9.88067e-17
9.88242e-17
9.86445e-17
9.86018e-17
9.86128e-17
9.86349e-17
9.86574e-17
9.86791e-17
9.86991e-17
9.8718e-17
9.87354e-17
9.87527e-17
9.8769e-17
9.87866e-17
9.87995e-17
9.88169e-17
9.86436e-17
9.86065e-17
9.86186e-17
9.86419e-17
9.8666e-17
9.86884e-17
9.87072e-17
9.87233e-17
9.87374e-17
9.87512e-17
9.87645e-17
9.87788e-17
9.87888e-17
9.88038e-17
9.86627e-17
9.86183e-17
9.86346e-17
9.86692e-17
9.871e-17
9.87468e-17
9.87709e-17
9.87833e-17
9.87879e-17
9.87893e-17
9.87899e-17
9.87916e-17
9.87925e-17
9.88019e-17
9.80081e-17
9.80477e-17
9.80851e-17
9.81186e-17
9.81495e-17
9.81779e-17
9.82042e-17
9.82284e-17
9.82506e-17
9.8271e-17
9.82901e-17
9.8307e-17
9.83226e-17
9.83364e-17
9.80434e-17
9.80777e-17
9.81153e-17
9.81493e-17
9.81816e-17
9.82115e-17
9.82394e-17
9.8265e-17
9.82887e-17
9.83106e-17
9.83314e-17
9.83499e-17
9.83671e-17
9.83864e-17
9.80827e-17
9.81149e-17
9.81514e-17
9.81846e-17
9.82167e-17
9.82467e-17
9.8275e-17
9.83011e-17
9.83255e-17
9.8348e-17
9.83694e-17
9.83884e-17
9.84068e-17
9.84266e-17
9.81191e-17
9.81485e-17
9.81839e-17
9.82171e-17
9.82497e-17
9.82802e-17
9.83092e-17
9.83361e-17
9.83613e-17
9.83845e-17
9.84066e-17
9.84264e-17
9.8446e-17
9.84655e-17
9.81543e-17
9.81826e-17
9.82169e-17
9.82498e-17
9.82822e-17
9.83127e-17
9.83418e-17
9.8369e-17
9.83946e-17
9.84184e-17
9.8441e-17
9.84614e-17
9.84814e-17
9.85e-17
9.81884e-17
9.82155e-17
9.82483e-17
9.82806e-17
9.83126e-17
9.8343e-17
9.83722e-17
9.83996e-17
9.84257e-17
9.84501e-17
9.84734e-17
9.84946e-17
9.85151e-17
9.85337e-17
9.82206e-17
9.82467e-17
9.82778e-17
9.83094e-17
9.83406e-17
9.83705e-17
9.83994e-17
9.84269e-17
9.84533e-17
9.84783e-17
9.85022e-17
9.85244e-17
9.85453e-17
9.85642e-17
9.82511e-17
9.82757e-17
9.8305e-17
9.83356e-17
9.83657e-17
9.83951e-17
9.84236e-17
9.84512e-17
9.84777e-17
9.85033e-17
9.85277e-17
9.8551e-17
9.85725e-17
9.85929e-17
9.82783e-17
9.83015e-17
9.83291e-17
9.83585e-17
9.83873e-17
9.84158e-17
9.84439e-17
9.84714e-17
9.8498e-17
9.85241e-17
9.85492e-17
9.85735e-17
9.85959e-17
9.86179e-17
9.83035e-17
9.83249e-17
9.83504e-17
9.83782e-17
9.84056e-17
9.84332e-17
9.84606e-17
9.84879e-17
9.85147e-17
9.85412e-17
9.8567e-17
9.85926e-17
9.86162e-17
9.86399e-17
9.83249e-17
9.83448e-17
9.83681e-17
9.83944e-17
9.84204e-17
9.84469e-17
9.84736e-17
9.85006e-17
9.85274e-17
9.85544e-17
9.85812e-17
9.86084e-17
9.86335e-17
9.86593e-17
9.8342e-17
9.83606e-17
9.83818e-17
9.84067e-17
9.84314e-17
9.84571e-17
9.84832e-17
9.85101e-17
9.85372e-17
9.85648e-17
9.85926e-17
9.86211e-17
9.86469e-17
9.86739e-17
9.83541e-17
9.83721e-17
9.83921e-17
9.84157e-17
9.84394e-17
9.84646e-17
9.84901e-17
9.85165e-17
9.85438e-17
9.85719e-17
9.86005e-17
9.86299e-17
9.86558e-17
9.86849e-17
9.83631e-17
9.83801e-17
9.83987e-17
9.84212e-17
9.84449e-17
9.84711e-17
9.84978e-17
9.85248e-17
9.85524e-17
9.85807e-17
9.86088e-17
9.86365e-17
9.86613e-17
9.86911e-17
9.7623e-17
9.76521e-17
9.76829e-17
9.7712e-17
9.7741e-17
9.77693e-17
9.77976e-17
9.78253e-17
9.78524e-17
9.78789e-17
9.79044e-17
9.7929e-17
9.79518e-17
9.79736e-17
9.76687e-17
9.76925e-17
9.77229e-17
9.77513e-17
9.77803e-17
9.78087e-17
9.78374e-17
9.78659e-17
9.78939e-17
9.79214e-17
9.79482e-17
9.79741e-17
9.79979e-17
9.80245e-17
9.77155e-17
9.77377e-17
9.77667e-17
9.77939e-17
9.7822e-17
9.78497e-17
9.78781e-17
9.79062e-17
9.79342e-17
9.7962e-17
9.7989e-17
9.80152e-17
9.80398e-17
9.80668e-17
9.77592e-17
9.77802e-17
9.78079e-17
9.78343e-17
9.78621e-17
9.78898e-17
9.79183e-17
9.7947e-17
9.79755e-17
9.80037e-17
9.80312e-17
9.80581e-17
9.80836e-17
9.81108e-17
9.7801e-17
9.78223e-17
9.78489e-17
9.78746e-17
9.79019e-17
9.79294e-17
9.7958e-17
9.79868e-17
9.80156e-17
9.80443e-17
9.80723e-17
9.80997e-17
9.81257e-17
9.81524e-17
9.78427e-17
9.78639e-17
9.78891e-17
9.79141e-17
9.7941e-17
9.79685e-17
9.79972e-17
9.80264e-17
9.80559e-17
9.80852e-17
9.8114e-17
9.81421e-17
9.8169e-17
9.81955e-17
9.78823e-17
9.79035e-17
9.79274e-17
9.79522e-17
9.79787e-17
9.80063e-17
9.80352e-17
9.80648e-17
9.80949e-17
9.8125e-17
9.81547e-17
9.81835e-17
9.82113e-17
9.82377e-17
9.7921e-17
9.79419e-17
9.79647e-17
9.79895e-17
9.80156e-17
9.80435e-17
9.80727e-17
9.81029e-17
9.81336e-17
9.81644e-17
9.81951e-17
9.82249e-17
9.8254e-17
9.82811e-17
9.79566e-17
9.79774e-17
9.79995e-17
9.80244e-17
9.80506e-17
9.8079e-17
9.81087e-17
9.81396e-17
9.81712e-17
9.82028e-17
9.82346e-17
9.82653e-17
9.82956e-17
9.83234e-17
9.79915e-17
9.80123e-17
9.80337e-17
9.80586e-17
9.80849e-17
9.81137e-17
9.8144e-17
9.81756e-17
9.82079e-17
9.82404e-17
9.82733e-17
9.83052e-17
9.83374e-17
9.83658e-17
9.80235e-17
9.80442e-17
9.80651e-17
9.80901e-17
9.81168e-17
9.81463e-17
9.81776e-17
9.82102e-17
9.82438e-17
9.82774e-17
9.83117e-17
9.83451e-17
9.83787e-17
9.84079e-17
9.80532e-17
9.80744e-17
9.80954e-17
9.81209e-17
9.8148e-17
9.81782e-17
9.82101e-17
9.82435e-17
9.8278e-17
9.83126e-17
9.8348e-17
9.83828e-17
9.84175e-17
9.84484e-17
9.80778e-17
9.81002e-17
9.8122e-17
9.81481e-17
9.81761e-17
9.82073e-17
9.82407e-17
9.82754e-17
9.83116e-17
9.8348e-17
9.83849e-17
9.8421e-17
9.84554e-17
9.84871e-17
9.80995e-17
9.81226e-17
9.81463e-17
9.8174e-17
9.82036e-17
9.82359e-17
9.82703e-17
9.83057e-17
9.83425e-17
9.83794e-17
9.84165e-17
9.8453e-17
9.84878e-17
9.85232e-17
9.7276e-17
9.72864e-17
9.73051e-17
9.73241e-17
9.73466e-17
9.73712e-17
9.73979e-17
9.7426e-17
9.7455e-17
9.74843e-17
9.7513e-17
9.75414e-17
9.75673e-17
9.75941e-17
9.73297e-17
9.73345e-17
9.73516e-17
9.73688e-17
9.73906e-17
9.74145e-17
9.74409e-17
9.74691e-17
9.74984e-17
9.75282e-17
9.75574e-17
9.75865e-17
9.7613e-17
9.76431e-17
9.73794e-17
9.73837e-17
9.73998e-17
9.74162e-17
9.74373e-17
9.74604e-17
9.7486e-17
9.75133e-17
9.75418e-17
9.75711e-17
9.76002e-17
9.76294e-17
9.76563e-17
9.76865e-17
9.74276e-17
9.74331e-17
9.74481e-17
9.74638e-17
9.74843e-17
9.75072e-17
9.75326e-17
9.75597e-17
9.75881e-17
9.76175e-17
9.76466e-17
9.76761e-17
9.77035e-17
9.77338e-17
9.74736e-17
9.74815e-17
9.7496e-17
9.75121e-17
9.75324e-17
9.75552e-17
9.75804e-17
9.76072e-17
9.76354e-17
9.76646e-17
9.76938e-17
9.77233e-17
9.77511e-17
9.77812e-17
9.75211e-17
9.75305e-17
9.75444e-17
9.75612e-17
9.75815e-17
9.76044e-17
9.76297e-17
9.76567e-17
9.76851e-17
9.77145e-17
9.77441e-17
9.77737e-17
9.78023e-17
9.78318e-17
9.75671e-17
9.75784e-17
9.75925e-17
9.76103e-17
9.76309e-17
9.76544e-17
9.768e-17
9.77073e-17
9.7736e-17
9.77656e-17
9.77956e-17
9.78254e-17
9.78548e-17
9.78835e-17
9.7614e-17
9.76266e-17
9.76414e-17
9.76603e-17
9.76814e-17
9.77055e-17
9.77317e-17
9.77597e-17
9.77889e-17
9.78189e-17
9.78496e-17
9.78797e-17
9.79101e-17
9.79384e-17
9.76594e-17
9.76732e-17
9.76892e-17
9.77095e-17
9.77317e-17
9.77569e-17
9.7784e-17
9.78128e-17
9.78428e-17
9.78732e-17
9.79046e-17
9.79349e-17
9.79662e-17
9.79938e-17
9.77051e-17
9.77204e-17
9.77376e-17
9.77594e-17
9.77828e-17
9.78092e-17
9.78373e-17
9.7867e-17
9.78979e-17
9.79289e-17
9.79611e-17
9.7992e-17
9.80246e-17
9.80514e-17
9.77483e-17
9.77654e-17
9.7784e-17
9.78075e-17
9.78327e-17
9.78607e-17
9.78904e-17
9.79214e-17
9.79535e-17
9.79856e-17
9.80187e-17
9.80504e-17
9.80838e-17
9.81097e-17
9.77914e-17
9.78109e-17
9.78313e-17
9.78564e-17
9.78833e-17
9.79127e-17
9.79437e-17
9.79757e-17
9.80088e-17
9.80416e-17
9.80756e-17
9.81082e-17
9.81427e-17
9.81689e-17
9.7829e-17
9.78512e-17
9.78744e-17
9.79016e-17
9.79309e-17
9.79623e-17
9.79954e-17
9.80293e-17
9.80642e-17
9.80988e-17
9.8134e-17
9.81678e-17
9.82017e-17
9.82274e-17
9.78666e-17
9.78924e-17
9.79191e-17
9.79486e-17
9.79801e-17
9.80127e-17
9.80469e-17
9.80815e-17
9.81169e-17
9.81519e-17
9.81869e-17
9.82203e-17
9.82536e-17
9.82838e-17
9.70569e-17
9.7054e-17
9.70588e-17
9.70674e-17
9.7079e-17
9.70937e-17
9.71108e-17
9.71303e-17
9.71515e-17
9.71744e-17
9.71981e-17
9.72222e-17
9.72447e-17
9.72689e-17
9.71096e-17
9.71019e-17
9.71066e-17
9.71139e-17
9.71246e-17
9.71386e-17
9.71554e-17
9.71747e-17
9.71956e-17
9.72182e-17
9.72415e-17
9.72658e-17
9.7288e-17
9.73141e-17
9.71565e-17
9.71489e-17
9.71536e-17
9.71613e-17
9.71723e-17
9.71863e-17
9.72026e-17
9.72211e-17
9.72411e-17
9.72628e-17
9.72852e-17
9.7309e-17
9.7331e-17
9.7357e-17
9.72036e-17
9.7198e-17
9.72028e-17
9.72108e-17
9.72218e-17
9.72357e-17
9.72519e-17
9.72703e-17
9.72901e-17
9.73115e-17
9.73337e-17
9.73572e-17
9.73792e-17
9.74045e-17
9.72492e-17
9.72473e-17
9.72527e-17
9.72613e-17
9.72727e-17
9.72869e-17
9.73032e-17
9.73214e-17
9.73411e-17
9.73622e-17
9.73841e-17
9.74071e-17
9.74291e-17
9.74537e-17
9.72971e-17
9.72987e-17
9.73045e-17
9.73137e-17
9.73255e-17
9.734e-17
9.73566e-17
9.73752e-17
9.73951e-17
9.74162e-17
9.74381e-17
9.74608e-17
9.74831e-17
9.7507e-17
9.7345e-17
9.73495e-17
9.73565e-17
9.73668e-17
9.73794e-17
9.73946e-17
9.74118e-17
9.74308e-17
9.74508e-17
9.74719e-17
9.74939e-17
9.75164e-17
9.75391e-17
9.75617e-17
9.73943e-17
9.7401e-17
9.74093e-17
9.74209e-17
9.74346e-17
9.74508e-17
9.74688e-17
9.74883e-17
9.75088e-17
9.75301e-17
9.75525e-17
9.75749e-17
9.75982e-17
9.76197e-17
9.7443e-17
9.74519e-17
9.7462e-17
9.74753e-17
9.74906e-17
9.7508e-17
9.7527e-17
9.75471e-17
9.75681e-17
9.75896e-17
9.76123e-17
9.76345e-17
9.76584e-17
9.76787e-17
9.74926e-17
9.75037e-17
9.75154e-17
9.75306e-17
9.75474e-17
9.75661e-17
9.75862e-17
9.76071e-17
9.76287e-17
9.76507e-17
9.76741e-17
9.76966e-17
9.77212e-17
9.77403e-17
9.75406e-17
9.75541e-17
9.75678e-17
9.75852e-17
9.7604e-17
9.76244e-17
9.76458e-17
9.76678e-17
9.76903e-17
9.77128e-17
9.77367e-17
9.77595e-17
9.77848e-17
9.7802e-17
9.75895e-17
9.76056e-17
9.76216e-17
9.76408e-17
9.76615e-17
9.76833e-17
9.7706e-17
9.77289e-17
9.77522e-17
9.77755e-17
9.78001e-17
9.78236e-17
9.78494e-17
9.78657e-17
9.7634e-17
9.76525e-17
9.7672e-17
9.76936e-17
9.77167e-17
9.77407e-17
9.77654e-17
9.779e-17
9.78147e-17
9.78391e-17
9.78643e-17
9.78885e-17
9.79138e-17
9.79295e-17
9.76813e-17
9.77029e-17
9.77253e-17
9.77489e-17
9.77741e-17
9.77992e-17
9.78251e-17
9.78506e-17
9.7876e-17
9.7901e-17
9.79259e-17
9.79498e-17
9.79742e-17
9.79927e-17
9.69734e-17
9.69629e-17
9.69598e-17
9.6959e-17
9.69601e-17
9.69631e-17
9.69682e-17
9.69758e-17
9.69846e-17
9.69955e-17
9.70074e-17
9.70208e-17
9.70344e-17
9.7048e-17
9.70141e-17
9.70032e-17
9.70008e-17
9.69994e-17
9.70003e-17
9.70032e-17
9.70081e-17
9.70155e-17
9.70242e-17
9.70348e-17
9.70463e-17
9.70594e-17
9.70716e-17
9.70861e-17
9.70528e-17
9.70432e-17
9.70413e-17
9.70405e-17
9.70416e-17
9.70448e-17
9.70498e-17
9.70569e-17
9.70652e-17
9.70751e-17
9.70859e-17
9.70981e-17
9.71095e-17
9.71241e-17
9.70929e-17
9.70853e-17
9.70838e-17
9.70833e-17
9.70847e-17
9.70882e-17
9.70933e-17
9.71004e-17
9.71086e-17
9.71183e-17
9.71288e-17
9.71405e-17
9.71515e-17
9.71663e-17
9.71326e-17
9.71274e-17
9.71267e-17
9.71271e-17
9.71291e-17
9.7133e-17
9.71384e-17
9.71456e-17
9.71538e-17
9.71634e-17
9.71736e-17
9.71847e-17
9.71957e-17
9.72098e-17
9.71744e-17
9.71713e-17
9.71713e-17
9.71724e-17
9.71752e-17
9.71796e-17
9.71853e-17
9.71927e-17
9.72011e-17
9.72107e-17
9.72209e-17
9.72319e-17
9.72431e-17
9.72557e-17
9.7216e-17
9.72149e-17
9.72161e-17
9.72185e-17
9.72222e-17
9.72274e-17
9.72337e-17
9.72414e-17
9.72499e-17
9.72596e-17
9.72699e-17
9.72807e-17
9.72922e-17
9.73032e-17
9.72583e-17
9.72596e-17
9.7262e-17
9.72655e-17
9.72704e-17
9.72764e-17
9.72835e-17
9.72916e-17
9.73006e-17
9.73104e-17
9.7321e-17
9.73317e-17
9.73435e-17
9.73533e-17
9.73008e-17
9.73042e-17
9.7308e-17
9.73133e-17
9.73194e-17
9.73265e-17
9.73344e-17
9.73431e-17
9.73527e-17
9.73628e-17
9.73734e-17
9.73838e-17
9.7396e-17
9.74048e-17
9.73446e-17
9.735e-17
9.73551e-17
9.73619e-17
9.73694e-17
9.73775e-17
9.73863e-17
9.73959e-17
9.74063e-17
9.7417e-17
9.74279e-17
9.7438e-17
9.74508e-17
9.74585e-17
9.73884e-17
9.73957e-17
9.74024e-17
9.74111e-17
9.74201e-17
9.74294e-17
9.74395e-17
9.74499e-17
9.7461e-17
9.74721e-17
9.74832e-17
9.74931e-17
9.75062e-17
9.75119e-17
9.7434e-17
9.74431e-17
9.74513e-17
9.74614e-17
9.74717e-17
9.74823e-17
9.74934e-17
9.75047e-17
9.75166e-17
9.75283e-17
9.75399e-17
9.75502e-17
9.7564e-17
9.75677e-17
9.74776e-17
9.74881e-17
9.7499e-17
9.7511e-17
9.75232e-17
9.75354e-17
9.75479e-17
9.75602e-17
9.75727e-17
9.75849e-17
9.75966e-17
9.76072e-17
9.76204e-17
9.76238e-17
9.75251e-17
9.75365e-17
9.75498e-17
9.75628e-17
9.75765e-17
9.75896e-17
9.76029e-17
9.76159e-17
9.76289e-17
9.76414e-17
9.76531e-17
9.76641e-17
9.76768e-17
9.76833e-17
9.69616e-17
9.69511e-17
9.69436e-17
9.69367e-17
9.69312e-17
9.69264e-17
9.69231e-17
9.69208e-17
9.69198e-17
9.69201e-17
9.69211e-17
9.69236e-17
9.69271e-17
9.69319e-17
9.69928e-17
9.6981e-17
9.69739e-17
9.6967e-17
9.69616e-17
9.69568e-17
9.69532e-17
9.69507e-17
9.69494e-17
9.69494e-17
9.69501e-17
9.69525e-17
9.69542e-17
9.69606e-17
9.70211e-17
9.70101e-17
9.70037e-17
9.69973e-17
9.69922e-17
9.69878e-17
9.69844e-17
9.69819e-17
9.69802e-17
9.69796e-17
9.69797e-17
9.69812e-17
9.69822e-17
9.69878e-17
9.70508e-17
9.70409e-17
9.7035e-17
9.70289e-17
9.7024e-17
9.70197e-17
9.70165e-17
9.70139e-17
9.7012e-17
9.7011e-17
9.70107e-17
9.70118e-17
9.70124e-17
9.7017e-17
9.70792e-17
9.7071e-17
9.70659e-17
9.70605e-17
9.70561e-17
9.70523e-17
9.70493e-17
9.70469e-17
9.70451e-17
9.7044e-17
9.70433e-17
9.70439e-17
9.70441e-17
9.70474e-17
9.71092e-17
9.71025e-17
9.7098e-17
9.70932e-17
9.70893e-17
9.70859e-17
9.70831e-17
9.70809e-17
9.70792e-17
9.70781e-17
9.70774e-17
9.70775e-17
9.70775e-17
9.70795e-17
9.71393e-17
9.71343e-17
9.71305e-17
9.71266e-17
9.71233e-17
9.71204e-17
9.7118e-17
9.71161e-17
9.71145e-17
9.71134e-17
9.71127e-17
9.71123e-17
9.71122e-17
9.71129e-17
9.71707e-17
9.71673e-17
9.71642e-17
9.71612e-17
9.71585e-17
9.71561e-17
9.7154e-17
9.71522e-17
9.71509e-17
9.71498e-17
9.71492e-17
9.71484e-17
9.71485e-17
9.71479e-17
9.72025e-17
9.7201e-17
9.71987e-17
9.71966e-17
9.71946e-17
9.71927e-17
9.71911e-17
9.71897e-17
9.71885e-17
9.71874e-17
9.71868e-17
9.71858e-17
9.71864e-17
9.71847e-17
9.72356e-17
9.72358e-17
9.72342e-17
9.72331e-17
9.72317e-17
9.72305e-17
9.72293e-17
9.72283e-17
9.72274e-17
9.72263e-17
9.72257e-17
9.72246e-17
9.72259e-17
9.72236e-17
9.72697e-17
9.72713e-17
9.72706e-17
9.72707e-17
9.72701e-17
9.72694e-17
9.72688e-17
9.72681e-17
9.72674e-17
9.72663e-17
9.72659e-17
9.7265e-17
9.72667e-17
9.72635e-17
9.73056e-17
9.73082e-17
9.73081e-17
9.73091e-17
9.73093e-17
9.73093e-17
9.73093e-17
9.7309e-17
9.73087e-17
9.73079e-17
9.73079e-17
9.73076e-17
9.73094e-17
9.73052e-17
9.73417e-17
9.73449e-17
9.73463e-17
9.73484e-17
9.73496e-17
9.73504e-17
9.73508e-17
9.73508e-17
9.73505e-17
9.73498e-17
9.73497e-17
9.73498e-17
9.73506e-17
9.73456e-17
9.73822e-17
9.73833e-17
9.7386e-17
9.73886e-17
9.73906e-17
9.7392e-17
9.73931e-17
9.73935e-17
9.73936e-17
9.73932e-17
9.73928e-17
9.73932e-17
9.73939e-17
9.7391e-17
9.69782e-17
9.69662e-17
9.69568e-17
9.69471e-17
9.69381e-17
9.6929e-17
9.69205e-17
9.6912e-17
9.69046e-17
9.68973e-17
9.6891e-17
9.68853e-17
9.68794e-17
9.68744e-17
9.6997e-17
9.69852e-17
9.69762e-17
9.69663e-17
9.6957e-17
9.69478e-17
9.6939e-17
9.69304e-17
9.69226e-17
9.69149e-17
9.69082e-17
9.6902e-17
9.68958e-17
9.6892e-17
9.70135e-17
9.70022e-17
9.69937e-17
9.69843e-17
9.69754e-17
9.69664e-17
9.69579e-17
9.69494e-17
9.69415e-17
9.69338e-17
9.69266e-17
9.69199e-17
9.69129e-17
9.69087e-17
9.70317e-17
9.70212e-17
9.7013e-17
9.70037e-17
9.69949e-17
9.6986e-17
9.69774e-17
9.69689e-17
9.69608e-17
9.69528e-17
9.69452e-17
9.6938e-17
9.69304e-17
9.69254e-17
9.70492e-17
9.70398e-17
9.70319e-17
9.7023e-17
9.70145e-17
9.70058e-17
9.69974e-17
9.69889e-17
9.69807e-17
9.69725e-17
9.69645e-17
9.69568e-17
9.69487e-17
9.69426e-17
9.70677e-17
9.70593e-17
9.70517e-17
9.70432e-17
9.70348e-17
9.70262e-17
9.70178e-17
9.70093e-17
9.70009e-17
9.69925e-17
9.69843e-17
9.69762e-17
9.69679e-17
9.69606e-17
9.70866e-17
9.70792e-17
9.70718e-17
9.70638e-17
9.70556e-17
9.70472e-17
9.70388e-17
9.70303e-17
9.70219e-17
9.70133e-17
9.7005e-17
9.69965e-17
9.6988e-17
9.69798e-17
9.71067e-17
9.71001e-17
9.70929e-17
9.70854e-17
9.70773e-17
9.70691e-17
9.70606e-17
9.7052e-17
9.70433e-17
9.70346e-17
9.70261e-17
9.70173e-17
9.70087e-17
9.69998e-17
9.71273e-17
9.71215e-17
9.71145e-17
9.71074e-17
9.70995e-17
9.70915e-17
9.70831e-17
9.70745e-17
9.70658e-17
9.7057e-17
9.70483e-17
9.7039e-17
9.70303e-17
9.70202e-17
9.7149e-17
9.7144e-17
9.71372e-17
9.71305e-17
9.71228e-17
9.71149e-17
9.71064e-17
9.70977e-17
9.70887e-17
9.70795e-17
9.70705e-17
9.70607e-17
9.70521e-17
9.70413e-17
9.71714e-17
9.71671e-17
9.71605e-17
9.7154e-17
9.71464e-17
9.71386e-17
9.71301e-17
9.71215e-17
9.71123e-17
9.71029e-17
9.70935e-17
9.70832e-17
9.70746e-17
9.70632e-17
9.7195e-17
9.7191e-17
9.71846e-17
9.71785e-17
9.7171e-17
9.71632e-17
9.71547e-17
9.71458e-17
9.71364e-17
9.71266e-17
9.71171e-17
9.71066e-17
9.70979e-17
9.70863e-17
9.72195e-17
9.72158e-17
9.721e-17
9.72039e-17
9.71965e-17
9.71885e-17
9.71798e-17
9.71706e-17
9.71609e-17
9.71507e-17
9.71409e-17
9.71301e-17
9.71209e-17
9.71093e-17
9.72469e-17
9.72406e-17
9.72345e-17
9.72285e-17
9.72217e-17
9.7214e-17
9.72056e-17
9.71963e-17
9.71868e-17
9.71766e-17
9.71665e-17
9.71556e-17
9.71459e-17
9.71347e-17
9.69937e-17
9.69813e-17
9.69708e-17
9.69595e-17
9.69481e-17
9.69364e-17
9.69248e-17
9.69129e-17
9.69014e-17
9.68893e-17
9.68782e-17
9.68663e-17
9.68554e-17
9.68437e-17
9.70012e-17
9.69898e-17
9.698e-17
9.69687e-17
9.69574e-17
9.69454e-17
9.69334e-17
9.69211e-17
9.69092e-17
9.68966e-17
9.68851e-17
9.68731e-17
9.6862e-17
9.68507e-17
9.70077e-17
9.69966e-17
9.69869e-17
9.6976e-17
9.6965e-17
9.69534e-17
9.69416e-17
9.69294e-17
9.69174e-17
9.6905e-17
9.68933e-17
9.68812e-17
9.68695e-17
9.6858e-17
9.70154e-17
9.70049e-17
9.69952e-17
9.69843e-17
9.69733e-17
9.69618e-17
9.695e-17
9.69378e-17
9.69257e-17
9.69132e-17
9.69012e-17
9.68888e-17
9.68767e-17
9.68649e-17
9.70231e-17
9.70134e-17
9.70038e-17
9.6993e-17
9.69821e-17
9.69706e-17
9.69588e-17
9.69465e-17
9.69341e-17
9.69214e-17
9.69089e-17
9.68961e-17
9.68834e-17
9.68709e-17
9.70315e-17
9.70224e-17
9.70127e-17
9.70022e-17
9.69911e-17
9.69795e-17
9.69675e-17
9.6955e-17
9.69424e-17
9.69294e-17
9.69165e-17
9.69032e-17
9.689e-17
9.68768e-17
9.70402e-17
9.70314e-17
9.70218e-17
9.70113e-17
9.70002e-17
9.69884e-17
9.69763e-17
9.69636e-17
9.69507e-17
9.69374e-17
9.69241e-17
9.69104e-17
9.68966e-17
9.68827e-17
9.70495e-17
9.70408e-17
9.70311e-17
9.70206e-17
9.70092e-17
9.69974e-17
9.69849e-17
9.6972e-17
9.69586e-17
9.6945e-17
9.69313e-17
9.69172e-17
9.6903e-17
9.68887e-17
9.7059e-17
9.70505e-17
9.70404e-17
9.70298e-17
9.70182e-17
9.70061e-17
9.69933e-17
9.69802e-17
9.69665e-17
9.69526e-17
9.69384e-17
9.69238e-17
9.69092e-17
9.68944e-17
9.7069e-17
9.70605e-17
9.70502e-17
9.70395e-17
9.70275e-17
9.70151e-17
9.70019e-17
9.69884e-17
9.69742e-17
9.69599e-17
9.69453e-17
9.69305e-17
9.69156e-17
9.69004e-17
9.70793e-17
9.70706e-17
9.70601e-17
9.70491e-17
9.70366e-17
9.70238e-17
9.70102e-17
9.69965e-17
9.6982e-17
9.69674e-17
9.69524e-17
9.69371e-17
9.69218e-17
9.69056e-17
9.70894e-17
9.70807e-17
9.70701e-17
9.70589e-17
9.70462e-17
9.7033e-17
9.7019e-17
9.70045e-17
9.69895e-17
9.69745e-17
9.69591e-17
9.69435e-17
9.69279e-17
9.6911e-17
9.71e-17
9.70909e-17
9.70801e-17
9.70683e-17
9.70552e-17
9.70414e-17
9.70272e-17
9.70128e-17
9.69976e-17
9.6982e-17
9.69662e-17
9.69498e-17
9.69333e-17
9.69157e-17
9.71107e-17
9.71004e-17
9.70892e-17
9.70772e-17
9.70644e-17
9.70506e-17
9.7036e-17
9.70211e-17
9.70057e-17
9.69898e-17
9.69737e-17
9.69569e-17
9.69402e-17
9.69223e-17
9.69887e-17
9.69771e-17
9.69662e-17
9.69545e-17
9.69421e-17
9.69288e-17
9.69151e-17
9.69006e-17
9.68864e-17
9.68716e-17
9.68576e-17
9.6842e-17
9.68277e-17
9.68109e-17
9.69885e-17
9.69775e-17
9.69672e-17
9.69552e-17
9.69427e-17
9.69292e-17
9.69152e-17
9.69006e-17
9.68859e-17
9.68705e-17
9.68559e-17
9.68401e-17
9.68257e-17
9.68098e-17
9.69864e-17
9.69764e-17
9.69661e-17
9.6954e-17
9.69416e-17
9.69284e-17
9.69146e-17
9.69001e-17
9.68854e-17
9.68699e-17
9.6855e-17
9.68391e-17
9.68242e-17
9.68081e-17
9.69851e-17
9.69754e-17
9.69648e-17
9.69529e-17
9.69404e-17
9.69271e-17
9.69133e-17
9.68988e-17
9.6884e-17
9.68685e-17
9.68533e-17
9.68374e-17
9.68222e-17
9.68061e-17
9.69832e-17
9.69738e-17
9.69631e-17
9.69513e-17
9.69388e-17
9.69255e-17
9.69116e-17
9.68969e-17
9.68818e-17
9.68661e-17
9.68505e-17
9.68343e-17
9.68186e-17
9.68022e-17
9.69813e-17
9.69719e-17
9.69611e-17
9.69493e-17
9.69366e-17
9.69231e-17
9.6909e-17
9.68941e-17
9.68788e-17
9.68629e-17
9.68469e-17
9.68304e-17
9.68143e-17
9.67976e-17
9.69798e-17
9.69701e-17
9.69591e-17
9.69471e-17
9.69342e-17
9.69204e-17
9.6906e-17
9.68908e-17
9.68752e-17
9.6859e-17
9.68426e-17
9.68259e-17
9.68092e-17
9.67921e-17
9.69779e-17
9.6968e-17
9.69565e-17
9.69442e-17
9.69309e-17
9.69169e-17
9.69021e-17
9.68867e-17
9.68707e-17
9.68543e-17
9.68376e-17
9.68206e-17
9.68034e-17
9.67862e-17
9.69763e-17
9.6966e-17
9.6954e-17
9.69414e-17
9.69275e-17
9.6913e-17
9.68978e-17
9.6882e-17
9.68655e-17
9.68488e-17
9.68316e-17
9.68144e-17
9.67967e-17
9.67795e-17
9.69742e-17
9.69631e-17
9.69507e-17
9.69375e-17
9.69232e-17
9.69083e-17
9.68927e-17
9.68766e-17
9.68598e-17
9.68429e-17
9.68253e-17
9.68079e-17
9.67896e-17
9.67725e-17
9.69723e-17
9.69604e-17
9.69475e-17
9.69338e-17
9.6919e-17
9.69035e-17
9.68872e-17
9.68706e-17
9.68533e-17
9.68359e-17
9.68179e-17
9.68003e-17
9.67816e-17
9.67645e-17
9.69696e-17
9.69568e-17
9.69435e-17
9.69291e-17
9.69138e-17
9.68979e-17
9.68812e-17
9.68643e-17
9.68466e-17
9.68289e-17
9.68106e-17
9.67926e-17
9.67735e-17
9.67563e-17
9.69668e-17
9.6953e-17
9.69393e-17
9.69243e-17
9.69086e-17
9.68921e-17
9.6875e-17
9.68573e-17
9.68391e-17
9.68209e-17
9.68022e-17
9.67838e-17
9.67646e-17
9.67465e-17
9.69636e-17
9.69489e-17
9.69347e-17
9.69191e-17
9.69029e-17
9.68858e-17
9.68681e-17
9.68504e-17
9.68323e-17
9.68143e-17
9.67958e-17
9.67774e-17
9.6758e-17
9.67392e-17
9.69441e-17
9.69338e-17
9.69231e-17
9.69111e-17
9.68983e-17
9.68845e-17
9.68699e-17
9.68545e-17
9.68385e-17
9.68217e-17
9.68052e-17
9.67874e-17
9.67712e-17
9.67518e-17
9.69346e-17
9.69246e-17
9.69142e-17
9.69022e-17
9.68893e-17
9.68755e-17
9.68608e-17
9.68452e-17
9.68291e-17
9.68122e-17
9.67955e-17
9.67776e-17
9.6761e-17
9.67425e-17
9.69234e-17
9.69144e-17
9.69037e-17
9.68917e-17
9.68789e-17
9.68653e-17
9.68507e-17
9.68352e-17
9.68191e-17
9.68022e-17
9.67855e-17
9.67677e-17
9.67508e-17
9.67325e-17
9.69125e-17
9.69037e-17
9.68928e-17
9.68809e-17
9.68679e-17
9.68542e-17
9.68395e-17
9.6824e-17
9.68079e-17
9.6791e-17
9.67741e-17
9.67565e-17
9.67396e-17
9.67216e-17
9.69012e-17
9.68923e-17
9.68813e-17
9.68694e-17
9.68563e-17
9.68425e-17
9.68277e-17
9.68121e-17
9.6796e-17
9.6779e-17
9.6762e-17
9.67444e-17
9.67273e-17
9.67092e-17
9.68896e-17
9.68802e-17
9.6869e-17
9.68569e-17
9.68437e-17
9.68296e-17
9.68147e-17
9.6799e-17
9.67827e-17
9.67657e-17
9.67486e-17
9.67309e-17
9.67136e-17
9.66956e-17
9.6878e-17
9.68681e-17
9.68566e-17
9.68442e-17
9.68306e-17
9.68162e-17
9.68011e-17
9.67852e-17
9.67687e-17
9.67516e-17
9.67343e-17
9.67166e-17
9.66991e-17
9.66811e-17
9.68655e-17
9.6855e-17
9.6843e-17
9.68302e-17
9.68163e-17
9.68017e-17
9.67863e-17
9.67703e-17
9.67536e-17
9.67364e-17
9.67189e-17
9.67013e-17
9.66834e-17
9.66656e-17
9.68535e-17
9.6842e-17
9.68295e-17
9.68161e-17
9.68018e-17
9.67867e-17
9.67709e-17
9.67546e-17
9.67375e-17
9.67202e-17
9.67024e-17
9.66848e-17
9.66667e-17
9.66495e-17
9.68404e-17
9.68278e-17
9.68148e-17
9.68007e-17
9.6786e-17
9.67706e-17
9.67545e-17
9.6738e-17
9.67208e-17
9.67035e-17
9.66854e-17
9.66678e-17
9.66492e-17
9.66325e-17
9.68277e-17
9.68138e-17
9.68003e-17
9.67856e-17
9.67704e-17
9.67544e-17
9.67378e-17
9.67208e-17
9.67031e-17
9.66855e-17
9.66672e-17
9.66495e-17
9.66308e-17
9.66148e-17
9.68133e-17
9.67984e-17
9.67844e-17
9.67691e-17
9.67533e-17
9.6737e-17
9.67202e-17
9.6703e-17
9.66853e-17
9.66676e-17
9.66493e-17
9.66316e-17
9.66125e-17
9.65968e-17
9.67995e-17
9.67838e-17
9.67691e-17
9.67532e-17
9.67368e-17
9.67199e-17
9.67024e-17
9.66846e-17
9.66662e-17
9.66481e-17
9.66294e-17
9.66116e-17
9.65927e-17
9.65771e-17
9.67835e-17
9.67671e-17
9.67519e-17
9.67354e-17
9.67185e-17
9.67013e-17
9.66838e-17
9.66662e-17
9.66482e-17
9.66303e-17
9.6612e-17
9.65942e-17
9.65754e-17
9.6559e-17
9.68253e-17
9.68162e-17
9.68064e-17
9.67957e-17
9.67842e-17
9.67719e-17
9.67585e-17
9.67443e-17
9.67291e-17
9.67131e-17
9.66967e-17
9.66793e-17
9.66626e-17
9.66434e-17
9.6807e-17
9.67993e-17
9.67896e-17
9.67791e-17
9.67674e-17
9.67549e-17
9.67413e-17
9.67268e-17
9.67115e-17
9.66953e-17
9.66789e-17
9.66616e-17
9.6645e-17
9.66269e-17
9.67886e-17
9.67815e-17
9.67712e-17
9.67607e-17
9.67489e-17
9.67366e-17
9.67231e-17
9.67089e-17
9.66939e-17
9.6678e-17
9.66619e-17
9.66448e-17
9.66284e-17
9.66108e-17
9.67701e-17
9.67629e-17
9.67525e-17
9.6742e-17
9.673e-17
9.67175e-17
9.6704e-17
9.66897e-17
9.66746e-17
9.66588e-17
9.66428e-17
9.6626e-17
9.66098e-17
9.65927e-17
9.67516e-17
9.67438e-17
9.67332e-17
9.67224e-17
9.67103e-17
9.66977e-17
9.66841e-17
9.66698e-17
9.66549e-17
9.66393e-17
9.66235e-17
9.6607e-17
9.6591e-17
9.65741e-17
9.67323e-17
9.67238e-17
9.67131e-17
9.6702e-17
9.66898e-17
9.6677e-17
9.66633e-17
9.6649e-17
9.66341e-17
9.66185e-17
9.66028e-17
9.65865e-17
9.65706e-17
9.6554e-17
9.6713e-17
9.67037e-17
9.66927e-17
9.66813e-17
9.66688e-17
9.66557e-17
9.66419e-17
9.66275e-17
9.66126e-17
9.65972e-17
9.65816e-17
9.65656e-17
9.65497e-17
9.65334e-17
9.66926e-17
9.66824e-17
9.66713e-17
9.66594e-17
9.66468e-17
9.66336e-17
9.66197e-17
9.66052e-17
9.65902e-17
9.65749e-17
9.65593e-17
9.65435e-17
9.65276e-17
9.65118e-17
9.66726e-17
9.66614e-17
9.66498e-17
9.66374e-17
9.66246e-17
9.6611e-17
9.65969e-17
9.65823e-17
9.65672e-17
9.65519e-17
9.65362e-17
9.65207e-17
9.65048e-17
9.64899e-17
9.66514e-17
9.66391e-17
9.66272e-17
9.66143e-17
9.66012e-17
9.65875e-17
9.65734e-17
9.65588e-17
9.65437e-17
9.65284e-17
9.65126e-17
9.64972e-17
9.64811e-17
9.64671e-17
9.66308e-17
9.66174e-17
9.66051e-17
9.65916e-17
9.65781e-17
9.65641e-17
9.65496e-17
9.65347e-17
9.65194e-17
9.6504e-17
9.64881e-17
9.64729e-17
9.64569e-17
9.64441e-17
9.66084e-17
9.6594e-17
9.65813e-17
9.65675e-17
9.65537e-17
9.65396e-17
9.65251e-17
9.65103e-17
9.6495e-17
9.64797e-17
9.64639e-17
9.64489e-17
9.64328e-17
9.64206e-17
9.65874e-17
9.65721e-17
9.65588e-17
9.65446e-17
9.65303e-17
9.65156e-17
9.65005e-17
9.64852e-17
9.64696e-17
9.6454e-17
9.64381e-17
9.64231e-17
9.64075e-17
9.63958e-17
9.65628e-17
9.65475e-17
9.65336e-17
9.65193e-17
9.65047e-17
9.64902e-17