/*--------------------------------*- C++ -*----------------------------------*\
| =========                 |                                                 |
| \\      /  F ield         | OpenFOAM: The Open Source CFD Toolbox           |
|  \\    /   O peration     | Version:  v2106                                 |
|   \\  /    A nd           | Website:  www.openfoam.com                      |
|    \\/     M anipulation  |                                                 |
\*---------------------------------------------------------------------------*/
FoamFile
{
    version     2.0;
    format      ascii;
    arch        "LSB;label=32;scalar=64";
    class       volScalarField;
    location    "0.00019";
    object      p;
}
// * * * * * * * * * * * * * * * * * * * * * * * * * * * * * * * * * * * * * //

dimensions      [1 -1 -2 0 0 0 0];

internalField   nonuniform List<scalar> 
17924
(
242379
242445
242500
242551
241942
242034
242117
242194
242258
242314
242362
241960
242049
242135
242212
242282
242343
242398
241973
242067
242158
242237
242310
242374
242432
241988
242083
242175
242257
242333
242400
242460
242009
242104
242198
242280
242357
242424
242485
242030
242125
242216
242298
242374
242441
242503
242057
242149
242237
242317
242390
242455
242513
242083
242171
242254
242330
242399
242461
242517
242110
242194
242270
242341
242404
242463
242515
242137
242214
242283
242347
242406
242459
242505
242161
242231
242292
242350
242400
242446
242485
242185
242245
242297
242345
242387
242426
242460
242202
242253
242295
242334
242368
242399
242424
242226
242266
242294
242321
242345
242366
242384
241333
241440
241534
241617
241691
241758
241817
241868
241912
241950
241983
242011
242037
242071
241382
241477
241576
241664
241745
241818
241883
241939
241989
242031
242069
242101
242130
242169
241438
241536
241636
241725
241807
241881
241948
242007
242059
242104
242145
242179
242209
242245
241491
241588
241689
241779
241863
241939
242009
242071
242126
242174
242217
242253
242287
242322
241548
241646
241746
241835
241920
241996
242066
242128
242184
242233
242278
242315
242350
242383
241604
241701
241798
241886
241969
242045
242115
242178
242235
242285
242330
242369
242405
242437
241660
241755
241847
241933
242014
242088
242157
242218
242274
242324
242369
242409
242445
242476
241714
241804
241891
241973
242051
242123
242189
242249
242304
242353
242398
242438
242474
242506
241761
241847
241928
242006
242079
242147
242209
242266
242318
242366
242409
242450
242486
242522
241805
241884
241957
242029
242095
242158
242217
242272
242322
242369
242412
242453
242488
242525
241841
241913
241978
242043
242103
242161
242215
242266
242313
242358
242400
242441
242476
242517
241871
241934
241990
242047
242101
242154
242202
242249
242293
242337
242377
242418
242453
242496
241891
241946
241994
242045
242090
242135
242176
242218
242258
242299
242339
242380
242416
242461
241908
241956
241993
242032
242069
242107
242144
242181
242218
242256
242294
242334
242372
242422
240519
240613
240704
240787
240864
240935
241001
241061
241116
241167
241214
241256
241297
241340
240597
240682
240776
240862
240943
241018
241088
241152
241211
241264
241314
241361
241405
241457
240687
240772
240865
240949
241030
241104
241175
241239
241299
241354
241406
241453
241499
241551
240772
240854
240945
241029
241111
241187
241259
241325
241387
241444
241498
241548
241597
241646
240856
240939
241028
241110
241191
241266
241338
241405
241468
241527
241583
241634
241684
241732
240939
241020
241105
241186
241265
241340
241412
241480
241544
241605
241662
241716
241767
241815
241016
241096
241177
241255
241333
241407
241478
241546
241612
241673
241732
241787
241840
241888
241091
241167
241244
241319
241394
241466
241537
241605
241671
241734
241794
241852
241906
241956
241156
241230
241301
241374
241445
241516
241585
241653
241720
241784
241846
241905
241962
242015
241217
241287
241352
241421
241489
241557
241626
241693
241760
241825
241888
241950
242009
242065
241268
241334
241394
241459
241523
241589
241655
241722
241789
241855
241921
241985
242048
242109
241312
241373
241426
241488
241549
241613
241678
241744
241811
241878
241946
242013
242078
242144
241347
241404
241450
241508
241566
241628
241691
241756
241824
241893
241963
242034
242103
242180
241374
241427
241466
241517
241570
241631
241695
241762
241832
241904
241976
242050
242121
242204
239562
239630
239705
239777
239849
239919
239990
240059
240126
240192
240255
240316
240375
240436
239670
239727
239802
239873
239946
240017
240088
240159
240229
240296
240362
240426
240487
240556
239783
239838
239911
239979
240049
240118
240188
240258
240327
240395
240461
240526
240587
240657
239891
239944
240013
240079
240148
240216
240287
240358
240428
240498
240566
240633
240696
240765
239996
240049
240115
240178
240246
240314
240384
240455
240526
240597
240667
240735
240800
240868
240100
240152
240214
240276
240342
240410
240480
240553
240625
240698
240769
240840
240907
240974
240197
240249
240309
240369
240435
240502
240574
240647
240721
240796
240869
240941
241011
241077
240293
240344
240400
240461
240525
240594
240666
240740
240817
240892
240969
241042
241116
241183
240380
240431
240485
240546
240610
240680
240754
240830
240909
240987
241066
241141
241217
241285
240464
240517
240569
240630
240695
240766
240841
240919
240999
241079
241161
241238
241319
241387
240541
240594
240645
240706
240772
240845
240922
241003
241087
241170
241254
241335
241418
241487
240614
240669
240719
240782
240849
240924
241003
241085
241171
241256
241343
241425
241512
241587
240677
240734
240785
240849
240918
240995
241078
241164
241254
241343
241434
241521
241610
241690
240738
240795
240848
240915
240986
241066
241150
241238
241328
241419
241511
241603
241696
241791
238702
238725
238769
238816
238871
238933
238999
239069
239141
239214
239285
239355
239421
239493
238831
238841
238883
238926
238980
239040
239106
239175
239248
239322
239394
239466
239533
239610
238953
238963
239002
239043
239096
239153
239216
239284
239354
239427
239498
239571
239638
239714
239073
239086
239122
239161
239212
239269
239331
239398
239469
239542
239613
239687
239755
239831
239188
239206
239242
239281
239331
239387
239449
239515
239585
239657
239730
239803
239873
239948
239306
239328
239361
239402
239452
239509
239571
239638
239708
239781
239854
239928
239999
240073
239420
239446
239480
239524
239574
239632
239695
239763
239834
239907
239981
240055
240129
240201
239536
239565
239601
239647
239699
239758
239823
239892
239964
240038
240115
240189
240265
240335
239648
239680
239719
239768
239823
239885
239952
240023
240097
240173
240251
240325
240404
240471
239760
239797
239839
239892
239949
240014
240084
240157
240234
240310
240390
240466
240547
240612
239864
239907
239953
240010
240072
240141
240215
240291
240371
240450
240532
240609
240692
240753
239970
240020
240069
240131
240197
240270
240347
240426
240508
240589
240672
240751
240837
240899
240065
240121
240176
240243
240315
240393
240475
240559
240645
240730
240817
240898
240985
241048
240165
240228
240289
240361
240438
240518
240602
240688
240775
240861
240948
241031
241118
241197
238161
238151
238161
238182
238210
238246
238289
238337
238390
238446
238505
238565
238622
238686
238288
238267
238278
238296
238323
238358
238400
238448
238499
238555
238612
238672
238728
238794
238404
238384
238395
238414
238441
238476
238516
238562
238611
238665
238720
238779
238834
238899
238520
238506
238517
238537
238564
238599
238638
238684
238733
238786
238840
238899
238953
239016
238635
238629
238641
238663
238690
238725
238765
238810
238859
238911
238965
239023
239077
239139
238753
238756
238770
238792
238821
238857
238898
238943
238992
239045
239099
239155
239211
239271
238872
238882
238899
238924
238955
238992
239034
239081
239131
239183
239237
239293
239350
239406
238994
239009
239030
239058
239091
239131
239176
239224
239274
239327
239382
239438
239496
239549
239115
239136
239160
239192
239230
239272
239319
239369
239421
239474
239530
239585
239645
239695
239237
239264
239292
239329
239370
239417
239466
239518
239571
239626
239683
239739
239800
239846
239354
239388
239421
239464
239510
239560
239613
239668
239723
239779
239838
239894
239956
239997
239475
239515
239554
239601
239652
239706
239762
239819
239877
239934
239995
240052
240116
240153
239586
239632
239679
239732
239789
239849
239910
239971
240032
240092
240154
240212
240276
240313
239708
239761
239813
239870
239932
239994
240058
240121
240183
240245
240307
240365
240428
240476
237954
237926
237917
237915
237917
237924
237937
237955
237977
238004
238033
238067
238101
238138
238053
238024
238017
238014
238017
238024
238036
238054
238076
238102
238130
238162
238193
238230
238148
238124
238118
238117
238119
238127
238139
238157
238177
238201
238228
238258
238286
238323
238248
238228
238224
238223
238226
238235
238247
238265
238285
238309
238334
238363
238391
238427
238347
238334
238331
238332
238337
238346
238359
238377
238397
238420
238445
238473
238501
238536
238451
238442
238442
238444
238451
238462
238476
238494
238514
238538
238563
238590
238618
238650
238554
238551
238553
238559
238568
238580
238596
238614
238635
238659
238684
238711
238740
238767
238659
238661
238667
238675
238687
238702
238719
238739
238761
238785
238811
238837
238867
238891
238764
238772
238781
238793
238808
238826
238845
238866
238890
238915
238941
238967
238997
239019
238872
238885
238897
238914
238932
238952
238974
238997
239023
239049
239076
239101
239133
239151
238980
238998
239014
239035
239057
239080
239105
239130
239158
239185
239213
239237
239269
239282
239092
239115
239135
239160
239185
239211
239239
239267
239296
239325
239353
239378
239412
239419
239201
239227
239253
239283
239313
239343
239374
239404
239435
239464
239493
239518
239552
239559
239323
239349
239380
239412
239445
239477
239510
239542
239574
239605
239634
239661
239694
239710
237925
237897
237877
237859
237845
237833
237824
237819
237816
237817
237819
237825
237835
237848
238000
237969
237951
237934
237921
237909
237900
237894
237890
237890
237891
237897
237902
237918
238069
238042
238025
238010
237997
237986
237977
237971
237966
237964
237964
237968
237970
237985
238143
238118
238103
238088
238076
238065
238057
238050
238045
238042
238041
238044
238045
238057
238214
238194
238180
238167
238156
238146
238138
238132
238127
238124
238122
238124
238124
238132
238289
238272
238260
238248
238238
238230
238222
238217
238212
238209
238207
238207
238207
238212
238363
238351
238341
238331
238322
238315
238309
238304
238300
238297
238295
238294
238293
238295
238441
238433
238424
238417
238410
238404
238398
238393
238390
238387
238385
238383
238383
238382
238520
238516
238510
238504
238499
238494
238490
238486
238483
238480
238478
238476
238477
238473
238602
238602
238598
238595
238591
238588
238585
238582
238579
238576
238575
238572
238575
238569
238686
238690
238688
238688
238686
238684
238682
238680
238678
238675
238674
238672
238676
238667
238775
238781
238781
238783
238783
238783
238783
238782
238781
238778
238778
238777
238781
238770
238865
238873
238876
238881
238883
238885
238886
238885
238884
238882
238881
238881
238883
238871
238969
238969
238974
238980
238984
238988
238990
238991
238991
238990
238989
238990
238993
238986
237964
237933
237908
237884
237861
237838
237816
237795
237777
237758
237743
237728
237715
237703
238009
237978
237955
237931
237908
237885
237863
237841
237822
237802
237785
237770
237755
237745
238049
238021
237999
237976
237954
237931
237910
237888
237869
237849
237831
237814
237797
237786
238093
238068
238047
238024
238002
237980
237958
237937
237917
237896
237877
237859
237840
237827
238138
238114
238094
238072
238051
238029
238008
237987
237966
237945
237925
237906
237886
237870
238184
238163
238144
238122
238101
238080
238059
238037
238016
237995
237974
237954
237933
237915
238231
238212
238194
238173
238153
238132
238111
238089
238068
238047
238026
238005
237983
237963
238281
238264
238246
238227
238207
238186
238165
238143
238121
238100
238078
238056
238035
238013
238332
238317
238300
238281
238262
238242
238221
238199
238177
238155
238133
238110
238088
238063
238386
238373
238356
238339
238319
238300
238278
238256
238234
238211
238188
238164
238142
238115
238441
238430
238414
238397
238378
238358
238337
238315
238292
238268
238245
238219
238197
238169
238500
238489
238473
238458
238439
238420
238398
238376
238352
238327
238303
238277
238255
238226
238561
238552
238536
238521
238502
238482
238460
238437
238412
238387
238362
238335
238312
238284
238631
238613
238597
238582
238564
238545
238524
238501
238477
238451
238426
238399
238376
238348
237999
237967
237940
237912
237883
237854
237825
237795
237766
237736
237709
237679
237653
237624
238016
237987
237962
237935
237906
237877
237847
237816
237786
237754
237725
237695
237668
237640
238032
238004
237980
237953
237925
237896
237867
237836
237806
237775
237746
237715
237686
237658
238050
238025
238000
237973
237946
237917
237888
237857
237827
237795
237765
237734
237704
237674
238070
238046
238022
237995
237968
237939
237910
237879
237848
237816
237785
237753
237721
237690
238091
238069
238044
238018
237990
237961
237931
237900
237868
237836
237803
237770
237738
237705
238113
238091
238067
238041
238013
237984
237953
237921
237889
237856
237822
237788
237754
237719
238136
238115
238090
238064
238035
238006
237974
237942
237909
237875
237840
237805
237770
237734
238160
238138
238113
238086
238057
238027
237995
237962
237928
237893
237857
237821
237785
237748
238185
238163
238137
238110
238080
238049
238016
237982
237947
237911
237874
237838
237800
237763
238210
238188
238162
238134
238103
238071
238037
238002
237966
237929
237892
237854
237815
237775
238235
238213
238186
238158
238127
238094
238058
238022
237985
237947
237908
237869
237830
237789
238263
238239
238212
238182
238149
238114
238079
238042
238004
237966
237926
237885
237844
237801
238290
238263
238234
238203
238171
238137
238100
238063
238024
237985
237945
237904
237862
237818
237983
237954
237926
237896
237865
237832
237798
237762
237726
237689
237654
237616
237581
237540
237981
237954
237927
237898
237867
237833
237798
237762
237725
237687
237650
237611
237575
237536
237975
237951
237925
237895
237864
237831
237797
237761
237724
237685
237648
237608
237571
237531
237972
237948
237922
237892
237861
237828
237794
237757
237720
237682
237643
237604
237566
237525
237968
237945
237918
237889
237857
237824
237789
237753
237715
237676
237637
237596
237557
237516
237963
237940
237913
237884
237852
237818
237783
237746
237707
237668
237628
237587
237546
237505
237960
237936
237908
237878
237846
237811
237775
237737
237698
237658
237617
237575
237534
237492
237955
237930
237901
237871
237837
237802
237765
237727
237687
237646
237604
237562
237519
237477
237951
237925
237895
237863
237829
237793
237755
237715
237674
237632
237589
237547
237503
237460
237946
237918
237887
237854
237818
237781
237742
237702
237660
237617
237574
237530
237484
237442
237941
237911
237879
237845
237807
237769
237728
237687
237643
237600
237555
237511
237464
237422
237934
237902
237869
237833
237795
237755
237713
237671
237627
237583
237537
237492
237444
237402
237928
237893
237858
237821
237782
237740
237698
237653
237608
237563
237516
237470
237422
237378
237922
237883
237847
237808
237767
237724
237680
237636
237591
237546
237500
237455
237407
237360
237868
237842
237815
237785
237753
237719
237682
237644
237604
237562
237521
237477
237437
237390
237843
237819
237792
237763
237731
237696
237660
237621
237581
237538
237497
237452
237411
237365
237815
237793
237766
237737
237705
237671
237634
237596
237556
237514
237472
237427
237385
237340
237788
237767
237739
237710
237678
237644
237607
237568
237528
237486
237444
237400
237358
237312
237760
237739
237711
237681
237649
237614
237577
237539
237498
237456
237414
237370
237327
237282
237731
237709
237680
237651
237617
237582
237545
237506
237465
237423
237380
237336
237293
237248
237703
237679
237650
237619
237585
237549
237511
237472
237431
237388
237345
237301
237257
237213
237672
237646
237616
237584
237549
237513
237475
237435
237393
237350
237307
237263
237218
237174
237642
237614
237582
237549
237513
237476
237436
237396
237353
237310
237266
237222
237177
237134
237610
237578
237546
237511
237474
237436
237396
237354
237312
237268
237223
237179
237133
237092
237578
237543
237510
237473
237435
237395
237354
237311
237267
237223
237178
237134
237087
237048
237543
237505
237470
237432
237393
237352
237310
237267
237223
237179
237133
237089
237042
237003
237509
237469
237432
237393
237352
237310
237266
237221
237176
237131
237084
237040
236993
236954
237470
237428
237390
237349
237306
237263
237219
237176
237131
237086
237041
236997
236950
236910
237568
237546
237521
237494
237466
237435
237402
237366
237328
237289
237248
237205
237164
237116
237522
237503
237479
237453
237424
237393
237359
237323
237285
237245
237204
237160
237119
237074
237476
237459
237433
237408
237378
237347
237314
237279
237241
237202
237161
237119
237078
237034
237430
237413
237387
237361
237331
237300
237267
237231
237193
237154
237114
237072
237032
236989
237385
237366
237339
237313
237282
237251
237217
237182
237145
237106
237066
237025
236986
236943
237337
237316
237289
237262
237232
237200
237166
237130
237093
237054
237015
236975
236935
236894
237289
237266
237239
237211
237180
237147
237113
237077
237040
237001
236962
236923
236883
236843
237239
237214
237186
237156
237125
237092
237058
237022
236984
236946
236907
236868
236828
236789
237189
237161
237133
237102
237070
237036
237001
236965
236927
236889
236850
236811
236772
236735
237137
237106
237076
237044
237012
236978
236943
236906
236869
236831
236791
236753
236713
236678
237086
237052
237022
236988
236955
236920
236884
236847
236808
236770
236731
236693
236653
236621
237031
236994
236963
236928
236894
236859
236823
236786
236748
236710
236671
236633
236593
236563
236979
236940
236907
236872
236836
236799
236762
236724
236685
236646
236607
236569
236530
236502
236918
236879
236845
236809
236772
236736
236699
236662
236624
236586
236548
236511
236473
236443
237037
237021
237002
236983
236962
236940
236915
236889
236860
236830
236798
236765
236732
236695
236980
236969
236950
236931
236910
236887
236862
236835
236806
236775
236743
236710
236677
236641
236927
236917
236896
236877
236854
236831
236806
236780
236752
236722
236692
236659
236627
236593
236873
236861
236840
236821
236798
236775
236750
236723
236695
236666
236636
236603
236573
236539
236819
236806
236784
236764
236741
236717
236692
236666
236638
236609
236580
236549
236519
236486
236764
236748
236726
236705
236682
236658
236633
236607
236579
236551
236522
236491
236462
236430
236708
236689
236668
236646
236623
236599
236573
236547
236520
236491
236463
236433
236404
236374
236649
236629
236608
236585
236562
236538
236512
236486
236459
236431
236402
236374
236345
236317
236591
236569
236547
236524
236500
236476
236450
236424
236397
236369
236341
236313
236285
236260
236531
236506
236485
236461
236438
236413
236387
236361
236334
236307
236279
236252
236224
236201
236472
236445
236424
236399
236375
236350
236324
236298
236271
236244
236216
236190
236162
236142
236411
236382
236359
236335
236311
236285
236260
236234
236208
236181
236154
236128
236100
236083
236352
236323
236299
236274
236248
236222
236196
236169
236143
236117
236090
236065
236038
236023
236284
236258
236232
236208
236182
236157
236131
236105
236080
236054
236028
236003
235977
235961
236299
236293
236282
236273
236263
236251
236239
236226
236212
236196
236180
236162
236144
236126
236246
236244
236232
236223
236213
236201
236188
236175
236160
236144
236127
236109
236091
236071
236197
236195
236182
236172
236161
236149
236137
236123
236108
236093
236076
236059
236043
236022
236146
236142
236130
236120
236109
236097
236084
236071
236056
236041
236025
236008
235992
235971
236097
236091
236079
236068
236057
236044
236032
236018
236003
235988
235973
235957
235941
235922
236045
236037
236026
236015
236003
235991
235978
235965
235951
235936
235921
235905
235889
235872
235994
235984
235972
235961
235949
235937
235924
235911
235897
235883
235868
235853
235838
235822
235941
235929
235918
235907
235895
235883
235870
235857
235844
235830
235815
235801
235786
235772
235888
235875
235864
235852
235840
235828
235816
235803
235790
235776
235762
235748
235734
235722
235834
235819
235808
235797
235785
235773
235761
235748
235735
235722
235708
235695
235681
235672
235781
235765
235754
235742
235730
235718
235706
235694
235681
235668
235655
235643
235629
235623
235726
235709
235698
235686
235674
235663
235651
235639
235626
235614
235601
235589
235576
235573
235673
235656
235644
235632
235620
235608
235596
235584
235572
235560
235547
235536
235525
235525
235614
235600
235587
235576
235564
235553
235541
235530
235518
235506
235494
235484
235474
235473
235431
235431
235430
235430
235430
235431
235431
235432
235432
235432
235432
235431
235431
235430
235391
235394
235393
235393
235393
235394
235394
235395
235395
235394
235394
235392
235390
235385
235355
235358
235357
235357
235356
235357
235357
235357
235357
235356
235355
235353
235352
235347
235318
235320
235319
235319
235319
235320
235320
235319
235319
235318
235317
235315
235314
235309
235281
235282
235281
235282
235281
235282
235282
235282
235281
235280
235279
235278
235276
235272
235244
235244
235243
235244
235244
235244
235244
235244
235244
235243
235242
235240
235239
235236
235206
235206
235205
235205
235206
235206
235206
235206
235206
235205
235205
235204
235203
235201
235168
235167
235167
235167
235167
235168
235168
235168
235168
235168
235168
235167
235166
235166
235129
235128
235128
235128
235129
235129
235130
235130
235131
235131
235131
235131
235131
235131
235091
235088
235089
235089
235090
235091
235091
235092
235093
235094
235095
235095
235095
235097
235053
235049
235049
235050
235051
235052
235053
235054
235056
235057
235058
235059
235059
235063
235015
235009
235010
235011
235012
235014
235015
235017
235018
235020
235021
235023
235023
235029
234978
234971
234972
234973
234974
234976
234977
234979
234981
234983
234985
234988
234989
234997
234938
234934
234934
234935
234937
234939
234940
234942
234944
234947
234949
234953
234955
234960
234501
234507
234514
234523
234532
234542
234551
234562
234572
234584
234595
234607
234620
234633
234481
234488
234496
234505
234514
234524
234534
234544
234554
234565
234576
234588
234599
234609
234462
234470
234477
234486
234495
234505
234515
234525
234535
234546
234556
234567
234578
234587
234443
234451
234459
234468
234477
234487
234497
234507
234517
234527
234537
234548
234558
234567
234424
234432
234440
234449
234458
234468
234478
234488
234498
234508
234519
234529
234539
234548
234405
234413
234421
234430
234439
234449
234459
234469
234479
234489
234500
234510
234520
234529
234386
234393
234402
234411
234420
234430
234440
234450
234461
234471
234481
234492
234502
234512
234366
234374
234383
234392
234401
234411
234421
234432
234442
234453
234463
234474
234484
234494
234347
234355
234363
234372
234382
234392
234403
234413
234424
234435
234446
234456
234467
234478
234328
234335
234344
234353
234363
234374
234384
234395
234406
234417
234428
234439
234450
234462
234309
234316
234325
234335
234345
234355
234366
234377
234388
234400
234411
234423
234434
234447
234289
234297
234307
234316
234326
234337
234348
234359
234371
234383
234395
234407
234418
234432
234271
234278
234288
234298
234308
234320
234331
234343
234355
234367
234379
234392
234404
234418
234253
234262
234271
234281
234292
234303
234314
234326
234337
234350
234362
234376
234389
234405
233561
233573
233585
233598
233611
233625
233639
233654
233670
233686
233703
233721
233739
233759
233558
233570
233582
233595
233609
233623
233638
233653
233669
233685
233702
233720
233738
233757
233556
233568
233580
233593
233607
233621
233636
233651
233667
233683
233700
233718
233735
233754
233554
233566
233578
233591
233605
233619
233634
233649
233665
233681
233698
233715
233732
233750
233552
233564
233576
233589
233603
233617
233632
233648
233663
233679
233696
233713
233729
233747
233550
233562
233574
233588
233602
233616
233631
233646
233662
233678
233694
233711
233728
233744
233548
233560
233573
233586
233600
233615
233629
233645
233661
233677
233693
233710
233726
233743
233547
233559
233572
233585
233599
233613
233628
233644
233660
233676
233692
233709
233725
233742
233545
233558
233570
233584
233598
233613
233628
233643
233659
233675
233692
233708
233725
233741
233544
233557
233570
233583
233597
233612
233627
233643
233659
233675
233692
233708
233725
233741
233543
233556
233569
233583
233597
233612
233627
233643
233659
233676
233693
233709
233726
233742
233543
233556
233569
233583
233597
233612
233628
233644
233660
233677
233694
233710
233728
233744
233542
233555
233568
233583
233598
233613
233629
233646
233662
233679
233696
233713
233730
233749
233543
233557
233570
233585
233599
233615
233630
233647
233663
233679
233696
233714
233732
233752
232643
232654
232667
232679
232692
232706
232720
232734
232749
232765
232782
232800
232650
232662
232674
232687
232700
232714
232729
232744
232760
232776
232793
232811
232660
232670
232683
232695
232709
232723
232738
232753
232769
232785
232802
232820
232668
232679
232692
232704
232718
232732
232747
232763
232779
232795
232812
232830
232678
232689
232702
232714
232728
232742
232757
232772
232788
232805
232822
232839
232688
232699
232712
232724
232738
232752
232767
232782
232798
232815
232832
232850
232698
232710
232722
232735
232749
232763
232778
232793
232809
232825
232842
232860
232709
232721
232733
232746
232760
232774
232789
232804
232820
232837
232853
232870
232720
232733
232745
232758
232771
232786
232800
232816
232832
232848
232865
232881
232732
232744
232757
232770
232783
232798
232813
232828
232844
232860
232877
232893
232744
232756
232768
232782
232796
232810
232825
232841
232857
232873
232889
232905
232756
232769
232781
232795
232809
232823
232838
232854
232870
232886
232902
232918
232768
232781
232793
232807
232821
232836
232852
232868
232884
232900
232916
232932
232782
232795
232808
232822
232836
232850
232865
232881
232897
232913
232929
232946
242392
242378
242376
242373
242373
242374
242454
242448
242449
242452
242460
242468
242508
242506
242509
242514
242521
242528
242556
242556
242559
242561
242565
242567
241924
241872
241837
241799
241769
241741
242016
241969
241939
241906
241885
241868
242088
242046
242018
241990
241974
241963
242160
242118
242089
242060
242042
242027
242220
242175
242141
242107
242082
242058
242273
242223
242182
242138
242101
242066
242316
242261
242209
242155
242104
242049
241262
241170
241104
241031
240968
240905
241379
241288
241221
241150
241093
241038
241462
241376
241311
241246
241195
241149
241545
241460
241394
241329
241278
241234
241617
241531
241461
241394
241340
241292
241681
241593
241518
241445
241382
241325
241737
241646
241563
241482
241407
241337
241785
241693
241601
241511
241423
241338
241827
241733
241635
241537
241437
241338
241863
241771
241669
241568
241461
241354
241897
241809
241710
241610
241504
241396
241927
241849
241757
241666
241569
241468
241964
241897
241819
241741
241660
241575
241990
241944
241883
241825
241766
241708
240413
240289
240189
240081
239986
239890
240520
240393
240292
240183
240086
239990
240603
240477
240376
240271
240180
240095
240686
240562
240460
240358
240271
240192
240762
240641
240537
240437
240352
240276
240833
240714
240609
240508
240421
240343
240898
240782
240675
240573
240481
240397
240958
240846
240737
240634
240536
240446
241014
240907
240798
240694
240592
240494
241066
240966
240860
240757
240653
240551
241117
241026
240925
240827
240725
240623
241163
241085
240994
240905
240811
240715
241215
241150
241072
240996
240916
240833
241253
241213
241151
241094
241034
240972
239439
239312
239200
239079
238968
238860
239519
239379
239257
239123
239000
238876
239585
239438
239309
239174
239048
238923
239657
239509
239378
239244
239120
239002
239729
239584
239455
239326
239207
239099
239802
239664
239538
239416
239304
239204
239875
239746
239625
239511
239406
239313
239947
239828
239714
239607
239509
239420
240019
239911
239804
239705
239613
239527
240088
239994
239895
239805
239717
239634
240157
240077
239988
239906
239824
239743
240224
240159
240082
240009
239934
239859
240293
240243
240178
240117
240052
239985
240350
240323
240273
240227
240176
240124
238574
238466
238363
238266
238172
238076
238611
238486
238370
238244
238122
238002
238644
238498
238365
238228
238095
237966
238690
238540
238396
238250
238112
237980
238744
238594
238451
238309
238173
238045
238807
238663
238527
238394
238269
238153
238878
238744
238618
238499
238389
238289
238953
238834
238720
238616
238522
238436
239032
238929
238829
238740
238659
238587
239111
239025
238938
238862
238793
238731
239190
239121
239046
238982
238923
238869
239266
239214
239152
239099
239047
238999
239343
239306
239257
239214
239170
239127
239411
239395
239359
239327
239293
239257
238047
237973
237899
237833
237769
237707
238052
237952
237856
237763
237674
237587
238046
237929
237815
237707
237602
237500
238057
237928
237804
237684
237569
237458
238082
237942
237812
237689
237572
237460
238119
237978
237846
237722
237605
237496
238165
238030
237903
237786
237678
237580
238218
238095
237981
237877
237784
237701
238278
238172
238074
237987
237912
237847
238343
238255
238173
238104
238047
237998
238412
238343
238277
238223
238178
238143
238479
238428
238376
238334
238300
238272
238549
238515
238475
238443
238415
238392
238609
238595
238568
238546
238526
238508
237872
237822
237766
237722
237679
237639
237847
237777
237705
237638
237574
237509
237822
237736
237649
237566
237486
237404
237812
237712
237613
237518
237426
237333
237810
237700
237593
237491
237393
237296
237814
237700
237591
237486
237388
237292
237826
237710
237602
237501
237406
237317
237847
237734
237631
237537
237451
237371
237873
237767
237673
237588
237514
237448
237906
237812
237729
237657
237596
237547
237943
237865
237798
237740
237695
237662
237984
237925