/*--------------------------------*- C++ -*----------------------------------*\
| =========                 |                                                 |
| \\      /  F ield         | OpenFOAM: The Open Source CFD Toolbox           |
|  \\    /   O peration     | Version:  v2106                                 |
|   \\  /    A nd           | Website:  www.openfoam.com                      |
|    \\/     M anipulation  |                                                 |
\*---------------------------------------------------------------------------*/
FoamFile
{
    version     2.0;
    format      ascii;
    arch        "LSB;label=32;scalar=64";
    class       volScalarField;
    location    "0.000164";
    object      alphat;
}
// * * * * * * * * * * * * * * * * * * * * * * * * * * * * * * * * * * * * * //

dimensions      [1 -1 -1 0 0 0 0];

internalField   nonuniform List<scalar> 
17920
(
9.33022e-17
9.33021e-17
9.33021e-17
9.33019e-17
9.33019e-17
9.33017e-17
9.33018e-17
9.33016e-17
9.33016e-17
9.33015e-17
9.33015e-17
9.33014e-17
9.33014e-17
9.33013e-17
9.33013e-17
9.33012e-17
9.33012e-17
9.33011e-17
9.33012e-17
9.3301e-17
9.33011e-17
9.33009e-17
9.3301e-17
9.33008e-17
9.3301e-17
9.33008e-17
9.33007e-17
9.33006e-17
9.31587e-17
9.31595e-17
9.31601e-17
9.31605e-17
9.31608e-17
9.3161e-17
9.3161e-17
9.31608e-17
9.31605e-17
9.31601e-17
9.31595e-17
9.31589e-17
9.31581e-17
9.31572e-17
9.31593e-17
9.31601e-17
9.31607e-17
9.31612e-17
9.31615e-17
9.31617e-17
9.31617e-17
9.31616e-17
9.31613e-17
9.31608e-17
9.31602e-17
9.31595e-17
9.31588e-17
9.31579e-17
9.31598e-17
9.31606e-17
9.31613e-17
9.31618e-17
9.31622e-17
9.31624e-17
9.31624e-17
9.31623e-17
9.31619e-17
9.31615e-17
9.31609e-17
9.31601e-17
9.31593e-17
9.31584e-17
9.31602e-17
9.31611e-17
9.31617e-17
9.31623e-17
9.31627e-17
9.31629e-17
9.31629e-17
9.31628e-17
9.31625e-17
9.3162e-17
9.31614e-17
9.31606e-17
9.31598e-17
9.31588e-17
9.31606e-17
9.31614e-17
9.31621e-17
9.31626e-17
9.3163e-17
9.31632e-17
9.31633e-17
9.31631e-17
9.31628e-17
9.31624e-17
9.31617e-17
9.31609e-17
9.31601e-17
9.31591e-17
9.31608e-17
9.31616e-17
9.31623e-17
9.31628e-17
9.31632e-17
9.31635e-17
9.31635e-17
9.31634e-17
9.3163e-17
9.31626e-17
9.31619e-17
9.31611e-17
9.31602e-17
9.31592e-17
9.31609e-17
9.31617e-17
9.31624e-17
9.31629e-17
9.31633e-17
9.31635e-17
9.31636e-17
9.31634e-17
9.31631e-17
9.31626e-17
9.3162e-17
9.31612e-17
9.31602e-17
9.31592e-17
9.31608e-17
9.31616e-17
9.31623e-17
9.31628e-17
9.31632e-17
9.31634e-17
9.31634e-17
9.31633e-17
9.3163e-17
9.31625e-17
9.31618e-17
9.3161e-17
9.31601e-17
9.3159e-17
9.31606e-17
9.31613e-17
9.3162e-17
9.31625e-17
9.31629e-17
9.31631e-17
9.31631e-17
9.3163e-17
9.31626e-17
9.31622e-17
9.31615e-17
9.31607e-17
9.31598e-17
9.31587e-17
9.31602e-17
9.31609e-17
9.31615e-17
9.3162e-17
9.31624e-17
9.31626e-17
9.31626e-17
9.31625e-17
9.31622e-17
9.31617e-17
9.31611e-17
9.31603e-17
9.31593e-17
9.31583e-17
9.31597e-17
9.31603e-17
9.31609e-17
9.31614e-17
9.31617e-17
9.31619e-17
9.3162e-17
9.31618e-17
9.31615e-17
9.31611e-17
9.31604e-17
9.31597e-17
9.31588e-17
9.31578e-17
9.3159e-17
9.31596e-17
9.31601e-17
9.31606e-17
9.31609e-17
9.31611e-17
9.31612e-17
9.31611e-17
9.31608e-17
9.31603e-17
9.31597e-17
9.31589e-17
9.31581e-17
9.31571e-17
9.31582e-17
9.31588e-17
9.31593e-17
9.31597e-17
9.316e-17
9.31602e-17
9.31602e-17
9.31601e-17
9.31598e-17
9.31594e-17
9.31588e-17
9.31581e-17
9.31573e-17
9.31563e-17
9.31571e-17
9.31577e-17
9.31582e-17
9.31586e-17
9.31589e-17
9.31591e-17
9.31592e-17
9.31591e-17
9.31588e-17
9.31584e-17
9.31579e-17
9.31572e-17
9.31564e-17
9.31555e-17
9.30195e-17
9.30208e-17
9.30219e-17
9.30228e-17
9.30234e-17
9.30238e-17
9.30239e-17
9.30237e-17
9.30234e-17
9.30227e-17
9.30219e-17
9.30209e-17
9.30197e-17
9.30185e-17
9.30205e-17
9.30219e-17
9.3023e-17
9.30239e-17
9.30246e-17
9.3025e-17
9.30252e-17
9.3025e-17
9.30246e-17
9.3024e-17
9.30232e-17
9.30221e-17
9.30209e-17
9.30196e-17
9.30215e-17
9.30229e-17
9.3024e-17
9.3025e-17
9.30257e-17
9.30261e-17
9.30263e-17
9.30262e-17
9.30258e-17
9.30252e-17
9.30243e-17
9.30232e-17
9.30219e-17
9.30206e-17
9.30223e-17
9.30237e-17
9.30249e-17
9.30258e-17
9.30266e-17
9.3027e-17
9.30272e-17
9.30271e-17
9.30267e-17
9.3026e-17
9.30252e-17
9.30241e-17
9.30228e-17
9.30214e-17
9.3023e-17
9.30243e-17
9.30255e-17
9.30265e-17
9.30272e-17
9.30277e-17
9.30278e-17
9.30277e-17
9.30273e-17
9.30267e-17
9.30258e-17
9.30247e-17
9.30233e-17
9.30219e-17
9.30234e-17
9.30247e-17
9.30259e-17
9.30269e-17
9.30276e-17
9.3028e-17
9.30282e-17
9.30281e-17
9.30277e-17
9.30271e-17
9.30262e-17
9.30251e-17
9.30237e-17
9.30222e-17
9.30235e-17
9.30249e-17
9.30261e-17
9.3027e-17
9.30277e-17
9.30282e-17
9.30284e-17
9.30283e-17
9.30279e-17
9.30272e-17
9.30263e-17
9.30252e-17
9.30238e-17
9.30223e-17
9.30235e-17
9.30248e-17
9.3026e-17
9.30269e-17
9.30276e-17
9.3028e-17
9.30282e-17
9.30281e-17
9.30277e-17
9.3027e-17
9.30261e-17
9.3025e-17
9.30236e-17
9.3022e-17
9.30231e-17
9.30244e-17
9.30256e-17
9.30265e-17
9.30272e-17
9.30276e-17
9.30278e-17
9.30277e-17
9.30273e-17
9.30266e-17
9.30257e-17
9.30245e-17
9.30231e-17
9.30216e-17
9.30226e-17
9.30237e-17
9.30249e-17
9.30258e-17
9.30265e-17
9.30269e-17
9.30271e-17
9.3027e-17
9.30266e-17
9.30259e-17
9.3025e-17
9.30239e-17
9.30225e-17
9.30209e-17
9.30217e-17
9.30229e-17
9.30239e-17
9.30248e-17
9.30255e-17
9.30259e-17
9.30261e-17
9.3026e-17
9.30256e-17
9.3025e-17
9.30241e-17
9.3023e-17
9.30216e-17
9.30201e-17
9.30206e-17
9.30217e-17
9.30228e-17
9.30236e-17
9.30243e-17
9.30247e-17
9.30249e-17
9.30248e-17
9.30245e-17
9.30239e-17
9.3023e-17
9.30219e-17
9.30205e-17
9.30191e-17
9.30193e-17
9.30204e-17
9.30213e-17
9.30222e-17
9.30228e-17
9.30232e-17
9.30235e-17
9.30234e-17
9.30231e-17
9.30225e-17
9.30217e-17
9.30206e-17
9.30193e-17
9.30178e-17
9.30178e-17
9.30188e-17
9.30198e-17
9.30206e-17
9.30212e-17
9.30216e-17
9.30219e-17
9.30219e-17
9.30216e-17
9.3021e-17
9.30203e-17
9.30193e-17
9.3018e-17
9.30166e-17
9.28834e-17
9.28848e-17
9.2886e-17
9.2887e-17
9.28878e-17
9.28882e-17
9.28884e-17
9.28883e-17
9.28879e-17
9.28873e-17
9.28864e-17
9.28854e-17
9.2884e-17
9.28827e-17
9.28845e-17
9.2886e-17
9.28872e-17
9.28883e-17
9.28891e-17
9.28896e-17
9.28898e-17
9.28897e-17
9.28893e-17
9.28887e-17
9.28878e-17
9.28867e-17
9.28854e-17
9.28839e-17
9.28856e-17
9.28871e-17
9.28884e-17
9.28895e-17
9.28903e-17
9.28908e-17
9.2891e-17
9.28909e-17
9.28906e-17
9.28899e-17
9.2889e-17
9.28879e-17
9.28865e-17
9.28851e-17
9.28866e-17
9.2888e-17
9.28894e-17
9.28904e-17
9.28912e-17
9.28917e-17
9.2892e-17
9.28919e-17
9.28915e-17
9.28909e-17
9.289e-17
9.28889e-17
9.28875e-17
9.2886e-17
9.28872e-17
9.28887e-17
9.28901e-17
9.28911e-17
9.28919e-17
9.28924e-17
9.28927e-17
9.28926e-17
9.28922e-17
9.28916e-17
9.28907e-17
9.28896e-17
9.28881e-17
9.28866e-17
9.28877e-17
9.28892e-17
9.28905e-17
9.28915e-17
9.28923e-17
9.28929e-17
9.28931e-17
9.2893e-17
9.28927e-17
9.2892e-17
9.28911e-17
9.289e-17
9.28885e-17
9.2887e-17
9.28879e-17
9.28894e-17
9.28907e-17
9.28917e-17
9.28925e-17
9.2893e-17
9.28933e-17
9.28932e-17
9.28928e-17
9.28922e-17
9.28912e-17
9.28901e-17
9.28886e-17
9.2887e-17
9.28878e-17
9.28892e-17
9.28905e-17
9.28915e-17
9.28923e-17
9.28928e-17
9.28931e-17
9.2893e-17
9.28926e-17
9.2892e-17
9.28911e-17
9.28899e-17
9.28884e-17
9.28868e-17
9.28874e-17
9.28888e-17
9.28901e-17
9.28911e-17
9.28919e-17
9.28924e-17
9.28926e-17
9.28926e-17
9.28922e-17
9.28915e-17
9.28906e-17
9.28894e-17
9.28879e-17
9.28863e-17
9.28868e-17
9.28881e-17
9.28894e-17
9.28904e-17
9.28911e-17
9.28916e-17
9.28919e-17
9.28918e-17
9.28915e-17
9.28908e-17
9.28899e-17
9.28887e-17
9.28872e-17
9.28856e-17
9.28859e-17
9.28871e-17
9.28884e-17
9.28893e-17
9.28901e-17
9.28906e-17
9.28909e-17
9.28908e-17
9.28905e-17
9.28898e-17
9.28889e-17
9.28877e-17
9.28863e-17
9.28847e-17
9.28847e-17
9.28859e-17
9.28871e-17
9.28881e-17
9.28888e-17
9.28894e-17
9.28896e-17
9.28896e-17
9.28892e-17
9.28886e-17
9.28877e-17
9.28866e-17
9.28851e-17
9.28836e-17
9.28832e-17
9.28844e-17
9.28855e-17
9.28865e-17
9.28873e-17
9.28878e-17
9.28881e-17
9.28881e-17
9.28878e-17
9.28872e-17
9.28863e-17
9.28851e-17
9.28837e-17
9.28822e-17
9.28816e-17
9.28827e-17
9.28839e-17
9.28848e-17
9.28856e-17
9.28861e-17
9.28864e-17
9.28864e-17
9.28861e-17
9.28856e-17
9.28848e-17
9.28837e-17
9.28823e-17
9.28808e-17
9.27488e-17
9.275e-17
9.27511e-17
9.27519e-17
9.27526e-17
9.2753e-17
9.27532e-17
9.27531e-17
9.27528e-17
9.27523e-17
9.27516e-17
9.27506e-17
9.27495e-17
9.27483e-17
9.27498e-17
9.2751e-17
9.27521e-17
9.2753e-17
9.27537e-17
9.27541e-17
9.27544e-17
9.27543e-17
9.2754e-17
9.27535e-17
9.27527e-17
9.27517e-17
9.27506e-17
9.27494e-17
9.27508e-17
9.2752e-17
9.27531e-17
9.2754e-17
9.27547e-17
9.27551e-17
9.27554e-17
9.27553e-17
9.2755e-17
9.27545e-17
9.27538e-17
9.27528e-17
9.27516e-17
9.27504e-17
9.27516e-17
9.27528e-17
9.27539e-17
9.27548e-17
9.27555e-17
9.27559e-17
9.27561e-17
9.27561e-17
9.27558e-17
9.27553e-17
9.27545e-17
9.27536e-17
9.27524e-17
9.27511e-17
9.27521e-17
9.27534e-17
9.27545e-17
9.27554e-17
9.27561e-17
9.27565e-17
9.27567e-17
9.27567e-17
9.27564e-17
9.27559e-17
9.27551e-17
9.27542e-17
9.2753e-17
9.27517e-17
9.27525e-17
9.27537e-17
9.27549e-17
9.27557e-17
9.27564e-17
9.27568e-17
9.2757e-17
9.2757e-17
9.27567e-17
9.27562e-17
9.27555e-17
9.27545e-17
9.27533e-17
9.2752e-17
9.27526e-17
9.27539e-17
9.2755e-17
9.27558e-17
9.27565e-17
9.27569e-17
9.27571e-17
9.27571e-17
9.27568e-17
9.27563e-17
9.27556e-17
9.27546e-17
9.27534e-17
9.27521e-17
9.27525e-17
9.27537e-17
9.27548e-17
9.27557e-17
9.27563e-17
9.27568e-17
9.2757e-17
9.27569e-17
9.27567e-17
9.27561e-17
9.27554e-17
9.27544e-17
9.27532e-17
9.27519e-17
9.27521e-17
9.27534e-17
9.27544e-17
9.27553e-17
9.2756e-17
9.27564e-17
9.27566e-17
9.27566e-17
9.27563e-17
9.27558e-17
9.2755e-17
9.2754e-17
9.27528e-17
9.27515e-17
9.27516e-17
9.27527e-17
9.27538e-17
9.27547e-17
9.27553e-17
9.27558e-17
9.2756e-17
9.2756e-17
9.27557e-17
9.27552e-17
9.27544e-17
9.27534e-17
9.27522e-17
9.27509e-17
9.27508e-17
9.27519e-17
9.2753e-17
9.27538e-17
9.27545e-17
9.27549e-17
9.27551e-17
9.27551e-17
9.27548e-17
9.27543e-17
9.27535e-17
9.27526e-17
9.27514e-17
9.27501e-17
9.27497e-17
9.27508e-17
9.27519e-17
9.27527e-17
9.27534e-17
9.27538e-17
9.27541e-17
9.27541e-17
9.27538e-17
9.27533e-17
9.27525e-17
9.27516e-17
9.27503e-17
9.27491e-17
9.27484e-17
9.27495e-17
9.27505e-17
9.27514e-17
9.27521e-17
9.27526e-17
9.27528e-17
9.27528e-17
9.27525e-17
9.2752e-17
9.27513e-17
9.27503e-17
9.27491e-17
9.27479e-17
9.27471e-17
9.27481e-17
9.27491e-17
9.275e-17
9.27507e-17
9.27511e-17
9.27514e-17
9.27514e-17
9.27511e-17
9.27507e-17
9.275e-17
9.27491e-17
9.27479e-17
9.27466e-17
9.26158e-17
9.26166e-17
9.26173e-17
9.26178e-17
9.26182e-17
9.26185e-17
9.26186e-17
9.26186e-17
9.26184e-17
9.26181e-17
9.26177e-17
9.2617e-17
9.26162e-17
9.26153e-17
9.26165e-17
9.26173e-17
9.2618e-17
9.26186e-17
9.2619e-17
9.26193e-17
9.26194e-17
9.26194e-17
9.26192e-17
9.26189e-17
9.26183e-17
9.26177e-17
9.26169e-17
9.26161e-17
9.26172e-17
9.26179e-17
9.26187e-17
9.26192e-17
9.26196e-17
9.26199e-17
9.262e-17
9.262e-17
9.26198e-17
9.26195e-17
9.2619e-17
9.26184e-17
9.26176e-17
9.26167e-17
9.26177e-17
9.26184e-17
9.26191e-17
9.26197e-17
9.26201e-17
9.26204e-17
9.26205e-17
9.26205e-17
9.26203e-17
9.262e-17
9.26195e-17
9.26188e-17
9.26181e-17
9.26172e-17
9.2618e-17
9.26188e-17
9.26195e-17
9.262e-17
9.26205e-17
9.26207e-17
9.26208e-17
9.26208e-17
9.26206e-17
9.26203e-17
9.26198e-17
9.26192e-17
9.26184e-17
9.26175e-17
9.26182e-17
9.2619e-17
9.26197e-17
9.26202e-17
9.26206e-17
9.26209e-17
9.2621e-17
9.2621e-17
9.26208e-17
9.26205e-17
9.262e-17
9.26194e-17
9.26186e-17
9.26177e-17
9.26182e-17
9.2619e-17
9.26197e-17
9.26203e-17
9.26207e-17
9.26209e-17
9.26211e-17
9.2621e-17
9.26208e-17
9.26205e-17
9.262e-17
9.26194e-17
9.26187e-17
9.26178e-17
9.26181e-17
9.26189e-17
9.26196e-17
9.26201e-17
9.26205e-17
9.26208e-17
9.26209e-17
9.26209e-17
9.26207e-17
9.26204e-17
9.26199e-17
9.26193e-17
9.26186e-17
9.26177e-17
9.26178e-17
9.26186e-17
9.26193e-17
9.26199e-17
9.26203e-17
9.26205e-17
9.26207e-17
9.26206e-17
9.26204e-17
9.26201e-17
9.26196e-17
9.2619e-17
9.26183e-17
9.26174e-17
9.26174e-17
9.26182e-17
9.26189e-17
9.26194e-17
9.26199e-17
9.26201e-17
9.26203e-17
9.26202e-17
9.262e-17
9.26197e-17
9.26192e-17
9.26186e-17
9.26179e-17
9.2617e-17
9.26168e-17
9.26176e-17
9.26183e-17
9.26189e-17
9.26193e-17
9.26196e-17
9.26197e-17
9.26197e-17
9.26195e-17
9.26192e-17
9.26187e-17
9.26181e-17
9.26173e-17
9.26165e-17
9.26161e-17
9.26169e-17
9.26176e-17
9.26182e-17
9.26186e-17
9.26189e-17
9.2619e-17
9.2619e-17
9.26188e-17
9.26185e-17
9.2618e-17
9.26174e-17
9.26166e-17
9.26158e-17
9.26153e-17
9.2616e-17
9.26168e-17
9.26173e-17
9.26178e-17
9.26181e-17
9.26182e-17
9.26182e-17
9.2618e-17
9.26176e-17
9.26171e-17
9.26165e-17
9.26158e-17
9.2615e-17
9.26144e-17
9.26152e-17
9.26159e-17
9.26165e-17
9.26169e-17
9.26171e-17
9.26173e-17
9.26172e-17
9.2617e-17
9.26167e-17
9.26163e-17
9.26156e-17
9.26149e-17
9.26141e-17
9.24861e-17
9.24864e-17
9.24865e-17
9.24867e-17
9.24868e-17
9.24869e-17
9.24869e-17
9.24869e-17
9.24869e-17
9.24868e-17
9.24867e-17
9.24864e-17
9.24861e-17
9.24857e-17
9.24864e-17
9.24866e-17
9.24868e-17
9.2487e-17
9.24871e-17
9.24872e-17
9.24872e-17
9.24872e-17
9.24871e-17
9.2487e-17
9.24868e-17
9.24866e-17
9.24862e-17
9.24859e-17
9.24867e-17
9.24868e-17
9.2487e-17
9.24872e-17
9.24873e-17
9.24874e-17
9.24874e-17
9.24874e-17
9.24873e-17
9.24872e-17
9.2487e-17
9.24868e-17
9.24864e-17
9.24861e-17
9.24868e-17
9.2487e-17
9.24872e-17
9.24873e-17
9.24875e-17
9.24875e-17
9.24875e-17
9.24875e-17
9.24874e-17
9.24873e-17
9.24871e-17
9.24869e-17
9.24866e-17
9.24862e-17
9.24868e-17
9.24871e-17
9.24873e-17
9.24874e-17
9.24875e-17
9.24876e-17
9.24876e-17
9.24876e-17
9.24875e-17
9.24874e-17
9.24872e-17
9.2487e-17
9.24867e-17
9.24863e-17
9.24868e-17
9.24871e-17
9.24873e-17
9.24874e-17
9.24876e-17
9.24876e-17
9.24876e-17
9.24876e-17
9.24875e-17
9.24874e-17
9.24872e-17
9.2487e-17
9.24867e-17
9.24864e-17
9.24868e-17
9.24871e-17
9.24873e-17
9.24874e-17
9.24875e-17
9.24876e-17
9.24876e-17
9.24876e-17
9.24875e-17
9.24874e-17
9.24872e-17
9.2487e-17
9.24868e-17
9.24864e-17
9.24866e-17
9.2487e-17
9.24872e-17
9.24873e-17
9.24875e-17
9.24875e-17
9.24875e-17
9.24875e-17
9.24874e-17
9.24873e-17
9.24872e-17
9.2487e-17
9.24867e-17
9.24864e-17
9.24865e-17
9.24868e-17
9.2487e-17
9.24872e-17
9.24873e-17
9.24874e-17
9.24874e-17
9.24874e-17
9.24873e-17
9.24872e-17
9.24871e-17
9.24869e-17
9.24866e-17
9.24863e-17
9.24863e-17
9.24866e-17
9.24869e-17
9.2487e-17
9.24872e-17
9.24872e-17
9.24873e-17
9.24872e-17
9.24872e-17
9.2487e-17
9.24869e-17
9.24867e-17
9.24865e-17
9.24862e-17
9.24861e-17
9.24864e-17
9.24866e-17
9.24868e-17
9.2487e-17
9.2487e-17
9.24871e-17
9.2487e-17
9.24869e-17
9.24868e-17
9.24867e-17
9.24865e-17
9.24862e-17
9.2486e-17
9.24858e-17
9.24861e-17
9.24864e-17
9.24866e-17
9.24867e-17
9.24868e-17
9.24868e-17
9.24868e-17
9.24867e-17
9.24866e-17
9.24864e-17
9.24862e-17
9.24859e-17
9.24857e-17
9.24856e-17
9.24858e-17
9.24861e-17
9.24863e-17
9.24865e-17
9.24865e-17
9.24865e-17
9.24865e-17
9.24864e-17
9.24862e-17
9.24861e-17
9.24858e-17
9.24856e-17
9.24854e-17
9.24852e-17
9.24856e-17
9.24859e-17
9.24861e-17
9.24862e-17
9.24862e-17
9.24862e-17
9.24861e-17
9.2486e-17
9.24859e-17
9.24857e-17
9.24855e-17
9.24853e-17
9.24849e-17
9.23623e-17
9.23619e-17
9.23616e-17
9.23614e-17
9.23612e-17
9.23612e-17
9.23611e-17
9.23612e-17
9.23612e-17
9.23613e-17
9.23615e-17
9.23616e-17
9.23618e-17
9.2362e-17
9.2362e-17
9.23617e-17
9.23614e-17
9.23613e-17
9.23611e-17
9.2361e-17
9.2361e-17
9.2361e-17
9.2361e-17
9.23611e-17
9.23612e-17
9.23613e-17
9.23615e-17
9.23616e-17
9.23618e-17
9.23615e-17
9.23613e-17
9.23611e-17
9.23609e-17
9.23608e-17
9.23608e-17
9.23608e-17
9.23608e-17
9.23609e-17
9.2361e-17
9.23611e-17
9.23613e-17
9.23614e-17
9.23616e-17
9.23614e-17
9.23611e-17
9.23609e-17
9.23608e-17
9.23607e-17
9.23606e-17
9.23606e-17
9.23606e-17
9.23607e-17
9.23608e-17
9.23609e-17
9.23611e-17
9.23612e-17
9.23615e-17
9.23612e-17
9.2361e-17
9.23608e-17
9.23607e-17
9.23606e-17
9.23605e-17
9.23605e-17
9.23605e-17
9.23606e-17
9.23607e-17
9.23608e-17
9.2361e-17
9.23611e-17
9.23613e-17
9.23611e-17
9.23609e-17
9.23607e-17
9.23606e-17
9.23605e-17
9.23604e-17
9.23604e-17
9.23604e-17
9.23605e-17
9.23606e-17
9.23607e-17
9.23609e-17
9.2361e-17
9.23612e-17
9.2361e-17
9.23608e-17
9.23607e-17
9.23605e-17
9.23604e-17
9.23604e-17
9.23603e-17
9.23604e-17
9.23604e-17
9.23606e-17
9.23607e-17
9.23609e-17
9.2361e-17
9.23611e-17
9.2361e-17
9.23608e-17
9.23606e-17
9.23605e-17
9.23604e-17
9.23604e-17
9.23603e-17
9.23604e-17
9.23605e-17
9.23606e-17
9.23607e-17
9.23609e-17
9.23611e-17
9.23611e-17
9.2361e-17
9.23608e-17
9.23607e-17
9.23606e-17
9.23605e-17
9.23604e-17
9.23604e-17
9.23604e-17
9.23605e-17
9.23606e-17
9.23608e-17
9.2361e-17
9.23612e-17
9.23612e-17
9.23611e-17
9.23609e-17
9.23608e-17
9.23606e-17
9.23606e-17
9.23605e-17
9.23605e-17
9.23605e-17
9.23606e-17
9.23607e-17
9.23609e-17
9.23611e-17
9.23613e-17
9.23613e-17
9.23612e-17
9.2361e-17
9.23609e-17
9.23608e-17
9.23607e-17
9.23606e-17
9.23606e-17
9.23606e-17
9.23607e-17
9.23608e-17
9.2361e-17
9.23612e-17
9.23614e-17
9.23615e-17
9.23614e-17
9.23612e-17
9.23611e-17
9.23609e-17
9.23608e-17
9.23608e-17
9.23607e-17
9.23608e-17
9.23608e-17
9.23609e-17
9.23611e-17
9.23613e-17
9.23616e-17
9.23617e-17
9.23616e-17
9.23614e-17
9.23613e-17
9.23612e-17
9.23611e-17
9.2361e-17
9.23609e-17
9.23609e-17
9.2361e-17
9.23611e-17
9.23612e-17
9.23614e-17
9.23617e-17
9.23621e-17
9.23619e-17
9.23617e-17
9.23615e-17
9.23614e-17
9.23613e-17
9.23612e-17
9.23611e-17
9.23611e-17
9.23611e-17
9.23612e-17
9.23614e-17
9.23616e-17
9.23619e-17
9.22463e-17
9.22456e-17
9.22451e-17
9.22447e-17
9.22444e-17
9.22442e-17
9.22441e-17
9.22442e-17
9.22443e-17
9.22445e-17
9.22448e-17
9.22453e-17
9.22458e-17
9.22464e-17
9.22457e-17
9.22452e-17
9.22447e-17
9.22443e-17
9.2244e-17
9.22438e-17
9.22437e-17
9.22437e-17
9.22439e-17
9.22441e-17
9.22444e-17
9.22448e-17
9.22452e-17
9.22457e-17
9.22453e-17
9.22447e-17
9.22442e-17
9.22439e-17
9.22436e-17
9.22434e-17
9.22433e-17
9.22433e-17
9.22434e-17
9.22437e-17
9.2244e-17
9.22443e-17
9.22448e-17
9.22453e-17
9.22449e-17
9.22444e-17
9.22439e-17
9.22436e-17
9.22433e-17
9.22431e-17
9.2243e-17
9.2243e-17
9.22431e-17
9.22433e-17
9.22436e-17
9.2244e-17
9.22445e-17
9.22449e-17
9.22447e-17
9.22442e-17
9.22437e-17
9.22433e-17
9.22431e-17
9.22429e-17
9.22428e-17
9.22428e-17
9.22429e-17
9.22431e-17
9.22434e-17
9.22438e-17
9.22442e-17
9.22447e-17
9.22445e-17
9.2244e-17
9.22435e-17
9.22432e-17
9.22429e-17
9.22427e-17
9.22426e-17
9.22427e-17
9.22428e-17
9.2243e-17
9.22433e-17
9.22436e-17
9.22441e-17
9.22446e-17
9.22444e-17
9.22439e-17
9.22435e-17
9.22431e-17
9.22429e-17
9.22427e-17
9.22426e-17
9.22426e-17
9.22427e-17
9.22429e-17
9.22432e-17
9.22436e-17
9.22441e-17
9.22446e-17
9.22444e-17
9.2244e-17
9.22435e-17
9.22432e-17
9.2243e-17
9.22428e-17
9.22427e-17
9.22427e-17
9.22428e-17
9.2243e-17
9.22433e-17
9.22437e-17
9.22442e-17
9.22447e-17
9.22446e-17
9.22441e-17
9.22437e-17
9.22434e-17
9.22431e-17
9.22429e-17
9.22429e-17
9.22429e-17
9.2243e-17
9.22432e-17
9.22435e-17
9.22438e-17
9.22443e-17
9.22448e-17
9.22448e-17
9.22444e-17
9.2244e-17
9.22436e-17
9.22434e-17
9.22432e-17
9.22431e-17
9.22431e-17
9.22432e-17
9.22434e-17
9.22437e-17
9.22441e-17
9.22446e-17
9.22451e-17
9.22451e-17
9.22447e-17
9.22443e-17
9.2244e-17
9.22437e-17
9.22435e-17
9.22434e-17
9.22435e-17
9.22436e-17
9.22438e-17
9.22441e-17
9.22444e-17
9.22449e-17
9.22454e-17
9.22456e-17
9.22452e-17
9.22448e-17
9.22444e-17
9.22442e-17
9.2244e-17
9.22439e-17
9.22439e-17
9.2244e-17
9.22442e-17
9.22445e-17
9.22448e-17
9.22453e-17
9.22459e-17
9.22461e-17
9.22457e-17
9.22453e-17
9.2245e-17
9.22447e-17
9.22445e-17
9.22444e-17
9.22444e-17
9.22445e-17
9.22447e-17
9.22449e-17
9.22453e-17
9.22458e-17
9.22464e-17
9.22469e-17
9.22464e-17
9.22459e-17
9.22455e-17
9.22452e-17
9.2245e-17
9.22449e-17
9.22449e-17
9.2245e-17
9.22451e-17
9.22454e-17
9.22458e-17
9.22463e-17
9.2247e-17
9.21397e-17
9.2139e-17
9.21386e-17
9.21382e-17
9.21379e-17
9.21377e-17
9.21377e-17
9.21377e-17
9.21378e-17
9.21381e-17
9.21384e-17
9.21389e-17
9.21394e-17
9.21402e-17
9.21391e-17
9.21386e-17
9.21381e-17
9.21378e-17
9.21375e-17
9.21373e-17
9.21372e-17
9.21373e-17
9.21374e-17
9.21377e-17
9.2138e-17
9.21385e-17
9.2139e-17
9.21396e-17
9.21387e-17
9.21382e-17
9.21377e-17
9.21373e-17
9.2137e-17
9.21369e-17
9.21368e-17
9.21368e-17
9.2137e-17
9.21372e-17
9.21376e-17
9.2138e-17
9.21386e-17
9.21392e-17
9.21383e-17
9.21379e-17
9.21374e-17
9.2137e-17
9.21368e-17
9.21366e-17
9.21365e-17
9.21366e-17
9.21367e-17
9.21369e-17
9.21373e-17
9.21377e-17
9.21383e-17
9.21388e-17
9.21381e-17
9.21377e-17
9.21372e-17
9.21368e-17
9.21365e-17
9.21364e-17
9.21363e-17
9.21364e-17
9.21365e-17
9.21367e-17
9.21371e-17
9.21375e-17
9.21381e-17
9.21386e-17
9.2138e-17
9.21375e-17
9.21371e-17
9.21367e-17
9.21364e-17
9.21363e-17
9.21362e-17
9.21363e-17
9.21364e-17
9.21366e-17
9.2137e-17
9.21374e-17
9.21379e-17
9.21385e-17
9.21381e-17
9.21375e-17
9.21371e-17
9.21367e-17
9.21365e-17
9.21363e-17
9.21362e-17
9.21363e-17
9.21364e-17
9.21366e-17
9.2137e-17
9.21374e-17
9.21379e-17
9.21385e-17
9.21382e-17
9.21376e-17
9.21372e-17
9.21368e-17
9.21366e-17
9.21364e-17
9.21363e-17
9.21364e-17
9.21365e-17
9.21368e-17
9.21371e-17
9.21375e-17
9.21381e-17
9.21387e-17
9.21384e-17
9.21379e-17
9.21374e-17
9.2137e-17
9.21368e-17
9.21366e-17
9.21366e-17
9.21366e-17
9.21367e-17
9.2137e-17
9.21373e-17
9.21377e-17
9.21383e-17
9.21388e-17
9.21387e-17
9.21382e-17
9.21377e-17
9.21374e-17
9.21371e-17
9.21369e-17
9.21369e-17
9.21369e-17
9.2137e-17
9.21373e-17
9.21376e-17
9.2138e-17
9.21386e-17
9.21391e-17
9.21391e-17
9.21386e-17
9.21381e-17
9.21378e-17
9.21375e-17
9.21373e-17
9.21373e-17
9.21373e-17
9.21375e-17
9.21377e-17
9.2138e-17
9.21385e-17
9.2139e-17
9.21395e-17
9.21396e-17
9.21391e-17
9.21386e-17
9.21383e-17
9.2138e-17
9.21378e-17
9.21378e-17
9.21378e-17
9.21379e-17
9.21382e-17
9.21385e-17
9.21389e-17
9.21395e-17
9.214e-17
9.21402e-17
9.21397e-17
9.21393e-17
9.21389e-17
9.21386e-17
9.21384e-17
9.21384e-17
9.21384e-17
9.21385e-17
9.21388e-17
9.21391e-17
9.21395e-17
9.21401e-17
9.21407e-17
9.2141e-17
9.21404e-17
9.21399e-17
9.21395e-17
9.21393e-17
9.21391e-17
9.2139e-17
9.2139e-17
9.21392e-17
9.21394e-17
9.21397e-17
9.21401e-17
9.21407e-17
9.21414e-17
9.20425e-17
9.20422e-17
9.20419e-17
9.20417e-17
9.20416e-17
9.20415e-17
9.20415e-17
9.20415e-17
9.20416e-17
9.20418e-17
9.2042e-17
9.20423e-17
9.20427e-17
9.20432e-17
9.20422e-17
9.2042e-17
9.20417e-17
9.20415e-17
9.20413e-17
9.20412e-17
9.20412e-17
9.20412e-17
9.20414e-17
9.20416e-17
9.20418e-17
9.20422e-17
9.20426e-17
9.2043e-17
9.2042e-17
9.20417e-17
9.20414e-17
9.20412e-17
9.20411e-17
9.2041e-17
9.2041e-17
9.2041e-17
9.20411e-17
9.20413e-17
9.20416e-17
9.20419e-17
9.20424e-17
9.20428e-17
9.20418e-17
9.20416e-17
9.20413e-17
9.20411e-17
9.20409e-17
9.20408e-17
9.20408e-17
9.20409e-17
9.2041e-17
9.20412e-17
9.20415e-17
9.20418e-17
9.20423e-17
9.20427e-17
9.20418e-17
9.20415e-17
9.20412e-17
9.2041e-17
9.20408e-17
9.20407e-17
9.20407e-17
9.20408e-17
9.20409e-17
9.20411e-17
9.20414e-17
9.20417e-17
9.20422e-17
9.20426e-17
9.20418e-17
9.20415e-17
9.20412e-17
9.2041e-17
9.20408e-17
9.20407e-17
9.20407e-17
9.20408e-17
9.20409e-17
9.20411e-17
9.20414e-17
9.20417e-17
9.20421e-17
9.20426e-17
9.20419e-17
9.20415e-17
9.20412e-17
9.2041e-17
9.20409e-17
9.20408e-17
9.20408e-17
9.20408e-17
9.2041e-17
9.20412e-17
9.20414e-17
9.20418e-17
9.20422e-17
9.20427e-17
9.2042e-17
9.20417e-17
9.20414e-17
9.20412e-17
9.2041e-17
9.20409e-17
9.20409e-17
9.2041e-17
9.20411e-17
9.20413e-17
9.20416e-17
9.20419e-17
9.20423e-17
9.20428e-17
9.20423e-17
9.20419e-17
9.20416e-17
9.20414e-17
9.20412e-17
9.20411e-17
9.20411e-17
9.20412e-17
9.20413e-17
9.20415e-17
9.20418e-17
9.20421e-17
9.20425e-17
9.20429e-17
9.20425e-17
9.20422e-17
9.20419e-17
9.20417e-17
9.20415e-17
9.20414e-17
9.20414e-17
9.20415e-17
9.20416e-17
9.20418e-17
9.20421e-17
9.20424e-17
9.20428e-17
9.20432e-17
9.20428e-17
9.20425e-17
9.20422e-17
9.2042e-17
9.20418e-17
9.20418e-17
9.20417e-17
9.20418e-17
9.20419e-17
9.20421e-17
9.20424e-17
9.20427e-17
9.20431e-17
9.20435e-17
9.20432e-17
9.20429e-17
9.20426e-17
9.20424e-17
9.20422e-17
9.20422e-17
9.20422e-17
9.20422e-17
9.20423e-17
9.20425e-17
9.20428e-17
9.20431e-17
9.20435e-17
9.20439e-17
9.20437e-17
9.20434e-17
9.20431e-17
9.20429e-17
9.20427e-17
9.20426e-17
9.20426e-17
9.20427e-17
9.20428e-17
9.2043e-17
9.20433e-17
9.20436e-17
9.2044e-17
9.20443e-17
9.20442e-17
9.20439e-17
9.20435e-17
9.20433e-17
9.20432e-17
9.20431e-17
9.20432e-17
9.20432e-17
9.20434e-17
9.20435e-17
9.20438e-17
9.20441e-17
9.20445e-17
9.20449e-17
9.19532e-17
9.19533e-17
9.19533e-17
9.19534e-17
9.19534e-17
9.19535e-17
9.19535e-17
9.19536e-17
9.19536e-17
9.19537e-17
9.19537e-17
9.19538e-17
9.1954e-17
9.19541e-17
9.19533e-17
9.19534e-17
9.19534e-17
9.19534e-17
9.19535e-17
9.19535e-17
9.19535e-17
9.19536e-17
9.19537e-17
9.19538e-17
9.19539e-17
9.1954e-17
9.19542e-17
9.19543e-17
9.19534e-17
9.19534e-17
9.19534e-17
9.19535e-17
9.19535e-17
9.19535e-17
9.19536e-17
9.19536e-17
9.19537e-17
9.19538e-17
9.19539e-17
9.1954e-17
9.19542e-17
9.19544e-17
9.19535e-17
9.19535e-17
9.19535e-17
9.19535e-17
9.19536e-17
9.19536e-17
9.19537e-17
9.19537e-17
9.19538e-17
9.19539e-17
9.1954e-17
9.19542e-17
9.19543e-17
9.19545e-17
9.19536e-17
9.19536e-17
9.19536e-17
9.19536e-17
9.19537e-17
9.19537e-17
9.19537e-17
9.19538e-17
9.19539e-17
9.1954e-17
9.19541e-17
9.19543e-17
9.19544e-17
9.19546e-17
9.19538e-17
9.19538e-17
9.19537e-17
9.19538e-17
9.19538e-17
9.19538e-17
9.19539e-17
9.19539e-17
9.1954e-17
9.19541e-17
9.19543e-17
9.19544e-17
9.19546e-17
9.19547e-17
9.19539e-17
9.19539e-17
9.19539e-17
9.19539e-17
9.19539e-17
9.19539e-17
9.1954e-17
9.19541e-17
9.19541e-17
9.19543e-17
9.19544e-17
9.19545e-17
9.19547e-17
9.19549e-17
9.19541e-17
9.19541e-17
9.1954e-17
9.1954e-17
9.1954e-17
9.19541e-17
9.19541e-17
9.19542e-17
9.19543e-17
9.19544e-17
9.19545e-17
9.19547e-17
9.19548e-17
9.1955e-17
9.19543e-17
9.19542e-17
9.19542e-17
9.19542e-17
9.19542e-17
9.19542e-17
9.19543e-17
9.19544e-17
9.19545e-17
9.19546e-17
9.19547e-17
9.19548e-17
9.1955e-17
9.19551e-17
9.19545e-17
9.19544e-17
9.19544e-17
9.19544e-17
9.19544e-17
9.19544e-17
9.19545e-17
9.19545e-17
9.19546e-17
9.19547e-17
9.19549e-17
9.1955e-17
9.19551e-17
9.19552e-17
9.19546e-17
9.19546e-17
9.19546e-17
9.19546e-17
9.19546e-17
9.19546e-17
9.19547e-17
9.19547e-17
9.19548e-17
9.19549e-17
9.1955e-17
9.19552e-17
9.19553e-17
9.19554e-17
9.19548e-17
9.19548e-17
9.19548e-17
9.19548e-17
9.19548e-17
9.19548e-17
9.19549e-17
9.1955e-17
9.1955e-17
9.19551e-17
9.19553e-17
9.19554e-17
9.19555e-17
9.19556e-17
9.1955e-17
9.1955e-17
9.1955e-17
9.1955e-17
9.1955e-17
9.1955e-17
9.19551e-17
9.19552e-17
9.19553e-17
9.19554e-17
9.19555e-17
9.19556e-17
9.19558e-17
9.19558e-17
9.19552e-17
9.19552e-17
9.19551e-17
9.19552e-17
9.19552e-17
9.19553e-17
9.19553e-17
9.19554e-17
9.19555e-17
9.19556e-17
9.19557e-17
9.19558e-17
9.19559e-17
9.1956e-17
9.18695e-17
9.18698e-17
9.18702e-17
9.18704e-17
9.18706e-17
9.18708e-17
9.18709e-17
9.18709e-17
9.18709e-17
9.18709e-17
9.18708e-17
9.18707e-17
9.18705e-17
9.18704e-17
9.18699e-17
9.18702e-17
9.18705e-17
9.18708e-17
9.1871e-17
9.18711e-17
9.18712e-17
9.18713e-17
9.18713e-17
9.18713e-17
9.18712e-17
9.18711e-17
9.1871e-17
9.18708e-17
9.18702e-17
9.18706e-17
9.18708e-17
9.18711e-17
9.18713e-17
9.18715e-17
9.18716e-17
9.18717e-17
9.18717e-17
9.18716e-17
9.18716e-17
9.18715e-17
9.18714e-17
9.18712e-17
9.18706e-17
9.18709e-17
9.18712e-17
9.18714e-17
9.18716e-17
9.18718e-17
9.18719e-17
9.1872e-17
9.1872e-17
9.1872e-17
9.18719e-17
9.18718e-17
9.18717e-17
9.18716e-17
9.18709e-17
9.18712e-17
9.18714e-17
9.18717e-17
9.18719e-17
9.1872e-17
9.18722e-17
9.18722e-17
9.18723e-17
9.18722e-17
9.18722e-17
9.18721e-17
9.1872e-17
9.18719e-17
9.18711e-17
9.18714e-17
9.18717e-17
9.18719e-17
9.18721e-17
9.18723e-17
9.18724e-17
9.18725e-17
9.18725e-17
9.18725e-17
9.18724e-17
9.18723e-17
9.18722e-17
9.18721e-17
9.18713e-17
9.18716e-17
9.18719e-17
9.18721e-17
9.18723e-17
9.18725e-17
9.18726e-17
9.18727e-17
9.18727e-17
9.18727e-17
9.18726e-17
9.18725e-17
9.18724e-17
9.18723e-17
9.18715e-17
9.18718e-17
9.18721e-17
9.18723e-17
9.18725e-17
9.18726e-17
9.18727e-17
9.18728e-17
9.18728e-17
9.18728e-17
9.18728e-17
9.18727e-17
9.18725e-17
9.18724e-17
9.18716e-17
9.18719e-17
9.18722e-17
9.18724e-17
9.18726e-17
9.18727e-17
9.18728e-17
9.18729e-17
9.18729e-17
9.18729e-17
9.18729e-17
9.18728e-17
9.18727e-17
9.18725e-17
9.18717e-17
9.1872e-17
9.18722e-17
9.18725e-17
9.18726e-17
9.18728e-17
9.18729e-17
9.1873e-17
9.1873e-17
9.1873e-17
9.18729e-17
9.18728e-17
9.18727e-17
9.18725e-17
9.18717e-17
9.1872e-17
9.18722e-17
9.18725e-17
9.18727e-17
9.18728e-17
9.18729e-17
9.1873e-17
9.1873e-17
9.1873e-17
9.1873e-17
9.18729e-17
9.18727e-17
9.18725e-17
9.18717e-17
9.1872e-17
9.18722e-17
9.18724e-17
9.18726e-17
9.18728e-17
9.18729e-17
9.1873e-17
9.1873e-17
9.1873e-17
9.18729e-17
9.18728e-17
9.18727e-17
9.18725e-17
9.18716e-17
9.18719e-17
9.18721e-17
9.18724e-17
9.18726e-17
9.18727e-17
9.18728e-17
9.18729e-17
9.1873e-17
9.18729e-17
9.18729e-17
9.18728e-17
9.18727e-17
9.18724e-17
9.18714e-17
9.18718e-17
9.1872e-17
9.18723e-17
9.18725e-17
9.18726e-17
9.18728e-17
9.18729e-17
9.18729e-17
9.18729e-17
9.18728e-17
9.18727e-17
9.18725e-17
9.18723e-17
9.17888e-17
9.17892e-17
9.17897e-17
9.17901e-17
9.17904e-17
9.17907e-17
9.17908e-17
9.17909e-17
9.17909e-17
9.17908e-17
9.17906e-17
9.17903e-17
9.17899e-17
9.17896e-17
9.17893e-17
9.17898e-17
9.17903e-17
9.17907e-17
9.17911e-17
9.17913e-17
9.17915e-17
9.17915e-17
9.17915e-17
9.17914e-17
9.17912e-17
9.17909e-17
9.17906e-17
9.17902e-17
9.17899e-17
9.17904e-17
9.17909e-17
9.17913e-17
9.17916e-17
9.17919e-17
9.1792e-17
9.17921e-17
9.17921e-17
9.1792e-17
9.17918e-17
9.17915e-17
9.17911e-17
9.17908e-17
9.17904e-17
9.17909e-17
9.17914e-17
9.17918e-17
9.17921e-17
9.17923e-17
9.17925e-17
9.17926e-17
9.17925e-17
9.17924e-17
9.17922e-17
9.1792e-17
9.17916e-17
9.17912e-17
9.17908e-17
9.17913e-17
9.17918e-17
9.17922e-17
9.17925e-17
9.17927e-17
9.17929e-17
9.1793e-17
9.1793e-17
9.17928e-17