/*--------------------------------*- C++ -*----------------------------------*\
| =========                 |                                                 |
| \\      /  F ield         | OpenFOAM: The Open Source CFD Toolbox           |
|  \\    /   O peration     | Version:  v2106                                 |
|   \\  /    A nd           | Website:  www.openfoam.com                      |
|    \\/     M anipulation  |                                                 |
\*---------------------------------------------------------------------------*/
FoamFile
{
    version     2.0;
    format      ascii;
    arch        "LSB;label=32;scalar=64";
    class       volScalarField;
    location    "0.000134";
    object      alphat;
}
// * * * * * * * * * * * * * * * * * * * * * * * * * * * * * * * * * * * * * //

dimensions      [1 -1 -1 0 0 0 0];

internalField   nonuniform List<scalar> 
18109
(
7.63791e-08
6.28308e-08
5.92399e-08
4.64964e-08
3.55739e-08
3.11512e-08
2.8634e-08
2.98513e-08
1.20078e-08
6.57529e-09
3.64068e-09
2.97066e-09
3.03898e-09
3.3106e-09
4.38017e-08
1.44214e-08
4.65756e-09
1.41122e-09
4.59944e-10
2.65003e-10
2.88249e-10
9.88419e-08
3.47347e-08
1.08077e-08
2.92032e-09
6.76519e-10
1.37839e-10
3.6491e-11
1.59114e-07
5.48048e-08
1.64955e-08
4.28748e-09
9.46975e-10
1.74354e-10
2.65348e-11
2.10799e-07
6.89169e-08
1.96383e-08
4.82541e-09
1.00793e-09
1.74907e-10
2.44883e-11
2.6563e-07
8.05138e-08
2.12636e-08
4.83272e-09
9.33009e-10
1.4953e-10
1.94738e-11
3.30607e-07
9.27936e-08
2.263e-08
4.7399e-09
8.40233e-10
1.24631e-10
1.64377e-11
1.15276e-08
7.9427e-09
6.99436e-09
5.21413e-09
4.95998e-09
4.91203e-09
4.88951e-09
4.7273e-09
4.33694e-09
3.58903e-09
2.38796e-09
1.19913e-09
4.73237e-10
3.58717e-10
8.07638e-09
2.36765e-09
7.98307e-10
3.82263e-10
3.38273e-10
3.86447e-10
4.59791e-10
5.23958e-10
5.52487e-10
5.17671e-10
3.80745e-10
1.98382e-10
7.85387e-11
2.03965e-10
1.46498e-08
4.40479e-09
1.23938e-09
3.14237e-10
7.7884e-11
3.25662e-11
3.38702e-11
4.45185e-11
5.42092e-11
5.75555e-11
4.66156e-11
2.56752e-11
2.19921e-11
2.73512e-10
3.1805e-08
9.80153e-09
2.64754e-09
6.20652e-10
1.24431e-10
2.15755e-11
4.4778e-12
3.12273e-12
4.07819e-12
4.96814e-12
4.51565e-12
2.89204e-12
1.67075e-11
3.24298e-10
4.76898e-08
1.4457e-08
3.79662e-09
8.56324e-10
1.63698e-10
2.60839e-11
3.43239e-12
4.70859e-13
2.48638e-13
3.21673e-13
3.29713e-13
4.68932e-13
1.40763e-11
3.06362e-10
6.22657e-08
1.77707e-08
4.39055e-09
9.31137e-10
1.67395e-10
2.50459e-11
3.04981e-12
2.97127e-13
3.08339e-14
1.72793e-14
1.91025e-14
1.26168e-13
9.61637e-12
2.37784e-10
7.73375e-08
2.03709e-08
4.65203e-09
9.11773e-10
1.51542e-10
2.09996e-11
2.38908e-12
2.26744e-13
2.357e-14
5.65355e-15
2.76433e-15
6.49181e-14
5.12405e-12
1.49019e-10
9.48437e-08
2.30092e-08
4.84549e-09
8.76501e-10
1.3421e-10
1.72912e-11
1.99555e-12
3.21583e-13
1.25159e-13
6.29776e-14
2.88606e-14
4.73093e-14
3.25011e-12
9.37919e-11
1.13064e-07
2.53382e-08
4.91269e-09
8.1847e-10
1.16773e-10
1.56828e-11
3.50247e-12
1.9243e-12
1.2947e-12
7.60636e-13
3.86264e-13
2.00219e-13
2.09156e-12
5.61905e-11
1.30914e-07
2.75576e-08
4.98661e-09
7.74103e-10
1.1267e-10
2.8454e-11
1.94162e-11
1.61179e-11
1.20702e-11
7.75673e-12
4.343e-12
2.23714e-12
2.22151e-12
3.04746e-11
1.40395e-07
2.80456e-08
4.8228e-09
7.45947e-10
1.74268e-10
1.29265e-10
1.30611e-10
1.19263e-10
9.54296e-11
6.64889e-11
4.08273e-11
2.30741e-11
1.27365e-11
1.96268e-11
1.36566e-07
2.63786e-08
4.52495e-09
9.19495e-10
5.89908e-10
7.00451e-10
7.77721e-10
7.54119e-10
6.42454e-10
4.82707e-10
3.2326e-10
1.99503e-10
1.13635e-10
6.95683e-11
1.17386e-07
2.26164e-08
4.47335e-09
2.06699e-09
2.58535e-09
3.42713e-09
3.99521e-09
4.08797e-09
3.7031e-09
2.98974e-09
2.16832e-09
1.44441e-09
8.72908e-10
5.15225e-10
1.04373e-07
2.24905e-08
7.20933e-09
7.27896e-09
1.07642e-08
1.4703e-08
1.7785e-08
1.91073e-08
1.84042e-08
1.59683e-08
1.2483e-08
8.88628e-09
5.65766e-09
3.39969e-09
4.45155e-07
1.49806e-06
4.03796e-06
8.72369e-06
1.59361e-05
2.52332e-05
7.35745e-08
3.1518e-07
1.06697e-06
2.85462e-06
6.37384e-06
1.20574e-05
8.28347e-08
4.3556e-07
1.65676e-06
4.70716e-06
1.05524e-05
1.91853e-05
9.1184e-08
5.4167e-07
2.16034e-06
6.17083e-06
1.35296e-05
2.38129e-05
8.20039e-08
5.52332e-07
2.29701e-06
6.62963e-06
1.44429e-05
2.51228e-05
6.1827e-08
4.54009e-07
2.04255e-06
6.1202e-06
1.35816e-05
2.38833e-05
5.10792e-08
3.49985e-07
1.59498e-06
4.98892e-06
1.1507e-05
2.08378e-05
4.29657e-08
2.71962e-07
1.21814e-06
3.86064e-06
9.10485e-06
1.689e-05
3.53231e-08
2.04131e-07
8.80604e-07
2.78897e-06
6.69085e-06
1.27214e-05
2.76742e-08
1.44482e-07
5.93484e-07
1.85966e-06
4.49498e-06
8.6631e-06
1.91686e-08
8.91198e-08
3.45318e-07
1.06513e-06
2.60177e-06
5.16684e-06
1.08109e-08
4.52621e-08
1.68243e-07
5.1683e-07
1.29193e-06
2.63944e-06
4.75716e-09
1.85062e-08
6.78573e-08
2.09545e-07
5.45928e-07
1.14614e-06
1.66106e-09
6.25401e-09
2.37487e-08
7.69726e-08
2.1914e-07
4.9972e-07
6.47906e-10
2.6819e-09
1.22694e-08
5.01653e-08
1.80719e-07
5.5917e-07
1.79475e-09
8.48478e-09
3.93683e-08
1.60233e-07
5.58073e-07
1.64476e-06
2.16911e-09
1.49336e-08
8.45353e-08
3.78542e-07
1.35021e-06
3.85487e-06
3.41618e-09
2.73697e-08
1.65378e-07
7.5664e-07
2.62254e-06
6.98057e-06
4.31147e-09
3.83847e-08
2.44693e-07
1.12955e-06
3.79778e-06
9.56509e-06
4.2464e-09
4.12618e-08
2.75002e-07
1.28649e-06
4.27323e-06
1.04818e-05
3.45696e-09
3.6312e-08
2.53395e-07
1.20861e-06
4.02859e-06
9.84551e-06
2.33562e-09
2.59019e-08
1.91458e-07
9.54376e-07
3.28865e-06
8.25939e-06
1.56963e-09
1.75487e-08
1.30543e-07
6.70204e-07
2.38591e-06
6.18083e-06
9.52667e-10
1.05036e-08
7.76862e-08
3.99438e-07
1.45727e-06
3.89428e-06
4.7544e-10
5.01194e-09
3.66507e-08
1.89955e-07
7.19364e-07
2.00689e-06
1.99299e-10
1.98122e-09
1.40264e-08
7.22795e-08
2.86066e-07
8.31969e-07
1.20124e-10
9.2068e-10
5.98635e-09
2.95538e-08
1.15011e-07
3.38265e-07
4.9979e-10
2.11772e-09
9.00245e-09
3.37027e-08
1.09074e-07
3.00497e-07
3.28718e-09
1.18809e-08
4.15296e-08
1.31767e-07
3.73917e-07
9.42241e-07
1.94405e-08
6.20844e-08
1.86217e-07
5.09019e-07
1.25878e-06
2.79659e-06
3.10088e-08
1.12389e-07
3.66764e-07
1.05546e-06
2.66517e-06
5.85332e-06
4.63954e-08
1.82014e-07
6.22137e-07
1.82208e-06
4.5486e-06
9.5972e-06
6.17477e-08
2.51269e-07
8.75872e-07
2.56499e-06
6.23666e-06
1.25687e-05
7.37863e-08
3.01306e-07
1.04302e-06
2.98824e-06
7.02912e-06
1.36723e-05
7.92649e-08
3.15516e-07
1.06284e-06
2.9648e-06
6.82748e-06
1.30829e-05
7.73588e-08
2.94847e-07
9.57153e-07
2.61127e-06
5.95204e-06
1.13656e-05
6.90182e-08
2.5118e-07
7.81045e-07
2.07393e-06
4.66995e-06
8.90258e-06
5.56035e-08
1.91717e-07
5.68426e-07
1.45685e-06
3.20995e-06
6.04586e-06
4.05116e-08
1.31266e-07
3.65655e-07
8.87096e-07
1.87221e-06
3.42606e-06
2.69094e-08
8.17886e-08
2.14669e-07
4.9276e-07
9.898e-07
1.72913e-06
1.97049e-08
5.72907e-08
1.46819e-07
3.35322e-07
6.91364e-07
1.31076e-06
3.3498e-08
1.00699e-07
2.76717e-07
6.8106e-07
1.50871e-06
3.02143e-06
1.33443e-07
3.71439e-07
9.44268e-07
2.14353e-06
4.34794e-06
7.87624e-06
2.69501e-07
6.02852e-07
1.26222e-06
2.46781e-06
4.3703e-06
6.52041e-06
1.33188e-07
3.12334e-07
6.80824e-07
1.36395e-06
2.52276e-06
4.14521e-06
8.99601e-08
2.28678e-07
5.84356e-07
1.44234e-06
3.25152e-06
6.47864e-06
1.48029e-07
4.81491e-07
1.43158e-06
3.64531e-06
7.85245e-06
1.4227e-05
4.57118e-07
1.18137e-06
2.68908e-06
5.36559e-06
9.64919e-06
1.56634e-05
5.52468e-07
1.60591e-06
3.9591e-06
8.26807e-06
1.4879e-05
2.33383e-05
6.21168e-07
1.91937e-06
4.86772e-06
1.02064e-05
1.81388e-05
2.79642e-05
6.09083e-07
1.95868e-06
5.06503e-06
1.06778e-05
1.88928e-05
2.88655e-05
5.37595e-07
1.76336e-06
4.63785e-06
9.90973e-06
1.77165e-05
2.71988e-05
4.35934e-07
1.43495e-06
3.83625e-06
8.38744e-06
1.53438e-05
2.40266e-05
3.37369e-07
1.08718e-06
2.92561e-06
6.54754e-06
1.24013e-05
2.00695e-05
2.52886e-07
7.79092e-07
2.0847e-06
4.84902e-06
9.46462e-06
1.5756e-05
1.88629e-07
5.44914e-07
1.43753e-06
3.40308e-06
6.74807e-06
1.13418e-05
1.38382e-07
3.75046e-07
9.34497e-07
2.17821e-06
4.35776e-06
7.31667e-06
9.47615e-08
2.41877e-07
5.68458e-07
1.23473e-06
2.46228e-06
4.09065e-06
4.96327e-08
1.2373e-07
2.91897e-07
6.24399e-07
1.23199e-06
2.06828e-06
2.89926e-08
7.46345e-08
1.83123e-07
4.36669e-07
1.01291e-06
2.22647e-06
3.02253e-08
1.00917e-07
3.29533e-07
9.67983e-07
2.49192e-06
5.50251e-06
1.98784e-05
4.04458e-05
6.32919e-05
8.35109e-05
9.96869e-05
2.994e-05
5.24137e-05
7.39383e-05
8.95217e-05
9.54895e-05
3.58733e-05
5.73652e-05
7.632e-05
8.86055e-05
8.57091e-05
3.72286e-05
5.77348e-05
7.66695e-05
8.81997e-05
7.91421e-05
3.55246e-05
5.53465e-05
7.42007e-05
8.30652e-05
7.07789e-05
3.17165e-05
4.92457e-05
6.56531e-05
7.174e-05
6.08451e-05
2.65059e-05
3.99082e-05
5.32185e-05
5.86217e-05
5.15405e-05
2.04355e-05
3.01258e-05
4.00858e-05
4.58484e-05
4.41145e-05
3.98348e-05
1.44945e-05
2.11861e-05
2.80332e-05
3.33352e-05
3.70652e-05
3.71534e-05
9.21408e-06
1.35532e-05
1.79401e-05
2.19623e-05
2.91951e-05
3.33531e-05
4.92253e-06
7.43687e-06
1.0048e-05
1.28452e-05
2.02903e-05
2.9204e-05
3.52214e-05
2.13214e-06
3.379e-06
5.19042e-06
7.80387e-06
1.2983e-05
2.41066e-05
3.52525e-05
3.60705e-05
9.90543e-07
2.42541e-06
5.56741e-06
1.04043e-05
1.64815e-05
2.52635e-05
4.12404e-05
8.39442e-05
1.50677e-06
5.37497e-06
1.31043e-05
2.39203e-05
3.58127e-05
4.92278e-05
6.84569e-05
0.000184819
4.10371e-06
1.28672e-05
2.76256e-05
4.5735e-05
6.40994e-05
8.61874e-05
0.000145179
0.000329227
8.91246e-06
2.34318e-05
4.36675e-05
6.45973e-05
8.12644e-05
9.77007e-05
0.000154626
0.000420126
1.45565e-05
3.27788e-05
5.42177e-05
7.26647e-05
8.2655e-05
8.40223e-05
9.69459e-05
0.000268984
1.8701e-05
3.78275e-05
5.83795e-05
7.52988e-05
8.18695e-05
7.41811e-05
7.20466e-05
0.000278636
1.99109e-05
3.85397e-05
5.86207e-05
7.59456e-05
8.06167e-05
6.71103e-05
6.28669e-05
0.000257848
1.87375e-05
3.60946e-05
5.54846e-05
7.22045e-05
7.48011e-05
5.91734e-05
5.61489e-05
0.00021481
1.60313e-05
3.10747e-05
4.84438e-05
6.33896e-05
6.52118e-05
5.24957e-05
5.04369e-05
8.85763e-05
1.23936e-05
2.42356e-05
3.84295e-05
5.13898e-05
5.43672e-05
4.62602e-05
4.75177e-05
8.42457e-05
8.28039e-06
1.66789e-05
2.70607e-05
3.74068e-05
4.28714e-05
4.00756e-05
4.51691e-06
9.55843e-06
1.6199e-05
2.36159e-05
3.0501e-05
3.34446e-05
1.95299e-06
4.36691e-06
7.97478e-06
1.24727e-05
1.81352e-05
2.59929e-05
7.69031e-07
1.92421e-06
3.94244e-06
6.9432e-06
1.1282e-05
1.94082e-05
7.10923e-07
2.32198e-06
5.64121e-06
1.05666e-05
1.64883e-05
2.40177e-05
2.08995e-06
6.39892e-06
1.43651e-05
2.5146e-05
3.68052e-05
5.57593e-06
1.47784e-05
2.93167e-05
4.66337e-05
6.39435e-05
1.11824e-05
2.5624e-05
4.47835e-05
6.40837e-05
7.9035e-05
1.71566e-05
3.45945e-05
5.42588e-05
7.08046e-05
7.90494e-05
2.13212e-05
3.90528e-05
5.75784e-05
7.25351e-05
7.67204e-05
2.25335e-05
3.93246e-05
5.72605e-05
7.20758e-05
7.33598e-05
2.12005e-05
3.66292e-05
5.39474e-05
6.7946e-05
6.68653e-05
1.82103e-05
3.17632e-05
4.73014e-05
5.98969e-05
5.85057e-05
1.40928e-05
2.49852e-05
3.78177e-05
4.88894e-05
4.93155e-05
9.36402e-06
1.71624e-05
2.65354e-05
3.56036e-05
3.95084e-05
5.19163e-06
9.95034e-06
1.58799e-05
2.25839e-05
3.01669e-05
2.60703e-06
5.35916e-06
9.48605e-06
1.49337e-05
2.35979e-05
2.34563e-06
5.73604e-06
1.11172e-05
1.79709e-05
2.70074e-05
5.50591e-06
1.30654e-05
2.37208e-05
3.54703e-05
4.73781e-05
1.28796e-05
2.70214e-05
4.46509e-05
6.26179e-05
7.95172e-05
2.32577e-05
4.30464e-05
6.44833e-05
8.32164e-05
9.80861e-05
3.30795e-05
5.40766e-05
7.34803e-05
8.74679e-05
9.26551e-05
3.86685e-05
5.79206e-05
7.46828e-05
8.54663e-05
8.21102e-05
3.93858e-05
5.76144e-05
7.4287e-05
8.41195e-05
7.46641e-05
3.72171e-05
5.47515e-05
7.12883e-05
7.94167e-05
6.64917e-05
3.32905e-05
4.88919e-05
6.34205e-05
6.99429e-05
5.82787e-05
2.79408e-05
4.03895e-05
5.23809e-05
5.84906e-05
5.10931e-05
2.19839e-05
3.10864e-05
4.01037e-05
4.69221e-05
4.54563e-05
1.60258e-05
2.2197e-05
2.83937e-05
3.48747e-05
4.02391e-05
1.0056e-05
1.39612e-05
1.82197e-05
2.39131e-05
3.47444e-05
5.42256e-06
7.87512e-06
1.13159e-05
1.71397e-05
2.98866e-05
3.12308e-06
6.41248e-06
1.18585e-05
1.92445e-05
3.08636e-05
4.54285e-06
1.18726e-05
2.26537e-05
3.46814e-05
4.77742e-05
1.04052e-05
2.45083e-05
4.2655e-05
6.12926e-05
7.92987e-05
8.77759e-10
4.32174e-10
3.49035e-10
3.49655e-10
3.96296e-10
4.44782e-10
4.91658e-10
5.18623e-10
5.08593e-10
4.44793e-10
3.16221e-10
1.668e-10
6.74994e-11
3.29294e-11
1.22717e-09
3.14394e-10
8.27388e-11
3.06694e-11
2.55961e-11
3.2362e-11
4.29772e-11
5.32929e-11
5.98072e-11
5.88449e-11
4.60314e-11
2.53067e-11
9.86334e-12
8.7999e-12
2.7113e-09
7.29914e-10
1.78214e-10
3.90114e-11
8.10928e-12
2.83521e-12
3.01761e-12
4.24766e-12
5.46212e-12
6.05381e-12
5.16084e-12
2.98455e-12
1.38472e-12
1.01347e-11
5.5202e-09
1.51934e-09
3.64685e-10
7.58603e-11
1.35279e-11
2.09578e-12
3.95125e-13
2.82497e-13
3.88157e-13
4.88374e-13
4.58556e-13
2.86514e-13
5.27531e-13
1.31637e-11
8.18826e-09
2.21142e-09
5.16246e-10
1.03617e-10
1.7696e-11
2.54136e-12
3.06252e-13
4.03586e-14
2.27963e-14
3.03261e-14
3.14273e-14
2.36767e-14
4.11811e-13
1.36115e-11
1.04849e-08
2.65741e-09
5.83273e-10
1.10145e-10
1.77193e-11
2.39501e-12
2.67774e-13
2.47147e-14
2.67939e-15
1.64967e-15
1.79809e-15
3.97651e-15
2.83819e-13
1.1314e-11
1.25887e-08
2.93156e-09
5.93454e-10
1.03504e-10
1.54063e-11
1.93288e-12
2.01923e-13
1.78234e-14
1.66545e-15
3.92722e-16
2.44215e-16
2.07603e-15
2.17506e-13
8.21616e-12
1.4743e-08
3.14647e-09
5.85315e-10
9.39488e-11
1.28774e-11
1.50071e-12
1.55436e-13
2.06781e-14
6.65151e-15
3.08305e-15
1.36845e-15
1.98426e-15
1.52274e-13
5.83787e-12
1.65723e-08
3.25046e-09
5.55877e-10
8.21482e-11
1.04587e-11
1.2494e-12
2.40128e-13
1.17945e-13
7.39905e-14
4.03159e-14
1.89448e-14
9.25555e-15
1.15824e-13
3.80796e-12
1.77604e-08
3.25256e-09
5.17257e-10
7.11936e-11
9.26054e-12
2.17826e-12
1.43021e-12
1.11925e-12
7.85392e-13
4.65161e-13
2.38049e-13
1.10458e-13
1.31707e-13
2.3677e-12
1.72592e-08
2.98787e-09
4.50444e-10
6.22971e-11
1.45014e-11
1.13301e-11
1.11058e-11
9.53688e-12
7.12817e-12
4.55304e-12
2.53618e-12
1.2758e-12
6.46218e-13
1.54278e-12
1.49501e-08
2.49961e-09
3.79237e-10
7.76731e-11
5.93334e-11
7.18424e-11
7.67314e-11
6.98098e-11
5.53723e-11
3.79445e-11
2.28954e-11
1.25062e-11
6.28784e-12
3.68919e-12
1.12147e-08
1.89171e-09
3.62212e-10
2.21369e-10
3.08813e-10
4.08237e-10
4.57665e-10
4.38707e-10
3.6834e-10
2.69714e-10
1.75353e-10
1.03051e-10
5.47202e-11
2.87758e-11
8.86926e-09
1.77871e-09
7.26396e-10
9.59987e-10
1.48867e-09
2.02777e-09
2.36779e-09
2.38425e-09
2.12118e-09
1.66171e-09
1.1607e-09
7.26876e-10
4.0418e-10
2.1349e-10
9.87446e-11
3.12116e-11
2.50505e-11
3.21021e-11
4.40139e-11
5.76734e-11
7.19181e-11
8.3103e-11
8.66918e-11
7.90225e-11
5.78309e-11
3.1351e-11
1.27028e-11
4.86087e-12
2.22336e-10
5.21618e-11
1.19225e-11
3.58264e-12
2.92194e-12
4.17945e-12
6.17988e-12
8.28095e-12
9.80053e-12
9.99643e-12
7.94832e-12
4.52203e-12
1.76574e-12
7.4282e-13
5.16544e-10
1.26653e-10
2.80138e-11
5.56295e-12
1.05325e-12
3.61109e-13
4.26417e-13
6.45424e-13
8.7062e-13
9.92569e-13
8.52773e-13
5.08564e-13
2.01573e-13
4.63208e-13
1.03225e-09
2.59436e-10
5.69906e-11
1.09103e-11
1.80725e-12
2.63836e-13
5.07152e-14
4.18072e-14
6.07693e-14
7.79846e-14
7.31295e-14
4.6171e-14
3.28587e-14
6.52447e-13
1.54389e-09
3.80763e-10
8.1461e-11
1.5066e-11
2.39128e-12
3.22726e-13
3.72192e-14
5.2176e-15
3.55798e-15
4.8501e-15
4.97473e-15
3.47238e-15
1.93118e-14
7.84824e-13
1.92305e-09
4.46033e-10
8.99958e-11
1.57131e-11
2.35581e-12
3.00171e-13
3.21174e-14
2.97307e-15
4.32051e-16
3.37384e-16
3.5768e-16
4.27099e-16
1.76576e-14
7.5647e-13
2.1819e-09
4.66652e-10
8.71354e-11
1.41149e-11
1.96661e-12
2.3363e-13
2.34373e-14
2.06957e-15
2.58082e-16
1.26703e-16
1.15906e-16
2.31118e-16
1.58027e-14
6.88207e-13
2.34469e-09
4.60994e-10
7.9363e-11
1.18838e-11
1.53171e-12
1.69442e-13
1.66028e-14
1.9647e-15
5.6846e-16
2.88449e-16
1.72989e-16
2.40468e-16
1.256e-14
5.36701e-13
2.38496e-09
4.31314e-10
6.84303e-11
9.46766e-12
1.13658e-12
1.26941e-13
2.12221e-14
9.17425e-15
5.37385e-15
2.75883e-15
1.2395e-15
6.66354e-16
1.11352e-14
3.93077e-13
2.27376e-09
3.82943e-10
5.65449e-11
7.30633e-12
8.95611e-13
1.96978e-13
1.22602e-13
9.07742e-14
5.96282e-14
3.25085e-14
1.51506e-14
6.44859e-15
1.24229e-14
2.78733e-13
1.94166e-09
3.08243e-10
4.30455e-11
5.63172e-12
1.35301e-12
1.09281e-12
1.03688e-12
8.38521e-13
5.82239e-13
3.38954e-13
1.69899e-13
7.60676e-14
3.78695e-14
1.83603e-13
1.46469e-09
2.25326e-10
3.20086e-11
7.10202e-12
6.38983e-12
7.75154e-12
7.91982e-12
6.73126e-12
4.92183e-12
3.05043e-12
1.64192e-12
7.90567e-13
3.50623e-13
2.28e-13
9.5009e-10
1.4995e-10
3.05331e-11
2.54162e-11
3.81607e-11
4.95486e-11
5.2704e-11
4.68718e-11
3.59957e-11
2.36599e-11
1.36053e-11
7.00098e-12
3.25375e-12
1.54959e-12
6.66301e-10
1.36625e-10
8.00632e-11
1.3006e-10
2.08718e-10
2.78217e-10
3.06211e-10
2.84195e-10
2.29263e-10
1.59696e-10
9.78717e-11
5.33782e-11
2.58835e-11
1.22102e-11
1.28794e-11
3.0768e-12
1.90595e-12
2.76527e-12
4.45721e-12
6.7054e-12
9.33792e-12
1.17625e-11
1.30634e-11
1.24327e-11
9.31092e-12
5.26717e-12
2.17619e-12
7.58264e-13
3.40927e-11
7.34721e-12
1.50586e-12
3.83615e-13
3.06204e-13
4.90331e-13
7.98938e-13
1.15266e-12
1.43944e-12
1.52383e-12
1.23272e-12
7.2454e-13
2.92576e-13
9.83003e-14
8.04959e-11
1.81317e-11
3.67392e-12
6.7002e-13
1.17463e-13
4.12337e-14
5.48699e-14
8.91081e-14
1.2606e-13
1.48171e-13
1.2873e-13
7.84174e-14
3.17468e-14
2.40143e-14
1.59757e-10
3.68233e-11
7.44561e-12
1.32067e-12
2.04688e-13
2.84719e-14
5.88402e-15
5.75829e-15
8.8067e-15
1.15328e-14
1.08568e-14
6.94697e-15
3.31478e-15
2.95013e-14
2.38143e-10
5.39567e-11
1.06587e-11
1.831e-12
2.72326e-13
3.4854e-14
3.95194e-15
6.84044e-16
5.88621e-16
7.93428e-16
8.08219e-16
5.77159e-16
1.16335e-15
4.03561e-14
2.86597e-10
6.13316e-11
1.14807e-11
1.87011e-12
2.63605e-13
3.19371e-14
3.35655e-15
3.86413e-16
1.39165e-16
1.34358e-16
1.37085e-16
1.33553e-16
1.14392e-15
4.93472e-14
3.06303e-10
6.0813e-11
1.05879e-11
1.60884e-12
2.11766e-13
2.40399e-14
2.39711e-15
2.86635e-16
1.14548e-16
1.02957e-16
1.02239e-16
1.09098e-16
1.15709e-15
5.22006e-14
3.02826e-10
5.5619e-11
8.97219e-12
1.26644e-12
1.54869e-13
1.64327e-14
1.60833e-15
2.4789e-16
1.28729e-16
1.10269e-16
1.04038e-16
1.1108e-16
1.09212e-15
4.60516e-14
2.79791e-10
4.74933e-11
7.09494e-12
9.30158e-13
1.0633e-13
1.12601e-14
1.70655e-15
6.90214e-16
4.15098e-16
2.46539e-16
1.56771e-16
1.34396e-16
1.16712e-15
3.94992e-14
2.3894e-10
3.78957e-11
5.29076e-12
6.50439e-13
7.56272e-14
1.52942e-14
8.87422e-15
6.2486e-15
3.88734e-15
2.01359e-15
9.12304e-16
4.19183e-16
1.36744e-15
3.28156e-14
1.80859e-10
2.70936e-11
3.58478e-12
4.49738e-13
1.08737e-13
8.78603e-14
8.00934e-14
6.12648e-14
3.96679e-14
2.13183e-14
9.77555e-15
4.00865e-15
2.385e-15
2.31865e-14
1.20585e-10
1.75883e-11
2.39565e-12
5.78272e-13
5.7635e-13
6.87548e-13
6.68357e-13
5.32818e-13
3.60011e-13
2.03942e-13
9.9205e-14
4.2849e-14
1.72258e-14
1.68931e-14
6.89475e-11
1.04981e-11
2.37521e-12
2.51343e-12
3.88631e-12
4.88693e-12
4.90297e-12
4.05915e-12
2.85784e-12
1.70266e-12
8.77555e-13
4.021e-13
1.65987e-13
7.43395e-14
4.37496e-11
9.74504e-12
8.10558e-12
1.47959e-11
2.39097e-11
3.06703e-11
3.15914e-11
2.70829e-11
1.98465e-11
1.24125e-11
6.75995e-12
3.26237e-12
1.39898e-12
5.99651e-13
1.52013e-12
3.11044e-13
1.39557e-13
2.11944e-13
3.93252e-13
6.70988e-13
1.03521e-12
1.41522e-12
1.67178e-12
1.66248e-12
1.27633e-12
7.43856e-13
3.18812e-13
1.08519e-13
4.29066e-12
8.61539e-13
1.62583e-13
3.63337e-14
2.8127e-14
4.98032e-14
8.86461e-14
1.37245e-13
1.80848e-13
1.98873e-13
1.64121e-13
9.86977e-14
4.16949e-14
1.37171e-14
1.02428e-11
2.14893e-12
4.05458e-13
6.90446e-14
1.14393e-14
4.19074e-15
6.17566e-15
1.06565e-14
1.57581e-14
1.91137e-14
1.68605e-14
1.04723e-14
4.45333e-15
1.84359e-15
2.02404e-11
4.33792e-12
8.18636e-13
1.3629e-13
2.00628e-14
2.75923e-15
6.8486e-16
7.66061e-16
1.17788e-15
1.55101e-15
1.4765e-15
9.83596e-16
4.84173e-16
1.33573e-15
2.98591e-11
6.30805e-12
1.16697e-12
1.88762e-13
2.67203e-14
3.35583e-15
4.52635e-16
1.60308e-16
1.60302e-16
1.87928e-16
1.8972e-16
1.59885e-16
1.61121e-16
2.05308e-15
3.45669e-11
6.9314e-12
1.22114e-12
1.88166e-13
2.53416e-14
3.02949e-15
3.90853e-16
1.25682e-16
1.04445e-16
1.04541e-16
1.04878e-16
1.03846e-16
1.52708e-16
2.91831e-15
3.47378e-11
6.50164e-12
1.07138e-12
1.54955e-13
1.96112e-14
2.22879e-15
2.98167e-16
1.15983e-16
1.01487e-16
1.00545e-16
1.00502e-16
1.0089e-16
1.6207e-16
3.53404e-15
3.16539e-11
5.51203e-12
8.4579e-13
1.14263e-13
1.3526e-14
1.47005e-15
2.21011e-16
1.10836e-16
1.01866e-16
1.00778e-16
1.00479e-16
1.0111e-16
1.72539e-16
3.62428e-15
2.66602e-11
4.31504e-12
6.16717e-13
7.78574e-14
8.67895e-15
9.58195e-16
2.05266e-16
1.31287e-16
1.1512e-16
1.06733e-16
1.02677e-16
1.02551e-16
1.96741e-16
3.71987e-15
2.05583e-11
3.12531e-12
4.19558e-13
4.991e-14
5.63523e-15
1.08919e-15
6.1151e-16
4.37108e-16
2.94453e-16
1.90778e-16
1.34804e-16
1.14005e-16
2.27093e-16
3.62363e-15
1.39759e-11
2.01682e-12
2.57676e-13
3.14069e-14
7.4326e-15
5.82467e-15
5.09707e-15
3.72694e-15
2.30195e-15
1.20078e-15
5.59547e-16
2.67712e-16
2.58629e-16
2.80371e-15
8.39316e-12
1.18523e-12
1.575e-13
4.05167e-14
4.24053e-14
4.92059e-14
4.55544e-14
3.4257e-14
2.16045e-14
1.13952e-14
5.1307e-15
2.07097e-15
8.43343e-16
1.65691e-15
4.33388e-12
6.49015e-13
1.65473e-13
2.05339e-13
3.18408e-13
3.85354e-13
3.65146e-13
2.82683e-13
1.84082e-13
1.00964e-13
4.74136e-14
1.97227e-14
7.41398e-15
3.41557e-15
2.55419e-12
6.42108e-13
7.07746e-13
1.36874e-12
2.18565e-12
2.67873e-12
2.58462e-12
2.05411e-12
1.38056e-12
7.87477e-13
3.87157e-13
1.683e-13
6.49427e-14
2.59354e-14
1.5023e-13
2.8015e-14
9.5012e-15
1.42979e-14
2.99575e-14
5.72844e-14
9.7077e-14
1.43152e-13
1.79267e-13
1.8582e-13
1.46155e-13
8.69011e-14
3.83187e-14
1.3385e-14
4.39687e-13
8.30338e-14
1.46931e-14
3.02385e-15
2.29557e-15
4.38823e-15
8.39875e-15
1.38407e-14
1.91689e-14
2.18545e-14
1.8412e-14
1.12882e-14
4.95888e-15
1.72932e-15
1.06746e-12
2.10326e-13
3.73423e-14
6.06069e-15
1.02837e-15
4.46561e-16
6.6997e-16
1.1555e-15
1.73772e-15
2.15267e-15
1.93812e-15
1.25103e-15
5.95634e-16
2.69805e-16
2.10568e-12
4.23495e-13
7.52881e-14
1.19283e-14
1.75071e-15
3.12452e-16
1.50864e-16
1.66207e-16
2.12342e-16
2.55207e-16
2.48563e-16
1.95738e-16
1.41549e-16
1.49173e-16
3.06845e-12
6.09971e-13
1.06626e-13
1.64457e-14
2.30433e-15
3.59878e-16
1.27764e-16
1.05517e-16
1.06394e-16
1.095e-16
1.09718e-16
1.0653e-16
1.04278e-16
1.78778e-16
3.41654e-12
6.47844e-13
1.08397e-13
1.60045e-14
2.14818e-15
3.29516e-16
1.22352e-16
1.02121e-16
1.00563e-16
1.00635e-16
1.00684e-16
1.00566e-16
1.02569e-16
2.34381e-16
3.23845e-12
5.76653e-13
9.0818e-14
1.2677e-14
1.62771e-15
2.61101e-16
1.14787e-16
1.01344e-16
1.00283e-16
1.00227e-16
1.00236e-16
1.00271e-16
1.03459e-16
2.92429e-16
2.73451e-12
4.559e-13
6.72614e-14
8.84391e-15
1.09525e-15
1.97944e-16
1.08594e-16
1.00903e-16
1.00299e-16
1.00249e-16
1.00248e-16
1.00312e-16
1.05052e-16
3.37616e-16
2.11429e-12
3.29964e-13
4.56651e-14
5.67323e-15
6.96e-16
1.56422e-16
1.06234e-16
1.01631e-16
1.00842e-16
1.00506e-16
1.0036e-16
1.00437e-16
1.08117e-16
3.95999e-16
1.48574e-12
2.19221e-13
2.86919e-14
3.40558e-15
4.50127e-16
1.5365e-16
1.23853e-16
1.14645e-16
1.08036e-16
1.03709e-16
1.01557e-16
1.00939e-16
1.11747e-16
4.3383e-16
9.18534e-13
1.29459e-13
1.62374e-14
2.00071e-15
5.09545e-16
3.97947e-16
3.47751e-16
2.70213e-16
1.96509e-16
1.44451e-16
1.16984e-16
1.06063e-16
1.12854e-16
3.77389e-16
5.04155e-13
6.98466e-14
9.18906e-15
2.46086e-15
2.57859e-15
2.88621e-15
2.56347e-15
1.85333e-15
1.13662e-15
6.07108e-16
3.0655e-16
1.72356e-16
1.28382e-16
2.52577e-16
2.39251e-13
3.55687e-14
1.00251e-14
1.35595e-14
2.07507e-14
2.41338e-14
2.16969e-14
1.58287e-14
9.66983e-15
4.98024e-15
2.21001e-15
8.99311e-16
3.69892e-16
2.46576e-16
1.3288e-13
3.79334e-14
5.10108e-14
1.01034e-13
1.57731e-13
1.84431e-13
1.67344e-13
1.24146e-13
7.74144e-14
4.08241e-14
1.84452e-14
7.38526e-15
2.66456e-15
1.0768e-15
1.25875e-14
2.26026e-15
6.70581e-16
9.17125e-16
2.02684e-15
4.20557e-15
7.69852e-15
1.21296e-14
1.60228e-14
1.72684e-14
1.39198e-14
8.43332e-15
3.83619e-15
1.43007e-15
3.75803e-14
6.77432e-15
1.20204e-15
3.00965e-16
2.43162e-16
4.08191e-16
7.47945e-16
1.24483e-15
1.77088e-15
2.0757e-15
1.79678e-15
1.14937e-15
5.63575e-16
2.58114e-16
9.25648e-14
1.72807e-14
2.9722e-15
5.34374e-16
1.64152e-16
1.24397e-16
1.44023e-16
1.87233e-16
2.42045e-16
2.84047e-16
2.67471e-16
2.05532e-16
1.45965e-16
1.15468e-16
1.82011e-13
3.46165e-14
5.89937e-15
9.66842e-16
2.15421e-16
1.14247e-16
1.03624e-16
1.0538e-16
1.09637e-16
1.13723e-16
1.13269e-16
1.08569e-16
1.03738e-16
1.02265e-16
2.61055e-13
4.91876e-14
8.23905e-15
1.29119e-15
2.53977e-16
1.17439e-16
1.01743e-16
1.00334e-16
1.00483e-16
1.00789e-16
1.0083e-16
1.00564e-16
1.00308e-16
1.02673e-16
2.79201e-13
5.04207e-14
8.12469e-15
1.2286e-15
2.39582e-16
1.15088e-16
1.01383e-16
1.00087e-16
1.00008e-16
1.00035e-16
1.00056e-16
1.00062e-16
1.00145e-16
1.05289e-16
2.50051e-13
4.26609e-14
6.52513e-15
9.56539e-16
1.99898e-16
1.10208e-16
1.00902e-16
1.00067e-16
1.00018e-16
1.00031e-16
1.00048e-16
1.00066e-16
1.00231e-16
1.09144e-16
1.96654e-13
3.16218e-14
4.58074e-15
6.62545e-16
1.61304e-16
1.05915e-16
1.00525e-16
1.00073e-16
1.00054e-16
1.00068e-16
1.00083e-16
1.00104e-16
1.00401e-16
1.14074e-16
1.40608e-13
2.13373e-14
2.94566e-15
4.35826e-16
1.34217e-16
1.03225e-16
1.00368e-16
1.00128e-16
1.00109e-16
1.00114e-16
1.00125e-16
1.00149e-16
1.00711e-16
1.21273e-16
9.09041e-14
1.31548e-14
1.75918e-15
2.8415e-16
1.1835e-16
1.02573e-16
1.01017e-16
1.00635e-16
1.004e-16
1.00262e-16
1.00206e-16
1.00212e-16
1.01095e-16
1.27353e-16
5.17256e-14
7.22653e-15
9.66944e-16
1.96293e-16
1.18845e-16
1.12594e-16
1.09928e-16
1.06498e-16
1.03564e-16
1.01676e-16
1.0075e-16
1.00419e-16
1.01214e-16
1.24455e-16
2.63117e-14
3.66186e-15
5.50296e-16
2.13875e-16
2.17422e-16
2.27104e-16
2.0688e-16
1.71478e-16
1.39242e-16
1.17725e-16
1.06788e-16
1.02432e-16
1.0148e-16
1.13731e-16
1.16847e-14
1.793e-15
6.02972e-16
8.17111e-16
1.18132e-15
1.30965e-15
1.13318e-15
8.09352e-16
5.03604e-16
2.90223e-16
1.74393e-16
1.25131e-16
1.07987e-16
1.07781e-16
6.20468e-15
2.04362e-15
3.11463e-15
6.13083e-15
9.26513e-15
1.03221e-14
8.85045e-15
6.18582e-15
3.63972e-15
1.8325e-15
8.18427e-16
3.59139e-16
1.81299e-16
1.30851e-16
9.63046e-16
2.39444e-16
1.29961e-16
1.37947e-16
2.02824e-16
3.468e-16
5.99294e-16
9.46561e-16
1.28136e-15
1.42223e-15
1.18704e-15
7.61671e-16
3.99108e-16
2.07423e-16
2.75254e-15
5.45588e-16
1.68514e-16
1.11095e-16
1.07261e-16
1.1775e-16
1.41369e-16
1.78817e-16
2.21592e-16
2.49264e-16
2.30546e-16
1.81063e-16
1.35812e-16
1.12125e-16
6.73261e-15
1.2644e-15
2.83398e-16
1.25756e-16
1.03175e-16
1.00961e-16
1.02404e-16
1.05586e-16
1.09855e-16
1.13354e-16
1.1231e-16
1.07658e-16
1.03172e-16
1.0085e-16
1.31219e-14
2.43603e-15
4.71544e-16
1.52382e-16
1.06234e-16
1.00332e-16
9.97764e-17
9.99471e-17
1.00291e-16
1.00632e-16
1.00628e-16
1.00298e-16
9.9952e-17
9.98105e-17
1.84418e-14
3.37135e-15
6.15126e-16
1.71573e-16
1.0849e-16
1.00548e-16
9.96875e-17
9.96332e-17
9.9667e-17
9.97096e-17
9.97314e-17
9.97298e-17
9.97229e-17
9.98086e-17
1.89217e-14
3.33176e-15
5.91086e-16
1.65635e-16
1.07485e-16
1.00446e-16
9.97088e-17
9.96581e-17
9.96734e-17
9.96938e-17
9.97123e-17
9.97297e-17
9.97454e-17
9.99485e-17
1.60396e-14
2.69776e-15
4.74778e-16
1.47352e-16
1.05058e-16
1.00204e-16
9.97247e-17
9.96993e-17
9.9715e-17
9.97335e-17
9.97506e-17
9.97678e-17
9.97878e-17
1.00186e-16
1.18184e-14
1.90685e-15
3.45599e-16
1.29066e-16
1.02848e-16
1.00008e-16
9.97482e-17
9.97434e-17
9.97602e-17
9.97783e-17
9.97947e-17
9.98114e-17
9.98403e-17
1.00572e-16
7.88916e-15
1.23684e-15
2.45155e-16
1.16061e-16
1.01409e-16
9.99065e-17
9.97834e-17
9.979e-17
9.98069e-17
9.98244e-17
9.98406e-17
9.98569e-17
9.99055e-17
1.01193e-16
4.7643e-15
7.48682e-16
1.77778e-16
1.08084e-16
1.00623e-16
9.99021e-17
9.98484e-17
9.98522e-17
9.98624e-17
9.98756e-17
9.98903e-17
9.99061e-17
9.99816e-17
1.01816e-16
2.55903e-15
4.27319e-16
1.37003e-16
1.03862e-16
1.00566e-16
1.00285e-16
1.00193e-16
1.00089e-16
1.00009e-16
9.99661e-17
9.99549e-17
9.99611e-17
1.0004e-16
1.01778e-16
1.26313e-15
2.50314e-16
1.17587e-16
1.04401e-16
1.04412e-16
1.04609e-16
1.03683e-16
1.02319e-16
1.01196e-16
1.00507e-16
1.00183e-16
1.00069e-16
1.00083e-16
1.01062e-16
5.79431e-16
1.65732e-16
1.20971e-16
1.31034e-16
1.45801e-16
1.48954e-16
1.39412e-16
1.25196e-16
1.13256e-16
1.05806e-16
1.02169e-16
1.0075e-16
1.00294e-16
1.00519e-16
3.39433e-16
1.84592e-16
2.46316e-16
3.93046e-16
5.32341e-16
5.5942e-16
4.71011e-16
3.41216e-16
2.29706e-16
1.57785e-16
1.21502e-16
1.0708e-16
1.02196e-16
1.0108e-16
1.48844e-16
1.06643e-16
1.00461e-16
1.00633e-16
1.03716e-16
1.11419e-16
1.26402e-16
1.48943e-16
1.727e-16
1.84773e-16
1.70949e-16
1.4305e-16
1.19052e-16
1.06403e-16
2.56601e-16
1.24013e-16
1.02693e-16
9.96176e-17
9.94327e-17
1.00023e-16
1.0141e-16
1.03756e-16
1.06635e-16
1.08682e-16
1.07641e-16
1.04472e-16
1.01561e-16
1.00041e-16
4.98311e-16
1.65326e-16
1.08966e-16
1.00426e-16
9.92755e-17
9.91844e-17
9.92866e-17
9.94966e-17
9.97876e-17
1.00041e-16
1.00004e-16
9.9727e-17
9.94575e-17
9.93271e-17
8.80785e-16
2.31906e-16
1.19162e-16
1.01837e-16
9.94679e-17
9.91898e-17
9.91785e-17
9.92036e-17
9.9241e-17
9.92788e-17
9.92961e-17
9.92919e-17
9.9285e-17
9.92922e-17
1.17702e-15
2.81584e-16
1.26506e-16
1.02822e-16
9.96172e-17
9.92414e-17
9.92141e-17
9.92252e-17
9.9242e-17
9.92593e-17
9.92762e-17
9.92913e-17
9.93045e-17
9.93229e-17
1.15818e-15
2.71969e-16
1.2423e-16
1.02458e-16
9.96023e-17
9.92786e-17
9.92572e-17
9.92681e-17
9.92831e-17
9.92984e-17
9.9314e-17
9.93293e-17
9.93427e-17
9.93639e-17
9.46429e-16
2.30376e-16
1.17301e-16
1.01502e-16
9.95216e-17
9.93099e-17
9.93007e-17
9.93126e-17
9.9327e-17
9.93417e-17
9.93561e-17
9.93704e-17
9.9383e-17
9.94112e-17
6.81364e-16
1.84198e-16
1.10356e-16
1.0062e-16
9.94585e-17
9.93449e-17
9.93458e-17
9.93586e-17
9.93727e-17
9.93872e-17
9.94009e-17
9.94144e-17
9.94271e-17
9.94718e-17
4.58452e-16
1.48587e-16
1.05446e-16
1.00048e-16
9.94367e-17
9.93851e-17
9.93923e-17
9.94055e-17
9.94195e-17
9.94336e-17
9.94469e-17
9.94596e-17
9.94732e-17
9.95505e-17
2.97372e-16
1.25073e-16
1.02458e-16
9.9738e-17
9.94477e-17
9.94305e-17