/*--------------------------------*- C++ -*----------------------------------*\
| =========                 |                                                 |
| \\      /  F ield         | OpenFOAM: The Open Source CFD Toolbox           |
|  \\    /   O peration     | Version:  v2106                                 |
|   \\  /    A nd           | Website:  www.openfoam.com                      |
|    \\/     M anipulation  |                                                 |
\*---------------------------------------------------------------------------*/
FoamFile
{
    version     2.0;
    format      ascii;
    arch        "LSB;label=32;scalar=64";
    class       volScalarField;
    location    "0.000134";
    object      nut;
}
// * * * * * * * * * * * * * * * * * * * * * * * * * * * * * * * * * * * * * //

dimensions      [0 2 -1 0 0 0 0];

internalField   nonuniform List<scalar> 
18109
(
2.87397e-08
2.3701e-08
2.23662e-08
1.75776e-08
1.34551e-08
1.17866e-08
1.08324e-08
1.12303e-08
4.52689e-09
2.48124e-09
1.37539e-09
1.1229e-09
1.14928e-09
1.25212e-09
1.6484e-08
5.43556e-09
1.75724e-09
5.32933e-10
1.73802e-10
1.00193e-10
1.09014e-10
3.72242e-08
1.30956e-08
4.07839e-09
1.10286e-09
2.55637e-10
5.21125e-11
1.38009e-11
5.9979e-08
2.06779e-08
6.22799e-09
1.61979e-09
3.57916e-10
6.59248e-11
1.00358e-11
7.95606e-08
2.60235e-08
7.41809e-09
1.82358e-09
3.81021e-10
6.61416e-11
9.2624e-12
1.00392e-07
3.04341e-08
8.03801e-09
1.82746e-09
3.52845e-10
5.65606e-11
7.36712e-12
1.25107e-07
3.51061e-08
8.55971e-09
1.79311e-09
3.17861e-10
4.71536e-11
6.21979e-12
4.32065e-09
2.9834e-09
2.62945e-09
1.9626e-09
1.868e-09
1.85068e-09
1.84226e-09
1.78111e-09
1.63342e-09
1.35118e-09
8.98395e-10
4.50872e-10
1.77834e-10
1.3465e-10
3.0276e-09
8.89204e-10
3.00093e-10
1.43842e-10
1.27365e-10
1.4558e-10
1.73247e-10
1.97443e-10
2.08153e-10
1.94998e-10
1.43362e-10
7.4669e-11
2.95487e-11
7.66945e-11
5.49449e-09
1.65425e-09
4.65916e-10
1.18235e-10
2.93228e-11
1.22679e-11
1.27636e-11
1.67806e-11
2.04352e-11
2.16945e-11
1.75652e-11
9.67156e-12
8.2815e-12
1.02931e-10
1.19367e-08
3.68238e-09
9.9554e-10
2.3356e-10
4.6854e-11
8.12856e-12
1.68761e-12
1.1772e-12
1.53755e-12
1.87309e-12
1.70218e-12
1.0899e-12
6.29525e-12
1.22143e-10
1.79144e-08
5.43517e-09
1.42833e-09
3.22361e-10
6.16537e-11
9.82846e-12
1.29375e-12
1.77522e-13
9.3751e-14
1.21296e-13
1.24313e-13
1.76761e-13
5.30505e-12
1.15416e-10
2.34131e-08
6.68549e-09
1.65247e-09
3.50626e-10
6.30585e-11
9.43875e-12
1.14968e-12
1.12031e-13
1.16267e-14
6.51583e-15
7.20262e-15
4.75603e-14
3.62428e-12
8.95878e-11
2.91126e-08
7.67022e-09
1.75196e-09
3.43503e-10
5.71056e-11
7.91573e-12
9.00755e-13
8.55019e-14
8.88812e-15
2.13184e-15
1.04221e-15
2.44684e-14
1.93074e-12
5.61271e-11
3.57352e-08
8.66926e-09
1.82565e-09
3.30319e-10
5.05862e-11
6.51897e-12
7.52481e-13
1.21274e-13
4.71989e-14
2.37462e-14
1.08791e-14
1.78265e-14
1.22409e-12
3.53059e-11
4.26413e-08
9.5534e-09
1.85201e-09
3.08577e-10
4.40294e-11
5.91404e-12
1.32097e-12
7.25781e-13
4.88287e-13
2.86805e-13
1.45594e-13
7.54306e-14
7.87498e-13
2.11399e-11
4.93991e-08
1.03938e-08
1.88039e-09
2.91923e-10
4.24927e-11
1.07323e-11
7.32416e-12
6.08e-12
4.55263e-12
2.92493e-12
1.63702e-12
8.42752e-13
8.36195e-13
1.14591e-11
5.30043e-08
1.05825e-08
1.81921e-09
2.81372e-10
6.57419e-11
4.87676e-11
4.92806e-11
4.49985e-11
3.60017e-11
2.50755e-11
1.53896e-11
8.69144e-12
4.79263e-12
7.37658e-12
5.15484e-08
9.95272e-09
1.70684e-09
3.46835e-10
2.2256e-10
2.64294e-10
2.93497e-10
2.84598e-10
2.42431e-10
1.82088e-10
1.21873e-10
7.51571e-11
4.27622e-11
2.61431e-11
4.43062e-08
8.53244e-09
1.68715e-09
7.7955e-10
9.75356e-10
1.29323e-09
1.508e-09
1.54321e-09
1.39791e-09
1.12824e-09
8.17781e-10
5.44228e-10
3.285e-10
1.93596e-10
3.93497e-08
8.47559e-09
2.71713e-09
2.74401e-09
4.05971e-09
5.54779e-09
6.71363e-09
7.21498e-09
6.95061e-09
6.02875e-09
4.7104e-09
3.34951e-09
2.13017e-09
1.27731e-09
1.67668e-07
5.63172e-07
1.5175e-06
3.27387e-06
5.97145e-06
9.43194e-06
2.75928e-08
1.18009e-07
3.99392e-07
1.06749e-06
2.38181e-06
4.50043e-06
3.11372e-08
1.63614e-07
6.2252e-07
1.76859e-06
3.96497e-06
7.20563e-06
3.43153e-08
2.03897e-07
8.1409e-07
2.32751e-06
5.10816e-06
8.99525e-06
3.08902e-08
2.08232e-07
8.6727e-07
2.50685e-06
5.47008e-06
9.52781e-06
2.32987e-08
1.71263e-07
7.7175e-07
2.31655e-06
5.1515e-06
9.07227e-06
1.92532e-08
1.32039e-07
6.02574e-07
1.88788e-06
4.3626e-06
7.91478e-06
1.61897e-08
1.02514e-07
4.59564e-07
1.45827e-06
3.44363e-06
6.39593e-06
1.33064e-08
7.68902e-08
3.31733e-07
1.05093e-06
2.52214e-06
4.79719e-06
1.04175e-08
5.4355e-08
2.23136e-07
6.98777e-07
1.68792e-06
3.25101e-06
7.21071e-09
3.34879e-08
1.29593e-07
3.99165e-07
9.73511e-07
1.93035e-06
4.06302e-09
1.69857e-08
6.30301e-08
1.93245e-07
4.82021e-07
9.8262e-07
1.78653e-09
6.93851e-09
2.5396e-08
7.82498e-08
2.03373e-07
4.25855e-07
6.23458e-10
2.34348e-09
8.88302e-09
2.87284e-08
8.16152e-08
1.85635e-07
2.43059e-10
1.00429e-09
4.5881e-09
1.87248e-08
6.73547e-08
2.08004e-07
6.73412e-10
3.17735e-09
1.47321e-08
5.98912e-08
2.08416e-07
6.13462e-07
8.15549e-10
5.6086e-09
3.17294e-08
1.41953e-07
5.05962e-07
1.44333e-06
1.28568e-09
1.02943e-08
6.21873e-08
2.84441e-07
9.85937e-07
2.62486e-06
1.62385e-09
1.44533e-08
9.2138e-08
4.25474e-07
1.43171e-06
3.61021e-06
1.59968e-09
1.55434e-08
1.03626e-07
4.85152e-07
1.61352e-06
3.96502e-06
1.30218e-09
1.36774e-08
9.54743e-08
4.55753e-07
1.52113e-06
3.72365e-06
8.79251e-10
9.74746e-09
7.20401e-08
3.59255e-07
1.23933e-06
3.11784e-06
5.90406e-10
6.59653e-09
4.90495e-08
2.51808e-07
8.96876e-07
2.32568e-06
3.58075e-10
3.94338e-09
2.91363e-08
1.49702e-07
5.46016e-07
1.45945e-06
1.78564e-10
1.87953e-09
1.37245e-08
7.1034e-08
2.687e-07
7.49091e-07
7.47996e-11
7.42337e-10
5.24626e-09
2.69874e-08
1.06619e-07
3.09606e-07
4.50771e-11
3.44896e-10
2.23851e-09
1.10291e-08
4.28327e-08
1.25712e-07
1.87591e-10
7.93532e-10
3.36782e-09
1.25845e-08
4.06545e-08
1.11757e-07
1.23393e-09
4.45365e-09
1.55525e-08
4.92816e-08
1.39685e-07
3.51427e-07
7.30624e-09
2.33006e-08
6.98678e-08
1.90851e-07
4.71751e-07
1.0473e-06
1.16819e-08
4.23157e-08
1.38093e-07
3.97313e-07
1.00318e-06
2.20282e-06
1.75018e-08
6.8665e-08
2.34821e-07
6.88115e-07
1.71907e-06
3.62936e-06
2.33179e-08
9.49355e-08
3.31191e-07
9.70916e-07
2.36379e-06
4.77077e-06
2.78756e-08
1.13911e-07
3.94724e-07
1.13238e-06
2.66755e-06
5.19924e-06
2.99512e-08
1.19301e-07
4.02241e-07
1.12336e-06
2.59015e-06
4.97055e-06
2.92187e-08
1.11392e-07
3.61753e-07
9.87475e-07
2.25284e-06
4.30562e-06
2.60547e-08
9.4798e-08
2.94746e-07
7.82485e-07
1.76184e-06
3.35861e-06
2.09771e-08
7.22753e-08
2.14146e-07
5.48276e-07
1.20687e-06
2.27099e-06
1.52718e-08
4.94246e-08
1.37506e-07
3.32994e-07
7.01495e-07
1.2813e-06
1.01385e-08
3.07741e-08
8.06518e-08
1.84735e-07
3.70222e-07
6.45099e-07
7.42211e-09
2.15489e-08
5.51405e-08
1.25661e-07
2.58502e-07
4.88679e-07
1.26196e-08
3.78865e-08
1.03982e-07
2.55439e-07
5.64849e-07
1.12818e-06
5.03092e-08
1.39893e-07
3.55457e-07
8.06067e-07
1.63322e-06
2.95302e-06
1.01357e-07
2.26244e-07
4.72593e-07
9.21222e-07
1.62644e-06
2.4186e-06
5.00515e-08
1.17102e-07
2.54668e-07
5.08587e-07
9.37855e-07
1.5353e-06
3.38095e-08
8.57547e-08
2.18688e-07
5.3822e-07
1.21022e-06
2.4028e-06
5.56781e-08
1.80768e-07
5.36954e-07
1.36476e-06
2.93383e-06
5.29932e-06
1.72501e-07
4.45378e-07
1.01395e-06
2.0224e-06
3.63563e-06
5.89533e-06
2.08786e-07
6.06991e-07
1.49774e-06
3.12863e-06
5.63194e-06
8.83105e-06
2.34805e-07
7.26212e-07
1.84456e-06
3.87242e-06
6.89163e-06
1.0629e-05
2.30233e-07
7.41429e-07
1.921e-06
4.05655e-06
7.19287e-06
1.1002e-05
2.03074e-07
6.67142e-07
1.75816e-06
3.76394e-06
6.74298e-06
1.03731e-05
1.64514e-07
5.4212e-07
1.45171e-06
3.18e-06
5.82925e-06
9.14355e-06
1.27159e-07
4.10021e-07
1.10439e-06
2.47416e-06
4.69108e-06
7.59957e-06
9.51869e-08
2.93213e-07
7.84636e-07
1.8253e-06
3.56306e-06
5.93188e-06
7.08952e-08
2.04636e-07
5.39388e-07
1.27568e-06
2.52689e-06
4.24285e-06
5.1932e-08
1.40533e-07
3.49592e-07
8.13329e-07
1.624e-06
2.72161e-06
3.55216e-08
9.05057e-08
2.12289e-07
4.59987e-07
9.15042e-07
1.5161e-06
1.85902e-08
4.62479e-08
1.0888e-07
2.32284e-07
4.57141e-07
7.65109e-07
1.08574e-08
2.78957e-08
6.83186e-08
1.62501e-07
3.76106e-07
8.24256e-07
1.1321e-08
3.77309e-08
1.23106e-07
3.61099e-07
9.28392e-07
2.04567e-06
7.38706e-06
1.48767e-05
2.29186e-05
2.95847e-05
3.43604e-05
1.12091e-05
1.95002e-05
2.71965e-05
3.22296e-05
3.32688e-05
1.35403e-05
2.16278e-05
2.86681e-05
3.2804e-05
3.06996e-05
1.41451e-05
2.20101e-05
2.92538e-05
3.32724e-05
2.90088e-05
1.35406e-05
2.12018e-05
2.8492e-05
3.16307e-05
2.62807e-05
1.20779e-05
1.88236e-05
2.51253e-05
2.72309e-05
2.25571e-05
1.00512e-05
1.51628e-05
2.02116e-05
2.20684e-05
1.89083e-05
7.70769e-06
1.13614e-05
1.5089e-05
1.71274e-05
1.61115e-05
1.3881e-05
5.43311e-06
7.9251e-06
1.0449e-05
1.23368e-05
1.34644e-05
1.29337e-05
3.43436e-06
5.03373e-06
6.6345e-06
8.06148e-06
1.05578e-05
1.16438e-05
1.82635e-06
2.74542e-06
3.69157e-06
4.68107e-06
7.30235e-06
1.02111e-05
1.15619e-05
7.88896e-07
1.24281e-06
1.89821e-06
2.8333e-06
4.66147e-06
8.50919e-06
1.18143e-05
1.10431e-05
3.66396e-07
8.91437e-07
2.0326e-06
3.76862e-06
5.91283e-06
8.90341e-06
1.42128e-05
2.62043e-05
5.5845e-07
1.97975e-06
4.79045e-06
8.66654e-06
1.2829e-05
1.74345e-05
2.40355e-05
6.47067e-05
1.52638e-06
4.7599e-06
1.01297e-05
1.6565e-05
2.28251e-05
3.00849e-05
5.01681e-05
0.000114281
3.33e-06
8.71435e-06
1.6119e-05
2.34765e-05
2.89321e-05
3.39113e-05
5.21124e-05
0.000138847
5.47224e-06
1.23057e-05
2.02956e-05
2.68986e-05
2.9942e-05
2.93384e-05
3.23141e-05
8.80356e-05
7.06785e-06
1.43252e-05
2.21457e-05
2.83848e-05
3.02565e-05
2.63403e-05
2.4209e-05
8.86573e-05
7.55057e-06
1.46906e-05
2.24307e-05
2.89291e-05
3.00753e-05
2.40235e-05
2.13785e-05
8.41394e-05
7.11055e-06
1.3776e-05
2.12634e-05
2.75743e-05
2.79867e-05
2.12397e-05
1.90495e-05
6.92767e-05
6.07299e-06
1.18223e-05
1.84844e-05
2.40585e-05
2.41887e-05
1.86052e-05
1.68643e-05
2.82776e-05
4.67331e-06
9.16532e-06
1.45575e-05
1.93572e-05
2.00632e-05
1.64325e-05
1.59494e-05
2.60844e-05
3.1056e-06
6.25962e-06
1.01568e-05
1.39603e-05
1.57171e-05
1.41756e-05
1.68464e-06
3.56034e-06
6.02208e-06
8.72181e-06
1.10909e-05
1.17868e-05
7.2507e-07
1.61581e-06
2.93923e-06
4.5625e-06
6.54869e-06
9.17638e-06
2.84813e-07
7.08966e-07
1.44435e-06
2.5247e-06
4.05364e-06
6.85447e-06
2.63419e-07
8.55137e-07
2.06277e-06
3.82845e-06
5.90874e-06
8.46125e-06
7.76961e-07
2.36439e-06
5.26489e-06
9.1213e-06
1.31866e-05
2.08331e-06
5.49157e-06
1.07928e-05
1.69424e-05
2.28214e-05
4.20089e-06
9.58297e-06
1.66114e-05
2.33885e-05
2.82508e-05
6.48751e-06
1.30644e-05
2.04027e-05
2.6293e-05
2.8694e-05
8.1004e-06
1.48596e-05
2.18975e-05
2.73564e-05
2.8297e-05
8.58185e-06
1.50331e-05
2.19178e-05
2.73853e-05
2.72684e-05
8.07054e-06
1.39861e-05
2.06263e-05
2.58289e-05
2.4878e-05
6.90454e-06
1.20636e-05
1.79813e-05
2.26174e-05
2.15781e-05
5.31696e-06
9.42782e-06
1.42638e-05
1.83332e-05
1.81103e-05
3.51317e-06
6.42614e-06
9.91382e-06
1.32408e-05
1.44443e-05
1.93669e-06
3.69909e-06
5.88191e-06
8.31546e-06
1.09632e-05
9.6876e-07
1.98013e-06
3.48561e-06
5.44801e-06
8.51174e-06
8.70408e-07
2.11288e-06
4.06351e-06
6.50537e-06
9.65914e-06
2.04644e-06
4.81626e-06
8.65174e-06
1.27626e-05
1.6807e-05
4.80682e-06
9.98567e-06
1.62712e-05
2.238e-05
2.78125e-05
8.71476e-06
1.59572e-05
2.35101e-05
2.96734e-05
3.40224e-05
1.24883e-05
2.02857e-05
2.72319e-05
3.17226e-05
3.25124e-05
1.47067e-05
2.19995e-05
2.82503e-05
3.17994e-05
2.95307e-05
1.50611e-05
2.20843e-05
2.84664e-05
3.17877e-05
2.73735e-05
1.42445e-05
2.10515e-05
2.74414e-05
3.02434e-05
2.4652e-05
1.2701e-05
1.87192e-05
2.42775e-05
2.64941e-05
2.15223e-05
1.05941e-05
1.53405e-05
1.9865e-05
2.19479e-05
1.8645e-05
8.27589e-06
1.16987e-05
1.50543e-05
1.74645e-05
1.64961e-05
5.98696e-06
8.27435e-06
1.05454e-05
1.28591e-05
1.45327e-05
3.73111e-06
5.16165e-06
6.70567e-06
8.74044e-06
1.25133e-05
2.002e-06
2.89149e-06
4.13337e-06
6.21374e-06
1.07176e-05
1.14995e-06
2.34519e-06
4.30845e-06
6.93628e-06
1.09969e-05
1.67403e-06
4.34243e-06
8.20992e-06
1.24288e-05
1.69137e-05
3.84985e-06
8.98512e-06
1.54377e-05
2.1795e-05
2.76188e-05
3.27332e-10
1.61418e-10
1.30469e-10
1.30834e-10
1.48377e-10
1.66613e-10
1.8421e-10
1.94336e-10
1.90553e-10
1.66616e-10
1.18401e-10
6.24271e-11
2.52485e-11
1.23054e-11
4.57892e-10
1.1746e-10
3.09387e-11
1.14785e-11
9.5854e-12
1.21255e-11
1.61077e-11
1.99783e-11
2.24201e-11
2.20561e-11
1.72484e-11
9.47959e-12
3.69276e-12
3.29269e-12
1.01219e-09
2.72766e-10
6.66543e-11
1.46025e-11
3.03733e-12
1.06254e-12
1.13135e-12
1.59295e-12
2.04866e-12
2.27054e-12
1.93514e-12
1.11874e-12
5.18812e-13
3.79459e-12
2.06212e-09
5.68025e-10
1.36448e-10
2.84045e-11
5.0686e-12
7.85688e-13
1.48187e-13
1.05976e-13
1.4563e-13
1.83231e-13
1.72012e-13
1.07444e-13
1.97748e-13
4.93167e-12
3.06116e-09
8.27302e-10
1.93257e-10
3.8814e-11
6.63261e-12
9.53006e-13
1.14887e-13
1.51438e-14
8.55479e-15
1.13807e-14
1.1792e-14
8.88101e-15
1.54408e-13
5.10052e-12
3.9226e-09
9.94689e-10
2.18439e-10
4.12733e-11
6.64323e-12
8.98351e-13
1.00475e-13
9.27554e-15
1.00566e-15
6.19159e-16
6.74743e-16
1.49168e-15
1.06426e-13
4.24004e-12
4.71367e-09
1.09804e-09
2.2237e-10
3.88016e-11
5.77809e-12
7.25205e-13
7.57822e-14
6.69016e-15
6.25166e-16
1.47404e-16
9.16409e-17
7.78717e-16
8.15479e-14
3.07846e-12
5.52359e-09
1.17908e-09
2.19399e-10
3.52292e-11
4.83069e-12
5.63145e-13
5.83421e-14
7.76226e-15
2.49684e-15
1.1571e-15
5.13421e-16
7.44105e-16
5.70689e-14
2.18643e-12
6.21261e-09
1.21865e-09
2.08444e-10
3.08128e-11
3.92427e-12
4.68917e-13
9.01404e-14
4.42772e-14
2.77737e-14
1.51292e-14
7.10656e-15
3.47007e-15
4.33927e-14
1.42555e-12
6.66004e-09
1.21973e-09
1.94004e-10
2.67083e-11
3.47512e-12
8.17575e-13
5.36892e-13
4.20161e-13
2.9479e-13
1.74539e-13
8.928e-14
4.14012e-14
4.93235e-14
8.85887e-13
6.47335e-09
1.12064e-09
1.68957e-10
2.33715e-11
5.442e-12
4.25264e-12
4.16911e-12
3.58017e-12
2.67549e-12
1.70832e-12
9.51044e-13
4.78066e-13
2.41903e-13
5.76896e-13
5.60552e-09
9.37332e-10
1.42223e-10
2.91358e-11
2.2264e-11
2.69633e-11
2.88029e-11
2.62052e-11
2.07818e-11
1.42356e-11
8.5845e-12
4.68547e-12
2.3532e-12
1.37901e-12
4.20392e-09
7.09194e-10
1.35799e-10
8.30129e-11
1.15853e-10
1.53198e-10
1.71785e-10
1.64686e-10
1.38249e-10
1.01193e-10
6.5749e-11
3.86041e-11
2.04738e-11
1.07518e-11
3.32141e-09
6.662e-10
2.7216e-10
3.59817e-10
5.58274e-10
7.60765e-10
8.88589e-10
8.94988e-10
7.96163e-10
6.23465e-10
4.35231e-10
2.72276e-10
1.51239e-10
7.97464e-11
3.66528e-11
1.15949e-11
9.31073e-12
1.19392e-11
1.63766e-11
2.14683e-11
2.67778e-11
3.09486e-11
3.22874e-11
2.94336e-11
2.15389e-11
1.16758e-11
4.72965e-12
1.80915e-12
8.25808e-11
1.93851e-11
4.43339e-12
1.333e-12
1.08765e-12
1.55641e-12
2.30209e-12
3.08564e-12
3.6526e-12
3.7258e-12
2.96235e-12
1.68532e-12
6.5793e-13
2.76719e-13
1.91966e-10
4.70924e-11
1.04215e-11
2.07057e-12
3.92209e-13
1.34531e-13
1.58918e-13
2.40617e-13
3.24637e-13
3.70162e-13
3.18027e-13
1.89648e-13
7.51522e-14
1.72635e-13
3.83815e-10
9.65081e-11
2.12106e-11
4.06262e-12
6.7329e-13
9.83375e-14
1.89099e-14
1.55934e-14
2.26702e-14
2.90958e-14
2.72846e-14
1.72251e-14
1.2256e-14
2.43263e-13
5.74434e-10
1.41725e-10
3.03344e-11
5.61286e-12
8.91283e-13
1.20339e-13
1.38835e-14
1.94683e-15
1.32781e-15
1.8102e-15
1.85672e-15
1.29584e-15
7.20501e-15
2.9267e-13
7.15874e-10
1.66095e-10
3.35263e-11
5.85617e-12
8.78386e-13
1.11968e-13
1.19844e-14
1.10966e-15
1.61283e-16
1.25951e-16
1.33525e-16
1.59411e-16
6.58858e-15
2.82125e-13
8.12681e-10
1.73856e-10
3.24745e-11
5.26258e-12
7.33532e-13
8.7175e-14
8.74797e-15
7.72621e-16
9.6359e-17
4.73071e-17
4.32727e-17
8.62641e-17
5.89603e-15
2.56629e-13
8.73603e-10
1.718e-10
2.95855e-11
4.43179e-12
5.71443e-13
6.32359e-14
6.19794e-15
7.33552e-16
2.1226e-16
1.07701e-16
6.45793e-17
8.97387e-17
4.68485e-15
2.00076e-13
8.88865e-10
1.60782e-10
2.55158e-11
3.53146e-12
4.2411e-13
4.73815e-14
7.92326e-15
3.42558e-15
2.00659e-15
1.03001e-15
4.62641e-16
2.48618e-16
4.15214e-15
1.4648e-13
8.47504e-10
1.42766e-10
2.10862e-11
2.7255e-12
3.34214e-13
7.35262e-14
4.57739e-14
3.38936e-14
2.22633e-14
1.21353e-14
5.65371e-15
2.40529e-15
4.63051e-15
1.03821e-13
7.23702e-10
1.14915e-10
1.60518e-11
2.10079e-12
5.04901e-13
4.07911e-13
3.87115e-13
3.13084e-13
2.17376e-13
1.26514e-13
6.33879e-14
2.83643e-14
1.41095e-14
6.83508e-14
5.45777e-10
8.39886e-11
1.19344e-11
2.64894e-12
2.38427e-12
2.89315e-12
2.95657e-12
2.51305e-12
1.83728e-12
1.13836e-12
6.12434e-13
2.94702e-13
1.30588e-13
8.48415e-14
3.53937e-10
5.58777e-11
1.13815e-11
9.47766e-12
1.42366e-11
1.84908e-11
1.9673e-11
1.74979e-11
1.3436e-11
8.82854e-12
5.07409e-12
2.60917e-12
1.21144e-12
5.76326e-13
2.48057e-10
5.08868e-11
2.9833e-11
4.8484e-11
7.78469e-11
1.03806e-10
1.14282e-10
1.06081e-10
8.55671e-11
5.95824e-11
3.64965e-11
1.9889e-11
9.63548e-12
4.53978e-12
4.77292e-12
1.14051e-12
7.06583e-13
1.02536e-12
1.6529e-12
2.48694e-12
3.46353e-12
4.36328e-12
4.84609e-12
4.61224e-12
3.45408e-12
1.95405e-12
8.07306e-13
2.81286e-13
1.26365e-11
2.72375e-12
5.58348e-13
1.4227e-13
1.13578e-13
1.81907e-13
2.96427e-13
4.27719e-13
5.34167e-13
5.65537e-13
4.57522e-13
2.68936e-13
1.08598e-13
3.64886e-14
2.98438e-11
6.72346e-12
1.36258e-12
2.48546e-13
4.35803e-14
1.53012e-14
2.03642e-14
3.30768e-14
4.67987e-14
5.50149e-14
4.78009e-14
2.91205e-14
1.17895e-14
8.91744e-15
5.92393e-11
1.36567e-11
2.76193e-12
4.90009e-13
7.59606e-14
1.05684e-14
2.18446e-15
2.13819e-15
3.27061e-15
4.28366e-15
4.033e-15
2.58073e-15
1.23145e-15
1.09588e-14
8.83275e-11
2.0016e-11
3.95482e-12
6.79533e-13
1.0109e-13
1.29412e-14
1.46764e-15
2.54085e-16
2.18675e-16
2.94802e-16
3.00329e-16
2.14473e-16
4.32307e-16
1.49941e-14
1.06317e-10
2.27556e-11
4.26055e-12
6.94171e-13
9.7872e-14
1.18606e-14
1.24681e-15
1.43564e-16
5.17127e-17
4.99327e-17
5.0951e-17
4.96377e-17
4.25144e-16
1.8337e-14
1.13648e-10
2.25672e-11
3.92989e-12
5.97297e-13
7.86403e-14
8.92951e-15
8.90593e-16
1.06513e-16
4.25723e-17
3.82681e-17
3.80041e-17
4.05522e-17
4.3005e-16
1.93965e-14
1.12369e-10
2.06417e-11
3.33049e-12
4.70218e-13
5.75166e-14
6.10442e-15
5.97599e-16
9.21236e-17
4.78464e-17
4.0988e-17
3.86728e-17
4.12868e-17
4.05844e-16
1.71089e-14
1.03827e-10
1.76269e-11
2.63381e-12
3.45379e-13
3.94922e-14
4.18315e-15
6.34126e-16
2.56512e-16
1.54284e-16
9.16362e-17
5.82682e-17
4.99444e-17
4.33615e-16
1.46707e-14
8.86653e-11
1.40645e-11
1.96403e-12
2.41515e-13
2.8089e-14
5.68182e-15
3.29748e-15
2.32216e-15
1.44476e-15
7.48351e-16
3.39023e-16
1.55742e-16
5.07888e-16
1.21841e-14
6.71095e-11
1.0055e-11
1.33071e-12
1.66991e-13
4.03865e-14
3.26401e-14
2.97607e-14
2.27669e-14
1.47418e-14
7.92195e-15
3.63201e-15
1.489e-15
8.85512e-16
8.6051e-15
4.47367e-11
6.52658e-12
8.89214e-13
2.14702e-13
2.14054e-13
2.55411e-13
2.4833e-13
1.97989e-13
1.33776e-13
7.57735e-14
3.68507e-14
1.59116e-14
6.39335e-15
6.2668e-15
2.55748e-11
3.89493e-12
8.81521e-13
9.3309e-13
1.44325e-12
1.81528e-12
1.8216e-12
1.50824e-12
1.06183e-12
6.32516e-13
3.25906e-13
1.49273e-13
6.15841e-14
2.7565e-14
1.62231e-11
3.61476e-12
3.00781e-12
5.49213e-12
8.8784e-12
1.13917e-11
1.17362e-11
1.0062e-11
7.37305e-12
4.61034e-12
2.50999e-12
1.21078e-12
5.18887e-13
2.22259e-13
5.63542e-13
1.15311e-13
5.17327e-14
7.85642e-14
1.45761e-13
2.48692e-13
3.83648e-13
5.2444e-13
6.19445e-13
6.15937e-13
4.72816e-13
2.75539e-13
1.18081e-13
4.01895e-14
1.59052e-12
3.19371e-13
6.02664e-14
1.34682e-14
1.04255e-14
1.84595e-14
3.28538e-14
5.08622e-14
6.70139e-14
7.36871e-14
6.08055e-14
3.65643e-14
1.54455e-14
5.08105e-15
3.79698e-12
7.96612e-13
1.50299e-13
2.55941e-14
4.24019e-15
1.55333e-15
2.28891e-15
3.94949e-15
5.8398e-15
7.0829e-15
6.24749e-15
3.88014e-15
1.64996e-15
6.82969e-16
7.50249e-12
1.60796e-12
3.03443e-13
5.05188e-14
7.43655e-15
1.02273e-15
2.5384e-16
2.83927e-16
4.36535e-16
5.7479e-16
5.47151e-16
3.64468e-16
1.79405e-16
4.94883e-16
1.10674e-11
2.33814e-12
4.3255e-13
6.99673e-14
9.90421e-15
1.24388e-15
1.6777e-16
5.94175e-17
5.94129e-17
6.96489e-17
7.03108e-17
5.92494e-17
5.97056e-17
7.60694e-16
1.28113e-11
2.56896e-12
4.52592e-13
6.97419e-14
9.39268e-15
1.12287e-15
1.44867e-16
4.6583e-17
3.87107e-17
3.87449e-17
3.88689e-17
3.84833e-17
5.65884e-17
1.08129e-15
1.28735e-11
2.40946e-12
3.97055e-13
5.74278e-14
7.26824e-15
8.2604e-16
1.10508e-16
4.29866e-17
3.76137e-17
3.72636e-17
3.72466e-17
3.73871e-17
6.00547e-17
1.30934e-15
1.17291e-11
2.04243e-12
3.13409e-13
4.23417e-14
5.01238e-15
5.44773e-16
8.19045e-17
4.10751e-17
3.77512e-17
3.73468e-17
3.72352e-17
3.74655e-17
6.39262e-17
1.34261e-15
9.87738e-12
1.59868e-12
2.28495e-13
2.88472e-14
3.21578e-15
3.55047e-16
7.60608e-17
4.86485e-17
4.26578e-17
3.95488e-17
3.80441e-17
3.79934e-17
7.28785e-17
1.37774e-15
7.61527e-12
1.15769e-12
1.55421e-13
1.84893e-14
2.08768e-15
4.03527e-16
2.2656e-16
1.61947e-16
1.09093e-16
7.06786e-17
4.99378e-17
4.22283e-17
8.41004e-17
1.34174e-15
5.17616e-12
7.46958e-13
9.54387e-14
1.1633e-14
2.75315e-15
2.15762e-15
1.88814e-15
1.38059e-15
8.52706e-16
4.44771e-16
2.07235e-16
9.91371e-17
9.57519e-17
1.03781e-15
3.10782e-12
4.38876e-13
5.83242e-14
1.50045e-14
1.57048e-14
1.82241e-14
1.68721e-14
1.26877e-14
8.00132e-15
4.21989e-15
1.89976e-15
7.66677e-16
3.12131e-16
6.13091e-16
1.60444e-12
2.40273e-13
6.12652e-14
7.60292e-14
1.17902e-13
1.42696e-13
1.35216e-13
1.04677e-13
6.81614e-14
3.73803e-14
1.75511e-14
7.29911e-15
2.74304e-15
1.26334e-15
9.4532e-13
2.37656e-13
2.61981e-13
5.06687e-13
8.09158e-13
9.91739e-13
9.56916e-13
7.60479e-13
5.11078e-13
2.9148e-13
1.43275e-13
6.22662e-14
2.40196e-14
9.58847e-15
5.57752e-14
1.03984e-14
3.52564e-15
5.30438e-15
1.11114e-14
2.12428e-14
3.59917e-14
5.30648e-14
6.64399e-14
6.88575e-14
5.41505e-14
3.21926e-14
1.41934e-14
4.95726e-15
1.63179e-13
3.0811e-14
5.45084e-15
1.12158e-15
8.51281e-16
1.62703e-15
3.11345e-15
5.12998e-15
7.10363e-15
8.09766e-15
6.82118e-15
4.18146e-15
1.83673e-15
6.40443e-16
3.9605e-13
7.80261e-14
1.38503e-14
2.24756e-15
3.81295e-16
1.65549e-16
2.48331e-16
4.28236e-16
6.43916e-16
7.97566e-16
7.17982e-16
4.6339e-16
2.20609e-16
9.99133e-17
7.81072e-13
1.5707e-13
2.79188e-14
4.42272e-15
6.49018e-16
1.15816e-16
5.59125e-17
6.15906e-17
7.86755e-17
9.45452e-17
9.20722e-17
7.24954e-17
5.24215e-17
5.52362e-17
1.13797e-12
2.26186e-13
3.95324e-14
6.09662e-15
8.54128e-16
1.33377e-16
4.73452e-17
3.90963e-17
3.94162e-17
4.0562e-17
4.0638e-17
3.94516e-17
3.86141e-17
6.61907e-17
1.26679e-12
2.40179e-13
4.01814e-14
5.93198e-15
7.96117e-16
1.22105e-16
4.53332e-17
3.78327e-17
3.72512e-17
3.72733e-17
3.72872e-17
3.72383e-17
3.7976e-17
8.67655e-17
1.20052e-12
2.13743e-13
3.36589e-14
4.69781e-15
6.03127e-16
9.6737e-17
4.25235e-17
3.75393e-17
3.71422e-17
3.71172e-17
3.71164e-17
3.7124e-17
3.82993e-17
1.08236e-16
1.01348e-12
1.68948e-13
2.49232e-14
3.2767e-15
4.05751e-16
7.33239e-17
4.02219e-17
3.73692e-17
3.71417e-17
3.71191e-17
3.71144e-17
3.71327e-17
3.88814e-17
1.24937e-16
7.83449e-13
1.22254e-13
1.69175e-14
2.10154e-15
2.57794e-16
5.79317e-17
3.93404e-17
3.76319e-17
3.73361e-17
3.72069e-17
3.71482e-17
3.71712e-17
4.00065e-17
1.4651e-16
5.50411e-13
8.12044e-14
1.06272e-14
1.26126e-15
1.66689e-16
5.68934e-17
4.58555e-17
4.24417e-17
3.99908e-17
3.83842e-17
3.75825e-17
3.7348e-17
4.13389e-17
1.60464e-16
3.4021e-13
4.79443e-14
6.01293e-15
7.40815e-16
1.88653e-16
1.4732e-16
1.28724e-16
1.00011e-16
7.27232e-17
5.34505e-17
4.32801e-17
3.92331e-17
4.17367e-17
1.39546e-16
1.86684e-13
2.58609e-14
3.40203e-15
9.10983e-16
9.54473e-16
1.06823e-15
9.48676e-16
6.85789e-16
4.20533e-16
2.24587e-16
1.13382e-16
6.37363e-17
4.74646e-17
9.33628e-17
8.85722e-14
1.31664e-14
3.71073e-15
5.01844e-15
7.67923e-15
8.93021e-15
8.02756e-15
5.85564e-15
3.57674e-15
1.84181e-15
8.17159e-16
3.32452e-16
1.36708e-16
9.11122e-17
4.91791e-14
1.40376e-14
1.88762e-14
3.73835e-14
5.83567e-14
6.82273e-14
6.1899e-14
4.5914e-14
2.86267e-14
1.50934e-14
6.81816e-15
2.72927e-15
9.8447e-16
3.97717e-16
4.68263e-15
8.40645e-16
2.49342e-16
3.40931e-16
7.53271e-16
1.56262e-15
2.85978e-15
4.50478e-15
5.94934e-15
6.41047e-15
5.16631e-15
3.12941e-15
1.42328e-15
5.30476e-16
1.39741e-14
2.51864e-15
4.46803e-16
1.11844e-16
9.03427e-17
1.51622e-16
2.77759e-16
4.62181e-16
6.57351e-16
7.70343e-16
6.66702e-16
4.26401e-16
2.09051e-16
9.57282e-17
3.44075e-14
6.42254e-15
1.10439e-15
1.98518e-16
6.09683e-17
4.61932e-17
5.34692e-17
6.94971e-17
8.98241e-17
1.05391e-16
9.92235e-17
7.62334e-17
5.41332e-17
4.28162e-17
6.76334e-14
1.2861e-14
2.19132e-15
3.59063e-16
7.99854e-17
4.24114e-17
3.84598e-17
3.91043e-17
4.0676e-17
4.21845e-17
4.20091e-17
4.02598e-17
3.84642e-17
3.79126e-17
9.69734e-14
1.82685e-14
3.05941e-15
4.79369e-16
9.42729e-17
4.35838e-17
3.77515e-17
3.72219e-17
3.72706e-17
3.73777e-17
3.73872e-17
3.7283e-17
3.7184e-17
3.80556e-17
1.0368e-13
1.87202e-14
3.01598e-15
4.55986e-16
8.89029e-17
4.2699e-17
3.76077e-17
3.71203e-17
3.70848e-17
3.70888e-17
3.7091e-17
3.70876e-17
3.71147e-17
3.9016e-17
9.28252e-14
1.58342e-14
2.42146e-15
3.54908e-16
7.41558e-17
4.0877e-17
3.7419e-17
3.71034e-17
3.70789e-17
3.70781e-17
3.70788e-17
3.70803e-17
3.71372e-17
4.04348e-17
7.29795e-14
1.17331e-14
1.69938e-15
2.45753e-16
5.98213e-17
3.92735e-17
3.72689e-17
3.70955e-17
3.70823e-17
3.70818e-17
3.70822e-17
3.70844e-17
3.71898e-17
4.225e-17
5.21647e-14
7.91469e-15
1.09247e-15
1.61611e-16
4.9762e-17
3.82656e-17
3.72004e-17
3.71056e-17
3.70929e-17
3.7089e-17
3.70877e-17
3.70913e-17
3.72942e-17
4.49041e-17
3.37143e-14
4.87801e-15
6.52237e-16
1.05336e-16
4.38662e-17
3.80127e-17
3.74303e-17
3.72831e-17
3.71902e-17
3.71334e-17
3.71068e-17
3.71038e-17
3.74249e-17
4.71412e-17
1.91781e-14
2.67891e-15
3.58401e-16
7.27461e-17
4.40373e-17
4.17149e-17
4.07206e-17
3.9444e-17
3.83511e-17
3.76458e-17
3.72971e-17
3.71691e-17
3.7457e-17
4.60537e-17
9.75242e-15
1.35703e-15
2.03906e-16
7.92376e-17
8.05405e-17
8.41141e-17
7.66119e-17
6.34916e-17
5.15477e-17
4.35747e-17
3.95198e-17
3.79017e-17
3.7543e-17
4.20704e-17
4.32961e-15
6.64259e-16
2.2336e-16
3.02641e-16
4.37474e-16
4.84922e-16
4.19514e-16
2.9958e-16
1.86376e-16
1.07387e-16
6.45169e-17
4.62843e-17
3.99358e-17
3.98541e-17
2.29826e-15
7.56857e-16
1.15338e-15
2.27e-15
3.43003e-15
3.82073e-15
3.27549e-15
2.28894e-15
1.34657e-15
6.77833e-16
3.02677e-16
1.32794e-16
6.70239e-17
4.83639e-17
3.59039e-16
8.92547e-17
4.84358e-17
5.14024e-17
7.55621e-17
1.29173e-16
2.23172e-16
3.52418e-16
4.76967e-16
5.29292e-16
4.41673e-16
2.83345e-16
1.48443e-16
7.71317e-17
1.02576e-15
2.03298e-16
6.2781e-17
4.13814e-17
3.99454e-17
4.3843e-17
5.26259e-17
6.65526e-17
8.24557e-17
9.27339e-17
8.57533e-17
6.73351e-17
5.04987e-17
4.16838e-17
2.50801e-15
4.70962e-16
1.05541e-16
4.68246e-17
3.84095e-17
3.7578e-17
3.81077e-17
3.92842e-17
4.08646e-17
4.21583e-17
4.17623e-17
4.00254e-17
3.83526e-17
3.74831e-17
4.88633e-15
9.07023e-16
1.75543e-16
5.6718e-17
3.95339e-17
3.73306e-17
3.71168e-17
3.71734e-17
3.72944e-17
3.74144e-17
3.74068e-17
3.7278e-17
3.7145e-17
3.7087e-17
6.86492e-15
1.25481e-15
2.28912e-16
6.38379e-17
4.03592e-17
3.73982e-17
3.70712e-17
3.70445e-17
3.70505e-17
3.70602e-17
3.70625e-17
3.70564e-17
3.70497e-17
3.70766e-17
7.04103e-15
1.23963e-15
2.19887e-16
6.16066e-17
3.99711e-17
3.73471e-17
3.70666e-17
3.70415e-17
3.70409e-17
3.70425e-17
3.70439e-17
3.70452e-17
3.70471e-17
3.71181e-17
5.96647e-15
1.00338e-15
1.76558e-16
5.47875e-17
3.90555e-17
3.72449e-17
3.70603e-17
3.70448e-17
3.70445e-17
3.70457e-17
3.70469e-17
3.70483e-17
3.70519e-17
3.71957e-17
4.39472e-15
7.08969e-16
1.28475e-16
4.79721e-17
3.82209e-17
3.71593e-17
3.70568e-17
3.70489e-17
3.70493e-17
3.70504e-17
3.70514e-17
3.70528e-17
3.70595e-17
3.73274e-17
2.93262e-15
4.59701e-16
9.11046e-17
4.31238e-17
3.76736e-17
3.71093e-17
3.70576e-17
3.7054e-17
3.70545e-17
3.70555e-17
3.70565e-17
3.70579e-17
3.70716e-17
3.75463e-17
1.77041e-15
2.78166e-16
6.60431e-17
4.0146e-17
3.73686e-17
3.7095e-17
3.70691e-17
3.70646e-17
3.70626e-17
3.70621e-17
3.70623e-17
3.70637e-17
3.70869e-17
3.77648e-17
9.50617e-16
1.58713e-16
5.08785e-17
3.85648e-17
3.73351e-17
3.72246e-17
3.71846e-17
3.71399e-17
3.71042e-17
3.70829e-17
3.70734e-17
3.70713e-17
3.70954e-17
3.77376e-17
4.6906e-16
9.29373e-17
4.36529e-17
3.87514e-17
3.87496e-17
3.88161e-17
3.84663e-17
3.79542e-17
3.75317e-17
3.72705e-17
3.71448e-17
3.70977e-17
3.70979e-17
3.74583e-17
2.151e-16
6.15141e-17
4.48947e-17
4.86215e-17
5.40921e-17
5.52523e-17
5.1704e-17
4.64239e-17
4.19893e-17
3.9221e-17
3.78671e-17
3.7336e-17
3.7162e-17
3.72427e-17
1.25962e-16
6.84913e-17
9.13808e-17
1.45793e-16
1.97429e-16
2.07437e-16
1.74624e-16
1.26481e-16
8.51323e-17
5.84675e-17
4.50159e-17
3.96664e-17
3.7852e-17
3.74342e-17
5.56069e-17
3.98386e-17
3.75266e-17
3.75873e-17
3.8735e-17
4.16068e-17
4.71953e-17
5.56039e-17
6.44627e-17
6.89586e-17
6.37888e-17
5.33696e-17
4.44092e-17
3.96837e-17
9.58293e-17
4.63126e-17
3.83477e-17
3.71962e-17
3.71232e-17
3.7339e-17
3.78519e-17
3.87222e-17
3.97908e-17
4.05485e-17
4.01537e-17
3.89652e-17
3.78743e-17
3.73013e-17
1.86036e-16
6.17208e-17
4.0677e-17
3.74856e-17
3.70523e-17
3.70141e-17
3.70475e-17
3.71212e-17
3.72245e-17
3.73139e-17
3.72946e-17
3.71858e-17
3.70806e-17
3.70262e-17
3.28719e-16
8.65475e-17
4.4468e-17
3.79997e-17
3.71118e-17
3.7004e-17
3.69952e-17
3.7e-17
3.7009e-17
3.70181e-17
3.70195e-17
3.70129e-17
3.7006e-17
3.70036e-17
4.39137e-16
1.05053e-16
4.7193e-17
3.83544e-17
3.71553e-17
3.70111e-17
3.69966e-17
3.69963e-17
3.69979e-17
3.69997e-17
3.70012e-17
3.70023e-17
3.70033e-17
3.70055e-17
4.3197e-16
1.01432e-16
4.63285e-17
3.8206e-17
3.71374e-17
3.70128e-17
3.70006e-17
3.70003e-17
3.70013e-17
3.70026e-17
3.70039e-17
3.70054e-17
3.70067e-17
3.70105e-17
3.52879e-16
8.58913e-17
4.373e-17
3.78369e-17
3.7095e-17
3.70122e-17
3.70046e-17
3.70048e-17
3.70058e-17
3.70069e-17
3.70081e-17
3.70095e-17
3.70108e-17
3.70177e-17
2.53966e-16
6.86516e-17
4.11275e-17
3.74954e-17
3.70591e-17
3.70128e-17
3.70091e-17
3.70096e-17
3.70106e-17
3.70117e-17
3.70128e-17
3.7014e-17
3.70154e-17
3.70291e-17
1.70824e-16
5.53611e-17
3.92848e-17
3.72701e-17
3.70386e-17
3.70154e-17
3.70139e-17
3.70146e-17
3.70156e-17
3.70167e-17
3.70177e-17
3.70189e-17
3.70206e-17
3.70471e-17
1.10767e-16
4.65844e-17
3.81588e-17
3.7142e-17
3.70301e-17
3.70197e-17
3.70194e-17