/*--------------------------------*- C++ -*----------------------------------*\
| =========                 |                                                 |
| \\      /  F ield         | OpenFOAM: The Open Source CFD Toolbox           |
|  \\    /   O peration     | Version:  v2106                                 |
|   \\  /    A nd           | Website:  www.openfoam.com                      |
|    \\/     M anipulation  |                                                 |
\*---------------------------------------------------------------------------*/
FoamFile
{
    version     2.0;
    format      ascii;
    arch        "LSB;label=32;scalar=64";
    class       surfaceScalarField;
    location    "0.000134";
    object      phi;
}
// * * * * * * * * * * * * * * * * * * * * * * * * * * * * * * * * * * * * * //

dimensions      [1 0 -1 0 0 0 0];

internalField   nonuniform List<scalar> 
52765
(
2.35371e-06
1.05065e-06
3.27531e-08
-1.29744e-06
-2.35292e-06
2.32213e-06
7.16349e-07
-1.73186e-08
2.20807e-06
3.71438e-07
-7.87418e-08
2.02662e-06
4.00921e-10
-1.59515e-07
1.76882e-06
-2.9745e-07
-2.37763e-07
1.44063e-06
-5.2502e-07
-3.0388e-07
-6.67115e-07
-3.48758e-07
1.88506e-06
8.01186e-07
6.16719e-09
-1.88462e-06
1.89557e-06
4.53296e-07
-5.5767e-08
1.84774e-06
1.54317e-07
-1.38643e-07
1.71979e-06
-1.466e-07
-2.03799e-07
1.51619e-06
-3.8203e-07
-2.59692e-07
1.25586e-06
-5.64049e-07
-3.05828e-07
-6.80877e-07
-3.40415e-07
1.54472e-06
4.49234e-07
-6.76169e-08
-1.46213e-06
1.58883e-06
1.43709e-07
-1.08445e-07
1.58008e-06
-1.10704e-07
-1.70197e-07
1.49063e-06
-3.40508e-07
-2.19196e-07
1.33408e-06
-5.18968e-07
-2.65611e-07
1.12488e-06
-6.5838e-07
-3.04909e-07
-7.51778e-07
-3.36672e-07
1.30155e-06
-3.49486e-10
-1.14903e-07
-1.13178e-06
1.38099e-06
-2.11846e-07
-1.54544e-07
1.3907e-06
-4.01504e-07
-2.00773e-07
1.32197e-06
-5.63447e-07
-2.417e-07
1.1948e-06
-6.93525e-07
-2.79347e-07
1.02171e-06
-7.96988e-07
-3.10594e-07
-8.65088e-07
-3.36201e-07
1.09182e-06
-4.82473e-07
-1.78638e-07
1.18873e-06
-6.03519e-07
-2.0543e-07
1.21724e-06
-7.22277e-07
-2.33279e-07
1.17569e-06
-8.20171e-07
-2.63003e-07
1.08447e-06
-9.05954e-07
-2.88536e-07
9.48953e-07
-9.74709e-07
-3.12928e-07
-1.01631e-06
-3.34438e-07
9.74295e-07
-9.85917e-07
-2.08589e-07
1.09051e-06
-1.019e-06
-2.2458e-07
1.13403e-06
-1.0616e-06
-2.43625e-07
1.11116e-06
-1.0996e-06
-2.67878e-07
1.03615e-06
-1.13746e-06
-2.86835e-07
9.17408e-07
-1.17282e-06
-3.07952e-07
-1.18758e-06
-3.26164e-07
9.48841e-07
-1.47128e-06
-2.14761e-07
1.05511e-06
-1.4216e-06
-2.29695e-07
1.08911e-06
-1.38978e-06
-2.45858e-07
1.07145e-06
-1.38068e-06
-2.66185e-07
1.00312e-06
-1.37245e-06
-2.80531e-07
8.94399e-07
-1.37838e-06
-2.987e-07
-1.37043e-06
-3.14469e-07
1.01109e-06
-1.88168e-07
1.10161e-06
-2.06169e-07
1.12584e-06
-2.21871e-07
1.09545e-06
-2.46219e-07
1.0149e-06
-2.61831e-07
8.9988e-07
-2.78674e-07
-2.94029e-07
1.90774e-06
6.49509e-07
-8.44298e-07
-1.91262e-06
3.01535e-07
1.88315e-06
3.75113e-07
-5.5165e-07
2.53377e-07
1.79679e-06
1.03111e-07
-2.25167e-07
1.9553e-07
1.65128e-06
-1.81894e-07
1.11064e-07
1.20273e-07
1.4467e-06
-4.08639e-07
3.85291e-07
5.2445e-08
1.19554e-06
-5.85639e-07
5.98497e-07
-6.5714e-09
9.11927e-07
-7.00089e-07
7.36448e-07
-4.82234e-08
5.94128e-07
-7.82885e-07
8.45645e-07
-7.49247e-08
2.56069e-07
-8.11784e-07
8.90426e-07
-7.74826e-08
-9.84046e-08
-8.10527e-07
9.06056e-07
-6.50688e-08
-4.51988e-07
-7.48491e-07
8.49048e-07
-2.67741e-08
-7.89422e-07
-6.69934e-07
7.57438e-07
1.45393e-08
-1.08573e-06
-5.15926e-07
5.73814e-07
6.42694e-08
-3.24614e-07
3.63207e-07
-1.35212e-06
1.36205e-07
1.54579e-06
4.46703e-07
-1.54302e-06
2.6989e-07
1.55465e-06
1.62368e-07
2.13489e-07
1.51431e-06
-7.19712e-08
1.38427e-07
1.41165e-06
-3.04401e-07
8.07779e-08
1.25352e-06
-4.84403e-07
3.16656e-08
1.05455e-06
-6.26895e-07
-1.11231e-08
8.23456e-07
-7.16149e-07
-4.32986e-08
5.64124e-07
-7.7775e-07
-6.48166e-08
2.91994e-07
-7.97623e-07
-7.06084e-08
5.16647e-09
-7.82627e-07
-6.16408e-08
-2.86569e-07
-7.11624e-07
-2.94753e-08
-5.78132e-07
-6.31323e-07
6.39738e-09
-8.54355e-07
-4.82088e-07
4.94763e-08
-2.91076e-07
-1.12183e-06
1.15921e-07
1.28692e-06
1.54684e-07
-1.21271e-06
2.10123e-07
1.31968e-06
-8.40822e-08
1.66947e-07
1.31034e-06
-2.8268e-07
1.09905e-07
1.2401e-06
-4.6154e-07
6.58532e-08
1.11845e-06
-5.97314e-07
2.29336e-08
9.54668e-07
-7.04359e-07
-1.38648e-08
7.6239e-07
-7.72761e-07
-4.32048e-08
5.47382e-07
-8.18056e-07
-6.28568e-08
3.14893e-07
-8.26447e-07
-6.90812e-08
7.46118e-08
-8.04438e-07
-6.09213e-08
-1.65843e-07
-7.30785e-07
-3.63948e-08
-4.1118e-07
-6.43831e-07
2.24564e-10
-6.33762e-07
-5.11404e-07
2.72335e-08
-3.2095e-07
-8.4811e-07
9.53184e-08
1.09935e-06
-1.99464e-07
-9.67759e-07
1.69789e-07
1.1574e-06
-3.63249e-07
1.29828e-07
1.1609e-06
-5.10496e-07
8.53181e-08
1.10586e-06
-6.36813e-07
4.66094e-08
1.00771e-06
-7.36038e-07
1.02834e-08
8.73783e-07
-8.14943e-07
-1.91885e-08
7.1483e-07
-8.65848e-07
-4.34723e-08
5.34429e-07
-8.95918e-07
-5.86081e-08
3.36339e-07
-8.90932e-07
-6.49805e-08
1.32943e-07
-8.66099e-07
-5.96546e-08
-6.26568e-08
-7.99922e-07
-4.09128e-08
-2.59152e-07
-7.11525e-07
-8.47836e-09
-4.29426e-07
-6.00693e-07
1.35751e-08
-4.10094e-07
-5.96088e-07
5.98004e-08
9.41563e-07
-5.74736e-07
-8.00682e-07
1.18226e-07
1.01492e-06
-6.68135e-07
8.95407e-08
1.03486e-06
-7.60799e-07
5.88456e-08
1.00231e-06
-8.40066e-07
3.02348e-08
9.3089e-07
-9.05203e-07
3.34019e-09
8.24171e-07
-9.56183e-07
-2.03221e-08
6.89021e-07
-9.85358e-07
-4.16693e-08
5.33585e-07
-1.00115e-06
-5.47035e-08
3.66605e-07
-9.88992e-07
-5.9726e-08
1.93485e-07
-9.60879e-07
-5.58675e-08
2.98361e-08
-9.05693e-07
-4.19748e-08
-1.30365e-07
-8.21314e-07
-1.51131e-08
-2.70234e-07
-7.28088e-07
2.68349e-09
-5.60057e-07
-3.86681e-07
2.83021e-08
8.57234e-07
-9.61635e-07
-7.09874e-07
9.79175e-08
9.4324e-07
-9.87568e-07
7.61744e-08
9.73849e-07
-1.02267e-06
5.20956e-08
9.5317e-07
-1.05626e-06
2.77163e-08
8.9235e-07
-1.08554e-06
6.0125e-09
7.98685e-07
-1.11161e-06
-1.45464e-08
6.78492e-07
-1.12113e-06
-3.32175e-08
5.40882e-07
-1.12601e-06
-4.47395e-08
3.97364e-07
-1.1127e-06
-5.00532e-08
2.48641e-07
-1.08225e-06
-4.77648e-08
1.10545e-07
-1.04046e-06
-3.80981e-08
-1.81492e-08
-9.67211e-07
-1.86483e-08
-1.30515e-07
-8.90683e-07
-1.8197e-09
-7.6345e-07
-2.0258e-07
8.12952e-09
8.38417e-07
-1.33516e-06
-7.04228e-07
9.49999e-08
9.18809e-07
-1.2999e-06
7.24652e-08
9.4378e-07
-1.27842e-06
5.15666e-08
9.25937e-07
-1.27359e-06
2.98223e-08
8.69741e-07
-1.26879e-06
1.25953e-08
7.83991e-07
-1.27315e-06
-5.22619e-09
6.74635e-07
-1.26625e-06
-2.17047e-08
5.49193e-07
-1.26224e-06
-3.17422e-08
4.22025e-07
-1.25154e-06
-3.66225e-08
2.94123e-07
-1.2244e-06
-3.48647e-08
1.76069e-07
-1.19783e-06
-2.66509e-08
7.26684e-08
-1.1426e-06
-1.39488e-08
-1.48238e-08
-1.08456e-06
1.76058e-09
-1.00265e-06
-5.93373e-08
2.59585e-09
8.94183e-07
-1.68432e-06
-7.7849e-07
1.2243e-07
9.61535e-07
-1.59447e-06
9.53199e-08
9.77721e-07
-1.52135e-06
7.43818e-08
9.48099e-07
-1.47652e-06
5.013e-08
8.83167e-07
-1.44168e-06
3.23004e-08
7.91819e-07
-1.42628e-06
1.51649e-08
6.82426e-07
-1.4078e-06
-1.39865e-09
5.61583e-07
-1.3985e-06
-1.09686e-08
4.40705e-07
-1.39313e-06
-1.59013e-08
3.23593e-07
-1.37451e-06
-1.56916e-08
2.14991e-07
-1.36158e-06
-7.70816e-09
1.25454e-07
-1.32916e-06
1.34656e-10
5.64436e-08
-1.29385e-06
1.38707e-08
-1.25571e-06
3.038e-08
1.42551e-08
9.78302e-07
-1.99269e-06
-8.93511e-07
1.59928e-07
1.01632e-06
-1.8535e-06
1.28731e-07
1.01498e-06
-1.74173e-06
1.05614e-07
9.73025e-07
-1.6599e-06
7.86759e-08
8.98341e-07
-1.59926e-06
5.73326e-08
7.98954e-07
-1.56556e-06
4.01482e-08
6.84231e-07
-1.53773e-06
2.29729e-08
5.62299e-07
-1.52617e-06
1.37247e-08
4.41484e-07
-1.52732e-06
8.06143e-09
3.29805e-07
-1.52272e-06
8.40673e-09
2.31528e-07
-1.52666e-06
1.89956e-08
1.57669e-07
-1.52387e-06
2.68706e-08
1.19695e-07
-1.52866e-06
3.90937e-08
-1.52846e-06
1.20185e-07
4.77307e-08
1.15037e-06
-2.26007e-06
-1.09405e-06
2.26509e-07
1.14868e-06
-2.06478e-06
1.84201e-07
1.10702e-06
-1.91527e-06
1.53102e-07
1.03615e-06
-1.80878e-06
1.21268e-07
9.36811e-07
-1.72719e-06
9.41573e-08
8.18524e-07
-1.68028e-06
7.48713e-08
6.90266e-07
-1.64708e-06
5.55237e-08
5.59728e-07
-1.63754e-06
4.586e-08
4.33916e-07
-1.64801e-06
4.12022e-08
3.23653e-07
-1.66318e-06
4.28025e-08
2.31237e-07
-1.6878e-06
5.35101e-08
1.68893e-07
-1.71803e-06
6.09352e-08
1.48303e-07
-1.76959e-06
7.18403e-08
-1.81975e-06
1.77637e-07
8.66991e-08
1.35402e-06
-2.47236e-06
-1.34275e-06
2.95356e-07
1.30869e-06
-2.22427e-06
2.46601e-07
1.22484e-06
-2.03898e-06
2.10737e-07
1.12134e-06
-1.9166e-06
1.73431e-07
9.92649e-07
-1.81652e-06
1.35071e-07
8.45716e-07
-1.7579e-06
1.096e-07
6.93559e-07
-1.72407e-06
8.624e-08
5.43344e-07
-1.72138e-06
7.55284e-08
4.01745e-07
-1.74423e-06
7.17449e-08
2.80294e-07
-1.78265e-06
7.65496e-08
1.82998e-07
-1.83329e-06
9.06037e-08
1.23812e-07
-1.90266e-06
1.02891e-07
1.13116e-07
-2.00211e-06
1.21597e-07
-2.11348e-06
1.62804e-07
1.42587e-07
1.61455e-06
-2.62245e-06
-1.65276e-06
3.68067e-07
1.52165e-06
-2.32734e-06
3.02214e-07
1.38859e-06
-2.10614e-06
2.63809e-07
1.23963e-06
-1.97055e-06
2.27445e-07
1.06629e-06
-1.85289e-06
1.81609e-07
8.76807e-07
-1.78474e-06
1.5167e-07
6.90841e-07
-1.75868e-06
1.2424e-07
5.17422e-07
-1.77299e-06
1.12946e-07
3.58694e-07
-1.81395e-06
1.11718e-07
2.25012e-07
-1.87905e-06
1.21011e-07
1.24357e-07
-1.96285e-06
1.37668e-07
6.87926e-08
-2.08074e-06
1.5335e-07
5.85867e-08
-2.2238e-06
1.69563e-07
-2.39354e-06
1.04969e-07
1.93331e-07
1.83982e-06
-2.70233e-06
-1.9401e-06
4.19084e-07
1.71967e-06
-2.39195e-06
3.63525e-07
1.56291e-06
-2.14351e-06
3.23103e-07
1.37298e-06
-1.97858e-06
2.84571e-07
1.15361e-06
-1.83978e-06
2.28758e-07
9.16159e-07
-1.75985e-06
1.94156e-07
6.9002e-07
-1.74787e-06
1.62349e-07
4.83344e-07
-1.78438e-06
1.47075e-07
2.94595e-07
-1.84653e-06
1.42106e-07
1.34795e-07
-1.94096e-06
1.4995e-07
1.00166e-08
-2.05683e-06
1.67688e-07
-6.04487e-08
-2.22928e-06
1.90073e-07
-7.24702e-08
-2.42192e-06
2.16816e-07
-2.63e-06
-4.84055e-08
2.44785e-07
2.08193e-06
-2.74869e-06
-2.21178e-06
4.60585e-07
1.95447e-06
-2.44214e-06
4.30502e-07
1.76539e-06
-2.14719e-06
3.73658e-07
1.5092e-06
-1.91876e-06
3.33615e-07
1.2292e-06
-1.76748e-06
2.74518e-07
9.39035e-07
-1.68563e-06
2.3502e-07
6.6371e-07
-1.69204e-06
2.02058e-07
4.11418e-07
-1.75095e-06
1.86397e-07
1.86341e-07
-1.84078e-06
1.79674e-07
1.07538e-08
-1.98088e-06
1.93329e-07
-1.08231e-07
-2.14657e-06
2.2343e-07
-1.72924e-07
-2.3692e-06
2.58403e-07
-1.91279e-07
-2.60346e-06
2.82104e-07
-2.1071e-07
-2.80803e-06
2.84533e-07
-2.24111e-06
6.76163e-08
-5.39954e-07
-3.34481e-06
1.50227e-07
-4.61754e-07
-4.68108e-06
3.53018e-07
-3.07784e-07
-6.21494e-06
5.28097e-07
-4.95464e-08
-7.90999e-06
8.12784e-07
2.78482e-07
1.05174e-06
6.7689e-07
-1.59423e-06
1.18249e-06
-5.51302e-07
2.31728e-07
-2.46461e-06
1.24358e-06
-5.00527e-07
3.31472e-07
-3.52906e-06
1.345e-06
-4.02396e-07
5.38066e-07
-4.76095e-06
1.31512e-06
-2.26598e-07
7.40949e-07
-6.15932e-06
1.26657e-06
-7.8118e-09
1.02707e-06
1.19378e-06
2.46734e-07
-7.7639e-06
1.29167e-06
-1.21761e-06
1.69426e-06
2.50872e-07
-2.02038e-06
1.88293e-06
3.63987e-07
-3.02569e-06
2.18502e-06
5.6864e-07
-4.30024e-06
2.39028e-06
7.53002e-07
-5.80476e-06
2.56119e-06
1.01971e-06
2.60149e-06
-7.45626e-06
1.26772e-06
-7.61309e-07
2.03241e-06
2.11423e-07
-1.42757e-06
2.33181e-06
2.96555e-07
-2.26843e-06
2.78792e-06
4.62094e-07
-3.34613e-06
3.18344e-06
6.16739e-07
-4.59692e-06
3.48694e-06
8.41233e-07
3.55354e-06
-5.90483e-06
1.01862e-06
-2.57774e-07
2.16203e-06
1.56141e-07
-7.42451e-07
2.54754e-06
2.1334e-07
-1.33254e-06
3.06779e-06
3.25701e-07
-2.05183e-06
3.52165e-06
4.31232e-07
-2.81949e-06
3.79765e-06
5.5686e-07
3.80042e-06
-3.58609e-06
6.5534e-07
2.14261e-07
2.06058e-06
8.5231e-08
-3.44052e-08
2.48221e-06
1.1042e-07
-3.13211e-07
2.96768e-06
1.65313e-07
-6.05413e-07
3.35092e-06
2.06921e-07
-8.71578e-07
3.50064e-06
2.31412e-07
3.41515e-06
-1.19871e-06
2.39456e-07
6.23032e-07
1.73448e-06
5.88102e-09
6.52004e-07
2.10057e-06
-6.40349e-09
7.12809e-07
2.48135e-06
-1.01299e-08
7.96572e-07
2.74352e-06
-3.22194e-08
8.61684e-07
2.7893e-06
-9.37945e-08
2.54251e-06
9.42939e-07
-2.13297e-07
8.96424e-07
1.25542e-06
-5.65083e-08
1.12768e-06
1.49421e-06
-8.55944e-08
1.44408e-06
1.70661e-06
-1.18775e-07
1.8055e-06
1.81427e-06
-1.8295e-07
2.16568e-06
1.72834e-06
-2.88513e-07
1.36235e-06
2.48634e-06
-4.91594e-07
1.11047e-06
6.63845e-07
-1.02162e-07
1.46755e-06
7.5547e-07
-1.37077e-07
1.90937e-06
8.07231e-07
-1.80747e-07
2.40497e-06
7.63254e-07
-2.52739e-07
2.92715e-06
5.37067e-07
-3.48291e-07
7.74733e-08
3.39715e-06
-5.58944e-07
1.17939e-06
5.25856e-08
-1.04079e-07
1.56448e-06
-4.41272e-09
-1.31737e-07
2.03247e-06
-1.00423e-07
-1.66813e-07
2.54893e-06
-2.76042e-07
-2.25997e-07
3.07783e-06
-6.0257e-07
-2.8271e-07
-1.12952e-06
3.56053e-06
-4.39197e-07
1.14403e-06
-4.88577e-07
-7.98096e-08
1.45372e-06
-6.62947e-07
-9.30115e-08
1.82065e-06
-8.65288e-07
-1.01358e-07
2.21953e-06
-1.14012e-06
-1.25232e-07
2.62018e-06
-1.53204e-06
-1.23097e-07
-2.09787e-06
2.9877e-06
-2.02936e-07
9.87582e-07
-8.97102e-07
-2.01065e-08
1.14231e-06
-1.12328e-06
-1.73015e-08
1.3114e-06
-1.37189e-06
1.60997e-08
1.48623e-06
-1.69811e-06
3.76035e-08
1.63861e-06
-2.1112e-06
1.05095e-07
-2.67574e-06
1.74852e-06
1.08323e-07
7.4276e-07
-1.11598e-06
3.12601e-08
6.73853e-07
-1.3151e-06
5.48728e-08
5.68451e-07
-1.54488e-06
1.17375e-07
4.3623e-07
-1.87139e-06
1.77559e-07
2.59819e-07
-2.26492e-06
3.02626e-07
-2.78488e-06
1.95237e-08
3.96326e-07
3.77117e-07
-1.1024e-06
8.36288e-08
6.59396e-08
-1.21074e-06
1.23774e-07
-2.9831e-07
-1.39867e-06
2.08169e-07
-7.26023e-07
-1.6768e-06
3.04994e-07
-1.25903e-06
-1.97842e-06
4.51395e-07
-2.38121e-06
-1.91857e-06
6.0236e-07
-1.76749e-08
-8.64953e-07
9.52392e-08
-4.92986e-07
-9.00183e-07
1.40432e-07
-1.0629e-06
-1.0025e-06
2.34339e-07
-1.75944e-06
-1.16426e-06
3.46052e-07
-2.60495e-06
-1.32049e-06
5.10852e-07
-1.55279e-06
-3.62323e-06
6.88587e-07
-1.67629e-06
-6.80692e-07
9.79824e-08
-2.05104e-06
-6.80213e-07
1.58182e-07
-2.55578e-06
-6.52879e-07
2.94116e-07
-3.17209e-06
-7.16386e-07
4.3454e-07
-3.8981e-06
-7.68007e-07
6.2528e-07
-8.80842e-07
-4.76537e-06
8.25528e-07
-1.48742e-06
-4.9691e-07
1.13342e-07
-1.94472e-06
-4.17109e-07
1.80245e-07
-2.55332e-06
-2.47529e-07
3.24403e-07
-3.35347e-06
-1.36258e-07
4.66155e-07
-4.34943e-06
-3.33303e-09
6.69996e-07
4.96837e-08
-5.53126e-06
9.06334e-07
-1.19803e-06
-3.7522e-07
1.07172e-07
-1.66978e-06
-1.87575e-07
1.78668e-07
-2.30282e-06
1.24837e-07
3.0867e-07
-3.1341e-06
4.13655e-07
4.71114e-07
-4.16446e-06
7.18415e-07
6.63726e-07
9.13063e-07
-5.35266e-06
8.91976e-07
-8.98231e-07
-3.40608e-07
8.89937e-08
-1.30395e-06
-6.94209e-08
1.51023e-07
-1.83679e-06
3.44759e-07
2.60588e-07
-2.5268e-06
7.6001e-07
3.9324e-07
-3.34608e-06
1.15563e-06
5.54259e-07
1.40411e-06
-4.28071e-06
7.44719e-07
-5.88072e-07
-4.40854e-07
7.09267e-08
-8.70467e-07
-1.17363e-07
1.17165e-07
-1.22939e-06
3.39266e-07
1.91379e-07
-1.67697e-06
8.0744e-07
2.80757e-07
-2.15877e-06
1.18769e-06
3.88883e-07
1.36061e-06
-2.62616e-06
4.88027e-07
-2.89247e-07
-6.86426e-07
4.89702e-08
-4.22247e-07
-3.53372e-07
8.17119e-08
-5.72325e-07
8.13366e-08
1.15962e-07
-7.2667e-07
5.07446e-07
1.60855e-07
-8.4208e-07
7.95967e-07
2.01338e-07
8.89102e-07
-9.33996e-07
2.11114e-07
-6.21795e-08
-1.0396e-06
4.03748e-08
-5.27743e-08
-7.61296e-07
5.916e-08
-9.74579e-09
-4.11319e-07
7.68321e-08
8.52501e-08
-9.29584e-08
8.53036e-08
2.33173e-07
8.57552e-08
6.47408e-08
8.91448e-08
4.00156e-07
-5.75277e-09
5.60031e-08
-1.41622e-06
4.96181e-08
1.62331e-07
-1.26016e-06
7.18758e-08
3.58704e-07
-1.05071e-06
8.02891e-08
6.32708e-07
-8.68485e-07
6.43189e-08
9.7154e-07
-8.09356e-07
1.55218e-08
-9.01591e-07
1.33493e-06
-8.61663e-08
1.40806e-07
-1.77348e-06
7.34038e-08
2.45171e-07
-1.73821e-06
1.01432e-07
4.55187e-07
-1.67651e-06
1.18349e-07
7.70578e-07
-1.64983e-06
1.16228e-07
1.19004e-06
-1.74106e-06
8.75801e-08
-1.96791e-06
1.68446e-06
-1.06724e-09
1.39701e-07
-2.04127e-06
1.0886e-07
1.76535e-07
-2.11136e-06
1.49096e-07
3.012e-07
-2.17021e-06
1.90057e-07
5.2336e-07
-2.28042e-06
2.18297e-07
8.36045e-07
-2.49638e-06
2.31111e-07
-2.85122e-06
1.2328e-06
1.82263e-07
3.20204e-08
-2.16885e-06
1.61455e-07
-6.26248e-08
-2.30011e-06
2.10676e-07
-9.70287e-08
-2.4361e-06
2.88931e-07
-5.91511e-08
-2.64201e-06
3.58596e-07
3.51759e-08
-2.93585e-06
4.31291e-07
-3.36557e-06
1.80942e-07
4.54457e-07
-1.77824e-07
-2.10353e-06
1.96875e-07
-4.81021e-07
-2.2323e-06
2.54755e-07
-7.69082e-07
-2.39134e-06
3.49125e-07
-1.02265e-06
-2.64031e-06
4.57637e-07
-1.251e-06
-2.9624e-06
5.87226e-07
-3.39991e-06
-1.47588e-06
6.94798e-07
-5.13179e-07
-1.8029e-06
2.26975e-07
-1.03417e-06
-1.88967e-06
2.90475e-07
-1.56951e-06
-2.03666e-06
4.03609e-07
-2.13007e-06
-2.26454e-06
5.28919e-07
-2.73712e-06
-2.53773e-06
6.90228e-07
-2.89831e-06
-3.41853e-06
8.48662e-07
-8.40121e-07
-1.29367e-06
2.13325e-07
-1.52579e-06
-1.33658e-06
2.75853e-07
-2.27623e-06
-1.41867e-06
3.90221e-07
-3.12396e-06
-1.55264e-06
5.27848e-07
-4.08467e-06
-1.71078e-06
7.01401e-07
-1.93183e-06
-5.1773e-06
8.86673e-07
-3.19294e-06
-1.02419e-06
2.1686e-07
-3.63825e-06
-1.01346e-06
2.94631e-07
-4.18343e-06
-9.86651e-07
4.44794e-07
-4.82271e-06
-1.03511e-06
6.04598e-07
-5.5501e-06
-1.10743e-06
8.04444e-07
-1.22993e-06
-6.38896e-06
1.00698e-06
-3.03054e-06
-7.55314e-07
2.63367e-07
-3.55137e-06
-6.60006e-07
3.53735e-07
-4.19526e-06
-5.06411e-07
5.15442e-07
-5.01724e-06
-3.90073e-07
6.7154e-07
-6.00401e-06
-3.01375e-07
8.78993e-07
-2.99931e-07
-7.12666e-06
1.11696e-06
-2.78392e-06
-5.39631e-07
2.7363e-07
-3.30619e-06
-3.47722e-07
3.56766e-07
-3.96112e-06
-6.94457e-08
5.01955e-07
-4.7837e-06
1.93688e-07
6.662e-07
-5.76593e-06
4.24967e-07
8.78851e-07
5.4534e-07
-6.88837e-06
1.11502e-06
-2.50706e-06
-4.06695e-07
2.84544e-07
-2.9578e-06
-1.42444e-07
3.61137e-07
-3.50731e-06
2.11634e-07
4.9346e-07
-4.17368e-06
5.58308e-07
6.36134e-07
-4.93484e-06
8.37792e-07
8.1738e-07
9.74241e-07
-5.75728e-06
1.00432e-06
-2.24267e-06
-3.97159e-07
2.81881e-07
-2.56666e-06
-1.00369e-07
3.48463e-07
-2.9437e-06
2.68595e-07
4.52611e-07
-3.3742e-06
6.1178e-07
5.73898e-07
-3.82571e-06
8.29754e-07
7.10427e-07
8.71699e-07
-4.21549e-06
8.0774e-07
-1.99698e-06
-5.14309e-07
2.80599e-07
-2.16326e-06
-2.46988e-07
3.38767e-07
-2.32531e-06
6.44117e-08
4.29266e-07
-2.48552e-06
3.26038e-07
5.20509e-07
-2.65417e-06
4.45565e-07
5.92139e-07
4.18423e-07
-2.81838e-06
6.19899e-07
-1.8457e-06
-7.03826e-07
2.94776e-07
-1.89057e-06
-5.35277e-07
3.66963e-07
-1.88525e-06
-3.44374e-07
4.44459e-07
-1.82847e-06
-2.1995e-07
5.0543e-07
-1.74158e-06
-2.16255e-07
5.21447e-07
-3.58695e-07
-1.63998e-06
4.82091e-07
-1.76707e-06
-9.12672e-07
3.0917e-07
-1.76155e-06
-8.69211e-07
3.97162e-07
-1.67784e-06
-8.19815e-07
4.67866e-07
-1.49952e-06
-8.62779e-07
5.36036e-07
-1.24738e-06
-1.01449e-06
5.66669e-07
-1.32677e-06
-9.32937e-07
5.21621e-07
-1.7752e-06
-1.09479e-06
3.42156e-07
-1.7912e-06
-1.16229e-06
4.48856e-07
-1.71773e-06
-1.2569e-06
5.36083e-07
-1.53001e-06
-1.47282e-06
6.3007e-07
-1.24086e-06
-1.79187e-06
6.87714e-07
-2.28916e-06
-8.48039e-07
6.92067e-07
-1.9371e-06
-1.17126e-06
3.76946e-07
-2.05378e-06
-1.31529e-06
5.08977e-07
-2.08244e-06
-1.53608e-06
6.34433e-07
-2.02015e-06
-1.88553e-06
7.81856e-07
-1.86392e-06
-2.3443e-06
8.93159e-07
-2.9783e-06
-1.62523e-06
9.83414e-07
-2.20739e-06
-1.08543e-06
4.25095e-07
-2.48658e-06
-1.25529e-06
5.68711e-07
-2.7127e-06
-1.54857e-06
7.26604e-07
-2.89426e-06
-1.96626e-06
9.13759e-07
-3.01479e-06
-2.50702e-06
1.09496e-06
-3.19077e-06
-3.11185e-06
1.28703e-06
-2.62339e-06
-7.79797e-07
4.38016e-07
-3.12375e-06
-9.36093e-07
5.80656e-07
-3.6147e-06
-1.2461e-06
7.733e-07
-4.11507e-06
-1.66434e-06
1.00199e-06
-4.63357e-06
-2.19313e-06
1.24806e-06
-2.81276e-06
-5.21567e-06
1.5208e-06
-3.06755e-06
-2.88597e-07
4.22011e-07
-3.73031e-06
-4.16812e-07
5.59148e-07
-4.45379e-06
-6.67441e-07
7.61716e-07
-5.27526e-06
-9.951e-07
9.90923e-07
-6.21597e-06
-1.40004e-06
1.25828e-06
-1.85559e-06
-7.30573e-06
1.57721e-06
-3.42602e-06
2.86533e-07
3.53149e-07
-4.18855e-06
2.31847e-07
4.65182e-07
-5.09438e-06
1.27042e-07
6.59454e-07
-6.15859e-06
-5.26334e-08
8.72636e-07
-7.39624e-06
-2.72536e-07
1.15039e-06
-5.27628e-07
-8.83001e-06
1.47548e-06
-1.13002e-06
-2.39643e-07
-7.91312e-08
-1.20039e-06
-6.08317e-07
-8.35413e-09
-1.30914e-06
-1.14167e-06
1.06566e-07
-1.46996e-06
-1.88883e-06
2.06125e-07
-1.70321e-06
-2.82238e-06
3.57698e-07
-3.92859e-06
4.7683e-07
-1.73387e-06
-2.15256e-07
1.02368e-08
-2.1249e-06
-4.91613e-07
1.12288e-07
-2.59083e-06
-9.83523e-07
2.69029e-07
-3.16695e-06
-1.65688e-06
4.38291e-07
-3.88908e-06
-2.46993e-06
6.64853e-07
-3.39386e-06
9.03364e-07
-2.39035e-06
9.65233e-08
7.64564e-08
-3.00829e-06
-9.32922e-08
1.77692e-07
-3.76617e-06
-4.69751e-07
3.48776e-07
-4.73511e-06
-9.63366e-07
5.40508e-07
-5.92535e-06
-1.55657e-06
7.84288e-07
-2.22082e-06
1.09032e-06
-2.94866e-06
8.65439e-08
-3.68633e-06
1.59342e-07
-4.65593e-06
3.24427e-07
-5.88673e-06
4.9996e-07
-7.36842e-06
7.53e-07
1.07141e-06
-3.06692e-06
1.04142e-06
3.36155e-07
-4.04131e-06
1.1032e-06
4.62813e-07
-5.18603e-06
1.176e-06
6.80747e-07
-6.47172e-06
1.12044e-06
8.90121e-07
-7.89275e-06
1.04314e-06
1.19249e-06
9.13387e-07
-9.46193e-06
1.46355e-06
-2.71192e-06
1.67574e-06
3.90888e-07
-3.60835e-06
1.86176e-06
5.24839e-07
-4.6858e-06
2.11764e-06
7.39872e-07
-6.00343e-06
2.27723e-06
9.28381e-07
-7.48883e-06
2.36331e-06
1.20822e-06
2.25605e-06
-9.02939e-06
1.46371e-06
-2.2892e-06
2.13149e-06
3.78169e-07
-3.04005e-06
2.41892e-06
4.84109e-07
-3.93555e-06
2.79792e-06
6.57631e-07
-5.02014e-06
3.09772e-06
8.16448e-07
-6.2131e-06
3.26214e-06
1.03692e-06
3.141e-06
-7.42214e-06
1.21921e-06
-1.79417e-06
2.35427e-06
3.3248e-07
-2.34532e-06
2.71205e-06
4.12106e-07
-2.97113e-06
3.11757e-06
5.37215e-07
-3.67162e-06
3.41578e-06
6.55215e-07
-4.36681e-06
3.51913e-06
7.75594e-07
3.36822e-06
-5.11672e-06
8.76343e-07
-1.33216e-06
2.32642e-06
2.79757e-07
-1.61203e-06
2.6802e-06
3.23397e-07
-1.90167e-06
3.0245e-06
3.9137e-07
-2.18962e-06
3.23328e-06
4.49577e-07
-2.50677e-06
3.24265e-06
4.73685e-07
2.92425e-06
-2.76081e-06
4.6054e-07
-9.5293e-07
2.09102e-06
2.14963e-07
-9.75219e-07
2.34724e-06
2.39027e-07
-9.4125e-07
2.54675e-06
2.6441e-07
-8.86893e-07
2.61998e-06
2.56766e-07
-8.18561e-07
2.48063e-06
1.94385e-07
1.97861e-06
-7.10343e-07
7.94516e-08
-6.87923e-07
1.68737e-06
1.69503e-07
-5.19497e-07
1.79672e-06
1.80685e-07
-2.78127e-07
1.83028e-06
1.85318e-07
1.90073e-08
1.73182e-06
1.55432e-07
3.44493e-07
1.42158e-06
8.23157e-08
7.73946e-07
6.71672e-07
-1.00556e-07
-5.30578e-07
1.19499e-06
1.40538e-07
-2.56424e-07
1.13642e-06
1.58245e-07
1.00765e-07
1.00253e-06
1.69391e-07
5.33384e-07
7.22043e-07
1.44616e-07
9.94998e-07
2.61651e-07
9.14172e-08
-4.84946e-07
1.43398e-06
-8.51203e-08
-5.17189e-07
6.95564e-07
1.45307e-07
-2.41629e-07
4.9215e-07
1.81702e-07
9.69282e-08
2.24413e-07
2.18859e-07
4.92575e-07
-2.00243e-07
2.32555e-07
9.14826e-07
-7.80963e-07
2.41569e-07
-1.60807e-06
1.32561e-06
1.4537e-07
-6.75087e-07
2.86532e-07
1.68364e-07
-5.15892e-07
3.98582e-10
2.42865e-07
-3.17599e-07
-3.56446e-07
3.28303e-07
-8.89833e-08
-8.7489e-07
4.01245e-07
1.65728e-07
-1.54125e-06
4.96524e-07
-2.41492e-06
4.12165e-07
5.17196e-07
-9.48837e-07
2.51809e-08
2.26133e-07
-9.71326e-07
-2.53516e-07
3.28424e-07
-1.00019e-06
-6.33451e-07
4.66639e-07
-1.04559e-06
-1.17328e-06
5.91202e-07
-1.11832e-06
-1.84351e-06
7.6188e-07
-2.68413e-06
-1.24301e-06
8.85626e-07
-1.39708e-06
9.50154e-09
2.66511e-07
-1.6738e-06
-1.9854e-07
3.91672e-07
-1.99004e-06
-5.53621e-07
5.64667e-07
-2.36852e-06
-1.04758e-06
7.46459e-07
-2.83393e-06
-1.64616e-06
9.82906e-07
-2.36458e-06
-3.41937e-06
1.21057e-06
-1.91361e-06
2.24412e-07
2.84556e-07
-2.3702e-06
8.52601e-08
4.06171e-07
-2.92239e-06
-1.85486e-07
5.91053e-07
-3.62601e-06
-5.41102e-07
7.95564e-07
-4.49974e-06
-9.74287e-07
1.04438e-06
-1.48637e-06
-5.5601e-06
1.32876e-06
-2.36219e-06
2.53498e-07
-2.91804e-06
3.51666e-07
-3.64767e-06
5.24933e-07
-4.57021e-06
7.18398e-07
-5.69968e-06
9.65799e-07
-7.07363e-06
1.27011e-06
-1.16096e-05
6.44562e-07
2.75026e-06
5.76442e-06
-1.49934e-05
-4.60003e-06
7.53298e-06
9.28979e-06
-1.71419e-05
-1.2797e-05
1.45497e-05
1.40005e-05
-1.67889e-05
-2.43471e-05
2.34121e-05
2.02844e-05
-3.96344e-05
3.39206e-05
2.76964e-05
-1.08354e-05
3.39923e-06
5.0067e-06
-1.40488e-05
-1.9778e-06
7.75933e-06
-1.58145e-05
-1.14069e-05
1.17461e-05
-1.44168e-05
-2.58085e-05
1.67371e-05
-4.41123e-05
2.34363e-05
-8.34432e-06
4.91934e-06
3.70919e-06
-1.05096e-05
-9.09605e-07
5.3707e-06
-1.12804e-05
-1.1709e-05
7.40439e-06
-9.4744e-06
-2.81214e-05
1.0049e-05
-4.78824e-05
1.50463e-05
-5.02277e-06
4.99129e-06
2.0689e-06
-6.23608e-06
-1.48277e-06
2.38585e-06
-6.53386e-06
-1.33669e-05
2.59421e-06
-4.76304e-06
-3.08665e-05
2.99173e-06
-5.20237e-05
6.93677e-06
-1.74225e-06
3.83587e-06
3.54931e-07
-2.53279e-06
-3.10772e-06
-4.97257e-07
-3.11384e-06
-1.51571e-05
-1.83623e-06
-2.5209e-06
-3.26681e-05
-2.1594e-06
-5.43283e-05
1.31197e-06
9.95609e-07
1.89837e-06
-1.02524e-06
2.72607e-07
-4.9565e-06
-2.71878e-06
-9.8122e-07
-1.6325e-05
-4.80463e-06
-1.98487e-06
-3.29214e-05
-4.7934e-06
-5.38236e-05
-1.08849e-06
2.87472e-06
-3.94556e-07
-1.85179e-06
2.1907e-06
-6.67882e-06
-3.83692e-06
3.34819e-07
-1.66529e-05
-6.02699e-06
-2.18264e-06
-3.13581e-05
-5.47529e-06
-5.08375e-05
-7.88567e-07
3.97421e-06
-2.72141e-06
-2.05489e-06
3.50313e-06
-8.22259e-06
-3.80509e-06
1.46381e-06
-1.64089e-05
-5.65653e-06
-1.85824e-06
-2.85876e-05
-4.62613e-06
-5.88429e-06
-4.66608e-05
2.74363e-07
-6.94597e-05
5.5065e-06
4.25755e-06
-4.94517e-06
-1.63267e-06
3.99811e-06
-9.59003e-06
-2.87902e-06
2.11262e-06
-1.59429e-05
-4.1492e-06
-1.7814e-06
-2.51102e-05
-2.70232e-06
-8.54269e-06
-3.99305e-05
2.77443e-06
-6.1741e-05
8.48269e-06
3.61157e-06
-6.84203e-06
-8.22934e-07
3.50346e-06
-1.0736e-05
-1.38001e-06
1.96836e-06
-1.54787e-05
-1.88991e-06
-1.91201e-06
-2.16324e-05
7.66972e-09
-1.03524e-05
-3.16451e-05
5.68015e-06
-4.95901e-05
1.18785e-05
2.048e-06
-8.17917e-06
2.77318e-07
1.89477e-06
-1.15506e-05
4.81331e-07
7.25367e-07
-1.51292e-05
9.0977e-07
-2.21978e-06
-1.91466e-05
2.72437e-06
-9.54833e-06
-2.45391e-05
8.2218e-06
-2.50779e-05
-3.56324e-05
1.50489e-05
-5.80235e-05
1.80855e-05
-3.01018e-07
-8.66602e-06
1.40047e-06
-7.40863e-07
-1.18252e-05
2.34934e-06
-1.52594e-06
-1.48952e-05
3.96575e-06
-3.15925e-06
-1.81027e-05
6.32956e-06
-6.57612e-06
-2.18148e-05
1.09074e-05
-1.75896e-05
-2.61628e-05
1.80128e-05
-4.68568e-05
-3.49902e-05
2.42018e-05
-1.47123e-05
3.32125e-05
-2.0068e-05
-1.3257e-05
-1.78282e-05
-3.21362e-06
-7.97652e-06
2.43079e-06
-4.56844e-06
-1.09611e-05
4.17549e-06
-5.48476e-06
-1.43147e-05
6.81331e-06
-5.93764e-06
-1.81964e-05
1.02204e-05
-6.60257e-06
-2.17624e-05
1.47723e-05
-8.08959e-06
-2.57101e-05
2.04245e-05
-7.09325e-06
-7.5725e-06
2.54059e-05
-2.38093e-06
-5.51274e-06
-1.66017e-06
-7.00468e-06
-7.14487e-06
-6.78855e-06
-1.69385e-05
-7.16899e-06
7.57856e-06
-5.92152e-06
-6.16465e-06
3.25769e-06
-8.24708e-06
-9.03326e-06
5.78605e-06
-9.60366e-06
-1.33087e-05
9.28942e-06
-9.15242e-06
-1.91536e-05
1.36467e-05
-6.08493e-06
-2.56454e-05
1.88154e-05
-1.76167e-07
-3.22511e-05
2.50341e-05
-2.97018e-07
5.21455e-08
-1.07659e-07
6.37785e-07
-8.60945e-06
7.14283e-06
5.15142e-06
-1.02967e-05
9.20577e-06
7.29787e-06
-2.45456e-06
-7.86357e-06
-3.5841e-06
3.75813e-06
-1.0916e-05
-6.4071e-06
6.5048e-06
-1.30991e-05
-1.16473e-05
1.03213e-05
-1.39332e-05
-1.8614e-05
1.5375e-05
-1.19741e-05
-2.80147e-05
2.19849e-05
-1.48392e-06
-3.89981e-05
3.04813e-05
-1.39907e-06
-1.91994e-06
-1.76335e-06
1.01725e-05
-3.06625e-07
9.18982e-06
-1.16004e-05
8.46709e-06
8.71996e-06
-9.07317e-06
-5.08708e-07
-8.7759e-06
-8.72583e-07
3.78006e-06
-1.20271e-05
-3.63583e-06
6.40815e-06
-1.45997e-05
-9.25842e-06
1.00487e-05
-1.52779e-05
-1.80587e-05
1.5246e-05
-1.33426e-05
-3.01451e-05
2.26402e-05
-2.85578e-06
-4.39628e-05
3.21632e-05
-2.23569e-06
-2.59781e-06
-1.76441e-06
1.29483e-05
-2.33459e-06
-1.41952e-05
1.06997e-05
1.05677e-05
-1.40045e-05
1.23448e-05
2.06249e-06
-8.033e-06
1.19806e-06
3.27193e-06
-1.08566e-05
-1.46218e-06
5.23915e-06
-1.29657e-05
-7.71485e-06
8.06038e-06
-1.32681e-05
-1.84223e-05
1.19977e-05
-1.07581e-05
-3.32302e-05
1.72252e-05
-2.55529e-06
-4.9325e-05
2.58849e-05
-9.51936e-07
-2.01103e-06
-4.95036e-07
1.51522e-05
-2.42116e-06
-1.57004e-05
9.51734e-06
1.75762e-05
-8.71278e-06
-1.54834e-05
1.72653e-05
3.56884e-06
-6.00087e-06
2.17168e-06
2.32597e-06
-7.90974e-06
-5.29422e-07
3.56659e-06
-9.25152e-06
-7.55555e-06
5.03768e-06
-9.20372e-06
-1.99625e-05
6.90886e-06
-6.61117e-06
-3.74351e-05
9.83862e-06
-6.20599e-07
-5.71017e-05
1.63605e-05
7.31332e-07
-5.11125e-07
6.22631e-07
1.65353e-05
6.4141e-07
-1.79062e-05
5.4397e-06
1.68964e-05
1.47407e-06
-1.81248e-05
7.78669e-06
-1.12675e-06
-3.50643e-06
1.99641e-06
1.333e-06
-4.5499e-06
-8.67614e-07
1.41157e-06
-5.66816e-06
-8.23022e-06
1.47441e-06
-6.42282e-06
-2.13863e-05
1.71448e-06
-5.36431e-06
-4.02691e-05
3.39939e-06
-2.28094e-07
-6.25845e-05
1.05361e-05
2.40845e-07
-6.4587e-07
9.10757e-08
1.95894e-05
1.43799e-06
-2.13101e-05
4.06039e-06
2.42769e-05
-2.21105e-05
5.72891e-06
-2.59438e-06
-1.11145e-06
9.11312e-07
3.1424e-07
-1.45913e-06
-2.2254e-06
-4.20549e-07
-2.52368e-06
-9.3951e-06
-1.48456e-06
-3.95849e-06
-2.22729e-05
-2.02503e-06
-4.81131e-06
-4.08165e-05
-4.07912e-07
-1.47593e-06
-6.26911e-05
7.126e-06
-1.09823e-06
-1.39171e-06
-7.26639e-07
2.21193e-05
-1.51744e-06
-2.22543e-05
4.04405e-06
2.07688e-05
-2.36628e-05
5.85606e-06
1.97627e-06
8.44326e-07
-8.67786e-07
-4.95679e-07
8.61449e-07
-4.05877e-06
-1.64077e-06
-2.55944e-07
-1.05814e-05
-3.38667e-06
-2.23357e-06
-2.244e-05
-4.26466e-06
-4.31729e-06
-3.99479e-05
-2.05721e-06
-2.36209e-06
-6.06997e-05
4.51709e-06
-1.09452e-06
-1.88885e-06
-9.54945e-07
2.15625e-05
-3.45612e-06
-2.05618e-05
3.20761e-06
2.71742e-05
-1.3503e-05
-2.19211e-05
8.82096e-06
6.35345e-06
2.1371e-06
-2.98363e-06
-7.61664e-07
2.46504e-06
-6.07277e-06
-2.10327e-06
1.56093e-06
-1.17979e-05
-3.97652e-06
-6.58385e-07
-2.21715e-05
-4.96377e-06
-3.22007e-06
-3.86211e-05
-2.73644e-06
-4.47858e-06
-5.9901e-05