/*--------------------------------*- C++ -*----------------------------------*\
| =========                 |                                                 |
| \\      /  F ield         | OpenFOAM: The Open Source CFD Toolbox           |
|  \\    /   O peration     | Version:  v2106                                 |
|   \\  /    A nd           | Website:  www.openfoam.com                      |
|    \\/     M anipulation  |                                                 |
\*---------------------------------------------------------------------------*/
FoamFile
{
    version     2.0;
    format      ascii;
    arch        "LSB;label=32;scalar=64";
    class       volScalarField;
    location    "0.000134";
    object      rho;
}
// * * * * * * * * * * * * * * * * * * * * * * * * * * * * * * * * * * * * * //

dimensions      [1 -3 0 0 0 0 0];

internalField   nonuniform List<scalar> 
18109
(
2.65762
2.65098
2.64863
2.64521
2.6439
2.64294
2.64337
2.6581
2.65255
2.65
2.64701
2.64552
2.64426
2.644
2.65722
2.65317
2.6505
2.64803
2.64636
2.64492
2.64415
2.65532
2.6524
2.64998
2.64794
2.64641
2.64503
2.64411
2.65282
2.65041
2.6486
2.64693
2.6458
2.64474
2.64402
2.64954
2.64826
2.64736
2.64612
2.64533
2.64444
2.64384
2.64593
2.64551
2.64538
2.6445
2.64425
2.64371
2.64334
2.64259
2.64323
2.64378
2.6434
2.6434
2.6431
2.64281
2.66804
2.6623
2.66001
2.65674
2.65524
2.65418
2.65409
2.65412
2.65513
2.65621
2.65803
2.65958
2.66112
2.66407
2.66758
2.66266
2.6602
2.65751
2.65594
2.65454
2.65397
2.65372
2.65424
2.65475
2.65583
2.65682
2.65794
2.65945
2.66627
2.66271
2.6601
2.65774
2.65609
2.65459
2.65366
2.65297
2.65273
2.653
2.65386
2.65471
2.65557
2.65723
2.66446
2.66174
2.65941
2.65735
2.65571
2.65428
2.65334
2.65267
2.65239
2.65238
2.65286
2.6535
2.65399
2.65508
2.66208
2.65989
2.65809
2.65641
2.65512
2.65392
2.65306
2.6524
2.65211
2.65197
2.65228
2.65292
2.65338
2.6544
2.65943
2.6581
2.65697
2.65564
2.65459
2.65352
2.65274
2.65217
2.65198
2.65189
2.65217
2.6528
2.65332
2.6542
2.65649
2.65584
2.65532
2.65434
2.65371
2.65289
2.65231
2.65192
2.65185
2.65196
2.65237
2.65314
2.65392
2.65504
2.65407
2.65412
2.65411
2.6535
2.65309
2.65245
2.65196
2.65171
2.65173
2.65211
2.65284
2.65387
2.65513
2.65655
2.65152
2.65228
2.65263
2.6524
2.65217
2.65179
2.65144
2.65135
2.65152
2.6521
2.65302
2.65434
2.65595
2.65803
2.65012
2.65136
2.6519
2.65174
2.65151
2.65126
2.65098
2.65098
2.65125
2.65194
2.65299
2.65457
2.65669
2.65941
2.64875
2.65019
2.65103
2.6511
2.65079
2.65062
2.65035
2.65037
2.6507
2.65154
2.65292
2.65481
2.65752
2.66069
2.64927
2.6504
2.65107
2.65111
2.65056
2.65027
2.64985
2.64977
2.65005
2.65095
2.65243
2.65448
2.65736
2.66106
2.64943
2.65063
2.65142
2.65152
2.65068
2.65006
2.64934
2.649
2.64903
2.64991
2.65147
2.65405
2.65726
2.66134
2.65246
2.65356
2.65329
2.65267
2.65146
2.65024
2.64909
2.64829
2.64785
2.64869
2.65008
2.65301
2.65597
2.6616
2.65498
2.66004
2.66092
2.66464
2.66872
2.67529
2.66644
2.67082
2.67149
2.67413
2.67605
2.67916
2.66032
2.66212
2.66138
2.66153
2.66139
2.66254
2.65724
2.65659
2.65369
2.65126
2.64862
2.64728
2.65469
2.65248
2.64855
2.6446
2.64035
2.63679
2.65367
2.65094
2.64665
2.64195
2.63644
2.63256
2.65303
2.65062
2.64694
2.64261
2.63765
2.63277
2.65389
2.65292
2.65064
2.64742
2.64397
2.64074
2.6546
2.65484
2.65456
2.65381
2.65285
2.65184
2.65652
2.65813
2.65974
2.66131
2.66303
2.66474
2.65836
2.66125
2.66464
2.66839
2.67256
2.67663
2.66082
2.66472
2.66925
2.67448
2.68023
2.68612
2.6628
2.66717
2.67196
2.6779
2.68437
2.69138
2.66426
2.66868
2.6735
2.67932
2.68504
2.69195
2.66563
2.67044
2.67417
2.67909
2.6831
2.68826
2.66516
2.67039
2.67227
2.6754
2.67769
2.68112
2.65969
2.66263
2.66426
2.66666
2.66859
2.67081
2.65711
2.65872
2.65935
2.6601
2.65995
2.65941
2.65508
2.65577
2.65572
2.65481
2.65262
2.64946
2.65454
2.65462
2.65379
2.65173
2.6484
2.64357
2.65475
2.65489
2.65406
2.65189
2.64841
2.64405
2.65637
2.6573
2.65765
2.65654
2.65357
2.64907
2.65856
2.6603
2.66146
2.66156
2.66024
2.65765
2.66052
2.66361
2.66631
2.66821
2.66892
2.66832
2.66258
2.66658
2.67047
2.67414
2.6772
2.6791
2.66444
2.66889
2.67361
2.67827
2.68306
2.68719
2.66486
2.66944
2.67426
2.67962
2.68513
2.6908
2.66425
2.66872
2.67308
2.67811
2.68294
2.68884
2.664
2.66768
2.67028
2.67376
2.67686
2.68118
2.66081
2.66449
2.66528
2.66711
2.66831
2.6703
2.65444
2.65598
2.65592
2.6565
2.65671
2.65719
2.6509
2.65076
2.64941
2.64794
2.64597
2.64432
2.64808
2.64673
2.64461
2.64183
2.63842
2.63452
2.64698
2.64509
2.64239
2.63889
2.63505
2.62968
2.64647
2.64471
2.64231
2.63923
2.63594
2.63209
2.64758
2.64695
2.64588
2.64439
2.64202
2.63972
2.64897
2.64963
2.64989
2.65044
2.6506
2.65068
2.65068
2.65259
2.65439
2.65715
2.65974
2.66221
2.65272
2.65589
2.65919
2.664
2.66889
2.67389
2.65419
2.65771
2.66167
2.66739
2.67353
2.6804
2.6549
2.65864
2.66264
2.66846
2.6745
2.68226
2.65444
2.65791
2.66121
2.66623
2.671
2.67815
2.65245
2.65516
2.65649
2.65925
2.66219
2.66718
2.65893
2.66461
2.67085
2.67884
2.68703
2.69595
2.66101
2.6672
2.67338
2.68185
2.68993
2.69994
2.66079
2.66665
2.6721
2.67983
2.68672
2.69629
2.65866
2.66359
2.66611
2.67103
2.67652
2.68469
2.64994
2.65251
2.65208
2.65308
2.65406
2.65691
2.64609
2.6457
2.64339
2.64272
2.64189
2.64276
2.64546
2.64299
2.63896
2.63566
2.632
2.63092
2.64551
2.64176
2.63667
2.63223
2.6266
2.62367
2.64729
2.64316
2.6379
2.6328
2.6274
2.62204
2.64983
2.64693
2.64256
2.63756
2.63221
2.62771
2.65313
2.65154
2.64907
2.64636
2.64359
2.64087
2.65673
2.65709
2.65691
2.65656
2.65632
2.65616
2.66068
2.66284
2.66511
2.66767
2.6705
2.67315
2.66467
2.66873
2.67311
2.67815
2.68335
2.68836
2.66772
2.6725
2.67776
2.68427
2.6909
2.69814
2.66983
2.67536
2.68091
2.68809
2.69498
2.70324
2.67029
2.67548
2.68043
2.68718
2.69316
2.70118
2.66985
2.67465
2.67682
2.68066
2.68412
2.68983
2.69097
2.71873
2.7616
2.82277
2.90122
2.67103
2.68785
2.71867
2.77763
2.87024
2.64938
2.65238
2.66219
2.70106
2.79187
2.63191
2.6231
2.62084
2.65083
2.72821
2.62357
2.61046
2.60427
2.6261
2.69319
2.62599
2.61617
2.61303
2.63451
2.69739
2.6371
2.63199
2.63307
2.65637
2.72581
2.65131
2.65159
2.65663
2.67691
2.73807
2.86973
2.66781
2.67329
2.68285
2.70209
2.75283
2.8726
2.68291
2.69248
2.70407
2.72435
2.76526
2.86446
2.69528
2.70883
2.72188
2.74407
2.7786
2.86004
3.04632
2.70268
2.71883
2.73437
2.75434
2.78518
2.83301
2.98389
3.26633
2.70348
2.72079
2.73906
2.76078
2.78741
2.8375
2.90163
3.20345
2.69813
2.71497
2.73551
2.76008
2.79154
2.82359
2.84816
2.85626
2.68851
2.70325
2.72718
2.76094
2.80828
2.86481
2.89386
2.88087
2.67642
2.68888
2.70907
2.75157
2.8088
2.88107
2.96717
3.02583
2.66007
2.6637
2.6714
2.70143
2.76051
2.8639
3.00011
3.0554
2.64593
2.64062
2.63616
2.65278
2.70585
2.81625
2.97603
3.14284
2.63701
2.62342
2.61341
2.62523
2.68049
2.79353
2.94067
3.06453
2.63517
2.6201
2.6094
2.61854
2.67274
2.78598
2.94753
3.10075
2.63977
2.62849
2.6208
2.63481
2.69596
2.82156
2.99074
3.13238
2.652
2.64427
2.63984
2.65481
2.7098
2.81516
2.97929
3.22973
2.66628
2.66453
2.66429
2.67951
2.72769
2.82708
2.68123
2.6847
2.68993
2.70769
2.7501
2.83746
2.69352
2.70261
2.71322
2.73374
2.76929
2.83259
2.70013
2.71411
2.72956
2.7501
2.78317
2.83146
2.69883
2.71533
2.73478
2.76002
2.7905
2.83855
2.6899
2.70637
2.72848
2.75684
2.79111
2.67647
2.6911
2.71631
2.75249
2.80192
2.66192
2.67391
2.69595
2.73996
2.79762
2.64457
2.64799
2.6594
2.6929
2.75491
2.63212
2.62812
2.62945
2.65148
2.71125
2.62571
2.61587
2.6125
2.63192
2.69029
2.6269
2.61897
2.61547
2.63062
2.68772
2.63744
2.63298
2.63058
2.64827
2.71135
2.65054
2.65016
2.6513
2.66671
2.72306
2.6654
2.67072
2.6766
2.68893
2.73522
2.68066
2.68994
2.69979
2.71589
2.75165
2.6911
2.70647
2.72149
2.74113
2.77239
2.69486
2.71479
2.73585
2.76248
2.79605
2.69048
2.71276
2.74173
2.77925
2.81895
2.67945
2.70602
2.74416
2.79793
2.85905
2.66877
2.69762
2.74279
2.80441
2.88299
2.64883
2.66575
2.69832
2.75727
2.84983
2.62932
2.63281
2.64361
2.68767
2.7805
2.61507
2.60884
2.60963
2.64629
2.7276
2.61273
2.60084
2.59783
2.62591
2.69722
2.62109
2.61186
2.61232
2.63994
2.70783
2.63739
2.63287
2.63684
2.66497
2.74031
2.65638
2.65725
2.66395
2.68672
2.75558
2.67678
2.68263
2.69251
2.71207
2.76886
2.69518
2.70479
2.71706
2.73591
2.77659
2.70858
2.72355
2.73769
2.75835
2.78857
2.71584
2.73432
2.75239
2.77447
2.80657
2.71372
2.7341
2.75931
2.79041
2.82458
2.70275
2.72765
2.76304
2.81223
2.87119
2.68156
2.67736
2.67524
2.6725
2.67088
2.66955
2.66901
2.6687
2.66904
2.66956
2.67077
2.67191
2.67341
2.67601
2.68004
2.67661
2.67428
2.67189
2.67032
2.66892
2.66811
2.66754
2.66757
2.66796
2.66873
2.6696
2.67099
2.67256
2.67864
2.67597
2.6737
2.67156
2.66988
2.66833
2.66727
2.66655
2.66619
2.66624
2.66691
2.66777
2.66902
2.67082
2.67696
2.67477
2.6727
2.67071
2.66897
2.66745
2.66639
2.66567
2.66537
2.66534
2.66583
2.66664
2.66769
2.66921
2.67489
2.67305
2.67129
2.66957
2.66803
2.66668
2.66569
2.66501
2.66474
2.66468
2.66512
2.666
2.66702
2.66865
2.67294
2.6716
2.67019
2.66868
2.66726
2.66601
2.66508
2.66451
2.66432
2.66438
2.66486
2.66578
2.66681
2.66838
2.67069
2.66982
2.66876
2.66753
2.66634
2.66529
2.66452
2.66411
2.66402
2.66427
2.66492
2.66596
2.66721
2.66892
2.66909
2.66858
2.66781
2.66679
2.66575
2.66487
2.66421
2.66393
2.66398
2.66446
2.66536
2.66664
2.66825
2.67005
2.66753
2.66726
2.6668
2.66604
2.66514
2.66444
2.66393
2.66379
2.66405
2.66478
2.66582
2.66725
2.66921
2.67123
2.66671
2.66662
2.66622
2.6656
2.66481
2.66429
2.66388
2.66385
2.66424
2.66509
2.66632
2.66798
2.67028
2.67269
2.66619
2.66621
2.66603
2.66552
2.66472
2.66425
2.66384
2.6638
2.66425
2.66521
2.66673
2.66867
2.6714
2.67428
2.66704
2.66673
2.6665
2.6659
2.66499
2.66445
2.66402
2.66397
2.66446
2.66547
2.66707
2.66914
2.67203
2.67525
2.66768
2.6674
2.66728
2.66669
2.66555
2.66478
2.66418
2.6639
2.66432
2.66535
2.667
2.66944
2.6727
2.67638
2.67033
2.66993
2.66901
2.66799
2.66655
2.66543
2.66466
2.664
2.66425
2.66528
2.66685
2.66963
2.67245
2.67712
2.69405
2.69184
2.6905
2.68879
2.68762
2.68645
2.68574
2.68519
2.68501
2.68477
2.68495
2.68514
2.68578
2.68683
2.69234
2.69082
2.68926
2.68765
2.68646
2.68532
2.68446
2.68371
2.68317
2.68303
2.68311
2.6832
2.68378
2.68439
2.69081
2.68946
2.68808
2.68667
2.68543
2.68422
2.68324
2.68237
2.68182
2.68145
2.68145
2.68162
2.68219
2.68317
2.68944
2.68824
2.6869
2.68553
2.6842
2.68296
2.68194
2.68109
2.68058
2.68027
2.68025
2.68045
2.68103
2.68206
2.68768
2.68663
2.68544
2.6842
2.68296
2.6818
2.68083
2.68005
2.67957
2.67932
2.67931
2.67963
2.68033
2.6816
2.68629
2.68541
2.68434
2.68317
2.68198
2.68087
2.67993
2.67925
2.67885
2.6787
2.67875
2.67923
2.68003
2.68133
2.68481
2.68412
2.6832
2.68213
2.68101
2.68001
2.67917
2.67863
2.67834
2.67832
2.6785
2.67919
2.68023
2.68172
2.68393
2.68331
2.6825
2.68149
2.68043
2.67951
2.67876
2.67834
2.67813
2.67824
2.67871
2.67965
2.68097
2.68249
2.68315
2.68261
2.68188
2.68095
2.67993
2.67912
2.67846
2.67816
2.6781
2.67845
2.67919
2.68024
2.68179
2.68349
2.68289
2.68232
2.68161
2.68072
2.67975
2.67902
2.67843
2.67821
2.67831
2.67883
2.67976
2.681
2.68284
2.68474
2.68296
2.68236
2.68166
2.68076
2.67976
2.67905
2.67848
2.67826
2.67849
2.67918
2.68031
2.6818
2.68397
2.68619
2.68367
2.68282
2.68204
2.68108
2.68
2.67928
2.67871
2.67852
2.67886
2.67967
2.68097
2.68259
2.68495
2.68736
2.68435
2.68353
2.6827
2.68169
2.68046
2.67963
2.679
2.67871
2.67905
2.67994
2.68133
2.68322
2.68585
2.68874
2.68608
2.68488
2.68372
2.68253
2.68113
2.68016
2.67944
2.67903
2.67933
2.68025
2.68167
2.68381
2.68627
2.68961
2.69844
2.69773
2.69742
2.69687
2.6966
2.69624
2.69607
2.69578
2.69565
2.6956
2.69563
2.69552
2.69561
2.6957
2.69796
2.69746
2.697
2.69639
2.69598
2.69551
2.69523
2.69491
2.69474
2.69448
2.69434
2.6941
2.69413
2.694
2.69724
2.69678
2.6963
2.69576
2.69531
2.69481
2.69443
2.69398
2.69367
2.69329
2.69305
2.69286
2.69281
2.69296
2.69681
2.69634
2.6958
2.6952
2.69465
2.69407
2.69358
2.69307
2.69268
2.69229
2.692
2.69186
2.69177
2.69202
2.69614
2.69568
2.69511
2.69449
2.69389
2.69327
2.69272
2.69219
2.69177
2.6914
2.69111
2.69106
2.69103
2.69147
2.69568
2.69523
2.69466
2.69402
2.69336
2.6927
2.6921
2.69157
2.69112
2.69078
2.69053
2.69056
2.69067
2.69113
2.69519
2.69475
2.69419
2.69354
2.69285
2.69218
2.69158
2.69108
2.69067
2.69041
2.69021
2.6903
2.6906
2.69125
2.69493
2.6945
2.69396
2.6933
2.69259
2.69193
2.69132
2.69084
2.69046
2.69029
2.6902
2.69045
2.69099
2.69167
2.69477
2.69437
2.6938
2.69315
2.69243
2.69178
2.69118
2.69076
2.69047
2.69041
2.69051
2.69092
2.6916
2.69239
2.69485
2.69443
2.69382
2.69316
2.69241
2.69178
2.69121
2.69086
2.69065
2.6907
2.69098
2.69152
2.69241
2.69331
2.69499
2.69454
2.69388
2.69319
2.69241
2.69179
2.69125
2.69096
2.69085
2.69104
2.69149
2.69218
2.69335
2.6945
2.69545
2.69487
2.69412
2.69337
2.69254
2.69193
2.69141
2.69115
2.69116
2.69147
2.69208
2.69294
2.69433
2.69566
2.69592
2.69533
2.69444
2.69366
2.69275
2.69211
2.69158
2.69132
2.69143
2.69189
2.69266
2.69372
2.69528
2.69688
2.69675
2.6959
2.69484
2.69401
2.69302
2.69235
2.6918
2.69159
2.69177
2.69233
2.69322
2.69444
2.69611
2.69798
2.69747
2.69743
2.69765
2.69771
2.69793
2.69807
2.69834
2.69854
2.69883
2.69911
2.69942
2.69964
2.69995
2.70018
2.69764
2.69762
2.69774
2.69775
2.69789
2.69798
2.6982
2.69838
2.69866
2.69888
2.69911
2.69929
2.69949
2.69965
2.69761
2.69759
2.69768
2.69768
2.69782
2.6979
2.69808
2.6982
2.69841
2.69857
2.69876
2.69895
2.69906
2.69937
2.69782
2.69779
2.69783
2.6978
2.69786
2.6979
2.698
2.69809
2.69824
2.69839
2.69853
2.69872
2.69876
2.69909
2.69793
2.6979
2.6979
2.69785
2.69787
2.69788
2.69794
2.698
2.6981
2.69821
2.69831
2.69851
2.69858
2.69896
2.69817
2.69813
2.6981
2.69804
2.69801
2.69799
2.69801
2.69803
2.69809
2.69817
2.69824
2.69847
2.69858
2.69893
2.6984
2.69838
2.69833
2.69825
2.69821
2.69816
2.69814
2.69813
2.69814
2.69821
2.69828
2.69851
2.69871
2.6991
2.69876
2.69875
2.69868
2.6986
2.69852
2.69846
2.6984
2.69837
2.69836
2.69843
2.69851
2.69876
2.69904
2.69943
2.69912
2.69913
2.69904
2.69895
2.69886
2.69878
2.69871
2.69868
2.69868
2.69877
2.6989
2.69917
2.69957
2.69998
2.69961
2.69961
2.69949
2.6994
2.69928
2.69919
2.69911
2.69909
2.69911
2.69923
2.69944
2.69974
2.70026
2.7007
2.70006
2.70005
2.69991
2.69981
2.69967
2.69958
2.69951
2.69952
2.69959
2.69976
2.70006
2.70042
2.70103
2.70156
2.70066
2.70061
2.70043
2.70031
2.70015
2.70005
2.69998
2.70001
2.70012
2.70036
2.70071
2.70123
2.70189
2.70255
2.70118
2.70116
2.70093
2.70079
2.70061
2.70052
2.70046
2.70052
2.70069
2.70099
2.70146
2.70208
2.70283
2.70361
2.70193
2.70184
2.70152
2.70136
2.70114
2.70105
2.70099
2.70107
2.70128
2.70165
2.7022
2.70291
2.70374
2.70485
2.69349
2.69417
2.69488
2.69548
2.6961
2.69664
2.69721
2.69769
2.69818
2.69862
2.69905
2.69941
2.69976
2.70009
2.69451
2.69494
2.69557
2.69605
2.6966
2.69708
2.69757
2.69801
2.69847
2.69887
2.69925
2.69958
2.69984
2.7002
2.69526
2.69558
2.69614
2.69656
2.69705
2.69746
2.69789
2.69828
2.69868
2.69905
2.6994
2.69974
2.69996
2.70039
2.69588
2.69622
2.69668
2.69706
2.69747
2.69783
2.69822
2.69857
2.69896
2.69931
2.69965
2.7
2.70021
2.70063
2.69642
2.69677
2.69717
2.69751
2.69788
2.69821
2.69856
2.69889
2.69924
2.69958
2.69989
2.70026
2.70051
2.70095
2.697
2.69734
2.69769
2.698
2.69833
2.69863
2.69896
2.69927
2.69959
2.69992
2.70022
2.7006
2.70088
2.70132
2.69754
2.69787
2.69819
2.69848
2.69879
2.69908
2.69938
2.69967
2.69997
2.70029
2.70059
2.70098
2.70132
2.70176
2.69813
2.69846
2.69874
2.69903
2.69931
2.69959
2.69987
2.70015
2.70043
2.70075
2.70106
2.70146
2.70186
2.70228
2.6987
2.69902
2.69928
2.69955
2.69983
2.7001
2.70038
2.70066
2.70094
2.70127
2.70161
2.70201
2.70248
2.70289
2.69932
2.69962
2.69986
2.70014
2.7004
2.70067
2.70095
2.70123
2.70152
2.70186
2.70225
2.70266
2.7032
2.70361
2.6999
2.7002
2.70042
2.70069
2.70096
2.70124
2.70152
2.70183
2.70215
2.70251
2.70295
2.7034
2.70396
2.7044
2.70058
2.70086
2.70105
2.70132
2.70158
2.70187
2.70215
2.70248
2.70282
2.70322
2.70369
2.70421
2.70479
2.70532
2.7012
2.70148
2.70165
2.70193
2.70218
2.70249
2.7028
2.70316
2.70354
2.704
2.7045
2.70508
2.70571
2.70628
2.70197
2.70227
2.70239
2.70264
2.70288
2.70319
2.7035
2.70387
2.70427
2.70476
2.7053
2.70595
2.7066
2.70744
2.68813
2.68872
2.6894
2.69006
2.69072
2.69136
2.692
2.69261
2.69321
2.69378
2.69434
2.69486
2.69531
2.69583
2.68927
2.68967
2.69032
2.69093
2.69156
2.69216
2.69278
2.69337
2.69396
2.69451
2.69503
2.6955
2.69588
2.69633
2.69025
2.69063
2.69125
2.69182
2.69242
2.69298
2.69356
2.69411
2.69466
2.69516
2.69564
2.69609
2.69641
2.69684
2.69115
2.69158
2.69215
2.69268
2.69325
2.69379
2.69434
2.69485
2.69537
2.69585
2.6963
2.69672
2.69701
2.69739
2.69202
2.69248
2.69302
2.69353
2.69406
2.69457
2.69508
2.69556
2.69604
2.6965
2.69692
2.69733
2.69761
2.69797
2.69292
2.69338
2.69388
2.69437
2.69487
2.69534
2.69582
2.69628
2.69674
2.69718
2.69758
2.69798
2.69827
2.69861
2.69378
2.69423
2.69471
2.69517
2.69564
2.69609
2.69655
2.69699
2.69743
2.69786
2.69824
2.69864
2.69895
2.69927
2.69465
2.69509
2.69554
2.69598
2.69642
2.69686
2.69729
2.69772
2.69815
2.69857
2.69895
2.69934
2.69968
2.69997
2.69547
2.69592
2.69633
2.69676
2.69718
2.6976
2.69803
2.69845
2.69887
2.69929
2.69969
2.70007
2.70045
2.7007
2.69631
2.69676
2.69715
2.69757
2.69797
2.69838
2.6988
2.69922
2.69964
2.70005
2.70047
2.70085
2.70128
2.70152
2.69711
2.69757
2.69793
2.69834
2.69873
2.69914
2.69956
2.69999
2.70042
2.70085
2.7013
2.70169
2.70213
2.70239
2.69796
2.69843
2.69877
2.69916
2.69954
2.69995
2.70036
2.7008
2.70123
2.70169
2.70214
2.70258
2.70304
2.70336
2.69878
2.69924
2.69956
2.69994
2.70032
2.70074
2.70117
2.70163
2.70209
2.70259
2.70306
2.70354
2.70401
2.70438
2.69973
2.70014
2.70044
2.70081
2.70118
2.7016
2.70202
2.70249
2.70296
2.70347
2.70396
2.70449
2.705
2.70555
2.68229
2.6827
2.68316
2.68368
2.68421
2.68477
2.68534
2.68591
2.68648
2.68705
2.6876
2.68814
2.68863
2.6892
2.68342
2.68368
2.68416
2.68466
2.6852
2.68573
2.6863
2.68685
2.68741
2.68795
2.68848
2.68899
2.68941
2.68989
2.68444
2.68471
2.6852
2.68568
2.6862
2.6867
2.68724
2.68775
2.68828
2.68878
2.68927
2.68973
2.6901
2.69055
2.68543
2.68574
2.6862
2.68666
2.68717
2.68766
2.68818
2.68867
2.68918
2.68965
2.69011
2.69053
2.69086
2.69125
2.68638
2.68673
2.68718
2.68763
2.68812
2.68859
2.68908
2.68955
2.69003
2.69048
2.6909
2.6913
2.6916
2.69196
2.68735
2.68771
2.68814
2.68859
2.68905
2.68951
2.68999
2.69045
2.6909
2.69134
2.69173
2.69211
2.69239
2.69272
2.68829
2.68866
2.68907
2.68951
2.68996
2.69042
2.69087
2.69132
2.69176
2.69217
2.69255
2.69291
2.69319
2.69348
2.68923
2.68961
2.69
2.69044
2.69088
2.69132
2.69177
2.69221
2.69264
2.69304
2.69341
2.69376
2.69405
2.69431
2.69014
2.69053
2.69091
2.69135
2.69178
2.69222
2.69266
2.69309
2.69352
2.69392
2.69428
2.69462
2.69493
2.69514
2.69108
2.69149
2.69185
2.69228
2.69271
2.69314
2.69357
2.694
2.69442
2.69482
2.6952
2.69552
2.69588
2.69605
2.69197
2.69241
2.69275
2.69319
2.69361
2.69405
2.69449
2.69492
2.69535
2.69574
2.69613
2.69646
2.69682
2.69698
2.6929
2.69336
2.69369
2.69412
2.69454
2.69498
2.69542
2.69586
2.69629
2.6967
2.69709
2.69744
2.69782
2.69799
2.69378
2.69421
2.69455
2.69499
2.69542
2.69588
2.69634
2.69681
2.69726
2.6977
2.6981
2.69848
2.69884
2.69903
2.69472
2.69512
2.69549
2.69591
2.69636
2.69682
2.69729
2.69776
2.69822
2.69868
2.69909
2.69951
2.69989
2.7002
2.67673
2.67687
2.67705
2.67731
2.67759
2.67791
2.67827
2.67865
2.67906
2.67948
2.67992
2.68037
2.68079
2.68127
2.67769
2.67774
2.67793
2.67816
2.67845
2.67877
2.67913
2.67949
2.67989
2.6803
2.68073
2.68115
2.68154
2.68197
2.67858
2.67861
2.67881
2.67905
2.67934
2.67964
2.67998
2.68032
2.6807
2.68107
2.68147
2.68185
2.6822
2.68262
2.67945
2.67952
2.67972
2.67994
2.68022
2.68052
2.68085
2.68118
2.68154
2.6819
2.68227
2.68263
2.68294
2.68331
2.68029
2.68041
2.68061
2.68083
2.6811
2.68139
2.68171
2.68203
2.68237
2.68271
2.68305
2.68338
2.68367
2.684
2.68117
2.6813
2.6815
2.68173
2.682
2.68228
2.68259
2.6829
2.68323
2.68356
2.68388
2.68419
2.68445
2.68475
2.68202
2.68218
2.68238
2.68262
2.68288
2.68317
2.68347
2.68378
2.6841
2.68441
2.68471
2.685
2.68524
2.6855
2.6829
2.68308
2.68327
2.68352
2.68378
2.68407
2.68436
2.68467
2.68498
2.68529
2.68558
2.68586
2.6861
2.68632
2.68376
2.68396
2.68415
2.68441
2.68468
2.68497
2.68527
2.68557
2.68588
2.68618
2.68647
2.68673
2.68697
2.68714
2.68465
2.68486
2.68506
2.68532
2.68559
2.68589
2.68619
2.68649
2.6868
2.6871
2.68739
2.68764
2.6879
2.68802
2.68551
2.68574
2.68594
2.68622
2.6865
2.6868
2.68711
2.68742
2.68773
2.68803
2.68832
2.68856
2.68882
2.68891
2.6864
2.68666
2.68687
2.68714
2.68743
2.68774
2.68805
2.68836
2.68868
2.68898
2.68927
2.68952
2.6898
2.68986
2.68725
2.6875
2.68774
2.68803
2.68834
2.68865
2.68898
2.68931
2.68964
2.68995
2.69024
2.6905
2.69075
2.69082
2.68817
2.68841
2.68867
2.68896
2.68928
2.6896
2.68993
2.69027
2.69059
2.69091
2.6912
2.69148
2.69173
2.69192
2.67152
2.67146
2.67146
2.6715
2.67156
2.67167
2.67182
2.67199
2.6722
2.67243
2.6727
2.67297
2.67325
2.67358
2.67225
2.67214
2.67215
2.67217
2.67223
2.67233
2.67247
2.67264
2.67284
2.67307
2.67333
2.67359
2.67386
2.67417
2.67292
2.6728
2.67282
2.67284
2.6729
2.673
2.67313
2.67329
2.67348
2.67368
2.67392
2.67415
2.6744
2.6747
2.6736
2.6735
2.67351
2.67353
2.67359
2.67368
2.67381
2.67396
2.67414
2.67434
2.67456
2.67478
2.67501
2.67528
2.67426
2.6742
2.6742
2.67423
2.67428
2.67438
2.6745
2.67464
2.67481
2.675
2.6752
2.6754
2.67562
2.67586
2.67495
2.67491
2.67492
2.67494
2.675
2.67509
2.67521
2.67535
2.67552
2.67569
2.67588
2.67607
2.67627
2.67648
2.67564
2.67562
2.67563
2.67566
2.67573
2.67583
2.67595
2.67608
2.67624
2.6764
2.67658
2.67676
2.67693
2.67712
2.67634
2.67636
2.67636
2.67641
2.67648
2.67658
2.6767
2.67684
2.67699
2.67715
2.67732
2.67748
2.67765
2.67781
2.67705
2.67709
2.6771
2.67716
2.67725
2.67735
2.67748
2.67761
2.67776
2.67792
2.67808
2.67823
2.67838
2.67851
2.67778
2.67784
2.67787
2.67793
2.67803
2.67814
2.67827
2.67841
2.67856
2.67871
2.67887
2.67901
2.67917
2.67926
2.6785
2.67859
2.67863
2.67872
2.67882
2.67894
2.67908
2.67922
2.67937
2.67951
2.67967
2.6798
2.67995
2.68
2.67926
2.67936
2.67942
2.67952
2.67962
2.67975
2.67989
2.68004
2.68019
2.68034
2.6805
2.68063
2.68079
2.6808
2.68001
2.68011
2.6802
2.68031
2.68043
2.68057
2.68072
2.68087
2.68102
2.68117
2.68132
2.68145
2.6816
2.6816
2.68085
2.68092
2.68102
2.68113
2.68126
2.6814
2.68156
2.68171
2.68186
2.68201
2.68216
2.6823
2.68243
2.68253
2.66668
2.6665
2.6664
2.66631
2.66625
2.66622
2.66622
2.66624
2.66629
2.66637
2.66646
2.66658
2.6667
2.66684
2.6672
2.667
2.6669
2.6668
2.66673
2.66669
2.66669
2.6667
2.66675
2.66682
2.66692
2.66704
2.66715
2.66729
2.66766
2.66747
2.66737
2.66727
2.66721
2.66717
2.66716
2.66718
2.66721
2.66728
2.66736
2.66747
2.66757
2.66772
2.66815
2.66797
2.66786
2.66777
2.6677
2.66766
2.66765
2.66766
2.66769
2.66775
2.66783
2.66793
2.66802
2.66817
2.66862
2.66846
2.66836
2.66827
2.6682
2.66816
2.66815
2.66816
2.66819
2.66824
2.66831
2.66839
2.66848
2.66862
2.66911
2.66897
2.66887
2.66879
2.66872
2.66869
2.66867
2.66868
2.6687
2.66875
2.66881
2.66889
2.66897
2.66909
2.6696
2.66949
2.66939
2.66932
2.66926
2.66923
2.66922
2.66922
2.66924
2.66928
2.66933
2.6694
2.66948
2.66957
2.67012
2.67003
2.66994
2.66987
2.66982
2.66979
2.66978
2.66978
2.6698
2.66983
2.66988
2.66994
2.67001
2.67008
2.67064
2.67058
2.67049
2.67043
2.67039
2.67037
2.67036
2.67036
2.67038
2.67041
2.67045
2.6705
2.67055
2.6706
2.67119
2.67114
2.67106
2.67102
2.67098
2.67096
2.67096
2.67096
2.67098
2.671
2.67104
2.67108
2.67113
2.67115
2.67174
2.67172
2.67165
2.67161
2.67159
2.67157
2.67157
2.67157
2.67159
2.67161
2.67164
2.67167
2.67171
2.67171
2.67232
2.67231
2.67225
2.67222
2.6722
2.67219
2.67219
2.6722
2.67222
2.67223
2.67226
2.67229
2.67234
2.67231
2.6729
2.67289
2.67286
2.67284
2.67283
2.67282
2.67283
2.67283
2.67284
2.67285
2.67288
2.6729
2.67293
2.6729
2.67358
2.67353
2.67349
2.67347
2.67346
2.67346
2.67347
2.67347
2.67349
2.6735
2.67351
2.67354
2.67357
2.67359
2.66183
2.66162
2.66148
2.66134
2.66123
2.66112
2.66103
2.66096
2.6609
2.66086
2.66083
2.66084
2.66083
2.66086
2.66217
2.66196
2.66182
2.66168
2.66156
2.66145
2.66136
2.66128
2.66122
2.66118
2.66115
2.66116
2.66114
2.66119
2.66247
2.66228
2.66214
2.662
2.66189
2.66178
2.66169
2.66162
2.66155
2.66151
2.66148
2.66147
2.66145
2.6615
2.6628
2.66261
2.66248
2.66234
2.66223
2.66213
2.66203
2.66196
2.66189
2.66185
2.66181
2.6618
2.66178
2.66182
2.66311
2.66294
2.66281
2.66268
2.66258
2.66248
2.66239
2.66231
2.66225
2.6622
2.66216
2.66214
2.66212
2.66214
2.66344
2.66329
2.66316
2.66304
2.66294
2.66284
2.66275
2.66268
2.66261
2.66256
2.66252
2.66249
2.66247
2.66248
2.66378
2.66364
2.66352
2.66341
2.66331
2.66321
2.66313
2.66305
2.66299
2.66294
2.66289
2.66286
2.66283
2.66282
2.66413
2.66401
2.6639
2.66379
2.66369
2.6636
2.66352
2.66344
2.66338
2.66332
2.66327
2.66323
2.6632
2.66318
2.66449
2.66439
2.66427
2.66418
2.66408
2.664
2.66392
2.66384
2.66377
2.66371
2.66366
2.66361
2.66357
2.66354
2.66486
2.66477
2.66466
2.66457
2.66448
2.6644
2.66432
2.66424
2.66417
2.6641
2.66404
2.66398
2.66395
2.6639
2.66523
2.66516
2.66506
2.66497
2.66488
2.6648
2.66472
2.66464
2.66458
2.6645
2.66444
2.66437
2.66433
2.66428
2.66563
2.66556
2.66546
2.66537
2.66529
2.66521
2.66513
2.66505
2.66498
2.6649
2.66484
2.66476
2.66472
2.66466
2.66603
2.66596
2.66587
2.66579
2.66571
2.66563
2.66555
2.66547
2.66539
2.66531
2.66524
2.66515
2.6651
2.66503
2.66648
2.66637
2.66628
2.6662
2.66612
2.66604
2.66596
2.66588
2.66581
2.66573
2.66566
2.66558
2.66553
2.66547
2.65655
2.65638
2.65624
2.6561
2.65597
2.65583
2.65571
2.65558
2.65546
2.65536
2.65525
2.65517
2.65507
2.65503
2.65675
2.65658
2.65645
2.65631
2.65619
2.65606
2.65593
2.6558
2.65568
2.65557
2.65546
2.65538
2.65528
2.65524
2.65694
2.65678
2.65666
2.65652
2.6564
2.65628
2.65615
2.65603
2.65591
2.65581
2.65569
2.65561
2.65551
2.65546
2.65714
2.65699
2.65687
2.65675
2.65663
2.65651
2.65639
2.65627
2.65615
2.65604
2.65593
2.65584
2.65574
2.65568
2.65734
2.65721
2.65709
2.65697
2.65686
2.65674
2.65663
2.65651
2.65639
2.65629
2.65617
2.65608
2.65598
2.65591
2.65755
2.65743
2.65732
2.65721
2.6571
2.65698
2.65687
2.65676
2.65664
2.65653
2.65642
2.65632
2.65622
2.65614
2.65777
2.65766
2.65755
2.65745
2.65734
2.65723
2.65712
2.65701
2.65689
2.65678
2.65667
2.65657
2.65646
2.65637
2.65799
2.65789
2.65779
2.65769
2.65758
2.65747
2.65736
2.65725
2.65714
2.65702
2.65691
2.6568
2.6567
2.65659
2.65821
2.65812
2.65802
2.65792
2.65782
2.65771
2.6576
2.65749
2.65738
2.65726
2.65715
2.65703
2.65693
2.65681
2.65843
2.65835
2.65825
2.65816
2.65805
2.65795
2.65784
2.65772
2.65761
2.65749
2.65737
2.65725
2.65714
2.65701
2.65865
2.65857
2.65848
2.65838
2.65828
2.65817
2.65806
2.65795
2.65783
2.65771
2.65759
2.65746
2.65735
2.65721
2.65887
2.6588
2.6587
2.6586
2.6585
2.65839
2.65828
2.65816
2.65805
2.65792
2.6578
2.65767
2.65755
2.65741
2.65909
2.65901
2.65892
2.65882
2.65872
2.65861
2.6585
2.65838
2.65826
2.65813
2.65801
2.65787
2.65775
2.6576
2.65932
2.65923
2.65913
2.65903
2.65893
2.65882
2.65871
2.65859
2.65848
2.65835
2.65822
2.65809
2.65797
2.65782
2.6506
2.65048
2.65037
2.65025
2.65014
2.65001
2.64988
2.64974
2.6496
2.64946
2.64933
2.6492
2.64906
2.64896
2.65071
2.6506
2.65049
2.65038
2.65027
2.65014
2.65002
2.64988
2.64974
2.6496
2.64946
2.64933
2.64919
2.64908
2.65081
2.65071
2.65061
2.65051
2.6504
2.65028
2.65016
2.65003
2.6499
2.64976
2.64962
2.64949
2.64934
2.64923
2.65093
2.65084
2.65075
2.65065
2.65054
2.65043
2.65031
2.65018
2.65005
2.64991
2.64977
2.64964
2.64949
2.64938
2.65105
2.65097
2.65088
2.65079
2.65069
2.65058
2.65046
2.65034
2.65021
2.65007
2.64993
2.6498
2.64965
2.64952
2.65118
2.6511
2.65102
2.65093
2.65083
2.65072
2.65061
2.65049
2.65036
2.65023
2.65009
2.64995
2.6498
2.64967
2.6513
2.65123
2.65115
2.65106
2.65097
2.65086
2.65075
2.65063
2.6505
2.65037
2.65023
2.65009
2.64994
2.6498
2.65142
2.65135
2.65128
2.65119
2.65109
2.65099
2.65088
2.65076
2.65063
2.6505
2.65036
2.65022
2.65007
2.64992
2.65153
2.65147
2.65139
2.6513
2.65121
2.65111
2.65099
2.65087
2.65075
2.65062
2.65048
2.65033
2.65018
2.65003
2.65164
2.65157
2.6515
2.65141
2.65132
2.65121
2.6511
2.65098
2.65085
2.65072
2.65058
2.65043
2.65028
2.65012
2.65173
2.65167
2.65159
2.65151
2.65141
2.6513
2.65119
2.65107
2.65094
2.65081
2.65067
2.65052
2.65037
2.6502
2.65182
2.65176
2.65168
2.65159
2.65149
2.65139
2.65127
2.65115
2.65102
2.65089
2.65074
2.65059
2.65044
2.65027
2.6519
2.65184
2.65176
2.65167
2.65157
2.65146
2.65135
2.65122
2.65109
2.65095
2.65081
2.65066
2.6505
2.65033
2.65197
2.65189
2.65181
2.65172
2.65163
2.65152
2.6514
2.65128
2.65115
2.65101
2.65087
2.65073
2.65057
2.65041
2.6441
2.64402
2.64395
2.64387
2.64378
2.64368
2.64357
2.64345
2.64333
2.6432
2.64307
2.64293
2.64279
2.64266
2.64416
2.64409
2.64403
2.64395
2.64386
2.64376
2.64366
2.64354
2.64342
2.64329
2.64315
2.64301
2.64287
2.64274
2.64421
2.64416
2.64409
2.64402
2.64394
2.64385
2.64374
2.64363
2.64351
2.64338
2.64325
2.64311
2.64296
2.64283
2.64428
2.64423
2.64417
2.6441
2.64402
2.64393
2.64383
2.64372
2.6436
2.64348
2.64334
2.6432
2.64305
2.64292
2.64435
2.6443
2.64424
2.64418
2.6441
2.64401
2.64391
2.6438
2.64369
2.64356
2.64343
2.64329
2.64314
2.643
2.64441
2.64436
2.64431
2.64424
2.64416
2.64408
2.64398
2.64387
2.64376
2.64363
2.6435
2.64336
2.64321
2.64307
2.64446
2.64442
2.64436
2.6443
2.64422
2.64413
2.64404
2.64393
2.64382
2.64369
2.64356
2.64342
2.64327
2.64312
2.6445
2.64446
2.64441
2.64434
2.64427
2.64418
2.64408
2.64398
2.64386
2.64374
2.64361
2.64347
2.64332
2.64317
2.64454
2.6445
2.64444
2.64438
2.6443
2.64421
2.64412
2.64401
2.6439
2.64378
2.64365
2.64351
2.64336
2.6432
2.64457
2.64452
2.64447
2.6444
2.64432
2.64424
2.64414
2.64404
2.64392
2.6438
2.64367
2.64353
2.64338
2.64323
2.64458
2.64453
2.64448
2.64441
2.64433
2.64425
2.64415
2.64404
2.64393
2.64381
2.64368
2.64354
2.64339
2.64324
2.64458
2.64453
2.64448
2.64441
2.64433
2.64424
2.64415
2.64404
2.64393
2.64381
2.64368
2.64354
2.64339
2.64324
2.64458
2.64453
2.64447
2.6444
2.64432
2.64423
2.64414
2.64403
2.64391
2.64379
2.64366
2.64352
2.64338
2.64322
2.64456
2.6445
2.64444
2.64437
2.64429
2.6442
2.64411
2.644
2.64389
2.64378
2.64365
2.64352
2.64338
2.64323
2.63748
2.63745
2.63741
2.63737
2.63731
2.63725