/*--------------------------------*- C++ -*----------------------------------*\
| =========                 |                                                 |
| \\      /  F ield         | OpenFOAM: The Open Source CFD Toolbox           |
|  \\    /   O peration     | Version:  v2106                                 |
|   \\  /    A nd           | Website:  www.openfoam.com                      |
|    \\/     M anipulation  |                                                 |
\*---------------------------------------------------------------------------*/
FoamFile
{
    version     2.0;
    format      ascii;
    arch        "LSB;label=32;scalar=64";
    class       surfaceScalarField;
    location    "0.000124";
    object      phi;
}
// * * * * * * * * * * * * * * * * * * * * * * * * * * * * * * * * * * * * * //

dimensions      [1 0 -1 0 0 0 0];

internalField   nonuniform List<scalar> 
53252
(
-3.21322e-13
-3.21299e-13
-3.89213e-11
3.66954e-13
3.67019e-13
-2.84408e-13
-3.34951e-13
-3.89027e-11
3.95584e-13
-2.32515e-13
-3.29894e-13
-3.88757e-11
3.78161e-13
-1.78212e-13
-3.43164e-13
-3.88555e-11
3.91686e-13
-1.19319e-13
-3.47153e-13
-3.88405e-11
3.93158e-13
-5.96465e-14
-3.53055e-13
-3.88314e-11
4.00096e-13
-4.8518e-17
-3.55073e-13
-3.88283e-11
4.03576e-13
5.96643e-14
-3.54946e-13
-3.88283e-11
4.03336e-13
1.19312e-13
-3.53062e-13
-3.88314e-11
4.00136e-13
1.7823e-13
-3.47138e-13
-3.88405e-11
3.93109e-13
2.3245e-13
-3.43238e-13
-3.88555e-11
3.9185e-13
2.84368e-13
-3.2992e-13
-3.88757e-11
3.78153e-13
3.21191e-13
-3.35023e-13
-3.89027e-11
3.95753e-13
-3.21238e-13
-3.89214e-11
3.66991e-13
3.66865e-13
-3.35012e-13
-2.84456e-13
-3.89027e-11
3.95719e-13
-2.82955e-13
-2.82959e-13
-3.88828e-11
-2.23706e-13
-2.82694e-13
-3.88546e-11
-1.67801e-13
-2.90265e-13
-3.88334e-11
-1.10829e-13
-2.94203e-13
-3.88161e-11
-5.53304e-14
-2.98044e-13
-3.88045e-11
-3.55483e-17
-2.99119e-13
-3.88003e-11
5.53282e-14
-2.9906e-13
-3.88003e-11
1.1082e-13
-2.98041e-13
-3.88045e-11
1.67791e-13
-2.94195e-13
-3.88161e-11
2.23634e-13
-2.90285e-13
-3.88334e-11
2.82841e-13
-2.82697e-13
-3.88546e-11
3.34806e-13
-2.82951e-13
-3.88828e-11
-2.84395e-13
-3.89028e-11
3.95561e-13
-3.29894e-13
-2.32522e-13
-3.88757e-11
3.78116e-13
-2.82686e-13
-2.23722e-13
-3.88546e-11
-2.28218e-13
-2.28228e-13
-3.88267e-11
-1.73746e-13
-2.32899e-13
-3.88078e-11
-1.16671e-13
-2.37872e-13
-3.87922e-11
-5.8944e-14
-2.41251e-13
-3.8782e-11
-2.16298e-17
-2.42559e-13
-3.87784e-11
5.89321e-14
-2.42533e-13
-3.87784e-11
1.16652e-13
-2.41244e-13
-3.8782e-11
1.73716e-13
-2.37863e-13
-3.87922e-11
2.28149e-13
-2.3289e-13
-3.88078e-11
2.8259e-13
-2.28216e-13
-3.88267e-11
3.29762e-13
-2.23694e-13
-3.88546e-11
-2.32559e-13
-3.88758e-11
3.781e-13
-3.43211e-13
-1.78284e-13
-3.88555e-11
3.91812e-13
-2.90273e-13
-1.67851e-13
-3.88334e-11
-2.32887e-13
-1.73773e-13
-3.88078e-11
-1.75526e-13
-1.75547e-13
-3.87896e-11
-1.17245e-13
-1.79684e-13
-3.87747e-11
-5.90087e-14
-1.81799e-13
-3.87648e-11
-1.43928e-17
-1.82875e-13
-3.87612e-11
5.8993e-14
-1.82864e-13
-3.87612e-11
1.17225e-13
-1.81792e-13
-3.87648e-11
1.75493e-13
-1.79673e-13
-3.87747e-11
2.32825e-13
-1.75523e-13
-3.87896e-11
2.90165e-13
-1.73733e-13
-3.88078e-11
3.43036e-13
-1.67773e-13
-3.88334e-11
-1.78244e-13
-3.88555e-11
3.91544e-13
-3.47113e-13
-1.19353e-13
-3.88405e-11
3.93079e-13
-2.94178e-13
-1.10864e-13
-3.88161e-11
-2.37852e-13
-1.16694e-13
-3.87922e-11
-1.79666e-13
-1.17264e-13
-3.87747e-11
-1.20434e-13
-1.2045e-13
-3.87605e-11
-6.06161e-14
-1.21802e-13
-3.87511e-11
-1.0327e-17
-1.22644e-13
-3.87476e-11
6.05995e-14
-1.2264e-13
-3.87476e-11
1.20415e-13
-1.21796e-13
-3.87511e-11
1.79642e-13
-1.20442e-13
-3.87605e-11
2.37828e-13
-1.1725e-13
-3.87747e-11
2.94165e-13
-1.16673e-13
-3.87922e-11
3.4716e-13
-1.1084e-13
-3.88161e-11
-1.19337e-13
-3.88405e-11
3.93126e-13
-3.5304e-13
-5.96975e-14
-3.88314e-11
4.00108e-13
-2.98022e-13
-5.53633e-14
-3.88045e-11
-2.41229e-13
-5.89654e-14
-3.8782e-11
-1.8178e-13
-5.90239e-14
-3.87648e-11
-1.21786e-13
-6.0628e-14
-3.87511e-11
-6.11919e-14
-6.12037e-14
-3.87417e-11
-7.31836e-18
-6.16224e-14
-3.87384e-11
6.11784e-14
-6.16209e-14
-3.87384e-11
1.2177e-13
-6.12011e-14
-3.87417e-11
1.81758e-13
-6.06226e-14
-3.87511e-11
2.41198e-13
-5.90125e-14
-3.87648e-11
2.97973e-13
-5.89426e-14
-3.8782e-11
3.52957e-13
-5.53292e-14
-3.88045e-11
-5.96277e-14
-3.88314e-11
3.9993e-13
-3.5493e-13
5.28549e-18
-3.88283e-11
4.03333e-13
-2.9904e-13
-1.54499e-18
-3.88003e-11
-2.42515e-13
-8.87691e-18
-3.87784e-11
-1.82849e-13
-1.30104e-17
-3.87612e-11
-1.22627e-13
-1.46909e-17
-3.87476e-11
-6.16106e-14
-1.49891e-17
-3.87384e-11
-6.1935e-18
-1.50975e-17
-3.8735e-11
6.1598e-14
-1.44741e-17
-3.8735e-11
1.22615e-13
-1.56938e-17
-3.87384e-11
1.82838e-13
-1.79029e-17
-3.87476e-11
2.42515e-13
-2.03694e-17
-3.87612e-11
2.99069e-13
-2.49638e-17
-3.87784e-11
3.55016e-13
-3.2892e-17
-3.88003e-11
-3.71881e-17
-3.88283e-11
4.03514e-13
-3.55044e-13
5.96093e-14
-3.88283e-11
4.0354e-13
-2.99095e-13
5.52965e-14
-3.88003e-11
-2.42539e-13
5.89148e-14
-3.87784e-11
-1.82858e-13
5.89819e-14
-3.87612e-11
-1.22631e-13
6.05914e-14
-3.87476e-11
-6.16118e-14
6.11704e-14
-3.87384e-11
-6.26127e-18
6.15898e-14
-3.8735e-11
6.15971e-14
6.15911e-14
-3.8735e-11
1.22611e-13
6.11702e-14
-3.87384e-11
1.82829e-13
6.05916e-14
-3.87476e-11
2.42491e-13
5.89855e-14
-3.87612e-11
2.99013e-13
5.89246e-14
-3.87784e-11
3.549e-13
5.5327e-14
-3.88003e-11
5.96508e-14
-3.88283e-11
4.03307e-13
-3.53019e-13
1.19284e-13
-3.88314e-11
4.00057e-13
-2.98013e-13
1.10795e-13
-3.88045e-11
-2.41224e-13
1.16641e-13
-3.8782e-11
-1.81776e-13
1.17217e-13
-3.87648e-11
-1.21784e-13
1.2041e-13
-3.8751e-11
-6.11913e-14
1.21765e-13
-3.87417e-11
-5.59719e-18
1.22606e-13
-3.87384e-11
6.11768e-14
1.22609e-13
-3.87384e-11
1.21768e-13
1.21762e-13
-3.87417e-11
1.81757e-13
1.20407e-13
-3.8751e-11
2.412e-13
1.17217e-13
-3.87647e-11
2.97984e-13
1.16647e-13
-3.8782e-11
3.52984e-13
1.1083e-13
-3.88045e-11
1.19333e-13
-3.88314e-11
3.99991e-13
-3.47121e-13
1.78179e-13
-3.88405e-11
3.93121e-13
-2.9417e-13
1.67762e-13
-3.88161e-11
-2.37842e-13
1.7371e-13
-3.87922e-11
-1.79657e-13
1.75492e-13
-3.87746e-11
-1.20431e-13
1.79642e-13
-3.87605e-11
-6.06148e-14
1.81756e-13
-3.8751e-11
-5.58364e-18
1.82826e-13
-3.87476e-11
6.05967e-14
1.82835e-13
-3.87476e-11
1.20412e-13
1.81751e-13
-3.8751e-11
1.79639e-13
1.79633e-13
-3.87605e-11
2.37833e-13
1.75477e-13
-3.87746e-11
2.94175e-13
1.73697e-13
-3.87922e-11
3.47166e-13
1.67762e-13
-3.88161e-11
1.7827e-13
-3.88405e-11
3.931e-13
-3.43134e-13
2.32476e-13
-3.88555e-11
3.9166e-13
-2.90229e-13
2.23652e-13
-3.88334e-11
-2.32861e-13
2.2817e-13
-3.88078e-11
-1.75511e-13
2.32843e-13
-3.87896e-11
-1.17244e-13
2.37835e-13
-3.87746e-11
-5.90095e-14
2.41201e-13
-3.87647e-11
-4.22839e-18
2.4249e-13
-3.87612e-11
5.89856e-14
2.42514e-13
-3.87612e-11
1.17218e-13
2.41194e-13
-3.87647e-11
1.75481e-13
2.37824e-13
-3.87746e-11
2.32836e-13
2.32815e-13
-3.87896e-11
2.90211e-13
2.28142e-13
-3.88078e-11
3.43143e-13
2.23622e-13
-3.88334e-11
2.32508e-13
-3.88554e-11
3.91738e-13
-3.29869e-13
2.8437e-13
-3.88757e-11
3.78137e-13
-2.8266e-13
2.82884e-13
-3.88546e-11
-2.28188e-13
2.82623e-13
-3.88267e-11
-1.73729e-13
2.90214e-13
-3.88078e-11
-1.16673e-13
2.94175e-13
-3.87922e-11
-5.89485e-14
2.97986e-13
-3.8782e-11
-1.19262e-18
2.99018e-13
-3.87784e-11
5.89145e-14
2.99071e-13
-3.87784e-11
1.16642e-13
2.97971e-13
-3.8782e-11
1.73693e-13
2.94167e-13
-3.87921e-11
2.28161e-13
2.90165e-13
-3.88078e-11
2.82623e-13
2.82596e-13
-3.88267e-11
3.29826e-13
2.82838e-13
-3.88546e-11
2.84362e-13
-3.88757e-11
3.78145e-13
-3.34917e-13
3.21277e-13
-3.89027e-11
3.95567e-13
-2.82916e-13
3.34923e-13
-3.88828e-11
-2.23676e-13
3.29812e-13
-3.88546e-11
-1.67796e-13
3.43133e-13
-3.88334e-11
-1.10855e-13
3.47161e-13
-3.88161e-11
-5.535e-14
3.52986e-13
-3.88044e-11
3.10353e-18
3.54914e-13
-3.88003e-11
5.52996e-14
3.5502e-13
-3.88002e-11
1.10809e-13
3.52957e-13
-3.88044e-11
1.67734e-13
3.47168e-13
-3.88161e-11
2.23636e-13
3.4305e-13
-3.88334e-11
2.82872e-13
3.29785e-13
-3.88546e-11
3.34921e-13
3.34819e-13
-3.88828e-11
3.21124e-13
-3.89028e-11
3.95766e-13
-3.21176e-13
-3.89214e-11
3.67007e-13
3.66879e-13
-2.84404e-13
-3.89028e-11
3.95757e-13
-2.32539e-13
-3.88757e-11
3.78123e-13
-1.78293e-13
-3.88554e-11
3.91725e-13
-1.19352e-13
-3.88405e-11
3.93094e-13
-5.96691e-14
-3.88314e-11
3.99994e-13
4.62141e-18
-3.88283e-11
4.03337e-13
5.95988e-14
-3.88283e-11
4.03515e-13
1.19306e-13
-3.88314e-11
3.99932e-13
1.78215e-13
-3.88405e-11
3.93132e-13
2.32523e-13
-3.88554e-11
3.91565e-13
2.84361e-13
-3.88757e-11
3.78123e-13
3.21193e-13
-3.89028e-11
3.95593e-13
-3.89214e-11
3.66966e-13
3.66853e-13
-7.24784e-13
-7.24736e-13
-7.22617e-11
8.2533e-13
8.2542e-13
-6.3257e-13
-7.46517e-13
-7.22113e-11
8.73347e-13
-5.13684e-13
-7.39828e-13
-7.21402e-11
8.42985e-13
-3.91575e-13
-7.64593e-13
-7.20871e-11
8.69119e-13
-2.61976e-13
-7.74075e-13
-7.20472e-11
8.75297e-13
-1.31348e-13
-7.85197e-13
-7.20214e-11
8.88404e-13
-4.13352e-17
-7.89907e-13
-7.20111e-11
8.95791e-13
1.3139e-13
-7.89672e-13
-7.20111e-11
8.95433e-13
2.61963e-13
-7.85268e-13
-7.20214e-11
8.88538e-13
3.91619e-13
-7.73994e-13
-7.20472e-11
8.75159e-13
5.13606e-13
-7.64741e-13
-7.20871e-11
8.69405e-13
6.32511e-13
-7.398e-13
-7.21402e-11
8.42944e-13
7.24656e-13
-7.46668e-13
-7.22113e-11
8.73542e-13
-7.24903e-13
-7.22617e-11
8.25471e-13
8.25237e-13
-7.46652e-13
-6.32585e-13
-7.22114e-11
8.7354e-13
-6.29516e-13
-6.29481e-13
-7.21547e-11
-5.00783e-13
-6.30585e-13
-7.208e-11
-3.76851e-13
-6.46116e-13
-7.20236e-11
-2.50676e-13
-6.5452e-13
-7.19782e-11
-1.25762e-13
-6.62473e-13
-7.19475e-11
-3.96682e-17
-6.65183e-13
-7.19349e-11
1.2579e-13
-6.65055e-13
-7.19349e-11
2.50672e-13
-6.62503e-13
-7.19475e-11
3.76874e-13
-6.54475e-13
-7.19782e-11
5.00729e-13
-6.46178e-13
-7.20236e-11
6.29451e-13
-6.30551e-13
-7.208e-11
7.46473e-13
-6.29523e-13
-7.21546e-11
-6.32592e-13
-7.22113e-11
8.73153e-13
-7.39827e-13
-5.13677e-13
-7.21402e-11
8.42971e-13
-6.30566e-13
-5.00771e-13
-7.208e-11
-5.0918e-13
-5.09184e-13
-7.20054e-11
-3.86878e-13
-5.19903e-13
-7.19524e-11
-2.59733e-13
-5.28992e-13
-7.19096e-11
-1.31249e-13
-5.35947e-13
-7.18812e-11
-2.52213e-17
-5.38569e-13
-7.18693e-11
1.31261e-13
-5.38507e-13
-7.18693e-11
2.59726e-13
-5.35954e-13
-7.18812e-11
3.86889e-13
-5.28975e-13
-7.19096e-11
5.0917e-13
-5.19936e-13
-7.19525e-11
6.30602e-13
-5.09196e-13
-7.20054e-11
7.39902e-13
-5.00827e-13
-7.208e-11
-5.13553e-13
-7.21402e-11
8.42843e-13
-7.64744e-13
-3.91671e-13
-7.20871e-11
8.69388e-13
-6.46178e-13
-3.76918e-13
-7.20236e-11
-5.19918e-13
-3.86919e-13
-7.19524e-11
-3.92663e-13
-3.92682e-13
-7.18998e-11
-2.62731e-13
-3.99919e-13
-7.18577e-11
-1.32489e-13
-4.04609e-13
-7.18294e-11
-1.21973e-17
-4.06588e-13
-7.18174e-11
1.32496e-13
-4.06562e-13
-7.18174e-11
2.62724e-13
-4.04608e-13
-7.18294e-11
3.92645e-13
-3.99905e-13
-7.18577e-11
5.1985e-13
-3.92676e-13
-7.18998e-11
6.46046e-13
-3.8688e-13
-7.19524e-11
7.64505e-13
-3.76875e-13
-7.20236e-11
-3.91422e-13
-7.20871e-11
8.69039e-13
-7.73991e-13
-2.62008e-13
-7.20472e-11
8.75153e-13
-6.54472e-13
-2.50711e-13
-7.19782e-11
-5.28964e-13
-2.59755e-13
-7.19096e-11
-3.99896e-13
-2.62748e-13
-7.18577e-11
-2.6802e-13
-2.68034e-13
-7.18167e-11
-1.35166e-13
-2.71058e-13
-7.1789e-11
-5.27193e-18
-2.72498e-13
-7.17772e-11
1.35167e-13
-2.72488e-13
-7.17772e-11
2.68008e-13
-2.71052e-13
-7.1789e-11
3.9987e-13
-2.68019e-13
-7.18167e-11
5.28907e-13
-2.62721e-13
-7.18577e-11
6.544e-13
-2.59708e-13
-7.19096e-11
7.73878e-13
-2.50626e-13
-7.19782e-11
-2.6188e-13
-7.20472e-11
8.75171e-13
-7.85244e-13
-1.3142e-13
-7.20214e-11
8.88502e-13
-6.62485e-13
-1.25816e-13
-7.19475e-11
-5.35939e-13
-1.31279e-13
-7.18812e-11
-4.04596e-13
-1.32505e-13
-7.18294e-11
-2.71047e-13
-1.35174e-13
-7.1789e-11
-1.36551e-13
-1.36557e-13
-7.17612e-11
-2.57498e-19
-1.37266e-13
-7.17495e-11
1.36553e-13
-1.37263e-13
-7.17495e-11
2.7104e-13
-1.36551e-13
-7.17612e-11
4.04579e-13
-1.35162e-13
-7.1789e-11
5.35908e-13
-1.32481e-13
-7.18294e-11
6.62445e-13
-1.31235e-13
-7.18812e-11
7.85203e-13
-1.25734e-13
-7.19475e-11
-1.31343e-13
-7.20214e-11
8.88518e-13
-7.89663e-13
5.01444e-19
-7.20111e-11
8.95438e-13
-6.65039e-13
1.23057e-17
-7.19349e-11
-5.38489e-13
1.2387e-17
-7.18693e-11
-4.06547e-13
1.08827e-17
-7.18174e-11
-2.72479e-13
8.8227e-18
-7.17772e-11
-1.3726e-13
6.9931e-18
-7.17495e-11
3.02221e-18
5.97666e-18
-7.17379e-11
1.37265e-13
6.9931e-18
-7.17379e-11
2.72485e-13
5.38035e-18
-7.17495e-11
4.06562e-13
3.97089e-18
-7.17772e-11
5.38526e-13
3.59142e-18
-7.18174e-11
6.65125e-13
-2.43945e-19
-7.18693e-11
7.89833e-13
2.57498e-18
-7.19349e-11
1.9746e-17
-7.20111e-11
8.95655e-13
-7.8986e-13
1.31328e-13
-7.20111e-11
8.95721e-13
-6.65149e-13
1.25747e-13
-7.19349e-11
-5.38543e-13
1.31244e-13
-7.18693e-11
-4.0657e-13
1.32494e-13
-7.18174e-11
-2.72487e-13
1.35173e-13
-7.17772e-11
-1.37263e-13
1.36563e-13
-7.17495e-11
2.6563e-18
1.37272e-13
-7.17379e-11
1.37263e-13
1.37276e-13
-7.17379e-11
2.72477e-13
1.36565e-13
-7.17495e-11
4.06539e-13
1.35182e-13
-7.17772e-11
5.38471e-13
1.32519e-13
-7.18174e-11
6.65013e-13
1.31292e-13
-7.18693e-11
7.89641e-13
1.25821e-13
-7.19349e-11
1.31451e-13
-7.20111e-11
8.95398e-13
-7.85136e-13
2.61962e-13
-7.20214e-11
8.88341e-13
-6.62422e-13
2.50672e-13
-7.19475e-11
-5.3591e-13
2.59741e-13
-7.18812e-11
-4.04585e-13
2.62743e-13
-7.18293e-11
-2.71042e-13
2.68029e-13
-7.17889e-11
-1.36552e-13
2.71064e-13
-7.17612e-11
3.88958e-18
2.72493e-13
-7.17495e-11
1.36552e-13
2.72505e-13
-7.17495e-11
2.71045e-13
2.71061e-13
-7.17612e-11
4.04596e-13
2.6803e-13
-7.17889e-11
5.35941e-13
2.62748e-13
-7.18293e-11
6.62505e-13
2.59747e-13
-7.18812e-11
7.85306e-13
2.50681e-13
-7.19475e-11
2.61941e-13
-7.20214e-11
8.88669e-13
-7.74001e-13
3.91578e-13
-7.20472e-11
8.75208e-13
-6.54462e-13
3.76863e-13
-7.19782e-11
-5.28954e-13
3.86903e-13
-7.19096e-11
-3.99894e-13
3.9268e-13
-7.18577e-11
-2.68014e-13
3.99898e-13
-7.18167e-11
-1.35168e-13
4.04616e-13
-7.17889e-11
6.81692e-18
4.06561e-13
-7.17772e-11
1.35164e-13
4.0659e-13
-7.17772e-11
2.68012e-13
4.0461e-13
-7.17889e-11
3.99884e-13
3.99908e-13
-7.18167e-11
5.28928e-13
3.92695e-13
-7.18577e-11
6.54399e-13
3.86941e-13
-7.19096e-11
7.73848e-13
3.76954e-13
-7.19782e-11
3.91528e-13
-7.20472e-11
8.75097e-13
-7.64515e-13
5.13683e-13
-7.20871e-11
8.69048e-13
-6.46054e-13
5.00815e-13
-7.20235e-11
-5.19873e-13
5.09237e-13
-7.19524e-11
-3.92662e-13
5.19936e-13
-7.18998e-11
-2.62722e-13
5.28947e-13
-7.18577e-11
-1.32497e-13
5.35966e-13
-7.18293e-11
1.00831e-17
5.38503e-13
-7.18174e-11
1.32487e-13
5.38562e-13
-7.18174e-11
2.62727e-13
5.35943e-13
-7.18293e-11
3.92678e-13
5.28952e-13
-7.18577e-11
5.19933e-13
5.1991e-13
-7.18997e-11
6.46162e-13
5.0924e-13
-7.19524e-11
7.64704e-13
5.00833e-13
-7.20235e-11
5.13556e-13
-7.20871e-11
8.69347e-13
-7.39732e-13
6.32591e-13
-7.21402e-11
8.42865e-13
-6.30513e-13
6.29576e-13
-7.208e-11
-5.09156e-13
6.30669e-13
-7.20054e-11
-3.8689e-13
6.46192e-13
-7.19524e-11
-2.59716e-13
6.54433e-13
-7.19096e-11
-1.31269e-13
6.62538e-13
-7.18812e-11
1.26039e-17
6.65055e-13
-7.18693e-11
1.31242e-13
6.65164e-13
-7.18693e-11
2.59718e-13
6.62481e-13
-7.18812e-11
3.869e-13
6.5444e-13
-7.19096e-11
5.0924e-13
6.46091e-13
-7.19524e-11
6.30633e-13
6.30641e-13
-7.20053e-11
7.39945e-13
6.29511e-13
-7.208e-11
6.32589e-13
-7.21401e-11
8.42892e-13
-7.46477e-13
7.248e-13
-7.22113e-11
8.73297e-13
-6.29434e-13
7.46704e-13
-7.21546e-11
-5.00774e-13
7.40001e-13
-7.208e-11
-3.76913e-13
7.64749e-13
-7.20235e-11
-2.5065e-13
7.73889e-13
-7.19782e-11
-1.25795e-13
7.85341e-13
-7.19475e-11
1.03406e-17
7.89694e-13
-7.19349e-11
1.25744e-13
7.89868e-13
-7.19348e-11
2.50636e-13
7.85242e-13
-7.19475e-11
3.76893e-13
7.73911e-13
-7.19782e-11
5.0085e-13
7.64549e-13
-7.20235e-11
6.29558e-13
7.39929e-13
-7.208e-11
7.46675e-13
7.46555e-13
-7.21546e-11
7.24832e-13
-7.22112e-11
8.73389e-13
-7.24784e-13
-7.22617e-11
8.25448e-13
8.25301e-13
-6.32549e-13
-7.22113e-11
8.73458e-13
-5.13517e-13
-7.21401e-11
8.42962e-13
-3.91489e-13
-7.20871e-11
8.69395e-13
-2.61908e-13
-7.20472e-11
8.75143e-13
-1.31419e-13
-7.20213e-11
8.88703e-13
-4.74338e-18
-7.2011e-11
8.95466e-13
1.31362e-13
-7.2011e-11
8.95679e-13
2.61888e-13
-7.20213e-11
8.88567e-13
3.91442e-13
-7.20471e-11
8.75186e-13
5.13556e-13
-7.2087e-11
8.69101e-13
6.32615e-13
-7.21401e-11
8.4284e-13
7.24893e-13
-7.22112e-11
8.73242e-13
-7.22616e-11
8.25445e-13
8.25359e-13
-9.91137e-13
-9.91159e-13
-1.20227e-10
1.13299e-12
1.13292e-12
-8.73412e-13
-1.01942e-12
-1.20129e-10
1.20938e-12
-7.04011e-13
-9.91417e-13
-1.19983e-10
1.12818e-12
-5.34712e-13
-1.03079e-12
-1.19878e-10
1.17031e-12
-3.54782e-13
-1.04327e-12
-1.19799e-10
1.17586e-12
-1.77368e-13
-1.06102e-12
-1.19747e-10
1.19913e-12
-3.70526e-17
-1.06735e-12
-1.19727e-10
1.2114e-12
1.7732e-13
-1.06706e-12
-1.19727e-10
1.21109e-12
3.54712e-13
-1.06114e-12
-1.19747e-10
1.19926e-12
5.34665e-13
-1.04316e-12
-1.19799e-10
1.17575e-12
7.03912e-13
-1.03098e-12
-1.19878e-10
1.17057e-12
8.73235e-13
-9.91394e-13
-1.19983e-10
1.12827e-12
9.90978e-13
-1.01943e-12
-1.20129e-10
1.20936e-12
-9.9092e-13
-1.20227e-10
1.13286e-12
1.13263e-12
-1.01947e-12
-8.73339e-13
-1.20129e-10
1.20932e-12
-8.53759e-13
-8.53701e-13
-1.20022e-10
-6.69715e-13
-8.45694e-13
-1.19869e-10
-5.00009e-13
-8.67726e-13
-1.19756e-10
-3.30356e-13
-8.79308e-13
-1.19665e-10
-1.662e-13
-8.91603e-13
-1.19602e-10
-5.24076e-17
-8.95303e-13
-1.19577e-10
1.66191e-13
-8.95099e-13
-1.19577e-10
3.30302e-13
-8.91664e-13
-1.19602e-10
4.99977e-13
-8.79218e-13
-1.19665e-10
6.69598e-13
-8.67826e-13
-1.19757e-10
8.53632e-13
-8.45642e-13
-1.19869e-10
1.01938e-12
-8.53746e-13
-1.20022e-10
-8.73206e-13
-1.20129e-10
1.20936e-12
-9.91382e-13
-7.03996e-13
-1.19983e-10
1.12822e-12
-8.45646e-13
-6.6967e-13
-1.19869e-10
-6.80701e-13
-6.80716e-13
-1.19715e-10
-5.16103e-13
-6.95437e-13
-1.1961e-10
-3.45704e-13
-7.09082e-13
-1.19523e-10
-1.75325e-13
-7.19652e-13
-1.19465e-10
-4.82334e-17
-7.23209e-13
-1.19442e-10
1.75307e-13
-7.23085e-13
-1.19442e-10
3.4564e-13
-7.19665e-13
-1.19465e-10
5.16043e-13
-7.09005e-13
-1.19523e-10
6.80537e-13
-6.95433e-13
-1.1961e-10
8.45449e-13
-6.80626e-13
-1.19715e-10
9.91057e-13
-6.69586e-13
-1.19869e-10
-7.0394e-13
-1.19984e-10
1.1281e-12
-1.03095e-12
-5.34728e-13
-1.19878e-10
1.17049e-12
-8.67818e-13
-5.00035e-13
-1.19756e-10
-6.95486e-13
-5.16152e-13
-1.1961e-10
-5.23266e-13
-5.23271e-13
-1.19504e-10
-3.49148e-13
-5.34426e-13
-1.19418e-10
-1.76731e-13
-5.41717e-13
-1.19359e-10
-3.08727e-17
-5.44625e-13
-1.19335e-10
1.7672e-13
-5.44559e-13
-1.19335e-10
3.4911e-13
-5.41708e-13
-1.19359e-10
5.23223e-13
-5.34363e-13
-1.19418e-10
6.95391e-13
-5.23223e-13
-1.19504e-10
8.67714e-13
-5.16059e-13
-1.1961e-10
1.03086e-12
-4.99946e-13
-1.19756e-10
-5.3471e-13
-1.19878e-10
1.17048e-12
-1.04316e-12
-3.54776e-13
-1.19799e-10
1.17573e-12
-8.7922e-13
-3.30352e-13
-1.19664e-10
-7.09035e-13
-3.45706e-13
-1.19523e-10
-5.3439e-13
-3.49143e-13
-1.19418e-10
-3.57316e-13
-3.57322e-13
-1.19334e-10
-1.80844e-13
-3.62069e-13
-1.19276e-10
-1.42437e-17
-3.64212e-13
-1.19252e-10
1.80842e-13
-3.6418e-13
-1.19252e-10
3.57296e-13
-3.62053e-13
-1.19276e-10
5.34371e-13
-3.5728e-13
-1.19334e-10
7.09006e-13
-3.49099e-13
-1.19418e-10
8.7922e-13
-3.45645e-13
-1.19523e-10
1.04318e-12
-3.30313e-13
-1.19664e-10
-3.54704e-13
-1.19799e-10
1.17572e-12
-1.06111e-12
-1.77363e-13
-1.19747e-10
1.1992e-12
-8.9165e-13
-1.66215e-13
-1.19602e-10
-7.19672e-13
-1.75332e-13
-1.19465e-10
-5.4172e-13
-1.76725e-13
-1.19359e-10
-3.62076e-13
-1.80835e-13
-1.19276e-10
-1.83094e-13
-1.83077e-13
-1.19219e-10
-1.96512e-18
-1.84163e-13
-1.19195e-10
1.83096e-13
-1.84146e-13
-1.19195e-10
3.62055e-13
-1.83057e-13
-1.19219e-10
5.41673e-13
-1.80794e-13
-1.19276e-10
7.19578e-13
-1.76666e-13
-1.19359e-10
8.9151e-13
-1.75244e-13
-1.19465e-10
1.06087e-12
-1.66114e-13
-1.19602e-10
-1.77262e-13
-1.19747e-10
1.19903e-12
-1.06706e-12
3.33392e-18
-1.19727e-10
1.21109e-12
-8.951e-13
4.10777e-17
-1.19577e-10
-7.23089e-13
4.75423e-17
-1.19442e-10
-5.44564e-13
4.95751e-17
-1.19335e-10
-3.6419e-13
4.70679e-17
-1.19252e-10
-1.8417e-13
4.73119e-17
-1.19195e-10
1.00018e-17
4.28395e-17
-1.19171e-10
1.84192e-13
5.01715e-17
-1.19171e-10
3.64217e-13
4.8247e-17
-1.19195e-10
5.4461e-13
4.9277e-17
-1.19252e-10
7.23174e-13
5.09168e-17
-1.19335e-10
8.95257e-13
5.56196e-17
-1.19442e-10
1.06725e-12
8.51505e-17
-1.19577e-10
1.29305e-16
-1.19727e-10
1.21128e-12
-1.0673e-12
1.77379e-13
-1.19727e-10
1.21131e-12
-8.95275e-13
1.66222e-13
-1.19577e-10
-7.2319e-13
1.75345e-13
-1.19442e-10
-5.44615e-13
1.76768e-13
-1.19335e-10
-3.64211e-13
1.80891e-13
-1.19252e-10
-1.84176e-13
1.83153e-13
-1.19195e-10
1.1601e-17
1.84234e-13
-1.19171e-10
1.84185e-13
1.84251e-13
-1.19171e-10
3.64196e-13
1.83163e-13
-1.19195e-10
5.44559e-13
1.8092e-13
-1.19252e-10
7.23077e-13
1.76812e-13
-1.19335e-10
8.95104e-13
1.75412e-13
-1.19442e-10
1.06706e-12
1.66318e-13
-1.19577e-10
1.7744e-13
-1.19727e-10
1.21118e-12
-1.06098e-12
3.54803e-13
-1.19747e-10
1.19908e-12
-8.91569e-13
3.30396e-13
-1.19602e-10
-7.19613e-13
3.45727e-13
-1.19465e-10
-5.41692e-13
3.49204e-13
-1.19359e-10
-3.62058e-13
3.57374e-13
-1.19276e-10
-1.83085e-13
3.62145e-13
-1.19219e-10
1.88922e-17
3.64264e-13
-1.19195e-10
1.83103e-13
3.64298e-13
-1.19195e-10
3.62077e-13
3.62146e-13
-1.19219e-10
5.4171e-13
3.57401e-13
-1.19276e-10
7.19642e-13
3.49228e-13
-1.19359e-10
8.9162e-13
3.45775e-13
-1.19465e-10
1.06102e-12
3.30475e-13
-1.19602e-10
3.54871e-13
-1.19747e-10
1.19916e-12
-1.04322e-12
5.34767e-13
-1.19799e-10
1.17577e-12
-8.79268e-13
5.00074e-13
-1.19664e-10
-7.09031e-13
5.16116e-13
-1.19523e-10
-5.34394e-13
5.23339e-13
-1.19418e-10
-3.57304e-13
5.3445e-13
-1.19334e-10
-1.80833e-13
5.4179e-13
-1.19276e-10
2.62377e-17
5.44643e-13
-1.19252e-10
1.80848e-13
5.44711e-13
-1.19252e-10
3.57317e-13
5.41786e-13
-1.19276e-10
5.34383e-13
5.34499e-13
-1.19334e-10
7.09012e-13
5.23357e-13
-1.19418e-10
8.79219e-13
5.16195e-13
-1.19523e-10
1.04317e-12
5.00119e-13
-1.19664e-10
5.34867e-13
-1.19799e-10
1.17572e-12
-1.03076e-12
7.04066e-13
-1.19878e-10
1.1703e-12
-8.67697e-13
6.69785e-13
-1.19756e-10
-6.95364e-13
6.80665e-13
-1.1961e-10
-5.23225e-13
6.95581e-13
-1.19504e-10
-3.49114e-13
7.09097e-13
-1.19418e-10
-1.7671e-13
7.19733e-13
-1.19359e-10
3.61717e-17
7.23174e-13
-1.19335e-10
1.76732e-13
7.23289e-13
-1.19335e-10
3.49156e-13
7.19703e-13
-1.19359e-10
5.23277e-13
7.09141e-13
-1.19418e-10
6.95489e-13
6.95524e-13
-1.19504e-10
8.67902e-13
6.80667e-13
-1.1961e-10
1.03111e-12
6.69685e-13
-1.19756e-10
7.04086e-13
-1.19878e-10
1.17072e-12
-9.91372e-13
8.73482e-13
-1.19983e-10
1.12813e-12
-8.45655e-13
8.53846e-13
-1.19869e-10
-6.80628e-13
8.45565e-13
-1.19715e-10
-5.16107e-13
8.67956e-13
-1.1961e-10
-3.45672e-13
8.7929e-13
-1.19523e-10
-1.75301e-13
8.91703e-13
-1.19465e-10
4.07524e-17
8.95212e-13
-1.19442e-10
1.75317e-13
8.95384e-13
-1.19441e-10
3.45692e-13
8.91658e-13
-1.19465e-10
5.16076e-13
8.79379e-13
-1.19523e-10
6.80569e-13
8.67909e-13
-1.1961e-10
8.45516e-13
8.45636e-13
-1.19715e-10
9.91145e-13
8.53816e-13
-1.19869e-10
8.73238e-13
-1.19983e-10
1.12831e-12
-1.01934e-12
9.91143e-13
-1.20129e-10
1.20936e-12
-8.53661e-13
1.01959e-12
-1.20022e-10
-6.69536e-13
9.91208e-13
-1.19869e-10
-4.9997e-13
1.03118e-12
-1.19756e-10
-3.30334e-13
1.04325e-12
-1.19664e-10
-1.66178e-13
1.0611e-12
-1.19602e-10
3.68358e-17
1.06719e-12
-1.19577e-10
1.66216e-13
1.06738e-12
-1.19577e-10
3.30397e-13
1.06103e-12
-1.19602e-10
5.00035e-13
1.04333e-12
-1.19664e-10
6.69642e-13
1.03108e-12
-1.19756e-10
8.53779e-13
9.91251e-13
-1.19869e-10
1.01945e-12
1.01955e-12
-1.20022e-10
9.9097e-13
-1.20129e-10
1.20937e-12
-9.90892e-13
-1.20227e-10
1.13278e-12
1.13284e-12
-8.73104e-13
-1.20129e-10
1.20949e-12
-7.03934e-13
-1.19983e-10
1.12837e-12
-5.34718e-13
-1.19878e-10
1.1708e-12
-3.54729e-13
-1.19799e-10
1.17582e-12
-1.77299e-13
-1.19747e-10
1.19924e-12
1.23328e-18
-1.19727e-10
1.21133e-12
1.77377e-13
-1.19727e-10
1.21143e-12
3.54782e-13
-1.19747e-10
1.1992e-12
5.34814e-13
-1.19799e-10
1.17583e-12
7.04011e-13
-1.19878e-10
1.17072e-12
8.73265e-13
-1.19983e-10
1.12829e-12
9.90853e-13
-1.20129e-10
1.20963e-12
-1.20227e-10
1.1326e-12
1.13278e-12
-9.04022e-13
-9.04164e-13
-1.88019e-10
1.06066e-12
1.06043e-12
-8.36999e-13
-9.5103e-13
-1.87856e-10
1.19926e-12
-6.73432e-13
-8.65688e-13
-1.87637e-10
1.01106e-12
-5.13486e-13
-9.27357e-13
-1.87477e-10
1.0714e-12
-3.36111e-13
-9.35644e-13
-1.87358e-10
1.06139e-12
-1.66147e-13
-9.6179e-13
-1.87283e-10
1.09688e-12
-4.0766e-17
-9.68486e-13
-1.87256e-10
1.11506e-12
1.65944e-13
-9.68244e-13
-1.87256e-10
1.11495e-12
3.35957e-13
-9.61822e-13
-1.87283e-10
1.09685e-12
5.13278e-13
-9.35528e-13
-1.87358e-10
1.06137e-12
6.73365e-13
-9.27369e-13
-1.87477e-10
1.07128e-12
8.36909e-13
-8.6557e-13
-1.87637e-10
1.01103e-12
9.04223e-13
-9.50855e-13
-1.87856e-10
1.19882e-12
-9.04183e-13
-1.88019e-10
1.06051e-12
1.06078e-12
-9.50868e-13
-8.36883e-13
-1.87856e-10
1.19882e-12
-7.86986e-13
-7.86947e-13
-1.87693e-10
-5.88186e-13
-7.472e-13
-1.87461e-10
-4.27271e-13
-7.74507e-13
-1.87292e-10
-2.73394e-13
-7.83674e-13
-1.8715e-10
-1.36567e-13
-7.98911e-13
-1.87053e-10
-7.45931e-17
-8.01215e-13
-1.87016e-10
1.36439e-13
-8.00982e-13
-1.87016e-10
2.73263e-13
-7.98931e-13
-1.87053e-10
4.27157e-13
-7.83535e-13
-1.8715e-10
5.88138e-13
-7.74537e-13
-1.87292e-10
7.87052e-13
-7.47124e-13
-1.87461e-10
9.51197e-13
-7.86982e-13
-1.87693e-10
-8.3701e-13
-1.87856e-10
1.19921e-12
-8.65624e-13
-6.73405e-13
-1.87637e-10
1.01109e-12
-7.47159e-13
-5.88112e-13
-1.87461e-10
-5.93831e-13
-5.93843e-13
-1.87225e-10
-4.49984e-13
-6.08104e-13
-1.8707e-10
-2.99972e-13
-6.25637e-13
-1.86938e-10
-1.53375e-13
-6.38944e-13
-1.86851e-10
-7.06358e-17
-6.42292e-13
-1.86818e-10
1.53309e-13
-6.4212e-13
-1.86818e-10
2.99924e-13
-6.38957e-13
-1.86851e-10
4.50021e-13
-6.25539e-13
-1.86938e-10
5.93944e-13
-6.08148e-13
-1.8707e-10
7.47381e-13
-5.93812e-13
-1.87225e-10
8.65948e-13
-5.88214e-13
-1.87461e-10
-6.73346e-13
-1.87637e-10
1.01112e-12
-9.27387e-13
-5.13332e-13
-1.87477e-10
1.07126e-12
-7.74573e-13
-4.27177e-13
-1.87292e-10
-6.08182e-13
-4.49986e-13
-1.8707e-10
-4.50967e-13
-4.50921e-13
-1.86915e-10
-2.97265e-13
-4.66275e-13
-1.86783e-10
-1.5113e-13
-4.74358e-13
-1.86695e-10
-6.31141e-17
-4.77483e-13
-1.8666e-10
1.51065e-13
-4.77368e-13
-1.8666e-10
2.97179e-13
-4.74333e-13
-1.86695e-10
4.50882e-13
-4.66152e-13
-1.86783e-10
6.08021e-13
-4.50844e-13
-1.86915e-10
7.74327e-13
-4.49832e-13
-1.8707e-10
9.2691e-13
-4.27032e-13
-1.87292e-10
-5.13267e-13
-1.87477e-10
1.0708e-12
-9.35559e-13
-3.36016e-13
-1.87358e-10
1.06136e-12
-7.83589e-13
-2.73301e-13
-1.8715e-10
-6.25596e-13
-2.99921e-13
-1.86938e-10
-4.66255e-13
-2.97195e-13
-1.86783e-10
-3.09367e-13
-3.09336e-13
-1.86657e-10
-1.57208e-13
-3.14325e-13
-1.8657e-10
-3.24312e-17
-3.16924e-13
-1.86536e-10
1.57194e-13
-3.16857e-13
-1.86536e-10
3.09367e-13
-3.14299e-13
-1.8657e-10
4.66321e-13
-3.09252e-13
-1.86657e-10
6.25734e-13
-2.97135e-13
-1.86784e-10
7.83851e-13
-2.99841e-13
-1.86938e-10
9.35966e-13
-2.73208e-13
-1.8715e-10
-3.36007e-13
-1.87358e-10
1.06183e-12
-9.61802e-13
-1.65972e-13
-1.87283e-10
1.09677e-12
-7.98952e-13
-1.36457e-13
-1.87053e-10
-6.38997e-13
-1.53299e-13
-1.86851e-10
-4.74405e-13
-1.5105e-13
-1.86695e-10
-3.14387e-13
-1.57148e-13
-1.8657e-10
-1.59319e-13
-1.59242e-13
-1.86482e-10
-1.51111e-17
-1.60553e-13
-1.86448e-10
1.59308e-13
-1.60506e-13
-1.86448e-10
3.14364e-13
-1.59199e-13
-1.86482e-10
4.74384e-13
-1.57057e-13
-1.8657e-10
6.38979e-13
-1.50961e-13
-1.86695e-10
7.9894e-13
-1.53195e-13
-1.86851e-10
9.61872e-13
-1.36371e-13
-1.87053e-10
-1.65963e-13
-1.87283e-10
1.09683e-12
-9.68263e-13
3.38949e-17
-1.87256e-10
1.11493e-12
-8.01024e-13
7.91874e-17
-1.87016e-10
-6.4217e-13
1.02416e-16
-1.86818e-10
-4.77429e-13
1.1006e-16
-1.8666e-10
-3.16928e-13
1.08407e-16
-1.86536e-10
-1.60603e-13
1.17514e-16
-1.86448e-10
1.66154e-17
1.08691e-16
-1.86414e-10
1.60648e-13
1.40485e-16
-1.86414e-10
3.16998e-13
1.38751e-16
-1.86448e-10
4.77548e-13
1.57087e-16
-1.86536e-10
6.42347e-13
1.63023e-16
-1.8666e-10
8.01235e-13
1.90183e-16
-1.86818e-10
9.68458e-13
2.33253e-16
-1.87016e-10
2.91013e-16
-1.87256e-10
1.11488e-12
-9.68438e-13
1.66184e-13
-1.87256e-10
1.11496e-12
-8.01206e-13
1.36625e-13
-1.87016e-10
-6.42307e-13
1.53458e-13
-1.86818e-10
-4.77509e-13
1.51216e-13
-1.8666e-10
-3.16963e-13
1.57322e-13
-1.86536e-10
-1.60611e-13
1.59454e-13
-1.86448e-10
2.57227e-17
1.60755e-13
-1.86414e-10
1.60642e-13
1.60804e-13
-1.86414e-10
3.16969e-13
1.59497e-13
-1.86448e-10
4.77474e-13
1.57417e-13
-1.86536e-10
6.42235e-13
1.51326e-13
-1.8666e-10
8.01101e-13
1.53602e-13
-1.86818e-10
9.68396e-13
1.36757e-13
-1.87016e-10
1.66286e-13
-1.87256e-10
1.11507e-12
-9.61761e-13
3.36179e-13
-1.87283e-10
1.09681e-12
-7.98903e-13
2.73492e-13
-1.87053e-10
-6.38954e-13
3.00109e-13
-1.86851e-10
-4.74363e-13
2.97383e-13
-1.86695e-10
-3.14347e-13
3.09529e-13
-1.8657e-10
-1.59281e-13
3.14556e-13
-1.86482e-10
5.19333e-17
3.17113e-13
-1.86448e-10
1.59354e-13
3.17193e-13
-1.86448e-10
3.14427e-13
3.14593e-13
-1.86482e-10
4.74443e-13
3.09635e-13
-1.8657e-10
6.39064e-13
2.97484e-13
-1.86695e-10
7.99009e-13
3.00269e-13
-1.86851e-10
9.61924e-13
2.73585e-13
-1.87053e-10
3.36387e-13
-1.87283e-10
1.09678e-12
-9.35564e-13
5.13615e-13
-1.87358e-10
1.06125e-12
-7.83637e-13
4.27434e-13
-1.8715e-10
-6.25637e-13
4.50203e-13
-1.86938e-10
-4.66258e-13
4.5111e-13
-1.86783e-10
-3.0934e-13
4.6648e-13
-1.86657e-10
-1.57162e-13
4.74604e-13
-1.8657e-10
7.0812e-17
4.77646e-13
-1.86536e-10
1.57255e-13
4.77772e-13
-1.86536e-10
3.09435e-13
4.74637e-13
-1.8657e-10
4.66344e-13
4.66602e-13
-1.86657e-10
6.25769e-13
4.51188e-13
-1.86783e-10
7.83834e-13
4.50325e-13
-1.86938e-10
9.35969e-13
4.27391e-13
-1.8715e-10
5.13535e-13
-1.87358e-10
1.06195e-12
-9.27299e-13
6.73608e-13
-1.87477e-10
1.07129e-12
-7.7449e-13
5.88424e-13
-1.87292e-10
-6.08131e-13
5.9415e-13
-1.8707e-10
-4.50884e-13
6.0831e-13
-1.86915e-10
-2.97186e-13
6.25908e-13
-1.86783e-10
-1.51042e-13
6.39233e-13
-1.86695e-10
9.63856e-17
6.42428e-13
-1.8666e-10
1.51181e-13
6.42601e-13
-1.8666e-10
2.97323e-13
6.3926e-13
-1.86695e-10
4.50997e-13
6.26049e-13
-1.86783e-10
6.08223e-13