/*--------------------------------*- C++ -*----------------------------------*\
| =========                 |                                                 |
| \\      /  F ield         | OpenFOAM: The Open Source CFD Toolbox           |
|  \\    /   O peration     | Version:  v2106                                 |
|   \\  /    A nd           | Website:  www.openfoam.com                      |
|    \\/     M anipulation  |                                                 |
\*---------------------------------------------------------------------------*/
FoamFile
{
    version     2.0;
    format      ascii;
    arch        "LSB;label=32;scalar=64";
    class       volScalarField;
    location    "0.000147";
    object      alphat;
}
// * * * * * * * * * * * * * * * * * * * * * * * * * * * * * * * * * * * * * //

dimensions      [1 -1 -1 0 0 0 0];

internalField   nonuniform List<scalar> 
18109
(
3.79838e-06
1.22479e-06
3.5228e-07
1.0207e-07
3.65772e-08
1.95243e-08
1.55611e-08
1.64613e-06
4.20477e-07
8.88623e-08
1.74363e-08
4.07187e-09
1.81879e-09
1.67118e-09
6.96423e-07
1.75534e-07
4.08277e-08
9.35903e-09
2.08428e-09
4.38644e-10
1.70259e-10
4.77451e-07
1.54051e-07
4.74584e-08
1.33385e-08
3.14739e-09
5.60337e-10
7.79309e-11
4.50695e-07
1.64397e-07
5.47947e-08
1.57126e-08
3.63612e-09
6.31043e-10
8.00838e-11
4.61174e-07
1.7438e-07
5.71829e-08
1.57109e-08
3.44922e-09
5.77911e-10
7.36349e-11
5.311e-07
1.94337e-07
6.01374e-08
1.54954e-08
3.21987e-09
5.26579e-10
8.07396e-11
6.75274e-07
2.33136e-07
6.78014e-08
1.64727e-08
3.30487e-09
6.08624e-10
2.00585e-10
1.10097e-06
2.78618e-07
6.13936e-08
1.38165e-08
4.71821e-09
3.11569e-09
2.91774e-09
2.90044e-09
2.96089e-09
2.86262e-09
2.48722e-09
2.88655e-09
8.36904e-09
4.07344e-08
3.89186e-07
8.29396e-08
1.50297e-08
2.56788e-09
5.42849e-10
2.55048e-10
2.60839e-10
3.08513e-10
3.64313e-10
3.97588e-10
3.65312e-10
6.01678e-10
3.40456e-09
2.39137e-08
1.78027e-07
4.47966e-08
1.06353e-08
2.39903e-09
4.91257e-10
8.76252e-11
2.53026e-11
2.52861e-11
3.23774e-11
3.89106e-11
4.79224e-11
2.22854e-10
1.88465e-09
1.42904e-08
1.57721e-07
4.85911e-08
1.38099e-08
3.46842e-09
7.21636e-10
1.14621e-10
1.35801e-11
2.49518e-12
2.30393e-12
3.03842e-12
8.059e-12
8.19515e-11
8.42358e-10
6.89907e-09
1.54654e-07
5.16467e-08
1.54397e-08
3.92666e-09
8.04481e-10
1.25749e-10
1.4063e-11
1.22874e-12
1.94627e-13
2.70046e-13
2.24886e-12
3.12442e-11
3.41915e-10
2.87725e-09
1.6159e-07
5.47588e-08
1.59441e-08
3.87164e-09
7.51233e-10
1.12634e-10
1.24671e-11
1.26601e-12
2.88915e-13
2.07829e-13
9.04711e-13
1.29622e-11
1.51815e-10
1.32592e-09
1.88807e-07
6.12263e-08
1.67729e-08
3.81786e-09
7.01985e-10
1.02466e-10
1.33076e-11
3.69563e-12
2.52813e-12
1.99723e-12
1.90069e-12
7.83309e-12
8.26679e-11
7.53043e-10
2.40305e-07
7.31297e-08
1.87582e-08
4.01792e-09
7.10561e-10
1.14957e-10
3.31414e-11
2.43571e-11
2.11306e-11
1.80745e-11
1.53432e-11
1.85413e-11
6.84133e-11
5.64195e-10
3.16315e-07
9.07718e-08
2.21036e-08
4.55787e-09
8.46505e-10
2.32118e-10
1.63812e-10
1.57215e-10
1.44685e-10
1.3114e-10
1.17985e-10
1.22124e-10
1.63419e-10
6.51845e-10
4.29742e-07
1.18832e-07
2.84399e-08
6.05179e-09
1.50966e-09
8.56456e-10
8.40085e-10
8.5643e-10
8.18468e-10
7.79948e-10
7.49024e-10
7.81939e-10
8.33544e-10
1.55501e-09
5.79679e-07
1.58756e-07
3.8992e-08
9.72678e-09
4.06689e-09
3.50872e-09
3.74203e-09
3.93157e-09
3.89998e-09
3.90457e-09
3.99179e-09
4.25435e-09
4.42996e-09
6.34161e-09
8.59998e-07
2.49071e-07
6.71338e-08
2.1861e-08
1.3572e-08
1.32801e-08
1.43541e-08
1.54193e-08
1.59033e-08
1.67442e-08
1.81272e-08
1.98073e-08
2.08245e-08
2.7226e-08
1.55044e-06
5.12773e-07
1.54842e-07
6.10327e-08
4.46065e-08
4.47038e-08
4.80658e-08
5.24494e-08
5.62667e-08
6.2193e-08
7.0963e-08
8.05931e-08
8.71836e-08
1.07055e-07
3.30664e-06
1.2922e-06
4.34086e-07
1.8118e-07
1.34893e-07
1.33609e-07
1.41652e-07
1.55954e-07
1.73693e-07
2.01472e-07
2.42347e-07
2.8894e-07
3.28599e-07
3.85316e-07
4.5591e-06
1.10281e-05
2.30687e-05
3.72755e-05
5.07162e-05
6.10309e-05
1.33513e-06
4.18769e-06
1.10202e-05
2.15054e-05
3.41375e-05
4.6059e-05
6.13154e-07
2.65176e-06
7.95716e-06
1.70244e-05
2.84006e-05
3.94768e-05
3.01869e-07
1.57526e-06
5.27334e-06
1.23277e-05
2.20594e-05
3.24785e-05
1.4303e-07
8.84624e-07
3.30968e-06
8.45611e-06
1.62847e-05
2.54552e-05
6.82655e-08
4.82025e-07
2.02045e-06
5.63455e-06
1.16043e-05
1.91122e-05
3.91256e-08
2.77283e-07
1.23306e-06
3.65804e-06
8.00672e-06
1.40095e-05
2.85997e-08
1.83946e-07
8.09165e-07
2.47643e-06
5.66196e-06
1.03207e-05
2.28538e-08
1.31291e-07
5.54623e-07
1.7056e-06
4.0171e-06
7.58416e-06
1.96042e-08
1.0429e-07
4.19442e-07
1.269e-06
3.02652e-06
5.8709e-06
1.74484e-08
8.93133e-08
3.48803e-07
1.04796e-06
2.51591e-06
4.98725e-06
1.62575e-08
8.32442e-08
3.24576e-07
9.91203e-07
2.49485e-06
5.47018e-06
1.973e-08
1.01745e-07
4.10015e-07
1.33954e-06
3.66075e-06
8.49932e-06
4.3308e-08
2.1483e-07
8.40954e-07
2.62158e-06
6.60986e-06
1.36928e-05
1.59572e-07
6.50125e-07
2.10155e-06
5.39031e-06
1.12431e-05
1.9473e-05
2.09116e-07
8.0556e-07
2.53978e-06
6.38682e-06
1.29072e-05
2.1431e-05
1.52655e-07
6.30705e-07
2.11589e-06
5.60559e-06
1.17813e-05
2.01662e-05
9.12778e-08
4.17187e-07
1.51819e-06
4.32808e-06
9.71436e-06
1.75714e-05
4.48835e-08
2.35384e-07
9.51496e-07
2.97737e-06
7.29554e-06
1.42913e-05
1.91995e-08
1.11028e-07
5.08938e-07
1.82819e-06
5.12146e-06
1.08192e-05
8.90655e-09
5.38372e-08
2.66438e-07
1.11701e-06
3.47804e-06
7.92955e-06
5.34688e-09
3.41098e-08
1.79546e-07
7.62876e-07
2.42087e-06
5.77222e-06
4.27853e-09
2.8337e-08
1.46958e-07
5.84808e-07
1.77801e-06
4.19441e-06
4.45604e-09
2.82789e-08
1.36216e-07
5.02536e-07
1.44099e-06
3.27571e-06
6.56901e-09
3.59538e-08
1.54818e-07
5.26771e-07
1.4457e-06
3.30163e-06
1.73494e-08
7.63168e-08
2.83671e-07
8.83814e-07
2.33983e-06
5.36903e-06
6.25873e-08
2.32979e-07
7.50109e-07
2.0738e-06
4.94665e-06
1.02279e-05
2.22244e-07
7.05797e-07
1.94343e-06
4.62466e-06
9.49686e-06
1.69156e-05
7.45588e-07
1.9872e-06
4.57926e-06
9.06089e-06
1.55876e-05
2.35662e-05
1.24958e-06
2.91673e-06
6.10386e-06
1.12772e-05
1.83171e-05
2.63767e-05
1.11395e-06
2.68974e-06
5.76738e-06
1.08271e-05
1.78003e-05
2.58818e-05
9.16147e-07
2.28397e-06
5.01665e-06
9.6345e-06
1.6192e-05
2.40158e-05
7.21904e-07
1.84602e-06
4.14226e-06
8.14126e-06
1.3994e-05
2.11357e-05
5.68225e-07
1.46331e-06
3.30758e-06
6.56216e-06
1.14618e-05
1.77132e-05
4.69765e-07
1.20041e-06
2.70038e-06
5.35734e-06
9.40561e-06
1.46586e-05
4.10774e-07
1.03295e-06
2.28836e-06
4.48812e-06
7.81501e-06
1.20829e-05
3.73711e-07
9.33508e-07
2.04285e-06
3.94499e-06
6.77764e-06
1.05792e-05
3.57816e-07
8.81725e-07
1.90811e-06
3.72436e-06
6.80592e-06
1.20385e-05
3.64236e-07
9.09408e-07
2.1184e-06
4.71021e-06
9.91466e-06
1.91767e-05
5.08823e-07
1.40817e-06
3.61818e-06
8.41711e-06
1.74055e-05
3.12361e-05
1.22863e-06
3.24128e-06
7.62148e-06
1.56315e-05
2.79234e-05
4.36234e-05
3.28756e-06
7.20914e-06
1.41338e-05
2.44744e-05
3.78195e-05
5.21007e-05
7.19361e-06
1.28671e-05
2.11204e-05
3.14846e-05
4.29844e-05
5.3755e-05
1.39003e-06
3.62369e-06
8.71726e-06
1.85872e-05
3.43336e-05
5.41229e-05
2.31504e-06
6.15319e-06
1.42829e-05
2.78468e-05
4.5847e-05
6.52769e-05
4.93047e-06
1.11297e-05
2.19486e-05
3.6868e-05
5.39175e-05
6.91713e-05
9.3748e-06
1.73522e-05
2.89238e-05
4.25047e-05
5.60734e-05
6.67224e-05
4.72918e-06
1.04304e-05
1.90971e-05
2.97408e-05
4.08393e-05
5.06512e-05
3.7151e-06
8.65863e-06
1.63713e-05
2.60077e-05
3.61088e-05
4.52568e-05
2.71739e-06
6.54645e-06
1.286e-05
2.12079e-05
3.04495e-05
3.93153e-05
1.9134e-06
4.71394e-06
9.58741e-06
1.65431e-05
2.47666e-05
3.28811e-05
1.34089e-06
3.35274e-06
7.00981e-06
1.25092e-05
1.95195e-05
2.69375e-05
9.24826e-07
2.32976e-06
4.9244e-06
9.04748e-06
1.49682e-05
2.17091e-05
6.62564e-07
1.65315e-06
3.58167e-06
6.8925e-06
1.19265e-05
1.78298e-05
5.03536e-07
1.2774e-06
2.89984e-06
5.84501e-06
1.02194e-05
1.5435e-05
4.36671e-07
1.14929e-06
2.67756e-06
5.40561e-06
9.51056e-06
1.54207e-05
4.39797e-07
1.14994e-06
2.65004e-06
5.47902e-06
1.06745e-05
2.00474e-05
4.71736e-07
1.23518e-06
3.0579e-06
7.18383e-06
1.56192e-05
2.99862e-05
6.30673e-07
1.86313e-06
5.06851e-06
1.20205e-05
2.42172e-05
4.12203e-05
1.43061e-06
3.88584e-06
9.28808e-06
1.8865e-05
3.28325e-05
4.8945e-05
3.38044e-06
7.34639e-06
1.43498e-05
2.45689e-05
3.72611e-05
5.01243e-05
5.58402e-05
7.30642e-05
8.51587e-05
8.9808e-05
7.28384e-05
4.85074e-05
6.44993e-05
7.77484e-05
8.48855e-05
7.04926e-05
4.12706e-05
5.54452e-05
6.8117e-05
7.56601e-05
6.77349e-05
3.41858e-05
4.59897e-05
5.71277e-05
6.57653e-05
6.47656e-05
2.77837e-05
3.7207e-05
4.70679e-05
5.69235e-05
6.32296e-05
2.17401e-05
2.9214e-05
3.80166e-05
4.98407e-05
6.44532e-05
1.66084e-05
2.26699e-05
3.05762e-05
4.54268e-05
6.99114e-05
1.25878e-05
1.79708e-05
2.66395e-05
4.69562e-05
8.07882e-05
0.000104072
9.80415e-06
1.57883e-05
2.85424e-05
5.56678e-05
9.55944e-05
0.000122401
8.74357e-06
1.82074e-05
3.7353e-05
6.84912e-05
0.000108496
0.000138437
1.08964e-05
2.64305e-05
5.05799e-05
8.03091e-05
0.000114082
0.000150334
0.000169925
1.67173e-05
3.76844e-05
6.32304e-05
8.68109e-05
0.000109329
0.000148664
0.000220496
0.000167811
2.36788e-05
4.69906e-05
6.96052e-05
8.57015e-05
9.51203e-05
0.000117959
0.000263561
0.000517435
2.90207e-05
5.14788e-05
7.06957e-05
8.33041e-05
8.57864e-05
7.6044e-05
0.000100524
0.00056993
3.0515e-05
5.17498e-05
7.06715e-05
8.55528e-05
8.82259e-05
6.58569e-05
7.11437e-05
0.000416972
2.92291e-05
4.86473e-05
6.81606e-05
8.48331e-05
8.78272e-05
6.30686e-05
6.43202e-05
0.000353496
2.62404e-05
4.37791e-05
6.25537e-05
7.85185e-05
8.19016e-05
6.33385e-05
6.23834e-05
0.000179638
2.24322e-05
3.77676e-05
5.43744e-05
6.93158e-05
7.39072e-05
6.30874e-05
6.19625e-05
0.000231344
1.83178e-05
3.10665e-05
4.51584e-05
5.91113e-05
6.55544e-05
6.22862e-05
6.51783e-05
0.000265813
1.4347e-05
2.44307e-05
3.59457e-05
4.89855e-05
5.81582e-05
6.52704e-05
7.32085e-05
0.00022383
1.08493e-05
1.85422e-05
2.78078e-05
4.05784e-05
5.55433e-05
7.51931e-05
8.40483e-05
9.32195e-05
7.89332e-06
1.41866e-05
2.28302e-05
3.73522e-05
6.10586e-05
9.10171e-05
0.00010108
9.61638e-05
6.11881e-06
1.24839e-05
2.33334e-05
4.23006e-05
7.451e-05
0.000111284
6.59357e-06
1.5977e-05
3.19419e-05
5.52069e-05
8.98573e-05
0.000129109
1.07802e-05
2.56994e-05
4.67482e-05
7.03798e-05
9.90643e-05
0.000140039
1.82903e-05
3.81949e-05
6.11664e-05
8.06749e-05
9.87169e-05
0.000136435
2.6317e-05
4.80319e-05
6.82477e-05
8.13404e-05
8.77027e-05
0.000108588
3.21718e-05
5.24396e-05
6.92349e-05
7.92161e-05
7.74163e-05
3.45713e-05
5.34527e-05
7.01448e-05
8.22375e-05
7.72061e-05
3.4071e-05
5.15116e-05
6.84979e-05
8.22153e-05
7.61449e-05
3.17126e-05
4.73711e-05
6.35833e-05
7.71581e-05
7.39914e-05
2.80408e-05
4.20302e-05
5.63819e-05
7.03967e-05
7.22515e-05
2.394e-05
3.58999e-05
4.88945e-05
6.43114e-05
7.35235e-05
1.9655e-05
2.99487e-05
4.30151e-05
6.07629e-05
8.08784e-05
1.62507e-05
2.61618e-05
4.15976e-05
6.39737e-05
9.5751e-05
1.56181e-05
2.91589e-05
4.98496e-05
7.8926e-05
0.000117174
2.06723e-05
4.21125e-05
6.98318e-05
0.000101477
0.000139105
3.30674e-05
6.21596e-05
9.2165e-05
0.000118441
0.000149758
4.84355e-05
7.99289e-05
0.000104875
0.000121418
0.000145705
6.04743e-05
8.71432e-05
0.000103045
0.000110749
0.000126742
6.47663e-05
8.40433e-05
9.26539e-05
9.42879e-05
9.6188e-05
6.27863e-05
7.87251e-05
8.65176e-05
8.71915e-05
7.62733e-05
5.84511e-05
7.29947e-05
8.26635e-05
8.62713e-05
7.147e-05
5.23515e-05
6.54178e-05
7.56329e-05
8.20256e-05
7.17282e-05
4.60323e-05
5.70149e-05
6.68854e-05
7.52652e-05
7.38325e-05
3.93016e-05
4.81401e-05
5.80472e-05
6.99093e-05
7.83504e-05
3.2825e-05
4.02812e-05
5.13627e-05
6.83658e-05
8.73441e-05
2.6915e-05
3.42417e-05
4.78027e-05
7.22253e-05
0.000100693
2.26536e-05
3.16736e-05
5.04863e-05
8.31453e-05
0.000117306
2.1263e-05
3.57017e-05
6.26422e-05
0.000101355
0.000137301
2.49914e-05
4.89619e-05
8.36919e-05
0.000121935
0.000154819
3.51686e-05
6.80091e-05
0.000103661
0.000133769
0.000162541
4.9181e-05
8.46742e-05
0.000113647
0.00013247
0.00015797
6.01238e-05
9.13354e-05
0.000109742
0.000118116
0.000136766
6.43309e-05
8.77311e-05
9.79521e-05
9.92438e-05
0.000101633
6.15636e-05
8.04746e-05
8.96471e-05
9.0274e-05
7.80573e-05
1.1319e-07
2.30491e-08
4.46591e-09
9.94589e-10
4.19473e-10
3.62339e-10
3.93017e-10
4.22305e-10
4.32664e-10
4.08574e-10
3.14201e-10
2.26376e-10
3.91929e-10
2.43609e-09
3.428e-08
7.14874e-09
1.41075e-09
2.74922e-10
6.18681e-11
2.94117e-11
3.25081e-11
4.14558e-11
4.89805e-11
5.20818e-11
4.34668e-11
3.96087e-11
2.0175e-10
1.9046e-09
2.59545e-08
7.07427e-09
1.77621e-09
4.064e-10
8.09348e-11
1.37437e-11
3.39719e-12
3.21749e-12
4.23901e-12
4.87727e-12
4.56587e-12
1.20311e-11
1.29269e-10
1.32021e-09
3.01269e-08
9.16885e-09
2.52646e-09
6.04408e-10
1.19387e-10
1.84238e-11
2.16318e-12
3.35667e-13
2.91049e-13
3.72247e-13
5.22802e-13
4.61431e-12
6.48696e-11
7.13784e-10
3.31917e-08
1.06306e-08
2.98323e-09
7.0816e-10
1.36315e-10
2.05582e-11
2.30234e-12
1.84908e-13
2.47941e-14
2.44312e-14
1.06666e-13
1.93513e-12
2.9736e-11
3.37023e-10
3.76001e-08
1.17798e-08
3.15612e-09
7.07151e-10
1.28291e-10
1.83777e-11
1.98752e-12
1.69104e-13
2.5628e-14
1.36167e-14
4.35599e-14
8.64121e-13
1.41723e-11
1.65573e-10
4.6451e-08
1.36774e-08
3.41333e-09
7.12924e-10
1.21364e-10
1.65543e-11
1.91019e-12
3.66238e-13
2.12277e-13
1.51868e-13
1.2065e-13
5.23e-13
7.70966e-12
9.25286e-11
6.00516e-08
1.63832e-08
3.78626e-09
7.34588e-10
1.17765e-10
1.67847e-11
3.8287e-12
2.41227e-12
1.99163e-12
1.56316e-12
1.16134e-12
1.19462e-12
5.2959e-12
5.90674e-11
7.82265e-08
1.99718e-08
4.33771e-09
7.96183e-10
1.28919e-10
2.95748e-11
1.9248e-11
1.75965e-11
1.56372e-11
1.30495e-11
1.03633e-11
9.22234e-12
1.08816e-11
5.51863e-11
1.02925e-07
2.48866e-08
5.19126e-09
9.51737e-10
2.03133e-10
1.10838e-10
1.11125e-10
1.09867e-10
1.02095e-10
8.99605e-11
7.6741e-11
6.99949e-11
6.23734e-11
1.03212e-10
1.32059e-07
3.05739e-08
6.32918e-09
1.3324e-09
5.41189e-10
5.06681e-10
5.63484e-10
5.79192e-10
5.62288e-10
5.23211e-10
4.78774e-10
4.5107e-10
3.98132e-10
4.50185e-10
1.76543e-07
4.07785e-08
9.0227e-09
2.7382e-09
1.97007e-09
2.15559e-09
2.4539e-09
2.603e-09
2.64404e-09
2.60301e-09
2.54627e-09
2.4867e-09
2.25611e-09
2.32639e-09
2.74056e-07
6.89702e-08
1.75213e-08
7.7978e-09
7.19162e-09
8.11578e-09
9.28373e-09
1.01147e-08
1.07592e-08
1.12121e-08
1.16941e-08
1.19708e-08
1.13252e-08
1.12306e-08
5.62501e-07
1.63598e-07
4.64208e-08
2.44676e-08
2.39703e-08
2.69136e-08
3.07653e-08
3.43256e-08
3.82586e-08
4.21454e-08
4.68079e-08
5.07391e-08
5.08628e-08
5.00097e-08
5.96971e-09
1.26115e-09
2.76153e-10
8.06046e-11
5.50949e-11
6.01575e-11
7.16651e-11
8.19094e-11
8.65192e-11
8.06552e-11
5.87725e-11
3.37378e-11
2.24857e-11
1.07734e-10
2.97591e-09
6.97679e-10
1.53547e-10
3.2677e-11
8.11569e-12
4.72245e-12
5.84331e-12
7.79437e-12
9.46788e-12
9.90378e-12
7.85497e-12
4.82769e-12
9.8846e-12
1.04677e-10
4.08881e-09
1.10262e-09
2.71938e-10
6.00916e-11
1.1474e-11
1.95034e-12
5.63579e-13
5.92322e-13
8.08514e-13
9.40975e-13
8.06936e-13
8.19779e-13
7.40197e-12
9.32839e-11
5.65419e-09
1.64111e-09
4.24169e-10
9.48074e-11
1.76612e-11
2.65732e-12
3.2331e-13
5.82557e-14
5.4899e-14
7.10082e-14
7.1889e-14
2.76033e-13
4.71435e-12
6.4678e-11
7.02862e-09
2.07291e-09
5.33155e-10
1.16482e-10
2.09671e-11
3.04291e-12
3.42297e-13
2.94001e-14
4.38745e-15
4.35569e-15
8.1769e-15
1.37906e-13
2.79786e-12
4.00842e-11
8.40109e-09
2.37163e-09
5.76236e-10
1.18534e-10
2.01189e-11
2.76854e-12
2.98174e-13
2.5137e-14
2.69799e-15
1.1215e-15
2.67507e-15
7.03043e-14
1.57112e-12
2.3804e-11
1.03715e-08
2.73808e-09
6.1866e-10
1.18398e-10
1.87733e-11
2.43207e-12
2.64531e-13
3.86069e-14
1.71217e-14
1.10033e-14
7.74117e-15
4.43578e-14
9.43878e-13
1.47804e-11
1.30154e-08
3.18974e-09
6.66649e-10
1.18212e-10
1.75432e-11
2.29283e-12
4.27112e-13
2.23453e-13
1.70583e-13
1.22422e-13
8.02737e-14
7.81844e-14
6.06695e-13
9.31827e-12
1.62106e-08
3.71722e-09
7.26111e-10
1.20608e-10
1.77013e-11
3.53022e-12
2.06245e-12
1.77248e-12
1.48615e-12
1.13662e-12
7.94759e-13
6.06809e-13
7.90145e-13
6.91399e-12
2.02081e-08
4.35874e-09
8.07809e-10
1.31285e-10
2.50267e-11
1.32705e-11
1.32161e-11
1.24733e-11
1.09429e-11
8.84928e-12
6.64182e-12
5.24845e-12
4.09291e-12
7.87075e-12
2.41119e-08
4.95313e-09
9.01322e-10
1.66728e-10
6.76084e-11
6.79456e-11
7.63657e-11
7.5099e-11
6.87009e-11
5.8626e-11
4.72213e-11
3.89824e-11
2.98015e-11
2.90366e-11
2.85777e-08
5.71569e-09
1.10433e-09
3.24696e-10
2.7416e-10
3.28162e-10
3.81539e-10
3.88651e-10
3.70925e-10
3.33881e-10
2.87595e-10
2.47284e-10
1.95211e-10
1.69651e-10
3.5297e-08
7.43032e-09
1.78213e-09
9.8882e-10
1.1341e-09
1.40576e-09
1.65816e-09
1.74512e-09
1.73854e-09
1.65272e-09
1.51754e-09
1.36335e-09
1.12334e-09
9.46159e-10
5.76427e-08
1.40976e-08
4.37e-09
3.48839e-09
4.2771e-09
5.31994e-09
6.31777e-09
6.85493e-09
7.13324e-09
7.17043e-09
6.98511e-09
6.5801e-09
5.70084e-09
4.81225e-09
5.0035e-10
1.12929e-10
2.94054e-11
1.17417e-11
1.03994e-11
1.254e-11
1.58525e-11
1.88853e-11
2.05903e-11
1.93909e-11
1.41684e-11
7.77903e-12
3.54868e-12
7.76428e-12
4.4443e-10
1.05844e-10
2.35324e-11
5.00325e-12
1.33742e-12
9.50382e-13
1.28985e-12
1.7788e-12
2.21487e-12
2.34321e-12
1.86801e-12
1.07026e-12
8.54497e-13
7.39131e-12
7.55394e-10
1.97347e-10
4.6527e-11
9.77899e-12
1.79667e-12
3.1063e-13
1.11948e-13
1.33871e-13
1.87204e-13
2.2229e-13
1.9264e-13
1.29045e-13
5.43018e-13
7.60571e-12
1.14315e-09
3.14296e-10
7.62434e-11
1.60509e-11
2.85797e-12
4.21272e-13
5.30467e-14
1.19792e-14
1.27316e-14
1.67166e-14
1.60655e-14
2.39745e-14
3.78681e-13
6.13456e-12
1.51371e-09
4.14658e-10
9.89639e-11
2.02385e-11
3.46831e-12
4.89199e-13
5.52566e-14
5.16066e-15
1.02213e-15
1.08557e-15
1.2852e-15
1.06094e-14
2.60551e-13
4.48454e-12
1.84467e-09
4.80317e-10
1.08303e-10
2.08958e-11
3.38456e-12
4.52918e-13
4.88098e-14
4.28732e-15
4.8631e-16
2.28418e-16
2.96891e-16
5.82725e-15
1.6462e-13
3.05205e-12
2.24845e-09
5.46388e-10
1.14547e-10
2.05453e-11
3.09938e-12
3.88749e-13
4.1338e-14
5.35723e-15
1.97291e-15
1.19901e-15
7.87253e-16
3.99989e-15
1.08701e-13
2.10863e-12
2.7425e-09
6.1947e-10
1.20373e-10
2.00314e-11
2.82423e-12
3.51331e-13
5.75714e-14
2.61564e-14
1.88051e-14
1.27512e-14
7.84995e-15
6.99751e-15
7.17963e-14
1.40756e-12
3.27089e-09
6.91701e-10
1.25703e-10
1.9566e-11
2.70044e-12
4.88283e-13
2.56439e-13
2.11917e-13
1.70632e-13
1.22998e-13
8.01353e-14
5.52435e-14
7.94336e-14
9.95736e-13
3.84795e-09
7.66548e-10
1.32116e-10
1.9997e-11
3.53633e-12
1.7886e-12
1.72667e-12
1.58834e-12
1.338e-12
1.01803e-12
7.0695e-13
5.06727e-13
3.65218e-13
8.60379e-13
4.31538e-09
8.19123e-10
1.37297e-10
2.34576e-11
9.50844e-12
9.79652e-12
1.07894e-11
1.03327e-11
9.05843e-12
7.2605e-12
5.37667e-12
4.04663e-12
2.81568e-12
2.52574e-12
4.66912e-09
8.60355e-10
1.52887e-10
4.46775e-11
4.17336e-11
5.17329e-11
5.91012e-11
5.84885e-11
5.33277e-11
4.49317e-11
3.54092e-11
2.77813e-11
1.98238e-11
1.54729e-11
4.99808e-09
9.56832e-10
2.24061e-10
1.46278e-10
1.88646e-10
2.43407e-10
2.83668e-10
2.89593e-10
2.74569e-10
2.42974e-10
2.03169e-10
1.65704e-10
1.22332e-10
9.35296e-11
6.74396e-09
1.53402e-09
5.52804e-10
5.68871e-10
7.79542e-10
1.0164e-09
1.20085e-09
1.2628e-09
1.24494e-09
1.15555e-09
1.01862e-09
8.62698e-10
6.64169e-10
5.09261e-10
4.82442e-11
1.0924e-11
3.04193e-12
1.64114e-12
1.82898e-12
2.43493e-12
3.23883e-12
4.00807e-12
4.48945e-12
4.31838e-12
3.21898e-12
1.7838e-12
7.47151e-13
6.37378e-13
6.97471e-11
1.64462e-11
3.58056e-12
7.48125e-13
2.14707e-13
1.81438e-13
2.64819e-13
3.77121e-13
4.78447e-13
5.14917e-13
4.17951e-13
2.42041e-13
1.14551e-13
4.8097e-13
1.30421e-10
3.2887e-11
7.41957e-12
1.49283e-12
2.64664e-13
4.70385e-14
2.13199e-14
2.83927e-14
4.04233e-14
4.85258e-14
4.26079e-14
2.63664e-14
4.01139e-14
5.41053e-13
2.08301e-10
5.44454e-11
1.25106e-11
2.50425e-12
4.28209e-13
6.18465e-14
8.10505e-15
2.37763e-15
2.82215e-15
3.71601e-15
3.56378e-15
2.98169e-15
2.71909e-14
4.96552e-13
2.83809e-10
7.30754e-11
1.64159e-11
3.18161e-12
5.23332e-13
7.20635e-14
8.20215e-15
8.86326e-16
2.86034e-16
3.1475e-16
3.29055e-16
8.50593e-16
2.0675e-14
4.15716e-13
3.45509e-10
8.42346e-11
1.78818e-11
3.27484e-12
5.09957e-13
6.66412e-14
7.22246e-15
7.20701e-16
1.56294e-16
1.18631e-16
1.19547e-16
4.91381e-16
1.43633e-14
3.16724e-13
4.07164e-10
9.24881e-11
1.82657e-11
3.11374e-12
4.52104e-13
5.54226e-14
5.88547e-15
7.80932e-16
3.01182e-16
2.05991e-16
1.57844e-16
3.82667e-16
1.02011e-14
2.38468e-13
4.73591e-10
9.99111e-11
1.83154e-11
2.90193e-12
3.94136e-13
4.75811e-14
7.31864e-15
3.03286e-15
2.07775e-15
1.36223e-15
8.19399e-16
6.60814e-16
7.0144e-15
1.67672e-13
5.34425e-10
1.05459e-10
1.80636e-11
2.67608e-12
3.54641e-13
6.12293e-14
3.02875e-14
2.40898e-14
1.85699e-14
1.26598e-14
7.74264e-15
4.86629e-15
7.26047e-15
1.17893e-13
5.88994e-10
1.0959e-10
1.77951e-11
2.5604e-12
4.39177e-13
2.22523e-13
2.09506e-13
1.86816e-13
1.50368e-13
1.07684e-13
6.96635e-14
4.53782e-14
3.0328e-14
8.89865e-14
6.14968e-10
1.08834e-10
1.71289e-11
2.82503e-12
1.21474e-12
1.28399e-12
1.37801e-12
1.27714e-12
1.06701e-12
8.02436e-13
5.50629e-13
3.76828e-13
2.40042e-13
2.02717e-13
6.09059e-10
1.04786e-10
1.76481e-11
5.5251e-12
5.74444e-12
7.22545e-12
8.03662e-12
7.67855e-12
6.64868e-12
5.23798e-12
3.80175e-12
2.71186e-12
1.76718e-12
1.24047e-12
5.81467e-10
1.04318e-10
2.51455e-11
1.99891e-11
2.79134e-11
3.64507e-11
4.14177e-11
4.07316e-11
3.65289e-11
3.00957e-11
2.3031e-11
1.70386e-11
1.14119e-11
7.90228e-12
6.83918e-10
1.50332e-10
6.66683e-11
8.45524e-11
1.24113e-10
1.64267e-10
1.89646e-10
1.91633e-10
1.7775e-10
1.52687e-10
1.22346e-10
9.35284e-11
6.47654e-11
4.52186e-11
5.18914e-12
1.17001e-12
3.35119e-13
2.22275e-13
2.86338e-13
4.10443e-13
5.73885e-13
7.37621e-13
8.47996e-13
8.32645e-13
6.33359e-13
3.59996e-13
1.51205e-13
7.12157e-14
1.01275e-11
2.32847e-12
4.88953e-13
9.95205e-14
3.07663e-14
3.04532e-14
4.73469e-14
6.96023e-14
9.00298e-14
9.82809e-14
8.09889e-14
4.79399e-14
2.02758e-14
3.04903e-14
1.99152e-11
4.82524e-12
1.03962e-12
2.0001e-13
3.42433e-14
6.38331e-15
3.67821e-15
5.32326e-15
7.69072e-15
9.29842e-15
8.25576e-15
5.13677e-15
3.55268e-15
3.3272e-14
3.30376e-11
8.20615e-12
1.78657e-12
3.40196e-13
5.5891e-14
7.94083e-15
1.15069e-15
4.86712e-16
6.12751e-16
7.87074e-16
7.60173e-16
5.53016e-16
1.80886e-15
3.36336e-14
4.5566e-11
1.1079e-11
2.35223e-12
4.33645e-13
6.86124e-14
9.26791e-15
1.12246e-15
2.04568e-16
1.32709e-16
1.40775e-16
1.4248e-16
1.5662e-16
1.43513e-15
3.1224e-14
5.48346e-11
1.2618e-11
2.53741e-12
4.43384e-13
6.65708e-14
8.55077e-15
9.93033e-16
1.77626e-16
1.07044e-16
1.02553e-16
1.02452e-16
1.21411e-16
1.1e-15
2.62392e-14
6.20864e-11
1.33251e-11
2.5005e-12
4.08007e-13
5.73014e-14
6.93484e-15
8.01029e-16
1.76338e-16
1.18469e-16
1.08583e-16
1.04184e-16
1.16266e-16
8.55922e-16
2.14334e-14
6.82916e-11
1.36305e-11
2.38191e-12
3.62273e-13
4.77275e-14
5.68177e-15
8.96454e-16
3.90453e-16
2.81645e-16
2.08087e-16
1.5627e-16
1.3796e-16
6.47589e-16
1.60455e-14
7.23937e-11
1.35144e-11
2.20909e-12
3.14873e-13
4.05239e-14
6.81971e-15
3.24281e-15
2.49779e-15
1.86017e-15
1.23313e-15
7.46863e-16
4.65929e-16
6.69041e-16
1.16698e-14
7.42105e-11
1.30749e-11
2.02684e-12
2.81144e-13
4.76611e-14
2.44175e-14
2.23939e-14
1.93123e-14
1.48426e-14
1.00749e-14
6.16072e-15
3.71532e-15
2.37047e-15
8.52575e-15
7.15499e-11
1.19986e-11
1.80619e-12
2.94999e-13
1.3687e-13
1.46832e-13
1.52855e-13
1.36625e-13
1.08605e-13
7.68909e-14
4.93707e-14
3.09975e-14
1.83125e-14
1.51562e-14
6.47839e-11
1.05865e-11
1.73719e-12
6.09545e-13
6.93138e-13
8.70211e-13
9.35832e-13
8.59504e-13
7.05795e-13
5.21048e-13
3.51456e-13
2.29466e-13
1.38036e-13
8.83162e-14
5.58622e-11
9.63088e-12
2.52604e-12
2.44936e-12
3.58601e-12
4.65177e-12
5.10219e-12
4.80693e-12
4.07414e-12
3.13153e-12
2.2116e-12
1.4942e-12
9.2001e-13
5.80654e-13
5.93794e-11
1.31262e-11
7.53135e-12
1.1163e-11
1.69897e-11
2.23337e-11
2.48522e-11
2.39573e-11
2.09047e-11
1.66703e-11
1.22493e-11
8.52156e-12
5.3967e-12
3.44337e-12
5.81442e-13
1.27492e-13
3.60136e-14
2.68701e-14
3.83945e-14
5.89431e-14
8.66486e-14
1.15803e-13
1.36789e-13
1.3695e-13
1.06017e-13
6.1657e-14
2.63962e-14
1.01668e-14
1.30382e-12
2.89756e-13
5.85149e-14
1.16208e-14
3.92571e-15
4.45768e-15
7.29095e-15
1.10371e-14
1.45591e-14
1.61201e-14
1.34624e-14
8.14953e-15
3.50157e-15
2.29538e-15
2.65378e-12
6.16176e-13
1.26926e-13
2.34418e-14
3.95153e-15
8.43581e-16
6.24625e-16
9.24522e-16
1.32357e-15
1.59934e-15
1.44038e-15
9.36205e-16
5.01159e-16
1.95701e-15
4.51083e-12
1.06678e-12
2.2113e-13
4.03045e-14
6.4471e-15
9.6915e-16
2.21376e-16
1.57386e-16
1.82662e-16
2.12055e-16
2.07935e-16
1.71178e-16
2.02364e-16
2.10171e-15
6.2284e-12
1.44041e-12
2.9131e-13
5.14572e-14
7.92235e-15
1.11796e-15
2.11832e-16
1.12011e-16
1.04838e-16
1.06463e-16
1.06696e-16
1.05721e-16
1.72245e-16
2.12986e-15
7.34566e-12
1.6108e-12
3.09449e-13
5.19574e-14
7.60891e-15
1.02854e-15
1.95903e-16
1.08112e-16
1.0052e-16
1.00062e-16
1.00051e-16
1.00945e-16
1.58689e-16
1.97108e-15
7.97699e-12
1.63525e-12
2.94099e-13
4.62742e-14
6.37091e-15
8.29475e-16
1.72324e-16
1.07181e-16
1.01228e-16
1.00307e-16
9.99375e-17
1.00558e-16
1.48593e-16
1.75985e-15
8.28629e-12
1.58289e-12
2.65962e-13
3.91461e-14
5.08392e-15
6.65831e-16
1.75025e-16
1.24271e-16
1.13808e-16
1.0749e-16
1.03453e-16
1.02008e-16
1.39173e-16
1.44377e-15
8.25285e-12
1.47507e-12
2.32178e-13
3.21101e-14
4.09227e-15
7.39372e-16
3.84292e-16
3.0758e-16
2.44297e-16
1.86546e-16
1.45041e-16
1.22486e-16
1.42266e-16
1.14826e-15
7.86576e-12
1.32831e-12
1.98462e-13
2.67862e-14
4.57514e-15
2.41387e-15
2.1737e-15
1.82991e-15
1.36916e-15
9.13036e-16
5.63356e-16
3.52115e-16
2.51247e-16
8.93826e-16
6.99595e-12
1.12618e-12
1.63925e-13
2.68805e-14
1.35238e-14
1.46407e-14
1.48249e-14
1.28147e-14
9.74911e-15
6.56066e-15
3.99974e-15
2.35793e-15
1.33594e-15
1.19114e-15
5.79981e-12
9.13475e-13
1.48701e-13
5.95183e-14
7.25077e-14
9.02833e-14
9.40757e-14
8.32049e-14
6.50523e-14
4.5275e-14
2.86354e-14
1.73009e-14
9.69703e-15
5.79669e-15
4.55162e-12
7.69492e-13
2.28641e-13
2.63475e-13
3.96184e-13
5.06867e-13
5.37242e-13
4.85583e-13
3.90265e-13
2.81324e-13
1.85003e-13
1.15212e-13
6.57247e-14
3.82001e-14
4.47795e-12
1.0366e-12
7.79908e-13
1.28216e-12
1.98547e-12
2.56871e-12
2.755e-12
2.53724e-12
2.09039e-12
1.55591e-12
1.05892e-12
6.77046e-13
3.95873e-13
2.32528e-13
6.21136e-14
1.31029e-14
3.59906e-15
2.89224e-15
4.46572e-15
7.27236e-15
1.11983e-14
1.55475e-14
1.88807e-14
1.92813e-14
1.51596e-14
9.00265e-15
3.97364e-15
1.50918e-15
1.48556e-13
3.18301e-14
6.24528e-15
1.27321e-15
5.14653e-16
6.31764e-16
1.02888e-15
1.56455e-15
2.08384e-15
2.33477e-15
1.98344e-15
1.24991e-15
5.93657e-16
3.04168e-16
3.09654e-13
6.88706e-14
1.36512e-14
2.49177e-15
4.825e-16
1.77849e-16
1.65832e-16
2.1041e-16
2.6816e-16
3.09227e-16
2.88327e-16
2.18318e-16
1.52342e-16
1.94927e-16
5.34039e-13
1.2049e-13
2.39196e-14
4.25245e-15
7.32731e-16
1.84527e-16
1.12359e-16
1.07323e-16
1.11294e-16
1.15543e-16
1.1498e-16
1.09738e-16
1.07103e-16
2.03887e-16
7.33847e-13
1.62027e-13
3.1413e-14
5.4042e-15
8.81044e-16
1.98814e-16
1.10593e-16
1.01061e-16
1.00457e-16
1.00706e-16
1.00727e-16
1.00466e-16
1.03444e-16
2.17189e-16
8.43844e-13
1.77167e-13
3.27462e-14
5.37381e-15
8.39273e-16
1.88531e-16
1.08818e-16
1.00522e-16
9.97919e-17
9.97413e-17
9.97285e-17
9.97568e-17
1.03016e-16
2.2129e-16
8.77761e-13
1.72881e-13
3.00365e-14
4.64714e-15
6.98488e-16
1.67011e-16
1.06286e-16
1.00317e-16
9.97583e-17
9.96669e-17
9.9624e-17
9.96468e-17
1.02764e-16
2.19713e-16
8.60576e-13
1.58545e-13
2.58404e-14
3.76792e-15
5.53168e-16
1.48837e-16
1.05855e-16
1.01457e-16
1.00585e-16
1.00093e-16
9.97878e-17
9.96756e-17
1.02483e-16
2.07996e-16
8.04484e-13
1.38956e-13
2.12831e-14
2.94086e-15
4.41691e-16
1.51535e-16
1.21483e-16
1.14734e-16
1.09503e-16
1.05154e-16
1.02288e-16
1.00829e-16
1.02878e-16
1.93941e-16
7.14795e-13
1.16954e-13
1.70541e-14
2.32158e-15
4.66045e-16
2.89537e-16
2.65399e-16
2.32533e-16
1.91926e-16
1.54609e-16
1.28201e-16
1.13514e-16
1.08461e-16
1.77176e-16
5.89988e-13
9.22956e-14
1.31761e-14
2.24724e-15
1.25037e-15
1.34934e-15
1.33221e-15
1.12832e-15
8.46217e-16
5.72869e-16
3.66625e-16
2.40895e-16
1.69846e-16
1.80556e-16
4.51558e-13
6.94918e-14
1.14223e-14
5.23976e-15
6.67645e-15
8.19367e-15
8.289e-15
7.08848e-15
5.32071e-15
3.5441e-15
2.14837e-15
1.24997e-15
6.9575e-16
4.33966e-16
3.2584e-13
5.49771e-14
1.89382e-14
2.49402e-14
3.79753e-14
4.77215e-14
4.8953e-14
4.25662e-14
3.26114e-14
2.22467e-14
1.37701e-14
8.03202e-15
4.3221e-15
2.37919e-15
3.01683e-13
7.59071e-14
7.30892e-14
1.28391e-13
2.00007e-13
2.53553e-13
2.62431e-13
2.31596e-13
1.81133e-13
1.26921e-13
8.07972e-14
4.80975e-14
2.62524e-14
1.43744e-14
6.06645e-15
1.29424e-15
4.01421e-16
3.46846e-16
5.21441e-16
8.42806e-16
1.31171e-15
1.85823e-15
2.30264e-15
2.39729e-15
1.92809e-15
1.19497e-15
5.83692e-16
2.73647e-16
1.49536e-14
3.14937e-15
6.68301e-16
2.04929e-16
1.38366e-16
1.54204e-16
2.0092e-16
2.66191e-16
3.31872e-16
3.66448e-16
3.27029e-16
2.39919e-16
1.60788e-16
1.22043e-16
3.16817e-14
6.82099e-15
1.37186e-15
3.15929e-16
1.33468e-16
1.07094e-16
1.06994e-16
1.12471e-16
1.1959e-16
1.24851e-16
1.22527e-16
1.14182e-16
1.06136e-16
1.04796e-16
5.51664e-14
1.19799e-14
2.35527e-15
4.78289e-16
1.55698e-16
1.07134e-16
1.00957e-16
1.00647e-16
1.01157e-16
1.01682e-16
1.01622e-16
1.00992e-16
1.00461e-16
1.04362e-16
7.53776e-14
1.60298e-14
3.06174e-15
5.83597e-16
1.6882e-16
1.08334e-16
1.00686e-16
9.98729e-17
9.98299e-17
9.9862e-17
9.98646e-17
9.98281e-17
9.99563e-17
1.05605e-16
8.4581e-14
1.7161e-14
3.13453e-15
5.733e-16
1.63927e-16
1.07287e-16
1.00478e-16
9.97697e-17
9.97057e-17
9.97002e-17
9.96974e-17
9.96959e-17
9.9881e-17
1.06737e-16
8.45547e-14
1.61619e-14
2.79373e-15
4.95426e-16
1.49862e-16
1.0524e-16
1.00201e-16
9.97002e-17
9.96518e-17
9.96422e-17
9.96357e-17
9.96337e-17
9.98308e-17
1.07573e-16
7.86851e-14
1.4136e-14
2.31333e-15
4.04446e-16
1.35649e-16
1.03487e-16
1.0007e-16
9.97185e-17
9.9652e-17
9.96159e-17
9.95918e-17
9.95818e-17
9.97878e-17
1.0779e-16
6.93888e-14
1.17288e-14
1.82473e-15
3.2223e-16
1.24956e-16
1.03319e-16
1.01039e-16
1.00535e-16
1.00168e-16
9.98774e-17
9.96902e-17
9.95977e-17
9.97898e-17
1.07673e-16
5.78061e-14
9.29299e-15
1.39654e-15
2.61803e-16
1.25275e-16
1.12804e-16