/*--------------------------------*- C++ -*----------------------------------*\
| =========                 |                                                 |
| \\      /  F ield         | OpenFOAM: The Open Source CFD Toolbox           |
|  \\    /   O peration     | Version:  v2106                                 |
|   \\  /    A nd           | Website:  www.openfoam.com                      |
|    \\/     M anipulation  |                                                 |
\*---------------------------------------------------------------------------*/
FoamFile
{
    version     2.0;
    format      ascii;
    arch        "LSB;label=32;scalar=64";
    class       volScalarField;
    location    "0.000147";
    object      epsilon;
}
// * * * * * * * * * * * * * * * * * * * * * * * * * * * * * * * * * * * * * //

dimensions      [0 2 -3 0 0 0 0];

internalField   nonuniform List<scalar> 
18109
(
5710.49
1682.81
430.785
105.81
30.8031
13.3286
9.07265
2421.94
552.204
99.7219
15.8288
2.89938
1.05775
0.859743
861.261
171.638
29.7858
5.05184
0.907539
0.17777
0.0741874
389.75
95.9341
24.0622
5.94028
1.29217
0.215987
0.0287814
289.443
90.9666
27.5111
7.35639
1.604
0.262803
0.0315562
288.755
100.596
30.8829
7.99926
1.65963
0.262959
0.0317929
353.163
121.393
35.3895
8.60839
1.69019
0.260431
0.0376198
491.045
159.611
43.7431
10.0154
1.88579
0.31649
0.0953059
1548.05
355.246
68.9331
12.8055
3.36863
1.79782
1.47334
1.31195
1.21996
1.0962
0.996587
1.80579
7.8651
43.432
501.311
91.3639
13.4145
1.74858
0.286027
0.122853
0.117412
0.126533
0.136441
0.138263
0.141702
0.423501
3.05789
23.0659
158.07
29.679
5.30642
0.961838
0.173347
0.0298188
0.00956305
0.00950398
0.0111798
0.0128053
0.0233023
0.169613
1.56552
12.4968
90.0486
23.061
5.78538
1.33811
0.261865
0.0393934
0.00446346
0.000835843
0.000745427
0.00102423
0.00472775
0.0577059
0.62163
5.33396
80.0292
24.3454
6.79548
1.6336
0.317622
0.0471376
0.00499882
0.000416793
6.41823e-05
0.000111215
0.00131183
0.0192756
0.218172
1.91354
87.5507
27.8862
7.67881
1.76957
0.326133
0.0464518
0.00488668
0.00049305
0.000132628
0.000106836
0.000477751
0.00693796
0.0833802
0.754574
111.674
34.2476
8.88353
1.91715
0.334348
0.0461929
0.00567764
0.00164849
0.00125066
0.00107659
0.0010646
0.00387445
0.0395896
0.371013
157.171
45.1542
10.9433
2.21543
0.368986
0.0548035
0.0145404
0.0113691
0.0107712
0.0100535
0.00921688
0.0111622
0.0330825
0.255135
229.071
61.8377
14.1786
2.74544
0.465432
0.107013
0.0723842
0.0754104
0.0758941
0.0753303
0.0737013
0.0813312
0.103325
0.330434
344.874
89.4294
20.0413
3.92061
0.81495
0.376146
0.378822
0.42213
0.442393
0.463601
0.485991
0.546151
0.607337
1.07086
517.128
133.418
30.4091
6.57846
2.0493
1.53726
1.73422
1.9956
2.17696
2.4071
2.69544
3.10365
3.44603
5.19706
864.667
240.538
59.3177
15.3104
6.73409
5.98593
6.86587
8.0763
9.18564
10.7259
12.7683
15.1311
17.0988
24.3678
1778.54
576.452
157.884
46.1883
23.2283
21.0927
23.863
28.4307
33.6919
41.4647
52.2774
64.6645
75.4973
101.711
4280.77
1644.79
506.413
156.552
77.7142
67.154
73.5205
87.8165
108.005
139.859
186.911
243.957
300.219
383.755
6686.6
16772.7
36641.1
61463.9
86589.4
108861
1827.46
6049.66
16987.8
35042.1
58420
82145.1
733.829
3421.12
11046.4
25155.1
44142
63977.5
319.678
1821.54
6580.08
16368.6
30884.9
47806.2
133.864
906.37
3675.95
10018.2
20409.5
33763.4
54.8056
428.32
1962.42
5875.14
12862.6
22599.4
26.3203
209.798
1031.36
3310.71
7769.54
14750.7
16.496
119.699
586.485
1964.3
4864.31
9775.02
11.6175
75.0193
353.528
1198.72
3091.29
6539.57
9.02367
54.1413
243.729
820.989
2199.86
4946.55
7.56035
44.3671
198.612
692.999
1996.69
4997.62
7.57093
46.3965
220.533
841.05
2705.19
7609.72
13.4016
83.7376
411.925
1627.29
5273.22
14167
44.2373
247.21
1085.06
3758.35
10422.6
23523.4
192.425
841.383
2914.13
7972.87
17648.1
32257.3
231.317
962.71
3252.01
8692.95
18555.3
32382.6
155.924
689.54
2463.2
6908.32
15267.9
27368.8
84.179
410.238
1589.68
4792.05
11295.9
21382.9
36.4673
204.04
880.297
2921.02
7539.77
15482.3
13.4192
82.4478
404.899
1553.21
4621.44
10300.4
5.30097
33.9011
179.53
812.978
2717.5
6637.2
2.75268
18.6023
104.991
484.407
1664.68
4328.16
2.00363
14.1252
78.8268
340.67
1132.41
2970.17
2.10545
14.0934
73.3347
297.927
961.584
2535.66
4.01269
22.6741
105.963
406.805
1306.34
3606.67
14.5506
68.2841
278.592
975.614
2951
7781.06
61.8875
250.64
883.528
2690.73
7086.89
16151.1
237.116
816.422
2438
6286.71
13950.1
26745.1
831.831
2376.42
5847.33
12295.5
22369.2
35598.2
1296.89
3242.29
7231.89
14160.5
24256.9
36678.8
1074.69
2761.95
6282.33
12463.5
21581.8
32964.3
813.473
2149.94
5000.93
10137.9
17954.3
28097.6
582.49
1575.28
3741
7770.62
14110.1
22594.2
410.691
1115.14
2663.43
5589.38
10378.6
17271.8
303.51
815.803
1943.17
4111.9
7780.79
13337.5
241.517
641.699
1518.94
3232.22
6225.09
10977.1
205.024
552.245
1333.87
2937.63
5997.59
11653.2
195.821
551.446
1434.94
3538.95
8389.85
18964.6
242.185
763.893
2303.98
6507.05
16660.5
37511.2
519.034
1743.86
5288.09
14122.2
32763.4
64752.5
1612.68
4719.14
12229.2
27427.4
53185.1
89584.6
4594.71
10818
22753.6
42116.1
69388.9
101693
10189.8
19251.7
33320.8
52076.3
74388.2
97206.4
1504.33
5076.82
14932.3
36761.4
75140.1
127609
3388.91
10276.4
26492.7
56076.4
98892.1
150429
7895.77
19076.6
40095.7
71159.3
109516
147665
15159.5
29366.6
51121.3
77742.4
105835
129755
5934.54
14009.5
27291.7
44938.7
64936
84929.8
4215.01
10622.7
21497.6
36278.2
53142.8
70677.7
2819.49
7336.61
15424
27040.9
41204.3
57197.3
1811.23
4802.38
10458.4
19235.1
30778
44538.5
1147.57
3076.8
6894.82
13159.8
22182.8
33869.4
711.501
1913.8
4319.45
8532.08
15449.7
25257.5
458.819
1219.46
2842.85
5988.47
11592
20028.7
315.829
865.129
2169.11
4961.95
10183.6
18950
256.364
757.988
2056.02
5062.65
11463.2
24764.9
260.584
824.541
2438.25
6764.86
17527.4
41252
343.734
1205.52
3990.83
11932.2
31005.7
67593.3
720.897
2626.98
8414.42
22600.9
50223.5
92691.4
2073.1
6200.74
16153.3
35382.3
65872.9
104243
5157.58
11898.7
24623
44347.8
70327.2
98358.8
104903
161483
237881
321282
302601
83143
131812
205732
302798
317513
64942
104674
169247
264387
309595
49309.5
79817.4
133195
235537
306331
36512.6
59176.1
104067
213517
303546
25568
41628.8
78369.5
192224
296602
17458.2
28821.2
58932.7
170999
296007
12192
22263
56180.4
172436
329316
380874
9983.73
23986.7
71808.9
197961
381622
480559
11688.9
35917.2
99680.3
227231
413561
566604
18897.3
56901.4
129473
242929
405465
620827
801445
31363.2
79845.2
153003
241585
356126
595029
1.08999e+06
990397
43829.2
96706.1
163092
232442
296713
441374
1.31078e+06
3.32012e+06
50556.7
99636.8
159545
230560
286236
264017
381835
2.32339e+06
48280.1
91930.2
153552
244814
330628
254677
248590
1.49607e+06
41611
78200.4
139949
240533
346709
260892
234619
939360
33617.9
63581.4
119749
214861
324232
264636
219470
1.09352e+06
25742.3
50069.3
97899.4
189529
312468
272223
211729
325928
18772.6
37578.1
76013.5
162256
295539
265744
210505
207270
13070
26389.7
54823.8
130804
258695
258052
220685
204055
8940.69
18068.4
38259.3
104065
227394
277988
260521
357826
6266.22
13938.2
33203.4
99832.5
233554
341578
351466
205889
5708.01
15931.4
43821
119616
271766
435153
8850.67
27598.7
69982.8
153705
309546
516822
17807.9
49228.6
104170
184792
314588
555074
31511.4
73281.3
133778
201830
288812
506476
44395
89975.8
145897
199306
244693
368965
50980.6
92578.5
143350
199296
225561
50487.3
89163.6
144680
220481
254862
45952.8
81038.4
138286
226318
271305
39624.1
69946.9
124095
215926
270506
32378.9
58799.5
107888
207386
275879
25753.5
47676.9
92080.9
197966
283566
19923.2
38035.4
81105.1
187134
298954
17276.2
36581.3
85320.5
192914
336575
22009
54913.8
121365
243166
417298
39656
97300.7
188911
320889
514108
72342
152513
254776
372111
559317
108174
196849
286672
370945
536358
133187
209976
274550
329499
452980
133633
192238
240627
275156
311270
119458
173403
227144
269883
229347
104813
157960
221664
294115
242235
88529.9
134914
196796
291171
260959
74044.3
111230
168726
273786
272549
59979.9
88103.1
143880
265759
297840
46861.8
69170.6
128241
266184
334565
35529.9
56805.8
122946
274383
377187
29791
57933.1
140043
299861
430824
33905.8
81197
188226
361471
523060
52042
129187
262041
437452
619490
84269.4
185936
322039
471034
663215
120877
229586
344649
452807
646100
144239
241933
324194
392408
550458
144976
219546
279869
321822
380614
125879
187602
250850
302152
280003
136.708
24.8337
4.149
0.7557
0.249646
0.183545
0.178627
0.173376
0.16052
0.137313
0.0979814
0.0853804
0.287654
2.25071
31.7296
5.16605
0.771511
0.116263
0.0237205
0.0123542
0.0133648
0.0156795
0.0168306
0.0161871
0.0128918
0.0198892
0.162502
1.6675
13.0474
2.89448
0.631343
0.132115
0.0248851
0.00416923
0.0011609
0.0011262
0.00136369
0.00141971
0.00150207
0.00793349
0.0984505
1.05686
12.5931
3.52458
0.912793
0.207867
0.0392786
0.00580712
0.000656868
0.000104305
8.80709e-05
0.000104313
0.000224196
0.00298413
0.0442905
0.508762
14.5363
4.41216
1.17996
0.267955
0.0493761
0.00712908
0.000763163
5.8504e-05
7.45948e-06
7.37007e-06
5.50186e-05
0.00112284
0.0178311
0.209898
18.0963
5.40813
1.38401
0.296577
0.0514632
0.00705199
0.000729155
6.0688e-05
1.06812e-05
6.45964e-06
2.16798e-05
0.000438662
0.00737647
0.0891005
24.8307
6.96791
1.65802
0.330371
0.0536642
0.00697672
0.000766781
0.000152248
9.88372e-05
7.69501e-05
6.39168e-05
0.000242514
0.00349241
0.0431022
35.6594
9.24085
2.02964
0.374268
0.0568999
0.0075504
0.00159048
0.00106082
0.000957495
0.000816766
0.000652887
0.000670288
0.00229434
0.0243882
51.4845
12.4271
2.55444
0.442999
0.066276
0.0128994
0.00800084
0.00795143
0.00773248
0.00703648
0.00604522
0.0057148
0.00620509
0.023275
74.9356
17.0331
3.34048
0.567351
0.101523
0.0450227
0.0469726
0.0509535
0.0519715
0.0501436
0.0464465
0.0453671
0.0417554
0.0600912
106.217
23.0321
4.42386
0.806797
0.239436
0.202902
0.244014
0.27608
0.295155
0.302067
0.301235
0.30487
0.283718
0.325075
157.782
34.266
6.82296
1.56876
0.813772
0.878953
1.09185
1.27669
1.43334
1.55902
1.66891
1.75752
1.69244
1.83996
276.879
66.3749
14.4651
4.29708
2.9776
3.41008
4.25769
5.1151
6.03383
6.97561
8.00127
8.87484
8.95779
9.45912
648.94
180.259
42.75
14.1455
10.3695
11.7443
14.5904
17.9357
22.2207
27.2545
33.4845
39.5555
42.5524
44.6119
5.65431
1.03916
0.196409
0.0481904
0.0283357
0.0279352
0.0303648
0.0315965
0.0301837
0.0252058
0.0164907
0.00903072
0.0107376
0.0851683
1.55815
0.287282
0.0519913
0.010004
0.00273399
0.00187308
0.00226698
0.00279463
0.00309189
0.00289519
0.00207227
0.00146506
0.00678771
0.0827476
1.4298
0.354617
0.0824309
0.0174389
0.00322253
0.000552817
0.000184636
0.000197783
0.000248666
0.000258782
0.000207272
0.000390435
0.00513958
0.0683041
2.02946
0.561392
0.139086
0.0299249
0.00537198
0.000779632
9.2301e-05
1.73199e-05
1.59196e-05
1.85117e-05
2.03851e-05
0.000158382
0.0029932
0.0427317
2.77929
0.785469
0.194011
0.0407771
0.00706309
0.000986538
0.000106701
8.79703e-06
1.236e-06
1.11253e-06
3.27088e-06
7.53127e-05
0.00158514
0.0235262
3.70111
1.00195
0.233716
0.0461854
0.00753342
0.000996478
0.00010314
8.44764e-06
9.97542e-07
4.61791e-07
1.22235e-06
3.41222e-05
0.000782868
0.0122552
5.08384
1.28518
0.278198
0.0510157
0.00775416
0.000962521
0.000100367
1.50005e-05
7.5228e-06
5.25517e-06
3.85151e-06
1.93808e-05
0.000411678
0.00664398
7.07068
1.65485
0.330412
0.0559574
0.00792048
0.000975249
0.00016968
9.33929e-05
7.78553e-05
6.04311e-05
4.23817e-05
3.98624e-05
0.000239907
0.0036788
9.71888
2.1207
0.394425
0.0622734
0.00853332
0.0014714
0.000817774
0.000762018
0.000697442
0.000578403
0.000434712
0.000350155
0.000386672
0.00254103
13.3274
2.72267
0.47789
0.0726127
0.0117225
0.00508851
0.00531707
0.00550161
0.0052826
0.0046479
0.00376204
0.00316717
0.00251828
0.00371346
17.4337
3.3746
0.574794
0.0928065
0.0272355
0.0255818
0.0314373
0.034023
0.0341624
0.0318365
0.0277441
0.0244569
0.0195907
0.0187366
22.6411
4.24669
0.740662
0.160584
0.100915
0.125469
0.16111
0.181014
0.190223
0.187747
0.175573
0.161621
0.134449
0.121002
30.8323
6.07769
1.20357
0.423773
0.41312
0.551018
0.719611
0.836888
0.920869
0.9637
0.964368
0.931007
0.811834
0.715031
56.6169
12.9173
2.98523
1.44433
1.59415
2.14721
2.82294
3.38939
3.9061
4.33892
4.62826
4.70902
4.3401
3.84306
0.378198
0.0752791
0.0177196
0.00628131
0.00502181
0.00554043
0.00641785
0.00698857
0.00691309
0.00581572
0.00379627
0.00189669
0.00109706
0.00529425
0.161712
0.0331107
0.00665729
0.00138954
0.000441768
0.00036768
0.000482087
0.000615061
0.000699159
0.000661025
0.000471502
0.00025965
0.00045595
0.00545603
0.234513
0.0582191
0.0131747
0.00267676
0.000479536
8.5505e-05
3.61879e-05
4.33041e-05
5.57946e-05
5.91976e-05
4.61852e-05
4.00951e-05
0.000348427
0.00526067
0.382092
0.100915
0.0235963
0.00480041
0.000826524
0.000117947
1.45769e-05
3.47707e-06
3.58334e-06
4.21566e-06
3.79142e-06
1.12095e-05
0.000228494
0.00385183
0.562322
0.148186
0.0340848
0.00672576
0.00111242
0.00015146
1.65007e-05
1.4825e-06
2.749e-07
2.62051e-07
3.58497e-07
5.43172e-06
0.00014131
0.00251492
0.765284
0.191721
0.0416324
0.00773989
0.00120838
0.000155909
1.61942e-05
1.37563e-06
1.57926e-07
7.3218e-08
1.06883e-07
2.70052e-06
7.88388e-05
0.00150922
1.03722
0.24213
0.0487799
0.00840963
0.00121984
0.000147097
1.50492e-05
1.97642e-06
8.18721e-07
5.35587e-07
3.61757e-07
1.67015e-06
4.57133e-05
0.000914462
1.3999
0.30305
0.0564378
0.0089994
0.00121466
0.000143373
2.21455e-05
1.05532e-05
8.27211e-06
6.04543e-06
3.96544e-06
3.39172e-06
2.70244e-05
0.000536321
1.83769
0.371338
0.064484
0.00957672
0.00124284
0.000197426
9.85292e-05
8.80902e-05
7.72255e-05
6.01657e-05
4.19997e-05
3.04617e-05
3.51668e-05
0.000342762
2.37093
0.449462
0.0736843
0.0104879
0.0015885
0.000662339
0.000671719
0.000676783
0.000622198
0.000513204
0.000382988
0.000291852
0.00021261
0.00034955
2.90446
0.522179
0.0823882
0.0123536
0.00362388
0.00355139
0.00428934
0.00451708
0.00433316
0.00377713
0.00301454
0.00241671
0.00175747
0.00151467
3.42459
0.5939
0.0956086
0.0202458
0.0144583
0.0190224
0.0240695
0.0262577
0.0262688
0.0241546
0.0205764
0.0172271
0.0129108
0.0103934
3.99999
0.713772
0.134424
0.0548958
0.0646514
0.0915586
0.11854
0.133685
0.139475
0.135169
0.122556
0.106941
0.0831913
0.0662145
5.97132
1.24306
0.305855
0.201271
0.271998
0.392393
0.51561
0.600106
0.6528
0.665828
0.638743
0.580923
0.473168
0.378737
0.027284
0.0055486
0.00150088
0.000800344
0.000844092
0.00103682
0.00126668
0.00143546
0.00146261
0.00125743
0.000836309
0.000417463
0.000175131
0.000334036
0.0204861
0.00444775
0.000921897
0.00019754
7.07718e-05
6.88591e-05
9.6192e-05
0.000126732
0.00014701
0.000141479
0.000102554
5.43027e-05
3.93774e-05
0.000328394
0.0378662
0.00918371
0.00200312
0.000391348
6.80228e-05
1.27721e-05
6.8368e-06
8.95653e-06
1.17466e-05
1.2608e-05
9.89521e-06
6.19504e-06
2.24317e-05
0.000355924
0.0660965
0.0166614
0.00370258
0.000717992
0.000118991
1.66805e-05
2.1648e-06
6.76538e-07
7.73286e-07
9.1447e-07
7.92373e-07
9.75347e-07
1.55737e-05
0.000298262
0.100347
0.0249244
0.00540952
0.0010138
0.000161285
2.14802e-05
2.35997e-06
2.43095e-07
7.26228e-08
7.37816e-08
7.50961e-08
3.76206e-07
1.0774e-05
0.000223944
0.136525
0.0321075
0.00657947
0.0011637
0.000175058
2.21008e-05
2.30817e-06
2.17493e-07
4.18802e-08
2.95941e-08
2.99866e-08
2.02406e-07
6.62548e-06
0.000150957
0.178659
0.039084
0.00743472
0.00122111
0.000170884
2.01844e-05
2.06076e-06
2.68152e-07
1.07728e-07
7.35113e-08
5.328e-08
1.41376e-07
4.13692e-06
9.99903e-05
0.229554
0.0465316
0.00819402
0.0012471
0.000162586
1.8703e-05
2.72641e-06
1.17973e-06
8.75159e-07
6.10444e-07
3.82525e-07
2.94278e-07
2.5231e-06
6.17136e-05
0.284436
0.0537845
0.00882476
0.00125067
0.000156485
2.39871e-05
1.13404e-05
9.74688e-06
8.15584e-06
5.98363e-06
3.90215e-06
2.56816e-06
2.96845e-06
3.85356e-05
0.342747
0.0608835
0.00943128
0.00128007
0.000188754
7.9928e-05
7.94095e-05
7.7479e-05
6.78673e-05
5.24871e-05
3.63638e-05
2.51168e-05
1.68072e-05
3.17608e-05
0.389595
0.0655375
0.00973998
0.00140552
0.00043907
0.000452102
0.000533223
0.000542831
0.000494752
0.00040298
0.000296912
0.000215871
0.000143368
0.000112878
0.418515
0.0679676
0.0103466
0.00228403
0.0018998
0.00258011
0.00318192
0.0033475
0.00317
0.00271298
0.0021197
0.00160849
0.00109782
0.000791501
0.432944
0.0721167
0.0134517
0.00674865
0.00917303
0.0132962
0.0168025
0.0182348
0.0179315
0.016098
0.0132952
0.0104821
0.00737046
0.00529591
0.556004
0.109016
0.0302093
0.0269823
0.0414681
0.061369
0.0789252
0.0881888
0.0899255
0.0844225
0.0732149
0.059801
0.0436014
0.031671
0.00210537
0.000444673
0.000140174
0.000103008
0.000127924
0.000169575
0.00021814
0.000257111
0.000269183
0.000236601
0.000160612
8.21669e-05
3.20583e-05
2.46068e-05
0.00266665
0.000583627
0.000119205
2.54896e-05
1.01845e-05
1.13599e-05
1.67907e-05
2.28417e-05
2.7028e-05
2.64112e-05
1.94359e-05
1.04145e-05
4.84753e-06
1.82944e-05
0.00551597
0.00129178
0.000270034
5.05722e-05
8.5311e-06
1.72549e-06
1.16672e-06
1.64039e-06
2.18444e-06
2.36506e-06
1.87673e-06
1.08942e-06
1.48723e-06
2.08117e-05
0.0100452
0.00241232
0.000508973
9.40442e-05
1.49973e-05
2.07111e-06
2.98924e-07
1.33213e-07
1.61832e-07
1.89193e-07
1.65814e-07
1.31626e-07
9.45303e-07
1.93809e-05
0.0154487
0.00363055
0.000745991
0.000133192
2.04116e-05
2.66715e-06
3.0905e-07
5.15949e-08
3.15571e-08
3.24551e-08
3.19605e-08
4.53905e-08
7.0147e-07
1.61878e-05
0.0207831
0.00462211
0.000898793
0.000151935
2.20701e-05
2.73754e-06
3.01441e-07
4.68614e-08
2.52964e-08
2.38188e-08
2.37068e-08
3.32358e-08
4.74839e-07
1.20608e-05
0.0260946
0.0054036
0.000978435
0.000154102
2.08914e-05
2.43328e-06
2.63464e-07
5.02386e-08
3.10965e-08
2.74716e-08
2.54838e-08
3.02116e-08
3.23355e-07
8.68392e-06
0.0316522
0.00608084
0.00102255
0.000149676
1.89602e-05
2.14925e-06
3.15319e-07
1.36769e-07
1.01807e-07
7.46631e-08
5.29253e-08
4.29904e-08
2.14244e-07
5.69002e-06
0.0367613
0.00658791
0.00103337
0.000141181
1.72e-05
2.58603e-06
1.17887e-06
9.77027e-07
7.83571e-07
5.50964e-07
3.46829e-07
2.17942e-07
2.44621e-07
3.62446e-06
0.0410807
0.00692462
0.00102619
0.000134535
1.96427e-05
8.53975e-06
8.29948e-06
7.82006e-06
6.52074e-06
4.75723e-06
3.09743e-06
1.96766e-06
1.23527e-06
2.71231e-06
0.0429749
0.00686644
0.000977907
0.000138895
4.72522e-05
5.04971e-05
5.78377e-05
5.67056e-05
4.90411e-05
3.74532e-05
2.57212e-05
1.71083e-05
1.05015e-05
7.76473e-06
0.0420184
0.00649383
0.000957231
0.000230858
0.000221275
0.000303544
0.000361965
0.000365512
0.000327313
0.000261362
0.000189015
0.000130921
8.22839e-05
5.37815e-05
0.0390266
0.00621262
0.00120187
0.000763494
0.00114284
0.00165581
0.00201965
0.00209652
0.00194225
0.00161905
0.00122862
0.000881658
0.000568199
0.000370978
0.0447955
0.00852161
0.00284983
0.00333241
0.00550257
0.00812984
0.0100785
0.0107264
0.0102541
0.00889157
0.00703623
0.0052077
0.00345905
0.00228934
0.000178745
3.89572e-05
1.36297e-05
1.20671e-05
1.67091e-05
2.37519e-05
3.21715e-05
3.94722e-05
4.24851e-05
3.80933e-05
2.63479e-05
1.38097e-05
5.39766e-06
2.43717e-06
0.000323353
6.93293e-05
1.37391e-05
2.91391e-06
1.3008e-06
1.62974e-06
2.52828e-06
3.54715e-06
4.28374e-06
4.24751e-06
3.17169e-06
1.7378e-06
7.1958e-07
1.05966e-06
0.000708225
0.0001594
3.19243e-05
5.74867e-06
9.58867e-07
2.25705e-07
1.90473e-07
2.74741e-07
3.65761e-07
3.9817e-07
3.22508e-07
1.93604e-07
1.39421e-07
1.13058e-06
0.00132298
0.000303076
6.09729e-05
1.0795e-05
1.67619e-06
2.43861e-07
5.45295e-08
3.93056e-08
4.50633e-08
4.96338e-08
4.59303e-08
3.76706e-08
7.47507e-08
1.14367e-06
0.002037
0.000456062
8.93793e-05
1.53055e-05
2.2813e-06
3.0836e-07
5.3498e-08
2.61887e-08
2.42095e-08
2.44338e-08
2.433e-08
2.46045e-08
6.13107e-08
1.04742e-06
0.0026864
0.000570237
0.000106073
1.72469e-05
2.44087e-06
3.13459e-07
5.23449e-08
2.54319e-08
2.3151e-08
2.29992e-08
2.2982e-08
2.34578e-08
5.04933e-08
8.60951e-07
0.00323075
0.00063995
0.000111213
1.69075e-05
2.24243e-06
2.73897e-07
4.75904e-08
2.55587e-08
2.35863e-08
2.32455e-08
2.30741e-08
2.33032e-08
4.2589e-08
6.78515e-07
0.00369445
0.000680183
0.000110125
1.5614e-05
1.94334e-06
2.33867e-07
5.0659e-08
3.2843e-08
2.94162e-08
2.6976e-08
2.51413e-08
2.42597e-08
3.64396e-08
4.84985e-07
0.00402254
0.00069104
0.000104509
1.38648e-05
1.66584e-06
2.6252e-07
1.27055e-07
1.05898e-07
8.63592e-08
6.49016e-08
4.73587e-08
3.65983e-08
3.88398e-08
3.34161e-07
0.0041672
0.000674236
9.64413e-05
1.23077e-05
1.8044e-06
8.17585e-07
7.81447e-07
7.14849e-07
5.74377e-07
4.04085e-07
2.56705e-07
1.59978e-07
1.03965e-07
2.50774e-07
0.00400761
0.000615671
8.4875e-05
1.20054e-05
4.48644e-06
4.93318e-06
5.49802e-06
5.20279e-06
4.29138e-06
3.09852e-06
2.00529e-06
1.23994e-06
7.16949e-07
5.29225e-07
0.00357202
0.000532655
7.72106e-05
2.08612e-05
2.25286e-05
3.08966e-05
3.56826e-05
3.46419e-05
2.94527e-05
2.20841e-05
1.49097e-05
9.52034e-06
5.55216e-06
3.34909e-06
0.00300242
0.000465076
9.68586e-05
7.75358e-05
0.000123359
0.000176867
0.000208347
0.000207136
0.000181431
0.000141259
9.93847e-05
6.55143e-05
3.90066e-05
2.33612e-05
0.00315765
0.00059968
0.000254833
0.000366311
0.000627985
0.000915463
0.00109322
0.00110956
0.000998343
0.00080446
0.000586861
0.000397628
0.000243043
0.000147619
1.59259e-05
3.45496e-06
1.26077e-06
1.25428e-06
1.88887e-06
2.85947e-06
4.06877e-06
5.19509e-06
5.75271e-06
5.26047e-06
3.70007e-06
1.98517e-06
7.99782e-07
3.04762e-07
3.53855e-05
7.35769e-06
1.42261e-06
3.12233e-07
1.6304e-07
2.18052e-07
3.42674e-07
4.88302e-07
5.98772e-07
6.02625e-07
4.59707e-07
2.64289e-07
1.18811e-07
9.08144e-08
8.00259e-05
1.72869e-05
3.33583e-06
5.9401e-07
1.13912e-07
4.44551e-08
4.4158e-08
5.64935e-08
6.95451e-08
7.45411e-08
6.44313e-08
4.66893e-08
3.45013e-08
7.96918e-08
0.000151666
3.31977e-05
6.40209e-06
1.10484e-06
1.83446e-07
4.39314e-08
2.61512e-08
2.50328e-08
2.59354e-08
2.65925e-08
2.60887e-08
2.48498e-08
2.59445e-08
8.37668e-08
0.000232399
4.97429e-05
9.35282e-06
1.55781e-06
2.42679e-07
5.0044e-08
2.57827e-08
2.32326e-08
2.30663e-08
2.31032e-08
2.30861e-08
2.30491e-08
2.49776e-08
8.37707e-08
0.000298987
6.08458e-05
1.08975e-05
1.72793e-06
2.55472e-07
5.02459e-08
2.56275e-08
2.31222e-08
2.29081e-08
2.28921e-08
2.28876e-08
2.29083e-08
2.45092e-08
7.79724e-08
0.000344039
6.55591e-05
1.10128e-05
1.64054e-06
2.3025e-07
4.59042e-08
2.51114e-08
2.31058e-08
2.29249e-08
2.28938e-08
2.28777e-08
2.28872e-08
2.41424e-08
7.02135e-08
0.00037068
6.58893e-05
1.03516e-05
1.4461e-06
1.94312e-07
4.13442e-08
2.51918e-08
2.36286e-08
2.33373e-08
2.31447e-08
2.30064e-08
2.29407e-08
2.38318e-08
5.94195e-08
0.000377996
6.28095e-05
9.24301e-06
1.21512e-06
1.61584e-07
4.25957e-08
3.10813e-08
2.91893e-08
2.75262e-08
2.582e-08
2.45023e-08
2.37242e-08
2.40123e-08
4.97937e-08
0.000364011
5.71168e-05
7.97064e-06
1.01417e-06
1.6604e-07
8.77538e-08
8.3713e-08
7.67448e-08
6.41829e-08
5.01669e-08
3.88004e-08
3.16519e-08
2.79607e-08
4.31843e-08
0.00032376
4.83852e-05
6.53338e-06
9.43713e-07
3.94912e-07
4.39355e-07
4.75805e-07
4.37394e-07
3.50146e-07
2.47237e-07
1.59738e-07
1.01626e-07
6.51807e-08
5.61283e-08
0.00026525
3.86645e-05
5.59203e-06
1.71618e-06
2.02524e-06
2.75117e-06
3.08127e-06
2.88494e-06
2.34447e-06
1.67061e-06
1.06914e-06
6.46044e-07
3.62578e-07
2.15065e-07
0.000203843
3.12088e-05
7.19688e-06
7.03942e-06
1.15982e-05
1.63623e-05
1.86381e-05
1.77945e-05
1.48146e-05
1.08714e-05
7.16478e-06
4.40044e-06
2.45426e-06
1.37504e-06
0.000199762
3.89682e-05
2.14122e-05
3.5562e-05
6.20352e-05
8.87192e-05
0.000102161
9.91844e-05
8.44748e-05
6.38336e-05
4.33738e-05
2.72549e-05
1.54955e-05
8.7337e-06
1.39924e-06
3.09309e-07
1.24668e-07
1.32452e-07
2.02539e-07
3.13781e-07
4.59073e-07
6.0353e-07
6.85067e-07
6.40209e-07
4.62263e-07
2.60877e-07
1.18714e-07
5.53852e-08
3.45085e-06
7.0793e-07
1.49001e-07
4.84082e-08
3.62945e-08
4.32658e-08
5.7857e-08
7.5523e-08
8.95885e-08
9.11261e-08
7.48501e-08
5.19645e-08
3.45343e-08
2.8219e-08
7.95412e-06
1.66515e-06
3.25998e-07
7.32697e-08
3.07648e-08
2.49485e-08
2.5236e-08
2.67454e-08
2.83442e-08
2.90042e-08
2.78506e-08
2.57628e-08
2.41428e-08
2.57732e-08
1.52139e-05
3.20744e-06
6.11268e-07
1.19105e-07
3.67605e-08
2.46908e-08
2.32068e-08
2.31458e-08
2.32609e-08
2.33422e-08
2.32843e-08
2.31342e-08
2.31019e-08
2.60066e-08
2.31859e-05
4.78202e-06
8.82882e-07
1.59665e-07
4.19494e-08
2.52048e-08
2.31428e-08
2.29295e-08
2.2917e-08
2.29216e-08
2.29194e-08
2.29118e-08
2.30041e-08
2.6273e-08
2.91344e-05
5.73086e-06
1.00938e-06
1.72963e-07
4.2868e-08
2.51983e-08
2.31199e-08
2.29097e-08
2.28908e-08
2.28887e-08
2.28877e-08
2.28878e-08
2.29769e-08
2.62645e-08
3.2191e-05
5.95234e-06
9.87929e-07
1.61303e-07
4.02694e-08
2.47849e-08
2.3065e-08
2.28994e-08
2.28835e-08
2.28801e-08
2.28779e-08
2.28775e-08
2.29548e-08
2.60646e-08
3.2865e-05
5.69289e-06
8.89061e-07
1.39652e-07
3.66983e-08
2.43392e-08
2.30488e-08
2.29241e-08
2.29014e-08
2.28873e-08
2.28772e-08
2.28724e-08
2.29354e-08
2.55935e-08
3.15434e-05
5.12219e-06
7.54556e-07
1.15754e-07
3.34966e-08
2.43215e-08
2.34309e-08
2.32838e-08
2.31634e-08
2.30464e-08
2.29594e-08
2.29101e-08
2.29433e-08
2.51035e-08
2.83967e-05
4.36846e-06
6.15228e-07
9.55289e-08
3.32027e-08
2.74685e-08
2.70909e-08
2.65142e-08
2.55755e-08
2.45888e-08
2.38256e-08
2.33637e-08
2.31573e-08
2.46701e-08
2.34634e-05
3.45139e-06
4.76111e-07
8.69269e-08
5.00178e-08
5.34134e-08
5.53989e-08
5.18408e-08
4.49574e-08
3.74081e-08
3.13341e-08
2.74773e-08
2.52241e-08
2.51035e-08
1.77877e-05
2.56916e-06
3.89321e-07
1.45897e-07
1.77438e-07
2.31555e-07
2.50923e-07
2.29786e-07
1.84243e-07
1.32335e-07
8.89137e-08
6.00297e-08
4.20416e-08
3.33223e-08
1.25894e-05
1.93863e-06
5.12441e-07
5.8205e-07
9.64428e-07
1.33046e-06
1.46895e-06
1.35553e-06
1.08419e-06
7.62812e-07
4.8314e-07
2.88334e-07
1.62024e-07
9.58139e-08
1.15758e-05
2.38725e-06
1.67261e-06
3.04333e-06
5.3307e-06
7.46318e-06
8.31038e-06
7.75799e-06
6.30058e-06
4.51057e-06
2.88999e-06
1.71121e-06
9.24238e-07
4.98992e-07
1.3261e-07
4.47157e-08
3.03545e-08
3.13955e-08
3.78713e-08
4.86385e-08
6.33928e-08
7.89302e-08
8.86551e-08
8.54189e-08
6.79715e-08
4.76146e-08
3.30075e-08
2.62811e-08
3.1497e-07
7.91838e-08
3.29206e-08
2.48845e-08
2.40172e-08
2.4733e-08
2.61863e-08
2.8012e-08
2.95382e-08
2.98068e-08
2.82159e-08
2.59078e-08
2.41243e-08
2.33629e-08
7.12144e-07
1.60342e-07
4.74036e-08
2.68443e-08
2.3505e-08
2.30722e-08
2.31211e-08
2.32781e-08
2.3447e-08
2.3523e-08
2.34115e-08
2.32011e-08
2.30309e-08
2.30548e-08
1.35723e-06
2.92348e-07
7.09919e-08
3.05204e-08
2.3967e-08
2.3033e-08
2.29226e-08
2.2922e-08
2.29357e-08
2.29458e-08
2.29415e-08
2.29271e-08
2.29189e-08
2.30534e-08
2.05242e-06
4.25655e-07
9.3382e-08
3.37885e-08
2.43744e-08
2.30685e-08
2.29114e-08
2.28966e-08
2.28972e-08
2.28991e-08
2.29002e-08
2.29003e-08
2.29054e-08
2.3075e-08
2.52468e-06
4.98369e-07
1.02764e-07
3.47377e-08
2.44319e-08
2.30628e-08
2.29052e-08
2.28905e-08
2.28903e-08
2.28913e-08
2.28924e-08
2.28933e-08
2.28991e-08
2.30871e-08
2.69233e-06
5.0167e-07
9.89269e-08
3.35616e-08
2.42e-08
2.30242e-08
2.28962e-08
2.2885e-08
2.28849e-08
2.28858e-08
2.28866e-08
2.28875e-08
2.28931e-08
2.30875e-08
2.62458e-06
4.61602e-07
8.8511e-08
3.15696e-08
2.38898e-08
2.2982e-08
2.28891e-08
2.28813e-08
2.28809e-08
2.28812e-08
2.28815e-08
2.28822e-08
2.28872e-08
2.30711e-08
2.39053e-06
3.98022e-07
7.57565e-08
2.94865e-08
2.36152e-08
2.29675e-08
2.29057e-08
2.28969e-08
2.28907e-08
2.28849e-08
2.28808e-08
2.28793e-08
2.28833e-08
2.3052e-08
2.032e-06
3.25031e-07
6.34217e-08
2.77677e-08
2.35413e-08
2.31504e-08
2.31211e-08
2.30828e-08
2.30246e-08
2.29661e-08
2.29225e-08
2.28978e-08
2.28894e-08
2.30269e-08
1.57862e-06
2.4691e-07
5.2075e-08
2.69418e-08
2.45951e-08
2.47978e-08
2.4887e-08
2.46253e-08
2.41693e-08
2.36957e-08
2.33312e-08
2.31095e-08
2.29881e-08
2.3025e-08
1.12436e-06
1.78819e-07
4.52111e-08
3.0817e-08
3.31921e-08
3.66639e-08
3.76204e-08
3.59038e-08
3.27075e-08
2.9294e-08
2.65806e-08
2.48576e-08
2.38465e-08
2.33987e-08
7.45731e-07
1.32869e-07
5.35034e-08
6.18273e-08
8.91476e-08
1.1345e-07
1.20478e-07
1.10116e-07
8.98329e-08
6.76265e-08
4.94251e-08
3.74267e-08
3.01341e-08
2.65017e-08
6.44697e-07
1.57956e-07
1.37591e-07
2.46631e-07
4.16424e-07
5.63628e-07
6.07553e-07
5.49997e-07
4.33388e-07
3.02893e-07
1.92754e-07
1.17629e-07
7.08874e-08
4.69593e-08
3.07296e-08
2.43735e-08
2.3369e-08
2.3463e-08
2.39751e-08
2.48691e-08
2.61539e-08
2.75791e-08
2.85506e-08
2.83792e-08
2.68999e-08
2.51162e-08
2.38192e-08
2.321e-08
4.47227e-08
2.69513e-08
2.35865e-08
2.30225e-08
2.29697e-08
2.30335e-08
2.316e-08
2.33243e-08
2.34685e-08
2.35037e-08
2.33708e-08
2.31702e-08
2.30136e-08
2.29427e-08
7.54383e-08
3.30146e-08
2.46352e-08
2.31591e-08
2.29283e-08
2.29021e-08
2.29098e-08
2.29261e-08
2.29437e-08
2.29533e-08
2.29459e-08
2.29292e-08
2.29157e-08
2.29139e-08
1.25895e-07
4.30116e-08
2.63682e-08
2.3421e-08
2.2959e-08
2.2897e-08
2.28921e-08
2.28948e-08
2.28984e-08
2.29017e-08
2.29036e-08
2.29043e-08
2.29052e-08
2.29123e-08
1.79666e-07
5.30639e-08
2.8017e-08
2.36553e-08
2.29862e-08
2.28977e-08
2.28896e-08
2.28913e-08
2.28939e-08
2.28965e-08
2.28989e-08
2.2901e-08
2.29032e-08
2.29129e-08
2.13149e-07
5.80706e-08
2.86445e-08
2.37151e-08
2.29877e-08
2.28954e-08
2.28874e-08
2.28891e-08
2.28917e-08
2.28942e-08
2.28966e-08
2.28987e-08
2.2901e-08
2.29125e-08
2.19888e-07
5.73977e-08
2.8242e-08
2.36151e-08
2.2968e-08
2.28906e-08
2.28849e-08
2.28869e-08
2.28894e-08
2.28919e-08
2.28941e-08
2.28962e-08
2.28983e-08
2.29112e-08
2.07245e-07
5.33598e-08
2.7349e-08
2.3456e-08
2.29425e-08
2.28853e-08
2.28822e-08
2.28844e-08
2.2887e-08
2.28893e-08
2.28914e-08
2.28934e-08
2.28953e-08
2.29087e-08
1.83005e-07
4.7823e-08
2.6331e-08
2.32968e-08
2.29199e-08
2.28814e-08
2.28805e-08
2.28827e-08
2.28848e-08
2.28867e-08
2.28884e-08
2.28902e-08
2.28922e-08
2.29061e-08
1.51898e-07
4.19957e-08
2.53964e-08
2.31681e-08
2.29095e-08
2.28881e-08
2.2889e-08
2.28894e-08
2.28887e-08
2.28877e-08
2.28873e-08
2.28881e-08
2.28896e-08
2.29028e-08
1.17326e-07
3.62986e-08
2.45893e-08
2.31e-08
2.29639e-08
2.29764e-08
2.29822e-08
2.29686e-08
2.29449e-08
2.29212e-08
2.2904e-08
2.28949e-08
2.28908e-08
2.28986e-08
8.5918e-08
3.16884e-08
2.41104e-08
2.33168e-08
2.34642e-08
2.366e-08
2.37016e-08
2.35902e-08
2.34011e-08
2.32094e-08
2.30635e-08
2.29754e-08
2.29263e-08
2.29088e-08
6.15671e-08
2.87182e-08
2.45907e-08
2.52289e-08