/*--------------------------------*- C++ -*----------------------------------*\
| =========                 |                                                 |
| \\      /  F ield         | OpenFOAM: The Open Source CFD Toolbox           |
|  \\    /   O peration     | Version:  v2106                                 |
|   \\  /    A nd           | Website:  www.openfoam.com                      |
|    \\/     M anipulation  |                                                 |
\*---------------------------------------------------------------------------*/
FoamFile
{
    version     2.0;
    format      ascii;
    arch        "LSB;label=32;scalar=64";
    class       volScalarField;
    location    "0.000179";
    object      nut;
}
// * * * * * * * * * * * * * * * * * * * * * * * * * * * * * * * * * * * * * //

dimensions      [0 2 -1 0 0 0 0];

internalField   nonuniform List<scalar> 
18273
(
9.45844e-05
7.69684e-05
5.89459e-05
4.17385e-05
2.79436e-05
1.91634e-05
1.61187e-05
1.71468e-05
2.3309e-05
3.54865e-05
5.3629e-05
7.35459e-05
8.54977e-05
8.52336e-05
7.52013e-05
5.73257e-05
3.99972e-05
2.59927e-05
1.67587e-05
1.13344e-05
9.42288e-06
1.04944e-05
1.50874e-05
2.49612e-05
4.08405e-05
6.0025e-05
7.35164e-05
7.51347e-05
4.96387e-05
3.45638e-05
2.18954e-05
1.30964e-05
8.25636e-06
5.60721e-06
4.71641e-06
5.65118e-06
9.2297e-06
1.69364e-05
2.98527e-05
4.62081e-05
5.97296e-05
6.37319e-05
2.83293e-05
1.74691e-05
9.95515e-06
5.41715e-06
3.28921e-06
2.29135e-06
2.13409e-06
2.99928e-06
5.58611e-06
1.10626e-05
2.04877e-05
3.33546e-05
4.54175e-05
5.13226e-05
1.50736e-05
8.0184e-06
3.97531e-06
1.88862e-06
1.07174e-06
8.06477e-07
9.57592e-07
1.75005e-06
3.79315e-06
7.99812e-06
1.49745e-05
2.43599e-05
3.35858e-05
3.99297e-05
8.59405e-06
3.96014e-06
1.64327e-06
6.71265e-07
3.53547e-07
3.20326e-07
5.5427e-07
1.28125e-06
2.99298e-06
6.32488e-06
1.15885e-05
1.83581e-05
2.53912e-05
3.17214e-05
6.37095e-06
2.70006e-06
1.05286e-06
4.53048e-07
2.54776e-07
2.77003e-07
5.52531e-07
1.28047e-06
2.83523e-06
5.63547e-06
9.80915e-06
1.50469e-05
2.13701e-05
2.85339e-05
6.62558e-06
2.81703e-06
1.27091e-06
6.78791e-07
4.52586e-07
4.85811e-07
8.18425e-07
1.60573e-06
3.11164e-06
5.59212e-06
9.11719e-06
1.40016e-05
2.1383e-05
3.05216e-05
8.81627e-06
3.86754e-06
2.05081e-06
1.30032e-06
9.67667e-07
9.74228e-07
1.3576e-06
2.2121e-06
3.69845e-06
5.99519e-06
9.37681e-06
1.58872e-05
2.57839e-05
3.86155e-05
1.45589e-05
6.21432e-06
3.55332e-06
2.54392e-06
2.02901e-06
1.92178e-06
2.29176e-06
3.19548e-06
4.74552e-06
7.25088e-06
1.22848e-05
2.23795e-05
3.59485e-05
5.23052e-05
2.80184e-05
1.29792e-05
6.32776e-06
4.78151e-06
4.10095e-06
3.82007e-06
4.11308e-06
5.12541e-06
7.10411e-06
1.14745e-05
2.02625e-05
3.46866e-05
5.15134e-05
6.83125e-05
4.64691e-05
2.9356e-05
1.56636e-05
9.45464e-06
7.8066e-06
7.41112e-06
7.80283e-06
9.3814e-06
1.29797e-05
2.08451e-05
3.37134e-05
5.09089e-05
6.68165e-05
7.84743e-05
6.35339e-05
4.96695e-05
3.20909e-05
1.92671e-05
1.376e-05
1.25839e-05
1.34637e-05
1.63374e-05
2.23161e-05
3.32507e-05
4.75685e-05
6.22164e-05
7.24204e-05
7.75121e-05
7.62143e-05
6.87486e-05
5.26699e-05
3.55604e-05
2.4432e-05
1.98333e-05
1.98924e-05
2.35409e-05
3.08774e-05
4.21737e-05
5.35025e-05
6.24441e-05
6.7871e-05
7.10642e-05
8.83873e-05
6.95762e-05
5.13526e-05
3.51458e-05
2.32779e-05
1.60522e-05
1.33606e-05
1.43671e-05
2.03594e-05
3.21809e-05
4.94229e-05
6.88127e-05
8.27336e-05
8.55126e-05
6.79685e-05
5.03946e-05
3.42931e-05
2.21796e-05
1.45319e-05
9.95103e-06
7.96445e-06
8.53715e-06
1.27172e-05
2.20064e-05
3.65689e-05
5.40202e-05
6.79819e-05
7.24503e-05
4.37392e-05
2.98044e-05
1.87761e-05
1.15253e-05
7.48842e-06
5.1584e-06
4.16275e-06
4.71539e-06
7.85272e-06
1.4856e-05
2.62393e-05
4.0284e-05
5.29373e-05
5.90958e-05
2.38846e-05
1.43689e-05
8.34392e-06
4.82557e-06
3.08421e-06
2.17733e-06
1.91849e-06
2.55735e-06
4.875e-06
9.89285e-06
1.80154e-05
2.85963e-05
3.88254e-05
4.54746e-05
1.16543e-05
5.99747e-06
3.09994e-06
1.63236e-06
1.00913e-06
7.67955e-07
8.55323e-07
1.52301e-06
3.37274e-06
7.18622e-06
1.32315e-05
2.08449e-05
2.82972e-05
3.41374e-05
6.0016e-06
2.64001e-06
1.12429e-06
5.05401e-07
2.9561e-07
2.76693e-07
4.72388e-07
1.11233e-06
2.65527e-06
5.63937e-06
1.01874e-05
1.5685e-05
2.11714e-05
2.63014e-05
4.28378e-06
1.72884e-06
6.45495e-07
2.64048e-07
1.51746e-07
1.89908e-07
4.25265e-07
1.05217e-06
2.41153e-06
4.84821e-06
8.39832e-06
1.26332e-05
1.73058e-05
2.30392e-05
4.56922e-06
1.86108e-06
7.64587e-07
3.67732e-07
2.41964e-07
2.95191e-07
5.69421e-07
1.21743e-06
2.47879e-06
4.56461e-06
7.48983e-06
1.12135e-05
1.66205e-05
2.41048e-05
6.24848e-06
2.62982e-06
1.24999e-06
7.30955e-07
5.41704e-07
5.92079e-07
9.07524e-07
1.59e-06
2.79753e-06
4.68613e-06
7.42922e-06
1.19188e-05
1.95745e-05
3.03877e-05
1.02643e-05
4.27757e-06
2.22589e-06
1.50556e-06
1.20576e-06
1.21587e-06
1.56072e-06
2.30316e-06
3.56395e-06
5.60429e-06
9.1949e-06
1.65007e-05
2.71562e-05
4.11991e-05
2.00113e-05
8.50314e-06
4.02721e-06
2.98926e-06
2.55484e-06
2.50107e-06
2.88916e-06
3.81336e-06
5.48836e-06
8.55989e-06
1.46679e-05
2.55405e-05
3.92748e-05
5.48552e-05
3.58858e-05
2.10699e-05
1.0595e-05
6.10501e-06
5.06738e-06
4.95194e-06
5.52021e-06
6.92575e-06
9.6028e-06
1.50475e-05
2.41736e-05
3.77265e-05
5.28692e-05
6.71542e-05
5.36299e-05
3.86343e-05
2.34898e-05
1.31475e-05
9.33067e-06
8.76626e-06
9.63909e-06
1.19007e-05
1.61879e-05
2.38777e-05
3.50963e-05
4.93562e-05
6.24697e-05
7.2437e-05
6.99676e-05
5.72896e-05
4.07977e-05
2.59955e-05
1.74156e-05
1.43469e-05
1.47517e-05
1.76475e-05
2.32068e-05
3.24173e-05
4.39663e-05
5.54907e-05
6.43277e-05
7.03485e-05
6.52958e-05
4.97539e-05
3.58749e-05
2.4781e-05
1.70468e-05
1.222e-05
9.96847e-06
1.03779e-05
1.46906e-05
2.37652e-05
3.71133e-05
5.26931e-05
6.70626e-05
7.60728e-05
4.7579e-05
3.49904e-05
2.37713e-05
1.57798e-05
1.07798e-05
7.67136e-06
6.08169e-06
6.16246e-06
9.1445e-06
1.62257e-05
2.72984e-05
4.06331e-05
5.2915e-05
6.05874e-05
2.98749e-05
2.0545e-05
1.31128e-05
8.37755e-06
5.69516e-06
4.06486e-06
3.24679e-06
3.48057e-06
5.74947e-06
1.11535e-05
1.9769e-05
3.02177e-05
4.04736e-05
4.79128e-05
1.60392e-05
9.72805e-06
5.78067e-06
3.57057e-06
2.40941e-06
1.75585e-06
1.50852e-06
1.91364e-06
3.6684e-06
7.64206e-06
1.40451e-05
2.19249e-05
2.97583e-05
3.64878e-05
7.54089e-06
3.84286e-06
2.05205e-06
1.1979e-06
8.03891e-07
6.24891e-07
6.64334e-07
1.14785e-06
2.57411e-06
5.57455e-06
1.03765e-05
1.63514e-05
2.22935e-05
2.76826e-05
3.72834e-06
1.55614e-06
6.71821e-07
3.37777e-07
2.22018e-07
2.12063e-07
3.51587e-07
8.36614e-07
2.03514e-06
4.38559e-06
8.05827e-06
1.26202e-05
1.71644e-05
2.14307e-05
2.67818e-06
9.91654e-07
3.44216e-07
1.34203e-07
8.23382e-08
1.18091e-07
2.90557e-07
7.63345e-07
1.81158e-06
3.73354e-06
6.63485e-06
1.024e-05
1.39875e-05
1.80439e-05
2.9296e-06
1.09279e-06
3.94092e-07
1.63849e-07
1.06536e-07
1.54944e-07
3.50576e-07
8.25265e-07
1.78338e-06
3.42805e-06
5.82587e-06
8.85653e-06
1.24218e-05
1.73249e-05
4.0354e-06
1.56777e-06
6.53238e-07
3.44241e-07
2.52516e-07
3.05038e-07
5.2748e-07
1.01793e-06
1.92934e-06
3.42022e-06
5.6007e-06
8.64478e-06
1.31597e-05
2.04289e-05
6.49673e-06
2.57243e-06
1.21926e-06
7.77738e-07
6.23891e-07
6.67892e-07
9.25747e-07
1.46599e-06
2.41998e-06
3.99433e-06
6.54435e-06
1.08917e-05
1.74438e-05
2.71933e-05
1.25225e-05
4.90647e-06
2.35936e-06
1.69892e-06
1.4518e-06
1.48277e-06
1.81527e-06
2.52729e-06
3.81188e-06
6.05905e-06
1.00185e-05
1.65684e-05
2.54928e-05
3.66003e-05
2.32216e-05
1.27519e-05
6.0739e-06
3.5362e-06
3.10139e-06
3.15777e-06
3.68922e-06
4.8324e-06
6.87936e-06
1.03837e-05
1.62494e-05
2.48139e-05
3.58053e-05
4.71474e-05
3.6974e-05
2.44718e-05
1.38348e-05
7.54938e-06
5.89454e-06
5.98343e-06
6.84033e-06
8.60839e-06
1.16355e-05
1.6529e-05
2.38978e-05
3.38347e-05
4.56133e-05
5.66939e-05
5.02641e-05
3.72381e-05
2.4918e-05
1.54603e-05
1.09799e-05
1.01028e-05
1.10627e-05
1.34003e-05
1.72737e-05
2.34883e-05
3.22926e-05
4.25745e-05
5.30564e-05
6.37161e-05
7.91414e-05
8.17866e-05
8.65704e-05
9.41269e-05
0.000100041
8.13468e-05
6.96004e-05
7.19156e-05
7.77362e-05
8.87585e-05
0.000103784
9.48173e-05
6.0463e-05
6.21727e-05
6.74889e-05
8.02729e-05
0.000103984
0.000106969
5.08508e-05
5.27354e-05
5.77199e-05
7.09034e-05
0.000100292
0.000117107
4.24596e-05
4.51458e-05
5.06222e-05
6.37083e-05
9.54699e-05
0.000124603
3.65663e-05
4.10213e-05
4.78312e-05
6.0756e-05
9.18364e-05
0.000129072
3.56859e-05
4.19557e-05
4.99917e-05
6.24992e-05
9.12101e-05
0.00013075
4.0376e-05
4.84566e-05
5.70449e-05
6.83825e-05
9.34449e-05
0.000129809
5.09878e-05
6.00879e-05
6.77759e-05
7.68622e-05
9.70797e-05
0.000126417
6.4756e-05
7.262e-05
7.77619e-05
8.41323e-05
9.89321e-05
0.000120738
7.60263e-05
7.97101e-05
8.18551e-05
8.63479e-05
9.68476e-05
0.000113091
7.93027e-05
7.93794e-05
8.03491e-05
8.44527e-05
9.24223e-05
0.000104478
7.55081e-05
7.50777e-05
7.65932e-05
8.13322e-05
8.80206e-05
9.57199e-05
6.98143e-05
7.04481e-05
7.30176e-05
7.86121e-05
8.50692e-05
8.65675e-05
7.94812e-05
8.0732e-05
8.27958e-05
8.65305e-05
9.15028e-05
8.66436e-05
6.79215e-05
6.94219e-05
7.28796e-05
8.00825e-05
9.3368e-05
9.85462e-05
5.72836e-05
5.86573e-05
6.21309e-05
7.10254e-05
9.11687e-05
0.000108142
4.64412e-05
4.85507e-05
5.25064e-05
6.2161e-05
8.61964e-05
0.000115241
3.71451e-05
4.04302e-05
4.56735e-05
5.61702e-05
8.20356e-05
0.000119818
3.07915e-05
3.5656e-05
4.2798e-05
5.44423e-05
8.08381e-05
0.000122224
2.91228e-05
3.5465e-05
4.41394e-05
5.64632e-05
8.30251e-05
0.000123328
3.24335e-05
4.02176e-05
4.99676e-05
6.22053e-05
8.70253e-05
0.000122891
4.08904e-05
4.99798e-05
5.99781e-05
7.06239e-05
9.12807e-05
0.00012116
5.27153e-05
6.22811e-05
7.10596e-05
7.87542e-05
9.33114e-05
0.000117957
6.47033e-05
7.23043e-05
7.79444e-05
8.21741e-05
9.06582e-05
0.000112709
7.24695e-05
7.61756e-05
7.84473e-05
8.02456e-05
8.50332e-05
0.000105747
7.34166e-05
7.41849e-05
7.4602e-05
7.58586e-05
8.0036e-05
9.72415e-05
6.94257e-05
6.92899e-05
6.93872e-05
7.16271e-05
7.69501e-05
8.7365e-05
7.66175e-05
7.99072e-05
8.01873e-05
7.90886e-05
7.98512e-05
8.55836e-05
6.19713e-05
6.60388e-05
6.9029e-05
7.22411e-05
7.95668e-05
9.44066e-05
5.07155e-05
5.47408e-05
5.84895e-05
6.37918e-05
7.60028e-05
0.000100812
4.02522e-05
4.47242e-05
4.93597e-05
5.63502e-05
7.17362e-05
0.000105173
3.17263e-05
3.68007e-05
4.27541e-05
5.15409e-05
6.97833e-05
0.000108271
2.55467e-05
3.12308e-05
3.8917e-05
4.97277e-05
7.14116e-05
0.000110533
2.27029e-05
2.92098e-05
3.83511e-05
5.06513e-05
7.52754e-05
0.000112359
2.34365e-05
3.05918e-05
4.09086e-05
5.42005e-05
8.00897e-05
0.000113133
2.76301e-05
3.57982e-05
4.72193e-05
6.0745e-05
8.44602e-05
0.000112521
3.48261e-05
4.40557e-05
5.6131e-05
6.88227e-05
8.71949e-05
0.000110552
4.35562e-05
5.35249e-05
6.51226e-05
7.46218e-05
8.56102e-05
0.000106725
5.26186e-05
6.19002e-05
7.11285e-05
7.62634e-05
8.04297e-05
0.000100768
6.03242e-05
6.75653e-05
7.32432e-05
7.46564e-05
7.55062e-05
9.28528e-05
6.51296e-05
7.01512e-05
7.24536e-05
7.16156e-05
7.23272e-05
8.27709e-05
6.55308e-05
6.70364e-05
7.05468e-05
7.7027e-05
8.44631e-05
8.997e-05
6.08765e-05
6.1083e-05
6.41867e-05
7.23735e-05
8.67253e-05
0.000103344
5.62494e-05
5.50866e-05
5.69283e-05
6.57804e-05
8.5399e-05
0.000114784
5.01933e-05
4.91225e-05
5.07165e-05
5.96056e-05
8.22641e-05
0.00012377
4.28753e-05
4.32409e-05
4.6114e-05
5.57481e-05
7.97498e-05
0.000130035
3.50712e-05
3.8278e-05
4.40103e-05
5.51322e-05
7.92684e-05
0.000133524
2.96125e-05
3.5745e-05
4.46662e-05
5.77292e-05
8.20863e-05
0.000134638
2.78094e-05
3.71211e-05
4.8891e-05
6.35113e-05
8.74472e-05
0.000133687
3.11263e-05
4.37884e-05
5.75792e-05
7.22086e-05
9.35404e-05
0.000130079
4.0043e-05
5.55538e-05
6.97423e-05
8.18989e-05
9.74855e-05
0.000123736
5.35383e-05
6.92019e-05
8.0562e-05
8.77784e-05
9.61026e-05
0.000114936
6.78104e-05
7.91924e-05
8.5183e-05
8.74784e-05
9.05684e-05
0.000104832
7.68592e-05
8.22087e-05
8.35227e-05
8.32375e-05
8.41772e-05
9.44478e-05
7.78119e-05
7.91635e-05
7.8161e-05
7.78565e-05
7.90453e-05
8.40393e-05
6.37622e-05
6.37348e-05
6.46866e-05
6.86765e-05
7.64146e-05
8.96287e-05
5.88875e-05
5.83684e-05
5.96584e-05
6.49336e-05
7.75613e-05
0.000100794
5.32887e-05
5.29981e-05
5.42544e-05
5.9999e-05
7.5847e-05
0.000109863
4.57508e-05
4.69188e-05
4.93279e-05
5.58236e-05
7.31189e-05
0.000116598
3.69592e-05
4.02835e-05
4.49588e-05
5.33457e-05
7.17026e-05
0.000120984
2.8804e-05
3.41328e-05
4.16844e-05
5.2646e-05
7.2751e-05
0.000123671
2.34622e-05
3.02813e-05
4.03589e-05
5.39351e-05
7.66433e-05
0.000125253
2.12975e-05
2.99511e-05
4.2229e-05
5.79253e-05
8.30406e-05
0.000125521
2.3291e-05
3.44596e-05
4.88447e-05
6.54863e-05
8.98441e-05
0.00012324
3.01507e-05
4.4235e-05
6.03752e-05
7.57532e-05
9.46786e-05
0.000118834
4.14331e-05
5.72738e-05
7.32714e-05
8.42524e-05
9.40812e-05
0.000112146
5.53334e-05
6.9816e-05
8.1943e-05
8.6487e-05
8.81155e-05
0.000103657
6.77839e-05
7.79311e-05
8.36899e-05
8.28798e-05
8.11236e-05
9.40672e-05
7.41093e-05
7.9479e-05
7.95816e-05
7.66608e-05
7.56322e-05
8.35322e-05
6.57345e-05
6.85042e-05
6.85226e-05
6.84622e-05
7.12748e-05
8.32525e-05
5.57897e-05
6.01923e-05
6.31217e-05
6.63284e-05
7.29213e-05
9.25878e-05
4.76424e-05
5.33968e-05
5.81621e-05
6.30796e-05
7.18807e-05
0.000100228
3.89912e-05
4.59259e-05
5.27826e-05
5.99215e-05
7.02169e-05
0.000106066
3.06098e-05
3.83223e-05
4.72242e-05
5.68849e-05
6.9655e-05
0.000110245
2.36017e-05
3.13182e-05
4.16597e-05
5.40449e-05
7.02281e-05
0.000113272
1.89422e-05
2.64372e-05
3.75135e-05
5.19036e-05
7.22252e-05
0.000115296
1.63287e-05
2.38905e-05
3.55319e-05
5.15571e-05
7.63774e-05
0.000115787
1.60248e-05
2.45311e-05
3.71808e-05
5.46755e-05
8.17685e-05
0.000114223
1.89105e-05
2.89674e-05
4.32954e-05
6.2002e-05
8.63467e-05
0.000110625
2.51445e-05
3.67194e-05
5.31955e-05
7.09421e-05
8.7832e-05
0.000105183
3.40293e-05
4.64376e-05
6.37179e-05
7.7437e-05
8.4573e-05
9.7955e-05
4.46202e-05
5.69264e-05
7.19192e-05
7.93957e-05
7.95486e-05
8.93285e-05
5.47879e-05
6.59273e-05
7.58727e-05
7.749e-05
7.54389e-05
7.92675e-05
8.24869e-05
0.000105221
0.000104088
0.000104259
0.000102702
9.79906e-05
9.62061e-05
0.000116835
0.000109077
0.000103862
9.56096e-05
8.54834e-05
0.000109332
0.000124254
0.000103841
9.06201e-05
7.663e-05
6.34099e-05
0.000119617
0.000118924
8.78661e-05
6.9391e-05
5.40823e-05
4.15782e-05
0.000126149
0.000103054
6.84005e-05
4.93564e-05
3.58749e-05
2.5617e-05
0.00012951
8.48765e-05
5.29802e-05
3.62003e-05
2.50613e-05
1.65653e-05
0.000129977
7.10426e-05
4.39924e-05
3.01095e-05
2.0803e-05
1.31711e-05
0.000129102
6.37587e-05
4.08504e-05
2.97867e-05
2.18506e-05
1.39938e-05
0.000127258
6.22334e-05
4.23576e-05
3.4086e-05
2.74318e-05
1.83344e-05
0.000123565
6.49689e-05
4.71118e-05
4.16453e-05
3.73903e-05
2.76194e-05
0.000117604
6.99186e-05
5.40971e-05
5.03659e-05
4.87808e-05
4.14562e-05
0.000109263
7.50494e-05
6.18286e-05
5.8643e-05
5.86928e-05
5.49376e-05
9.86638e-05
7.77624e-05
6.87148e-05
6.5887e-05
6.6247e-05
6.49391e-05
8.64732e-05
7.64266e-05
7.27108e-05
7.1481e-05
7.27501e-05
7.28811e-05
8.54424e-05
0.000100757
0.000103076
0.000104571
0.000100625
9.28206e-05
9.78719e-05
0.000114194
0.000109388
0.000102658
9.06631e-05
7.8387e-05
0.000108801
0.000123151
0.000103231
8.68563e-05
6.99427e-05
5.63747e-05
0.000116569
0.000118156
8.56592e-05
6.44633e-05
4.76738e-05
3.56399e-05
0.000120877
0.000101481
6.47784e-05
4.42892e-05
3.04849e-05
2.07516e-05
0.000122572
8.2731e-05
4.87596e-05
3.12011e-05
2.02048e-05
1.24701e-05
0.00012229
6.81988e-05
4.00775e-05
2.55065e-05
1.62028e-05
9.48735e-06
0.00012033
5.99592e-05
3.76068e-05
2.55722e-05
1.70363e-05
1.0093e-05
0.000117863
5.75177e-05
3.97219e-05
3.00851e-05
2.17645e-05
1.33715e-05
0.000114808
5.90008e-05
4.47452e-05
3.82337e-05
3.08665e-05
2.033e-05
0.000110579
6.30562e-05
5.1216e-05
4.78815e-05
4.32083e-05
3.2835e-05
0.00010428
6.82831e-05
5.82047e-05
5.69704e-05
5.52195e-05
4.71428e-05
9.57295e-05
7.18581e-05
6.47832e-05
6.46574e-05
6.49895e-05
6.01117e-05
8.53275e-05
7.18865e-05
6.95271e-05
7.14537e-05
7.45256e-05
7.28461e-05
8.4798e-05
9.47099e-05
9.58358e-05
9.25804e-05
8.12492e-05
6.93198e-05
9.67529e-05
0.00010733
9.78271e-05
8.38411e-05
6.6768e-05
5.42834e-05
0.000106086
0.000114038
8.85538e-05
6.65233e-05
4.82363e-05
3.72249e-05
0.000111862
0.000107888
7.15435e-05
4.78928e-05
3.2036e-05
2.29629e-05
0.000114563
9.18967e-05
5.33913e-05
3.26656e-05
2.0629e-05
1.32899e-05
0.000115266
7.53769e-05
4.05757e-05
2.356e-05
1.41944e-05
8.1072e-06
0.000114275
6.31121e-05
3.49522e-05
2.0468e-05
1.2069e-05
6.44734e-06
0.000111809
5.66055e-05
3.47693e-05
2.16755e-05
1.31205e-05
7.01996e-06
0.00010862
5.51077e-05
3.81508e-05
2.59971e-05
1.65695e-05
9.18242e-06
0.000105249
5.71213e-05
4.40571e-05
3.34875e-05
2.3199e-05
1.36443e-05
0.000101426
6.10122e-05
5.10026e-05
4.29173e-05
3.33931e-05
2.28582e-05
9.60122e-05
6.62354e-05
5.84982e-05
5.3104e-05
4.48993e-05
3.42112e-05
8.86264e-05
7.03422e-05
6.55368e-05
6.27485e-05
5.644e-05
4.68256e-05
7.95875e-05
7.1344e-05
7.15398e-05
7.29434e-05
6.97551e-05
6.13143e-05
8.00489e-05
0.000104622
9.76021e-05
9.15304e-05
8.77834e-05
8.57757e-05
9.24094e-05
0.000111899
0.000101538
9.59047e-05
9.19588e-05
8.89761e-05
0.000104904
0.000118457
0.000101505
9.39517e-05
8.76415e-05
8.18197e-05
0.000115445
0.000117403
9.31494e-05
8.22374e-05
7.3029e-05
6.50113e-05
0.000122449
0.000107098
7.76821e-05
6.42912e-05
5.43649e-05
4.64959e-05
0.000126346
9.38408e-05
6.2175e-05
4.81487e-05
3.91002e-05
3.23633e-05
0.00012826
8.31288e-05
5.20029e-05
3.86576e-05
3.05653e-05
2.44817e-05
0.000128311
7.73666e-05
4.83837e-05
3.63171e-05
2.91149e-05
2.31011e-05
0.000126608
7.76233e-05
5.07466e-05
4.04128e-05
3.41868e-05
2.74011e-05
0.000122696
8.29015e-05
5.82878e-05
4.9874e-05
4.50237e-05
3.76656e-05
0.00011596
8.98424e-05
6.91832e-05
6.22773e-05
5.87011e-05
5.20613e-05
0.000106623
9.52988e-05
8.0362e-05
7.49385e-05
7.2726e-05
6.77295e-05
9.53023e-05
9.67706e-05
8.91605e-05
8.60822e-05
8.55156e-05
8.23035e-05
8.26832e-05
9.52649e-05
9.5062e-05
9.59558e-05
9.83194e-05
9.76782e-05
8.52024e-05
9.74742e-05
9.37986e-05
9.10701e-05
8.83648e-05
8.62585e-05
9.62696e-05
0.000106911
0.000100788
9.67414e-05
9.17856e-05
8.74515e-05
0.000106027
0.000115605
0.000102147
9.39477e-05
8.51576e-05
7.76414e-05
0.000113364
0.000116058
9.37085e-05
8.05722e-05
6.88488e-05
5.99776e-05
0.000117728
0.000106261
7.71472e-05
6.15162e-05
4.99873e-05
4.19844e-05
0.000119729
9.2143e-05
6.01614e-05
4.47654e-05
3.49979e-05
2.83792e-05
0.000120401
7.96369e-05
4.87159e-05
3.47336e-05
2.63856e-05
2.06888e-05
0.000120216
7.13226e-05
4.39466e-05
3.17667e-05
2.44679e-05
1.90104e-05
0.00011878
6.82433e-05
4.49692e-05
3.50598e-05
2.86479e-05
2.25138e-05
0.000116645
7.07103e-05
5.07726e-05
4.37925e-05
3.87111e-05
3.14088e-05
0.000112467
7.71203e-05
6.04944e-05
5.59754e-05
5.25908e-05
4.51033e-05
0.000105977
8.42311e-05
7.19606e-05
6.93744e-05
6.77148e-05
6.12625e-05
9.7e-05
8.83027e-05
8.25451e-05
8.23378e-05
8.2277e-05
7.72537e-05
8.58183e-05
8.86079e-05
9.07004e-05
9.50399e-05
9.80638e-05
9.52062e-05
8.59477e-05
8.83742e-05
8.90593e-05
8.80167e-05
8.32394e-05
7.77011e-05
9.72815e-05
9.97067e-05
9.64775e-05
8.92433e-05
7.93862e-05
7.1426e-05
0.000105775
0.000109419
9.58643e-05
8.14631e-05
6.77164e-05
5.84494e-05
0.000110734
0.000110075
8.56074e-05
6.68691e-05
5.2231e-05
4.34357e-05
0.000112854
0.000100412
6.89789e-05
5.0197e-05
3.75878e-05
3.00788e-05
0.000113177
8.65401e-05
5.31445e-05
3.65169e-05
2.66105e-05
2.04373e-05
0.000112491
7.41535e-05
4.30561e-05
2.86879e-05
2.05563e-05
1.52688e-05
0.000110694
6.47977e-05
3.90446e-05
2.67002e-05
1.95036e-05
1.44054e-05
0.000108137
6.02119e-05
3.97958e-05
2.94071e-05
2.25829e-05
1.70337e-05
0.000105534
6.01013e-05
4.45456e-05
3.66204e-05
3.00411e-05
2.33352e-05
0.000102462
6.47385e-05
5.27396e-05
4.71122e-05
4.09028e-05
3.30324e-05
9.83124e-05
7.20203e-05
6.33589e-05
5.99068e-05
5.43014e-05
4.55779e-05
9.2168e-05
7.83415e-05
7.46325e-05
7.36294e-05
6.88841e-05
5.98793e-05
8.37194e-05
8.14085e-05
8.49739e-05
8.88032e-05
8.64708e-05
7.76749e-05
2.78063e-05
2.11968e-05
1.55839e-05
1.15434e-05
8.97446e-06
7.25529e-06
6.19234e-06
5.8151e-06
6.9276e-06
1.03521e-05
1.63428e-05
2.47915e-05
3.56036e-05
4.81377e-05
1.77267e-05
1.3165e-05
9.34797e-06
6.76238e-06
5.20523e-06
4.1521e-06
3.4887e-06
3.30207e-06
4.24216e-06
7.1279e-06
1.23366e-05
1.95492e-05
2.82057e-05
3.75368e-05
1.02219e-05
6.99769e-06
4.71734e-06
3.33496e-06
2.53572e-06
2.00031e-06
1.68802e-06
1.71541e-06
2.55895e-06
4.88888e-06
9.09976e-06
1.4947e-05
2.18885e-05
2.93732e-05
5.19761e-06
3.0428e-06
1.89344e-06
1.31028e-06
9.9365e-07
7.89423e-07
7.07215e-07
8.70145e-07
1.61992e-06
3.46359e-06
6.76867e-06
1.14417e-05
1.70735e-05
2.32261e-05
2.48859e-06
1.14456e-06
6.10633e-07
4.01049e-07
3.04679e-07
2.56594e-07
2.84326e-07
5.00275e-07
1.16069e-06
2.64585e-06
5.27397e-06
9.05492e-06
1.3698e-05
1.8858e-05
1.42356e-06
5.01198e-07
1.95008e-07
1.03453e-07
7.62538e-08
8.07702e-08
1.46518e-07
3.73035e-07
9.6424e-07
2.21065e-06
4.36855e-06
7.49154e-06
1.13871e-05
1.57761e-05
1.19315e-06
3.75955e-07
1.11589e-07
3.81228e-08
2.47368e-08
4.30871e-08
1.21415e-07
3.4959e-07
8.96977e-07
1.99251e-06
3.83697e-06
6.50033e-06
9.86979e-06
1.37837e-05
1.34971e-06
4.35649e-07
1.30512e-07
4.38043e-08
2.86019e-08
5.2047e-08
1.40187e-07
3.75279e-07
9.01617e-07
1.90373e-06
3.54029e-06
5.88389e-06
8.88587e-06
1.25e-05
1.7904e-06
6.13763e-07
2.17547e-07
1.00494e-07
7.48719e-08
1.0281e-07
2.04941e-07
4.5569e-07
9.80105e-07
1.93186e-06
3.44683e-06
5.61147e-06
8.47877e-06
1.22373e-05
2.63821e-06
9.80598e-07
4.43089e-07
2.72106e-07
2.23874e-07
2.54714e-07
3.7912e-07
6.60123e-07
1.20801e-06
2.16474e-06
3.6819e-06
5.91993e-06
9.10451e-06
1.34051e-05
4.4264e-06
1.79692e-06
9.67723e-07
7.05346e-07
6.17481e-07
6.52373e-07
8.22499e-07
1.18491e-06
1.85641e-06
3.01368e-06
4.89988e-06
7.80231e-06
1.17263e-05
1.66484e-05
8.20549e-06
3.88308e-06
2.06617e-06
1.64552e-06
1.51926e-06
1.58254e-06
1.85717e-06
2.41619e-06
3.41978e-06
5.1102e-06
7.83278e-06
1.16751e-05
1.6527e-05
2.19895e-05
1.4329e-05
7.73485e-06
4.37321e-06
3.40704e-06
3.28262e-06
3.43732e-06
3.91606e-06
4.82073e-06
6.36219e-06
8.81244e-06
1.24453e-05
1.73088e-05
2.3365e-05
2.95819e-05
2.06109e-05
1.32401e-05
8.80091e-06
6.70244e-06
6.26766e-06
6.56864e-06
7.33297e-06
8.68583e-06
1.08457e-05
1.40938e-05
1.85751e-05
2.45432e-05
3.20497e-05
4.03058e-05
1.28999e-05
1.03776e-05
8.20452e-06
6.49742e-06
5.49013e-06
4.8001e-06
4.33485e-06
4.05418e-06
4.28585e-06
5.5791e-06
8.43209e-06
1.29072e-05
1.89698e-05
2.70315e-05
7.72731e-06
5.84867e-06
4.42e-06
3.44584e-06
2.89699e-06
2.50832e-06
2.24721e-06
2.1328e-06
2.44284e-06
3.66211e-06
6.29772e-06
1.04905e-05
1.60802e-05
2.3036e-05
4.22425e-06
2.79312e-06
1.97358e-06
1.51511e-06
1.27352e-06
1.0975e-06
9.92096e-07
1.00974e-06
1.36725e-06
2.44686e-06
4.69101e-06
8.30412e-06
1.31803e-05
1.91932e-05
2.14337e-06
1.1375e-06
7.14846e-07
5.34279e-07
4.4889e-07
3.91957e-07
3.78639e-07
4.67436e-07
8.24286e-07
1.7446e-06
3.59482e-06
6.6069e-06
1.07769e-05
1.59636e-05
1.15048e-06
4.53622e-07
2.23815e-07
1.52249e-07
1.25569e-07
1.17043e-07
1.42301e-07
2.55853e-07
5.91152e-07
1.38369e-06
2.93445e-06
5.47756e-06
9.06176e-06
1.36049e-05
7.8945e-07
2.45978e-07
8.28854e-08
4.02947e-08
3.04442e-08
3.6487e-08
7.34606e-08
1.92851e-07
5.10488e-07
1.22296e-06
2.57671e-06
4.78188e-06
7.91578e-06
1.19293e-05
7.13504e-07
2.11403e-07
5.83609e-08
1.78026e-08
1.10837e-08
2.12535e-08
6.32586e-08
1.87744e-07
5.0049e-07
1.17162e-06
2.40712e-06
4.38731e-06
7.197e-06
1.08363e-05
7.97244e-07
2.4475e-07
6.91641e-08
2.19882e-08
1.44532e-08
2.71197e-08
7.51586e-08
2.09365e-07
5.29065e-07
1.18464e-06
2.35058e-06
4.17929e-06
6.75275e-06
1.01064e-05
1.00991e-06
3.30846e-07
1.12988e-07
5.16743e-08
3.99129e-08
5.55542e-08
1.12938e-07
2.62971e-07
6.00132e-07
1.25987e-06
2.3913e-06
4.13001e-06
6.56253e-06
9.76627e-06
1.39626e-06
5.13494e-07
2.38304e-07
1.49355e-07
1.26353e-07
1.44624e-07
2.16154e-07
3.89463e-07
7.52626e-07
1.42817e-06
2.55141e-06
4.24832e-06
6.62419e-06
9.84026e-06
2.12789e-06
9.29882e-07
5.56553e-07
4.17801e-07
3.69747e-07
3.88709e-07
4.85287e-07
7.03432e-07
1.12591e-06
1.87156e-06
3.08345e-06
4.90288e-06
7.4903e-06
1.09568e-05
3.71288e-06
1.81174e-06
1.25341e-06
1.05091e-06
9.67208e-07
9.89759e-07
1.13475e-06
1.44728e-06
2.01659e-06
2.9777e-06
4.505e-06
6.77317e-06
9.78428e-06
1.3466e-05
6.64886e-06
3.56021e-06
2.56995e-06
2.3158e-06
2.22479e-06
2.28559e-06
2.5369e-06
3.03966e-06
3.91095e-06
5.31766e-06
7.47016e-06
1.04123e-05
1.39839e-05
1.76569e-05
1.03308e-05
6.65578e-06
4.97332e-06
4.5115e-06
4.483e-06
4.68247e-06
5.14072e-06
5.95553e-06
7.28286e-06
9.32343e-06
1.2269e-05
1.60471e-05
2.05426e-05
2.46513e-05
5.40747e-06
4.33332e-06
3.61837e-06
3.09597e-06
2.85631e-06
2.70033e-06
2.6008e-06
2.52296e-06
2.56412e-06
2.9447e-06
4.04692e-06
6.17025e-06
9.49477e-06
1.43569e-05
2.978e-06
2.13508e-06
1.68756e-06
1.42112e-06
1.3207e-06
1.25167e-06
1.20707e-06
1.18957e-06
1.29858e-06
1.72786e-06
2.80817e-06
4.86269e-06
8.10652e-06
1.27087e-05
1.55227e-06
9.14348e-07
6.56225e-07
5.40274e-07
5.0258e-07
4.77786e-07
4.69962e-07
4.97444e-07
6.42825e-07
1.06539e-06
2.03772e-06
3.87644e-06
6.83869e-06
1.10898e-05
8.4225e-07
3.67946e-07
2.16045e-07
1.67664e-07
1.53617e-07
1.4805e-07
1.57742e-07
2.04542e-07
3.53876e-07
7.37557e-07
1.58288e-06
3.18536e-06
5.82349e-06
9.67496e-06
5.39544e-07
1.73364e-07
6.99416e-08
4.43103e-08
3.82688e-08
3.95499e-08
5.45647e-08
1.05337e-07
2.48676e-07
6.0034e-07
1.35769e-06
2.78852e-06
5.16222e-06
8.65528e-06
4.25767e-07
1.19186e-07
3.38358e-08
1.29415e-08
9.0845e-09
1.24199e-08
2.8785e-08
8.0459e-08
2.21636e-07
5.60452e-07
1.27496e-06
2.60102e-06
4.77467e-06
7.95721e-06
3.99081e-07
1.12395e-07
2.89937e-08
7.64637e-09
4.10645e-09
8.34905e-09
2.6425e-08
8.20123e-08
2.30257e-07
5.76383e-07
1.28387e-06
2.55821e-06
4.59874e-06
7.5462e-06
4.41344e-07
1.29351e-07
3.43748e-08
1.0274e-08
6.52638e-09
1.19761e-08
3.35455e-08
9.72759e-08
2.60985e-07
6.28544e-07
1.35033e-06
2.60305e-06
4.55355e-06
7.31303e-06
5.41164e-07
1.68534e-07
5.4707e-08
2.47816e-08
1.96381e-08
2.69218e-08
5.43424e-08
1.30901e-07
3.17462e-07
7.16225e-07
1.46482e-06
2.71673e-06
4.61125e-06
7.24218e-06
7.1077e-07
2.5711e-07
1.19325e-07
7.60631e-08
6.58442e-08
7.5279e-08
1.11895e-07
2.06582e-07
4.21011e-07
8.53219e-07
1.6285e-06
2.87969e-06
4.71936e-06
7.23919e-06
1.02877e-06
4.81516e-07
3.01408e-07
2.29538e-07
2.04187e-07
2.13571e-07
2.65133e-07
3.88183e-07
6.41031e-07
1.11635e-06
1.93095e-06
3.20032e-06
5.0278e-06
7.53422e-06
1.69669e-06
9.90659e-07
7.39952e-07
6.23331e-07
5.67249e-07
5.70524e-07
6.43797e-07
8.13497e-07
1.13052e-06
1.68056e-06
2.57684e-06
3.93383e-06
5.86956e-06
8.50042e-06
2.93467e-06
1.97779e-06
1.63067e-06
1.47768e-06
1.39109e-06
1.39228e-06
1.50594e-06
1.76296e-06
2.21256e-06
2.94227e-06
4.06705e-06
5.69946e-06
7.91598e-06
1.06285e-05
4.99053e-06
3.69385e-06
3.17955e-06
3.03261e-06
2.98662e-06
3.04691e-06
3.26013e-06
3.68578e-06
4.38826e-06
5.48474e-06
7.09854e-06
9.30373e-06
1.19259e-05
1.47081e-05
2.1981e-06
1.65859e-06
1.39304e-06
1.26393e-06
1.26785e-06
1.30474e-06
1.34633e-06
1.37559e-06
1.42133e-06
1.56619e-06
2.01427e-06
3.00564e-06
4.77812e-06
7.64154e-06
1.14463e-06
7.30548e-07
5.69247e-07
5.07003e-07
5.11987e-07
5.31707e-07
5.55259e-07
5.79126e-07
6.34681e-07
8.02419e-07
1.25284e-06
2.20898e-06
3.91546e-06
6.64295e-06
6.0308e-07
2.9309e-07
1.96813e-07
1.68669e-07
1.69231e-07
1.76491e-07
1.89708e-07
2.13357e-07
2.75311e-07
4.43594e-07
8.53977e-07
1.70971e-06
3.27316e-06
5.85256e-06
3.63251e-07
1.245e-07
6.06816e-08
4.62436e-08
4.4975e-08
4.74979e-08
5.58566e-08
7.76951e-08
1.36954e-07
2.90109e-07
6.50664e-07
1.40718e-06
2.82983e-06
5.2501e-06
2.63429e-07
7.12798e-08
2.21677e-08
1.15938e-08
9.96867e-09
1.1379e-08
1.78153e-08
3.7527e-08
9.2999e-08
2.36246e-07
5.72197e-07
1.28028e-06
2.62059e-06
4.91269e-06
2.21148e-07
5.73153e-08
1.43004e-08
4.15335e-09
2.41526e-09
3.68337e-09
9.72549e-09
2.92161e-08
8.52832e-08
2.3049e-07
5.68468e-07
1.27176e-06
2.5766e-06
4.75756e-06
2.12474e-07
5.69799e-08
1.36871e-08
3.17031e-09
1.42365e-09
2.91432e-09
9.71566e-09
3.17685e-08
9.49035e-08
2.55801e-07
6.19613e-07
1.34954e-06
2.65188e-06
4.75004e-06
2.37118e-07
6.54553e-08
1.60863e-08
4.4391e-09
2.69066e-09
4.76168e-09
1.34663e-08
4.0847e-08
1.1677e-07
3.03028e-07
7.04923e-07
1.47175e-06
2.78024e-06
4.80985e-06
2.8854e-07
8.34413e-08
2.51197e-08
1.1035e-08
8.87991e-09
1.19796e-08
2.40305e-08
5.98994e-08
1.54023e-07
3.72347e-07
8.17851e-07
1.62507e-06
2.94617e-06
4.9289e-06
3.70165e-07
1.2705e-07
5.70158e-08
3.61413e-08
3.17248e-08
3.63122e-08
5.39597e-08
1.01993e-07
2.18227e-07
4.70179e-07
9.56909e-07
1.79945e-06
3.13e-06
5.06982e-06
5.31375e-07
2.51037e-07
1.56659e-07
1.18253e-07
1.0494e-07
1.09598e-07
1.3632e-07
2.02366e-07
3.45554e-07
6.32904e-07
1.16073e-06
2.03907e-06
3.3784e-06
5.29103e-06
9.0337e-07
5.59875e-07
4.19654e-07
3.47483e-07
3.11452e-07
3.09908e-07
3.48949e-07
4.43358e-07
6.25473e-07
9.57709e-07
1.53333e-06
2.45763e-06
3.83658e-06
5.78734e-06
1.63761e-06
1.19901e-06
9.97035e-07
8.83082e-07
8.12829e-07
7.99112e-07
8.55789e-07
9.97486e-07
1.25077e-06
1.67107e-06
2.34069e-06
3.36161e-06
4.84349e-06
6.90998e-06
2.89706e-06
2.32682e-06
2.04792e-06
1.92435e-06
1.85118e-06
1.84664e-06
1.94336e-06
2.16753e-06
2.55064e-06
3.15482e-06
4.04422e-06
5.30124e-06
6.98566e-06
9.09863e-06
9.63286e-07
6.65924e-07
5.34681e-07
4.86666e-07
5.03863e-07
5.47754e-07
6.01362e-07
6.50043e-07
7.01368e-07
7.90718e-07
1.02497e-06
1.55889e-06
2.57472e-06
4.3152e-06
4.84908e-07
2.67222e-07
1.93657e-07
1.72746e-07
1.79317e-07
1.9607e-07
2.17881e-07
2.40674e-07
2.7522e-07
3.58326e-07
5.77367e-07
1.06566e-06
1.99666e-06
3.5905e-06
2.62681e-07
1.02964e-07
5.99877e-08
5.06987e-08
5.20825e-08
5.69786e-08
6.50361e-08
7.76971e-08
1.06161e-07
1.81262e-07
3.69993e-07
7.86012e-07
1.60259e-06
3.0683e-06
1.69902e-07
4.73539e-08
1.7917e-08
1.24389e-08
1.2204e-08
1.35384e-08
1.70181e-08
2.56644e-08
4.94318e-08
1.13311e-07
2.71998e-07
6.2871e-07
1.35918e-06
2.73623e-06
1.30161e-07
3.1518e-08
7.91552e-09
3.14973e-09
2.47025e-09
2.9863e-09
5.20099e-09
1.2238e-08
3.32613e-08
9.12435e-08
2.37586e-07
5.73574e-07