/*--------------------------------*- C++ -*----------------------------------*\
| =========                 |                                                 |
| \\      /  F ield         | OpenFOAM: The Open Source CFD Toolbox           |
|  \\    /   O peration     | Version:  v2106                                 |
|   \\  /    A nd           | Website:  www.openfoam.com                      |
|    \\/     M anipulation  |                                                 |
\*---------------------------------------------------------------------------*/
FoamFile
{
    version     2.0;
    format      ascii;
    arch        "LSB;label=32;scalar=64";
    class       volScalarField;
    location    "0.000176";
    object      nut;
}
// * * * * * * * * * * * * * * * * * * * * * * * * * * * * * * * * * * * * * //

dimensions      [0 2 -1 0 0 0 0];

internalField   nonuniform List<scalar> 
17924
(
3.62631e-17
3.62595e-17
3.62587e-17
3.6258e-17
3.62604e-17
3.62596e-17
3.6259e-17
3.6258e-17
3.62569e-17
3.62557e-17
3.62546e-17
3.62633e-17
3.6262e-17
3.62613e-17
3.62601e-17
3.62589e-17
3.62577e-17
3.62566e-17
3.62661e-17
3.62641e-17
3.62631e-17
3.6262e-17
3.62609e-17
3.62598e-17
3.62587e-17
3.62693e-17
3.62664e-17
3.62651e-17
3.6264e-17
3.62629e-17
3.62619e-17
3.62609e-17
3.6272e-17
3.62685e-17
3.62671e-17
3.6266e-17
3.6265e-17
3.6264e-17
3.6263e-17
3.62744e-17
3.62706e-17
3.62692e-17
3.62681e-17
3.62671e-17
3.62661e-17
3.62651e-17
3.62765e-17
3.62727e-17
3.62713e-17
3.62703e-17
3.62693e-17
3.62683e-17
3.62672e-17
3.62786e-17
3.6275e-17
3.62736e-17
3.62726e-17
3.62716e-17
3.62705e-17
3.62694e-17
3.62807e-17
3.62772e-17
3.62759e-17
3.6275e-17
3.62739e-17
3.62728e-17
3.62717e-17
3.62828e-17
3.62797e-17
3.62784e-17
3.62774e-17
3.62763e-17
3.62752e-17
3.62741e-17
3.6285e-17
3.62823e-17
3.6281e-17
3.628e-17
3.62789e-17
3.62777e-17
3.62766e-17
3.62873e-17
3.6285e-17
3.62837e-17
3.62827e-17
3.62815e-17
3.62803e-17
3.62791e-17
3.62894e-17
3.62876e-17
3.62865e-17
3.62855e-17
3.62844e-17
3.62832e-17
3.6282e-17
3.62918e-17
3.62904e-17
3.62895e-17
3.62887e-17
3.62879e-17
3.62869e-17
3.62857e-17
3.62612e-17
3.62606e-17
3.62598e-17
3.62587e-17
3.62574e-17
3.62559e-17
3.62544e-17
3.6253e-17
3.62515e-17
3.62501e-17
3.62488e-17
3.62473e-17
3.6246e-17
3.62443e-17
3.62622e-17
3.62614e-17
3.62606e-17
3.62593e-17
3.6258e-17
3.62566e-17
3.62551e-17
3.62537e-17
3.62523e-17
3.6251e-17
3.62497e-17
3.62484e-17
3.62472e-17
3.62459e-17
3.6263e-17
3.62621e-17
3.62612e-17
3.62599e-17
3.62585e-17
3.62572e-17
3.62558e-17
3.62545e-17
3.62532e-17
3.6252e-17
3.62508e-17
3.62496e-17
3.62484e-17
3.62472e-17
3.62639e-17
3.62629e-17
3.62618e-17
3.62606e-17
3.62593e-17
3.62579e-17
3.62566e-17
3.62553e-17
3.6254e-17
3.62528e-17
3.62516e-17
3.62504e-17
3.62493e-17
3.62482e-17
3.62646e-17
3.62636e-17
3.62625e-17
3.62613e-17
3.626e-17
3.62587e-17
3.62574e-17
3.62561e-17
3.62549e-17
3.62536e-17
3.62524e-17
3.62512e-17
3.625e-17
3.62489e-17
3.62655e-17
3.62644e-17
3.62634e-17
3.62622e-17
3.62609e-17
3.62596e-17
3.62583e-17
3.6257e-17
3.62557e-17
3.62544e-17
3.62532e-17
3.62519e-17
3.62507e-17
3.62495e-17
3.62665e-17
3.62654e-17
3.62643e-17
3.62632e-17
3.62619e-17
3.62606e-17
3.62592e-17
3.62579e-17
3.62566e-17
3.62553e-17
3.6254e-17
3.62527e-17
3.62514e-17
3.62501e-17
3.62677e-17
3.62666e-17
3.62654e-17
3.62642e-17
3.62629e-17
3.62616e-17
3.62602e-17
3.62588e-17
3.62574e-17
3.62561e-17
3.62547e-17
3.62534e-17
3.6252e-17
3.62507e-17
3.6269e-17
3.62678e-17
3.62666e-17
3.62654e-17
3.6264e-17
3.62626e-17
3.62612e-17
3.62598e-17
3.62584e-17
3.62569e-17
3.62555e-17
3.62541e-17
3.62527e-17
3.62513e-17
3.62704e-17
3.62692e-17
3.62679e-17
3.62666e-17
3.62652e-17
3.62637e-17
3.62622e-17
3.62608e-17
3.62593e-17
3.62578e-17
3.62564e-17
3.62549e-17
3.62534e-17
3.6252e-17
3.62718e-17
3.62706e-17
3.62692e-17
3.62679e-17
3.62664e-17
3.62649e-17
3.62633e-17
3.62618e-17
3.62603e-17
3.62588e-17
3.62573e-17
3.62558e-17
3.62542e-17
3.62526e-17
3.62733e-17
3.6272e-17
3.62706e-17
3.62692e-17
3.62676e-17
3.62661e-17
3.62645e-17
3.62629e-17
3.62613e-17
3.62597e-17
3.62582e-17
3.62566e-17
3.6255e-17
3.62532e-17
3.62745e-17
3.62733e-17
3.62719e-17
3.62704e-17
3.62688e-17
3.62672e-17
3.62656e-17
3.6264e-17
3.62624e-17
3.62608e-17
3.62591e-17
3.62574e-17
3.62555e-17
3.62534e-17
3.62758e-17
3.62746e-17
3.62732e-17
3.62717e-17
3.62702e-17
3.62685e-17
3.62669e-17
3.62652e-17
3.62635e-17
3.62618e-17
3.626e-17
3.62581e-17
3.6256e-17
3.62538e-17
3.62608e-17
3.62602e-17
3.62594e-17
3.62582e-17
3.62567e-17
3.62551e-17
3.62534e-17
3.62517e-17
3.62499e-17
3.62481e-17
3.62463e-17
3.62443e-17
3.62425e-17
3.62401e-17
3.62606e-17
3.626e-17
3.62591e-17
3.62577e-17
3.62562e-17
3.62547e-17
3.6253e-17
3.62513e-17
3.62496e-17
3.62478e-17
3.62461e-17
3.62442e-17
3.62425e-17
3.62405e-17
3.62603e-17
3.62596e-17
3.62585e-17
3.62571e-17
3.62557e-17
3.62542e-17
3.62526e-17
3.6251e-17
3.62494e-17
3.62477e-17
3.62461e-17
3.62443e-17
3.62427e-17
3.62409e-17
3.626e-17
3.62591e-17
3.6258e-17
3.62567e-17
3.62552e-17
3.62538e-17
3.62522e-17
3.62507e-17
3.62491e-17
3.62475e-17
3.62459e-17
3.62442e-17
3.62426e-17
3.6241e-17
3.62596e-17
3.62587e-17
3.62575e-17
3.62562e-17
3.62548e-17
3.62534e-17
3.62519e-17
3.62504e-17
3.62488e-17
3.62472e-17
3.62456e-17
3.62439e-17
3.62423e-17
3.62406e-17
3.62593e-17
3.62584e-17
3.62572e-17
3.62559e-17
3.62545e-17
3.62531e-17
3.62516e-17
3.625e-17
3.62484e-17
3.62468e-17
3.62452e-17
3.62435e-17
3.62419e-17
3.62402e-17
3.62592e-17
3.62582e-17
3.6257e-17
3.62557e-17
3.62543e-17
3.62528e-17
3.62513e-17
3.62497e-17
3.62481e-17
3.62465e-17
3.62448e-17
3.62431e-17
3.62414e-17
3.62397e-17
3.62592e-17
3.62581e-17
3.62569e-17
3.62556e-17
3.62541e-17
3.62526e-17
3.6251e-17
3.62494e-17
3.62478e-17
3.62461e-17
3.62444e-17
3.62426e-17
3.62409e-17
3.62391e-17
3.62593e-17
3.62581e-17
3.62569e-17
3.62555e-17
3.62539e-17
3.62524e-17
3.62507e-17
3.62491e-17
3.62474e-17
3.62457e-17
3.62439e-17
3.62421e-17
3.62402e-17
3.62385e-17
3.62595e-17
3.62582e-17
3.62568e-17
3.62554e-17
3.62538e-17
3.62521e-17
3.62504e-17
3.62487e-17
3.6247e-17
3.62452e-17
3.62434e-17
3.62415e-17
3.62396e-17
3.62378e-17
3.62598e-17
3.62583e-17
3.62568e-17
3.62553e-17
3.62536e-17
3.62519e-17
3.62501e-17
3.62484e-17
3.62465e-17
3.62447e-17
3.62427e-17
3.62409e-17
3.62388e-17
3.6237e-17
3.62599e-17
3.62584e-17
3.62568e-17
3.62551e-17
3.62534e-17
3.62516e-17
3.62498e-17
3.6248e-17
3.6246e-17
3.62441e-17
3.62421e-17
3.62402e-17
3.6238e-17
3.6236e-17
3.62598e-17
3.62582e-17
3.62566e-17
3.62549e-17
3.62531e-17
3.62513e-17
3.62494e-17
3.62475e-17
3.62455e-17
3.62434e-17
3.62413e-17
3.62392e-17
3.62368e-17
3.62345e-17
3.62594e-17
3.6258e-17
3.62564e-17
3.62547e-17
3.62528e-17
3.62509e-17
3.6249e-17
3.6247e-17
3.6245e-17
3.62429e-17
3.62407e-17
3.62385e-17
3.62359e-17
3.62334e-17
3.62568e-17
3.62563e-17
3.62554e-17
3.62542e-17
3.62527e-17
3.62511e-17
3.62494e-17
3.62475e-17
3.62455e-17
3.62434e-17
3.62413e-17
3.62389e-17
3.62366e-17
3.62337e-17
3.62556e-17
3.62551e-17
3.62541e-17
3.62527e-17
3.62513e-17
3.62496e-17
3.62479e-17
3.62461e-17
3.62441e-17
3.62421e-17
3.624e-17
3.62377e-17
3.62355e-17
3.62331e-17
3.62544e-17
3.62537e-17
3.62525e-17
3.62512e-17
3.62497e-17
3.62482e-17
3.62465e-17
3.62447e-17
3.62429e-17
3.62409e-17
3.62388e-17
3.62367e-17
3.62346e-17
3.62323e-17
3.62531e-17
3.62523e-17
3.62511e-17
3.62497e-17
3.62483e-17
3.62467e-17
3.62451e-17
3.62433e-17
3.62415e-17
3.62395e-17
3.62375e-17
3.62354e-17
3.62334e-17
3.62313e-17
3.62518e-17
3.62508e-17
3.62496e-17
3.62483e-17
3.62468e-17
3.62453e-17
3.62437e-17
3.62419e-17
3.62401e-17
3.62382e-17
3.62362e-17
3.62341e-17
3.62321e-17
3.623e-17
3.62505e-17
3.62495e-17
3.62482e-17
3.62469e-17
3.62454e-17
3.62439e-17
3.62422e-17
3.62405e-17
3.62387e-17
3.62367e-17
3.62348e-17
3.62327e-17
3.62307e-17
3.62286e-17
3.62493e-17
3.62482e-17
3.62469e-17
3.62455e-17
3.6244e-17
3.62424e-17
3.62408e-17
3.6239e-17
3.62372e-17
3.62353e-17
3.62333e-17
3.62313e-17
3.62292e-17
3.62271e-17
3.62481e-17
3.62469e-17
3.62456e-17
3.62441e-17
3.62426e-17
3.6241e-17
3.62393e-17
3.62375e-17
3.62356e-17
3.62337e-17
3.62317e-17
3.62296e-17
3.62275e-17
3.62254e-17
3.6247e-17
3.62457e-17
3.62443e-17
3.62428e-17
3.62412e-17
3.62395e-17
3.62377e-17
3.62359e-17
3.6234e-17
3.6232e-17
3.62299e-17
3.62279e-17
3.62257e-17
3.62237e-17
3.62459e-17
3.62444e-17
3.62429e-17
3.62414e-17
3.62397e-17
3.62379e-17
3.62361e-17
3.62342e-17
3.62322e-17
3.62302e-17
3.62281e-17
3.6226e-17
3.62238e-17
3.62218e-17
3.62448e-17
3.62432e-17
3.62416e-17
3.62399e-17
3.62382e-17
3.62363e-17
3.62344e-17
3.62325e-17
3.62304e-17
3.62283e-17
3.62261e-17
3.6224e-17
3.62217e-17
3.62197e-17
3.62435e-17
3.62418e-17
3.62401e-17
3.62384e-17
3.62365e-17
3.62346e-17
3.62326e-17
3.62306e-17
3.62285e-17
3.62264e-17
3.62241e-17
3.6222e-17
3.62195e-17
3.62175e-17
3.62419e-17
3.62402e-17
3.62386e-17
3.62367e-17
3.62348e-17
3.62328e-17
3.62308e-17
3.62286e-17
3.62264e-17
3.62241e-17
3.62218e-17
3.62195e-17
3.62169e-17
3.62148e-17
3.624e-17
3.62384e-17
3.62367e-17
3.62349e-17
3.62329e-17
3.62309e-17
3.62288e-17
3.62266e-17
3.62244e-17
3.62221e-17
3.62197e-17
3.62173e-17
3.62146e-17
3.62122e-17
3.62464e-17
3.62458e-17
3.62448e-17
3.62437e-17
3.62423e-17
3.62409e-17
3.62392e-17
3.62375e-17
3.62355e-17
3.62335e-17
3.62313e-17
3.6229e-17
3.62266e-17
3.62236e-17
3.62445e-17
3.62438e-17
3.62428e-17
3.62415e-17
3.62402e-17
3.62386e-17
3.6237e-17
3.62352e-17
3.62332e-17
3.62312e-17
3.6229e-17
3.62267e-17
3.62243e-17
3.62218e-17
3.62425e-17
3.62418e-17
3.62406e-17
3.62393e-17
3.62379e-17
3.62364e-17
3.62347e-17
3.6233e-17
3.62311e-17
3.6229e-17
3.62269e-17
3.62247e-17
3.62225e-17
3.62201e-17
3.62405e-17
3.62396e-17
3.62383e-17
3.6237e-17
3.62356e-17
3.62341e-17
3.62324e-17
3.62307e-17
3.62287e-17
3.62267e-17
3.62246e-17
3.62224e-17
3.62202e-17
3.6218e-17
3.62383e-17
3.62373e-17
3.62361e-17
3.62347e-17
3.62333e-17
3.62318e-17
3.62301e-17
3.62283e-17
3.62264e-17
3.62244e-17
3.62223e-17
3.62202e-17
3.6218e-17
3.62158e-17
3.62362e-17
3.62351e-17
3.62338e-17
3.62324e-17
3.62309e-17
3.62294e-17
3.62277e-17
3.62259e-17
3.6224e-17
3.6222e-17
3.62199e-17
3.62178e-17
3.62156e-17
3.62134e-17
3.62341e-17
3.62329e-17
3.62315e-17
3.62301e-17
3.62286e-17
3.6227e-17
3.62252e-17
3.62234e-17
3.62215e-17
3.62195e-17
3.62175e-17
3.62154e-17
3.62132e-17
3.62111e-17
3.62319e-17
3.62305e-17
3.62291e-17
3.62277e-17
3.62261e-17
3.62244e-17
3.62227e-17
3.62208e-17
3.62189e-17
3.62169e-17
3.62149e-17
3.62128e-17
3.62107e-17
3.62085e-17
3.62297e-17
3.62282e-17
3.62268e-17
3.62252e-17
3.62236e-17
3.62219e-17
3.62201e-17
3.62182e-17
3.62163e-17
3.62143e-17
3.62122e-17
3.62101e-17
3.6208e-17
3.6206e-17
3.62273e-17
3.62258e-17
3.62242e-17
3.62226e-17
3.62209e-17
3.62192e-17
3.62173e-17
3.62154e-17
3.62135e-17
3.62115e-17
3.62094e-17
3.62073e-17
3.62051e-17
3.62032e-17
3.6225e-17
3.62233e-17
3.62217e-17
3.622e-17
3.62183e-17
3.62164e-17
3.62145e-17
3.62126e-17
3.62106e-17
3.62085e-17
3.62064e-17
3.62043e-17
3.62021e-17
3.62004e-17
3.62224e-17
3.62206e-17
3.6219e-17
3.62172e-17
3.62154e-17
3.62135e-17
3.62116e-17
3.62096e-17
3.62076e-17
3.62055e-17
3.62034e-17
3.62013e-17
3.61991e-17
3.61974e-17
3.62198e-17
3.62179e-17
3.62163e-17
3.62144e-17
3.62125e-17
3.62106e-17
3.62086e-17
3.62065e-17
3.62043e-17
3.62022e-17
3.62e-17
3.61979e-17
3.61957e-17
3.6194e-17
3.62165e-17
3.62148e-17
3.62131e-17
3.62112e-17
3.62093e-17
3.62074e-17
3.62054e-17
3.62034e-17
3.62013e-17
3.61991e-17
3.61969e-17
3.61948e-17
3.61925e-17
3.61906e-17
3.62283e-17
3.62275e-17
3.62265e-17
3.62254e-17
3.62242e-17
3.6223e-17
3.62217e-17
3.62203e-17
3.62187e-17
3.62172e-17
3.62154e-17
3.62136e-17
3.62117e-17
3.62094e-17
3.62259e-17
3.62251e-17
3.6224e-17
3.62228e-17
3.62216e-17
3.62203e-17
3.62189e-17
3.62174e-17
3.62158e-17
3.62141e-17
3.62123e-17
3.62105e-17
3.62086e-17
3.62065e-17
3.62234e-17
3.62225e-17
3.62213e-17
3.62201e-17
3.62188e-17
3.62175e-17
3.62161e-17
3.62145e-17
3.62129e-17
3.62113e-17
3.62095e-17
3.62077e-17
3.62059e-17
3.62039e-17
3.62208e-17
3.62198e-17
3.62185e-17
3.62173e-17
3.6216e-17
3.62146e-17
3.62132e-17
3.62116e-17
3.621e-17
3.62083e-17
3.62065e-17
3.62046e-17
3.62028e-17
3.6201e-17
3.62181e-17
3.6217e-17
3.62157e-17
3.62145e-17
3.62131e-17
3.62117e-17
3.62102e-17
3.62086e-17
3.6207e-17
3.62053e-17
3.62036e-17
3.62017e-17
3.61999e-17
3.61981e-17
3.62154e-17
3.62142e-17
3.62129e-17
3.62116e-17
3.62102e-17
3.62087e-17
3.62072e-17
3.62056e-17
3.62039e-17
3.62022e-17
3.62005e-17
3.61987e-17
3.61969e-17
3.61951e-17
3.62126e-17
3.62113e-17
3.62099e-17
3.62086e-17
3.62072e-17
3.62057e-17
3.62041e-17
3.62025e-17
3.62009e-17
3.61992e-17
3.61975e-17
3.61957e-17
3.6194e-17
3.61922e-17
3.62096e-17
3.62082e-17
3.62069e-17
3.62055e-17
3.6204e-17
3.62025e-17
3.6201e-17
3.61994e-17
3.61977e-17
3.6196e-17
3.61943e-17
3.61926e-17
3.61909e-17
3.61892e-17
3.62066e-17
3.62052e-17
3.62038e-17
3.62023e-17
3.62009e-17
3.61993e-17
3.61977e-17
3.61961e-17
3.61945e-17
3.61928e-17
3.61911e-17
3.61895e-17
3.61878e-17
3.61863e-17
3.62035e-17
3.62019e-17
3.62005e-17
3.6199e-17
3.61975e-17
3.6196e-17
3.61944e-17
3.61928e-17
3.61912e-17
3.61895e-17
3.61878e-17
3.61862e-17
3.61846e-17
3.61832e-17
3.62004e-17
3.61988e-17
3.61973e-17
3.61958e-17
3.61942e-17
3.61926e-17
3.6191e-17
3.61894e-17
3.61878e-17
3.61861e-17
3.61845e-17
3.6183e-17
3.61814e-17
3.61802e-17
3.6197e-17
3.61953e-17
3.61938e-17
3.61923e-17
3.61907e-17
3.61891e-17
3.61876e-17
3.61859e-17
3.61843e-17
3.61827e-17
3.61811e-17
3.61797e-17
3.61781e-17
3.61771e-17
3.61938e-17
3.61921e-17
3.61906e-17
3.61889e-17
3.61873e-17
3.61857e-17
3.6184e-17
3.61824e-17
3.61807e-17
3.61792e-17
3.61776e-17
3.61762e-17
3.61747e-17
3.61738e-17
3.61898e-17
3.61883e-17
3.61868e-17
3.61852e-17
3.61836e-17
3.61821e-17
3.61805e-17
3.61789e-17
3.61773e-17
3.61758e-17
3.61742e-17
3.61728e-17
3.61714e-17
3.61704e-17
3.62033e-17
3.62023e-17
3.62013e-17
3.62003e-17
3.61994e-17
3.61986e-17
3.61977e-17
3.61969e-17
3.6196e-17
3.61951e-17
3.61942e-17
3.61932e-17
3.61922e-17
3.61911e-17
3.62006e-17
3.61997e-17
3.61986e-17
3.61976e-17
3.61966e-17
3.61957e-17
3.61947e-17
3.61938e-17
3.61928e-17
3.61918e-17
3.61908e-17
3.61898e-17
3.61888e-17
3.61876e-17
3.61977e-17
3.61968e-17
3.61957e-17
3.61947e-17
3.61936e-17
3.61927e-17
3.61917e-17
3.61907e-17
3.61897e-17
3.61887e-17
3.61877e-17
3.61866e-17
3.61857e-17
3.61845e-17
3.61948e-17
3.61939e-17
3.61928e-17
3.61917e-17
3.61907e-17
3.61896e-17
3.61886e-17
3.61876e-17
3.61865e-17
3.61855e-17
3.61844e-17
3.61834e-17
3.61824e-17
3.61812e-17
3.61919e-17
3.61909e-17
3.61898e-17
3.61887e-17
3.61876e-17
3.61866e-17
3.61855e-17
3.61844e-17
3.61834e-17
3.61823e-17
3.61813e-17
3.61803e-17
3.61793e-17
3.61782e-17
3.61889e-17
3.61879e-17
3.61867e-17
3.61856e-17
3.61845e-17
3.61835e-17
3.61824e-17
3.61813e-17
3.61802e-17
3.61792e-17
3.61782e-17
3.61771e-17
3.61761e-17
3.61751e-17
3.61859e-17
3.61848e-17
3.61836e-17
3.61825e-17
3.61814e-17
3.61803e-17
3.61792e-17
3.61782e-17
3.61771e-17
3.61761e-17
3.6175e-17
3.61741e-17
3.61731e-17
3.61722e-17
3.61827e-17
3.61815e-17
3.61804e-17
3.61793e-17
3.61782e-17
3.61771e-17
3.61761e-17
3.6175e-17
3.61739e-17
3.61729e-17
3.61719e-17
3.6171e-17
3.61701e-17
3.61692e-17
3.61796e-17
3.61783e-17
3.61772e-17
3.61761e-17
3.6175e-17
3.61739e-17
3.61728e-17
3.61718e-17
3.61708e-17
3.61698e-17
3.61689e-17
3.6168e-17
3.61671e-17
3.61664e-17
3.61763e-17
3.6175e-17
3.61739e-17
3.61728e-17
3.61717e-17
3.61706e-17
3.61696e-17
3.61686e-17
3.61676e-17
3.61667e-17
3.61658e-17
3.61649e-17
3.61641e-17
3.61635e-17
3.61731e-17
3.61717e-17
3.61706e-17
3.61695e-17
3.61684e-17
3.61674e-17
3.61664e-17
3.61654e-17
3.61644e-17
3.61635e-17
3.61627e-17
3.6162e-17
3.61613e-17
3.61609e-17
3.61697e-17
3.61684e-17
3.61673e-17
3.61662e-17
3.61651e-17
3.61641e-17
3.61631e-17
3.61622e-17
3.61613e-17
3.61605e-17
3.61597e-17
3.6159e-17
3.61583e-17
3.61581e-17
3.61666e-17
3.61653e-17
3.61641e-17
3.6163e-17
3.61619e-17
3.61609e-17
3.61599e-17
3.6159e-17
3.61581e-17
3.61574e-17
3.61566e-17
3.61561e-17
3.61556e-17
3.61556e-17
3.61629e-17
3.61618e-17
3.61607e-17
3.61596e-17
3.61586e-17
3.61576e-17
3.61567e-17
3.61559e-17
3.61551e-17
3.61544e-17
3.61537e-17
3.61531e-17
3.61527e-17
3.61528e-17
3.61731e-17
3.61723e-17
3.61714e-17
3.61709e-17
3.61704e-17
3.617e-17
3.61697e-17
3.61694e-17
3.61692e-17
3.61691e-17
3.6169e-17
3.6169e-17
3.61691e-17
3.6169e-17
3.61704e-17
3.61697e-17
3.61689e-17
3.61683e-17
3.61678e-17
3.61673e-17
3.61669e-17
3.61666e-17
3.61664e-17
3.61662e-17
3.6166e-17
3.61659e-17
3.61659e-17
3.61656e-17
3.61676e-17
3.6167e-17
3.61662e-17
3.61656e-17
3.6165e-17
3.61646e-17
3.61642e-17
3.61638e-17
3.61635e-17
3.61633e-17
3.61631e-17
3.6163e-17
3.6163e-17
3.61627e-17
3.61649e-17
3.61643e-17
3.61635e-17
3.61629e-17
3.61623e-17
3.61618e-17
3.61614e-17
3.6161e-17
3.61607e-17
3.61605e-17
3.61603e-17
3.61601e-17
3.61601e-17
3.61597e-17
3.61622e-17
3.61615e-17
3.61608e-17
3.61602e-17
3.61596e-17
3.61591e-17
3.61586e-17
3.61583e-17
3.6158e-17
3.61577e-17
3.61575e-17
3.61573e-17
3.61573e-17
3.6157e-17
3.61594e-17
3.61588e-17
3.6158e-17
3.61574e-17
3.61568e-17
3.61563e-17
3.61559e-17
3.61555e-17
3.61552e-17
3.6155e-17
3.61548e-17
3.61547e-17
3.61545e-17
3.61544e-17
3.61567e-17
3.6156e-17
3.61553e-17
3.61547e-17
3.61541e-17
3.61536e-17
3.61532e-17
3.61529e-17
3.61526e-17
3.61523e-17
3.61522e-17
3.61521e-17
3.61519e-17
3.61519e-17
3.6154e-17
3.61532e-17
3.61526e-17
3.6152e-17
3.61514e-17
3.6151e-17
3.61506e-17
3.61502e-17
3.615e-17
3.61498e-17
3.61496e-17
3.61495e-17
3.61494e-17
3.61494e-17
3.61513e-17
3.61505e-17
3.61498e-17
3.61493e-17
3.61488e-17
3.61483e-17
3.61479e-17
3.61476e-17
3.61474e-17
3.61472e-17
3.61471e-17
3.61471e-17
3.6147e-17
3.61471e-17
3.61486e-17
3.61477e-17
3.61471e-17
3.61466e-17
3.61461e-17
3.61457e-17
3.61454e-17
3.61451e-17
3.61449e-17
3.61448e-17
3.61447e-17
3.61447e-17
3.61447e-17
3.61449e-17
3.6146e-17
3.61451e-17
3.61445e-17
3.6144e-17
3.61435e-17
3.61431e-17
3.61428e-17
3.61426e-17
3.61425e-17
3.61424e-17
3.61424e-17
3.61425e-17
3.61426e-17
3.61429e-17
3.61433e-17
3.61424e-17
3.61419e-17
3.61414e-17
3.6141e-17
3.61406e-17
3.61404e-17
3.61402e-17
3.61401e-17
3.61401e-17
3.61401e-17
3.61403e-17
3.61405e-17
3.61408e-17
3.61409e-17
3.61401e-17
3.61396e-17
3.6139e-17
3.61386e-17
3.61382e-17
3.6138e-17
3.61379e-17
3.61378e-17
3.61379e-17
3.6138e-17
3.61383e-17
3.61386e-17
3.6139e-17
3.61382e-17
3.61375e-17
3.6137e-17
3.61365e-17
3.61362e-17
3.61359e-17
3.61358e-17
3.61357e-17
3.61357e-17
3.61358e-17
3.6136e-17
3.61363e-17
3.61366e-17
3.6137e-17
3.61396e-17
3.61393e-17
3.6139e-17
3.6139e-17
3.6139e-17
3.61391e-17
3.61393e-17
3.61396e-17
3.614e-17
3.61405e-17
3.61411e-17
3.61418e-17
3.61426e-17
3.61433e-17
3.61373e-17
3.61372e-17
3.61371e-17
3.61369e-17
3.61369e-17
3.6137e-17
3.61372e-17
3.61375e-17
3.61379e-17
3.61384e-17
3.6139e-17
3.61395e-17
3.61403e-17
3.61408e-17
3.61352e-17
3.61352e-17
3.6135e-17
3.61349e-17
3.61349e-17
3.6135e-17
3.61352e-17
3.61355e-17
3.61359e-17
3.61363e-17
3.61369e-17
3.61375e-17
3.61382e-17
3.61387e-17
3.61331e-17
3.61331e-17
3.61329e-17
3.61329e-17
3.61329e-17
3.6133e-17
3.61332e-17
3.61335e-17
3.61339e-17
3.61343e-17
3.61349e-17
3.61354e-17
3.61361e-17
3.61365e-17
3.61312e-17
3.61311e-17
3.61309e-17
3.61309e-17
3.61309e-17
3.6131e-17
3.61312e-17
3.61315e-17
3.61319e-17
3.61324e-17
3.61329e-17
3.61335e-17
3.61341e-17
3.61346e-17
3.61293e-17
3.61291e-17
3.6129e-17
3.61289e-17
3.6129e-17
3.61291e-17
3.61293e-17
3.61296e-17
3.613e-17
3.61305e-17
3.6131e-17
3.61316e-17
3.61322e-17
3.61328e-17
3.61274e-17
3.61272e-17
3.61271e-17
3.6127e-17
3.61271e-17
3.61272e-17
3.61275e-17
3.61278e-17
3.61282e-17
3.61287e-17
3.61292e-17
3.61298e-17
3.61304e-17
3.6131e-17
3.61255e-17
3.61253e-17
3.61252e-17
3.61252e-17
3.61253e-17
3.61254e-17
3.61257e-17
3.6126e-17
3.61264e-17
3.61269e-17
3.61275e-17
3.61281e-17
3.61287e-17
3.61293e-17
3.61237e-17
3.61235e-17
3.61234e-17
3.61234e-17
3.61235e-17
3.61237e-17
3.61239e-17
3.61243e-17
3.61247e-17
3.61253e-17
3.61258e-17
3.61265e-17
3.61271e-17
3.61278e-17
3.61219e-17
3.61217e-17
3.61217e-17
3.61217e-17
3.61218e-17
3.6122e-17
3.61223e-17
3.61227e-17
3.61232e-17
3.61237e-17
3.61243e-17
3.6125e-17
3.61256e-17
3.61264e-17
3.61203e-17
3.61201e-17
3.61201e-17
3.61201e-17
3.61202e-17
3.61205e-17
3.61208e-17
3.61212e-17
3.61217e-17
3.61223e-17
3.61229e-17
3.61236e-17
3.61243e-17
3.61251e-17
3.61187e-17
3.61184e-17
3.61185e-17
3.61185e-17
3.61187e-17
3.6119e-17
3.61193e-17
3.61198e-17
3.61203e-17
3.61209e-17
3.61216e-17
3.61223e-17
3.6123e-17
3.61239e-17
3.61172e-17
3.6117e-17
3.61171e-17
3.61172e-17
3.61173e-17
3.61176e-17
3.6118e-17
3.61185e-17
3.6119e-17
3.61197e-17
3.61204e-17
3.61212e-17
3.6122e-17
3.61229e-17
3.61157e-17
3.61155e-17
3.61156e-17
3.61158e-17
3.6116e-17
3.61164e-17
3.61168e-17
3.61173e-17
3.61179e-17
3.61186e-17
3.61193e-17
3.61201e-17
3.61209e-17
3.61218e-17
3.61042e-17
3.61045e-17
3.61049e-17
3.61054e-17
3.61059e-17
3.61065e-17
3.61071e-17
3.61078e-17
3.61086e-17
3.61094e-17
3.61104e-17
3.61114e-17
3.61125e-17
3.61138e-17
3.6103e-17
3.61034e-17
3.61038e-17
3.61043e-17
3.61048e-17
3.61054e-17
3.61061e-17
3.61068e-17
3.61076e-17
3.61085e-17
3.61094e-17
3.61104e-17
3.61115e-17
3.61125e-17
3.61019e-17
3.61024e-17
3.61027e-17
3.61032e-17
3.61038e-17
3.61044e-17
3.6105e-17
3.61058e-17
3.61066e-17
3.61075e-17
3.61085e-17
3.61095e-17
3.61106e-17
3.61115e-17
3.61009e-17
3.61013e-17
3.61017e-17
3.61022e-17
3.61028e-17
3.61034e-17
3.61041e-17
3.61048e-17
3.61056e-17
3.61065e-17
3.61075e-17
3.61085e-17
3.61096e-17
3.61105e-17
3.60999e-17
3.61004e-17
3.61007e-17
3.61012e-17
3.61018e-17
3.61024e-17
3.61031e-17
3.61038e-17
3.61047e-17
3.61056e-17
3.61066e-17
3.61076e-17
3.61086e-17
3.61096e-17
3.6099e-17
3.60994e-17
3.60998e-17
3.61003e-17
3.61008e-17
3.61015e-17
3.61022e-17
3.61029e-17
3.61038e-17
3.61047e-17
3.61056e-17
3.61066e-17
3.61076e-17
3.61086e-17
3.60981e-17
3.60985e-17
3.60989e-17
3.60994e-17
3.60999e-17
3.61006e-17
3.61013e-17
3.61021e-17
3.61029e-17
3.61038e-17
3.61048e-17
3.61058e-17
3.61067e-17
3.61078e-17
3.60972e-17
3.60976e-17
3.6098e-17
3.60985e-17
3.60991e-17
3.60998e-17
3.61005e-17
3.61013e-17
3.61021e-17
3.6103e-17
3.6104e-17
3.6105e-17
3.61059e-17
3.61069e-17
3.60965e-17
3.60968e-17
3.60973e-17
3.60978e-17
3.60983e-17
3.6099e-17
3.60997e-17
3.61005e-17
3.61014e-17
3.61023e-17
3.61033e-17
3.61042e-17
3.61052e-17
3.61062e-17
3.60957e-17
3.60961e-17
3.60965e-17
3.60971e-17
3.60977e-17
3.60983e-17
3.60991e-17
3.60999e-17
3.61008e-17
3.61017e-17
3.61026e-17
3.61036e-17
3.61045e-17
3.61056e-17
3.60951e-17
3.60954e-17
3.60959e-17
3.60964e-17
3.60971e-17
3.60977e-17
3.60985e-17
3.60993e-17
3.61002e-17
3.61011e-17
3.61021e-17
3.6103e-17
3.6104e-17
3.6105e-17
3.60945e-17
3.60948e-17
3.60954e-17
3.60959e-17
3.60965e-17
3.60972e-17
3.6098e-17
3.60988e-17
3.60997e-17
3.61006e-17
3.61016e-17
3.61026e-17
3.61035e-17
3.61045e-17
3.60939e-17
3.60944e-17
3.60949e-17
3.60955e-17
3.60961e-17
3.60968e-17
3.60976e-17
3.60984e-17
3.60993e-17
3.61002e-17
3.61012e-17
3.61022e-17
3.61032e-17
3.61042e-17
3.60934e-17
3.60938e-17
3.60944e-17
3.60951e-17
3.60958e-17
3.60965e-17
3.60973e-17
3.60981e-17
3.6099e-17
3.60999e-17
3.61009e-17
3.61018e-17
3.61028e-17
3.61039e-17
3.60676e-17
3.60684e-17
3.60692e-17
3.607e-17
3.60709e-17
3.60717e-17
3.60726e-17
3.60735e-17
3.60744e-17
3.60753e-17
3.60763e-17
3.60774e-17
3.60785e-17
3.60796e-17
3.60674e-17
3.60683e-17
3.60691e-17
3.607e-17
3.60708e-17
3.60717e-17
3.60726e-17
3.60735e-17
3.60745e-17
3.60754e-17
3.60765e-17
3.60775e-17
3.60786e-17
3.60797e-17
3.60674e-17
3.60683e-17
3.60691e-17
3.60699e-17
3.60708e-17
3.60717e-17
3.60726e-17
3.60736e-17
3.60745e-17
3.60755e-17
3.60765e-17
3.60776e-17
3.60787e-17
3.60798e-17
3.60674e-17
3.60682e-17
3.60691e-17
3.60699e-17
3.60708e-17
3.60717e-17
3.60727e-17
3.60736e-17
3.60746e-17
3.60756e-17
3.60766e-17
3.60777e-17
3.60788e-17
3.60798e-17
3.60675e-17
3.60683e-17
3.60691e-17
3.607e-17
3.60708e-17
3.60717e-17
3.60727e-17
3.60736e-17
3.60746e-17
3.60756e-17
3.60767e-17
3.60777e-17
3.60788e-17
3.60799e-17
3.60675e-17
3.60683e-17
3.60691e-17
3.607e-17
3.60709e-17
3.60718e-17
3.60727e-17
3.60737e-17
3.60747e-17
3.60757e-17
3.60767e-17
3.60778e-17
3.60789e-17
3.60799e-17
3.60676e-17
3.60683e-17
3.60692e-17
3.607e-17
3.60709e-17
3.60718e-17
3.60727e-17
3.60737e-17
3.60747e-17
3.60757e-17
3.60768e-17
3.60778e-17
3.60788e-17
3.60799e-17
3.60676e-17
3.60684e-17
3.60692e-17
3.60701e-17
3.6071e-17
3.60719e-17
3.60728e-17
3.60738e-17
3.60748e-17
3.60758e-17
3.60768e-17
3.60779e-17
3.60789e-17
3.60799e-17
3.60677e-17
3.60685e-17
3.60693e-17
3.60702e-17
3.60711e-17
3.6072e-17
3.60729e-17
3.60739e-17
3.60749e-17
3.60759e-17
3.60769e-17
3.60779e-17
3.60789e-17
3.60799e-17
3.60678e-17
3.60686e-17
3.60694e-17
3.60703e-17
3.60712e-17
3.60721e-17
3.60731e-17
3.6074e-17
3.6075e-17
3.6076e-17
3.6077e-17
3.6078e-17
3.6079e-17
3.608e-17
3.6068e-17
3.60688e-17
3.60696e-17
3.60705e-17
3.60714e-17
3.60723e-17
3.60732e-17
3.60742e-17
3.60752e-17
3.60761e-17
3.60771e-17
3.60781e-17
3.60791e-17
3.608e-17
3.60682e-17
3.6069e-17
3.60698e-17
3.60707e-17
3.60716e-17
3.60725e-17
3.60735e-17
3.60744e-17
3.60754e-17
3.60763e-17
3.60773e-17
3.60783e-17
3.60792e-17
3.60801e-17
3.60684e-17
3.60692e-17
3.60701e-17
3.6071e-17
3.60719e-17
3.60728e-17
3.60737e-17
3.60747e-17
3.60756e-17
3.60766e-17
3.60775e-17
3.60785e-17
3.60794e-17
3.60804e-17
3.60686e-17
3.60695e-17
3.60703e-17
3.60713e-17
3.60722e-17
3.60731e-17
3.6074e-17
3.6075e-17
3.60759e-17
3.60768e-17
3.60777e-17
3.60786e-17
3.60795e-17
3.60805e-17
3.60301e-17
3.6031e-17
3.60319e-17
3.60328e-17
3.60338e-17
3.60346e-17
3.60355e-17
3.60364e-17
3.60372e-17
3.6038e-17
3.60388e-17
3.60396e-17
3.60405e-17
3.60413e-17
3.60307e-17
3.60316e-17
3.60326e-17
3.60335e-17
3.60345e-17
3.60354e-17
3.60363e-17
3.60372e-17
3.60381e-17
3.6039e-17
3.60398e-17
3.60406e-17
3.60414e-17
3.60422e-17
3.60315e-17
3.60324e-17
3.60334e-17
3.60343e-17
3.60353e-17
3.60362e-17
3.60372e-17
3.60381e-17
3.60389e-17
3.60398e-17
3.60406e-17
3.60414e-17
3.60423e-17
3.60431e-17
3.60322e-17
3.60331e-17
3.60341e-17
3.60351e-17
3.60361e-17
3.6037e-17
3.6038e-17
3.60389e-17
3.60397e-17
3.60406e-17
3.60415e-17
3.60423e-17
3.60432e-17
3.6044e-17
3.6033e-17
3.60339e-17
3.60349e-17
3.60359e-17
3.60369e-17
3.60378e-17
3.60387e-17
3.60396e-17
3.60405e-17
3.60414e-17
3.60422e-17
3.60431e-17
3.60439e-17
3.60448e-17
3.60337e-17
3.60347e-17
3.60356e-17
3.60366e-17
3.60376e-17
3.60385e-17
3.60395e-17
3.60404e-17
3.60413e-17
3.60421e-17
3.6043e-17
3.60438e-17
3.60447e-17
3.60455e-17
3.60344e-17
3.60354e-17
3.60364e-17
3.60373e-17
3.60383e-17
3.60392e-17
3.60402e-17
3.60411e-17
3.6042e-17
3.60428e-17
3.60437e-17
3.60445e-17
3.60454e-17
3.60462e-17
3.60351e-17
3.60361e-17
3.60371e-17
3.60381e-17
3.6039e-17
3.604e-17
3.60409e-17
3.60418e-17
3.60427e-17
3.60435e-17
3.60444e-17
3.60452e-17
3.6046e-17
3.60469e-17
3.60358e-17
3.60368e-17
3.60378e-17
3.60387e-17
3.60397e-17
3.60406e-17
3.60416e-17
3.60425e-17
3.60433e-17
3.60442e-17
3.6045e-17
3.60459e-17
3.60467e-17
3.60475e-17
3.60365e-17
3.60375e-17
3.60384e-17
3.60394e-17
3.60404e-17
3.60413e-17
3.60422e-17
3.60431e-17
3.6044e-17
3.60448e-17
3.60457e-17
3.60465e-17
3.60473e-17
3.6048e-17
3.60371e-17
3.60381e-17
3.60391e-17
3.60401e-17
3.60411e-17
3.6042e-17
3.60429e-17
3.60438e-17
3.60446e-17
3.60455e-17
3.60462e-17
3.6047e-17
3.60478e-17
3.60486e-17
3.60378e-17
3.60388e-17
3.60398e-17
3.60408e-17
3.60417e-17
3.60427e-17
3.60436e-17
3.60444e-17
3.60453e-17
3.60461e-17
3.60468e-17
3.60476e-17
3.60483e-17
3.60491e-17
3.60385e-17
3.60395e-17
3.60405e-17
3.60415e-17
3.60424e-17
3.60433e-17
3.60442e-17
3.60451e-17
3.60459e-17
3.60467e-17
3.60474e-17
3.60481e-17
3.60489e-17
3.60496e-17
3.60393e-17
3.60402e-17
3.60412e-17
3.60422e-17
3.60431e-17
3.6044e-17
3.60449e-17
3.60457e-17
3.60465e-17
3.60472e-17
3.60479e-17
3.60486e-17
3.60494e-17
3.60501e-17
3.59927e-17
3.59934e-17
3.59942e-17
3.59949e-17
3.59957e-17
3.59964e-17
3.59971e-17
3.59977e-17
3.59983e-17
3.59989e-17
3.59994e-17
3.59999e-17
3.60003e-17
3.60009e-17
3.59937e-17
3.59944e-17
3.59952e-17
3.5996e-17
3.59968e-17
3.59975e-17
3.59982e-17
3.59989e-17
3.59995e-17
3.60001e-17
3.60007e-17
3.60011e-17
3.60016e-17
3.60021e-17
3.59948e-17
3.59955e-17
3.59964e-17
3.59971e-17
3.5998e-17
3.59987e-17
3.59994e-17
3.60001e-17
3.60007e-17
3.60013e-17
3.60018e-17
3.60023e-17
3.60028e-17
3.60032e-17
3.59958e-17
3.59966e-17
3.59974e-17
3.59982e-17
3.59991e-17
3.59998e-17
3.60005e-17
3.60012e-17
3.60019e-17
3.60024e-17
3.6003e-17
3.60035e-17
3.60039e-17
3.60044e-17
3.59968e-17
3.59977e-17
3.59985e-17
3.59994e-17
3.60002e-17
3.60009e-17
3.60016e-17
3.60023e-17
3.60029e-17
3.60035e-17
3.60041e-17
3.60046e-17
3.60051e-17
3.60055e-17
3.59979e-17
3.59987e-17
3.59996e-17
3.60004e-17
3.60012e-17
3.6002e-17
3.60027e-17
3.60034e-17
3.6004e-17
3.60046e-17
3.60052e-17
3.60057e-17
3.60062e-17
3.60066e-17
3.59988e-17
3.59997e-17
3.60006e-17
3.60014e-17
3.60023e-17
3.6003e-17
3.60037e-17
3.60044e-17
3.6005e-17
3.60056e-17
3.60062e-17
3.60067e-17
3.60072e-17
3.60076e-17
3.59998e-17
3.60007e-17
3.60016e-17
3.60024e-17
3.60032e-17
3.6004e-17
3.60047e-17
3.60054e-17
3.6006e-17
3.60066e-17
3.60071e-17
3.60077e-17
3.60081e-17
3.60086e-17
3.60007e-17
3.60017e-17
3.60025e-17
3.60034e-17
3.60042e-17
3.60049e-17
3.60057e-17
3.60063e-17
3.60069e-17
3.60075e-17
3.60081e-17
3.60086e-17
3.60091e-17
3.60095e-17
3.60017e-17
3.60026e-17
3.60034e-17
3.60043e-17
3.60051e-17
3.60059e-17
3.60066e-17
3.60072e-17
3.60078e-17
3.60084e-17
3.60089e-17
3.60094e-17
3.60099e-17
3.60104e-17
3.60026e-17
3.60035e-17
3.60043e-17
3.60052e-17
3.6006e-17
3.60067e-17
3.60074e-17
3.60081e-17
3.60086e-17
3.60092e-17
3.60097e-17
3.60102e-17
3.60107e-17
3.60111e-17
3.60034e-17
3.60044e-17
3.60052e-17
3.6006e-17
3.60068e-17
3.60075e-17
3.60082e-17
3.60089e-17
3.60094e-17
3.601e-17
3.60105e-17
3.6011e-17
3.60114e-17
3.60119e-17
3.60043e-17
3.60052e-17
3.6006e-17
3.60068e-17
3.60076e-17
3.60083e-17
3.6009e-17
3.60096e-17
3.60102e-17
3.60107e-17
3.60112e-17
3.60117e-17
3.60121e-17
3.60126e-17
3.60052e-17
3.60061e-17
3.60069e-17
3.60077e-17
3.60084e-17
3.60091e-17