/*--------------------------------*- C++ -*----------------------------------*\
| =========                 |                                                 |
| \\      /  F ield         | OpenFOAM: The Open Source CFD Toolbox           |
|  \\    /   O peration     | Version:  v2106                                 |
|   \\  /    A nd           | Website:  www.openfoam.com                      |
|    \\/     M anipulation  |                                                 |
\*---------------------------------------------------------------------------*/
FoamFile
{
    version     2.0;
    format      ascii;
    arch        "LSB;label=32;scalar=64";
    class       volScalarField;
    location    "0.000176";
    object      rho;
}
// * * * * * * * * * * * * * * * * * * * * * * * * * * * * * * * * * * * * * //

dimensions      [1 -3 0 0 0 0 0];

internalField   nonuniform List<scalar> 
17924
(
2.70579
2.70562
2.70552
2.7054
2.70594
2.70575
2.70559
2.70537
2.70516
2.70494
2.70473
2.70628
2.70608
2.70594
2.70574
2.70554
2.70533
2.70513
2.70656
2.70641
2.70627
2.70608
2.7059
2.7057
2.70551
2.7069
2.70677
2.70663
2.70645
2.70627
2.70608
2.70589
2.70725
2.70713
2.70699
2.70682
2.70664
2.70645
2.70627
2.70763
2.70751
2.70737
2.7072
2.70702
2.70684
2.70664
2.70801
2.7079
2.70776
2.70759
2.70741
2.70722
2.70702
2.70842
2.70831
2.70816
2.70799
2.70781
2.70762
2.70742
2.70885
2.70873
2.70857
2.70841
2.70822
2.70803
2.70782
2.7093
2.70918
2.70901
2.70884
2.70865
2.70845
2.70824
2.70978
2.70965
2.70948
2.7093
2.7091
2.70889
2.70868
2.71029
2.71015
2.70996
2.70978
2.70957
2.70936
2.70914
2.71082
2.71068
2.71048
2.71029
2.71007
2.70985
2.70962
2.71145
2.71121
2.71099
2.71078
2.71056
2.71034
2.71012
2.70605
2.70584
2.70565
2.7054
2.70515
2.70488
2.7046
2.70432
2.70404
2.70376
2.70349
2.70323
2.70299
2.70275
2.7061
2.70591
2.70573
2.7055
2.70526
2.70499
2.70472
2.70445
2.70418
2.70391
2.70365
2.7034
2.70317
2.70294
2.70615
2.706
2.70581
2.70558
2.70534
2.70509
2.70483
2.70457
2.70431
2.70406
2.70382
2.70359
2.70335
2.70312
2.70625
2.70611
2.70592
2.7057
2.70546
2.70521
2.70496
2.7047
2.70445
2.7042
2.70396
2.70372
2.7035
2.70328
2.70638
2.70624
2.70604
2.70583
2.70559
2.70534
2.70509
2.70484
2.70458
2.70433
2.70409
2.70386
2.70363
2.7034
2.70654
2.70639
2.70619
2.70597
2.70573
2.70549
2.70524
2.70498
2.70472
2.70447
2.70423
2.70398
2.70375
2.70351
2.70672
2.70656
2.70635
2.70613
2.70589
2.70564
2.70538
2.70513
2.70487
2.70461
2.70436
2.70411
2.70386
2.70361
2.70693
2.70675
2.70654
2.70631
2.70606
2.7058
2.70554
2.70527
2.70501
2.70474
2.70448
2.70421
2.70395
2.7037
2.70715
2.70696
2.70673
2.70649
2.70623
2.70597
2.7057
2.70543
2.70515
2.70488
2.7046
2.70433
2.70405
2.70378
2.70739
2.70719
2.70695
2.7067
2.70643
2.70616
2.70587
2.70559
2.7053
2.70502
2.70473
2.70444
2.70415
2.70386
2.70764
2.70742
2.70717
2.70691
2.70663
2.70634
2.70605
2.70576
2.70546
2.70517
2.70487
2.70457
2.70426
2.70394
2.7079
2.70767
2.7074
2.70713
2.70685
2.70655
2.70625
2.70594
2.70563
2.70532
2.70501
2.70469
2.70437
2.70403
2.70819
2.70794
2.70766
2.70736
2.70706
2.70675
2.70644
2.70613
2.70581
2.70548
2.70515
2.70482
2.70447
2.7041
2.70853
2.70819
2.70788
2.70758
2.70727
2.70696
2.70664
2.70632
2.70599
2.70566
2.70532
2.70497
2.70461
2.70422
2.70585
2.70566
2.70545
2.70519
2.70492
2.70461
2.70429
2.70394
2.7036
2.70324
2.70289
2.70251
2.70217
2.70179
2.70569
2.70553
2.70532
2.70508
2.7048
2.70451
2.70419
2.70386
2.70352
2.70317
2.70282
2.70245
2.70212
2.70176
2.70555
2.70541
2.70519
2.70495
2.70468
2.70439
2.70409
2.70377
2.70345
2.70311
2.70278
2.70244
2.70211
2.70176
2.70544
2.7053
2.70508
2.70484
2.70457
2.70429
2.70399
2.70368
2.70337
2.70305
2.70273
2.7024
2.70208
2.70175
2.70537
2.70521
2.70498
2.70474
2.70448
2.7042
2.7039
2.7036
2.70329
2.70297
2.70266
2.70233
2.70201
2.70168
2.7053
2.70513
2.7049
2.70466
2.70439
2.70411
2.70382
2.70351
2.7032
2.70288
2.70257
2.70224
2.70192
2.70159
2.70527
2.70507
2.70484
2.70459
2.70432
2.70404
2.70374
2.70343
2.70312
2.7028
2.70247
2.70215
2.70182
2.70148
2.70525
2.70504
2.70479
2.70453
2.70425
2.70396
2.70366
2.70335
2.70302
2.7027
2.70236
2.70203
2.70169
2.70135
2.70525
2.70501
2.70476
2.70449
2.70419
2.70389
2.70358
2.70326
2.70293
2.70259
2.70224
2.7019
2.70154
2.70119
2.70524
2.70499
2.70472
2.70443
2.70413
2.70382
2.7035
2.70317
2.70282
2.70247
2.70211
2.70176
2.70137
2.70102
2.70526
2.70498
2.70469
2.70439
2.70408
2.70375
2.70341
2.70307
2.70271
2.70234
2.70196
2.70159
2.70118
2.70082
2.70527
2.70497
2.70466
2.70434
2.70401
2.70368
2.70333
2.70297
2.70259
2.70221
2.70181
2.70142
2.70099
2.70061
2.70529
2.70495
2.70463
2.70429
2.70395
2.7036
2.70323
2.70285
2.70246
2.70206
2.70164
2.70122
2.70077
2.70037
2.70528
2.70492
2.70459
2.70423
2.70387
2.7035
2.70312
2.70273
2.70234
2.70193
2.70151
2.70108
2.70062
2.70017
2.70494
2.70476
2.70454
2.70429
2.70401
2.7037
2.70336
2.703
2.70261
2.7022
2.70178
2.70132
2.7009
2.7004
2.70459
2.70445
2.70423
2.704
2.70372
2.70341
2.70308
2.70271
2.70233
2.70192
2.7015
2.70106
2.70064
2.70018
2.70428
2.70415
2.70392
2.70368
2.7034
2.70311
2.70278
2.70243
2.70205
2.70166
2.70125
2.70083
2.70041
2.69997
2.704
2.70386
2.70362
2.70338
2.7031
2.70281
2.70248
2.70214
2.70177
2.70138
2.70099
2.70057
2.70017
2.69974
2.70374
2.70357
2.70333
2.70309
2.70281
2.70251
2.70219
2.70185
2.70149
2.70111
2.70072
2.70032
2.69992
2.6995
2.70348
2.70329
2.70304
2.70279
2.70251
2.70221
2.70189
2.70155
2.70119
2.70081
2.70043
2.70003
2.69963
2.69922
2.70324
2.70302
2.70277
2.70251
2.70222
2.70191
2.70159
2.70124
2.70088
2.70051
2.70013
2.69973
2.69933
2.69892
2.70299
2.70275
2.70249
2.70221
2.70192
2.7016
2.70127
2.70092
2.70056
2.70018
2.69979
2.6994
2.69899
2.69859
2.70276
2.7025
2.70222
2.70193
2.70162
2.7013
2.70096
2.7006
2.70022
2.69984
2.69944
2.69904
2.69862
2.69823
2.70251
2.70222
2.70193
2.70163
2.70131
2.70097
2.70062
2.70026
2.69987
2.69948
2.69907
2.69866
2.69822
2.69783
2.70227
2.70196
2.70166
2.70133
2.701
2.70065
2.70028
2.6999
2.69949
2.69909
2.69866
2.69824
2.69779
2.69741
2.702
2.70166
2.70134
2.701
2.70065
2.70029
2.69991
2.69952
2.69911
2.69869
2.69825
2.69782
2.69734
2.69696
2.70174
2.70138
2.70104
2.70069
2.70032
2.69994
2.69954
2.69912
2.69868
2.69824
2.69778
2.69733
2.69684
2.69645
2.70143
2.70104
2.70069
2.70032
2.69993
2.69954
2.69913
2.69871
2.69827
2.69783
2.69736
2.69691
2.69641
2.69597
2.70274
2.70257
2.70235
2.70213
2.70187
2.70158
2.70127
2.70092
2.70055
2.70015
2.69972
2.69926
2.69881
2.6983
2.70228
2.70214
2.70192
2.7017
2.70144
2.70115
2.70082
2.70047
2.70009
2.69968
2.69925
2.69879
2.69834
2.69786
2.70185
2.70171
2.70148
2.70125
2.70098
2.70069
2.70037
2.70002
2.69965
2.69925
2.69883
2.69838
2.69794
2.69748
2.70143
2.70128
2.70104
2.7008
2.70052
2.70023
2.69991
2.69956
2.69918
2.69878
2.69837
2.69793
2.6975
2.69705
2.70102
2.70084
2.70059
2.70034
2.70006
2.69977
2.69944
2.69909
2.69872
2.69833
2.69792
2.6975
2.69707
2.69663
2.7006
2.70039
2.70014
2.69988
2.69959
2.69929
2.69896
2.69861
2.69824
2.69785
2.69744
2.69702
2.69661
2.69617
2.70018
2.69995
2.69968
2.69941
2.69912
2.6988
2.69847
2.69812
2.69774
2.69736
2.69696
2.69655
2.69614
2.69571
2.69974
2.69948
2.69921
2.69892
2.69862
2.6983
2.69796
2.6976
2.69723
2.69685
2.69645
2.69604
2.69563
2.69521
2.6993
2.69901
2.69873
2.69843
2.69812
2.69779
2.69744
2.69708
2.6967
2.69631
2.69591
2.69551
2.6951
2.69471
2.69882
2.69851
2.69822
2.69791
2.69759
2.69725
2.6969
2.69653
2.69615
2.69576
2.69535
2.69495
2.69453
2.69416
2.69836
2.69802
2.69772
2.69739
2.69706
2.69671
2.69634
2.69597
2.69557
2.69518
2.69476
2.69436
2.69394
2.6936
2.69784
2.69748
2.69717
2.69683
2.69649
2.69613
2.69576
2.69538
2.69498
2.69458
2.69416
2.69376
2.69333
2.693
2.69736
2.69698
2.69665
2.69629
2.69593
2.69555
2.69517
2.69477
2.69435
2.69394
2.69351
2.6931
2.69267
2.69236
2.69677
2.69639
2.69604
2.69568
2.6953
2.69493
2.69454
2.69414
2.69373
2.69332
2.6929
2.69249
2.69207
2.69172
2.69906
2.69888
2.69866
2.69845
2.69823
2.698
2.69774
2.69746
2.69716
2.69685
2.69651
2.69617
2.6958
2.69541
2.69853
2.69838
2.69816
2.69795
2.69771
2.69746
2.69719
2.6969
2.69658
2.69625
2.6959
2.69554
2.69517
2.69478
2.69802
2.69787
2.69763
2.69741
2.69716
2.69691
2.69663
2.69633
2.69602
2.69569
2.69535
2.69499
2.69463
2.69425
2.69751
2.69734
2.69709
2.69687
2.69661
2.69635
2.69606
2.69576
2.69544
2.6951
2.69476
2.6944
2.69404
2.69366
2.69699
2.6968
2.69655
2.69631
2.69604
2.69577
2.69548
2.69517
2.69485
2.69452
2.69418
2.69383
2.69348
2.69311
2.69646
2.69624
2.69598
2.69573
2.69546
2.69518
2.69489
2.69458
2.69426
2.69392
2.69359
2.69324
2.69289
2.69254
2.69592
2.69567
2.69541
2.69515
2.69487
2.69458
2.69428
2.69397
2.69365
2.69332
2.69299
2.69265
2.69232
2.69197
2.69534
2.69507
2.69481
2.69454
2.69426
2.69397
2.69367
2.69335
2.69303
2.69271
2.69238
2.69204
2.69171
2.69139
2.69475
2.69447
2.6942
2.69392
2.69364
2.69334
2.69304
2.69272
2.6924
2.69208
2.69175
2.69143
2.69111
2.69081
2.69413
2.69383
2.69356
2.69327
2.69299
2.69269
2.69239
2.69207
2.69176
2.69144
2.69111
2.6908
2.69048
2.69022
2.69352
2.6932
2.69293
2.69263
2.69234
2.69203
2.69172
2.69141
2.69109
2.69078
2.69046
2.69016
2.68985
2.68963
2.69287
2.69253
2.69225
2.69195
2.69165
2.69135
2.69104
2.69073
2.69042
2.69011
2.6898
2.68951
2.68921
2.68901
2.69226
2.6919
2.69161
2.6913
2.69099
2.69068
2.69036
2.69004
2.68973
2.68942
2.68912
2.68884
2.68855
2.68839
2.69152
2.69119
2.69089
2.69058
2.69028
2.68997
2.68966
2.68935
2.68905
2.68875
2.68846
2.68819
2.68792
2.68774
2.69407
2.69388
2.69367
2.69349
2.69332
2.69315
2.69299
2.69282
2.69265
2.69247
2.69228
2.6921
2.69191
2.69175
2.6935
2.69336
2.69314
2.69296
2.69277
2.69259
2.6924
2.69222
2.69203
2.69183
2.69163
2.69143
2.69123
2.69102
2.69295
2.69281
2.69258
2.69239
2.69219
2.692
2.69181
2.69161
2.69142
2.69122
2.69101
2.69081
2.69062
2.6904
2.69239
2.69224
2.69201
2.69182
2.69161
2.69141
2.69121
2.69101
2.6908
2.6906
2.69039
2.69019
2.68999
2.68976
2.69184
2.69166
2.69143
2.69123
2.69102
2.69081
2.6906
2.6904
2.69019
2.68998
2.68978
2.68958
2.68939
2.68917
2.69126
2.69106
2.69084
2.69063
2.69041
2.6902
2.69
2.68979
2.68958
2.68937
2.68917
2.68897
2.68878
2.68857
2.69067
2.69045
2.69023
2.69002
2.6898
2.68959
2.68938
2.68918
2.68897
2.68877
2.68856
2.68837
2.68819
2.688
2.69006
2.68983
2.68961
2.68939
2.68918
2.68897
2.68877
2.68856
2.68836
2.68816
2.68796
2.68778
2.6876
2.68743
2.68944
2.6892
2.68898
2.68876
2.68855
2.68835
2.68814
2.68794
2.68774
2.68755
2.68737
2.68719
2.68702
2.68688
2.68881
2.68855
2.68834
2.68812
2.68792
2.68771
2.68751
2.68732
2.68713
2.68694
2.68677
2.6866
2.68644
2.68633
2.68819
2.68792
2.68771
2.68749
2.68728
2.68708
2.68689
2.6867
2.68651
2.68634
2.68617
2.68603
2.68588
2.68581
2.68754
2.68727
2.68706
2.68684
2.68664
2.68644
2.68626
2.68607
2.6859
2.68574
2.68558
2.68544
2.68531
2.68528
2.68693
2.68666
2.68644
2.68622
2.68602
2.68582
2.68564
2.68546
2.6853
2.68514
2.685
2.68487
2.68477
2.68478
2.68624
2.68601
2.68578
2.68558
2.68538
2.68519
2.68502
2.68485
2.6847
2.68456
2.68443
2.68432
2.68423
2.68425
2.68813
2.68798
2.68782
2.6877
2.68761
2.68753
2.68746
2.68741
2.68737
2.68734
2.68732
2.68731
2.68732
2.68734
2.68757
2.68747
2.68731
2.68719
2.68709
2.687
2.68693
2.68687
2.68682
2.68678
2.68675
2.68672
2.68672
2.68667
2.68706
2.68696
2.68679
2.68667
2.68656
2.68647
2.68639
2.68632
2.68626
2.68622
2.68618
2.68615
2.68616
2.68609
2.68653
2.68643
2.68627
2.68614
2.68603
2.68594
2.68585
2.68578
2.68572
2.68567
2.68563
2.68559
2.68559
2.68552
2.68602
2.6859
2.68574
2.68562
2.6855
2.68541
2.68532
2.68524
2.68518
2.68513
2.68509
2.68505
2.68505
2.68499
2.68549
2.68536
2.68521
2.68509
2.68498
2.68488
2.68479
2.68472
2.68466
2.68461
2.68457
2.68453
2.68452
2.68448
2.68496
2.68482
2.68468
2.68456
2.68445
2.68435
2.68427
2.6842
2.68414
2.68409
2.68406
2.68403
2.68401
2.68399
2.68443
2.68428
2.68415
2.68403
2.68393
2.68383
2.68376
2.68369
2.68364
2.68359
2.68356
2.68354
2.68352
2.68352
2.68391
2.68375
2.68362
2.68351
2.68341
2.68332
2.68325
2.68319
2.68314
2.6831
2.68308
2.68307
2.68306
2.68307
2.68339
2.68322
2.6831
2.68299
2.6829
2.68281
2.68275
2.68269
2.68265
2.68263
2.68261
2.68261
2.68261
2.68264
2.68289
2.6827
2.68259
2.68248
2.68239
2.68232
2.68226
2.68221
2.68218
2.68217
2.68216
2.68217
2.68219
2.68224
2.68237
2.6822
2.68209
2.68199
2.6819
2.68183
2.68178
2.68175
2.68173
2.68172
2.68172
2.68175
2.68178
2.68185
2.68189
2.68173
2.68162
2.68152
2.68144
2.68137
2.68132
2.6813
2.68129
2.68129
2.68131
2.68136
2.6814
2.6815
2.68138
2.68125
2.68114
2.68105
2.68098
2.68092
2.68088
2.68086
2.68086
2.68088
2.68092
2.68097
2.68103
2.68112
2.68159
2.68154
2.68149
2.68146
2.68146
2.68147
2.6815
2.68156
2.68163
2.68173
2.68183
2.68196
2.68212
2.68228
2.68113
2.68112
2.68109
2.68106
2.68105
2.68107
2.68111
2.68116
2.68124
2.68133
2.68144
2.68156
2.6817
2.6818
2.68074
2.68073
2.68069
2.68067
2.68066
2.68067
2.68071
2.68076
2.68083
2.68092
2.68102
2.68113
2.68127
2.68137
2.68034
2.68033
2.68029
2.68027
2.68027
2.68029
2.68032
2.68038
2.68045
2.68053
2.68063
2.68074
2.68087
2.68096
2.67996
2.67994
2.6799
2.67989
2.67988
2.6799
2.67994
2.68
2.68007
2.68015
2.68025
2.68036
2.68048
2.68058
2.67959
2.67956
2.67952
2.67951
2.67951
2.67953
2.67957
2.67963
2.6797
2.67979
2.67988
2.67999
2.68011
2.68021
2.67922
2.67918
2.67915
2.67914
2.67914
2.67917
2.67921
2.67927
2.67935
2.67943
2.67953
2.67964
2.67976
2.67987
2.67886
2.67882
2.6788
2.67879
2.67879
2.67882
2.67886
2.67892
2.679
2.67909
2.6792
2.67931
2.67942
2.67954
2.67851
2.67847
2.67845
2.67844
2.67845
2.67848
2.67853
2.6786
2.67868
2.67877
2.67888
2.679
2.67911
2.67924
2.67816
2.67812
2.67811
2.67811
2.67812
2.67816
2.67821
2.67828
2.67837
2.67847
2.67858
2.6787
2.67882
2.67896
2.67784
2.6778
2.67779
2.67779
2.67781
2.67785
2.67791
2.67799
2.67808
2.67819
2.67831
2.67844
2.67856
2.67871
2.67753
2.67749
2.67749
2.67749
2.67752
2.67757
2.67763
2.67772
2.67781
2.67793
2.67805
2.67819
2.67832
2.67848
2.67724
2.6772
2.6772
2.67722
2.67725
2.6773
2.67737
2.67747
2.67757
2.67769
2.67782
2.67797
2.67811
2.67828
2.67696
2.67693
2.67694
2.67696
2.677
2.67706
2.67713
2.67723
2.67734
2.67746
2.6776
2.67775
2.67791
2.67809
2.6747
2.67477
2.67483
2.67492
2.67501
2.67511
2.67523
2.67536
2.67551
2.67567
2.67584
2.67603
2.67624
2.67649
2.67447
2.67454
2.67461
2.6747
2.6748
2.67491
2.67503
2.67517
2.67532
2.67548
2.67566
2.67586
2.67606
2.67627
2.67426
2.67434
2.67441
2.6745
2.67459
2.6747
2.67482
2.67496
2.67512
2.67529
2.67547
2.67566
2.67586
2.67606
2.67406
2.67414
2.67421
2.6743
2.67439
2.67451
2.67463
2.67477
2.67493
2.6751
2.67528
2.67547
2.67567
2.67586
2.67387
2.67394
2.67401
2.6741
2.6742
2.67431
2.67444
2.67458
2.67474
2.67491
2.67509
2.67528
2.67548
2.67567
2.67368
2.67375
2.67382
2.67391
2.67401
2.67413
2.67426
2.6744
2.67456
2.67473
2.67491
2.6751
2.67529
2.67548
2.67351
2.67357
2.67364
2.67373
2.67384
2.67395
2.67409
2.67423
2.67439
2.67456
2.67474
2.67492
2.67511
2.6753
2.67334
2.6734
2.67348
2.67357
2.67367
2.67379
2.67393
2.67408
2.67424
2.67441
2.67458
2.67477
2.67495
2.67514
2.67318
2.67324
2.67332
2.67341
2.67352
2.67364
2.67378
2.67393
2.67409
2.67426
2.67444
2.67462
2.67481
2.67499
2.67304
2.6731
2.67318
2.67327
2.67338
2.67351
2.67365
2.6738
2.67396
2.67414
2.67432
2.6745
2.67468
2.67486
2.6729
2.67297
2.67305
2.67315
2.67326
2.67339
2.67353
2.67369
2.67385
2.67402
2.6742
2.67439
2.67457
2.67475
2.67278
2.67286
2.67295
2.67305
2.67316
2.67329
2.67343
2.67359
2.67375
2.67393
2.67411
2.67429
2.67447
2.67466
2.67267
2.67275
2.67285
2.67296
2.67307
2.67321
2.67335
2.67351
2.67368
2.67386
2.67403
2.67422
2.67439
2.67459
2.67258
2.67267
2.67277
2.67288
2.67301
2.67314
2.67329
2.67344
2.67361
2.67378
2.67396
2.67414
2.67433
2.67453
2.66762
2.66777
2.66793
2.66808
2.66823
2.66839
2.66854
2.66871
2.66888
2.66906
2.66925
2.66945
2.66965
2.66987
2.66758
2.66774
2.66789
2.66805
2.66821
2.66837
2.66854
2.66872
2.66889
2.66908
2.66927
2.66947
2.66967
2.6699
2.66758
2.66773
2.66788
2.66804
2.6682
2.66837
2.66854
2.66872
2.6689
2.66908
2.66927
2.66947
2.66967
2.66989
2.66757
2.66772
2.66787
2.66803
2.6682
2.66836
2.66854
2.66872
2.6689
2.66909
2.66928
2.66949
2.66969
2.6699
2.66757
2.66772
2.66787
2.66803
2.66819
2.66836
2.66854
2.66872
2.6689
2.66909
2.66928
2.66948
2.66968
2.66989
2.66757
2.66772
2.66787
2.66802
2.66819
2.66836
2.66854
2.66872
2.6689
2.66909
2.66929
2.66949
2.66969
2.66989
2.66757
2.66772
2.66787
2.66803
2.66819
2.66836
2.66854
2.66872
2.66891
2.6691
2.66929
2.66948
2.66968
2.66988
2.66757
2.66772
2.66787
2.66803
2.6682
2.66837
2.66855
2.66873
2.66892
2.6691
2.6693
2.66949
2.66968
2.66987
2.66759
2.66773
2.66789
2.66805
2.66821
2.66838
2.66856
2.66874
2.66893
2.66911
2.6693
2.66949
2.66968
2.66987
2.6676
2.66775
2.6679
2.66807
2.66823
2.6684
2.66858
2.66876
2.66895
2.66913
2.66932
2.6695
2.66969
2.66987
2.66762
2.66777
2.66793
2.66809
2.66826
2.66843
2.66861
2.66879
2.66897
2.66915
2.66934
2.66952
2.6697
2.66987
2.66765
2.66781
2.66797
2.66813
2.6683
2.66847
2.66865
2.66883
2.66901
2.66918
2.66936
2.66954
2.66972
2.66989
2.66768
2.66784
2.668
2.66817
2.66834
2.66852
2.66869
2.66887
2.66905
2.66923
2.66941
2.66958
2.66975
2.66992
2.66774
2.6679
2.66806
2.66823
2.6684
2.66857
2.66875
2.66892
2.66909
2.66926
2.66943
2.6696
2.66978
2.66996
2.66039
2.66056
2.66074
2.66091
2.66108
2.66125
2.66141
2.66157
2.66172
2.66188
2.66203
2.66218
2.66232
2.6625
2.66052
2.66068
2.66086
2.66103
2.66121
2.66139
2.66156
2.66173
2.66189
2.66205
2.6622
2.66236
2.66251
2.66268
2.66066
2.66082
2.66101
2.66118
2.66137
2.66154
2.66171
2.66188
2.66204
2.6622
2.66235
2.66251
2.66266
2.66282
2.66079
2.66096
2.66114
2.66132
2.6615
2.66168
2.66185
2.66202
2.66219
2.66235
2.66251
2.66267
2.66282
2.66298
2.66092
2.6611
2.66128
2.66146
2.66164
2.66182
2.66199
2.66216
2.66233
2.66249
2.66265
2.6628
2.66296
2.66312
2.66105
2.66123
2.66141
2.66159
2.66177
2.66195
2.66213
2.6623
2.66246
2.66263
2.66279
2.66294
2.6631
2.66326
2.66117
2.66136
2.66154
2.66173
2.66191
2.66208
2.66226
2.66243
2.66259
2.66275
2.66291
2.66307
2.66322
2.66338
2.6613
2.66149
2.66167
2.66185
2.66203
2.66221
2.66238
2.66255
2.66272
2.66288
2.66304
2.66319
2.66335
2.6635
2.66142
2.66161
2.66179
2.66198
2.66216
2.66234
2.66251
2.66267
2.66284
2.663
2.66315
2.6633
2.66346
2.6636
2.66155
2.66174
2.66192
2.6621
2.66228
2.66246
2.66263
2.6628
2.66296
2.66311
2.66327
2.66341
2.66357
2.6637
2.66167
2.66186
2.66204
2.66222
2.6624
2.66258
2.66275
2.66291
2.66307
2.66322
2.66337
2.66352
2.66366
2.66379
2.66179
2.66198
2.66216
2.66235
2.66252
2.6627
2.66287
2.66303
2.66318
2.66333
2.66348
2.66361
2.66376
2.66389
2.66191
2.6621
2.66228
2.66246
2.66264
2.66282
2.66298
2.66314
2.6633
2.66344
2.66358
2.66371
2.66385
2.66398
2.66206
2.66225
2.66242
2.6626
2.66277
2.66294
2.6631
2.66325
2.6634
2.66354
2.66367
2.6638
2.66394
2.66408
2.65322
2.65334
2.6535
2.65364
2.65378
2.65391
2.65404
2.65416
2.65428
2.65438
2.65448
2.65456
2.65464
2.65475
2.65341
2.65353
2.65369
2.65383
2.65398
2.65412
2.65426
2.65438
2.6545
2.65461
2.65471
2.6548
2.65488
2.65498
2.65361
2.65374
2.6539
2.65405
2.6542
2.65434
2.65447
2.6546
2.65471
2.65482
2.65492
2.65501
2.65509
2.65519
2.6538
2.65394
2.6541
2.65425
2.65441
2.65455
2.65468
2.65481
2.65493
2.65504
2.65514
2.65523
2.65531
2.65541
2.65399
2.65414
2.6543
2.65446
2.65461
2.65475
2.65489
2.65501
2.65513
2.65524
2.65534
2.65543
2.65551
2.6556
2.65417
2.65433
2.6545
2.65465
2.6548
2.65495
2.65508
2.65521
2.65533
2.65543
2.65554
2.65563
2.65572
2.6558
2.65435
2.65452
2.65468
2.65484
2.65499
2.65514
2.65527
2.6554
2.65551
2.65562
2.65572
2.65581
2.6559
2.65599
2.65453
2.6547
2.65486
2.65502
2.65517
2.65532
2.65545
2.65558
2.65569
2.6558
2.6559
2.65599
2.65608
2.65617
2.6547
2.65487
2.65503
2.6552
2.65535
2.65549
2.65562
2.65575
2.65586
2.65597
2.65606
2.65616
2.65625
2.65633
2.65487
2.65504
2.6552
2.65536
2.65551
2.65565
2.65578
2.65591
2.65602
2.65612
2.65622
2.65631
2.65641
2.65648
2.65503
2.6552
2.65536
2.65552
2.65567
2.65581
2.65594
2.65606
2.65617
2.65627
2.65637
2.65646
2.65655
2.65662
2.65519
2.65536
2.65552
2.65568
2.65582
2.65596
2.65608
2.6562
2.65631
2.65641
2.65651
2.65659
2.65668
2.65676
2.65534
2.65551
2.65566
2.65582
2.65596
2.6561
2.65622
2.65634
2.65644
2.65654
2.65663
2.65672
2.6568
2.65688
2.65552
2.65568
2.65583
2.65597
2.65611
2.65624
2.65636
2.65647
2.65657
2.65666
2.65675
2.65683
2.65692
2.657
2.64636
2.64642
2.64652
2.6466
2.64669
2.64677
2.64684
2.64691
2.64697
2.64702
2.64707
2.6471
2.64713
2.64718
2.64653
2.6466
2.6467
2.64679
2.64688
2.64697
2.64704
2.64711
2.64717
2.64723
2.64727
2.6473
2.64733
2.64738
2.64671
2.64679
2.64689
2.64699
2.64708
2.64716
2.64724
2.64731
2.64737
2.64742
2.64746
2.6475
2.64752
2.64756
2.64689
2.64698
2.64708
2.64718
2.64727
2.64736
2.64743
2.6475
2.64756
2.64761
2.64766
2.64769
2.64772
2.64775
2.64706
2.64716
2.64727
2.64737
2.64746
2.64754
2.64762
2.64769
2.64775
2.6478
2.64785
2.64788
2.64791
2.64793
2.64723
2.64734
2.64745
2.64755
2.64764
2.64773
2.64781
2.64787
2.64793
2.64799
2.64803
2.64806
2.64809
2.64812
2.6474
2.64751
2.64762
2.64772
2.64782
2.6479
2.64798
2.64805
2.64811
2.64816
2.6482
2.64824
2.64827
2.64829
2.64757
2.64768
2.64779
2.64789
2.64799
2.64807
2.64815
2.64822
2.64828
2.64833
2.64837
2.64841
2.64844
2.64846
2.64773
2.64785
2.64795
2.64805
2.64815
2.64823
2.64831
2.64838
2.64844
2.64849
2.64853
2.64857
2.6486
2.64862
2.64788
2.648
2.6481
2.64821
2.6483
2.64838
2.64846
2.64852
2.64858
2.64864
2.64868
2.64872
2.64875
2.64876
2.64803
2.64815
2.64825
2.64835
2.64844
2.64853
2.6486
2.64866
2.64872
2.64877
2.64882
2.64885
2.64889
2.6489
2.64818
2.6483
2.64839
2.64849
2.64858
2.64866
2.64873
2.64879
2.64885
2.6489
2.64895
2.64898
2.64901
2.64903
2.64832
2.64843
2.64853
2.64862
2.64871
2.64878
2.64885
2.64891
2.64897
2.64902
2.64906
2.6491
2.64913
2.64915
2.64847
2.64858
2.64867
2.64875
2.64883
2.6489
2.64897
2.64903
2.64908
2.64913
2.64917
2.6492
2.64924
2.64927
2.63995
2.63997
2.64001
2.64004
2.64007
2.6401
2.64012
2.64014
2.64016
2.64017
2.64017
2.64017
2.64016
2.64017
2.64008
2.6401
2.64014
2.64017
2.64021
2.64023
2.64026
2.64028
2.64029
2.6403
2.6403
2.6403
2.64029
2.64029
2.6402
2.64022
2.64027
2.6403
2.64034
2.64037
2.64039
2.64041
2.64042
2.64043
2.64043
2.64042
2.64041
2.64042
2.64032
2.64035
2.6404
2.64043
2.64047
2.6405
2.64052
2.64054
2.64055
2.64056
2.64056
2.64055
2.64054
2.64054
2.64044
2.64048
2.64052
2.64056
2.6406
2.64063
2.64065
2.64067
2.64068
2.64069
2.64069
2.64068
2.64067
2.64066
2.64056
2.6406
2.64065
2.64069
2.64072
2.64075
2.64077
2.64079
2.6408
2.64081
2.64081
2.6408
2.64079
2.64078
2.64067
2.64072
2.64076
2.64081
2.64084
2.64087
2.64089
2.64091
2.64093
2.64093
2.64093
2.64092
2.64091
2.64089
2.64078
2.64084
2.64088
2.64092
2.64096
2.64099
2.64101
2.64103
2.64104
2.64105
2.64105
2.64104
2.64103
2.64101
2.64089
2.64095
2.64099
2.64103
2.64107
2.6411
2.64112
2.64114
2.64115
2.64115
2.64115
2.64115
2.64114
2.64112
2.641
2.64106
2.6411
2.64114
2.64117
2.6412
2.64122
2.64124
2.64125
2.64126
2.64126
2.64125
2.64124
2.64122
2.6411
2.64116
2.6412
2.64124
2.64127
2.6413
2.64132
2.64134
2.64135
2.64135
2.64135
2.64135
2.64134
2.64132
2.6412
2.64126
2.64129
2.64133
2.64136
2.64139
2.64141
2.64142
2.64143
2.64144
2.64144
2.64144
2.64143
2.64141
2.64129
2.64135
2.64138
2.64142
2.64145
2.64147
2.64149
2.6415
2.64151
2.64152
2.64152
2.64152
2.64152
2.6415
2.64139
2.64144
2.64147
2.6415
2.64152
2.64154
2.64156
2.64158
2.64159
2.64159
2.64159
2.64159
2.64159
2.64158
2.63395
2.63395
2.63395
2.63395
2.63395
2.63394
2.63393
2.63392
2.63391
2.63389
2.63387
2.63385
2.63382
2.63379
2.63403
2.63402
2.63402
2.63402
2.63402
2.63401
2.634
2.63399
2.63397
2.63395
2.63393
2.63391
2.63388
2.63385
2.63409
2.63408
2.63409
2.63409
2.63408
2.63408
2.63407
2.63405
2.63404
2.63402
2.63399
2.63397
2.63394
2.63391
2.63415
2.63415
2.63415
2.63415
2.63415
2.63414
2.63413
2.63412
2.6341
2.63408
2.63406
2.63403
2.634
2.63397
2.63421
2.63421
2.63421
2.63421
2.63421
2.6342
2.63419
2.63418
2.63416
2.63414
2.63412
2.63409
2.63406
2.63403
2.63427
2.63427
2.63428
2.63427
2.63427
2.63426
2.63425
2.63424
2.63422
2.6342
2.63418
2.63415
2.63412
2.63408
2.63433
2.63433
2.63433
2.63433
2.63433
2.63432
2.63431
2.6343
2.63428
2.63426
2.63423
2.63421
2.63417
2.63414
2.63438
2.63439
2.63439
2.63439
2.63438
2.63438
2.63437
2.63435
2.63433
2.63431
2.63429
2.63426
2.63423
2.63419
2.63443
2.63444
2.63444
2.63444
2.63444
2.63443
2.63442
2.6344
2.63439
2.63436
2.63434
2.63431
2.63428
2.63424
2.63448
2.63449
2.63449
2.63449
2.63448
2.63448
2.63446
2.63445
2.63443
2.63441
2.63439
2.63436
2.63433
2.63429
2.63453
2.63454
2.63454
2.63453
2.63453
2.63452
2.63451
2.63449
2.63448
2.63446
2.63443
2.6344
2.63437
2.63433
2.63457
2.63458
2.63457
2.63457
2.63457
2.63456
2.63455
2.63453
2.63451
2.63449
2.63447
2.63444
2.63441
2.63437
2.6346
2.63461
2.63461
2.63461
2.6346
2.63459
2.63458
2.63456
2.63455
2.63453
2.6345
2.63448
2.63445
2.63441
2.63463
2.63464
2.63464
2.63464
2.63463
2.63462
2.63461
2.63459
2.63457
2.63455
2.63453
2.63451
2.63448
2.63444
2.62824
2.62823
2.62822
2.62821
2.62819
2.62818
2.62816
2.62813
2.62811
2.62808
2.62805
2.62802
2.62798
2.62795
2.62827
2.62826
2.62825
2.62824
2.62822
2.6282
2.62818
2.62816
2.62813
2.6281
2.62807
2.62804
2.628
2.62796
2.6283
2.62829
2.62828
2.62826
2.62824
2.62822
2.6282
2.62818
2.62815
2.62812
2.62809
2.62806
2.62802
2.62798
2.62832
2.62831
2.6283
2.62828
2.62827
2.62824
2.62822
2.6282
2.62817
2.62814
2.62811
2.62808
2.62804
2.628
2.62834
2.62833
2.62832
2.6283
2.62828
2.62826
2.62824
2.62821
2.62819
2.62816
2.62813
2.62809
2.62805
2.62801
2.62836
2.62835
2.62833
2.62832
2.6283
2.62828
2.62826
2.62823
2.6282
2.62817
2.62814
2.6281
2.62807
2.62802
2.62837
2.62836
2.62835
2.62833
2.62831
2.62829
2.62827
2.62824
2.62821
2.62818
2.62815
2.62812
2.62808
2.62803
2.62838
2.62837
2.62836
2.62834
2.62832
2.6283
2.62828
2.62825
2.62822
2.62819
2.62816
2.62813
2.62809
2.62804
2.62839
2.62838
2.62836
2.62835
2.62833
2.62831
2.62829
2.62826
2.62823
2.6282
2.62817
2.62813
2.62809
2.62805
2.62839
2.62838
2.62837
2.62835
2.62833
2.62831
2.62829
2.62826
2.62824
2.62821
2.62817
2.62814
2.6281
2.62805
2.62839
2.62838
2.62837
2.62835
2.62834
2.62832
2.62829
2.62827
2.62824
2.62821
2.62818
2.62814
2.6281
2.62805
2.62838
2.62837
2.62836
2.62835
2.62833
2.62831
2.62829
2.62826
2.62824
2.62821
2.62817
2.62814
2.6281
2.62805
2.62837
2.62837
2.62836
2.62834
2.62832
2.6283
2.62828
2.62826
2.62823
2.6282
2.62817
2.62813
2.6281
2.62805
2.62835
2.62835
2.62833
2.62832
2.62831
2.62829
2.62827
2.62825
2.62822
2.62819
2.62816
2.62813
2.62809
2.62804
2.62273
2.62273
2.62273
2.62272
2.62271
2.62269
2.62268
2.62265
2.62263
2.6226
2.62257
2.62254
2.62251
2.62247
2.62275
2.62275
2.62274
2.62273
2.62272
2.6227
2.62269
2.62266
2.62264
2.62261
2.62258
2.62255
2.62252
2.62247
2.62275
2.62275
2.62275
2.62274
2.62273
2.62271
2.62269
2.62267
2.62265
2.62262
2.62259
2.62256
2.62252
2.62248
2.62276
2.62276
2.62275
2.62274
2.62273
2.62271
2.6227
2.62267
2.62265
2.62262
2.62259
2.62256
2.62252
2.62248
2.62276
2.62276
2.62275
2.62274
2.62273
2.62271
2.62269
2.62267
2.62265
2.62262
2.62259
2.62256
2.62252
2.62248
2.62276
2.62276
2.62275
2.62274
2.62273
2.62271
2.62269
2.62267
2.62264
2.62261
2.62258
2.62255
2.62251
2.62247
2.62275
2.62275
2.62274
2.62273
2.62272
2.6227
2.62268
2.62266
2.62263
2.62261
2.62257
2.62254
2.6225
2.62246
2.62274
2.62274
2.62273
2.62272
2.62271
2.62269
2.62267
2.62265
2.62262
2.62259
2.62256
2.62253
2.62249
2.62245
2.62273
2.62272
2.62271
2.6227
2.62269
2.62267
2.62266
2.62263
2.62261
2.62258
2.62255
2.62251
2.62247
2.62243
2.6227
2.6227
2.62269
2.62268
2.62267
2.62266
2.62264
2.62261
2.62259
2.62256
2.62253
2.62249
2.62245
2.62241
2.62268
2.62268
2.62267
2.62266
2.62265
2.62263
2.62261
2.62259
2.62257
2.62254
2.62251
2.62247
2.62243
2.62239
2.62265
2.62264
2.62264
2.62263
2.62262
2.6226
2.62259
2.62257
2.62254
2.62252
2.62248
2.62245
2.62241
2.62237
2.62261
2.62261
2.6226
2.6226
2.62259
2.62257
2.62256
2.62254
2.62251
2.62249
2.62246
2.62242
2.62238
2.62234
2.62257
2.62256
2.62256
2.62256
2.62255
2.62254
2.62252
2.62251
2.62248
2.62246
2.62243
2.62239
2.62235
2.62231
2.61746
2.61747
2.61748
2.61749
2.61749
2.61748
2.61747
2.61746
2.61744
2.61742
2.61739
2.61736
2.61747
2.61749
2.61749
2.6175
2.6175
2.61749
2.61748
2.61747
2.61745
2.61743
2.6174
2.61737
2.61748
2.61749
2.6175
2.6175
2.6175
2.6175
2.61749
2.61747
2.61746
2.61744
2.61741
2.61738
2.61748
2.6175
2.6175
2.61751
2.61751
2.6175
2.61749
2.61748
2.61746
2.61744
2.61741
2.61739
2.61748
2.61749
2.6175
2.61751
2.6175
2.6175
2.61749
2.61748
2.61746
2.61744
2.61741
2.61738
2.61748
2.61749
2.6175
2.6175
2.6175
2.61749
2.61748
2.61747
2.61745
2.61743
2.6174
2.61738
2.61747
2.61748
2.61748
2.61749
2.61749
2.61748
2.61747
2.61746
2.61744
2.61742
2.61739
2.61736
2.61745
2.61746
2.61747
2.61747
2.61747
2.61747
2.61746
2.61744
2.61743
2.6174
2.61738
2.61735
2.61743
2.61744
2.61745
2.61745
2.61745
2.61744
2.61744
2.61742
2.61741
2.61738
2.61736
2.61733
2.61741
2.61741
2.61742
2.61742
2.61742
2.61742
2.61741
2.6174
2.61738
2.61736
2.61733
2.6173
2.61738
2.61738
2.61739
2.61739
2.61739
2.61739
2.61738
2.61737
2.61735
2.61733
2.61731
2.61728
2.61734
2.61734
2.61735
2.61736
2.61736
2.61736
2.61735
2.61734
2.61732
2.6173
2.61728
2.61725
2.6173
2.6173
2.61731
2.61732
2.61732
2.61732
2.61731
2.6173
2.61729
2.61727
2.61724
2.61721
2.61725
2.61725
2.61726
2.61727
2.61728
2.61728
2.61727
2.61726
2.61725
2.61723
2.61721
2.61718
2.70531
2.70504
2.70473
2.70449
2.70428
2.70412
2.70509
2.70468
2.70425
2.70386
2.70352
2.70322
2.70489
2.70433
2.70374
2.70317
2.70267
2.7022
2.70467
2.70398
2.70324
2.70251
2.70182
2.70117
2.70574
2.70566
2.70554
2.70546
2.70538
2.70533
2.7055
2.70537
2.70522
2.7051
2.70503
2.70499
2.70529
2.70508
2.70487
2.70469
2.70457
2.70449
2.70504
2.70474
2.70445
2.70419
2.70398
2.7038
2.70478
2.70438
2.704
2.70362
2.70328
2.70296
2.70451
2.70402
2.70353
2.70303
2.70254
2.70204
2.70426
2.70369
2.70309
2.70246
2.70182
2.70115
2.70609
2.70614
2.70619
2.70625
2.70632
2.70639
2.70587
2.70595
2.70604
2.70615
2.70627
2.7064
2.70567
2.70573
2.70582
2.70594
2.70608