/*--------------------------------*- C++ -*----------------------------------*\
| =========                 |                                                 |
| \\      /  F ield         | OpenFOAM: The Open Source CFD Toolbox           |
|  \\    /   O peration     | Version:  v2106                                 |
|   \\  /    A nd           | Website:  www.openfoam.com                      |
|    \\/     M anipulation  |                                                 |
\*---------------------------------------------------------------------------*/
FoamFile
{
    version     2.0;
    format      ascii;
    arch        "LSB;label=32;scalar=64";
    class       surfaceScalarField;
    location    "0.000183";
    object      phi;
}
// * * * * * * * * * * * * * * * * * * * * * * * * * * * * * * * * * * * * * //

dimensions      [1 0 -1 0 0 0 0];

internalField   nonuniform List<scalar> 
53237
(
-2.72276e-10
-5.65896e-10
-1.12963e-07
6.33039e-10
-1.75562e-10
-5.82673e-10
-1.12945e-07
6.52968e-10
-7.78275e-11
-5.98347e-10
-1.12936e-07
6.71895e-10
1.95283e-11
-6.06738e-10
-1.12931e-07
6.82786e-10
1.16186e-10
-6.09048e-10
-1.12931e-07
6.84165e-10
2.10292e-10
-6.00625e-10
-1.12937e-07
6.73565e-10
3.02013e-10
-5.82525e-10
-1.12948e-07
6.51484e-10
3.90457e-10
-5.62528e-10
-1.12968e-07
6.28326e-10
4.6719e-10
-5.28697e-10
-1.12994e-07
5.90607e-10
5.22567e-10
-5.55951e-10
-1.13022e-07
6.31702e-10
-5.11779e-10
-1.1303e-07
5.75466e-10
5.7908e-10
-4.82847e-10
-4.89769e-10
-1.12989e-07
-3.87699e-10
-4.67268e-10
-1.1296e-07
-2.86278e-10
-4.89216e-10
-1.12931e-07
-1.84758e-10
-5.00449e-10
-1.12909e-07
-8.28675e-11
-5.11363e-10
-1.12894e-07
1.90819e-11
-5.16612e-10
-1.12886e-07
1.20621e-10
-5.19157e-10
-1.12887e-07
2.19975e-10
-5.13452e-10
-1.12896e-07
3.17189e-10
-5.00479e-10
-1.12912e-07
4.12015e-10
-4.8624e-10
-1.12935e-07
4.97425e-10
-4.61267e-10
-1.12965e-07
5.64317e-10
-4.79905e-10
-1.12996e-07
-4.5107e-10
-1.13019e-07
6.31574e-10
-5.32081e-10
-3.78491e-10
-1.12985e-07
5.99594e-10
-4.60444e-10
-3.97323e-10
-1.1296e-07
-3.73028e-10
-3.81929e-10
-1.12923e-07
-2.7641e-10
-3.97775e-10
-1.12894e-07
-1.78753e-10
-4.04446e-10
-1.12871e-07
-8.0188e-11
-4.11005e-10
-1.12856e-07
1.91526e-11
-4.13297e-10
-1.12848e-07
1.18308e-10
-4.1532e-10
-1.12848e-07
2.15775e-10
-4.11858e-10
-1.12856e-07
3.1085e-10
-4.03469e-10
-1.12872e-07
4.02135e-10
-3.94248e-10
-1.12897e-07
4.8003e-10
-3.75996e-10
-1.12927e-07
5.38382e-10
-3.8799e-10
-1.12965e-07
-3.69788e-10
-1.12991e-07
5.90225e-10
-5.61473e-10
-2.85589e-10
-1.1296e-07
6.34275e-10
-4.81029e-10
-2.97377e-10
-1.1293e-07
-3.88348e-10
-2.85612e-10
-1.12893e-07
-2.87383e-10
-2.95612e-10
-1.12864e-07
-1.86054e-10
-2.98332e-10
-1.12841e-07
-8.38502e-11
-3.01179e-10
-1.12826e-07
1.93375e-11
-3.00887e-10
-1.12818e-07
1.22261e-10
-3.01679e-10
-1.12819e-07
2.24014e-10
-2.99675e-10
-1.12827e-07
3.23784e-10
-2.95097e-10
-1.12843e-07
4.20322e-10
-2.90608e-10
-1.12867e-07
5.03781e-10
-2.79302e-10
-1.12897e-07
5.70501e-10
-2.88844e-10
-1.12934e-07
-2.79064e-10
-1.12964e-07
6.26423e-10
-5.76852e-10
-1.89964e-10
-1.12942e-07
6.53446e-10
-4.90687e-10
-1.96097e-10
-1.12908e-07
-3.93974e-10
-1.8711e-10
-1.1287e-07
-2.90306e-10
-1.91899e-10
-1.12841e-07
-1.87351e-10
-1.91568e-10
-1.12818e-07
-8.39506e-11
-1.91653e-10
-1.12803e-07
2.02229e-11
-1.8942e-10
-1.12795e-07
1.23666e-10
-1.88691e-10
-1.12796e-07
2.26311e-10
-1.87655e-10
-1.12804e-07
3.2809e-10
-1.8632e-10
-1.1282e-07
4.27869e-10
-1.85975e-10
-1.12844e-07
5.15677e-10
-1.81159e-10
-1.12873e-07
5.88066e-10
-1.89621e-10
-1.12912e-07
-1.86481e-10
-1.12945e-07
6.47156e-10
-5.88297e-10
-9.14605e-11
-1.12933e-07
6.67922e-10
-4.98398e-10
-9.27071e-11
-1.12894e-07
-3.98863e-10
-8.64779e-11
-1.12857e-07
-2.93019e-10
-8.70613e-11
-1.12828e-07
-1.88629e-10
-8.4785e-11
-1.12804e-07
-8.4487e-11
-8.31561e-11
-1.1279e-07
2.00761e-11
-8.00216e-11
-1.12782e-07
1.23449e-10
-7.82326e-11
-1.12782e-07
2.26245e-10
-7.80094e-11
-1.12791e-07
3.2943e-10
-7.94733e-11
-1.12806e-07
4.31946e-10
-8.24375e-11
-1.1283e-07
5.23836e-10
-8.34293e-11
-1.12858e-07
6.01174e-10
-9.06677e-11
-1.12896e-07
-9.27676e-11
-1.12934e-07
6.64205e-10
-5.92855e-10
7.97662e-12
-1.12928e-07
6.74284e-10
-5.00717e-10
1.14806e-11
-1.12886e-07
-3.99232e-10
1.4888e-11
-1.12848e-07
-2.91697e-10
1.78361e-11
-1.1282e-07
-1.8633e-10
2.1119e-11
-1.12796e-07
-8.20789e-11
2.33616e-11
-1.12782e-07
2.18931e-11
2.64559e-11
-1.12775e-07
1.24122e-10
2.846e-11
-1.12775e-07
2.25622e-10
2.76096e-11
-1.12784e-07
3.28291e-10
2.38829e-11
-1.128e-07
4.31422e-10
1.82865e-11
-1.12823e-07
5.25095e-10
1.21595e-11
-1.12851e-07
6.05213e-10
6.77784e-12
-1.12889e-07
7.74561e-13
-1.12929e-07
6.70858e-10
-5.90168e-10
1.07539e-10
-1.12928e-07
6.69858e-10
-4.98232e-10
1.14818e-10
-1.12886e-07
-3.95941e-10
1.15041e-10
-1.12848e-07
-2.87267e-10
1.21399e-10
-1.1282e-07
-1.81262e-10
1.25238e-10
-1.12797e-07
-7.76281e-11
1.27564e-10
-1.12783e-07
2.49661e-11
1.29762e-10
-1.12776e-07
1.25135e-10
1.30941e-10
-1.12777e-07
2.24193e-10
1.28536e-10
-1.12786e-07
3.24875e-10
1.22888e-10
-1.12801e-07
4.2602e-10
1.15731e-10
-1.12824e-07
5.17819e-10
1.05581e-10
-1.12852e-07
5.97522e-10
1.02207e-10
-1.12888e-07
9.23965e-11
-1.12928e-07
6.64329e-10
-5.80143e-10
2.03387e-10
-1.12933e-07
6.57851e-10
-4.90465e-10
2.15014e-10
-1.12895e-07
-3.90014e-10
2.12794e-10
-1.12857e-07
-2.82693e-10
2.23081e-10
-1.12828e-07
-1.77949e-10
2.2767e-10
-1.12805e-07
-7.6103e-11
2.30149e-10
-1.12792e-07
2.43507e-11
2.31264e-10
-1.12784e-07
1.21749e-10
2.31002e-10
-1.12786e-07
2.17636e-10
2.26607e-10
-1.12794e-07
3.15577e-10
2.18588e-10
-1.1281e-07
4.14434e-10
2.09374e-10
-1.12832e-07
5.0432e-10
1.94811e-10
-1.1286e-07
5.82995e-10
1.93638e-10
-1.12896e-07
1.80749e-10
-1.12932e-07
6.49346e-10
-5.59757e-10
2.95404e-10
-1.12944e-07
6.33101e-10
-4.75589e-10
3.11953e-10
-1.1291e-07
-3.79932e-10
3.07079e-10
-1.12872e-07
-2.76496e-10
3.21764e-10
-1.12843e-07
-1.74962e-10
3.27829e-10
-1.1282e-07
-7.59248e-11
3.31019e-10
-1.12806e-07
2.18959e-11
3.31446e-10
-1.12799e-07
1.16678e-10
3.29225e-10
-1.12801e-07
2.09584e-10
3.22246e-10
-1.1281e-07
3.04189e-10
3.11163e-10
-1.12824e-07
3.998e-10
2.98885e-10
-1.12847e-07
4.86679e-10
2.79355e-10
-1.12874e-07
5.62315e-10
2.81435e-10
-1.1291e-07
2.65744e-10
-1.12941e-07
6.26739e-10
-5.36371e-10
3.83498e-10
-1.12962e-07
6.05792e-10
-4.59105e-10
4.05868e-10
-1.12932e-07
-3.69346e-10
3.96772e-10
-1.12895e-07
-2.70802e-10
4.16061e-10
-1.12866e-07
-1.73138e-10
4.24383e-10
-1.12844e-07
-7.7373e-11
4.2911e-10
-1.1283e-07
1.75807e-11
4.29504e-10
-1.12823e-07
1.10191e-10
4.2485e-10
-1.12824e-07
2.00733e-10
4.14683e-10
-1.12833e-07
2.92182e-10
4.00262e-10
-1.12847e-07
3.83897e-10
3.85094e-10
-1.12869e-07
4.66839e-10
3.6111e-10
-1.12897e-07
5.37797e-10
3.68669e-10
-1.12931e-07
3.48237e-10
-1.12958e-07
6.01032e-10
-5.01561e-10
4.60141e-10
-1.12989e-07
5.66739e-10
-4.34056e-10
4.90415e-10
-1.12963e-07
-3.51346e-10
4.72363e-10
-1.12926e-07
-2.59561e-10
4.96229e-10
-1.12897e-07
-1.67767e-10
5.07348e-10
-1.12874e-07
-7.72539e-11
5.14483e-10
-1.1286e-07
1.26547e-11
5.15975e-10
-1.12853e-07
1.01307e-10
5.0915e-10
-1.12853e-07
1.87956e-10
4.961e-10
-1.12862e-07
2.7454e-10
4.78776e-10
-1.12876e-07
3.60785e-10
4.61027e-10
-1.12897e-07
4.38453e-10
4.33131e-10
-1.12925e-07
5.01176e-10
4.5126e-10
-1.1296e-07
4.22159e-10
-1.12983e-07
5.62492e-10
-5.28524e-10
5.16138e-10
-1.13017e-07
6.07633e-10
-4.53001e-10
5.57593e-10
-1.12994e-07
-3.6328e-10
5.28522e-10
-1.12964e-07
-2.68906e-10
5.59794e-10
-1.12935e-07
-1.75776e-10
5.74893e-10
-1.12913e-07
-8.39997e-11
5.85673e-10
-1.12898e-07
7.16568e-12
5.89708e-10
-1.12891e-07
9.81123e-11
5.81908e-10
-1.12891e-07
1.87821e-10
5.66719e-10
-1.12899e-07
2.77772e-10
5.46511e-10
-1.12914e-07
3.69025e-10
5.25382e-10
-1.12934e-07
4.56146e-10
4.90837e-10
-1.12961e-07
5.28859e-10
5.21484e-10
-1.12989e-07
4.77751e-10
-1.13008e-07
6.07747e-10
-4.87813e-10
-1.13026e-07
5.74959e-10
5.55669e-10
-4.27277e-10
-1.13017e-07
6.26378e-10
-3.47527e-10
-1.12991e-07
5.79121e-10
-2.60375e-10
-1.12965e-07
6.1265e-10
-1.72907e-10
-1.12948e-07
6.29661e-10
-8.57755e-11
-1.12938e-07
6.44161e-10
1.51811e-12
-1.12933e-07
6.51016e-10
8.95577e-11
-1.12933e-07
6.43538e-10
1.77139e-10
-1.12938e-07
6.27483e-10
2.64164e-10
-1.12946e-07
6.05926e-10
3.50063e-10
-1.12962e-07
5.84933e-10
4.27607e-10
-1.12986e-07
5.49743e-10
4.86066e-10
-1.1301e-07
5.98854e-10
-1.13016e-07
5.53626e-10
5.42452e-10
-4.19816e-10
-4.12206e-10
-1.21564e-07
4.85624e-10
4.9847e-10
-3.68838e-10
-4.43487e-10
-1.21546e-07
5.34594e-10
-2.89641e-10
-3.84249e-10
-1.21518e-07
4.52115e-10
-2.13027e-10
-4.01518e-10
-1.21483e-07
4.6838e-10
-1.3373e-10
-4.07664e-10
-1.21463e-07
4.73816e-10
-5.74098e-11
-4.1542e-10
-1.2145e-07
4.83301e-10
1.4497e-11
-4.19526e-10
-1.21443e-07
4.90063e-10
8.59333e-11
-4.19383e-10
-1.21444e-07
4.87404e-10
1.56516e-10
-4.13665e-10
-1.21451e-07
4.79629e-10
2.28453e-10
-4.0068e-10
-1.21466e-07
4.6415e-10
2.97292e-10
-3.88574e-10
-1.21488e-07
4.53201e-10
3.6862e-10
-3.6512e-10
-1.21524e-07
4.32829e-10
4.11281e-10
-4.19334e-10
-1.21554e-07
5.13779e-10
-3.84903e-10
-1.21573e-07
4.61941e-10
4.84794e-10
-4.48961e-10
-3.66761e-10
-1.21545e-07
5.43719e-10
-3.78304e-10
-3.76329e-10
-1.21515e-07
-2.88009e-10
-3.33308e-10
-1.21482e-07
-2.08214e-10
-3.43958e-10
-1.21442e-07
-1.30393e-10
-3.46694e-10
-1.21415e-07
-5.65864e-11
-3.52077e-10
-1.21395e-07
1.48101e-11
-3.54546e-10
-1.21384e-07
8.55239e-11
-3.56023e-10
-1.21385e-07
1.54832e-10
-3.52148e-10
-1.21396e-07
2.26545e-10
-3.42663e-10
-1.21418e-07
2.99503e-10
-3.34388e-10
-1.21446e-07
3.82703e-10
-3.17373e-10
-1.21488e-07
4.4615e-10
-3.53996e-10
-1.21523e-07
-3.42297e-10
-1.21554e-07
5.35786e-10
-3.92463e-10
-2.93364e-10
-1.21517e-07
4.64043e-10
-3.35761e-10
-2.91605e-10
-1.21482e-07
-2.6043e-10
-2.64382e-10
-1.21439e-07
-1.90767e-10
-2.72541e-10
-1.21398e-07
-1.20298e-10
-2.74262e-10
-1.2137e-07
-5.21589e-11
-2.78099e-10
-1.21349e-07
1.53864e-11
-2.79316e-10
-1.21338e-07
8.23519e-11
-2.81193e-10
-1.21338e-07
1.48324e-10
-2.79215e-10
-1.2135e-07
2.15519e-10
-2.72638e-10
-1.21371e-07
2.8009e-10
-2.66097e-10
-1.21401e-07
3.47895e-10
-2.51732e-10
-1.21444e-07
3.94747e-10
-2.7138e-10
-1.2149e-07
-2.7091e-10
-1.21525e-07
4.55812e-10
-4.11099e-10
-2.21988e-10
-1.21482e-07
4.82568e-10
-3.46447e-10
-2.16665e-10
-1.21442e-07
-2.68212e-10
-1.99127e-10
-1.21398e-07
-1.96125e-10
-2.04361e-10
-1.21357e-07
-1.23946e-10
-2.04899e-10
-1.21327e-07
-5.471e-11
-2.06974e-10
-1.21306e-07
1.49312e-11
-2.07083e-10
-1.21295e-07
8.45192e-11
-2.08415e-10
-1.21294e-07
1.53949e-10
-2.07876e-10
-1.21306e-07
2.25468e-10
-2.04004e-10
-1.21328e-07
2.94539e-10
-1.99705e-10
-1.21359e-07
3.66048e-10
-1.8926e-10
-1.21403e-07
4.20261e-10
-1.99436e-10
-1.21449e-07
-2.02545e-10
-1.2149e-07
4.78201e-10
-4.18062e-10
-1.46203e-10
-1.21461e-07
4.8986e-10
-3.49139e-10
-1.41185e-10
-1.21415e-07
-2.69515e-10
-1.29687e-10
-1.2137e-07
-1.9655e-10
-1.31879e-10
-1.21328e-07
-1.24104e-10
-1.31212e-10
-1.21297e-07
-5.50166e-11
-1.31931e-10
-1.21276e-07
1.44856e-11
-1.31081e-10
-1.21264e-07
8.44195e-11
-1.31304e-10
-1.21264e-07
1.5558e-10
-1.31751e-10
-1.21276e-07
2.298e-10
-1.30221e-10
-1.21298e-07
3.01638e-10
-1.2829e-10
-1.2133e-07
3.75384e-10
-1.22255e-10
-1.21374e-07
4.33637e-10
-1.27725e-10
-1.21422e-07
-1.30921e-10
-1.2147e-07
4.90119e-10
-4.24852e-10
-7.07214e-11
-1.21449e-07
4.98832e-10
-3.53731e-10
-6.63336e-11
-1.21396e-07
-2.72996e-10
-5.91036e-11
-1.21351e-07
-1.98763e-10
-5.87845e-11
-1.21309e-07
-1.2544e-10
-5.71033e-11
-1.21278e-07
-5.57555e-11
-5.68486e-11
-1.21256e-07
1.34822e-11
-5.51822e-11
-1.21244e-07
8.34252e-11
-5.40639e-11
-1.21243e-07
1.56113e-10
-5.48032e-11
-1.21255e-07
2.32932e-10
-5.5426e-11
-1.21278e-07
3.08019e-10
-5.61554e-11
-1.2131e-07
3.85058e-10
-5.50976e-11
-1.21355e-07
4.46711e-10
-5.82029e-11
-1.21402e-07
-6.10157e-11
-1.21457e-07
5.05092e-10
-4.25757e-10
3.80848e-12
-1.21442e-07
5.01607e-10
-3.53589e-10
8.21847e-12
-1.21385e-07
-2.72755e-10
1.23252e-11
-1.2134e-07
-1.9851e-10
1.50935e-11
-1.21297e-07
-1.25045e-10
1.76012e-11
-1.21266e-07
-5.52805e-11
1.87024e-11
-1.21245e-07
1.32363e-11
2.04244e-11
-1.21234e-07
8.27283e-11
2.20883e-11
-1.21234e-07
1.56126e-10
2.08561e-11
-1.21245e-07
2.34051e-10
1.86605e-11
-1.21268e-07
3.10475e-10
1.60597e-11
-1.213e-07
3.88857e-10
1.29527e-11
-1.21345e-07
4.52192e-10
1.06013e-11
-1.21392e-07
7.56146e-12
-1.2145e-07
5.1208e-10
-4.20082e-10
7.87196e-11
-1.21442e-07
4.93204e-10
-3.49407e-10
8.20577e-11
-1.21385e-07
-2.69163e-10
8.26454e-11
-1.2134e-07
-1.95004e-10
8.78344e-11
-1.21298e-07
-1.21282e-10
9.09167e-11
-1.21267e-07
-5.13497e-11
9.27273e-11
-1.21246e-07
1.61381e-11
9.40253e-11
-1.21235e-07
8.42285e-11
9.55458e-11
-1.21236e-07
1.56466e-10
9.3798e-11
-1.21248e-07
2.32815e-10
9.02169e-11
-1.2127e-07
3.07646e-10
8.60225e-11
-1.21302e-07
3.84705e-10
7.91203e-11
-1.21346e-07
4.47991e-10
7.71275e-11
-1.21392e-07
7.35445e-11
-1.2145e-07
5.08981e-10
-4.11481e-10
1.50647e-10
-1.21449e-07
4.83138e-10
-3.42481e-10
1.52782e-10
-1.21396e-07
-2.63945e-10
1.49795e-10
-1.21351e-07
-1.91461e-10
1.57917e-10
-1.21309e-07
-1.19215e-10
1.61701e-10
-1.21279e-07
-5.03486e-11
1.63976e-10
-1.21259e-07
1.54981e-11
1.64957e-10
-1.21248e-07
8.18396e-11
1.6583e-10
-1.21249e-07
1.52396e-10
1.63177e-10
-1.21261e-07
2.26563e-10
1.57455e-10
-1.21283e-07
2.99398e-10
1.50919e-10
-1.21314e-07
3.7487e-10
1.39888e-10
-1.21358e-07
4.36639e-10
1.408e-10
-1.21403e-07
1.39032e-10
-1.21456e-07
4.95536e-10
-3.94334e-10
2.21482e-10
-1.21462e-07
4.63016e-10
-3.296e-10
2.22444e-10
-1.21417e-07
-2.54955e-10
2.14036e-10
-1.21371e-07
-1.86464e-10
2.25453e-10
-1.2133e-07
-1.17473e-10
2.30135e-10
-1.21301e-07
-5.08597e-11
2.33147e-10
-1.21281e-07
1.31e-11
2.33951e-10
-1.21271e-07
7.80464e-11
2.33285e-10
-1.21272e-07
1.47129e-10
2.28632e-10
-1.21284e-07
2.18816e-10
2.20589e-10
-1.21305e-07
2.88856e-10
2.12221e-10
-1.21335e-07
3.61934e-10
1.97908e-10
-1.21377e-07
4.20781e-10
2.0491e-10
-1.21422e-07
2.04919e-10
-1.21467e-07
4.78132e-10
-3.77435e-10
2.87375e-10
-1.21482e-07
4.46238e-10
-3.18344e-10
2.90629e-10
-1.21443e-07
-2.47221e-10
2.72083e-10
-1.214e-07
-1.82235e-10
2.86275e-10
-1.2136e-07
-1.16088e-10
2.91685e-10
-1.21331e-07
-5.15185e-11
2.95849e-10
-1.21312e-07
1.07901e-11
2.97274e-10
-1.21303e-07
7.4288e-11
2.95062e-10
-1.21304e-07
1.41291e-10
2.88402e-10
-1.21315e-07
2.10317e-10
2.78325e-10
-1.21336e-07
2.77623e-10
2.68672e-10
-1.21365e-07
3.48771e-10
2.51765e-10
-1.21405e-07
4.03385e-10
2.69831e-10
-1.21448e-07
2.6703e-10
-1.21486e-07
4.6284e-10
-3.52012e-10
3.55191e-10
-1.21517e-07
4.22845e-10
-3.01452e-10
3.6831e-10
-1.21484e-07
-2.34464e-10
3.31623e-10
-1.21441e-07
-1.7403e-10
3.47537e-10
-1.21402e-07
-1.12083e-10
3.53156e-10
-1.21375e-07
-5.10952e-11
3.5854e-10
-1.21356e-07
8.27475e-12
3.61256e-10
-1.21347e-07
6.93317e-11
3.57792e-10
-1.21348e-07
1.33169e-10
3.49827e-10
-1.21359e-07
1.984e-10
3.38713e-10
-1.21378e-07
2.61447e-10
3.28879e-10
-1.21406e-07
3.28836e-10
3.10376e-10
-1.21445e-07
3.75492e-10
3.46959e-10
-1.21486e-07
3.32517e-10
-1.21519e-07
4.38201e-10
-4.0476e-10
3.95204e-10
-1.21546e-07
5.01991e-10
-3.38686e-10
4.28633e-10
-1.21517e-07
-2.56307e-10
3.72291e-10
-1.21485e-07
-1.87183e-10
3.93656e-10
-1.21446e-07
-1.20423e-10
4.01709e-10
-1.21421e-07
-5.64909e-11
4.09522e-10
-1.21402e-07
6.03711e-12
4.14125e-10
-1.21393e-07
7.05896e-11
4.10143e-10
-1.21393e-07
1.38056e-10
4.01007e-10
-1.21403e-07
2.08828e-10
3.882e-10
-1.21423e-07
2.81075e-10
3.76316e-10
-1.21448e-07
3.63979e-10
3.52475e-10
-1.21487e-07
4.26919e-10
4.07925e-10
-1.21518e-07
3.71315e-10
-1.21545e-07
5.17101e-10
-3.72374e-10
-1.21564e-07
4.68659e-10
4.52553e-10
-3.29461e-10
-1.21546e-07
5.18274e-10
-2.59747e-10
-1.21519e-07
4.32088e-10
-1.94261e-10
-1.21486e-07
4.48631e-10
-1.26435e-10
-1.21468e-07
4.54326e-10
-6.09509e-11
-1.21456e-07
4.644e-10
3.61751e-12
-1.2145e-07
4.71395e-10
7.02326e-11
-1.2145e-07
4.67813e-10
1.40351e-10
-1.21457e-07
4.56758e-10
2.1244e-10
-1.21469e-07
4.43701e-10
2.80044e-10
-1.21487e-07
4.3572e-10
3.48959e-10
-1.2152e-07
4.16716e-10
3.90557e-10
-1.21546e-07
4.98371e-10
-1.21562e-07
4.6358e-10
4.43911e-10
-2.52402e-10
-2.41793e-10
-1.30095e-07
3.20548e-10
3.35213e-10
-2.11201e-10
-2.63685e-10
-1.3008e-07
3.67204e-10
-1.59196e-10
-1.66456e-10
-1.30047e-07
2.41114e-10
-1.06427e-10
-1.64862e-10
-1.30019e-07
2.31847e-10
-5.95985e-11
-1.53094e-10
-1.29997e-07
2.13378e-10
-2.07938e-11
-1.49046e-10
-1.29986e-07
2.08727e-10
8.8577e-12
-1.44314e-10
-1.29981e-07
2.06168e-10
3.81742e-11
-1.40573e-10
-1.29981e-07
1.99186e-10
6.9874e-11
-1.40971e-10
-1.29988e-07
1.98636e-10
1.07474e-10
-1.37504e-10
-1.30001e-07
1.95665e-10
1.51772e-10
-1.4234e-10
-1.30023e-07
2.08018e-10
1.97783e-10
-1.38715e-10
-1.30051e-07
2.14479e-10
2.35762e-10
-2.33155e-10
-1.30085e-07
3.41271e-10
-2.12071e-10
-1.30101e-07
2.95008e-10
3.22006e-10
-2.7192e-10
-2.06804e-10
-1.30079e-07
3.7938e-10
-2.02122e-10
-1.98431e-10
-1.30059e-07
-1.30572e-10
-1.24441e-10
-1.30022e-07
-7.32274e-11
-1.18368e-10
-1.29988e-07
-3.34211e-11
-1.05251e-10
-1.29959e-07
-6.7949e-12
-1.00129e-10
-1.29939e-07
1.13768e-11
-9.53486e-11
-1.29929e-07
2.8027e-11
-9.41197e-11
-1.2993e-07
4.6772e-11
-9.48017e-11
-1.29942e-07
7.65252e-11
-9.35971e-11
-1.29963e-07
1.25027e-10
-1.00374e-10
-1.29993e-07
1.91255e-10
-1.00729e-10
-1.30028e-07
2.59436e-10
-1.6993e-10
-1.30066e-07
-1.78137e-10
-1.30085e-07
3.69927e-10
-1.77941e-10
-1.60811e-10
-1.30046e-07
2.55822e-10
-1.29299e-10
-1.33586e-10
-1.30022e-07
-8.08495e-11
-8.50031e-11
-1.29972e-07
-4.12682e-11
-8.00425e-11
-1.29939e-07
-1.44055e-11
-7.08789e-11
-1.29909e-07
2.72463e-12
-6.81648e-11
-1.29889e-07
1.40896e-11
-6.50178e-11
-1.29879e-07
2.32601e-11
-6.53457e-11
-1.2988e-07
3.35221e-11
-6.61683e-11
-1.29891e-07
5.16799e-11
-6.47238e-11
-1.29912e-07
8.24327e-11
-6.82949e-11
-1.29944e-07
1.23884e-10
-6.69876e-11
-1.29978e-07
1.68013e-10
-1.08463e-10
-1.30029e-07
-1.34429e-10
-1.30054e-07
2.45277e-10
-1.80102e-10
-1.13624e-10
-1.30018e-07
2.51171e-10
-1.24768e-10
-8.26064e-11
-1.29988e-07
-7.56145e-11
-5.29408e-11
-1.29938e-07
-3.58625e-11
-4.87125e-11
-1.29905e-07
-9.8995e-12
-4.28538e-11
-1.29873e-07
5.45881e-12
-4.18543e-11
-1.29852e-07
1.4646e-11
-4.03052e-11
-1.29841e-07
2.1919e-11
-4.147e-11
-1.29842e-07
3.2376e-11
-4.28114e-11
-1.29853e-07
5.15312e-11
-4.1689e-11
-1.29876e-07
8.36936e-11
-4.31515e-11
-1.29909e-07
1.2583e-10
-4.13328e-11
-1.29945e-07
1.75464e-10
-6.24991e-11
-1.29996e-07
-9.06657e-11
-1.30027e-07
2.42515e-10
-1.72903e-10
-7.04572e-11
-1.29996e-07
2.3806e-10
-1.14486e-10
-4.61915e-11
-1.29959e-07
-6.75219e-11
-2.91735e-11
-1.29908e-07
-2.99397e-11
-2.56002e-11
-1.29872e-07
-6.63704e-12
-2.24156e-11
-1.29839e-07
6.14969e-12
-2.28194e-11
-1.29817e-07
1.40688e-11
-2.30723e-11
-1.29806e-07
2.08173e-11
-2.43785e-11
-1.29806e-07
3.11722e-11
-2.573e-11
-1.29818e-07
5.03571e-11
-2.50993e-11
-1.29842e-07
8.22687e-11
-2.50726e-11
-1.29877e-07
1.22746e-10
-2.31887e-11
-1.29914e-07
1.75007e-10
-3.18082e-11
-1.29967e-07
-5.19527e-11
-1.30005e-07
2.34109e-10
-1.71964e-10
-3.2005e-11
-1.29984e-07
2.36607e-10
-1.12201e-10
-1.79617e-11
-1.29938e-07
-6.68308e-11
-9.04115e-12
-1.29888e-07
-2.9905e-11
-6.72327e-12
-1.29852e-07
-7.31326e-12
-5.57459e-12
-1.29818e-07
4.4464e-12
-6.64635e-12
-1.29796e-07
1.20442e-11
-7.81177e-12
-1.29784e-07
1.92614e-11
-8.57377e-12
-1.29784e-07
3.06362e-11
-9.83608e-12
-1.29796e-07
5.17063e-11
-1.01145e-11
-1.2982e-07
8.58707e-11
-9.8419e-12
-1.29855e-07
1.27493e-10
-8.38687e-12
-1.29894e-07
1.82737e-10
-1.03391e-11
-1.29946e-07
-1.8592e-11
-1.29994e-07
2.40328e-10
-1.68522e-10
2.35829e-12
-1.29978e-07
2.34927e-10
-1.0824e-10
6.30554e-12
-1.29927e-07
-6.45347e-11
1.00048e-11
-1.29878e-07
-2.92884e-11
1.14334e-11
-1.29841e-07
-8.69837e-12
1.16136e-11
-1.29806e-07
1.80444e-12
9.54641e-12
-1.29784e-07
8.76341e-12
7.19687e-12
-1.29772e-07
1.67188e-11
6.23606e-12
-1.29771e-07
3.02597e-11
4.33732e-12
-1.29784e-07
5.38322e-11
3.31918e-12
-1.29808e-07
8.98874e-11
3.94736e-12
-1.29844e-07
1.31568e-10
5.92209e-12
-1.29883e-07
1.86622e-10
9.19588e-12
-1.29936e-07
1.14793e-11
-1.29988e-07
2.44322e-10
-1.61777e-10
3.71016e-11
-1.29978e-07
2.25526e-10
-1.03744e-10
2.99725e-11
-1.29927e-07
-6.18532e-11
2.80971e-11
-1.29878e-07
-2.79968e-11
2.87541e-11
-1.29841e-07
-8.18708e-12
2.82571e-11
-1.29807e-07
2.31515e-12
2.58295e-11
-1.29785e-07
9.06581e-12
2.27667e-11
-1.29773e-07
1.7338e-11
2.17846e-11
-1.29773e-07
3.18832e-11
1.96527e-11
-1.29785e-07
5.59575e-11
1.80707e-11
-1.29809e-07
9.21941e-11
1.88654e-11
-1.29844e-07
1.33693e-10
2.08372e-11
-1.29884e-07
1.89002e-10
2.80213e-11
-1.29935e-07
3.92846e-11
-1.29988e-07
2.47406e-10
-1.58188e-10
7.26797e-11
-1.29984e-07
2.20162e-10
-1.02318e-10
5.42968e-11
-1.29938e-07
-6.18329e-11
4.46564e-11
-1.29889e-07
-2.95335e-11
4.49115e-11
-1.29853e-07
-1.02675e-11
4.34183e-11
-1.29819e-07
9.59725e-14
4.17122e-11
-1.29797e-07
6.55737e-12
3.91314e-11
-1.29785e-07
1.50038e-11
3.87571e-11
-1.29785e-07
3.03206e-11
3.69066e-11
-1.29797e-07
5.51347e-11
3.46542e-11
-1.29821e-07
9.19967e-11
3.5392e-11
-1.29856e-07
1.34364e-10
3.62476e-11
-1.29895e-07
1.8866e-10
4.92636e-11
-1.29946e-07
7.15368e-11
-1.29994e-07
2.43347e-10
-1.49623e-10
1.11191e-10
-1.29995e-07
2.11828e-10
-9.73107e-11
8.48094e-11
-1.29959e-07
-5.86687e-11
6.28682e-11
-1.29909e-07
-2.9259e-11
6.31739e-11
-1.29875e-07
-1.24692e-11
6.0251e-11
-1.29842e-07
-3.258e-12
5.89027e-11
-1.29821e-07
2.76234e-12
5.65816e-11
-1.29809e-07
1.18657e-11
5.63079e-11
-1.2981e-07
2.8606e-11
5.48813e-11
-1.29821e-07
5.45752e-11
5.26593e-11
-1.29843e-07
9.1833e-11
5.47122e-11
-1.29878e-07
1.34511e-10
5.48469e-11
-1.29914e-07
1.85427e-10
7.94473e-11
-1.29966e-07
1.08623e-10
-1.30004e-07
2.40131e-10
-1.49139e-10
1.52929e-10
-1.30017e-07
2.17775e-10
-1.01149e-10
1.28982e-10
-1.29988e-07
-6.22973e-11
8.75184e-11
-1.2994e-07
-3.32008e-11
8.72865e-11
-1.29907e-07
-1.62098e-11
8.20901e-11
-1.29876e-07
-6.19744e-12
8.08533e-11
-1.29856e-07
5.54798e-13
7.92508e-11
-1.29845e-07
1.08711e-11
7.91145e-11
-1.29845e-07
2.91086e-11
7.8659e-11
-1.29856e-07
5.65284e-11
7.73902e-11
-1.29878e-07
9.50353e-11
8.17061e-11
-1.2991e-07
1.39408e-10
8.17142e-11
-1.29945e-07
1.86693e-10
1.24961e-10
-1.29995e-07
1.49953e-10
-1.30025e-07
2.48144e-10
-1.41851e-10
1.93366e-10
-1.30044e-07
2.18991e-10
-1.00788e-10
1.87278e-10
-1.30022e-07
-6.32864e-11
1.18377e-10
-1.29974e-07
-3.57174e-11
1.16625e-10
-1.29942e-07
-1.92874e-11
1.07918e-10
-1.29912e-07
-8.45525e-12
1.05854e-10
-1.29893e-07
-2.86953e-13
1.05156e-10
-1.29883e-07
1.18782e-11
1.05203e-10
-1.29884e-07
3.1203e-11
1.06297e-10
-1.29894e-07
5.84113e-11
1.07537e-10
-1.29914e-07
9.57483e-11
1.15625e-10
-1.29944e-07
1.38813e-10
1.16502e-10
-1.29978e-07
1.79366e-10
1.85238e-10
-1.30027e-07
1.9039e-10
-1.30051e-07
2.48958e-10
-2.33466e-10
2.24292e-10
-1.30077e-07
3.4192e-10
-1.70049e-10
2.47342e-10
-1.30059e-07
-1.08346e-10
1.52276e-10
-1.30023e-07
-6.29869e-11
1.54205e-10
-1.29991e-07
-3.42499e-11
1.46886e-10
-1.29963e-07
-1.48647e-11
1.46952e-10
-1.29943e-07
4.02147e-13
1.48673e-10
-1.29934e-07
1.96651e-11
1.49129e-10
-1.29934e-07
4.75766e-11
1.49668e-10
-1.29944e-07
8.66268e-11
1.50308e-10
-1.29964e-07
1.40854e-10
1.57308e-10
-1.29993e-07
2.06628e-10
1.54006e-10
-1.30026e-07
2.68883e-10
2.45957e-10
-1.30063e-07
2.21079e-10
-1.30082e-07
3.68533e-10
-2.11557e-10
-1.30093e-07
3.03125e-10
2.94552e-10
-1.78856e-10
-1.30078e-07
3.50989e-10
-1.3774e-10
-1.30047e-07
2.228e-10
-9.6369e-11
-1.30021e-07
2.14036e-10
-5.96021e-11
-1.3e-07
1.98865e-10
-2.78098e-11
-1.2999e-07
1.98715e-10
1.44501e-12
-1.29984e-07
2.02708e-10
3.35443e-11
-1.29985e-07
2.04104e-10
7.31558e-11
-1.29991e-07
2.02467e-10
1.18564e-10
-1.30002e-07
2.04801e-10
1.66806e-10
-1.30023e-07
2.19861e-10
2.11005e-10
-1.3005e-07
2.25799e-10
2.44148e-10
-1.30082e-07
3.46272e-10
-1.30096e-07
3.17735e-10
2.9576e-10
-6.80628e-11
-5.83037e-11
-1.38609e-07
1.41521e-10
1.54072e-10
-4.51133e-11
-7.47595e-11
-1.38594e-07
1.90052e-10
-1.51361e-11
5.45912e-11
-1.38574e-07
3.52757e-11
3.43301e-13
7.46574e-11
-1.38551e-07
4.49877e-12
1.13899e-11
1.02292e-10
-1.38539e-07
-3.41926e-11
1.23212e-11
1.17704e-10
-1.38533e-07
-5.28303e-11
2.0284e-12
1.29061e-10
-1.38532e-07
-6.28646e-11
-7.73749e-12
1.34596e-10
-1.38533e-07
-7.15046e-11
-1.19046e-11
1.27853e-10
-1.38536e-07
-6.43425e-11
-8.09664e-12
1.20128e-10
-1.38543e-07
-5.25102e-11
1.04884e-12
9.76487e-11
-1.38555e-07
-1.82471e-11
2.74675e-11
8.00894e-11
-1.38578e-07
1.18441e-11
5.07269e-11
-4.92625e-11
-1.38597e-07
1.68494e-10
-3.64203e-11
-1.38611e-07
1.22444e-10
1.43656e-10
-8.18167e-11
-3.9914e-11
-1.38594e-07
2.00738e-10
-2.52262e-11
-2.16921e-11
-1.3858e-07
3.3991e-11
8.17548e-11
-1.38558e-07
5.88236e-11
1.05201e-10
-1.3853e-07
6.03647e-11
1.34198e-10
-1.38512e-07
4.03883e-11
1.51633e-10
-1.38498e-07
5.2558e-12
1.64241e-10
-1.38492e-07
-3.11379e-11
1.67446e-10
-1.38494e-07
-5.86166e-11
1.60137e-10
-1.38502e-07
-6.63286e-11
1.49735e-10
-1.38518e-07
-4.86315e-11
1.2518e-10
-1.38537e-07
7.8792e-12
1.04608e-10
-1.38564e-07
6.61502e-11
2.92664e-12
-1.38585e-07
-1.72576e-11
-1.38597e-07
1.91417e-10
4.46188e-11
-1.40703e-11
-1.38574e-07
4.80541e-11
7.68963e-11
3.27087e-11
-1.38558e-07
1.0875e-10
1.05787e-10
-1.38524e-07
1.09111e-10
1.26249e-10
-1.38498e-07
9.07288e-11
1.48542e-10
-1.3848e-07
5.57384e-11
1.61228e-10
-1.38468e-07
9.60008e-12
1.70603e-10
-1.38463e-07
-3.91279e-11
1.72295e-10
-1.38465e-07
-8.25944e-11
1.67354e-10
-1.38472e-07
-1.11386e-10
1.6004e-10
-1.38486e-07
-1.20297e-10
1.4158e-10
-1.38506e-07
-9.36043e-11
1.24435e-10
-1.38531e-07
-6.15822e-11
5.48795e-11
-1.38564e-07
6.70553e-12
-1.38579e-07
3.69858e-11
5.95092e-11
-2.51325e-12
-1.38549e-07
2.27094e-11
9.75884e-11
5.25801e-11
-1.3853e-07
1.29362e-10
9.89839e-11
-1.38497e-07
1.28286e-10
1.15638e-10
-1.38473e-07
1.06292e-10
1.31051e-10
-1.38454e-07
6.49795e-11
1.39365e-10
-1.38441e-07
1.20782e-11
1.45508e-10
-1.38436e-07
-4.3987e-11
1.4608e-10
-1.38437e-07
-9.38032e-11
1.42482e-10
-1.38445e-07
-1.26499e-10
1.3756e-10
-1.3846e-07
-1.37373e-10
1.25084e-10
-1.3848e-07
-1.11719e-10
1.12013e-10
-1.38505e-07
-7.49453e-11
7.08148e-11
-1.38537e-07
1.5697e-11
-1.38555e-07
1.13669e-11
8.04981e-11
6.10701e-12
-1.38535e-07
-9.21627e-12
1.21777e-10
5.14724e-11
-1.3851e-07
1.49176e-10
7.75433e-11
-1.38477e-07
1.43703e-10
8.95015e-11
-1.38452e-07
1.1683e-10
9.80725e-11
-1.38432e-07
7.04336e-11
1.01664e-10
-1.38419e-07
1.33085e-11
1.04101e-10
-1.38413e-07
-4.71113e-11
1.03823e-10
-1.38415e-07
-1.01563e-10
1.0154e-10
-1.38423e-07
-1.38688e-10
9.9122e-11
-1.38439e-07
-1.53759e-10
9.2718e-11
-1.3846e-07
-1.32782e-10
8.45907e-11
-1.38485e-07
-9.30354e-11
6.47604e-11
-1.38518e-07
2.14266e-11
-1.38543e-07
-1.89385e-11
8.94671e-11
7.50314e-12
-1.38529e-07
-2.22288e-11
1.33168e-10
3.28166e-11
-1.38494e-07
1.57072e-10
4.49748e-11
-1.38464e-07
1.49217e-10
5.10013e-11
-1.38438e-07
1.20197e-10
5.37952e-11
-1.38417e-07
7.19141e-11
5.32486e-11
-1.38403e-07
1.26836e-11
5.26482e-11
-1.38397e-07
-4.97567e-11
5.17567e-11
-1.38398e-07
-1.05412e-10
5.01654e-11
-1.38406e-07
-1.43339e-10
4.93702e-11
-1.38423e-07
-1.58847e-10
4.76192e-11
-1.38444e-07
-1.3917e-10
4.50858e-11
-1.38471e-07
-9.5437e-11
3.99556e-11
-1.38502e-07
1.98992e-11
-1.38537e-07
-2.6437e-11
9.76443e-11
2.54539e-12
-1.38526e-07
-2.97053e-11
1.42439e-10
5.31125e-12
-1.38486e-07
1.62981e-10
7.81941e-12
-1.38457e-07
1.51753e-10
7.98771e-12
-1.3843e-07
1.19154e-10
6.60489e-12
-1.38409e-07
6.87401e-11
2.93265e-12
-1.38395e-07
9.12114e-12
-1.35216e-12
-1.38388e-07
-5.24645e-11
-3.2553e-12
-1.38388e-07
-1.06724e-10
-4.44234e-12
-1.38396e-07
-1.43513e-10
-4.29313e-12
-1.38413e-07
-1.58553e-10
-1.91146e-12
-1.38435e-07
-1.40751e-10
2.60195e-12
-1.38463e-07
-9.74877e-11
8.62428e-12
-1.38494e-07
1.31964e-11
-1.38534e-07
-2.99717e-11
1.02922e-10
-2.01025e-12
-1.38525e-07
-3.69064e-11
1.45875e-10
-2.27733e-11
-1.38486e-07
1.64645e-10
-3.01446e-11
-1.38457e-07
1.51715e-10
-3.55712e-11
-1.3843e-07
1.17852e-10
-4.06661e-11
-1.3841e-07
6.70874e-11
-4.64572e-11
-1.38395e-07
8.11904e-12
-5.33433e-11
-1.38387e-07
-5.18428e-11
-5.57632e-11
-1.38388e-07
-1.0418e-10
-5.63795e-11
-1.38396e-07
-1.39426e-10
-5.51783e-11
-1.38412e-07
-1.53236e-10
-4.89334e-11
-1.38435e-07
-1.34643e-10
-3.83307e-11
-1.38463e-07
-9.06458e-11
-2.28122e-11
-1.38493e-07
4.28044e-12
-1.38534e-07
-2.22726e-11
9.94163e-11
-1.80092e-12
-1.38528e-07
-3.50195e-11
1.3922e-10
-4.41195e-11
-1.38494e-07
1.58227e-10
-6.55117e-11
-1.38464e-07
1.45263e-10
-7.59938e-11
-1.38438e-07
1.12283e-10
-8.53507e-11
-1.38417e-07
6.25382e-11
-9.28197e-11
-1.38402e-07
4.57889e-12
-1.00335e-10
-1.38395e-07
-5.34326e-11
-1.02272e-10
-1.38395e-07
-1.02818e-10
-1.01818e-10
-1.38403e-07
-1.3487e-10
-9.88152e-11
-1.38419e-07
-1.45875e-10
-8.83958e-11
-1.38441e-07
-1.24142e-10
-7.35874e-11
-1.38469e-07
-8.14513e-11
-4.50304e-11
-1.38501e-07
2.99542e-12
-1.38537e-07
-1.62551e-11
9.6684e-11
3.83135e-12
-1.38535e-07
-2.83922e-11
1.3224e-10
-4.95896e-11
-1.3851e-07
1.51773e-10
-9.13072e-11
-1.38478e-07
1.37991e-10
-1.05594e-10
-1.38453e-07
1.0457e-10
-1.19828e-10
-1.38433e-07
5.53958e-11
-1.29119e-10
-1.38418e-07
-5.45491e-13
-1.37207e-10
-1.38411e-07
-5.46703e-11
-1.38292e-10
-1.38411e-07
-9.9125e-11
-1.35688e-10
-1.38418e-07
-1.26149e-10
-1.29702e-10
-1.38433e-07
-1.33334e-10
-1.13927e-10
-1.38455e-07
-1.08649e-10
-9.58008e-11
-1.38482e-07
-7.06307e-11
-4.80809e-11
-1.38516e-07
9.7087e-12
-1.38543e-07
-3.5406e-12
7.96726e-11
1.11147e-11
-1.38548e-07
-1.25702e-13
1.11187e-10
-3.5116e-11
-1.38529e-07
1.33756e-10
-1.04077e-10
-1.38498e-07
1.22816e-10
-1.21596e-10
-1.38473e-07
9.29555e-11
-1.40977e-10
-1.38454e-07
4.78964e-11
-1.51842e-10
-1.3844e-07
-3.59595e-12
-1.59716e-10
-1.38432e-07
-5.20017e-11
-1.59439e-10
-1.38432e-07
-8.99385e-11
-1.53789e-10
-1.38439e-07
-1.10444e-10
-1.44264e-10
-1.38454e-07
-1.12244e-10
-1.23044e-10
-1.38475e-07
-8.32143e-11
-1.0257e-10
-1.38502e-07
-4.94469e-11
-2.97465e-11
-1.38535e-07
1.89977e-11
-1.38556e-07
2.75419e-11
6.72402e-11
3.1909e-11
-1.38572e-07
2.37105e-11
9.30285e-11
1.34933e-11
-1.38558e-07
1.15724e-10
-8.71456e-11
-1.38525e-07
1.06001e-10