/*--------------------------------*- C++ -*----------------------------------*\
| =========                 |                                                 |
| \\      /  F ield         | OpenFOAM: The Open Source CFD Toolbox           |
|  \\    /   O peration     | Version:  v2106                                 |
|   \\  /    A nd           | Website:  www.openfoam.com                      |
|    \\/     M anipulation  |                                                 |
\*---------------------------------------------------------------------------*/
FoamFile
{
    version     2.0;
    format      ascii;
    arch        "LSB;label=32;scalar=64";
    class       volScalarField;
    location    "0.000172";
    object      epsilon;
}
// * * * * * * * * * * * * * * * * * * * * * * * * * * * * * * * * * * * * * //

dimensions      [0 2 -3 0 0 0 0];

internalField   nonuniform List<scalar> 
18109
(
413.1
146.958
71.6672
49.341
45.1555
48.9104
58.674
232.404
53.2154
14.7238
8.24794
7.49568
8.14434
9.74375
144.71
25.1745
3.7009
1.10793
0.878575
0.94719
1.14148
101.254
16.6756
2.24464
0.332567
0.0970983
0.0763404
0.103052
76.782
13.6164
2.22018
0.335943
0.0468532
0.0100185
0.0185953
67.5727
13.3479
2.40561
0.367341
0.0466687
0.00795008
0.0150175
72.8101
15.4729
2.77893
0.407083
0.0585076
0.0219577
0.0354905
91.8598
19.5959
3.42316
0.549043
0.155025
0.128921
0.172545
227.148
69.604
28.0813
16.361
12.8875
12.4267
13.8835
16.7482
21.5515
29.4962
47.1311
100.414
261.671
684.08
120.192
24.1062
5.09627
2.14862
1.67602
1.65372
1.87854
2.29326
3.15794
5.68937
15.0601
49.0421
155.249
433.841
69.195
11.3742
1.48504
0.27757
0.151875
0.146339
0.173271
0.247793
0.548182
1.90704
7.57465
28.3145
93.926
273.833
47.525
8.10169
1.18466
0.164797
0.026025
0.00991327
0.0137592
0.0439609
0.208532
1.00899
4.41867
17.1842
59.4228
184.728
38.4152
7.35924
1.28493
0.197393
0.0246929
0.00303302
0.00360645
0.0216344
0.126487
0.656555
3.01208
12.2994
45.2174
152.151
38.0645
7.96124
1.45774
0.219827
0.0259242
0.00334969
0.00353988
0.0186755
0.108792
0.57722
2.73173
11.5842
44.6148
158.578
45.894
9.85337
1.73821
0.247598
0.0325372
0.0105478
0.0122568
0.0321289
0.145489
0.73114
3.4368
14.635
56.6514
201.758
61.774
12.8872
2.16567
0.326442
0.0826735
0.0653578
0.0768669
0.120714
0.32299
1.2872
5.5488
22.5497
83.7192
283.4
85.4489
17.5754
3.22178
0.739506
0.391104
0.387166
0.451032
0.60385
1.08815
2.97801
10.4891
38.2236
130.634
407.513
122.035
28.4735
7.55667
2.9559
2.00238
1.96366
2.24899
2.88432
4.33816
8.53479
22.4221
68.0826
205.737
577.454
195.993
63.8542
26.0215
13.44
9.38806
8.68024
9.62784
12.0913
16.8819
27.2787
54.1284
129.556
332.566
827.627
382.599
176.963
93.4816
55.4769
39.1598
34.2176
36.2177
44.1879
59.2522
86.5431
141.316
267.583
566.834
1228.27
826.893
480.634
296.828
195.387
142.868
121.75
123.107
143.726
185.011
254.81
372.026
590.629
1033.19
1927.71
1726.55
1153.69
797.278
580.694
453.706
393.671
388.604
431.156
524.515
684.481
934.127
1325.58
1972.71
3144.18
806.808
1816.04
4027.11
8218.05
16201.9
33160.9
450.103
1102.1
2659.72
5751.43
11520.9
23051.2
225.636
735.446
2078.29
5012.11
11115.4
24941.4
135.406
525.551
1647.25
4403.07
11071
28830.1
89.2421
384.117
1337.84
4064.67
11721.2
34295.1
70.8501
325.083
1232.14
4139.33
13053.8
40038.3
68.0212
321.29
1273.96
4497.5
14692.3
44864.9
75.8335
359.769
1437.66
5064.34
16146.4
47221.4
91.9545
427.55
1660.57
5615.99
16939.7
46637.5
118.401
524.014
1924.21
6097.66
17042.2
43339.7
156.395
641.49
2167.33
6261.19
15893.2
36749.2
212.338
787.612
2398.8
6222.51
14192.4
29588.1
310.503
1012.33
2720.18
6266.99
12815
24074.4
495.603
1385.18
3266.04
6711.23
12444.8
21372.1
857.074
1965.22
4045.48
7528.16
13012.8
21353.2
1615.52
2916.6
5047.75
8426.36
13907.2
23462.4
1053.61
2134.89
4115.22
7725.4
14687.2
29106.7
709.075
1637.63
3617.6
7937.55
17832.8
40756.5
525.744
1414.38
3680.03
9482.57
24033.4
58307.4
477.832
1471.06
4321.36
12062
31545.7
76126.1
527.515
1744.19
5335.22
14992.5
38500.5
89887.7
665.931
2180.61
6469.89
17398.6
42569.8
94476
878.387
2692.38
7447.19
18684.6
42889.7
90283
1156.63
3233.05
8200.32
18960.4
40325.9
79433.9
1483.15
3719.46
8538.77
18029.4
35345.9
65589.8
1917.49
4278.57
8831.93
16980.6
30843
53955.9
2559.71
5089.06
9485.54
16726.7
28505.5
47750.9
3620.12
6453.27
11015.9
18267.9
30198
50430
5366.93
8673.35
13766
21914.4
36078.3
62024
5156.88
9021.88
15027.5
24985.2
43195.3
79400.4
3887.48
7248.46
13164.6
24840.9
49712
102258
2931.4
5971.41
12229.7
26576.4
59998.5
133449
2226.62
5061.56
11896.8
29191.6
71098.2
163828
1743.89
4473.4
11836.1
31171.1
78842.7
185777
1433.17
4077.14
11564.2
31298
79416.9
186687
1250.4
3772.8
10896.9
29166.5
72476.5
167368
1154.54
3517.25
9984.35
25812.3
61605.7
140117
1143.47
3351.17
9063.52
22558.2
51716.8
114630
1239.76
3352.53
8476.27
20071
43660.4
91510.7
1449.75
3515.46
8213.41
18183.6
36769.7
72535
1806.62
3904.73
8288.06
16857.1
31642.7
59838.9
2389.33
4623.57
8888.19
16404.1
29511.1
56615
3285.98
5826.57
10217.8
17443.1
30955.8
60962.3
481.986
1639.22
4745.71
11812.3
25780.4
55215.6
565.794
1663.27
4280.2
9775.51
20147.8
40913.1
624.629
1594.38
3792.1
8189.76
16271.2
32621.9
653.433
1450.66
3378.27
7224.02
14452.3
30475.1
2190.78
4345.44
9523.68
17999.2
33427.1
67947.9
1314.97
3278.12
7950.32
16167.9
33509.2
76839.5
889.961
2632.04
6508.05
14244
33377
86991.6
644.248
1996.88
5054.35
12323.4
33079.4
94818.6
474.596
1484.79
3979
10890.5
32237.8
99321.3
344.974
1111.19
3257.94
10089.4
31914.4
100655
251.645
870.848
2874.68
9681.25
31019.8
94425.9
194.286
742.723
2714.29
9390.92
29105
82795.5
173.774
715.536
2704.82
9101.81
26319.5
68872.7
188.247
765.493
2756.29
8574.33
22617.5
53984.4
234.222
862.913
2783.57
7766.81
18608.9
40815.5
303.798
970.692
2740.27
6827.53
15029.8
31050.4
375.364
1035.91
2627.26
5993.38
12378.7
24960.8
398.271
971.022
2392.86
5332.41
10881.4
22626.8
47600.2
168577
677576
776194
521992
59016.7
235474
819127
725683
485318
77848.9
301351
873727
688231
489223
98387.8
355531
896598
693609
514190
116937
396927
884975
696754
526896
126759
406751
822251
675372
519392
125081
372461
716222
636811
517231
114480
313688
611395
624931
543948
680036
96793.9
247016
499844
616341
571241
735702
74660.3
180725
375219
570651
570134
752691
53989
124123
269974
498849
517254
723913
1.11685e+06
39594.4
86296.7
203250
441439
437322
624320
1.29098e+06
1.53359e+06
32587.2
71751.5
186893
429397
388947
460076
1.22302e+06
3.92146e+06
32890.7
83036.1
233113
470070
402051
404816
584869
2.28228e+06
40909.6
122445
341519
514727
419500
425648
576693
2.60525e+06
58958.5
185937
458825
502663
405184
455668
642757
2.19694e+06
90148.5
266659
542714
477843
407756
506376
686416
2.77779e+06
130144
345795
590388
471716
433346
570730
664650
1.06524e+06
163876
393649
590869
472760
453610
619221
693224
664889
183634
401639
561151
479199
468926
667375
753930
556267
182109
365868
517901
499828
502978
737419
868916
872998
166440
315734
489893
549683
551964
821803
1.03964e+06
602525
139074
258758
454499
597945
602133
911096
108742
206157
420343
618656
613775
971759
85231.1
170415
412037
611046
564096
960677
75105.2
166995
454957
598333
489813
807156
82015.2
209401
560684
566808
434228
614184
106959
304174
701997
525407
416835
148659
432054
771938
472320
406375
205485
558201
737631
425497
398302
276633
682401
696653
416258
419717
336306
751693
666534
439913
460230
373865
739387
631402
473021
494097
368080
645480
591707
511895
515899
324942
522674
563359
570034
556408
264092
415049
555643
656584
600935
203580
320727
548094
745935
638285
154833
247170
554134
796475
627407
122247
205727
605155
789100
572294
103088
210558
726391
750912
512126
100226
272356
918875
705916
487140
115987
402276
1.09988e+06
671193
488382
147462
563069
1.10941e+06
639386
477850
187376
700676
1.00774e+06
600096
466839
234924
831872
950197
585720
481479
270054
896748
930736
604959
511210
299455
867438
892727
622789
531441
305154
750604
823872
630095
536209
276086
588129
721031
632096
551619
225390
438825
616687
662534
584369
170775
315033
502285
698372
611432
122562
216121
381414
691245
604018
86245.8
145929
291111
646567
552590
62232.9
105370
260544
618310
501336
48391.8
92747.5
316258
649895
498873
43638.8
112049
473364
736660
528394
144.701
39.9731
14.13
7.34818
5.10076
4.34975
4.31066
4.63557
5.70564
8.69078
17.7598
48.0538
144.533
411.541
73.5081
13.5228
2.38499
0.773843
0.503315
0.440696
0.449741
0.498521
0.715633
1.7495
6.36536
24.5933
85.6884
256.988
40.8141
6.57259
0.840761
0.117404
0.0354098
0.0258695
0.0282773
0.0467122
0.159452
0.7611
3.5093
14.3039
50.652
155.703
28.9377
5.16179
0.810361
0.116216
0.0146894
0.00210149
0.00225461
0.0125971
0.0770727
0.419841
1.99207
8.25048
30.0118
96.8297
25.6391
5.17381
0.934713
0.146151
0.0180375
0.00185678
0.0011106
0.00698104
0.0447003
0.25102
1.23093
5.296
20.2072
69.5623
27.747
5.94671
1.09151
0.164355
0.0192173
0.00234306
0.00149185
0.00572022
0.0331252
0.186243
0.936697
4.18216
16.7247
60.9924
35.636
7.63752
1.3288
0.187358
0.024322
0.00799778
0.00816999
0.0133348
0.0417392
0.197117
0.966389
4.36836
17.9168
67.3292
49.4884
10.1708
1.66419
0.242975
0.0595246
0.0489068
0.0571423
0.0733647
0.125332
0.361401
1.46519
6.22637
24.8398
91.0823
69.757
13.9652
2.4038
0.5087
0.267316
0.280936
0.335932
0.420699
0.592092
1.12545
3.22027
11.4934
41.673
141.306
100.708
22.134
5.209
1.87793
1.31025
1.37839
1.64244
2.07154
2.7941
4.37972
9.117
25.197
77.8364
233.638
160.045
47.3563
17.0945
8.28282
5.92572
5.87957
6.85034
8.66799
11.6074
16.8571
28.6669
61.475
155.597
403.93
305.188
128.47
61.5123
34.1125
24.0508
22.3016
24.9885
31.2901
41.697
58.6319
89.1678
156.778
322.383
711.869
651.177
351.221
198.745
121.649
86.7768
76.7065
81.9979
99.8344
130.906
180.16
258.032
397.785
681.484
1277.03
1370
859.769
548.229
370.755
277.17
242.398
249.068
290.481
367.646
491.148
676.425
960.85
1424.44
2269.42
35.9012
10.971
5.32529
3.12876
1.9778
1.45962
1.26401
1.15891
1.17081
1.47374
2.94601
9.25347
33.824
116.001
16.1597
2.85141
0.656089
0.281603
0.166671
0.125468
0.11396
0.108074
0.122028
0.256957
1.06935
5.04341
21.2087
75.8705
9.93695
1.64061
0.237339
0.038209
0.0101079
0.00596892
0.00570442
0.00713081
0.0209793
0.117523
0.668845
3.3037
13.9014
49.874
9.65847
1.83061
0.301362
0.0446343
0.00561877
0.000609141
0.000234713
0.00132276
0.0104143
0.0716929
0.418356
2.07581
8.81942
32.4045
11.091
2.25561
0.394411
0.0598824
0.00731463
0.0006844
0.000134936
0.000781753
0.00638267
0.0446553
0.265352
1.34709
5.89546
22.5435
13.9969
2.88696
0.492285
0.0700781
0.00798558
0.000842863
0.000303142
0.000750261
0.00461732
0.0312566
0.187326
0.970968
4.38499
17.5431
19.4612
3.93649
0.628791
0.0822321
0.00970002
0.00253696
0.00235766
0.00295514
0.00621768
0.027406
0.152374
0.796237
3.72268
15.6956
28.195
5.45829
0.804432
0.102125
0.0201156
0.0155517
0.0183991
0.0216915
0.0280151
0.053159
0.187598
0.878184
4.09147
17.6394
41.0339
7.60433
1.08657
0.175129
0.0835711
0.0941351
0.116316
0.140426
0.173395
0.238894
0.47325
1.53978
6.30566
25.7017
60.2433
11.0435
1.85186
0.535155
0.413397
0.487581
0.607281
0.752493
0.94646
1.23522
1.8722
4.05697
12.6741
44.3517
90.6475
18.89
4.89895
2.26333
1.9149
2.18163
2.69415
3.39438
4.35754
5.69215
7.88323
13.2402
30.7535
87.2043
151.075
43.5787
17.1902
9.64294
8.00209
8.62789
10.4117
13.1539
17.0681
22.4745
30.2342
44.5217
81.4506
184.742
287.41
118.8
59.7087
36.9716
30.1584
30.8724
35.9804
44.8155
57.9113
76.3895
101.881
141.199
219.593
405.181
604.067
317.78
184.166
124.468
102.768
102.099
114.633
138.465
174.782
227.351
300.54
405.044
569.089
877.17
7.96745
2.54522
1.29243
0.764592
0.463346
0.296126
0.231215
0.191623
0.170404
0.170111
0.290983
1.03125
4.66729
19.918
3.39196
0.571724
0.129602
0.0567763
0.0325468
0.0212429
0.0177635
0.0153925
0.014692
0.0234995
0.103645
0.603104
3.12535
13.6339
2.66097
0.446242
0.0648269
0.00947638
0.00190468
0.000770122
0.000648177
0.0006767
0.00155388
0.00973026
0.0694212
0.426286
2.19418
9.48653
3.25318
0.613161
0.100979
0.014372
0.00180399
0.000182218
2.08248e-05
7.04192e-05
0.000736764
0.00658419
0.0486178
0.298089
1.5279
6.60825
4.28794
0.836225
0.143033
0.0202383
0.00243435
0.000232184
2.19152e-05
4.87438e-05
0.000503974
0.00451981
0.033539
0.207019
1.0715
4.69964
5.90679
1.13777
0.188832
0.0248918
0.00274551
0.000268697
5.7297e-05
7.4949e-05
0.000395429
0.00322889
0.0238434
0.148387
0.779172
3.48964
8.65913
1.63286
0.254595
0.0306342
0.00323214
0.000594162
0.000463968
0.000522126
0.0007874
0.00289862
0.0182617
0.112082
0.597447
2.75705
12.8446
2.3633
0.336992
0.0377519
0.00535197
0.00326161
0.00385805
0.00444391
0.00509886
0.00714532
0.0200316
0.0984842
0.516632
2.47243
18.7135
3.38152
0.447296
0.0543228
0.0184575
0.0207351
0.0263497
0.0313467
0.0362895
0.0425782
0.0615288
0.15829
0.66836
3.09774
26.7194
4.7875
0.647381
0.124369
0.090939
0.115767
0.149334
0.1826
0.217984
0.257374
0.32027
0.520794
1.43955
5.5222
37.538
7.15313
1.2855
0.471049
0.442399
0.557755
0.718446
0.896034
1.09823
1.33036
1.63071
2.25191
4.45524
13.0247
56.6127
13.9263
4.00137
2.09006
1.96059
2.35665
2.99178
3.76715
4.70015
5.82627
7.21712
9.42529
15.1928
34.4363
100.289
36.3201
14.7645
8.85964
7.92136
8.93829
11.0097
13.8018
17.3358
21.8353
27.4847
35.3782
50.5583
92.1787
217.198
104.78
52.3206
34.1276
29.5604
31.3066
36.7988
45.0455
56.0403
70.8614
90.3383
116.639
156.642
239.691
1.84452
0.453175
0.177554
0.0994367
0.0586089
0.0387039
0.0306096
0.0254914
0.0215455
0.0178197
0.0210216
0.0687284
0.369059
1.92226
0.897395
0.140334
0.0210778
0.00616558
0.00306118
0.00209059
0.00183269
0.0016549
0.00149942
0.00168914
0.00613447
0.0421648
0.266881
1.41231
0.79207
0.140643
0.0195526
0.0025863
0.000333873
6.33156e-05
3.85807e-05
4.14307e-05
7.74903e-05
0.000484016
0.00426123
0.0324397
0.20398
1.06355
1.01309
0.202372
0.0317649
0.0044473
0.000530397
5.47492e-05
4.83276e-06
2.84955e-06
3.03079e-05
0.000346213
0.00324364
0.0247481
0.154977
0.804299
1.36307
0.282059
0.0456798
0.00627299
0.000711534
6.94038e-05
5.74894e-06
2.22463e-06
2.20856e-05
0.000254682
0.00240026
0.01841
0.115951
0.6059
1.86322
0.384493
0.0607588
0.00772038
0.000793574
7.57194e-05
1.18532e-05
8.77465e-06
2.33264e-05
0.000194638
0.00178609
0.0137439
0.0872591
0.460761
2.65647
0.539723
0.0816994
0.0093976
0.000888451
0.000129527
8.3209e-05
8.93384e-05
0.000103671
0.000231152
0.0014204
0.0104129
0.0662714
0.354675
3.78676
0.747701
0.107017
0.0112551
0.00124893
0.00060641
0.000707646
0.000813179
0.000885981
0.00101326
0.00193966
0.00889412
0.0526837
0.28466
5.2641
1.01011
0.138014
0.0146026
0.00358214
0.00393679
0.0050869
0.0060319
0.00675187
0.00734597
0.00861844
0.0158908
0.0607225
0.302642
7.19412
1.3511
0.185132
0.0269965
0.0172114
0.023204
0.0305299
0.0371061
0.0428131
0.0477468
0.0532572
0.068084
0.143062
0.526896
9.63078
1.85581
0.302303
0.0874424
0.0864422
0.118053
0.15554
0.192772
0.228304
0.262071
0.296814
0.353813
0.555227
1.46514
13.7616
3.2163
0.796379
0.382269
0.397802
0.522829
0.68276
0.85722
1.03618
1.22061
1.41612
1.67704
2.30677
4.7395
23.6303
7.96496
2.89848
1.70508
1.66869
2.0544
2.62217
3.30345
4.04793
4.87302
5.79927
6.95931
8.95952
15.1701
53.7381
24.1547
11.1217
7.16313
6.50831
7.35403
8.97984
11.1738
13.7445
16.8111
20.4867
25.1232
31.5159
46.1895
0.32176
0.0661851
0.0188084
0.00882841
0.00512586
0.00354712
0.00311409
0.00281988
0.00246095
0.00194183
0.0016599
0.00406405
0.0246513
0.153845
0.160447
0.027128
0.00392704
0.000587478
0.000172809
0.000116741
0.000126719
0.000138095
0.000139658
0.000137536
0.000331733
0.0024751
0.0188291
0.119172
0.16248
0.0325959
0.00552443
0.000762865
9.53285e-05
1.10736e-05
2.95393e-06
3.36683e-06
5.44701e-06
2.23126e-05
0.000215391
0.00200214
0.0152616
0.0952524
0.223308
0.0486523
0.00890695
0.0013103
0.000165068
1.68504e-05
1.52661e-06
3.06689e-07
1.14729e-06
1.41049e-05
0.000165505
0.00156938
0.0120224
0.0752412
0.312978
0.0694258
0.0128312
0.00187265
0.000226075
2.16157e-05
1.81639e-06
2.31594e-07
7.69186e-07
1.05211e-05
0.000126254
0.00121189
0.00938487
0.059349
0.436173
0.0954463
0.0170623
0.00234668
0.000260291
2.32876e-05
2.69154e-06
1.19618e-06
1.53788e-06
8.71145e-06
9.59088e-05
0.000925977
0.00726565
0.0465861
0.620618
0.132586
0.0225937
0.00287786
0.000292219
3.09758e-05
1.27497e-05
1.23842e-05
1.26993e-05
1.76299e-05
8.29037e-05
0.000715577
0.00561105
0.0364257
0.874231
0.18074
0.0291875
0.00345671
0.000361663
0.000100671
0.000102531
0.000113565
0.000118247
0.000121935
0.000168928
0.000647996
0.00440755
0.0284393
1.19349
0.238557
0.0367677
0.0042517
0.000725841
0.000603462
0.000751505
0.000862728
0.000927287
0.000961737
0.00101637
0.00146591
0.00493265
0.027246
1.60434
0.312359
0.0475408
0.00652185
0.00285121
0.00362839
0.00467824
0.00550389
0.00609703
0.00651299
0.00684719
0.00771037
0.0127791
0.0440102
2.10231
0.412934
0.0695339
0.0161563
0.013864
0.0191691
0.0249215
0.0299394
0.0340664
0.0374514
0.0403121
0.0442895
0.05794
0.133307
2.9248
0.6592
0.152187
0.0618263
0.0644171
0.0883468
0.114904
0.140441
0.163471
0.184431
0.203812
0.22645
0.273997
0.497314
4.88909
1.50661
0.498997
0.26566
0.272794
0.359018
0.46353
0.573697
0.680323
0.785652
0.891552
1.01229
1.18819
1.82378
11.1666
4.5203
1.88274
1.11627
1.06422
1.30823
1.65405
2.0565
2.47214
2.91447
3.3946
3.96115
4.63777
6.33918
0.0574944
0.0107638
0.00231813
0.000853465
0.000490115
0.000384204
0.000392232
0.000398408
0.000376332
0.000305674
0.000224589
0.000378249
0.00230638
0.0160325
0.0306047
0.00552497
0.000860423
0.000122746
2.3567e-05
1.35394e-05
1.6871e-05
2.14453e-05
2.43588e-05
2.38316e-05
3.51878e-05
0.000221442
0.00184836
0.0129971
0.0345046
0.00736299
0.00135554
0.000211161
2.76978e-05
3.33751e-06
8.60241e-07
9.58581e-07
1.34329e-06
2.57651e-06
1.76562e-05
0.000179732
0.00154263
0.010774
0.0499761
0.0113649
0.00221977
0.000362057
4.78886e-05
5.15049e-06
4.92574e-07
9.73217e-08
1.40617e-07
1.02462e-06
1.29735e-05
0.000141082
0.00122871
0.00867782
0.0713186
0.0163361
0.00319142
0.000513391
6.55555e-05
6.65655e-06
5.80279e-07
6.80476e-08
6.96254e-08
7.17935e-07
9.79026e-06
0.000108765
0.000964742
0.00693566
0.0993511
0.022265
0.00418594
0.000636225
7.54704e-05
7.14261e-06
7.09429e-07
2.09467e-07
1.94785e-07
6.53041e-07
7.40735e-06
8.27495e-05
0.000748646
0.00549333
0.139884
0.0304011
0.00542734
0.00076697
8.3513e-05
8.2339e-06
2.17188e-06
1.84711e-06
1.80916e-06
2.04085e-06
7.00002e-06
6.44417e-05
0.00058144
0.00433064
0.194915
0.0408458
0.00690086
0.000909509
9.68906e-05
1.86047e-05
1.56326e-05
1.68495e-05
1.71312e-05
1.68567e-05
1.97875e-05
6.27495e-05
0.000459047
0.00337126
0.262552
0.0530565
0.00853676
0.00108259
0.00015505
9.61356e-05
0.000115791
0.000130781
0.000137312
0.000138069
0.000138233
0.000174129
0.000522209
0.00309516
0.347263
0.0679837
0.0106626
0.00148331
0.000494728
0.000581772
0.000745368
0.000862443
0.000931948
0.000966119
0.000976752
0.00103193
0.00148421
0.00477217
0.444119
0.0864214
0.0143574
0.00302961
0.00230686
0.00319199
0.00414157
0.00488793
0.0054195
0.00577896
0.00598997
0.00628537
0.0074228
0.0151984
0.592738
0.126951
0.0271434
0.0102994
0.0109167
0.0153947
0.0200269
0.0240307
0.027234
0.0297703
0.0316612
0.0337823
0.0378995
0.0621879
0.944474
0.265673
0.0809031
0.0427891
0.0473526
0.0654268
0.0849338
0.103337
0.119353
0.133452
0.145601
0.158997
0.175801
0.249494
2.11208
0.774817
0.299223
0.178485
0.187409
0.247478
0.318145
0.39056
0.457966
0.522649
0.585028
0.656362
0.731522
0.942577
0.00969996
0.00182743
0.000385091
0.000130296
7.50066e-05
6.45059e-05
7.11088e-05
7.66815e-05
7.60842e-05
6.37202e-05
4.36587e-05
4.318e-05
0.000200967
0.00148612
0.0055263
0.00104914
0.000175458
2.70136e-05
5.10968e-06
2.82684e-06
3.69442e-06
4.95956e-06
5.89398e-06
5.76332e-06
5.45782e-06
1.91395e-05
0.000162689
0.00125205
0.00688858
0.00152429
0.000294716
4.91698e-05
6.95951e-06
9.05055e-07
2.52163e-07
2.83988e-07
3.85464e-07
4.96426e-07
1.55087e-06
1.48566e-05
0.000139776
0.00107418
0.0103771
0.00241513
0.000489233
8.43602e-05
1.19785e-05
1.38636e-06
1.4866e-07
3.98365e-08
4.14973e-08
1.02479e-07
9.85768e-07
1.16539e-05
0.00011273
0.000881847
0.014979
0.00349033
0.000702933
0.000119054
1.63405e-05
1.79257e-06
1.72221e-07
2.99799e-08
2.20742e-08
6.42793e-08
7.38292e-07
9.03109e-06
8.94131e-05
0.000716078
0.0207534
0.00470326
0.000907831
0.00014538
1.86494e-05
1.91017e-06
1.89983e-07
4.89966e-08
3.9307e-08
6.70742e-08
5.6585e-07
6.87999e-06
6.97689e-05
0.000573665
0.0287593
0.00628132
0.00114659
0.000170897
2.01995e-05
2.03615e-06
3.87673e-07
2.74027e-07
2.57607e-07
2.56483e-07
6.08378e-07
5.42038e-06
5.44835e-05
0.000456046
0.0393406
0.00824852
0.00142124
0.000197619
2.23905e-05
3.48343e-06
2.29598e-06
2.36645e-06
2.34459e-06
2.21281e-06
2.30206e-06
5.79999e-06
4.3274e-05
0.000354647
0.0520543
0.0105026
0.00172119
0.000228789
3.11716e-05
1.48167e-05
1.68623e-05
1.85959e-05
1.90247e-05
1.84719e-05
1.76302e-05
1.97758e-05
5.10051e-05
0.000316203
0.0676456
0.013187
0.00209393
0.000294006
8.28709e-05
8.8134e-05
0.000111136
0.000125765
0.000132238
0.000132449
0.000128702
0.000128133
0.000161176
0.000470417
0.0848502
0.0163005
0.00267313
0.000529419
0.000364955
0.000495884
0.00063745
0.000735635
0.000792788
0.000816811
0.000814157
0.00081397
0.000874941
0.00156597
0.109106
0.0224216
0.00451593
0.00162982
0.00174377
0.00247657
0.00319767
0.00375074
0.00412819
0.00435856
0.0044535
0.00454055
0.00473621
0.00693534
0.165003
0.0429434
0.0121982
0.00655602
0.00772776
0.0109294
0.0141165
0.0167969
0.0188388
0.0203369
0.0212878
0.0222175
0.0231244
0.0300191
0.357635
0.120145
0.0436846
0.0270693
0.0311063
0.0428659
0.0551442
0.0663199
0.0755441
0.0831859
0.0892046
0.0955188
0.100883
0.121351
0.00142489
0.000272427
5.86767e-05
2.00424e-05
1.24449e-05
1.18918e-05
1.39858e-05
1.57881e-05
1.62548e-05
1.40129e-05
9.49032e-06
6.45368e-06
1.68391e-05
0.00012449
0.000888375
0.00017577
3.10793e-05
5.11938e-06
1.04696e-06
6.26321e-07
8.46339e-07
1.16383e-06
1.41341e-06
1.40213e-06
1.11859e-06
1.79811e-06
1.30916e-05
0.000108669
0.00122537
0.000277814
5.54385e-05
9.65493e-06
1.45287e-06
2.13368e-07
7.51437e-08
8.60451e-08
1.12667e-07
1.28255e-07
1.84131e-07
1.15837e-06
1.14898e-05
9.64936e-05
0.00191699
0.000452704
9.37551e-05
1.67107e-05
2.4989e-06
3.16635e-07
4.71456e-08
2.25432e-08
2.26879e-08
2.72819e-08
8.6278e-08
8.89238e-07
9.35716e-06
8.06706e-05
0.00279972
0.00065871
0.000135034
2.35805e-05
3.40689e-06
4.07534e-07
5.2463e-08
1.97133e-08
1.74293e-08
1.99155e-08
6.5333e-08
6.9194e-07
7.475e-06
6.64011e-05
0.00385393
0.000877463
0.000171991
2.84549e-05
3.86151e-06
4.32746e-07
5.45518e-08
2.1743e-08
1.92263e-08
2.05668e-08
5.37239e-08
5.28433e-07
5.83692e-06
5.35669e-05
0.00524792
0.00114574
0.000211961
3.27296e-05
4.11156e-06
4.41198e-07
7.58672e-08
4.73593e-08
4.36887e-08
4.141e-08
6.28332e-08
4.22214e-07
4.56354e-06
4.27814e-05
0.00703434
0.00146926
0.000256272
3.69746e-05
4.40507e-06
6.05602e-07
3.0159e-07
2.91671e-07
2.81244e-07
2.56083e-07
2.44386e-07
4.91719e-07
3.624e-06
3.31018e-05
0.00912456
0.00183104
0.000303567
4.16916e-05
5.51108e-06
1.99708e-06
2.08412e-06
2.23705e-06
2.22582e-06
2.08008e-06
1.89542e-06
1.94736e-06
4.40161e-06
2.8692e-05
0.0116158
0.0022488
0.000359739
5.07177e-05
1.21715e-05
1.13506e-05
1.40058e-05
1.54897e-05
1.58217e-05
1.52515e-05
1.42205e-05
1.34717e-05
1.52703e-05
4.10018e-05
0.0142386
0.00269766
0.000436891
8.12227e-05
4.95292e-05
6.52993e-05
8.30307e-05
9.3647e-05
9.79491e-05
9.71939e-05
9.30884e-05
8.91527e-05
8.89238e-05
0.000141154
0.0175866
0.00347649
0.000662338
0.000224796
0.000238569
0.000338161
0.000432699
0.000495758
0.000529221
0.000538518
0.000528799
0.000517084
0.000507066
0.000669859
0.0248715
0.00600235
0.00159674
0.00087575
0.00108682
0.00155401
0.00199116
0.00231374
0.00251673
0.00261994
0.00263352
0.00263361
0.00259485
0.00310095
0.0509521
0.0157333
0.00546118
0.00360167
0.00449595
0.00635465
0.00812977
0.00955184
0.0105527
0.0111994
0.0115122
0.0117823
0.0118229
0.0133094
0.000183672
3.57534e-05
8.01577e-06
2.92318e-06
2.05968e-06
2.18765e-06
2.70328e-06
3.15544e-06
3.33279e-06
2.94021e-06
2.01237e-06
1.16857e-06
1.48724e-06
9.56575e-06
0.000127904
2.62074e-05
4.84381e-06
8.5223e-07
2.02869e-07
1.41638e-07
1.93032e-07
2.64317e-07
3.21721e-07
3.22928e-07
2.5017e-07
2.23931e-07
9.94659e-07
8.57078e-06
0.000194309
4.47663e-05
9.11938e-06
1.64121e-06
2.68341e-07
5.35549e-08
2.94586e-08
3.27173e-08
3.89938e-08
4.20174e-08
4.19531e-08
1.02244e-07
8.72027e-07
7.86381e-06
0.000315058
7.50374e-05
1.57419e-05
2.8707e-06
4.55136e-07
7.19442e-08
2.25844e-08
1.79289e-08
1.80269e-08
1.85161e-08
2.19625e-08
7.62939e-08
7.16469e-07
6.68423e-06
0.000465794
0.00011001
2.27585e-05
4.05414e-06
6.17331e-07
8.91411e-08
2.3592e-08
1.72285e-08
1.67598e-08
1.68925e-08
1.9648e-08
6.22609e-08
5.7708e-07
5.56233e-06
0.000636838
0.000144944
2.86361e-05
4.84082e-06
6.94125e-07
9.38237e-08
2.38264e-08
1.7402e-08
1.68987e-08
1.69314e-08
1.89035e-08
5.08593e-08
4.51789e-07
4.50299e-06
0.000850983
0.000184931
3.44519e-05
5.44879e-06
7.26272e-07
9.32623e-08
2.5617e-08
1.98921e-08
1.92523e-08
1.88863e-08
1.99613e-08
4.38586e-08
3.55444e-07
3.60782e-06
0.00111594
0.000231342
4.06106e-05
6.01021e-06
7.55945e-07
1.0834e-07
4.8551e-08
4.4563e-08
4.26358e-08
3.92821e-08
3.67018e-08
5.18376e-08
2.84783e-07
2.78155e-06
0.00141609
0.000281631
4.6971e-05
6.60003e-06
8.72148e-07
2.56331e-07
2.37964e-07
2.47099e-07
2.39559e-07
2.17448e-07
1.91757e-07
1.8434e-07
3.54247e-07
2.35557e-06
0.00176238
0.000337792
5.42205e-05
7.66718e-06
1.61895e-06
1.29839e-06
1.55083e-06
1.67446e-06
1.66321e-06
1.54825e-06
1.3896e-06
1.26085e-06
1.30727e-06
3.23345e-06
0.00210671
0.000393401
6.30685e-05
1.11139e-05
5.95284e-06
7.53549e-06
9.44137e-06
1.04124e-05
1.05894e-05
1.01466e-05
9.35576e-06
8.60012e-06
8.03571e-06
1.14228e-05
0.00250365
0.000478755
8.71351e-05
2.76743e-05
2.86971e-05
4.03544e-05
5.10694e-05
5.72352e-05
5.94003e-05
5.83764e-05
5.51796e-05
5.17747e-05
4.79759e-05
5.76568e-05
0.00330326
0.000745474
0.000187045
0.000104349
0.000134519
0.000193003
0.000244929
0.000278364
0.000294293
0.000295898
0.000286097
0.00027419
0.00025639
0.00028351
0.00627827
0.00179829
0.000604312
0.000429807
0.0005748
0.000823837
0.00104547
0.00120117
0.00128912
0.00132011
0.00130253
0.00127412
0.00121583
0.00128265
2.10272e-05
4.20071e-06
1.01031e-06
4.20536e-07
3.45315e-07
3.9816e-07
5.04309e-07
5.98776e-07
6.40808e-07
5.74966e-07
4.01875e-07
2.2773e-07
1.66488e-07
6.94548e-07
1.66277e-05
3.50589e-06
6.78611e-07
1.36423e-07
4.68801e-08
4.03183e-08
5.10609e-08
6.52788e-08
7.67514e-08
7.73658e-08
6.26978e-08
4.70477e-08
8.75911e-08
6.28075e-07
2.75421e-05
6.3979e-06
1.32638e-06
2.53867e-07
5.43468e-08
2.25832e-08
1.91114e-08
1.99303e-08
2.12364e-08
2.1835e-08
2.1127e-08
2.35778e-08
7.47912e-08
5.94702e-07
4.61318e-05
1.1006e-05
2.32856e-06
4.40323e-07
8.30023e-08
2.52976e-08
1.76012e-08
1.68587e-08
1.68989e-08
1.69773e-08
1.71345e-08
2.03739e-08
6.40055e-08
5.15406e-07
6.8963e-05
1.62604e-05
3.37945e-06
6.18822e-07
1.08088e-07
2.80937e-08
1.77656e-08
1.67099e-08
1.66325e-08
1.66418e-08
1.67925e-08
1.93849e-08
5.45675e-08
4.3532e-07
9.36335e-05
2.12207e-05
4.20982e-06
7.31013e-07
1.19473e-07
2.88628e-08
1.78005e-08
1.67259e-08
1.66428e-08
1.66417e-08
1.67481e-08
1.86702e-08
4.58789e-08
3.55925e-07
0.000122767
2.64869e-05
4.95465e-06
8.05946e-07
1.22808e-07
2.85626e-08
1.79054e-08
1.69409e-08
1.68472e-08
1.68081e-08
1.68495e-08
1.82643e-08
3.92818e-08
2.88494e-07
0.00015744
3.23252e-05
5.69732e-06
8.68027e-07
1.24619e-07
2.957e-08
1.99268e-08
1.91331e-08
1.88741e-08
1.85153e-08
1.8201e-08
1.89859e-08
3.44828e-08
2.24784e-07
0.000195318
3.84131e-05
6.42971e-06
9.28235e-07
1.34342e-07
4.32662e-08
3.76206e-08
3.7709e-08
3.64392e-08
3.38451e-08
3.09919e-08
2.95526e-08
3.98872e-08
1.88412e-07
0.00023741
4.49637e-05
7.23014e-06
1.03455e-06
2.07266e-07
1.45541e-07
1.64906e-07
1.7316e-07
1.67765e-07
1.52233e-07
1.33253e-07
1.17857e-07
1.13762e-07
2.43193e-07
0.000276365
5.08656e-05
8.09398e-06
1.37294e-06
6.50293e-07
7.81415e-07
9.59014e-07
1.0336e-06
1.02207e-06
9.45841e-07
8.39641e-07
7.42489e-07
6.55889e-07
8.39403e-07
0.000316524
5.88308e-05
1.03232e-05
3.06439e-06
3.06611e-06
4.25918e-06
5.31834e-06
5.83111e-06
5.88238e-06
5.57801e-06
5.0696e-06
4.56422e-06
4.01252e-06
4.42034e-06
0.000389946
8.30291e-05
1.97852e-05
1.11411e-05
1.47401e-05
2.11231e-05
2.64998e-05
2.94552e-05
3.02576e-05
2.93565e-05
2.72854e-05
2.5061e-05
2.22814e-05
2.29185e-05
0.000677012
0.000182101
6.00344e-05
4.62127e-05
6.52001e-05
9.40016e-05
0.000118033
0.000132559
0.000138142
0.000136429
0.000129218
0.000120837
0.000109688
0.000108761
2.17796e-06
4.60515e-07
1.31606e-07
7.1072e-08
6.7465e-08
7.94533e-08
9.83862e-08
1.15359e-07
1.23097e-07
1.12493e-07
8.31873e-08
5.25769e-08
3.49007e-08
6.24863e-08
1.98158e-06
4.35154e-07
9.75059e-08
3.18618e-08
2.10827e-08
2.07082e-08
2.27053e-08
2.52266e-08
2.72278e-08
2.73367e-08
2.47388e-08
2.14253e-08
2.20453e-08
5.67113e-08
3.52341e-06
8.27475e-07
1.83129e-07
4.69164e-08
2.14792e-08
1.74192e-08
1.70155e-08
1.71917e-08
1.74317e-08
1.75382e-08
1.73744e-08
1.72841e-08
2.02672e-08
5.55673e-08
6.06297e-06
1.44852e-06
3.16719e-07
7.16522e-08
2.52824e-08
1.77433e-08
1.67203e-08
1.66232e-08
1.66356e-08
1.66508e-08
1.66539e-08
1.68167e-08
1.95128e-08
5.07513e-08
9.13986e-06
2.14912e-06
4.55843e-07
9.53199e-08
2.86641e-08
1.81363e-08
1.67461e-08
1.65992e-08
1.65898e-08
1.65926e-08
1.66016e-08
1.67434e-08
1.89254e-08
4.55042e-08
1.23109e-05
2.77649e-06
5.60047e-07
1.09468e-07
3.01481e-08
1.8249e-08
1.67565e-08
1.66058e-08
1.65953e-08
1.65966e-08
1.66033e-08
1.67076e-08
1.83797e-08
4.00412e-08
1.5823e-05
3.38924e-06
6.43784e-07
1.17425e-07
3.04055e-08
1.81915e-08
1.67627e-08
1.66275e-08
1.66168e-08
1.66148e-08
1.66169e-08
1.66924e-08
1.7973e-08
3.53803e-08
1.98115e-05
4.02885e-06
7.20486e-07
1.2293e-07
3.03371e-08
1.822e-08
1.69217e-08
1.68049e-08
1.67774e-08
1.6746e-08
1.67179e-08
1.67519e-08
1.76805e-08
3.08908e-08
2.39819e-05
4.66247e-06
7.90894e-07
1.27528e-07
3.08798e-08
1.93239e-08
1.83874e-08
1.83171e-08
1.81662e-08
1.79138e-08
1.76499e-08
1.74949e-08
1.805e-08
2.81016e-08