/*--------------------------------*- C++ -*----------------------------------*\
| =========                 |                                                 |
| \\      /  F ield         | OpenFOAM: The Open Source CFD Toolbox           |
|  \\    /   O peration     | Version:  v2106                                 |
|   \\  /    A nd           | Website:  www.openfoam.com                      |
|    \\/     M anipulation  |                                                 |
\*---------------------------------------------------------------------------*/
FoamFile
{
    version     2.0;
    format      ascii;
    arch        "LSB;label=32;scalar=64";
    class       volScalarField;
    location    "0.000172";
    object      nut;
}
// * * * * * * * * * * * * * * * * * * * * * * * * * * * * * * * * * * * * * //

dimensions      [0 2 -1 0 0 0 0];

internalField   nonuniform List<scalar> 
18109
(
1.86953e-07
7.31552e-08
3.94491e-08
2.90654e-08
2.66219e-08
2.71228e-08
2.95689e-08
1.04999e-07
2.65222e-08
8.32991e-09
5.124e-09
4.76927e-09
4.99271e-09
5.51697e-09
6.83445e-08
1.3847e-08
2.45995e-09
7.79584e-10
6.02001e-10
6.2908e-10
7.1058e-10
5.44844e-08
1.15477e-08
2.07181e-09
3.56665e-10
8.70976e-11
5.60086e-11
6.99473e-11
4.91281e-08
1.13996e-08
2.29063e-09
3.89868e-10
5.65919e-11
1.00237e-11
1.4145e-11
4.95778e-08
1.193e-08
2.42536e-09
3.99442e-10
5.35171e-11
8.54175e-12
1.20076e-11
5.64193e-08
1.35117e-08
2.62239e-09
4.09325e-10
6.21866e-11
2.24697e-11
2.93746e-11
6.93743e-08
1.59861e-08
2.9556e-09
5.01671e-10
1.5427e-10
1.28318e-10
1.50337e-10
1.06049e-07
3.56623e-08
1.61784e-08
1.04763e-08
8.76709e-09
8.43151e-09
8.7871e-09
9.46616e-09
1.08708e-08
1.39646e-08
2.24584e-08
4.94206e-08
1.29979e-07
3.35775e-07
5.68644e-08
1.25944e-08
3.03455e-09
1.44414e-09
1.21288e-09
1.21963e-09
1.32148e-09
1.46039e-09
1.79934e-09
3.07866e-09
8.24275e-09
2.70142e-08
8.45711e-08
2.31421e-07
3.60638e-08
7.13771e-09
1.16808e-09
2.38713e-10
1.21193e-10
1.15549e-10
1.31426e-10
1.70911e-10
3.48142e-10
1.18968e-09
4.6934e-09
1.72616e-08
5.58355e-08
1.56861e-07
3.04606e-08
6.77305e-09
1.26501e-09
2.0425e-10
3.14518e-11
9.19812e-12
1.0793e-11
3.19034e-11
1.47463e-10
7.02379e-10
3.0118e-09
1.13627e-08
3.75721e-08
1.08956e-07
2.97935e-08
7.08621e-09
1.42597e-09
2.38583e-10
3.16197e-11
3.74864e-12
3.01019e-12
1.70739e-11
9.75608e-11
4.9184e-10
2.16773e-09
8.36174e-09
2.8309e-08
8.44931e-08
3.20993e-08
7.67238e-09
1.52779e-09
2.45171e-10
3.05669e-11
3.94603e-12
3.21583e-12
1.53839e-11
8.53771e-11
4.29077e-10
1.8932e-09
7.31873e-09
2.49373e-08
7.56189e-08
3.83151e-08
8.94895e-09
1.68277e-09
2.54232e-10
3.56427e-11
1.16006e-11
1.17833e-11
2.58455e-11
1.04018e-10
4.7906e-10
2.04826e-09
7.78773e-09
2.63231e-08
8.00745e-08
4.84449e-08
1.07678e-08
1.90773e-09
3.05525e-10
8.60703e-11
6.91301e-11
7.43192e-11
9.80097e-11
2.10523e-10
7.17673e-10
2.76189e-09
1.00515e-08
3.31293e-08
9.87365e-08
6.15129e-08
1.31518e-08
2.45163e-09
6.03409e-10
3.78187e-10
3.90629e-10
4.2735e-10
5.01108e-10
7.28425e-10
1.58222e-09
4.74978e-09
1.54708e-08
4.78504e-08
1.3516e-07
7.88802e-08
1.80857e-08
4.65182e-09
2.04687e-09
1.72699e-09
1.85037e-09
2.05395e-09
2.38812e-09
3.06691e-09
4.87383e-09
1.0499e-08
2.78572e-08
7.64851e-08
1.97304e-07
1.11117e-07
3.39725e-08
1.35959e-08
8.01483e-09
6.99714e-09
7.40839e-09
8.30545e-09
9.76125e-09
1.21747e-08
1.68371e-08
2.79401e-08
5.75733e-08
1.33152e-07
3.05047e-07
1.92613e-07
8.40587e-08
4.41166e-08
2.89238e-08
2.47038e-08
2.54382e-08
2.85956e-08
3.39552e-08
4.21728e-08
5.52802e-08
7.91256e-08
1.31126e-07
2.49265e-07
4.95832e-07
3.83944e-07
2.1235e-07
1.29195e-07
9.00618e-08
7.57271e-08
7.57428e-08
8.47465e-08
1.01162e-07
1.25717e-07
1.61484e-07
2.15413e-07
3.09055e-07
4.9064e-07
8.41006e-07
7.54009e-07
4.79099e-07
3.22008e-07
2.39137e-07
2.0304e-07
1.99156e-07
2.19633e-07
2.60479e-07
3.2226e-07
4.10039e-07
5.31078e-07
7.03319e-07
9.70681e-07
1.43606e-06
3.63914e-07
8.00859e-07
1.70234e-06
3.2329e-06
5.52099e-06
8.72945e-06
2.08417e-07
4.99538e-07
1.16088e-06
2.36859e-06
4.25078e-06
6.88756e-06
1.15409e-07
3.64095e-07
9.73551e-07
2.13093e-06
3.93731e-06
6.46239e-06
7.60142e-08
2.79807e-07
8.04789e-07
1.83988e-06
3.51697e-06
6.19265e-06
5.41828e-08
2.14726e-07
6.51826e-07
1.56726e-06
3.20327e-06
6.3212e-06
4.43982e-08
1.79888e-07
5.60015e-07
1.40669e-06
3.11126e-06
6.77658e-06
4.11641e-08
1.64552e-07
5.13751e-07
1.34184e-06
3.19953e-06
7.41965e-06
4.16506e-08
1.62774e-07
5.08979e-07
1.37228e-06
3.40968e-06
8.03676e-06
4.45517e-08
1.7074e-07
5.34184e-07
1.45937e-06
3.64218e-06
8.43099e-06
5.15123e-08
1.92428e-07
5.94084e-07
1.60207e-06
3.88095e-06
8.54652e-06
6.47426e-08
2.32334e-07
6.89675e-07
1.77111e-06
4.03256e-06
8.25146e-06
8.8909e-08
2.98205e-07
8.27008e-07
1.96936e-06
4.12732e-06
7.73898e-06
1.36051e-07
4.10972e-07
1.03125e-06
2.22784e-06
4.24626e-06
7.25087e-06
2.28222e-07
6.00067e-07
1.33796e-06
2.59627e-06
4.48028e-06
6.96136e-06
4.08979e-07
8.92994e-07
1.74262e-06
3.03711e-06
4.78178e-06
6.8663e-06
7.73771e-07
1.3436e-06
2.19819e-06
3.36448e-06
4.84767e-06
6.6913e-06
5.44313e-07
1.04086e-06
1.83013e-06
2.96028e-06
4.50156e-06
6.71298e-06
3.82677e-07
8.00603e-07
1.51248e-06
2.63013e-06
4.40768e-06
7.47214e-06
2.77371e-07
6.32578e-07
1.30667e-06
2.53861e-06
4.83466e-06
9.16037e-06
2.23908e-07
5.54435e-07
1.26244e-06
2.72464e-06
5.66303e-06
1.12586e-05
2.06948e-07
5.49742e-07
1.34945e-06
3.09842e-06
6.66453e-06
1.32797e-05
2.22536e-07
6.10437e-07
1.53317e-06
3.54526e-06
7.54991e-06
1.46184e-05
2.68707e-07
7.22466e-07
1.76703e-06
3.9515e-06
8.09601e-06
1.5052e-05
3.47694e-07
8.82752e-07
2.04123e-06
4.31136e-06
8.33994e-06
1.46787e-05
4.66904e-07
1.08992e-06
2.33128e-06
4.58074e-06
8.2883e-06
1.37882e-05
6.54244e-07
1.3817e-06
2.69679e-06
4.88426e-06
8.23238e-06
1.28779e-05
9.5623e-07
1.81863e-06
3.23067e-06
5.37877e-06
8.39998e-06
1.23136e-05
1.46175e-06
2.49709e-06
4.04049e-06
6.18962e-06
8.99505e-06
1.24254e-05
2.2918e-06
3.50857e-06
5.14468e-06
7.22058e-06
9.79487e-06
1.30356e-05
2.30423e-06
3.7174e-06
5.47283e-06
7.53805e-06
1.00981e-05
1.38751e-05
1.86119e-06
3.131e-06
4.76506e-06
6.87788e-06
1.00201e-05
1.53903e-05
1.47483e-06
2.59571e-06
4.13992e-06
6.4535e-06
1.05279e-05
1.80746e-05
1.15377e-06
2.13134e-06
3.64792e-06
6.32558e-06
1.15226e-05
2.12491e-05
9.04245e-07
1.77159e-06
3.31899e-06
6.36448e-06
1.25337e-05
2.40909e-05
7.2116e-07
1.50908e-06
3.08125e-06
6.36485e-06
1.30663e-05
2.54437e-05
5.9354e-07
1.31998e-06
2.87163e-06
6.17573e-06
1.28563e-05
2.49459e-05
5.09711e-07
1.18595e-06
2.67682e-06
5.82215e-06
1.2048e-05
2.32535e-05
4.67899e-07
1.10887e-06
2.51785e-06
5.4651e-06
1.11593e-05
2.11171e-05
4.75547e-07
1.10728e-06
2.46589e-06
5.25144e-06
1.03758e-05
1.87682e-05
5.39363e-07
1.18592e-06
2.53062e-06
5.16848e-06
9.64947e-06
1.6548e-05
6.79507e-07
1.37689e-06
2.73512e-06
5.21652e-06
9.11266e-06
1.48413e-05
9.349e-07
1.72579e-06
3.14544e-06
5.4662e-06
9.01208e-06
1.41552e-05
1.36188e-06
2.3211e-06
3.86433e-06
6.15723e-06
9.46332e-06
1.40087e-05
2.09332e-07
6.15181e-07
1.57876e-06
3.57107e-06
7.15246e-06
1.31708e-05
2.37672e-07
6.39388e-07
1.51998e-06
3.24096e-06
6.20836e-06
1.10077e-05
2.66975e-07
6.44162e-07
1.44763e-06
2.96181e-06
5.49032e-06
9.5321e-06
2.90018e-07
6.21967e-07
1.38197e-06
2.80758e-06
5.16428e-06
8.96165e-06
9.56524e-07
1.8482e-06
3.76459e-06
6.35541e-06
9.51526e-06
1.35392e-05
6.25158e-07
1.52618e-06
3.383e-06
5.81009e-06
8.79243e-06
1.32585e-05
4.66064e-07
1.31965e-06
2.92159e-06
5.04234e-06
7.93055e-06
1.34686e-05
3.70282e-07
1.07589e-06
2.37625e-06
4.24144e-06
7.28679e-06
1.40766e-05
2.97162e-07
8.54702e-07
1.9081e-06
3.58237e-06
6.84016e-06
1.48126e-05
2.33061e-07
6.68461e-07
1.52137e-06
3.09638e-06
6.64124e-06
1.55076e-05
1.79899e-07
5.21458e-07
1.2375e-06
2.78218e-06
6.52664e-06
1.55278e-05
1.4036e-07
4.14832e-07
1.05454e-06
2.59726e-06
6.35153e-06
1.47784e-05
1.16821e-07
3.53741e-07
9.64347e-07
2.5064e-06
6.09896e-06
1.35149e-05
1.08589e-07
3.34628e-07
9.44115e-07
2.45158e-06
5.70828e-06
1.18694e-05
1.14958e-07
3.50271e-07
9.64186e-07
2.38226e-06
5.201e-06
1.01424e-05
1.35837e-07
3.89101e-07
9.95915e-07
2.28643e-06
4.67426e-06
8.64806e-06
1.65848e-07
4.29143e-07
1.01989e-06
2.19359e-06
4.24612e-06
7.58568e-06
1.81221e-07
4.24274e-07
9.96407e-07
2.11395e-06
4.02227e-06
7.12927e-06
1.02297e-05
2.04412e-05
5.39587e-05
6.37779e-05
5.23881e-05
1.01738e-05
2.47446e-05
6.3729e-05
6.14087e-05
4.97605e-05
1.12287e-05
2.99563e-05
6.84709e-05
5.92394e-05
4.89734e-05
1.29616e-05
3.50188e-05
7.01708e-05
5.86886e-05
4.92498e-05
1.49462e-05
3.94144e-05
6.97061e-05
5.83538e-05
4.92573e-05
1.65798e-05
4.17576e-05
6.71599e-05
5.75145e-05
4.87994e-05
1.74065e-05
4.09903e-05
6.28105e-05
5.63967e-05
4.8918e-05
1.73196e-05
3.79001e-05
5.76823e-05
5.63129e-05
5.05266e-05
5.44447e-05
1.63211e-05
3.34746e-05
5.15345e-05
5.61615e-05
5.22969e-05
5.69769e-05
1.45753e-05
2.84363e-05
4.43318e-05
5.45255e-05
5.32957e-05
5.86854e-05
1.25256e-05
2.34376e-05
3.74089e-05
5.17614e-05
5.27745e-05
5.95323e-05
6.95544e-05
1.07335e-05
1.92448e-05
3.17526e-05
4.92597e-05
5.13109e-05
5.82802e-05
8.06622e-05
7.7676e-05
9.49531e-06
1.64898e-05
2.86433e-05
4.86542e-05
5.04893e-05
5.47587e-05
8.29123e-05
0.000170328
8.93887e-06
1.59047e-05
3.02378e-05
5.11507e-05
5.15969e-05
5.36116e-05
6.07457e-05
0.000175645
9.05115e-06
1.81177e-05
3.74136e-05
5.41415e-05
5.26552e-05
5.43973e-05
5.92194e-05
0.000159774
1.01812e-05
2.2952e-05
4.64357e-05
5.40597e-05
5.18398e-05
5.54483e-05
6.03756e-05
0.000151012
1.28729e-05
2.98505e-05
5.3487e-05
5.2873e-05
5.16725e-05
5.72694e-05
6.07786e-05
8.71635e-05
1.68204e-05
3.71866e-05
5.74807e-05
5.24073e-05
5.28126e-05
5.96002e-05
5.97491e-05
0.000118886
2.0683e-05
4.24364e-05
5.83011e-05
5.26942e-05
5.39924e-05
6.11275e-05
5.83864e-05
0.000122669
2.36482e-05
4.46806e-05
5.73529e-05
5.37159e-05
5.52497e-05
6.26287e-05
5.80159e-05
9.72021e-05
2.48482e-05
4.3521e-05
5.552e-05
5.57296e-05
5.74952e-05
6.49093e-05
5.99813e-05
4.10492e-05
2.44831e-05
4.05437e-05
5.37849e-05
5.92152e-05
6.05207e-05
6.80124e-05
6.40559e-05
4.1782e-05
2.27131e-05
3.6473e-05
5.12955e-05
6.25897e-05
6.35034e-05
7.0421e-05
2.02696e-05
3.21503e-05
4.86986e-05
6.46542e-05
6.46477e-05
7.213e-05
1.7945e-05
2.83664e-05
4.73696e-05
6.5372e-05
6.36321e-05
7.29607e-05
1.64004e-05
2.64135e-05
4.92923e-05
6.55042e-05
6.16114e-05
7.04616e-05
1.60756e-05
2.8063e-05
5.60124e-05
6.41914e-05
5.93011e-05
6.65961e-05
1.72393e-05
3.44049e-05
6.59838e-05
6.15472e-05
5.74122e-05
2.01095e-05
4.40446e-05
7.21268e-05
5.76957e-05
5.55934e-05
2.47516e-05
5.42452e-05
7.14041e-05
5.41941e-05
5.4129e-05
3.10139e-05
6.43969e-05
6.87158e-05
5.29635e-05
5.45947e-05
3.69274e-05
7.08768e-05
6.62437e-05
5.39392e-05
5.63894e-05
4.13502e-05
7.16609e-05
6.40448e-05
5.57427e-05
5.80864e-05
4.27314e-05
6.69416e-05
6.1778e-05
5.79911e-05
5.92808e-05
4.10957e-05
5.935e-05
5.94652e-05
6.11989e-05
6.12945e-05
3.72804e-05
5.14536e-05
5.73864e-05
6.55936e-05
6.34252e-05
3.2451e-05
4.38175e-05
5.50249e-05
6.99162e-05
6.50348e-05
2.7784e-05
3.71139e-05
5.35392e-05
7.25828e-05
6.44248e-05
2.39217e-05
3.19351e-05
5.50581e-05
7.28076e-05
6.19085e-05
2.09399e-05
2.94184e-05
6.14757e-05
7.12073e-05
5.90456e-05
1.90781e-05
3.12782e-05
7.27637e-05
6.85336e-05
5.66009e-05
1.85953e-05
3.86783e-05
8.4016e-05
6.54498e-05
5.46957e-05
1.9718e-05
4.93963e-05
8.62582e-05
6.23919e-05
5.24292e-05
2.2359e-05
6.00894e-05
8.2111e-05
5.9475e-05
5.0632e-05
2.63012e-05
7.05673e-05
7.86281e-05
5.78514e-05
5.0374e-05
3.01238e-05
7.64223e-05
7.67764e-05
5.77962e-05
5.09871e-05
3.38832e-05
7.57409e-05
7.4422e-05
5.7768e-05
5.13401e-05
3.585e-05
6.95963e-05
7.07405e-05
5.74191e-05
5.13101e-05
3.49202e-05
6.03707e-05
6.53583e-05
5.70786e-05
5.20299e-05
3.16614e-05
5.07611e-05
5.92148e-05
5.79064e-05
5.37348e-05
2.72472e-05
4.17591e-05
5.21523e-05
5.88146e-05
5.52574e-05
2.26056e-05
3.37233e-05
4.44859e-05
5.8318e-05
5.56528e-05
1.84195e-05
2.70104e-05
3.76476e-05
5.68096e-05
5.46694e-05
1.50661e-05
2.19497e-05
3.3283e-05
5.6126e-05
5.34339e-05
1.26242e-05
1.87201e-05
3.41342e-05
5.79371e-05
5.32119e-05
1.10755e-05
1.79425e-05
4.21168e-05
6.20288e-05
5.37282e-05
6.88785e-08
2.08183e-08
8.33693e-09
4.913e-09
3.79217e-09
3.47036e-09
3.47382e-09
3.49078e-09
3.69869e-09
4.79347e-09
9.10086e-09
2.44971e-08
7.35344e-08
2.06748e-07
3.59353e-08
7.33433e-09
1.4775e-09
5.46685e-10
3.97407e-10
3.79613e-10
3.99729e-10
4.2068e-10
5.11129e-10
1.05997e-09
3.66616e-09
1.39601e-08
4.7939e-08
1.41209e-07
2.31664e-08
4.61861e-09
7.55774e-10
1.22574e-10
3.37941e-11
2.41658e-11
2.65342e-11
3.83049e-11
1.10226e-10
4.97925e-10
2.25148e-09
9.01348e-09
3.12549e-08
9.3598e-08
2.12706e-08
4.87708e-09
9.30357e-10
1.50325e-10
2.01639e-11
2.66637e-12
1.89008e-12
9.4673e-12
5.66031e-11
3.03617e-10
1.41586e-09
5.73594e-09
2.02541e-08
6.25832e-08
2.22514e-08
5.30719e-09
1.06396e-09
1.77963e-10
2.3211e-11
2.44084e-12
1.00354e-12
5.76854e-12
3.62928e-11
1.99851e-10
9.55401e-10
3.96873e-09
1.43876e-08
4.58056e-08
2.49012e-08
5.89157e-09
1.15681e-09
1.84023e-10
2.27011e-11
2.82438e-12
1.5118e-12
5.19134e-12
2.89566e-11
1.57338e-10
7.5643e-10
3.17199e-09
1.16072e-08
3.73114e-08
3.05556e-08
7.02296e-09
1.29468e-09
1.92948e-10
2.67809e-11
8.96473e-12
8.4081e-12
1.23627e-11
3.56837e-11
1.58731e-10
7.24648e-10
2.98064e-09
1.0801e-08
3.46547e-08
3.927e-08
8.56192e-09
1.47586e-09
2.29216e-10
6.31693e-11
5.28241e-11
5.74239e-11
6.64801e-11
9.92968e-11
2.50236e-10
9.09078e-10
3.45914e-09
1.21463e-08
3.84392e-08
5.05464e-08
1.05416e-08
1.86035e-09
4.26777e-10
2.68597e-10
2.91276e-10
3.27838e-10
3.72898e-10
4.59406e-10
7.2635e-10
1.7305e-09
5.38329e-09
1.7363e-08
5.23353e-08
6.55504e-08
1.42869e-08
3.2884e-09
1.35649e-09
1.19571e-09
1.35058e-09
1.54616e-09
1.79071e-09
2.15335e-09
2.87778e-09
4.90855e-09
1.14237e-08
3.1261e-08
8.48544e-08
9.16961e-08
2.55743e-08
9.08168e-09
5.16073e-09
4.74309e-09
5.31042e-09
6.1419e-09
7.25635e-09
8.81407e-09
1.12888e-08
1.63312e-08
2.95883e-08
6.5802e-08
1.54776e-07
1.553e-07
6.15463e-08
2.93813e-08
1.85199e-08
1.64248e-08
1.7921e-08
2.08458e-08
2.50385e-08
3.08478e-08
3.92537e-08
5.28846e-08
8.11581e-08
1.47722e-07
2.95703e-07
3.04919e-07
1.56217e-07
8.75105e-08
5.81252e-08
4.97344e-08
5.25095e-08
6.11211e-08
7.43416e-08
9.26881e-08
1.18226e-07
1.54624e-07
2.15207e-07
3.3301e-07
5.69627e-07
6.03486e-07
3.59587e-07
2.24058e-07
1.57499e-07
1.32995e-07
1.35855e-07
1.5653e-07
1.91247e-07
2.40105e-07
3.06976e-07
3.96905e-07
5.22945e-07
7.16144e-07
1.05588e-06
1.80633e-08
6.02895e-09
3.23776e-09
2.11426e-09
1.49025e-09
1.21426e-09
1.1234e-09
1.0444e-09
9.72096e-10
9.87655e-10
1.60552e-09
4.79386e-09
1.74339e-08
5.90677e-08
8.78042e-09
1.75114e-09
4.39609e-10
2.0111e-10
1.31945e-10
1.11401e-10
1.10164e-10
1.0809e-10
1.10241e-10
1.75373e-10
6.35967e-10
2.92136e-09
1.20978e-08
4.25265e-08
7.24178e-09
1.51926e-09
2.64836e-10
4.41176e-11
1.01576e-11
5.76914e-12
5.85624e-12
6.95612e-12
1.58696e-11
7.91054e-11
4.38206e-10
2.12757e-09
8.7825e-09
3.08112e-08
8.98157e-09
2.04327e-09
3.78536e-10
6.02583e-11
7.96668e-12
8.64244e-13
2.28525e-13
1.02687e-12
7.8235e-12
5.30406e-11
3.0473e-10
1.48409e-09
6.15974e-09
2.19437e-08
1.09021e-08
2.47583e-09
4.65384e-10
7.45421e-11
9.55445e-12
9.31331e-13
1.42329e-13
6.6287e-13
5.31544e-12
3.66201e-11
2.13569e-10
1.05816e-09
4.47857e-09
1.63023e-08
1.32592e-08
2.94724e-09
5.32165e-10
7.96479e-11
9.53308e-12
1.04237e-12
3.32593e-13
7.16778e-13
4.2391e-12
2.80907e-11
1.6382e-10
8.16921e-10
3.48502e-09
1.27843e-08
1.7123e-08
3.68429e-09
6.21404e-10
8.56759e-11
1.07866e-11
2.93566e-12
2.52742e-12
2.90585e-12
5.83576e-12
2.54016e-11
1.36083e-10
6.65789e-10
2.82168e-09
1.03393e-08
2.27546e-08
4.66446e-09
7.2553e-10
9.81317e-11
2.20321e-11
1.7492e-11
1.92207e-11
2.07382e-11
2.4568e-11
4.38548e-11
1.4688e-10
6.28673e-10
2.57109e-09
9.36984e-09
3.02264e-08
5.89015e-09
8.78729e-10
1.55429e-10
9.00018e-11
1.02434e-10
1.18188e-10
1.30675e-10
1.46563e-10
1.80877e-10
3.12278e-10
8.7792e-10
3.12577e-09
1.09836e-08
4.02601e-08
7.57036e-09
1.27018e-09
4.25589e-10
4.15191e-10
5.064e-10
5.96906e-10
6.80707e-10
7.79426e-10
9.13332e-10
1.19483e-09
2.13094e-09
5.6153e-09
1.71947e-08
5.43368e-08
1.10047e-08
2.76955e-09
1.56257e-09
1.7181e-09
2.11551e-09
2.53267e-09
2.96883e-09
3.49101e-09
4.1341e-09
5.07079e-09
7.20534e-09
1.40359e-08
3.47057e-08
8.08776e-08
2.18113e-08
8.49914e-09
5.72694e-09
6.16739e-09
7.54229e-09
9.15502e-09
1.09871e-08
1.3214e-08
1.59362e-08
1.9388e-08
2.51518e-08
3.97683e-08
7.91975e-08
1.3936e-07
5.39097e-08
2.68674e-08
1.89164e-08
1.93065e-08
2.31513e-08
2.84091e-08
3.47962e-08
4.26354e-08
5.23098e-08
6.41498e-08
8.05846e-08
1.12097e-07
1.85065e-07
2.71691e-07
1.3452e-07
7.63274e-08
5.53292e-08
5.36791e-08
6.2237e-08
7.63831e-08
9.49239e-08
1.18099e-07
1.47016e-07
1.82574e-07
2.2785e-07
2.93812e-07
4.14281e-07
4.21805e-09
1.46259e-09
8.16325e-10
5.36825e-10
3.64936e-10
2.6371e-10
2.28766e-10
2.04878e-10
1.85951e-10
1.62317e-10
1.93331e-10
5.64795e-10
2.48079e-09
1.04082e-08
2.08717e-09
4.05539e-10
9.66915e-11
4.27526e-11
2.67591e-11
1.98806e-11
1.86284e-11
1.76095e-11
1.68617e-11
2.00763e-11
6.5988e-11
3.62672e-10
1.84318e-09
7.89181e-09
2.38353e-09
5.00558e-10
8.47706e-11
1.28448e-11
2.26078e-12
8.14912e-13
7.24501e-13
7.79638e-13
1.36613e-12
6.89978e-12
4.71733e-11
2.84319e-10
1.43623e-09
6.08193e-09
3.44644e-09
7.48055e-10
1.34276e-10
2.02956e-11
2.6667e-12
2.79706e-13
2.81873e-14
5.74532e-14
5.72629e-13
5.03172e-12
3.65839e-11
2.20509e-10
1.10858e-09
4.68834e-09
4.53082e-09
9.66528e-10
1.75391e-10
2.61099e-11
3.28469e-12
3.2662e-13
2.93328e-14
4.33862e-14
4.33473e-13
3.83282e-12
2.80089e-11
1.69825e-10
8.60379e-10
3.67387e-09
5.85321e-09
1.20616e-09
2.10577e-10
2.91691e-11
3.37318e-12
3.44112e-13
6.83386e-14
7.63454e-14
3.77609e-13
3.03248e-12
2.20193e-11
1.34128e-10
6.84774e-10
2.94901e-09
7.89413e-09
1.57822e-09
2.58573e-10
3.27718e-11
3.67346e-12
7.16177e-13
5.22975e-13
5.38045e-13
7.67453e-13
2.87862e-12
1.81361e-11
1.08306e-10
5.51665e-10
2.37536e-09
1.07147e-08
2.08135e-09
3.12374e-10
3.71843e-11
5.99298e-12
3.8654e-12
4.23733e-12
4.46552e-12
4.71094e-12
6.36484e-12
1.86488e-11
9.12478e-11
4.46334e-10
1.89965e-09
1.42594e-08
2.70961e-09
3.76902e-10
5.0221e-11
2.12283e-11
2.39734e-11
2.82064e-11
3.07093e-11
3.24662e-11
3.49126e-11
4.71945e-11
1.15811e-10
4.4886e-10
1.81341e-09
1.85613e-08
3.45788e-09
4.82474e-10
1.08598e-10
1.01112e-10
1.2898e-10
1.55234e-10
1.74187e-10
1.89849e-10
2.04058e-10
2.28853e-10
3.2343e-10
7.60535e-10
2.52067e-09
2.36055e-08
4.5155e-09
8.01142e-10
3.68502e-10
4.50584e-10
5.88908e-10
7.19699e-10
8.2936e-10
9.30497e-10
1.02712e-09
1.13826e-09
1.37425e-09
2.27201e-09
5.63041e-09
3.19169e-08
7.49295e-09
2.10679e-09
1.39943e-09
1.74551e-09
2.29248e-09
2.84425e-09
3.35736e-09
3.8609e-09
4.37602e-09
4.93037e-09
5.75232e-09
8.00987e-09
1.55755e-08
5.0644e-08
1.71875e-08
6.89521e-09
4.98991e-09
5.86962e-09
7.64683e-09
9.63524e-09
1.16412e-08
1.36875e-08
1.58897e-08
1.83077e-08
2.13712e-08
2.72199e-08
4.37437e-08
1.0032e-07
4.54385e-08
2.21577e-08
1.61833e-08
1.75014e-08
2.20959e-08
2.80866e-08
3.46942e-08
4.16937e-08
4.94853e-08
5.83616e-08
6.90921e-08
8.43032e-08
1.16318e-07
1.01733e-09
2.73464e-10
1.18668e-10
7.40297e-11
4.92465e-11
3.70001e-11
3.28383e-11
3.01042e-11
2.73966e-11
2.27238e-11
1.97057e-11
4.24433e-11
2.08546e-10
1.06114e-09
6.05876e-10
1.12914e-10
1.91374e-11
5.35928e-12
2.74455e-12
2.11268e-12
2.08706e-12
2.0862e-12
2.02155e-12
1.94074e-12
4.42107e-12
2.69308e-11
1.66212e-10
8.62374e-10
7.90719e-10
1.72481e-10
2.80345e-11
4.02886e-12
5.26148e-13
8.78923e-14
4.9322e-14
5.58719e-14
8.46258e-14
3.73749e-13
3.05991e-12
2.28112e-11
1.40758e-10
7.19187e-10
1.16213e-09
2.60713e-10
4.44183e-11
6.5765e-12
8.20592e-13
8.79779e-14
7.90994e-15
2.96873e-15
2.52069e-14
2.78101e-13
2.56214e-12
1.92284e-11
1.18262e-10
6.01688e-10
1.53745e-09
3.4183e-10
5.86343e-11
8.45695e-12
1.00362e-12
1.01888e-13
8.60893e-15
2.32694e-15
1.99739e-14
2.26324e-13
2.10245e-12
1.58711e-11
9.81901e-11
5.02748e-10
1.96264e-09
4.26698e-10
7.07811e-11
9.43786e-12
1.01803e-12
1.01283e-13
1.52339e-14
9.70351e-15
2.34298e-14
1.91545e-13
1.73516e-12
1.31375e-11
8.18248e-11
4.22202e-10
2.57256e-09
5.46242e-10
8.65541e-11
1.04681e-11
1.04962e-12
1.62912e-13
9.891e-14
9.67891e-14
1.03971e-13
2.3445e-13
1.49611e-12
1.08866e-11
6.77387e-11
3.51062e-10
3.35688e-09
6.90725e-10
1.0346e-10
1.15162e-11
1.43901e-12
7.57031e-13
8.19287e-13
8.60388e-13
8.58288e-13
9.23837e-13
1.88448e-12
9.38782e-12
5.50823e-11
2.82661e-10
4.26539e-09
8.51742e-10
1.21755e-10
1.40164e-11
4.3574e-12
4.83468e-12
5.75219e-12
6.23306e-12
6.37134e-12
6.35632e-12
7.0326e-12
1.33885e-11
5.29809e-11
2.49009e-10
5.32258e-09
1.03527e-09
1.47319e-10
2.52766e-11
2.09851e-11
2.76942e-11
3.36557e-11
3.74229e-11
3.94117e-11
4.01274e-11
4.09461e-11
4.78321e-11
9.18379e-11
3.07279e-10
6.46096e-09
1.2625e-09
2.07652e-10
7.76697e-11
9.94391e-11
1.35441e-10
1.66505e-10
1.89449e-10
2.04964e-10
2.14582e-10
2.21639e-10
2.38016e-10
3.23629e-10
7.29533e-10
8.26944e-09
1.87396e-09
4.6014e-10
2.98097e-10
4.12812e-10
5.6646e-10
7.04279e-10
8.18268e-10
9.06239e-10
9.73884e-10
1.0305e-09
1.1054e-09
1.33935e-09
2.36425e-09
1.25937e-08
4.00366e-09
1.45815e-09
1.1152e-09
1.48432e-09
2.03488e-09
2.56397e-09
3.04003e-09
3.43862e-09
3.78559e-09
4.11267e-09
4.49195e-09
5.19207e-09
7.75614e-09
2.58926e-08
1.09542e-08
5.00129e-09
3.86139e-09
4.689e-09
6.30832e-09
8.05433e-09
9.75128e-09
1.12597e-08
1.26845e-08
1.41521e-08
1.58514e-08
1.80509e-08
2.37912e-08
1.90695e-10
4.27571e-11
1.33983e-11
7.01648e-12
4.63781e-12
3.69064e-12
3.64069e-12
3.63798e-12
3.46963e-12
2.92485e-12
2.18262e-12
3.00461e-12
1.4921e-11
9.01853e-11
1.31029e-10
2.67836e-11
4.61746e-12
7.32068e-13
1.93622e-13
1.34458e-13
1.61351e-13
1.93889e-13
2.1361e-13
2.0509e-13
2.91355e-13
1.69131e-12
1.24168e-11
7.69843e-11
1.93453e-10
4.48446e-11
8.45706e-12
1.2633e-12
1.65917e-13
1.9525e-14
4.69205e-15
5.33103e-15
8.06248e-15
2.08238e-14
1.64711e-13
1.48285e-12
1.1092e-11
6.78946e-11
2.87864e-10
6.75495e-11
1.30933e-11
2.02418e-12
2.65917e-13
2.82331e-14
2.64246e-15
4.89671e-16
1.17413e-15
1.20702e-14
1.37369e-13
1.28121e-12
9.6494e-12
5.92767e-11
3.84418e-10
8.94733e-11
1.72745e-11
2.63449e-12
3.31691e-13
3.30677e-14
2.87444e-15
3.31078e-16
7.60136e-16
9.81423e-15
1.15925e-13
1.0964e-12
8.35299e-12
5.18672e-11
4.93314e-10
1.12125e-10
2.08373e-11
2.99106e-12
3.46735e-13
3.24575e-14
3.73987e-15
1.44171e-15
1.65207e-15
8.96044e-15
9.76173e-14
9.29427e-13
7.17365e-12
4.51323e-11
6.41609e-10
1.41852e-10
2.50929e-11
3.33813e-12
3.56455e-13
4.03641e-14
1.61208e-14
1.42398e-14
1.33863e-14
1.7995e-14
9.04772e-14
7.89076e-13
6.09575e-12
3.87217e-11
8.25746e-10
1.76535e-10
2.95975e-11
3.67418e-12
4.19216e-13
1.31603e-13
1.26081e-13
1.27608e-13
1.21482e-13
1.15868e-13
1.63693e-13
7.2197e-13
5.0608e-12
3.1923e-11
1.02993e-09
2.12909e-10
3.40913e-11
4.20547e-12
8.8762e-13
7.8901e-13
9.04836e-13
9.48573e-13
9.30851e-13
8.83945e-13
8.71282e-13
1.29916e-12
4.97271e-12
2.79055e-11
1.26505e-09
2.54257e-10
4.01422e-11
6.28288e-12
3.70207e-12
4.65301e-12
5.50989e-12
5.91933e-12
5.98225e-12
5.83618e-12
5.62862e-12
5.87935e-12
9.40653e-12
3.20377e-11
1.5063e-09
3.01567e-10
5.21338e-11
1.56157e-11
1.77115e-11
2.3891e-11
2.86512e-11
3.14688e-11
3.26639e-11
3.27506e-11
3.22379e-11
3.23481e-11
3.78439e-11
7.66357e-11
1.88045e-09
4.17293e-10
9.80426e-11
5.59106e-11
7.72084e-11
1.05955e-10
1.28479e-10
1.44061e-10
1.53111e-10
1.57417e-10
1.58846e-10
1.61113e-10
1.74805e-10
2.76044e-10
2.78323e-09
8.19387e-10
2.79361e-10
2.09131e-10
2.94178e-10
4.07105e-10
5.00339e-10
5.72539e-10
6.21758e-10
6.54403e-10
6.77458e-10
7.02426e-10
7.46533e-10
1.01861e-09
5.71603e-09
2.19649e-09
9.36973e-10
7.34351e-10
9.80068e-10
1.35858e-09
1.69772e-09
1.98368e-09
2.19884e-09
2.36735e-09
2.51529e-09
2.68023e-09
2.85618e-09
3.52342e-09
3.67967e-11
7.52641e-12
1.7808e-12
7.23655e-13
4.76345e-13
4.31949e-13
4.9299e-13
5.50752e-13
5.69655e-13
5.03941e-13
3.61074e-13
3.39954e-13
1.47028e-12
9.79629e-12
2.93491e-11
6.34274e-12
1.16877e-12
1.86636e-13
3.38125e-14
1.76657e-14
2.33241e-14
3.22544e-14
3.98568e-14
4.08314e-14
4.07877e-14
1.61237e-13
1.26462e-12
8.71445e-12
4.64513e-11
1.10336e-11
2.19939e-12
3.63918e-13
4.99346e-14
6.10973e-15
1.42905e-15
1.58373e-15
2.30573e-15
3.39939e-15
1.46584e-14
1.37781e-13
1.15937e-12
7.95539e-12
6.95505e-11
1.67127e-11
3.41744e-12
5.81042e-13
7.99137e-14
8.92758e-15
8.8522e-16
1.76325e-16
2.08236e-16
9.74178e-16
1.11382e-14
1.18743e-13
1.01845e-12
7.07513e-12
9.2983e-11
2.21465e-11
4.49255e-12
7.50794e-13
9.96959e-14
1.05392e-14
9.58011e-16
1.16299e-16
9.04029e-17
7.05066e-16
9.25295e-15
1.01323e-13
8.86005e-13
6.26925e-12
1.186e-10
2.74662e-11
5.34563e-12
8.43534e-13
1.04234e-13
1.03024e-14
1.04718e-15
2.79352e-16
2.31399e-16
7.01441e-16
7.75347e-15
8.55157e-14
7.62886e-13
5.50872e-12
1.52374e-10
3.41433e-11
6.30454e-12
9.25634e-13
1.05441e-13
1.10123e-14
2.88032e-15
2.22449e-15
1.99425e-15
2.12379e-15
7.7473e-15
7.31968e-14
6.53844e-13
4.78784e-12
1.93951e-10
4.18924e-11
7.3227e-12
1.00526e-12
1.1453e-13
2.47926e-14
2.00229e-14
1.97352e-14
1.8354e-14
1.66289e-14
1.92339e-14
7.11521e-14
5.51099e-13
4.00524e-12
2.38852e-10
4.97814e-11
8.29662e-12
1.10921e-12
1.88319e-13
1.30416e-13
1.45374e-13
1.49988e-13
1.4387e-13
1.32472e-13
1.23035e-13
1.57306e-13
5.59138e-13
3.51809e-12
2.88984e-10
5.83316e-11
9.48809e-12
1.46946e-12
6.59563e-13
7.80656e-13
9.17108e-13
9.6879e-13
9.55533e-13
9.05314e-13
8.40407e-13
8.25568e-13
1.16813e-12
3.95643e-12
3.36714e-10
6.70543e-11
1.15513e-11
3.10144e-12
3.13691e-12
4.18879e-12
4.98758e-12
5.37548e-12
5.43753e-12
5.29172e-12
5.02282e-12
4.83771e-12
5.18716e-12
9.59729e-12
4.04537e-10
8.63601e-11
1.92502e-11
1.04913e-11
1.43196e-11
1.9624e-11
2.356e-11
2.58558e-11
2.67368e-11
2.66437e-11
2.59017e-11
2.53186e-11
2.57201e-11
3.71839e-11
5.71053e-10
1.55372e-10
5.04386e-11
3.97318e-11
5.7885e-11
8.0213e-11
9.72356e-11
1.08616e-10
1.14604e-10
1.16741e-10
1.16254e-10
1.16175e-10
1.1694e-10
1.48677e-10
1.14348e-09
4.02385e-10
1.66046e-10
1.42561e-10
2.05126e-10
2.86584e-10
3.51811e-10
3.99824e-10
4.29641e-10
4.46797e-10
4.56008e-10
4.67613e-10
4.75557e-10
5.55854e-10
6.69171e-12
1.3803e-12
3.17561e-13
1.17228e-13
7.73332e-14
7.65963e-14
9.372e-14
1.10687e-13
1.20127e-13
1.10512e-13
7.96779e-14
5.36435e-14
1.37855e-13
9.42556e-13
6.10891e-12
1.36421e-12
2.63613e-13
4.47611e-14
8.11136e-15
3.94791e-15
5.33741e-15
7.72603e-15
9.96391e-15
1.05661e-14
8.81991e-15
1.59217e-14
1.15238e-13
8.66433e-13
1.01412e-11
2.43438e-12
5.00683e-13
8.76906e-14
1.28994e-14
1.69972e-15
4.32545e-16
4.83252e-16
6.95266e-16
8.69047e-16
1.57669e-15
1.18321e-14
1.08077e-13
8.17149e-13
1.52628e-11
3.71346e-12
7.82184e-13
1.39846e-13
2.05673e-14
2.46997e-15
2.77418e-16
7.7819e-17
7.9345e-17
1.34612e-16
8.96571e-16
1.00732e-14
9.59615e-14
7.39827e-13
2.04407e-11
4.92833e-12
1.02667e-12
1.79931e-13
2.55884e-14
2.91944e-15
2.9725e-16
5.84065e-17
4.2878e-17
8.1093e-17
7.28003e-16
8.6249e-15
8.42456e-14
6.65477e-13
2.58605e-11
6.03853e-12
1.20325e-12
1.99356e-13
2.65391e-14
2.8359e-15
2.97841e-16
7.89532e-17
6.08984e-17
8.77643e-17
6.1792e-16
7.2873e-15
7.29303e-14
5.91516e-13
3.26828e-11
7.34284e-12
1.38307e-12
2.13478e-13
2.62746e-14
2.79091e-15
5.41953e-16
3.52321e-16
3.0522e-16
2.84996e-16
6.88046e-16
6.30468e-15
6.29458e-14
5.19729e-13
4.08499e-11
8.80915e-12
1.56688e-12
2.26124e-13
2.70719e-14
4.68557e-15
3.03954e-15
2.8711e-15
2.60684e-15
2.2656e-15
2.26775e-15
6.60804e-15
5.36132e-14
4.38554e-13
4.94613e-11
1.02722e-11
1.74009e-12
2.42296e-13
3.77735e-14
2.05574e-14
2.18502e-14
2.20378e-14
2.06272e-14
1.83636e-14
1.62229e-14
1.80992e-14
5.6463e-14
3.85716e-13
5.8863e-11
1.18182e-11
1.9445e-12
2.99273e-13
1.11496e-13
1.22112e-13
1.41308e-13
1.46097e-13
1.404e-13
1.28712e-13
1.15007e-13
1.06575e-13
1.32639e-13
4.29801e-13
6.74364e-11
1.32879e-11
2.27038e-12
5.64096e-13
5.16428e-13
6.75206e-13
7.9478e-13
8.37777e-13
8.24636e-13
7.76604e-13
7.10211e-13
6.5433e-13
6.45478e-13
1.06864e-12
7.83542e-11
1.62e-11
3.46376e-12
1.81831e-12
2.43122e-12
3.29458e-12
3.9054e-12
4.1865e-12
4.20742e-12
4.0556e-12
3.79516e-12
3.55698e-12
3.38751e-12
4.42657e-12
1.05174e-10
2.67884e-11
8.40174e-12
6.98673e-12
1.02926e-11
1.4122e-11
1.68547e-11
1.83616e-11
1.88107e-11
1.85222e-11
1.77273e-11
1.6977e-11
1.61736e-11
1.89598e-11
2.03549e-10
6.62938e-11
2.70499e-11
2.57459e-11
3.84713e-11
5.32736e-11
6.41349e-11
7.09125e-11
7.38772e-11
7.41589e-11
7.26059e-11
7.11984e-11
6.8879e-11
7.55418e-11
1.06115e-12
2.22449e-13
5.18594e-14
1.91084e-14
1.35309e-14
1.47232e-14
1.90534e-14
2.3448e-14
2.63414e-14
2.50116e-14
1.83957e-14
1.09253e-14
1.33214e-14
8.19969e-14
1.11399e-12
2.53802e-13
5.05888e-14
8.99861e-15
1.7447e-15
9.11692e-16
1.26057e-15
1.8555e-15
2.4364e-15
2.64525e-15
2.16226e-15
1.98254e-15
9.68793e-15
7.73591e-14
1.93059e-12
4.66163e-13
9.77412e-14
1.77231e-14
2.75823e-15
4.10252e-16
1.35189e-16
1.53254e-16
2.10353e-16
2.51869e-16
2.71565e-16
9.964e-16
9.12721e-15
7.53313e-14
2.94485e-12
7.22059e-13
1.54738e-13
2.84811e-14
4.39961e-15
5.80503e-16
9.30706e-17
4.71294e-17
4.76767e-17
5.33629e-17
1.01009e-16
8.01976e-16
8.16044e-15
6.93571e-14
3.96743e-12
9.62691e-13
2.03517e-13
3.6659e-14
5.47486e-15
6.84312e-16
9.75168e-17
4.17279e-17
3.76569e-17
3.95854e-17
8.13214e-17
6.88049e-16
7.20771e-15
6.31751e-14
4.97967e-12
1.16575e-12
2.35334e-13
4.01682e-14
5.64387e-15
6.64167e-16
9.46411e-17
4.34898e-17
3.92284e-17
4.01345e-17
7.41966e-17
5.83836e-16
6.2429e-15
5.65349e-14
6.18358e-12
1.38641e-12
2.64139e-13
4.2128e-14
5.49641e-15
6.25182e-16
1.18548e-16
7.41365e-17
6.59411e-17
6.08924e-17
8.51073e-17
5.12334e-16
5.40043e-15
4.99779e-14
7.57624e-12
1.62503e-12
2.92071e-13
4.36155e-14
5.45088e-15
8.25994e-16
4.19166e-16
3.74852e-16
3.33992e-16
2.83076e-16
2.58199e-16
5.73105e-16
4.61259e-15
4.22202e-14
9.00217e-12
1.85665e-12
3.17612e-13
4.54636e-14
6.6777e-15
2.81064e-15
2.78021e-15
2.73502e-15
2.49564e-15
2.14422e-15
1.81005e-15
1.8224e-15
4.99902e-15
3.69134e-14
1.05081e-11
2.09315e-12
3.46516e-13
5.27656e-14
1.62994e-14
1.61181e-14
1.83039e-14