/*--------------------------------*- C++ -*----------------------------------*\
| =========                 |                                                 |
| \\      /  F ield         | OpenFOAM: The Open Source CFD Toolbox           |
|  \\    /   O peration     | Version:  v2106                                 |
|   \\  /    A nd           | Website:  www.openfoam.com                      |
|    \\/     M anipulation  |                                                 |
\*---------------------------------------------------------------------------*/
FoamFile
{
    version     2.0;
    format      ascii;
    arch        "LSB;label=32;scalar=64";
    class       volScalarField;
    location    "0.000172";
    object      rho;
}
// * * * * * * * * * * * * * * * * * * * * * * * * * * * * * * * * * * * * * //

dimensions      [1 -3 0 0 0 0 0];

internalField   nonuniform List<scalar> 
18109
(
2.48782
2.48492
2.48268
2.48064
2.47908
2.47851
2.47924
2.48498
2.48275
2.48021
2.47847
2.47695
2.47642
2.47702
2.48149
2.48002
2.47788
2.47636
2.47479
2.47408
2.47434
2.47814
2.47693
2.47504
2.47342
2.47173
2.47086
2.47089
2.47445
2.47362
2.47208
2.47039
2.46873
2.46782
2.46771
2.47065
2.47037
2.46912
2.46751
2.46596
2.465
2.46477
2.46709
2.46721
2.46635
2.46493
2.46361
2.46267
2.46234
2.464
2.46433
2.4639
2.46282
2.46176
2.46086
2.46044
2.49838
2.49668
2.4953
2.49407
2.49313
2.49284
2.4937
2.49498
2.4971
2.49949
2.50213
2.50489
2.50788
2.50975
2.49523
2.49422
2.49262
2.49166
2.4908
2.49063
2.49137
2.49271
2.49473
2.49713
2.49963
2.50171
2.50427
2.50555
2.49167
2.49149
2.49029
2.48944
2.48847
2.4882
2.48865
2.48977
2.49152
2.49371
2.49611
2.49844
2.50076
2.50224
2.48821
2.4883
2.48728
2.48631
2.48527
2.48489
2.48518
2.48622
2.48796
2.49022
2.49272
2.49513
2.4972
2.4984
2.48453
2.48485
2.48409
2.48307
2.48212
2.48174
2.48194
2.48286
2.48446
2.48664
2.48908
2.49151
2.49346
2.49467
2.48103
2.48158
2.481
2.48008
2.47923
2.4788
2.4789
2.47968
2.48113
2.48319
2.48551
2.48782
2.48958
2.49067
2.4778
2.47853
2.47826
2.47754
2.4768
2.47634
2.47636
2.47697
2.4782
2.48002
2.48213
2.48423
2.48584
2.48688
2.47505
2.47601
2.47606
2.47557
2.47492
2.47441
2.47429
2.4747
2.47564
2.47715
2.47899
2.48086
2.48231
2.48339
2.47276
2.47401
2.47447
2.47421
2.47364
2.47306
2.47271
2.47286
2.47347
2.4746
2.47612
2.47776
2.47915
2.48041
2.4713
2.47274
2.47346
2.47333
2.47278
2.47211
2.47142
2.47117
2.47145
2.4722
2.47339
2.47487
2.4763
2.47802
2.47034
2.47185
2.47268
2.47266
2.47207
2.47126
2.47028
2.46957
2.46946
2.4699
2.4708
2.4722
2.47363
2.47627
2.46968
2.47141
2.472
2.47182
2.47111
2.47017
2.46891
2.46772
2.46714
2.46731
2.46788
2.46909
2.47106
2.47389
2.4691
2.47096
2.47128
2.47127
2.46989
2.46851
2.46679
2.46525
2.46414
2.4641
2.46456
2.46599
2.46822
2.47204
2.4695
2.4707
2.4702
2.46965
2.46767
2.46587
2.46367
2.46183
2.46025
2.45987
2.46002
2.46149
2.46372
2.46799
2.49015
2.49319
2.49428
2.49587
2.49557
2.49525
2.50062
2.50325
2.50439
2.50632
2.5063
2.50621
2.49735
2.4993
2.49977
2.5002
2.49912
2.49843
2.49591
2.49711
2.49691
2.49572
2.49285
2.49106
2.49449
2.49491
2.49371
2.49094
2.48712
2.48549
2.49373
2.49341
2.4917
2.48851
2.48592
2.48702
2.49365
2.49301
2.49147
2.48863
2.48858
2.49282
2.49483
2.49473
2.49409
2.49259
2.49423
2.50256
2.49669
2.49759
2.49793
2.49878
2.50372
2.51388
2.49946
2.50164
2.50357
2.50637
2.51421
2.52503
2.50261
2.50601
2.50972
2.5147
2.52451
2.53451
2.50595
2.51027
2.51527
2.52211
2.53163
2.53963
2.50856
2.51352
2.51904
2.52631
2.53382
2.54011
2.51154
2.51619
2.52078
2.52658
2.53217
2.53731
2.51188
2.51596
2.51914
2.52309
2.52647
2.53066
2.51253
2.51639
2.5185
2.52024
2.52092
2.52366
2.50642
2.50875
2.50952
2.51055
2.51111
2.51314
2.50285
2.50429
2.50382
2.5035
2.50303
2.50521
2.49881
2.49927
2.49816
2.49712
2.49627
2.49957
2.49499
2.49479
2.49341
2.49187
2.49238
2.49919
2.49089
2.49051
2.4892
2.48868
2.49146
2.50013
2.48704
2.48687
2.48585
2.48619
2.49111
2.4998
2.48368
2.48357
2.48335
2.48492
2.49205
2.5005
2.48125
2.48141
2.48216
2.48613
2.49434
2.50115
2.47928
2.48031
2.48305
2.48918
2.49726
2.50338
2.47803
2.47997
2.48449
2.49116
2.49868
2.50346
2.47605
2.47878
2.48417
2.49009
2.49588
2.50022
2.47487
2.47704
2.4814
2.48483
2.48849
2.49261
2.46906
2.46987
2.47136
2.47276
2.47454
2.4775
2.46717
2.46823
2.46736
2.46562
2.46315
2.46234
2.4605
2.4583
2.45487
2.45153
2.44865
2.44938
2.45684
2.45211
2.44677
2.4419
2.43906
2.44209
2.4542
2.44769
2.44078
2.43519
2.43298
2.43856
2.45371
2.44627
2.43839
2.4329
2.4315
2.43754
2.45414
2.44654
2.43887
2.43398
2.43292
2.4375
2.45622
2.44902
2.44273
2.43862
2.4395
2.44197
2.45884
2.4531
2.44808
2.44674
2.44998
2.45128
2.46158
2.45747
2.45546
2.45725
2.46105
2.46274
2.46478
2.4629
2.46319
2.46764
2.47264
2.47478
2.46788
2.46786
2.47051
2.47541
2.48067
2.48268
2.46934
2.4707
2.47404
2.47837
2.48221
2.48425
2.47097
2.47236
2.4752
2.47783
2.47981
2.48111
2.46863
2.46984
2.47089
2.47163
2.47129
2.47149
2.48014
2.48311
2.48762
2.4961
2.50537
2.51198
2.48414
2.48777
2.49259
2.50073
2.50748
2.5127
2.48778
2.4914
2.49557
2.5013
2.50601
2.51013
2.48921
2.49271
2.495
2.49874
2.50102
2.50317
2.46876
2.46938
2.46852
2.46722
2.46477
2.46255
2.46656
2.4657
2.46234
2.45907
2.45495
2.45339
2.46663
2.46393
2.45865
2.45288
2.44718
2.44555
2.46689
2.46251
2.45571
2.44878
2.44415
2.44443
2.46763
2.46239
2.4553
2.44864
2.44515
2.44865
2.46934
2.46373
2.45694
2.45231
2.45064
2.45737
2.4723
2.46749
2.46216
2.4587
2.4606
2.4684
2.47591
2.47238
2.46853
2.46754
2.4734
2.48016
2.47989
2.47811
2.47625
2.47862
2.48605
2.4935
2.48425
2.48413
2.48463
2.48959
2.49769
2.50579
2.48882
2.49017
2.49275
2.49902
2.50737
2.51419
2.49306
2.49533
2.49868
2.50568
2.51244
2.51781
2.49692
2.49954
2.50309
2.50836
2.51299
2.51685
2.4989
2.50185
2.50384
2.50754
2.5102
2.51229
2.51338
2.54249
2.61632
2.75423
2.94954
2.50256
2.53748
2.61171
2.74348
2.95136
2.49789
2.5383
2.60253
2.73134
2.96402
2.49747
2.53319
2.58481
2.70312
2.92559
2.50284
2.53083
2.57123
2.67158
2.85439
2.50933
2.52744
2.55625
2.64115
2.8013
2.51838
2.53031
2.5562
2.6457
2.82961
2.52734
2.5349
2.55813
2.64266
2.81721
3.06857
2.53535
2.5414
2.56161
2.62826
2.77251
2.98991
2.54296
2.5498
2.57359
2.64119
2.77411
2.96662
2.54731
2.55903
2.58819
2.66303
2.80787
2.99631
3.13074
2.54816
2.56679
2.60527
2.69322
2.85438
3.06346
3.27149
3.40216
2.54744
2.57002
2.61636
2.71684
2.90997
3.17967
3.50893
3.86899
2.54288
2.5692
2.62535
2.73841
2.93503
3.19626
3.47931
3.6944
2.53585
2.57055
2.64264
2.76572
2.93589
3.14066
3.33875
3.44516
2.52649
2.57059
2.65088
2.77155
2.94211
3.1679
3.32909
3.43831
2.52263
2.57255
2.64292
2.75396
2.94644
3.22147
3.50452
3.62583
2.52094
2.56096
2.61378
2.71367
2.90013
3.17542
3.46051
3.76833
2.51815
2.5438
2.5823
2.66724
2.82427
3.06112
3.30456
3.44489
2.51399
2.52599
2.55578
2.63827
2.79013
3.02235
3.21415
3.3217
2.50887
2.51256
2.54069
2.63038
2.81243
3.10307
3.34995
3.44984
2.50518
2.50607
2.53532
2.62434
2.80065
3.06627
3.35823
3.68574
2.50467
2.50924
2.5405
2.61961
2.77216
2.97652
2.50744
2.51997
2.56077
2.65377
2.81307
3.00499
2.51019
2.5337
2.59079
2.70592
2.87914
3.07984
2.51231
2.54465
2.61808
2.75791
2.95561
3.17731
2.50652
2.54379
2.63376
2.79243
3.024
3.32034
2.49182
2.53567
2.63096
2.78284
3.01363
2.47771
2.52507
2.60735
2.73404
2.92528
2.46666
2.50631
2.57271
2.69573
2.89532
2.46037
2.48734
2.54276
2.66932
2.90845
2.44819
2.46197
2.50852
2.62372
2.849
2.43828
2.44131
2.47837
2.57605
2.75438
2.43195
2.42867
2.46003
2.55607
2.73695
2.43527
2.43116
2.46615
2.57263
2.79503
2.44505
2.44098
2.47685
2.57819
2.78746
2.45875
2.46101
2.49815
2.59365
2.76787
2.47257
2.48556
2.53287
2.63874
2.8213
2.48386
2.50676
2.56975
2.7003
2.90799
2.49298
2.52084
2.59662
2.7497
2.98854
2.49078
2.52245
2.61133
2.77356
3.04942
2.48318
2.51861
2.6073
2.7558
3.02969
2.47004
2.50648
2.57849
2.70951
2.9319
2.4594
2.48981
2.54492
2.66688
2.89647
2.45614
2.47728
2.52542
2.6564
2.92599
2.4537
2.46429
2.50634
2.63091
2.87687
2.45494
2.4592
2.49638
2.60443
2.81555
2.46009
2.45936
2.48816
2.58621
2.77837
2.47047
2.46757
2.49866
2.60749
2.8325
2.48269
2.48072
2.51236
2.61499
2.82822
2.49639
2.49727
2.52641
2.60965
2.7913
2.5096
2.5163
2.5491
2.63493
2.82038
2.51904
2.53182
2.57031
2.66376
2.86688
2.52462
2.54299
2.58925
2.6965
2.92473
2.52604
2.54533
2.59601
2.72373
2.97721
2.52129
2.544
2.60758
2.74838
2.9926
2.52096
2.52126
2.52112
2.52084
2.52057
2.52047
2.52123
2.52248
2.52435
2.5265
2.52872
2.53093
2.53335
2.53523
2.51755
2.51842
2.51838
2.51841
2.51824
2.51838
2.51915
2.52044
2.52231
2.5245
2.52674
2.52889
2.53077
2.53228
2.51355
2.51534
2.51566
2.51592
2.51581
2.51602
2.51664
2.51786
2.51958
2.52166
2.52384
2.52613
2.52825
2.5301
2.50969
2.51184
2.51236
2.51265
2.51259
2.51286
2.51349
2.51471
2.51643
2.51856
2.52087
2.52332
2.52549
2.52726
2.50596
2.50819
2.50895
2.50935
2.50941
2.50975
2.51037
2.51156
2.51324
2.51539
2.5178
2.52039
2.52263
2.52452
2.5027
2.50488
2.50582
2.50629
2.50644
2.50679
2.50738
2.50847
2.51007
2.51217
2.51461
2.51724
2.51945
2.52135
2.49987
2.50216
2.50331
2.50385
2.50404
2.50431
2.50475
2.50564
2.50705
2.50901
2.51139
2.51399
2.5162
2.51809
2.49776
2.50019
2.50151
2.50206
2.50217
2.50224
2.50245
2.50305
2.50418
2.50593
2.50818
2.51067
2.51282
2.51466
2.49648
2.49901
2.50043
2.50096
2.50088
2.50067
2.50054
2.50077
2.50152
2.50296
2.505
2.50735
2.50943
2.51133
2.49592
2.49838
2.49986
2.50027
2.49988
2.49931
2.49872
2.49859
2.49894
2.50002
2.50178
2.50402
2.50613
2.50826
2.49555
2.49817
2.49953
2.49974
2.4991
2.49812
2.49696
2.49638
2.49644
2.49721
2.49872
2.50089
2.50293
2.50561
2.49527
2.49794
2.49898
2.499
2.49795
2.49655
2.49492
2.4939
2.49369
2.49423
2.49539
2.49748
2.4997
2.50267
2.49498
2.49761
2.49812
2.49804
2.49646
2.49456
2.49236
2.49091
2.49048
2.49099
2.49209
2.49443
2.49691
2.50086
2.49528
2.49696
2.49653
2.49604
2.49373
2.4914
2.48872
2.48706
2.48656
2.48708
2.48802
2.49044
2.49295
2.49765
2.56469
2.56726
2.56854
2.56936
2.56973
2.57006
2.57058
2.57151
2.57283
2.57446
2.57629
2.57808
2.58012
2.5812
2.56153
2.56475
2.56619
2.56725
2.56779
2.5683
2.56892
2.56993
2.57128
2.57293
2.57479
2.57665
2.57848
2.57999
2.55794
2.56168
2.56333
2.56464
2.56538
2.56606
2.56679
2.56783
2.56915
2.57076
2.57258
2.57446
2.57642
2.57809
2.55445
2.55821
2.56016
2.56164
2.56256
2.56337
2.56421
2.5653
2.56668
2.56835
2.57028
2.57233
2.57442
2.57628
2.55123
2.55489
2.55705
2.55865
2.55971
2.56061
2.56151
2.56264
2.56408
2.56583
2.5679
2.57016
2.57238
2.57438
2.5485
2.55208
2.55438
2.55602
2.55713
2.55804
2.55896
2.56008
2.56154
2.56335
2.56555
2.56797
2.57029
2.57236
2.54661
2.55013
2.55249
2.55408
2.55512
2.55591
2.5567
2.55769
2.55907
2.56089
2.56317
2.56571
2.56808
2.5702
2.54569
2.54913
2.55144
2.55283
2.55364
2.55417
2.55469
2.55542
2.55662
2.55837
2.56067
2.56328
2.56566
2.56782
2.54536
2.5487
2.55092
2.55213
2.55259
2.55273
2.5529
2.55328
2.55418
2.55578
2.55803
2.56064
2.56306
2.56522
2.54528
2.5485
2.55067
2.55154
2.55158
2.55127
2.55105
2.5511
2.55167
2.55305
2.5552
2.55779
2.56027
2.56252
2.54535
2.54849
2.5503
2.55084
2.55048
2.54971
2.54902
2.54878
2.54907
2.55022
2.55225
2.55487
2.55746
2.55988
2.54532
2.5482
2.54937
2.54963
2.54894
2.54771
2.54658
2.54612
2.54626
2.54729
2.54924
2.55197
2.55466
2.55727
2.54497
2.54766
2.54808
2.54809
2.5469
2.54511
2.54356
2.54295
2.54307
2.54422
2.5463
2.54936
2.55217
2.55574
2.54447
2.54637
2.54591
2.54542
2.54355
2.54129
2.53957
2.53903
2.53934
2.54083
2.54295
2.54624
2.54897
2.55308
2.60644
2.60963
2.61156
2.61298
2.61376
2.6143
2.61476
2.61544
2.61651
2.61794
2.61977
2.62187
2.62424
2.62626
2.60379
2.60726
2.60924
2.61073
2.61166
2.61235
2.61297
2.6138
2.61496
2.61647
2.61833
2.62045
2.62268
2.62497
2.6012
2.60471
2.60683
2.60842
2.60949
2.61033
2.61109
2.61201
2.61322
2.61472
2.61657
2.61867
2.62093
2.62328
2.59894
2.60226
2.60444
2.60608
2.60723
2.60816
2.60903
2.61004
2.61131
2.61287
2.61476
2.61692
2.61922
2.62169
2.59705
2.60021
2.60239
2.60402
2.60521
2.60617
2.60711
2.60817
2.6095
2.61112
2.6131
2.61537
2.61778
2.62034
2.59587
2.59877
2.6009
2.60245
2.60359
2.60451
2.60545
2.60652
2.60788
2.60958
2.61165
2.61407
2.61659
2.61923
2.59545
2.59814
2.60012
2.60152
2.60253
2.60334
2.60418
2.60518
2.60652
2.60826
2.61042
2.61296
2.61558
2.61824
2.5956
2.59811
2.59989
2.60108
2.60188
2.60249
2.60315
2.60402
2.60528
2.60703
2.60928
2.61192
2.61463
2.61731
2.59588
2.59825
2.59996
2.60095
2.60146
2.60181
2.60225
2.60294
2.60409
2.60585
2.60816
2.61091
2.61372
2.61644
2.59637
2.59858
2.60009
2.60078
2.60093
2.60101
2.60124
2.60177
2.60281
2.60458
2.60698
2.60985
2.61277
2.61556
2.5967
2.59879
2.59993
2.60031
2.60017
2.59997
2.60002
2.60041
2.60139
2.60319
2.6057
2.60871
2.61171
2.61463
2.59692
2.59858
2.59917
2.5993
2.59894
2.59849
2.59841
2.59878
2.59977
2.60169
2.60433
2.60753
2.61055
2.61374
2.59649
2.59765
2.59782
2.59776
2.59713
2.59646
2.59633
2.59677
2.59792
2.60007
2.60291
2.60633
2.60938
2.61296
2.59512
2.59603
2.59562
2.59519
2.59423
2.59348
2.59348
2.59421
2.59569
2.59822
2.60126
2.60493
2.6081
2.61181
2.64532
2.64829
2.65027
2.65187
2.65294
2.6537
2.65434
2.65511
2.65622
2.65774
2.65973
2.66213
2.66488
2.66765
2.64411
2.64682
2.64872
2.6502
2.65125
2.65203
2.65275
2.65364
2.65488
2.65656
2.65867
2.66122
2.66392
2.66693
2.64297
2.6455
2.64731
2.64867
2.64966
2.65045
2.65125
2.65223
2.65356
2.6553
2.65745
2.66001
2.66274
2.66576
2.6424
2.64455
2.64619
2.6474
2.64831
2.64908
2.64991
2.65095
2.65233
2.65412
2.65631
2.65891
2.66167
2.66478
2.64235
2.64414
2.64551
2.64651
2.64731
2.64804
2.64888
2.64995
2.65136
2.65319
2.65542
2.65807
2.66088
2.66404
2.64267
2.64419
2.6453
2.64609
2.64673
2.64738
2.64818
2.64926
2.65069
2.65255
2.65483
2.65754
2.6604
2.66358
2.64328
2.64453
2.64546
2.64607
2.64655
2.64709
2.64784
2.64892
2.65037
2.65229
2.65462
2.65738
2.66028
2.66341
2.64413
2.6451
2.64579
2.64621
2.64657
2.64702
2.64771
2.64878
2.6503
2.6523
2.65472
2.65753
2.66048
2.66356
2.64504
2.64576
2.64621
2.64643
2.64666
2.64702
2.64765
2.64871
2.65028
2.65241
2.65496
2.65789
2.66091
2.66397
2.64577
2.64629
2.64658
2.64657
2.64661
2.64687
2.64748
2.64858
2.65024
2.65253
2.65527
2.65833
2.66143
2.66443
2.64625
2.64657
2.64667
2.64646
2.6463
2.6465
2.64711
2.64829
2.6501
2.65258
2.65553
2.65876
2.66192
2.66489
2.6462
2.64638
2.64622
2.64584
2.64561
2.64581
2.64651
2.64783
2.64984
2.65257
2.65575
2.65917
2.66236
2.66534
2.64551
2.64562
2.64527
2.64478
2.64448
2.64474
2.64558
2.6471
2.64937
2.6524
2.65584
2.65947
2.66273
2.66588
2.64423
2.6442
2.64339
2.64284
2.64259
2.64304
2.64417
2.64607
2.64875
2.65215
2.6558
2.6595
2.66284
2.66601
2.67695
2.67837
2.67942
2.68029
2.68105
2.68175
2.68256
2.6836
2.68499
2.68682
2.68904
2.69165
2.6945
2.69767
2.67692
2.67804
2.67887
2.67958
2.68023
2.68088
2.6817
2.68282
2.68432
2.68631
2.68868
2.69153
2.69438
2.69759
2.67718
2.67802
2.67863
2.67913
2.67963
2.68021
2.68102
2.68218
2.68373
2.68578
2.6882
2.69105
2.69395
2.69711
2.67779
2.67833
2.67872
2.67902
2.67938
2.67989
2.68068
2.68184
2.6834
2.68547
2.68788
2.69072
2.6936
2.69677
2.67857
2.67883
2.67902
2.67918
2.67944
2.6799
2.68065
2.6818
2.68336
2.6854
2.68779
2.6906
2.69348
2.69665
2.67941
2.67948
2.67947
2.67949
2.67968
2.6801
2.68084
2.682
2.68356
2.6856
2.68799
2.69078
2.69366
2.69683
2.68024
2.68017
2.68001
2.67993
2.68008
2.68049
2.68125
2.68244
2.68404
2.68612
2.68854
2.69133
2.69422
2.69736
2.68098
2.68079
2.68055
2.68042
2.68056
2.681
2.6818
2.68308
2.68479
2.68696
2.68944
2.69226
2.69515
2.69824
2.68154
2.68129
2.681
2.68087
2.68104
2.68153
2.68243
2.68384
2.6857
2.68802
2.69061
2.69349
2.6964
2.69941
2.68187
2.6816
2.68131
2.68121
2.68144
2.68202
2.68306
2.68465
2.68673
2.68924
2.69199
2.69495
2.69786
2.70078
2.68202
2.68175
2.68148
2.68141
2.68171
2.68242
2.68364
2.68545
2.68777
2.69051
2.69345
2.6965
2.69941
2.7022
2.68193
2.68169
2.68142
2.68141
2.68181
2.68269
2.68414
2.68622
2.68882
2.69182
2.69495
2.6981
2.70099
2.70363
2.68165
2.68144
2.68118
2.68127
2.6818
2.68288
2.6846
2.68698
2.68987
2.69312
2.69642
2.69965
2.7025
2.7051
2.68107
2.68087
2.6806
2.68082
2.68154
2.68292
2.68498
2.68769
2.69087
2.69431
2.69775
2.70095
2.70382
2.70627
2.69895
2.69894
2.69892
2.69905
2.69943
2.70001
2.70088
2.70212
2.70366
2.70559
2.70773
2.71016
2.71258
2.71531
2.69919
2.69906
2.69899
2.69907
2.69939
2.69996
2.70085
2.70214
2.70377
2.70584
2.7081
2.71065
2.71309
2.71575
2.69969
2.69946
2.69929
2.6993
2.69958
2.70012
2.70099
2.70228
2.70392
2.70599
2.70827
2.7108
2.71328
2.71593
2.70039
2.70005
2.69981
2.69978
2.70001
2.70052
2.70138
2.70267
2.70432
2.7064
2.70867
2.7112
2.71367
2.71628
2.7012
2.70079
2.7005
2.70045
2.70065
2.70114
2.70199
2.70327
2.70491
2.70697
2.70923
2.71172
2.71419
2.71678
2.70203
2.7016
2.70131
2.70127
2.70146
2.70196
2.70282
2.70412
2.70576
2.70779
2.71001
2.71247
2.71492
2.71749
2.7028
2.70241
2.70216
2.70216
2.70239
2.70295
2.70386
2.70519
2.70685
2.70886
2.71106
2.71347
2.71591
2.71844
2.70348
2.70317
2.70301
2.70308
2.7034
2.70405
2.70505
2.70646
2.70817
2.71019
2.71239
2.71476
2.71717
2.71965
2.70408
2.70389
2.70383
2.70399
2.70443
2.70521
2.70635
2.70787
2.70967
2.71175
2.71396
2.71631
2.71868
2.72108
2.70462
2.70457
2.70461
2.70489
2.70548
2.70642
2.70773
2.7094
2.71134
2.7135
2.71576
2.7181
2.72044
2.72273
2.70517
2.70525
2.70539
2.70581
2.70656
2.70768
2.70918
2.71104
2.71314
2.71543
2.71774
2.72008
2.72235
2.72452
2.70576
2.70597
2.7062
2.70676
2.70767
2.70898
2.71069
2.71275
2.71504
2.71745
2.71984
2.72219
2.7244
2.7264
2.70637
2.7067
2.70704
2.70775
2.70885
2.71037
2.71231
2.7146
2.71707
2.71961
2.72204
2.72437
2.72646
2.72838
2.70709
2.70763
2.70799
2.70889
2.71018
2.71192
2.71407
2.71652
2.7191
2.72169
2.72415
2.7264
2.72849
2.73027
2.71186
2.71169
2.71162
2.71178
2.71212
2.71276
2.71369
2.71495
2.7164
2.71809
2.71979
2.72163
2.72333
2.72536
2.71208
2.71199
2.71192
2.7121
2.71247
2.71319
2.7142
2.71555
2.71708
2.71886
2.72065
2.72256
2.72432
2.72618
2.71253
2.71243
2.71238
2.71258
2.71303
2.71382
2.71489
2.71628
2.71784
2.71962
2.72141
2.72331
2.72505
2.72691
2.7131
2.71305
2.71305
2.7133
2.71383
2.71468
2.71581
2.71724
2.71883
2.72062
2.72242
2.72431
2.72604
2.72784
2.71387
2.71385
2.71391
2.71425
2.71485
2.71576
2.71692
2.71837
2.71997
2.72175
2.72354
2.72539
2.7271
2.72886
2.71479
2.71483
2.71498
2.7154
2.71607
2.71703
2.71823
2.71968
2.72128
2.72302
2.72478
2.72658
2.72827
2.72999
2.71584
2.71597
2.71621
2.71672
2.71747
2.71848
2.71971
2.72116
2.72274
2.72444
2.72616
2.7279
2.72956
2.73122
2.717
2.71724
2.71759
2.71818
2.71901
2.72007
2.72134
2.72279
2.72435
2.726
2.72767
2.72933
2.73096
2.73255
2.71823
2.71861
2.71905
2.71975
2.72066
2.72179
2.72309
2.72455
2.7261
2.7277
2.72931
2.7309
2.73248
2.734
2.71954
2.72007
2.72062
2.72141
2.72241
2.7236
2.72495
2.72643
2.72798
2.72954
2.73109
2.73261
2.73414
2.73556
2.72089
2.72159
2.72222
2.72313
2.72422
2.7255
2.72691
2.72843
2.72998
2.73152
2.73301
2.73446
2.73591
2.73724
2.72238
2.72325
2.72395
2.72496
2.72614
2.72749
2.72896
2.73051
2.73207
2.73357
2.73503
2.73641
2.73781
2.73901
2.72384
2.72484
2.72562
2.72675
2.72805
2.72952
2.73109
2.73271
2.73429
2.73578
2.73718
2.73849
2.73976
2.74089
2.72557
2.72673
2.72758
2.7288
2.73019
2.73173
2.73334
2.73496
2.73651
2.73795
2.73929
2.7405
2.74172
2.7427
2.71876
2.71917
2.71951
2.72008
2.72075
2.7216
2.72254
2.72361
2.72467
2.7258
2.72684
2.72794
2.72889
2.73007
2.71926
2.71968
2.72006
2.72066
2.72141
2.72235
2.72338
2.72455
2.72569
2.72688
2.72799
2.72911
2.73011
2.73116
2.71998
2.72034
2.7208
2.72147
2.7223
2.72331
2.72441
2.72561
2.72679
2.72799
2.7291
2.73021
2.73118
2.73223
2.72083
2.72119
2.72172
2.72246
2.72336
2.72443
2.72558
2.72681
2.72802
2.72924
2.73035
2.73145
2.7324
2.73341
2.72187
2.72224
2.72283
2.72363
2.72459
2.72569
2.72688
2.72813
2.72935
2.73056
2.73168
2.73275
2.73368
2.73464
2.72311
2.7235
2.72414
2.72498
2.72597
2.72709
2.72829
2.72954
2.73075
2.73194
2.73304
2.73406
2.73498
2.73588
2.72449
2.72492
2.72559
2.72646
2.72747
2.7286
2.7298
2.73102
2.73221
2.73336
2.73442
2.7354
2.73628
2.73713
2.72601
2.7265
2.72719
2.72808
2.72909
2.7302
2.73137
2.73255
2.73371
2.7348
2.73581
2.73673
2.73759
2.73837
2.72758
2.72817
2.72887
2.72977
2.73078
2.73187
2.73301
2.73415
2.73525
2.73627
2.73722
2.73807
2.7389
2.73961
2.72922
2.72993
2.73063
2.73154
2.73253
2.7336
2.73469
2.73577
2.73681
2.73776
2.73865
2.73943
2.74023
2.74087
2.73084
2.73168
2.73238
2.73332
2.73431
2.73535
2.7364
2.73743
2.7384
2.73928
2.7401
2.74083
2.74158
2.74216
2.73251
2.73347
2.73419
2.73514
2.73611
2.73712
2.73813
2.73909
2.74
2.74081
2.74158
2.74226
2.74298
2.7435
2.73405
2.7351
2.73585
2.73685
2.73783
2.73884
2.73982
2.74075
2.74161
2.74238
2.74309
2.74373
2.74439
2.7449
2.73572
2.7368
2.73759
2.73858
2.73957
2.74056
2.7415
2.74238
2.7432
2.74391
2.74459
2.74519
2.74585
2.74634
2.72189
2.72265
2.72325
2.72395
2.72468
2.72543
2.72617
2.72692
2.72758
2.72824
2.72882
2.72943
2.72996
2.73065
2.72297
2.72358
2.7242
2.72491
2.72567
2.72647
2.72725
2.72804
2.72874
2.72944
2.73005
2.73068
2.73123
2.73192
2.72405
2.72458
2.72524
2.726
2.72679
2.72764
2.72845
2.72927
2.73001
2.73073
2.73134
2.73198
2.7325
2.73316
2.72519
2.72566
2.72637
2.72715
2.72799
2.72886
2.72971
2.73055
2.73132
2.73206
2.73269
2.73332
2.73384
2.73447
2.72637
2.72684
2.72758
2.72838
2.72925
2.73014
2.73102
2.73188
2.73267
2.73341
2.73406
2.73467
2.73518
2.73577
2.72765
2.72813
2.72887
2.72967
2.73055
2.73145
2.73235
2.73321
2.73402
2.73475
2.7354
2.736
2.7365
2.73703
2.72898
2.72948
2.73021
2.73101
2.73189
2.7328
2.7337
2.73456
2.73536
2.73608
2.73672
2.73728
2.73778
2.73825
2.73037
2.73091
2.73161
2.7324
2.73327
2.73417
2.73506
2.7359
2.73668
2.73737
2.73799
2.73852
2.739
2.73942
2.73178
2.73236
2.73304
2.73383
2.73469
2.73556
2.73643
2.73723
2.73799
2.73865
2.73924
2.73973
2.74019
2.74054
2.73321
2.73386
2.73452
2.73531
2.73614
2.73698
2.7378
2.73856
2.73928
2.73989
2.74045
2.7409
2.74134
2.74164
2.73462
2.73534
2.73598
2.73679
2.73758
2.73839
2.73917
2.73988
2.74055
2.74112
2.74164
2.74205
2.74247
2.74272
2.73599
2.73681
2.73746
2.73826
2.73902
2.73978
2.74051
2.74117
2.7418
2.74232
2.74281
2.74318
2.74359
2.7438
2.73726
2.73817
2.7388
2.73962
2.74037
2.74111
2.74181
2.74244
2.74303
2.74352
2.74396
2.74432
2.7447
2.74491
2.73854
2.73943
2.74013
2.74093
2.74168
2.7424
2.74306
2.74365
2.74421
2.74466
2.7451
2.74544
2.74584
2.74603
2.72197
2.72278
2.72356
2.72435
2.72508
2.7258
2.72645
2.72705
2.72755
2.728
2.72834
2.72864
2.72889
2.7291
2.72332
2.72397
2.72471
2.72548
2.72624
2.72697
2.72764
2.72826
2.72877
2.72924
2.72958
2.72991
2.73014
2.73042
2.72463
2.72521
2.72598
2.72674
2.72749
2.72822
2.72889
2.72951
2.73002
2.73049
2.73084
2.73116
2.73138
2.73164
2.72594
2.72645
2.72722
2.72796
2.72872
2.72946
2.73014
2.73076
2.7313
2.73177
2.73213
2.73245
2.73266
2.73293
2.72719
2.72769
2.72846
2.72919
2.72996
2.73069
2.73138
2.732
2.73254
2.73301
2.73337
2.73368
2.7339
2.73415
2.72844
2.72896
2.72971
2.73042
2.73118
2.73191
2.73259
2.73321
2.73375
2.73421
2.73457
2.73488
2.73509
2.73531
2.72965
2.7302
2.73092
2.73163
2.73238
2.73309
2.73377
2.73438
2.73491
2.73535
2.73571
2.736
2.73621
2.7364
2.73084
2.73143
2.73212
2.73281
2.73354
2.73424
2.7349
2.73549
2.736
2.73643
2.73678
2.73705
2.73726
2.73741
2.73196
2.73261
2.73326
2.73395
2.73466
2.73533
2.73597
2.73654
2.73705
2.73746
2.7378
2.73805
2.73825
2.73836
2.73304
2.73373
2.73437
2.73507
2.73574
2.73639
2.737
2.73754
2.73802
2.73842
2.73875
2.73898
2.73918
2.73926
2.73404
2.73478
2.73539
2.73609
2.73675
2.73737
2.73797
2.73849
2.73896
2.73935
2.73967
2.73988
2.74008
2.74013
2.73497
2.73574
2.73637
2.73708
2.73772
2.73833
2.7389
2.7394
2.73985
2.74022
2.74053
2.74074
2.74096
2.74099
2.73583
2.73661
2.73724
2.73796
2.7386
2.73922
2.73979
2.74028
2.74073
2.74109
2.7414
2.74161
2.74182
2.74187
2.73661
2.73742
2.7381
2.73883
2.73949
2.7401
2.74066
2.74114
2.74158
2.74192
2.74224
2.74248
2.74273
2.74275
2.71899
2.71944
2.72005
2.72065
2.72125
2.72184
2.72237
2.72286
2.72327
2.72364
2.72392
2.72419
2.72441
2.72458
2.72042
2.72073
2.72134
2.72189
2.72249
2.72305
2.72358
2.72406
2.72445
2.72481
2.72506
2.72533
2.72553
2.72573
2.72175
2.72204
2.72263
2.72315
2.72374
2.72426
2.72477
2.72522
2.72559
2.72593
2.72618
2.72643
2.7266
2.7268
2.723
2.7233
2.72385
2.72436
2.72492
2.72542
2.72592
2.72635
2.72672
2.72704
2.72729
2.72753
2.72769
2.7279
2.72412
2.72448
2.72501
2.72551
2.72605
2.72655
2.72702
2.72743
2.72779
2.72811
2.72836
2.72859
2.72876
2.72899
2.72521
2.72561
2.72612
2.72662
2.72714
2.72762
2.72808
2.72848
2.72883
2.72914
2.7294
2.72963
2.72981
2.73003
2.7262
2.72665
2.72716
2.72766
2.72817
2.72864
2.72908
2.72948
2.72983
2.73013
2.73039
2.73062
2.73082
2.73103
2.72716
2.72764
2.72815
2.72866
2.72915
2.72961
2.73004
2.73043
2.73078
2.73109
2.73136
2.73159
2.7318
2.73199
2.72804
2.72854
2.72906
2.72957
2.73006
2.73052
2.73095
2.73135
2.73171
2.73202
2.7323
2.73253
2.73275
2.73291
2.72886
2.72939
2.72992
2.73045
2.73093
2.73139
2.73183
2.73222
2.73259
2.7329
2.7332
2.73343
2.73368
2.73381
2.7296
2.73016
2.73071
2.73125
2.73175
2.73222
2.73267
2.73308
2.73346
2.73379
2.7341
2.73433
2.73459
2.7347
2.73031
2.73092
2.7315
2.73205
2.73257
2.73304
2.7335
2.73391
2.7343
2.73463
2.73495
2.73519
2.73548
2.73558
2.73098
2.7316
2.7322
2.73277
2.73332
2.73382
2.7343
2.73474
2.73515
2.7355
2.73583
2.73609
2.73639
2.7365
2.73163
2.73233
2.73297
2.73356
2.73413
2.73464
2.73513
2.73556
2.73597
2.73632
2.73667
2.73696
2.73728
2.73743
2.71513
2.71522
2.7155
2.71583
2.71621
2.71659
2.71697
2.71734
2.71769
2.71805
2.71837
2.71869
2.71896
2.71922
2.71643
2.71642
2.7167
2.717
2.71735
2.71769
2.71803
2.71837
2.71868
2.719
2.71927
2.71955
2.71979
2.72005
2.7175
2.71757
2.71783
2.71812
2.71844
2.71874
2.71904
2.71933
2.71961
2.71989
2.72014
2.7204
2.72062
2.72088
2.71852
2.71866
2.71891
2.71918
2.71946
2.71974
2.72001
2.72028
2.72053
2.72079
2.72102
2.72127
2.72147
2.72174
2.71942
2.71963
2.71989
2.72016
2.72043
2.72068
2.72093
2.72118
2.72141
2.72165
2.72188
2.72212
2.72233
2.72261
2.72029
2.72055
2.72082
2.72109
2.72135
2.72159
2.72183
2.72206
2.7223
2.72253
2.72276
2.72299
2.72322
2.72351
2.72107
2.72137
2.72167
2.72195
2.72221
2.72246
2.7227
2.72294
2.72317
2.7234
2.72363
2.72388
2.72413
2.72443
2.72182
2.72215
2.72248
2.72278
2.72305
2.72331
2.72356
2.72381
2.72405
2.7243
2.72455
2.7248
2.72509
2.72539
2.72251
2.72288
2.72323
2.72356
2.72387
2.72415
2.72442
2.72469
2.72496
2.72521
2.72549
2.72576
2.72608
2.72636
2.7232
2.72361
2.72401
2.72436
2.72469
2.725
2.72529
2.72558
2.72587
2.72615
2.72645
2.72674
2.7271
2.72737
2.72385
2.72431
2.72474
2.72513
2.7255
2.72584
2.72617
2.72649
2.72681
2.72712
2.72746
2.72776
2.72816
2.72841
2.7246
2.72509
2.72555
2.72596
2.72636
2.72672
2.72707
2.72741
2.72776
2.72809
2.72846
2.72879
2.72923
2.72947
2.7253
2.72581
2.72631
2.72675
2.72719
2.72759
2.72799
2.72836
2.72875
2.72913
2.72953
2.72989
2.73036
2.73062
2.72614
2.72671
2.72721
2.72767
2.72812
2.72853
2.72894
2.72933
2.72974
2.73013
2.73055
2.73095
2.73142
2.73177
2.7111
2.71093
2.71097
2.71102
2.71111
2.71125
2.71145
2.71171
2.71201
2.71237
2.71275
2.71316
2.71356
2.71398
2.71213
2.71196
2.71199
2.71204
2.71211
2.71224
2.71241
2.71263
2.71291
2.71323
2.71356
2.71392
2.71427
2.71464
2.71297
2.71289
2.71294
2.713
2.71308
2.71318
2.71333
2.71351
2.71374
2.71401
2.7143
2.71463
2.71495
2.71531
2.71383
2.71381
2.71387
2.71394
2.71401
2.7141
2.71422
2.71439
2.71459
2.71483
2.7151
2.71539
2.71568
2.71603
2.71459
2.71465
2.71474
2.71483
2.7149
2.71499
2.7151
2.71525
2.71542
2.71564
2.71588
2.71615
2.71643
2.71678
2.71536
2.71548
2.71559
2.71569
2.71578
2.71587
2.71598
2.71611
2.71628
2.71648
2.71671
2.71698
2.71725
2.71759
2.7161
2.71626
2.71641
2.71653
2.71664
2.71674
2.71685
2.71699
2.71715
2.71735
2.71757
2.71783
2.71811
2.71845
2.71684
2.71704
2.71722
2.71736
2.71749
2.71761
2.71774
2.71788
2.71805
2.71825
2.71848
2.71875
2.71906
2.71939
2.71757
2.71781
2.71802
2.71819
2.71835
2.7185
2.71865
2.71881
2.71899
2.7192
2.71945
2.71971
2.72005
2.72036
2.71834
2.71862
2.71885
2.71905
2.71923
2.7194
2.71957
2.71975
2.71996
2.72018
2.72046
2.72074
2.72111
2.72142
2.71911
2.71942
2.71968
2.71991
2.72013
2.72033
2.72053
2.72074
2.72097
2.72122
2.72152
2.72182
2.72222
2.7225
2.71998
2.7203
2.72058
2.72084
2.72107
2.72129
2.72152
2.72174
2.722
2.72228
2.72261
2.72294
2.72338
2.72366
2.72082
2.72116
2.72148
2.72176
2.72203
2.72228
2.72254
2.7228
2.72309
2.7234
2.72377
2.72413
2.72459
2.72489
2.72187
2.72218
2.72251
2.72279
2.72307
2.72333
2.7236
2.72388
2.72419
2.72452
2.7249
2.72529
2.72577
2.72616
2.70907
2.70884
2.70873
2.7086
2.70851
2.70846
2.70844
2.70847
2.70857
2.70874
2.70897
2.70927
2.70961
2.71002
2.70981
2.70959
2.7095
2.70939
2.70931
2.70926
2.70924
2.70927
2.70937
2.70953
2.70975
2.71003
2.71033
2.71069
2.71041
2.71027
2.71022
2.71014
2.71007
2.71003
2.71001
2.71004
2.71013
2.71026
2.71044
2.71068
2.71094
2.7113
2.71105
2.71097
2.71094
2.71088
2.71083
2.7108
2.71078
2.71081
2.71088
2.711
2.71117
2.7114
2.71164
2.71195
2.71167
2.71164
2.71163
2.7116
2.71157
2.71155
2.71154
2.71157
2.71163
2.71174
2.71188
2.71208
2.7123
2.71259
2.71233
2.71233
2.71234
2.71233
2.71231
2.7123
2.7123
2.71233
2.71239
2.71249
2.71263
2.71282
2.71303
2.71328
2.71298
2.71303
2.71306
2.71306
2.71306
2.71306
2.71307
2.7131
2.71316
2.71326
2.71339
2.71356
2.71377
2.714
2.71368
2.71375
2.7138
2.71381
2.71382
2.71383
2.71385
2.71388
2.71395
2.71405
2.71418
2.71435
2.71456
2.71478
2.71439
2.71449
2.71455
2.71458
2.71461
2.71463
2.71465
2.7147
2.71477
2.71487
2.71501
2.71517
2.7154
2.71559
2.71517
2.71527
2.71533
2.71538
2.71541
2.71544
2.71548
2.71554
2.71563
2.71574
2.71589
2.71605
2.7163
2.71647
2.71597
2.71607
2.71614
2.71621
2.71625
2.7163
2.71636
2.71643
2.71653
2.71664
2.7168
2.71698
2.71724
2.71739
2.71685
2.71693
2.71701
2.71708
2.71713
2.71718
2.71726
2.71735
2.71747
2.71759
2.71777
2.71796
2.71825
2.7184
2.71772
2.71781
2.7179
2.71798
2.71805
2.71812
2.71821
2.71832
2.71845
2.7186
2.71878
2.71899
2.71929
2.71945
2.71877
2.71878
2.71887
2.71894
2.71902
2.7191
2.7192
2.71932
2.71946
2.71962
2.71982
2.72006
2.72037
2.72061
2.70861
2.70842