/*--------------------------------*- C++ -*----------------------------------*\
| =========                 |                                                 |
| \\      /  F ield         | OpenFOAM: The Open Source CFD Toolbox           |
|  \\    /   O peration     | Version:  v2106                                 |
|   \\  /    A nd           | Website:  www.openfoam.com                      |
|    \\/     M anipulation  |                                                 |
\*---------------------------------------------------------------------------*/
FoamFile
{
    version     2.0;
    format      ascii;
    arch        "LSB;label=32;scalar=64";
    class       volScalarField;
    location    "0.000172";
    object      Ttot;
}
// * * * * * * * * * * * * * * * * * * * * * * * * * * * * * * * * * * * * * //

dimensions      [0 0 0 1 0 0 0];

internalField   nonuniform List<scalar> 
18109
(
299.799
299.663
299.521
299.396
299.318
299.298
299.357
299.803
299.657
299.435
299.277
299.164
299.129
299.16
299.739
299.565
299.338
299.192
299.07
299.024
299.027
299.62
299.412
299.197
299.064
298.952
298.904
298.894
299.44
299.23
299.038
298.925
298.834
298.793
298.781
299.235
299.053
298.891
298.798
298.726
298.688
298.673
299.03
298.891
298.774
298.693
298.64
298.599
298.58
298.852
298.761
298.687
298.616
298.569
298.521
298.494
300.11
300.018
299.894
299.783
299.707
299.679
299.717
299.8
299.938
300.101
300.258
300.391
300.472
300.487
300.074
299.97
299.791
299.659
299.56
299.527
299.546
299.623
299.744
299.903
300.064
300.197
300.293
300.303
299.972
299.85
299.676
299.563
299.464
299.43
299.43
299.486
299.573
299.699
299.836
299.965
300.071
300.147
299.818
299.679
299.517
299.42
299.337
299.307
299.303
299.347
299.417
299.521
299.636
299.749
299.854
299.967
299.624
299.488
299.353
299.273
299.211
299.187
299.184
299.218
299.273
299.355
299.453
299.559
299.67
299.823
299.428
299.317
299.21
299.144
299.097
299.072
299.068
299.09
299.132
299.199
299.285
299.387
299.509
299.68
299.247
299.171
299.1
299.044
299.007
298.977
298.968
298.978
299.008
299.061
299.138
299.243
299.377
299.557
299.106
299.066
299.026
298.975
298.935
298.896
298.877
298.878
298.899
298.945
299.017
299.126
299.269
299.445
299.008
299.005
298.99
298.944
298.892
298.841
298.809
298.802
298.816
298.855
298.926
299.04
299.19
299.352
298.969
298.993
298.987
298.935
298.863
298.8
298.751
298.731
298.74
298.779
298.853
298.976
299.124
299.265
298.958
299.009
299.012
298.956
298.863
298.782
298.714
298.677
298.674
298.714
298.797
298.932
299.061
299.183
298.963
299.057
299.05
298.988
298.873
298.775
298.682
298.626
298.604
298.637
298.716
298.837
298.96
299.031
298.938
299.088
299.072
299.045
298.92
298.803
298.675
298.587
298.533
298.552
298.611
298.717
298.814
298.898
298.912
299.042
299.035
299.062
298.96
298.849
298.697
298.576
298.477
298.45
298.44
298.46
298.449
298.53
299.774
299.766
299.667
299.654
299.663
299.665
300.116
300.118
300.036
300.007
299.991
299.983
299.958
299.964
299.913
299.923
299.921
299.94
299.894
299.935
299.957
299.98
299.94
299.675
299.847
299.911
299.953
299.975
299.792
299.053
299.82
299.908
299.97
299.967
299.577
298.365
299.828
299.958
300.055
299.957
299.382
297.834
299.915
300.094
300.203
300.035
299.21
297.446
300.025
300.221
300.29
300.062
299.111
297.273
300.175
300.355
300.388
300.044
299.001
297.409
300.332
300.46
300.432
300.006
299.037
297.916
300.453
300.527
300.426
299.987
299.288
298.733
300.501
300.536
300.402
300.076
299.73
299.564
300.541
300.568
300.441
300.277
300.198
300.221
300.493
300.549
300.472
300.47
300.562
300.652
300.511
300.6
300.591
300.702
300.845
300.932
300.263
300.367
300.426
300.596
300.747
300.81
300.204
300.38
300.48
300.574
300.596
300.347
300.096
300.297
300.394
300.46
300.232
299.29
299.989
300.191
300.288
300.205
299.557
297.952
299.859
300.031
300.088
299.835
298.738
296.626
299.733
299.857
299.83
299.335
297.923
295.625
299.592
299.658
299.529
298.812
297.271
295.202
299.46
299.458
299.2
298.363
296.909
295.312
299.32
299.249
298.896
298.058
296.909
296.001
299.198
299.047
298.643
297.921
297.243
296.869
298.983
298.778
298.412
297.902
297.637
297.561
298.813
298.567
298.273
297.969
297.895
297.911
298.37
298.151
297.932
297.782
297.795
297.862
298.294
298.209
298.034
297.905
297.761
297.481
298.152
297.968
297.761
297.608
297.282
296.486
298.238
298.052
297.792
297.431
296.621
294.992
298.255
298.083
297.762
297.127
295.696
293.444
298.318
298.178
297.779
296.784
294.755
292.195
298.398
298.274
297.781
296.497
294.131
291.48
298.557
298.414
297.844
296.396
294.047
291.424
298.717
298.574
297.88
296.399
294.285
292.02
298.852
298.65
297.94
296.527
294.67
293.047
298.929
298.673
297.932
296.694
295.258
294.283
298.964
298.646
297.989
296.948
296.038
295.538
298.856
298.504
297.939
297.255
296.804
296.652
298.841
298.481
298.026
297.554
297.349
297.298
298.637
298.331
297.92
297.583
297.49
297.448
299.77
299.836
299.56
298.847
298.073
297.73
299.843
299.841
299.576
299.091
298.68
298.587
299.841
299.811
299.617
299.323
299.145
299.133
299.743
299.76
299.614
299.511
299.474
299.469
298.685
298.458
298.133
297.879
297.755
297.436
298.64
298.374
298.048
297.857
297.593
296.941
298.712
298.502
298.234
297.998
297.365
295.92
298.789
298.629
298.407
298.058
297.017
294.854
298.874
298.781
298.611
298.076
296.622
294.083
298.992
298.969
298.807
298.13
296.354
293.814
299.166
299.216
299.07
298.247
296.389
294.01
299.372
299.462
299.293
298.455
296.737
294.589
299.584
299.696
299.524
298.741
297.189
295.513
299.778
299.884
299.714
299.009
297.723
296.621
299.955
300.038
299.844
299.198
298.296
297.683
300.075
300.1
299.88
299.399
298.843
298.601
300.117
300.097
299.927
299.613
299.347
299.275
300.056
300.068
299.929
299.827
299.755
299.709
299.752
298.413
296.225
298.068
303.118
298.838
295.656
293.112
297.787
305.296
297.469
293.4
292.205
298.9
307.743
296.068
291.949
292.689
301.806
311.6
295.035
291.725
294.597
305.21
314.371
294.416
292.062
296.546
308.36
317.029
294.357
293.265
298.665
309.819
317.276
294.898
295.07
300.819
310.912
317.273
315.481
296.007
297.141
302.729
311.391
316.232
314.69
297.413
299.155
304.219
310.888
315.126
314.719
298.813
300.794
304.961
309.637
312.821
313.888
312.345
300.053
301.91
304.968
307.901
309.99
311.658
312.192
309.558
300.868
302.316
304.49
305.766
307.507
308.583
308.648
312.793
301.178
302.258
303.134
302.816
304.209
306.579
308.462
307.695
301.145
301.109
300.574
300.75
304.174
308.098
308.522
305.448
300.19
298.331
296.856
299.667
305.951
309.639
309.133
307.678
298.396
295.224
294.52
300.066
307.895
311.353
311.235
307.787
296.177
292.732
294.397
302.784
312.397
315.681
313.025
306.002
294.282
291.896
295.763
305.75
314.322
315.619
312.429
304.32
293.135
292.208
297.925
308.901
317.142
317.362
312.497
306.812
292.844
293.201
299.578
309.312
315.838
315.907
312.79
306.778
293.251
294.847
301.628
310.194
316.348
316.114
311.153
306.963
294.405
296.749
303.152
310.134
314.432
314.15
295.919
298.628
303.921
309.121
312.917
314.206
297.223
299.768
303.675
307.475
310.137
312.266
298.065
300.075
302.476
304.75
308.055
310.773
298.236
299.167
299.695
301.64
306.649
309.657
297.507
296.706
296.323
299.863
306.445
295.944
293.502
294.036
301.063
309.461
293.742
290.821
293.45
302.476
311.416
291.719
289.739
294.798
304.443
312.893
289.98
289.391
295.958
306.41
314.179
289.001
289.592
297.14
307.668
313.874
288.648
289.752
297.64
308.211
314.539
289.237
291.183
298.968
307.423
311.965
290.743
293.354
300.793
307.627
310.674
292.666
295.809
302.306
306.933
308.198
294.592
297.758
302.65
305.146
306.087
296.133
298.62
301.775
302.551
302.991
297.196
298.541
299.494
299.685
301.467
297.437
297.253
296.372
297.552
301.443
297.01
294.868
293.386
297.271
304.149
295.613
291.951
291.558
299.667
308.467
293.785
289.777
291.366
301.184
310.96
292.167
288.887
292.809
303.589
312.243
290.937
288.75
294.121
305.995
314.936
290.299
289.264
295.973
308.285
315.289
290.386
290.293
297.649
310.046
316.653
291.284
291.962
299.04
309.324
314.33
292.777
294.118
300.817
309.348
313.745
294.545
296.409
302.452
308.811
311.117
296.33
298.436
303.553
307.383
308.746
297.851
299.877
303.686
305.614
306.099
298.985
300.722
303.333
303.967
303.82
299.677
300.838
301.904
301.872
302.69
299.907
300.255
299.616
299.253
300.487
300.756
300.722
300.638
300.56
300.506
300.482
300.503
300.56
300.658
300.791
300.936
301.076
301.197
301.27
300.637
300.623
300.518
300.437
300.374
300.355
300.366
300.425
300.518
300.648
300.79
300.93
301.041
301.105
300.459
300.458
300.371
300.319
300.271
300.26
300.266
300.317
300.394
300.503
300.625
300.753
300.867
300.967
300.264
300.257
300.191
300.165
300.136
300.138
300.151
300.198
300.268
300.363
300.471
300.587
300.693
300.81
300.065
300.06
300.021
300.015
300.004
300.016
300.032
300.076
300.139
300.224
300.324
300.435
300.545
300.688
299.891
299.893
299.883
299.887
299.886
299.898
299.914
299.951
300.008
300.083
300.175
300.284
300.4
300.56
299.751
299.774
299.787
299.795
299.796
299.801
299.812
299.837
299.883
299.947
300.032
300.142
300.27
300.442
299.658
299.703
299.729
299.731
299.725
299.717
299.716
299.729
299.763
299.818
299.9
300.013
300.152
300.327
299.619
299.684
299.711
299.705
299.682
299.656
299.639
299.638
299.658
299.705
299.784
299.902
300.05
300.228
299.63
299.697
299.722
299.7
299.647
299.599
299.561
299.547
299.557
299.599
299.679
299.806
299.96
300.13
299.662
299.748
299.763
299.721
299.634
299.559
299.493
299.462
299.464
299.507
299.595
299.738
299.886
300.048
299.706
299.816
299.807
299.746
299.621
299.517
299.422
299.375
299.368
299.41
299.496
299.644
299.789
299.924
299.732
299.874
299.838
299.786
299.64
299.504
299.371
299.294
299.271
299.314
299.398
299.552
299.693
299.841
299.735
299.856
299.815
299.803
299.654
299.499
299.332
299.229
299.19
299.216
299.261
299.36
299.427
299.582
302.148
302.175
302.156
302.14
302.118
302.114
302.124
302.163
302.22
302.307
302.421
302.551
302.69
302.782
301.985
302.04
302.028
302.032
302.02
302.023
302.033
302.072
302.131
302.217
302.327
302.448
302.575
302.677
301.792
301.861
301.872
301.903
301.912
301.931
301.95
301.989
302.046
302.124
302.224
302.333
302.453
302.557
301.602
301.676
301.713
301.763
301.792
301.822
301.85
301.893
301.951
302.028
302.124
302.228
302.339
302.445
301.438
301.522
301.576
301.634
301.673
301.709
301.744
301.788
301.849
301.924
302.018
302.12
302.226
302.341
301.306
301.401
301.469
301.528
301.57
301.605
301.641
301.685
301.747
301.822
301.913
302.014
302.12
302.246
301.224
301.325
301.402
301.458
301.496
301.524
301.553
301.591
301.648
301.719
301.809
301.911
302.023
302.163
301.193
301.299
301.376
301.42
301.444
301.457
301.474
301.501
301.549
301.616
301.705
301.811
301.932
302.086
301.198
301.307
301.379
301.41
301.413
301.406
301.406
301.418
301.455
301.516
301.604
301.716
301.848
302.012
301.231
301.338
301.396
301.404
301.38
301.349
301.332
301.333
301.359
301.416
301.505
301.625
301.769
301.939
301.285
301.388
301.421
301.404
301.351
301.293
301.256
301.246
301.264
301.319
301.414
301.548
301.704
301.877
301.333
301.435
301.434
301.393
301.307
301.226
301.168
301.149
301.164
301.224
301.328
301.481
301.643
301.81
301.36
301.483
301.446
301.393
301.277
301.164
301.08
301.049
301.06
301.131
301.253
301.429
301.597
301.787
301.37
301.479
301.415
301.369
301.237
301.099
300.996
300.96
300.97
301.046
301.164
301.329
301.465
301.662
303.418
303.493
303.527
303.558
303.569
303.581
303.591
303.617
303.665
303.737
303.844
303.976
304.128
304.269
303.269
303.351
303.397
303.444
303.471
303.494
303.515
303.547
303.597
303.67
303.771
303.892
304.031
304.178
303.124
303.211
303.271
303.33
303.372
303.408
303.44
303.479
303.534
303.606
303.702
303.815
303.947
304.085
303
303.087
303.157
303.223
303.274
303.317
303.357
303.402
303.461
303.535
303.631
303.741
303.865
303.995
302.904
302.994
303.069
303.137
303.191
303.236
303.28
303.328
303.391
303.467
303.563
303.672
303.79
303.916
302.849
302.938
303.014
303.078
303.13
303.173
303.216
303.265
303.329
303.408
303.503
303.612
303.726
303.853
302.835
302.92
302.994
303.052
303.096
303.132
303.17
303.216
303.279
303.358
303.453
303.561
303.676
303.811
302.851
302.934
303
303.047
303.079
303.104
303.134
303.175
303.235
303.313
303.409
303.519
303.64
303.786
302.885
302.966
303.025
303.058
303.074
303.085
303.105
303.14
303.196
303.273
303.371
303.487
303.619
303.777
302.942
303.014
303.054
303.066
303.062
303.06
303.07
303.099
303.154
303.234
303.337
303.461
303.605
303.777
303.001
303.06
303.076
303.069
303.043
303.026
303.029
303.054
303.108
303.195
303.307
303.445
303.601
303.789
303.049
303.095
303.083
303.054
303.007
302.976
302.974
302.998
303.057
303.156
303.283
303.44
303.605
303.81
303.07
303.112
303.077
303.032
302.967
302.922
302.912
302.936
303.002
303.118
303.266
303.447
303.622
303.842
303.05
303.098
303.044
302.994
302.916
302.862
302.851
302.879
302.954
303.088
303.25
303.445
303.622
303.835
304.76
304.852
304.916
304.973
305.012
305.042
305.069
305.104
305.156
305.23
305.332
305.461
305.615
305.773
304.681
304.762
304.829
304.888
304.932
304.968
305.002
305.043
305.102
305.182
305.288
305.418
305.565
305.732
304.614
304.69
304.756
304.813
304.859
304.899
304.939
304.987
305.051
305.135
305.242
305.371
305.517
305.679
304.578
304.641
304.703
304.756
304.801
304.842
304.885
304.936
305.004
305.091
305.2
305.33
305.473
305.631
304.572
304.624
304.676
304.722
304.763
304.802
304.845
304.899
304.969
305.058
305.168
305.298
305.438
305.592
304.586
304.632
304.675
304.712
304.746
304.781
304.823
304.876
304.947
305.039
305.149
305.278
305.414
305.566
304.62
304.659
304.695
304.723
304.749
304.778
304.817
304.871
304.943
305.037
305.148
305.276
305.411
305.56
304.672
304.701
304.725
304.743
304.76
304.784
304.82
304.875
304.951
305.048
305.162
305.29
305.425
305.574
304.732
304.75
304.761
304.766
304.776
304.794
304.828
304.884
304.964
305.065
305.183
305.314
305.453
305.607
304.791
304.796
304.794
304.785
304.784
304.798
304.831
304.891
304.976
305.086
305.211
305.348
305.492
305.652
304.841
304.831
304.815
304.792
304.781
304.792
304.826
304.892
304.986
305.106
305.242
305.389
305.541
305.71
304.866
304.849
304.816
304.782
304.764
304.773
304.81
304.884
304.992
305.128
305.278
305.438
305.599
305.777
304.861
304.849
304.807
304.764
304.74
304.748
304.787
304.87
304.992
305.147
305.315
305.493
305.663
305.852
304.844
304.836
304.778
304.732
304.707
304.719
304.765
304.861
305.001
305.17
305.358
305.551
305.729
305.915
306.013
306.057
306.098
306.135
306.167
306.2
306.238
306.29
306.357
306.447
306.557
306.689
306.835
307
305.999
306.031
306.065
306.097
306.127
306.159
306.201
306.257
306.331
306.428
306.545
306.685
306.83
306.995
306.006
306.028
306.051
306.074
306.099
306.13
306.172
306.23
306.307
306.408
306.527
306.667
306.814
306.976
306.028
306.04
306.055
306.07
306.09
306.119
306.16
306.219
306.297
306.398
306.518
306.657
306.802
306.962
306.063
306.065
306.071
306.08
306.097
306.124
306.164
306.222
306.3
306.401
306.519
306.657
306.801
306.959
306.106
306.101
306.099
306.101
306.115
306.14
306.179
306.238
306.316
306.417
306.535
306.671
306.813
306.969
306.152
306.143
306.134
306.132
306.142
306.166
306.205
306.265
306.346
306.449
306.567
306.703
306.843
306.996
306.198
306.183
306.17
306.164
306.173
306.197
306.239
306.303
306.388
306.495
306.616
306.752
306.891
307.041
306.239
306.219
306.202
306.195
306.204
306.229
306.276
306.348
306.441
306.554
306.679
306.817
306.956
307.103
306.27
306.247
306.227
306.22
306.231
306.261
306.315
306.396
306.499
306.622
306.754
306.894
307.034
307.18
306.296
306.269
306.247
306.24
306.252
306.288
306.352
306.445
306.56
306.694
306.835
306.98
307.121
307.267
306.31
306.283
306.26
306.254
306.268
306.31
306.386
306.493
306.623
306.77
306.922
307.073
307.216
307.361
306.32
306.295
306.274
306.27
306.287
306.335
306.421
306.542
306.688
306.849
307.011
307.17
307.312
307.459
306.32
306.303
306.283
306.283
306.305
306.363
306.462
306.597
306.756
306.928
307.101
307.265
307.411
307.552
307.009
307.009
307.008
307.014
307.032
307.06
307.102
307.164
307.24
307.336
307.442
307.564
307.685
307.825
307.019
307.011
307.007
307.011
307.027
307.056
307.1
307.165
307.246
307.348
307.46
307.587
307.71
307.846
307.041
307.027
307.019
307.02
307.035
307.063
307.107
307.172
307.253
307.356
307.468
307.595
307.72
307.855
307.073
307.055
307.043
307.043
307.056
307.083
307.126
307.191
307.273
307.376
307.489
307.615
307.739
307.872
307.113
307.092
307.078
307.077
307.089
307.115
307.157
307.221
307.303
307.405
307.517
307.641
307.766
307.897
307.157
307.134
307.12
307.119
307.131
307.157
307.2
307.264
307.346
307.446
307.557
307.679
307.802
307.932
307.201
307.179
307.166
307.166
307.179
307.207
307.253
307.319
307.401
307.501
307.61
307.73
307.853
307.98
307.242
307.223
307.213
307.216
307.232
307.264
307.314
307.384
307.469
307.569
307.678
307.796
307.917
308.041
307.28
307.266
307.26
307.266
307.287
307.326
307.382
307.457
307.546
307.649
307.759
307.876
307.995
308.115
307.315
307.309
307.306
307.316
307.344
307.39
307.454
307.537
307.632
307.739
307.851
307.968
308.086
308.202
307.352
307.351
307.352
307.367
307.402
307.457
307.531
307.623
307.726
307.839
307.954
308.072
308.186
308.298
307.392
307.396
307.4
307.421
307.464
307.528
307.612
307.713
307.826
307.946
308.065
308.183
308.295
308.402
307.434
307.443
307.452
307.48
307.53
307.604
307.699
307.812
307.934
308.061
308.182
308.3
308.407
308.512
307.487
307.507
307.516
307.552
307.61
307.692
307.796
307.916
308.044
308.173
308.298
308.415
308.522
308.622
307.684
307.677
307.673
307.681
307.696
307.727
307.772
307.834
307.905
307.99
308.074
308.168
308.254
308.358
307.693
307.689
307.685
307.693
307.711
307.746
307.795
307.862
307.938
308.027
308.116
308.213
308.302
308.398
307.714
307.708
307.706
307.716
307.737
307.775
307.827
307.895
307.972
308.061
308.151
308.247
308.336
308.432
307.742
307.738
307.738
307.75
307.775
307.816
307.871
307.941
308.019
308.108
308.198
308.293
308.382
308.475
307.781
307.778
307.781
307.797
307.825
307.868
307.924
307.995
308.074
308.162
308.252
308.345
308.433
308.525
307.828
307.828
307.834
307.853
307.885
307.931
307.988
308.059
308.138
308.224
308.313
308.404
308.491
308.58
307.882
307.886
307.896
307.919
307.954
308.002
308.062
308.132
308.21
308.295
308.381
308.469
308.555
308.641
307.943
307.952
307.966
307.993
308.032
308.082
308.143
308.214
308.291
308.373
308.457
308.542
308.627
308.71
308.008
308.024
308.042
308.073
308.115
308.169
308.232
308.303
308.379
308.46
308.542
308.624
308.707
308.785
308.079
308.102
308.123
308.159
308.205
308.261
308.327
308.399
308.475
308.553
308.634
308.712
308.794
308.867
308.152
308.182
308.208
308.248
308.299
308.359
308.427
308.501
308.578
308.656
308.733
308.81
308.887
308.957
308.232
308.27
308.299
308.343
308.398
308.462
308.533
308.609
308.686
308.762
308.839
308.912
308.987
309.052
308.312
308.355
308.387
308.437
308.498
308.568
308.644
308.723
308.802
308.878
308.951
309.021
309.09
309.152
308.406
308.456
308.491
308.546
308.611
308.684
308.761
308.841
308.918
308.991
309.062
309.127
309.193
309.249
308.086
308.105
308.119
308.145
308.176
308.216
308.26
308.313
308.365
308.422
308.475
308.533
308.583
308.644
308.109
308.129
308.145
308.172
308.206
308.25
308.299
308.356
308.412
308.472
308.529
308.588
308.64
308.696
308.144
308.16
308.18
308.21
308.248
308.295
308.347
308.406
308.464
308.524
308.581
308.639
308.69
308.746
308.185
308.201
308.224
308.257
308.298
308.348
308.403
308.463
308.522
308.583
308.64
308.697
308.747
308.801
308.236
308.251
308.278
308.313
308.357
308.409
308.465
308.526
308.586
308.646
308.703
308.759
308.808
308.86
308.296
308.313
308.341
308.378
308.424
308.477
308.534
308.594
308.654
308.713
308.769
308.822
308.871
308.92
308.364
308.383
308.412
308.451
308.497
308.551
308.608
308.667
308.725
308.782
308.837
308.888
308.936
308.982
308.439
308.462
308.491
308.531
308.578
308.63
308.686
308.743
308.8
308.854
308.906
308.955
309.002
309.045
308.519
308.546
308.576
308.616
308.662
308.714
308.768
308.823
308.877
308.928
308.979
309.024
309.07
309.11
308.603
308.636
308.665
308.706
308.752
308.801
308.853
308.905
308.956
309.004
309.052
309.095
309.14
309.177
308.688
308.726
308.755
308.797
308.842
308.89
308.941
308.99
309.038
309.083
309.128
309.169
309.213
309.246
308.775
308.819
308.849
308.891
308.935
308.982
309.029
309.075
309.121
309.163
309.205
309.245
309.287
309.318
308.856
308.903
308.935
308.98
309.025
309.071
309.118
309.163
309.206
309.246
309.285
309.323
309.361
309.391
308.943
308.991
309.026
309.071
309.116
309.162
309.206
309.249
309.289
309.326
309.363
309.398
309.436
309.464
308.286
308.321
308.347
308.378
308.411
308.446
308.481
308.518
308.55
308.584
308.614
308.647
308.676
308.712
308.336
308.365
308.393
308.425
308.459
308.496
308.532
308.57
308.604
308.64
308.671
308.705
308.734
308.771
308.389
308.413
308.443
308.476
308.512
308.551
308.589
308.628
308.664
308.7
308.732
308.766
308.794
308.83
308.444
308.465
308.497
308.531
308.569
308.609
308.649
308.689
308.727
308.763
308.796
308.829
308.857
308.892
308.502
308.522
308.555
308.59
308.629
308.671
308.712
308.753
308.791
308.828
308.861
308.894
308.922
308.954
308.564
308.584
308.617
308.653
308.693
308.734
308.776
308.817
308.856
308.893
308.926
308.958
308.986
309.016
308.629
308.65
308.682
308.718
308.758
308.8
308.842
308.883
308.922
308.958
308.991
309.021
309.049
309.076
308.697
308.721
308.752
308.787
308.826
308.868
308.909
308.949
308.987
309.022
309.054
309.083
309.111
309.135
308.767
308.793
308.823
308.859
308.897
308.937
308.977
309.016
309.053
309.086
309.118
309.145
309.172
309.194
308.84
308.869
308.898
308.933
308.97
309.008
309.047
309.083
309.118
309.149
309.18
309.206
309.233
309.252
308.912
308.945
308.972
309.008
309.043
309.08
309.117
309.15
309.184
309.214
309.243
309.268
309.294
309.311
308.984
309.021
309.048
309.084
309.117
309.152
309.186
309.217
309.249
309.276
309.305
309.328
309.354
309.369
309.049
309.09
309.117
309.154
309.187
309.221
309.254
309.284
309.314
309.34
309.366
309.389
309.413
309.427
309.114
309.155
309.186
309.222
309.256
309.289
309.32
309.349
309.377
309.401
309.426
309.447
309.471
309.484
308.314
308.351
308.387
308.422
308.456
308.49
308.52
308.55
308.574
308.598
308.616
308.635
308.65
308.663
308.377
308.408
308.442
308.477
308.512
308.546
308.577
308.607
308.632
308.656
308.674
308.693
308.708
308.724
308.44
308.468
308.503
308.537
308.572
308.605
308.637
308.666
308.692
308.716
308.734
308.753
308.767
308.783
308.504
308.527
308.562
308.596
308.63
308.665
308.697
308.727
308.753
308.777
308.796
308.815
308.828
308.845
308.565
308.587
308.622
308.655
308.69
308.724
308.757
308.787
308.813
308.837
308.857
308.875
308.888
308.904
308.626
308.649
308.683
308.715
308.75
308.784
308.816
308.846
308.872
308.896
308.916
308.933
308.947
308.962
308.685
308.709
308.742
308.774
308.808
308.842
308.874
308.903
308.93
308.953
308.972
308.989
309.003
309.016
308.743
308.77
308.801
308.833
308.867
308.899
308.931
308.959
308.985
309.007
309.026
309.042
309.056
309.067
308.8
308.829
308.859
308.891
308.923
308.955
308.985
309.013
309.038
309.06
309.079
309.094
309.107
309.116
308.856
308.887
308.916
308.948
308.979
309.009
309.038
309.064
309.089
309.109
309.128
309.143
309.157
309.163
308.909
308.942
308.97
309.002
309.032
309.061
309.089
309.114
309.138
309.158
309.177
309.19
309.204
309.21
308.958
308.993
309.022
309.054
309.083
309.111
309.138
309.162
309.185
309.204
309.223
309.236
309.251
309.256
309.004
309.039
309.067
309.1
309.13
309.158
309.185
309.209
309.232
309.251
309.268
309.282
309.295
309.301
309.044
309.081
309.113
309.146
309.177
309.206
309.232
309.255
309.277
309.294
309.312
309.326
309.34
309.343
308.185
308.206
308.235
308.262
308.291
308.318
308.343
308.367
308.386
308.405
308.419
308.434
308.446
308.456
308.253
308.268
308.296
308.322
308.35
308.376
308.401
308.424
308.443
308.46
308.473
308.487
308.499
308.51
308.317
308.331
308.358
308.383
308.41
308.434
308.458
308.479
308.497
308.514
308.526
308.54
308.55
308.561
308.377
308.391
308.417
308.44
308.466
308.49
308.513
308.534
308.552
308.568
308.58
308.593
308.603
308.615
308.432
308.448
308.473
308.496
308.521
308.544
308.566
308.586
308.604
308.619
308.632
308.646
308.655
308.668
308.485
308.503
308.527
308.55
308.574
308.596
308.618
308.637
308.655
308.67
308.684
308.696
308.707
308.719
308.533
308.554
308.577
308.601
308.624
308.646
308.667
308.686
308.703
308.719
308.733
308.745
308.757
308.769
308.58
308.603
308.626
308.65
308.672
308.694
308.715
308.733
308.751
308.766
308.781
308.793
308.805
308.816
308.624
308.647
308.671
308.695
308.718
308.739
308.76
308.779
308.797
308.813
308.828
308.84
308.853
308.862
308.666
308.69
308.715
308.739
308.762
308.783
308.804
308.823
308.842
308.857
308.873
308.886
308.9
308.909
308.704
308.73
308.755
308.78
308.803
308.825
308.847
308.867
308.886
308.902
308.919
308.932
308.947
308.955
308.741
308.769
308.796
308.821
308.845
308.868
308.89
308.909
308.929
308.945
308.962
308.976
308.993
309
308.775
308.804
308.832
308.858
308.884
308.908
308.931
308.952
308.972
308.99
309.008
309.022
309.039
309.046
308.808
308.841
308.871
308.899
308.926
308.95
308.973
308.994
309.014
309.032
309.05
309.066
309.082
309.09
308
308.004
308.018
308.033
308.051
308.069
308.087
308.105
308.122
308.139
308.155
308.171
308.186
308.199
308.062
308.062
308.075
308.089
308.105
308.122
308.138
308.154
308.169
308.185
308.198
308.213
308.225
308.239
308.114
308.117
308.13
308.143
308.158
308.172
308.186
308.2
308.214
308.228
308.24
308.254
308.265
308.279
308.163
308.17
308.182
308.194
308.207
308.22
308.233
308.246
308.259
308.272
308.283
308.296
308.307
308.321
308.207
308.217
308.229
308.241
308.254
308.266
308.278
308.29
308.302
308.314
308.325
308.338
308.349
308.364
308.25
308.261
308.274
308.286
308.299
308.31
308.322
308.334
308.345
308.357
308.369
308.381
308.393
308.409
308.288
308.302
308.316
308.329
308.341
308.353
308.365
308.377
308.388
308.4
308.412
308.425
308.438
308.454
308.325
308.34
308.356
308.37
308.383
308.395
308.407
308.42
308.432
308.445
308.457
308.471
308.486
308.501
308.359
308.377
308.393
308.409
308.423
308.437
308.45
308.463
308.477
308.49
308.504
308.518
308.534
308.549
308.394
308.414
308.432
308.449
308.464
308.479
308.493
308.508
308.522
308.536
308.552
308.566
308.585
308.599
308.428
308.449
308.469
308.487
308.505
308.521
308.537
308.553
308.569
308.584
308.601
308.617
308.638
308.651
308.466
308.489
308.51
308.529
308.548
308.565
308.582
308.599
308.616
308.632
308.651
308.668
308.691
308.705
308.501
308.525
308.548
308.569
308.59
308.609
308.628
308.646
308.665
308.684
308.704
308.723
308.747
308.761
308.543
308.569
308.593
308.615
308.637
308.656
308.676
308.695
308.715
308.734
308.755
308.775
308.798
308.815
307.805
307.797
307.799
307.801
307.805
307.812
307.822
307.834
307.849
307.866
307.885
307.905
307.924
307.945
307.854
307.847
307.848
307.85
307.854
307.859
307.868
307.879
307.892
307.907
307.924
307.941
307.958
307.977
307.895
307.891
307.894
307.896
307.9
307.905
307.912
307.921
307.932
307.946
307.96
307.976
307.992
308.01
307.936
307.936
307.939
307.942
307.945
307.95
307.956
307.964
307.974
307.986
307.999
308.014
308.028
308.045
307.974
307.976
307.981
307.985
307.988
307.993
307.999
308.006
308.015
308.025
308.037
308.051
308.065
308.082
308.011
308.017
308.022
308.027
308.031
308.036
308.041
308.048
308.057
308.067
308.078
308.091
308.105
308.122
308.047
308.055
308.062
308.068
308.073
308.078
308.084
308.091
308.099
308.109
308.12
308.133
308.148
308.164
308.084
308.093
308.102
308.109
308.115
308.121
308.128
308.135
308.144
308.154
308.165
308.178
308.194
308.21
308.12
308.132
308.141
308.15
308.157
308.165
308.172
308.18
308.19
308.2
308.212
308.226
308.242
308.258
308.158
308.172
308.182
308.192
308.201
308.209
308.218
308.227
308.237
308.248
308.262
308.276
308.294
308.31
308.197
308.212
308.224
308.235
308.245
308.255
308.265
308.275
308.286
308.299
308.313
308.329
308.349
308.363
308.24
308.255
308.268
308.28
308.291
308.302
308.313
308.324
308.337
308.35
308.366
308.383
308.405
308.42
308.282
308.298
308.313
308.326
308.339
308.351
308.363
308.376
308.39
308.405
308.423
308.441
308.464
308.48
308.333
308.347
308.363
308.377
308.39
308.402
308.416
308.429
308.444
308.46
308.479
308.498
308.522
308.541
307.705
307.694
307.689
307.683
307.679
307.676
307.675
307.676
307.681
307.689
307.7
307.715
307.732
307.751
307.74
307.73
307.726
307.721
307.717
307.714
307.714
307.715
307.72
307.728
307.738
307.751
307.766
307.784
307.769
307.763
307.761
307.757
307.754
307.752
307.751
307.753
307.757
307.763
307.772
307.784
307.797
307.813
307.801
307.797
307.795
307.793
307.79
307.789
307.788
307.79
307.794
307.8
307.808
307.819
307.831
307.846
307.831
307.829
307.829
307.828
307.826
307.826
307.825
307.827
307.83
307.836
307.843
307.853
307.863
307.877
307.863
307.863
307.864
307.863
307.863
307.862
307.863
307.864
307.867
307.873
307.879
307.888
307.899
307.911
307.895
307.897
307.899
307.899
307.899
307.899
307.9
307.902
307.905
307.91
307.916
307.925
307.935
307.946
307.929
307.933
307.935
307.936
307.936
307.937
307.938
307.94
307.944
307.949
307.955
307.963
307.974
307.984
307.964
307.969
307.972
307.974
307.975
307.976
307.977
307.98
307.984
307.989
307.996
308.004
308.014
308.024
308.002
308.007
308.01
308.013
308.014
308.016
308.018
308.021
308.025
308.031
308.038
308.046
308.058
308.067
308.042
308.047
308.05
308.053
308.055
308.057
308.06
308.064
308.069
308.075
308.082
308.091
308.104
308.112
308.085
308.089
308.092
308.096
308.098
308.101
308.105
308.109
308.115
308.121
308.129
308.138
308.153
308.161
308.128
308.132
308.136
308.14
308.143
308.146
308.151
308.156
308.163
308.169
308.178
308.189
308.203
308.213
308.178
308.178
308.184
308.187
308.19
308.194
308.199
308.205
308.212
308.219
308.229
308.24
308.256
308.268
307.68
307.671
307.664
307.654