/*--------------------------------*- C++ -*----------------------------------*\
| =========                 |                                                 |
| \\      /  F ield         | OpenFOAM: The Open Source CFD Toolbox           |
|  \\    /   O peration     | Version:  v2106                                 |
|   \\  /    A nd           | Website:  www.openfoam.com                      |
|    \\/     M anipulation  |                                                 |
\*---------------------------------------------------------------------------*/
FoamFile
{
    version     2.0;
    format      ascii;
    arch        "LSB;label=32;scalar=64";
    class       volScalarField;
    location    "0.000216";
    object      alphat;
}
// * * * * * * * * * * * * * * * * * * * * * * * * * * * * * * * * * * * * * //

dimensions      [1 -1 -1 0 0 0 0];

internalField   nonuniform List<scalar> 
144746
(
9.41745e-05
7.29249e-05
5.63512e-05
4.67444e-05
4.38676e-05
4.45216e-05
4.69579e-05
4.91326e-05
5.13374e-05
5.44459e-05
5.89844e-05
6.74407e-05
8.18684e-05
9.74698e-05
6.4263e-05
4.57354e-05
3.31141e-05
2.54235e-05
2.21335e-05
2.16908e-05
2.33437e-05
2.60192e-05
2.93099e-05
3.34713e-05
3.92392e-05
4.6793e-05
5.82374e-05
7.51844e-05
4.14005e-05
2.83729e-05
2.0587e-05
1.53245e-05
1.24479e-05
1.13785e-05
1.19153e-05
1.37462e-05
1.66369e-05
2.03162e-05
2.49754e-05
3.1363e-05
3.90326e-05
5.26533e-05
2.7967e-05
1.93138e-05
1.37695e-05
9.93259e-06
7.59472e-06
6.44202e-06
6.38275e-06
7.38212e-06
9.43451e-06
1.24225e-05
1.61311e-05
2.01305e-05
2.51508e-05
3.48516e-05
2.12946e-05
1.42188e-05
9.57642e-06
6.52258e-06
4.67252e-06
3.70006e-06
3.46295e-06
3.95957e-06
5.29784e-06
7.5256e-06
1.04921e-05
1.38049e-05
1.77867e-05
2.46999e-05
1.72435e-05
1.06257e-05
6.55895e-06
4.1165e-06
2.73477e-06
2.02988e-06
1.8143e-06
2.07227e-06
2.93539e-06
4.53349e-06
6.84526e-06
9.6518e-06
1.29136e-05
1.87907e-05
1.39653e-05
7.72473e-06
4.2747e-06
2.42742e-06
1.48058e-06
1.03147e-06
8.96758e-07
1.0576e-06
1.6327e-06
2.77957e-06
4.57029e-06
6.94688e-06
9.95567e-06
1.544e-05
1.1214e-05
5.51964e-06
2.69542e-06
1.35621e-06
7.45426e-07
4.85735e-07
4.24359e-07
5.50644e-07
9.65938e-07
1.82555e-06
3.25213e-06
5.29479e-06
8.16792e-06
1.37626e-05
9.25227e-06
4.12872e-06
1.79033e-06
7.8643e-07
3.78469e-07
2.28801e-07
2.14164e-07
3.32883e-07
6.72429e-07
1.37609e-06
2.58698e-06
4.44105e-06
7.37797e-06
1.34542e-05
8.64983e-06
3.68518e-06
1.4941e-06
5.96209e-07
2.56754e-07
1.48076e-07
1.55035e-07
2.77775e-07
5.95738e-07
1.24519e-06
2.39095e-06
4.27473e-06
7.60492e-06
1.4394e-05
9.80449e-06
4.27759e-06
1.7775e-06
7.27016e-07
3.26736e-07
2.0034e-07
2.08421e-07
3.4286e-07
6.81077e-07
1.36754e-06
2.61604e-06
4.83807e-06
8.99585e-06
1.65715e-05
1.3522e-05
6.47224e-06
3.02035e-06
1.39126e-06
6.93602e-07
4.4409e-07
4.18875e-07
5.70176e-07
9.70314e-07
1.79273e-06
3.3517e-06
6.29732e-06
1.16988e-05
2.01414e-05
2.0045e-05
1.06333e-05
5.67424e-06
3.0528e-06
1.70562e-06
1.10793e-06
9.53276e-07
1.1073e-06
1.60755e-06
2.6602e-06
4.71074e-06
8.7408e-06
1.56996e-05
2.49986e-05
2.8566e-05
1.6394e-05
9.82834e-06
6.17932e-06
3.96942e-06
2.71915e-06
2.21276e-06
2.27686e-06
2.87555e-06
4.2062e-06
6.81104e-06
1.19712e-05
2.03904e-05
3.05028e-05
7.80904e-05
5.66045e-05
4.12704e-05
3.21447e-05
2.81694e-05
2.70471e-05
2.74605e-05
2.827e-05
2.92907e-05
3.06352e-05
3.42697e-05
4.05291e-05
5.38596e-05
7.04594e-05
4.75359e-05
3.19203e-05
2.32048e-05
1.7694e-05
1.48783e-05
1.39393e-05
1.4312e-05
1.53873e-05
1.6973e-05
1.88028e-05
2.13789e-05
2.62451e-05
3.54026e-05
5.04327e-05
2.64461e-05
1.79874e-05
1.31226e-05
9.96722e-06
8.15732e-06
7.40039e-06
7.5155e-06
8.29831e-06
9.68082e-06
1.15402e-05
1.39324e-05
1.71551e-05
2.31431e-05
3.30242e-05
1.72711e-05
1.1366e-05
7.94707e-06
5.86824e-06
4.63881e-06
4.03952e-06
3.99031e-06
4.45128e-06
5.44641e-06
6.96191e-06
9.00465e-06
1.15446e-05
1.5072e-05
2.16797e-05
1.33464e-05
8.09184e-06
5.20181e-06
3.57901e-06
2.66733e-06
2.20528e-06
2.10093e-06
2.34001e-06
2.99069e-06
4.12559e-06
5.76199e-06
7.8976e-06
1.07162e-05
1.54655e-05
1.10362e-05
6.07895e-06
3.51033e-06
2.18097e-06
1.49317e-06
1.15767e-06
1.0598e-06
1.18288e-06
1.60149e-06
2.4135e-06
3.68514e-06
5.45236e-06
7.82941e-06
1.15969e-05
9.16547e-06
4.59958e-06
2.36419e-06
1.29593e-06
7.9379e-07
5.6843e-07
5.01729e-07
5.73849e-07
8.478e-07
1.42711e-06
2.40702e-06
3.866e-06
5.92407e-06
9.18599e-06
7.84656e-06
3.60955e-06
1.64403e-06
7.76105e-07
4.08872e-07
2.62153e-07
2.24928e-07
2.7793e-07
4.71195e-07
9.00082e-07
1.67432e-06
2.89985e-06
4.7359e-06
7.79471e-06
7.13804e-06
3.07188e-06
1.26315e-06
5.13677e-07
2.24298e-07
1.22635e-07
1.04708e-07
1.53249e-07
3.09435e-07
6.58405e-07
1.31187e-06
2.39882e-06
4.13456e-06
7.1854e-06
7.33938e-06
3.06862e-06
1.1994e-06
4.45636e-07
1.67992e-07
7.85826e-08
6.8632e-08
1.19203e-07
2.67066e-07
5.92479e-07
1.20981e-06
2.27152e-06
4.06037e-06
7.27214e-06
8.535e-06
3.58298e-06
1.41109e-06
5.31119e-07
2.05737e-07
1.01233e-07
8.99798e-08
1.47008e-07
3.08586e-07
6.58447e-07
1.32342e-06
2.49234e-06
4.50557e-06
8.07841e-06
1.14387e-05
4.99765e-06
2.10106e-06
8.76885e-07
3.91469e-07
2.2083e-07
1.91434e-07
2.58886e-07
4.57733e-07
8.84051e-07
1.6946e-06
3.14185e-06
5.61278e-06
9.81016e-06
1.62284e-05
7.44054e-06
3.43694e-06
1.6715e-06
8.7997e-07
5.50946e-07
4.65468e-07
5.43722e-07
8.07059e-07
1.3685e-06
2.44495e-06
4.40359e-06
7.82336e-06
1.29057e-05
2.31519e-05
1.1076e-05
5.59766e-06
3.15202e-06
1.9337e-06
1.33105e-06
1.11962e-06
1.19671e-06
1.5589e-06
2.33561e-06
3.8044e-06
6.55409e-06
1.13219e-05
1.76198e-05
5.43964e-05
3.79718e-05
2.69223e-05
2.01159e-05
1.65674e-05
1.51494e-05
1.50733e-05
1.57067e-05
1.6894e-05
1.81744e-05
1.95008e-05
2.13693e-05
2.67285e-05
4.00617e-05
2.8345e-05
1.93593e-05
1.36963e-05
1.01977e-05
8.29314e-06
7.51566e-06
7.54517e-06
8.08502e-06
9.07419e-06
1.03177e-05
1.17786e-05
1.34905e-05
1.67544e-05
2.58311e-05
1.64871e-05
1.03377e-05
6.99998e-06
5.14451e-06
4.15066e-06
3.72933e-06
3.74729e-06
4.09805e-06
4.78121e-06
5.74295e-06
7.00706e-06
8.59778e-06
1.11988e-05
1.61287e-05
1.23613e-05
6.74261e-06
4.03447e-06
2.74751e-06
2.1291e-06
1.86628e-06
1.85016e-06
2.03895e-06
2.46129e-06
3.13826e-06
4.11721e-06
5.4678e-06
7.5777e-06
1.10738e-05
1.01231e-05
4.96701e-06
2.59788e-06
1.56371e-06
1.116e-06
9.30878e-07
8.97103e-07
9.8671e-07
1.23167e-06
1.6822e-06
2.40626e-06
3.49549e-06
5.19259e-06
7.9128e-06
8.36464e-06
3.80671e-06
1.77841e-06
9.28951e-07
5.84789e-07
4.50152e-07
4.1666e-07
4.57251e-07
5.97193e-07
8.92037e-07
1.41687e-06
2.27465e-06
3.64125e-06
5.85162e-06
6.94368e-06
2.99316e-06
1.27463e-06
5.76005e-07
3.06874e-07
2.08209e-07
1.82037e-07
2.02226e-07
2.85779e-07
4.81607e-07
8.63993e-07
1.53788e-06
2.65651e-06
4.5081e-06
6.17864e-06
2.5618e-06
1.01327e-06
3.99212e-07
1.73136e-07
9.60033e-08
7.64912e-08
8.93711e-08
1.45871e-07
2.85977e-07
5.77296e-07
1.12102e-06
2.06644e-06
3.6706e-06
5.93106e-06
2.40159e-06
9.06102e-07
3.24158e-07
1.16855e-07
5.00256e-08
3.45811e-08
4.58042e-08
9.20778e-08
2.07505e-07
4.53595e-07
9.26381e-07
1.77365e-06
3.24017e-06
6.38062e-06
2.57224e-06
9.56711e-07
3.30545e-07
1.09303e-07
3.93715e-08
2.40322e-08
3.59457e-08
8.21709e-08
1.95199e-07
4.34434e-07
8.93446e-07
1.72151e-06
3.16222e-06
7.42101e-06
2.99368e-06
1.1205e-06
3.95891e-07
1.37521e-07
5.41682e-08
3.55614e-08
4.97922e-08
1.03753e-07
2.32355e-07
4.98272e-07
9.98527e-07
1.89002e-06
3.42559e-06
9.66614e-06
3.93573e-06
1.51979e-06
5.82748e-07
2.35708e-07
1.15142e-07
8.48471e-08
1.02978e-07
1.74838e-07
3.40951e-07
6.72115e-07
1.27636e-06
2.32339e-06
4.07529e-06
1.30394e-05
5.34523e-06
2.17315e-06
9.50473e-07
4.69372e-07
2.81058e-07
2.25292e-07
2.50002e-07
3.5603e-07
5.92063e-07
1.04197e-06
1.84677e-06
3.21196e-06
5.36692e-06
1.83661e-05
7.55573e-06
3.3067e-06
1.67384e-06
9.88506e-07
6.88814e-07
5.88121e-07
6.27864e-07
8.02539e-07
1.17225e-06
1.83614e-06
3.01512e-06
5.00619e-06
7.92348e-06
0.000116066
0.000139315
0.000157251
0.000167621
0.000171858
0.000229695
9.44851e-05
0.000122902
0.00014787
0.000164829
0.000179209
0.000255622
7.39948e-05
0.000107785
0.000138406
0.00015963
0.000181945
0.000279904
5.61613e-05
9.40341e-05
0.000129086
0.000152175
0.000179773
0.000300644
4.23987e-05
8.17455e-05
0.000119341
0.00014353
0.000174743
0.000318191
3.46889e-05
7.07839e-05
0.00010885
0.000134767
0.000169271
0.000331765
3.08278e-05
6.21379e-05
9.73992e-05
0.000125662
0.000164273
0.00034093
2.87376e-05
5.50673e-05
8.60738e-05
0.000116179
0.000159263
0.000344505
2.75146e-05
4.87072e-05
7.5425e-05
0.000106658
0.000154558
0.000341174
2.69785e-05
4.35513e-05
6.63247e-05
9.77085e-05
0.000149082
0.000329506
2.74719e-05
4.06538e-05
6.01629e-05
9.06474e-05
0.000143225
0.000310694
2.93033e-05
4.03647e-05
5.75678e-05
8.65147e-05
0.000137235
0.000286053
3.2231e-05
4.21462e-05
5.8569e-05
8.613e-05
0.000133431
0.00025795
3.52046e-05
4.52112e-05
6.22625e-05
8.8849e-05
0.00013204
0.00022593
8.95735e-05
0.000113715
0.000136384
0.000155015
0.000169819
0.000209826
6.61887e-05
9.014e-05
0.000117223
0.00014398
0.000171175
0.000232364
4.73069e-05
7.12112e-05
0.000100986
0.000133079
0.000169759
0.000252872
3.34314e-05
5.63792e-05
8.75541e-05
0.000122397
0.000163724
0.000270496
2.45815e-05
4.55737e-05
7.69118e-05
0.000112525
0.00015593
0.000285655
1.93613e-05
3.77932e-05
6.85807e-05
0.000103938
0.000149418
0.000297947
1.63411e-05
3.26318e-05
6.09812e-05
9.55026e-05
0.000144034
0.000307031
1.46345e-05
2.92498e-05
5.43051e-05
8.75296e-05
0.000139935
0.00031066
1.38264e-05
2.65479e-05
4.80542e-05
7.98343e-05
0.00013591
0.000307211
1.36522e-05
2.43017e-05
4.24772e-05
7.26235e-05
0.000130937
0.000295729
1.41438e-05
2.3036e-05
3.85521e-05
6.68765e-05
0.000125348
0.000277334
1.55547e-05
2.32992e-05
3.70615e-05
6.36218e-05
0.000119899
0.000253787
1.80101e-05
2.52805e-05
3.84296e-05
6.38248e-05
0.000116917
0.00022692
2.08804e-05
2.83825e-05
4.22213e-05
6.72657e-05
0.00011601
0.00019681
5.61851e-05
7.97116e-05
0.0001055
0.000129994
0.00015764
0.000179949
3.84943e-05
5.70282e-05
8.03903e-05
0.00010801
0.000145543
0.0001972
2.52942e-05
4.05168e-05
6.12707e-05
9.00301e-05
0.000134374
0.000212954
1.69028e-05
2.92827e-05
4.76864e-05
7.61396e-05
0.000122718
0.000227292
1.25924e-05
2.2018e-05
3.84224e-05
6.59863e-05
0.000112773
0.000240895
9.8183e-06
1.74975e-05
3.22066e-05
5.85577e-05
0.000105165
0.000253841
7.93077e-06
1.45291e-05
2.80756e-05
5.28368e-05
9.97923e-05
0.000264623
6.71371e-06
1.26903e-05
2.51715e-05
4.85494e-05
9.75472e-05
0.000270072
6.08209e-06
1.16296e-05
2.2926e-05
4.50569e-05
9.63714e-05
0.000268121
5.92607e-06
1.10136e-05
2.10823e-05
4.21179e-05
9.48825e-05
0.000257625
6.19315e-06
1.0823e-05
1.98189e-05
3.97634e-05
9.25763e-05
0.000239649
6.90442e-06
1.1197e-05
1.94824e-05
3.84976e-05
8.99287e-05
0.000216323
8.14553e-06
1.23795e-05
2.05741e-05
3.93351e-05
8.86028e-05
0.000190196
9.71719e-06
1.4211e-05
2.32694e-05
4.28961e-05
8.90711e-05
0.00016216
3.74358e-05
5.01046e-05
6.90362e-05
9.53605e-05
0.000136325
0.000226727
2.62085e-05
3.75417e-05
5.61896e-05
8.48871e-05
0.000133186
0.000244933
1.68786e-05
2.66741e-05
4.46168e-05
7.44324e-05
0.00012716
0.000261123
1.08889e-05
1.90175e-05
3.57358e-05
6.53558e-05
0.000119967
0.000274994
7.64304e-06
1.46754e-05
2.99491e-05
5.80787e-05
0.00011374
0.000288465
6.03176e-06
1.27617e-05
2.69802e-05
5.33841e-05
0.000110047
0.000301389
5.41724e-06
1.21861e-05
2.58183e-05
5.07004e-05
0.000111095
0.000314278
5.60229e-06
1.24157e-05
2.54948e-05
5.05428e-05
0.00011808
0.000325117
6.49242e-06
1.31216e-05
2.56446e-05
5.26227e-05
0.00013143
0.000331585
8.02851e-06
1.4304e-05
2.68366e-05
5.8193e-05
0.00014906
0.000330798
1.02672e-05
1.64808e-05
3.05714e-05
6.87304e-05
0.0001693
0.000321604
1.38538e-05
2.11666e-05
3.9219e-05
8.57752e-05
0.00019161
0.000303938
2.04705e-05
3.10951e-05
5.59279e-05
0.000110872
0.000217519
0.000278765
3.2056e-05
4.92876e-05
8.34586e-05
0.000144938
0.000247733
0.000246564
2.34388e-05
3.31353e-05
4.84289e-05
7.39273e-05
0.000119147
0.000195002
1.60069e-05
2.41309e-05
3.766e-05
6.17997e-05
0.000108746
0.000208689
1.01357e-05
1.66792e-05
2.83819e-05
5.10858e-05
9.81964e-05
0.000220751
6.53884e-06
1.16089e-05
2.15324e-05
4.24185e-05
8.94716e-05
0.000231464
4.53097e-06
8.7409e-06
1.7359e-05
3.66454e-05
8.45958e-05
0.000242867
3.41038e-06
7.15139e-06
1.51208e-05
3.36602e-05
8.43097e-05
0.000255574
2.87517e-06
6.40924e-06
1.42064e-05
3.32836e-05
9.05748e-05
0.000270228
2.78432e-06
6.2919e-06
1.43655e-05
3.58326e-05
0.000104199
0.000285244
3.11322e-06
6.73205e-06
1.57692e-05
4.21374e-05
0.00012527
0.000297288
3.88645e-06
7.88025e-06
1.90009e-05
5.30752e-05
0.000151584
0.000302174
5.26017e-06
1.01994e-05
2.51361e-05
6.9046e-05
0.000179533
0.000297734
7.85812e-06
1.48328e-05
3.54544e-05
8.98356e-05
0.000205776
0.000283416
1.34299e-05
2.43542e-05
5.25567e-05
0.000115711
0.000228323
0.00026063
2.49587e-05
4.32559e-05
8.05976e-05
0.000147661
0.000245884
0.00022967
1.16322e-05
1.77869e-05
2.87512e-05
5.00462e-05
9.12869e-05
0.000156401
8.0336e-06
1.31921e-05
2.2557e-05
4.14161e-05
8.17178e-05
0.000166132
5.27124e-06
9.40003e-06
1.71867e-05
3.39934e-05
7.41732e-05
0.000174828
3.53706e-06
6.75822e-06
1.31767e-05
2.84197e-05
6.966e-05
0.000183898
2.50951e-06
5.1612e-06
1.07695e-05
2.54318e-05
6.92446e-05
0.000194779
1.88742e-06
4.1722e-06
9.47833e-06
2.48008e-05
7.37919e-05
0.000208932
1.56879e-06
3.7029e-06
9.32413e-06
2.70512e-05
8.46605e-05
0.000226059
1.48706e-06
3.73044e-06
1.05507e-05
3.31387e-05
0.0001033
0.000244417
1.66735e-06
4.45737e-06
1.38177e-05
4.42691e-05
0.000129507
0.000260465
2.20392e-06
6.23754e-06
1.98772e-05
6.08256e-05
0.000160833
0.000270298
3.31719e-06
9.47965e-06
2.90434e-05
8.14719e-05
0.000192715
0.000270775
5.41089e-06
1.45809e-05
4.09593e-05
0.000103915
0.000220742
0.000260057
9.56783e-06
2.29442e-05
5.61744e-05
0.00012702
0.000239332
0.000239894
1.90949e-05
3.96392e-05
8.02411e-05
0.000151615
0.000239109
0.000210057
0.000238942
0.00023522
0.000214858
0.00017544
0.000133931
0.000103717
0.000271854
0.000234915
0.000195221
0.00014275
0.000100714
7.60681e-05
0.000300342
0.000236993
0.000173896
0.000114793
7.40598e-05
5.27569e-05
0.000326768
0.000239876
0.000159207
9.74042e-05
5.8267e-05
3.84974e-05
0.00034467
0.000237455
0.000152672
8.95094e-05
5.09148e-05
3.09832e-05
0.000353961
0.000237524
0.000149891
8.64797e-05
4.82992e-05
2.76137e-05
0.000356824
0.000240733
0.000147184
8.56667e-05
4.6834e-05
2.48587e-05
0.000354622
0.000245478
0.000146474
8.36922e-05
4.43105e-05
2.20293e-05
0.00034657
0.000254065
0.000147364
8.11232e-05
4.14044e-05
1.9641e-05
0.000333986
0.000264428
0.000150204
8.05792e-05
4.05172e-05
1.90154e-05
0.00031688
0.000272511
0.000156727
8.50555e-05
4.37442e-05
2.12218e-05
0.000296524
0.000276246
0.000165351
9.46972e-05
5.1867e-05
2.72415e-05
0.000272104
0.000274576
0.00017357
0.000106659
6.33408e-05
3.68852e-05
0.000245461
0.000267655
0.000180045
0.000119332
7.7114e-05
4.92424e-05
0.00022763
0.00026015
0.000216634
0.000164689
0.000117784
8.57102e-05
0.000259687
0.0002607
0.000197832
0.000133279
8.518e-05
5.77267e-05
0.000287891
0.000265135
0.000180773
0.000108661
6.10552e-05
3.75298e-05
0.000311828
0.000270469
0.000169284
9.40812e-05
4.90038e-05
2.69564e-05
0.000328795
0.000272755
0.000162635
8.57269e-05
4.32554e-05
2.28794e-05
0.000338868
0.000271699
0.000154894
8.10657e-05
4.08328e-05
2.04427e-05
0.00034208
0.000266113
0.000147301
7.66765e-05
3.79294e-05
1.81649e-05
0.000339061
0.000259227
0.000140955
7.23844e-05
3.53725e-05
1.64638e-05
0.000329707
0.000254945
0.00013744
6.99542e-05
3.40174e-05
1.56285e-05
0.000315868
0.000254282
0.000138376
7.12161e-05
3.51418e-05
1.63367e-05
0.000298181
0.000255561
0.000144393
7.71082e-05
3.93823e-05
1.89267e-05
0.000277606
0.00025695
0.000154458
8.79238e-05
4.7729e-05
2.44913e-05
0.000253939
0.000256476
0.000165321
0.000101082
5.90999e-05
3.30712e-05
0.000228233
0.000254753
0.000177598
0.000117257
7.41188e-05
4.5264e-05
0.000213
0.000268351
0.000209099
0.000146774
9.54273e-05
5.96405e-05
0.000244045
0.000274078
0.000193396
0.00011884
6.77711e-05
3.70227e-05
0.0002721
0.000280213
0.000182811
0.000101509
5.05722e-05
2.70801e-05
0.000296823
0.000285705
0.000174305
9.03302e-05
4.54685e-05
2.33013e-05
0.000315769
0.000286307
0.000166316
8.55784e-05
4.23584e-05
2.04756e-05
0.000327661
0.000279511
0.000158051
8.01824e-05
3.86356e-05
1.78063e-05
0.000331256
0.000266716
0.000147422
7.34732e-05
3.45234e-05
1.53729e-05
0.00032713
0.000251578
0.000136875
6.78723e-05
3.18086e-05
1.40135e-05
0.000315936
0.00023772
0.000129335
6.48141e-05
3.07221e-05
1.36154e-05
0.000299366
0.000228157
0.000126909
6.56157e-05
3.20731e-05
1.46137e-05
0.000279108
0.00022324
0.000130244
7.0533e-05
3.5812e-05
1.69175e-05
0.000256633
0.000221602
0.000139423
8.05882e-05
4.34104e-05
2.17923e-05
0.000232267
0.000221958
0.000151699
9.35998e-05
5.38114e-05
2.90258e-05
0.000206872
0.000225703
0.000170097
0.000113133
7.01081e-05
4.10602e-05
0.000224599
0.00017057
0.000163844
0.000148436
0.000127728
0.000107312
0.000253892
0.00017177
0.000160309
0.000140009
0.000116705
9.66925e-05
0.000280277
0.000173455
0.000157189
0.000133317
0.000107081
8.52033e-05
0.000303015
0.000175752
0.000156197
0.000130695
0.0001021
7.83789e-05
0.000321155
0.000178992
0.00015768
0.000133451
0.000104198
7.78156e-05
0.000334464
0.000183267
0.00016165
0.000141191
0.000112727
8.0312e-05
0.000342544
0.000188436
0.000167391
0.000152332
0.000123381
8.35469e-05
0.000344622
0.000195326
0.000175355
0.000164204
0.000133528
8.63549e-05
0.000339566
0.000204087
0.000185873
0.000175321
0.000139917
8.63477e-05
0.000328398
0.000214601
0.000197708
0.000182738
0.00014099
8.51707e-05
0.000311706
0.000226437
0.00020907
0.000185928
0.000139794
8.6073e-05
0.000291781
0.000235673
0.000217572
0.000188036
0.00014239
9.36304e-05
0.000267265
0.000237594
0.000225593
0.000196151
0.000153148
0.000109302
0.000240628
0.000233549
0.000229839
0.000206763
0.000170639
0.000131965
0.000205923
0.000171239
0.000154361
0.000131463
0.000103928
8.08342e-05
0.000234276
0.000175169
0.000155442
0.000125147
9.30431e-05
6.99045e-05
0.000259753
0.000180048
0.000156781
0.000120403
8.35177e-05
5.8316e-05
0.000281991
0.000185931
0.000160626
0.000120728
7.94508e-05
5.18164e-05
0.000299719
0.000192448
0.000166948
0.000126182
8.0868e-05
5.01771e-05
0.000312964
0.000199117
0.000174824
0.000134143
8.61828e-05
4.91782e-05
0.000321237
0.000205285
0.000182186
0.000142665
8.94792e-05
5.01089e-05
0.00032462
0.000211556
0.000188886
0.000148308
9.3109e-05
5.12688e-05
0.000321824
0.000218238
0.000194584
0.000152162
9.55278e-05
5.19027e-05
0.000311944
0.000227685
0.000199506
0.000153173
9.66447e-05
5.34141e-05
0.000296779
0.000240534
0.000204124
0.000153965
9.98459e-05
5.82418e-05
0.000277835
0.000251966
0.000209505
0.000159389
0.000109503
6.95164e-05
0.000253877
0.000255808
0.000220021
0.000173888
0.000127231
8.808e-05
0.000227632
0.000257938
0.000231595
0.000193992
0.000152944
0.000114458
0.00018194
0.000167222
0.000136935
0.00010488
7.20725e-05
4.92982e-05
0.000212409
0.000178497
0.000144094
9.96385e-05
6.23396e-05
4.08539e-05
0.000241348
0.000190604
0.000151394
9.88429e-05
5.73381e-05
3.42667e-05
0.000267914
0.000203819
0.00016144
0.000103131
5.72826e-05
3.16732e-05
0.000290358
0.000217164
0.000172605
0.000109408
5.78306e-05
3.10949e-05
0.000307578
0.000229489
0.000182072
0.000111495
5.92105e-05
3.07702e-05
0.000318607
0.0002384
0.000185113
0.000111081
5.93723e-05
2.99542e-05
0.000323074
0.000242414
0.000182059
0.000110544
5.91968e-05
2.96427e-05
0.000319017
0.000241072
0.000177804
0.000109804
5.95823e-05
3.01226e-05
0.000307788
0.000241208
0.000173827
0.000109406
6.14774e-05
3.22789e-05
0.00028964
0.000244389
0.000175184
0.000114029
6.79049e-05
3.75943e-05
0.000266997
0.000249047
0.0001836
0.000126255
8.09981e-05
4.86076e-05
0.000240282
0.000251969
0.000198893
0.000146541
0.000101659
6.67489e-05
0.000212558
0.000258334
0.000219386
0.000173316
0.0001293
9.19982e-05
2.62058e-05
1.80411e-05
1.26372e-05
9.34109e-06
7.58088e-06
6.88517e-06
6.95767e-06
7.55145e-06
8.55006e-06
9.75774e-06
1.10683e-05
1.23727e-05
1.3875e-05
1.64632e-05
1.49931e-05
9.23773e-06
6.11072e-06
4.38807e-06
3.4978e-06
3.14442e-06
3.18719e-06
3.53142e-06
4.14916e-06
4.97894e-06
5.98794e-06
7.09983e-06
8.44362e-06
1.06308e-05
1.108e-05
5.71463e-06
3.24769e-06
2.12244e-06
1.61536e-06
1.42438e-06
1.43759e-06
1.61212e-06
1.94902e-06
2.44892e-06
3.12056e-06
3.95075e-06
5.06333e-06
6.85378e-06
9.07312e-06
4.12876e-06
1.97018e-06
1.09624e-06
7.57756e-07
6.41053e-07
6.37993e-07
7.18493e-07
8.871e-07
1.16335e-06
1.57772e-06
2.16411e-06
3.03382e-06
4.47672e-06
7.50291e-06
3.13915e-06
1.30227e-06
6.03962e-07
3.60229e-07
2.83479e-07
2.75413e-07
3.10349e-07
3.90675e-07
5.37209e-07
7.85905e-07
1.19095e-06
1.85653e-06
3.00817e-06
6.16242e-06
2.42701e-06
9.11281e-07
3.58007e-07
1.75873e-07
1.22463e-07
1.14122e-07
1.28665e-07
1.66658e-07
2.44849e-07
3.95947e-07
6.7681e-07
1.18299e-06
2.10104e-06
5.0728e-06
1.91713e-06
6.75471e-07
2.34238e-07
9.2962e-08
5.28715e-08
4.52684e-08
5.11718e-08
7.02288e-08
1.1476e-07
2.11854e-07
4.124e-07
8.01694e-07
1.5385e-06
4.3514e-06
1.60289e-06
5.44949e-07
1.75024e-07
5.79333e-08
2.48535e-08
1.77995e-08
2.02173e-08
3.12788e-08
6.02532e-08
1.2919e-07
2.81535e-07
5.9306e-07
1.2009e-06
3.94281e-06
1.43644e-06
4.81921e-07
1.49882e-07
4.47275e-08
1.474e-08
7.87925e-09
9.05067e-09
1.72422e-08
4.01976e-08
9.70221e-08
2.26046e-07
4.96547e-07
1.03156e-06
3.95918e-06
1.44824e-06
4.88858e-07
1.52359e-07
4.43194e-08
1.2957e-08
5.53529e-09
6.48828e-09
1.46279e-08
3.75497e-08
9.37398e-08
2.19981e-07
4.83604e-07
1.00276e-06
4.34725e-06
1.59008e-06
5.38771e-07
1.7087e-07
5.18399e-08
1.66795e-08
8.37639e-09
9.95161e-09
2.03193e-08
4.82946e-08
1.1409e-07
2.57592e-07
5.50073e-07
1.11487e-06
5.58065e-06
2.03675e-06
6.95748e-07
2.30095e-07
7.83973e-08
3.26895e-08
2.21562e-08
2.55965e-08
4.18678e-08
8.24029e-08
1.71201e-07
3.57018e-07
7.19483e-07
1.39818e-06
7.53777e-06
2.74511e-06
9.71692e-07
3.58086e-07
1.50683e-07
8.39934e-08
6.83636e-08
7.66035e-08
1.07017e-07
1.75146e-07
3.09574e-07
5.76832e-07
1.06459e-06
1.94223e-06
1.12687e-05
4.28618e-06
1.74516e-06
7.8017e-07
3.96048e-07
2.51832e-07
2.1441e-07
2.33847e-07
3.0051e-07
4.34375e-07
6.6547e-07
1.08914e-06
1.78698e-06
2.93488e-06
1.46177e-05
1.00358e-05
7.25406e-06
5.56816e-06
4.67675e-06
4.39353e-06
4.60269e-06
5.18712e-06
6.05981e-06
7.11933e-06
8.3062e-06
9.57994e-06
1.10172e-05
1.30492e-05
9.54797e-06
5.63721e-06
3.70834e-06
2.69857e-06
2.1803e-06
1.98881e-06
2.05803e-06
2.35293e-06
2.85303e-06
3.53581e-06
4.38808e-06
5.38087e-06
6.5779e-06
8.29153e-06
7.48345e-06
3.75464e-06
2.09684e-06
1.36457e-06
1.03057e-06
9.00144e-07
9.08985e-07
1.04056e-06
1.29595e-06
1.68653e-06
2.22821e-06
2.9264e-06
3.85081e-06
5.22217e-06
6.1427e-06
2.75099e-06
1.29755e-06
7.18109e-07
4.88622e-07
4.02747e-07
3.94326e-07
4.48558e-07
5.69489e-07
7.76054e-07
1.09598e-06
1.56174e-06
2.24808e-06
3.32184e-06
5.09723e-06
2.09599e-06
8.58872e-07
3.95316e-07
2.31136e-07
1.75454e-07
1.65703e-07
1.87037e-07
2.41884e-07
3.46824e-07
5.30269e-07
8.35908e-07
1.33842e-06
2.1748e-06
4.20665e-06
1.62479e-06
6.00311e-07
2.3283e-07
1.11637e-07
7.44213e-08
6.68322e-08
7.50929e-08
1.00062e-07
1.53797e-07
2.6041e-07
4.62347e-07
8.28609e-07
1.48047e-06
3.4513e-06
1.27703e-06
4.41582e-07
1.50675e-07
5.83411e-08
3.16624e-08
2.59282e-08
2.91132e-08
4.11728e-08
7.04521e-08
1.35798e-07
2.73276e-07
5.43709e-07
1.05542e-06
2.87514e-06
1.03648e-06
3.46398e-07
1.09915e-07
3.58428e-08
1.47973e-08
1.0051e-08
1.12599e-08
1.7916e-08
3.59498e-08
7.99543e-08
1.7954e-07
3.87797e-07
8.01094e-07
2.48848e-06
8.91455e-07
2.96867e-07
9.2347e-08
2.75714e-08
8.91722e-09
4.48534e-09
4.95622e-09
9.58135e-09
2.30283e-08
5.73981e-08
1.38081e-07
3.13033e-07
6.70118e-07
2.32413e-06
8.45331e-07
2.88151e-07
9.15362e-08
2.71499e-08
8.00553e-09
3.29357e-09
3.5997e-09
7.99389e-09
2.08713e-08
5.3652e-08
1.30415e-07
2.97708e-07
6.41098e-07
2.37991e-06
8.82016e-07
3.09441e-07
1.02368e-07
3.21921e-08
1.06113e-08
5.30377e-09
5.97745e-09
1.16611e-08
2.74513e-08
6.58882e-08
1.53268e-07
3.39507e-07
7.15846e-07
2.82125e-06
1.05914e-06
3.82171e-07
1.34299e-07
4.80722e-08
2.0756e-08
1.43764e-08
1.65134e-08
2.61813e-08
5.02557e-08
1.04164e-07
2.20661e-07
4.57436e-07
9.20458e-07
3.54371e-06
1.34472e-06
5.10768e-07
2.02323e-07
9.02563e-08
5.25227e-08
4.43556e-08
5.07975e-08
7.07922e-08
1.14224e-07
2.00612e-07
3.74926e-07
7.04352e-07
1.3204e-06
5.01312e-06
1.99206e-06
8.46116e-07
3.94198e-07
2.14324e-07
1.48546e-07
1.35938e-07
1.54937e-07
2.02957e-07
2.93361e-07
4.47829e-07
7.28512e-07
1.20656e-06
2.03547e-06
8.83242e-06
6.16029e-06
4.59154e-06
3.62184e-06
3.09553e-06
2.95266e-06
3.15243e-06
3.64458e-06
4.3775e-06
5.29993e-06
6.3708e-06
7.57032e-06
8.92998e-06
1.07544e-05
6.00018e-06
3.63975e-06
2.48372e-06
1.85267e-06
1.50134e-06
1.35913e-06
1.40253e-06
1.62159e-06
2.01153e-06
2.5709e-06
3.29801e-06
4.1831e-06
5.25852e-06
6.74692e-06
4.61037e-06
2.39033e-06
1.41126e-06
9.58271e-07
7.27599e-07
6.22858e-07
6.1591e-07
7.02632e-07
8.90097e-07
1.19449e-06
1.63629e-06
2.23263e-06
3.02975e-06
4.1852e-06
3.69519e-06
1.68454e-06
8.40783e-07
4.96457e-07
3.45158e-07
2.78435e-07
2.63953e-07
2.95877e-07
3.80697e-07
5.35775e-07
7.87487e-07
1.16962e-06
1.7412e-06
2.62011e-06
3.01524e-06
1.24356e-06
5.29839e-07
2.61444e-07
1.59652e-07
1.19579e-07
1.08806e-07
1.20206e-07
1.57463e-07
2.3406e-07
3.74262e-07
6.16069e-07
1.02013e-06
1.68823e-06
2.45276e-06
9.40332e-07
3.53756e-07
1.44797e-07
7.36164e-08
4.92791e-08
4.27084e-08
4.68901e-08
6.35211e-08
1.01953e-07
1.81526e-07
3.36441e-07
6.22025e-07
1.13053e-06
1.97728e-06
7.21802e-07
2.50183e-07
8.79434e-08
3.59636e-08
2.00612e-08
1.60444e-08
1.7687e-08
2.56376e-08
4.6164e-08
9.36631e-08
1.95937e-07
4.00644e-07
7.90586e-07
1.60795e-06
5.72477e-07
1.90883e-07
6.1351e-08
2.06897e-08
8.86101e-09
6.00428e-09
6.68249e-09
1.10026e-08
2.32481e-08
5.40559e-08
1.25407e-07
2.77811e-07
5.84635e-07
1.35225e-06
4.82918e-07
1.61524e-07
5.07538e-08
1.54048e-08
5.09806e-09
2.59332e-09
2.88299e-09
5.76317e-09
1.44245e-08
3.72659e-08
9.24746e-08
2.15661e-07
4.73287e-07
1.22538e-06
4.53334e-07
1.57877e-07
5.10869e-08
1.53541e-08
4.59022e-09
1.92475e-09
2.10847e-09
4.70975e-09
1.25641e-08
3.32966e-08
8.37072e-08
1.97731e-07
4.39828e-07
1.22904e-06
4.77078e-07
1.74957e-07
5.96278e-08
1.90556e-08
6.42223e-09
3.35143e-09
3.78148e-09
7.15551e-09
1.66703e-08
4.06243e-08
9.72354e-08
2.22848e-07
4.86319e-07
1.39494e-06
5.6758e-07
2.19736e-07
8.05631e-08
2.94252e-08
1.30856e-08
9.51744e-09
1.11453e-08
1.73392e-08
3.24783e-08
6.70884e-08
1.44164e-07
3.06794e-07
6.35394e-07
1.68894e-06
7.15358e-07
2.97534e-07
1.23404e-07
5.58476e-08
3.33138e-08
2.95153e-08
3.5002e-08
4.90804e-08
7.82963e-08
1.36855e-07
2.56686e-07
4.9119e-07
9.39876e-07
2.19601e-06
9.72727e-07
4.53475e-07
2.25635e-07
1.28264e-07
9.26237e-08
8.90718e-08
1.05938e-07
1.41772e-07
2.05528e-07
3.14582e-07
5.1156e-07
8.62345e-07
1.48709e-06
6.27783e-06
4.56055e-06
3.47313e-06
2.75257e-06
2.32182e-06
2.16639e-06
2.2739e-06
2.62824e-06
3.21003e-06
3.99302e-06
4.94643e-06
6.05554e-06
7.34562e-06
9.04184e-06
4.1526e-06
2.67312e-06
1.9079e-06
1.44697e-06
1.16018e-06
1.01834e-06
1.01515e-06
1.15399e-06
1.44367e-06
1.89465e-06
2.51381e-06
3.3015e-06
4.28216e-06
5.63012e-06
3.0029e-06
1.65527e-06
1.05212e-06
7.44797e-07
5.66624e-07
4.70842e-07
4.45712e-07
4.93419e-07
6.2538e-07
8.61002e-07
1.22416e-06
1.73811e-06
2.44383e-06
3.46511e-06
2.2686e-06
1.07965e-06
5.87945e-07
3.73922e-07
2.66036e-07
2.09715e-07
1.89632e-07
2.04569e-07
2.62038e-07
3.78741e-07
5.80492e-07
9.01443e-07
1.3946e-06
2.15737e-06
1.75257e-06
7.39119e-07
3.40352e-07
1.85868e-07
1.1991e-07
8.89144e-08
7.71502e-08
8.1693e-08
1.06548e-07
1.63407e-07
2.74007e-07
4.72851e-07
8.13668e-07
1.38454e-06
1.35758e-06
5.23745e-07
2.08052e-07
9.45437e-08
5.27069e-08
3.58428e-08
2.97813e-08
3.13395e-08
4.25029e-08
7.09626e-08
1.33114e-07
2.5838e-07
4.95074e-07
9.23321e-07
1.05053e-06
3.82704e-07
1.36846e-07
5.21258e-08
2.37912e-08
1.40388e-08
1.09644e-08
1.16628e-08
1.71122e-08
3.23356e-08
6.90929e-08
1.50497e-07
3.17299e-07
6.40459e-07
8.30146e-07
2.95184e-07
1.00194e-07
3.37451e-08
1.23905e-08
5.78467e-09
3.98121e-09
4.35967e-09
7.36968e-09
1.63698e-08
3.97659e-08
9.53063e-08
2.16727e-07
4.6591e-07
6.92463e-07
2.49835e-07
8.50996e-08
2.74402e-08
8.67759e-09
3.06003e-09
1.63995e-09
1.8535e-09
3.82647e-09
9.96936e-09
2.66687e-08
6.81543e-08
1.63246e-07
3.67191e-07
6.43162e-07
2.44102e-07
8.68267e-08
2.84725e-08
8.65279e-09
2.65618e-09
1.17937e-09
1.33824e-09
3.03323e-09
8.29544e-09
2.26937e-08
5.89722e-08
1.43923e-07
3.30419e-07
6.78351e-07
2.73021e-07
1.01945e-07
3.48041e-08
1.11138e-08
3.85113e-09
2.16265e-09
2.50873e-09
4.67168e-09
1.08551e-08
2.70028e-08
6.66758e-08
1.58231e-07
3.57755e-07
8.03919e-07
3.39862e-07
1.32698e-07
4.81403e-08
1.75284e-08
8.17389e-09
6.44159e-09
7.77802e-09
1.19741e-08
2.20652e-08
4.57361e-08
1.0015e-07
2.19393e-07
4.69269e-07
1.00633e-06
4.42835e-07
1.8391e-07
7.47218e-08
3.37963e-08
2.13296e-08
2.03389e-08
2.49823e-08
3.52259e-08
5.58164e-08
9.77208e-08
1.85164e-07
3.62468e-07
7.11842e-07
1.2976e-06
6.04586e-07
2.80783e-07
1.3607e-07
7.74002e-08
5.90783e-08
6.09262e-08
7.54174e-08
1.0251e-07
1.49389e-07
2.30744e-07
3.79703e-07
6.55308e-07
1.15966e-06
5.04365e-06
3.79236e-06
2.93187e-06
2.32359e-06
1.92631e-06
1.73514e-06
1.7539e-06
1.99057e-06
2.44369e-06
3.09741e-06
3.93751e-06
4.95167e-06
6.17483e-06
7.78607e-06
3.18269e-06
2.16579e-06
1.60197e-06
1.22986e-06
9.77824e-07
8.31718e-07
7.92745e-07
8.71623e-07
1.08523e-06
1.44885e-06
1.97732e-06
2.67799e-06
3.58181e-06
4.83257e-06
2.1411e-06
1.26283e-06
8.56439e-07
6.26459e-07
4.78105e-07
3.87537e-07
3.50631e-07
3.72032e-07
4.65098e-07
6.50063e-07
9.52854e-07
1.40021e-06
2.03584e-06
2.96682e-06
1.49936e-06
7.59127e-07
4.52795e-07
3.06666e-07
2.2262e-07
1.72464e-07
1.49276e-07
1.53643e-07
1.93066e-07
2.83226e-07
4.49172e-07
7.24884e-07
1.16212e-06
1.85056e-06
1.0713e-06
4.72818e-07
2.41327e-07
1.45708e-07
9.85811e-08
7.26815e-08
6.05149e-08
6.10333e-08
7.80543e-08
1.21948e-07
2.12636e-07
3.82379e-07