/*--------------------------------*- C++ -*----------------------------------*\
| =========                 |                                                 |
| \\      /  F ield         | OpenFOAM: The Open Source CFD Toolbox           |
|  \\    /   O peration     | Version:  v2106                                 |
|   \\  /    A nd           | Website:  www.openfoam.com                      |
|    \\/     M anipulation  |                                                 |
\*---------------------------------------------------------------------------*/
FoamFile
{
    version     2.0;
    format      ascii;
    arch        "LSB;label=32;scalar=64";
    class       volScalarField;
    location    "0.000216";
    object      nut;
}
// * * * * * * * * * * * * * * * * * * * * * * * * * * * * * * * * * * * * * //

dimensions      [0 2 -1 0 0 0 0];

internalField   nonuniform List<scalar> 
144746
(
4.03052e-05
3.12277e-05
2.4153e-05
2.00484e-05
1.8826e-05
1.9109e-05
2.01552e-05
2.10846e-05
2.2021e-05
2.33373e-05
2.52613e-05
2.88497e-05
3.50065e-05
4.15849e-05
2.75346e-05
1.95913e-05
1.41964e-05
1.09031e-05
9.49638e-06
9.30717e-06
1.00154e-05
1.11601e-05
1.25661e-05
1.43425e-05
1.68018e-05
2.00179e-05
2.48958e-05
3.20889e-05
1.77398e-05
1.21544e-05
8.82407e-06
6.56999e-06
5.3382e-06
4.87944e-06
5.10895e-06
5.89247e-06
7.12901e-06
8.7023e-06
1.06928e-05
1.34193e-05
1.66912e-05
2.24888e-05
1.19848e-05
8.27424e-06
5.9005e-06
4.25642e-06
3.25466e-06
2.76023e-06
2.73425e-06
3.16154e-06
4.03942e-06
5.31736e-06
6.90316e-06
8.61232e-06
1.07565e-05
1.48958e-05
9.12394e-06
6.09088e-06
4.10237e-06
2.7937e-06
2.00087e-06
1.58389e-06
1.48191e-06
1.69395e-06
2.26602e-06
3.21845e-06
4.48683e-06
5.90344e-06
7.60565e-06
1.05596e-05
7.38546e-06
4.55049e-06
2.80841e-06
1.76201e-06
1.17009e-06
8.68059e-07
7.75548e-07
8.85535e-07
1.25412e-06
1.93676e-06
2.92449e-06
4.12411e-06
5.51862e-06
8.03106e-06
5.97876e-06
3.30692e-06
1.82951e-06
1.03844e-06
6.3303e-07
4.40748e-07
3.82982e-07
4.5149e-07
6.96821e-07
1.18621e-06
1.95054e-06
2.96534e-06
4.25074e-06
6.59361e-06
4.7982e-06
2.36186e-06
1.1531e-06
5.79883e-07
3.18534e-07
2.07423e-07
1.81099e-07
2.34868e-07
4.11847e-07
7.78257e-07
1.38654e-06
2.25786e-06
3.48408e-06
5.8718e-06
3.95677e-06
1.76599e-06
7.6563e-07
3.36128e-07
1.61656e-07
9.76582e-08
9.13469e-08
1.41899e-07
2.86507e-07
5.86173e-07
1.10192e-06
1.892e-06
3.144e-06
5.73431e-06
3.69754e-06
1.57583e-06
6.38769e-07
2.5475e-07
1.09633e-07
6.31816e-08
6.61025e-08
1.1836e-07
2.53717e-07
5.30128e-07
1.0178e-06
1.81984e-06
3.23808e-06
6.12909e-06
4.18927e-06
1.82856e-06
7.59718e-07
3.1058e-07
1.39484e-07
8.54633e-08
8.88445e-08
1.46061e-07
2.89997e-07
5.82068e-07
1.11325e-06
2.0587e-06
3.82786e-06
7.05002e-06
5.77544e-06
2.76604e-06
1.29062e-06
5.94245e-07
2.96064e-07
1.89421e-07
1.78539e-07
2.42883e-07
4.13123e-07
7.62979e-07
1.42613e-06
2.6789e-06
4.97574e-06
8.5635e-06
8.55778e-06
4.5426e-06
2.42392e-06
1.3036e-06
7.27899e-07
4.72493e-07
4.0628e-07
4.71678e-07
6.84469e-07
1.13226e-06
2.00422e-06
3.71749e-06
6.67477e-06
1.06257e-05
1.21934e-05
7.0038e-06
4.19744e-06
2.63781e-06
1.69341e-06
1.15928e-06
9.42895e-07
9.69737e-07
1.22431e-06
1.79009e-06
2.89685e-06
5.08781e-06
8.66149e-06
1.29513e-05
3.34538e-05
2.42136e-05
1.76547e-05
1.375e-05
1.20483e-05
1.15649e-05
1.17379e-05
1.20795e-05
1.25092e-05
1.30726e-05
1.46083e-05
1.7252e-05
2.29037e-05
2.98879e-05
2.03877e-05
1.36679e-05
9.9358e-06
7.57341e-06
6.3658e-06
5.96169e-06
6.11832e-06
6.57473e-06
7.24755e-06
8.02134e-06
9.10904e-06
1.11654e-05
1.50429e-05
2.13829e-05
1.13445e-05
7.70575e-06
5.6214e-06
4.268e-06
3.49115e-06
3.16562e-06
3.21291e-06
3.54535e-06
4.13282e-06
4.92199e-06
5.93585e-06
7.29935e-06
9.83581e-06
1.40092e-05
7.41166e-06
4.87198e-06
3.40542e-06
2.51317e-06
1.98529e-06
1.72783e-06
1.70569e-06
1.90139e-06
2.32449e-06
2.96873e-06
3.83617e-06
4.91275e-06
6.40676e-06
9.20264e-06
5.72749e-06
3.46946e-06
2.22934e-06
1.53281e-06
1.14152e-06
9.43132e-07
8.9787e-07
9.99287e-07
1.27611e-06
1.75891e-06
2.45449e-06
3.36117e-06
4.55629e-06
6.56837e-06
4.73456e-06
2.60612e-06
1.50422e-06
9.33851e-07
6.38881e-07
4.94957e-07
4.52784e-07
5.04989e-07
6.83165e-07
1.02877e-06
1.56964e-06
2.32056e-06
3.32961e-06
4.92702e-06
3.93065e-06
1.97169e-06
1.01295e-06
5.54816e-07
3.39583e-07
2.42982e-07
2.14308e-07
2.44924e-07
3.6158e-07
6.08219e-07
1.02511e-06
1.64537e-06
2.51951e-06
3.90347e-06
3.36427e-06
1.5472e-06
7.04322e-07
3.32235e-07
1.74888e-07
1.12038e-07
9.60533e-08
1.18598e-07
2.00928e-07
3.83565e-07
7.13059e-07
1.23426e-06
2.01451e-06
3.31303e-06
3.06041e-06
1.31679e-06
5.41175e-07
2.19909e-07
9.59421e-08
5.24108e-08
4.47123e-08
6.53891e-08
1.31942e-07
2.80571e-07
5.58739e-07
1.02115e-06
1.75912e-06
3.05498e-06
3.14724e-06
1.31569e-06
5.1397e-07
1.90813e-07
7.18666e-08
3.35868e-08
2.93086e-08
5.08642e-08
1.13883e-07
2.52503e-07
5.15367e-07
9.67201e-07
1.7281e-06
3.093e-06
3.66075e-06
1.53676e-06
6.04895e-07
2.27491e-07
8.80395e-08
4.32788e-08
3.84342e-08
6.27444e-08
1.31622e-07
2.80685e-07
5.6393e-07
1.06152e-06
1.91825e-06
3.43704e-06
4.90781e-06
2.14425e-06
9.01017e-07
3.75733e-07
1.67576e-07
9.44391e-08
8.17957e-08
1.10533e-07
1.95311e-07
3.77003e-07
7.22355e-07
1.33856e-06
2.39046e-06
4.17527e-06
6.96507e-06
3.19347e-06
1.47433e-06
7.16436e-07
3.76803e-07
2.3569e-07
1.98954e-07
2.32239e-07
3.4451e-07
5.83845e-07
1.04255e-06
1.87681e-06
3.33282e-06
5.49502e-06
9.94446e-06
4.7564e-06
2.40208e-06
1.35138e-06
8.28195e-07
5.69529e-07
4.78658e-07
5.11282e-07
6.65626e-07
9.96747e-07
1.62263e-06
2.79361e-06
4.82303e-06
7.5025e-06
2.33424e-05
1.62533e-05
1.15135e-05
8.59356e-06
7.07146e-06
6.46027e-06
6.4227e-06
6.68703e-06
7.18639e-06
7.72337e-06
8.27714e-06
9.05766e-06
1.13166e-05
1.69276e-05
1.21642e-05
8.2891e-06
5.85903e-06
4.35733e-06
3.53992e-06
3.20483e-06
3.21457e-06
3.44144e-06
3.85874e-06
4.38259e-06
4.9968e-06
5.7145e-06
7.0867e-06
1.09033e-05
7.0719e-06
4.42563e-06
2.99314e-06
2.19716e-06
1.77084e-06
1.58945e-06
1.59561e-06
1.74325e-06
2.03178e-06
2.43789e-06
2.97099e-06
3.6408e-06
4.73614e-06
6.80961e-06
5.29905e-06
2.88541e-06
1.72413e-06
1.17264e-06
9.07713e-07
7.94828e-07
7.87202e-07
8.66669e-07
1.04512e-06
1.33117e-06
1.74451e-06
2.31435e-06
3.20396e-06
4.67644e-06
4.33607e-06
2.12415e-06
1.10936e-06
6.66862e-07
4.75381e-07
3.96101e-07
3.81352e-07
4.19029e-07
5.22531e-07
7.12965e-07
1.01885e-06
1.47879e-06
2.19482e-06
3.34179e-06
3.57928e-06
1.6265e-06
7.58752e-07
3.95816e-07
2.48877e-07
1.9137e-07
1.76955e-07
1.94008e-07
2.53143e-07
3.77773e-07
5.99508e-07
9.61748e-07
1.53846e-06
2.47086e-06
2.96921e-06
1.27797e-06
5.43438e-07
2.45253e-07
1.30499e-07
8.84417e-08
7.72461e-08
8.57312e-08
1.21043e-07
2.03813e-07
3.65344e-07
6.49873e-07
1.1219e-06
1.90285e-06
2.64047e-06
1.09315e-06
4.31768e-07
1.69878e-07
7.35799e-08
4.07514e-08
3.24347e-08
3.786e-08
6.17421e-08
1.20949e-07
2.43985e-07
4.73483e-07
8.72336e-07
1.54873e-06
2.53401e-06
1.02455e-06
3.86006e-07
1.37899e-07
4.96432e-08
2.12253e-08
1.46559e-08
1.93932e-08
3.89521e-08
8.77164e-08
1.91623e-07
3.91122e-07
7.48501e-07
1.36674e-06
2.72633e-06
1.09745e-06
4.0757e-07
1.40604e-07
4.64264e-08
1.67003e-08
1.01816e-08
1.52132e-08
3.47476e-08
8.24843e-08
1.83473e-07
3.77121e-07
7.26364e-07
1.33369e-06
3.1724e-06
1.27777e-06
4.77492e-07
1.68433e-07
5.8417e-08
2.29767e-08
1.50651e-08
2.1071e-08
4.38672e-08
9.81679e-08
2.10396e-07
4.21402e-07
7.97363e-07
1.4447e-06
4.13571e-06
1.68109e-06
6.4798e-07
2.48007e-07
1.0014e-07
4.88424e-08
3.59443e-08
4.35774e-08
7.39212e-08
1.44046e-07
2.83793e-07
5.3866e-07
9.80276e-07
1.71918e-06
5.58585e-06
2.2856e-06
9.27287e-07
4.04739e-07
1.99499e-07
1.19261e-07
9.54649e-08
1.05815e-07
1.50554e-07
2.50178e-07
4.40045e-07
7.79559e-07
1.35564e-06
2.26489e-06
7.88594e-06
3.2354e-06
1.41245e-06
7.13212e-07
4.20328e-07
2.92384e-07
2.49289e-07
2.65832e-07
3.39483e-07
4.95533e-07
7.75806e-07
1.27362e-06
2.11448e-06
3.34745e-06
4.9355e-05
5.89939e-05
6.65283e-05
7.07095e-05
7.24847e-05
9.64566e-05
4.03558e-05
5.23141e-05
6.28299e-05
6.97532e-05
7.57062e-05
0.000107608
3.16039e-05
4.59173e-05
5.88775e-05
6.7651e-05
7.70168e-05
0.000117867
2.39991e-05
4.01069e-05
5.49973e-05
6.46196e-05
7.62455e-05
0.000126786
1.81199e-05
3.48825e-05
5.08698e-05
6.09889e-05
7.41952e-05
0.00013427
1.48224e-05
3.02064e-05
4.64072e-05
5.72858e-05
7.18817e-05
0.000140005
1.31643e-05
2.65009e-05
4.14964e-05
5.33594e-05
6.97017e-05
0.000144062
1.22614e-05
2.34678e-05
3.66411e-05
4.9282e-05
6.74828e-05
0.000145419
1.17271e-05
2.07342e-05
3.20662e-05
4.51755e-05
6.53771e-05
0.00014385
1.14856e-05
1.85169e-05
2.81574e-05
4.13345e-05
6.29664e-05
0.000138808
1.1681e-05
1.726e-05
2.54953e-05
3.82964e-05
6.04086e-05
0.000130766
1.24489e-05
1.71247e-05
2.43797e-05
3.65361e-05
5.78496e-05
0.000120403
1.36845e-05
1.78679e-05
2.47818e-05
3.63473e-05
5.62241e-05
0.000108592
1.49678e-05
1.91945e-05
2.63874e-05
3.75656e-05
5.57348e-05
9.52436e-05
3.78537e-05
4.79066e-05
5.73918e-05
6.50541e-05
7.12603e-05
8.78699e-05
2.80736e-05
3.81058e-05
4.94813e-05
6.05554e-05
7.19002e-05
9.74583e-05
2.00584e-05
3.01025e-05
4.26238e-05
5.59653e-05
7.12982e-05
0.000106134
1.41805e-05
2.38585e-05
3.7e-05
5.15646e-05
6.88623e-05
0.000113682
1.04301e-05
1.92993e-05
3.25193e-05
4.7441e-05
6.56176e-05
0.000120112
8.21743e-06
1.60127e-05
2.90089e-05
4.38547e-05
6.29334e-05
0.000125383
6.93654e-06
1.38303e-05
2.58041e-05
4.03226e-05
6.07257e-05
0.000129308
6.21351e-06
1.2401e-05
2.2988e-05
3.69766e-05
5.90362e-05
0.000130932
5.8723e-06
1.12605e-05
2.0351e-05
3.37436e-05
5.73652e-05
0.000129536
5.8008e-06
1.03136e-05
1.79988e-05
3.07164e-05
5.52909e-05
0.000124762
6.01241e-06
9.78302e-06
1.63442e-05
2.83011e-05
5.29523e-05
0.000117072
6.61378e-06
9.90022e-06
1.57212e-05
2.69454e-05
5.06932e-05
0.000107246
7.65945e-06
1.07469e-05
1.63114e-05
2.70461e-05
4.94679e-05
9.5999e-05
8.89744e-06
1.20874e-05
1.79548e-05
2.85652e-05
4.91998e-05
8.34434e-05
2.36573e-05
3.34871e-05
4.42604e-05
5.44409e-05
6.60343e-05
7.53016e-05
1.62512e-05
2.40171e-05
3.38297e-05
4.53598e-05
6.11047e-05
8.27e-05
1.06774e-05
1.70717e-05
2.58006e-05
3.78441e-05
5.64627e-05
8.93864e-05
7.13586e-06
1.23461e-05
2.0095e-05
3.20418e-05
5.16118e-05
9.55222e-05
5.31567e-06
9.28605e-06
1.61956e-05
2.7788e-05
4.74584e-05
0.000101346
4.14357e-06
7.37929e-06
1.35758e-05
2.46713e-05
4.42862e-05
0.000106919
3.34593e-06
6.12605e-06
1.18338e-05
2.22715e-05
4.20546e-05
0.000111609
2.83175e-06
5.34975e-06
1.06109e-05
2.04766e-05
4.11467e-05
0.000114095
2.56497e-06
4.90224e-06
9.66723e-06
1.9019e-05
4.07009e-05
0.000113479
2.49909e-06
4.64351e-06
8.89518e-06
1.77965e-05
4.01308e-05
0.00010925
2.61203e-06
4.56509e-06
8.36882e-06
1.68207e-05
3.92184e-05
0.000101827
2.91299e-06
4.72613e-06
8.2341e-06
1.63085e-05
3.81715e-05
9.21325e-05
3.43824e-06
5.23106e-06
8.70711e-06
1.66955e-05
3.76871e-05
8.12112e-05
4.10931e-06
6.01987e-06
9.87748e-06
1.82702e-05
3.80371e-05
6.95255e-05
1.58723e-05
2.11918e-05
2.91653e-05
4.01735e-05
5.73964e-05
9.52858e-05
1.11359e-05
1.5913e-05
2.37858e-05
3.58284e-05
5.6182e-05
0.000103261
7.17202e-06
1.13115e-05
1.88953e-05
3.14253e-05
5.36384e-05
0.000110013
4.63006e-06
8.07297e-06
1.51484e-05
2.76297e-05
5.06621e-05
0.000116031
3.25144e-06
6.23465e-06
1.2705e-05
2.45855e-05
4.80876e-05
0.00012183
2.56704e-06
5.42551e-06
1.14565e-05
2.2637e-05
4.66303e-05
0.000127609
2.30623e-06
5.18373e-06
1.09726e-05
2.15302e-05
4.71521e-05
0.000133279
2.386e-06
5.28438e-06
1.0843e-05
2.1488e-05
5.01921e-05
0.000138078
2.76647e-06
5.58824e-06
1.09131e-05
2.23854e-05
5.58941e-05
0.000140862
3.42292e-06
6.09625e-06
1.14266e-05
2.47627e-05
6.34062e-05
0.000140532
4.37919e-06
7.02746e-06
1.30215e-05
2.92448e-05
7.19831e-05
0.000136496
5.91009e-06
9.02602e-06
1.67034e-05
3.64737e-05
8.1397e-05
0.0001289
8.73109e-06
1.32517e-05
2.38077e-05
4.71118e-05
9.23244e-05
0.000118022
1.37003e-05
2.1047e-05
3.55945e-05
6.16868e-05
0.000105257
0.0001045
9.97118e-06
1.40794e-05
2.05555e-05
3.13287e-05
5.04453e-05
8.25026e-05
6.82e-06
1.02695e-05
1.60119e-05
2.62352e-05
4.61261e-05
8.85773e-05
4.32054e-06
7.10344e-06
1.2075e-05
2.17049e-05
4.16807e-05
9.37087e-05
2.78918e-06
4.94804e-06
9.16858e-06
1.80443e-05
3.80305e-05
9.84229e-05
1.93372e-06
3.7283e-06
7.39805e-06
1.56073e-05
3.60097e-05
0.000103399
1.45627e-06
3.05238e-06
6.45064e-06
1.43569e-05
3.59573e-05
0.000109083
1.22845e-06
2.73773e-06
6.06723e-06
1.42185e-05
3.86947e-05
0.000115565
1.1904e-06
2.69016e-06
6.14196e-06
1.53294e-05
4.45797e-05
0.000122177
1.33208e-06
2.88162e-06
6.75018e-06
1.80501e-05
5.3641e-05
0.000127411
1.66448e-06
3.37764e-06
8.14294e-06
2.27592e-05
6.495e-05
0.000129522
2.25483e-06
4.37637e-06
1.07817e-05
2.9622e-05
7.69218e-05
0.000127504
3.37089e-06
6.36905e-06
1.52156e-05
3.85362e-05
8.81363e-05
0.000121347
5.76215e-06
1.04595e-05
2.25551e-05
4.96108e-05
9.7698e-05
0.000111394
1.07372e-05
1.86263e-05
3.46826e-05
6.34409e-05
0.000105399
9.83502e-05
4.91386e-06
7.52248e-06
1.2182e-05
2.12909e-05
3.89562e-05
6.70863e-05
3.39547e-06
5.58221e-06
9.56347e-06
1.76358e-05
3.49214e-05
7.14258e-05
2.22835e-06
3.97918e-06
7.29012e-06
1.44879e-05
3.17434e-05
7.5355e-05
1.49555e-06
2.8614e-06
5.59107e-06
1.21192e-05
2.98483e-05
7.94654e-05
1.06157e-06
2.18621e-06
4.57233e-06
1.08523e-05
2.9712e-05
8.43996e-05
7.98976e-07
1.7686e-06
4.02798e-06
1.05957e-05
3.1719e-05
9.07783e-05
6.64729e-07
1.57145e-06
3.96831e-06
1.15792e-05
3.64737e-05
9.85428e-05
6.30914e-07
1.58553e-06
4.49921e-06
1.42183e-05
4.46119e-05
0.000106896
7.08578e-07
1.89816e-06
5.90688e-06
1.90456e-05
5.60473e-05
0.000114204
9.38448e-07
2.66274e-06
8.51912e-06
2.62404e-05
6.97046e-05
0.000118667
1.41545e-06
4.05816e-06
1.24769e-05
3.52272e-05
8.3593e-05
0.000118843
2.31359e-06
6.2599e-06
1.76333e-05
4.5008e-05
9.58415e-05
0.000114194
4.09905e-06
9.8748e-06
2.4223e-05
5.50513e-05
0.000103927
0.000105134
8.22193e-06
1.71543e-05
3.4791e-05
6.60103e-05
0.000104166
9.22681e-05
0.000101025
0.000100026
9.15342e-05
7.50325e-05
5.74102e-05
4.45122e-05
0.000114941
9.96432e-05
8.29111e-05
6.08342e-05
4.30215e-05
3.25341e-05
0.000127249
0.000100693
7.3993e-05
4.90075e-05
3.16786e-05
2.2585e-05
0.000138179
0.000102123
6.78435e-05
4.16269e-05
2.49351e-05
1.64855e-05
0.00014569
0.000101294
6.51843e-05
3.82965e-05
2.17997e-05
1.32696e-05
0.000150088
0.000101196
6.39589e-05
3.69803e-05
2.06718e-05
1.18225e-05
0.000151446
0.000102593
6.2786e-05
3.66106e-05
2.0031e-05
1.06375e-05
0.000150501
0.000104611
6.24402e-05
3.57286e-05
1.89325e-05
9.4202e-06
0.000147092
0.000108205
6.2768e-05
3.45949e-05
1.76734e-05
8.39335e-06
0.000141528
0.000112383
6.38583e-05
3.43104e-05
1.72747e-05
8.1208e-06
0.000134202
0.000115706
6.65752e-05
3.61899e-05
1.86377e-05
9.05921e-06
0.000125438
0.000117191
7.01601e-05
4.02633e-05
2.20835e-05
1.16261e-05
0.000115192
0.000116497
7.36622e-05
4.53617e-05
2.69695e-05
1.57429e-05
0.000103688
0.000113319
7.62358e-05
5.06158e-05
3.27729e-05
2.09766e-05
9.65556e-05
0.000110973
9.26206e-05
7.06697e-05
5.06444e-05
3.68482e-05
0.000110293
0.000111103
8.4419e-05
5.70181e-05
3.64973e-05
2.47237e-05
0.000122454
0.000113143
7.72852e-05
4.65826e-05
2.62052e-05
1.60938e-05
0.000132563
0.000115562
7.2466e-05
4.0376e-05
2.10462e-05
1.15671e-05
0.000140083
0.000116754
6.97387e-05
3.68275e-05
1.85848e-05
9.8203e-06
0.0001447
0.000116439
6.64568e-05
3.48169e-05
1.75358e-05
8.77225e-06
0.000146282
0.000114165
6.32236e-05
3.29227e-05
1.62807e-05
7.79235e-06
0.000145092
0.000111206
6.04791e-05
3.10584e-05
1.51729e-05
7.05993e-06
0.000141131
0.000109354
5.89483e-05
2.99993e-05
1.45854e-05
6.70045e-06
0.000135097
0.000108941
5.92871e-05
3.05189e-05
1.50629e-05
7.00419e-06
0.000127479
0.000109427
6.18453e-05
3.30422e-05
1.68823e-05
8.11648e-06
0.000118604
0.000109904
6.61174e-05
3.76795e-05
2.04676e-05
1.05092e-05
0.000108503
0.00010972
7.08105e-05
4.3349e-05
2.53572e-05
1.42001e-05
9.73696e-05
0.000108732
7.59021e-05
5.01701e-05
3.17671e-05
1.94148e-05
9.15323e-05
0.000115336
9.0134e-05
6.33643e-05
4.12199e-05
2.56928e-05
0.000105067
0.00011772
8.32197e-05
5.11025e-05
2.91485e-05
1.58761e-05
0.00011761
0.000120651
7.8862e-05
4.37225e-05
2.17798e-05
1.16228e-05
0.000128577
0.000123194
7.5315e-05
3.89492e-05
1.95874e-05
1.00028e-05
0.000137322
0.000123722
7.19921e-05
3.69344e-05
1.82451e-05
8.78804e-06
0.000142779
0.000120967
6.84344e-05
3.46014e-05
1.66264e-05
7.63735e-06
0.000144538
0.000115502
6.38144e-05
3.16887e-05
1.48425e-05
6.58819e-06
0.000142716
0.000108927
5.92027e-05
2.92433e-05
1.36611e-05
6.00074e-06
0.00013778
0.000102899
5.58991e-05
2.79033e-05
1.31855e-05
5.82788e-06
0.000130514
9.87476e-05
5.48187e-05
2.82343e-05
1.37617e-05
6.25527e-06
0.000121742
9.66698e-05
5.62753e-05
3.03588e-05
1.5373e-05
7.2447e-06
0.000111985
9.59774e-05
6.0258e-05
3.47052e-05
1.86518e-05
9.34152e-06
0.000101484
9.62401e-05
6.56844e-05
4.03679e-05
2.31552e-05
1.24614e-05
9.05656e-05
9.79619e-05
7.36376e-05
4.87803e-05
3.01849e-05
1.76431e-05
9.43272e-05
7.19681e-05
6.93059e-05
6.31298e-05
5.44995e-05
4.59021e-05
0.00010659
7.24273e-05
6.77609e-05
5.94528e-05
4.97102e-05
4.12765e-05
0.000117649
7.31754e-05
6.65066e-05
5.67046e-05
4.56769e-05
3.64128e-05
0.000127206
7.42201e-05
6.61401e-05
5.56479e-05
4.36003e-05
3.35426e-05
0.000134966
7.57287e-05
6.68877e-05
5.69294e-05
4.45659e-05
3.33474e-05
0.000140793
7.76893e-05
6.86947e-05
6.03167e-05
4.82641e-05
3.44506e-05
0.000144479
8.0044e-05
7.12729e-05
6.51591e-05
5.28705e-05
3.58605e-05
0.00014562
8.30664e-05
7.47559e-05
7.02882e-05
5.72465e-05
3.70729e-05
0.000143685
8.68585e-05
7.93069e-05
7.50775e-05
5.99917e-05
3.7066e-05
0.000139034
9.13475e-05
8.43301e-05
7.82118e-05
6.04262e-05
3.65517e-05
0.000132132
9.63435e-05
8.9126e-05
7.95347e-05
5.98823e-05
3.69211e-05
0.000123421
0.000100163
9.26366e-05
8.03456e-05
6.09119e-05
4.01314e-05
0.00011309
0.000101066
9.59963e-05
8.37366e-05
6.54683e-05
4.6848e-05
0.000101519
9.89958e-05
9.74216e-05
8.78376e-05
7.25358e-05
5.62982e-05
8.64586e-05
7.2053e-05
6.51428e-05
5.57118e-05
4.41535e-05
3.44028e-05
9.834e-05
7.37654e-05
6.55971e-05
5.29817e-05
3.94711e-05
2.96843e-05
0.00010914
7.59755e-05
6.62841e-05
5.10919e-05
3.55025e-05
2.48064e-05
0.000118563
7.86169e-05
6.8012e-05
5.13118e-05
3.38269e-05
2.20795e-05
0.000126266
8.15516e-05
7.08217e-05
5.37305e-05
3.44773e-05
2.14091e-05
0.000132096
8.45459e-05
7.42715e-05
5.71811e-05
3.67724e-05
2.10006e-05
0.000135853
8.73263e-05
7.75101e-05
6.08652e-05
3.81972e-05
2.14076e-05
0.000137486
9.00505e-05
8.04293e-05
6.33e-05
3.97591e-05
2.19098e-05
0.000136485
9.29097e-05
8.28887e-05
6.49532e-05
4.07997e-05
2.21847e-05
0.000132382
9.6934e-05
8.49631e-05
6.53711e-05
4.12766e-05
2.28357e-05
0.00012605
0.000102354
8.69152e-05
6.57153e-05
4.26476e-05
2.4906e-05
0.000117687
0.000107158
8.91493e-05
6.80134e-05
4.67532e-05
2.97343e-05
0.00010763
0.000108886
9.3633e-05
7.42181e-05
5.43585e-05
3.77031e-05
9.63115e-05
0.000109503
9.82981e-05
8.25015e-05
6.51109e-05
4.8853e-05
7.63351e-05
7.03165e-05
5.77209e-05
4.43064e-05
3.04936e-05
2.088e-05
8.89733e-05
7.49691e-05
6.06359e-05
4.20435e-05
2.63548e-05
1.72746e-05
0.000101194
8.01987e-05
6.38576e-05
4.18107e-05
2.42874e-05
1.45182e-05
0.000112497
8.59583e-05
6.82286e-05
4.3708e-05
2.43063e-05
1.34447e-05
0.000122213
9.18654e-05
7.31382e-05
4.64713e-05
2.45786e-05
1.3218e-05
0.000129809
9.73439e-05
7.72998e-05
4.74305e-05
2.5195e-05
1.30938e-05
0.000134857
0.000101376
7.87342e-05
4.73083e-05
2.52865e-05
1.2757e-05
0.000137054
0.000103198
7.75388e-05
4.71255e-05
2.52333e-05
1.26337e-05
0.00013561
0.000102704
7.57858e-05
4.68426e-05
2.54166e-05
1.28477e-05
0.000130895
0.000102811
7.41333e-05
4.67072e-05
2.62462e-05
1.37802e-05
0.000123379
0.000104317
7.4807e-05
4.87279e-05
2.90187e-05
1.60662e-05
0.000113727
0.000106339
7.84239e-05
5.39899e-05
3.46454e-05
2.07985e-05
0.000102632
0.000107682
8.50378e-05
6.27165e-05
4.3532e-05
2.86013e-05
9.0764e-05
0.000110318
9.36821e-05
7.39552e-05
5.52856e-05
3.93465e-05
1.12203e-05
7.70992e-06
5.39551e-06
3.98466e-06
3.23138e-06
2.9326e-06
2.9611e-06
3.21089e-06
3.63164e-06
4.1393e-06
4.68832e-06
5.23177e-06
5.85837e-06
6.93836e-06
6.41693e-06
3.94796e-06
2.60906e-06
1.87137e-06
1.49024e-06
1.33841e-06
1.35537e-06
1.50029e-06
1.7607e-06
2.11007e-06
2.5341e-06
2.99991e-06
3.56244e-06
4.47547e-06
4.73953e-06
2.44095e-06
1.38577e-06
9.04515e-07
6.87685e-07
6.0576e-07
6.10781e-07
6.8424e-07
8.26292e-07
1.03697e-06
1.31962e-06
1.66839e-06
2.13521e-06
2.8847e-06
3.87826e-06
1.76214e-06
8.39883e-07
4.66729e-07
3.22258e-07
2.72336e-07
2.70758e-07
3.04605e-07
3.75665e-07
4.92065e-07
6.66495e-07
9.1307e-07
1.27843e-06
1.88347e-06
3.20339e-06
1.33829e-06
5.54503e-07
2.56845e-07
1.53016e-07
1.20283e-07
1.16739e-07
1.31413e-07
1.6525e-07
2.2698e-07
3.31676e-07
5.02055e-07
7.81737e-07
1.26496e-06
2.62767e-06
1.03349e-06
3.87577e-07
1.52074e-07
7.46181e-08
5.18994e-08
4.83137e-08
5.44158e-08
7.04122e-08
1.0334e-07
1.66933e-07
2.85045e-07
4.977e-07
8.8289e-07
2.16055e-06
8.15502e-07
2.8698e-07
9.93923e-08
3.93977e-08
2.23813e-08
1.91425e-08
2.16173e-08
2.96391e-08
4.83854e-08
8.92331e-08
1.7353e-07
3.37007e-07
6.46034e-07
1.85139e-06
6.81203e-07
2.3132e-07
7.42e-08
2.45297e-08
1.05107e-08
7.51934e-09
8.53212e-09
1.31877e-08
2.53795e-08
5.43651e-08
1.18358e-07
2.49099e-07
5.03874e-07
1.67632e-06
6.10072e-07
2.04436e-07
6.34992e-08
1.89245e-08
6.22877e-09
3.32575e-09
3.81621e-09
7.26306e-09
1.69164e-08
4.07922e-08
9.49469e-08
2.08391e-07
4.32471e-07
1.6822e-06
6.1476e-07
2.07269e-07
6.45129e-08
1.87402e-08
5.47161e-09
2.33468e-09
2.73364e-09
6.15677e-09
1.57886e-08
3.93783e-08
9.23178e-08
2.02783e-07
4.20029e-07
1.84666e-06
6.74777e-07
2.28354e-07
7.23199e-08
2.19091e-08
7.03955e-09
3.53073e-09
4.18987e-09
8.54573e-09
2.029e-08
4.78866e-08
1.08005e-07
2.30445e-07
4.66558e-07
2.36962e-06
8.63956e-07
2.94736e-07
9.73313e-08
3.31126e-08
1.37876e-08
9.33264e-09
1.07689e-08
1.75947e-08
3.45906e-08
7.17935e-08
1.49548e-07
3.01125e-07
5.8453e-07
3.20145e-06
1.16429e-06
4.11528e-07
1.51412e-07
6.36128e-08
3.5406e-08
2.87772e-08
3.22043e-08
4.49365e-08
7.34574e-08
1.29703e-07
2.41386e-07
4.45121e-07
8.10988e-07
4.78367e-06
1.8166e-06
7.38428e-07
3.29537e-07
1.67014e-07
1.0604e-07
9.01577e-08
9.82039e-08
1.26048e-07
1.81976e-07
2.78498e-07
4.55195e-07
7.46314e-07
1.22362e-06
6.24323e-06
4.2806e-06
3.09152e-06
2.37128e-06
1.99026e-06
1.86851e-06
1.95609e-06
2.20271e-06
2.57087e-06
3.01699e-06
3.51562e-06
4.0491e-06
4.65093e-06
5.49957e-06
4.07395e-06
2.40305e-06
1.57976e-06
1.1485e-06
9.27125e-07
8.44977e-07
8.73628e-07
9.97885e-07
1.20868e-06
1.49614e-06
1.85444e-06
2.27111e-06
2.7732e-06
3.48972e-06
3.1901e-06
1.59891e-06
8.92302e-07
5.8013e-07
4.37719e-07
3.81966e-07
3.85352e-07
4.40705e-07
5.48294e-07
7.12764e-07
9.40656e-07
1.234e-06
1.6219e-06
2.19615e-06
2.61536e-06
1.17012e-06
5.51452e-07
3.0489e-07
2.07253e-07
1.70664e-07
1.66934e-07
1.89707e-07
2.40606e-07
3.2753e-07
4.62055e-07
6.57715e-07
9.45753e-07
1.39562e-06
2.16732e-06
8.90335e-07
3.64502e-07
1.676e-07
9.78948e-08
7.42382e-08
7.00455e-08
7.89891e-08
1.02054e-07
1.46186e-07
2.23284e-07
3.51637e-07
5.62454e-07
9.1287e-07
1.78628e-06
6.89264e-07
2.54426e-07
9.85741e-08
4.7215e-08
3.14436e-08
2.82104e-08
3.16686e-08
4.21611e-08
6.47425e-08
1.09519e-07
1.94257e-07
3.47798e-07
6.20743e-07
1.46376e-06
5.41096e-07
1.86927e-07
6.37126e-08
2.46427e-08
1.336e-08
1.093e-08
1.22618e-08
1.73262e-08
2.96215e-08
5.7044e-08
1.14685e-07
2.27956e-07
4.42049e-07
1.21807e-06
4.38729e-07
1.46487e-07
4.64292e-08
1.51231e-08
6.23662e-09
4.232e-09
4.73676e-09
7.53042e-09
1.50971e-08
3.35468e-08
7.52597e-08
1.62402e-07
3.35154e-07
1.05322e-06
3.7702e-07
1.25435e-07
3.89739e-08
1.16221e-08
3.75455e-09
1.88656e-09
2.08266e-09
4.02265e-09
9.65953e-09
2.40547e-08
5.78127e-08
1.30942e-07
2.80038e-07
9.82824e-07
3.57247e-07
1.2166e-07
3.86007e-08
1.14345e-08
3.36756e-09
1.38393e-09
1.51105e-09
3.35246e-09
8.74465e-09
2.24582e-08
5.45374e-08
1.24383e-07
2.67588e-07
1.00566e-06
3.72474e-07
1.30544e-07
4.31325e-08
1.3546e-08
4.45956e-09
2.22641e-09
2.50655e-09
4.88501e-09
1.14882e-08
2.75467e-08
6.40143e-08
1.4167e-07
2.98407e-07
1.19103e-06
4.46839e-07
1.61063e-07
5.65293e-08
2.02077e-08
8.71409e-09
6.02854e-09
6.91698e-09
1.0955e-08
2.10058e-08
4.34933e-08
9.20384e-08
1.90621e-07
3.83158e-07
1.4953e-06
5.66848e-07
2.15044e-07
8.50701e-08
3.78979e-08
2.20257e-08
1.85782e-08
2.12517e-08
2.95838e-08
4.768e-08
8.36514e-08
1.5616e-07
2.93096e-07
5.4874e-07
2.11166e-06
8.38243e-07
3.55597e-07
1.65456e-07
8.98406e-08
6.21917e-08
5.68482e-08
6.47206e-08
8.4686e-08
1.22266e-07
1.8644e-07
3.02915e-07
5.01237e-07
8.4422e-07
3.76092e-06
2.62156e-06
1.9535e-06
1.54031e-06
1.31578e-06
1.25433e-06
1.33835e-06
1.54621e-06
1.85563e-06
2.2446e-06
2.69556e-06
3.1996e-06
3.77096e-06
4.53655e-06
2.55137e-06
1.54722e-06
1.05561e-06
7.87079e-07
6.37444e-07
5.76663e-07
5.94608e-07
6.86888e-07
8.51241e-07
1.08681e-06
1.39272e-06
1.76469e-06
2.21661e-06
2.84101e-06
1.95765e-06
1.01466e-06
5.98946e-07
4.06524e-07
3.08478e-07
2.63873e-07
2.60709e-07
2.97147e-07
3.76066e-07
5.04174e-07
6.90011e-07
9.4066e-07
1.27548e-06
1.76002e-06
1.5667e-06
7.14017e-07
3.56272e-07
2.10266e-07
1.46094e-07
1.17762e-07
1.11544e-07
1.24924e-07
1.60591e-07
2.25795e-07
3.31572e-07
4.92035e-07
7.31913e-07
1.10037e-06
1.27658e-06
5.26298e-07
2.24152e-07
1.10543e-07
6.74588e-08
5.04882e-08
4.59031e-08
5.06711e-08
6.63213e-08
9.84986e-08
1.57364e-07
2.58818e-07
4.28223e-07
7.08039e-07
1.03699e-06
3.97388e-07
1.49432e-07
6.11252e-08
3.10545e-08
2.0772e-08
1.79885e-08
1.97349e-08
2.67143e-08
4.28435e-08
7.62192e-08
1.41143e-07
2.60723e-07
4.7344e-07
8.34865e-07
3.04634e-07
1.05537e-07
3.70713e-08
1.51482e-08
8.4432e-09
6.74753e-09
7.43298e-09
1.07666e-08
1.93722e-08
3.92727e-08
8.20851e-08
1.67691e-07
3.30592e-07
6.78096e-07
2.41324e-07
8.04217e-08
2.5828e-08
8.7028e-09
3.72414e-09
2.52157e-09
2.80439e-09
4.61413e-09
9.74217e-09
2.26335e-08
5.24627e-08
1.16106e-07
2.44108e-07
5.69616e-07
2.03348e-07
6.79755e-08
2.13414e-08
6.47177e-09
2.13988e-09
1.08766e-09
1.20824e-09
2.41353e-09
6.036e-09
1.55807e-08
3.86284e-08
8.99966e-08
1.97324e-07
5.15585e-07
1.90679e-07
6.63645e-08
2.14559e-08
6.44244e-09
1.92425e-09
8.0618e-10
8.82425e-10
1.96954e-09
5.24972e-09
1.38999e-08
3.49121e-08
8.23859e-08
1.83094e-07
5.16514e-07
2.00422e-07
7.34526e-08
2.50114e-08
7.98525e-09
2.68869e-09
1.40183e-09
1.58033e-09
2.98783e-09
6.95454e-09
1.69318e-08
4.04886e-08
9.27003e-08
2.02127e-07
5.85404e-07
2.38089e-07
9.21124e-08
3.37417e-08
1.2312e-08
5.47005e-09
3.97483e-09
4.65046e-09
7.22842e-09
1.35271e-08
2.79151e-08
5.99283e-08
1.274e-07
2.63631e-07
7.07658e-07
2.99579e-07
1.24511e-07
5.15973e-08
2.33286e-08
1.39028e-08
1.2306e-08
1.45797e-08
2.04245e-08
3.25508e-08
5.68399e-08
1.06503e-07
2.03594e-07
3.89189e-07
9.18106e-07
4.06455e-07
1.89349e-07
9.41397e-08
5.34672e-08
3.85768e-08
3.70645e-08
4.40421e-08
5.88838e-08
8.52825e-08
1.30405e-07
2.11843e-07
3.56712e-07
6.14487e-07
2.66603e-06
1.93699e-06
1.4753e-06
1.16906e-06
9.85797e-07
9.19409e-07
9.64534e-07
1.11418e-06
1.35991e-06
1.6905e-06
2.09297e-06
2.56062e-06
3.10486e-06
3.81992e-06
1.76058e-06
1.13367e-06
8.0926e-07
6.13699e-07
4.91908e-07
4.31548e-07
4.29924e-07
4.88365e-07
6.1049e-07
8.00572e-07
1.06144e-06
1.39309e-06
1.80601e-06
2.37333e-06
1.27127e-06
7.00852e-07
4.45532e-07
3.15364e-07
2.39841e-07
1.99192e-07
1.88433e-07
2.08445e-07
2.63991e-07
3.63183e-07
5.16033e-07
7.32257e-07
1.02907e-06
1.45811e-06
9.58971e-07
4.56418e-07
2.48556e-07
1.58049e-07
1.12405e-07
8.85606e-08
8.00275e-08
8.627e-08
1.10426e-07
1.59494e-07
2.44292e-07
3.79119e-07
5.86215e-07
9.06295e-07
7.39788e-07
3.11983e-07
1.43647e-07
7.8423e-08
5.05717e-08
3.74792e-08
3.25004e-08
3.43922e-08
4.48274e-08
6.8704e-08
1.15131e-07
1.98554e-07
3.41475e-07
5.80697e-07
5.7225e-07
2.20745e-07
8.76701e-08
3.98232e-08
2.21902e-08
1.50818e-08
1.25241e-08
1.31719e-08
1.78534e-08
2.97901e-08
5.58442e-08
1.08324e-07
2.07422e-07
3.86605e-07
4.42197e-07
1.61066e-07
5.75776e-08
2.19212e-08
9.99991e-09
5.8974e-09
4.60339e-09
4.89401e-09
7.17681e-09
1.35536e-08
2.89417e-08
6.29952e-08
1.32723e-07
2.67718e-07
3.4894e-07
1.24055e-07
4.20948e-08
1.41699e-08
5.19995e-09
2.42623e-09
1.66891e-09
1.82661e-09
3.08608e-09
6.85084e-09
1.6631e-08
3.98293e-08
9.05028e-08
1.94424e-07
2.9066e-07
1.04848e-07
3.57016e-08
1.15056e-08
3.63634e-09
1.28153e-09
6.86417e-10
7.7538e-10
1.59983e-09
4.16554e-09
1.1135e-08
2.84348e-08
6.80519e-08
1.52968e-07
2.69582e-07
1.0229e-07
3.63717e-08
1.19206e-08
3.62052e-09
1.11071e-09
4.92874e-10
5.58941e-10
1.26612e-09
3.46033e-09
9.45915e-09
2.45613e-08
5.98901e-08
1.37406e-07
2.83915e-07
1.14231e-07
4.26372e-08
1.45486e-08
4.64292e-09
1.60781e-09
9.02308e-10
1.04604e-09
1.94663e-09
4.52e-09
1.12349e-08
2.77194e-08
6.57222e-08
1.48508e-07
3.35909e-07
1.41944e-07
5.54e-08
2.00875e-08
7.3097e-09
3.40648e-09
2.68277e-09
3.23725e-09
4.98033e-09
9.17099e-09
1.89941e-08
4.15596e-08
9.09548e-08
1.9444e-07
4.19708e-07
1.84595e-07
7.66314e-08
3.11184e-08
1.4066e-08
8.87156e-09
8.4537e-09
1.03767e-08
1.46215e-08
2.31515e-08
4.05003e-08
7.66816e-08
1.49967e-07
2.94349e-07
5.40063e-07
2.51456e-07
1.16733e-07
5.65411e-08
3.21426e-08
2.45183e-08
2.52686e-08
3.12581e-08
4.24592e-08
6.18345e-08
9.54354e-08
1.56933e-07
2.70578e-07
4.78553e-07
2.13793e-06
1.60814e-06
1.24376e-06
9.85941e-07
8.1724e-07
7.35954e-07
7.43683e-07
8.43679e-07
1.0353e-06
1.31158e-06
1.66683e-06
2.09587e-06
2.61363e-06
3.29521e-06
1.34686e-06
9.16942e-07
6.78471e-07
5.20983e-07
4.14169e-07
3.52196e-07
3.35566e-07
3.68773e-07
4.58913e-07
6.1232e-07
8.35286e-07
1.13092e-06
1.51234e-06
2.03997e-06
9.04775e-07
5.33813e-07
3.62124e-07
2.64918e-07
2.02151e-07
1.63812e-07
1.48154e-07
1.57118e-07
1.96319e-07
2.74242e-07
4.01806e-07
5.90247e-07
8.57998e-07
1.24988e-06
6.32673e-07
3.20401e-07
1.91135e-07
1.2945e-07
9.39545e-08
7.27653e-08
6.29575e-08
6.47689e-08
8.13474e-08
1.19275e-07
1.89074e-07
3.04999e-07
4.88807e-07
7.78132e-07
4.51392e-07
1.99251e-07
1.01697e-07
6.13936e-08
4.15268e-08
3.06073e-08
2.54745e-08
2.56821e-08
3.28294e-08
5.1267e-08
8.93512e-08
1.60608e-07
2.86293e-07