/*--------------------------------*- C++ -*----------------------------------*\
| =========                 |                                                 |
| \\      /  F ield         | OpenFOAM: The Open Source CFD Toolbox           |
|  \\    /   O peration     | Version:  v2106                                 |
|   \\  /    A nd           | Website:  www.openfoam.com                      |
|    \\/     M anipulation  |                                                 |
\*---------------------------------------------------------------------------*/
FoamFile
{
    version     2.0;
    format      ascii;
    arch        "LSB;label=32;scalar=64";
    class       volScalarField;
    location    "0.000202";
    object      T;
}
// * * * * * * * * * * * * * * * * * * * * * * * * * * * * * * * * * * * * * //

dimensions      [0 0 0 1 0 0 0];

internalField   nonuniform List<scalar> 
18273
(
288.505
288.617
288.59
288.731
288.867
288.981
289.012
289.012
288.88
288.674
288.438
288.268
288.071
288.165
288.497
288.635
288.772
288.98
289.147
289.286
289.358
289.385
289.302
289.128
288.877
288.621
288.339
288.357
288.655
288.82
289.016
289.252
289.431
289.59
289.683
289.734
289.704
289.576
289.341
289.045
288.681
288.431
288.851
289.093
289.327
289.559
289.74
289.896
289.998
290.055
290.056
289.972
289.776
289.486
289.092
288.714
289.116
289.43
289.688
289.906
290.063
290.192
290.284
290.334
290.335
290.265
290.091
289.812
289.432
289.029
289.391
289.75
290.019
290.219
290.34
290.442
290.512
290.547
290.546
290.485
290.321
290.042
289.673
289.256
289.628
289.988
290.258
290.438
290.552
290.631
290.681
290.702
290.695
290.63
290.465
290.177
289.795
289.377
289.783
290.131
290.384
290.557
290.673
290.752
290.795
290.809
290.798
290.729
290.558
290.263
289.874
289.435
289.857
290.191
290.423
290.588
290.714
290.806
290.858
290.871
290.854
290.776
290.597
290.289
289.89
289.451
289.846
290.18
290.406
290.57
290.706
290.816
290.884
290.904
290.886
290.801
290.61
290.296
289.893
289.439
289.76
290.106
290.341
290.514
290.664
290.793
290.88
290.909
290.893
290.794
290.582
290.248
289.836
289.382
289.564
289.896
290.182
290.401
290.583
290.73
290.832
290.868
290.859
290.748
290.505
290.137
289.709
289.277
289.373
289.621
289.924
290.185
290.409
290.58
290.697
290.73
290.72
290.592
290.322
289.909
289.476
289.115
289.203
289.31
289.588
289.856
290.108
290.286
290.408
290.441
290.419
290.28
290.014
289.691
289.502
289.212
288.471
288.753
288.82
288.988
289.113
289.229
289.255
289.241
289.147
288.976
288.708
288.475
288.245
288.33
288.585
288.875
289.099
289.332
289.479
289.595
289.632
289.634
289.575
289.445
289.209
288.958
288.703
288.683
288.848
289.153
289.405
289.654
289.815
289.931
289.986
290.001
289.96
289.844
289.636
289.383
289.089
288.835
289.166
289.49
289.748
289.971
290.119
290.236
290.298
290.321
290.297
290.21
290.046
289.802
289.493
289.156
289.512
289.85
290.101
290.267
290.399
290.485
290.545
290.568
290.563
290.511
290.378
290.167
289.872
289.531
289.874
290.192
290.391
290.529
290.613
290.679
290.727
290.754
290.755
290.721
290.634
290.45
290.185
289.837
290.183
290.471
290.628
290.722
290.765
290.804
290.84
290.868
290.878
290.856
290.782
290.64
290.374
290.021
290.418
290.68
290.808
290.874
290.889
290.909
290.931
290.951
290.958
290.936
290.87
290.712
290.455
290.089
290.538
290.805
290.939
290.996
291.002
291.006
291.014
291.022
291.022
290.994
290.919
290.749
290.464
290.07
290.582
290.86
291.017
291.099
291.12
291.12
291.113
291.106
291.087
291.038
290.938
290.742
290.425
290.002
290.551
290.838
291.028
291.151
291.212
291.231
291.22
291.199
291.155
291.075
290.938
290.71
290.356
289.912
290.445
290.748
290.98
291.148
291.258
291.301
291.308
291.284
291.218
291.104
290.91
290.624
290.249
289.838
290.309
290.576
290.853
291.075
291.224
291.298
291.324
291.315
291.241
291.099
290.839
290.479
290.12
289.77
290.15
290.345
290.648
290.915
291.115
291.231
291.276
291.269
291.204
291.027
290.728
290.383
290.163
289.917
288.077
288.576
288.784
288.958
289.068
289.123
289.131
289.093
288.986
288.809
288.582
288.368
288.189
288.256
288.542
289.007
289.335
289.535
289.645
289.677
289.673
289.632
289.537
289.398
289.251
289.086
288.919
288.922
289.148
289.588
289.882
290.057
290.137
290.153
290.136
290.089
290.01
289.923
289.805
289.652
289.446
289.283
289.712
290.112
290.367
290.497
290.551
290.554
290.535
290.495
290.44
290.366
290.287
290.192
289.986
289.741
290.224
290.562
290.747
290.816
290.846
290.843
290.835
290.819
290.8
290.774
290.718
290.626
290.471
290.232
290.661
290.918
291.041
291.071
291.083
291.083
291.088
291.098
291.108
291.111
291.093
291.03
290.899
290.694
291.018
291.21
291.281
291.286
291.285
291.287
291.303
291.333
291.369
291.392
291.395
291.352
291.25
291.06
291.331
291.483
291.524
291.514
291.497
291.493
291.509
291.546
291.593
291.631
291.644
291.608
291.514
291.321
291.569
291.711
291.744
291.736
291.712
291.703
291.712
291.746
291.794
291.832
291.846
291.806
291.705
291.476
291.757
291.912
291.96
291.966
291.946
291.934
291.933
291.954
291.99
292.015
292.017
291.963
291.833
291.553
291.869
292.059
292.149
292.186
292.183
292.176
292.171
292.179
292.193
292.196
292.17
292.077
291.909
291.586
291.922
292.141
292.287
292.377
292.412
292.424
292.421
292.418
292.407
292.374
292.295
292.155
291.938
291.62
291.949
292.147
292.327
292.479
292.57
292.62
292.633
292.635
292.608
292.538
292.397
292.204
291.946
291.618
291.9
292.116
292.333
292.529
292.667
292.749
292.775
292.773
292.733
292.63
292.454
292.247
292.052
291.763
288.381
288.287
287.758
287.37
286.932
287.504
287.716
287.553
287.111
287.08
286.782
287.305
287.957
287.675
287.243
287.185
286.9
287.405
288.222
287.821
287.407
287.331
287.043
287.467
288.546
288.14
287.804
287.772
287.508
287.955
288.789
288.418
288.153
288.187
287.993
288.399
288.953
288.645
288.439
288.533
288.348
288.908
289.034
288.783
288.633
288.759
288.567
289.2
289.06
288.854
288.733
288.843
288.633
289.226
289.042
288.805
288.616
288.712
288.5
289.088
288.982
288.699
288.451
288.493
288.245
288.769
288.854
288.481
288.142
288.129
287.932
288.433
288.871
288.525
288.051
287.833
287.584
287.818
288.483
288.179
287.695
287.505
287.252
287.394
288.519
288.328
287.724
287.233
286.756
287.391
288.028
287.652
287.081
286.902
286.571
287.145
288.348
287.918
287.315
287.109
286.714
287.413
288.708
288.23
287.622
287.345
286.892
287.44
289.112
288.645
288.083
287.811
287.354
287.872
289.403
288.954
288.468
288.236
287.864
288.227
289.57
289.149
288.742
288.634
288.347
288.879
289.622
289.209
288.871
288.886
288.684
289.36
289.604
289.219
288.941
289.028
288.89
289.586
289.537
289.17
288.936
289.04
288.912
289.582
289.469
289.125
288.885
288.941
288.774
289.403
289.445
289.083
288.754
288.711
288.479
288.972
289.499
289.17
288.772
288.545
288.2
288.482
289.15
288.846
288.418
288.191
287.941
288.044
288.575
288.142
287.465
286.592
285.88
285.972
288.302
287.784
287.017
286.408
285.779
285.849
288.745
288.133
287.367
286.798
286.157
286.578
289.292
288.674
287.951
287.323
286.687
287.035
289.859
289.293
288.644
288.082
287.509
288.059
290.358
289.867
289.316
288.847
288.396
288.709
290.746
290.301
289.822
289.465
289.138
289.484
290.996
290.569
290.141
289.898
289.643
290.176
291.119
290.707
290.322
290.173
290.01
290.576
291.16
290.739
290.409
290.313
290.191
290.645
291.185
290.791
290.49
290.364
290.223
290.521
291.275
290.898
290.552
290.279
290.037
290.298
291.448
291.034
290.642
290.228
289.849
290.128
291.26
290.888
290.441
290.064
289.693
289.633
289.257
288.975
288.159
287.593
287.152
287.308
288.75
288.385
287.512
287.096
286.588
287.024
289.05
288.488
287.537
287.053
286.476
287.121
289.362
288.585
287.536
286.954
286.381
286.906
289.661
288.806
287.717
287.026
286.448
286.901
289.826
288.971
287.893
287.158
286.583
286.924
289.874
289.064
288.086
287.44
286.905
287.348
289.852
289.111
288.277
287.762
287.315
287.879
289.772
289.124
288.47
288.114
287.802
288.3
289.631
289.101
288.594
288.313
288.049
288.651
289.466
289.055
288.68
288.491
288.255
288.726
289.289
288.965
288.671
288.517
288.362
288.621
289.124
288.88
288.668
288.528
288.404
288.652
288.727
288.498
288.331
288.313
288.214
288.361
290.091
289.841
289.143
288.585
288.111
288.062
289.673
289.353
288.544
288.066
287.532
287.848
289.958
289.495
288.602
288.056
287.447
287.938
290.355
289.803
288.838
288.127
287.483
287.809
290.716
290.133
289.153
288.362
287.69
287.889
290.933
290.367
289.43
288.632
288.011
287.88
291
290.466
289.625
288.889
288.329
288.22
290.996
290.508
289.777
289.157
288.672
288.576
290.937
290.478
289.873
289.373
289.02
289.025
290.82
290.4
289.919
289.527
289.3
289.367
290.656
290.292
289.912
289.577
289.436
289.611
290.459
290.133
289.822
289.541
289.459
289.591
290.228
289.92
289.657
289.442
289.397
289.523
289.754
289.41
289.189
289.009
288.97
288.981
292.014
291.887
291.384
290.769
290.077
289.876
291.819
291.631
291.03
290.498
289.834
289.715
292.058
291.825
291.184
290.595
289.897
289.853
292.356
292.142
291.498
290.805
290.031
289.897
292.605
292.419
291.82
291.075
290.285
290.076
292.735
292.578
292.031
291.281
290.509
290.172
292.778
292.622
292.12
291.401
290.721
290.386
292.755
292.596
292.117
291.471
290.89
290.5
292.689
292.505
292.057
291.521
291.029
290.619
292.577
292.369
292
291.541
291.076
290.563
292.442
292.23
291.933
291.496
291.085
290.447
292.275
292.086
291.813
291.34
290.914
290.083
292.121
291.879
291.627
291.05
290.458
289.429
291.746
291.377
291.009
290.248
289.446
288.255
288.327
288.076
288.128
287.986
288.01
288.129
288.709
288.304
288.382
288.353
288.451
288.604
288.872
288.335
288.354
288.296
288.418
288.615
289.109
288.25
288.301
288.262
288.437
288.684
288.936
287.971
288.11
288.161
288.423
288.783
288.2
287.747
287.912
288.068
288.436
288.937
287.375
287.159
287.488
287.832
288.457
289.106
286.923
286.747
287.126
287.668
288.509
289.241
286.673
286.469
286.948
287.607
288.564
289.308
286.76
286.492
286.986
287.631
288.594
289.302
286.922
286.637
287.112
287.675
288.582
289.216
287.449
287.113
287.495
287.872
288.616
289.057
287.916
287.591
287.909
288.116
288.657
288.866
288.705
288.314
288.553
288.764
289.076
289.156
287.766
287.674
287.74
287.673
287.762
288.129
288.599
288.302
288.311
288.312
288.408
288.721
289.072
288.61
288.463
288.413
288.502
288.817
289.401
288.748
288.538
288.481
288.599
288.956
289.052
288.591
288.418
288.451
288.679
289.142
288.404
288.164
288.182
288.413
288.825
289.415
287.656
287.574
287.827
288.332
288.981
289.686
287.192
287.106
287.528
288.273
289.138
289.921
286.879
286.85
287.363
288.246
289.244
290.045
286.932
286.873
287.409
288.286
289.325
290.08
287.076
287.02
287.573
288.381
289.372
290.058
287.574
287.513
287.99
288.609
289.432
289.967
288.088
288.097
288.513
288.926
289.523
289.859
289.103
288.986
289.284
289.618
289.928
290.089
283.854
285.193
285.745
286.44
286.767
287.51
285.075
286.381
286.778
287.42
287.685
288.39
286.018
287.134
287.143
287.645
287.957
288.709
286.723
287.597
287.473
287.912
288.324
289.15
286.816
287.565
287.552
288.106
288.737
289.639
286.686
287.439
287.688
288.437
289.266
290.135
286.45
287.224
287.863
288.839
289.79
290.566
286.294
287.114
288.082
289.247
290.259
290.957
286.204
287.078
288.253
289.586
290.611
291.237
286.201
287.129
288.438
289.873
290.882
291.443
286.236
287.28
288.657
290.09
291.051
291.554
286.432
287.612
289.021
290.389
291.228
291.643
286.833
288.129
289.482
290.743
291.425
291.691
287.672
288.991
290.279
291.301
291.72
291.879
287.4
287.073
287.308
287.368
287.63
287.763
287.611
287.277
287.521
287.654
287.93
288.122
288.096
287.602
287.808
287.766
287.892
288.07
288.65
288.056
288.218
288.085
288.122
288.241
289.061
288.361
288.452
288.266
288.283
288.376
289.177
288.464
288.518
288.318
288.374
288.541
289.056
288.382
288.429
288.292
288.443
288.663
288.733
288.18
288.28
288.211
288.396
288.663
288.361
287.807
288.026
288.014
288.294
288.632
288.085
287.575
287.842
287.84
288.173
288.518
287.903
287.444
287.711
287.679
288.053
288.392
288.207
287.522
287.754
287.723
288.11
288.289
288.369
287.594
287.858
287.79
288.145
288.187
288.754
288.233
288.435
288.504
288.722
288.681
287.097
286.767
286.855
286.857
287.077
287.507
287.422
286.977
287.154
287.333
287.652
288.091
287.76
287.224
287.376
287.457
287.734
288.171
288.259
287.619
287.79
287.787
287.979
288.355
288.651
287.895
288.058
288.011
288.202
288.566
288.763
288.042
288.196
288.157
288.386
288.743
288.61
288.005
288.157
288.186
288.455
288.834
288.203
287.758
287.976
288.084
288.426
288.838
287.575
287.3
287.62
287.856
288.329
288.798
287.246
286.893
287.239
287.56
288.158
288.681
286.824
286.439
286.911
287.335
287.998
288.557
286.958
286.591
287.018
287.451
288.045
288.439
287.049
286.796
287.297
287.636
288.078
288.329
287.835
287.563
288.04
288.437
288.668
288.669
285.338
285.617
285.562
285.899
286.405
287.176
285.579
285.922
285.939
286.419
286.992
287.83
285.756
286.103
286.093
286.529
287.085
287.87
286.232
286.436
286.505
286.842
287.31
288.019
286.606
286.64
286.813
287.133
287.581
288.218
286.751
286.842
287.011
287.318
287.779
288.391
286.618
286.799
286.994
287.349
287.859
288.491
286.263
286.545
286.753
287.223
287.826
288.518
285.589
285.898
286.201
286.908
287.691
288.483
284.771
285.134
285.645
286.584
287.523
288.404
283.782
284.425
285.211
286.353
287.376
288.287
283.251
284.187
285.227
286.456
287.372
288.113
282.931
284.22
285.441
286.718
287.453
287.937
283.549
284.877
286.191
287.399
287.773
288.124
289.409
289.669
289.782
289.844
289.869
289.847
289.803
289.717
289.6
289.421
289.184
288.922
288.695
288.677
289.736
290.045
290.251
290.346
290.361
290.328
290.271
290.192
290.105
289.978
289.814
289.629
289.448
289.387
290.208
290.511
290.699
290.773
290.776
290.737
290.672
290.599
290.53
290.453
290.353
290.224
290.037
289.876
290.681
290.934
291.072
291.11
291.097
291.046
290.982
290.925
290.884
290.85
290.807
290.731
290.589
290.399
291.129
291.295
291.366
291.365
291.335
291.281
291.232
291.203
291.193
291.194
291.189
291.165
291.068
290.891
291.503
291.589
291.61
291.578
291.529
291.48
291.453
291.45
291.467
291.499
291.523
291.527
291.481
291.353
291.812
291.854
291.84
291.783
291.718
291.675
291.662
291.677
291.713
291.765
291.811
291.831
291.814
291.721
292.097
292.115
292.074
291.997
291.921
291.878
291.871
291.89
291.936
292.002
292.058
292.085
292.081
292.005
292.35
292.355
292.304
292.221
292.138
292.093
292.084
292.103
292.151
292.218
292.274
292.299
292.296
292.215
292.606
292.604
292.55
292.465
292.379
292.327
292.31
292.324
292.365
292.425
292.471
292.488
292.475
292.369
292.805
292.817
292.781
292.712
292.632
292.576
292.554
292.562
292.592
292.635
292.664
292.663
292.631
292.485
293.055
293.059
293.038
292.99
292.921
292.864
292.832
292.826
292.835
292.849
292.852
292.824
292.76
292.578
293.198
293.232
293.23
293.227
293.194
293.154
293.12
293.099
293.081
293.056
293.017
292.948
292.852
292.659
293.48
293.486
293.489
293.494
293.479
293.452
293.415
293.371
293.315
293.23
293.127
293.004
292.893
292.728
290.224
290.341
290.416
290.426
290.426
290.376
290.301
290.2
290.081
289.922
289.716
289.479
289.217
289.068
290.495
290.655
290.755
290.78
290.775
290.737
290.679
290.61
290.537
290.446
290.313
290.133
289.93
289.764
290.835
290.969
291.059
291.072
291.057
291.017
290.968
290.92
290.879
290.838
290.772
290.662
290.481
290.313
291.198
291.271
291.33
291.324
291.3
291.261
291.223
291.193
291.176
291.169
291.153
291.107
290.982
290.801
291.542
291.563
291.584
291.559
291.52
291.481
291.451
291.437
291.442
291.46
291.48
291.481
291.417
291.271
291.867
291.859
291.842
291.791
291.735
291.693
291.672
291.673
291.692
291.732
291.776
291.803
291.772
291.674
292.165
292.147
292.097
292.022
291.951
291.904
291.887
291.895
291.925
291.979
292.035
292.073
292.062
292.003
292.454
292.426
292.354
292.26
292.175
292.121
292.103
292.114
292.147
292.204
292.263
292.3
292.302
292.261
292.72
292.687
292.603
292.501
292.408
292.346
292.325
292.333
292.364
292.415
292.47
292.5
292.506
292.467
292.987
292.949
292.858
292.752
292.654
292.586
292.558
292.559
292.582
292.623
292.668
292.684
292.683
292.635
293.222
293.192
293.112
293.013
292.916
292.844
292.806
292.798
292.811
292.837
292.865
292.861
292.851
292.778
293.489
293.465
293.396
293.304
293.209
293.133
293.084
293.062
293.058
293.06
293.065
293.039
293.008
292.9
293.677
293.696
293.657
293.591
293.512
293.442
293.385
293.344
293.313
293.283
293.249
293.193
293.139
292.999
293.993
294.004
293.963
293.908
293.838
293.77
293.703
293.638
293.572
293.5
293.407
293.301
293.214
293.074
291.038
291.007
291.038
291.002
290.96
290.878
290.772
290.654
290.532
290.394
290.226
290.011
289.743
289.497
291.33
291.315
291.318
291.269
291.212
291.14
291.057
290.972
290.885
290.793
290.684
290.542
290.353
290.112
291.613
291.581
291.564
291.504
291.44
291.372
291.301
291.233
291.167
291.107
291.04
290.954
290.792
290.618
291.903
291.85
291.805
291.731
291.66
291.593
291.53
291.474
291.425
291.387
291.351
291.31
291.211
291.037
292.193
292.129
292.054
291.962
291.88
291.811
291.751
291.705
291.671
291.651
291.637
291.629
291.574
291.467
292.473
292.404
292.306
292.197
292.102
292.026
291.968
291.929
291.906
291.904
291.908
291.917
291.896
291.83
292.737
292.667
292.552
292.429
292.322
292.239
292.18
292.145
292.131
292.14
292.157
292.177
292.176
292.136
292.996
292.917
292.788
292.657
292.541
292.452
292.39
292.357
292.347
292.358
292.381
292.404
292.413
292.379
293.243
293.152
293.016
292.882
292.761
292.668
292.603
292.568
292.557
292.564
292.585
292.601
292.613
292.576
293.495
293.394
293.253
293.116
292.992
292.894
292.825
292.784
292.767
292.765
292.774
292.777
292.783
292.74
293.728
293.634
293.501
293.367
293.244
293.142
293.067
293.014
292.984
292.965
292.959
292.944
292.94
292.883
293.99
293.912
293.786
293.651
293.525
293.418
293.333
293.267
293.219
293.176
293.148
293.111
293.088
293.004
294.245
294.186
294.081
293.959
293.838
293.726
293.629
293.542
293.467
293.395
293.333
293.265
293.21
293.1
294.57
294.497
294.393
294.273
294.156
294.041
293.931
293.824
293.72
293.615
293.508
293.397
293.297
293.174
291.574
291.512
291.456
291.369
291.285
291.182
291.071
290.953
290.832
290.702
290.564
290.378
290.165
289.891
291.915
291.821
291.725
291.612
291.514
291.412
291.308
291.199
291.091
290.989
290.89
290.775
290.628
290.404
292.172
292.079
291.968
291.842
291.731
291.627
291.525
291.423
291.323
291.234
291.157
291.08
290.96
290.803
292.431
292.326
292.2
292.064
291.946
291.84
291.742
291.646
291.554
291.477
291.414
291.364
291.291
291.162
292.683
292.568
292.428
292.283
292.158
292.05
291.953
291.864
291.783
291.719
291.672
291.641
291.597
291.525
292.915
292.794
292.645
292.495
292.366
292.256
292.161
292.079
292.008
291.959
291.929
291.916
291.897
291.854
293.134
293.006
292.851
292.7
292.568
292.456
292.362
292.285
292.226
292.191
292.177
292.177
292.174
292.141
293.35
293.214
293.053
292.902
292.767
292.654
292.561
292.487
292.436
292.409
292.405
292.409
292.411
292.381
293.57
293.426
293.259
293.109
292.972
292.858
292.763
292.69
292.64
292.613
292.608
292.608
292.61
292.578
293.803
293.654
293.481
293.33
293.19
293.073
292.975
292.898
292.844
292.808
292.791
292.78
292.775
292.737
294.049
293.905
293.732
293.579
293.435
293.313
293.208
293.12
293.052
292.999
292.964
292.937
292.925
292.875
294.314
294.182
294.011
293.856
293.708
293.581
293.466
293.365
293.278
293.201
293.141
293.094
293.066
292.993
294.599
294.484
294.326
294.172
294.02
293.881
293.751
293.628
293.513
293.408
293.317
293.246
293.188
293.091
294.889
294.787
294.634
294.483
294.332
294.185
294.04
293.897
293.758
293.62
293.495
293.387
293.284
293.166
292.085
291.949
291.83
291.708
291.598
291.485
291.368
291.246
291.127
291.003
290.877
290.723
290.548
290.289
292.389
292.25
292.104
291.954
291.823
291.701
291.581
291.456
291.334
291.22
291.124
291.023
290.896
290.71
292.606
292.476
292.325
292.169
292.03
291.903
291.78
291.653
291.532
291.422
291.332
291.257
291.145
290.996
292.821
292.685
292.533
292.375
292.232
292.101
291.977
291.851
291.731
291.626
291.542
291.475
291.398
291.292
293.011
292.869
292.713
292.555
292.413
292.283
292.161
292.04
291.927
291.831
291.758
291.704
291.648
291.584
293.19
293.043
292.885
292.73
292.59
292.462
292.341
292.227
292.122
292.039
291.981
291.942
291.909
291.86
293.37
293.218
293.057
292.905
292.766
292.639
292.52
292.41
292.315
292.245
292.203
292.179
292.159
292.117
293.564
293.409
293.244
293.093
292.952
292.823
292.704
292.597
292.507
292.446
292.416
292.398
292.384
292.344
293.782
293.624
293.453
293.3
293.154
293.022
292.898
292.789
292.701
292.641
292.613
292.595
292.581
292.541
294.02
293.862
293.682
293.524
293.372
293.234
293.105
292.991
292.898
292.831
292.796
292.769
292.747
292.707
294.279
294.126
293.941
293.779
293.618
293.471
293.332
293.205
293.1
293.018
292.966
292.926
292.896
292.852
294.54
294.398
294.212
294.047
293.88
293.727
293.577
293.438
293.317
293.213
293.139
293.078
293.031
292.969
294.827
294.692
294.512
294.344
294.169
294.003
293.839
293.682
293.54
293.411
293.308
293.221
293.153
293.067
295.078
294.964
294.786
294.62
294.444
294.273
294.099
293.93
293.769
293.614
293.483
293.36
293.252
293.142
292.503
292.359
292.215
292.071
291.942
291.808
291.671
291.53
291.392
291.257
291.132
290.988
290.851
290.64
292.745
292.61
292.458
292.298
292.149
292.003
291.856
291.709
291.565
291.433
291.323
291.224
291.114
290.961
292.908
292.774
292.624
292.466
292.315
292.17
292.023
291.874
291.729
291.6
291.492
291.402
291.302
291.162
293.062
292.922
292.775
292.621
292.472
292.327
292.18
292.032
291.89
291.764
291.661
291.576
291.49
291.399
293.197
293.048
292.899
292.749
292.604
292.464
292.323
292.182
292.047
291.93
291.837
291.765
291.694
291.63
293.343
293.188
293.036
292.888
292.745
292.607
292.469
292.334
292.207
292.103
292.023
291.965
291.915
291.864
293.506
293.347
293.19
293.043
292.901
292.762
292.625
292.493
292.373
292.281
292.216
292.172
292.139
292.093
293.697
293.536
293.374
293.225
293.079
292.937
292.796
292.663
292.548
292.463
292.408
292.374
292.349
292.306
293.922
293.761
293.589
293.435
293.279
293.129
292.981
292.845
292.728
292.646
292.595
292.564
292.542
292.496
294.169
294.01
293.826
293.662
293.495
293.336
293.18
293.037
292.916
292.828
292.774
292.738
292.712
292.663
294.438
294.277
294.083
293.91
293.729
293.558
293.391
293.238
293.107
293.008
292.944
292.899
292.864
292.808
294.693
294.538
294.339
294.161
293.972
293.792
293.616
293.454
293.312
293.199
293.117
293.051
292.996
292.929
294.97
294.812
294.61
294.422
294.223
294.034
293.848
293.676
293.524
293.392
293.289
293.198
293.123
293.035
295.195
295.04
294.836
294.65
294.452
294.263
294.078
293.905
293.743
293.596
293.468
293.347
293.231
293.122
292.821
292.69
292.55
292.402
292.258
292.107
291.952
291.794
291.642
291.497
291.369
291.231
291.128
290.979
292.998
292.876
292.735
292.579
292.425
292.267
292.104
291.945
291.789
291.648
291.531
291.431
291.343
291.229
293.121
292.987
292.844
292.693
292.543
292.391
292.235
292.079
291.929
291.795
291.683
291.591
291.505
291.398
293.25
293.099
292.954
292.806
292.659
292.51
292.358
292.208
292.064
291.937
291.83
291.744
291.662
291.583
293.363
293.197
293.045
292.9
292.759
292.618
292.473
292.33
292.195
292.077
291.98
291.904
291.832
291.762
293.483
293.321
293.171
293.026
292.884
292.744
292.601
292.461
292.332
292.223
292.137
292.073
292.013
291.952
293.637
293.478
293.323
293.177
293.034
292.891
292.747
292.607
292.48
292.378
292.301
292.247
292.2
292.143
293.83
293.671
293.511
293.361
293.211
293.062
292.911
292.766
292.64
292.541
292.471
292.424
292.383
292.327
294.058
293.901
293.73
293.571
293.409
293.248
293.087
292.936
292.807
292.709
292.642
292.596
292.56
292.499
294.311
294.153
293.965
293.794
293.616
293.443
293.272
293.114
292.98
292.878
292.808
292.757
292.718
292.649
294.578
294.413
294.208
294.022
293.829
293.643
293.463
293.297
293.156
293.046
292.968
292.907
292.861
292.782
294.815
294.648
294.432
294.24
294.036
293.845
293.659
293.489
293.343
293.224
293.133
293.053
292.988
292.898
295.066
294.885
294.661
294.455
294.242
294.046
293.858
293.687
293.536
293.408
293.3
293.2
293.115
293.009
295.255
295.062
294.834
294.631
294.425
294.235
294.055
293.891
293.741
293.605
293.48
293.356
293.236
293.114
292.026
291.871
291.725
291.599
291.468
291.379
291.266
292.145
291.994
291.855
291.737
291.638
291.556
291.465
292.26
292.119
291.992
291.883
291.796
291.722
291.642
292.377
292.246
292.129
292.029
291.948
291.875
291.802
292.496
292.373
292.265
292.173
292.1
292.031
291.963
292.627
292.507
292.404
292.318
292.251
292.187
292.119
292.77
292.65
292.548
292.466
292.401
292.34
292.27
292.922
292.799
292.696
292.614
292.55
292.49
292.414
294.172
294.014
293.843
293.684
293.525
293.369
293.217
293.073
292.947
292.842
292.76
292.693
292.632
292.547
294.408
294.244
294.053
293.88
293.704
293.536
293.373
293.223
293.093
292.984
292.899
292.825
292.758
292.666
294.655
294.474
294.26
294.069
293.877
293.698
293.527
293.372
293.237
293.123
293.031
292.945
292.869
292.769
294.863
294.672
294.441
294.243
294.042
293.858
293.684
293.527
293.39
293.27
293.167
293.065
292.976
292.864
295.076
294.865
294.628
294.417
294.21
294.022
293.849
293.693
293.553
293.427
293.311
293.193
293.091
292.966
295.225
294.994
294.76
294.557
294.361
294.183
294.022
293.875
293.739
293.609
293.48
293.344
293.216
293.084
289.482
289.42
289.2
288.641
287.812
286.831
289.113
288.702
288.092
287.318
286.511
285.63
289.197
288.528
287.672
286.704
285.896
285.155
289.227
288.427
287.415
286.356
285.668
285.097
289.236
288.396
287.382
286.388
285.818
285.368
289.207
288.366
287.415
286.546
286.069
285.643
289.17
288.366
287.527
286.819
286.39
285.886
289.08
288.318
287.592
287.003
286.606
286.002
288.947
288.205
287.566
287.076
286.746
286.218
288.733
287.971
287.38
286.901
286.6
286.297
288.481
287.715
287.147
286.684
286.453
286.169
288.28
287.474
286.882
286.353
286.029
285.441
288.24
287.417
286.819
286.208
285.736
284.769
287.684
286.924
286.337
285.753
285.387
284.338
290.277
290.281
290.136
289.791
289.059
288.134
289.969
289.738
289.353
288.88
288.055
287.133
290.025
289.623
289.057
288.351
287.369
286.481
290.001
289.491
288.786
287.93
286.922
286.154
289.972
289.373
288.593
287.696
286.794
286.18
289.891
289.218
288.395
287.512
286.749
286.275
289.791
289.076
288.268
287.465
286.876
286.586
289.655
288.916
288.154
287.45
286.99
286.773
289.491
288.736
288.038
287.444
287.09
286.907
289.285
288.502
287.833
287.279
286.94
286.674
289.059
288.272
287.637
287.095
286.721
286.324
288.825
288.044
287.407
286.808
286.312
285.761
288.703
287.967
287.354
286.702
286.056
285.316
288.204
287.489
286.845
286.224
285.696
285.054
290.989
290.987
290.956
290.86
290.448
289.734
290.753
290.608
290.37
290.155
289.698
288.874
290.784
290.573
290.244
289.832
289.107
288.137
290.714
290.444
290.009
289.437
288.543
287.527
290.633
290.278
289.746
289.051
288.11
287.18
290.509
290.06
289.437
288.673
287.794
287.007
290.381
289.859
289.187
288.435
287.704
287.074
290.241
289.659
288.979
288.271
287.679
287.166
290.088
289.463
288.819
288.188
287.728
287.287
289.908
289.242
288.615
288.018
287.569
287.067
289.707
289.003
288.369
287.776
287.339
286.79
289.461
288.735
288.083
287.471
286.99
286.392
289.248
288.572
288.012
287.435
286.881
286.174
288.76
288.103
287.567
287.009
286.557
285.983
291.456
291.426
291.387
291.364
291.209
290.84
291.254
291.113
290.943
290.859
290.71
290.217
291.227
291.07
290.896
290.694
290.283
289.559
291.125
290.935
290.719
290.406
289.793
288.87
291.027
290.786
290.487
290.041
289.251
288.22
290.897
290.592
290.19
289.627
288.745
287.711
290.763
290.403
289.91
289.271
288.415
287.457
290.629
290.216
289.66
288.977
288.159
287.261
290.504
290.031
289.449
288.772
288.043
287.271
290.358
289.82
289.21
288.547
287.895
287.177
290.19
289.588
288.945
288.278
287.679
287.001
289.946
289.297
288.639
287.976
287.416
286.768
289.697
289.067
288.518
287.986
287.48
286.849
289.238
288.612
288.11
287.594
287.157
286.71
291.943
291.883
291.809
291.812
291.751
291.631
291.71
291.591
291.43
291.383
291.343
291.195
291.611
291.473
291.33
291.237
291.026
290.633
291.482
291.313
291.165
291.025
290.682
290.048
291.374
291.181
290.996
290.754
290.239
289.376
291.253
291.023
290.76
290.386
289.707
288.667
291.118
290.854
290.5
289.99
289.217
288.141
290.977
290.677
290.234
289.624
288.796
287.711
290.849
290.5
289.995
289.337
288.516
287.503
290.721
290.312
289.76
289.063
288.258
287.332
290.587
290.101
289.512
288.806
288.077
287.282
290.392
289.832
289.227
288.533
287.894
287.23
290.156
289.564
289.018
288.453
287.958
287.361
289.721
289.098
288.581
288.06
287.63
287.241
292.36
292.28
292.192
292.194
292.18
292.167
292.135
292.01
291.854
291.804
291.812
291.844
292.004
291.843
291.689
291.601
291.515
291.363
291.86
291.674
291.516
291.411
291.244
290.886
291.738
291.554
291.378
291.215
290.928
290.353
291.602
291.407
291.195
290.945
290.528
289.721
291.458
291.243
290.978
290.626
290.063
289.12
291.306
291.059
290.729
290.262
289.583
288.558
291.157
290.881
290.482
289.924
289.174
288.153
291.02
290.698
290.245
289.63
288.812
287.822
290.885
290.51
290.024
289.372
288.608
287.738
290.736
290.29
289.776
289.11
288.404
287.684
290.555
290.047
289.534
288.966
288.432
287.82
290.194
289.63
289.124
288.596
288.146
287.737
292.717
292.639
292.563
292.547
292.541
292.546
292.526
292.421
292.291
292.247
292.252
292.302
292.39
292.248
292.103
292.026
291.975
291.917
292.235
292.067
291.908
291.808
291.723
291.537
292.091
291.921
291.754
291.626
291.463
291.094
291.935
291.763
291.584
291.409
291.144
290.576
291.775
291.596
291.397
291.155
290.763
290.031
291.609
291.411
291.176
290.849
290.338
289.485
291.449
291.227
290.948
290.533
289.907
288.988
291.3
291.056
290.713
290.205
289.504
288.577
291.163
290.865
290.486
289.931
289.23
288.382
291.031
290.679
290.256
289.655
288.953
288.217
290.909
290.48
290.013
289.453
288.872