/*--------------------------------*- C++ -*----------------------------------*\
| =========                 |                                                 |
| \\      /  F ield         | OpenFOAM: The Open Source CFD Toolbox           |
|  \\    /   O peration     | Version:  v2106                                 |
|   \\  /    A nd           | Website:  www.openfoam.com                      |
|    \\/     M anipulation  |                                                 |
\*---------------------------------------------------------------------------*/
FoamFile
{
    version     2.0;
    format      ascii;
    arch        "LSB;label=32;scalar=64";
    class       volScalarField;
    location    "0.000145";
    object      k;
}
// * * * * * * * * * * * * * * * * * * * * * * * * * * * * * * * * * * * * * //

dimensions      [0 2 -2 0 0 0 0];

internalField   nonuniform List<scalar> 
144746
(
8.59038
7.36848
6.28374
4.98866
3.73718
2.53673
1.72721
1.17249
0.871666
0.81864
1.09994
1.76578
2.83737
4.3609
7.52304
6.36714
5.23211
3.93128
2.75181
1.72904
1.09591
0.690672
0.491276
0.495795
0.793624
1.43166
2.35791
3.55417
6.04875
4.86543
3.83166
2.66145
1.62919
0.910467
0.509407
0.290077
0.202525
0.248164
0.528999
1.12139
1.94936
2.96051
4.3663
3.33149
2.38617
1.40502
0.667081
0.314843
0.146484
0.0738818
0.0558822
0.104047
0.316218
0.799535
1.5125
2.36952
3.07961
2.17224
1.31335
0.612103
0.264048
0.103154
0.0360289
0.0130548
0.0119704
0.0440529
0.182591
0.535069
1.11558
1.82463
2.35235
1.60335
0.95576
0.521266
0.245898
0.0926368
0.0272681
0.00738592
0.00533239
0.0227983
0.106117
0.342927
0.782624
1.36497
2.19027
1.63162
1.144
0.704375
0.342869
0.129506
0.041082
0.0168122
0.0130668
0.0234392
0.0763724
0.238388
0.565935
1.03598
2.49369
2.0753
1.61516
1.05536
0.549286
0.224197
0.0854364
0.0506536
0.0474411
0.059308
0.0994112
0.21547
0.456462
0.82585
3.08941
2.72702
2.237
1.56703
0.890044
0.404244
0.18361
0.135967
0.145251
0.178697
0.23347
0.340571
0.525273
0.803361
4.05246
3.67984
3.07658
2.26055
1.39508
0.709641
0.370818
0.308677
0.355694
0.446463
0.556175
0.697088
0.854572
1.06243
5.18654
4.82189
4.12298
3.12159
2.05603
1.16761
0.68484
0.598916
0.706883
0.893805
1.09534
1.30594
1.47076
1.64849
6.5099
6.14
5.34046
4.11859
2.84618
1.77661
1.15089
1.01679
1.17462
1.4698
1.78815
2.11
2.35336
2.59094
7.59811
7.27833
6.46862
5.07641
3.62244
2.44247
1.72944
1.53744
1.70849
2.09247
2.55909
3.05753
3.48808
3.92965
8.9944
8.46501
7.51439
5.98717
4.35668
3.08925
2.3323
2.09933
2.27364
2.74724
3.39355
4.12715
4.7937
5.5662
9.02505
7.83785
6.67445
5.21241
3.88228
2.64861
1.81033
1.25954
1.08037
1.33892
2.10885
3.33568
4.97222
6.92783
9.06233
7.62994
6.17712
4.54277
3.14151
1.93026
1.16601
0.721443
0.595997
0.839612
1.55087
2.64911
3.94981
5.37881
8.30598
6.59523
5.08172
3.45905
2.07148
1.07999
0.547227
0.293022
0.247168
0.455174
1.0597
2.0312
3.12537
4.2603
6.66826
5.01007
3.56668
2.08319
0.9542
0.395499
0.157577
0.0724474
0.0751665
0.213236
0.638043
1.40488
2.32202
3.2532
5.01715
3.48876
2.07803
0.930042
0.353629
0.125867
0.0385406
0.013016
0.0213286
0.0973887
0.356592
0.900987
1.64855
2.42135
3.70885
2.37959
1.28038
0.638114
0.296571
0.109102
0.0305657
0.00882274
0.0110519
0.0496521
0.194462
0.541643
1.10173
1.75695
3.02468
2.06214
1.34288
0.847767
0.421559
0.159744
0.0513418
0.0240946
0.0232744
0.0472181
0.136377
0.363424
0.771547
1.31613
3.02829
2.42943
1.90971
1.30707
0.709529
0.297353
0.117199
0.0770545
0.0805861
0.111463
0.187131
0.360567
0.67788
1.13784
3.45269
3.08372
2.66218
1.99671
1.20926
0.570807
0.264102
0.207438
0.239515
0.319728
0.444039
0.645394
0.942097
1.34418
4.25729
4.04803
3.65023
2.94014
1.97743
1.06045
0.549096
0.460325
0.56056
0.750889
0.99459
1.29907
1.6262
2.00804
5.22617
5.16973
4.8683
4.11308
3.00795
1.82819
1.04956
0.867622
1.04986
1.39269
1.79299
2.24313
2.65098
3.08174
6.56031
6.59726
6.41324
5.52462
4.25684
2.85375
1.81152
1.45573
1.63972
2.10892
2.66261
3.30561
3.90262
4.54507
7.66729
7.85658
7.86756
6.9439
5.52139
3.99517
2.77619
2.21239
2.28353
2.7797
3.48054
4.35696
5.24699
6.32265
9.07463
9.33429
9.30224
8.35066
6.75483
5.09167
3.75149
3.02585
2.95443
3.42629
4.25628
5.38614
6.49334
7.99023
7.45399
6.53577
5.6726
4.55004
3.56482
2.56608
1.83703
1.41765
1.55556
2.34859
3.67783
5.26346
6.87207
8.26202
8.16919
6.96306
5.76164
4.37456
3.11483
1.93821
1.15105
0.750885
0.822398
1.46219
2.65223
4.07137
5.36086
6.31356
8.41474
6.87425
5.40337
3.7688
2.26706
1.1288
0.525949
0.284519
0.340105
0.79835
1.78368
3.05663
4.16
4.92784
7.86389
6.03458
4.29773
2.53398
1.13443
0.418428
0.14471
0.0671601
0.111812
0.379092
1.0491
2.06346
3.0436
3.73572
6.87807
4.77742
2.75609
1.21746
0.409793
0.127273
0.033597
0.0126005
0.0369932
0.168973
0.556539
1.26772
2.10204
2.79156
5.50139
3.33903
1.59227
0.685246
0.297594
0.102799
0.0264818
0.00854957
0.0178678
0.0796313
0.279022
0.708492
1.34099
2.01745
4.2326
2.54931
1.44104
0.857912
0.416154
0.152607
0.0479832
0.0251301
0.0297891
0.069267
0.192981
0.476451
0.956171
1.57622
3.74711
2.70278
2.0076
1.35621
0.729719
0.302971
0.120333
0.0861525
0.0995979
0.154111
0.276459
0.530834
0.96611
1.56515
3.84916
3.2449
2.78717
2.12249
1.30948
0.623536
0.291267
0.242069
0.299657
0.435787
0.658467
1.01344
1.52039
2.1625
4.25724
3.97955
3.72991
3.17065
2.25111
1.23749
0.640719
0.549494
0.701196
1.00068
1.41559
1.95334
2.57534
3.28924
4.6852
4.71434
4.75127
4.39112
3.53178
2.29074
1.30914
1.04946
1.29542
1.78602
2.39711
3.11366
3.85509
4.67409
5.45155
5.7318
5.99667
5.76641
5.03268
3.7362
2.42057
1.81308
1.97524
2.58102
3.30632
4.17994
5.10789
6.1375
6.07368
6.60682
7.18368
7.12099
6.54874
5.37143
3.90702
2.90677
2.74583
3.23754
3.97385
4.96853
6.10248
7.52779
7.10435
7.77117
8.37769
8.4466
7.98614
6.89811
5.4075
4.14284
3.60726
3.82441
4.46427
5.50775
6.64646
8.37862
6.20342
8.1346
10.2698
13.3134
19.7238
6.48828
4.83802
6.49027
8.67638
11.7045
18.0942
5.36943
4.07748
5.6465
7.8913
11.3708
19.484
5.01178
3.34142
4.76599
6.95855
10.884
21.8672
5.05411
2.62986
3.80593
5.6875
9.75558
24.1698
5.27598
2.02788
2.94524
4.42469
8.23073
25.4996
5.58914
1.58515
2.30353
3.47822
6.84494
25.281
6.03008
1.28099
1.88356
2.87062
5.78583
24.2519
6.4808
1.1719
1.71961
2.61096
5.21948
22.74
6.87124
1.34705
1.8927
2.78893
5.26338
21.4491
7.1768
1.87713
2.49876
3.53909
6.01014
20.618
7.58475
2.79364
3.59576
4.94332
7.52835
20.215
8.18775
4.11238
5.21542
7.00597
9.69059
20.1871
8.85236
5.69412
7.18776
9.35565
12.2095
20.977
8.61242
8.54903
10.1563
11.6094
13.7201
16.1791
7.63921
6.51723
8.15953
10.1684
12.9775
16.747
7.53629
5.31958
6.88629
9.07545
12.4132
18.0673
7.5475
4.17077
5.50228
7.48906
11.0998
18.9996
7.46711
3.17677
4.2195
5.7904
9.23742
19.2685
7.24834
2.40194
3.21638
4.40213
7.34509
18.7547
6.93913
1.88601
2.56677
3.52052
5.85569
17.6145
6.64675
1.64175
2.29927
3.18446
5.11757
16.0276
6.55792
1.79054
2.49066
3.41267
5.2249
14.7942
6.65298
2.40411
3.22131
4.30995
6.22796
14.3041
6.8245
3.48012
4.52003
5.89862
8.04856
14.465
7.12509
4.93432
6.26379
7.98326
10.38
15.1848
7.64639
6.65812
8.24367
10.2428
12.7341
16.3906
8.28565
8.2417
9.9737
12.0679
14.4795
17.9909
8.45219
8.65574
9.26239
9.59197
10.37
11.2571
12.675
6.59097
7.38989
8.27345
9.55741
11.1354
11.4296
5.36128
6.10199
7.0447
8.41819
10.6191
10.1488
4.2
4.85698
5.71148
7.00967
9.73605
8.89505
3.28827
3.91458
4.63308
5.78086
8.83026
7.77297
2.58828
3.23738
3.93361
4.96365
7.86446
6.90799
2.20071
2.9332
3.70256
4.72731
7.24627
6.46109
2.23845
3.13865
4.05183
5.08775
7.2317
6.60542
2.87333
3.97638
5.08954
6.17311
7.87665
7.43824
4.02747
5.34185
6.65971
7.71143
8.80353
8.80356
5.40848
6.85688
8.24025
9.2592
9.72656
10.4214
6.73004
8.14557
9.43412
10.7265
10.7084
12.1233
7.91081
9.09077
10.2201
11.727
11.5828
13.408
8.50431
9.49126
10.5019
11.8754
12.2829
13.7758
7.43496
9.1866
11.2298
14.1731
20.1805
6.59365
6.11205
7.79026
10.0624
13.3463
19.9075
5.44852
5.23313
6.89236
9.32523
13.3194
22.1244
5.07613
4.29763
5.74843
8.11811
12.7637
24.7358
5.06559
3.43997
4.58852
6.61127
11.5225
26.522
5.15643
2.841
3.76493
5.42442
10.158
27.2243
5.24443
2.62508
3.42255
4.79813
9.09357
27.139
5.33929
2.83667
3.57701
4.798
8.67275
26.443
5.50234
3.51472
4.27073
5.46177
9.08851
25.4806
5.74921
4.61764
5.50131
6.7495
10.179
24.4714
6.12873
5.97419
7.0754
8.46009
11.5277
23.0802
6.88258
7.32994
8.55827
10.2262
12.9678
21.4551
7.95045
8.49749
9.7685
11.7868
14.4114
20.6171
8.61912
9.22243
10.5301
12.7073
15.3856
20.6724
8.055
9.28377
10.9066
12.7051
15.1497
18.2038
7.86029
7.60123
9.3405
11.6978
15.0441
19.7514
7.78229
6.35529
7.90299
10.2536
14.256
21.1479
7.75049
5.01621
6.21272
8.22909
12.4608
21.407
7.58687
4.03674
4.97677
6.5961
10.5722
20.6977
7.30966
3.57289
4.42792
5.77263
9.26548
19.5324
7.03236
3.7232
4.58002
5.77516
8.77288
18.4305
6.87163
4.47405
5.37084
6.53795
9.23579
17.6542
6.88159
5.76028
6.72227
7.95218
10.6263
17.35
7.08014
7.25926
8.3709
9.67545
12.5271
17.5999
7.52256
8.51844
9.79434
11.2096
14.1643
18.2145
8.32968
9.25842
10.4844
12.2052
15.0565
18.9182
9.43837
9.48756
10.6314
12.6776
15.5541
20.1591
10.1921
9.46047
10.6527
12.9247
16.0199
22.0069
10.1693
8.73019
9.39324
10.1482
11.2407
12.4126
12.9696
7.04288
7.78951
8.81065
10.2712
12.2237
11.6429
5.85112
6.4031
7.25596
8.74121
11.3083
10.3374
4.82503
5.32144
6.0357
7.38649
10.3245
9.27659
4.33762
4.95314
5.63454
6.84953
9.62218
8.67144
4.4301
5.25224
6.01128
7.11441
9.33439
8.69156
5.2369
6.24328
7.08031
8.01127
9.58219
9.36188
6.55416
7.6151
8.4687
9.24359
10.1477
10.5478
7.88746
8.81634
9.59565
10.354
10.7418
12.0413
8.67408
9.36911
10.0379
11.2357
11.4209
13.6313
8.79605
9.31833
9.92528
11.6648
11.9874
14.9201
8.45083
8.82617
9.46468
11.38
12.4679
15.4999
7.85952
8.19076
8.90542
10.7093
13.1215
15.2406
7.24125
7.67303
8.53141
10.2556
14.1235
14.3148
8.06349
18.5314
13.9786
11.7549
9.88642
8.64947
9.23403
19.8059
13.3348
10.7817
8.81445
7.63036
9.14881
21.5865
12.3716
9.34721
7.40107
6.28529
8.46059
23.5292
11.1788
7.78106
5.98169
4.88549
7.66955
25.3101
9.86709
6.35549
4.77406
3.76803
7.09399
26.6385
8.78974
5.32753
3.95007
3.03369
6.61191
27.9333
8.29537
4.78788
3.53672
2.7286
6.0657
29.1921
8.53686
4.73576
3.53049
2.84243
5.59064
29.8068
9.55098
5.24532
3.9572
3.32883
5.34205
29.1773
11.2413
6.46083
4.92134
4.25244
5.21513
27.3534
13.1298
8.29719
6.38923
5.47109
5.20425
24.7412
14.676
10.3131
8.10706
6.88173
5.44052
21.6886
15.2075
11.809
9.51288
8.07762
6.20762
19.9349
15.8037
13.1495
11.0539
9.58912
9.54708
16.5407
13.3165
11.499
10.0045
9.04366
9.91121
16.524
13.2985
11.3962
9.94067
9.02142
9.68652
17.0669
13.2461
10.9999
9.47283
8.4143
9.04204
17.9223
12.8158
10.1794
8.55281
7.2687
8.40196
18.6108
11.6405
8.94177
7.33175
6.01188
7.98332
19.0587
10.1153
7.62174
6.18161
4.86337
7.63032
19.7109
8.88177
6.53214
5.2477
4.03113
7.36586
20.6599
8.36616
5.84316
4.67629
3.68052
7.27915
21.6419
8.64643
5.65532
4.54287
3.79869
7.3936
22.7444
9.68682
6.09923
4.91396
4.36297
7.67649
23.6688
11.46
7.35209
5.89925
5.29248
8.05102
24.4905
13.8152
9.44673
7.55827
6.68472
8.46985
24.0949
15.9196
11.7879
9.43547
8.0991
8.92259
22.8426
16.7692
13.316
10.9155
9.41025
13.583
10.4343
8.72578
7.92509
7.57402
7.27509
14.5231
10.2043
9.0717
8.28907
8.0947
7.95031
14.956
10.3734
9.60978
8.72789
8.51907
8.24735
14.6901
10.6486
10.0417
9.15267
8.84518
8.23316
13.8155
10.7546
10.0856
9.49954
8.99804
8.00929
12.6265
10.7752
9.93099
9.51671
8.70024
7.27922
11.3795
10.8299
9.50707
8.81397
7.80311
6.09763
10.231
10.7686
8.66361
7.70298
6.66363
5.12435
9.36977
10.7101
7.75835
6.65653
5.73175
4.61587
8.96429
10.9392
7.15059
5.92679
5.19492
4.54789
9.08644
11.5833
7.09496
5.71229
5.08974
4.72997
9.73424
12.7542
7.718
6.0989
5.49292
5.27396
10.9001
14.0665
9.01641
7.18289
6.35282
5.94728
12.575
14.7905
10.2511
8.3595
7.39211
6.85087
9.14105
21.614
11.7438
8.51034
6.10062
4.64659
9.99184
21.1785
9.38698
6.28526
4.26505
3.23713
9.72845
20.9211
7.28848
4.47919
2.94848
2.16391
9.20044
20.8827
5.8152
3.31769
2.14392
1.48882
8.64089
21.3953
5.04779
2.74503
1.78618
1.20259
8.11373
22.4438
4.95983
2.66384
1.81275
1.26907
7.50148
23.7446
5.46707
2.98535
2.16644
1.62745
6.77964
25.131
6.50905
3.65385
2.82086
2.26619
6.02875
25.8944
8.08373
4.72923
3.75062
3.1412
5.53759
25.0042
10.0994
6.31612
4.99375
4.283
5.25069
22.7882
11.8891
8.12281
6.39672
5.45925
5.12606
20.1264
12.8615
9.64376
7.75203
6.635
5.29932
17.4599
12.9965
10.5906
8.83189
7.65415
6.0163
16.6028
13.8149
11.9249
10.4462
9.22613
8.54914
17.2496
13.5654
11.2086
8.98032
7.20564
8.89007
16.8026
12.0811
9.45756
7.1278
5.53249
8.67706
16.132
9.97618
7.39491
5.31005
3.94923
8.32068
15.3592
7.91273
5.56439
3.88237
2.73892
7.90563
14.8997
6.23029
4.24415
2.92784
1.95327
7.5062
14.9692
5.23369
3.51883
2.46114
1.63917
7.15845
15.6638
4.99585
3.35949
2.46466
1.78345
6.94053
16.9012
5.38109
3.63151
2.89716
2.32467
6.94969
18.1901
6.42159
4.36164
3.6365
3.12844
7.16677
19.0174
8.21298
5.57905
4.67222
4.2047
7.48204
19.3496
10.2924
7.25472
5.97509
5.35318
7.84015
19.3587
12.2668
9.14801
7.46934
6.6006
8.25357
18.0449
13.36
10.612
8.74175
7.64914
8.70237
16.4123
13.5063
11.4317
9.86975
8.77923
13.5129
11.4111
10.963
10.1271
9.34509
8.28784
13.3201
11.2625
10.934
10.0102
8.78186
7.35256
12.3313
10.9214
10.2764
9.5076
7.81949
6.03643
10.9277
10.3801
9.36274
8.40076
6.55592
4.70503
9.46425
9.73503
8.13131
6.90157
5.17173
3.42801
8.09817
8.93534
6.73925
5.45297
3.96991
2.50834
7.08363
8.16569
5.6069
4.48926
3.31382
2.1766
6.58819
7.7307
4.99704
4.11782
3.23951
2.42386
6.6069
7.92319
4.89787
4.19105
3.53533
2.98494
7.055
8.54883
5.22146
4.53165
4.04775
3.74085
7.84845
9.34347
5.93773
5.11899
4.6782
4.44309
8.94838
10.4189
7.00873
5.95978
5.44741
5.22938
10.3414
11.0733
8.15148
6.93754
6.23081
5.8979
12.0787
10.9575
8.72583
7.6645
7.04948
6.63641
6.98043
5.90323
5.12353
4.17531
3.35771
2.4129
1.73304
1.48084
1.92002
3.07616
4.58299
5.9704
7.14576
8.4307
7.37668
6.22247
5.11911
3.97324
2.81293
1.68342
0.956142
0.660164
0.89039
1.73924
3.09464
4.54689
5.65837
6.33028
7.39846
6.16719
4.78947
3.36237
1.96206
0.911374
0.387002
0.212099
0.334123
0.88065
1.95972
3.30517
4.3929
4.98903
7.31166
5.73186
3.918
2.21263
0.96067
0.324616
0.0953916
0.0429018
0.099573
0.386947
1.09441
2.16503
3.186
3.78283
7.09791
4.8255
2.63743
1.10518
0.36864
0.100711
0.0221176
0.00784721
0.030592
0.155942
0.54297
1.2621
2.09837
2.7905
6.18391
3.55287
1.61474
0.640026
0.247637
0.0757964
0.0174518
0.00528526
0.012986
0.0623966
0.228211
0.608852
1.21414
1.93964
4.9209
2.6837
1.36204
0.715904
0.314124
0.106295
0.0315172
0.0165029
0.0209074
0.0532504
0.156357
0.405662
0.866864
1.55652
4.17747
2.66684
1.78835
1.08974
0.543101
0.212581
0.0828843
0.0601518
0.0718932
0.119969
0.231812
0.482391
0.950232
1.69657
4.11492
3.14444
2.48346
1.7455
1.00429
0.457505
0.21402
0.178648
0.225598
0.349287
0.56735
0.960722
1.58656
2.49652
4.39532
3.79246
3.34497
2.68776
1.80446
0.963237
0.502132
0.429146
0.554528
0.836966
1.26227
1.88924
2.69744
3.76706
4.60886
4.37801
4.25282
3.80961
2.97204
1.88167
1.07696
0.871884
1.08857
1.57113
2.21568
3.04257
3.97346
5.07566
5.13955
5.19508
5.24985
5.04291
4.44915
3.29702
2.13194
1.59411
1.77086
2.38047
3.13679
4.06435
5.07121
6.19264
5.47062
5.90059
6.27459
6.28812
6.03372
5.08304
3.74866
2.77028
2.58013
3.10062
3.8236
4.77861
5.87422
7.24601
6.40932
6.94939
7.26796
7.4084
7.45258
6.91595
5.66227
4.3591
3.6847
3.80154
4.30136
5.23644
6.31358
8.20782
6.81759
5.59778
4.69866
3.73174
2.88945
1.97878
1.35207
1.0888
1.35853
2.20969
3.40413
4.56538
5.48424
6.31531
6.45872
5.44772
4.36518
3.29075
2.20415
1.23834
0.663826
0.441185
0.564253
1.12307
2.13494
3.35393
4.42022
5.11029
6.24954
5.08364
3.73368
2.4477
1.33791
0.583638
0.234806
0.128364
0.191473
0.514818
1.25112
2.34068
3.43476
4.17612
6.1647
4.48481
2.75955
1.40484
0.57251
0.182943
0.0512501
0.0229043
0.0520336
0.209653
0.654312
1.45571
2.40902
3.16859
5.78951
3.54607
1.72463
0.666026
0.221945
0.0604636
0.0129874
0.00410328
0.0154515
0.0838816
0.317524
0.819707
1.5385
2.24457
4.87697
2.53468
1.08305
0.438033
0.163949
0.0478587
0.0104821
0.00279746
0.00659096
0.033644
0.131517
0.381457
0.832931
1.45874
3.87222
1.98537
1.00068
0.493279
0.199521
0.0626387
0.0176027
0.00867295
0.0103753
0.0273621
0.0873592
0.245396
0.567481
1.10759
3.41091
2.09467
1.31693
0.730736
0.326722
0.117871
0.0455652
0.0329501
0.0369801
0.0599107
0.120871
0.272709
0.585886
1.15274
3.52327
2.56322
1.86666
1.17727
0.600462
0.251632
0.12082
0.102842
0.122755
0.183648
0.301657
0.542876
0.974563
1.69624
3.92352
3.20824
2.61556
1.89321
1.11859
0.544542
0.292328
0.261068
0.324549
0.480682
0.73708
1.16233
1.782
2.67271
4.26305
3.84069
3.45185
2.82645
1.95772
1.11423
0.640908
0.55976
0.693891
0.999918
1.44599
2.07062
2.8263
3.77411
4.89366
4.61417
4.36926
3.94826
3.17451
2.13493
1.32676
1.06158
1.23047
1.67909
2.27427
3.02451
3.8128
4.70475
5.25589
5.32857
5.2964
5.14184
4.67224
3.6577
2.53279
1.90925
1.90723
2.38122
3.00219
3.79967
4.56079
5.42486
6.2207
6.20303
6.12553
6.21788
6.16372
5.45353
4.25198
3.24796
2.83539
3.05853
3.55809
4.36808
5.07072
6.06951
5.87857
4.70878
3.77767
2.88972
2.09364
1.3228
0.825819
0.57848
0.597855
0.943737
1.62301
2.49685
3.39656
4.29783
4.97503
4.00563
3.05143
2.15107
1.36211
0.723144
0.362091
0.218116
0.225619
0.415485
0.892967
1.66892
2.59879
3.43682
4.55026
3.33025
2.21408
1.31317
0.679166
0.289472
0.110579
0.0568832
0.0680552
0.171405
0.48259
1.10102
1.95095
2.78029
4.10148
2.57982
1.39502
0.639086
0.251287
0.0803341
0.0216519
0.00879119
0.0156812
0.0648405
0.240757
0.654591
1.31204
2.05268
3.45093
1.83606
0.811574
0.312925
0.109826
0.0320734
0.00677604
0.00153528
0.00423194
0.0260198
0.116395
0.360537
0.808055
1.4
2.70508
1.30326
0.57271
0.246986
0.093415
0.0273989
0.00577413
0.0012448
0.00206162
0.0116786
0.0520529
0.169824
0.422955
0.834144
2.20147
1.14707
0.603639
0.287497
0.112721
0.0341793
0.00908312
0.00404061
0.00409701
0.0101086
0.0350838
0.10854
0.274249
0.58009
2.18761
1.37446
0.81196
0.417236
0.174718
0.0596475
0.0226105
0.0157898
0.0161034
0.0233984
0.0462573
0.10953
0.250301
0.52943
2.50433
1.78081
1.17091
0.661656
0.305682
0.121459
0.0601
0.050995
0.0560963
0.0756149
0.115436
0.204732
0.379293
0.722239
2.99225
2.32121
1.68633
1.06249
0.555715
0.256244
0.146719
0.134592
0.156819
0.213315
0.307057
0.474311
0.743049
1.21362
3.44818
2.88768
2.29526
1.62323
0.973344
0.515589
0.320355
0.2999
0.359743
0.490737
0.685262
0.974551
1.35925
1.94374
4.11378
3.55984
3.02536
2.39715
1.65916
1.00553
0.649039
0.584075
0.692035
0.924937
1.2428
1.65631
2.11836
2.73349
4.61961
4.23615
3.82631
3.35935
2.65402
1.83756
1.24721
1.04474
1.15239
1.46649
1.87248
2.37753
2.86135
3.4428
5.51897
4.93385
4.61899
4.41647
3.89254
3.05245
2.2368
1.79613
1.74997
2.05054
2.44796
3.0052
3.48045
4.10997
4.28593
3.25199
2.46114
1.72169
1.10821
0.629943
0.368718
0.242254
0.205707
0.265849
0.485964
0.912252
1.55183
2.39921
3.29596
2.29643
1.55597
0.952535
0.536226
0.262584
0.129741
0.0786789
0.0702937
0.101335
0.225118
0.525122
1.06282
1.81923
2.61272
1.5526
0.866495
0.43494
0.200582
0.079265
0.030938
0.0169216
0.0177427
0.0365952
0.111972
0.32373
0.748596
1.38602
2.0015
1.01764
0.461596
0.185378
0.0671644
0.02027
0.00543546
0.00229796
0.00329237
0.0122686
0.0530229
0.182436
0.472961
0.952304
1.49001
0.691596
0.291752
0.116312
0.04182
0.0120251
0.0024556
0.000454116
0.000758363
0.00488431
0.0258662
0.0987808
0.277953
0.604033
1.15498
0.55645
0.257995
0.11053
0.0396327
0.0108515
0.00215405
0.000399937
0.000405717
0.00236216
0.0124727
0.0482544
0.143425
0.338811
1.05335
0.569158
0.287613
0.124963
0.0443838
0.0122953
0.00304342
0.00125759
0.00107992
0.00225331
0.00856776
0.0310015
0.0911221
0.221282
1.20658
0.721118
0.378433
0.168954
0.0621441
0.0194527
0.007337
0.00515804
0.00483697
0.00603986
0.0112085
0.0287997
0.0746818
0.178693
1.54238
0.977906
0.543336
0.256484
0.102113
0.0384437
0.0204785
0.0179485
0.0183727
0.0220336
0.0303692
0.0522683
0.101092
0.214712
2.00143
1.34845
0.803826
0.411963
0.184047
0.0830806
0.0535564
0.0512942
0.0560141
0.06936
0.0918447
0.134664
0.209337
0.372935
2.45198
1.77751
1.15393
0.656416
0.333517
0.174544
0.124236
0.123541
0.141188
0.179937
0.238355
0.327704
0.45407
0.701053
3.02155
2.31069
1.64612
1.05567
0.611906
0.356793
0.261718
0.25878
0.30169
0.389197
0.512398
0.67602
0.869345
1.20106
3.56422
2.89749
2.27622
1.64616
1.08013
0.68943
0.511019
0.487768
0.559635
0.716206
0.92524
1.18255
1.44322
1.83021
4.30881
3.57895
3.05783
2.46577
1.8106
1.25817
0.938985
0.852512
0.923036
1.14538
1.43267
1.78098
2.1018
2.54495
2.73029
1.78013
1.17798
0.724772
0.420212
0.227641
0.132185
0.0880016
0.0685088
0.0662759
0.103934
0.229789
0.508935
1.01232
1.84054
0.997266
0.545568
0.283276
0.141379
0.0674542
0.0354538
0.0235105
0.0202096
0.0216551
0.0391637
0.109383
0.300777
0.706752
1.20714
0.543898
0.235773
0.0970734
0.0388187
0.0148264
0.00645882
0.00417377
0.0041052
0.00605664
0.0167707
0.0613486
0.19461
0.49448
0.79367
0.323586
0.124434
0.0458246
0.0157584
0.00466612
0.00123397
0.000530691
0.000575888
0.00148303
0.00711304
0.0324989
0.114806
0.312922
0.565155
0.243289
0.103972
0.0424877
0.0150748
0.00419739
0.000821338
0.000128471
9.02665e-05
0.000517925
0.0034331
0.017242
0.0645112
0.185677
0.475161
0.233179
0.10892
0.044689
0.0151208
0.00398844
0.000758518
0.000119303
5.29725e-05
0.000264155
0.00182978
0.00915173
0.0343351
0.101623
0.492934
0.261855
0.122086
0.0483136
0.0157942
0.00412755
0.00092101
0.000317834
0.000225029
0.000330497
0.001311
0.00599168
0.0219241
0.0646065
0.618461
0.329729
0.151693
0.0592322
0.0194202
0.00556933
0.00196115
0.00133812
0.00118435
0.00123305
0.00191879
0.00528625
0.0164577
0.0471266
0.822598
0.443082
0.205585
0.0813658
0.0280973
0.0100104
0.00563848
0.00511377
0.00499336
0.00529585
0.00628466
0.00993476
0.0199837
0.0489843
1.11422
0.619026
0.297782
0.124094
0.047941
0.0220365
0.016168
0.0162185
0.0168577
0.0188671
0.0223818
0.0298612
0.0442255
0.0852035
1.46074
0.853662
0.437649
0.199305
0.0886113
0.0495733
0.0412917
0.0432811
0.047278
0.0555313
0.068067
0.0874777
0.115854
0.189064
1.91809
1.20068
0.678408
0.348199
0.176455
0.10938
0.0940369
0.0997283
0.113076
0.137842
0.172946
0.220059
0.277427
0.404111
2.43978
1.66879
1.05987
0.616942
0.349409
0.228219
0.19444
0.203535
0.235038
0.293668
0.372817
0.472658
0.581204
0.773198
3.13602
2.37311
1.69161
1.10434
0.685901
0.45744
0.374434
0.376496
0.42995
0.543221
0.691732
0.874659
1.06222
1.322
1.50648
0.78375
0.420375
0.219529
0.111391
0.0564364
0.033056
0.0234189
0.0191071
0.0164794
0.0190256
0.0415834
0.116914
0.313491
0.872999
0.357733
0.143754
0.0575446
0.0235745
0.0104756
0.00621387
0.00492369
0.00460274
0.00452602
0.00592619
0.0167822
0.0607326
0.198892
0.467381
0.161185
0.0514267
0.0159856
0.00502127
0.00170834
0.000878676
0.000747437
0.000777024
0.000948512
0.00207175
0.00872303
0.036902
0.129722
0.273315
0.0968684
0.0337085
0.0116268
0.0036874
0.000975029
0.000224234
9.43455e-05
9.65604e-05
0.00016784
0.000746851
0.00437451
0.0206454
0.076434
0.202213
0.0855198
0.035742
0.0136289
0.00435078
0.0010844
0.000193699
2.74565e-05
1.16274e-05
4.43324e-05
0.000345146
0.00222963
0.0109285
0.0418269
0.188206
0.089437
0.0385153
0.0142928
0.004364
0.00105155
0.000185721
2.68712e-05
7.60455e-06
2.07424e-05
0.000178989
0.0012135
0.00596611
0.0226422
0.211835
0.101118
0.0416315
0.0145871
0.00424116
0.000996851
0.000200908
6.38676e-05
4.21248e-05
4.21572e-05
0.00012904
0.000758152
0.00369021
0.0139801
0.274974
0.12601
0.0494452
0.0165243
0.00467161
0.00118091
0.000397143
0.000280317
0.000244367
0.000223226
0.00025691
0.000657571
0.00254392
0.00935204
0.376854
0.168239
0.0641446
0.0208855
0.00604158
0.00199559
0.0012342
0.00118969
0.0011341
0.00109995
0.00111245
0.00149542
0.00294401
0.00853556
0.535652
0.239485
0.0918206
0.0305921
0.0099933
0.00473645
0.00402407
0.00424394
0.00426633
0.00441294
0.00468676
0.00562214
0.007579
0.0150117
0.742308
0.341711
0.136964
0.0494759
0.0194824
0.0121187
0.0116824
0.0127653
0.0134446
0.0147673
0.0166838
0.0200206
0.0249087
0.0406422
1.03907
0.515517
0.228185
0.0938658
0.0434275
0.0302335
0.0298194
0.0330501
0.0363558
0.0421692
0.0501603
0.0612792
0.0752356
0.111228
1.45006
0.808893
0.407473
0.19173
0.0986565
0.0704791
0.0681317
0.0753244
0.0859098
0.104526
0.129387
0.161519
0.198741
0.270869
2.09917
1.35917
0.782079
0.411827
0.224672
0.155441
0.142342
0.153789
0.178869
0.226525
0.289144
0.369456
0.458339
0.582522
0.693265
0.280801
0.114923
0.0481851
0.0210745
0.0101178
0.00605235
0.0045332
0.00395042
0.00354151
0.00334193
0.00599697
0.0194532
0.0699486
0.323514
0.101732
0.0298582
0.00887827
0.0029105
0.00121616
0.000802513
0.000730668
0.000753424
0.000789565
0.000840725
0.00204561
0.00923986
0.0418096
0.136836
0.0378101
0.00975869
0.00251353
0.000663077
0.000191223
9.19285e-05
9.01404e-05
0.000106404
0.000127844
0.000215946
0.000956288
0.00534404
0.0258606
0.0784423
0.0259411
0.00863868
0.00281475
0.000812956
0.000188185
3.41732e-05
1.06433e-05
1.16722e-05
1.69929e-05
5.75874e-05
0.000420967
0.00272722
0.0139923
0.0657005
0.026414
0.0101116
0.00343012
0.000961938
0.00021074
3.30552e-05
3.82508e-06
1.16199e-06
2.80876e-06
2.24727e-05
0.000194001
0.00128504
0.00672153
0.0664054
0.0283833
0.0107264
0.00347314
0.000923708
0.000194742
3.01383e-05
3.63715e-06
7.44687e-07
1.14305e-06
1.09821e-05
0.000102092
0.000683276
0.00347522
0.0791513
0.0326339
0.0115542
0.00347549
0.000864742
0.000173992
2.95339e-05
7.84491e-06
4.72389e-06
4.01732e-06
9.25952e-06
6.56951e-05
0.000426904
0.00212553
0.106987
0.0416802
0.0138536
0.00391064
0.00092664
0.000195337
5.67978e-05
3.79017e-05
3.14829e-05
2.75185e-05
2.79864e-05
6.50695e-05
0.000302196
0.00143751
0.151049
0.056559
0.0180654
0.00490486
0.00116819
0.000329085
0.000197588
0.000187122
0.000170471
0.00016093
0.00015726
0.000198377
0.000379355
0.00129529
0.220119
0.081337
0.0257877
0.00708763
0.00192368
0.000858416
0.000752934
0.000784477
0.000756532
0.000767458
0.000802387
0.000946403
0.00119716
0.00235533
0.31155
0.116827
0.0381098
0.0112896
0.00389755
0.0025247
0.00256053
0.00278079
0.00282673
0.00306955
0.00344979
0.00412442
0.00490237
0.00766986
0.458228
0.184566
0.0656267
0.0221596
0.00953171
0.00725614
0.00762211
0.00847933
0.00908059
0.0105129
0.0125754
0.0153545
0.0182384
0.0262605
0.702274
0.32268
0.129733
0.049842
0.0243792
0.0193115
0.0201506
0.0226812
0.0255017
0.031307
0.0393622
0.0493851
0.0595051
0.0801805
1.16058
0.629248
0.289527
0.122797
0.0624379
0.0476901
0.0479641
0.0539073
0.0630297
0.0815427
0.106844
0.138587
0.171201
0.216645
0.227995
0.0683396
0.0199322
0.006215
0.00234155
0.00122049
0.000888909
0.000743649
0.000629796
0.000515625
0.000397653
0.000590744
0.00228779
0.0111737
0.0788777
0.0185327
0.00394249
0.000839929
0.000219521
0.000103316
8.9125e-05
9.07809e-05
8.95498e-05
8.38013e-05
7.52848e-05
0.000181254
0.00109777
0.00686347
0.0279118
0.00663017
0.00151655
0.000351555
8.1295e-05
1.9365e-05
8.31842e-06
8.44988e-06
9.75446e-06
1.00929e-05
1.42448e-05
8.09395e-05
0.000627138
0.00415401
0.0187272
0.00583471
0.00178622
0.000508996
0.000123484
2.3672e-05
3.53319e-06
8.42838e-07
8.27589e-07
1.04639e-06
3.09488e-06
3.08186e-05
0.000284353
0.00205017
0.0185464
0.0067181
0.00222571
0.000638834
0.000150137
2.77127e-05
3.76722e-06
3.72095e-07
7.29024e-08
1.10525e-07
9.27952e-07
1.19584e-05
0.000115701
0.000851246
0.0208372
0.00772551
0.00248692
0.00067934
0.000151482
2.6879e-05
3.59445e-06
3.8504e-07
7.62909e-08
5.79753e-08
3.37872e-07
4.75776e-06
4.94217e-05
0.000372994
0.0261657
0.0092226
0.00278237
0.000709824
0.000149362
2.543e-05
3.68701e-06
8.86785e-07
5.6992e-07
4.67489e-07
4.94452e-07
2.42376e-06
2.35495e-05
0.000182812
0.0356819
0.0117765
0.00332042
0.000795183
0.000159611
2.83407e-05
7.19379e-06
4.86504e-06
4.33811e-06
3.92222e-06
3.47171e-06
4.34402e-06
1.49775e-05
0.000103603
0.0502173
0.015709
0.00421495
0.000965849
0.000194539
4.77034e-05
2.82565e-05
2.81623e-05
2.72474e-05
2.64242e-05
2.4902e-05
2.67518e-05
3.41837e-05
0.00010391
0.0733668
0.0223232
0.00588167
0.00135532
0.000318203
0.000138419
0.000127358
0.000139613
0.000141571
0.00014566
0.000147484
0.000162419
0.000175674
0.000280951
0.104911
0.0319236
0.00854163
0.00213258
0.000690165
0.000479318
0.00051442
0.000586754
0.00062119
0.000675789
0.000733187
0.000830175
0.000894982
0.00122231
0.159887
0.0513706
0.0147007
0.0042835
0.00189907
0.00161812
0.00180962
0.00211544
0.00234061
0.00268989
0.00310634
0.00360856
0.00395832
0.00514664
0.270953
0.0983082
0.030984
0.0103731
0.0055064
0.00498808
0.00560272
0.00664953
0.0076843
0.00931381
0.0113522
0.0136464
0.0154134
0.0191921
0.520244
0.222241
0.0784821
0.0283236
0.0156752
0.0139514
0.0153924
0.0183972
0.0221277
0.0282485
0.0361818
0.0454498
0.0536675
0.0642349
0.0550405
0.012703
0.00281819
0.000701957
0.000264158
0.000172248
0.000150603
0.000138172
0.000123386
0.000105254
7.75414e-05
7.6213e-05
0.000245509
0.00150207
0.0151417
0.00296667
0.000530161
9.53263e-05
2.32283e-05
1.2626e-05
1.26426e-05
1.40636e-05
1.46905e-05
1.41272e-05
1.17984e-05
1.83314e-05
0.000119921
0.000992587
0.00610969
0.0014549
0.000338164
7.74099e-05
1.65084e-05
3.28202e-06
1.11676e-06
1.10819e-06
1.33384e-06
1.39689e-06
1.49047e-06
6.77581e-06
6.8394e-05
0.000606592
0.00543309
0.00164291
0.000467627
0.00011891
2.52455e-05
4.2322e-06
5.53465e-07
1.04191e-07
9.36521e-08
1.14279e-07
2.20402e-07
2.32291e-06
2.91969e-05
0.000286391
0.00576866
0.00191804
0.000567818
0.0001438
2.97349e-05
4.85613e-06
5.94006e-07
5.2082e-08
7.61104e-09
8.10387e-09
4.70518e-08
8.21235e-07
1.12666e-05
0.000113927
0.00668525
0.00220874
0.000628673
0.000150957
2.95378e-05
4.61101e-06
5.49238e-07
5.19225e-08
8.86209e-09
5.17316e-09
1.56327e-08
2.92123e-07
4.45165e-06
4.73724e-05
0.0084918
0.00264312
0.000702844
0.000157506
2.9112e-05
4.36059e-06
5.58051e-07
1.16338e-07
7.0796e-08
5.46321e-08
4.55677e-08
1.54018e-07
2.02904e-06
2.27818e-05
0.0115789
0.00335419
0.000830476
0.000174396
3.0658e-05
4.76918e-06
1.09192e-06
6.96037e-07
6.05358e-07
5.17789e-07
4.24728e-07
4.46143e-07
1.44664e-06
1.38953e-05
0.0161966
0.00440987
0.0010304
0.000205709