/*--------------------------------*- C++ -*----------------------------------*\
| =========                 |                                                 |
| \\      /  F ield         | OpenFOAM: The Open Source CFD Toolbox           |
|  \\    /   O peration     | Version:  v2106                                 |
|   \\  /    A nd           | Website:  www.openfoam.com                      |
|    \\/     M anipulation  |                                                 |
\*---------------------------------------------------------------------------*/
FoamFile
{
    version     2.0;
    format      ascii;
    arch        "LSB;label=32;scalar=64";
    class       volScalarField;
    location    "0.000214";
    object      alphat;
}
// * * * * * * * * * * * * * * * * * * * * * * * * * * * * * * * * * * * * * //

dimensions      [1 -1 -1 0 0 0 0];

internalField   nonuniform List<scalar> 
17920
(
9.57856e-17
9.57972e-17
9.5826e-17
9.58404e-17
9.58624e-17
9.58781e-17
9.59009e-17
9.59167e-17
9.59375e-17
9.59528e-17
9.59745e-17
9.59892e-17
9.60097e-17
9.60239e-17
9.60445e-17
9.60585e-17
9.60777e-17
9.60914e-17
9.61102e-17
9.61238e-17
9.61414e-17
9.6155e-17
9.61712e-17
9.61855e-17
9.62005e-17
9.62153e-17
9.62258e-17
9.62439e-17
9.54941e-17
9.54943e-17
9.55e-17
9.55068e-17
9.55135e-17
9.55204e-17
9.55273e-17
9.55346e-17
9.55419e-17
9.55495e-17
9.55569e-17
9.55643e-17
9.55714e-17
9.55795e-17
9.55224e-17
9.55222e-17
9.55283e-17
9.55344e-17
9.55414e-17
9.55486e-17
9.55561e-17
9.55639e-17
9.5572e-17
9.55803e-17
9.55885e-17
9.55969e-17
9.56045e-17
9.56147e-17
9.55488e-17
9.55496e-17
9.55565e-17
9.55631e-17
9.55707e-17
9.55784e-17
9.55863e-17
9.55944e-17
9.56027e-17
9.56113e-17
9.56198e-17
9.56286e-17
9.56366e-17
9.56471e-17
9.55769e-17
9.55792e-17
9.55861e-17
9.5593e-17
9.56009e-17
9.56091e-17
9.56174e-17
9.56259e-17
9.56347e-17
9.56437e-17
9.56527e-17
9.5662e-17
9.56706e-17
9.56818e-17
9.56046e-17
9.56088e-17
9.56161e-17
9.56236e-17
9.56319e-17
9.56404e-17
9.56491e-17
9.56581e-17
9.56672e-17
9.56766e-17
9.5686e-17
9.56956e-17
9.57049e-17
9.57155e-17
9.5634e-17
9.56396e-17
9.56471e-17
9.5655e-17
9.56635e-17
9.56723e-17
9.56814e-17
9.56909e-17
9.57005e-17
9.57103e-17
9.57202e-17
9.57302e-17
9.57402e-17
9.57502e-17
9.56634e-17
9.56703e-17
9.56779e-17
9.56863e-17
9.56952e-17
9.57045e-17
9.57141e-17
9.5724e-17
9.57341e-17
9.57443e-17
9.57545e-17
9.57648e-17
9.57754e-17
9.57851e-17
9.56936e-17
9.57014e-17
9.57089e-17
9.57177e-17
9.5727e-17
9.57368e-17
9.57469e-17
9.57573e-17
9.57678e-17
9.57784e-17
9.57891e-17
9.57999e-17
9.5811e-17
9.58206e-17
9.57236e-17
9.57319e-17
9.57396e-17
9.5749e-17
9.57587e-17
9.5769e-17
9.57797e-17
9.57905e-17
9.58014e-17
9.58123e-17
9.58234e-17
9.58344e-17
9.58461e-17
9.58555e-17
9.57539e-17
9.57624e-17
9.57701e-17
9.57801e-17
9.57903e-17
9.58011e-17
9.58122e-17
9.58235e-17
9.58348e-17
9.58461e-17
9.58577e-17
9.58691e-17
9.58815e-17
9.58908e-17
9.57833e-17
9.57921e-17
9.58002e-17
9.58108e-17
9.58215e-17
9.58328e-17
9.58444e-17
9.58561e-17
9.58678e-17
9.58794e-17
9.58914e-17
9.59032e-17
9.59162e-17
9.59251e-17
9.58133e-17
9.58222e-17
9.58306e-17
9.58413e-17
9.58524e-17
9.58641e-17
9.58761e-17
9.58881e-17
9.59002e-17
9.59122e-17
9.59248e-17
9.59371e-17
9.59509e-17
9.596e-17
9.58411e-17
9.585e-17
9.58595e-17
9.58705e-17
9.58823e-17
9.58944e-17
9.5907e-17
9.59196e-17
9.59322e-17
9.59448e-17
9.59579e-17
9.59708e-17
9.59849e-17
9.59946e-17
9.58716e-17
9.58795e-17
9.58896e-17
9.59004e-17
9.59126e-17
9.59246e-17
9.59373e-17
9.59501e-17
9.59631e-17
9.5976e-17
9.59891e-17
9.60021e-17
9.60163e-17
9.6029e-17
9.54086e-17
9.54051e-17
9.5403e-17
9.54014e-17
9.54007e-17
9.54007e-17
9.54013e-17
9.54025e-17
9.5404e-17
9.5406e-17
9.54077e-17
9.541e-17
9.54122e-17
9.54172e-17
9.54304e-17
9.54252e-17
9.54232e-17
9.54213e-17
9.54205e-17
9.54204e-17
9.54209e-17
9.54221e-17
9.54238e-17
9.5426e-17
9.54281e-17
9.54308e-17
9.54331e-17
9.54394e-17
9.545e-17
9.54451e-17
9.54437e-17
9.5442e-17
9.54414e-17
9.54414e-17
9.5442e-17
9.54432e-17
9.5445e-17
9.54474e-17
9.54498e-17
9.54525e-17
9.5455e-17
9.54613e-17
9.54718e-17
9.54675e-17
9.5466e-17
9.54644e-17
9.54638e-17
9.54639e-17
9.54645e-17
9.54659e-17
9.54678e-17
9.54703e-17
9.54731e-17
9.54761e-17
9.5479e-17
9.54846e-17
9.54937e-17
9.549e-17
9.54888e-17
9.54875e-17
9.54871e-17
9.54874e-17
9.54882e-17
9.54898e-17
9.54918e-17
9.54946e-17
9.54976e-17
9.5501e-17
9.55044e-17
9.5509e-17
9.55169e-17
9.55138e-17
9.55127e-17
9.55117e-17
9.55116e-17
9.55121e-17
9.55132e-17
9.55149e-17
9.55172e-17
9.55202e-17
9.55236e-17
9.55273e-17
9.5531e-17
9.55354e-17
9.554e-17
9.5538e-17
9.55371e-17
9.55367e-17
9.55368e-17
9.55377e-17
9.5539e-17
9.55411e-17
9.55437e-17
9.55469e-17
9.55506e-17
9.55545e-17
9.55588e-17
9.55628e-17
9.55638e-17
9.55631e-17
9.55624e-17
9.55624e-17
9.55629e-17
9.5564e-17
9.55658e-17
9.55681e-17
9.55711e-17
9.55746e-17
9.55787e-17
9.5583e-17
9.55878e-17
9.55913e-17
9.55876e-17
9.55884e-17
9.5588e-17
9.55886e-17
9.55895e-17
9.55911e-17
9.55932e-17
9.55959e-17
9.55993e-17
9.56033e-17
9.56078e-17
9.56123e-17
9.56175e-17
9.56203e-17
9.56123e-17
9.5614e-17
9.56138e-17
9.56151e-17
9.56165e-17
9.56186e-17
9.56213e-17
9.56244e-17
9.56283e-17
9.56328e-17
9.56378e-17
9.56425e-17
9.56483e-17
9.56505e-17
9.5637e-17
9.56397e-17
9.564e-17
9.5642e-17
9.56441e-17
9.56467e-17
9.56499e-17
9.56535e-17
9.56579e-17
9.56628e-17
9.56682e-17
9.56731e-17
9.56794e-17
9.56809e-17
9.56628e-17
9.56658e-17
9.56665e-17
9.56689e-17
9.56716e-17
9.56748e-17
9.56786e-17
9.56829e-17
9.56879e-17
9.56933e-17
9.56992e-17
9.57045e-17
9.57116e-17
9.57129e-17
9.5688e-17
9.56913e-17
9.56931e-17
9.5696e-17
9.56995e-17
9.57033e-17
9.57077e-17
9.57125e-17
9.5718e-17
9.57239e-17
9.57299e-17
9.57356e-17
9.57426e-17
9.57447e-17
9.5716e-17
9.57182e-17
9.572e-17
9.5723e-17
9.57272e-17
9.57316e-17
9.57366e-17
9.5742e-17
9.5748e-17
9.57542e-17
9.57604e-17
9.57668e-17
9.57743e-17
9.57794e-17
9.53564e-17
9.53474e-17
9.53404e-17
9.53338e-17
9.53284e-17
9.53236e-17
9.53198e-17
9.53165e-17
9.53138e-17
9.53114e-17
9.53092e-17
9.53074e-17
9.53054e-17
9.53055e-17
9.53698e-17
9.53604e-17
9.53532e-17
9.53461e-17
9.53403e-17
9.53352e-17
9.53309e-17
9.53271e-17
9.5324e-17
9.53213e-17
9.53188e-17
9.53169e-17
9.53147e-17
9.53145e-17
9.53827e-17
9.53731e-17
9.53659e-17
9.53588e-17
9.53527e-17
9.53473e-17
9.53427e-17
9.53388e-17
9.53354e-17
9.53327e-17
9.53302e-17
9.53282e-17
9.53259e-17
9.53257e-17
9.53967e-17
9.53873e-17
9.53801e-17
9.53727e-17
9.53663e-17
9.53607e-17
9.53558e-17
9.53517e-17
9.53481e-17
9.53452e-17
9.53426e-17
9.53406e-17
9.53383e-17
9.53377e-17
9.54108e-17
9.54018e-17
9.53946e-17
9.53873e-17
9.53809e-17
9.53751e-17
9.537e-17
9.53657e-17
9.53621e-17
9.53591e-17
9.53565e-17
9.53544e-17
9.53522e-17
9.53512e-17
9.54257e-17
9.54172e-17
9.541e-17
9.54028e-17
9.53963e-17
9.53904e-17
9.53853e-17
9.53809e-17
9.53772e-17
9.53742e-17
9.53717e-17
9.53696e-17
9.53675e-17
9.53662e-17
9.54409e-17
9.5433e-17
9.54259e-17
9.5419e-17
9.54126e-17
9.54069e-17
9.54018e-17
9.53974e-17
9.53937e-17
9.53906e-17
9.53882e-17
9.5386e-17
9.53841e-17
9.53825e-17
9.54568e-17
9.54497e-17
9.54427e-17
9.54361e-17
9.54299e-17
9.54243e-17
9.54192e-17
9.54149e-17
9.54112e-17
9.54082e-17
9.54058e-17
9.54036e-17
9.5402e-17
9.54001e-17
9.54729e-17
9.54666e-17
9.546e-17
9.54537e-17
9.54478e-17
9.54425e-17
9.54377e-17
9.54335e-17
9.543e-17
9.5427e-17
9.54247e-17
9.54224e-17
9.5421e-17
9.54188e-17
9.54896e-17
9.54843e-17
9.54779e-17
9.54722e-17
9.54666e-17
9.54615e-17
9.5457e-17
9.5453e-17
9.54496e-17
9.54466e-17
9.54444e-17
9.5442e-17
9.54411e-17
9.54388e-17
9.55067e-17
9.55023e-17
9.54964e-17
9.54912e-17
9.5486e-17
9.54813e-17
9.54771e-17
9.54733e-17
9.54702e-17
9.54673e-17
9.54651e-17
9.54628e-17
9.54624e-17
9.546e-17
9.55247e-17
9.55208e-17
9.55153e-17
9.55106e-17
9.55059e-17
9.55016e-17
9.54978e-17
9.54944e-17
9.54916e-17
9.54889e-17
9.54871e-17
9.5485e-17
9.5485e-17
9.54825e-17
9.55437e-17
9.55402e-17
9.55352e-17
9.55309e-17
9.55267e-17
9.55228e-17
9.55193e-17
9.55162e-17
9.55136e-17
9.55112e-17
9.55095e-17
9.55079e-17
9.55075e-17
9.55048e-17
9.55646e-17
9.55597e-17
9.55543e-17
9.55503e-17
9.5547e-17
9.55439e-17
9.55412e-17
9.55386e-17
9.55365e-17
9.55345e-17
9.5533e-17
9.55319e-17
9.5532e-17
9.55302e-17
9.53148e-17
9.5303e-17
9.52935e-17
9.52845e-17
9.52763e-17
9.52688e-17
9.52621e-17
9.52556e-17
9.52499e-17
9.52443e-17
9.52393e-17
9.52344e-17
9.52299e-17
9.52258e-17
9.53206e-17
9.53091e-17
9.52995e-17
9.529e-17
9.52814e-17
9.52735e-17
9.52661e-17
9.52591e-17
9.52528e-17
9.52465e-17
9.52409e-17
9.52354e-17
9.52303e-17
9.5226e-17
9.53263e-17
9.53148e-17
9.53047e-17
9.52951e-17
9.52862e-17
9.5278e-17
9.52704e-17
9.52631e-17
9.52565e-17
9.525e-17
9.5244e-17
9.52382e-17
9.52327e-17
9.52281e-17
9.53328e-17
9.53214e-17
9.53112e-17
9.53012e-17
9.52919e-17
9.52833e-17
9.52753e-17
9.52678e-17
9.52608e-17
9.5254e-17
9.52477e-17
9.52417e-17
9.52358e-17
9.52309e-17
9.53394e-17
9.53282e-17
9.53178e-17
9.53077e-17
9.52982e-17
9.52893e-17
9.52809e-17
9.52731e-17
9.52658e-17
9.52588e-17
9.52522e-17
9.5246e-17
9.52399e-17
9.52344e-17
9.53462e-17
9.53353e-17
9.53249e-17
9.53148e-17
9.5305e-17
9.52958e-17
9.52871e-17
9.5279e-17
9.52714e-17
9.52642e-17
9.52574e-17
9.52509e-17
9.52445e-17
9.52386e-17
9.53532e-17
9.53426e-17
9.53323e-17
9.53221e-17
9.53123e-17
9.53029e-17
9.52941e-17
9.52858e-17
9.52779e-17
9.52705e-17
9.52635e-17
9.52567e-17
9.52502e-17
9.52439e-17
9.53607e-17
9.53504e-17
9.53402e-17
9.533e-17
9.53201e-17
9.53107e-17
9.53017e-17
9.52932e-17
9.52851e-17
9.52775e-17
9.52703e-17
9.52633e-17
9.52568e-17
9.52502e-17
9.53684e-17
9.53586e-17
9.53484e-17
9.53384e-17
9.53285e-17
9.5319e-17
9.53099e-17
9.53014e-17
9.52932e-17
9.52855e-17
9.52782e-17
9.5271e-17
9.52644e-17
9.52574e-17
9.53766e-17
9.53672e-17
9.53573e-17
9.53474e-17
9.53376e-17
9.5328e-17
9.53189e-17
9.53102e-17
9.53019e-17
9.5294e-17
9.52867e-17
9.52794e-17
9.52728e-17
9.52655e-17
9.53847e-17
9.53758e-17
9.53662e-17
9.53566e-17
9.53469e-17
9.53374e-17
9.53284e-17
9.53198e-17
9.53116e-17
9.53038e-17
9.52963e-17
9.52887e-17
9.5282e-17
9.5274e-17
9.53933e-17
9.53848e-17
9.53755e-17
9.53663e-17
9.5357e-17
9.53477e-17
9.53386e-17
9.53299e-17
9.53216e-17
9.53136e-17
9.53061e-17
9.52984e-17
9.52917e-17
9.52834e-17
9.5403e-17
9.53945e-17
9.53856e-17
9.53763e-17
9.53672e-17
9.53581e-17
9.53493e-17
9.53408e-17
9.53326e-17
9.53246e-17
9.53167e-17
9.53087e-17
9.53016e-17
9.52935e-17
9.54125e-17
9.54037e-17
9.53949e-17
9.5386e-17
9.53775e-17
9.5369e-17
9.53605e-17
9.53522e-17
9.53441e-17
9.53362e-17
9.53286e-17
9.53206e-17
9.53134e-17
9.53055e-17
9.52617e-17
9.52495e-17
9.52391e-17
9.52293e-17
9.52202e-17
9.52113e-17
9.52028e-17
9.51942e-17
9.51862e-17
9.51781e-17
9.51708e-17
9.51634e-17
9.51569e-17
9.51498e-17
9.52611e-17
9.52494e-17
9.52391e-17
9.52291e-17
9.52195e-17
9.52101e-17
9.52011e-17
9.51921e-17
9.51836e-17
9.5175e-17
9.51671e-17
9.51591e-17
9.51519e-17
9.51445e-17
9.52596e-17
9.52485e-17
9.52378e-17
9.52277e-17
9.52179e-17
9.52084e-17
9.51992e-17
9.519e-17
9.51812e-17
9.51723e-17
9.5164e-17
9.51556e-17
9.5148e-17
9.51402e-17
9.5259e-17
9.5248e-17
9.52372e-17
9.52267e-17
9.52166e-17
9.52068e-17
9.51974e-17
9.51879e-17
9.51788e-17
9.51697e-17
9.5161e-17
9.51522e-17
9.51441e-17
9.51359e-17
9.52583e-17
9.52474e-17
9.52364e-17
9.52259e-17
9.52155e-17
9.52055e-17
9.51957e-17
9.5186e-17
9.51767e-17
9.51672e-17
9.51582e-17
9.51491e-17
9.51405e-17
9.51319e-17
9.52576e-17
9.52468e-17
9.52357e-17
9.5225e-17
9.52144e-17
9.52041e-17
9.5194e-17
9.51841e-17
9.51745e-17
9.51648e-17
9.51555e-17
9.51461e-17
9.51371e-17
9.51281e-17
9.5257e-17
9.52461e-17
9.52352e-17
9.52243e-17
9.52135e-17
9.52029e-17
9.51926e-17
9.51825e-17
9.51725e-17
9.51627e-17
9.5153e-17
9.51434e-17
9.5134e-17
9.51246e-17
9.52561e-17
9.52454e-17
9.52344e-17
9.52234e-17
9.52125e-17
9.52018e-17
9.51912e-17
9.51809e-17
9.51707e-17
9.51606e-17
9.51507e-17
9.51408e-17
9.51312e-17
9.51215e-17
9.52555e-17
9.52449e-17
9.52339e-17
9.52228e-17
9.52118e-17
9.52009e-17
9.51901e-17
9.51795e-17
9.51691e-17
9.51588e-17
9.51485e-17
9.51385e-17
9.51285e-17
9.51187e-17
9.52547e-17
9.52441e-17
9.52332e-17
9.52221e-17
9.5211e-17
9.52e-17
9.51891e-17
9.51784e-17
9.51677e-17
9.51572e-17
9.51467e-17
9.51365e-17
9.51262e-17
9.51163e-17
9.52541e-17
9.52435e-17
9.52327e-17
9.52216e-17
9.52104e-17
9.51993e-17
9.51883e-17
9.51774e-17
9.51665e-17
9.51558e-17
9.51451e-17
9.51346e-17
9.5124e-17
9.51138e-17
9.52535e-17
9.52429e-17
9.52321e-17
9.5221e-17
9.52099e-17
9.51987e-17
9.51877e-17
9.51767e-17
9.51656e-17
9.51548e-17
9.51438e-17
9.51332e-17
9.51223e-17
9.5112e-17
9.52536e-17
9.52426e-17
9.52319e-17
9.52207e-17
9.52095e-17
9.51983e-17
9.51872e-17
9.51761e-17
9.5165e-17
9.51539e-17
9.51428e-17
9.51318e-17
9.51209e-17
9.51097e-17
9.52527e-17
9.52419e-17
9.52316e-17
9.52206e-17
9.52094e-17
9.51981e-17
9.51868e-17
9.51759e-17
9.5165e-17
9.51542e-17
9.51432e-17
9.51324e-17
9.51211e-17
9.51102e-17
9.51707e-17
9.51605e-17
9.51508e-17
9.51415e-17
9.51322e-17
9.51229e-17
9.51136e-17
9.5104e-17
9.50946e-17
9.50851e-17
9.50762e-17
9.50669e-17
9.50587e-17
9.50495e-17
9.51641e-17
9.51542e-17
9.51447e-17
9.51354e-17
9.5126e-17
9.51165e-17
9.51069e-17
9.50971e-17
9.50874e-17
9.50776e-17
9.50683e-17
9.50585e-17
9.50499e-17
9.50404e-17
9.51564e-17
9.51472e-17
9.51374e-17
9.51282e-17
9.51188e-17
9.51094e-17
9.50998e-17
9.509e-17
9.50802e-17
9.50701e-17
9.50605e-17
9.50506e-17
9.50416e-17
9.50318e-17
9.51491e-17
9.51403e-17
9.51305e-17
9.51211e-17
9.51116e-17
9.5102e-17
9.50923e-17
9.50823e-17
9.50724e-17
9.50621e-17
9.50523e-17
9.50421e-17
9.50327e-17
9.50226e-17
9.51418e-17
9.5133e-17
9.51232e-17
9.51138e-17
9.51041e-17
9.50944e-17
9.50846e-17
9.50745e-17
9.50644e-17
9.5054e-17
9.50439e-17
9.50335e-17
9.50237e-17
9.50134e-17
9.51343e-17
9.51254e-17
9.51156e-17
9.5106e-17
9.50962e-17
9.50864e-17
9.50764e-17
9.50662e-17
9.50559e-17
9.50454e-17
9.5035e-17
9.50244e-17
9.50143e-17
9.50036e-17
9.51268e-17
9.51177e-17
9.51079e-17
9.50981e-17
9.50881e-17
9.50781e-17
9.5068e-17
9.50576e-17
9.50472e-17
9.50365e-17
9.50259e-17
9.50151e-17
9.50047e-17
9.49938e-17
9.51186e-17
9.51094e-17
9.50995e-17
9.50896e-17
9.50796e-17
9.50694e-17
9.50592e-17
9.50487e-17
9.50381e-17
9.50274e-17
9.50165e-17
9.50056e-17
9.49947e-17
9.49838e-17
9.51107e-17
9.51012e-17
9.50913e-17
9.50812e-17
9.5071e-17
9.50607e-17
9.50502e-17
9.50396e-17
9.50287e-17
9.50178e-17
9.50066e-17
9.49956e-17
9.49844e-17
9.49738e-17
9.5102e-17
9.50922e-17
9.50824e-17
9.50721e-17
9.50618e-17
9.50514e-17
9.50408e-17
9.50301e-17
9.50191e-17
9.50081e-17
9.49967e-17
9.49856e-17
9.4974e-17
9.49636e-17
9.50938e-17
9.50836e-17
9.50738e-17
9.50634e-17
9.50529e-17
9.50423e-17
9.50314e-17
9.50205e-17
9.50092e-17
9.49979e-17
9.49862e-17
9.49751e-17
9.49633e-17
9.49531e-17
9.50846e-17
9.50742e-17
9.50644e-17
9.50538e-17
9.50433e-17
9.50325e-17
9.50217e-17
9.50107e-17
9.49994e-17
9.49881e-17
9.49763e-17
9.49651e-17
9.49531e-17
9.4943e-17
9.50762e-17
9.50653e-17
9.50555e-17
9.50449e-17
9.50342e-17
9.50233e-17
9.5012e-17
9.50007e-17
9.4989e-17
9.49774e-17
9.49655e-17
9.49541e-17
9.49422e-17
9.49319e-17
9.50668e-17
9.50557e-17
9.50458e-17
9.5035e-17
9.50241e-17
9.50131e-17
9.5002e-17
9.49908e-17
9.49795e-17
9.49681e-17
9.49564e-17
9.4945e-17
9.4933e-17
9.49227e-17
9.50136e-17
9.50055e-17
9.49978e-17
9.49903e-17
9.49825e-17
9.49743e-17
9.49658e-17
9.49569e-17
9.49478e-17
9.49383e-17
9.49291e-17
9.49193e-17
9.49106e-17
9.49005e-17
9.5001e-17
9.49945e-17
9.49872e-17
9.49798e-17
9.4972e-17
9.49638e-17
9.49552e-17
9.49462e-17
9.49369e-17
9.49273e-17
9.49179e-17
9.49079e-17
9.48991e-17
9.4889e-17
9.49888e-17
9.4983e-17
9.49755e-17
9.49683e-17
9.49606e-17
9.49525e-17
9.4944e-17
9.49351e-17
9.49259e-17
9.49163e-17
9.49069e-17
9.4897e-17
9.4888e-17
9.48779e-17
9.49766e-17
9.4971e-17
9.49637e-17
9.49565e-17
9.49488e-17
9.49407e-17
9.49322e-17
9.49233e-17
9.49141e-17
9.49044e-17
9.4895e-17
9.4885e-17
9.48758e-17
9.48657e-17
9.49646e-17
9.49588e-17
9.49515e-17
9.49442e-17
9.49365e-17
9.49285e-17
9.492e-17
9.4911e-17
9.49018e-17
9.48922e-17
9.48827e-17
9.48728e-17
9.48635e-17
9.48533e-17
9.4952e-17
9.4946e-17
9.49387e-17
9.49314e-17
9.49237e-17
9.49156e-17
9.49071e-17
9.48982e-17
9.48889e-17
9.48793e-17
9.48697e-17
9.48597e-17
9.48502e-17
9.48401e-17
9.49393e-17
9.4933e-17
9.49257e-17
9.49183e-17
9.49105e-17
9.49023e-17
9.48938e-17
9.48848e-17
9.48755e-17
9.48659e-17
9.48562e-17
9.48463e-17
9.48366e-17
9.48265e-17
9.4926e-17
9.49194e-17
9.49121e-17
9.49045e-17
9.48967e-17
9.48885e-17
9.48799e-17
9.48709e-17
9.48616e-17
9.4852e-17
9.48422e-17
9.48323e-17
9.48223e-17
9.48124e-17
9.49127e-17
9.49057e-17
9.48983e-17
9.48906e-17
9.48826e-17
9.48743e-17
9.48656e-17
9.48565e-17
9.48471e-17
9.48375e-17
9.48276e-17
9.48177e-17
9.48076e-17
9.47982e-17
9.48986e-17
9.48912e-17
9.48838e-17
9.4876e-17
9.48679e-17
9.48596e-17
9.48508e-17
9.48418e-17
9.48323e-17
9.48227e-17
9.48126e-17
9.48028e-17
9.47924e-17
9.47834e-17
9.4885e-17
9.4877e-17
9.48695e-17
9.48615e-17
9.48533e-17
9.48448e-17
9.48359e-17
9.48267e-17
9.48171e-17
9.48074e-17
9.47971e-17
9.47874e-17
9.4777e-17
9.47686e-17
9.48703e-17
9.48617e-17
9.48542e-17
9.48461e-17
9.48379e-17
9.48294e-17
9.48205e-17
9.48114e-17
9.48017e-17
9.4792e-17
9.47818e-17
9.47721e-17
9.47616e-17
9.47536e-17
9.48567e-17
9.48473e-17
9.48397e-17
9.48315e-17
9.4823e-17
9.48143e-17
9.48051e-17
9.47956e-17
9.47858e-17
9.47758e-17
9.47655e-17
9.47559e-17
9.47457e-17
9.47379e-17
9.48412e-17
9.48319e-17
9.48239e-17
9.48155e-17
9.4807e-17
9.47982e-17
9.47893e-17
9.478e-17
9.47704e-17
9.47607e-17
9.47507e-17
9.4741e-17
9.47309e-17
9.47233e-17
9.4768e-17
9.47642e-17
9.47599e-17
9.47555e-17
9.47507e-17
9.47453e-17
9.47393e-17
9.47328e-17
9.4726e-17
9.47188e-17
9.47113e-17
9.47034e-17
9.46961e-17
9.46875e-17
9.47534e-17
9.4751e-17
9.47474e-17
9.47433e-17
9.47385e-17
9.4733e-17
9.47269e-17
9.47205e-17
9.47136e-17
9.47064e-17
9.46989e-17
9.4691e-17
9.46839e-17
9.46754e-17
9.474e-17
9.47381e-17
9.47342e-17
9.47302e-17
9.47254e-17
9.472e-17
9.4714e-17
9.47077e-17
9.4701e-17
9.4694e-17
9.46868e-17
9.46791e-17
9.46722e-17
9.46638e-17
9.47261e-17
9.47243e-17
9.47205e-17
9.47165e-17
9.47118e-17
9.47064e-17
9.47005e-17
9.46942e-17
9.46877e-17
9.46807e-17
9.46737e-17
9.46661e-17
9.46592e-17
9.4651e-17
9.47124e-17
9.47103e-17
9.47065e-17
9.47024e-17
9.46976e-17
9.46923e-17
9.46865e-17
9.46804e-17
9.46739e-17
9.46671e-17
9.46602e-17
9.46528e-17
9.46459e-17
9.4638e-17
9.46983e-17
9.46957e-17
9.46919e-17
9.46877e-17
9.4683e-17
9.46777e-17
9.4672e-17
9.46659e-17
9.46595e-17
9.46528e-17
9.46459e-17
9.46387e-17
9.46318e-17
9.46241e-17
9.46839e-17
9.46809e-17
9.4677e-17
9.46727e-17
9.46679e-17
9.46627e-17
9.4657e-17
9.4651e-17
9.46447e-17
9.46381e-17
9.46312e-17
9.46242e-17
9.46173e-17
9.46099e-17
9.4669e-17
9.46655e-17
9.46615e-17
9.46572e-17
9.46525e-17
9.46473e-17
9.46417e-17
9.46357e-17
9.46294e-17
9.46228e-17
9.4616e-17
9.46091e-17
9.46021e-17
9.45952e-17
9.46539e-17
9.46499e-17
9.46459e-17
9.46415e-17
9.46368e-17
9.46316e-17
9.4626e-17
9.462e-17
9.46137e-17
9.46072e-17
9.46004e-17
9.45937e-17
9.45867e-17
9.45804e-17
9.46384e-17
9.46339e-17
9.46298e-17
9.46254e-17
9.46207e-17
9.46155e-17
9.46099e-17
9.4604e-17
9.45977e-17
9.45912e-17
9.45844e-17
9.45778e-17
9.45707e-17
9.4565e-17
9.46231e-17
9.46181e-17
9.46139e-17
9.46093e-17
9.46045e-17
9.45992e-17
9.45936e-17
9.45876e-17
9.45814e-17
9.4575e-17
9.45682e-17
9.45618e-17
9.45547e-17
9.45499e-17
9.46071e-17
9.46015e-17
9.45973e-17
9.45927e-17
9.45879e-17
9.45827e-17
9.45771e-17
9.45712e-17
9.4565e-17
9.45587e-17
9.4552e-17
9.45457e-17
9.45384e-17
9.45341e-17
9.45923e-17
9.45859e-17
9.45815e-17
9.45767e-17
9.45717e-17
9.45663e-17
9.45606e-17
9.45545e-17
9.45482e-17
9.45419e-17
9.45354e-17
9.45292e-17
9.45223e-17
9.45185e-17
9.45753e-17
9.45691e-17
9.45643e-17
9.45596e-17
9.45546e-17
9.45494e-17
9.45439e-17
9.45379e-17
9.45319e-17
9.45256e-17
9.45193e-17
9.4513e-17
9.45066e-17
9.45025e-17
9.44402e-17
9.44408e-17
9.44403e-17
9.44396e-17
9.44386e-17
9.44372e-17
9.44352e-17
9.44327e-17
9.44297e-17
9.44262e-17
9.44224e-17
9.44183e-17
9.44143e-17
9.44094e-17
9.44287e-17
9.443e-17
9.44295e-17
9.44289e-17
9.44279e-17
9.44264e-17
9.44245e-17
9.4422e-17
9.4419e-17
9.44156e-17
9.4412e-17
9.44079e-17
9.44041e-17
9.4399e-17
9.44179e-17
9.4419e-17
9.44183e-17
9.44177e-17
9.44167e-17
9.44152e-17
9.44133e-17
9.44109e-17
9.44081e-17
9.44049e-17
9.44015e-17
9.43976e-17
9.43942e-17
9.43893e-17
9.44064e-17
9.44074e-17
9.44067e-17
9.44062e-17
9.44051e-17
9.44037e-17
9.44017e-17
9.43994e-17
9.43967e-17
9.43936e-17
9.43904e-17
9.43867e-17
9.43834e-17
9.43788e-17
9.43947e-17
9.43954e-17
9.43948e-17
9.43942e-17
9.43932e-17
9.43917e-17
9.43897e-17
9.43875e-17
9.43849e-17
9.4382e-17
9.4379e-17
9.43755e-17
9.43724e-17
9.43682e-17
9.43825e-17
9.4383e-17
9.43826e-17
9.4382e-17
9.43809e-17
9.43794e-17
9.43775e-17
9.43753e-17
9.43728e-17
9.437e-17
9.43671e-17
9.43639e-17
9.43608e-17
9.4357e-17
9.43703e-17
9.43704e-17
9.437e-17
9.43693e-17
9.43682e-17
9.43667e-17
9.43649e-17
9.43628e-17
9.43604e-17
9.43578e-17
9.43549e-17
9.43519e-17
9.43489e-17
9.43456e-17
9.43579e-17
9.43575e-17
9.43571e-17
9.43564e-17
9.43553e-17
9.43539e-17
9.43521e-17
9.435e-17
9.43477e-17
9.43452e-17
9.43424e-17
9.43396e-17
9.43366e-17
9.43338e-17
9.43454e-17
9.43445e-17
9.43441e-17
9.43433e-17
9.43422e-17
9.43408e-17
9.4339e-17
9.4337e-17
9.43348e-17
9.43323e-17
9.43297e-17
9.43271e-17
9.43242e-17
9.4322e-17
9.43326e-17
9.43313e-17
9.43309e-17
9.433e-17
9.43289e-17
9.43275e-17
9.43259e-17
9.43239e-17
9.43217e-17
9.43193e-17
9.43167e-17
9.43142e-17
9.43114e-17
9.43098e-17
9.432e-17
9.43182e-17
9.43176e-17
9.43167e-17
9.43155e-17
9.43142e-17
9.43125e-17
9.43107e-17
9.43085e-17
9.43061e-17
9.43035e-17
9.43012e-17
9.42986e-17
9.42979e-17
9.4307e-17
9.43047e-17
9.43042e-17
9.43033e-17
9.43021e-17
9.43008e-17
9.42992e-17
9.42973e-17
9.42952e-17
9.42929e-17
9.42904e-17
9.42881e-17
9.42854e-17
9.42853e-17
9.42945e-17
9.42918e-17
9.42911e-17
9.42901e-17
9.42888e-17
9.42874e-17
9.42858e-17
9.42839e-17
9.42819e-17
9.42796e-17
9.42772e-17
9.4275e-17
9.42728e-17
9.42731e-17
9.42811e-17
9.42786e-17
9.42775e-17
9.42765e-17
9.42754e-17
9.4274e-17
9.42724e-17
9.42707e-17
9.42687e-17
9.42666e-17
9.42643e-17
9.42619e-17
9.426e-17
9.42599e-17
9.40617e-17
9.40652e-17
9.40678e-17
9.40707e-17
9.40731e-17
9.40752e-17
9.4077e-17
9.40784e-17
9.40793e-17
9.40799e-17
9.40801e-17
9.408e-17
9.40798e-17
9.40791e-17
9.40558e-17
9.40595e-17
9.40621e-17
9.40648e-17
9.40672e-17
9.40693e-17
9.4071e-17
9.40724e-17
9.40734e-17
9.4074e-17
9.40743e-17
9.40743e-17
9.40742e-17
9.40733e-17
9.40498e-17
9.40535e-17
9.4056e-17
9.40586e-17
9.40608e-17
9.40629e-17
9.40646e-17
9.40661e-17
9.40672e-17
9.40679e-17
9.40684e-17
9.40685e-17
9.40686e-17
9.40678e-17
9.40435e-17
9.40471e-17
9.40496e-17
9.40522e-17
9.40544e-17
9.40564e-17
9.40581e-17
9.40595e-17
9.40606e-17
9.40615e-17
9.40621e-17
9.40624e-17
9.40626e-17
9.4062e-17
9.4037e-17
9.40404e-17
9.40429e-17
9.40454e-17
9.40475e-17
9.40495e-17
9.40512e-17
9.40527e-17
9.40539e-17
9.40549e-17
9.40556e-17
9.40561e-17
9.40565e-17
9.40561e-17
9.40302e-17
9.40333e-17
9.40359e-17
9.40383e-17
9.40405e-17
9.40425e-17
9.40442e-17
9.40457e-17
9.40469e-17
9.4048e-17
9.40488e-17
9.40494e-17
9.40499e-17
9.40498e-17
9.40232e-17
9.4026e-17
9.40286e-17
9.4031e-17
9.40332e-17
9.40352e-17
9.40369e-17
9.40385e-17
9.40398e-17
9.40409e-17
9.40418e-17
9.40426e-17
9.40432e-17
9.40434e-17
9.40159e-17
9.40186e-17
9.40213e-17
9.40236e-17
9.40258e-17
9.40278e-17
9.40295e-17
9.40311e-17
9.40325e-17
9.40337e-17
9.40347e-17
9.40356e-17
9.40362e-17
9.40368e-17
9.40087e-17
9.40112e-17
9.40138e-17
9.40161e-17
9.40183e-17
9.40202e-17
9.4022e-17
9.40236e-17
9.4025e-17
9.40263e-17
9.40274e-17
9.40285e-17
9.40292e-17
9.40301e-17
9.40013e-17
9.40036e-17
9.40063e-17
9.40085e-17
9.40107e-17
9.40126e-17
9.40144e-17
9.4016e-17
9.40175e-17
9.40188e-17
9.402e-17
9.40212e-17
9.4022e-17
9.40232e-17
9.39939e-17
9.39959e-17
9.39986e-17
9.40008e-17
9.40029e-17
9.40049e-17
9.40067e-17
9.40083e-17
9.40098e-17
9.40113e-17
9.40125e-17
9.40138e-17
9.40147e-17
9.40163e-17
9.39863e-17
9.39881e-17
9.39908e-17
9.3993e-17
9.39951e-17
9.39971e-17
9.39989e-17
9.40006e-17
9.40022e-17
9.40036e-17
9.4005e-17
9.40063e-17
9.40071e-17
9.4009e-17
9.39789e-17
9.39806e-17
9.3983e-17
9.39852e-17
9.39873e-17
9.39893e-17
9.39911e-17
9.39928e-17
9.39944e-17
9.39959e-17
9.39973e-17
9.39987e-17
9.39998e-17
9.40019e-17
9.39715e-17
9.39731e-17
9.39756e-17
9.39777e-17
9.39797e-17
9.39816e-17
9.39833e-17
9.3985e-17
9.39865e-17
9.39881e-17
9.39895e-17
9.39908e-17
9.39921e-17
9.39936e-17
9.36719e-17
9.36765e-17
9.36809e-17
9.36853e-17
9.36895e-17
9.36936e-17
9.36974e-17
9.37011e-17
9.37046e-17
9.37079e-17
9.37109e-17
9.37137e-17
9.37161e-17
9.37182e-17
9.3671e-17
9.36758e-17
9.36802e-17
9.36846e-17
9.3689e-17
9.36931e-17
9.36971e-17
9.37009e-17
9.37044e-17
9.37077e-17
9.37107e-17
9.37134e-17
9.37158e-17
9.37179e-17
9.36708e-17
9.36754e-17
9.36799e-17
9.36842e-17
9.36885e-17
9.36926e-17
9.36966e-17
9.37004e-17
9.37039e-17
9.37072e-17
9.37102e-17
9.37129e-17
9.37154e-17
9.37174e-17
9.36702e-17
9.36748e-17
9.36792e-17
9.36836e-17
9.36879e-17
9.3692e-17
9.3696e-17
9.36997e-17
9.37032e-17
9.37065e-17
9.37095e-17
9.37123e-17
9.37148e-17
9.37168e-17
9.36694e-17
9.3674e-17
9.36784e-17
9.36827e-17
9.3687e-17
9.36911e-17
9.36951e-17
9.36988e-17
9.37023e-17
9.37056e-17
9.37087e-17
9.37114e-17
9.3714e-17
9.37161e-17
9.36683e-17
9.36729e-17
9.36774e-17
9.36817e-17
9.3686e-17
9.36901e-17
9.3694e-17
9.36977e-17
9.37013e-17
9.37046e-17
9.37077e-17
9.37105e-17
9.37131e-17
9.37152e-17
9.36671e-17
9.36717e-17
9.36761e-17
9.36805e-17
9.36847e-17
9.36888e-17
9.36927e-17
9.36965e-17
9.37e-17
9.37034e-17
9.37065e-17
9.37093e-17
9.37119e-17
9.37142e-17
9.36656e-17
9.36702e-17
9.36747e-17
9.36791e-17
9.36833e-17
9.36873e-17
9.36913e-17
9.3695e-17
9.36986e-17
9.3702e-17
9.37051e-17
9.3708e-17
9.37107e-17
9.37131e-17
9.36641e-17
9.36687e-17
9.36731e-17
9.36775e-17
9.36816e-17
9.36857e-17
9.36896e-17
9.36934e-17
9.3697e-17
9.37004e-17
9.37036e-17
9.37066e-17
9.37093e-17
9.37119e-17
9.36623e-17
9.36669e-17
9.36713e-17
9.36757e-17
9.36798e-17
9.36839e-17
9.36878e-17
9.36916e-17
9.36952e-17
9.36986e-17
9.37019e-17
9.3705e-17
9.37078e-17
9.37105e-17
9.36605e-17
9.36649e-17
9.36693e-17
9.36737e-17
9.36778e-17
9.3682e-17
9.36859e-17
9.36897e-17
9.36933e-17
9.36967e-17
9.37e-17
9.37031e-17
9.3706e-17
9.3709e-17
9.36585e-17
9.36629e-17
9.36673e-17
9.36717e-17
9.36758e-17
9.36799e-17
9.36837e-17
9.36876e-17
9.36912e-17
9.36947e-17
9.3698e-17
9.37011e-17
9.37041e-17
9.37071e-17
9.36565e-17
9.36609e-17
9.36651e-17
9.36695e-17
9.36735e-17
9.36776e-17
9.36815e-17
9.36853e-17
9.3689e-17
9.36925e-17
9.36958e-17
9.3699e-17
9.3702e-17
9.37054e-17
9.36545e-17
9.36591e-17
9.36634e-17
9.36677e-17
9.36715e-17
9.36754e-17
9.36792e-17
9.36829e-17
9.36865e-17
9.369e-17
9.36933e-17
9.36965e-17
9.36997e-17
9.37029e-17
9.32979e-17
9.33018e-17
9.33063e-17
9.33105e-17
9.33149e-17
9.33191e-17
9.33233e-17
9.33274e-17
9.33315e-17
9.33353e-17
9.33391e-17
9.33426e-17
9.33459e-17
9.3349e-17
9.3301e-17
9.33051e-17
9.33096e-17
9.3314e-17
9.33185e-17
9.33229e-17
9.33272e-17
9.33315e-17
9.33355e-17
9.33394e-17
9.3343e-17
9.33464e-17
9.33495e-17
9.33526e-17
9.33047e-17
9.33087e-17
9.33134e-17
9.33179e-17
9.33225e-17
9.33268e-17
9.33311e-17
9.33352e-17
9.33392e-17
9.33429e-17
9.33465e-17
9.33498e-17
9.33528e-17
9.33558e-17
9.33079e-17
9.33122e-17
9.33169e-17
9.33214e-17
9.3326e-17
9.33304e-17
9.33348e-17
9.33389e-17
9.33429e-17
9.33466e-17
9.33501e-17
9.33534e-17
9.33563e-17
9.33591e-17
9.33111e-17
9.33156e-17
9.33203e-17
9.33249e-17
9.33295e-17
9.3334e-17
9.33383e-17
9.33424e-17
9.33463e-17
9.335e-17
9.33534e-17
9.33566e-17
9.33595e-17
9.33622e-17
9.33141e-17
9.33187e-17
9.33235e-17
9.33282e-17
9.33328e-17
9.33372e-17
9.33416e-17
9.33457e-17
9.33496e-17
9.33533e-17
9.33567e-17
9.33599e-17
9.33628e-17
9.33653e-17
9.33169e-17
9.33217e-17
9.33265e-17
9.33312e-17
9.33359e-17
9.33403e-17
9.33446e-17
9.33487e-17
9.33526e-17
9.33563e-17
9.33597e-17
9.33628e-17
9.33657e-17
9.33682e-17
9.33195e-17
9.33245e-17
9.33293e-17
9.33341e-17
9.33387e-17
9.33432e-17
9.33475e-17
9.33516e-17
9.33555e-17
9.33591e-17
9.33625e-17
9.33656e-17
9.33686e-17
9.3371e-17
9.3322e-17
9.3327e-17
9.33318e-17
9.33366e-17
9.33412e-17
9.33458e-17
9.335e-17
9.33541e-17
9.3358e-17
9.33617e-17
9.33651e-17
9.33682e-17
9.33711e-17
9.33736e-17
9.33242e-17
9.33293e-17
9.33341e-17
9.3339e-17
9.33436e-17
9.33481e-17
9.33524e-17
9.33565e-17
9.33604e-17
9.3364e-17
9.33674e-17
9.33706e-17
9.33736e-17
9.33761e-17
9.33262e-17
9.33314e-17
9.33361e-17
9.3341e-17
9.33456e-17
9.33502e-17
9.33545e-17
9.33586e-17
9.33625e-17
9.33661e-17
9.33695e-17
9.33727e-17
9.33758e-17
9.33784e-17
9.33282e-17
9.33333e-17
9.33381e-17
9.3343e-17
9.33475e-17
9.3352e-17
9.33563e-17
9.33604e-17
9.33643e-17
9.3368e-17
9.33715e-17
9.33747e-17
9.33778e-17
9.33806e-17
9.33299e-17
9.3335e-17
9.33396e-17
9.33445e-17
9.33491e-17
9.33536e-17
9.33579e-17
9.33621e-17
9.3366e-17
9.33698e-17
9.33733e-17
9.33765e-17
9.33796e-17
9.33827e-17
9.33316e-17
9.3337e-17
9.33415e-17
9.33463e-17
9.33507e-17
9.33552e-17
9.33594e-17
9.33634e-17
9.33673e-17
9.33711e-17
9.33746e-17
9.3378e-17
9.33813e-17
9.33845e-17
9.29524e-17
9.29548e-17
9.29579e-17
9.2961e-17
9.29642e-17
9.29673e-17
9.29704e-17
9.29735e-17
9.29765e-17
9.29794e-17
9.29822e-17
9.29848e-17
9.29874e-17
9.29899e-17
9.29569e-17
9.29595e-17
9.29627e-17
9.29659e-17
9.29692e-17
9.29725e-17
9.29757e-17
9.29789e-17
9.29819e-17
9.29848e-17
9.29875e-17
9.299e-17
9.29924e-17
9.2995e-17
9.29617e-17
9.29644e-17
9.29679e-17
9.29712e-17
9.29746e-17
9.29778e-17
9.2981e-17
9.29841e-17
9.2987e-17
9.29898e-17
9.29924e-17
9.29948e-17
9.2997e-17
9.29995e-17
9.29663e-17
9.29693e-17
9.29728e-17
9.29762e-17
9.29796e-17
9.2983e-17
9.29862e-17
9.29893e-17
9.29922e-17
9.29949e-17
9.29975e-17
9.29999e-17
9.3002e-17
9.30043e-17
9.29708e-17
9.2974e-17
9.29777e-17
9.29812e-17
9.29847e-17
9.2988e-17
9.29912e-17
9.29943e-17
9.29972e-17
9.29998e-17
9.30023e-17
9.30046e-17
9.30067e-17
9.30088e-17
9.29753e-17