/*--------------------------------*- C++ -*----------------------------------*\
| =========                 |                                                 |
| \\      /  F ield         | OpenFOAM: The Open Source CFD Toolbox           |
|  \\    /   O peration     | Version:  v2106                                 |
|   \\  /    A nd           | Website:  www.openfoam.com                      |
|    \\/     M anipulation  |                                                 |
\*---------------------------------------------------------------------------*/
FoamFile
{
    version     2.0;
    format      ascii;
    arch        "LSB;label=32;scalar=64";
    class       surfaceScalarField;
    location    "0.000169";
    object      phi;
}
// * * * * * * * * * * * * * * * * * * * * * * * * * * * * * * * * * * * * * //

dimensions      [1 0 -1 0 0 0 0];

internalField   nonuniform List<scalar> 
53252
(
-3.14586e-11
-3.27024e-11
-8.52866e-09
3.82203e-11
3.69942e-11
-2.84006e-11
-3.62288e-11
-8.52748e-09
4.40689e-11
-2.37076e-11
-3.20843e-11
-8.52575e-09
3.84823e-11
-1.86122e-11
-3.4408e-11
-8.52387e-09
4.03521e-11
-1.2892e-11
-3.50026e-11
-8.52285e-09
4.03276e-11
-6.89241e-12
-3.58884e-11
-8.52221e-09
4.09498e-11
-9.57535e-13
-3.641e-11
-8.52209e-09
4.15631e-11
5.05063e-12
-3.62845e-11
-8.522e-09
4.13563e-11
1.10644e-11
-3.58487e-11
-8.52202e-09
4.08968e-11
1.67708e-11
-3.49491e-11
-8.52251e-09
4.03003e-11
2.18429e-11
-3.43421e-11
-8.5234e-09
4.03295e-11
2.65098e-11
-3.20001e-11
-8.52514e-09
3.84554e-11
2.95137e-11
-3.61919e-11
-8.52674e-09
4.41502e-11
-3.25868e-11
-8.5278e-09
3.81564e-11
3.50914e-11
-3.49882e-11
-2.96481e-11
-8.52739e-09
4.28269e-11
-2.96257e-11
-3.09151e-11
-8.52601e-09
-2.29922e-11
-2.78581e-11
-8.52415e-09
-1.70587e-11
-2.95243e-11
-8.5222e-09
-1.14161e-11
-2.98397e-11
-8.52089e-09
-6.05842e-12
-3.04884e-11
-8.51967e-09
-9.59073e-13
-3.0757e-11
-8.51929e-09
4.18896e-12
-3.06928e-11
-8.51921e-09
9.5363e-12
-3.04578e-11
-8.51947e-09
1.51576e-11
-2.97816e-11
-8.52055e-09
2.10778e-11
-2.94547e-11
-8.52174e-09
2.77221e-11
-2.77781e-11
-8.52355e-09
3.31216e-11
-3.08711e-11
-8.52528e-09
-2.95592e-11
-8.52653e-09
4.10547e-11
-3.08516e-11
-2.4983e-11
-8.52554e-09
3.72798e-11
-2.65744e-11
-2.43216e-11
-8.52404e-09
-2.10619e-11
-2.2384e-11
-8.52157e-09
-1.59651e-11
-2.3651e-11
-8.51983e-09
-1.08836e-11
-2.3959e-11
-8.51853e-09
-5.87799e-12
-2.45616e-11
-8.51749e-09
-9.33923e-13
-2.47709e-11
-8.51717e-09
4.03081e-12
-2.47402e-11
-8.51709e-09
9.0154e-12
-2.45378e-11
-8.51729e-09
1.40715e-11
-2.39079e-11
-8.51819e-09
1.91461e-11
-2.35879e-11
-8.51936e-09
2.46468e-11
-2.23077e-11
-8.52097e-09
2.89239e-11
-2.42606e-11
-8.5233e-09
-2.49014e-11
-8.52468e-09
3.54017e-11
-3.31657e-11
-1.99069e-11
-8.52356e-09
3.91423e-11
-2.82346e-11
-1.84129e-11
-8.52198e-09
-2.2324e-11
-1.73108e-11
-8.51973e-09
-1.68189e-11
-1.81679e-11
-8.5181e-09
-1.13846e-11
-1.83994e-11
-8.51688e-09
-6.11753e-12
-1.88591e-11
-8.51588e-09
-9.19888e-13
-1.90006e-11
-8.51556e-09
4.28217e-12
-1.89895e-11
-8.51548e-09
9.52571e-12
-1.88482e-11
-8.51567e-09
1.4934e-11
-1.83699e-11
-8.51653e-09
2.04138e-11
-1.8128e-11
-8.51762e-09
2.63064e-11
-1.72553e-11
-8.51912e-09
3.12344e-11
-1.83595e-11
-8.52125e-09
-1.98427e-11
-8.5227e-09
3.72469e-11
-3.37576e-11
-1.42001e-11
-8.52243e-09
3.91319e-11
-2.85492e-11
-1.27721e-11
-8.52056e-09
-2.26338e-11
-1.22293e-11
-8.51831e-09
-1.70545e-11
-1.27334e-11
-8.51677e-09
-1.15453e-11
-1.28903e-11
-8.51554e-09
-6.20496e-12
-1.32018e-11
-8.51457e-09
-9.12068e-13
-1.32968e-11
-8.51424e-09
4.37812e-12
-1.3298e-11
-8.51416e-09
9.69872e-12
-1.32092e-11
-8.51435e-09
1.51858e-11
-1.28912e-11
-8.51518e-09
2.07416e-11
-1.2728e-11
-8.51628e-09
2.66385e-11
-1.22081e-11
-8.5177e-09
3.18418e-11
-1.2745e-11
-8.51982e-09
-1.4157e-11
-8.52158e-09
3.72338e-11
-3.46138e-11
-8.1963e-12
-8.52171e-09
3.97247e-11
-2.91778e-11
-7.39418e-12
-8.51926e-09
-2.32223e-11
-7.20561e-12
-8.51719e-09
-1.7506e-11
-7.44869e-12
-8.51568e-09
-1.1852e-11
-7.5358e-12
-8.51448e-09
-6.36427e-12
-7.69874e-12
-8.51352e-09
-9.135e-13
-7.75398e-12
-8.5132e-09
4.53254e-12
-7.76272e-12
-8.51312e-09
1.00051e-11
-7.72283e-12
-8.5133e-09
1.56406e-11
-7.56425e-12
-8.51412e-09
2.13335e-11
-7.47534e-12
-8.51518e-09
2.72681e-11
-7.21862e-12
-8.51656e-09
3.26891e-11
-7.39426e-12
-8.51852e-09
-8.17665e-12
-8.52085e-09
3.78075e-11
-3.51631e-11
-2.25923e-12
-8.52148e-09
4.03776e-11
-2.94639e-11
-2.27794e-12
-8.51878e-09
-2.34421e-11
-2.24523e-12
-8.51676e-09
-1.76547e-11
-2.23301e-12
-8.51526e-09
-1.19517e-11
-2.22834e-12
-8.51406e-09
-6.4209e-12
-2.23352e-12
-8.5131e-09
-9.24167e-13
-2.2468e-12
-8.51278e-09
4.57018e-12
-2.2598e-12
-8.51269e-09
1.00957e-11
-2.26968e-12
-8.51287e-09
1.57923e-11
-2.27723e-12
-8.51368e-09
2.15683e-11
-2.28437e-12
-8.51475e-09
2.75791e-11
-2.28749e-12
-8.51612e-09
3.3267e-11
-2.30203e-12
-8.51802e-09
-2.26065e-12
-8.52062e-09
3.84859e-11
-3.49852e-11
3.81972e-12
-8.52131e-09
4.00452e-11
-2.9383e-11
2.91661e-12
-8.51861e-09
-2.34102e-11
2.74587e-12
-8.51659e-09
-1.76478e-11
2.98693e-12
-8.51509e-09
-1.19579e-11
3.07177e-12
-8.51389e-09
-6.43304e-12
3.22013e-12
-8.51293e-09
-9.37677e-13
3.25005e-12
-8.5126e-09
4.55899e-12
3.23607e-12
-8.51251e-09
1.00883e-11
3.18059e-12
-8.51269e-09
1.57849e-11
3.01535e-12
-8.5135e-09
2.15487e-11
2.92626e-12
-8.51457e-09
2.75199e-11
2.69007e-12
-8.51594e-09
3.31144e-11
2.88318e-12
-8.51785e-09
3.80594e-12
-8.52044e-09
3.81792e-11
-3.45832e-11
9.87275e-12
-8.52126e-09
3.96618e-11
-2.91638e-11
8.29378e-12
-8.51882e-09
-2.32167e-11
7.75092e-12
-8.51674e-09
-1.75136e-11
8.24816e-12
-8.51523e-09
-1.1875e-11
8.40462e-12
-8.51403e-09
-6.39815e-12
8.7039e-12
-8.51306e-09
-9.50907e-13
8.78176e-12
-8.51273e-09
4.50154e-12
8.76881e-12
-8.51264e-09
9.98928e-12
8.67027e-12
-8.51282e-09
1.56438e-11
8.35352e-12
-8.51364e-09
2.13578e-11
8.19377e-12
-8.5147e-09
2.73097e-11
7.69911e-12
-8.51608e-09
3.27246e-11
8.2678e-12
-8.51805e-09
9.86028e-12
-8.52039e-09
3.78064e-11
-3.37068e-11
1.5598e-11
-8.52168e-09
3.91076e-11
-2.85057e-11
1.39382e-11
-8.51983e-09
-2.26046e-11
1.28263e-11
-8.51757e-09
-1.70514e-11
1.36743e-11
-8.51603e-09
-1.15703e-11
1.39056e-11
-8.51479e-09
-6.24909e-12
1.43535e-11
-8.51381e-09
-9.63213e-13
1.44878e-11
-8.51347e-09
4.33462e-12
1.44741e-11
-8.51338e-09
9.6739e-12
1.43322e-11
-8.51356e-09
1.5183e-11
1.38681e-11
-8.51439e-09
2.07616e-11
1.36361e-11
-8.51549e-09
2.66801e-11
1.27906e-11
-8.51691e-09
3.18903e-11
1.39288e-11
-8.51905e-09
1.55995e-11
-8.5208e-09
3.72972e-11
-3.31055e-11
2.06791e-11
-8.5225e-09
3.91472e-11
-2.81899e-11
1.98815e-11
-8.52094e-09
-2.22994e-11
1.79184e-11
-8.51868e-09
-1.6825e-11
1.91691e-11
-8.51705e-09
-1.14205e-11
1.9474e-11
-8.51582e-09
-6.17042e-12
2.0062e-11
-8.51481e-09
-9.75762e-13
2.02745e-11
-8.51448e-09
4.24125e-12
2.02527e-11
-8.51438e-09
9.51222e-12
2.00589e-11
-8.51456e-09
1.49499e-11
1.94591e-11
-8.51543e-09
2.04563e-11
1.91577e-11
-8.51651e-09
2.63692e-11
1.79106e-11
-8.51801e-09
3.12965e-11
1.99008e-11
-8.52017e-09
2.07064e-11
-8.52162e-09
3.73461e-11
-3.0776e-11
2.53514e-11
-8.52417e-09
3.72846e-11
-2.6534e-11
2.65578e-11
-8.52269e-09
-2.10397e-11
2.34396e-11
-8.5202e-09
-1.59702e-11
2.50814e-11
-8.51847e-09
-1.09148e-11
2.53909e-11
-8.51716e-09
-5.92432e-12
2.60237e-11
-8.51611e-09
-9.83545e-13
2.63076e-11
-8.51577e-09
3.99717e-12
2.62605e-11
-8.51567e-09
9.01186e-12
2.60386e-11
-8.51587e-09
1.41019e-11
2.54028e-11
-8.51676e-09
1.92078e-11
2.50994e-11
-8.51793e-09
2.47299e-11
2.34613e-11
-8.51954e-09
2.89911e-11
2.66061e-11
-8.52191e-09
2.54079e-11
-8.52329e-09
3.55152e-11
-3.50172e-11
2.83366e-11
-8.5257e-09
4.30559e-11
-2.96689e-11
3.19856e-11
-8.52434e-09
-2.30247e-11
2.77329e-11
-8.52246e-09
-1.70998e-11
3.00324e-11
-8.52052e-09
-1.14688e-11
3.06188e-11
-8.5192e-09
-6.10819e-12
3.14792e-11
-8.51797e-09
-9.94103e-13
3.20235e-11
-8.51758e-09
4.18816e-12
3.19177e-11
-8.51749e-09
9.58095e-12
3.14969e-11
-8.51774e-09
1.52435e-11
3.06529e-11
-8.51882e-09
2.12034e-11
3.00708e-11
-8.52e-09
2.78796e-11
2.7771e-11
-8.52182e-09
3.32642e-11
3.20394e-11
-8.52358e-09
2.84181e-11
-8.52483e-09
4.13194e-11
-3.13735e-11
-8.5267e-09
3.39421e-11
3.69735e-11
-2.8366e-11
-8.52551e-09
3.99959e-11
-2.3702e-11
-8.52376e-09
3.42591e-11
-1.86322e-11
-8.52188e-09
3.60947e-11
-1.29249e-11
-8.52086e-09
3.60487e-11
-6.92227e-12
-8.52021e-09
3.66383e-11
-9.71766e-13
-8.52007e-09
3.72771e-11
5.06503e-12
-8.51997e-09
3.70914e-11
1.11129e-11
-8.51998e-09
3.66459e-11
1.68515e-11
-8.52048e-09
3.61069e-11
2.19527e-11
-8.52137e-09
3.61599e-11
2.6637e-11
-8.52312e-09
3.43328e-11
2.96469e-11
-8.52474e-09
4.01004e-11
-8.52584e-09
3.52593e-11
3.40528e-11
-3.536e-11
-3.60392e-11
-9.76422e-09
4.19523e-11
4.12436e-11
-3.14351e-11
-4.00283e-11
-9.76325e-09
4.84536e-11
-2.61414e-11
-3.52815e-11
-9.76111e-09
4.21649e-11
-2.04146e-11
-3.79129e-11
-9.75894e-09
4.4303e-11
-1.39964e-11
-3.86548e-11
-9.75777e-09
4.43747e-11
-7.24855e-12
-3.96793e-11
-9.75705e-09
4.50991e-11
-5.72829e-13
-4.02884e-11
-9.75692e-09
4.58172e-11
6.17504e-12
-4.01924e-11
-9.75688e-09
4.56552e-11
1.2926e-11
-3.96352e-11
-9.75694e-09
4.50623e-11
1.93354e-11
-3.85953e-11
-9.75757e-09
4.43479e-11
2.50528e-11
-3.78506e-11
-9.75864e-09
4.42921e-11
3.03506e-11
-3.5224e-11
-9.7607e-09
4.21608e-11
3.42652e-11
-4.00192e-11
-9.76274e-09
4.854e-11
-3.60024e-11
-9.76359e-09
4.19344e-11
4.02012e-11
-3.93427e-11
-3.20918e-11
-9.76317e-09
4.77057e-11
-3.29478e-11
-3.36209e-11
-9.76192e-09
-2.54858e-11
-3.01156e-11
-9.75964e-09
-1.8791e-11
-3.20271e-11
-9.75738e-09
-1.24171e-11
-3.24385e-11
-9.75589e-09
-6.34496e-12
-3.31935e-11
-9.75451e-09
-5.55787e-13
-3.35112e-11
-9.75411e-09
5.27327e-12
-3.34595e-11
-9.75407e-09
1.13228e-11
-3.31396e-11
-9.75441e-09
1.76689e-11
-3.23579e-11
-9.75571e-09
2.43502e-11
-3.1942e-11
-9.75711e-09
3.18274e-11
-3.00423e-11
-9.75926e-09
3.82664e-11
-3.35905e-11
-9.76143e-09
-3.20577e-11
-9.76257e-09
4.67097e-11
-3.45915e-11
-2.67992e-11
-9.76094e-09
4.14157e-11
-2.94487e-11
-2.61613e-11
-9.75955e-09
-2.32668e-11
-2.39355e-11
-9.75655e-09
-1.75313e-11
-2.54078e-11
-9.75452e-09
-1.17979e-11
-2.57957e-11
-9.75302e-09
-6.12913e-12
-2.64917e-11
-9.75184e-09
-5.23261e-13
-2.6735e-11
-9.75149e-09
5.09224e-12
-2.6703e-11
-9.75146e-09
1.07244e-11
-2.64322e-11
-9.75175e-09
1.64151e-11
-2.57054e-11
-9.75286e-09
2.21184e-11
-2.53086e-11
-9.75427e-09
2.8294e-11
-2.38449e-11
-9.75621e-09
3.34649e-11
-2.61052e-11
-9.75909e-09
-2.67582e-11
-9.76037e-09
4.03541e-11
-3.72159e-11
-2.11067e-11
-9.75867e-09
4.35464e-11
-3.13555e-11
-1.95028e-11
-9.75719e-09
-2.47355e-11
-1.82368e-11
-9.75442e-09
-1.85433e-11
-1.92506e-11
-9.7525e-09
-1.23997e-11
-1.95435e-11
-9.7511e-09
-6.4135e-12
-2.00735e-11
-9.74996e-09
-4.96697e-13
-2.0236e-11
-9.74962e-09
5.41211e-12
-2.02141e-11
-9.74959e-09
1.13496e-11
-2.00185e-11
-9.74987e-09
1.74343e-11
-1.9459e-11
-9.75095e-09
2.35748e-11
-1.91537e-11
-9.75227e-09
3.01693e-11
-1.81417e-11
-9.7541e-09
3.60421e-11
-1.94318e-11
-9.75677e-09
-2.10596e-11
-9.75814e-09
4.24294e-11
-3.79537e-11
-1.47419e-11
-9.75741e-09
4.36175e-11
-3.17669e-11
-1.31846e-11
-9.7556e-09
-2.51254e-11
-1.25624e-11
-9.75282e-09
-1.88383e-11
-1.31675e-11
-9.751e-09
-1.25956e-11
-1.33627e-11
-9.74957e-09
-6.51208e-12
-1.37157e-11
-9.74846e-09
-4.76241e-13
-1.38194e-11
-9.74812e-09
5.54345e-12
-1.38045e-11
-9.74808e-09
1.15698e-11
-1.36726e-11
-9.74837e-09
1.77385e-11
-1.32937e-11
-9.74942e-09
2.39538e-11
-1.30829e-11
-9.75077e-09
3.0548e-11
-1.24719e-11
-9.75251e-09
3.67263e-11
-1.31059e-11
-9.75519e-09
-1.46892e-11
-9.75689e-09
4.24311e-11
-3.89632e-11
-8.04514e-12
-9.7566e-09
4.43248e-11
-3.25126e-11
-7.16927e-12
-9.75414e-09
-2.58146e-11
-6.95666e-12
-9.75155e-09
-1.93646e-11
-7.24824e-12
-9.74977e-09
-1.29462e-11
-7.35065e-12
-9.74838e-09
-6.68366e-12
-7.52586e-12
-9.74728e-09
-4.57956e-13
-7.57985e-12
-9.74693e-09
5.74873e-12
-7.57295e-12
-9.74689e-09
1.19498e-11
-7.50261e-12
-9.74718e-09
1.82856e-11
-7.3099e-12
-9.74821e-09
2.4653e-11
-7.19338e-12
-9.74953e-09
3.12929e-11
-6.89188e-12
-9.75124e-09
3.77248e-11
-7.10457e-12
-9.75374e-09
-7.99319e-12
-9.7561e-09
4.31117e-11
-3.95942e-11
-1.42291e-12
-9.75639e-09
4.50811e-11
-3.28444e-11
-1.43307e-12
-9.75365e-09
-2.60664e-11
-1.40821e-12
-9.75113e-09
-1.95327e-11
-1.39162e-12
-9.74935e-09
-1.30532e-11
-1.37984e-12
-9.74796e-09
-6.73799e-12
-1.36812e-12
-9.74685e-09
-4.5498e-13
-1.37067e-12
-9.7465e-09
5.80973e-12
-1.37027e-12
-9.74645e-09
1.20657e-11
-1.36262e-12
-9.74673e-09
1.84621e-11
-1.36504e-12
-9.74775e-09
2.49091e-11
-1.3656e-12
-9.74908e-09
3.16202e-11
-1.37115e-12
-9.75078e-09
3.83397e-11
-1.38813e-12
-9.75323e-09
-1.37885e-12
-9.75588e-09
4.38402e-11
-3.94805e-11
5.3362e-12
-9.75627e-09
4.48568e-11
-3.27937e-11
4.38555e-12
-9.75355e-09
-2.60417e-11
4.18137e-12
-9.75103e-09
-1.95194e-11
4.48363e-12
-9.74926e-09
-1.30468e-11
4.59956e-12
-9.74786e-09
-6.73771e-12
4.79482e-12
-9.74675e-09
-4.55792e-13
4.84438e-12
-9.74639e-09
5.81002e-12
4.8402e-12
-9.74634e-09
1.20651e-11
4.78684e-12
-9.7466e-09
1.84602e-11
4.59353e-12
-9.74763e-09
2.4899e-11
4.48518e-12
-9.74895e-09
3.1584e-11
4.19248e-12
-9.75064e-09
3.8235e-11
4.41008e-12
-9.75309e-09
5.36937e-12
-9.75575e-09
4.36159e-11
-3.89661e-11
1.2098e-11
-9.7563e-09
4.43408e-11
-3.25005e-11
1.04396e-11
-9.75386e-09
-2.57872e-11
9.81321e-12
-9.75129e-09
-1.93346e-11
1.04206e-11
-9.74952e-09
-1.2924e-11
1.06243e-11
-9.74812e-09
-6.67661e-12
1.09951e-11
-9.747e-09
-4.55207e-13
1.10976e-11
-9.74664e-09
5.75189e-12
1.10897e-11
-9.74657e-09
1.19481e-11
1.09766e-11
-9.74683e-09
1.82841e-11
1.06006e-11
-9.74785e-09
2.46541e-11
1.04014e-11
-9.74917e-09
3.12982e-11
9.80278e-12
-9.75087e-09
3.7723e-11
1.04482e-11
-9.75338e-09
1.21188e-11
-9.75575e-09
4.30998e-11
-3.79619e-11
1.85277e-11
-9.75688e-09
4.3684e-11
-3.17434e-11
1.68161e-11
-9.75511e-09
-2.50791e-11
1.55392e-11
-9.75236e-09
-1.87899e-11
1.65457e-11
-9.75055e-09
-1.25576e-11
1.68364e-11
-9.74912e-09
-6.49493e-12
1.7378e-11
-9.74799e-09
-4.63877e-13
1.75414e-11
-9.74761e-09
5.55678e-12
1.75305e-11
-9.74754e-09
1.15732e-11
1.73553e-11
-9.7478e-09
1.77373e-11
1.68033e-11
-9.74882e-09
2.39492e-11
1.65159e-11
-9.75016e-09
3.05449e-11
1.55191e-11
-9.7519e-09
3.67188e-11
1.68208e-11
-9.75459e-09
1.85411e-11
-9.75631e-09
4.24382e-11
-3.72327e-11
2.42848e-11
-9.75792e-09
4.365e-11
-3.13418e-11
2.35547e-11
-9.75648e-09
-2.46947e-11
2.13081e-11
-9.75373e-09
-1.84944e-11
2.2761e-11
-9.75183e-09
-1.2355e-11
2.31338e-11
-9.75043e-09
-6.3875e-12
2.38354e-11
-9.74926e-09
-4.72322e-13
2.40808e-11
-9.74889e-09
5.44012e-12
2.40632e-11
-9.74881e-09
1.13676e-11
2.38132e-11
-9.74906e-09
1.74481e-11
2.30979e-11
-9.75011e-09
2.35826e-11
2.27269e-11
-9.75142e-09
3.01723e-11
2.12845e-11
-9.75325e-09
3.60298e-11
2.35594e-11
-9.75593e-09
2.42994e-11
-9.75732e-09
4.24422e-11
-3.46163e-11
2.96311e-11
-9.75994e-09
4.15349e-11
-2.94516e-11
3.11059e-11
-9.75858e-09
-2.32365e-11
2.75652e-11
-9.75562e-09
-1.74848e-11
2.94482e-11
-9.7536e-09
-1.17456e-11
2.98318e-11
-9.7521e-09
-6.09059e-12
3.05911e-11
-9.75089e-09
-4.83884e-13
3.09108e-11
-9.75051e-09
5.13391e-12
3.08764e-11
-9.75043e-09
1.07551e-11
3.05752e-11
-9.75069e-09
1.64426e-11
2.98041e-11
-9.75177e-09
2.21386e-11
2.94215e-11
-9.75318e-09
2.83077e-11
2.75481e-11
-9.75512e-09
3.34495e-11
3.11191e-11
-9.75803e-09
2.96623e-11
-9.75933e-09
4.0359e-11
-3.94272e-11
3.35646e-11
-9.76192e-09
4.79688e-11
-3.30045e-11
3.76135e-11
-9.7607e-09
-2.54951e-11
3.28114e-11
-9.75844e-09
-1.87715e-11
3.54105e-11
-9.7562e-09
-1.23764e-11
3.61106e-11
-9.7547e-09
-6.30212e-12
3.71383e-11
-9.75331e-09
-4.99122e-13
3.77467e-11
-9.75287e-09
5.338e-12
3.76697e-11
-9.75279e-09
1.13847e-11
3.71263e-11
-9.75311e-09
1.77317e-11
3.60957e-11
-9.75438e-09
2.44054e-11
3.53955e-11
-9.75578e-09
3.18784e-11
3.2798e-11
-9.75794e-09
3.82902e-11
3.76256e-11
-9.76014e-09
3.36119e-11
-9.76131e-09
4.68264e-11
-3.53728e-11
-9.76273e-09
3.95482e-11
4.12885e-11
-3.14545e-11
-9.76177e-09
4.61514e-11
-2.61375e-11
-9.75965e-09
3.97805e-11
-2.03943e-11
-9.75749e-09
4.18862e-11
-1.3958e-11
-9.75632e-09
4.19052e-11
-7.19756e-12
-9.75558e-09
4.26273e-11
-4.99494e-13
-9.75543e-09
4.33398e-11
6.25226e-12
-9.75535e-09
4.32041e-11
1.29951e-11
-9.75539e-09
4.26164e-11
1.93947e-11
-9.75601e-09
4.19065e-11
2.51011e-11
-9.75709e-09
4.18897e-11
3.03938e-11
-9.75916e-09
3.97837e-11
3.42857e-11
-9.76122e-09
4.62027e-11
-9.76212e-09
4.0207e-11
3.96215e-11
-3.95428e-11
-3.96694e-11
-1.11697e-08
4.65258e-11
4.62618e-11
-3.49304e-11
-4.40615e-11
-1.11692e-08
5.35923e-11
-2.89376e-11
-3.85876e-11
-1.11666e-08
4.6502e-11
-2.25129e-11
-4.14598e-11
-1.11642e-08
4.88565e-11
-1.53234e-11
-4.22736e-11
-1.11629e-08
4.89255e-11
-7.7688e-12
-4.34685e-11
-1.11621e-08
4.97957e-11
-2.64773e-13
-4.4182e-11
-1.11619e-08
5.06202e-11
7.29972e-12
-4.41656e-11
-1.11619e-08
5.05685e-11
1.49033e-11
-4.35359e-11
-1.1162e-08
4.98742e-11
2.21518e-11
-4.23902e-11
-1.11628e-08
4.90699e-11
2.86507e-11
-4.16201e-11
-1.11641e-08
4.90393e-11
3.47157e-11
-3.87966e-11
-1.11664e-08
4.67194e-11
3.93888e-11
-4.42954e-11
-1.11689e-08
5.38186e-11
-3.99193e-11
-1.11694e-08
4.67165e-11
4.61374e-11
-4.3915e-11
-3.49671e-11
-1.11691e-08
5.33096e-11
-3.6683e-11
-3.67117e-11
-1.11682e-08
-2.82967e-11
-3.26394e-11
-1.11655e-08
-2.07785e-11
-3.47311e-11
-1.11629e-08
-1.36241e-11
-3.51786e-11
-1.11612e-08
-6.80788e-12
-3.60525e-11
-1.11597e-08
-2.80567e-13
-3.64383e-11
-1.11593e-08
6.28707e-12
-3.64346e-11
-1.11593e-08
1.3142e-11
-3.60871e-11
-1.11597e-08
2.03585e-11
-3.52468e-11
-1.11612e-08
2.79594e-11
-3.48482e-11
-1.11629e-08
3.64312e-11
-3.28133e-11
-1.11654e-08
4.3748e-11
-3.69348e-11
-1.1168e-08
-3.52114e-11
-1.11689e-08
5.31836e-11
-3.8421e-11
-2.89066e-11
-1.11666e-08
4.61569e-11
-3.26214e-11
-2.82461e-11
-1.11655e-08
-2.56946e-11
-2.56333e-11
-1.11619e-08
-1.92845e-11
-2.7256e-11
-1.11596e-08
-1.28872e-11
-2.76745e-11
-1.11579e-08
-6.55849e-12
-2.84636e-11
-1.11565e-08
-2.81482e-13
-2.87482e-11
-1.11562e-08
6.01456e-12
-2.87356e-11
-1.11562e-08
1.23664e-11
-2.8448e-11
-1.11566e-08
1.88121e-11
-2.76706e-11
-1.11579e-08
2.52918e-11
-2.72917e-11
-1.11596e-08
3.23052e-11
-2.57282e-11
-1.11619e-08
3.82055e-11
-2.84136e-11
-1.11653e-08
-2.9132e-11
-1.11664e-08
4.60464e-11
-4.12782e-11
-2.24997e-11
-1.11641e-08
4.84861e-11
-3.47084e-11
-2.07449e-11
-1.11629e-08
-2.73177e-11
-1.92487e-11
-1.11596e-08
-2.042e-11
-2.0384e-11
-1.11573e-08
-1.35759e-11
-2.07003e-11
-1.11557e-08
-6.89134e-12
-2.12935e-11
-1.11544e-08
-2.67165e-13
-2.14662e-11
-1.1154e-08
6.36156e-12
-2.14372e-11
-1.11541e-08
1.30498e-11
-2.12237e-11
-1.11545e-08
1.99186e-11
-2.06151e-11
-1.11558e-08
2.68646e-11
-2.03193e-11
-1.11574e-08
3.43325e-11
-1.92375e-11
-1.11596e-08
4.10037e-11
-2.08158e-11
-1.11628e-08
-2.26494e-11
-1.11639e-08
4.8318e-11
-4.20945e-11
-1.54022e-11
-1.11628e-08
4.85464e-11
-3.51583e-11
-1.3702e-11
-1.11612e-08
-2.7738e-11
-1.29743e-11
-1.11578e-08
-2.07365e-11
-1.36688e-11
-1.11557e-08
-1.3782e-11
-1.38778e-11
-1.1154e-08
-6.98851e-12
-1.42634e-11
-1.11527e-08
-2.38515e-13
-1.43458e-11
-1.11524e-08
6.50337e-12
-1.42992e-11
-1.11524e-08
1.32721e-11
-1.41404e-11
-1.11528e-08
2.02119e-11
-1.37094e-11
-1.11541e-08
2.7224e-11
-1.34965e-11
-1.11558e-08
3.46943e-11
-1.28429e-11
-1.11579e-08
4.17179e-11
-1.36496e-11
-1.11611e-08
-1.54461e-11
-1.11626e-08
4.82857e-11
-4.32868e-11
-7.98529e-12
-1.11619e-08
4.94096e-11
-3.6034e-11
-7.05097e-12
-1.11596e-08
-2.85304e-11
-6.82374e-12
-1.11564e-08
-2.13331e-11
-7.17232e-12
-1.11543e-08
-1.41686e-11
-7.27869e-12
-1.11527e-08
-7.16431e-12
-7.45768e-12
-1.11514e-08
-1.98577e-13
-7.46598e-12
-1.11511e-08
6.74846e-12
-7.41064e-12
-1.11511e-08
1.36992e-11
-7.30562e-12
-1.11515e-08
2.08083e-11
-7.05998e-12
-1.11528e-08
2.79748e-11
-6.92857e-12
-1.11544e-08
3.5496e-11
-6.60299e-12
-1.11565e-08
4.28186e-11
-6.89344e-12
-1.11596e-08
-7.92215e-12
-1.11618e-08
4.90547e-11
-4.40347e-11
-6.31764e-13
-1.11618e-08
5.02784e-11
-3.6441e-11
-6.99889e-13
-1.11591e-08
-2.88236e-11
-7.29028e-13
-1.1156e-08
-2.1507e-11
-7.33122e-13
-1.11539e-08
-1.42496e-11
-7.14806e-13
-1.11523e-08
-7.17082e-12
-6.7871e-13
-1.1151e-08
-1.33524e-13
-6.19247e-13
-1.11506e-08
6.87212e-12
-5.59369e-13
-1.11507e-08
1.38614e-11
-5.09908e-13
-1.11511e-08
2.1011e-11
-4.64168e-13
-1.11524e-08
2.82402e-11
-4.40472e-13
-1.1154e-08
3.58244e-11
-4.41984e-13
-1.11561e-08
4.34559e-11
-4.6079e-13
-1.11591e-08
-4.80782e-13
-1.11617e-08
4.98018e-11
-4.40365e-11
6.83697e-12
-1.11617e-08
5.02349e-11
-3.64602e-11
5.75738e-12
-1.11591e-08
-2.88276e-11
5.44817e-12
-1.1156e-08
-2.14873e-11
5.77515e-12
-1.11539e-08
-1.42089e-11
5.90897e-12
-1.11523e-08
-7.1201e-12
6.15434e-12
-1.1151e-08
-7.27783e-14
6.26891e-12
-1.11506e-08
6.93298e-12
6.32497e-12
-1.11506e-08
1.39043e-11
6.31561e-12
-1.1151e-08
2.10334e-11
6.15259e-12
-1.11523e-08
2.82396e-11
6.0673e-12
-1.1154e-08
3.57952e-11
5.74836e-12
-1.1156e-08
4.33742e-11
6.02916e-12
-1.1159e-08
7.04818e-12
-1.11616e-08
4.96472e-11
-4.34814e-11
1.43865e-11
-1.11618e-08
4.9642e-11
-3.61582e-11
1.25622e-11
-1.11595e-08
-2.85601e-11
1.17572e-11
-1.11564e-08
-2.1279e-11
1.24322e-11
-1.11543e-08
-1.40521e-11
1.26586e-11
-1.11527e-08
-7.01858e-12
1.30963e-11
-1.11514e-08
-2.71079e-14
1.32538e-11
-1.1151e-08
6.91621e-12
1.32945e-11
-1.1151e-08
1.38127e-11
1.32176e-11
-1.11514e-08
2.08602e-11
1.28445e-11
-1.11527e-08
2.79722e-11
1.26625e-11
-1.11543e-08
3.54609e-11
1.20062e-11
-1.11563e-08
4.27646e-11
1.28041e-11
-1.11594e-08
1.45999e-11
-1.11617e-08
4.89983e-11
-4.23819e-11
2.16445e-11
-1.11625e-08
4.89138e-11
-3.53402e-11
1.98142e-11
-1.1161e-08
-2.77869e-11
1.8261e-11
-1.11577e-08
-2.06618e-11
1.93802e-11
-1.11556e-08
-1.3611e-11
1.96966e-11
-1.11539e-08
-6.76936e-12
2.03179e-11
-1.11526e-08
2.0066e-14
2.05273e-11
-1.11522e-08
6.75446e-12
2.0549e-11
-1.11522e-08
1.34412e-11
2.03864e-11
-1.11526e-08
2.02862e-11
1.98042e-11
-1.11539e-08
2.72123e-11
1.95218e-11
-1.11555e-08
3.4628e-11
1.84269e-11
-1.11576e-08
4.16271e-11
1.99922e-11
-1.11608e-08
2.1824e-11
-1.11624e-08
4.82149e-11
-4.16342e-11
2.82133e-11
-1.11638e-08
4.89266e-11
-3.49431e-11
2.75224e-11
-1.11626e-08
-2.73929e-11
2.48799e-11
-1.11593e-08
-2.03404e-11
2.64932e-11
-1.11571e-08
-1.33727e-11
2.68967e-11
-1.11555e-08
-6.62572e-12
2.7687e-11
-1.11542e-08
4.56662e-14
2.79726e-11
-1.11538e-08
6.65892e-12
2.79739e-11
-1.11538e-08
1.32466e-11
2.76942e-11
-1.11541e-08
2.00008e-11
2.69149e-11
-1.11554e-08
2.68448e-11
2.65311e-11
-1.1157e-08
3.42467e-11
2.49438e-11
-1.11592e-08
4.08846e-11
2.76152e-11
-1.11624e-08
2.83358e-11
-1.11636e-08
4.82189e-11
-3.88003e-11
3.43944e-11
-1.11661e-08
4.66155e-11
-3.28799e-11
3.61447e-11
-1.1165e-08
-2.57872e-11
3.20721e-11
-1.11615e-08
-1.92118e-11
3.41648e-11
-1.11592e-08
-1.26784e-11
3.45877e-11
-1.11575e-08
-6.27981e-12
3.54421e-11
-1.11562e-08
4.72392e-14
3.57976e-11
-1.11558e-08
6.31629e-12
3.57836e-11
-1.11557e-08
1.25612e-11
3.53978e-11
-1.11561e-08
1.88857e-11
3.45342e-11
-1.11574e-08
2.5255e-11
3.41169e-11
-1.11591e-08
3.21967e-11
3.20494e-11
-1.11614e-08
3.80574e-11
3.61611e-11
-1.11648e-08
3.44428e-11
-1.11659e-08
4.59257e-11
-4.42715e-11
3.91678e-11
-1.11685e-08
5.37306e-11
-3.69451e-11
4.35967e-11
-1.11676e-08
-2.84057e-11
3.81334e-11
-1.11649e-08
-2.07301e-11
4.10171e-11
-1.11624e-08
-1.34412e-11
4.17989e-11
-1.11607e-08
-6.54666e-12
4.29596e-11
-1.11592e-08
3.5967e-14
4.36219e-11
-1.11587e-08
6.56387e-12
4.35953e-11
-1.11587e-08
1.33145e-11
4.28834e-11
-1.11591e-08
2.04127e-11
4.16989e-11
-1.11606e-08
2.79059e-11
4.09056e-11
-1.11623e-08
3.63137e-11
3.80406e-11
-1.11648e-08
4.35913e-11
4.35448e-11
-1.11674e-08
3.91619e-11
-1.11683e-08
5.30809e-11
-3.98483e-11
-1.1169e-08
4.60269e-11
4.65755e-11
-3.51498e-11
-1.11685e-08
5.31402e-11
-2.90357e-11
-1.11659e-08
4.60887e-11
-2.24793e-11
-1.11635e-08
4.84541e-11
-1.51751e-11
-1.11622e-08
4.84901e-11
-7.54689e-12
-1.11614e-08
4.93199e-11
5.03451e-15
-1.11613e-08
5.00813e-11
7.52764e-12
-1.11612e-08
5.00314e-11
1.50361e-11
-1.11613e-08
4.92315e-11
2.21861e-11
-1.11621e-08
4.8364e-11
2.85955e-11
-1.11634e-08
4.83076e-11
3.45969e-11
-1.11658e-08
4.59627e-11
3.92201e-11
-1.11682e-08
5.30892e-11
-1.11688e-08
4.59667e-11
4.60057e-11
-4.42763e-11
-4.4281e-11
-1.27438e-08
5.32385e-11
5.31101e-11
-3.91589e-11
-4.89636e-11
-1.27423e-08
6.07789e-11
-3.22548e-11
-4.26021e-11
-1.27399e-08
5.27852e-11
-2.49788e-11
-4.56234e-11
-1.27372e-08
5.52803e-11
-1.69305e-11
-4.63964e-11
-1.27358e-08
5.52435e-11
-8.52571e-12
-4.76748e-11
-1.27349e-08
5.61745e-11
-1.46097e-13
-4.85096e-11
-1.27347e-08
5.71012e-11
8.27567e-12
-4.86129e-11
-1.27347e-08
5.72133e-11
1.68216e-11
-4.79794e-11
-1.27348e-08
5.64543e-11
2.50578e-11
-4.6862e-11
-1.27357e-08
5.56726e-11
3.25328e-11
-4.62049e-11
-1.27371e-08
5.57879e-11
3.95923e-11
-4.32449e-11
-1.27397e-08
5.33177e-11
4.47882e-11
-4.95771e-11
-1.27421e-08
6.1235e-11
-4.48805e-11
-1.27436e-08
5.36605e-11
5.35648e-11
-4.89482e-11
-3.90566e-11
-1.27423e-08
6.06643e-11
-4.10402e-11
-4.09412e-11
-1.27403e-08
-3.14879e-11
-3.61284e-11
-1.27378e-08
-2.30002e-11
-3.82902e-11
-1.27349e-08
-1.50199e-11
-3.86482e-11
-1.27331e-08
-7.48127e-12
-3.95562e-11
-1.27314e-08
-2.59798e-13
-4.00256e-11
-1.27309e-08
7.03382e-12
-4.0116e-11
-1.27309e-08
1.47584e-11
-3.98362e-11
-1.27314e-08
2.29913e-11
-3.90846e-11
-1.27331e-08
3.17357e-11
-3.88545e-11
-1.27349e-08
4.14837e-11
-3.67762e-11
-1.27377e-08
4.94912e-11
-4.16013e-11
-1.27402e-08
-3.97006e-11
-1.27422e-08
6.11545e-11
-4.25482e-11
-3.20453e-11
-1.274e-08
5.26149e-11
-3.62265e-11
-3.12579e-11
-1.27378e-08
-2.83223e-11
-2.80878e-11
-1.27343e-08
-2.11307e-11
-2.97567e-11
-1.27317e-08
-1.40814e-11
-3.0088e-11
-1.27298e-08
-7.18155e-12
-3.08973e-11
-1.27283e-08
-3.46812e-13
-3.12345e-11
-1.27279e-08
6.56418e-12
-3.12913e-11
-1.27279e-08
1.36586e-11
-3.10839e-11
-1.27283e-08
2.09882e-11
-3.04002e-11
-1.27298e-08
2.84864e-11
-3.0195e-11
-1.27317e-08
3.6658e-11
-2.86362e-11
-1.27343e-08
4.31613e-11
-3.1881e-11
-1.27377e-08
-3.26613e-11
-1.27399e-08
5.32515e-11
-4.55553e-11
-2.47156e-11
-1.27374e-08
5.50627e-11
-3.8394e-11
-2.271e-11
-1.27351e-08
-2.99955e-11
-2.08439e-11
-1.27318e-08
-2.23045e-11
-2.20205e-11
-1.27294e-08
-1.48123e-11
-2.22679e-11
-1.27276e-08
-7.57185e-12
-2.28699e-11
-1.27261e-08
-4.06402e-13
-2.30581e-11
-1.27257e-08
6.8306e-12
-2.30648e-11
-1.27257e-08
1.42613e-11
-2.29174e-11
-1.27261e-08
2.2034e-11
-2.23812e-11
-1.27276e-08
3.00387e-11
-2.22309e-11
-1.27294e-08
3.87227e-11
-2.117e-11
-1.27318e-08
4.60914e-11
-2.31541e-11
-1.27351e-08
-2.52042e-11
-1.27373e-08
5.56975e-11
-4.63281e-11
-1.67021e-11
-1.27361e-08
5.50132e-11
-3.87567e-11
-1.47765e-11
-1.27334e-08
-3.03309e-11
-1.38483e-11
-1.273e-08
-2.25503e-11
-1.45842e-11
-1.27277e-08
-1.49743e-11
-1.47512e-11
-1.27258e-08
-7.66117e-12
-1.5139e-11
-1.27244e-08
-4.09303e-13
-1.5204e-11
-1.27239e-08
6.90012e-12
-1.51547e-11
-1.2724e-08
1.43742e-11
-1.50315e-11
-1.27244e-08
2.22002e-11
-1.46355e-11
-1.27259e-08
3.02779e-11
-1.45171e-11
-1.27278e-08
3.90005e-11
-1.3882e-11
-1.27301e-08
4.68132e-11
-1.49464e-11
-1.27334e-08
-1.69758e-11
-1.2736e-08
5.56524e-11
-4.76181e-11
-8.39459e-12
-1.27352e-08
5.59332e-11
-3.96765e-11
-7.38057e-12
-1.27317e-08
-3.11504e-11
-7.10835e-12
-1.27285e-08
-2.31596e-11
-7.50487e-12
-1.27262e-08
-1.53667e-11
-7.58513e-12
-1.27244e-08
-7.84448e-12
-7.75818e-12
-1.27229e-08
-3.84255e-13
-7.72419e-12
-1.27225e-08
7.11776e-12
-7.62868e-12
-1.27226e-08
1.47615e-11
-7.51785e-12
-1.27231e-08
2.27544e-11
-7.25812e-12
-1.27246e-08
3.09952e-11
-7.15224e-12
-1.27264e-08
3.97908e-11
-6.82412e-12
-1.27287e-08
4.79708e-11
-7.23459e-12
-1.27317e-08
-8.40938e-12
-1.27352e-08
5.64719e-11
-4.84804e-11
-1.18923e-13
-1.27351e-08
5.68519e-11
-4.01768e-11
-2.92106e-13
-1.27312e-08
-3.14996e-11
-4.13962e-13
-1.27281e-08
-2.33422e-11
-4.84562e-13
-1.27258e-08
-1.54157e-11
-4.84686e-13
-1.27239e-08
-7.79303e-12
-4.37316e-13
-1.27225e-08
-2.54258e-13
-3.20299e-13
-1.27221e-08
7.29095e-12
-1.84586e-13
-1.27221e-08
1.49397e-11
-7.96595e-14
-1.27227e-08
2.29419e-11
2.66095e-14
-1.27242e-08
3.12382e-11
8.58406e-14
-1.2726e-08
4.01089e-11
1.1039e-13
-1.27283e-08
4.86381e-11
1.03351e-13
-1.27313e-08
8.17666e-14
-1.27351e-08
5.72464e-11
-4.86449e-11
8.17377e-12
-1.27351e-08
5.70693e-11
-4.0297e-11
6.88883e-12
-1.27311e-08
-3.15638e-11
6.40328e-12
-1.2728e-08
-2.3343e-11
6.66943e-12
-1.27257e-08
-1.53539e-11
6.74564e-12
-1.27239e-08
-7.68529e-12
7.00241e-12
-1.27224e-08
-1.18348e-13
7.17136e-12
-1.2722e-08
7.42723e-12
7.32129e-12
-1.27221e-08
1.50452e-11
7.40708e-12
-1.27226e-08
2.30046e-11
7.33464e-12
-1.27242e-08
3.12564e-11
7.32986e-12
-1.2726e-08
4.00935e-11
7.04293e-12
-1.27283e-08
4.86079e-11
7.43289e-12
-1.27313e-08
8.55736e-12
-1.2735e-08
5.72257e-11
-4.80418e-11
1.66238e-11
-1.27351e-08
5.63679e-11
-4.0027e-11
1.45353e-11
-1.27315e-08
-3.13508e-11
1.34403e-11
-1.27284e-08
-2.31798e-11
1.4074e-11
-1.27261e-08
-1.52126e-11
1.42366e-11
-1.27243e-08
-7.56141e-12
1.46848e-11
-1.27228e-08
-2.46576e-14
1.48777e-11
-1.27224e-08
7.47695e-12
1.50054e-11
-1.27225e-08
1.5039e-11
1.50364e-11
-1.2723e-08
2.29154e-11
1.47621e-11
-1.27245e-08
3.10405e-11
1.46961e-11
-1.27264e-08
3.9755e-11
1.40766e-11
-1.27286e-08
4.79009e-11
1.51072e-11
-1.27317e-08
1.70821e-11
-1.27351e-08
5.64089e-11
-4.69445e-11
2.48382e-11
-1.27358e-08
5.56248e-11
-3.92657e-11
2.27829e-11
-1.27331e-08
-3.06265e-11
2.08219e-11
-1.27298e-08
-2.25854e-11
2.19349e-11
-1.27274e-08
-1.47577e-11
2.21812e-11
-1.27256e-08
-7.25274e-12
2.28124e-11
-1.27242e-08
1.15068e-13
2.30375e-11
-1.27238e-08
7.42143e-12
2.31305e-11
-1.27239e-08
1.47736e-11
2.30661e-11
-1.27244e-08
2.24211e-11
2.25693e-11
-1.27259e-08
3.03262e-11
2.24096e-11
-1.27277e-08
3.89275e-11
2.13354e-11
-1.273e-08
4.66868e-11
2.32737e-11
-1.27333e-08
2.52689e-11
-1.27359e-08
5.55345e-11
-4.62769e-11
3.23644e-11
-1.27372e-08
5.57593e-11
-3.89919e-11
3.16194e-11
-1.27348e-08
-3.03518e-11
2.84445e-11
-1.27315e-08
-2.23553e-11
3.00884e-11
-1.27291e-08
-1.45702e-11
3.04267e-11
-1.27273e-08
-7.10458e-12
3.12321e-11
-1.27259e-08
2.01637e-13
3.15205e-11
-1.27255e-08
7.42753e-12
3.15753e-11
-1.27256e-08
1.47057e-11
3.13624e-11