/*--------------------------------*- C++ -*----------------------------------*\
| =========                 |                                                 |
| \\      /  F ield         | OpenFOAM: The Open Source CFD Toolbox           |
|  \\    /   O peration     | Version:  v2106                                 |
|   \\  /    A nd           | Website:  www.openfoam.com                      |
|    \\/     M anipulation  |                                                 |
\*---------------------------------------------------------------------------*/
FoamFile
{
    version     2.0;
    format      ascii;
    arch        "LSB;label=32;scalar=64";
    class       volScalarField;
    location    "0.000154";
    object      k;
}
// * * * * * * * * * * * * * * * * * * * * * * * * * * * * * * * * * * * * * //

dimensions      [0 2 -2 0 0 0 0];

internalField   nonuniform List<scalar> 
18273
(
7.41549
6.22378
4.97156
3.55366
2.39872
1.64923
1.40511
1.58232
2.15065
3.04915
4.22408
5.46566
6.3493
6.92737
7.74059
6.49737
4.92438
3.14182
1.79164
1.00648
0.698923
0.747664
1.14018
1.82992
2.73338
3.73721
4.59241
5.24202
8.26938
6.54649
4.44755
2.42328
1.12954
0.50446
0.273292
0.279704
0.517067
1.00971
1.70873
2.47951
3.19927
3.85566
8.18631
5.68087
3.30124
1.44276
0.523095
0.182152
0.0759907
0.081025
0.197103
0.481466
0.95634
1.53305
2.10285
2.67161
7.23491
4.31727
2.05012
0.682194
0.232225
0.0764066
0.0261049
0.0268486
0.0767055
0.217696
0.500067
0.920837
1.43275
2.02737
5.89453
3.08204
1.24968
0.499028
0.231944
0.0890434
0.0334551
0.0269234
0.0518459
0.129009
0.304557
0.629815
1.1372
1.82177
4.75183
2.38993
1.13811
0.670289
0.365284
0.163872
0.07799
0.067793
0.0983781
0.1824
0.363204
0.71027
1.28148
2.07636
4.07488
2.32386
1.52624
1.06185
0.661009
0.3461
0.192331
0.177348
0.242886
0.392775
0.668098
1.1347
1.82036
2.73309
3.89946
2.69694
2.18114
1.70084
1.21005
0.725515
0.435467
0.395405
0.522005
0.782668
1.19683
1.81196
2.62361
3.67662
4.13272
3.43165
3.11706
2.68046
2.14707
1.46466
0.922357
0.762976
0.925799
1.2902
1.82484
2.57389
3.54446
4.78935
4.53227
4.24253
4.27011
4.0784
3.59658
2.7782
1.887
1.4036
1.45439
1.83749
2.43517
3.30479
4.43121
5.79174
5.20954
5.23512
5.5843
5.81986
5.51507
4.68317
3.54844
2.62941
2.29177
2.48374
3.01
3.90679
5.05934
6.47437
6.05318
6.12445
6.66722
7.34475
7.51725
6.89468
5.69743
4.46014
3.62795
3.39116
3.6424
4.42017
5.47383
6.92934
7.28287
7.2726
7.67203
8.3643
8.99923
8.7615
7.73157
6.38677
5.2278
4.56957
4.46566
5.01154
5.96345
7.46769
6.50372
5.33137
4.2973
3.16823
2.35074
1.92003
2.01723
2.54841
3.36301
4.30917
5.31
6.15966
6.53842
6.63769
6.9202
5.55052
4.14563
2.68039
1.61572
1.01462
0.88197
1.15944
1.78023
2.59275
3.45192
4.23376
4.70698
5.01584
7.55858
5.71125
3.83344
2.1022
0.999458
0.461744
0.302382
0.415886
0.801373
1.43356
2.17345
2.85937
3.37723
3.84368
7.72774
5.19988
2.99288
1.29994
0.462822
0.155808
0.0762121
0.120722
0.308117
0.688608
1.23667
1.81047
2.32861
2.88655
7.30968
4.28837
1.98057
0.647272
0.202446
0.0612759
0.0238483
0.0395256
0.119413
0.312955
0.656762
1.12964
1.72116
2.48833
6.52652
3.33454
1.25596
0.458635
0.194571
0.0703371
0.0282912
0.0310358
0.0717794
0.182
0.418864
0.85358
1.56181
2.57361
5.74301
2.68514
1.12056
0.599843
0.310069
0.136964
0.0710765
0.0727751
0.122208
0.249546
0.525143
1.05642
1.94343
3.17152
5.16918
2.55877
1.4655
0.955901
0.581395
0.309806
0.188582
0.194962
0.293438
0.513414
0.929398
1.63775
2.69263
4.0632
4.91809
2.86485
2.07697
1.55093
1.09914
0.68465
0.448393
0.443982
0.620932
0.974482
1.54756
2.39772
3.53128
4.99565
5.03882
3.54217
2.93073
2.45604
1.99314
1.43406
0.981684
0.86791
1.08279
1.53427
2.19426
3.11004
4.29081
5.84646
5.22896
4.23074
3.93555
3.70382
3.37275
2.78559
2.06128
1.62673
1.69644
2.1244
2.77274
3.70792
4.91692
6.43223
5.61071
5.07191
5.11942
5.29265
5.18645
4.7574
3.96462
3.14379
2.75842
2.90479
3.36651
4.19831
5.25963
6.67296
6.00777
5.7183
6.08062
6.71437
7.10224
6.98297
6.37526
5.44409
4.56585
4.15598
4.18106
4.71523
5.48176
6.79932
6.80112
6.66659
7.04545
7.79732
8.6884
8.98642
8.64534
7.833
6.77112
5.86753
5.37522
5.4746
5.93335
7.08262
5.52165
4.40356
3.70551
2.97042
2.56258
2.57246
3.10804
3.88838
4.56708
4.99846
5.29392
5.51484
5.58558
5.53121
5.62942
4.22586
3.15451
2.1564
1.45173
1.1171
1.25053
1.7632
2.45187
3.08708
3.58971
3.95368
4.10176
4.26585
5.83082
4.19936
2.78764
1.58652
0.796992
0.413571
0.368099
0.594712
1.05878
1.67229
2.29015
2.806
3.16515
3.60588
5.83233
3.87662
2.21006
0.967336
0.34667
0.117968
0.0769194
0.156333
0.380636
0.777515
1.3162
1.84884
2.36571
3.06094
5.86845
3.49915
1.57165
0.514935
0.151438
0.042227
0.0196857
0.0445172
0.135741
0.341127
0.693381
1.19842
1.91879
3.00617
5.99032
3.10215
1.10384
0.378572
0.14078
0.0458227
0.0190075
0.0269346
0.0716377
0.191095
0.459104
0.995362
1.96851
3.45934
6.12741
2.78733
1.02636
0.480114
0.222528
0.0919193
0.0496105
0.0581958
0.112628
0.258702
0.600704
1.31364
2.57766
4.33923
6.2692
2.75473
1.31606
0.763677
0.429672
0.221683
0.142641
0.16251
0.268459
0.516743
1.02451
1.9459
3.36337
5.13508
6.16974
3.06897
1.84326
1.25679
0.842389
0.520809
0.362915
0.388991
0.575977
0.959745
1.61603
2.61942
3.97019
5.5884
6.13554
3.68187
2.57356
1.99028
1.56412
1.13964
0.836029
0.796874
1.02636
1.49747
2.19952
3.15228
4.34938
5.76975
6.11097
4.21044
3.41314
2.96136
2.66094
2.27296
1.82211
1.56691
1.67352
2.10984
2.74067
3.57842
4.59603
5.8601
6.27326
4.92476
4.42204
4.20266
4.07713
3.9493
3.6022
3.12059
2.85787
3.02884
3.41983
4.07333
4.79462
5.89008
6.33157
5.42634
5.22469
5.33806
5.54286
5.77396
5.86817
5.58348
5.00958
4.61476
4.47904
4.73483
5.06121
6.0174
6.86201
6.33488
6.1785
6.39555
6.93846
7.4418
7.87993
7.99708
7.56297
6.7972
6.11574
5.82221
5.70044
6.31194
7.68837
9.65249
13.1083
19.905
35.7523
9.3028
5.9445
7.49893
10.4367
17.416
36.6805
8.8448
4.44974
5.58579
7.87071
14.5597
37.4424
8.62091
3.25593
4.20109
5.95619
11.751
36.5305
8.48287
2.66386
3.564
5.01074
9.84587
34.8255
8.45439
2.57486
3.53832
4.93222
9.07074
32.5482
8.56293
2.94366
4.03684
5.58326
9.48778
30.2943
8.80137
3.68386
4.97151
6.80393
10.8825
28.639
9.13033
4.68785
6.19431
8.3257
12.6467
27.6094
9.65684
5.75229
7.41074
9.82381
14.3886
26.8744
10.6747
6.65519
8.35388
11.0516
15.922
27.3714
11.9531
7.316
8.97103
11.9247
17.2662
30.0945
13.1333
7.78058
9.35966
12.4856
18.5198
34.5811
13.8726
8.18088
9.77903
13.213
20.1789
39.4442
13.2952
7.0018
8.53339
11.2718
17.2175
31.7114
12.759
5.48406
6.63317
8.80152
14.2129
28.4243
11.6727
4.30715
5.18681
6.83879
11.4754
25.9092
10.7889
3.53283
4.48235
5.92354
9.81416
23.3867
10.2171
3.37574
4.49335
5.9057
9.27286
21.5728
9.97151
3.7271
5.0879
6.69354
9.92084
20.5316
9.97517
4.50863
6.14718
8.1024
11.4851
20.2191
10.1404
5.50971
7.40124
9.7357
13.5242
20.7126
10.4714
6.42989
8.47242
11.0797
15.4772
22.2178
11.2292
7.07495
9.09719
11.8632
16.9151
24.6897
12.7021
7.41548
9.24168
12.0804
17.6938
28.0429
14.7178
7.51827
9.06934
11.828
17.6802
32.1981
16.6016
7.53809
8.84002
11.4362
17.3562
35.7982
17.7441
7.63652
8.87871
11.5814
17.784
37.8099
17.0906
5.53844
6.32077
7.40668
9.81995
16.1228
13.7493
4.56263
5.30737
6.29571
8.30465
13.4284
12.1201
4.12819
4.94847
5.91279
7.64863
11.8767
11.3836
3.97969
5.13162
6.27502
7.90594
11.3657
11.5132
4.38616
5.89729
7.2519
8.86443
11.6655
12.4547
5.23298
7.09076
8.70987
10.3581
12.568
13.9813
6.26303
8.30971
10.1308
11.8842
13.7553
15.6839
6.98041
9.02716
10.9639
13.0434
14.9203
17.3248
7.18246
9.05589
11.0432
13.7786
16.0449
18.8056
6.9747
8.55926
10.4693
13.9442
17.3223
19.8476
6.68973
7.87174
9.49171
13.1489
18.9
20.2301
6.45215
7.25909
8.56157
11.7899
20.11
19.9921
6.39587
7.00409
8.06683
10.8024
20.3415
19.1492
6.54163
7.14195
8.17277
10.7469
19.6146
17.6766
8.45485
10.6623
14.8294
23.2315
42.0374
9.22331
6.85261
8.71491
12.4232
20.7611
40.4934
8.64811
5.82003
7.38709
10.5701
18.4701
38.5956
8.36108
5.43373
6.84972
9.55764
16.6573
35.6889
8.1782
5.75588
7.10879
9.47782
15.8515
33.1131
8.03005
6.60077
7.89185
10.0625
15.936
31.1899
7.94296
7.66673
8.79091
10.7872
16.2685
29.9444
8.10133
8.51537
9.39283
11.2316
16.3051
29.1064
8.69261
8.80001
9.5194
11.3246
16.0528
28.7426
9.87067
8.65634
9.41309
11.3776
15.994
29.1174
11.6935
8.4277
9.28815
11.4824
16.2771
31.2932
13.586
8.1886
9.15021
11.5029
16.8891
35.5179
15.2784
7.99826
9.05794
11.6202
18.0916
41.4548
16.4153
7.94885
9.24488
12.4204
20.6786
48.7776
16.0158
7.82729
9.54861
12.8112
19.8632
36.5006
13.091
6.81031
8.25389
10.948
16.9574
30.811
12.2267
6.44887
7.77093
10.015
15.0125
26.6581
11.6853
6.69923
8.0896
10.103
14.3283
23.4666
11.3857
7.5341
9.00495
10.9069
14.7377
22.0042
11.2262
8.60509
10.0061
11.8741
15.7138
21.9232
11.3397
9.40778
10.57
12.3816
16.53
22.9753
11.999
9.63293
10.5025
12.2073
16.7414
24.9805
13.2553
9.25221
9.91605
11.5391
16.3535
27.6727
15.0587
8.61026
9.25146
10.9491
15.7404
30.3875
17.2586
7.99562
8.71651
10.5204
15.315
32.9444
19.5807
7.48514
8.29091
10.171
15.2457
35.6724
21.2938
7.17047
8.05957
10.1076
15.8564
38.8426
21.7699
7.23345
8.29167
10.826
17.7443
43.122
20.2356
6.87728
7.75866
8.99155
11.7096
17.7341
15.6606
6.65021
7.57997
8.70797
10.7884
15.1711
14.876
7.02489
8.06547
9.10384
10.7245
13.9914
14.986
7.74579
9.00612
10.0485
11.3646
13.9611
15.7914
8.73138
10.1175
11.108
12.2818
14.5727
17.0433
9.49967
10.7312
11.6379
12.8883
15.1161
18.5627
9.59801
10.4552
11.2798
12.8175
15.265
20.05
9.00053
9.49927
10.235
12.14
15.6477
21.2344
8.05171
8.39376
9.02824
11.236
16.5686
21.9171
7.20031
7.55733
8.24415
10.5802
17.6276
22.1024
6.67082
7.10526
7.93852
10.3307
18.8314
21.9463
6.50566
7.00455
7.93319
10.445
20.1687
21.4925
6.63998
7.21019
8.25935
11.0504
21.3796
20.6175
7.09091
7.80982
9.08407
12.301
22.8998
19.2713
13.7687
35.1836
16.4713
11.1472
8.85185
7.86092
14.5128
30.0051
15.1779
10.9408
8.93898
8.06561
14.2622
26.2933
14.5537
10.9344
9.18551
8.48798
13.6345
24.371
14.2839
11.0074
9.44655
8.74424
12.6594
24.5185
14.3515
11.1076
9.56913
8.56327
11.3863
26.5506
14.6853
11.0833
9.39119
7.93145
10.298
29.071
15.2949
10.9058
8.89456
7.06837
9.53671
31.7888
15.4734
10.3604
8.13903
6.225
9.08688
34.3765
15.4357
9.69713
7.39926
5.61298
8.90104
37.4502
15.4759
9.11679
6.81769
5.28171
8.90634
40.933
16.385
9.08241
6.61326
5.27635
9.07351
45.446
18.6082
9.93261
6.99156
5.67894
9.43887
49.1913
21.7735
11.7984
8.14608
6.58975
10.125
54.0996
25.7527
14.5967
10.0557
8.02017
17.068
30.3687
14.0026
9.48382
7.66654
6.86115
18.2857
27.6597
13.5396
9.73744
8.07801
7.26852
18.166
25.4542
13.5932
10.202
8.70368
7.9472
17.339
23.6103
13.8025
10.747
9.40698
8.54849
16.1147
22.4348
14.1679
11.4038
10.1134
8.90562
14.8124
22.0026
14.7648
12.0422
10.6226
8.94028
13.6356
21.9046
15.5504
12.5459
10.7835
8.69147
12.7042
22.3704
15.9223
12.5297
10.5321
8.22341
12.1104
23.3904
15.7371
12.0605
9.94547
7.62644
11.941
25.1379
15.2021
11.1955
9.09934
7.03259
12.077
27.6266
15.0701
10.4605
8.37815
6.68908
12.401
32.0027
15.9228
10.2825
8.03166
6.58818
12.9976
37.0151
18.1443
11.0444
8.29562
6.86277
14.0815
45.2746
21.7498
12.8462
9.29295
7.57566
16.041
17.3874
9.78141
7.4529
6.41089
5.77077
17.419
16.1732
9.80376
7.68186
6.65022
5.99099
18.41
14.8826
9.98845
8.15824
7.15474
6.39579
19.1842
13.7655
10.0589
8.71758
7.79508
6.85188
19.8249
12.9159
10.2213
9.37063
8.58244
7.41114
20.2545
12.4588
10.6514
10.1005
9.4074
8.06951
20.3
12.476
11.2941
10.8875
10.2179
8.82342
19.8202
13.11
11.9654
11.5934
10.8994
9.35162
18.9757
14.1823
12.4391
11.983
11.2111
9.37247
17.9889
15.0382
12.4846
11.7564
10.803
8.83697
17.1413
15.6614
12.3181
11.0897
10.0022
8.26976
16.5512
16.9723
12.3219
10.4322
9.23967
7.78623
16.4236
19.4563
12.9172
10.1843
8.79197
7.53264
17.0083
23.6465
14.3048
10.52
8.87098
7.67401
12.8311
33.3212
18.2
12.4201
9.22414
7.57786
13.9395
30.3668
17.2281
11.9397
8.85696
7.21247
13.9883
28.0935
16.3881
11.364
8.30692
6.55105
13.4563
26.814
15.378
10.5032
7.45624
5.55783
12.5816
26.7406
14.0648
9.28348
6.33883
4.44233
11.7533
27.401
12.3332
7.83091
5.21826
3.46986
11.0805
28.429
10.5189
6.48947
4.32003
2.77974
10.6237
29.6694
9.04516
5.48174
3.73883
2.42582
9.99956
31.7551
8.32699
4.94074
3.53168
2.46794
9.51936
34.5935
8.42602
4.86398
3.71178
2.96236
9.29986
36.5468
9.97394
5.45058
4.31605
3.79816
9.34874
38.3345
12.7375
6.91906
5.43663
4.92748
9.62992
38.7649
16.1791
9.32052
7.12848
6.22021
10.1648
40.2902
19.2201
11.9636
9.04485
7.68578
16.0139
32.1091
16.3719
11.1152
8.55071
7.23929
16.6019
30.4904
16.6002
11.5007
8.82695
7.33431
15.9441
28.0614
17.1408
12.0694
9.10983
7.26003
14.78
25.5002
17.3335
12.3708
9.1046
6.83501
13.4634
23.5003
16.8341
12.0772
8.63623
6.12208
12.3663
22.4021
15.4697
11.0893
7.80794
5.30751
11.6823
22.017
13.5743
9.70216
6.84057
4.4574
11.2683
22.1535
11.5135
8.23028
5.83998
3.71675
10.919
22.8474
9.88646
6.94314
5.03826
3.27595
10.7153
24.023
8.93309
6.14197
4.63362
3.29252
10.7671
25.3133
9.1537
5.95591
4.68137
3.72127
11.1641
27.3928
10.3819
6.44017
5.16798
4.47746
11.9877
29.2302
12.8068
7.86482
6.18083
5.39584
13.2976
32.7981
15.7309
9.8841
7.61646
6.53851
16.3537
17.6295
9.91184
7.63384
6.54997
5.86811
18.1642
18.1606
10.7803
8.27468
6.98819
6.13236
19.3194
17.918
12.1329
9.28941
7.65367
6.36897
19.9201
16.7581
13.447
10.4563
8.3879
6.59613
19.9517
15.7941
14.0106
11.3694
9.04912
6.81988
19.3287
15.4597
13.9134
11.8211
9.43138
6.88073
18.2395
15.2686
13.5068
11.6736
9.29011
6.51614
16.8941
14.8136
12.6474
10.8519
8.5604
5.73157
15.3548
14.2658
11.3938
9.52417
7.42079
4.81252
13.8683
13.9048
10.0954
8.18877
6.37943
4.22253
12.8473
13.9828
9.1957
7.26764
5.73182
4.07956
12.4533
14.7891
8.80769
6.79224
5.5322
4.35925
12.7784
16.037
9.23589
6.94507
5.73913
4.76669
13.9005
17.9939
10.4217
7.69511
6.48017
5.55446
5.54004
4.10344
3.42902
2.80918
2.58443
2.8397
3.52468
4.25613
4.6851
4.71881
4.54803
4.56681
4.8739
5.19311
4.88446
3.35208
2.45102
1.70028
1.21364
1.09004
1.37097
1.89759
2.44329
2.84668
3.09404
3.32923
3.59258
3.95865
4.32217
2.95658
1.87651
1.04911
0.539837
0.328986
0.369621
0.600323
0.966834
1.40941
1.86736
2.3286
2.80681
3.4368
4.19454
2.7094
1.40829
0.580338
0.201892
0.0755051
0.0666129
0.138765
0.308719
0.60205
1.00728
1.48488
2.07483
2.93608
4.53193
2.65659
1.0777
0.329832
0.0894778
0.0230199
0.0112705
0.0290122
0.0908959
0.230295
0.485097
0.921411
1.65098
2.88932
5.08051
2.63727
0.877498
0.263497
0.0823978
0.0229877
0.00805226
0.0120626
0.0373476
0.113628
0.309139
0.763792
1.72449
3.37962
5.53936
2.64614
0.842535
0.316244
0.12409
0.0450526
0.0223486
0.0264336
0.0566409
0.150315
0.404469
1.02157
2.26848
4.19022
5.81613
2.69523
1.00303
0.489059
0.242632
0.115069
0.0719554
0.0818183
0.141339
0.301851
0.683448
1.49717
2.91154
4.81046
5.88926
2.88581
1.34577
0.820861
0.500299
0.293208
0.203858
0.218788
0.330562
0.590526
1.10341
2.01477
3.36001
4.98883
5.96799
3.30676
1.90383
1.34702
0.983332
0.689738
0.512964
0.499273
0.65257
0.99571
1.56932
2.42922
3.5577
4.85507
6.08564
3.80756
2.61449
2.06649
1.77106
1.46365
1.18735
1.06294
1.16871
1.51933
2.06672
2.80453
3.71171
4.77151
6.44644
4.59418
3.5293
2.96964
2.85217
2.72687
2.49145
2.22425
2.11929
2.32968
2.75244
3.36115
4.03349
5.01928
6.62275
5.23415
4.40356
3.96716
4.01946
4.27804
4.41601
4.28112
3.95245
3.80357
3.88144
4.2498
4.58786
5.63857
7.58351
6.70313
5.64724
5.0508
5.12503
5.64049
6.25972
6.62657
6.50686
6.07885
5.67431
5.58658
5.49531
6.27456
5.25189
3.60961
2.81423
2.14859
1.84096
1.94682
2.41914
3.01947
3.49073
3.69905
3.67626
3.63662
3.97165
4.67129
4.15054
2.70607
1.84573
1.2059
0.810333
0.690718
0.860869
1.22541
1.65089
2.0279
2.31605
2.58034
2.93424
3.44161
3.454
2.24586
1.28585
0.665115
0.326199
0.190432
0.209449
0.344902
0.578773
0.89271
1.2686
1.70322
2.20083
2.83167
3.44995
2.06946
0.946856
0.349038
0.114115
0.0404085
0.0331852
0.0688716
0.161027
0.33932
0.628888
1.01593
1.51875
2.22691
3.81287
2.06469
0.7476
0.211902
0.0556266
0.0137336
0.00545821
0.0130916
0.0445201
0.124956
0.288802
0.586736
1.10389
2.02102
4.1794
2.05682
0.64682
0.180141
0.0527082
0.0139071
0.00441181
0.00591364
0.0187419
0.0601303
0.17203
0.445491
1.06599
2.26464
4.39965
1.96506
0.635961
0.211894
0.075656
0.0256836
0.0122254
0.0135568
0.0277143
0.0748591
0.212489
0.577198
1.39866
2.83846
4.43967
1.94118
0.737962
0.319535
0.144376
0.0645325
0.0400143
0.0438185
0.0715945
0.152537
0.365352
0.873872
1.87335
3.39775
4.43073
2.09771
0.965963
0.541567
0.303187
0.168331
0.117046
0.124052
0.181485
0.324212
0.636283
1.26425
2.31529
3.72728
4.59647
2.45734
1.35742
0.91787
0.625764
0.415699
0.307262
0.301932
0.393648
0.606817
0.997786
1.65585
2.61452
3.79144
4.91412
2.93583
1.91021
1.48138
1.20056
0.939452
0.742428
0.672477
0.756511
1.00786
1.42336
2.02649
2.8222
3.74203
5.52923
3.72121
2.67798
2.24558
2.08626
1.89077
1.64711
1.44519
1.40484
1.60405
1.98399
2.51977
3.16116
3.93486
6.00566
4.53524
3.57352
3.13128
3.17905
3.2515
3.17697
2.94727
2.67855
2.65208
2.8615
3.31692
3.77454
4.78518
7.57698
6.298
4.70015
4.04237
4.21656
4.63417
4.97076
5.05815
4.79332
4.48403
4.36312
4.59086
4.74283
5.83614
3.94808
2.54237
1.80241
1.24755
0.950744
0.889725
1.08388
1.44205
1.85239
2.19349
2.40495
2.51581
2.74239
3.34605
2.93792
1.7867
1.07936
0.641559
0.398526
0.298977
0.343718
0.502779
0.749194
1.03442
1.32378
1.60774
1.9589
2.43839
2.59238
1.47048
0.71408
0.322494
0.1476
0.0786594
0.0776333
0.126654
0.231299
0.400537
0.644134
0.969752
1.38977
1.8949
2.69672
1.39094
0.534256
0.171484
0.0515133
0.0165856
0.0114954
0.0232918
0.0593595
0.140686
0.296485
0.54788
0.882647
1.34211
2.8115
1.34147
0.448503
0.116823
0.0302712
0.00717806
0.00217384
0.00435791
0.0164097
0.0518156
0.133214
0.287924
0.56444
1.04392
2.86736
1.25194
0.398639
0.105771
0.0294821
0.00739178
0.00209124
0.00232901
0.00736182
0.0247369
0.0733267
0.192433
0.464694
1.03508
2.77465
1.13519
0.382349
0.119794
0.0395038
0.0127172
0.00588538
0.00603668
0.0112146
0.0291413
0.0825615
0.228054
0.581482
1.30958
2.612
1.09495
0.431322
0.172166
0.0715769
0.0311164
0.0197757
0.020887
0.0309862
0.0609472
0.143389
0.356391
0.828799
1.70119
2.5737
1.20363
0.561302
0.289797
0.150283
0.0821949
0.0592997
0.0621819
0.0850626
0.142493
0.275565
0.572467
1.14693
2.08598
2.78026
1.45394
0.805024
0.509867
0.323834
0.20944
0.158262
0.157448
0.199737
0.298252
0.49022
0.85449
1.47237
2.37467
3.15825
1.81335
1.19165
0.885762
0.669196
0.496414
0.387685
0.356814
0.407358
0.546549
0.786288
1.17742
1.76304
2.53832
3.83027
2.43376
1.76397
1.47837
1.2804
1.07092
0.88258
0.768793
0.772864
0.919649
1.18181
1.56897
2.08021
2.71003
4.46114
3.24873
2.51962
2.28016
2.18767
2.03881
1.82207
1.60169
1.46584
1.53013
1.75785
2.14463
2.5914
3.2356
6.18454
4.63052
3.345
3.16522
3.2579
3.3127
3.23531
3.0245
2.73422
2.60149
2.67638
3.04351
3.34635
4.29914
2.45351
1.47007
0.943074
0.598918
0.407574
0.325396
0.355636
0.479957
0.690125
0.946331
1.20236
1.42281
1.67179
2.03255
2.01024
1.03529
0.510888
0.259267
0.146135
0.0995458
0.101529
0.140838
0.223448
0.353254
0.525971
0.737238
1.02767
1.42849
1.86946
0.838738
0.314761
0.112142
0.0446543
0.0223447
0.0204087
0.0307712
0.0571413
0.11082
0.208746
0.373698
0.639801
1.0139
1.82684
0.753432
0.228649
0.061819
0.0167837
0.00482409
0.00274527
0.00493538
0.0129528
0.0347829
0.0867475
0.191572
0.370326
0.645309
1.71379
0.663782
0.194298
0.0504733
0.0132886
0.00303402
0.000702786
0.00090991
0.00360445
0.0129338
0.038693
0.0983292
0.21822
0.430299
1.54996
0.57945
0.17837
0.0490853
0.0131771
0.00307462
0.000740491
0.000592574
0.00181359
0.0066689
0.0218578
0.0622335
0.15818
0.364484
1.35512
0.518123
0.176769
0.0531427
0.0156461
0.0045445
0.00195593
0.00180289
0.00295807
0.00754459
0.0224661
0.0657365
0.178575
0.439229
1.24137
0.525823
0.20147
0.0703657
0.025203
0.0103695
0.00685686
0.00698906
0.00918071
0.0163842
0.038151
0.100707
0.260974
0.616091
1.27929
0.610637
0.259524
0.113707
0.0515114
0.0280918
0.0219424
0.0228811
0.0284988
0.043424
0.08136
0.178999
0.407475
0.867382
1.49636
0.760599
0.384853
0.208944
0.118555
0.076365
0.0618555
0.0628778
0.075538
0.10587
0.170284
0.313192
0.611222
1.15283
1.786
0.989442
0.621008
0.40831
0.276375
0.196672
0.158386
0.151531
0.172404
0.226667
0.326509
0.515839
0.864443
1.43685
2.26813
1.40438
1.03709
0.793825
0.61063
0.469353
0.377712
0.337488
0.353509
0.433349
0.573898
0.802273
1.16258
1.70175
2.8073
2.05063
1.68313
1.44033
1.21669
1.00799
0.832092
0.71627
0.68511
0.766979
0.939806
1.20336
1.54396
2.03327
3.9346
2.94281
2.49003
2.33162
2.14821
1.91749
1.65992
1.42893
1.27906
1.29708
1.46035
1.76222
2.06298
2.58504
1.61275
0.831609
0.43844
0.239072
0.14553
0.103685
0.100758
0.127496
0.191426
0.302135
0.452674
0.623215
0.835162
1.07218
1.39845
0.591835
0.219382
0.0845362
0.0405504
0.0254696
0.0243786
0.0310518
0.0478625
0.0831257
0.145984
0.244552
0.406336
0.66161
1.24559
0.47075
0.128178
0.0335121
0.0104112
0.00456214
0.00394169
0.00549101
0.00950287
0.0196396
0.0444801
0.100166
0.215386
0.422891
1.11003
0.388309
0.0977416
0.021907
0.00536499
0.0013002
0.000481957
0.000639012
0.00166659
0.00526616
0.016696
0.0475896
0.117511
0.249012
0.924907
0.306623
0.084025
0.0212046
0.00543932
0.0011795
0.000215283
0.000111704
0.000450397
0.00203678
0.00776586
0.0246983
0.0659565
0.149671
0.736416
0.245813
0.0763249
0.0210824
0.00538459
0.00118442
0.000249653
0.000123261
0.000298921
0.00122868
0.00475273
0.015668
0.0444685
0.110771
0.594102
0.219043
0.0761363
0.0217003
0.00579615
0.00152791
0.000602648
0.000492322
0.000643382
0.00145527
0.00458343
0.0147958
0.0440363
0.119507
0.554863
0.233512
0.0857363
0.026332
0.00824346
0.00318912
0.00216481
0.0021311
0.00241336
0.00357508
0.00767332
0.0212869
0.0620566
0.171332
0.619442
0.281949
0.107439
0.0400775
0.0160081
0.00882605
0.0074016
0.00760538
0.00849978
0.0111474
0.0187116
0.0417753
0.10792
0.275368
0.772205
0.358277
0.16198
0.0757771
0.0387067
0.0255234
0.0221783
0.0226593
0.025328
0.0320063
0.0473528
0.0878066
0.193153
0.435049
0.949469
0.504795
0.286463
0.164921
0.100193
0.0705118
0.0593841
0.0585237
0.0647534
0.0803091
0.110094
0.176072
0.328987
0.647561
1.25304
0.803609
0.547921
0.372017
0.253277
0.183096
0.147045
0.136094
0.14548
0.176704
0.230519
0.328981
0.524945
0.897873
1.70697
1.30437
1.02473
0.789022
0.588992
0.440082
0.343156
0.295341
0.295939
0.346254
0.435736
0.574359
0.798183
1.18862
2.44663
2.04635
1.75045
1.50334
1.22703
0.967928
0.757573
0.61684
0.563037
0.614205
0.744844
0.938201
1.16683
1.52828
1.05238
0.459006
0.18329
0.0760924
0.0391862
0.0261365
0.0248764
0.0304088
0.0449174
0.0762629
0.133193
0.220548
0.348076
0.501294
0.890789
0.318568
0.0836929
0.021527
0.00757516
0.00439691
0.00452339
0.00606328
0.00913075
0.0159944
0.0315415
0.0635338
0.126788
0.246918
0.730306
0.23043
0.0460328
0.00818654
0.00176982
0.000612784
0.000543787
0.000838479
0.00144466
0.00296058
0.00753098
0.0209064
0.05658
0.140351
0.589411
0.171389
0.0355101
0.00683935
0.00152228
0.000314837
7.81071e-05
7.44766e-05
0.000192786
0.000679202
0.00260322
0.00927055
0.0287974
0.0765778
0.436267
0.123918
0.0307445
0.00731894
0.00172532
0.00034091
5.51092e-05
1.51152e-05
4.92645e-05
0.000261534
0.00121212
0.00469581
0.0152748
0.0420345
0.313526
0.095114
0.0279541
0.00718572
0.00167163
0.000334635
6.33671e-05
2.34822e-05
3.91714e-05
0.000164763
0.000754481
0.00297564
0.00996618
0.0288156
0.245834
0.0861782
0.0275958
0.0070423
0.00165793
0.000386102
0.00014271
0.000111282
0.000120371
0.000219167
0.000700093
0.00259377
0.00897571
0.0280396
0.242252
0.0945585
0.030376
0.00798054
0.00212397
0.000759536
0.000541047
0.000533964
0.000551267
0.000686158
0.00127583
0.00362865
0.0120642
0.0393294
0.287637
0.11505
0.0371346
0.0115436
0.00397732
0.00223142
0.00203201
0.00210409
0.00220713
0.00259346
0.00381437
0.00813529
0.0231376
0.0705544
0.370396
0.149504
0.057678
0.0226879
0.0104314
0.00715705
0.00669816
0.00692841
0.00740295
0.00872838
0.0118826
0.021166
0.0503697
0.134951
0.477771
0.231023
0.113238
0.0566501
0.0313181
0.0220799
0.0195659
0.0196959
0.0212751
0.0253931
0.0333919
0.0526573
0.106248
0.246603
0.703788
0.424512
0.257132
0.154529
0.0940955
0.0645341
0.0523828
0.0498735
0.0534533
0.0643519
0.0829988
0.119574
0.206375
0.412772
1.09171
0.80024
0.5708
0.393797
0.259748
0.176856
0.132371
0.116026
0.119786
0.14377
0.183513
0.248085
0.371593
0.635264
1.70445
1.41302
1.12432
0.872291
0.631938
0.446502
0.320739
0.256281
0.243849
0.283607
0.360624
0.470988
0.625524
0.900431
0.636008
0.231506
0.0691076
0.0202633
0.00822109
0.00519709
0.00506575
0.00632034
0.00920834
0.0156557
0.0296586
0.0574028
0.107748
0.191249
0.495812
0.150963
0.029181
0.00484079
0.00113175
0.00058295
0.000644112
0.000952139
0.00147448
0.00252415
0.00520296
0.0121468
0.0294312
0.0737834
0.360991
0.093454
0.0152186
0.00197084
0.00032772
7.93148e-05
5.71369e-05
9.42437e-05
0.000175688
0.000358281
0.000984388
0.0033378
0.0115164
0.0371762
0.255629
0.0621627
0.011582
0.00201882
0.000405508
7.16748e-05
1.21694e-05
6.59437e-06
1.59567e-05
6.34819e-05
0.00030175
0.00137642
0.00550949
0.0189105
0.169488
0.0429279
0.0101389
0.00223664
0.000459805
7.85414e-05
1.08606e-05
1.72607e-06
3.50791e-06
2.21758e-05
0.000130325
0.000646119
0.00269322
0.00944351
0.117159
0.0336776
0.00934972
0.00217641
0.000429201
7.32757e-05
1.16636e-05
3.30838e-06
3.73103e-06
1.47218e-05
8.15014e-05
0.000405056
0.00170733
0.00613986
0.0967728
0.0322186
0.009366
0.00211089
0.000408306
7.89763e-05
2.50308e-05
1.81546e-05
1.76945e-05
2.67684e-05
8.3129e-05
0.000360082
0.00151947
0.00576462
0.103031
0.0365567
0.010434
0.00229069
0.000498982
0.00015277
0.000104729
0.000100544
9.94647e-05
0.000115472
0.000193387
0.000550315
0.00208291
0.00806434
0.127503
0.0446966
0.0126107
0.00316575
0.000917744
0.000490647
0.000451935
0.000459647
0.00046797
0.000534866
0.000737754
0.00146309
0.00435975
0.0154401
0.166016
0.0588666
0.0190462
0.00625829
0.00255488
0.00177726
0.0017114
0.00175857
0.00183917
0.00214289
0.00281618
0.00467061
0.0112187
0.0343343
0.224707
0.0963659
0.0404201
0.0171512
0.00858815
0.00614386
0.00567645
0.00577509
0.0061728
0.00735411
0.00951745
0.0142705
0.0289925
0.0762911
0.371819
0.202887
0.106156
0.0546411
0.029607
0.0199317
0.0169364
0.0166719
0.0179703
0.0218033
0.0281025
0.0394117
0.0693546
0.15772
0.661132
0.443115
0.277424
0.165245
0.0953636
0.0607485
0.0466708
0.043218
0.046
0.0563994
0.0730477
0.0981892
0.151397
0.292893
1.14999
0.883664
0.637914
0.433719
0.273502
0.173382
0.121831
0.102887
0.10415
0.126684
0.166455
0.22046
0.302948
0.481785
0.00114281
0.00158756
0.00249479
0.00477498
0.0103054
0.0232854
0.0531758
0.000123852
0.000187316
0.000294503
0.000605544
0.0016492
0.00517089
0.0176485
8.20439e-06
1.49912e-05
3.00957e-05
9.64591e-05
0.000434873
0.00200071
0.00843071
4.75561e-07
9.19904e-07
4.31314e-06
2.80829e-05
0.00017238
0.000909884
0.0040099
1.85437e-07
1.95494e-07
1.43176e-06
1.11398e-05
7.33001e-05
0.000400859
0.00181618
4.69492e-07
3.97417e-07
9.7788e-07
5.95522e-06
3.92926e-05
0.000222162
0.00105478
3.03212e-06
2.95793e-06
3.42241e-06
7.16004e-06
3.25641e-05
0.000180043
0.000914842
1.92668e-05
1.96667e-05
2.13788e-05
2.79814e-05
6.26897e-05
0.000257089
0.00126729
0.0507579
0.0152776
0.00366505
0.000740438
0.000182737
9.64443e-05
9.4228e-05
0.000101371
0.00010609
0.00011743
0.000143199
0.000228926
0.000629644
0.00258176
0.0658453
0.0198183
0.00516103
0.0013843
0.000527751
0.0003966
0.000410965
0.000446104
0.000476741
0.000540642
0.000655284
0.000926319
0.00198319
0.00663089
0.0918841
0.0325237
0.0110638
0.00392897
0.00193552
0.0015383
0.00155168
0.00167476
0.00182414
0.00212055
0.00258869
0.00345337
0.00633339
0.0178501
0.166729
0.0772653
0.033149
0.0142943
0.0074049
0.00548072
0.00517386
0.00546597
0.00602497
0.00716647
0.00887745
0.0114946
0.0187511
0.0455795
0.344497
0.200442
0.104416
0.0517744
0.0269641
0.0180396
0.0155314
0.0157439
0.0173709
0.021065
0.0266906
0.0342979
0.0507107
0.104945
0.685401
0.470943
0.289281
0.164584
0.089681
0.0554927
0.0429351
0.0405471
0.0437864
0.0535478
0.0699096
0.0913407
0.125277
0.212579
5.99492
7.22366
8.36472
9.78176
11.2836
10.5512
4.91021
6.3493
7.75214
9.33037
11.0931
10.8998
4.57191
6.24796
7.8086
9.45087
11.4297
11.6767
4.44384
6.54394
8.33288
10.1328
12.3856
13.0477
4.75449
7.27457
9.31072
11.377
13.9429
15.0656
5.51988
8.35365
10.6711
13.0624
15.8824
17.6166
6.4615
9.32339
11.8579
14.531
17.4069
19.1358
7.05254
9.67857
12.3345
15.2338
18.1696
20.0418
7.07801
9.384
11.9432
14.9337
18.0264
20.227
6.61429
8.54599
10.7989
13.7718
17.0329
19.0508
5.96487
7.45257
9.20401
11.9175
15.371
16.7003
5.4654
6.47722
7.63786
9.79321
13.3965
14.5152
5.33275
5.9673
6.79096
8.33419
11.331
12.417
5.34796
5.88969
6.58081
7.7812
9.96044
10.3395
6.03695
7.3727
8.22671
8.30397
7.53261
6.46987
4.4623
5.88431
6.96696
7.38399
7.01971
6.38323
3.89189
5.38923
6.52625
6.97691
6.76588
6.38315
3.51468
5.28202
6.54896
7.00669
6.91613
6.71421
3.56786
5.6561
6.98576
7.43886
7.48358
7.44222
4.0628
6.34605
7.66435
8.1405
8.31947
8.44518
4.7476
6.96804
8.23255
8.81143
9.13466
9.40982
5.31245
7.26512
8.48448
9.17111
9.56245
9.91104
5.53452
7.184
8.32386
9.00675
9.4173
9.74902
5.40409
6.77376
7.79079
8.48489
8.97416
9.18445
5.03703
6.1691
7.09494
7.85125
8.4031
8.48678
4.67571
5.57493
6.36991
7.13968
7.64016
7.58939
4.62462
5.26144
5.93536
6.64249
6.93577
6.67011
4.81289
5.42636
5.97993
6.31912
6.29746
5.89197
4.98576
6.4578
7.69287
7.87292
7.26055
6.24288
3.37505
4.70031
5.91192
6.63521
6.45232
5.8649
2.70836
3.94813
5.1365
5.93367
5.8968
5.55736
2.17451
3.49733
4.81714
5.66911
5.68017
5.49309
1.95831
3.51109
4.98641
5.81118
5.85557
5.75461
2.09458
3.89639
5.43713
6.19694
6.29524
6.28863
2.50891
4.41114
5.89255
6.59493
6.75808
6.84018
3.01196
4.84788
6.19009
6.82927
6.99603
7.06118
3.42452
5.04519
6.20205
6.71456
6.77916
6.75294
3.63687
4.98014
5.91652
6.28242
6.28399
6.16523
3.64077
4.72602
5.50719
5.8582
5.94211
5.74168
3.55809
4.45121
5.1624
5.62006
5.84941
5.58344
3.57152
4.26648
4.9732
5.64022
5.90813
5.50331
3.67861
4.39748
5.11163
5.66652
5.70463
5.21439
3.28095
4.39728
5.61709
6.4392
6.79321
6.4484
2.17021
3.14825
4.20692
5.1981
5.74884
5.79378
1.64967
2.51803
3.49787
4.48813
5.05044
5.23669
1.18367
1.98335
2.9761