/*--------------------------------*- C++ -*----------------------------------*\
| =========                 |                                                 |
| \\      /  F ield         | OpenFOAM: The Open Source CFD Toolbox           |
|  \\    /   O peration     | Version:  v2106                                 |
|   \\  /    A nd           | Website:  www.openfoam.com                      |
|    \\/     M anipulation  |                                                 |
\*---------------------------------------------------------------------------*/
FoamFile
{
    version     2.0;
    format      ascii;
    arch        "LSB;label=32;scalar=64";
    class       volScalarField;
    location    "0.000154";
    object      Ttot;
}
// * * * * * * * * * * * * * * * * * * * * * * * * * * * * * * * * * * * * * //

dimensions      [0 0 0 1 0 0 0];

internalField   nonuniform List<scalar> 
18273
(
297.765
298.055
298.734
299.453
300.219
300.676
300.9
300.948
300.889
300.693
300.222
299.694
299.385
299.685
296.618
297.249
297.952
298.861
299.636
300.166
300.475
300.647
300.682
300.713
300.475
300.039
299.694
299.732
296.384
297.217
298.02
298.899
299.487
299.874
300.102
300.26
300.331
300.384
300.332
300.155
300.077
300.402
296.483
297.497
298.384
299.083
299.466
299.686
299.847
299.995
300.095
300.208
300.284
300.344
300.455
300.895
297.06
298.078
298.82
299.233
299.456
299.555
299.671
299.794
299.911
300.06
300.235
300.473
300.805
301.328
297.827
298.672
299.187
299.376
299.475
299.497
299.575
299.685
299.826
300.027
300.272
300.577
301.048
301.462
298.591
299.148
299.396
299.452
299.491
299.477
299.537
299.644
299.805
300.025
300.337
300.692
301.198
301.497
299.188
299.364
299.417
299.409
299.429
299.447
299.535
299.653
299.821
300.039
300.374
300.716
301.222
301.333
299.576
299.393
299.21
299.161
299.24
299.401
299.601
299.781
299.963
300.125
300.408
300.588
300.974
300.846
299.749
299.064
298.597
298.543
298.779
299.124
299.493
299.792
300.02
300.101
300.292
300.273
300.453
300.141
299.712
298.576
297.805
297.638
298.032
298.582
299.214
299.701
300.02
300.094
300.178
300.001
299.996
299.53
299.712
298.013
296.888
296.516
296.983
297.711
298.636
299.39
299.892
300.062
300.111
299.931
299.901
299.485
299.558
297.889
296.523
295.837
296.099
296.817
297.913
298.939
299.694
300.134
300.321
300.247
300.129
299.926
299.63
297.761
296.222
295.365
295.411
295.993
297.053
298.241
299.297
300.142
300.644
300.912
300.806
300.893
298.917
298.998
299.29
299.887
300.445
300.738
300.698
300.406
299.858
299.168
298.592
298.318
298.503
299.762
296.923
297.593
298.077
299.028
299.762
300.248
300.409
300.378
300.186
299.831
299.442
299.21
299.216
299.894
295.934
297.021
297.791
298.793
299.453
299.882
300.069
300.084
300.046
299.922
299.727
299.583
299.69
300.47
295.45
296.828
297.89
298.82
299.33
299.627
299.773
299.825
299.883
299.933
299.962
300.019
300.232
300.876
295.586
297.114
298.189
298.912
299.29
299.455
299.544
299.6
299.693
299.819
299.991
300.237
300.609
301.153
296.061
297.579
298.556
299.023
299.285
299.358
299.41
299.449
299.555
299.729
299.981
300.256
300.624
301.003
296.793
298.104
298.78
299.073
299.274
299.319
299.367
299.397
299.475
299.64
299.923
300.22
300.568
300.737
297.517
298.424
298.812
298.98
299.151
299.209
299.265
299.317
299.391
299.529
299.758
299.967
300.14
299.892
298.128
298.539
298.623
298.698
298.902
299.116
299.254
299.373
299.452
299.516
299.611
299.609
299.541
298.895
298.548
298.286
298.004
297.986
298.274
298.689
299.031
299.273
299.377
299.367
299.333
299.091
298.892
298.074
298.949
298.01
297.294
297.024
297.323
297.909
298.513
299.01
299.247
299.215
299.094
298.692
298.468
297.692
299.262
297.528
296.325
295.747
295.981
296.621
297.51
298.336
298.876
299.029
298.994
298.689
298.652
298.032
299.748
297.821
296.111
294.911
294.721
295.165
296.096
297.239
298.303
298.939
299.231
299.184
299.337
299.125
300.294
297.778
295.598
294.109
293.569
293.722
294.495
295.692
297.146
298.434
299.41
300.075
300.431
300.845
298.515
298.762
299.211
299.878
300.08
300.053
299.868
299.339
298.501
297.617
296.928
296.871
297.356
299.251
295.826
296.939
297.832
298.848
299.322
299.477
299.492
299.362
298.965
298.579
298.222
298.247
298.494
299.627
294.554
296.307
297.451
298.411
298.846
299.032
299.106
299.154
298.963
298.825
298.676
298.672
299.089
300.175
293.866
295.983
297.388
298.218
298.601
298.741
298.801
298.867
298.821
298.849
298.899
299.157
299.599
300.471
293.931
296.153
297.529
298.217
298.452
298.545
298.608
298.637
298.715
298.808
298.963
299.212
299.763
300.487
294.316
296.533
297.737
298.214
298.343
298.374
298.448
298.466
298.553
298.662
298.879
299.166
299.616
300.169
295.132
297.065
297.952
298.264
298.302
298.305
298.399
298.415
298.486
298.593
298.786
299.029
299.372
299.713
296.116
297.509
298.008
298.147
298.16
298.155
298.253
298.279
298.343
298.432
298.56
298.71
298.821
298.677
297.087
297.835
297.905
297.907
297.938
298.014
298.146
298.219
298.289
298.353
298.39
298.386
298.159
297.471
297.806
297.752
297.505
297.376
297.453
297.695
297.921
298.1
298.182
298.194
298.093
297.893
297.515
296.446
298.348
297.48
296.787
296.489
296.591
296.973
297.447
297.825
298.043
298.079
297.918
297.536
297.244
296.051
298.533
296.748
295.593
295.002
295.119
295.642
296.425
297.183
297.69
297.949
297.945
297.562
297.627
296.49
299.062
296.773
295.033
293.631
293.336
293.703
294.66
295.9
297.016
297.776
298.229
298.173
298.463
297.865
299.423
296.182
293.715
291.82
291.135
291.425
292.483
294.051
295.787
297.273
298.464
299.294
299.863
300.095
299.906
300.311
300.179
299.837
299.117
296.963
299.764
300.453
300.85
300.605
299.835
297.547
300.887
301.624
302.066
301.737
300.586
297.969
301.529
302.151
302.601
302.159
300.846
298.215
302.095
302.544
302.925
302.389
300.995
298.433
302.212
302.417
302.689
302.076
300.795
298.518
302.122
302.073
302.216
301.523
300.392
298.452
301.75
301.439
301.393
300.651
299.731
298.238
301.058
300.635
300.571
299.9
299.242
298.068
300.307
299.973
299.965
299.422
299.046
297.961
299.757
299.652
299.756
299.414
299.119
297.89
299.903
300.012
300.124
299.807
299.37
297.85
300.349
300.579
300.586
300.219
299.662
297.888
301.01
301.287
301.194
300.764
300.027
298.045
301.156
302.221
302.956
303.272
302.887
299.83
300.446
301.867
303.09
303.53
303.338
300.316
301.436
302.793
304.02
304.23
303.537
300.125
301.762
302.698
303.658
303.623
302.819
299.601
302.007
302.495
302.935
302.443
301.637
298.75
301.549
301.397
301.305
300.437
299.664
297.229
300.834
299.98
299.486
298.45
297.883
296.182
299.554
298.499
298.093
297.316
296.961
296.022
298.51
297.658
297.602
297.066
296.991
296.434
297.906
297.513
297.729
297.598
297.952
297.205
297.943
298.095
298.773
299.107
299.398
298.271
298.793
299.293
300.188
300.788
300.909
299.223
300.173
300.884
301.789
302.264
302.108
299.847
301.377
302.217
302.847
303.048
302.667
300.073
301.419
302.954
304.73
305.973
306.811
304.251
300.486
302.294
304.397
305.685
306.59
303.927
301.412
303.066
305.089
305.864
306.161
302.967
301.588
302.869
304.391
304.569
304.637
301.013
301.461
302.187
302.851
302.43
302.35
298.494
300.748
300.901
300.765
299.778
299.587
295.41
299.696
298.879
298.186
297.086
297.035
292.926
298.033
296.621
295.918
295.004
295.207
292.149
296.627
295.141
294.819
294.176
294.628
292.794
295.82
294.617
294.725
294.767
295.612
294.974
295.856
295.295
296.07
297.16
298.505
298.208
296.813
297.016
298.314
300.18
301.682
301.225
298.897
299.416
301.02
302.957
304.227
303.229
300.476
301.498
303.237
304.563
305.434
303.621
301.494
301.678
301.281
300.671
299.759
297.719
301.178
301.658
301.541
300.916
299.867
297.788
301.339
301.543
301.492
300.894
299.864
297.742
300.85
300.878
300.931
300.494
299.648
297.708
300.1
299.942
300.091
299.865
299.226
297.615
298.942
298.686
298.852
298.934
298.614
297.328
297.666
297.502
297.799
298.201
298.195
297.187
296.495
296.54
297.043
297.741
298.029
297.111
295.708
296.064
296.783
297.722
298.149
297.148
295.522
296.204
297.122
298.166
298.499
297.319
295.969
296.909
297.965
298.952
299.191
297.698
297.139
298.175
299.234
300.063
300.044
298.149
298.651
299.576
300.457
301.059
300.776
298.585
300.048
300.868
301.375
301.593
300.9
298.371
302.138
302.793
302.984
302.705
302.007
299.134
300.805
301.59
301.969
301.78
301.146
298.423
300.364
300.524
300.571
300.095
299.509
296.915
299.057
298.576
298.269
297.868
297.467
295.483
297.46
296.664
296.357
296.274
296.092
294.817
295.746
294.956
294.852
295.355
295.496
295.119
294.361
293.917
294.214
295.326
295.852
296.1
293.43
293.329
294.143
295.822
296.887
297.074
293.035
293.497
294.885
297.109
298.276
298.324
293.487
294.489
296.316
298.828
299.965
299.823
294.857
296.348
298.442
300.935
301.903
301.201
296.966
298.726
300.783
302.834
303.443
302.013
299.396
300.968
302.663
304.138
304.387
302.202
301.088
302.505
303.65
304.526
304.314
301.288
302.144
303.278
304.222
304.608
304.831
301.879
300.262
301.299
302.185
302.395
302.526
299.781
299.614
299.811
300.048
299.628
299.525
296.577
298.014
297.168
296.557
295.893
295.944
293.656
295.927
294.388
293.474
292.961
293.215
291.663
293.674
291.718
291.007
291.285
291.832
291.506
291.569
289.894
289.85
290.908
291.683
292.966
290.217
289.043
289.842
291.942
293.785
295.958
289.736
289.249
290.839
294.09
296.959
299.987
290.2
290.436
292.467
296.506
300.012
303.822
291.922
292.853
295.24
299.546
303.039
306.648
294.692
296.049
298.616
302.552
305.521
307.759
297.837
299.326
301.7
304.767
306.898
307.601
299.979
301.6
303.591
305.523
306.969
305.531
298.208
300.511
300.862
299.848
298.855
297.825
298.127
299.75
299.57
298.353
297.474
296.791
297.762
298.884
298.379
297.109
296.429
296.04
297.302
298.069
297.462
296.309
295.893
295.795
296.962
297.545
296.943
295.96
295.877
296.088
296.814
297.391
296.922
296.097
296.233
296.741
296.783
297.386
297.142
296.531
296.943
297.626
296.911
297.711
297.742
297.368
297.92
298.512
297.029
298.226
298.502
298.358
298.882
299.329
297.295
298.936
299.497
299.579
299.864
299.978
297.403
299.44
300.189
300.411
300.419
300.102
297.493
299.91
300.941
301.28
301.194
300.512
297.577
300.19
301.278
301.531
301.138
300.167
297.712
300.323
301.416
301.659
301.533
300.767
302.762
305.193
304.83
302.919
301.031
299.342
302.952
304.005
303.038
300.628
298.833
297.623
302.154
302.192
300.922
298.361
296.767
295.898
300.772
300.283
298.858
296.386
295.171
294.831
299.215
298.383
296.983
294.796
294.161
294.352
297.829
296.919
295.69
293.899
293.77
294.481
296.731
295.769
294.77
293.518
293.912
295.094
295.855
295.014
294.535
293.768
294.553
295.905
295.017
294.817
294.716
294.467
295.551
296.973
294.638
295.556
295.743
295.959
297.021
298.121
295.072
296.903
297.281
297.772
298.523
298.916
296.333
299.05
299.715
300.207
300.396
299.963
297.959
301.03
301.73
301.773
301.339
300.257
299.364
302.694
303.546
303.58
303.145
301.989
309.302
309.212
306.97
303.445
300.522
298.665
309.488
306.998
303.832
299.889
297.559
296.657
308.061
304.209
300.313
296.302
294.531
294.185
305.428
301.188
297.217
293.339
292.167
292.54
302
298.023
294.473
291.166
290.536
291.715
298.224
295.069
292.383
289.868
289.75
291.654
294.736
292.374
290.653
289.056
289.644
292.207
292.161
290.582
289.853
289.174
290.443
293.376
290.899
290.429
290.111
290.242
292.075
294.986
290.769
291.66
291.529
292.456
294.358
296.651
292.134
293.909
294.028
295.276
296.759
297.975
294.794
297.591
297.915
298.885
299.358
299.268
298.304
301.154
301.241
301.322
300.79
299.612
301.527
304.801
304.696
304.32
303.392
301.829
296.896
298.727
299.155
299.415
299.471
299.323
296.657
298.222
298.591
298.982
299.186
299.266
296.776
298.026
298.333
298.745
299.083
299.472
297.109
298.094
298.45
299.037
299.48
300.026
297.461
298.322
298.931
299.676
300.154
300.671
297.87
298.889
299.747
300.53
300.896
301.188
298.179
299.662
300.727
301.441
301.493
301.432
298.596
300.664
301.773
302.239
301.939
301.573
298.862
301.298
302.424
302.634
302.055
301.425
299.083
301.926
303.051
303.024
302.128
301.086
298.995
301.971
302.936
302.623
301.508
300.2
298.762
301.984
302.929
302.381
301.106
299.531
298.443
301.405
302.16
301.382
299.988
298.439
297.75
300.624
301.731
301.241
300.429
299.12
299.823
302.235
302.23
301.519
300.57
299.722
298.971
300.747
300.511
299.694
299.057
298.737
297.997
299.019
298.678
298.084
297.849
298.057
297.046
297.523
297.251
297.1
297.335
298.042
296.294
296.254
296.242
296.687
297.349
298.421
295.721
295.724
296.18
296.959
297.871
299.19
295.292
296.043
296.722
297.834
298.888
300.187
295.583
297.264
298.095
299.408
300.274
300.988
296.799
299.258
300.301
301.394
301.599
301.443
298.745
301.792
302.774
303.163
302.414
301.399
300.187
303.553
304.271
303.939
302.519
300.972
301.151
304.968
305.561
304.748
302.84
300.706
301.734
305.169
305.309
303.998
301.987
299.873
301.702
305.178
305.725
304.692
303.189
301.159
304.494
305.581
304.04
301.867
299.888
298.926
302.588
302.643
300.703
298.526
297.496
297.594
299.396
298.876
297.266
295.741
295.411
296.143
296.06
295.346
294.395
293.838
294.257
295.817
292.57
292.861
292.503
292.969
294.053
296.236
290.609
292.463
292.321
293.388
294.847
297.298
290.3
293.211
293.368
294.939
296.673
298.7
291.521
295.363
295.945
297.731
299.029
300.025
294.559
298.567
299.185
300.582
300.889
300.788
298.203
302.068
302.374
303.059
302.359
301.269
301.504
304.999
304.97
304.692
302.925
301.223
304.236
307.432
306.982
305.85
303.262
300.895
306.404
308.81
307.375
305.32
302.543
299.972
307.501
309.917
308.601
306.557
304.103
301.478
298.387
299.3
299.811
300.525
300.705
300.756
300.418
299.748
298.717
297.683
296.882
296.63
296.958
298.926
295.466
297.32
298.442
299.484
299.876
300.051
299.935
299.774
299.307
298.77
298.386
298.301
298.585
299.853
294.286
296.725
297.959
298.942
299.315
299.483
299.476
299.494
299.292
299.002
298.85
298.985
299.348
300.423
293.582
296.229
297.83
298.688
299.022
299.128
299.135
299.176
299.089
299.04
299.085
299.334
299.83
300.822
293.594
296.373
297.938
298.671
298.854
298.913
298.948
298.906
298.925
298.954
299.1
299.413
299.957
300.778
294.17
296.792
298.108
298.645
298.721
298.703
298.742
298.73
298.751
298.81
298.986
299.336
299.857
300.575
295.154
297.334
298.288
298.595
298.631
298.566
298.606
298.571
298.617
298.698
298.899
299.264
299.609
300.001
296.246
297.788
298.339
298.483
298.451
298.403
298.435
298.399
298.46
298.528
298.684
298.899
299.065
298.989
297.195
298.051
298.203
298.195
298.211
298.235
298.294
298.248
298.304
298.354
298.459
298.512
298.318
297.73
297.883
298.067
297.85
297.707
297.782
297.974
298.119
298.164
298.206
298.205
298.18
298.01
297.601
296.574
298.28
297.649
297.123
296.825
297.022
297.404
297.79
297.996
298.082
298.079
298.006
297.692
297.21
295.804
298.197
296.764
295.875
295.426
295.579
296.126
296.868
297.513
297.817
297.987
297.959
297.654
297.352
295.842
298.676
296.357
294.778
293.595
293.422
293.942
295.081
296.329
297.28
297.894
298.195
298.069
298.078
296.861
298.609
294.922
292.559
291.056
290.663
291.153
292.43
294.254
296.023
297.441
298.458
299.045
299.432
299.438
296.346
298.143
299.222
300.11
300.427
300.415
300.092
299.519
298.458
297.179
296.075
295.413
295.411
296.661
294.406
296.864
298.448
299.486
299.906
299.954
299.789
299.586
299.107
298.44
297.896
297.588
297.551
298.311
293.997
296.706
298.294
299.165
299.509
299.561
299.507
299.445
299.225
298.913
298.678
298.64
298.796
299.492
293.915
296.743
298.307
299.073
299.262
299.269
299.216
299.177
299.083
299.014
299.036
299.181
299.539
300.094
294.226
297.044
298.46
298.998
299.085
299.06
299.034
298.992
298.953
298.948
299.05
299.262
299.688
300.302
295.037
297.456
298.574
298.934
298.935
298.857
298.841
298.807
298.814
298.842
298.97
299.223
299.586
300.076
296.038
297.882
298.627
298.815
298.816
298.714
298.695
298.648
298.667
298.709
298.852
299.096
299.364
299.597
296.977
298.179
298.587
298.646
298.635
298.549
298.539
298.485
298.521
298.555
298.664
298.78
298.824
298.647
297.641
298.284
298.416
298.411
298.411
298.406
298.414
298.341
298.362
298.371
298.418
298.355
298.023
297.203
297.87
298.001
297.925
297.927
298.046
298.194
298.269
298.255
298.235
298.196
298.12
297.807
297.128
295.826
297.704
297.247
297.018
297.037
297.374
297.748
298.031
298.097
298.099
298.046
297.876
297.364
296.442
294.877
296.923
295.94
295.574
295.611
296.079
296.717
297.387
297.83
297.948
297.953
297.782
297.189
296.15
294.537
296.542
294.642
293.842
293.504
293.942
294.83
296.024
297.056
297.642
297.885
297.84
297.269
296.44
294.857
295.601
292.583
291.259
290.704
290.97
291.948
293.594
295.39
296.78
297.629
297.954
297.835
297.462
296.718
295.685
297.995
299.343
300.161
300.491
300.483
300.318
299.965
299.361
298.481
297.613
296.814
296.508
296.948
295.032
297.531
299.101
299.942
300.202
300.21
300.106
299.945
299.686
299.265
298.87
298.533
298.436
298.59
295.093
297.73
299.085
299.774
299.94
299.969
299.931
299.861
299.765
299.572
299.456
299.387
299.459
299.768
295.499
297.993
299.159
299.668
299.758
299.745
299.709
299.674
299.628
299.617
299.63
299.702
299.916
300.287
296.142
298.29
299.251
299.56
299.599
299.574
299.547
299.525
299.518
299.537
299.6
299.746
299.993
300.395
296.937
298.553
299.249
299.433
299.446
299.402
299.385
299.367
299.384
299.423
299.52
299.697
299.912
300.277
297.662
298.74
299.202
299.268
299.313
299.266
299.251
299.223
299.247
299.282
299.389
299.555
299.732
300.002
298.206
298.831
299.051
299.096
299.144
299.111
299.106
299.075
299.107
299.142
299.237
299.342
299.406
299.331
298.499
298.793
298.883
298.905
298.958
298.968
298.981
298.942
298.96
298.973
299.028
299.021
298.864
298.36
298.445
298.508
298.506
298.574
298.676
298.793
298.835
298.814
298.813
298.815
298.799
298.635
298.2
297.241
297.97
297.792
297.76
297.978
298.24
298.514
298.675
298.672
298.663
298.651
298.579
298.24
297.585
296.33
296.909
296.476
296.508
296.809
297.32
297.853
298.286
298.498
298.547
298.562
298.475
298.019
297.154
295.665
295.796
294.739
294.709
294.976
295.693
296.583
297.504
298.16
298.422
298.546
298.474
298.003
296.991
295.5
293.942
292.253
292.034
292.285
293.106
294.423
295.958
297.285
298.057
298.434
298.469
298.139
297.418
296.242
296.271
298.401
299.575
300.306
300.582
300.614
300.556
300.376
300.102
299.637
299.135
298.533
298.091
297.852
296.33
298.664
299.728
300.315
300.425
300.427
300.366
300.263
300.117
299.903
299.713
299.542
299.403
299.197
296.73
298.98
299.839
300.215
300.251
300.233
300.187
300.131
300.067
299.963
299.925
299.928
299.973
300.028
297.444
299.216
299.864
300.089
300.087
300.044
299.995
299.954
299.936
299.942
299.984
300.066
300.218
300.401
298.06
299.349
299.808
299.925
299.91
299.878
299.846
299.82
299.821
299.85
299.923
300.043
300.211
300.446
298.574
299.387
299.688
299.748
299.738
299.71
299.697
299.683
299.698
299.736
299.827
299.975
300.132
300.397
298.897
299.365
299.554
299.575
299.596
299.577
299.566
299.55
299.568
299.602
299.696
299.838
300.004
300.257
299.047
299.3
299.386
299.411
299.448
299.432
299.424
299.407
299.435
299.473
299.568
299.682
299.803
299.911
299.022
299.15
299.234
299.265
299.308
299.299
299.292
299.271
299.295
299.334
299.417
299.475
299.555
299.45
298.784
298.876
298.984
299.06
299.125
299.155
299.153
299.136
299.167
299.209
299.261
299.261
299.132
298.714
298.145
298.289
298.522
298.732
298.886
298.996
299.026
299.025
299.05
299.075
299.099
298.989
298.662
297.928
297.055
297.196
297.564
298.018
298.401
298.708
298.883
298.958
298.988
298.994
298.973
298.735
298.169
297.084
295.685
295.444
295.994
296.721
297.401
298.047
298.547
298.805
298.912
298.944
298.903
298.576
297.876
296.595
293.418
293.074
293.527
294.452
295.604
296.812
297.869
298.561
298.845
298.909
298.82
298.479
297.748
296.611
298
299.642
300.369
300.813
300.98
301.025
300.995
300.921
300.762
300.564
300.367
300.116
299.897
299.632
298.273
300.004
300.556
300.833
300.863
300.854
300.803
300.745
300.661
300.579
300.536
300.522
300.532
300.452
298.672
300.18
300.585
300.73
300.708
300.674
300.631
300.586
300.555
300.538
300.556
300.613
300.696
300.731
299.178
300.226
300.499
300.56
300.534
300.501
300.465
300.438
300.431
300.456
300.526
300.626
300.774
300.916
299.551
300.194
300.353
300.369
300.354
300.339
300.326
300.318
300.327
300.359
300.438
300.563
300.719
300.912
299.78
300.117
300.193
300.194
300.189
300.185
300.189
300.194
300.216
300.255
300.337
300.476
300.629
300.866
299.845
300.019
300.018
300.04
300.05
300.053
300.063
300.069
300.098
300.139
300.223
300.352
300.508
300.753
299.801
299.872
299.891
299.903
299.924
299.92
299.928
299.933
299.972
300.022
300.115
300.23
300.386
300.572
299.68
299.735
299.76
299.79
299.81
299.798
299.8
299.805
299.849
299.91
300.006
300.107
300.255
300.343
299.419
299.507
299.605
299.664
299.685
299.68
299.675
299.685
299.742
299.82
299.917
299.992
300.053
299.989
298.934
299.174
299.381
299.499
299.564
299.586
299.587
299.6
299.661
299.734
299.809
299.824
299.777
299.522
298.069
298.414
298.845
299.13
299.339
299.468
299.521
299.569
299.638
299.698
299.732
299.672
299.474
298.954
296.927
297.234
297.85
298.402
298.895
299.258
299.453
299.552
299.634
299.699
299.716
299.57
299.239
298.461
294.853
295.177
295.899
296.952
297.903
298.716
299.275
299.566
299.693
299.69
299.65
299.444
298.978
298.2
299.581
300.811
301.109
301.342
301.396
301.417
301.384
301.341
301.272
301.202
301.137
301.073
300.998
300.923
299.831
300.92
301.151
301.272
301.259
301.246
301.203
301.163
301.134
301.119
301.133
301.201
301.284
301.331
300.046
300.89
301.063
301.113
301.088
301.07
301.039
301.014
301.008
301.03
301.095
301.185
301.296
301.4
300.278
300.797
300.902
300.922
300.908
300.903
300.889
300.883
300.892
300.934
301.025
301.148
301.302
301.46
300.424
300.671
300.734
300.74
300.74
300.747
300.758
300.77
300.794
300.84
300.93
301.062
301.234
301.415
300.476
300.575
300.588
300.59
300.595
300.61
300.634
300.66
300.698
300.752
300.843
300.981
301.142
301.348
300.428
300.468
300.454
300.462
300.478
300.493
300.522
300.552
300.599
300.657
300.748
300.878
301.032
301.245
300.321
300.343
300.35
300.356
300.37
300.378
300.407
300.439
300.497
300.564
300.662
300.78
300.937
301.129
300.203
300.243
300.253
300.266
300.279
300.279
300.303
300.337
300.401
300.477
300.578
300.687
300.837
301.017
300.009
300.107
300.146
300.173
300.188
300.185
300.205
300.247
300.326
300.418
300.528
300.624
300.766
300.852
299.704
299.936
300.029
300.091
300.13
300.124
300.141
300.189
300.276
300.377
300.485
300.565
300.63
300.642
299.153
299.551
299.776
299.938
300.043
300.069
300.11
300.175
300.273
300.379
300.462
300.492
300.492
300.344
298.389
298.895
299.284
299.633
299.891
300.033
300.114
300.197
300.287
300.396
300.469
300.465
300.379
300.042
296.984
297.388
298
298.788
299.41
299.851
300.109
300.26
300.358
300.399
300.424
300.368
300.233
299.797
300.883
301.664
301.759
301.888
301.884
301.876
301.841
301.814
301.781
301.769
301.78
301.823
301.804
301.905
300.999
301.58
301.666
301.726
301.709
301.698
301.669
301.649
301.645
301.665
301.713
301.824
301.934
302.091
301.004
301.397
301.484
301.518
301.519
301.523
301.515
301.514
301.527
301.568
301.645
301.768
301.916
302.058
301.032
301.231
301.296
301.329
301.346
301.363
301.375
301.394
301.426
301.481
301.578
301.708
301.884
302.052
301.014
301.097
301.144
301.173
301.198
301.227
301.256
301.291
301.338
301.403
301.503
301.638
301.811
301.999
300.999
301.025
301.034
301.06
301.081
301.112
301.151
301.196
301.256
301.332
301.435
301.576
301.739
301.937
300.94
300.943
300.957
300.968
300.99
301.018
301.061
301.111
301.18
301.26
301.365
301.498
301.652
301.847
300.87
300.885
300.893
300.895
300.909
300.93
300.974
301.029
301.106
301.192
301.3
301.419
301.57
301.755
300.805
300.825
300.833
300.835
300.844
300.858
300.901
300.96
301.042
301.131
301.236
301.34
301.48
301.668
300.712
300.759
300.771
300.775
300.777
300.789
300.831
300.9
300.993
301.095
301.204
301.302
301.448
301.599
300.579
300.682
300.717
300.733
300.729
300.746
300.785
300.867
300.969
301.08
301.195
301.294
301.403
301.506
300.339
300.523
300.616
300.665
300.677
300.704
300.759
300.86
300.978
301.104
301.217
301.302
301.363
301.375
300.035
300.276
300.436
300.563
300.631
300.697
300.772
300.878
301.003
301.145
301.27
301.331
301.35
301.261
299.046
299.395
299.791
300.197
300.478
300.676
300.818
300.95
301.075
301.191
301.286
301.322
301.308
301.165
302.281
302.273
302.276
302.308
302.385
302.4
302.519
302.133
302.151
302.187
302.243
302.354
302.477
302.644
302.01
302.044
302.098
302.176
302.294
302.45
302.611
301.9
301.955
302.026
302.122
302.247
302.413
302.59
301.811
301.879
301.962
302.068
302.201
302.365
302.549
301.735
301.814
301.906
302.02
302.161
302.32
302.509
301.674
301.76
301.857
301.973
302.111
302.265
302.445
301.622
301.713
301.812
301.927
302.052
302.2
302.369
301.398
301.394
301.399
301.402
301.416
301.445
301.505
301.583
301.678
301.777
301.888
301.996
302.128
302.283
301.363
301.369
301.363
301.368
301.374
301.402
301.466
301.554
301.658
301.762
301.87
301.968
302.091
302.241
301.308
301.33
301.33
301.345
301.339
301.373
301.442
301.544
301.655
301.766
301.872
301.965
302.08
302.191
301.2
301.276
301.287
301.301
301.294
301.343
301.427
301.55
301.676
301.8
301.906
301.996
302.093
302.189
301.109
301.212
301.237
301.252
301.276
301.342
301.442
301.571
301.71
301.854
301.982
302.078
302.141
302.148
300.52
300.793
300.982
301.132
301.245
301.357
301.488
301.631
301.779
301.929
302.057
302.146
302.199
302.163
301.714
304.392
307.542
310.184
312.522
313.791
300.744
303.324
306.564
309.513
311.973
312.999
301.667
304.032
306.916
309.162
310.863
311.286
302.037
304.088
306.421
307.881
308.677
308.477
302.057
303.465
304.644
304.868
304.752
304.217
301.628
302.095
301.976
301.292
300.645
300.021
300.511
299.823
298.396
297.084
296.242
295.786
298.844
296.886
294.763
293.415
293.084
293.193
297.087
294.416
292.3
291.254
291.26
291.419
295.766
292.844
291.18
290.582
291.183
291.01
295.113
292.52
291.731
292.184
293.79
294.058
295.334
293.478
293.433
294.957
297.83
299.206
296.988
296.061
296.891
299.337
302.774
305.045
298.111
298.825
301.286
304.104
307.197
309.399
298.867
300.89
303.637
306.349
309.258
311.565
299.006
300.858
303.772
306.755
309.585
311.505
300.443
302.155
304.65
307.085
309.417
310.669
301.191
302.71
304.859
306.577
307.863
308.013
301.374
302.473
303.678
304.178
304.243
303.788
301.09
301.562
301.593
300.846
299.834
298.966
300.055
299.36
297.892
296.086
294.756
294.087
298.514
296.449
293.789
291.766
290.753
290.495
296.562
293.407
290.455
288.658
288.148
288.092
294.929
291.505
288.956
287.494
287.424
287.5
294.003
290.837
288.945
288.31
289.274
290.225
293.763
291.207
290.25
290.549
292.705
294.724
294.675
293.167
293.145
294.463
297.499
300.319
295.177
295.262
296.732
299.351
302.642
305.404
296.959
297.683
299.176
301.168
303.703
306.539
298.213
298.925
300.604
303.014
305.72
308.362
299.887
300.594
302.297
304.484
306.79
308.986
300.735
301.541
302.996
304.85
306.69
308.073
301.068
301.794
302.909
303.968
304.847
305.278
300.915
301.338
301.704
301.585
301.195
300.719
300.401
300.072
299.153
297.68
296.254
295.276
299.433
298.072
295.777
293.202
291.32
290.538
298.137
295.667
292.316
289.237
287.381
286.99
296.766
293.661
290.129
287.196
285.642
285.385
295.864
292.674
289.523
287.013
286.243
286.58
295.4
292.378
289.913
288.253
288.488
289.549
295.591
293.268
291.797
291.151
292.206
293.975
295.467
294.214
294.155
294.812
296.819
299.059
296.357
295.853
296.108
296.653
297.955
300.016
297.922
297.574
298.222
299.331
301.027
303.301
299.652
299.683
300.58
301.85
303.615
305.584
300.553
300.861
301.83
303.11
304.782
306.314
300.949
301.398
302.294
303.417
304.748
305.692
300.962
301.401
302.054
302.671
303.178
303.079
300.755
300.961
301.014
300.637
299.8
298.52
300.327
300.008
299.042
297.336
295.113
293.158
299.74
298.614
296.366
293.191
290.037
288.067
298.899
296.927
293.727
289.829
286.605
284.96
298.096
295.645
292.173
288.298
285.531
284.321
297.419
294.761
291.563
288.056
286.017
285.647
297.177
294.739
292.153
289.575
288.516
288.692
296.84
294.792
293.252
291.981
292.032
292.938
297.403
296.114
295.469
295.104
295.366
296.439
298.926
298.061
297.764
297.774
298.536
300.064
300.236
299.852
299.993
300.406
301.524
303.125
300.927
300.933
301.368
302.108
303.39
304.853
301.257
301.539
302.15
302.956
304.074
305.224
301.328
301.68
302.301
303.019
303.771
304.339
301.256
301.578
301.975
302.253
302.203
301.701
301.063
301.202
301.101
300.431
299.096
297.311
300.829
300.623
299.707
297.81
295.097
292.113
300.439
299.642
297.825
294.806
290.971
287.694
300.01
298.694
296.236
292.546
288.614
285.748
299.533
297.852
295.156
291.456
287.944
285.671
299.253
297.513
295.086
291.816
289.22
287.906
299.088
297.392
295.479
293.154
291.727
291.236
299.111
297.798
296.452
295.259
294.789
294.913
300.225
299.25
298.408
297.735
297.712
298.419
300.964
300.46
300.154
300.035
300.482
301.576
301.411
301.316
301.438
301.736
302.565
303.819
301.607
301.786
302.203
302.806
303.754
304.811
301.677
301.973
302.503
303.19
304.045
304.782
301.639
301.965
302.491
303.088
303.573
303.782
301.551
301.865
302.206
302.383
302.105
301.227
301.441
301.613
301.636
301.042
299.553
297.2
301.31
301.231
300.68
299.067
296.314
292.748
301.163
300.744
299.567
297.162
293.603
289.768
300.918
300.158
298.581
295.802
292.151
288.753
300.751
299.848
298.157
295.518
292.296
289.617
300.784
299.792
298.253
295.937
293.632
292.028
300.684
299.713
298.379
296.676
295.587
295.174
301.468
300.773
299.881
298.75
298.191
298.217
301.825
301.468
301.041
300.564
300.536
301.019
302.046
301.959
301.944
301.972
302.369
303.231
302.099
302.242
302.521
302.904
303.602
304.53
302.122
302.389
302.817
303.371
304.113
304.895
302.09
302.394
302.851
303.438
304.091
304.661
302.027
302.34
302.767
303.218
303.539
303.549
301.966
302.244
302.512
302.654
302.337
301.278
301.951
302.101
302.127
301.737
300.479
298.076
301.92
301.916
301.597
300.565
298.401
295.138
301.901
301.645
300.969
299.473
296.895
293.574
301.815
301.454