/*--------------------------------*- C++ -*----------------------------------*\
| =========                 |                                                 |
| \\      /  F ield         | OpenFOAM: The Open Source CFD Toolbox           |
|  \\    /   O peration     | Version:  v2106                                 |
|   \\  /    A nd           | Website:  www.openfoam.com                      |
|    \\/     M anipulation  |                                                 |
\*---------------------------------------------------------------------------*/
FoamFile
{
    version     2.0;
    format      ascii;
    arch        "LSB;label=32;scalar=64";
    class       volScalarField;
    location    "0.000177";
    object      k;
}
// * * * * * * * * * * * * * * * * * * * * * * * * * * * * * * * * * * * * * //

dimensions      [0 2 -2 0 0 0 0];

internalField   nonuniform List<scalar> 
17924
(
2.50153e-12
2.50112e-12
2.50105e-12
2.50101e-12
2.50173e-12
2.50165e-12
2.50161e-12
2.50152e-12
2.50142e-12
2.50131e-12
2.50121e-12
2.5022e-12
2.50207e-12
2.50201e-12
2.5019e-12
2.50179e-12
2.50169e-12
2.50159e-12
2.50265e-12
2.50244e-12
2.50236e-12
2.50226e-12
2.50216e-12
2.50206e-12
2.50196e-12
2.50313e-12
2.50282e-12
2.50272e-12
2.50262e-12
2.50252e-12
2.50242e-12
2.50233e-12
2.50356e-12
2.50318e-12
2.50306e-12
2.50297e-12
2.50288e-12
2.50279e-12
2.5027e-12
2.50398e-12
2.50355e-12
2.50342e-12
2.50333e-12
2.50324e-12
2.50315e-12
2.50306e-12
2.50437e-12
2.50391e-12
2.50378e-12
2.50369e-12
2.50361e-12
2.50352e-12
2.50343e-12
2.50476e-12
2.50428e-12
2.50415e-12
2.50407e-12
2.50398e-12
2.50389e-12
2.5038e-12
2.50513e-12
2.50465e-12
2.50453e-12
2.50445e-12
2.50436e-12
2.50427e-12
2.50417e-12
2.50552e-12
2.50504e-12
2.50492e-12
2.50484e-12
2.50475e-12
2.50466e-12
2.50456e-12
2.50589e-12
2.50545e-12
2.50532e-12
2.50524e-12
2.50516e-12
2.50507e-12
2.50497e-12
2.50627e-12
2.50586e-12
2.50574e-12
2.50566e-12
2.50557e-12
2.50548e-12
2.50539e-12
2.50662e-12
2.50627e-12
2.50617e-12
2.5061e-12
2.50602e-12
2.50593e-12
2.50584e-12
2.50705e-12
2.50672e-12
2.50663e-12
2.5066e-12
2.50655e-12
2.50649e-12
2.50642e-12
2.50251e-12
2.50244e-12
2.50236e-12
2.50223e-12
2.50209e-12
2.50194e-12
2.50179e-12
2.50163e-12
2.50149e-12
2.50134e-12
2.50122e-12
2.50108e-12
2.50095e-12
2.50078e-12
2.50275e-12
2.50265e-12
2.50257e-12
2.50243e-12
2.50229e-12
2.50213e-12
2.50198e-12
2.50183e-12
2.50169e-12
2.50155e-12
2.50143e-12
2.50131e-12
2.50118e-12
2.50107e-12
2.50295e-12
2.50283e-12
2.50274e-12
2.5026e-12
2.50246e-12
2.50232e-12
2.50218e-12
2.50203e-12
2.5019e-12
2.50177e-12
2.50164e-12
2.50152e-12
2.5014e-12
2.5013e-12
2.50315e-12
2.50303e-12
2.50292e-12
2.50279e-12
2.50265e-12
2.50251e-12
2.50237e-12
2.50223e-12
2.50209e-12
2.50196e-12
2.50183e-12
2.50171e-12
2.50159e-12
2.50149e-12
2.50333e-12
2.50321e-12
2.5031e-12
2.50297e-12
2.50284e-12
2.5027e-12
2.50256e-12
2.50242e-12
2.50228e-12
2.50215e-12
2.50202e-12
2.50189e-12
2.50176e-12
2.50165e-12
2.50353e-12
2.50341e-12
2.5033e-12
2.50317e-12
2.50304e-12
2.5029e-12
2.50275e-12
2.50261e-12
2.50247e-12
2.50233e-12
2.5022e-12
2.50206e-12
2.50192e-12
2.5018e-12
2.50374e-12
2.50362e-12
2.50351e-12
2.50338e-12
2.50324e-12
2.5031e-12
2.50296e-12
2.50281e-12
2.50266e-12
2.50252e-12
2.50238e-12
2.50223e-12
2.50209e-12
2.50196e-12
2.50397e-12
2.50385e-12
2.50373e-12
2.5036e-12
2.50346e-12
2.50331e-12
2.50316e-12
2.50301e-12
2.50286e-12
2.50271e-12
2.50256e-12
2.50241e-12
2.50227e-12
2.50213e-12
2.5042e-12
2.50408e-12
2.50396e-12
2.50383e-12
2.50368e-12
2.50353e-12
2.50337e-12
2.50322e-12
2.50306e-12
2.50291e-12
2.50276e-12
2.5026e-12
2.50246e-12
2.50231e-12
2.50446e-12
2.50433e-12
2.5042e-12
2.50407e-12
2.50391e-12
2.50376e-12
2.50359e-12
2.50343e-12
2.50327e-12
2.50312e-12
2.50296e-12
2.50281e-12
2.50266e-12
2.5025e-12
2.50472e-12
2.50458e-12
2.50445e-12
2.50431e-12
2.50415e-12
2.50399e-12
2.50382e-12
2.50366e-12
2.5035e-12
2.50334e-12
2.50318e-12
2.50302e-12
2.50287e-12
2.5027e-12
2.50499e-12
2.50485e-12
2.50471e-12
2.50456e-12
2.5044e-12
2.50423e-12
2.50406e-12
2.50389e-12
2.50373e-12
2.50356e-12
2.5034e-12
2.50324e-12
2.50309e-12
2.50289e-12
2.50523e-12
2.50511e-12
2.50497e-12
2.50482e-12
2.50465e-12
2.50448e-12
2.50431e-12
2.50414e-12
2.50397e-12
2.5038e-12
2.50363e-12
2.50346e-12
2.50329e-12
2.50307e-12
2.5055e-12
2.50537e-12
2.50523e-12
2.50508e-12
2.50492e-12
2.50475e-12
2.50458e-12
2.5044e-12
2.50423e-12
2.50406e-12
2.50388e-12
2.50369e-12
2.5035e-12
2.50328e-12
2.50323e-12
2.50316e-12
2.50306e-12
2.50291e-12
2.50275e-12
2.50257e-12
2.50238e-12
2.50219e-12
2.502e-12
2.50181e-12
2.50163e-12
2.50142e-12
2.50123e-12
2.50098e-12
2.5033e-12
2.50321e-12
2.50311e-12
2.50295e-12
2.50278e-12
2.5026e-12
2.50241e-12
2.50222e-12
2.50203e-12
2.50184e-12
2.50167e-12
2.50148e-12
2.50131e-12
2.50111e-12
2.50335e-12
2.50324e-12
2.50313e-12
2.50296e-12
2.5028e-12
2.50262e-12
2.50245e-12
2.50227e-12
2.50209e-12
2.50191e-12
2.50174e-12
2.50156e-12
2.5014e-12
2.50122e-12
2.5034e-12
2.50329e-12
2.50316e-12
2.503e-12
2.50283e-12
2.50266e-12
2.50249e-12
2.50231e-12
2.50214e-12
2.50196e-12
2.50179e-12
2.50161e-12
2.50145e-12
2.50129e-12
2.50343e-12
2.50332e-12
2.50319e-12
2.50303e-12
2.50287e-12
2.5027e-12
2.50253e-12
2.50236e-12
2.50218e-12
2.50201e-12
2.50183e-12
2.50165e-12
2.50148e-12
2.50131e-12
2.50348e-12
2.50337e-12
2.50324e-12
2.50309e-12
2.50292e-12
2.50275e-12
2.50258e-12
2.5024e-12
2.50222e-12
2.50204e-12
2.50187e-12
2.50169e-12
2.50151e-12
2.50133e-12
2.50355e-12
2.50343e-12
2.5033e-12
2.50314e-12
2.50298e-12
2.5028e-12
2.50263e-12
2.50245e-12
2.50227e-12
2.50208e-12
2.5019e-12
2.50172e-12
2.50153e-12
2.50134e-12
2.50364e-12
2.50351e-12
2.50337e-12
2.50321e-12
2.50304e-12
2.50286e-12
2.50268e-12
2.50249e-12
2.5023e-12
2.50212e-12
2.50193e-12
2.50174e-12
2.50155e-12
2.50135e-12
2.50373e-12
2.5036e-12
2.50345e-12
2.50329e-12
2.50311e-12
2.50292e-12
2.50273e-12
2.50254e-12
2.50235e-12
2.50215e-12
2.50196e-12
2.50176e-12
2.50156e-12
2.50136e-12
2.50385e-12
2.5037e-12
2.50354e-12
2.50337e-12
2.50318e-12
2.50299e-12
2.50279e-12
2.50259e-12
2.50239e-12
2.50219e-12
2.50199e-12
2.50178e-12
2.50157e-12
2.50137e-12
2.50396e-12
2.50381e-12
2.50363e-12
2.50345e-12
2.50325e-12
2.50305e-12
2.50285e-12
2.50265e-12
2.50244e-12
2.50223e-12
2.50202e-12
2.50181e-12
2.50159e-12
2.50138e-12
2.50407e-12
2.50391e-12
2.50373e-12
2.50354e-12
2.50333e-12
2.50312e-12
2.50291e-12
2.5027e-12
2.50248e-12
2.50227e-12
2.50205e-12
2.50183e-12
2.5016e-12
2.50137e-12
2.50415e-12
2.50399e-12
2.50381e-12
2.50361e-12
2.5034e-12
2.50318e-12
2.50297e-12
2.50276e-12
2.50253e-12
2.50231e-12
2.50208e-12
2.50185e-12
2.50159e-12
2.50131e-12
2.50423e-12
2.50406e-12
2.50388e-12
2.50368e-12
2.50348e-12
2.50326e-12
2.50304e-12
2.50282e-12
2.50259e-12
2.50236e-12
2.50212e-12
2.50187e-12
2.50159e-12
2.50132e-12
2.50367e-12
2.50359e-12
2.50349e-12
2.50333e-12
2.50315e-12
2.50295e-12
2.50274e-12
2.50252e-12
2.50229e-12
2.50206e-12
2.50182e-12
2.50156e-12
2.50131e-12
2.501e-12
2.5036e-12
2.50352e-12
2.5034e-12
2.50323e-12
2.50305e-12
2.50285e-12
2.50264e-12
2.50243e-12
2.50221e-12
2.50198e-12
2.50175e-12
2.50151e-12
2.50127e-12
2.501e-12
2.50352e-12
2.50342e-12
2.50328e-12
2.50311e-12
2.50293e-12
2.50274e-12
2.50254e-12
2.50234e-12
2.50212e-12
2.5019e-12
2.50169e-12
2.50145e-12
2.50123e-12
2.50098e-12
2.50343e-12
2.50332e-12
2.50317e-12
2.50301e-12
2.50283e-12
2.50264e-12
2.50245e-12
2.50224e-12
2.50203e-12
2.50182e-12
2.5016e-12
2.50137e-12
2.50116e-12
2.50093e-12
2.50333e-12
2.50322e-12
2.50307e-12
2.50291e-12
2.50273e-12
2.50254e-12
2.50235e-12
2.50215e-12
2.50194e-12
2.50173e-12
2.50151e-12
2.50128e-12
2.50106e-12
2.50084e-12
2.50325e-12
2.50312e-12
2.50298e-12
2.50281e-12
2.50263e-12
2.50245e-12
2.50225e-12
2.50205e-12
2.50184e-12
2.50162e-12
2.50141e-12
2.50118e-12
2.50095e-12
2.50073e-12
2.50318e-12
2.50305e-12
2.50289e-12
2.50273e-12
2.50255e-12
2.50236e-12
2.50216e-12
2.50195e-12
2.50174e-12
2.50152e-12
2.5013e-12
2.50107e-12
2.50084e-12
2.50061e-12
2.50311e-12
2.50297e-12
2.50281e-12
2.50264e-12
2.50246e-12
2.50226e-12
2.50206e-12
2.50185e-12
2.50163e-12
2.50141e-12
2.50119e-12
2.50095e-12
2.50072e-12
2.50048e-12
2.50307e-12
2.50291e-12
2.50275e-12
2.50257e-12
2.50237e-12
2.50217e-12
2.50196e-12
2.50174e-12
2.50152e-12
2.50129e-12
2.50106e-12
2.50082e-12
2.50058e-12
2.50034e-12
2.50302e-12
2.50285e-12
2.50267e-12
2.50248e-12
2.50228e-12
2.50207e-12
2.50185e-12
2.50163e-12
2.5014e-12
2.50117e-12
2.50093e-12
2.50068e-12
2.50043e-12
2.5002e-12
2.50298e-12
2.50279e-12
2.5026e-12
2.5024e-12
2.50219e-12
2.50197e-12
2.50175e-12
2.50151e-12
2.50127e-12
2.50103e-12
2.50078e-12
2.50053e-12
2.50027e-12
2.50003e-12
2.50292e-12
2.50272e-12
2.50252e-12
2.50231e-12
2.50209e-12
2.50186e-12
2.50163e-12
2.50139e-12
2.50114e-12
2.50089e-12
2.50063e-12
2.50038e-12
2.5001e-12
2.49985e-12
2.50282e-12
2.50262e-12
2.50243e-12
2.50221e-12
2.50198e-12
2.50175e-12
2.50151e-12
2.50126e-12
2.50099e-12
2.50073e-12
2.50046e-12
2.50019e-12
2.49988e-12
2.49961e-12
2.5027e-12
2.50251e-12
2.50232e-12
2.5021e-12
2.50187e-12
2.50162e-12
2.50137e-12
2.50112e-12
2.50086e-12
2.50059e-12
2.50031e-12
2.50003e-12
2.4997e-12
2.4994e-12
2.50349e-12
2.50341e-12
2.50328e-12
2.50313e-12
2.50296e-12
2.50277e-12
2.50255e-12
2.50233e-12
2.50209e-12
2.50183e-12
2.50157e-12
2.50128e-12
2.50099e-12
2.50064e-12
2.5033e-12
2.50322e-12
2.50309e-12
2.50292e-12
2.50274e-12
2.50255e-12
2.50234e-12
2.50211e-12
2.50187e-12
2.50162e-12
2.50136e-12
2.50108e-12
2.5008e-12
2.5005e-12
2.5031e-12
2.50301e-12
2.50286e-12
2.5027e-12
2.50252e-12
2.50233e-12
2.50212e-12
2.5019e-12
2.50167e-12
2.50143e-12
2.50117e-12
2.5009e-12
2.50064e-12
2.50035e-12
2.50291e-12
2.50279e-12
2.50264e-12
2.50247e-12
2.50229e-12
2.5021e-12
2.5019e-12
2.50168e-12
2.50145e-12
2.50121e-12
2.50096e-12
2.5007e-12
2.50044e-12
2.50017e-12
2.5027e-12
2.50258e-12
2.50242e-12
2.50225e-12
2.50207e-12
2.50188e-12
2.50168e-12
2.50146e-12
2.50124e-12
2.50099e-12
2.50075e-12
2.50049e-12
2.50023e-12
2.49997e-12
2.50249e-12
2.50236e-12
2.5022e-12
2.50203e-12
2.50185e-12
2.50166e-12
2.50145e-12
2.50123e-12
2.501e-12
2.50076e-12
2.50052e-12
2.50026e-12
2.5e-12
2.49974e-12
2.5023e-12
2.50215e-12
2.50199e-12
2.50182e-12
2.50163e-12
2.50143e-12
2.50122e-12
2.501e-12
2.50077e-12
2.50053e-12
2.50029e-12
2.50003e-12
2.49977e-12
2.49951e-12
2.50209e-12
2.50194e-12
2.50177e-12
2.50159e-12
2.5014e-12
2.50119e-12
2.50098e-12
2.50076e-12
2.50052e-12
2.50028e-12
2.50003e-12
2.49978e-12
2.49952e-12
2.49926e-12
2.5019e-12
2.50173e-12
2.50156e-12
2.50137e-12
2.50117e-12
2.50096e-12
2.50074e-12
2.50051e-12
2.50027e-12
2.50002e-12
2.49977e-12
2.49951e-12
2.49925e-12
2.499e-12
2.5017e-12
2.50151e-12
2.50133e-12
2.50113e-12
2.50092e-12
2.5007e-12
2.50048e-12
2.50025e-12
2.5e-12
2.49975e-12
2.49949e-12
2.49924e-12
2.49896e-12
2.49872e-12
2.5015e-12
2.5013e-12
2.5011e-12
2.5009e-12
2.50068e-12
2.50045e-12
2.50022e-12
2.49997e-12
2.49972e-12
2.49946e-12
2.4992e-12
2.49894e-12
2.49866e-12
2.49843e-12
2.50127e-12
2.50105e-12
2.50085e-12
2.50064e-12
2.50041e-12
2.50018e-12
2.49994e-12
2.49969e-12
2.49943e-12
2.49917e-12
2.4989e-12
2.49864e-12
2.49835e-12
2.49811e-12
2.50103e-12
2.50081e-12
2.5006e-12
2.50038e-12
2.50014e-12
2.4999e-12
2.49965e-12
2.49939e-12
2.49911e-12
2.49884e-12
2.49856e-12
2.49829e-12
2.49798e-12
2.49774e-12
2.50072e-12
2.50051e-12
2.50031e-12
2.50008e-12
2.49984e-12
2.4996e-12
2.49935e-12
2.49909e-12
2.49881e-12
2.49854e-12
2.49825e-12
2.49797e-12
2.49766e-12
2.49739e-12
2.50237e-12
2.50229e-12
2.50216e-12
2.50202e-12
2.50187e-12
2.50169e-12
2.50151e-12
2.50131e-12
2.50109e-12
2.50086e-12
2.50061e-12
2.50035e-12
2.50007e-12
2.49974e-12
2.50211e-12
2.50202e-12
2.50189e-12
2.50174e-12
2.50157e-12
2.5014e-12
2.5012e-12
2.501e-12
2.50077e-12
2.50054e-12
2.50029e-12
2.50003e-12
2.49976e-12
2.49948e-12
2.50183e-12
2.50173e-12
2.50158e-12
2.50143e-12
2.50126e-12
2.50109e-12
2.5009e-12
2.50069e-12
2.50047e-12
2.50024e-12
2.5e-12
2.49974e-12
2.49949e-12
2.49922e-12
2.50155e-12
2.50144e-12
2.50128e-12
2.50112e-12
2.50095e-12
2.50077e-12
2.50058e-12
2.50037e-12
2.50015e-12
2.49992e-12
2.49968e-12
2.49942e-12
2.49917e-12
2.49892e-12
2.50126e-12
2.50113e-12
2.50097e-12
2.50081e-12
2.50064e-12
2.50046e-12
2.50026e-12
2.50005e-12
2.49983e-12
2.4996e-12
2.49937e-12
2.49911e-12
2.49887e-12
2.49861e-12
2.50096e-12
2.50082e-12
2.50066e-12
2.5005e-12
2.50032e-12
2.50013e-12
2.49993e-12
2.49972e-12
2.4995e-12
2.49927e-12
2.49903e-12
2.49879e-12
2.49854e-12
2.49829e-12
2.50067e-12
2.50051e-12
2.50035e-12
2.50018e-12
2.49999e-12
2.4998e-12
2.4996e-12
2.49938e-12
2.49916e-12
2.49894e-12
2.4987e-12
2.49846e-12
2.49822e-12
2.49797e-12
2.50036e-12
2.50019e-12
2.50002e-12
2.49984e-12
2.49965e-12
2.49945e-12
2.49925e-12
2.49904e-12
2.49881e-12
2.49859e-12
2.49835e-12
2.49812e-12
2.49787e-12
2.49764e-12
2.50004e-12
2.49987e-12
2.49969e-12
2.4995e-12
2.49931e-12
2.49911e-12
2.4989e-12
2.49868e-12
2.49846e-12
2.49823e-12
2.49799e-12
2.49776e-12
2.49752e-12
2.4973e-12
2.49971e-12
2.49952e-12
2.49934e-12
2.49915e-12
2.49895e-12
2.49874e-12
2.49853e-12
2.49831e-12
2.49809e-12
2.49786e-12
2.49762e-12
2.49739e-12
2.49715e-12
2.49694e-12
2.49939e-12
2.49918e-12
2.499e-12
2.49879e-12
2.49859e-12
2.49838e-12
2.49816e-12
2.49793e-12
2.4977e-12
2.49747e-12
2.49723e-12
2.49701e-12
2.49677e-12
2.49658e-12
2.49902e-12
2.49881e-12
2.49862e-12
2.49841e-12
2.4982e-12
2.49799e-12
2.49777e-12
2.49754e-12
2.49731e-12
2.49708e-12
2.49684e-12
2.49662e-12
2.49638e-12
2.4962e-12
2.49867e-12
2.49845e-12
2.49826e-12
2.49804e-12
2.49783e-12
2.4976e-12
2.49737e-12
2.49714e-12
2.4969e-12
2.49666e-12
2.49642e-12
2.4962e-12
2.49596e-12
2.49579e-12
2.49823e-12
2.49803e-12
2.49783e-12
2.49762e-12
2.49741e-12
2.49719e-12
2.49696e-12
2.49674e-12
2.4965e-12
2.49627e-12
2.49603e-12
2.4958e-12
2.49556e-12
2.49538e-12
2.5003e-12
2.5002e-12
2.50007e-12
2.49994e-12
2.49982e-12
2.49968e-12
2.49955e-12
2.4994e-12
2.49924e-12
2.49908e-12
2.4989e-12
2.49873e-12
2.49853e-12
2.49831e-12
2.49999e-12
2.49989e-12
2.49976e-12
2.49962e-12
2.49948e-12
2.49934e-12
2.49919e-12
2.49903e-12
2.49886e-12
2.49869e-12
2.49851e-12
2.49833e-12
2.49814e-12
2.49793e-12
2.49965e-12
2.49955e-12
2.49941e-12
2.49927e-12
2.49913e-12
2.49898e-12
2.49883e-12
2.49867e-12
2.4985e-12
2.49833e-12
2.49816e-12
2.49797e-12
2.49779e-12
2.49758e-12
2.49932e-12
2.49921e-12
2.49906e-12
2.49892e-12
2.49877e-12
2.49862e-12
2.49847e-12
2.4983e-12
2.49813e-12
2.49795e-12
2.49777e-12
2.49759e-12
2.4974e-12
2.49721e-12
2.49898e-12
2.49885e-12
2.4987e-12
2.49856e-12
2.49841e-12
2.49825e-12
2.49809e-12
2.49793e-12
2.49776e-12
2.49758e-12
2.4974e-12
2.49722e-12
2.49704e-12
2.49685e-12
2.49863e-12
2.49849e-12
2.49834e-12
2.49819e-12
2.49804e-12
2.49788e-12
2.49772e-12
2.49755e-12
2.49738e-12
2.4972e-12
2.49702e-12
2.49684e-12
2.49666e-12
2.49648e-12
2.49827e-12
2.49813e-12
2.49797e-12
2.49782e-12
2.49766e-12
2.4975e-12
2.49733e-12
2.49716e-12
2.49699e-12
2.49682e-12
2.49665e-12
2.49647e-12
2.4963e-12
2.49613e-12
2.4979e-12
2.49774e-12
2.49759e-12
2.49743e-12
2.49727e-12
2.49711e-12
2.49694e-12
2.49677e-12
2.4966e-12
2.49643e-12
2.49626e-12
2.49609e-12
2.49592e-12
2.49576e-12
2.49752e-12
2.49736e-12
2.4972e-12
2.49704e-12
2.49688e-12
2.49671e-12
2.49655e-12
2.49638e-12
2.49621e-12
2.49604e-12
2.49587e-12
2.49571e-12
2.49554e-12
2.4954e-12
2.49713e-12
2.49696e-12
2.4968e-12
2.49664e-12
2.49648e-12
2.49631e-12
2.49615e-12
2.49598e-12
2.49581e-12
2.49565e-12
2.49548e-12
2.49532e-12
2.49516e-12
2.49504e-12
2.49674e-12
2.49656e-12
2.4964e-12
2.49624e-12
2.49607e-12
2.49591e-12
2.49574e-12
2.49557e-12
2.49541e-12
2.49525e-12
2.49508e-12
2.49493e-12
2.49478e-12
2.49468e-12
2.49632e-12
2.49614e-12
2.49598e-12
2.49582e-12
2.49565e-12
2.49549e-12
2.49533e-12
2.49516e-12
2.495e-12
2.49484e-12
2.49469e-12
2.49455e-12
2.4944e-12
2.49431e-12
2.49593e-12
2.49575e-12
2.49559e-12
2.49541e-12
2.49525e-12
2.49508e-12
2.49491e-12
2.49475e-12
2.49458e-12
2.49442e-12
2.49428e-12
2.49415e-12
2.49402e-12
2.49394e-12
2.49546e-12
2.4953e-12
2.49514e-12
2.49497e-12
2.49481e-12
2.49465e-12
2.4945e-12
2.49434e-12
2.49418e-12
2.49403e-12
2.49388e-12
2.49376e-12
2.49363e-12
2.49356e-12
2.49743e-12
2.49732e-12
2.4972e-12
2.49711e-12
2.49702e-12
2.49694e-12
2.49687e-12
2.49679e-12
2.49672e-12
2.49665e-12
2.49658e-12
2.49651e-12
2.49643e-12
2.49635e-12
2.49709e-12
2.497e-12
2.49689e-12
2.49678e-12
2.49669e-12
2.4966e-12
2.49651e-12
2.49643e-12
2.49634e-12
2.49626e-12
2.49618e-12
2.4961e-12
2.49603e-12
2.49593e-12
2.49674e-12
2.49666e-12
2.49654e-12
2.49643e-12
2.49634e-12
2.49624e-12
2.49615e-12
2.49607e-12
2.49598e-12
2.4959e-12
2.49582e-12
2.49573e-12
2.49566e-12
2.49556e-12
2.4964e-12
2.49631e-12
2.49619e-12
2.49609e-12
2.49598e-12
2.49589e-12
2.49579e-12
2.4957e-12
2.49561e-12
2.49553e-12
2.49544e-12
2.49535e-12
2.49527e-12
2.49518e-12
2.49606e-12
2.49596e-12
2.49584e-12
2.49573e-12
2.49563e-12
2.49553e-12
2.49543e-12
2.49534e-12
2.49525e-12
2.49516e-12
2.49508e-12
2.49499e-12
2.49492e-12
2.49483e-12
2.4957e-12
2.4956e-12
2.49548e-12
2.49537e-12
2.49527e-12
2.49517e-12
2.49507e-12
2.49498e-12
2.49488e-12
2.4948e-12
2.49472e-12
2.49464e-12
2.49456e-12
2.49448e-12
2.49535e-12
2.49523e-12
2.49512e-12
2.49501e-12
2.49491e-12
2.4948e-12
2.49471e-12
2.49461e-12
2.49452e-12
2.49444e-12
2.49436e-12
2.49429e-12
2.49421e-12
2.49414e-12
2.49498e-12
2.49486e-12
2.49475e-12
2.49464e-12
2.49454e-12
2.49444e-12
2.49434e-12
2.49425e-12
2.49417e-12
2.49409e-12
2.49401e-12
2.49394e-12
2.49387e-12
2.49381e-12
2.49462e-12
2.49449e-12
2.49438e-12
2.49428e-12
2.49418e-12
2.49408e-12
2.49398e-12
2.4939e-12
2.49381e-12
2.49374e-12
2.49366e-12
2.4936e-12
2.49354e-12
2.4935e-12
2.49425e-12
2.49412e-12
2.49401e-12
2.49391e-12
2.49381e-12
2.49372e-12
2.49363e-12
2.49354e-12
2.49346e-12
2.49339e-12
2.49332e-12
2.49326e-12
2.4932e-12
2.49318e-12
2.49389e-12
2.49375e-12
2.49365e-12
2.49354e-12
2.49345e-12
2.49336e-12
2.49327e-12
2.49319e-12
2.49312e-12
2.49305e-12
2.49299e-12
2.49294e-12
2.49289e-12
2.49289e-12
2.49351e-12
2.49337e-12
2.49328e-12
2.49317e-12
2.49308e-12
2.493e-12
2.49292e-12
2.49284e-12
2.49277e-12
2.49271e-12
2.49266e-12
2.49261e-12
2.49257e-12
2.49258e-12
2.49316e-12
2.49303e-12
2.49293e-12
2.49283e-12
2.49274e-12
2.49265e-12
2.49257e-12
2.4925e-12
2.49243e-12
2.49238e-12
2.49234e-12
2.49231e-12
2.49228e-12
2.4923e-12
2.49276e-12
2.49265e-12
2.49255e-12
2.49246e-12
2.49238e-12
2.4923e-12
2.49223e-12
2.49216e-12
2.49211e-12
2.49206e-12
2.49203e-12
2.49199e-12
2.49197e-12
2.49199e-12
2.49399e-12
2.49392e-12
2.49385e-12
2.49381e-12
2.49378e-12
2.49376e-12
2.49375e-12
2.49375e-12
2.49375e-12
2.49377e-12
2.4938e-12
2.49383e-12
2.49389e-12
2.49392e-12
2.49368e-12
2.49363e-12
2.49357e-12
2.49352e-12
2.49349e-12
2.49346e-12
2.49345e-12
2.49344e-12
2.49345e-12
2.49346e-12
2.49348e-12
2.4935e-12
2.49354e-12
2.49355e-12
2.49338e-12
2.49334e-12
2.49327e-12
2.49323e-12
2.49319e-12
2.49316e-12
2.49315e-12
2.49314e-12
2.49314e-12
2.49315e-12
2.49317e-12
2.49319e-12
2.49323e-12
2.49323e-12
2.49308e-12
2.49304e-12
2.49298e-12
2.49294e-12
2.4929e-12
2.49287e-12
2.49285e-12
2.49284e-12
2.49284e-12
2.49285e-12
2.49287e-12
2.49288e-12
2.49292e-12
2.49292e-12
2.49279e-12
2.49274e-12
2.49269e-12
2.49264e-12
2.4926e-12
2.49258e-12
2.49256e-12
2.49255e-12
2.49255e-12
2.49256e-12
2.49257e-12
2.49259e-12
2.49262e-12
2.49263e-12
2.4925e-12
2.49245e-12
2.49239e-12
2.49235e-12
2.49231e-12
2.49229e-12
2.49227e-12
2.49226e-12
2.49226e-12
2.49227e-12
2.49229e-12
2.49231e-12
2.49233e-12
2.49235e-12
2.49222e-12
2.49216e-12
2.49211e-12
2.49206e-12
2.49203e-12
2.49201e-12
2.49199e-12
2.49198e-12
2.49198e-12
2.49199e-12
2.49201e-12
2.49204e-12
2.49206e-12
2.49209e-12
2.49193e-12
2.49187e-12
2.49182e-12
2.49178e-12
2.49175e-12
2.49173e-12
2.49172e-12
2.49171e-12
2.49171e-12
2.49172e-12
2.49174e-12
2.49177e-12
2.4918e-12
2.49184e-12
2.49165e-12
2.49159e-12
2.49154e-12
2.4915e-12
2.49148e-12
2.49146e-12
2.49145e-12
2.49144e-12
2.49145e-12
2.49147e-12
2.49149e-12
2.49152e-12
2.49155e-12
2.4916e-12
2.49137e-12
2.4913e-12
2.49126e-12
2.49123e-12
2.49121e-12
2.49119e-12
2.49118e-12
2.49119e-12
2.4912e-12
2.49122e-12
2.49124e-12
2.49128e-12
2.49132e-12
2.49138e-12
2.49111e-12
2.49104e-12
2.491e-12
2.49097e-12
2.49095e-12
2.49094e-12
2.49093e-12
2.49094e-12
2.49095e-12
2.49098e-12
2.49101e-12
2.49106e-12
2.4911e-12
2.49117e-12
2.49084e-12
2.49077e-12
2.49074e-12
2.49071e-12
2.49069e-12
2.49069e-12
2.49069e-12
2.4907e-12
2.49072e-12
2.49075e-12
2.49079e-12
2.49084e-12
2.49089e-12
2.49096e-12
2.4906e-12
2.49053e-12
2.4905e-12
2.49047e-12
2.49046e-12
2.49045e-12
2.49045e-12
2.49047e-12
2.4905e-12
2.49054e-12
2.49058e-12
2.49064e-12
2.49071e-12
2.49078e-12
2.49034e-12
2.49027e-12
2.49024e-12
2.49023e-12
2.49022e-12
2.49022e-12
2.49023e-12
2.49026e-12
2.49029e-12
2.49034e-12
2.49039e-12
2.49045e-12
2.49051e-12
2.49059e-12
2.49021e-12
2.49021e-12
2.49021e-12
2.49023e-12
2.49025e-12
2.4903e-12
2.49035e-12
2.49041e-12
2.49048e-12
2.49057e-12
2.49066e-12
2.49076e-12
2.49089e-12
2.491e-12
2.48999e-12
2.49e-12
2.49001e-12
2.49003e-12
2.49006e-12
2.4901e-12
2.49015e-12
2.49022e-12
2.49029e-12
2.49037e-12
2.49046e-12
2.49056e-12
2.49067e-12
2.49076e-12
2.48979e-12
2.48981e-12
2.48981e-12
2.48983e-12
2.48986e-12
2.48991e-12
2.48996e-12
2.49002e-12
2.49009e-12
2.49018e-12
2.49027e-12
2.49036e-12
2.49047e-12
2.49056e-12
2.4896e-12
2.48962e-12
2.48962e-12
2.48965e-12
2.48968e-12
2.48972e-12
2.48977e-12
2.48983e-12
2.48991e-12
2.48999e-12
2.49008e-12
2.49018e-12
2.49028e-12
2.49037e-12
2.48941e-12
2.48943e-12
2.48944e-12
2.48946e-12
2.48949e-12
2.48953e-12
2.48959e-12
2.48965e-12
2.48972e-12
2.48981e-12
2.4899e-12
2.49e-12
2.4901e-12
2.49019e-12
2.48924e-12
2.48925e-12
2.48926e-12
2.48928e-12
2.48932e-12
2.48936e-12
2.48941e-12
2.48948e-12
2.48955e-12
2.48963e-12
2.48972e-12
2.48982e-12
2.48992e-12
2.49002e-12
2.48906e-12
2.48907e-12
2.48908e-12
2.48911e-12
2.48914e-12
2.48919e-12
2.48924e-12
2.48931e-12
2.48938e-12
2.48947e-12
2.48956e-12
2.48966e-12
2.48975e-12
2.48985e-12
2.48889e-12
2.4889e-12
2.48892e-12
2.48894e-12
2.48898e-12
2.48903e-12
2.48908e-12
2.48915e-12
2.48923e-12
2.48931e-12
2.4894e-12
2.4895e-12
2.48959e-12
2.4897e-12
2.48873e-12
2.48874e-12
2.48876e-12
2.48878e-12
2.48882e-12
2.48887e-12
2.48893e-12
2.489e-12
2.48908e-12
2.48916e-12
2.48925e-12
2.48935e-12
2.48945e-12
2.48956e-12
2.48857e-12
2.48858e-12
2.48861e-12
2.48864e-12
2.48868e-12
2.48873e-12
2.48879e-12
2.48886e-12
2.48894e-12
2.48903e-12
2.48912e-12
2.48922e-12
2.48932e-12
2.48943e-12
2.48843e-12
2.48844e-12
2.48847e-12
2.4885e-12
2.48854e-12
2.4886e-12
2.48866e-12
2.48873e-12
2.48881e-12
2.4889e-12
2.489e-12
2.4891e-12
2.4892e-12
2.48931e-12
2.4883e-12
2.4883e-12
2.48833e-12
2.48837e-12
2.48841e-12
2.48847e-12
2.48854e-12
2.48861e-12
2.4887e-12
2.48879e-12
2.48889e-12
2.48899e-12
2.48909e-12
2.48921e-12
2.48817e-12
2.48818e-12
2.48821e-12
2.48825e-12
2.4883e-12
2.48836e-12
2.48843e-12
2.48851e-12
2.4886e-12
2.48869e-12
2.48879e-12
2.48891e-12
2.48902e-12
2.48913e-12
2.48804e-12
2.48805e-12
2.48809e-12
2.48814e-12
2.48819e-12
2.48826e-12
2.48833e-12
2.48841e-12
2.4885e-12
2.4886e-12
2.4887e-12
2.48881e-12
2.48892e-12
2.48905e-12
2.48621e-12
2.48629e-12
2.48635e-12
2.48643e-12
2.48651e-12
2.4866e-12
2.48669e-12
2.48678e-12
2.48689e-12
2.487e-12
2.48713e-12
2.48726e-12
2.48739e-12
2.48754e-12
2.48613e-12
2.48621e-12
2.48628e-12
2.48636e-12
2.48644e-12
2.48653e-12
2.48662e-12
2.48672e-12
2.48683e-12
2.48695e-12
2.48707e-12
2.4872e-12
2.48734e-12
2.48747e-12
2.48605e-12
2.48614e-12
2.4862e-12
2.48628e-12
2.48637e-12
2.48645e-12
2.48655e-12
2.48665e-12
2.48677e-12
2.48688e-12
2.48701e-12
2.48715e-12
2.48729e-12
2.48741e-12
2.48599e-12
2.48607e-12
2.48614e-12
2.48622e-12
2.4863e-12
2.48639e-12
2.48649e-12
2.48659e-12
2.4867e-12
2.48682e-12
2.48695e-12
2.48708e-12
2.48722e-12
2.48735e-12
2.48593e-12
2.48601e-12
2.48607e-12
2.48615e-12
2.48624e-12
2.48633e-12
2.48643e-12
2.48653e-12
2.48665e-12
2.48676e-12
2.48689e-12
2.48702e-12
2.48716e-12
2.48729e-12
2.48588e-12
2.48595e-12
2.48601e-12
2.4861e-12
2.48618e-12
2.48627e-12
2.48637e-12
2.48648e-12
2.48659e-12
2.48671e-12
2.48684e-12
2.48697e-12
2.4871e-12
2.48723e-12
2.48582e-12
2.48589e-12
2.48596e-12
2.48604e-12
2.48613e-12
2.48622e-12
2.48632e-12
2.48643e-12
2.48654e-12
2.48666e-12
2.48678e-12
2.48691e-12
2.48704e-12
2.48717e-12
2.48578e-12
2.48584e-12
2.48591e-12
2.48599e-12
2.48608e-12
2.48618e-12
2.48628e-12
2.48639e-12
2.4865e-12
2.48662e-12
2.48674e-12
2.48687e-12
2.48699e-12
2.48712e-12
2.48573e-12
2.4858e-12
2.48587e-12
2.48595e-12
2.48604e-12
2.48614e-12
2.48624e-12
2.48635e-12
2.48646e-12
2.48658e-12
2.4867e-12
2.48683e-12
2.48695e-12
2.48708e-12
2.4857e-12
2.48576e-12
2.48584e-12
2.48592e-12
2.48601e-12
2.4861e-12
2.48621e-12
2.48632e-12
2.48643e-12
2.48655e-12
2.48667e-12
2.48679e-12
2.48691e-12
2.48704e-12
2.48567e-12
2.48573e-12
2.48581e-12
2.48589e-12
2.48598e-12
2.48608e-12
2.48618e-12
2.48629e-12
2.48641e-12
2.48652e-12
2.48664e-12
2.48677e-12
2.48689e-12
2.48701e-12
2.48564e-12
2.48571e-12
2.48579e-12
2.48587e-12
2.48597e-12
2.48606e-12
2.48617e-12
2.48628e-12
2.48639e-12
2.48651e-12
2.48663e-12
2.48675e-12
2.48687e-12
2.48699e-12
2.48563e-12
2.4857e-12
2.48578e-12
2.48586e-12
2.48596e-12
2.48606e-12
2.48616e-12
2.48627e-12
2.48639e-12
2.4865e-12
2.48662e-12
2.48675e-12
2.48687e-12
2.48699e-12
2.48562e-12
2.48569e-12
2.48577e-12
2.48586e-12
2.48595e-12
2.48606e-12
2.48616e-12
2.48627e-12
2.48638e-12
2.4865e-12
2.48661e-12
2.48673e-12
2.48685e-12
2.48698e-12
2.48209e-12
2.48219e-12
2.48229e-12
2.4824e-12
2.4825e-12
2.48261e-12
2.48271e-12
2.48282e-12
2.48293e-12
2.48304e-12
2.48315e-12
2.48327e-12
2.4834e-12
2.48352e-12
2.48211e-12
2.48221e-12
2.48232e-12
2.48243e-12
2.48254e-12
2.48265e-12
2.48276e-12
2.48287e-12
2.48298e-12
2.4831e-12
2.48322e-12
2.48334e-12
2.48346e-12
2.48358e-12
2.48216e-12
2.48226e-12
2.48237e-12
2.48248e-12
2.48259e-12
2.4827e-12
2.48281e-12
2.48292e-12
2.48303e-12
2.48315e-12
2.48327e-12
2.48339e-12
2.48351e-12
2.48363e-12
2.4822e-12
2.4823e-12
2.48241e-12
2.48252e-12
2.48263e-12
2.48274e-12
2.48286e-12
2.48297e-12
2.48309e-12
2.4832e-12
2.48332e-12
2.48345e-12
2.48357e-12
2.48369e-12
2.48225e-12
2.48235e-12
2.48246e-12
2.48257e-12
2.48268e-12
2.48279e-12
2.4829e-12
2.48302e-12
2.48313e-12
2.48325e-12
2.48337e-12
2.48349e-12
2.48362e-12
2.48374e-12
2.48229e-12
2.4824e-12
2.4825e-12
2.48261e-12
2.48272e-12
2.48283e-12
2.48295e-12
2.48307e-12
2.48318e-12
2.4833e-12
2.48342e-12
2.48354e-12
2.48366e-12
2.48379e-12
2.48234e-12
2.48244e-12
2.48255e-12
2.48266e-12
2.48277e-12
2.48288e-12
2.483e-12
2.48311e-12
2.48323e-12
2.48335e-12
2.48347e-12
2.48359e-12
2.48371e-12
2.48383e-12
2.48238e-12
2.48249e-12
2.4826e-12
2.48271e-12
2.48282e-12
2.48293e-12
2.48304e-12
2.48316e-12
2.48328e-12
2.48339e-12
2.48351e-12
2.48363e-12
2.48375e-12
2.48387e-12
2.48243e-12
2.48254e-12
2.48264e-12
2.48275e-12
2.48286e-12
2.48298e-12
2.48309e-12
2.48321e-12
2.48333e-12
2.48344e-12
2.48356e-12
2.48367e-12
2.48379e-12
2.48391e-12
2.48249e-12
2.48259e-12
2.4827e-12
2.48281e-12
2.48292e-12
2.48303e-12
2.48314e-12
2.48326e-12
2.48338e-12
2.48349e-12
2.48361e-12
2.48372e-12
2.48383e-12
2.48394e-12
2.48254e-12
2.48264e-12
2.48275e-12
2.48286e-12
2.48297e-12
2.48309e-12
2.4832e-12
2.48331e-12
2.48343e-12
2.48354e-12
2.48365e-12
2.48376e-12
2.48388e-12
2.48398e-12
2.4826e-12
2.4827e-12
2.48281e-12
2.48292e-12
2.48303e-12
2.48315e-12
2.48326e-12
2.48337e-12
2.48348e-12
2.48359e-12
2.4837e-12
2.48381e-12
2.48392e-12
2.48402e-12
2.48266e-12
2.48276e-12
2.48287e-12
2.48298e-12
2.48309e-12
2.48321e-12
2.48332e-12
2.48343e-12
2.48354e-12
2.48365e-12
2.48376e-12
2.48386e-12
2.48397e-12
2.48408e-12
2.48272e-12
2.48283e-12
2.48294e-12
2.48305e-12
2.48316e-12
2.48327e-12
2.48338e-12
2.48349e-12
2.4836e-12
2.4837e-12
2.48381e-12
2.48391e-12
2.48401e-12
2.48413e-12
2.47789e-12
2.47798e-12
2.47808e-12
2.47818e-12
2.47828e-12
2.47838e-12
2.47848e-12
2.47857e-12
2.47866e-12
2.47874e-12
2.47883e-12
2.47891e-12
2.47899e-12
2.47908e-12
2.47798e-12
2.47808e-12
2.47818e-12
2.47829e-12
2.47839e-12
2.4785e-12
2.4786e-12
2.47869e-12
2.47878e-12
2.47887e-12
2.47896e-12
2.47904e-12
2.47912e-12
2.47921e-12
2.4781e-12
2.47819e-12
2.4783e-12
2.47841e-12
2.47852e-12
2.47862e-12
2.47872e-12
2.47881e-12
2.4789e-12
2.47899e-12
2.47908e-12
2.47916e-12
2.47925e-12
2.47933e-12
2.4782e-12
2.4783e-12
2.47842e-12
2.47852e-12
2.47863e-12
2.47873e-12
2.47883e-12
2.47893e-12
2.47902e-12
2.47911e-12
2.4792e-12
2.47929e-12
2.47937e-12
2.47946e-12
2.47831e-12
2.47842e-12
2.47853e-12
2.47864e-12
2.47874e-12
2.47885e-12
2.47895e-12
2.47905e-12
2.47914e-12
2.47923e-12
2.47932e-12
2.4794e-12
2.47949e-12
2.47957e-12
2.47842e-12
2.47853e-12
2.47864e-12
2.47875e-12
2.47885e-12
2.47896e-12
2.47906e-12
2.47916e-12
2.47925e-12
2.47934e-12
2.47943e-12
2.47952e-12
2.4796e-12
2.47968e-12
2.47852e-12
2.47863e-12
2.47875e-12
2.47885e-12
2.47896e-12
2.47906e-12
2.47917e-12
2.47926e-12
2.47936e-12
2.47945e-12
2.47954e-12
2.47962e-12
2.47971e-12
2.47979e-12
2.47862e-12
2.47874e-12
2.47885e-12
2.47896e-12
2.47907e-12
2.47917e-12
2.47927e-12
2.47937e-12
2.47946e-12
2.47955e-12
2.47964e-12
2.47972e-12
2.47981e-12
2.47989e-12
2.47872e-12
2.47884e-12
2.47895e-12
2.47906e-12
2.47917e-12
2.47927e-12
2.47937e-12
2.47947e-12
2.47956e-12
2.47965e-12
2.47974e-12
2.47982e-12
2.4799e-12
2.47998e-12
2.47882e-12
2.47894e-12
2.47905e-12
2.47916e-12
2.47927e-12
2.47937e-12
2.47947e-12
2.47956e-12
2.47966e-12
2.47974e-12
2.47983e-12
2.47991e-12
2.47999e-12
2.48007e-12
2.47892e-12
2.47904e-12
2.47915e-12
2.47926e-12
2.47936e-12
2.47947e-12
2.47956e-12
2.47966e-12
2.47975e-12
2.47984e-12
2.47992e-12
2.48e-12
2.48008e-12
2.48016e-12
2.47902e-12
2.47914e-12
2.47924e-12
2.47936e-12
2.47946e-12
2.47956e-12
2.47966e-12
2.47975e-12
2.47984e-12
2.47992e-12
2.48e-12
2.48008e-12
2.48016e-12
2.48023e-12
2.47912e-12
2.47924e-12
2.47934e-12
2.47945e-12
2.47955e-12
2.47965e-12
2.47975e-12
2.47984e-12
2.47993e-12
2.48001e-12
2.48009e-12
2.48016e-12
2.48024e-12
2.48031e-12
2.47923e-12
2.47934e-12
2.47944e-12
2.47955e-12
2.47965e-12
2.47975e-12
2.47984e-12
2.47993e-12