/*--------------------------------*- C++ -*----------------------------------*\
| =========                 |                                                 |
| \\      /  F ield         | OpenFOAM: The Open Source CFD Toolbox           |
|  \\    /   O peration     | Version:  v2106                                 |
|   \\  /    A nd           | Website:  www.openfoam.com                      |
|    \\/     M anipulation  |                                                 |
\*---------------------------------------------------------------------------*/
FoamFile
{
    version     2.0;
    format      ascii;
    arch        "LSB;label=32;scalar=64";
    class       volScalarField;
    location    "0.000162";
    object      k;
}
// * * * * * * * * * * * * * * * * * * * * * * * * * * * * * * * * * * * * * //

dimensions      [0 2 -2 0 0 0 0];

internalField   nonuniform List<scalar> 
144746
(
5.14518
4.23563
3.57701
3.06181
2.84141
2.84001
3.01175
3.28579
3.65168
4.035
4.3293
4.49192
4.68414
5.2046
4.87583
3.74454
2.75767
1.87419
1.3648
1.20938
1.3124
1.59546
1.9947
2.45419
2.89524
3.25787
3.66544
4.382
4.98888
3.57318
2.25353
1.17611
0.60231
0.408339
0.440858
0.636307
0.967397
1.39571
1.86095
2.36429
3.04098
4.05332
5.1163
3.25619
1.67799
0.648866
0.233282
0.111195
0.117347
0.21694
0.420754
0.739397
1.17053
1.76763
2.6952
4.05219
5.11862
2.71845
1.0878
0.327545
0.107051
0.0416103
0.0383389
0.0831661
0.195533
0.418693
0.824934
1.54554
2.73493
4.41143
5.03087
2.22263
0.748009
0.267782
0.116278
0.0505092
0.0376065
0.0655781
0.152212
0.359049
0.805783
1.66159
3.04186
4.89582
4.99055
1.9759
0.739073
0.371963
0.196628
0.105981
0.0854066
0.125264
0.245906
0.518814
1.0654
2.02701
3.46366
5.31608
5.14477
2.06615
1.01025
0.62077
0.383308
0.243973
0.207811
0.274782
0.462653
0.832327
1.46933
2.46382
3.84493
5.55255
5.72462
2.44102
1.50094
1.06614
0.755737
0.538847
0.458142
0.538309
0.786874
1.22748
1.8984
2.87186
4.14988
5.65387
6.47691
3.32753
2.23973
1.80784
1.45518
1.14689
0.962925
0.983914
1.22993
1.69655
2.3546
3.32979
4.47499
5.64933
7.04035
4.30398
3.22923
2.91784
2.68127
2.36396
2.06213
1.93999
2.05898
2.51235
3.10445
3.91205
4.76839
5.70218
7.43447
5.28216
4.38198
4.29052
4.44635
4.4312
4.23641
4.0973
3.99622
4.17186
4.4282
4.88913
5.39606
6.123
7.87676
6.07204
5.34299
5.44569
6.04404
6.71724
7.11022
7.31496
7.22952
7.05893
6.73899
6.61406
6.67782
7.12928
8.53993
6.90487
6.27387
6.39469
7.02721
8.0514
9.18567
9.96673
10.3374
10.283
9.76231
9.04861
8.67866
8.94005
5.31637
4.61249
4.2317
4.03366
4.0999
4.15518
4.11379
4.01352
3.96589
4.0063
4.1251
4.32751
4.70889
5.48124
4.50829
3.45975
2.69675
2.09887
1.84646
1.80955
1.88404
2.03993
2.24937
2.51852
2.8466
3.26083
3.92038
5.04922
4.12268
2.84405
1.83343
1.07224
0.684715
0.576599
0.636646
0.818193
1.09629
1.46717
1.92423
2.55489
3.57049
5.10243
3.92622
2.41205
1.25554
0.522785
0.216597
0.134574
0.16038
0.269782
0.472953
0.796692
1.28503
2.08191
3.43602
5.41009
3.87298
2.03514
0.824256
0.253813
0.0804039
0.034877
0.0418302
0.0939883
0.216623
0.470166
0.979504
1.96613
3.6299
5.92528
3.98063
1.77658
0.594364
0.200859
0.0778981
0.0325429
0.029324
0.0625535
0.161541
0.412627
0.986256
2.10876
3.88668
6.19112
4.32188
1.71544
0.60156
0.273647
0.133107
0.0702023
0.0637488
0.109806
0.243689
0.562298
1.22158
2.37808
4.05011
6.13371
4.94272
1.91682
0.822862
0.460517
0.271122
0.173369
0.161636
0.23851
0.437065
0.839268
1.54586
2.63367
4.08474
5.83578
5.893
2.36536
1.22617
0.805034
0.555088
0.403344
0.369577
0.47232
0.728925
1.18043
1.87161
2.86085
4.1031
5.57337
7.14089
3.2888
1.84546
1.38487
1.09281
0.881433
0.792252
0.872893
1.13745
1.60487
2.25651
3.22676
4.32063
5.47372
7.97495
4.37847
2.72045
2.23247
2.01198
1.81623
1.6927
1.72505
1.93409
2.4266
3.03381
3.9044
4.7472
5.70644
8.50367
5.55007
3.97657
3.46008
3.40588
3.39398
3.40701
3.57799
3.79224
4.21115
4.57844
5.14184
5.67105
6.41044
8.98363
6.57565
5.1532
4.65135
4.80882
5.23567
5.74615
6.38396
6.87913
7.255
7.21778
7.22507
7.28581
7.65566
9.52042
7.58585
6.37545
5.85882
6.03582
6.80256
7.98989
9.18423
10.1401
10.7678
10.6926
10.0818
9.59989
9.57195
5.92844
5.3361
5.24559
5.33817
5.56788
5.43756
4.98796
4.34582
3.81382
3.56753
3.64974
4.09529
4.90735
6.0403
4.46514
3.44142
2.92104
2.6022
2.60903
2.6155
2.53578
2.38009
2.27693
2.3157
2.55984
3.15251
4.21184
5.79333
3.41715
2.26098
1.54603
1.08292
0.907252
0.882065
0.918792
0.978467
1.0885
1.34419
1.80115
2.63885
4.0702
6.11907
2.83953
1.64086
0.860214
0.419168
0.242138
0.203103
0.234092
0.312861
0.455629
0.73788
1.26848
2.28991
4.08653
6.57586
2.69727
1.37448
0.546155
0.180684
0.064747
0.0374103
0.04905
0.0953317
0.202147
0.452645
1.03824
2.26898
4.34069
6.95982
2.88098
1.30241
0.42599
0.134801
0.0453869
0.017877
0.0197552
0.0500144
0.143517
0.405561
1.0572
2.37412
4.39231
6.74755
3.40048
1.38714
0.449134
0.176794
0.0743392
0.0361448
0.0368145
0.0770323
0.199643
0.517424
1.21662
2.46206
4.18726
6.11174
4.28656
1.66749
0.60863
0.297184
0.15857
0.0977146
0.0985867
0.1649
0.336776
0.709107
1.40259
2.47172
3.81977
5.30518
5.58296
2.18614
0.90746
0.528223
0.341845
0.24685
0.240852
0.336294
0.555281
0.953568
1.58994
2.48666
3.55611
4.78814
7.16325
3.15914
1.38541
0.928517
0.699076
0.567359
0.538617
0.642218
0.884465
1.28767
1.87476
2.72156
3.70042
4.87778
8.15806
4.228
2.08074
1.5421
1.33067
1.20478
1.17699
1.29691
1.56267
2.00599
2.57391
3.537
4.39178
5.48371
8.7795
5.54453
3.4157
2.52664
2.31751
2.2827
2.39392
2.6915
3.1165
3.71525
4.20766
4.99857
5.6704
6.61907
9.34913
6.78957
4.78063
3.68501
3.45418
3.60353
4.06319
4.8357
5.69444
6.54996
6.84899
7.18189
7.41066
7.98582
9.86474
8.13235
6.44264
5.24028
4.77926
4.96869
5.80938
7.09481
8.43809
9.664
10.1208
9.83979
9.51339
9.48005
6.32539
8.44201
13.017
25.0894
57.0344
14.7563
5.55118
7.37519
11.094
20.9758
47.398
13.544
5.38052
7.20422
10.4859
18.8526
41.9293
12.808
5.71036
7.75725
10.9885
18.4209
37.6081
12.3071
6.33488
8.57058
11.8064
18.6294
34.9351
12.1382
6.91052
9.17888
12.3493
18.7876
33.3236
12.4807
7.15821
9.22158
12.1556
18.3401
33.2525
13.5035
7.00618
8.77662
11.482
17.6505
34.5884
15.3792
6.70234
8.19605
10.7692
17.0361
36.456
18.198
6.49075
7.71324
10.0698
16.2712
38.8697
21.134
6.47432
7.48958
9.63821
15.8699
41.6473
23.7347
6.82836
7.81526
10.0309
16.5643
45.0656
25.6091
7.78478
8.95792
11.6746
19.0617
49.3078
26.0457
9.43181
11.123
14.9145
23.9104
53.0134
23.0105
6.84721
8.65058
11.8739
19.328
37.6844
17.2775
6.65911
8.51466
11.4391
17.42
31.0408
16.2867
7.01554
9.1821
12.1085
17.2285
27.9826
15.8207
7.80382
10.3692
13.465
18.1936
26.3916
15.6467
8.52192
11.2211
14.4158
19.2331
26.4368
15.9092
8.64721
11.2726
14.4977
19.7547
27.5165
16.9849
8.20046
10.5049
13.5155
19.3024
30.1663
18.851
7.35594
9.18628
11.8305
17.8519
33.0062
21.292
6.62845
8.00036
10.2519
15.8577
34.1707
23.9271
6.28141
7.25708
9.0784
14.0326
33.8085
26.0935
6.39374
7.12979
8.64994
13.1539
33.2452
27.2486
7.00652
7.72364
9.22914
13.6181
33.7284
27.3538
8.1835
9.06841
10.9152
15.6227
35.6252
26.4066
9.93888
11.2314
13.7703
19.2687
37.7828
23.6007
7.56628
9.00583
10.654
13.2598
17.8778
19.3365
7.71419
9.43597
11.2868
13.6816
17.8823
19.8887
8.38164
10.5205
12.6098
14.8983
18.3228
21.2016
9.23823
11.7941
14.1449
16.4617
19.4737
22.888
9.59531
12.3035
14.7373
17.248
20.4567
24.5276
9.09501
11.6067
13.9454
16.7051
20.4542
25.8004
7.99363
10.043
12.1337
15.1862
20.3982
26.4726
6.68506
8.23296
10.0443
13.2969
20.4266
26.4673
5.79831
6.83859
8.36807
11.5305
20.0089
25.803
5.61628
6.24238
7.4746
10.2935
19.0195
24.7767
6.087
6.54086
7.52439
9.96176
18.234
23.7051
7.04553
7.50076
8.39995
10.5777
18.0989
22.92
8.29261
8.89676
9.8984
11.9631
18.8218
22.6036
9.69204
10.5741
11.8629
14.0074
20.3235
22.8269
11.5965
14.5404
19.9924
30.3091
50.9284
14.1158
11.1197
13.5817
17.6946
25.4186
40.3071
12.9554
11.4813
13.4792
16.6254
22.9575
34.4796
12.279
12.0078
13.3626
15.6508
21.1783
30.7802
12.3333
11.9165
12.5169
14.193
19.4588
29.6071
13.2655
11.2492
11.2794
12.6701
17.8752
30.2075
15.0398
10.1306
10.0339
11.4424
16.5115
31.7166
17.576
8.9785
9.13831
10.609
15.3571
32.7972
20.7918
8.08936
8.50266
9.93603
14.4851
33.3692
24.2246
7.40748
7.90683
9.33381
13.9824
34.7077
27.2938
6.92153
7.5636
9.1823
14.3342
37.8268
29.8212
6.9165
7.83011
9.89064
16.0392
43.7227
31.5756
7.66535
8.9599
11.8184
19.6458
51.6858
31.6449
9.20381
11.1828
15.3806
25.5043
58.9883
27.4764
12.1649
14.3134
17.6552
23.5934
35.739
18.4525
12.1707
14.1474
16.6237
20.8719
28.8957
17.8403
12.8419
14.5555
16.331
19.8028
25.9969
17.9286
13.3562
14.5014
15.6375
18.765
24.1153
19.0599
12.8869
13.3819
14.1011
17.4346
24.5195
20.84
11.7372
11.7413
12.3318
16.0108
25.8882
23.1143
10.1819
10.1012
10.853
14.6194
26.9152
25.554
8.60691
8.83703
9.85951
13.4403
26.6459
27.7184
7.40717
7.93381
9.11689
12.5244
26.0166
29.2044
6.77163
7.41121
8.69136
12.151
26.0542
30.1052
6.69551
7.44616
8.87704
12.6391
27.8014
30.6002
7.21206
8.13612
9.85995
14.2222
31.7984
30.6898
8.36746
9.56212
11.8759
17.2521
37.4464
29.8119
10.1446
11.9241
15.1721
21.7173
42.3867
26.5148
11.3841
12.7402
14.2135
16.3952
21.2818
23.3031
11.5587
13.0935
14.4395
15.9835
19.5364
23.9528
12.2131
13.7987
14.7355
15.7519
18.7692
25.0348
12.5907
13.8097
14.1965
14.8099
17.723
26.3155
11.8076
12.7041
12.6867
13.321
17.0751
27.4221
10.4047
11.033
11.0413
11.9745
16.6246
28.0265
8.72273
9.2607
9.65901
11.0244
16.4
27.8383
7.0907
7.76571
8.71814
10.6199
16.2378
26.8761
6.02383
6.89197
8.20824
10.5829
16.2493
25.9151
5.87566
6.79657
8.21798
10.8688
16.7888
25.337
6.50199
7.41411
8.82442
11.5525
18.0123
25.1935
7.50296
8.45877
9.89474
12.6587
19.9845
25.2591
8.77896
9.81135
11.4613
14.3465
22.2461
25.2604
10.2761
11.5892
13.605
16.666
24.8146
25.2082
24.878
49.2289
16.5887
9.0185
6.57567
5.52705
26.6509
37.5771
13.1923
7.93976
6.23221
5.40118
26.3017
30.3453
11.9861
7.95354
6.51351
5.70846
25.22
27.0136
12.0154
8.60098
7.2087
6.24605
23.7638
25.3787
12.6564
9.56642
8.20332
6.95015
22.0388
24.5691
13.3843
10.5984
9.42458
7.77888
20.1233
24.1811
13.9451
11.5607
10.8115
8.68438
18.0496
24.606
14.72
12.5604
12.157
9.56448
16.2082
25.5281
16.2313
13.773
13.238
10.3804
14.7737
27.4865
18.4057
15.0313
13.7889
10.658
13.8975
30.9838
21.0656
16.2602
13.9611
10.7081
13.7141
37.2083
23.6487
17.031
13.6645
10.4331
14.4155
44.4034
26.9091
18.1924
13.6786
10.5026
15.9256
58.1955
32.844
20.9008
14.7924
11.287
23.938
36.1512
14.524
8.95808
6.8559
5.75884
25.3376
27.9455
11.661
7.55217
6.01694
5.13217
25.6894
23.0662
10.6345
7.25911
5.84505
4.95539
25.7289
21.0238
10.7346
7.68654
6.17184
5.08515
25.5732
20.4901
11.5359
8.73942
7.07785
5.59239
25.1365
20.4403
12.5409
10.1812
8.55639
6.50891
24.3773
20.4661
13.404
11.7393
10.4624
7.78719
23.2395
20.5235
14.2263
13.3429
12.4936
9.23273
21.8069
20.5055
15.3608
14.9509
14.3078
10.7808
20.4528
20.8693
16.9826
16.5043
15.5317
11.8122
19.4304
22.3135
19.1266
17.8178
16.1267
12.3936
18.8099
26.3584
21.1695
18.2656
15.7547
12.1485
18.9283
31.5981
23.1146
18.4486
15.1714
11.9808
19.8292
40.7738
26.6552
19.7152
15.4704
12.4022
21.9097
19.8536
12.5204
9.39376
7.59262
6.37544
21.8408
17.8562
10.7672
7.77369
6.26506
5.23622
21.7827
16.1828
10.0108
7.00888
5.50654
4.46458
21.7284
15.2495
9.96253
6.89183
5.19547
4.06564
21.951
14.8058
10.4434
7.52713
5.5193
4.12451
22.6068
14.5663
11.1437
8.87787
6.6705
4.75007
23.7173
14.3535
11.7661
10.62
8.56485
5.96109
25.0728
14.1221
12.3176
12.4074
10.7612
7.60046
26.0249
14.1029
13.063
13.9152
12.7323
9.50321
26.1121
14.8284
14.1394
15.2173
14.2354
11.0837
25.6448
16.1128
15.5938
16.3881
15.2304
12.1707
25.075
18.3057
17.0046
16.7789
15.0348
12.0338
24.7266
21.1596
18.0033
16.3988
14.3012
11.8383
24.7008
25.2478
19.3196
16.4097
14.1341
12.0519
22.8456
51.9512
18.5729
9.8991
6.92561
5.65521
24.5536
44.589
15.4652
8.69476
6.39406
5.32842
24.2542
39.5463
14.6758
8.72157
6.49847
5.35275
22.9641
36.4433
15.1913
9.50475
6.9743
5.51312
21.1504
34.2851
16.2425
10.6119
7.6578
5.66771
19.032
32.8388
17.29
11.7124
8.33587
5.73688
16.9748
32.0897
18.2527
12.7004
8.79901
5.68241
15.5221
32.1378
19.023
13.2101
8.90976
5.5392
14.5979
33.6226
19.2411
12.9276
8.56885
5.26689
14.1369
36.5886
18.5456
11.8378
7.83444
4.94287
14.1065
40.103
18.0362
10.6783
7.1283
4.77071
14.479
45.0041
18.0607
9.89677
6.70588
4.82585
15.2556
49.7306
19.924
10.2838
6.90372
5.20008
16.6723
59.1044
23.3395
11.7765
7.78358
5.95016
22.2717
35.5032
14.6339
9.04555
6.91674
5.86369
24.3477
31.6848
12.3114
7.73321
6.07753
5.22852
25.3253
29.9817
11.9028
7.58142
5.93075
5.03591
25.4039
30.0095
12.9073
8.37963
6.33538
5.1275
24.6785
30.6367
14.8797
9.95721
7.292
5.46436
23.1617
30.8382
17.2136
12.0261
8.65751
6.00332
21.2757
29.6009
19.3846
14.2486
10.1127
6.62667
19.5414
27.2074
20.8688
16.0384
11.2435
7.18288
18.1915
26.1678
21.5034
16.5819
11.5979
7.39016
17.376
27.521
20.9457
15.7938
11.113
7.16801
17.1528
29.6719
19.7427
14.2176
10.0285
6.66861
17.3907
32.5584
18.4718
12.4533
8.91021
6.29689
17.9553
35.9369
18.474
11.6498
8.39256
6.29115
19.0737
42.6348
19.8333
11.8099
8.52537
6.645
19.2461
17.0118
10.8594
8.51124
7.21481
6.31463
19.5766
15.9057
9.43437
7.14797
6.05853
5.35658
20.5147
16.2036
8.99823
6.52216
5.39782
4.73573
21.7488
16.6644
9.60436
6.71924
5.28459
4.46928
23.2201
17.442
11.033
7.87301
5.91669
4.64761
24.7026
18.3538
12.8935
9.84643
7.3657
5.3617
25.8836
18.7902
14.7843
12.1796
9.28688
6.51509
26.4093
19.0142
16.5251
14.3499
11.164
7.79252
26.2594
19.6755
17.9227
15.865
12.4557
8.69729
25.5943
20.6692
18.6129
16.317
12.8257
9.03407
24.5299
21.1207
18.0723
15.4242
12.1216
8.6822
23.3524
20.8519
16.6283
13.7095
10.856
8.02036
22.3665
20.9805
15.5908
12.4387
9.94704
7.66773
22.01
21.6608
15.4435
11.9606
9.68743
7.77855
5.65521
4.87249
4.68667
4.72642
4.85854
4.71481
4.32607
3.76555
3.19886
2.87003
2.93519
3.5341
4.58909
5.80079
3.96946
2.86119
2.41735
2.23064
2.29397
2.32099
2.25789
2.07959
1.86345
1.74232
1.90502
2.51286
3.64328
5.23364
2.65309
1.57097
1.04894
0.803361
0.767924
0.794221
0.830896
0.835353
0.830235
0.897773
1.23336
2.00283
3.37752
5.33088
2.00921
0.99756
0.468519
0.245253
0.182597
0.180424
0.206201
0.243919
0.305708
0.451003
0.830782
1.68322
3.27768
5.55639
1.94843
0.872183
0.29545
0.0940847
0.0392869
0.0287557
0.0366404
0.0602857
0.117192
0.268724
0.678195
1.64234
3.39895
5.74072
2.21102
0.917702
0.26403
0.0725161
0.0210558
0.0077284
0.00890301
0.0239995
0.0760037
0.240747
0.695744
1.70942
3.40773
5.5025
2.67576
1.03529
0.290209
0.0911385
0.0311875
0.0129966
0.0133665
0.0324598
0.0993454
0.297935
0.790744
1.7681
3.2472
4.9529
3.3682
1.25801
0.373297
0.14871
0.068012
0.0388135
0.0392648
0.0702162
0.16236
0.393529
0.89001
1.75983
2.94749
4.25332
4.30369
1.65521
0.528035
0.267815
0.15991
0.113269
0.111633
0.158981
0.279004
0.529609
0.995192
1.72932
2.66631
3.69875
5.31118
2.32699
0.796752
0.4882
0.358566
0.296156
0.290091
0.350013
0.490077
0.746682
1.17025
1.80531
2.61307
3.62675
6.12983
3.02032
1.25168
0.874097
0.742458
0.692331
0.700151
0.778779
0.942105
1.21733
1.63793
2.29747
3.09209
4.37643
6.92569
4.19333
2.24425
1.52158
1.4091
1.42242
1.52401
1.69906
1.95862
2.32655
2.77595
3.55614
4.3776
5.8052
7.81045
5.51259
3.47608
2.44071
2.31551
2.45438
2.77914
3.22519
3.7522
4.35274
4.8376
5.48571
6.08472
7.37776
8.89914
7.37531
5.4414
3.99602
3.4545
3.56157
4.12672
4.97238
5.90342
6.83799
7.39861
7.66954
7.88254
8.53046
4.21398
3.33628
3.08293
3.06459
3.20087
3.24675
3.15747
2.90368
2.56761
2.27196
2.2314
2.65021
3.57922
4.61906
2.87762
1.85905
1.45644
1.31807
1.36731
1.44329
1.50504
1.47926
1.38931
1.28904
1.33678
1.72911
2.57205
3.80436
1.88484
0.99328
0.584816
0.431616
0.412378
0.442987
0.497818
0.538601
0.564096
0.605874
0.772011
1.25334
2.2047
3.68895
1.51557
0.667997
0.264296
0.124414
0.0890655
0.0904064
0.11012
0.138827
0.182627
0.269761
0.479585
0.986884
2.03531
3.7273
1.55682
0.625137
0.186633
0.0534971
0.0199092
0.0135217
0.0175753
0.0305905
0.0623817
0.145062
0.368692
0.936372
2.10544
3.88834
1.77292
0.663519
0.177454
0.0457405
0.012326
0.00401809
0.00421761
0.0116262
0.0379971
0.12417
0.378321
1.00554
2.20081
3.87931
2.06681
0.730319
0.194854
0.0560843
0.0175955
0.00691263
0.00673191
0.015845
0.0494741
0.156857
0.452158
1.10943
2.23739
3.6838
2.48405
0.857584
0.244435
0.0887698
0.037419
0.0208509
0.0209275
0.0362069
0.084699
0.218621
0.54123
1.17918
2.16224
3.334
2.99561
1.08792
0.337176
0.160989
0.0910877
0.063855
0.0634468
0.0889993
0.157714
0.315091
0.640978
1.21729
2.03159
2.95885
3.62414
1.45484
0.502621
0.304951
0.218778
0.178718
0.174839
0.209508
0.295895
0.466505
0.773833
1.27143
1.95431
2.75902
4.20556
1.89207
0.802446
0.574785
0.490757
0.451194
0.448451
0.489395
0.587537
0.766794
1.06222
1.53092
2.17917
3.09755
4.98388
2.76882
1.41426
1.0552
0.997194
1.00344
1.04391
1.12106
1.25066
1.46497
1.78705
2.32268
3.01261
4.33424
5.9516
3.87206
2.32897
1.7867
1.7679
1.88574
2.06484
2.28492
2.54107
2.86199
3.21598
3.81454
4.51494
6.06645
7.39922
5.82472
3.96954
2.93176
2.73772
2.94466
3.33267
3.81295
4.31798
4.84627
5.27315
5.70828
6.16623
7.3381
2.44586
1.69602
1.4622
1.41572
1.51258
1.64619
1.76837
1.78728
1.71268
1.58614
1.49094
1.60132
2.13069
2.89229
1.62962
0.897164
0.618843
0.536863
0.559267
0.626936
0.721075
0.787675
0.813225
0.799493
0.802441
0.952138
1.3926
2.12023
1.1407
0.511464
0.242631
0.162029
0.152299
0.171919
0.210687
0.251413
0.288566
0.326393
0.402601
0.610883
1.08442
1.90174
1.0547
0.399508
0.126319
0.0493116
0.0321418
0.0330527
0.0430525
0.0588107
0.0828302
0.126268
0.220412
0.437622
0.918754
1.81877
1.1121
0.383663
0.102132
0.0269118
0.008793
0.00516142
0.00668251
0.0123302
0.0262693
0.0615416
0.153341
0.389014
0.929435
1.93024
1.19418
0.387718
0.0996326
0.0249408
0.00638296
0.00184919
0.00167056
0.00459331
0.0151646
0.0497071
0.153952
0.429326
1.02922
2.06827
1.29065
0.403571
0.10726
0.0290532
0.00846051
0.00310755
0.00278906
0.00623427
0.0195205
0.0638684
0.193884
0.514178
1.15414
2.16487
1.43935
0.449718
0.130316
0.04346
0.0170308
0.00946137
0.00937082
0.0153695
0.0354415
0.0949686
0.25222
0.60395
1.24059
2.1595
1.64118
0.534812
0.176309
0.0786849
0.0425389
0.0303514
0.0302933
0.0410603
0.0716608
0.148572
0.326763
0.686573
1.28251
2.08085
1.95374
0.673902
0.268787
0.157994
0.110106
0.0896359
0.0871882
0.102795
0.14481
0.236399
0.422526
0.764185
1.29805
1.99102
2.27342
0.877766
0.448043
0.32838
0.272199
0.242215
0.233222
0.248726
0.298221
0.399453
0.584024
0.903024
1.39074
2.04384
2.82443
1.36914
0.798913
0.665222
0.615625
0.589244
0.579508
0.592567
0.643727
0.756381
0.950498
1.27652
1.76671
2.52153
3.5583
2.14926
1.40778
1.23502
1.22378
1.24369
1.27286
1.31192
1.37754
1.50824
1.72048
2.10084
2.61455
3.73729
4.99816
3.66753
2.42715
2.08425
2.09218
2.21011
2.36128
2.5112
2.65507
2.82483
3.01837
3.38021
3.84317
5.09553
1.20488
0.729964
0.561686
0.505599
0.532605
0.608346
0.719929
0.820057
0.888255
0.906617
0.901887
0.904832
1.06569
1.42356
0.860595
0.395425
0.222213
0.172263
0.170747
0.193652
0.237409
0.285763
0.329855
0.363114
0.393436
0.45037
0.633428
0.984439
0.720038
0.261729
0.091117
0.0486393
0.04123
0.0451642
0.0568107
0.072472
0.090797
0.114145
0.155563
0.246576
0.444367
0.795406
0.711576
0.225692
0.0566618
0.0169778
0.00855293
0.00759188
0.00965824
0.0137891
0.0212075
0.0369409
0.0736218
0.157093
0.33687
0.685009
0.699342
0.206261
0.0498086
0.0123116
0.00337695
0.00131295
0.00133948
0.00262717
0.00648677
0.0176024
0.0480791
0.126741
0.314053
0.708281
0.680255
0.193477
0.0487666
0.0121439
0.00295395
0.000711855
0.000416167
0.00109916
0.00396859
0.0139842
0.0456952
0.135552
0.357315
0.818942
0.664913
0.192687
0.051827
0.0133841
0.00357625
0.00116994
0.000867416
0.00165398
0.00508523
0.0175971
0.0582114
0.172409
0.442547
0.968229
0.688516
0.212392
0.0613565
0.0184916
0.00656951
0.00352373
0.00331701
0.00475329
0.0100555
0.0278372
0.0820854
0.225298
0.538932
1.10256
0.764253
0.250177
0.0812782
0.0326851
0.0164979
0.0119018
0.0118153
0.0147671
0.0237074
0.0494272
0.119612
0.289655
0.633867
1.20484
0.907905
0.305247
0.128461
0.0702014
0.0464455
0.0377096
0.0366812
0.0418144
0.0563799
0.0921591
0.177876
0.366505
0.72093
1.27189
1.05937
0.407237
0.23518
0.165256
0.129073
0.110454
0.104183
0.109529
0.130327
0.177462
0.27525
0.471921
0.821278
1.34323
1.36521
0.651337
0.460902
0.382184
0.330915
0.295212
0.275073
0.272475
0.294239
0.351201
0.45796
0.652308
0.98424
1.48243
1.8007
1.12456
0.892521
0.80296
0.748979
0.700869
0.661178
0.637457
0.644449
0.701077
0.816747
1.02338
1.3466
1.90723
2.7631
2.01426
1.57441
1.48418
1.46071
1.44017
1.40336
1.35713
1.32829
1.35966
1.46101
1.69014
1.98405
2.67253
0.652653
0.32361
0.205395
0.161891
0.158185
0.180248
0.229729
0.294332
0.365959
0.42997
0.473915
0.492358
0.539735
0.684483
0.520003
0.189907
0.0750978
0.0467609
0.0423109
0.0469422
0.0604488
0.0806337
0.105999
0.133983
0.162501
0.196547
0.270501
0.440403
0.467924
0.140618
0.0335519
0.0119397
0.00840381
0.00883214
0.0114828
0.0159181
0.0223546
0.0320924
0.0494792
0.0861522
0.165426
0.318072
0.446534
0.121943
0.0248124
0.00554125
0.00187516
0.00125007
0.00152465
0.00233905
0.00413083
0.00862264
0.0203032
0.0488012
0.111728
0.238582
0.405774
0.104698
0.023055
0.00526906
0.0012459
0.000310887
0.000187007
0.000391543
0.00121613
0.00399386
0.0123741
0.0350418
0.0913322
0.221523
0.360618
0.0919002
0.0223687
0.00531076
0.00121344
0.000257937
9.51997e-05
0.000206487
0.000810605
0.00311856
0.0109074
0.0345841
0.0998616
0.261156
0.324748
0.0881892
0.0232902
0.0056014
0.00138101
0.00042185
0.000273518
0.000404395
0.00108891
0.00384148
0.0136917
0.0450631
0.13292
0.345456
0.32158
0.0964162
0.0268275
0.00728871
0.00240101
0.00129918
0.00119101
0.00145634
0.0025495
0.00672163
0.0212856
0.0662859
0.186364
0.456645
0.351484
0.113602
0.0349943
0.0128366
0.00618841
0.00458846
0.0045165
0.00517173
0.00730533
0.0142698
0.036395
0.0998334
0.256216
0.57884
0.410877
0.140449
0.0582914
0.0300357
0.0190328
0.0154416
0.0148456
0.0161832
0.0204754
0.0321212
0.0643088
0.14848
0.337949
0.694834
0.474364
0.205467
0.120095
0.0805268
0.0589749
0.0483455
0.044154
0.0452948
0.0530167
0.0718272
0.115695
0.218861
0.434164
0.806811
0.63759
0.363894
0.266789
0.211967
0.169733
0.140574
0.122835
0.117466
0.126753
0.154447
0.210223
0.32367
0.545769
0.918253
0.944346
0.677574
0.561819
0.497431
0.430847
0.369715
0.319999
0.290241
0.287152
0.319491
0.388501
0.511159
0.725947
1.09442
1.55971
1.24343
1.06666
1.01099
0.939559
0.854912
0.760968
0.679987
0.630527
0.638569
0.711722
0.857734
1.05832
1.42197
0.380772
0.152145
0.0733547
0.0490299
0.043565
0.0478408
0.0622131
0.0871054
0.121502
0.16149
0.199163
0.2267
0.255349
0.318625
0.311933
0.093663
0.0254574
0.0115626
0.00940424
0.0102824
0.0135509
0.0194403
0.0281636
0.0395838
0.0528387
0.0691212
0.100998
0.182497
0.273129
0.0689338
0.0120816
0.00275703
0.00148878
0.00153682
0.00209438
0.00311092
0.0047185
0.0073449
0.0123388
0.0240513
0.0533347
0.118993
0.244855
0.056844
0.00973111
0.00178572
0.000434563
0.00019608
0.000223894
0.000367517
0.000705338
0.00164654
0.00447084
0.0125559
0.0334863
0.0806
0.206367
0.0463335
0.00925236
0.00193245
0.000406892
7.95401e-05
2.81184e-05
5.45105e-05
0.00019381
0.000732982
0.00260573
0.00842287
0.0246896
0.0661261
0.170553
0.0394942
0.00897541
0.00193538
0.000397359
7.52638e-05
2.07001e-05
3.29962e-05
0.0001332
0.000567484
0.00222266
0.00790299
0.0255568
0.0751474
0.147678
0.0379546
0.00924784
0.00196047
0.000421083
0.000115467
6.90654e-05
8.50108e-05
0.000196199
0.000706907
0.00279301
0.0104321
0.0352361
0.105948
0.146697
0.0418837
0.0104148
0.00238404
0.000680216
0.000361039
0.000334485
0.000379662
0.000574227
0.00141368
0.00477956
0.0169626
0.0555503
0.160905
0.164187
0.0495232
0.0132127
0.00408166
0.00180888
0.00139095
0.00140249
0.00155488
0.00202273
0.00368049
0.00961647
0.0296236
0.0888798
0.238076
0.196269
0.0622121
0.0226949
0.0103844
0.00625971
0.00518609
0.00507402
0.00546668
0.00666103
0.0100647
0.0203515
0.0516477
0.136551
0.330042
0.231394
0.0988228
0.0532189
0.0326779
0.0225469
0.0181643
0.0165521
0.0169425
0.0196509
0.0264491
0.0432576
0.0883856
0.20043
0.431331
0.333709
0.199005
0.138628
0.102179
0.076021
0.0596956
0.0505988
0.0480065
0.0522618
0.064821
0.0905779
0.148766
0.280675
0.535894
0.561334
0.410094
0.333547
0.277814
0.223235
0.178508
0.145925
0.128386
0.128149
0.147503
0.186296
0.257424
0.397794
0.665459
0.985251
0.806963
0.699483
0.633046
0.553786
0.469149
0.388547
0.327815
0.29775
0.31125
0.366368
0.461141
0.601389
0.853836
0.21647
0.0696972
0.0237454
0.0127855
0.0106815
0.0116106
0.0151996
0.0218866
0.0323293
0.0466252
0.0632341
0.0810265
0.101705
0.135552
0.172187
0.0432297
0.00810207
0.00236369
0.00170854
0.00192097
0.00261952
0.00387128
0.00584552
0.008703
0.0126104
0.0187484
0.0320177
0.068126
0.14196
0.0303445
0.00418624
0.000620237
0.00021884
0.000210119
0.000302666
0.000470187
0.000739318
0.00121737
0.00231974
0.00554666
0.0152406
0.0411345
0.117476
0.0237367
0.00363991
0.000580266
0.000109954
2.81787e-05
2.35273e-05
3.95269e-05
8.2713e-05
0.000230965
0.000794676
0.00280373
0.00913303
0.0259822
0.0923745
0.0188387
0.00353795
0.000661747
0.000121161
1.93059e-05
3.61831e-06
4.74908e-06
2.0994e-05
0.000101069
0.000448384
0.00177326
0.00618921
0.0191678
0.0742574
0.016348
0.00349062
0.000663228
0.000116082
1.87734e-05
3.9249e-06
4.01206e-06
1.59675e-05
8.01717e-05
0.000378217
0.00160095
0.00604672
0.0203896
0.0654886
0.016261
0.00364429
0.000668389
0.000119822
2.83209e-05
1.5663e-05
1.66968e-05
3.10846e-05
0.000109699
0.000490002
0.00213025
0.00835387
0.0289998
0.0679756
0.0183327
0.0040895
0.000781882
0.000188759
9.37643e-05
8.57254e-05
9.26837e-05
0.000123307
0.000267827
0.00092702
0.00370536
0.0140261
0.0472506
0.0789907
0.021696
0.00508628
0.00130952
0.000527431
0.000403217
0.00040707
0.000441992
0.000538318
0.000879911
0.00219946
0.00731664
0.025192
0.0792315
0.0954449
0.0274818
0.00879058
0.00352738
0.00201838
0.0016723
0.00165681
0.00178369
0.00210908
0.00298826
0.00569523
0.0150088
0.0449053
0.127345
0.115983
0.0462948
0.0226796
0.0124073
0.00810464
0.00643585
0.00598349
0.00624367
0.00721698
0.00945331
0.0148387
0.0307248
0.0771903
0.193068
0.180083
0.104874
0.0671003
0.0443129
0.0306135
0.0231684
0.0198305
0.0194466
0.0216481
0.0269234
0.0371777
0.0617034
0.126223
0.273567
0.334662
0.241357
0.183142
0.138065
0.101964
0.0766512
0.0613384
0.0552975
0.0576645
0.0684167
0.0878683
0.123345
0.202517
0.374354
0.638817
0.505779
0.424776
0.356609
0.288605
0.226613
0.177812
0.148019
0.139753
0.154299
0.189714
0.244754
0.333501
0.510039
0.107067
0.0284682
0.00685411
0.00281579
0.00230509
0.00260804
0.00343598
0.00483613
0.00707423
0.0104901
0.0152266
0.0218028
0.031555
0.0495337
0.0782202
0.0163819
0.00224495
0.000407118
0.000262814
0.000325816
0.000466842
0.000685385
0.00101242
0.00151379
0.0023364
0.00403392
0.00872595
0.023568
0.0590054
0.0107831
0.00126943
0.000144267
3.21274e-05
2.64416e-05
4.01343e-05
6.25527e-05
9.58585e-05
0.000162757
0.000372207
0.0011721
0.00411338
0.0134799
0.0457464
0.00830023
0.00120457
0.000173986
2.68526e-05
4.45115e-06
2.31455e-06
3.65232e-06
8.19522e-06
2.92962e-05
0.000133748
0.000596728
0.00236122
0.00801559
0.0353382
0.00685775
0.00123133
0.000206328
3.1513e-05
4.13594e-06
5.26231e-07
3.87363e-07
2.09237e-06
1.29596e-05
7.2181e-05
0.00035043
0.0014738
0.00539478
0.029337
0.00630786
0.00126555
0.000214815
3.10966e-05
4.1783e-06
7.51001e-07
5.51449e-07
1.70483e-06
9.63576e-06
5.60337e-05
0.000291294
0.00132473
0.0052496
0.0274175
0.00657442
0.00135208
0.000219835
3.20662e-05
6.41665e-06
3.53698e-06
3.64297e-06
5.16047e-06
1.47093e-05
7.16012e-05
0.000372358
0.00174572
0.00711108
0.0301424
0.00755226
0.00150442
0.000243724
4.76009e-05
2.26823e-05
2.19789e-05
2.41697e-05
2.87243e-05
4.82656e-05
0.000150173
0.000665716
0.00296015
0.0116999
0.0363121
0.00892525
0.00178658
0.000367998
0.000134007
0.000108911
0.000117244
0.000130472
0.000150629
0.000207351
0.000433775
0.0014569
0.0057244
0.021142
0.0444278
0.0111447
0.00288347
0.000981815
0.00055697
0.000500312
0.000529922
0.000587033
0.000675088
0.000862978
0.00141211
0.00353525
0.0116684
0.0387683
0.0554247
0.0187514
0.0077574
0.00382417
0.0024706
0.00209422
0.00208799
0.00226139
0.00258831
0.00320681
0.00456503
0.00884943
0.0237013
0.0686579
0.0897246
0.0469535
0.0263299
0.0156976
0.0103683
0.00807502
0.00738599
0.00762997
0.00858007
0.0104469
0.0137947
0.0218752
0.0464966
0.114238
0.185199
0.12317
0.0832741
0.0564301
0.0386472
0.0286257
0.0239561
0.0230224
0.0248943
0.029733
0.037935
0.0525219
0.0883255
0.179319
0.377879
0.285726
0.219271
0.167129
0.123897
0.0924361
0.0726262
0.0638249
0.0642421
0.0736084
0.092255
0.120193
0.168202
0.274008
0.0484326
0.0114269
0.00214715
0.00065205
0.000487781
0.00055329
0.000726022
0.000990961
0.00139945
0.0020415
0.00308959
0.00492249
0.00848265
0.0168954
0.0314548
0.00598047
0.000723826
8.97384e-05
4.29144e-05
5.37929e-05
7.98185e-05
0.00011747
0.000169986
0.000249977
0.000408702
0.000854038
0.00245796
0.00840028
0.0219826
0.00385146
0.000468243
5.0577e-05
7.61678e-06
3.6637e-06
5.38288e-06
8.68415e-06
1.34461e-05
2.40047e-05
6.79134e-05
0.000281218
0.00121744
0.00472511
0.0166403
0.00306637
0.000475712
6.83013e-05
9.26074e-06
1.14836e-06
2.87058e-07
3.88507e-07
9.8165e-07
4.49012e-06
2.61818e-05
0.000142759
0.000674118
0.00268927
0.0132386
0.0026776
0.000495051
8.1098e-05
1.09677e-05
1.23797e-06
1.22068e-07
4.28056e-08
2.59396e-07
2.02676e-06
1.38637e-05
8.07734e-05
0.000399705
0.00168621
0.011688
0.00260263
0.000519069
8.52912e-05
1.08194e-05
1.21377e-06
1.76372e-07
9.82644e-08
2.40708e-07
1.49094e-06
1.03063e-05
6.27818e-05
0.000327635
0.00146296
0.011948
0.00286524
0.000569546
8.86643e-05
1.096e-05
1.74683e-06
8.5157e-07
8.16811e-07
9.93891e-07
2.41335e-06
1.24716e-05
7.36429e-05
0.000390205
0.00177666
0.0141274
0.00340877
0.000642554
9.59284e-05
1.48035e-05
6.17165e-06
5.83656e-06
6.15133e-06
6.74958e-06
9.56116e-06
2.65077e-05
0.000124361
0.000620373
0.00275693
0.017727
0.00409775
0.000751932
0.000129045
3.968e-05
3.22448e-05
3.45231e-05
3.72087e-05
4.08161e-05
5.03118e-05
8.93197e-05
0.00028304
0.00120556