/*--------------------------------*- C++ -*----------------------------------*\
| =========                 |                                                 |
| \\      /  F ield         | OpenFOAM: The Open Source CFD Toolbox           |
|  \\    /   O peration     | Version:  v2106                                 |
|   \\  /    A nd           | Website:  www.openfoam.com                      |
|    \\/     M anipulation  |                                                 |
\*---------------------------------------------------------------------------*/
FoamFile
{
    version     2.0;
    format      ascii;
    arch        "LSB;label=32;scalar=64";
    class       volScalarField;
    location    "0.000162";
    object      nut;
}
// * * * * * * * * * * * * * * * * * * * * * * * * * * * * * * * * * * * * * //

dimensions      [0 2 -1 0 0 0 0];

internalField   nonuniform List<scalar> 
144746
(
2.51832e-05
2.09757e-05
1.74591e-05
1.46507e-05
1.33349e-05
1.34212e-05
1.46787e-05
1.67371e-05
1.94027e-05
2.20431e-05
2.38513e-05
2.44323e-05
2.48041e-05
2.68087e-05
2.4932e-05
1.96769e-05
1.45667e-05
9.82796e-06
6.86444e-06
5.89895e-06
6.45718e-06
8.15993e-06
1.06862e-05
1.36037e-05
1.61886e-05
1.7885e-05
1.94651e-05
2.27504e-05
2.60894e-05
1.92765e-05
1.24158e-05
6.56654e-06
3.29918e-06
2.14196e-06
2.26444e-06
3.33644e-06
5.25304e-06
7.78288e-06
1.03934e-05
1.27817e-05
1.57272e-05
2.06816e-05
2.66006e-05
1.74271e-05
9.15888e-06
3.61086e-06
1.33091e-06
6.30014e-07
6.42272e-07
1.19119e-06
2.34559e-06
4.14119e-06
6.42738e-06
9.26885e-06
1.3585e-05
2.04573e-05
2.57825e-05
1.41358e-05
5.7671e-06
1.83369e-06
6.49478e-07
2.59051e-07
2.26592e-07
4.785e-07
1.11007e-06
2.31777e-06
4.37668e-06
7.84214e-06
1.36207e-05
2.23175e-05
2.42373e-05
1.11201e-05
3.97181e-06
1.60224e-06
7.30954e-07
3.18576e-07
2.3111e-07
3.85711e-07
8.58366e-07
1.94053e-06
4.18861e-06
8.43332e-06
1.54285e-05
2.52909e-05
2.28955e-05
9.60384e-06
4.07833e-06
2.25132e-06
1.20156e-06
6.44291e-07
5.17435e-07
7.37637e-07
1.38854e-06
2.82379e-06
5.65513e-06
1.06416e-05
1.82347e-05
2.82632e-05
2.25337e-05
9.93065e-06
5.67405e-06
3.6848e-06
2.26984e-06
1.43298e-06
1.23216e-06
1.62335e-06
2.66733e-06
4.68114e-06
8.12764e-06
1.35009e-05
2.09946e-05
3.02985e-05
2.43289e-05
1.17774e-05
8.43071e-06
6.21797e-06
4.35429e-06
3.05204e-06
2.61672e-06
3.13335e-06
4.57791e-06
7.06309e-06
1.07999e-05
1.61197e-05
2.30435e-05
3.12576e-05
2.73392e-05
1.56641e-05
1.24691e-05
1.03781e-05
8.18162e-06
6.24879e-06
5.18313e-06
5.3922e-06
6.88071e-06
9.52756e-06
1.31884e-05
1.84207e-05
2.45652e-05
3.1034e-05
3.01628e-05
1.99549e-05
1.72971e-05
1.64945e-05
1.47658e-05
1.24616e-05
1.04747e-05
9.72396e-06
1.04732e-05
1.29622e-05
1.62458e-05
2.05665e-05
2.5303e-05
3.04758e-05
3.28805e-05
2.43689e-05
2.22455e-05
2.31701e-05
2.3813e-05
2.2779e-05
2.08134e-05
1.94438e-05
1.88064e-05
1.97873e-05
2.15161e-05
2.43286e-05
2.75885e-05
3.17369e-05
3.59519e-05
2.83524e-05
2.64372e-05
2.83519e-05
3.15705e-05
3.39477e-05
3.44229e-05
3.41153e-05
3.3098e-05
3.23614e-05
3.16702e-05
3.21342e-05
3.35533e-05
3.63617e-05
3.95476e-05
3.25158e-05
3.05316e-05
3.24467e-05
3.64875e-05
4.12361e-05
4.52003e-05
4.73164e-05
4.79994e-05
4.75233e-05
4.58697e-05
4.40256e-05
4.35021e-05
4.49152e-05
2.41614e-05
2.09926e-05
1.88911e-05
1.77695e-05
1.80652e-05
1.87767e-05
1.93419e-05
1.97526e-05
2.03055e-05
2.09132e-05
2.13139e-05
2.15998e-05
2.27681e-05
2.63449e-05
2.1275e-05
1.67274e-05
1.2918e-05
9.83995e-06
8.38944e-06
8.20848e-06
8.7946e-06
9.96268e-06
1.15064e-05
1.32685e-05
1.49281e-05
1.6471e-05
1.90322e-05
2.43368e-05
2.04114e-05
1.46558e-05
9.56962e-06
5.55229e-06
3.39398e-06
2.75183e-06
3.05477e-06
4.0693e-06
5.68149e-06
7.78092e-06
1.00549e-05
1.26647e-05
1.69025e-05
2.42371e-05
1.99482e-05
1.26899e-05
6.71494e-06
2.82583e-06
1.16579e-06
6.95299e-07
8.16752e-07
1.40891e-06
2.53004e-06
4.25526e-06
6.59895e-06
1.00527e-05
1.60309e-05
2.56514e-05
1.93888e-05
1.04729e-05
4.32119e-06
1.4036e-06
4.74859e-07
2.04569e-07
2.33225e-07
5.20247e-07
1.18384e-06
2.47323e-06
4.8601e-06
9.29661e-06
1.69912e-05
2.84614e-05
1.90806e-05
8.76584e-06
3.12468e-06
1.18919e-06
4.8587e-07
2.02938e-07
1.7481e-07
3.53975e-07
8.7006e-07
2.11143e-06
4.83623e-06
1.01308e-05
1.87942e-05
3.07295e-05
1.95249e-05
8.17142e-06
3.27949e-06
1.64012e-06
8.05484e-07
4.23078e-07
3.78382e-07
6.22353e-07
1.31317e-06
2.91089e-06
6.16982e-06
1.19292e-05
2.05005e-05
3.15475e-05
2.10368e-05
8.93794e-06
4.55451e-06
2.69644e-06
1.58377e-06
1.00902e-06
9.46104e-07
1.36929e-06
2.42373e-06
4.52107e-06
8.18656e-06
1.38525e-05
2.15014e-05
3.08047e-05
2.40014e-05
1.0917e-05
6.74742e-06
4.61048e-06
3.14533e-06
2.26037e-06
2.09529e-06
2.70058e-06
4.12061e-06
6.55753e-06
1.02402e-05
1.5406e-05
2.18715e-05
2.95332e-05
2.84733e-05
1.46838e-05
9.99583e-06
7.78209e-06
6.03166e-06
4.73951e-06
4.23172e-06
4.72733e-06
6.22524e-06
8.73309e-06
1.21511e-05
1.69896e-05
2.2475e-05
2.82423e-05
3.19736e-05
1.9116e-05
1.4175e-05
1.23986e-05
1.09127e-05
9.45235e-06
8.49966e-06
8.51668e-06
9.57848e-06
1.20279e-05
1.51108e-05
1.9278e-05
2.34739e-05
2.80879e-05
3.50337e-05
2.39371e-05
1.92416e-05
1.82854e-05
1.80562e-05
1.7328e-05
1.6557e-05
1.664e-05
1.72471e-05
1.90005e-05
2.09531e-05
2.3843e-05
2.68225e-05
3.05114e-05
3.82371e-05
2.84952e-05
2.39518e-05
2.34126e-05
2.48236e-05
2.64131e-05
2.7637e-05
2.91726e-05
3.0375e-05
3.15278e-05
3.18149e-05
3.27043e-05
3.40438e-05
3.63974e-05
4.16437e-05
3.30726e-05
2.8738e-05
2.81138e-05
3.02442e-05
3.39408e-05
3.82474e-05
4.20583e-05
4.50525e-05
4.70578e-05
4.71032e-05
4.5914e-05
4.53257e-05
4.60756e-05
2.49544e-05
2.252e-05
2.18172e-05
2.21843e-05
2.35409e-05
2.38934e-05
2.28848e-05
2.07729e-05
1.88148e-05
1.76897e-05
1.7538e-05
1.86469e-05
2.1534e-05
2.67931e-05
1.9267e-05
1.51428e-05
1.26051e-05
1.10556e-05
1.09998e-05
1.12669e-05
1.13379e-05
1.10919e-05
1.10156e-05
1.1442e-05
1.24611e-05
1.45767e-05
1.86885e-05
2.58437e-05
1.57721e-05
1.08231e-05
7.34269e-06
5.01527e-06
4.04108e-06
3.89266e-06
4.14878e-06
4.59706e-06
5.32509e-06
6.69692e-06
8.70076e-06
1.19371e-05
1.76797e-05
2.69937e-05
1.393e-05
8.31144e-06
4.39453e-06
2.13067e-06
1.1815e-06
9.51099e-07
1.10439e-06
1.53445e-06
2.31153e-06
3.71668e-06
6.03191e-06
1.01688e-05
1.76677e-05
2.92124e-05
1.33421e-05
6.90189e-06
2.81254e-06
9.79522e-07
3.58865e-07
1.95843e-07
2.51376e-07
4.99092e-07
1.05257e-06
2.23851e-06
4.78444e-06
9.98057e-06
1.90512e-05
3.1775e-05
1.37601e-05
6.3009e-06
2.22208e-06
7.90169e-07
2.79796e-07
1.08597e-07
1.11884e-07
2.69223e-07
7.31372e-07
1.94927e-06
4.86322e-06
1.07429e-05
2.01757e-05
3.23375e-05
1.52732e-05
6.47972e-06
2.42785e-06
1.0506e-06
4.46121e-07
2.15946e-07
2.11891e-07
4.14999e-07
1.01606e-06
2.52643e-06
5.80561e-06
1.17322e-05
2.03438e-05
3.06947e-05
1.80204e-05
7.58358e-06
3.33248e-06
1.71553e-06
9.12653e-07
5.63494e-07
5.66879e-07
9.10797e-07
1.77724e-06
3.62279e-06
7.05587e-06
1.24417e-05
1.94844e-05
2.7485e-05
2.22281e-05
9.69338e-06
4.8899e-06
2.95731e-06
1.89826e-06
1.369e-06
1.35601e-06
1.88173e-06
3.03095e-06
5.08124e-06
8.33163e-06
1.28909e-05
1.84138e-05
2.46449e-05
2.74603e-05
1.3387e-05
7.25695e-06
5.05997e-06
3.76137e-06
3.00815e-06
2.87094e-06
3.461e-06
4.75872e-06
6.82691e-06
9.74659e-06
1.37476e-05
1.84418e-05
2.37763e-05
3.10443e-05
1.75055e-05
1.05318e-05
8.25522e-06
6.98528e-06
6.13549e-06
5.8537e-06
6.36522e-06
7.61272e-06
9.65943e-06
1.22911e-05
1.64395e-05
2.02822e-05
2.47728e-05
3.4077e-05
2.24825e-05
1.57339e-05
1.30203e-05
1.19665e-05
1.14034e-05
1.14369e-05
1.22983e-05
1.37361e-05
1.59659e-05
1.81672e-05
2.15085e-05
2.4619e-05
2.84617e-05
3.72408e-05
2.74135e-05
2.09599e-05
1.81178e-05
1.77281e-05
1.81584e-05
1.94257e-05
2.17269e-05
2.42741e-05
2.6912e-05
2.82218e-05
3.00509e-05
3.18026e-05
3.4492e-05
4.04056e-05
3.26213e-05
2.68746e-05
2.3926e-05
2.36094e-05
2.49886e-05
2.80003e-05
3.214e-05
3.63371e-05
4.00828e-05
4.1752e-05
4.17396e-05
4.18117e-05
4.2708e-05
3.17218e-05
3.99296e-05
5.35757e-05
8.22906e-05
0.000142936
5.16579e-05
2.88479e-05
3.76358e-05
5.07711e-05
7.63283e-05
0.000131353
5.66801e-05
2.82085e-05
3.84033e-05
5.21604e-05
7.50173e-05
0.000125077
6.13539e-05
2.98998e-05
4.19751e-05
5.69844e-05
7.77916e-05
0.000119356
6.52998e-05
3.32917e-05
4.67408e-05
6.24731e-05
8.16173e-05
0.000115149
6.8866e-05
3.68518e-05
5.05772e-05
6.61936e-05
8.43702e-05
0.000111833
7.26474e-05
3.89804e-05
5.15275e-05
6.62855e-05
8.48244e-05
0.000111011
7.70812e-05
3.89562e-05
4.94724e-05
6.30642e-05
8.32953e-05
0.000112577
8.23042e-05
3.75773e-05
4.58654e-05
5.80253e-05
7.90027e-05
0.000114514
8.78285e-05
3.58307e-05
4.22429e-05
5.27311e-05
7.31275e-05
0.000116828
9.10004e-05
3.47348e-05
4.00154e-05
4.92025e-05
6.89616e-05
0.000119543
9.07965e-05
3.57195e-05
4.06734e-05
4.94866e-05
6.89459e-05
0.000123884
8.68216e-05
3.99414e-05
4.521e-05
5.47166e-05
7.47803e-05
0.000130938
7.8621e-05
4.73309e-05
5.38117e-05
6.5221e-05
8.71902e-05
0.000139074
6.44788e-05
3.33511e-05
4.16845e-05
5.30345e-05
7.14046e-05
0.000106665
5.58858e-05
3.31112e-05
4.33727e-05
5.63288e-05
7.34291e-05
0.00010232
6.2159e-05
3.49279e-05
4.78137e-05
6.30468e-05
7.96269e-05
0.000102917
6.82068e-05
3.87872e-05
5.43704e-05
7.1538e-05
8.7633e-05
0.000104492
7.36612e-05
4.28521e-05
5.96511e-05
7.74766e-05
9.35666e-05
0.000106577
7.88977e-05
4.46267e-05
6.09556e-05
7.83112e-05
9.53671e-05
0.000108206
8.48207e-05
4.33596e-05
5.74155e-05
7.30978e-05
9.22517e-05
0.000111716
9.11207e-05
3.94684e-05
5.01522e-05
6.34419e-05
8.46163e-05
0.000114503
9.68283e-05
3.53093e-05
4.27105e-05
5.32908e-05
7.34699e-05
0.000112294
0.000100636
3.2373e-05
3.74594e-05
4.57622e-05
6.33887e-05
0.000106345
0.000100994
3.16964e-05
3.57298e-05
4.2744e-05
5.83854e-05
0.000101161
9.71521e-05
3.40023e-05
3.80304e-05
4.49147e-05
5.94512e-05
0.000100163
8.96152e-05
3.96715e-05
4.43799e-05
5.21647e-05
6.63516e-05
0.000104226
7.90825e-05
4.8371e-05
5.45831e-05
6.39299e-05
7.82918e-05
0.000111139
6.52711e-05
3.51902e-05
4.36352e-05
5.40528e-05
6.75486e-05
8.18695e-05
5.91797e-05
3.63399e-05
4.72866e-05
6.03759e-05
7.52074e-05
8.90913e-05
6.87584e-05
3.9484e-05
5.33736e-05
6.92223e-05
8.53195e-05
9.70865e-05
7.90308e-05
4.38748e-05
6.05961e-05
7.86936e-05
9.52134e-05
0.000104365
8.91448e-05
4.6832e-05
6.46696e-05
8.3085e-05
9.95095e-05
0.000108834
9.7949e-05
4.60841e-05
6.25265e-05
7.90783e-05
9.50522e-05
0.000106891
0.00010442
4.16942e-05
5.46834e-05
6.79287e-05
8.35223e-05
0.000100962
0.000107787
3.52215e-05
4.43063e-05
5.41943e-05
6.9254e-05
9.29897e-05
0.000107728
2.98661e-05
3.55732e-05
4.285e-05
5.64358e-05
8.39072e-05
0.000104296
2.73067e-05
3.08223e-05
3.65206e-05
4.82577e-05
7.58565e-05
9.826e-05
2.78048e-05
3.0627e-05
3.55992e-05
4.61533e-05
7.2022e-05
9.05282e-05
3.11534e-05
3.41651e-05
3.93269e-05
4.96008e-05
7.32301e-05
8.2005e-05
3.68865e-05
4.0766e-05
4.70292e-05
5.76148e-05
7.86393e-05
7.319e-05
4.44881e-05
5.00714e-05
5.82671e-05
6.91222e-05
8.56707e-05
6.42545e-05
5.63094e-05
6.63226e-05
8.06173e-05
0.000103128
0.000139509
5.05145e-05
5.55191e-05
6.6002e-05
7.86259e-05
9.74107e-05
0.0001268
5.54283e-05
5.67213e-05
6.70556e-05
7.79627e-05
9.42213e-05
0.00011816
6.00916e-05
5.83927e-05
6.74432e-05
7.6263e-05
9.08697e-05
0.000111534
6.54493e-05
5.82038e-05
6.50195e-05
7.22003e-05
8.65587e-05
0.000108997
7.21305e-05
5.60259e-05
6.04915e-05
6.68936e-05
8.18469e-05
0.00010928
7.99085e-05
5.20114e-05
5.48421e-05
6.12305e-05
7.69135e-05
0.000110421
8.80749e-05
4.72359e-05
4.94214e-05
5.56429e-05
7.11981e-05
0.000109459
9.5771e-05
4.25291e-05
4.46265e-05
5.03624e-05
6.52151e-05
0.000106617
0.000101336
3.81146e-05
4.03326e-05
4.60186e-05
6.08642e-05
0.000105405
0.000103382
3.46334e-05
3.76128e-05
4.40575e-05
5.98357e-05
0.000108248
0.000101731
3.36525e-05
3.79108e-05
4.57665e-05
6.33616e-05
0.000117063
9.63679e-05
3.6387e-05
4.21167e-05
5.20273e-05
7.24406e-05
0.000130692
8.66187e-05
4.278e-05
5.06404e-05
6.34651e-05
8.72865e-05
0.000144864
7.04343e-05
5.86797e-05
6.81495e-05
7.85977e-05
9.15419e-05
0.000112214
5.77551e-05
5.87032e-05
6.95908e-05
7.99465e-05
9.12377e-05
0.000106527
6.50641e-05
6.02003e-05
7.14306e-05
8.08047e-05
9.09932e-05
0.00010356
7.26542e-05
6.12186e-05
7.11583e-05
7.87101e-05
8.82574e-05
9.99773e-05
8.13835e-05
5.9232e-05
6.67609e-05
7.24965e-05
8.28196e-05
9.93565e-05
9.03664e-05
5.48722e-05
5.96983e-05
6.41396e-05
7.58887e-05
9.94157e-05
9.89512e-05
4.89218e-05
5.17655e-05
5.57253e-05
6.8265e-05
9.76485e-05
0.000106027
4.25482e-05
4.47107e-05
4.87988e-05
6.07812e-05
9.24526e-05
0.000110357
3.69075e-05
3.91702e-05
4.35667e-05
5.4967e-05
8.69806e-05
0.000111058
3.29749e-05
3.55488e-05
4.05043e-05
5.2164e-05
8.41579e-05
0.000108394
3.13153e-05
3.46309e-05
4.05321e-05
5.31775e-05
8.62026e-05
0.000102906
3.25767e-05
3.69872e-05
4.42943e-05
5.84179e-05
9.38146e-05
9.49033e-05
3.71933e-05
4.30092e-05
5.24371e-05
6.83756e-05
0.000105696
8.40119e-05
4.50006e-05
5.31858e-05
6.53044e-05
8.2369e-05
0.000117601
6.91716e-05
5.35705e-05
6.23997e-05
7.1946e-05
8.0953e-05
8.80892e-05
6.49422e-05
5.33766e-05
6.3767e-05
7.4189e-05
8.30668e-05
8.91445e-05
7.54129e-05
5.42591e-05
6.54294e-05
7.52129e-05
8.32265e-05
8.99955e-05
8.5826e-05
5.44826e-05
6.46097e-05
7.22433e-05
7.85447e-05
8.67885e-05
9.55256e-05
5.14175e-05
5.97796e-05
6.47034e-05
6.9843e-05
8.18469e-05
0.000103504
4.63809e-05
5.26661e-05
5.57322e-05
6.05042e-05
7.56871e-05
0.000108769
4.03475e-05
4.4954e-05
4.75556e-05
5.27726e-05
6.99012e-05
0.000110459
3.43569e-05
3.80974e-05
4.15002e-05
4.7951e-05
6.54681e-05
0.000108494
2.9762e-05
3.3319e-05
3.77231e-05
4.56602e-05
6.32527e-05
0.000104493
2.77737e-05
3.13162e-05
3.63762e-05
4.56372e-05
6.41865e-05
9.93719e-05
2.84839e-05
3.22359e-05
3.78216e-05
4.8141e-05
6.84953e-05
9.33468e-05
3.12772e-05
3.55824e-05
4.2003e-05
5.35147e-05
7.61345e-05
8.60983e-05
3.61632e-05
4.12803e-05
4.93781e-05
6.23621e-05
8.5466e-05
7.73623e-05
4.29818e-05
4.99065e-05
6.04885e-05
7.45362e-05
9.50543e-05
6.74966e-05
6.70698e-05
0.000121186
5.91585e-05
3.95445e-05
3.11895e-05
2.68965e-05
7.95233e-05
0.000100794
5.14435e-05
3.67126e-05
3.05764e-05
2.72127e-05
8.79548e-05
8.95683e-05
4.99848e-05
3.80086e-05
3.27472e-05
2.94019e-05
9.35382e-05
8.63878e-05
5.25134e-05
4.19231e-05
3.66515e-05
3.23029e-05
9.64279e-05
8.69003e-05
5.73341e-05
4.725e-05
4.14852e-05
3.52239e-05
9.65927e-05
8.90321e-05
6.28822e-05
5.30095e-05
4.67161e-05
3.78458e-05
9.41225e-05
9.15218e-05
6.80486e-05
5.86477e-05
5.20389e-05
4.00699e-05
8.91536e-05
9.50316e-05
7.30204e-05
6.41972e-05
5.70584e-05
4.21577e-05
8.28718e-05
9.86913e-05
7.82051e-05
6.94488e-05
6.0982e-05
4.45799e-05
7.60772e-05
0.000103512
8.38743e-05
7.36687e-05
6.30547e-05
4.57214e-05
6.94679e-05
0.000110318
8.9701e-05
7.66523e-05
6.38164e-05
4.65953e-05
6.35166e-05
0.000121087
9.42015e-05
7.73959e-05
6.29787e-05
4.68916e-05
5.84714e-05
0.000131853
9.84522e-05
7.785e-05
6.25561e-05
4.83407e-05
5.36512e-05
0.000148332
0.000105168
8.00987e-05
6.37595e-05
5.11724e-05
6.57701e-05
9.82153e-05
5.62336e-05
3.98718e-05
3.11965e-05
2.61912e-05
7.74894e-05
8.12339e-05
4.68963e-05
3.39274e-05
2.76991e-05
2.3957e-05
8.68455e-05
7.19468e-05
4.36224e-05
3.28691e-05
2.75456e-05
2.39398e-05
9.4371e-05
6.93779e-05
4.47257e-05
3.5199e-05
2.97698e-05
2.52532e-05
9.99036e-05
7.10734e-05
4.89741e-05
4.02278e-05
3.41272e-05
2.76507e-05
0.000103019
7.48036e-05
5.49423e-05
4.70404e-05
4.02389e-05
3.09629e-05
0.000103467
7.93917e-05
6.15678e-05
5.47983e-05
4.75027e-05
3.49397e-05
0.000101066
8.40459e-05
6.86436e-05
6.31707e-05
5.51016e-05
3.92226e-05
9.60575e-05
8.78322e-05
7.59638e-05
7.12821e-05
6.19875e-05
4.4185e-05
8.94644e-05
9.12838e-05
8.31306e-05
7.82013e-05
6.68177e-05
4.78123e-05
8.21211e-05
9.53386e-05
8.98096e-05
8.30285e-05
6.94995e-05
5.04012e-05
7.43998e-05
0.000102527
9.40625e-05
8.39995e-05
6.91132e-05
5.10667e-05
6.70135e-05
0.000109753
9.55591e-05
8.27797e-05
6.78848e-05
5.22675e-05
5.98647e-05
0.000119378
9.70491e-05
8.20023e-05
6.78473e-05
5.47144e-05
6.29629e-05
7.93576e-05
5.56086e-05
4.15692e-05
3.27189e-05
2.70604e-05
7.19626e-05
6.75025e-05
4.49936e-05
3.33113e-05
2.68196e-05
2.25099e-05
7.99765e-05
5.93713e-05
4.02215e-05
2.99743e-05
2.42457e-05
2.00333e-05
8.67129e-05
5.55673e-05
3.96384e-05
3.01361e-05
2.41122e-05
1.93248e-05
9.25118e-05
5.48854e-05
4.20246e-05
3.34427e-05
2.64715e-05
2.02655e-05
9.76058e-05
5.62529e-05
4.61643e-05
3.9372e-05
3.14026e-05
2.28631e-05
0.000101917
5.91536e-05
5.11423e-05
4.69174e-05
3.84123e-05
2.69865e-05
0.00010481
6.35193e-05
5.70805e-05
5.516e-05
4.62895e-05
3.22437e-05
0.000104789
6.95778e-05
6.45056e-05
6.28446e-05
5.35032e-05
3.84219e-05
0.000100976
7.71628e-05
7.29028e-05
6.96478e-05
5.91188e-05
4.34868e-05
9.42621e-05
8.39481e-05
8.09664e-05
7.51904e-05
6.30177e-05
4.7219e-05
8.58512e-05
8.99306e-05
8.62987e-05
7.72645e-05
6.34073e-05
4.80901e-05
7.65875e-05
9.35227e-05
8.77144e-05
7.63752e-05
6.24719e-05
4.923e-05
6.68295e-05
9.70001e-05
8.7504e-05
7.52104e-05
6.24395e-05
5.13123e-05
6.42854e-05
0.000130464
6.71358e-05
4.43854e-05
3.43442e-05
2.90142e-05
7.63533e-05
0.000118225
6.09064e-05
4.14987e-05
3.28911e-05
2.80827e-05
8.44892e-05
0.000111762
6.14766e-05
4.32033e-05
3.43424e-05
2.89135e-05
8.9281e-05
0.000109371
6.63703e-05
4.79984e-05
3.74186e-05
3.024e-05
9.09859e-05
0.000108242
7.33243e-05
5.42756e-05
4.10415e-05
3.09789e-05
8.97527e-05
0.000107234
8.02191e-05
6.04952e-05
4.41196e-05
3.06564e-05
8.6401e-05
0.000106368
8.55264e-05
6.56576e-05
4.57124e-05
2.93187e-05
8.25969e-05
0.000106542
8.78075e-05
6.77536e-05
4.54745e-05
2.75767e-05
7.85479e-05
0.000109495
8.69511e-05
6.58929e-05
4.30909e-05
2.54664e-05
7.43206e-05
0.000115114
8.26618e-05
6.04193e-05
3.90698e-05
2.34991e-05
6.9919e-05
0.000120799
7.70689e-05
5.40482e-05
3.54344e-05
2.26201e-05
6.52399e-05
0.000127583
7.22752e-05
4.87024e-05
3.32721e-05
2.31397e-05
6.01595e-05
0.000132415
7.18801e-05
4.6713e-05
3.34596e-05
2.51334e-05
5.49134e-05
0.00014237
7.54104e-05
4.80935e-05
3.56289e-05
2.82948e-05
6.34217e-05
9.75418e-05
5.73204e-05
4.15991e-05
3.32243e-05
2.82603e-05
7.59429e-05
8.95358e-05
5.02637e-05
3.61436e-05
2.9333e-05
2.53674e-05
8.62256e-05
8.81879e-05
4.98048e-05
3.58799e-05
2.9157e-05
2.50149e-05
9.37978e-05
9.24774e-05
5.5179e-05
4.01546e-05
3.18875e-05
2.627e-05
9.82038e-05
9.95588e-05
6.54333e-05
4.84007e-05
3.71193e-05
2.84319e-05
9.89844e-05
0.000105945
7.84633e-05
5.94713e-05
4.39682e-05
3.08998e-05
9.67483e-05
0.000107913
9.09047e-05
7.13867e-05
5.07846e-05
3.30873e-05
9.2719e-05
0.000105751
9.91411e-05
8.05048e-05
5.57945e-05
3.46485e-05
8.77362e-05
0.000105262
0.000102396
8.33013e-05
5.67855e-05
3.4523e-05
8.24431e-05
0.000108157
9.97401e-05
7.94523e-05
5.36455e-05
3.26397e-05
7.71221e-05
0.000110247
9.25186e-05
7.13113e-05
4.80322e-05
3.00567e-05
7.15097e-05
0.000111372
8.32704e-05
6.19168e-05
4.26712e-05
2.85263e-05
6.52697e-05
0.00011171
7.62046e-05
5.54304e-05
3.98338e-05
2.87464e-05
5.87287e-05
0.000115791
7.27454e-05
5.19162e-05
3.90733e-05
3.02433e-05
5.90022e-05
7.22104e-05
5.19998e-05
4.04024e-05
3.30848e-05
2.83121e-05
6.8101e-05
6.33077e-05
4.25506e-05
3.25919e-05
2.71776e-05
2.37587e-05
7.75635e-05
6.07242e-05
3.91267e-05
2.96579e-05
2.47383e-05
2.15747e-05
8.66897e-05
6.2372e-05
4.13869e-05
3.11803e-05
2.53938e-05
2.14481e-05
9.50987e-05
6.83602e-05
4.88977e-05
3.74838e-05
2.94907e-05
2.32831e-05
0.000102023
7.79794e-05
6.09054e-05
4.84246e-05
3.71232e-05
2.70358e-05
0.000106512
8.86075e-05
7.55806e-05
6.2219e-05
4.68882e-05
3.21595e-05
0.000107633
9.86287e-05
9.00287e-05
7.54373e-05
5.61306e-05
3.73649e-05
0.000105315
0.000106798
0.000100781
8.41931e-05
6.16939e-05
4.03242e-05
0.00010002
0.000111225
0.00010459
8.58018e-05
6.19877e-05
4.03685e-05
9.22479e-05
0.000110359
0.000100016
7.98575e-05
5.72974e-05
3.78141e-05
8.29121e-05
0.000105192
8.99471e-05
6.99273e-05
5.0692e-05
3.47704e-05
7.2896e-05
9.8251e-05
8.02051e-05
6.17091e-05
4.59418e-05
3.33359e-05
6.31317e-05
9.23186e-05
7.29823e-05
5.61097e-05
4.34248e-05
3.35923e-05
2.20053e-05
1.91519e-05
1.82155e-05
1.839e-05
1.92926e-05
1.94772e-05
1.87025e-05
1.70213e-05
1.4978e-05
1.35862e-05
1.34114e-05
1.50194e-05
1.83884e-05
2.30423e-05
1.59984e-05
1.1818e-05
9.76433e-06
8.87373e-06
9.11665e-06
9.45557e-06
9.55167e-06
9.17638e-06
8.53661e-06
8.1689e-06
8.8204e-06
1.09634e-05
1.49548e-05
2.10702e-05
1.15801e-05
7.10409e-06
4.65102e-06
3.44554e-06
3.19025e-06
3.30482e-06
3.54795e-06
3.70904e-06
3.83684e-06
4.25845e-06
5.69155e-06
8.54905e-06
1.35318e-05
2.11808e-05
9.52106e-06
4.86228e-06
2.29091e-06
1.17165e-06
8.22222e-07
7.88193e-07
9.12594e-07
1.1218e-06
1.46719e-06
2.18032e-06
3.77281e-06
7.0133e-06
1.30196e-05
2.22571e-05
9.41003e-06
4.26323e-06
1.51037e-06
5.07881e-07
2.05489e-07
1.37648e-07
1.73791e-07
2.97324e-07
5.85573e-07
1.2745e-06
2.95799e-06
6.7435e-06
1.37108e-05
2.37739e-05
1.03411e-05
4.35932e-06
1.38921e-06
4.31571e-07
1.30668e-07
4.54651e-08
4.78468e-08
1.24122e-07
3.71221e-07
1.09996e-06
3.01443e-06
7.20634e-06
1.44124e-05
2.41162e-05
1.18523e-05
4.78021e-06
1.57622e-06
5.46708e-07
1.89581e-07
7.87026e-08
7.58845e-08
1.68072e-07
4.80651e-07
1.37446e-06
3.54161e-06
7.84377e-06
1.45941e-05
2.30458e-05
1.40746e-05
5.67336e-06
2.04973e-06
8.60016e-07
3.92439e-07
2.26003e-07
2.25671e-07
3.77042e-07
8.16729e-07
1.89724e-06
4.19868e-06
8.27546e-06
1.40746e-05
2.08356e-05
1.70857e-05
7.26803e-06
2.85546e-06
1.49086e-06
8.82591e-07
6.30294e-07
6.30853e-07
8.78009e-07
1.47372e-06
2.69264e-06
4.94839e-06
8.55208e-06
1.32844e-05
1.85724e-05
2.01834e-05
9.79932e-06
4.18017e-06
2.6316e-06
1.90611e-06
1.56451e-06
1.54966e-06
1.88417e-06
2.61474e-06
3.90011e-06
5.98035e-06
9.05407e-06
1.29643e-05
1.75474e-05
2.28437e-05
1.24781e-05
6.33488e-06
4.59839e-06
3.82994e-06
3.4847e-06
3.46916e-06
3.83492e-06
4.62757e-06
5.93871e-06
7.88375e-06
1.0739e-05
1.42128e-05
1.90587e-05
2.58379e-05
1.67329e-05
1.03928e-05
7.80245e-06
7.12683e-06
6.95031e-06
7.157e-06
7.68795e-06
8.59642e-06
9.98635e-06
1.18297e-05
1.48596e-05
1.81827e-05
2.2957e-05
2.9238e-05
2.1526e-05
1.52695e-05
1.22405e-05
1.17385e-05
1.20096e-05
1.29179e-05
1.41449e-05
1.55862e-05
1.73149e-05
1.8982e-05
2.14749e-05
2.40198e-05
2.82169e-05
3.32145e-05
2.76252e-05
2.19422e-05
1.83847e-05
1.73347e-05
1.7835e-05
1.96152e-05
2.2074e-05
2.4555e-05
2.69658e-05
2.8551e-05
2.97967e-05
3.11422e-05
3.36051e-05
1.62288e-05
1.30339e-05
1.17878e-05
1.15982e-05
1.22273e-05
1.28141e-05
1.30505e-05
1.26471e-05
1.17489e-05
1.0738e-05
1.04366e-05
1.1528e-05
1.42774e-05
1.75804e-05
1.17992e-05
7.87372e-06
5.99882e-06
5.27302e-06
5.38844e-06
5.771e-06
6.21927e-06
6.39223e-06
6.28024e-06
6.03926e-06
6.29645e-06
7.74916e-06
1.06329e-05
1.47603e-05
8.48465e-06
4.62821e-06
2.68302e-06
1.89676e-06
1.73274e-06
1.84326e-06
2.10922e-06
2.36513e-06
2.58594e-06
2.88448e-06
3.66436e-06
5.53325e-06
8.85638e-06
1.39643e-05
7.32974e-06
3.30306e-06
1.33073e-06
6.15457e-07
4.11648e-07
3.99954e-07
4.89081e-07
6.37987e-07
8.77414e-07
1.32679e-06
2.25735e-06
4.21027e-06
7.97628e-06
1.40711e-05
7.53041e-06
3.08021e-06
9.8249e-07
3.03293e-07
1.10031e-07
6.67046e-08
8.45298e-08
1.52753e-07
3.17909e-07
7.10305e-07
1.65241e-06
3.85324e-06
8.24089e-06
1.50539e-05
8.25828e-06
3.19705e-06
9.64758e-07
2.82248e-07
7.95429e-08
2.47648e-08
2.33845e-08
6.17898e-08
1.90743e-07
5.79675e-07
1.65073e-06
4.18271e-06
8.95545e-06
1.58684e-05
9.18012e-06
3.45666e-06
1.09171e-06
3.45761e-07
1.10208e-07
4.32869e-08
3.95694e-08
8.42994e-08
2.43616e-07
7.28859e-07
2.01385e-06
4.81561e-06
9.65056e-06
1.61104e-05
1.05339e-05
4.01187e-06
1.38303e-06
5.25756e-07
2.21817e-07
1.25595e-07
1.24587e-07
1.99856e-07
4.31975e-07
1.05535e-06
2.52713e-06
5.4202e-06
9.95464e-06
1.56133e-05
1.22031e-05
5.01466e-06
1.88138e-06
9.14881e-07
5.14696e-07
3.66991e-07
3.70906e-07
5.05303e-07
8.46373e-07
1.60752e-06
3.16595e-06
5.93209e-06
9.93397e-06
1.46671e-05
1.42491e-05
6.52424e-06
2.72634e-06
1.67305e-06
1.18589e-06
9.70689e-07
9.65567e-07
1.16481e-06
1.61968e-06
2.48098e-06
4.00664e-06
6.47515e-06
9.89766e-06
1.39224e-05
1.62342e-05
8.34572e-06
4.21768e-06
3.06911e-06
2.57068e-06
2.31982e-06
2.28851e-06
2.50552e-06
3.02565e-06
3.9406e-06
5.39299e-06
7.61026e-06
1.062e-05
1.44636e-05
1.90421e-05
1.17069e-05
7.00522e-06
5.50532e-06
5.10023e-06
4.96282e-06
4.99307e-06
5.22363e-06
5.74027e-06
6.67321e-06
8.10148e-06
1.03148e-05
1.31489e-05
1.76129e-05
2.24401e-05
1.59112e-05
1.10286e-05
9.22571e-06
8.97926e-06
9.21781e-06
9.60534e-06
1.01043e-05
1.07539e-05
1.17227e-05
1.30019e-05
1.52147e-05
1.79081e-05
2.25703e-05
2.70553e-05
2.22002e-05
1.70317e-05
1.45026e-05
1.39744e-05
1.46027e-05
1.56485e-05
1.67983e-05
1.7895e-05
1.90718e-05
2.01692e-05
2.16914e-05
2.3463e-05
2.6942e-05
1.0468e-05
7.42386e-06
6.15674e-06
5.75777e-06
6.05038e-06
6.64893e-06
7.34757e-06
7.74768e-06
7.78573e-06
7.52901e-06
7.25918e-06
7.6464e-06
9.44934e-06
1.20028e-05
7.44628e-06
4.27743e-06
2.87224e-06
2.37632e-06
2.3778e-06
2.6371e-06
3.07061e-06
3.45657e-06
3.71032e-06
3.79754e-06
3.91643e-06
4.62077e-06
6.42142e-06
9.05001e-06
5.58946e-06
2.57663e-06
1.23063e-06
7.90161e-07
7.00079e-07
7.64494e-07
9.34236e-07
1.13745e-06
1.34918e-06
1.58615e-06
2.00747e-06
2.97284e-06
4.86471e-06
7.77472e-06
5.26973e-06
2.04602e-06
6.78179e-07
2.6729e-07
1.62973e-07
1.57137e-07
2.01349e-07
2.80205e-07
4.09243e-07
6.45384e-07
1.11995e-06
2.07677e-06
3.95337e-06
7.23284e-06
5.44053e-06
1.95842e-06
5.71878e-07
1.65535e-07
5.36723e-08
2.76568e-08
3.38579e-08
6.40824e-08
1.40136e-07
3.23272e-07
7.54435e-07
1.75156e-06
3.87496e-06
7.66723e-06
5.65723e-06
1.96612e-06
5.79198e-07
1.63491e-07
4.36171e-08
1.22032e-08
9.79699e-09
2.58304e-08
8.15589e-08
2.50518e-07
7.22805e-07
1.89518e-06
4.34442e-06
8.51217e-06
5.91892e-06
2.05392e-06
6.42484e-07
1.88899e-07
5.58896e-08
2.05718e-08
1.74221e-08
3.52703e-08
1.02077e-07
3.14021e-07
9.06595e-07
2.31288e-06
5.05948e-06
9.38495e-06
6.42439e-06
2.32042e-06
7.86077e-07
2.70614e-07
1.06428e-07
6.0377e-08
5.91553e-08
8.97015e-08
1.89607e-07
4.77223e-07
1.2153e-06
2.83014e-06
5.72447e-06
9.93857e-06
7.20883e-06
2.79586e-06
1.04455e-06
4.67907e-07
2.52885e-07
1.85378e-07
1.88319e-07
2.46267e-07
4.01724e-07
7.82714e-07
1.64966e-06
3.3825e-06
6.25322e-06
1.01611e-05
8.47042e-06
3.50101e-06
1.5427e-06
9.02788e-07
6.25398e-07
5.17311e-07
5.16056e-07
6.10466e-07
8.36083e-07
1.30609e-06
2.24388e-06
3.95705e-06
6.64888e-06
1.01959e-05
9.83126e-06
4.51695e-06
2.4878e-06
1.81506e-06
1.48353e-06
1.31478e-06
1.27805e-06
1.38477e-06
1.67369e-06
2.22007e-06
3.17405e-06
4.79503e-06
7.26363e-06
1.0521e-05
1.208e-05
6.74222e-06
4.28341e-06
3.57612e-06
3.24327e-06
3.0359e-06
2.93821e-06
2.99239e-06
3.27527e-06
3.88082e-06
4.87404e-06
6.43897e-06
8.72277e-06
1.19077e-05
1.50036e-05
1.01763e-05
7.32278e-06
6.51267e-06
6.31262e-06
6.20216e-06
6.12131e-06
6.11759e-06
6.30208e-06
6.85286e-06
7.83603e-06
9.48214e-06
1.16556e-05
1.54404e-05
1.98122e-05
1.56614e-05
1.19674e-05
1.08226e-05
1.07276e-05
1.09288e-05
1.11326e-05
1.12684e-05
1.14005e-05
1.17542e-05
1.24297e-05
1.38745e-05
1.57766e-05
1.96269e-05
6.02984e-06
3.75303e-06
2.80676e-06
2.42472e-06
2.44186e-06
2.71835e-06
3.19982e-06
3.69623e-06
4.11396e-06
4.35422e-06
4.47949e-06
4.60365e-06
5.39982e-06
7.0423e-06
4.37976e-06
2.08878e-06
1.17866e-06
8.90566e-07
8.42838e-07
9.20414e-07
1.10745e-06
1.33651e-06
1.56952e-06
1.7754e-06
1.98286e-06
2.33517e-06
3.30537e-06
4.99006e-06
3.70217e-06
1.388e-06
5.02763e-07
2.68806e-07
2.18844e-07
2.2922e-07
2.80385e-07
3.5575e-07
4.5124e-07
5.82621e-07
8.19667e-07
1.31881e-06
2.31482e-06
3.8968e-06
3.62304e-06
1.20291e-06
3.27686e-07
1.03648e-07
5.01798e-08
4.14296e-08
5.06845e-08
7.20742e-08
1.13294e-07
2.03691e-07
4.10647e-07
8.53126e-07
1.71925e-06
3.2287e-06
3.50945e-06
1.116e-06
3.06124e-07
8.44501e-08
2.37152e-08
8.34498e-09
7.66669e-09
1.50731e-08
3.80171e-08
1.02714e-07
2.70057e-07
6.6731e-07
1.53171e-06
3.21579e-06
3.3712e-06
1.07033e-06
3.13836e-07
8.6221e-08
2.17587e-08
5.23662e-09
2.7655e-09
6.87293e-09
2.39427e-08
8.02146e-08
2.46004e-07
6.82429e-07
1.69134e-06
3.68678e-06
3.28729e-06
1.09933e-06
3.40769e-07
9.34201e-08
2.54601e-08
8.44323e-09
6.0443e-09
1.05273e-08
2.98819e-08
9.69519e-08
3.02646e-07
8.51151e-07
2.09205e-06
4.4266e-06
3.4323e-06
1.24449e-06
4.00357e-07
1.23489e-07
4.44816e-08
2.4629e-08
2.31096e-08
3.09015e-08
5.94642e-08
1.52607e-07
4.26283e-07
1.12314e-06
2.60371e-06
5.20804e-06
3.86466e-06
1.48507e-06
5.1444e-07
2.07228e-07
1.06117e-07
7.98248e-08
8.07102e-08
9.72754e-08
1.44831e-07
2.79093e-07
6.3691e-07
1.48423e-06
3.1665e-06
5.92473e-06
4.6255e-06
1.79897e-06
7.78752e-07
4.22998e-07
2.8296e-07
2.38289e-07
2.39329e-07
2.72032e-07
3.52076e-07
5.40719e-07
9.84241e-07
1.94836e-06
3.74213e-06
6.51899e-06
5.44316e-06
2.35165e-06
1.36594e-06
9.51466e-07
7.44409e-07
6.49807e-07
6.30867e-07
6.76972e-07
8.03226e-07
1.06181e-06
1.57708e-06
2.60415e-06
4.42184e-06
7.12713e-06
6.92965e-06
3.63627e-06
2.57834e-06
2.11898e-06
1.81785e-06
1.62166e-06
1.52731e-06
1.54305e-06
1.69957e-06
2.04043e-06
2.62707e-06
3.65073e-06
5.381e-06
7.94898e-06
9.10691e-06
6.0427e-06
4.83137e-06
4.31782e-06
3.95849e-06
3.6442e-06
3.40326e-06
3.28454e-06
3.36481e-06
3.73085e-06
4.40738e-06
5.49702e-06
7.12523e-06
9.67448e-06
1.30669e-05
1.00692e-05
8.32328e-06
7.81229e-06
7.53024e-06
7.22028e-06
6.8503e-06
6.49533e-06
6.3037e-06
6.48137e-06
7.09493e-06
8.29852e-06
9.82184e-06
1.25551e-05
3.47857e-06
1.78882e-06
1.14633e-06
9.02129e-07
8.52233e-07
9.27116e-07
1.13639e-06
1.4304e-06
1.77959e-06
2.12568e-06
2.40819e-06
2.58188e-06
2.89298e-06
3.70743e-06
2.74075e-06
1.03816e-06
4.27618e-07
2.72214e-07
2.42884e-07
2.59271e-07
3.1975e-07
4.14861e-07
5.39961e-07
6.87029e-07
8.5015e-07
1.06036e-06
1.502e-06
2.46415e-06
2.45216e-06
7.65524e-07
1.9586e-07
7.30887e-08
5.11577e-08
5.21022e-08
6.50211e-08
8.72683e-08
1.20782e-07
1.74673e-07
2.76238e-07
4.93948e-07
9.529e-07
1.78975e-06
2.32012e-06
6.75264e-07
1.54725e-07
3.84895e-08
1.29929e-08
8.01677e-09
9.23871e-09
1.37792e-08
2.43045e-08
5.16995e-08
1.23471e-07
2.9508e-07
6.57029e-07
1.33464e-06
2.10429e-06
6.02257e-07
1.55028e-07
3.98752e-08
9.83234e-09
2.38439e-09
1.25776e-09
2.53387e-09
7.9082e-09