/*--------------------------------*- C++ -*----------------------------------*\
| =========                 |                                                 |
| \\      /  F ield         | OpenFOAM: The Open Source CFD Toolbox           |
|  \\    /   O peration     | Version:  v2106                                 |
|   \\  /    A nd           | Website:  www.openfoam.com                      |
|    \\/     M anipulation  |                                                 |
\*---------------------------------------------------------------------------*/
FoamFile
{
    version     2.0;
    format      ascii;
    arch        "LSB;label=32;scalar=64";
    class       volVectorField;
    location    "0.000182";
    object      U;
}
// * * * * * * * * * * * * * * * * * * * * * * * * * * * * * * * * * * * * * //

dimensions      [0 1 -1 0 0 0 0];

internalField   nonuniform List<vector> 
17927
(
(0.0077394 0.00773914 -1.10303)
(0.00750629 0.00859436 -1.10374)
(0.00688852 0.00932773 -1.10504)
(0.0057258 0.0100159 -1.10589)
(0.0042973 0.0105618 -1.10641)
(0.00265063 0.0109369 -1.10675)
(0.00102179 0.0111048 -1.10712)
(0.00859801 0.00749182 -1.10375)
(0.00822969 0.00821227 -1.10556)
(0.00699943 0.00886939 -1.10663)
(0.00571546 0.00938348 -1.10736)
(0.00424098 0.00972156 -1.10779)
(0.00262652 0.00995356 -1.10809)
(0.00103885 0.0100299 -1.10848)
(0.00933035 0.0068707 -1.10507)
(0.00888653 0.0069793 -1.10665)
(0.00766064 0.00763791 -1.10747)
(0.00631746 0.00808767 -1.10828)
(0.00471081 0.00837299 -1.10887)
(0.00293043 0.00859349 -1.10932)
(0.00115675 0.008669 -1.10981)
(0.0100137 0.00570534 -1.10593)
(0.00939652 0.00569343 -1.10739)
(0.00810904 0.00629303 -1.1083)
(0.00669195 0.00666714 -1.10929)
(0.00499455 0.00688248 -1.11004)
(0.00310509 0.00704923 -1.11055)
(0.00122891 0.0071004 -1.11108)
(0.0105568 0.00428003 -1.10647)
(0.00973102 0.00422075 -1.10783)
(0.00839226 0.00468824 -1.10889)
(0.00690689 0.00497113 -1.11005)
(0.00515562 0.00513205 -1.11101)
(0.00319406 0.00526296 -1.1116)
(0.00126731 0.0053049 -1.11219)
(0.0109285 0.00263883 -1.10681)
(0.0099586 0.0026111 -1.10813)
(0.00860927 0.00291184 -1.10935)
(0.0070716 0.00308479 -1.11056)
(0.00528623 0.0031732 -1.11161)
(0.00326945 0.00324791 -1.11226)
(0.00129925 0.00326826 -1.11289)
(0.0110951 0.00102287 -1.10718)
(0.0100308 0.00103401 -1.10853)
(0.00868118 0.00114641 -1.10984)
(0.00712036 0.00121482 -1.11109)
(0.00532654 0.00125092 -1.11219)
(0.00328827 0.00128082 -1.11289)
(0.00130977 0.00129289 -1.11357)
(0.011089 -0.000889184 -1.10719)
(0.0100283 -0.00088859 -1.10853)
(0.00867926 -0.00099834 -1.10985)
(0.00711948 -0.00106127 -1.1111)
(0.00532514 -0.00109403 -1.1122)
(0.00328641 -0.00112444 -1.11289)
(0.00130783 -0.0011332 -1.11357)
(0.0109378 -0.00251617 -1.10682)
(0.00996962 -0.00247785 -1.10815)
(0.00861745 -0.00277422 -1.10937)
(0.00707882 -0.00294116 -1.11059)
(0.00529085 -0.00302515 -1.11163)
(0.00327084 -0.00309929 -1.11228)
(0.00129773 -0.0031159 -1.11291)
(0.00572958 0.00568071 -1.10783)
(0.00565824 0.00630994 -1.10844)
(0.00533521 0.00685166 -1.10971)
(0.00451598 0.00747606 -1.11062)
(0.00341665 0.00796202 -1.11117)
(0.00209979 0.00832915 -1.11154)
(0.00083161 0.00849265 -1.11201)
(-0.000781606 0.00850046 -1.11203)
(-0.00205253 0.00834865 -1.1116)
(-0.00337104 0.00798899 -1.11128)
(-0.00447595 0.00751096 -1.11075)
(-0.00529892 0.00688858 -1.10986)
(-0.00562396 0.00634345 -1.10859)
(-0.0056966 0.00570913 -1.10799)
(0.00636306 0.00559622 -1.10845)
(0.00623202 0.00616402 -1.11016)
(0.00528165 0.00670464 -1.11139)
(0.00430942 0.00717827 -1.11226)
(0.00313958 0.0074298 -1.11271)
(0.00189541 0.00759735 -1.11303)
(0.000786837 0.00761648 -1.11353)
(-0.000719889 0.00761659 -1.11355)
(-0.00183679 0.00761483 -1.1131)
(-0.00308059 0.0074537 -1.11281)
(-0.00425486 0.00721194 -1.11239)
(-0.00523579 0.00674597 -1.11155)
(-0.0061903 0.00620433 -1.11033)
(-0.00632855 0.00562662 -1.10862)
(0.00690489 0.00527995 -1.10974)
(0.00677262 0.00522116 -1.11141)
(0.00577393 0.00570934 -1.11239)
(0.0047958 0.00608805 -1.11329)
(0.003552 0.00629512 -1.11384)
(0.00217787 0.0064571 -1.1143)
(0.000901451 0.00647998 -1.11492)
(-0.000827774 0.00647957 -1.11494)
(-0.00211353 0.00646944 -1.11437)
(-0.00348508 0.00631259 -1.11395)
(-0.00473321 0.006115 -1.11343)
(-0.00572131 0.00574428 -1.11255)
(-0.00672685 0.00525758 -1.11159)
(-0.00687137 0.00531288 -1.10992)
(0.0075232 0.00446817 -1.11067)
(0.00724084 0.00425737 -1.11229)
(0.0061504 0.00474018 -1.1133)
(0.00508712 0.00503205 -1.11435)
(0.00376402 0.00517548 -1.11508)
(0.00229695 0.00527355 -1.11556)
(0.000951525 0.00526291 -1.11621)
(-0.000872099 0.00526122 -1.11623)
(-0.00222645 0.00527965 -1.11564)
(-0.0036891 0.00518529 -1.1152)
(-0.00501611 0.00504991 -1.1145)
(-0.00609017 0.00476646 -1.11347)
(-0.00719111 0.00428668 -1.11247)
(-0.00748995 0.00449768 -1.11085)
(0.00800558 0.00338404 -1.11123)
(0.0074887 0.00310139 -1.11275)
(0.00635673 0.00351086 -1.11386)
(0.0052309 0.00372247 -1.11509)
(0.00387118 0.00382933 -1.11603)
(0.00234597 0.00390724 -1.11657)
(0.000975379 0.00390342 -1.11727)
(-0.000893856 0.0039012 -1.11729)
(-0.00227252 0.00390848 -1.11665)
(-0.0037905 0.00383194 -1.11615)
(-0.00515329 0.00373135 -1.11524)
(-0.00628848 0.00352683 -1.11404)
(-0.00743387 0.00312168 -1.11293)
(-0.00797071 0.00340543 -1.11142)
(0.00836648 0.00207909 -1.1116)
(0.00765037 0.00187117 -1.11307)
(0.00651569 0.00215215 -1.11432)
(0.00532776 0.00227071 -1.11557)
(0.00394917 0.00231967 -1.11657)
(0.00238705 0.00236031 -1.11712)
(0.000995746 0.00235071 -1.11785)
(-0.000914154 0.00234868 -1.11787)
(-0.00231276 0.00235973 -1.1172)
(-0.00386582 0.00231917 -1.11669)
(-0.00524625 0.00227409 -1.11573)
(-0.00644242 0.00216031 -1.1145)
(-0.0075911 0.00188317 -1.11326)
(-0.00832957 0.00209282 -1.11179)
(0.00853423 0.000835063 -1.11207)
(0.00766908 0.000783818 -1.11358)
(0.00653833 0.000893721 -1.11495)
(0.00531725 0.000942489 -1.11622)
(0.00394518 0.000966495 -1.11727)
(0.00237705 0.000987541 -1.11785)
(0.000998101 0.000991909 -1.11862)
(-0.000917774 0.000990621 -1.11865)
(-0.00230338 0.000987115 -1.11793)
(-0.00386002 0.000965521 -1.1174)
(-0.00523139 0.000943329 -1.11638)
(-0.00645855 0.000896801 -1.11512)
(-0.00760357 0.000788845 -1.11376)
(-0.00849145 0.000840497 -1.11226)
(0.00853311 -0.00076704 -1.11209)
(0.00766557 -0.000707629 -1.11359)
(0.00653554 -0.000818712 -1.11496)
(0.00531526 -0.000864056 -1.11624)
(0.00394341 -0.000886026 -1.11729)
(0.00237575 -0.000906198 -1.11786)
(0.00099701 -0.000907511 -1.11864)
(-0.000917534 -0.000907213 -1.11866)
(-0.00230282 -0.000903032 -1.11794)
(-0.00385854 -0.000882526 -1.11741)
(-0.00522842 -0.000860016 -1.11639)
(-0.00645412 -0.00081526 -1.11514)
(-0.00759845 -0.000705976 -1.11378)
(-0.00848948 -0.000766074 -1.11227)
(0.00836801 -0.00201994 -1.11165)
(0.00765486 -0.00180772 -1.11313)
(0.00652039 -0.00208893 -1.11438)
(0.00533295 -0.00220411 -1.11564)
(0.00395311 -0.00225047 -1.11664)
(0.00239001 -0.00228982 -1.11718)
(0.000996308 -0.00227673 -1.11791)
(-0.000912075 -0.00227543 -1.11794)
(-0.00231297 -0.00228501 -1.11726)
(-0.00386686 -0.00224503 -1.11675)
(-0.00524735 -0.00219917 -1.11578)
(-0.00644397 -0.00208676 -1.11455)
(-0.00759565 -0.00180965 -1.1133)
(-0.00833444 -0.0020241 -1.11182)
(0.00800807 -0.00333275 -1.11132)
(0.00749348 -0.00304465 -1.11284)
(0.00636383 -0.00345199 -1.11396)
(0.00523937 -0.00365901 -1.11519)
(0.0038783 -0.00376143 -1.11613)
(0.0023514 -0.00383632 -1.11667)
(0.000977227 -0.0038273 -1.11738)
(-0.000890533 -0.00382475 -1.1174)
(-0.00227224 -0.0038297 -1.11674)
(-0.00379199 -0.0037537 -1.11624)
(-0.00515514 -0.00365335 -1.11533)
(-0.0062908 -0.00345163 -1.11411)
(-0.00743923 -0.00305046 -1.113)
(-0.00797858 -0.00334291 -1.11148)
(0.00752668 -0.00442965 -1.11079)
(0.00724756 -0.00421165 -1.11241)
(0.00616238 -0.00469164 -1.11343)
(0.0051014 -0.00497879 -1.11449)
(0.00377732 -0.00511788 -1.11522)
(0.00230737 -0.00521151 -1.1157)
(0.000957778 -0.00519478 -1.11635)
(-0.000866308 -0.005191 -1.11637)
(-0.00222455 -0.00520456 -1.11576)
(-0.00369174 -0.00511025 -1.11532)
(-0.00502124 -0.00497493 -1.11461)
(-0.00609702 -0.00469476 -1.11356)
(-0.00720231 -0.00422065 -1.11255)
(-0.00750377 -0.00444428 -1.11093)
(0.00690675 -0.00525052 -1.10989)
(0.00678045 -0.00518928 -1.11156)
(0.0057894 -0.00567584 -1.11255)
(0.00481563 -0.00604943 -1.11345)
(0.00357208 -0.00625099 -1.11401)
(0.00219419 -0.0064069 -1.11447)
(0.000913842 -0.00642341 -1.11509)
(-0.000819847 -0.00641857 -1.11511)
(-0.0021096 -0.00640204 -1.11452)
(-0.00348837 -0.00624495 -1.11409)
(-0.00474069 -0.00604797 -1.11355)
(-0.00573313 -0.00568279 -1.11267)
(-0.00674521 -0.0052018 -1.11169)
(-0.00688886 -0.00526798 -1.11002)
(0.00636528 -0.00557781 -1.10862)
(0.00623861 -0.00614192 -1.11033)
(0.00529836 -0.0066805 -1.11157)
(0.00433118 -0.00714907 -1.11244)
(0.00316384 -0.00739624 -1.11289)
(0.00191594 -0.00755671 -1.11322)
(0.00080819 -0.00757234 -1.11372)
(-0.000709089 -0.00756801 -1.11373)
(-0.00182984 -0.00755821 -1.11326)
(-0.00308358 -0.00739716 -1.11296)
(-0.00426302 -0.00715546 -1.11253)
(-0.00524926 -0.00669553 -1.11168)
(-0.00621148 -0.00616118 -1.11045)
(-0.00634412 -0.00558929 -1.10872)
(0.0057302 -0.0056582 -1.108)
(0.00565976 -0.00628828 -1.10862)
(0.00534942 -0.00683161 -1.1099)
(0.00453875 -0.00745428 -1.11082)
(0.0034431 -0.00793882 -1.11137)
(0.00212185 -0.00829989 -1.11173)
(0.000860191 -0.00846969 -1.1122)
(-0.000767366 -0.00846454 -1.11222)
(-0.00204027 -0.00830442 -1.11177)
(-0.00337136 -0.00794429 -1.11143)
(-0.00448226 -0.00746401 -1.1109)
(-0.00531129 -0.00684609 -1.11)
(-0.00563678 -0.00630058 -1.10871)
(-0.00571183 -0.00567063 -1.10809)
(0.00452213 0.00443745 -1.10736)
(0.00442001 0.00488928 -1.10753)
(0.0041468 0.00521258 -1.10824)
(0.00353125 0.00568454 -1.10864)
(0.00268267 0.00601491 -1.10876)
(0.00163285 0.00632485 -1.10888)
(0.000644005 0.00644184 -1.10927)
(-0.000699501 0.00645478 -1.10929)
(-0.001682 0.00633278 -1.10896)
(-0.00272195 0.00602438 -1.10888)
(-0.00355663 0.00569703 -1.10879)
(-0.00415324 0.00522457 -1.10842)
(-0.00440894 0.00489734 -1.10774)
(-0.00448993 0.00444947 -1.10758)
(0.00497618 0.00433019 -1.10753)
(0.00472393 0.00462995 -1.10853)
(0.00401412 0.00502055 -1.1092)
(0.0032374 0.0054376 -1.10953)
(0.00230078 0.00561843 -1.1095)
(0.00130677 0.00575677 -1.10955)
(0.00053943 0.0057152 -1.10996)
(-0.000590822 0.00571248 -1.10998)
(-0.00135772 0.00575625 -1.10963)
(-0.00233399 0.00561671 -1.10962)
(-0.00325075 0.00544111 -1.10969)
(-0.00401662 0.00503118 -1.10939)
(-0.00470658 0.00463966 -1.10876)
(-0.00494345 0.00433798 -1.10778)
(0.00530203 0.00407156 -1.10824)
(0.00511539 0.00393454 -1.1092)
(0.00433644 0.00425147 -1.10952)
(0.00356598 0.00457224 -1.10987)
(0.00261795 0.0047055 -1.1099)
(0.00154574 0.0048118 -1.11003)
(0.000635861 0.00474525 -1.11057)
(-0.000690474 0.00473997 -1.11059)
(-0.00160265 0.00480857 -1.11012)
(-0.00265186 0.0046976 -1.11002)
(-0.00357581 0.004566 -1.11005)
(-0.0043305 0.00424948 -1.10973)
(-0.00509044 0.00394287 -1.10944)
(-0.00526345 0.0040769 -1.1085)
(0.00576952 0.00347082 -1.10864)
(0.00552697 0.00317074 -1.10953)
(0.00465435 0.0034953 -1.10987)
(0.00379887 0.00372985 -1.11036)
(0.00277476 0.00382499 -1.11055)
(0.00162533 0.0038888 -1.11068)
(0.000659836 0.00380423 -1.11124)
(-0.000718174 0.00379646 -1.11126)
(-0.00168579 0.00388172 -1.11077)
(-0.00280638 0.00381315 -1.11069)
(-0.00380518 0.00371914 -1.11055)
(-0.00464097 0.00348771 -1.1101)
(-0.00549105 0.00316902 -1.10978)
(-0.00572725 0.00347495 -1.10891)
(0.00609456 0.00264275 -1.10877)
(0.00570319 0.00225339 -1.10951)
(0.00478742 0.00256779 -1.1099)
(0.00389548 0.00272548 -1.11056)
(0.00284645 0.00279631 -1.11098)
(0.00164789 0.00285515 -1.11115)
(0.00066595 0.00279728 -1.11178)
(-0.000728245 0.00279001 -1.1118)
(-0.00171308 0.00284781 -1.11124)
(-0.00287811 0.00278495 -1.11112)
(-0.00390157 0.00271515 -1.11075)
(-0.00476864 0.00256027 -1.11013)
(-0.00566045 0.00224931 -1.10977)
(-0.00604939 0.00264511 -1.10905)
(0.00639565 0.00160841 -1.10888)
(0.00583475 0.00127736 -1.10955)
(0.00489054 0.00151585 -1.11004)
(0.00395773 0.00159632 -1.11068)
(0.00290451 0.00161861 -1.11115)
(0.00168286 0.00165428 -1.11129)
(0.000675209 0.00161097 -1.11193)
(-0.000739524 0.00160504 -1.11196)
(-0.00175124 0.00164918 -1.11138)
(-0.00293812 0.00161139 -1.11129)
(-0.00396483 0.00159026 -1.11088)
(-0.00486891 0.00151259 -1.11028)
(-0.00578903 0.00127671 -1.10983)
(-0.00634917 0.00161276 -1.10918)
(0.00651959 0.000648159 -1.10927)
(0.00579589 0.000537984 -1.10997)
(0.00482611 0.000630862 -1.11057)
(0.00387494 0.000655318 -1.11124)
(0.00284725 0.000662269 -1.11177)
(0.00163952 0.000673232 -1.11193)
(0.000662091 0.000661879 -1.1126)
(-0.000726545 0.000658747 -1.11263)
(-0.00170986 0.000672757 -1.11202)
(-0.00288006 0.000661373 -1.11192)
(-0.00388008 0.000656104 -1.11144)
(-0.00479913 0.000633884 -1.11082)
(-0.00574357 0.00054286 -1.11024)
(-0.00646385 0.000652747 -1.10957)
(0.00652262 -0.000674337 -1.1093)
(0.00579024 -0.000567819 -1.10999)
(0.00482074 -0.000671295 -1.11059)
(0.00386901 -0.000700288 -1.11126)
(0.00284207 -0.00071114 -1.11179)
(0.00163532 -0.000722647 -1.11195)
(0.000659328 -0.000708717 -1.11262)
(-0.000724397 -0.000706508 -1.11265)
(-0.0017066 -0.000710354 -1.11205)
(-0.00287415 -0.000694521 -1.11194)
(-0.00387219 -0.000679311 -1.11146)
(-0.00479071 -0.000649105 -1.11084)
(-0.00573465 -0.000546465 -1.11027)
(-0.00646428 -0.00065661 -1.1096)
(0.0063843 -0.00163736 -1.10895)
(0.00582256 -0.00131457 -1.10963)
(0.00488273 -0.00156293 -1.11011)
(0.00395191 -0.00164771 -1.11076)
(0.0029005 -0.00167456 -1.11123)
(0.00168094 -0.00171188 -1.11137)
(0.000674713 -0.00166789 -1.11201)
(-0.000727984 -0.00166375 -1.11204)
(-0.00174147 -0.00169817 -1.11147)
(-0.00292568 -0.0016561 -1.11138)
(-0.00395169 -0.00162477 -1.11096)
(-0.00485691 -0.00153961 -1.11036)
(-0.00577654 -0.00129194 -1.10991)
(-0.00633942 -0.00161965 -1.10925)
(0.00607645 -0.00267067 -1.10888)
(0.00568462 -0.00228323 -1.10962)
(0.00477418 -0.00260267 -1.11002)
(0.0038861 -0.00275973 -1.11068)
(0.00284053 -0.00283176 -1.11111)
(0.00164541 -0.00289103 -1.11128)
(0.000665657 -0.0028309 -1.11191)
(-0.000711541 -0.00282366 -1.11193)
(-0.00169856 -0.00287243 -1.11138)
(-0.00285969 -0.00280575 -1.11125)
(-0.003881 -0.00272839 -1.11088)
(-0.00474776 -0.00257026 -1.11026)
(-0.00564031 -0.00225231 -1.10989)
(-0.00603435 -0.00264669 -1.10917)
(0.00574701 -0.00349967 -1.10879)
(0.0055069 -0.00319483 -1.10967)
(0.00463955 -0.00351946 -1.11003)
(0.00379014 -0.00375194 -1.11053)
(0.00277089 -0.00384867 -1.11073)
(0.00162506 -0.00391179 -1.11086)
(0.000662599 -0.00382549 -1.11143)
(-0.000695866 -0.00381629 -1.11145)
(-0.00166564 -0.00389107 -1.11096)
(-0.00278229 -0.00381871 -1.11087)
(-0.00377901 -0.00371568 -1.11073)
(-0.00461464 -0.00348094 -1.11027)
(-0.00546838 -0.00315851 -1.10994)
(-0.00570975 -0.00347237 -1.10907)
(0.00527787 -0.00409683 -1.10843)
(0.0050996 -0.00396066 -1.10938)
(0.00432326 -0.004273 -1.10971)
(0.00355854 -0.00458748 -1.11008)
(0.00261662 -0.00471718 -1.11012)
(0.00154828 -0.00481786 -1.11026)
(0.000643345 -0.00474833 -1.1108)
(-0.000664081 -0.00473833 -1.11083)
(-0.0015774 -0.00479764 -1.11035)
(-0.00262216 -0.00468488 -1.11026)
(-0.00354378 -0.00454802 -1.11027)
(-0.00430015 -0.00423191 -1.10994)
(-0.00506917 -0.00392537 -1.10964)
(-0.00523979 -0.00406237 -1.10869)
(0.00495114 -0.00435768 -1.10775)
(0.0047097 -0.00465102 -1.10875)
(0.00401199 -0.005034 -1.10942)
(0.00323549 -0.00543982 -1.10976)
(0.00230322 -0.00561313 -1.10975)
(0.00131177 -0.00574343 -1.10981)
(0.00055524 -0.00570036 -1.11023)
(-0.00055946 -0.00568984 -1.11025)
(-0.00132546 -0.00572211 -1.1099)
(-0.00229952 -0.00558117 -1.10988)
(-0.00321686 -0.00540282 -1.10994)
(-0.00399025 -0.00500055 -1.10964)
(-0.00468611 -0.00461674 -1.109)
(-0.00491863 -0.00431579 -1.10798)
(0.00449795 -0.00444692 -1.10759)
(0.0044007 -0.00489653 -1.10777)
(0.00414197 -0.00521651 -1.10849)
(0.00353799 -0.00568349 -1.1089)
(0.00269572 -0.00600735 -1.10903)
(0.00164525 -0.00630785 -1.10916)
(0.000668127 -0.00642982 -1.10955)
(-0.000665815 -0.00642591 -1.10958)
(-0.00164654 -0.00629173 -1.10924)
(-0.00268848 -0.00598113 -1.10916)
(-0.00352537 -0.00564818 -1.10906)
(-0.00412363 -0.00517556 -1.10869)
(-0.00438249 -0.0048537 -1.10798)
(-0.0044655 -0.00440252 -1.1078)
(0.00539163 0.00529458 -1.10174)
(0.00507256 0.00590606 -1.10151)
(0.0047238 0.00620682 -1.10111)
(0.00401872 0.00654439 -1.10069)
(0.00304068 0.00677315 -1.10014)
(0.00181229 0.00704384 -1.09993)
(0.000632779 0.00707474 -1.10016)
(-0.000794358 0.0070891 -1.10018)
(-0.00195438 0.00703465 -1.09998)
(-0.00316222 0.00675776 -1.10021)
(-0.00411434 0.00652657 -1.10077)
(-0.00479863 0.00619233 -1.10119)
(-0.00511098 0.0058828 -1.10161)
(-0.00540607 0.00527314 -1.10185)
(0.0059969 0.00499459 -1.10151)
(0.00527284 0.00519186 -1.10152)
(0.00447905 0.00546686 -1.10101)
(0.00358788 0.00591959 -1.10057)
(0.00260031 0.00616114 -1.09994)
(0.00146815 0.00638208 -1.09962)
(0.000496245 0.00633061 -1.09982)
(-0.000667243 0.00632906 -1.09983)
(-0.00162558 0.00636298 -1.09968)
(-0.00273633 0.00613234 -1.10002)
(-0.00369281 0.0058854 -1.10068)
(-0.00454597 0.00543122 -1.10113)
(-0.00530804 0.00515253 -1.10162)
(-0.00600993 0.00496366 -1.10165)
(0.00628899 0.00466278 -1.10108)
(0.00554632 0.00441131 -1.101)
(0.00480486 0.00473549 -1.10053)
(0.00392245 0.0051522 -1.10005)
(0.00296715 0.00541603 -1.0993)
(0.00177027 0.00563902 -1.0989)
(0.000598984 0.00555383 -1.09911)
(-0.000781325 0.00554419 -1.09912)
(-0.0019443 0.00562109 -1.09895)
(-0.00311584 0.00538642 -1.09938)
(-0.00403374 0.00511119 -1.10017)
(-0.00487451 0.00468383 -1.10068)
(-0.00557858 0.00436106 -1.10115)
(-0.00628487 0.00462294 -1.10122)
(0.00662014 0.00396762 -1.10065)
(0.00599563 0.00353339 -1.10056)
(0.00522018 0.00386486 -1.10005)
(0.00430043 0.00424384 -1.09951)
(0.00326392 0.00449395 -1.09873)
(0.00197061 0.00472689 -1.09817)
(0.000640736 0.00467594 -1.09836)
(-0.000835947 0.00466278 -1.09837)
(-0.00215965 0.0047078 -1.09823)
(-0.00342378 0.00446277 -1.09881)
(-0.00442184 0.00420061 -1.09963)
(-0.00529562 0.00381125 -1.10022)
(-0.00602264 0.00348371 -1.10075)
(-0.00660658 0.00391575 -1.10084)
(0.00684433 0.00300324 -1.10011)
(0.00623566 0.00256279 -1.09992)
(0.0054851 0.00292924 -1.09929)
(0.00455146 0.00322633 -1.09872)
(0.00346472 0.00342677 -1.09797)
(0.00209919 0.0036254 -1.09732)
(0.000661746 0.00357121 -1.0975)
(-0.00086788 0.00355862 -1.09751)
(-0.00230298 0.00360806 -1.09737)
(-0.00364013 0.00339747 -1.09805)
(-0.00468333 0.00318647 -1.09885)
(-0.00556709 0.00288166 -1.09947)
(-0.00625991 0.00251615 -1.10012)
(-0.00682424 0.0029512 -1.10033)
(0.00710745 0.0017908 -1.0999)
(0.00645248 0.00144684 -1.0996)
(0.00570581 0.0017498 -1.09888)
(0.00478265 0.00195139 -1.09816)
(0.00366312 0.00208023 -1.09731)
(0.00223971 0.00222244 -1.09652)
(0.000697453 0.00221574 -1.09665)
(-0.000909915 0.00220411 -1.09665)
(-0.00245579 0.00220823 -1.09657)
(-0.00384274 0.00205841 -1.0974)
(-0.00492854 0.00192219 -1.09829)
(-0.00579386 0.00171418 -1.09907)
(-0.0064798 0.00140948 -1.09981)
(-0.0070854 0.00175313 -1.10014)
(0.00714739 0.000634711 -1.10014)
(0.00640833 0.000496518 -1.0998)
(0.005625 0.000598508 -1.09909)
(0.00473353 0.000641577 -1.09835)
(0.00361145 0.000663521 -1.0975)
(0.00223297 0.000700769 -1.09665)
(0.000692648 0.000696667 -1.09676)
(-0.000909606 0.000690362 -1.09677)
(-0.00245869 0.000692806 -1.0967)
(-0.00379078 0.00064852 -1.09759)
(-0.00489132 0.000619998 -1.09849)
(-0.00571701 0.000571292 -1.09929)
(-0.00643296 0.000466906 -1.10003)
(-0.00711607 0.000604734 -1.1004)
(0.00715628 -0.000769221 -1.10016)
(0.00640592 -0.000643253 -1.09981)
(0.00561887 -0.000759117 -1.0991)
(0.00472469 -0.000813268 -1.09836)
(0.0036026 -0.00084478 -1.09751)
(0.00222373 -0.00088807 -1.09666)
(0.000687184 -0.000886909 -1.09677)
(-0.000911907 -0.000889079 -1.09678)
(-0.00245738 -0.000886555 -1.09672)
(-0.00378495 -0.000840855 -1.09761)
(-0.00488505 -0.000806355 -1.09851)
(-0.00570859 -0.00075092 -1.09931)
(-0.00642497 -0.000633281 -1.10005)
(-0.00711866 -0.000759951 -1.10043)
(0.00708695 -0.00191508 -1.09995)
(0.00642943 -0.00158847 -1.09965)
(0.00569127 -0.0019071 -1.09893)
(0.00476868 -0.00212127 -1.09821)
(0.00365001 -0.00226296 -1.09737)
(0.00222762 -0.00241798 -1.09657)
(0.000689488 -0.00242001 -1.09671)
(-0.000909724 -0.0024182 -1.09672)
(-0.002454 -0.00241385 -1.09664)
(-0.00383643 -0.00226111 -1.09748)
(-0.0049215 -0.00211617 -1.09838)
(-0.00577989 -0.00189697 -1.09916)
(-0.00645248 -0.00157367 -1.0999)
(-0.00705958 -0.00189531 -1.10023)
(0.00681038 -0.00311554 -1.10018)
(0.00620061 -0.00269286 -1.1)
(0.00545943 -0.00307136 -1.09937)
(0.00452749 -0.00337846 -1.0988)
(0.00344168 -0.00359386 -1.09805)
(0.0020805 -0.00379333 -1.09741)
(0.000646457 -0.00373868 -1.0976)
(-0.000864803 -0.00373207 -1.09762)
(-0.00230279 -0.00378303 -1.09749)
(-0.00363351 -0.00358304 -1.09818)
(-0.00466518 -0.00335535 -1.09898)
(-0.00553901 -0.00303627 -1.09961)
(-0.00621638 -0.0026529 -1.10025)
(-0.006781 -0.00306412 -1.10045)
(0.00657932 -0.00406792 -1.10074)
(0.00595473 -0.00364653 -1.10067)
(0.00518434 -0.00398358 -1.10016)
(0.00426631 -0.00437177 -1.09962)
(0.0032324 -0.00463169 -1.09885)
(0.00194601 -0.00487808 -1.0983)
(0.00061875 -0.00483963 -1.0985)
(-0.000830626 -0.00483183 -1.09852)
(-0.00215789 -0.0048642 -1.09839)
(-0.00340714 -0.00460531 -1.09899)
(-0.00439038 -0.00432911 -1.09981)
(-0.00525201 -0.00392541 -1.1004)
(-0.00596384 -0.00358316 -1.10092)
(-0.00654899 -0.00399228 -1.10098)
(0.00624416 -0.00475871 -1.10116)
(0.00550365 -0.00450098 -1.10112)
(0.00475906 -0.00482701 -1.10068)
(0.00387993 -0.00525064 -1.10022)
(0.00293001 -0.00552093 -1.09947)
(0.00174071 -0.00574778 -1.09908)
(0.000573276 -0.00566959 -1.0993)
(-0.000772559 -0.00565917 -1.09932)
(-0.00193534 -0.0057234 -1.09917)
(-0.00308542 -0.00547997 -1.09961)
(-0.00398555 -0.0051894 -1.1004)
(-0.00481049 -0.00474724 -1.1009)
(-0.00550437 -0.00441041 -1.10136)
(-0.00620807 -0.00466766 -1.10135)
(0.00594692 -0.00507588 -1.10161)
(0.00522569 -0.00526322 -1.10162)
(0.0044322 -0.00553328 -1.10116)
(0.00354843 -0.00598337 -1.10076)
(0.00256354 -0.00622194 -1.10013)
(0.00143706 -0.00644171 -1.09983)
(0.000471896 -0.00639454 -1.10004)
(-0.000652343 -0.00638327 -1.10007)
(-0.00160778 -0.00640049 -1.09992)
(-0.0026974 -0.00616075 -1.10026)
(-0.00363738 -0.00590119 -1.10093)
(-0.00447019 -0.0054408 -1.10136)
(-0.00522908 -0.00516341 -1.10179)
(-0.00592385 -0.0049678 -1.10181)
(0.00533401 -0.00536473 -1.10186)
(0.005028 -0.00596497 -1.10165)
(0.00468753 -0.0062465 -1.10124)
(0.00397836 -0.00657465 -1.10085)
(0.00300054 -0.00679404 -1.10034)
(0.00178265 -0.00705714 -1.10016)
(0.000614928 -0.00708976 -1.10041)
(-0.000773564 -0.00708876 -1.10044)
(-0.00192397 -0.00701715 -1.10024)
(-0.00310541 -0.00673438 -1.10046)
(-0.00404256 -0.00649209 -1.10099)
(-0.00472306 -0.00615096 -1.10137)
(-0.005031 -0.00584972 -1.1018)
(-0.00531626 -0.00523691 -1.10204)
(0.00799598 0.00789442 -1.09161)
(0.00719896 0.00884959 -1.09087)
(0.00698962 0.0094132 -1.08924)
(0.00590648 0.0100505 -1.08772)
(0.00457525 0.0106843 -1.08612)
(0.00277707 0.0113138 -1.08522)
(0.000884607 0.0114256 -1.08499)
(-0.00108289 0.0114374 -1.08498)
(-0.00295583 0.0112976 -1.08521)
(-0.00473475 0.0106611 -1.0861)
(-0.00603578 0.0100171 -1.08769)
(-0.00709093 0.00938007 -1.08922)
(-0.00726806 0.00880447 -1.09082)
(-0.00805862 0.00782663 -1.09157)
(0.00889816 0.00716775 -1.09086)
(0.00765504 0.00762129 -1.08928)
(0.00670691 0.0084028 -1.08745)
(0.00554096 0.00934798 -1.08557)
(0.00425333 0.0100319 -1.08364)
(0.0025455 0.0105875 -1.08247)
(0.000765329 0.0106275 -1.08212)
(-0.000975984 0.0106279 -1.0821)
(-0.00273795 0.0105667 -1.08244)
(-0.00442978 0.0100003 -1.0836)
(-0.00569663 0.00930428 -1.08552)
(-0.00682475 0.00833829 -1.08741)
(-0.00773363 0.0075358 -1.08928)
(-0.00893713 0.007083 -1.09087)
(0.00944796 0.00696778 -1.08921)
(0.00843693 0.00667723 -1.08743)
(0.00759064 0.00756283 -1.08533)
(0.00641204 0.00849816 -1.08304)
(0.00507489 0.00913522 -1.0808)
(0.0031911 0.00977631 -1.07936)
(0.000959793 0.00983879 -1.07894)
(-0.00117712 0.00983062 -1.07891)
(-0.00339248 0.0097563 -1.07933)
(-0.00526479 0.0091062 -1.08074)
(-0.00658076 0.008448 -1.08298)
(-0.00772547 0.00750378 -1.08528)
(-0.00852459 0.00660379 -1.0874)
(-0.00947675 0.00688413 -1.08925)
(0.0100803 0.00588249 -1.08765)
(0.00937596 0.00551599 -1.08553)
(0.00854127 0.00638174 -1.08302)
(0.00728804 0.00726967 -1.08036)
(0.00585806 0.00815418 -1.07788)
(0.00373251 0.00890297 -1.07624)
(0.00109992 0.00900131 -1.07581)
(-0.00132805 0.0089864 -1.07578)
(-0.00394921 0.00888106 -1.07621)
(-0.00606267 0.00812011 -1.07782)
(-0.00747355 0.00721612 -1.08029)
(-0.00867372 0.00631303 -1.08297)
(-0.00948375 0.00544129 -1.0855)
(-0.0101192 0.00579632 -1.08767)
(0.0107012 0.00455658 -1.08604)
(0.0100716 0.00423458 -1.08359)
(0.00916841 0.0050604 -1.08077)
(0.00817293 0.00584 -1.07787)
(0.00649405 0.00647815 -1.07534)
(0.00412052 0.00702908 -1.07363)
(0.00119893 0.00710153 -1.07324)
(-0.0014393 0.00708447 -1.07321)
(-0.00435495 0.00701073 -1.07359)
(-0.006715 0.00644712 -1.07528)
(-0.00837365 0.00579012 -1.0778)
(-0.00931581 0.00499169 -1.08071)
(-0.0101762 0.00415622 -1.08355)
(-0.0107516 0.00447954 -1.08605)
(0.0113328 0.00276721 -1.08514)
(0.0106239 0.00253751 -1.08241)
(0.00979959 0.00318025 -1.07933)
(0.00892217 0.00372207 -1.07623)
(0.00704494 0.00411087 -1.07363)
(0.00450497 0.00449505 -1.07176)
(0.00130976 0.00456626 -1.07132)
(-0.00155702 0.00454979 -1.07129)
(-0.00475165 0.00447774 -1.07172)
(-0.00727792 0.0040812 -1.07358)
(-0.00913914 0.00367477 -1.07616)
(-0.00996462 0.00311776 -1.07927)
(-0.0107444 0.00246678 -1.08237)
(-0.0113857 0.00269923 -1.08514)
(0.0114579 0.000884091 -1.08491)
(0.0106681 0.000764467 -1.08206)
(0.00986136 0.000956882 -1.07891)
(0.00902096 0.00109518 -1.0758)
(0.00711634 0.00119193 -1.07324)
(0.00457522 0.00130026 -1.07132)
(0.0013233 0.00131362 -1.07085)
(-0.00157743 0.00129947 -1.07081)
(-0.00483433 0.00128531 -1.07128)
(-0.00736581 0.00116674 -1.07319)
(-0.00924989 0.00105912 -1.07574)
(-0.0100409 0.000910914 -1.07886)
(-0.0107917 0.00070234 -1.08204)
(-0.0115009 0.000816861 -1.08493)
(0.0114681 -0.00106811 -1.0849)
(0.0106692 -0.000961514 -1.08205)
(0.00985528 -0.00116421 -1.0789)
(0.00900833 -0.00131746 -1.07579)
(0.00710172 -0.00143023 -1.07323)
(0.00456031 -0.00155024 -1.07131)
(0.00130893 -0.00157063 -1.07083)
(-0.00158697 -0.00158276 -1.0708)
(-0.0048399 -0.0015677 -1.07127)
(-0.00736794 -0.00146348 -1.07318)
(-0.009248 -0.00136103 -1.07574)
(-0.0100357 -0.00121314 -1.07887)
(-0.0107853 -0.000994105 -1.08205)
(-0.0115051 -0.00109063 -1.08495)
(0.0113116 -0.00293714 -1.08513)
(0.0105988 -0.00272037 -1.0824)
(0.00977844 -0.0033744 -1.07931)
(0.00889592 -0.00393359 -1.07622)
(0.00702267 -0.00434132 -1.07362)
(0.0044837 -0.00474014 -1.07176)
(0.0012907 -0.00482306 -1.07131)
(-0.00157198 -0.00483031 -1.07128)
(-0.00476659 -0.00475783 -1.07172)
(-0.00729096 -0.0043713 -1.07358)
(-0.0091425 -0.0039627 -1.07618)
(-0.00995607 -0.00339947 -1.0793)
(-0.0107133 -0.00273362 -1.08241)
(-0.0113562 -0.00294032 -1.08519)
(0.0106668 -0.00471525 -1.08603)
(0.010031 -0.00440817 -1.08357)
(0.00913363 -0.00524425 -1.08074)
(0.00813051 -0.00603771 -1.07785)
(0.00645694 -0.00669215 -1.07532)
(0.00408603 -0.00725469 -1.07362)
(0.00116809 -0.00734236 -1.07323)
(-0.00146563 -0.00734542 -1.07321)
(-0.00437888 -0.00726901 -1.0736)
(-0.00673153 -0.00671269 -1.0753)
(-0.00837324 -0.00604871 -1.07782)
(-0.00929101 -0.00523203 -1.08074)
(-0.0101322 -0.00438268 -1.0836)
(-0.0106953 -0.0046781 -1.0861)
(0.010033 -0.00602002 -1.08764)
(0.00932522 -0.00567618 -1.0855)
(0.0084913 -0.006552 -1.08299)
(0.00722785 -0.00744802 -1.08033)
(0.00580295 -0.00834476 -1.07785)
(0.00368306 -0.00910869 -1.07623)
(0.0010583 -0.00921874 -1.0758)
(-0.00136308 -0.00921689 -1.07579)
(-0.00397369 -0.00911015 -1.07622)
(-0.00607059 -0.00834395 -1.07784)
(-0.00744848 -0.00741775 -1.08032)
(-0.00863278 -0.00650434 -1.08301)
(-0.00941912 -0.00561803 -1.08556)
(-0.0100341 -0.00593805 -1.08774)
(0.00939929 -0.00708278 -1.0892)
(0.00837265 -0.00680463 -1.08741)
(0.00752948 -0.00770679 -1.0853)
(0.00634773 -0.00864094 -1.08302)
(0.00500575 -0.00928052 -1.08078)
(0.00313 -0.00992988 -1.07935)
(0.000912693 -0.0100069 -1.07894)
(-0.00121371 -0.0100011 -1.07893)
(-0.0034102 -0.00991385 -1.07935)
(-0.00525077 -0.00925109 -1.08078)
(-0.00654179 -0.00858421 -1.08302)
(-0.00767306 -0.00763877 -1.08534)
(-0.00843269 -0.00670929 -1.08748)
(-0.00937217 -0.00696213 -1.08934)
(0.00883618 -0.00726338 -1.09082)
(0.00757623 -0.00772068 -1.08928)
(0.00663684 -0.00850652 -1.08743)
(0.00547087 -0.00946426 -1.08556)
(0.00417891 -0.0101476 -1.08362)
(0.00248042 -0.0107078 -1.08245)
(0.000710286 -0.0107577 -1.08212)
(-0.000999145 -0.0107475 -1.08212)
(-0.00274384 -0.0106685 -1.08246)
(-0.00440347 -0.0100913 -1.08364)
(-0.00564605 -0.00937847 -1.08558)
(-0.00674645 -0.00838959 -1.08749)
(-0.00761659 -0.00757061 -1.08937)
(-0.00881605 -0.00711378 -1.09093)
(0.00788059 -0.00802899 -1.09157)
(0.00712798 -0.00891579 -1.09088)
(0.00691748 -0.00945982 -1.08928)
(0.00582846 -0.0100986 -1.08773)
(0.00450552 -0.0107327 -1.08612)
(0.00271819 -0.0113652 -1.08523)
(0.000833371 -0.0114838 -1.08502)
(-0.00109608 -0.0114834 -1.08502)
(-0.00295003 -0.0113196 -1.08525)
(-0.00469766 -0.010665 -1.08615)
(-0.00596586 -0.00999501 -1.08777)
(-0.00699224 -0.00934168 -1.08934)
(-0.00715564 -0.00877647 -1.09091)
(-0.00793064 -0.00782265 -1.09163)
(0.0133621 0.0133366 -1.07707)
(0.0119675 0.0150198 -1.07576)
(0.0115735 0.0164144 -1.07283)
(0.00996782 0.0177332 -1.06985)
(0.00781247 0.0188744 -1.06715)
(0.0048465 0.0198664 -1.06553)
(0.00156554 0.0201562 -1.06486)
(-0.00168718 0.0201603 -1.06483)
(-0.00495678 0.0198401 -1.06548)
(-0.00791713 0.0188402 -1.06707)
(-0.0100704 0.0176915 -1.06972)
(-0.011646 0.0163642 -1.07267)
(-0.0120312 0.0149706 -1.0756)
(-0.0134478 0.013236 -1.07694)
(0.0149835 0.0120269 -1.07575)
(0.0134279 0.0134729 -1.0727)