/*--------------------------------*- C++ -*----------------------------------*\
| =========                 |                                                 |
| \\      /  F ield         | OpenFOAM: The Open Source CFD Toolbox           |
|  \\    /   O peration     | Version:  v2106                                 |
|   \\  /    A nd           | Website:  www.openfoam.com                      |
|    \\/     M anipulation  |                                                 |
\*---------------------------------------------------------------------------*/
FoamFile
{
    version     2.0;
    format      ascii;
    arch        "LSB;label=32;scalar=64";
    class       volScalarField;
    location    "0.000119";
    object      epsilon;
}
// * * * * * * * * * * * * * * * * * * * * * * * * * * * * * * * * * * * * * //

dimensions      [0 2 -3 0 0 0 0];

internalField   nonuniform List<scalar> 
18109
(
0.409767
0.0844739
0.107183
0.396211
1.26009
3.04407
5.61132
1.17652
0.214625
0.0418713
0.0388283
0.122671
0.334502
0.697005
3.39797
0.628173
0.100765
0.0164647
0.0112035
0.0297501
0.0701779
7.65377
1.43286
0.236698
0.0345375
0.00493804
0.0025469
0.00565913
12.7842
2.4493
0.408744
0.0592814
0.00742786
0.00089794
0.000416474
15.4799
2.90849
0.471863
0.0659797
0.00790096
0.000804428
8.31889e-05
14.2231
2.51058
0.383577
0.0505393
0.00569592
0.000541836
4.32051e-05
10.4353
1.68777
0.236788
0.0287263
0.00298795
0.000262593
1.91578e-05
0.071855
0.0124236
0.0119345
0.0482243
0.172024
0.462863
0.923585
1.38604
1.58815
1.38642
0.901746
0.451666
0.165269
0.0475288
0.220725
0.0364075
0.00605234
0.00429185
0.0144461
0.0430042
0.0957239
0.15981
0.201427
0.190625
0.130116
0.0654141
0.0226094
0.00600305
0.671363
0.113305
0.0168281
0.00239421
0.00119732
0.00321033
0.00793926
0.014773
0.0204735
0.0209764
0.0149555
0.0075172
0.00250693
0.0006358
1.59292
0.271007
0.0402067
0.00519565
0.00062496
0.00024087
0.000522772
0.00108036
0.00164328
0.00182824
0.00137126
0.000696698
0.000227356
5.89542e-05
2.73061
0.463433
0.0674991
0.00844715
0.000900756
8.93466e-05
3.20156e-05
6.11157e-05
0.000101894
0.000123739
9.84525e-05
5.09445e-05
1.6827e-05
2.74068e-05
3.26816
0.534301
0.0744109
0.00883533
0.000888259
7.53993e-05
6.28994e-06
2.88098e-06
4.77604e-06
6.35493e-06
5.43346e-06
2.9368e-06
2.49546e-06
0.000166154
2.8853
0.44004
0.0573825
0.00637944
0.000600135
4.74345e-05
3.17198e-06
2.80524e-07
2.0137e-07
2.69824e-07
2.54873e-07
2.2597e-07
8.96991e-06
0.000693584
1.9838
0.27827
0.0335057
0.00344944
0.000301324
2.21596e-05
1.38888e-06
1.0873e-07
4.60443e-08
4.56855e-08
4.74469e-08
3.90957e-07
3.4262e-05
0.00186307
1.10954
0.144322
0.0161156
0.00153652
0.000124224
8.47035e-06
5.15208e-07
6.20952e-08
4.09422e-08
4.01396e-08
4.78664e-08
1.22298e-06
8.41018e-05
0.00325916
0.512224
0.062453
0.0064617
0.000564515
4.15451e-05
2.63755e-06
1.9773e-07
5.62431e-08
4.32831e-08
4.07178e-08
6.37003e-08
2.54557e-06
0.000131526
0.00371736
0.197118
0.0226465
0.00218066
0.000178064
1.47172e-05
3.22053e-06
1.55822e-06
6.54903e-07
2.2492e-07
7.93866e-08
7.65474e-08
2.67912e-06
0.000113571
0.00263812
0.0660118
0.00713496
0.000653603
9.3667e-05
7.95077e-05
7.49979e-05
4.74269e-05
2.10038e-05
6.83958e-06
1.61863e-06
3.28636e-07
1.45228e-06
5.35447e-05
0.0010994
0.0190588
0.00201987
0.00049114
0.000891697
0.00148999
0.00152808
0.00102412
0.000484166
0.000168994
4.29735e-05
8.2045e-06
1.53788e-06
1.39897e-05
0.000283866
0.00653402
0.00198802
0.00495386
0.0128949
0.0217726
0.0230351
0.016196
0.00817527
0.00307055
0.000851073
0.000178177
2.83327e-05
6.83834e-06
8.92664e-05
0.54523
1.36709
3.52015
9.41704
26.5775
75.633
0.098275
0.26316
0.696637
1.86804
5.35861
16.264
0.0254689
0.170477
1.03079
5.35863
23.8465
91.5231
0.12022
0.896753
5.48809
28.0003
120.916
439.747
0.511048
3.88333
23.3889
113.32
451.956
1498.69
1.67084
12.5489
73.7641
342.131
1270.21
3810.51
4.06953
29.3136
164.426
720.415
2488.29
6863.32
7.27297
49.1321
258.67
1062.25
3430.12
8871.5
9.72303
60.6534
299.817
1166.35
3583.46
8890.98
9.99946
57.1019
265.535
989.902
2939.15
7101.77
7.97748
41.2652
180.341
648.537
1885.73
4516.77
4.91758
22.9529
95.4128
342.489
1006.21
2411.61
2.41838
10.2639
41.8743
148.246
435.893
1047.87
0.949558
3.66669
14.2833
48.3712
142.037
340.61
0.307066
1.03442
3.5709
10.5764
29.6722
66.9058
0.0407612
0.122278
0.393818
1.08896
3.01754
6.53484
0.00400185
0.0119152
0.0358329
0.0944468
0.262819
0.933942
0.000329018
0.000957939
0.00705174
0.0878455
0.92125
7.5009
0.000133654
0.00350741
0.0655376
0.841967
7.74672
53.9101
0.00112668
0.0283987
0.450933
5.00344
40.2032
242.415
0.00659013
0.147521
2.06547
19.8747
138.189
717.892
0.0231037
0.464572
5.96307
52.5444
328.746
1498.29
0.0513476
0.906021
10.4708
84.0745
478.297
1970.81
0.0746606
1.14203
11.8882
87.9048
465.961
1796.52
0.0698323
0.917308
8.64068
59.8997
304.039
1132.36
0.0412
0.470226
4.06888
26.7287
132.365
492.363
0.0159425
0.155196
1.251
8.14488
41.7436
161.232
0.0041021
0.034475
0.252245
1.5419
8.0649
32.6074
0.000746798
0.00554397
0.0357759
0.187213
0.867879
3.28616
0.000321176
0.00146979
0.00641737
0.0258725
0.0985853
0.356664
7.74863e-05
0.000789846
0.0069192
0.0528311
0.346417
1.98773
0.000507259
0.00588339
0.0556523
0.440183
2.88518
16.0295
0.00288915
0.0347337
0.333852
2.61722
16.6377
87.3664
0.012702
0.152931
1.45306
11.0419
66.7896
325.573
0.0425574
0.499246
4.5725
33.0505
187.63
841.945
0.106591
1.19766
10.4494
71.2931
376.436
1537.51
0.200518
2.11984
17.3941
110.938
540.551
2001.45
0.27696
2.72273
20.6505
121.094
540.63
1835.51
0.260521
2.35116
16.2309
86.6393
357.446
1152.03
0.159882
1.31988
8.22378
39.7857
153.431
478.764
0.0655563
0.489692
2.71884
11.8494
42.6428
129.07
0.0204338
0.13643
0.674053
2.64326
8.63254
23.7518
0.0105366
0.0529846
0.220892
0.773137
2.31401
6.06743
35.2099
127.161
393.446
1033.79
2312.63
4472.56
16.0087
54.8239
166.521
429.126
959.135
1870.34
5.82035
17.9432
49.7994
121.227
265.052
512.236
1.78615
5.03068
12.9199
29.585
60.9382
106.733
0.0489805
0.198076
0.761549
2.72101
8.928
26.7964
0.156126
0.765737
3.39038
13.3464
46.7496
145.811
0.509307
2.75368
13.0174
53.2387
189.518
588.416
1.43936
8.25952
40.3673
166.755
586.556
1759.21
3.58102
21.165
104.442
425.998
1438.37
4024.94
7.32218
42.8624
207.099
814.578
2602.09
6794.9
12.1239
67.6223
310.368
1153.67
3466.55
8542.41
16.1871
83.8792
360.664
1263.28
3597.36
8489.63
17.0314
81.0598
325.644
1081.34
2951.99
6764.46
13.7405
60.0835
225.426
712.63
1884.7
4229.86
8.15562
33.5245
119.575
363.899
944.358
2131.16
3.51483
13.5462
46.8778
138.449
363.638
822.103
1.21849
4.21418
13.18
36.0853
90.0288
201.97
0.355708
1.11565
3.17947
8.07647
18.5703
36.2791
50.5166
247.395
871.728
2251.89
4453.83
305.456
1334.8
4136.67
9715.47
18256.7
1360.32
5094.81
13977.1
30500.7
56111.8
4187.61
13556.4
33489.5
68800.1
123089
9416.61
26283.7
59526.2
116255
198905
15565.3
39108.1
84442.5
164263
272790
19119.6
47209
104508
209341
333900
18865.2
48050.9
115225
237689
357333
338163
14899.9
38813.4
101793
224193
333900
300800
9222.28
22957.9
60417
158433
270901
264667
4845.78
11248.1
23053.5
69705
180679
230235
167695
2074.04
4441.03
7563.73
14094.2
64782.7
156317
170042
109173
646.157
1222.54
1954.75
2753.03
3929.21
26294.4
111754
254715
118.096
228.747
376.686
496.505
518.538
439.724
353.935
1145.9
12.288
29.0024
73.7253
189.747
432.306
768.783
171.969
1140.85
5.30977
48.1783
275.819
1025.88
2540.04
4439.55
1118.22
2228.1
48.3374
357.568
1661.24
5278.55
12088.9
21237.5
15259.3
25315.7
290.2
1718.47
6665.3
18608.3
39834.5
70737.6
110448
107108
1111.78
5387.25
17655.3
43384.2
84500
139403
239857
156850
2823.73
11416.4
32122.2
70303.6
124339
184728
248366
210804
5062.73
17187.3
43418.6
90392.1
157641
223706
252353
367234
6077.47
19515.1
48925.9
105712
192072
266388
287717
254178
5284.5
17267.9
46694.7
110396
211207
287828
3250.01
10923.6
31861
89472.5
193443
272681
1427.22
4846.11
13712.4
46379.1
135992
232311
478.073
1620.25
3932.03
8956.86
50678.8
148639
99.8138
344.897
844.747
1576.16
2716.04
23533.8
10.2635
42.2558
114.427
209.997
283.499
1.31324
9.02928
44.6495
152.479
369.614
9.92373
67.5478
315.23
1044.46
2462.37
75.457
444.627
1817.4
5397.95
12001.4
379.091
1931.12
6925.52
18628
39338.9
1279.22
5602.65
17543.8
42300.9
81848.5
2973.68
11189.6
30691.6
66486
117817
4853.65
16014
40159.5
83426.8
146309
5734.8
17772.5
43823.6
94902.6
173059
4937.73
15420.8
40227.2
95035.3
182495
2994.83
9409.58
26437
72466.9
159168
1205.73
3837.61
10886.4
35388.9
104651
310.995
1072.74
2767.01
7258.95
36696.6
51.0592
200.244
540.324
1093.67
2300
14.3796
60.1469
197.236
470.23
856.249
73.1121
299.494
922.634
2201.86
4198.03
407.36
1527.48
4337.05
9725.36
17938.6
1605.16
5441.99
14221.8
30376.6
55623.3
4538.95
13776.5
33134.1
67405.6
120578
9460.29
25637.5
57286.1
111517
191681
14874.5
36786.7
79592.3
155292
259210
17938.8
43648.9
96642.3
194309
311733
17478.7
43638.9
103645
215061
327626
13600.9
34744.3
88520.9
196251
302295
8204.66
20158.3
51273.9
134535
243494
4046.99
8970.45
18735.1
57061.5
155780
1466.46
3020.41
5480.94
11800.6
53223.1
356.53
757.756
1326.11
2023.47
3934.24
58.8267
157.021
356.298
684.475
1119.11
0.00553143
0.000822784
0.000487199
0.00205524
0.00831906
0.0252708
0.0561714
0.0919913
0.112024
0.100821
0.0658455
0.0326086
0.0118371
0.00345235
0.0185074
0.00275948
0.000392658
0.000180981
0.000622502
0.00206943
0.0050918
0.00924367
0.0123964
0.0121751
0.00841301
0.00421609
0.00147158
0.000405256
0.0578639
0.00882247
0.00118918
0.000148027
5.1503e-05
0.000138356
0.000374126
0.00075302
0.00110906
0.00118344
0.000857812
0.000432768
0.000147821
3.94343e-05
0.138743
0.0211614
0.0028213
0.000327387
3.45098e-05
1.01266e-05
2.22276e-05
4.92107e-05
7.92479e-05
9.18008e-05
7.00744e-05
3.59151e-05
1.21624e-05
3.25282e-06
0.234973
0.0353221
0.00457079
0.0005095
4.86077e-05
4.28062e-06
1.31473e-06
2.56707e-06
4.48272e-06
5.64337e-06
4.56419e-06
2.40225e-06
8.43414e-07
5.8244e-07
0.269916
0.0387301
0.00475853
0.000501336
4.50439e-05
3.47865e-06
2.93409e-07
1.4749e-07
2.29043e-07
3.00888e-07
2.6452e-07
1.60145e-07
1.10115e-07
3.01491e-06
0.222839
0.0297722
0.0034212
0.000337519
2.84292e-05
2.06468e-06
1.60233e-07
4.6455e-08
4.38109e-08
4.66454e-08
4.60227e-08
4.36693e-08
2.40581e-07
1.52747e-05
0.140236
0.017307
0.00184716
0.000169798
1.3375e-05
9.27528e-07
8.75879e-08
4.00116e-08
3.7818e-08
3.77891e-08
3.7802e-08
4.52845e-08
9.02856e-07
4.98772e-05
0.0713209
0.00821784
0.000818993
7.02304e-05
5.17654e-06
3.56714e-07
5.43188e-08
3.83823e-08
3.76551e-08
3.75958e-08
3.77218e-08
6.50403e-08
2.38116e-06
0.000104355
0.0298871
0.00324328
0.00030091
2.38062e-05
1.63226e-06
1.28984e-07
4.24545e-08
3.80144e-08
3.77002e-08
3.76226e-08
3.80865e-08
1.00004e-07
4.04143e-06
0.000137932
0.0104482
0.00107098
9.29404e-05
6.91412e-06
5.32117e-07
1.1935e-07
7.14366e-08
5.03765e-08
4.12518e-08
3.83602e-08
3.84403e-08
1.09997e-07
3.79273e-06
0.000105742
0.00315548
0.000305804
2.53704e-05
3.35821e-06
2.68625e-06
2.36317e-06
1.40176e-06
5.97743e-07
2.06003e-07
7.39336e-08
4.39185e-08
8.03727e-08
1.95074e-06
4.64423e-05
0.000824838
7.88684e-05
1.99399e-05
3.87227e-05
6.22669e-05
5.97452e-05
3.7093e-05
1.6169e-05
5.19321e-06
1.23756e-06
2.47022e-07
7.67606e-08
5.81413e-07
1.26549e-05
0.000277071
8.9528e-05
0.00025594
0.000679413
0.0011141
0.00110655
0.000718947
0.000331907
0.000113029
2.83355e-05
5.38439e-06
8.02678e-07
2.56743e-07
3.80584e-06
0.000444952
5.96906e-05
1.99479e-05
7.82293e-05
0.00035697
0.0012244
0.00306322
0.00560163
0.00748631
0.00720438
0.00488386
0.00245424
0.000903326
0.000270745
0.00158562
0.000216963
2.7404e-05
7.90406e-06
2.54783e-05
9.43395e-05
0.000258997
0.00052125
0.000765002
0.00080502
0.000578656
0.000295613
0.000105826
3.02401e-05
0.00495863
0.000693809
8.56942e-05
9.57894e-06
2.36086e-06
6.0458e-06
1.79744e-05
3.97896e-05
6.38652e-05
7.3011e-05
5.51233e-05
2.84831e-05
1.00414e-05
2.80718e-06
0.0115862
0.00161776
0.000197336
2.09684e-05
2.0228e-06
4.92235e-07
1.05399e-06
2.49565e-06
4.33073e-06
5.3537e-06
4.25734e-06
2.2519e-06
8.08253e-07
2.47052e-07
0.0187008
0.00256115
0.00030271
3.08873e-05
2.7362e-06
2.50848e-07
9.39913e-08
1.57941e-07
2.66627e-07
3.45354e-07
2.94938e-07
1.74518e-07
8.45234e-08
5.79135e-08
0.019946
0.00260297
0.000292191
2.82709e-05
2.37241e-06
2.01885e-07
4.77575e-08
4.14208e-08
4.59196e-08
5.02745e-08
4.86923e-08
4.3059e-08
3.95771e-08
1.25476e-07
0.0149808
0.0018291
0.000192832
1.75647e-05
1.40149e-06
1.27154e-07
4.14762e-08
3.66795e-08
3.6594e-08
3.67394e-08
3.66948e-08
3.6522e-08
4.33626e-08
5.58846e-07
0.00847564
0.000964777
9.53137e-05
8.1714e-06
6.32248e-07
7.36222e-08
3.83202e-08
3.64182e-08
3.63133e-08
3.62899e-08
3.62665e-08
3.6516e-08
6.95799e-08
1.99595e-06
0.00388566
0.000415749
3.86046e-05
3.12558e-06
2.48454e-07
4.87916e-08
3.69866e-08
3.63767e-08
3.63257e-08
3.62973e-08
3.62753e-08
3.73301e-08
1.35639e-07
4.71719e-06
0.00147387
0.000148623
1.28944e-05
9.90141e-07
9.68315e-08
3.96891e-08
3.65528e-08
3.63808e-08
3.63456e-08
3.63152e-08
3.63054e-08
3.89002e-08
2.21438e-07
7.00488e-06
0.000467113
4.4496e-05
3.64117e-06
2.87243e-07
5.3143e-08
3.87756e-08
3.72722e-08
3.66896e-08
3.6442e-08
3.63485e-08
3.63356e-08
3.95451e-08
2.23018e-07
5.87461e-06
0.000127712
1.15389e-05
9.32331e-07
1.56508e-07
1.34293e-07
1.16648e-07
7.98489e-08
5.27967e-08
4.0884e-08
3.72412e-08
3.64717e-08
3.82938e-08
1.35905e-07
2.75233e-06
3.04654e-05
2.77753e-06
8.98199e-07
1.85843e-06
2.82281e-06
2.50206e-06
1.43589e-06
5.90841e-07
1.96934e-07
7.03855e-08
4.17258e-08
3.75376e-08
6.51584e-08
7.82225e-07
1.08578e-05
4.29071e-06
1.42948e-05
3.76426e-05
5.8243e-05
5.29503e-05
3.12215e-05
1.30293e-05
4.01451e-06
9.35605e-07
1.89367e-07
5.6135e-08
4.52202e-08
2.35581e-07
3.13417e-05
3.9097e-06
8.38228e-07
2.61656e-06
1.3085e-05
4.98261e-05
0.000138684
0.000281808
0.000414068
0.000429137
0.000304711
0.000156832
5.91274e-05
1.83324e-05
0.000115188
1.46102e-05
1.70526e-06
3.59031e-07
9.36294e-07
3.69486e-06
1.11236e-05
2.46386e-05
3.95794e-05
4.48565e-05
3.38325e-05
1.78036e-05
6.59982e-06
1.97862e-06
0.000355128
4.59144e-05
5.25101e-06
5.62969e-07
1.30126e-07
2.60523e-07
7.67862e-07
1.81141e-06
3.14364e-06
3.85803e-06
3.06734e-06
1.6536e-06
6.24297e-07
2.0455e-07
0.000795439
0.000102577
1.15523e-05
1.15907e-06
1.32645e-07
5.34947e-08
7.5572e-08
1.40415e-07
2.34063e-07
2.99242e-07
2.55437e-07
1.55036e-07
7.85943e-08
4.76141e-08
0.00120434
0.00015189
1.65633e-05
1.58773e-06
1.60913e-07
4.46866e-08
3.77846e-08
4.05491e-08
4.57491e-08
5.01643e-08
4.8362e-08
4.26046e-08
3.80316e-08
3.64208e-08
0.00117892
0.000141668
1.47093e-05
1.3474e-06
1.36227e-07
4.22104e-08
3.59987e-08
3.5761e-08
3.59576e-08
3.61673e-08
3.61036e-08
3.58281e-08
3.56288e-08
3.83213e-08
0.000801343
9.05666e-05
8.88344e-06
7.83347e-07
8.98701e-08
3.89707e-08
3.57651e-08
3.55842e-08
3.55676e-08
3.55581e-08
3.55385e-08
3.55135e-08
3.57495e-08
5.40188e-08
0.000409217
4.35251e-05
4.04705e-06
3.55982e-07
5.7602e-08
3.69045e-08
3.56653e-08
3.55885e-08
3.55683e-08
3.55496e-08
3.553e-08
3.55232e-08
3.68387e-08
1.13427e-07
0.000170378
1.71261e-05
1.52285e-06
1.47542e-07
4.28617e-08
3.60272e-08
3.56337e-08
3.55997e-08
3.55806e-08
3.55613e-08
3.55416e-08
3.55715e-08
3.99172e-08
2.4564e-07
5.88375e-05
5.59068e-06
4.87494e-07
6.73023e-08
3.75522e-08
3.57392e-08
3.56311e-08
3.56102e-08
3.55915e-08
3.55721e-08
3.55532e-08
3.56606e-08
4.45407e-08
3.86606e-07
1.69945e-05
1.54915e-06
1.51168e-07
4.32771e-08
3.61472e-08
3.57136e-08
3.56559e-08
3.56252e-08
3.56017e-08
3.55813e-08
3.55632e-08
3.57108e-08
4.53917e-08
3.59293e-07
4.25964e-06
3.92609e-07
6.21172e-08
3.95756e-08
3.90097e-08
3.82055e-08
3.69113e-08
3.6063e-08
3.57159e-08
3.56071e-08
3.55721e-08
3.56571e-08
4.10974e-08
1.97917e-07
9.60344e-07
1.16019e-07
7.06734e-08
1.13832e-07
1.47929e-07
1.26618e-07
8.26981e-08
5.25628e-08
4.00593e-08
3.64538e-08
3.56981e-08
3.56014e-08
3.71582e-08
8.07956e-08
4.19173e-07
2.28409e-07
7.45115e-07
1.86642e-06
2.67942e-06
2.2204e-06
1.20112e-06
4.74459e-07
1.56983e-07
6.0524e-08
3.9426e-08
3.60173e-08
3.59506e-08
4.63928e-08
1.8863e-06
2.48153e-07
6.65006e-08
1.09179e-07
4.43204e-07
1.74883e-06
5.30314e-06
1.18697e-05
1.91389e-05
2.14228e-05
1.60222e-05
8.50405e-06
3.30696e-06
1.07069e-06
6.90674e-06
8.42413e-07
1.20166e-07
4.74318e-08
6.26267e-08
1.55816e-07
4.35465e-07
1.00989e-06
1.749e-06
2.13194e-06
1.70247e-06
9.41627e-07
3.80709e-07
1.40159e-07
2.06787e-05
2.50787e-06
2.94999e-07
5.93565e-08
3.86326e-08
4.24136e-08
6.04571e-08
1.01852e-07
1.62234e-07
2.03555e-07
1.76254e-07
1.13328e-07
6.46101e-08
4.38808e-08
4.40279e-05
5.29291e-06
5.815e-07
8.45232e-08
3.9188e-08
3.58697e-08
3.65835e-08
3.89923e-08
4.2923e-08
4.62012e-08
4.48922e-08
4.06742e-08
3.72359e-08
3.57748e-08
6.21353e-05
7.28165e-06
7.65384e-07
9.87878e-08
4.00404e-08
3.55972e-08
3.53395e-08
3.54273e-08
3.56215e-08
3.58117e-08
3.57581e-08
3.55178e-08
3.53101e-08
3.52234e-08
5.5596e-05
6.22044e-06
6.30169e-07
8.47343e-08
3.88255e-08
3.5501e-08
3.52858e-08
3.52674e-08
3.52631e-08
3.52601e-08
3.52467e-08
3.52238e-08
3.52036e-08
3.52728e-08
3.42367e-05
3.63281e-06
3.6316e-07
6.11818e-08
3.70572e-08
3.53922e-08
3.52828e-08
3.52653e-08
3.52523e-08
3.52395e-08
3.52261e-08
3.52126e-08
3.52098e-08
3.58011e-08
1.59105e-05
1.61697e-06
1.72015e-07
4.55536e-08
3.59674e-08
3.53327e-08
3.52852e-08
3.52703e-08
3.52565e-08
3.52425e-08
3.52286e-08
3.5216e-08
3.52549e-08
3.80347e-08
6.07606e-06
6.05326e-07
8.19186e-08
3.86197e-08
3.55145e-08
3.53122e-08
3.52889e-08
3.52749e-08
3.52609e-08
3.52466e-08
3.52326e-08
3.52219e-08
3.53901e-08
4.37793e-08
1.93983e-06
2.04737e-07
4.83222e-08
3.61903e-08
3.53687e-08
3.53089e-08
3.52928e-08
3.52787e-08
3.52647e-08
3.52505e-08
3.52368e-08
3.52302e-08
3.56214e-08
5.12418e-08
5.37041e-07
7.7575e-08
3.83918e-08
3.55276e-08
3.5336e-08
3.5312e-08
3.52968e-08
3.52822e-08
3.5268e-08
3.5254e-08
3.52407e-08
3.52369e-08
3.57026e-08
5.14723e-08
1.49749e-07
4.44847e-08
3.6007e-08
3.54608e-08
3.54364e-08
3.53896e-08
3.53334e-08
3.52951e-08
3.52727e-08
3.52572e-08
3.52444e-08
3.52385e-08
3.55143e-08
4.40482e-08
5.85104e-08
3.73962e-08
3.67615e-08
3.84732e-08
3.94223e-08
3.83271e-08
3.67194e-08
3.57521e-08
3.53852e-08
3.52809e-08
3.52513e-08
3.52393e-08
3.53127e-08
3.77496e-08
4.80019e-08
4.42511e-08
6.90579e-08
1.154e-07
1.41087e-07
1.14438e-07
7.35037e-08
4.83234e-08
3.85487e-08
3.58772e-08
3.53375e-08
3.52492e-08
3.52485e-08
3.57821e-08
1.2617e-07
4.49253e-08
3.62801e-08
3.69454e-08
4.57902e-08
8.39515e-08
1.99728e-07
4.42358e-07
7.57784e-07
9.13586e-07
7.31238e-07
4.17178e-07
1.86794e-07
8.42753e-08
3.72516e-07
7.21874e-08
3.87624e-08
3.55575e-08
3.58367e-08
3.84179e-08
4.70083e-08
6.68135e-08
9.61785e-08
1.16197e-07
1.03616e-07
7.38437e-08
5.03314e-08
3.98292e-08
1.01709e-06
1.44869e-07
4.58705e-08
3.60686e-08
3.52479e-08
3.53244e-08
3.58405e-08
3.71703e-08
3.93828e-08
4.12412e-08
4.05694e-08
3.82486e-08
3.63053e-08
3.54372e-08
2.02045e-06
2.56197e-07
5.65166e-08
3.6942e-08
3.52781e-08
3.51554e-08
3.51658e-08
3.523e-08
3.53556e-08
3.54795e-08
3.54474e-08
3.52927e-08
3.51545e-08
3.50889e-08
2.63731e-06
3.17674e-07
6.16489e-08
3.73005e-08
3.52981e-08
3.51494e-08
3.5133e-08
3.51263e-08
3.51232e-08
3.5121e-08
3.51114e-08
3.50947e-08
3.50789e-08
3.50678e-08
2.15746e-06
2.55457e-07
5.49393e-08
3.66936e-08
3.52528e-08
3.51474e-08
3.51326e-08
3.51229e-08
3.51133e-08
3.51038e-08
3.50943e-08
3.50849e-08
3.50764e-08
3.50708e-08
1.21961e-06
1.51895e-07
4.51389e-08
3.5898e-08
3.51984e-08
3.51451e-08
3.51333e-08
3.51236e-08
3.51137e-08
3.5104e-08
3.50945e-08
3.50857e-08
3.50783e-08
3.50889e-08
5.37344e-07
8.22762e-08
3.8999e-08
3.54309e-08
3.51688e-08
3.51444e-08
3.51343e-08
3.51245e-08
3.51147e-08
3.51051e-08
3.50958e-08
3.50872e-08
3.50817e-08
3.51656e-08
2.10551e-07
5.07862e-08
3.63725e-08
3.52422e-08
3.51578e-08
3.51443e-08
3.51346e-08
3.5125e-08
3.51154e-08
3.5106e-08
3.50971e-08
3.50888e-08
3.50883e-08
3.53854e-08
8.58798e-08
3.94407e-08
3.54805e-08
3.51825e-08
3.51551e-08
3.51446e-08
3.51349e-08
3.51253e-08
3.51159e-08
3.51069e-08
3.50983e-08
3.50905e-08
3.50998e-08
3.57234e-08
4.74353e-08
3.61576e-08
3.52401e-08
3.51683e-08
3.51551e-08
3.5145e-08
3.51352e-08
3.51255e-08
3.51162e-08
3.51075e-08
3.50992e-08
3.5092e-08
3.51061e-08
3.57985e-08
3.77601e-08
3.53777e-08
3.51884e-08
3.51686e-08
3.51586e-08
3.51474e-08
3.51361e-08
3.51258e-08
3.51164e-08
3.51079e-08
3.51e-08
3.50931e-08
3.51003e-08
3.55033e-08
3.5674e-08
3.52298e-08
3.52286e-08
3.52809e-08
3.52922e-08
3.52362e-08
3.51746e-08
3.51379e-08
3.51197e-08
3.51091e-08
3.5101e-08
3.50942e-08
3.50921e-08
3.52072e-08
3.55852e-08
3.5569e-08
3.66388e-08
3.83389e-08
3.8913e-08
3.76821e-08
3.62475e-08
3.54718e-08
3.51971e-08
3.51236e-08
3.51041e-08
3.50956e-08
3.50896e-08
3.51087e-08
3.87244e-08
3.54243e-08
3.50898e-08
3.50866e-08
3.52756e-08
3.61869e-08
3.92617e-08
4.65208e-08
5.74542e-08
6.47336e-08
6.0109e-08
4.93477e-08
4.08597e-08
3.69283e-08
4.85733e-08
3.64472e-08
3.51797e-08
3.50612e-08
3.50593e-08
3.51126e-08
3.53229e-08
3.58733e-08
3.68103e-08
3.76028e-08
3.73431e-08
3.63797e-08
3.55528e-08
3.51644e-08
7.30713e-08
3.90338e-08
3.54159e-08
3.50779e-08
3.50467e-08
3.5042e-08
3.50481e-08
3.50768e-08
3.51365e-08
3.51966e-08
3.51814e-08
3.51048e-08
3.50343e-08
3.49987e-08
1.07906e-07
4.26393e-08
3.57371e-08
3.51021e-08
3.50471e-08
3.50377e-08
3.50316e-08
3.50265e-08
3.50233e-08
3.50208e-08
3.50143e-08
3.50039e-08
3.49938e-08
3.49865e-08
1.23604e-07
4.40364e-08
3.58396e-08
3.51076e-08
3.50464e-08
3.50364e-08
3.50296e-08
3.50227e-08
3.50159e-08
3.50094e-08
3.50029e-08
3.49966e-08
3.49908e-08
3.49856e-08
1.00917e-07
4.14592e-08
3.55914e-08
3.50866e-08
3.50439e-08
3.50351e-08
3.50282e-08
3.50212e-08
3.50143e-08
3.50076e-08
3.50014e-08
3.49955e-08
3.49903e-08
3.49855e-08
6.85131e-08
3.81588e-08
3.53017e-08
3.50638e-08
3.50413e-08
3.50336e-08
3.50267e-08
3.50197e-08
3.50129e-08
3.50063e-08
3.50003e-08
3.49947e-08
3.49898e-08
3.49857e-08
4.80826e-08
3.62106e-08
3.51403e-08
3.50515e-08
3.50394e-08
3.50323e-08
3.50253e-08
3.50184e-08
3.50117e-08
3.50053e-08
3.49994e-08
3.4994e-08
3.49894e-08
3.49878e-08
3.92507e-08
3.54101e-08
3.5077e-08
3.50463e-08
3.5038e-08
3.50309e-08
3.50239e-08
3.50171e-08
3.50105e-08
3.50044e-08
3.49987e-08
3.49935e-08
3.49892e-08
3.49949e-08
3.61787e-08
3.51466e-08
3.50571e-08
3.50444e-08
3.5037e-08
3.50299e-08
3.50228e-08
3.5016e-08
3.50097e-08
3.50037e-08
3.49983e-08
3.49932e-08
3.49895e-08
3.5008e-08
3.53128e-08
3.50764e-08
3.50519e-08
3.50437e-08
3.50365e-08
3.50292e-08
3.50221e-08
3.50153e-08
3.5009e-08
3.50033e-08
3.4998e-08
3.49933e-08
3.49899e-08
3.50132e-08
3.51129e-08
3.5061e-08
3.50508e-08
3.50434e-08
3.50361e-08
3.50288e-08
3.50217e-08
3.5015e-08
3.50088e-08
3.50032e-08
3.49981e-08
3.49935e-08
3.499e-08
3.50033e-08
3.50722e-08
3.50579e-08
3.5052e-08
3.50469e-08
3.504e-08
3.50312e-08
3.50228e-08
3.50154e-08
3.5009e-08
3.50034e-08
3.49985e-08
3.49941e-08
3.49903e-08
3.49916e-08
3.5076e-08
3.50715e-08
3.51055e-08
3.51532e-08
3.51536e-08
3.51002e-08
3.50503e-08
3.50236e-08
3.50116e-08
3.5005e-08
3.49999e-08
3.49953e-08
3.49909e-08
3.49875e-08
3.50886e-08
3.49755e-08
3.49626e-08
3.49593e-08
3.49595e-08
3.49741e-08
3.50384e-08
3.52144e-08
3.55216e-08
3.57784e-08
3.56932e-08
3.53813e-08
3.5113e-08
3.49816e-08
3.54148e-08
3.50071e-08
3.49647e-08
3.49581e-08
3.49546e-08
3.49517e-08
3.49522e-08
3.49609e-08
3.49818e-08
3.50031e-08
3.49966e-08
3.49667e-08
3.49384e-08
3.4923e-08
3.61859e-08
3.50833e-08
3.49706e-08
3.49576e-08
3.49532e-08
3.49492e-08
3.49452e-08
3.49417e-08
3.49391e-08
3.49368e-08
3.49329e-08
3.49273e-08
3.49218e-08
3.49175e-08
3.71817e-08
3.51795e-08
3.4978e-08
3.49573e-08
3.49522e-08
3.49479e-08
3.49436e-08
3.49392e-08
3.4935e-08
3.4931e-08
3.49271e-08
3.49234e-08
3.49199e-08
3.49167e-08
3.74639e-08
3.52003e-08
3.49784e-08
3.49563e-08
3.49509e-08
3.49464e-08
3.49421e-08
3.49377e-08
3.49335e-08
3.49294e-08
3.49256e-08
3.49221e-08
3.49189e-08
3.4916e-08
3.66634e-08
3.51173e-08
3.49702e-08
3.49546e-08
3.49495e-08
3.4945e-08
3.49406e-08
3.49362e-08
3.4932e-08
3.49281e-08
3.49244e-08
3.4921e-08
3.4918e-08
3.49152e-08
3.57543e-08
3.50305e-08
3.49623e-08
3.4953e-08
3.49482e-08
3.49436e-08
3.49392e-08
3.49349e-08
3.49308e-08
3.49269e-08
3.49233e-08
3.49201e-08
3.49172e-08
3.49145e-08
3.52486e-08
3.49845e-08
3.49579e-08
3.49517e-08
3.4947e-08
3.49424e-08
3.4938e-08
3.49337e-08
3.49297e-08
3.49259e-08
3.49225e-08
3.49193e-08
3.49165e-08
3.4914e-08
3.50493e-08
3.4967e-08
3.49559e-08
3.49507e-08
3.49459e-08
3.49413e-08
3.49369e-08
3.49327e-08
3.49288e-08
3.49252e-08
3.49218e-08
3.49187e-08
3.49159e-08
3.49137e-08
3.49856e-08
3.49614e-08
3.49549e-08
3.49499e-08
3.49452e-08
3.49405e-08
3.49362e-08
3.4932e-08
3.49282e-08
3.49247e-08
3.49214e-08
3.49183e-08
3.49156e-08
3.49138e-08
3.49686e-08
3.49595e-08
3.49543e-08
3.49494e-08
3.49446e-08
3.494e-08
3.49357e-08
3.49316e-08
3.49279e-08
3.49245e-08
3.49212e-08
3.49183e-08
3.49156e-08
3.4914e-08
3.49646e-08
3.49588e-08
3.49539e-08
3.49491e-08
3.49444e-08
3.49398e-08
3.49355e-08
3.49315e-08
3.49279e-08
3.49245e-08
3.49213e-08
3.49184e-08
3.49157e-08
3.49137e-08
3.49631e-08
3.49582e-08
3.49537e-08
3.49491e-08
3.49445e-08
3.494e-08
3.49357e-08
3.49318e-08
3.49281e-08
3.49248e-08
3.49217e-08
3.49188e-08
3.49161e-08
3.49135e-08
3.49633e-08
3.49583e-08
3.49552e-08
3.49522e-08
3.49477e-08
3.49419e-08
3.49366e-08
3.49324e-08
3.49288e-08
3.49256e-08
3.49225e-08
3.49195e-08
3.49165e-08
3.49134e-08
3.48861e-08
3.48807e-08
3.48784e-08
3.48762e-08
3.4874e-08
3.48718e-08
3.48707e-08
3.48719e-08
3.48768e-08
3.48818e-08
3.48787e-08
3.48685e-08
3.4859e-08
3.48532e-08
3.48951e-08
3.48815e-08
3.48782e-08
3.48758e-08
3.48733e-08
3.48708e-08
3.48683e-08
3.48659e-08
3.48639e-08
3.48621e-08
3.48597e-08
3.48567e-08
3.48538e-08
3.48513e-08
3.49158e-08
3.48832e-08
3.4878e-08
3.48752e-08
3.48726e-08
3.487e-08
3.48673e-08
3.48647e-08
3.48622e-08
3.48598e-08
3.48575e-08
3.48552e-08
3.4853e-08
3.48509e-08
3.49397e-08
3.48852e-08
3.48778e-08
3.48747e-08
3.4872e-08
3.48693e-08
3.48665e-08
3.48639e-08
3.48614e-08
3.4859e-08
3.48567e-08
3.48546e-08
3.48525e-08
3.48505e-08
3.49423e-08
3.4885e-08
3.48774e-08
3.48742e-08
3.48714e-08
3.48686e-08
3.48658e-08
3.48632e-08
3.48606e-08
3.48583e-08
3.4856e-08
3.4854e-08
3.4852e-08
3.48502e-08
3.49195e-08
3.48826e-08
3.48767e-08
3.48736e-08
3.48708e-08
3.48679e-08
3.48652e-08
3.48625e-08
3.486e-08
3.48577e-08
3.48555e-08
3.48535e-08
3.48516e-08
3.48497e-08
3.4898e-08
3.48803e-08
3.48761e-08
3.48731e-08
3.48702e-08
3.48673e-08
3.48646e-08
3.4862e-08
3.48595e-08
3.48572e-08
3.4855e-08
3.4853e-08
3.48512e-08
3.48493e-08
3.48872e-08
3.48791e-08
3.48757e-08
3.48727e-08
3.48697e-08
3.48669e-08
3.48642e-08
3.48616e-08
3.48592e-08
3.48569e-08
3.48548e-08
3.48527e-08
3.48509e-08
3.4849e-08
3.48831e-08
3.48785e-08
3.48753e-08
3.48723e-08
3.48694e-08
3.48666e-08
3.48639e-08
3.48614e-08
3.4859e-08
3.48567e-08
3.48546e-08
3.48526e-08
3.48507e-08
3.48489e-08
3.48817e-08
3.48782e-08
3.48751e-08
3.48721e-08
3.48692e-08
3.48664e-08
3.48638e-08
3.48614e-08
3.4859e-08
3.48567e-08
3.48546e-08
3.48526e-08
3.48506e-08
3.48488e-08
3.4881e-08
3.48778e-08
3.48748e-08
3.48719e-08
3.48691e-08
3.48664e-08
3.48639e-08
3.48615e-08
3.48592e-08
3.48569e-08
3.48548e-08
3.48527e-08
3.48507e-08
3.48487e-08
3.48805e-08
3.48776e-08
3.48747e-08
3.48719e-08
3.48692e-08
3.48666e-08
3.48641e-08
3.48617e-08
3.48594e-08
3.48572e-08
3.4855e-08
3.48529e-08
3.48508e-08
3.48487e-08
3.48801e-08
3.48773e-08
3.48746e-08
3.48719e-08
3.48693e-08
3.48668e-08
3.48644e-08
3.4862e-08
3.48598e-08
3.48575e-08
3.48554e-08
3.48532e-08
3.4851e-08
3.48487e-08
3.48799e-08
3.4877e-08
3.48746e-08
3.48721e-08
3.48697e-08
3.48671e-08
3.48647e-08
3.48623e-08
3.486e-08
3.48578e-08
3.48556e-08
3.48535e-08
3.48513e-08
3.4849e-08
3.481e-08
3.48081e-08
3.48066e-08
3.4805e-08
3.48035e-08
3.48019e-08
3.48003e-08
3.47987e-08
3.47972e-08
3.47958e-08
3.47943e-08
3.47925e-08
3.47909e-08
3.47895e-08
3.48102e-08
3.48083e-08
3.48067e-08
3.4805e-08
3.48034e-08
3.48017e-08
3.48e-08
3.47984e-08
3.47968e-08
3.47953e-08
3.47937e-08
3.47922e-08
3.47908e-08
3.47893e-08
3.48108e-08
3.48084e-08
3.48066e-08
3.48049e-08
3.48032e-08
3.48015e-08
3.47998e-08
3.47982e-08
3.47966e-08
3.4795e-08
3.47936e-08
3.47921e-08
3.47907e-08
3.47893e-08
3.48115e-08
3.48085e-08
3.48067e-08
3.48049e-08
3.48032e-08
3.48014e-08
3.47997e-08
3.47981e-08
3.47965e-08
3.4795e-08
3.47935e-08
3.47921e-08
3.47907e-08
3.47893e-08
3.48116e-08
3.48086e-08
3.48067e-08
3.48049e-08
3.48032e-08
3.48014e-08
3.47997e-08
3.47981e-08
3.47965e-08
3.4795e-08
3.47935e-08
3.47921e-08
3.47907e-08
3.47894e-08
3.48112e-08
3.48086e-08
3.48068e-08
3.4805e-08
3.48032e-08
3.48015e-08
3.47998e-08
3.47981e-08
3.47965e-08
3.4795e-08
3.47936e-08
3.47922e-08
3.47908e-08
3.47894e-08
3.48108e-08
3.48087e-08
3.48069e-08
3.48051e-08
3.48033e-08
3.48016e-08
3.47999e-08
3.47983e-08
3.47967e-08
3.47952e-08
3.47937e-08
3.47923e-08
3.47909e-08
3.47895e-08
3.48106e-08
3.48087e-08
3.48069e-08
3.48052e-08
3.48035e-08
3.48018e-08
3.48001e-08
3.47985e-08
3.47969e-08
3.47954e-08
3.47939e-08
3.47925e-08
3.4791e-08
3.47896e-08
3.48105e-08
3.48087e-08
3.4807e-08
3.48053e-08
3.48036e-08
3.4802e-08
3.48004e-08
3.47988e-08
3.47972e-08
3.47956e-08
3.47942e-08
3.47927e-08
3.47912e-08
3.47897e-08
3.48104e-08
3.48087e-08
3.4807e-08
3.48054e-08
3.48038e-08
3.48023e-08
3.48007e-08
3.47991e-08
3.47975e-08
3.4796e-08
3.47944e-08
3.47929e-08
3.47914e-08
3.47899e-08
3.48102e-08
3.48087e-08
3.48071e-08
3.48056e-08
3.4804e-08
3.48025e-08
3.4801e-08
3.47994e-08
3.47979e-08
3.47963e-08
3.47947e-08
3.47931e-08
3.47916e-08
3.479e-08
3.48101e-08
3.48087e-08
3.48072e-08
3.48057e-08
3.48043e-08
3.48028e-08
3.48013e-08
3.47997e-08
3.47981e-08
3.47965e-08
3.47949e-08
3.47933e-08
3.47917e-08
3.479e-08
3.481e-08
3.48087e-08
3.48073e-08
3.48059e-08
3.48044e-08
3.4803e-08
3.48015e-08
3.48e-08
3.47984e-08
3.47968e-08
3.47951e-08
3.47934e-08
3.47917e-08
3.479e-08
3.48101e-08
3.48087e-08
3.48074e-08
3.4806e-08
3.48047e-08
3.48032e-08
3.48017e-08
3.48001e-08
3.47986e-08
3.47969e-08
3.47952e-08
3.47935e-08
3.47918e-08
3.47901e-08
3.47467e-08
3.47456e-08
3.47445e-08