/*--------------------------------*- C++ -*----------------------------------*\
| =========                 |                                                 |
| \\      /  F ield         | OpenFOAM: The Open Source CFD Toolbox           |
|  \\    /   O peration     | Version:  v2106                                 |
|   \\  /    A nd           | Website:  www.openfoam.com                      |
|    \\/     M anipulation  |                                                 |
\*---------------------------------------------------------------------------*/
FoamFile
{
    version     2.0;
    format      ascii;
    arch        "LSB;label=32;scalar=64";
    class       volScalarField;
    location    "0.000119";
    object      k;
}
// * * * * * * * * * * * * * * * * * * * * * * * * * * * * * * * * * * * * * //

dimensions      [0 2 -2 0 0 0 0];

internalField   nonuniform List<scalar> 
18109
(
4.7023e-05
9.23355e-06
8.6871e-06
3.05927e-05
9.72958e-05
0.000237206
0.000445849
0.000128459
2.41752e-05
4.5798e-06
3.27693e-06
9.823e-06
2.70018e-05
5.73822e-05
0.000350447
6.70384e-05
1.10886e-05
1.79705e-06
9.84483e-07
2.48988e-06
5.97625e-06
0.000752574
0.000146228
2.49786e-05
3.7555e-06
5.37189e-07
2.33057e-07
4.9898e-07
0.0011875
0.000236331
4.08272e-05
6.11166e-06
7.87787e-07
9.56048e-08
3.92448e-08
0.00134809
0.000262618
4.40952e-05
6.36978e-06
7.86546e-07
8.23765e-08
8.56988e-09
0.00118522
0.000216473
3.41838e-05
4.65045e-06
5.40502e-07
5.29472e-08
4.33836e-09
0.000844733
0.000141295
2.04756e-05
2.56283e-06
2.74674e-07
2.48364e-08
1.86139e-09
8.69793e-06
1.46827e-06
1.02098e-06
3.86037e-06
1.3769e-05
3.73954e-05
7.61231e-05
0.000118013
0.000141496
0.000131479
9.11391e-05
4.83909e-05
1.87746e-05
5.74354e-06
2.53701e-05
4.31188e-06
7.08431e-07
3.82822e-07
1.19862e-06
3.59601e-06
8.16708e-06
1.40841e-05
1.85873e-05
1.8776e-05
1.36783e-05
7.28621e-06
2.67556e-06
7.57908e-07
7.27108e-05
1.26641e-05
1.93432e-06
2.7579e-07
1.10975e-07
2.78136e-07
6.99754e-07
1.34461e-06
1.95231e-06
2.14101e-06
1.63188e-06
8.68671e-07
3.08355e-07
8.34557e-08
0.000164008
2.88736e-05
4.41641e-06
5.86398e-07
7.09673e-08
2.30452e-08
4.76314e-08
1.01357e-07
1.61582e-07
1.92888e-07
1.54893e-07
8.32738e-08
2.89889e-08
7.9209e-09
0.000264276
4.64698e-05
6.98642e-06
8.99757e-07
9.84399e-08
9.83282e-09
3.1221e-09
5.90719e-09
1.03127e-08
1.34645e-08
1.14838e-08
6.2801e-09
2.20996e-09
2.65005e-09
0.000295143
4.99247e-05
7.17808e-06
8.78074e-07
9.07563e-08
7.90165e-09
6.6439e-10
2.89209e-10
4.96937e-10
7.11665e-10
6.5252e-10
3.71413e-10
2.76489e-10
1.49019e-08
0.000248842
3.92148e-05
5.27512e-06
6.04021e-07
5.84261e-08
4.7401e-09
3.24733e-10
2.91602e-11
2.143e-11
3.06702e-11
3.07518e-11
2.65778e-11
8.7002e-10
6.32486e-08
0.000166084
2.40716e-05
2.98949e-06
3.16894e-07
2.84508e-08
2.14656e-09
1.37944e-10
1.11541e-11
4.83156e-12
4.85884e-12
5.10704e-12
4.11419e-11
3.40504e-09
1.75159e-07
9.14208e-05
1.2284e-05
1.41366e-06
1.38611e-07
1.15017e-08
8.03663e-10
5.02568e-11
6.3706e-12
4.28065e-12
4.20291e-12
5.0991e-12
1.33377e-10
8.71807e-09
3.21327e-07
4.19561e-05
5.27639e-06
5.61664e-07
5.03708e-08
3.79957e-09
2.47884e-10
1.95809e-11
5.84934e-12
4.52233e-12
4.26179e-12
7.09443e-12
2.95079e-10
1.45018e-08
3.91228e-07
1.61658e-05
1.91154e-06
1.89057e-07
1.58758e-08
1.40109e-09
3.39798e-10
1.63731e-10
6.72772e-11
2.27945e-11
8.10511e-12
8.78642e-12
3.34995e-10
1.35714e-08
3.01134e-07
5.43914e-06
6.03881e-07
5.73469e-08
9.66739e-09
8.75119e-09
7.91556e-09
4.83427e-09
2.0874e-09
6.67987e-10
1.56753e-10
3.27445e-11
1.94067e-10
6.93694e-09
1.36484e-07
1.58578e-06
1.75975e-07
5.42269e-08
1.01659e-07
1.59707e-07
1.55699e-07
1.00689e-07
4.64451e-08
1.59586e-08
4.02847e-09
7.68462e-10
1.63569e-10
1.96488e-09
3.83486e-08
6.01646e-07
2.29496e-07
5.82355e-07
1.42244e-06
2.24933e-06
2.25808e-06
1.53155e-06
7.55182e-07
2.7989e-07
7.72298e-08
1.61958e-08
2.59426e-09
8.21808e-10
1.26524e-08
6.06722e-05
0.000143362
0.000338714
0.000813728
0.00206407
0.00538467
1.17168e-05
3.00696e-05
7.45824e-05
0.000181797
0.000463766
0.00125544
2.16742e-06
1.34551e-05
7.74928e-05
0.000387822
0.00166613
0.00617044
9.35284e-06
6.76755e-05
0.000401293
0.00198007
0.00824848
0.0288623
3.95429e-05
0.000290507
0.00168876
0.00788111
0.0302033
0.0960044
0.000129157
0.000934688
0.00528463
0.0235291
0.0836509
0.239603
0.000316985
0.00219491
0.0118093
0.0495258
0.16334
0.428606
0.000577659
0.00374832
0.0189084
0.074214
0.228304
0.559047
0.000797664
0.00477765
0.0226151
0.084041
0.245753
0.57513
0.000857888
0.00470209
0.0209396
0.0746483
0.211442
0.482876
0.000726451
0.00360382
0.0150826
0.051967
0.144864
0.330516
0.000476473
0.00213565
0.00850368
0.0292522
0.0826632
0.190161
0.000248432
0.001015
0.00396522
0.0134708
0.0382318
0.0887641
0.000103186
0.000385072
0.00143728
0.00468045
0.0132959
0.030962
3.54002e-05
0.000115748
0.000384064
0.00110075
0.00299382
0.00659515
4.94897e-06
1.45443e-05
4.5465e-05
0.000123241
0.000333221
0.000707687
5.12856e-07
1.49971e-06
4.41689e-06
1.13075e-05
2.88862e-05
8.4207e-05
4.3899e-08
1.15157e-07
6.41434e-07
6.99567e-06
6.98721e-05
0.000546445
1.25128e-08
2.90942e-07
5.22973e-06
6.48044e-05
0.000573503
0.00382693
9.63046e-08
2.33432e-06
3.56388e-05
0.000379715
0.00292325
0.0168433
5.65318e-07
1.21463e-05
0.000163124
0.00150258
0.00997535
0.0493432
2.00966e-06
3.86636e-05
0.000474766
0.00399738
0.0238576
0.103527
4.59795e-06
7.7531e-05
0.000856293
0.00656413
0.0356037
0.139562
7.00601e-06
0.000102269
0.00101581
0.00716488
0.0362092
0.132802
6.9973e-06
8.75565e-05
0.000785183
0.00518832
0.0251509
0.0894333
4.47942e-06
4.86076e-05
0.000398984
0.00249371
0.0118164
0.0421908
1.88822e-06
1.74885e-05
0.00013342
0.000822709
0.00402355
0.014946
5.27645e-07
4.22776e-06
2.93481e-05
0.000170309
0.00084837
0.00329458
1.02339e-07
7.26791e-07
4.4789e-06
2.25177e-05
0.000100446
0.000366855
4.35317e-08
1.92761e-07
8.09408e-07
3.10654e-06
1.10857e-05
3.65867e-05
7.39614e-09
7.1362e-08
5.9789e-07
4.38826e-06
2.77083e-05
0.000153068
4.5135e-08
5.07714e-07
4.64916e-06
3.55215e-05
0.000224373
0.00119813
2.54717e-07
2.96035e-06
2.74528e-05
0.000207185
0.00126481
0.00636
1.11421e-06
1.29273e-05
0.000118126
0.000861398
0.00498791
0.0232148
3.73852e-06
4.21501e-05
0.000370329
0.00256215
0.0138882
0.0593655
9.46324e-06
0.000101948
0.000851521
0.00555254
0.0279778
0.108902
1.81979e-05
0.000184275
0.00144703
0.00882689
0.0411161
0.14528
2.60612e-05
0.000245615
0.00178542
0.0100332
0.0429026
0.139054
2.58765e-05
0.000224294
0.00148748
0.00763283
0.0302789
0.0934979
1.69871e-05
0.000135073
0.000811497
0.00379168
0.0141371
0.0425678
7.45296e-06
5.38296e-05
0.000289382
0.0012232
0.00427544
0.0125705
2.46344e-06
1.59868e-05
7.67098e-05
0.000292335
0.000929301
0.00249319
1.13264e-06
5.6822e-06
2.316e-05
7.8348e-05
0.000224572
0.000556154
0.00332425
0.0115504
0.0344098
0.0873235
0.189016
0.352243
0.00159255
0.00526971
0.0154622
0.0386524
0.0840955
0.159396
0.000613277
0.00183196
0.00492584
0.0116594
0.0248815
0.0470072
0.000198164
0.000541186
0.00134373
0.00298414
0.00597258
0.010164
4.1584e-06
1.61803e-05
6.00541e-05
0.000207525
0.000658895
0.00191259
1.26358e-05
6.02248e-05
0.000258783
0.000987214
0.00334508
0.0100712
4.07796e-05
0.000213703
0.000977485
0.00386102
0.0132449
0.0395299
0.000114412
0.000634421
0.00299035
0.0118875
0.0401403
0.115277
0.000283637
0.00161554
0.00766637
0.0300032
0.0969664
0.258971
0.000582594
0.00328123
0.0152186
0.0573314
0.174961
0.434668
0.000980292
0.00526103
0.023174
0.0824557
0.236336
0.5516
0.00134838
0.00672522
0.0277581
0.0930814
0.252686
0.562832
0.00148351
0.00679548
0.0262162
0.0834628
0.217707
0.471696
0.00127828
0.00537094
0.0193435
0.0587277
0.149066
0.318888
0.000808037
0.00319674
0.0109656
0.0321512
0.0805457
0.174767
0.000367939
0.00137107
0.00457962
0.0130913
0.0333567
0.07307
0.000135468
0.000454364
0.00137699
0.00366334
0.00890513
0.0194625
4.16779e-05
0.000127059
0.000351169
0.000867382
0.00194246
0.00369902
0.00357372
0.0163156
0.0545681
0.133882
0.2515
0.0198444
0.0826967
0.243837
0.542146
0.960306
0.0856999
0.304207
0.78596
1.59623
2.71416
0.256462
0.780668
1.78685
3.33732
5.38686
0.562979
1.46097
2.99584
5.16357
7.75305
0.918383
2.10482
3.98644
6.60184
9.39213
1.12654
2.47113
4.62356
7.65305
10.3221
1.12854
2.48758
4.86658
8.10778
10.1999
8.93045
0.936618
2.09512
4.34448
7.45937
9.05329
7.46985
0.633418
1.39753
2.91856
5.55947
7.27961
6.2423
0.364536
0.779304
1.41159
2.9607
5.11423
5.25205
3.92441
0.17044
0.348765
0.564548
0.910441
2.27752
3.66891
3.58476
2.71241
0.0579031
0.108626
0.172183
0.239078
0.327051
0.923839
2.31414
5.0705
0.0115787
0.0225085
0.0373602
0.0498219
0.0523469
0.042198
0.0332075
0.309711
0.00130137
0.0029412
0.00666101
0.0145384
0.0292213
0.0482451
0.01211
0.392877
0.000402282
0.00335945
0.0182206
0.0645936
0.152731
0.256344
0.0684896
0.615297
0.00337665
0.0237753
0.104911
0.316293
0.6854
1.1447
0.834962
1.81206
0.0196886
0.110458
0.404466
1.05993
2.1172
3.52823
5.32786
7.57033
0.0736186
0.336725
1.03441
2.35234
4.21043
6.436
10.5019
11.5179
0.184332
0.700511
1.82959
3.63531
5.77609
7.77559
10.0014
12.8382
0.33202
1.0523
2.41941
4.43453
6.69361
8.35397
8.87349
11.7032
0.406979
1.20412
2.66943
4.87913
7.38685
8.8193
8.96929
9.3694
0.368286
1.09445
2.53572
4.85075
7.43832
8.50261
0.243169
0.746428
1.83792
3.95296
6.47945
7.36724
0.117078
0.37333
0.938474
2.30697
4.63365
5.93977
0.0428494
0.139878
0.327141
0.669491
2.0684
3.9198
0.00979968
0.0332113
0.080268
0.148211
0.243041
0.893907
0.00110798
0.00445456
0.0119406
0.0218005
0.0290518
0.000120713
0.00075502
0.00343226
0.0107667
0.0243486
0.000734597
0.00476853
0.0211977
0.0669186
0.150209
0.0054054
0.0302448
0.117099
0.328781
0.689289
0.0263481
0.126876
0.428407
1.07785
2.1183
0.0868372
0.358078
1.04772
2.33182
4.14032
0.199256
0.703806
1.78615
3.50869
5.57904
0.326627
1.00575
2.29474
4.19606
6.37007
0.394403
1.12763
2.46463
4.51987
6.88083
0.353844
1.00845
2.26923
4.35223
6.72181
0.23094
0.666474
1.59514
3.38045
5.64697
0.103152
0.309445
0.775842
1.87062
3.82588
0.0294828
0.0981396
0.24229
0.546271
1.60451
0.00524063
0.0200203
0.0531686
0.106271
0.201776
0.00122503
0.00487794
0.015391
0.0346975
0.0591961
0.00504194
0.0197383
0.0580784
0.132105
0.2393
0.0271015
0.0966547
0.260176
0.550222
0.953788
0.103402
0.331335
0.812312
1.60931
2.71807
0.283966
0.808073
1.79437
3.3116
5.33664
0.578365
1.45269
2.93041
5.02761
7.57378
0.898357
2.02179
3.8275
6.35329
9.08392
1.08196
2.33823
4.3738
7.26769
9.86115
1.07218
2.32238
4.50894
7.55087
9.61816
0.879069
1.93395
3.92186
6.76828
8.46647
0.582233
1.26914
2.57327
4.91677
6.77499
0.31767
0.655479
1.19249
2.52269
4.59382
0.127206
0.253422
0.433912
0.767535
1.94306
0.0337048
0.0708445
0.123136
0.186235
0.306269
0.00580319
0.0147755
0.0313905
0.0552718
0.081722
7.04764e-07
1.04729e-07
4.50811e-08
1.70757e-07
6.91089e-07
2.12037e-06
4.80975e-06
8.14408e-06
1.03945e-05
9.9906e-06
6.96501e-06
3.65494e-06
1.4046e-06
4.34397e-07
2.23667e-06
3.42868e-07
4.89908e-08
1.73925e-08
5.3522e-08
1.79182e-07
4.49894e-07
8.44084e-07
1.1868e-06
1.24794e-06
9.21814e-07
4.89327e-07
1.81142e-07
5.30026e-08
6.57238e-06
1.0307e-06
1.42458e-07
1.78984e-08
5.07562e-09
1.23862e-08
3.40484e-08
7.07894e-08
1.09347e-07
1.2523e-07
9.71962e-08
5.19216e-08
1.88388e-08
5.33905e-09
1.49556e-05
2.35153e-06
3.22125e-07
3.82945e-08
4.07563e-09
1.01389e-09
2.08627e-09
4.755e-09
8.03248e-09
1.00081e-08
8.19221e-09
4.44253e-09
1.59994e-09
4.52009e-10
2.37246e-05
3.68048e-06
4.89947e-07
5.60372e-08
5.47164e-09
4.85814e-10
1.32417e-10
2.55103e-10
4.66485e-10
6.32482e-10
5.48968e-10
3.0495e-10
1.13083e-10
6.51994e-11
2.53298e-05
3.74808e-06
4.73993e-07
5.13106e-08
4.72855e-09
3.73779e-10
3.17118e-11
1.5298e-11
2.44317e-11
3.43165e-11
3.20837e-11
2.00011e-11
1.28539e-11
2.83145e-10
1.99395e-05
2.74512e-06
3.24583e-07
3.29037e-08
2.84367e-09
2.11691e-10
1.68517e-11
4.9453e-12
4.68556e-12
5.07581e-12
5.0773e-12
4.78127e-12
2.43686e-11
1.45433e-09
1.21753e-05
1.54892e-06
1.70128e-07
1.60674e-08
1.29834e-09
9.24232e-11
9.08052e-12
4.25513e-12
4.02976e-12
4.0301e-12
4.03437e-12
4.83964e-12
9.27368e-11
4.88253e-09
6.09491e-06
7.23685e-07
7.41581e-08
6.52593e-09
4.93045e-10
3.50501e-11
5.66377e-12
4.0835e-12
4.01083e-12
4.00575e-12
4.02184e-12
7.08401e-12
2.54449e-10
1.0675e-08
2.53774e-06
2.83337e-07
2.69839e-08
2.18747e-09
1.53834e-10
1.27813e-11
4.48291e-12
4.04618e-12
4.01477e-12
4.00782e-12
4.06742e-12
1.14396e-11
4.58698e-10
1.5019e-08
8.8745e-07
9.3397e-08
8.30612e-09
6.33989e-10
5.17847e-11
1.27594e-11
7.6442e-12
5.34734e-12
4.38066e-12
4.08217e-12
4.11388e-12
1.3319e-11
4.66589e-10
1.24901e-08
2.69024e-07
2.67176e-08
2.29181e-09
3.56344e-10
3.0358e-10
2.56253e-10
1.46989e-10
6.12774e-11
2.09264e-11
7.61849e-12
4.65117e-12
9.91192e-12
2.59982e-10
5.9786e-09
7.09375e-08
7.09504e-09
2.31184e-09
4.56345e-09
6.87823e-09
6.27315e-09
3.7604e-09
1.60041e-09
5.06375e-10
1.20039e-10
2.42163e-11
8.43385e-12
8.25823e-11
1.76521e-09
2.72974e-08
1.10226e-08
3.13983e-08
7.7725e-08
1.18991e-07
1.12097e-07
7.02929e-08
3.17128e-08
1.06566e-08
2.65864e-09
5.05996e-10
7.63125e-11
3.27261e-11
5.58232e-10
5.90901e-08
8.02087e-09
2.0552e-09
6.72336e-09
3.0629e-08
1.06137e-07
2.70948e-07
5.12335e-07
7.18431e-07
7.40783e-07
5.36934e-07
2.85782e-07
1.11258e-07
3.52806e-08
1.99663e-07
2.80276e-08
3.58562e-09
8.30418e-10
2.26109e-09
8.41366e-09
2.3567e-08
4.9019e-08
7.55015e-08
8.53237e-08
6.5676e-08
3.55289e-08
1.34757e-08
4.07872e-09
5.85287e-07
8.40038e-08
1.06143e-08
1.20162e-09
2.47849e-10
5.57045e-10
1.68051e-09
3.84209e-09
6.47315e-09
7.96415e-09
6.44925e-09
3.52762e-09
1.31891e-09
3.8958e-10
1.29681e-06
1.86091e-07
2.32612e-08
2.52611e-09
2.46074e-10
5.14479e-11
1.01768e-10
2.47366e-10
4.50253e-10
5.99847e-10
5.12092e-10
2.86145e-10
1.0835e-10
3.40167e-11
1.95586e-06
2.75526e-07
3.34123e-08
3.49032e-09
3.15631e-10
2.8908e-11
9.84958e-12
1.62508e-11
2.84268e-11
3.94375e-11
3.58873e-11
2.19695e-11
1.05953e-11
6.63501e-12
1.93358e-06
2.59522e-07
2.99184e-08
2.9688e-09
2.55113e-10
2.21069e-11
5.1738e-12
4.44305e-12
4.95537e-12
5.55389e-12
5.47955e-12
4.81392e-12
4.33786e-12
1.25586e-11
1.38383e-06
1.73709e-07
1.88075e-08
1.75751e-09
1.43812e-10
1.34297e-11
4.45971e-12
3.94723e-12
3.93974e-12
3.96107e-12
3.9608e-12
3.9403e-12
4.6381e-12
5.52322e-11
7.60039e-07
8.89833e-08
9.02914e-09
7.94158e-10
6.31777e-11
7.69934e-12
4.11462e-12
3.918e-12
3.90768e-12
3.90607e-12
3.90445e-12
3.93283e-12
7.4161e-12
2.01632e-10
3.43095e-07
3.77315e-08
3.5948e-09
2.98475e-10
2.45867e-11
5.14711e-12
3.97403e-12
3.9128e-12
3.90824e-12
3.90604e-12
3.90462e-12
4.02714e-12
1.48202e-11
4.97011e-10
1.29229e-07
1.33722e-08
1.18874e-09
9.37792e-11
9.72666e-12
4.23608e-12
3.92923e-12
3.91259e-12
3.90969e-12
3.90734e-12
3.90761e-12
4.226e-12
2.55202e-11
7.84982e-10
4.09236e-08
3.99308e-09
3.34631e-10
2.74502e-11
5.55911e-12
4.17139e-12
4.00944e-12
3.94528e-12
3.91926e-12
3.91024e-12
3.91073e-12
4.33591e-12
2.7571e-11
7.14458e-10
1.12183e-08
1.03686e-09
8.70287e-11
1.71342e-11
1.52934e-11
1.28616e-11
8.59866e-12
5.63905e-12
4.37796e-12
4.00107e-12
3.92396e-12
4.18987e-12
1.76506e-11
3.65434e-10
2.69724e-09
2.58894e-10
1.09519e-10
2.25381e-10
3.20726e-10
2.70522e-10
1.50104e-10
6.04667e-11
2.00331e-11
7.29833e-12
4.44397e-12
4.06025e-12
8.18167e-12
1.11351e-10
1.16451e-09
5.62915e-10
1.81978e-09
4.4486e-09
6.41503e-09
5.53414e-09
3.15164e-09
1.28578e-09
3.91051e-10
9.09151e-11
1.87095e-11
5.83763e-12
5.18433e-12
3.40862e-11
4.3035e-09
5.44774e-10
9.66554e-11
2.32667e-10
1.15523e-09
4.44306e-09
1.26174e-08
2.65102e-08
4.09119e-08
4.55808e-08
3.46687e-08
1.88935e-08
7.53014e-09
2.46434e-09
1.50079e-08
1.94859e-09
2.30267e-10
4.09766e-11
8.60442e-11
3.38633e-10
1.03895e-09
2.37768e-09
4.01186e-09
4.89726e-09
3.96257e-09
2.20731e-09
8.65895e-10
2.73451e-10
4.32858e-08
5.72843e-09
6.68418e-10
7.20322e-11
1.43785e-11
2.50687e-11
7.39152e-11
1.79388e-10
3.2664e-10
4.32259e-10
3.68971e-10
2.10104e-10
8.34081e-11
2.79478e-11
9.19265e-08
1.21536e-08
1.39936e-09
1.42758e-10
1.59999e-11
5.78996e-12
7.78079e-12
1.44563e-11
2.49497e-11
3.41428e-11
3.10279e-11
1.94684e-11
9.81573e-12
5.61135e-12
1.29814e-07
1.67984e-08
1.87554e-09
1.83513e-10
1.86504e-11
4.93673e-12
4.08328e-12
4.36591e-12
4.9573e-12
5.56785e-12
5.47224e-12
4.79453e-12
4.20455e-12
3.9717e-12
1.17554e-07
1.45002e-08
1.54378e-09
1.44846e-10
1.49145e-11
4.59483e-12
3.89819e-12
3.87056e-12
3.89381e-12
3.92352e-12
3.92213e-12
3.88973e-12
3.86343e-12
4.12705e-12
7.61395e-08
8.83258e-09
8.88666e-10
8.04543e-11
9.54033e-12
4.2132e-12
3.8706e-12
3.85131e-12
3.85007e-12
3.84984e-12
3.84853e-12
3.84626e-12
3.87128e-12
5.71399e-12
3.77786e-08
4.12581e-09
3.93686e-10
3.5731e-11
6.08993e-12
3.98718e-12
3.85894e-12
3.85124e-12
3.84962e-12
3.84819e-12
3.84669e-12
3.84658e-12
3.98914e-12
1.19232e-11
1.54912e-08
1.59748e-09
1.45859e-10
1.47795e-11
4.57485e-12
3.8947e-12
3.85509e-12
3.852e-12
3.85051e-12
3.84902e-12
3.84753e-12
3.8518e-12
4.34166e-12
2.65799e-11
5.30902e-09
5.17024e-10
4.65302e-11
6.90738e-12
4.04265e-12
3.86494e-12
3.85447e-12
3.85275e-12
3.85131e-12
3.84982e-12
3.84842e-12
3.86273e-12
4.92533e-12
4.42512e-11
1.53112e-09
1.43165e-10
1.47071e-11
4.58668e-12
3.90522e-12
3.86281e-12
3.85699e-12
3.85409e-12
3.85211e-12
3.8505e-12
3.84921e-12
3.87016e-12
5.12669e-12
4.43124e-11
3.8483e-10
3.67072e-11
6.37498e-12
4.30466e-12
4.25571e-12
4.14816e-12
3.99587e-12
3.90126e-12
3.86406e-12
3.85302e-12
3.84993e-12
3.86359e-12
4.63358e-12
2.60811e-11
8.78332e-11
1.16224e-11
8.36762e-12
1.3625e-11
1.69701e-11
1.39692e-11
8.91168e-12
5.63103e-12
4.31204e-12
3.9394e-12
3.86256e-12
3.85482e-12
4.09208e-12
1.05356e-11
4.91177e-11
3.06217e-11
9.72627e-11
2.26759e-10
3.03496e-10
2.38971e-10
1.25055e-10
4.84604e-11
1.60169e-11
6.33322e-12
4.23274e-12
3.89478e-12
3.90978e-12
5.52571e-12
2.65395e-10
3.44177e-11
7.81146e-12
1.05764e-11
4.07092e-11
1.60437e-10
4.95199e-10
1.14533e-09
1.94118e-09
2.3429e-09
1.88045e-09
1.05626e-09
4.33567e-10
1.47118e-10
9.26379e-10
1.14594e-10
1.56616e-11
5.33273e-12
6.38793e-12
1.51073e-11
4.20543e-11
1.00067e-10
1.8176e-10
2.38983e-10
2.04819e-10
1.19483e-10
5.04752e-11
1.87459e-11
2.59296e-09
3.20728e-10
3.77556e-11
7.01596e-12
4.22058e-12
4.51516e-12
6.28791e-12
1.05512e-11
1.73114e-11
2.31613e-11
2.12591e-11
1.40368e-11
7.89103e-12
5.08399e-12
5.23634e-09
6.43661e-10
7.16798e-11
1.0056e-11
4.32715e-12
3.89324e-12
3.95803e-12
4.21085e-12
4.65771e-12
5.11237e-12
5.04627e-12
4.55196e-12
4.10893e-12
3.90718e-12
6.8817e-09
8.25648e-10
8.84718e-11
1.13407e-11
4.40042e-12
3.86566e-12
3.83374e-12
3.8432e-12
3.86602e-12
3.89284e-12
3.89188e-12
3.86364e-12
3.83703e-12
3.82524e-12
5.68803e-09
6.52396e-10
6.77069e-11
9.25926e-12
4.22444e-12
3.85213e-12
3.82792e-12
3.82622e-12
3.82621e-12
3.82655e-12
3.82573e-12
3.82353e-12
3.8215e-12
3.82864e-12
3.33936e-09
3.6346e-10
3.73977e-11
6.54005e-12
4.01665e-12
3.83891e-12
3.82735e-12
3.82584e-12
3.82485e-12
3.82388e-12
3.82286e-12
3.82182e-12
3.82186e-12
3.88326e-12
1.50962e-09
1.5761e-10
1.74371e-11
4.87179e-12
3.89764e-12
3.83206e-12
3.8274e-12
3.8262e-12
3.82513e-12
3.82406e-12
3.82299e-12
3.82205e-12
3.82671e-12
4.12238e-12
5.68071e-10
5.83359e-11
8.38526e-12
4.15926e-12
3.84994e-12
3.82968e-12
3.82762e-12
3.82653e-12
3.82545e-12
3.82436e-12
3.82329e-12
3.82256e-12
3.84234e-12
4.7726e-12
1.80235e-10
1.98692e-11
5.08615e-12
3.91548e-12
3.83487e-12
3.82919e-12
3.8279e-12
3.82681e-12
3.82573e-12
3.82465e-12
3.8236e-12
3.82339e-12
3.87169e-12
5.71229e-12
5.01735e-11
7.81178e-12
4.12446e-12
3.84994e-12
3.83152e-12
3.82942e-12
3.82821e-12
3.82707e-12
3.82598e-12
3.82491e-12
3.82389e-12
3.82409e-12
3.8863e-12
5.90192e-12
1.44037e-11
4.69209e-12
3.89661e-12
3.846e-12
3.84388e-12
3.83844e-12
3.83228e-12
3.82842e-12
3.82641e-12
3.82516e-12
3.82416e-12
3.8241e-12
3.86453e-12
5.05848e-12
5.98718e-12
4.04085e-12
4.02203e-12
4.23265e-12
4.32072e-12
4.17316e-12
3.98495e-12
3.8775e-12
3.83821e-12
3.82751e-12
3.82475e-12
3.8239e-12
3.836e-12
4.2034e-12
5.47212e-12
5.11802e-12
8.39574e-12
1.38402e-11
1.61337e-11
1.25775e-11
7.91225e-12
5.18958e-12
4.16363e-12
3.88835e-12
3.83348e-12
3.82478e-12
3.82602e-12
3.91059e-12
1.69888e-11
5.25191e-12
3.97171e-12
3.98587e-12
4.80051e-12
8.3805e-12
1.95329e-11
4.40374e-11
7.89326e-11
1.02577e-10
8.79776e-11
5.27013e-11
2.4315e-11
1.07933e-11
5.03479e-11
9.02301e-12
4.33143e-12
3.87052e-12
3.88279e-12
4.12934e-12
4.97498e-12
7.01459e-12
1.03031e-11
1.31445e-11
1.23002e-11
8.88914e-12
5.92275e-12
4.50197e-12
1.30285e-10
1.82269e-11
5.24808e-12
3.94086e-12
3.82893e-12
3.83411e-12
3.88604e-12
4.02586e-12
4.27742e-12
4.53525e-12
4.50628e-12
4.23528e-12
3.98507e-12
3.86537e-12
2.46404e-10
3.13976e-11
6.53197e-12
4.04798e-12
3.83354e-12
3.8177e-12
3.81875e-12
3.82589e-12
3.84075e-12
3.85833e-12
3.85818e-12
3.84013e-12
3.82245e-12
3.81372e-12
2.99466e-10
3.66308e-11
6.95766e-12
4.07621e-12
3.83489e-12
3.81702e-12
3.81538e-12
3.81495e-12
3.81498e-12
3.81527e-12
3.81469e-12
3.81308e-12
3.81147e-12
3.81042e-12
2.26327e-10
2.7464e-11
5.98934e-12
3.98961e-12
3.82839e-12
3.81665e-12
3.81529e-12
3.81453e-12
3.81381e-12
3.8131e-12
3.81238e-12
3.81165e-12
3.81099e-12
3.81061e-12
1.22275e-10
1.57718e-11
4.86292e-12
3.89648e-12
3.82187e-12
3.81632e-12
3.81533e-12
3.81457e-12
3.81382e-12
3.81307e-12
3.81235e-12
3.81167e-12
3.81111e-12
3.81245e-12
5.27055e-11
8.51239e-12
4.2084e-12
3.84556e-12
3.81853e-12
3.8162e-12
3.81539e-12
3.81464e-12
3.81389e-12
3.81315e-12
3.81244e-12
3.81178e-12
3.81142e-12
3.82077e-12
2.06249e-11
5.34777e-12
3.93843e-12
3.82571e-12
3.81732e-12
3.81616e-12
3.81541e-12
3.81467e-12
3.81393e-12
3.81321e-12
3.81253e-12
3.8119e-12
3.81213e-12
3.84609e-12
8.63331e-12
4.2319e-12
3.84878e-12
3.81955e-12
3.81701e-12
3.81617e-12
3.81542e-12
3.81468e-12
3.81397e-12
3.81328e-12
3.81262e-12
3.81204e-12
3.81352e-12
3.88892e-12
4.97825e-12
3.91312e-12
3.82494e-12
3.81809e-12
3.81698e-12
3.81621e-12
3.81544e-12
3.8147e-12
3.81399e-12
3.81332e-12
3.81269e-12
3.81215e-12
3.81445e-12
3.90508e-12
4.06266e-12
3.83786e-12
3.81988e-12
3.81819e-12
3.81741e-12
3.81647e-12
3.81555e-12
3.81473e-12
3.814e-12
3.81335e-12
3.81274e-12
3.81223e-12
3.81371e-12
3.87155e-12
3.86581e-12
3.82429e-12
3.82601e-12
3.83291e-12
3.83375e-12
3.82682e-12
3.81986e-12
3.81604e-12
3.81433e-12
3.81345e-12
3.81282e-12
3.8123e-12
3.81246e-12
3.83055e-12
3.87481e-12
3.87635e-12
4.0213e-12
4.22379e-12
4.2647e-12
4.10387e-12
3.93745e-12
3.8518e-12
3.82248e-12
3.81493e-12
3.81311e-12
3.81241e-12
3.81201e-12
3.8156e-12
4.35019e-12
3.8642e-12
3.81419e-12
3.81227e-12
3.8301e-12
3.91763e-12
4.22065e-12
4.96915e-12
6.1957e-12
7.23757e-12
6.92668e-12
5.691e-12
4.61786e-12
4.0857e-12
5.71766e-12
4.00887e-12
3.8273e-12
3.81029e-12
3.80972e-12
3.81503e-12
3.83633e-12
3.89435e-12
4.00112e-12
4.11142e-12
4.10241e-12
3.99018e-12
3.88374e-12
3.83028e-12
8.82698e-12
4.34332e-12
3.85835e-12
3.81258e-12
3.80857e-12
3.80816e-12
3.80895e-12
3.81222e-12
3.81938e-12
3.82803e-12
3.82815e-12
3.81934e-12
3.8104e-12
3.80574e-12
1.2941e-11
4.7777e-12
3.89773e-12
3.81562e-12
3.80866e-12
3.80774e-12
3.80728e-12
3.80695e-12
3.80686e-12
3.80693e-12
3.80654e-12
3.80556e-12
3.80455e-12
3.80386e-12
1.41195e-11
4.87639e-12
3.90419e-12
3.81587e-12
3.80858e-12
3.80763e-12
3.8071e-12
3.80658e-12
3.80607e-12
3.80558e-12
3.80509e-12
3.8046e-12
3.80414e-12
3.80374e-12
1.08825e-11
4.51255e-12
3.86937e-12
3.81297e-12
3.8083e-12
3.80752e-12
3.80699e-12
3.80645e-12
3.80593e-12
3.80541e-12
3.80493e-12
3.80449e-12
3.80409e-12
3.80372e-12
7.23956e-12
4.1346e-12
3.8356e-12
3.8103e-12
3.80803e-12
3.8074e-12
3.80687e-12
3.80633e-12
3.80581e-12
3.80531e-12
3.80485e-12
3.80442e-12
3.80405e-12
3.80375e-12
5.10994e-12
3.927e-12
3.81804e-12
3.80895e-12
3.80786e-12
3.8073e-12
3.80676e-12
3.80623e-12
3.80572e-12
3.80523e-12
3.80478e-12
3.80436e-12
3.80401e-12
3.80398e-12
4.22112e-12
3.84461e-12
3.81139e-12
3.80843e-12
3.80774e-12
3.80719e-12
3.80665e-12
3.80613e-12
3.80563e-12
3.80516e-12
3.80472e-12
3.80432e-12
3.804e-12
3.80482e-12
3.91819e-12
3.81807e-12
3.80935e-12
3.80824e-12
3.80766e-12
3.80711e-12
3.80657e-12
3.80605e-12
3.80556e-12
3.8051e-12
3.80469e-12
3.8043e-12
3.80404e-12
3.8065e-12
3.83382e-12
3.8111e-12
3.80884e-12
3.80818e-12
3.80762e-12
3.80706e-12
3.80651e-12
3.80599e-12
3.80551e-12
3.80507e-12
3.80467e-12
3.8043e-12
3.80409e-12
3.80741e-12
3.81445e-12
3.80958e-12
3.80873e-12
3.80816e-12
3.8076e-12
3.80703e-12
3.80648e-12
3.80597e-12
3.80549e-12
3.80506e-12
3.80467e-12
3.80432e-12
3.80409e-12
3.80628e-12
3.81055e-12
3.80931e-12
3.80894e-12
3.80863e-12
3.80809e-12
3.80732e-12
3.8066e-12
3.80601e-12
3.80551e-12
3.80508e-12
3.8047e-12
3.80436e-12
3.80409e-12
3.8046e-12
3.81146e-12
3.81142e-12
3.81653e-12
3.82255e-12
3.82193e-12
3.81534e-12
3.80969e-12
3.8069e-12
3.80576e-12
3.8052e-12
3.80481e-12
3.80445e-12
3.80412e-12
3.80395e-12
3.82035e-12
3.80359e-12
3.80181e-12
3.80149e-12
3.80158e-12
3.80309e-12
3.80967e-12
3.82832e-12
3.86348e-12
3.89956e-12
3.89667e-12
3.86031e-12
3.82578e-12
3.80778e-12
3.8667e-12
3.80817e-12
3.80216e-12
3.80141e-12
3.80112e-12
3.80093e-12
3.80108e-12
3.80215e-12
3.80472e-12
3.80791e-12
3.80795e-12
3.80457e-12
3.80106e-12
3.79911e-12
3.9667e-12
3.81824e-12
3.80299e-12
3.8014e-12
3.80101e-12
3.8007e-12
3.8004e-12
3.80015e-12
3.80002e-12
3.79997e-12
3.79972e-12
3.79921e-12
3.79868e-12
3.79829e-12
4.08648e-12
3.83004e-12
3.80394e-12
3.8014e-12
3.80093e-12
3.80059e-12
3.80026e-12
3.79993e-12
3.79961e-12
3.79931e-12
3.79901e-12
3.79872e-12
3.79845e-12
3.7982e-12
4.09982e-12
3.83062e-12
3.80386e-12
3.80131e-12
3.80083e-12
3.80048e-12
3.80015e-12
3.79981e-12
3.79948e-12
3.79917e-12
3.79888e-12
3.79861e-12
3.79837e-12
3.79814e-12
3.98872e-12
3.81915e-12
3.80278e-12
3.80114e-12
3.80072e-12
3.80037e-12
3.80003e-12
3.7997e-12
3.79937e-12
3.79907e-12
3.79879e-12
3.79853e-12
3.7983e-12
3.79808e-12
3.88488e-12
3.80906e-12
3.80187e-12
3.80099e-12
3.80061e-12
3.80026e-12
3.79992e-12
3.79959e-12
3.79927e-12
3.79898e-12
3.7987e-12
3.79845e-12
3.79823e-12
3.79803e-12
3.83095e-12
3.80407e-12
3.80142e-12
3.80089e-12
3.80052e-12
3.80017e-12
3.79983e-12
3.7995e-12
3.79919e-12
3.7989e-12
3.79864e-12
3.79839e-12
3.79817e-12
3.79799e-12
3.8104e-12
3.80223e-12
3.80122e-12
3.80081e-12
3.80044e-12
3.80008e-12
3.79975e-12
3.79942e-12
3.79912e-12
3.79884e-12
3.79858e-12
3.79834e-12
3.79813e-12
3.79797e-12
3.80397e-12
3.80167e-12
3.80114e-12
3.80075e-12
3.80038e-12
3.80002e-12
3.79969e-12
3.79937e-12
3.79908e-12
3.7988e-12
3.79855e-12
3.79832e-12
3.79811e-12
3.79801e-12
3.80228e-12
3.80149e-12
3.80108e-12
3.80071e-12
3.80034e-12
3.79998e-12
3.79965e-12
3.79934e-12
3.79905e-12
3.79879e-12
3.79854e-12
3.79831e-12
3.7981e-12
3.79803e-12
3.80189e-12
3.80143e-12
3.80106e-12
3.80068e-12
3.80032e-12
3.79997e-12
3.79964e-12
3.79933e-12
3.79905e-12
3.79879e-12
3.79855e-12
3.79832e-12
3.79811e-12
3.798e-12
3.80177e-12
3.80138e-12
3.80104e-12
3.80069e-12
3.80033e-12
3.79998e-12
3.79965e-12
3.79935e-12
3.79907e-12
3.79881e-12
3.79858e-12
3.79835e-12
3.79814e-12
3.79796e-12
3.80179e-12
3.80143e-12
3.80127e-12
3.80111e-12
3.80073e-12
3.8002e-12
3.79975e-12
3.7994e-12
3.79912e-12
3.79887e-12
3.79864e-12
3.7984e-12
3.79817e-12
3.79794e-12
3.79589e-12
3.79524e-12
3.79505e-12
3.79487e-12
3.7947e-12
3.79455e-12
3.79449e-12
3.7947e-12
3.79537e-12
3.79622e-12
3.79614e-12
3.79504e-12
3.79391e-12
3.79323e-12
3.79721e-12
3.79536e-12
3.79504e-12
3.79484e-12
3.79465e-12
3.79445e-12
3.79426e-12
3.79409e-12
3.79396e-12
3.79386e-12
3.7937e-12
3.79344e-12
3.79318e-12
3.79296e-12
3.79994e-12
3.79561e-12
3.79503e-12
3.7948e-12
3.7946e-12
3.79439e-12
3.79419e-12
3.79399e-12
3.7938e-12
3.79361e-12
3.79343e-12
3.79326e-12
3.79309e-12
3.79292e-12
3.80288e-12
3.79586e-12
3.79502e-12
3.79476e-12
3.79455e-12
3.79434e-12
3.79413e-12
3.79392e-12
3.79373e-12
3.79354e-12
3.79337e-12
3.7932e-12
3.79305e-12
3.79289e-12
3.80266e-12
3.7958e-12
3.79498e-12
3.79472e-12
3.7945e-12
3.79428e-12
3.79407e-12
3.79387e-12
3.79367e-12
3.79349e-12
3.79332e-12
3.79316e-12
3.79301e-12
3.79286e-12
3.79954e-12
3.79548e-12
3.79492e-12
3.79467e-12
3.79445e-12
3.79423e-12
3.79402e-12
3.79382e-12
3.79362e-12
3.79344e-12
3.79327e-12
3.79312e-12
3.79297e-12
3.79283e-12
3.79704e-12
3.79523e-12
3.79487e-12
3.79463e-12
3.79441e-12
3.79419e-12
3.79398e-12
3.79378e-12
3.79358e-12
3.7934e-12
3.79324e-12
3.79308e-12
3.79294e-12
3.7928e-12
3.79586e-12
3.79511e-12
3.79483e-12
3.7946e-12
3.79437e-12
3.79415e-12
3.79394e-12
3.79375e-12
3.79356e-12
3.79338e-12
3.79322e-12
3.79306e-12
3.79292e-12
3.79278e-12
3.79544e-12
3.79505e-12
3.7948e-12
3.79457e-12
3.79434e-12
3.79413e-12
3.79392e-12
3.79373e-12
3.79354e-12
3.79337e-12
3.7932e-12
3.79305e-12
3.7929e-12
3.79276e-12
3.7953e-12
3.79502e-12
3.79478e-12
3.79455e-12
3.79433e-12
3.79412e-12
3.79391e-12
3.79372e-12
3.79354e-12
3.79337e-12
3.7932e-12
3.79305e-12
3.7929e-12
3.79275e-12
3.79524e-12
3.79499e-12
3.79476e-12
3.79454e-12
3.79432e-12
3.79411e-12
3.79392e-12
3.79373e-12
3.79355e-12
3.79338e-12
3.79322e-12
3.79306e-12
3.7929e-12
3.79275e-12
3.7952e-12
3.79497e-12
3.79475e-12
3.79453e-12
3.79432e-12
3.79412e-12
3.79393e-12
3.79375e-12
3.79357e-12
3.7934e-12
3.79323e-12
3.79307e-12
3.79291e-12
3.79275e-12
3.79516e-12
3.79495e-12
3.79474e-12
3.79454e-12
3.79434e-12
3.79414e-12
3.79395e-12
3.79377e-12
3.7936e-12
3.79343e-12
3.79326e-12
3.79309e-12
3.79292e-12
3.79275e-12
3.79515e-12
3.79493e-12
3.79475e-12
3.79456e-12
3.79437e-12
3.79417e-12
3.79398e-12
3.79379e-12
3.79362e-12
3.79344e-12
3.79328e-12
3.79311e-12
3.79295e-12
3.79276e-12
3.78958e-12
3.78943e-12
3.78931e-12
3.78919e-12
3.78907e-12
3.78895e-12
3.78882e-12
3.7887e-12
3.7886e-12
3.7885e-12
3.78838e-12
3.78824e-12
3.78811e-12
3.788e-12
3.78961e-12
3.78945e-12
3.78932e-12
3.78919e-12
3.78906e-12
3.78893e-12
3.7888e-12
3.78868e-12
3.78856e-12
3.78844e-12
3.78832e-12
3.7882e-12
3.78809e-12
3.78798e-12
3.78969e-12
3.78946e-12
3.78932e-12
3.78918e-12
3.78905e-12
3.78892e-12
3.78879e-12
3.78866e-12
3.78854e-12
3.78842e-12
3.7883e-12
3.78819e-12
3.78809e-12
3.78797e-12
3.78976e-12
3.78946e-12
3.78932e-12
3.78918e-12
3.78905e-12
3.78891e-12
3.78878e-12
3.78865e-12
3.78853e-12
3.78841e-12
3.7883e-12