/*--------------------------------*- C++ -*----------------------------------*\
| =========                 |                                                 |
| \\      /  F ield         | OpenFOAM: The Open Source CFD Toolbox           |
|  \\    /   O peration     | Version:  v2106                                 |
|   \\  /    A nd           | Website:  www.openfoam.com                      |
|    \\/     M anipulation  |                                                 |
\*---------------------------------------------------------------------------*/
FoamFile
{
    version     2.0;
    format      ascii;
    arch        "LSB;label=32;scalar=64";
    class       volScalarField;
    location    "0.000119";
    object      Ttot;
}
// * * * * * * * * * * * * * * * * * * * * * * * * * * * * * * * * * * * * * //

dimensions      [0 0 0 1 0 0 0];

internalField   nonuniform List<scalar> 
18109
(
305.873
305.798
305.787
305.704
305.634
305.559
305.493
305.869
305.812
305.788
305.724
305.672
305.616
305.571
305.869
305.83
305.81
305.761
305.723
305.683
305.656
305.922
305.888
305.866
305.825
305.794
305.765
305.749
306.012
305.98
305.952
305.915
305.887
305.863
305.855
306.146
306.105
306.067
306.028
305.999
305.978
305.974
306.312
306.257
306.208
306.165
306.132
306.112
306.111
306.507
306.434
306.373
306.324
306.286
306.266
306.266
305.907
305.828
305.806
305.733
305.672
305.61
305.559
305.524
305.513
305.524
305.558
305.614
305.688
305.758
305.927
305.86
305.825
305.764
305.716
305.669
305.634
305.618
305.627
305.651
305.7
305.767
305.835
305.899
305.941
305.887
305.858
305.808
305.772
305.736
305.715
305.712
305.73
305.762
305.814
305.876
305.943
306.021
306.006
305.955
305.922
305.879
305.848
305.82
305.808
305.82
305.844
305.885
305.939
305.999
306.059
306.125
306.101
306.052
306.014
305.973
305.944
305.922
305.917
305.933
305.962
306.005
306.057
306.109
306.163
306.226
306.23
306.178
306.132
306.091
306.062
306.043
306.042
306.061
306.092
306.136
306.184
306.23
306.274
306.315
306.382
306.324
306.273
306.232
306.201
306.184
306.184
306.202
306.232
306.272
306.314
306.351
306.385
306.414
306.553
306.488
306.431
306.389
306.357
306.341
306.341
306.357
306.385
306.42
306.455
306.483
306.505
306.517
306.729
306.66
306.603
306.562
306.531
306.516
306.516
306.529
306.553
306.581
306.607
306.624
306.635
306.63
306.915
306.842
306.779
306.738
306.709
306.696
306.697
306.711
306.733
306.755
306.774
306.778
306.78
306.756
307.087
307.022
306.959
306.919
306.892
306.882
306.886
306.903
306.924
306.94
306.95
306.945
306.938
306.893
307.25
307.197
307.138
307.101
307.076
307.07
307.08
307.102
307.122
307.13
307.135
307.121
307.104
307.037
307.379
307.351
307.3
307.273
307.255
307.258
307.276
307.299
307.315
307.318
307.317
307.295
307.271
307.186
307.532
307.503
307.454
307.441
307.43
307.439
307.461
307.486
307.499
307.499
307.495
307.467
307.435
307.354
305.989
306.059
306.178
306.296
306.462
306.627
305.998
306.056
306.15
306.248
306.383
306.527
305.871
305.958
306.07
306.213
306.393
306.58
305.847
305.932
306.039
306.172
306.337
306.506
305.734
305.79
305.877
305.988
306.122
306.241
305.651
305.675
305.718
305.777
305.847
305.856
305.562
305.541
305.534
305.525
305.506
305.372
305.489
305.418
305.354
305.27
305.157
304.893
305.426
305.31
305.197
305.048
304.871
304.524
305.396
305.251
305.103
304.91
304.692
304.31
305.406
305.242
305.083
304.88
304.643
304.307
305.448
305.289
305.141
304.942
304.746
304.505
305.51
305.366
305.248
305.093
304.971
304.82
305.604
305.484
305.41
305.296
305.241
305.17
305.635
305.586
305.548
305.516
305.533
305.534
305.856
305.817
305.849
305.845
305.888
305.927
305.958
305.97
306.013
306.058
306.14
306.237
306.087
306.119
306.183
306.256
306.37
306.501
306.182
306.227
306.304
306.392
306.518
306.656
306.28
306.323
306.397
306.484
306.605
306.728
306.359
306.395
306.453
306.52
306.607
306.701
306.445
306.464
306.506
306.554
306.615
306.687
306.537
306.545
306.567
306.592
306.623
306.634
306.643
306.638
306.645
306.652
306.671
306.643
306.762
306.749
306.747
306.743
306.76
306.733
306.896
306.881
306.876
306.867
306.882
306.868
307.044
307.035
307.04
307.04
307.061
307.073
307.202
307.206
307.226
307.24
307.285
307.317
307.348
307.377
307.403
307.444
307.497
307.553
307.49
307.544
307.623
307.681
307.76
307.836
307.555
307.646
307.737
307.825
307.931
308.043
307.617
307.738
307.858
307.971
308.099
308.233
307.663
307.802
307.948
308.072
308.205
308.341
307.679
307.842
307.992
308.125
308.247
308.353
307.681
307.849
308.004
308.137
308.249
308.346
307.669
307.836
307.986
308.113
308.207
308.279
307.64
307.799
307.94
308.063
308.152
308.207
307.606
307.754
307.885
308.003
308.106
308.169
307.58
307.713
307.835
307.946
308.067
308.165
307.576
307.694
307.808
307.92
308.048
308.168
307.578
307.691
307.798
307.914
308.045
308.189
307.623
307.728
307.839
307.954
308.091
308.246
307.618
307.737
307.849
307.99
308.135
308.314
305.927
305.873
305.831
305.735
305.662
305.52
305.872
305.836
305.825
305.765
305.756
305.711
305.894
305.88
305.911
305.906
305.974
306.024
305.864
305.901
305.967
306.045
306.158
306.282
307.68
307.808
307.921
308.066
308.222
308.405
307.476
307.627
307.783
307.963
308.161
308.375
307.367
307.549
307.711
307.893
308.078
308.268
307.192
307.36
307.515
307.674
307.821
307.948
307.018
307.171
307.31
307.437
307.545
307.572
306.825
306.953
307.058
307.146
307.196
307.106
306.636
306.721
306.792
306.829
306.812
306.631
306.446
306.488
306.525
306.516
306.447
306.219
306.276
306.285
306.293
306.249
306.15
305.974
306.134
306.122
306.113
306.047
305.949
305.787
306.035
306.016
306.003
305.941
305.911
305.829
305.964
305.958
305.964
305.93
305.941
305.921
305.966
305.965
306.005
306.012
306.08
306.128
305.918
305.958
306.023
306.096
306.199
306.299
306.886
307.498
308.295
309.213
310.259
307.009
307.728
308.588
309.501
310.546
306.864
307.445
308.148
308.884
309.704
306.409
306.586
306.656
306.554
306.488
305.698
305.282
304.29
303.251
301.841
304.822
303.631
301.857
300.135
298.632
304.142
302.536
300.442
298.795
298.16
303.786
302.05
299.928
298.571
299.078
300.328
303.621
302.061
300.23
299.046
300.608
302.998
303.733
302.706
301.417
300.308
301.19
303.63
304.174
303.617
302.952
302.263
302.593
304.388
306.667
304.652
304.407
304.174
304.041
304.428
305.535
306.398
305.31
305.154
305.165
305.231
305.434
306.001
306.698
305.618
308.573
305.623
305.755
306.009
306.383
306.875
307.209
307.379
306.093
306.081
306.358
306.805
307.358
307.986
308.569
308.814
308.95
306.478
306.869
307.436
308.035
308.668
309.237
309.337
309.353
306.781
307.22
307.816
308.476
309.287
310.08
310.673
310.934
306.931
307.354
307.95
308.625
309.3
310.204
311.513
311.768
306.932
307.186
307.525
307.744
308.172
308.755
309.441
307.762
306.813
306.87
306.696
306.354
306.282
306.795
307.617
307.09
306.672
306.445
305.835
305.16
304.875
305.774
307.459
308.074
306.523
306.252
305.505
304.928
304.998
306.091
307.626
308.127
306.492
306.185
305.399
305.03
305.773
307.164
306.645
306.363
305.804
305.392
306.064
307.839
306.881
306.719
306.465
306.112
306.199
307.106
307.139
307.14
307.071
306.905
306.819
307.002
307.438
307.57
307.7
307.764
307.873
307.733
307.722
307.958
308.223
308.376
308.408
308.046
308.368
308.788
309.171
309.538
308.299
308.706
309.228
309.741
310.232
308.516
308.963
309.531
310.13
310.85
308.592
308.976
309.484
310.059
310.703
308.504
308.671
308.927
309.072
309.429
308.404
308.323
308.019
307.685
307.51
308.247
307.97
307.354
306.64
306.34
308.161
307.876
307.113
306.493
306.652
308.17
307.912
307.254
306.911
307.716
308.266
308.1
307.829
307.656
308.451
308.332
308.441
308.498
308.575
309.015
308.453
308.789
309.11
309.411
309.795
308.578
309.104
309.69
310.25
310.871
308.692
309.304
309.994
310.626
311.096
308.822
309.555
310.378
311.172
311.974
308.825
309.589
310.464
311.361
312.325
308.616
309.2
309.879
310.556
311.387
308.083
308.264
308.27
308.247
308.166
307.39
306.933
306.009
305.007
303.641
306.61
305.465
303.774
302.15
300.748
306.008
304.52
302.549
301.012
300.437
305.634
304.083
302.112
300.883
301.416
305.384
304.137
302.495
301.433
303.058
305.407
304.713
303.71
302.872
303.942
305.709
305.443
305.127
304.912
305.665
305.973
306.071
306.234
306.6
307.495
306.323
306.687
307.233
307.973
309.027
306.582
307.092
307.794
308.601
309.43
305.932
305.855
305.825
305.762
305.713
305.669
305.639
305.622
305.625
305.642
305.671
305.708
305.753
305.793
305.985
305.911
305.875
305.821
305.781
305.746
305.724
305.718
305.73
305.753
305.789
305.833
305.874
305.906
306.02
305.962
305.931
305.886
305.855
305.828
305.813
305.814
305.83
305.854
305.889
305.928
305.968
306.01
306.095
306.042
306.009
305.971
305.945
305.925
305.915
305.923
305.939
305.965
305.999
306.036
306.07
306.103
306.187
306.139
306.104
306.071
306.047
306.03
306.024
306.034
306.051
306.076
306.107
306.137
306.166
306.195
306.302
306.255
306.217
306.187
306.164
306.15
306.147
306.158
306.175
306.2
306.226
306.249
306.266
306.281
306.43
306.385
306.346
306.318
306.297
306.284
306.281
306.292
306.308
306.329
306.35
306.365
306.374
306.376
306.572
306.528
306.489
306.463
306.441
306.431
306.429
306.438
306.452
306.469
306.483
306.489
306.49
306.477
306.716
306.677
306.641
306.618
306.599
306.59
306.589
306.597
306.607
306.617
306.624
306.62
306.61
306.583
306.863
306.829
306.795
306.774
306.757
306.752
306.753
306.762
306.769
306.772
306.772
306.758
306.738
306.695
306.998
306.975
306.946
306.929
306.917
306.916
306.922
306.93
306.933
306.93
306.923
306.898
306.869
306.813
307.128
307.116
307.09
307.078
307.072
307.077
307.088
307.095
307.096
307.086
307.071
307.038
307.003
306.933
307.238
307.24
307.218
307.217
307.219
307.232
307.245
307.25
307.246
307.231
307.21
307.171
307.132
307.05
307.364
307.366
307.344
307.351
307.359
307.374
307.386
307.389
307.383
307.366
307.34
307.295
307.252
307.171
305.95
305.893
305.864
305.818
305.781
305.748
305.722
305.703
305.693
305.688
305.689
305.695
305.703
305.699
306.017
305.96
305.93
305.889
305.857
305.828
305.806
305.791
305.783
305.781
305.786
305.795
305.802
305.796
306.063
306.02
305.995
305.96
305.933
305.908
305.889
305.878
305.873
305.872
305.875
305.879
305.883
305.884
306.136
306.098
306.073
306.043
306.018
305.998
305.983
305.974
305.969
305.968
305.97
305.973
305.971
305.968
306.218
306.184
306.159
306.132
306.11
306.092
306.079
306.072
306.068
306.066
306.065
306.063
306.057
306.048
306.313
306.283
306.258
306.234
306.213
306.198
306.186
306.181
306.176
306.173
306.168
306.159
306.148
306.132
306.412
306.389
306.366
306.345
306.326
306.312
306.301
306.296
306.288
306.282
306.273
306.257
306.238
306.212
306.516
306.5
306.48
306.462
306.446
306.433
306.424
306.417
306.408
306.398
306.383
306.36
306.334
306.297
306.617
306.611
306.596
306.583
306.57
306.56
306.551
306.543
306.53
306.515
306.493
306.461
306.428
306.382
306.718
306.717
306.707
306.7
306.691
306.684
306.675
306.665
306.649
306.627
306.599
306.56
306.52
306.466
306.811
306.817
306.811
306.81
306.807
306.803
306.793
306.781
306.759
306.732
306.698
306.654
306.61
306.549
306.901
306.911
306.907
306.91
306.911
306.908
306.898
306.883
306.859
306.827
306.789
306.742
306.695
306.63
306.981
306.998
306.995
307.002
307.004
307.001
306.991
306.973
306.945
306.91
306.869
306.819
306.771
306.7
307.074
307.086
307.08
307.085
307.084
307.079
307.068
307.049
307.02
306.983
306.94
306.887
306.838
306.768
305.989
305.948
305.921
305.885
305.851
305.818
305.787
305.756
305.73
305.705
305.682
305.659
305.639
305.612
306.052
306.01
305.985
305.949
305.918
305.886
305.857
305.829
305.804
305.78
305.759
305.739
305.718
305.695
306.097
306.067
306.045
306.013
305.984
305.955
305.928
305.903
305.88
305.857
305.833
305.808
305.784
305.762
306.155
306.132
306.111
306.084
306.057
306.031
306.007
305.983
305.959
305.934
305.908
305.883
305.856
305.83
306.214
306.198
306.179
306.156
306.133
306.109
306.086
306.063
306.037
306.012
305.983
305.954
305.924
305.895
306.276
306.266
306.251
306.233
306.212
306.191
306.169
306.145
306.118
306.09
306.059
306.027
305.994
305.961
306.334
306.331
306.322
306.308
306.289
306.271
306.248
306.225
306.196
306.167
306.133
306.098
306.062
306.024
306.392
306.395
306.39
306.38
306.365
306.349
306.327
306.304
306.274
306.243
306.206
306.168
306.128
306.086
306.446
306.454
306.453
306.448
306.437
306.422
306.401
306.377
306.345
306.312
306.272
306.231
306.189
306.141
306.498
306.509
306.511
306.509
306.5
306.486
306.466
306.441
306.409
306.373
306.332
306.288
306.245
306.194
306.548
306.56
306.563
306.563
306.555
306.542
306.522
306.496
306.463
306.425
306.383
306.338
306.294
306.242
306.597
306.609
306.61
306.608
306.6
306.588
306.568
306.541
306.507
306.468
306.425
306.38
306.336
306.284
306.643
306.656
306.655
306.651
306.641
306.626
306.604
306.575
306.54
306.5
306.457
306.412
306.368
306.315
306.7
306.702
306.692
306.686
306.673
306.654
306.63
306.6
306.564
306.524
306.481
306.435
306.393
306.341
305.853
305.828
305.808
305.779
305.751
305.721
305.69
305.658
305.627
305.594
305.561
305.526
305.495
305.46
305.887
305.865
305.848
305.822
305.796
305.767
305.738
305.707
305.675
305.642
305.608
305.575
305.542
305.512
305.914
305.901
305.886
305.862
305.838
305.811
305.783
305.753
305.721
305.687
305.653
305.617
305.583
305.551
305.946
305.937
305.923
305.903
305.881
305.855
305.827
305.797
305.764
305.73
305.694
305.658
305.623
305.59
305.976
305.97
305.958
305.941
305.92
305.895
305.868
305.837
305.804
305.77
305.733
305.696
305.66
305.625
306.006
306.002
305.991
305.976
305.956
305.933
305.906
305.876
305.842
305.807
305.769
305.732
305.694
305.659
306.034
306.031
306.021
306.008
305.989
305.967
305.94
305.91
305.876
305.84
305.802
305.765
305.727
305.69
306.062
306.059
306.05
306.037
306.019
305.998
305.971
305.941
305.906
305.87
305.831
305.793
305.756
305.719
306.089
306.085
306.076
306.064
306.047
306.025
305.998
305.967
305.932
305.895
305.857
305.819
305.781
305.742
306.116
306.111
306.102
306.089
306.071
306.048
306.02
305.989
305.954
305.917
305.878
305.84
305.803
305.765
306.143
306.137
306.126
306.111
306.091
306.067
306.038
306.006
305.971
305.934
305.896
305.858
305.822
305.784
306.171
306.163
306.148
306.129
306.107
306.082
306.052
306.02
305.984
305.947
305.91
305.873
305.838
305.8
306.198
306.189
306.171
306.15
306.124
306.095
306.063
306.029
305.994
305.957
305.921
305.885
305.851
305.815
306.23
306.213
306.189
306.164
306.136
306.104
306.072
306.037
306.002
305.966
305.93
305.895
305.863
305.828
305.599
305.582
305.566
305.543
305.519
305.492
305.464
305.433
305.402
305.369
305.336
305.303
305.274
305.242
305.614
305.601
305.586
305.565
305.542
305.516
305.488
305.457
305.425
305.392
305.359
305.327
305.296
305.269
305.624
305.615
305.601
305.582
305.561
305.536
305.509
305.479
305.447
305.414
305.381
305.349
305.318
305.29
305.634
305.628
305.616
305.599
305.579
305.555
305.528
305.498
305.467
305.434
305.401
305.369
305.339
305.311
305.643
305.638
305.627
305.613
305.594
305.571
305.544
305.515
305.484
305.452
305.419
305.388
305.358
305.33
305.652
305.648
305.638
305.624
305.606
305.584
305.559
305.53
305.5
305.468
305.436
305.405
305.375
305.348
305.661
305.656
305.646
305.633
305.616
305.595
305.57
305.542
305.512
305.481
305.45
305.419
305.39
305.363
305.671
305.665
305.654
305.641
305.624
305.603
305.579
305.552
305.522
305.492
305.461
305.431
305.403
305.377
305.682
305.674
305.661
305.648
305.629
305.608
305.584
305.557
305.529
305.499
305.469
305.44
305.413
305.387
305.692
305.682
305.669
305.653
305.634
305.613
305.588
305.561
305.533
305.504
305.475
305.447
305.421
305.395
305.703
305.691
305.676
305.659
305.638
305.615
305.589
305.562
305.535
305.507
305.479
305.452
305.426
305.402
305.715
305.7
305.683
305.662
305.64
305.615
305.59
305.563
305.535
305.508
305.481
305.455
305.43
305.406
305.727
305.709
305.69
305.667
305.643
305.616
305.589
305.561
305.534
305.507
305.481
305.456
305.433
305.41
305.739
305.715
305.69
305.665
305.64
305.614
305.587
305.56
305.534
305.508
305.483
305.458
305.436
305.412
305.229
305.218
305.205
305.189
305.172
305.152
305.13
305.107
305.083
305.058
305.034
305.009
304.987
304.963
305.233
305.223
305.211
305.196
305.179
305.159
305.137
305.114
305.09
305.065
305.041
305.017
304.994
304.974
305.234
305.224
305.213
305.199
305.182
305.163
305.142
305.12
305.096
305.072
305.049
305.025
305.003
304.982
305.236
305.227
305.215
305.201
305.185
305.166
305.146
305.124
305.101
305.078
305.054
305.032
305.01
304.991
305.237
305.228
305.216
305.202
305.186
305.168
305.148
305.127
305.104
305.081
305.059
305.037
305.016
304.996
305.239
305.229
305.217
305.203
305.187
305.169
305.149
305.128
305.106
305.084
305.062
305.041
305.02
305.001
305.24
305.23
305.217
305.202
305.186
305.168
305.148
305.127
305.106
305.084
305.063
305.043
305.023
305.004
305.243
305.231
305.217
305.202
305.185
305.167
305.147
305.126
305.105
305.084
305.063
305.043
305.024
305.006
305.245
305.232
305.217
305.201
305.183
305.164
305.145
305.124
305.104
305.083
305.063
305.043
305.025
305.008
305.248
305.233
305.217
305.2
305.181
305.162
305.142
305.122
305.101
305.081
305.062
305.043
305.025
305.008
305.251
305.234
305.217
305.199
305.18
305.159
305.139
305.119
305.099
305.079
305.06
305.042
305.025
305.009
305.254
305.236
305.217
305.197
305.177
305.157
305.137
305.117
305.097
305.078
305.059
305.042
305.025
305.009
305.257
305.237
305.218
305.197
305.177
305.155
305.135
305.114
305.095
305.076
305.058
305.041
305.026
305.01
305.258
305.235
305.214
305.193
305.173
305.152
305.133
305.113
305.095
305.076
305.059
305.042
305.027
305.01
304.83
304.821
304.811
304.801
304.789
304.776
304.763
304.748
304.733
304.718
304.702
304.686
304.672
304.657
304.83
304.822
304.813
304.802
304.79
304.777
304.763
304.748
304.733
304.718
304.703
304.688
304.673
304.659
304.83
304.821
304.811
304.8
304.789
304.776
304.763
304.748
304.734
304.719
304.704
304.69
304.676
304.662
304.83
304.821
304.811
304.8
304.788
304.775
304.762
304.748
304.734
304.719
304.705
304.691
304.677
304.664
304.83
304.82
304.809
304.798
304.787
304.774
304.761
304.747
304.733
304.719
304.705
304.691
304.678
304.664
304.83
304.819
304.809
304.797
304.785
304.772
304.759
304.745
304.732
304.718
304.704
304.691
304.678
304.665
304.83
304.819
304.807
304.795
304.783
304.77
304.757
304.744
304.73
304.717
304.703
304.69
304.677
304.664
304.83
304.818
304.806
304.794
304.781
304.768
304.755
304.742
304.728
304.715
304.702
304.689
304.676
304.664
304.83
304.817
304.805
304.792
304.779
304.766
304.753
304.739
304.726
304.713
304.7
304.688
304.675
304.663
304.83
304.817
304.803
304.79
304.777
304.763
304.75
304.737
304.724
304.712
304.699
304.686
304.674
304.662
304.829
304.815
304.802
304.788
304.775
304.761
304.748
304.735
304.723
304.71
304.698
304.685
304.673
304.661
304.829
304.814
304.8
304.786
304.773
304.759
304.746
304.734
304.721
304.709
304.697
304.685
304.673
304.661
304.827
304.813
304.799
304.785
304.771
304.758
304.745
304.732
304.72
304.708
304.696
304.684
304.672
304.661
304.826
304.81
304.796
304.782
304.77
304.756
304.744
304.732
304.72
304.709
304.697
304.685
304.674
304.661
304.459
304.451
304.444
304.436
304.428
304.42
304.411
304.402
304.393
304.384
304.375
304.366
304.358
304.349
304.459
304.452
304.444
304.436
304.428
304.419
304.411
304.402
304.393
304.384
304.375
304.366
304.357
304.349
304.459
304.451
304.443
304.435
304.427
304.418
304.41
304.401
304.392
304.383
304.374
304.366
304.357
304.349
304.46
304.451
304.443
304.435
304.427
304.418
304.409
304.4
304.392
304.383
304.374
304.366
304.357
304.349
304.46
304.451
304.443
304.435
304.426
304.417
304.409
304.4
304.391
304.382
304.374
304.365
304.357
304.348
304.46
304.451
304.443
304.434
304.426
304.417
304.408
304.4
304.391
304.382
304.373
304.365
304.357
304.348
304.461
304.452
304.443
304.434
304.425
304.417
304.408
304.399
304.391
304.382
304.373
304.365
304.356
304.348
304.461
304.451
304.443
304.434
304.425
304.416
304.408
304.399
304.39
304.382
304.373
304.364
304.356
304.347
304.46
304.451
304.442
304.433
304.425
304.416
304.407
304.399
304.39
304.381
304.373
304.364
304.356
304.347
304.46
304.451
304.442
304.433
304.424
304.416
304.407
304.399
304.39
304.382
304.373
304.364
304.355
304.347
304.459
304.45
304.441
304.432
304.424
304.415
304.407
304.399
304.39
304.382
304.373
304.364
304.355
304.347
304.458
304.449
304.44
304.431
304.423
304.415
304.407
304.399
304.39
304.382
304.373
304.364
304.356
304.347
304.456
304.447
304.439
304.431
304.423
304.415
304.407
304.399
304.391
304.382
304.373
304.364
304.356
304.347
304.455
304.446
304.438
304.43
304.422
304.414
304.407
304.399
304.391
304.383
304.375
304.366
304.357
304.348
304.133
304.127
304.121
304.115
304.11
304.104
304.099
304.093
304.088
304.082
304.077
304.072
304.067
304.061
304.134
304.128
304.122
304.116
304.11
304.105
304.099
304.093
304.087
304.082
304.076
304.071
304.066
304.06
304.134
304.128
304.122
304.116
304.11
304.105
304.099
304.093
304.087
304.082
304.076
304.071
304.066
304.06
304.135
304.129
304.123
304.117
304.111
304.105
304.099
304.093
304.088
304.082
304.077
304.071
304.066
304.06
304.136
304.13
304.124
304.117
304.112
304.106
304.1
304.094
304.088
304.083
304.077
304.072
304.066
304.061
304.137
304.131
304.125
304.118
304.113
304.107
304.101
304.095
304.089
304.083
304.078
304.072
304.067
304.061
304.138
304.131
304.125
304.119
304.114
304.108
304.102
304.096
304.09
304.084
304.078
304.073
304.067
304.062
304.138
304.132
304.126
304.12
304.115
304.109
304.103
304.097
304.091
304.085
304.079
304.074
304.068
304.062
304.138
304.132
304.127
304.121
304.116
304.11
304.104
304.098
304.093
304.086
304.08
304.074
304.069
304.063
304.138
304.133
304.127
304.122
304.116
304.111
304.105
304.1
304.094
304.088
304.082
304.075
304.07
304.064
304.138
304.133
304.127
304.122
304.117
304.112
304.106
304.101
304.095
304.089
304.082
304.076
304.07
304.064
304.138
304.132
304.128
304.123
304.118
304.113
304.107
304.102
304.096
304.09
304.083
304.077
304.071
304.064
304.137
304.132
304.128
304.123
304.118
304.113
304.108
304.102
304.096
304.09
304.084
304.077
304.071
304.065
304.137
304.132
304.128
304.123
304.118
304.113
304.108
304.103
304.097
304.091
304.085
304.078
304.072
304.066
303.846
303.842
303.838
303.834
303.831
303.827
303.823
303.819
303.816
303.812
303.808
303.805
303.801
303.797
303.847
303.843
303.839
303.835
303.831
303.827
303.824
303.82
303.816
303.812
303.808
303.804
303.801
303.797
303.848
303.844
303.84
303.836
303.832
303.828
303.824
303.82
303.816
303.813
303.809
303.805
303.801
303.797
303.85
303.846
303.842
303.838
303.834
303.829
303.825
303.821
303.817
303.813
303.809
303.805
303.801
303.797
303.851
303.847
303.843
303.839
303.835
303.831
303.827
303.822
303.818
303.814
303.81
303.806
303.802
303.798
303.852
303.848
303.844
303.84
303.836
303.832
303.828
303.824
303.82
303.815
303.811
303.807
303.803
303.799
303.853
303.849
303.845
303.842
303.838
303.834
303.829
303.825
303.821
303.817
303.812
303.808
303.804
303.801
303.853
303.85
303.846
303.843
303.839
303.835
303.831
303.826
303.822
303.818
303.814
303.81
303.806
303.802
303.853
303.85
303.847
303.844
303.84
303.836
303.832
303.828
303.823
303.819
303.815
303.811
303.807
303.803
303.854
303.851
303.848
303.844
303.841
303.837
303.833
303.829
303.824
303.82
303.816
303.812
303.808
303.804
303.854
303.851
303.848
303.845
303.842
303.838
303.834
303.83
303.825
303.821
303.817
303.812
303.809
303.805
303.855
303.852
303.849
303.846
303.843
303.839
303.835
303.831
303.826
303.822
303.817
303.813
303.809
303.805
303.855
303.853
303.85
303.847
303.843
303.84
303.836
303.831
303.827
303.822
303.818
303.813
303.809
303.805
303.856
303.853
303.85
303.847
303.844
303.84
303.836
303.832
303.827
303.822
303.818
303.814
303.81
303.806
303.588
303.585
303.583
303.58
303.578
303.576
303.573
303.57
303.568
303.565
303.562
303.56
303.556
303.553
303.589
303.587
303.585
303.582
303.58
303.577
303.574
303.572
303.569
303.566
303.563
303.56
303.556
303.553
303.591
303.588
303.586
303.584
303.581
303.578
303.576
303.573
303.57
303.567
303.564
303.561
303.557
303.554
303.592
303.59
303.588
303.585
303.583
303.58
303.577
303.574
303.571
303.568
303.565
303.561
303.558
303.555
303.593
303.591
303.589
303.586
303.584
303.581
303.578
303.575
303.572
303.569
303.566
303.563
303.559
303.556
303.594
303.592
303.59
303.587
303.585
303.582
303.579
303.576
303.573
303.57
303.567
303.564
303.561
303.557
303.594
303.592
303.591
303.588
303.586
303.583
303.58
303.577
303.574
303.571
303.568
303.565
303.562
303.559
303.594
303.593
303.591
303.589
303.586
303.584
303.581
303.578
303.574
303.571
303.568
303.566
303.563
303.56
303.595
303.593
303.592
303.589
303.587
303.584
303.581
303.578
303.575
303.572
303.569
303.566
303.564
303.561
303.595
303.594
303.592
303.59
303.587
303.585
303.581
303.578
303.575
303.572
303.569
303.567
303.564
303.561
303.596
303.594
303.593
303.59
303.588
303.585
303.582
303.579
303.576
303.572
303.57
303.567
303.564
303.562
303.597
303.595
303.593
303.591
303.588
303.585
303.582
303.579
303.576
303.573
303.57
303.567
303.564
303.562
303.597
303.596
303.594
303.592
303.589
303.586
303.582
303.579
303.576
303.572
303.569
303.567
303.564
303.562
303.599
303.597
303.594
303.592
303.589
303.586
303.582
303.579
303.576
303.572
303.57
303.567
303.564
303.562
303.349
303.348
303.346
303.345
303.344
303.342
303.34
303.339
303.337
303.334
303.332
303.329
303.326
303.323
303.351
303.349
303.348
303.347
303.345
303.344
303.342
303.34
303.338
303.336
303.333
303.33
303.327
303.324
303.352
303.351
303.35
303.348
303.347
303.345
303.343
303.341
303.339
303.337
303.334
303.331
303.328
303.326
303.353
303.352
303.351
303.35
303.348
303.346
303.345
303.343
303.34
303.338
303.335
303.333
303.33
303.327
303.353
303.352
303.352
303.35
303.349
303.347
303.345
303.343
303.341
303.339
303.336
303.334
303.331
303.328
303.354
303.353
303.352
303.351
303.35
303.348
303.346
303.344
303.342
303.339
303.337
303.335
303.332
303.329
303.354
303.353
303.353
303.351
303.35
303.348
303.346
303.344
303.342
303.34
303.338
303.335
303.333
303.33
303.354
303.354
303.353
303.352
303.35
303.348
303.346
303.344
303.342
303.34
303.338
303.336
303.334
303.331
303.355
303.354
303.353
303.352
303.35
303.348
303.346
303.344
303.342
303.34
303.338
303.336
303.334
303.331
303.355
303.354
303.353
303.352
303.35
303.348
303.346
303.344
303.342
303.34
303.338
303.336
303.334
303.331
303.356
303.355
303.354
303.352
303.35
303.348
303.346
303.344
303.342
303.339
303.338
303.336
303.334
303.331
303.356
303.355
303.354
303.352
303.35
303.348
303.346
303.343
303.341
303.339
303.337
303.335
303.333
303.331
303.357
303.356
303.354
303.352
303.35
303.348
303.345
303.343
303.341
303.339
303.337
303.335
303.333
303.331
303.357
303.356
303.354
303.352
303.35
303.347
303.345
303.343
303.34
303.338
303.336
303.334
303.332
303.33
303.126
303.125
303.124
303.124
303.123
303.121
303.12
303.119
303.117
303.115
303.114
303.111
303.11
303.107
303.127
303.126
303.125
303.125
303.124
303.123
303.122
303.12
303.118
303.117
303.115
303.112
303.11
303.108
303.127
303.127
303.126
303.125
303.125
303.124
303.122
303.121
303.119
303.118
303.116
303.114
303.112
303.11
303.128
303.127
303.127
303.126
303.125
303.124
303.123
303.122
303.12
303.119
303.117
303.115
303.113
303.111
303.128
303.128
303.127
303.126
303.126
303.125
303.123
303.122
303.121
303.119
303.118
303.116
303.114
303.111
303.128
303.128
303.128
303.127
303.126
303.125
303.124
303.122
303.121
303.12
303.118
303.116
303.114
303.112
303.129
303.128
303.128
303.127
303.126
303.125
303.124
303.122
303.121
303.12
303.118
303.117
303.115
303.113
303.129
303.129
303.128
303.127
303.126
303.125
303.124
303.123
303.121
303.12
303.119
303.117
303.115
303.113
303.13
303.129
303.128
303.127
303.126
303.125
303.124
303.123
303.121
303.12
303.119
303.117
303.115
303.113
303.13
303.13
303.129
303.128
303.126
303.125
303.124
303.122
303.121
303.12
303.118
303.117
303.115
303.113
303.131
303.13
303.129
303.128
303.126
303.125
303.124
303.122
303.121
303.12
303.118
303.116
303.115
303.112
303.131
303.13
303.129
303.128
303.126
303.125
303.123
303.122
303.121
303.119
303.118
303.116
303.114
303.112
303.131
303.13
303.129
303.127
303.126
303.125
303.123
303.122
303.12
303.119
303.117
303.116
303.114
303.112
303.131
303.13
303.128
303.127
303.125
303.124
303.123
303.121
303.12
303.119
303.117
303.116
303.114
303.112
302.919
302.918
302.916
302.915
302.914
302.913
302.912
302.911
302.91
302.909
302.908
302.907
302.906
302.906
302.919
302.917
302.916
302.915
302.914
302.913
302.912
302.911
302.91
302.909
302.908
302.907
302.906
302.906
302.918
302.917
302.916
302.915
302.914
302.913
302.912
302.911
302.91
302.91
302.909
302.908
302.907
302.906
302.918
302.917
302.916
302.915
302.914
302.913
302.912
302.911
302.911
302.91
302.909
302.908
302.907
302.906
302.918
302.917
302.916
302.915
302.914
302.913
302.912
302.912
302.911
302.91
302.909
302.908
302.907
302.906
302.918
302.917
302.916
302.915
302.914
302.913
302.913
302.912
302.911
302.91
302.909
302.908
302.907
302.906
302.918
302.917
302.916
302.915
302.914
302.914
302.913
302.912
302.911
302.911
302.91
302.909
302.907
302.906
302.919
302.918
302.917
302.916
302.915
302.914
302.913
302.913
302.912
302.911
302.91
302.909
302.908
302.906
302.919
302.918
302.917
302.916
302.915
302.914
302.914
302.913
302.912
302.911
302.91
302.909
302.908
302.906
302.92
302.919
302.918
302.917
302.916
302.915
302.914
302.913
302.913
302.912
302.91
302.909
302.908
302.906
302.92
302.919
302.918
302.917
302.916
302.915
302.914
302.914
302.913
302.912
302.911
302.909
302.908
302.907
302.921
302.919
302.918
302.917
302.916
302.915
302.915
302.914
302.913
302.912
302.911
302.91
302.908
302.907
302.921
302.919
302.918
302.917
302.916
302.916
302.915
302.914
302.913
302.912
302.911
302.91
302.909
302.908
302.921
302.92
302.918
302.917
302.916
302.915
302.915
302.914
302.913
302.912
302.911
302.91
302.909
302.908
302.728
302.726