/*--------------------------------*- C++ -*----------------------------------*\
| =========                 |                                                 |
| \\      /  F ield         | OpenFOAM: The Open Source CFD Toolbox           |
|  \\    /   O peration     | Version:  v2106                                 |
|   \\  /    A nd           | Website:  www.openfoam.com                      |
|    \\/     M anipulation  |                                                 |
\*---------------------------------------------------------------------------*/
FoamFile
{
    version     2.0;
    format      ascii;
    arch        "LSB;label=32;scalar=64";
    class       volScalarField;
    location    "0.000165";
    object      p;
}
// * * * * * * * * * * * * * * * * * * * * * * * * * * * * * * * * * * * * * //

dimensions      [1 -1 -2 0 0 0 0];

internalField   nonuniform List<scalar> 
144746
(
199460
199433
198710
198562
198250
198065
197815
197602
197495
197524
197595
197701
198013
198620
198721
198771
198307
198204
198015
197908
197777
197660
197586
197562
197576
197721
198130
198533
198365
198324
198077
197997
197886
197809
197709
197615
197525
197486
197431
197457
197571
197863
197996
197914
197799
197763
197697
197678
197610
197571
197496
197434
197335
197304
197389
197674
197613
197583
197534
197538
197508
197492
197457
197393
197336
197239
197127
197029
197043
197257
197251
197213
197181
197211
197230
197240
197236
197192
197141
197038
196909
196774
196742
196866
197033
196996
196988
196972
196991
196990
196971
196943
196902
196791
196641
196473
196382
196425
196944
196825
196780
196693
196685
196679
196673
196646
196610
196503
196363
196225
196141
196169
196964
196716
196630
196484
196407
196345
196327
196302
196288
196184
196070
195973
195925
196049
197089
196680
196504
196229
196094
195974
195942
195907
195900
195839
195783
195749
195829
196100
197356
196737
196433
196022
195788
195570
195508
195460
195486
195492
195556
195651
195858
196170
197546
196818
196401
195891
195522
195195
195080
195029
195120
195197
195370
195605
196105
196407
198265
197371
196588
195882
195360
194959
194751
194682
194821
195032
195410
195811
196675
196926
198733
197313
196722
196062
195458
194928
194573
194524
194752
195179
195725
196258
197260
197783
198463
198410
197865
197760
197511
197278
197079
197040
197192
197359
197414
197320
197290
197473
198249
198334
198001
197869
197726
197581
197453
197402
197447
197505
197532
197462
197530
197385
198332
198283
198161
198047
197954
197835
197715
197593
197570
197547
197492
197304
197038
196800
198363
198286
198216
198135
198052
197996
197874
197819
197704
197628
197467
197231
196912
196678
198274
198225
198193
198154
198100
198046
197953
197863
197749
197609
197416
197130
196748
196425
198082
198030
198055
198054
198053
198019
197956
197871
197766
197609
197390
197049
196627
196254
198000
197939
197998
197980
198007
197975
197910
197833
197721
197541
197316
196959
196563
196201
198006
197922
197984
197916
197932
197895
197846
197752
197657
197479
197274
196950
196622
196311
198096
197974
197990
197892
197864
197806
197760
197658
197559
197397
197206
196990
196739
196519
198251
198025
198025
197906
197829
197710
197627
197511
197439
197313
197155
196981
196872
196755
198523
198165
198098
197928
197810
197653
197557
197417
197309
197187
197081
197001
197021
196964
198689
198262
198127
197900
197703
197504
197346
197194
197123
197053
197013
196995
197273
197162
199346
198709
198270
197908
197632
197360
197121
196938
196894
196913
197050
197139
197732
197564
199741
198595
198300
197949
197579
197209
196876
196683
196750
196937
197253
197477
198141
198263
199204
198942
198090
197726
197291
196924
196683
196729
197001
197258
197525
197550
197399
197057
199607
199457
198806
198361
198036
197785
197601
197525
197740
197805
197887
197801
197585
197030
199875
199728
199318
198896
198608
198328
198149
198087
198073
198007
197798
197434
196862
196176
199885
199784
199522
199217
199023
198830
198671
198528
198380
198143
197774
197256
196550
195806
199661
199639
199523
199345
199211
199048
198871
198725
198495
198201
197736
197100
196282
195385
199277
199469
199451
199391
199312
199149
199018
198844
198605
198269
197716
197002
196069
195036
198919
199202
199293
199353
199303
199192
199071
198854
198544
198180
197635
196951
195977
194895
198762
199091
199204
199264
199239
199138
199025
198821
198567
198202
197729
196992
196136
195178
198747
199020
199198
199299
199248
199078
198934
198733
198494
198180
197746
197235
196503
195706
198826
198961
199160
199170
199075
198890
198713
198529
198332
198079
197759
197339
196858
196196
199072
199045
199202
199151
198965
198623
198395
198206
198036
197854
197650
197417
197222
196653
199163
199103
199196
198974
198638
198273
198003
197790
197607
197471
197367
197250
197378
196934
199837
199518
199253
198840
198363
197809
197389
197097
196939
196894
196941
196924
197509
197065
200125
199299
199090
198620
197992
197312
196771
196384
196294
196421
196655
196744
197557
197624
199856
200711
201081
201827
201945
202578
198689
199520
200133
201166
201836
202752
198559
199655
200274
201394
201876
202920
198153
199132
199702
201076
201671
202878
197737
198797
199522
201104
201727
203143
197194
198082
198801
200559
201551
203246
196668
197642
198554
200360
201342
203248
196311
197201
198181
200104
201323
203148
196348
197257
198421
200251
201577
203159
196580
197514
198782
200459
201869
203220
196951
197930
199229
200789
202157
203475
197429
198443
199657
201116
202388
203591
198149
199153
200209
201554
202630
203704
198650
199704
200601
201867
202813
203680
198113
198670
198949
199536
199845
200488
196928
197344
197853
198820
199616
200790
196753
197307
197849
199086
199735
201579
196368
196776
197332
198972
199808
202225
196105
196649
197378
199138
199902
202837
195871
196303
196997
198873
199613
203767
195908
196314
196976
198767
199607
203401
196147
196448
197124
198947
199914
203402
196464
196885
197707
199360
200428
203376
196904
197335
198237
199707
200805
203217
197416
197883
198743
200047
201112
203021
197827
198309
199023
200225
201295
202723
198423
198851
199496
200576
201464
202597
198689
199184
199849
200907
201785
202735
198222
197961
197392
196581
195874
194337
196114
196152
196096
195631
195690
194121
195789
195769
195868
195699
196203
195058
195088
194727
194772
195086
195918
196330
194511
194159
194266
195376
196521
198598
193989
193455
193637
195600
197229
201210
193879
193398
193679
195932
197589
202946
194224
193816
194210
196470
198292
203514
194942
194693
195142
197019
198852
203475
195815
195768
196318
197677
199066
202436
196699
196785
197505
198467
199192
201234
197274
197490
198152
198815
199207
200302
197808
198089
198479
198882
199182
199610
197794
198001
198460
198973
199308
199618
199006
200409
200973
202014
202642
203599
197456
199021
200003
201413
202314
203901
197042
198655
199784
201282
202235
204172
196218
197657
199069
200592
202023
205203
195650
197165
198851
200727
202302
205143
194986
196284
198022
200348
201886
205793
194842
196033
197620
199933
201505
206571
194879
196087
197841
200447
202228
205552
195349
196632
198347
200805
202400
205079
195993
197317
198918
201202
202753
205131
196821
198121
199577
201536
203045
204716
197588
198806
200020
201797
203255
204859
198411
199676
200600
202128
203099
204332
199014
200058
200912
202324
203181
204262
199202
200079
200351
201419
201944
203213
197979
198971
199625
201162
201720
203778
197898
198936
199643
200991
201305
204539
197329
198111
198933
200441
201517
204127
196966
197828
198697
200305
200935
204230
196556
197197
198085
200178
200680
205002
196517
197100
197910
200040
200454
205336
196689
197200
198055
200081
200445
205922
197128
197686
198472
200463
200869
205051
197656
198268
198977
200794
201361
205006
198255
198947
199688
201247
202050
204070
198766
199472
200174
201608
202637
204494
199388
200186
200756
202013
202717
204089
199682
200415
201073
202400
203038
204438
198355
199159
199172
199710
199817
200175
196809
197717
198215
199278
199834
201254
196597
197304
197894
199235
200558
202922
196109
196344
196893
198703
200539
204351
195757
195838
196441
198624
200586
205898
195533
195272
195796
198234
200433
206556
195642
195293
195863
198270
200203
206269
196110
195785
196432
198810
200571
206371
196845
196798
197513
199522
200926
205916
197693
197926
198625
199994
201040
205275
198611
199016
199709
200866
201255
204084
199342
199778
200198
201097
201480
202997
199875
200446
200614
201496
201585
202530
199561
200189
200605
201879
202117
202883
203883
202974
202027
201011
200304
199582
204350
203114
202026
201041
200137
199542
204212
202972
201966
200725
199668
198920
204680
202728
201845
200312
199270
198421
204862
202374
201483
199732
198697
197875
205204
201895
200995
199163
198212
197462
205799
201749
200783
198734
197846
197129
205491
202022
200922
198756
197849
197044
205416
202303
200997
198861
197840
197042
205454
202807
201270
199467
198292
197297
205691
202817
201030
199529
198568
197598
204736
202935
201778
200264
199315
198012
204469
202723
201923
200392
199555
198217
204434
203119
202584
201552
201119
199720
202247
201264
200346
199332
198577
198224
202919
201599
200523
199674
198861
198794
203321
201564
200796
199817
198965
198680
204541
201496
201046
199720
198931
198601
205652
201240
201070
199484
198782
198395
206176
201172
200932
199202
198534
198204
206067
201095
200859
198949
198316
198026
205985
200967
200936
198921
198323
197966
205561
200958
200843
198866
198362
197982
204958
201179
200936
199326
198780
198165
204701
201601
201036
199547
199067
198444
204286
202124
201881
200509
199842
198854
204569
202487
202125
200638
200042
199002
204699
202965
202827
201820
201690
200484
198143
198483
198520
198619
198359
198577
200590
200433
200293
200449
200021
200259
203692
201931
201484
200872
200386
200372
206845
202692
201865
200899
200228
200113
208374
203269
202223
200562
199802
199673
209945
203552
202080
199906
199278
199178
210739
203413
201641
199154
198700
198709
210835
203108
201190
198674
198345
198421
210740
203105
200977
198494
198276
198311
209914
203371
201455
198939
198582
198342
208388
203136
201467
199288
199007
198553
206600
203274
202051
200212
199774
198827
205056
202752
201950
200461
200194
199025
203580
202721
202610
201760
201977
200956
202843
201991
201158
200359
199567
199033
202541
201590
200764
200032
199180
198798
202344
201389
200470
199575
198733
198284
202149
201013
200085
199073
198337
197928
202361
200947
199953
198676
197979
197615
202516
200804
199901
198476
197865
197516
202761
200794
199984
198475
197957
197574
202921
201025
200415
198826
198341
197852
202998
201075
200659
199186
198772
198187
203007
201485
201155
199769
199311
198525
202829
201592
201227
200058
199632
198854
203124
202056
201668
200588
200078
199119
203133
202146
201594
200602
200108
199332
203494
202990
202788
202019
201690
200767
200940
200099
199259
198516
197851
197699
201787
200474
199470
198815
198085
198040
202354
200851
199904
198969
198084
197873
203078
200956
199926
198719
197924
197732
203716
200722
199697
198232
197536
197340
203891
200231
199367
197711
197109
197068
203977
199364
198808
197179
196716
196759
203497
198851
198504
197001
196710
196721
202395
198663
198277
196956
196954
196916
201777
198811
198495
197482
197365
197143
201753
198934
198768
197780
197644
197364
201882
200010
199511
198442
198165
197661
201353
200197
199491
198553
198258
197789
201961
201111
200786
200173
200003
199543
195293
196189
196407
196681
196444
196891
197856
197795
197794
198012
197781
198142
200138
198998
198583
198245
197849
198066
203054
199864
198651
197931
197371
197610
204705
200145
198425
197131
196648
196978
205756
199892
198169
196214
195934
196406
206135
199523
197703
195383
195386
195991
205773
199257
197449
195100
195141
195749
204405
198730
197141
195103
195214
195864
202037
198324
197105
195645
195801
196302
199505
197419
196887
196072
196422
196839
197435
197751
197220
197249
197387
197461
196845
197225
197090
197527
197732
197879
197420
198097
198668
199428
200096
200286
201550
200936
199874
199207
198607
198213
197986
197936
198269
198714
199280
199714
200063
200364
201481
201129
200400
199790
199343
198970
198779
198860
198953
199277
199606
199886
200033
199977
201475
201161
200706
200210
199916
199636
199486
199369
199468
199527
199593
199568
199316
198865
201208
201020
200746
200398
200187
199944
199835
199777
199725
199659
199548
199269
198799
198130
200757
200746
200620
200456
200314
200102
200047
199965
199887
199755
199515
199031
198320
197388
200356
200430
200469
200429
200303
200223
200146
200035
199884
199690
199415
198772
197911
196771
199964
200220
200307
200355
200324
200258
200195
200061
199901
199623
199233
198555
197657
196380
199738
199985
200207
200271
200281
200217
200166
200036
199896
199655
199242
198612
197664
196407
199643
199926
200150
200230
200238
200169
200119
199997
199865
199643
199308
198753
197994
196938
199637
199917
200149
200236
200183
200085
200009
199905
199814
199689
199419
199021
198415
197578
199897
200029
200200
200179
200085
199936
199830
199728
199693
199595
199450
199238
198898
198264
200180
200243
200300
200138
199918
199677
199497
199370
199327
199319
199306
199331
199400
198868
201020
200728
200413
200041
199649
199241
198974
198770
198699
198755
198847
199000
199676
199271
201303
200555
200287
199818
199201
198587
198135
197872
197843
198053
198392
198624
199645
199968
203338
202825
201831
201122
200443
199850
199496
199381
199664
200066
200745
201422
202029
202685
203069
202746
202038
201454
200981
200576
200338
200274
200401
200709
201141
201621
202083
202455
202834
202583
202107
201669
201312
200996
200805
200734
200774
200938
201105
201300
201424
201374
202358
202283
202025
201739
201473
201222
201105
201033
201022
201052
201061
201018
200867
200586
201806
201913
201817
201712
201438
201365
201263
201176
201102
201044
200954
200756
200367
199817
201325
201566
201623
201606
201457
201403
201307
201214
201105
200933
200751
200416
199828
199081
201010
201298
201413
201461
201420
201381
201313
201227
201099
200934
200626
200157
199458
198600
200713
201097
201263
201356
201371
201331
201290
201214
201110
200951
200648
200151
199373
198402
200686
201040
201217
201320
201340
201304
201264
201204
201116
200987
200716
200275
199610
198585
200807
201089
201242
201300
201289
201232
201189
201147
201097
201034
200870
200611
200087
199288
201157
201267
201359
201341
201214
201099
201035
201015
201023
201084
201019
200953
200689
200044
201629
201590
201529
201324
201112
200876
200772
200732
200802
200949
201046
201205
201346
200883
202477
202081
201714
201278
200860
200521
200329
200260
200369
200618
200894
201262
201835
201574
202702
202001
201634
201016
200447
199936
199669
199605
199792
200168
200691
201190
202278
202362
205491
204948
204074
203329
202701
202188
201899
201829
201906
202354
203018
203878
204858
205767
205042
204665
204034
203481
203002
202628
202400
202352
202558
202887
203407
204032
204723
205420
204419
204282
203900
203555
203179
202893
202746
202697
202834
203019
203377
203763
204206
204577
203810
203875
203692
203514
203240
203077
202965
202916
203002
203101
203314
203497
203652
203756
203255
203476
203439
203384
203192
203150
203070
203032
203045
203065
203140
203200
203176
203044
202736
203080
203198
203221
203160
203140
203092
203070
203043
203005
202932
202896
202666
202305
202394
202730
202929
203025
203054
203084
203076
203073
203046
202976
202848
202610
202267
201736
202043
202478
202731
202878
202967
203025
203050
203068
203044
202970
202820
202536
202120
201424
201989
202411
202644
202811
202912
202980
203022
203069
203060
203012
202886
202620
202206
201507
202123
202470
202631
202767
202832
202897
202952
203033
203070
203065
202992
202794
202484
201821
202395
202602
202742
202752
202769
202797
202857
202953
203026
203099
203146
203120
202976
202440
202867
202908
202853
202786
202665
202615
202635
202732
202863
203101
203256
203417
203561
203161
203515
203269
202993
202697
202494
202340
202309
202375
202567
202868
203175
203588
204041
203858
203667
203208
202873
202413
202071
201827
201771
201846
202116
202528
203001
203575
204488
204560
206956
206494
205840
205252
204772
204354
204113
204035
204215
204517
205088
205802
206855
207824
206489
206203
205724
205300
204916
204597
204420
204382
204568
204906
205438
206028
206712
207394
205747
205768
205507
205265
204968
204734
204615
204587
204745
204983
205340
205807
206303
206773
205161
205337
205232
205130
204894
204802
204715
204694
204805
204972
205241
205555
205848
206103
204640
204896
204907
204894
204812
204780
204728
204729
204794
204897
205065
205265
205448
205550
204108
204483
204602
204665
204685
204706
204705
204733
204783
204859
204914
204987
205008
204921
203711
204077
204282
204434
204536
204622
204677
204736
204786
204836
204841
204801
204685
204444
203425
203804
204068
204275
204434
204563
204664
204752
204812
204849
204824
204708
204503
204149
203343
203691
203981
204205
204382
204534
204664
204782
204859
204906
204880
204745
204542
204094
203462
203769
203960
204166
204327
204489
204645
204793
204899
204975
204993
204897
204713
204174
203631
203858
204074
204195
204318
204457
204588
204753
204893
205003
205105
205064
205034
204558
203989
204071
204144
204209
204246
204349
204471
204634
204797
204987
205238
205349
205475
205122
204402
204340
204255
204178
204124
204142
204199
204370
204596
204943
205221
205541
205882
205738
204570
204327
204097
203869
203793
203747
203763
203933
204208
204639
205103
205670
206281
206397
208379
208053
207641
207212
206867
206560
206346
206295
206493
206760
207254
207918
208804
209768
207889
207728
207470
207186
206932
206683
206545
206515
206708
206991
207498
208080
208729
209420
207214
207334
207217
207071
206856
206731
206640
206621
206772
207017
207406
207876
208444
209000
206704
206926
206894
206871
206754
206710
206652
206665
206786
207003
207314
207705
208121
208502
206142
206479
206560
206632
206627
206625
206613
206659
206766
206949
207171
207473
207801
208104
205691
206074
206253
206386
206467
206528
206570
206645
206745
206894
207069
207271
207460
207615
205312
205693
205969
206171
206333
206457
206553
206653
206756
206880
207004
207125
207214
207255
205057
205465
205798
206052
206260
206429
206565
206690
206804
206908
206986
207038
207049
206973
204981
205388
205742
206014
206245
206440
206600
206746
206871
206969
207027
207049
207016
206855
205097
205427
205726
206002
206242
206450
206633
206803
206937
207052
207137
207173
207143
206917
205214
205578
205832
206047
206249
206435
206620
206816
206985
207131
207254
207298
207338
207034
205491
205684
205894
206057
206217
206375
206542
206746
206954
207146
207372
207492
207647
207377
205689
205820
205928
206011
206086
206212
206363
206565
206801
207117
207447
207673
207909
207806
205760
205743
205719
205699
205782
205879
206026
206268
206594
207021
207427
207876
208226
208326
209759
209519
209273
208976
208775
208561
208428
208410
208590
208854
209279
209814
210587
211430
209256
209198
209074
208909
208783
208606
208547
208552
208704
208993
209430
209987
210581
211166
208728
208862
208812
208764
208655
208591
208571
208606
208750
209010
209378
209845
210376
210946
208219
208465
208503
208554
208515
208524
208531
208598
208744
208992
209328
209748
210191
210597
207702
208045
208209
208324
208379
208425
208472
208568
208717
208947
209231
209585
209974
210346
207331
207692
207934
208105
208235
208339
208434
208555
208703
208913
209160
209456
209753
210012
206959
207379
207711
207952
208153
208309
208439
208573
208720
208909
209118
209349
209581
209758
206777
207220
207600
207885
208125
208311
208469
208619
208770
208938
209109
209290
209447
209534
206719
207169
207579
207890
208149
208355
208532
208691
208841
208990
209131
209263
209370
209402
206794
207201
207579
207911
208177
208406
208601
208773
208929
209070
209198
209295
209376
209351
206863
207302
207663
207949
208204
208432
208632
208823
209002
209152
209297
209400
209499
209390
207049
207400
207719
207955
208171
208383
208586
208804
209020
209209
209407
209536
209685
209533
207138
207461
207721
207918
208086
208265
208445
208680
208938
209188
209460
209678
209831
209772
207181
207375
207482
207629
207743
207953
208184
208456
208772
209148
209493
209832
210032
210152
211356
211229
211099
210918
210824
210676
210641
210680
210807
211048
211400
211876
212545
213313
210885
210901
210863
210799
210741
210676
210693
210759
210907
211175
211543
212043
212600
213136
210422
210587
210610
210637
210613
210632
210675
210769
210927
211186
211515
211950
212454
213001
209931
210209
210324
210428
210483
210551
210624
210748
210919
211179
211500
211906
212359
212810
209504
209860
210073
210234
210349
210459
210569
210720
210903
211153
211447
211805
212215
212639
209142
209545
209838
210056
210236
210394
210538
210706
210894
211132
211409
211733
212089
212430
208854
209314
209679
209955
210189
210378
210542
210715
210903
211130
211386
211670
211976
212252
208728
209211
209617
209926
210187
210391
210571
210749
210935
211148
211381
211631
211884
212087
208691
209189
209619
209947
210222
210441
210631
210810
210988
211182
211389
211600
211810
211951
208773
209222
209638
209988
210279
210507
210701
210879
211052
211231
211416
211598
211773
211865
208839
209337
209723
210046
210323
210548
210749
210933
211111
211285
211458
211617
211784
211860
209013
209429
209771
210050
210296
210514
210722
210928
211134
211325
211526
211680
211882
211890
209089
209471
209782
210020
210200
210394
210600
210839
211089
211321
211566
211762
211961
212045
209134
209365
209594
209767
209930
210127
210361
210654
210970
211297
211605
211885
212087
212254
213070
213009
212979
212864
212821
212744
212757
212851
213010
213261
213579
213999
214594
215296
212645
212725
212753
212748
212737
212739
212795
212914
213089
213366
213718
214179
214706
215222
212225
212440
212506
212581
212621
212696
212779
212928
213115
213388
213717
214129
214603
215120
211775
212093
212244
212394
212497
212622
212743
212921
213130
213407
213734
214135
214578
215022
211410
211792
212024
212226
212377
212547
212709
212910
213132
213407
213719
214078
214480
214886
211089
211523
211831
212089
212296
212501
212689
212901
213132
213404
213708
214049
214416
214772
210872
211358
211727
212032
212275
212495
212695
212909
213141
213406
213698
214012
214341
214648
210794
211307
211708
212028
212286
212511
212720
212935
213164
213419
213695
213982
214279
214534
210797
211319
211741
212071
212338
212571
212781
212989
213205
213442
213695
213951
214211
214428
210905
211378
211796
212129
212404
212640
212851
213056
213263
213479
213704
213932
214168
214341
210999
211496
211871
212186
212455
212686
212900
213107
213312
213516
213722
213926
214147
214273
211177
211595
211915
212196
212440
212668
212889
213113
213334
213543
213756
213939
214165
214252
211220
211620
211919
212145
212344
212561
212798
213054
213310
213543
213770
213960
214172
214332
211248
211521
211752
211928
212111
212322
212582
212898
213213
213506
213768
214014
214192
214418
215033
215066
215109
215071
215057
215054
215093
215195
215356
215600
215917
216300
216836
217495
214671
214830
214898
214954
214980
215033
215106
215249
215436
215710
216049
216487
216986
217486
214263
214547
214659
214788
214870
214982
215092
215270
215480
215758
216086
216481
216924
217403
213870
214234
214421
214610
214752
214914
215070
215278
215513
215804
216135
216521
216945
217373
213546
213952
214215
214451
214644
214850
215053
215284
215537
215828
216151
216504
216885
217262
213273
213724
214055
214338
214580
214818
215045
215291
215555
215845
216162
216499
216860
217201
213123
213609
213989
214300
214568
214817
215056
215310
215576
215861
216168
216483
216810
217106
213096
213595
213996
214313
214586
214838
215084
215338
215602
215881
216174
216471
216768
217027
213134
213640
214049
214369
214643
214897
215139
215386
215639
215904
216180
216452
216725
216952
213247
213715
214118
214434
214710
214964
215204
215445
215686
215932
216182
216430
216690
216898
213391
213837
214195
214492
214761
215010
215249
215488
215722
215951
216178
216408
216657
216843
213538
213923
214223
214493
214744
214993
215241
215491
215730
215957
216178
216388
216649
216791
213560
213933
214208
214425
214657
214907
215169
215441
215698
215932
216150
216352
216606
216822
213568
213835
214039
214235
214446
214691
214978
215297
215596
215865
216102
216333
216536
216835
203020
203986
204337
205261
206973
208774
199986
200294
200743
201730
203598
206264
199237
199462
199627
200321
201629
203835
198202
197827
197560
198046
198659
199467
197429
196774
196377
196477
196816
196897
196829
195804
195129
195147
195741
195583
196566
195375
194578
194663
195486
195557
196774
195575
194741
194944
196467
196970
197560
196487
196010
196484
198704
199493
198550
197792
197908
198682
201090
202302
199571
199141
199903
200919
203438
204955
200292
200323
201466
202607
205336
207044
201076
201262
202509
203719
206409
208777
200146
200644
202086
203889
206780
209497
205006
206103
206613
206920
207531
208838
202178
202520
203078
203888
205108
206732
201467
201758
201878
202292
203143
204382
200537
200382
199961
199992
200199
200884
199669
198993
198327
197989
197836
198384
198885
197696
196778
196202
196154
196948
198452
196998
195856
195097
195197
196337
198415
196964
195738
194908
195348
196778
198848
197723
196751
196268
197119
198625
199783
198959
198526
198470
199621
201198
200857
200436
200587
201097
202499
204213
201986
201929
202620
203456
205080
206989
203155
203320
204246
205234
207160
209294
202238
202640
203941
205731
208252
210230
207048
208424
209263
210021
210555
211204
204744
205404
206174
207346
208484
209462
204008
204481
205005
205615
206150
206990
203003
203087
203158
203014
203007
203245
202128
201887
201281
200670
200217
199980
201375
200834
199672
198845
198128
197835
200959
200135
198610
197595
196652
196693
200970
199846
198347
197264
196417
196983
201462
200154
199159
198229
197902
198705
202217
201303
200828
200231
200551
201534
203226
202744
202793
202802
203713
204900
204392
204438
204977
205447
206663
208034
205800
206123
207005
207967
209432
211045
205494
205916
206996
208584
210548
212453
208073
208994
209622
210267
210720
211384
206508
207157
207817
208580
209369
210350
205889
206307
206623
207082
207710
208509
205083
205153
205083
205280
205498
205584
204453
204144
203754
203481
202869
202690
203831
203178
202580
201706
200922
200346
203520
202565
201848
200519
199555
198845
203493
202461
201523
199992
198980
198346
203803
202872
201751
200622
199791
199350
204425
203592
203020
202303
201736
201673
205241
204820
204697
204457
204496
204886
206256
206269
206635
206804
207277
208054
207473
207856
208580
209184
210208
211253
207743
208258
209031
210156
211481
212935
209215
209863
210339
210870
211373
212015
208191
208719
209266
209879
210549
211317
207760
208155
208476
208869
209267
209681
207149
207278
207314
207354
207392
207569
206705
206582
206286
205880
205517
205016
206258
205829
205164
204587
203639
203134
205966
205376
204527
203892
202767
201988
205885
205242
204506
203571
202305
201556
206176
205530
204897
203772
202803
202161
206574
206169
205577
204899
204256
203791
207364
207062
206916
206617
206403
206347
208225
208253
208464
208551
208798
209152
209205
209543
210098
210610
211214
212050
209805
210310
210962
211707
212716
213760
210350
210835
211290
211764
212301
212842
209693
210115
210531
211110
211769
212457
209423
209762
210029
210443
210834
211301
208974
209103
209191
209319
209340
209467
208700
208629
208452
208167
207804
207217
208413
208138
207637
207041
206392
205314
208188
207781
207102
206321
205419
204536
208148
207665
206961
206361
205183
204234
208374
207986
207307
206698
205493
204758
208692
208406
207945
207405
206718
206309
209303
209128
208899
208699
208429
208235
210032
210057
210127
210277
210352
210503
210819
211108
211492
211973
212441
212938
211599
212051
212593
213184
213925
214897
211845
212194
212560
212953
213401
213923
211426
211775
212120
212605
213089
213707
211295
211603
211855
212220
212591
212944
211009
211147
211237
211353
211433
211500
210850
210807
210673
210487
210240
210037
210621
210433
210095
209549
208991
208061
210471
210146
209651
208903
208249
207032
210470
210126
209521
208742
208160
206804
210659
210355
209867
209203
208489
207348
210962
210707
210347
209882
209279
208669
211444
211284
211131
210852
210653
210436
212050
212064
212120
212171
212302
212383
212703
212931
213231
213585
213993
214380
213475
213889
214276
214790
215397
216002
213450
213700
213989
214308
214677
215084
213196
213468
213702
214137
214539
215086
213171
213402
213581
213941
214211
214593
212965
213081
213149
213312
213357
213493
212870
212847
212755
212674
212450
212422
212706
212568
212335
212015
211483
210953
212639
212366
212004
211446
210765
209967
212694
212392
211959
211246
210590
209552
212873
212614
212208
211614
211033
209838
213174
213009
212682
212251
211689
210817
213636
213520
213311
213096
212703
212350
214195
214201
214179
214177
214193
214208
214753
214944
215129
215403
215756
216093
215456
215823
216120
216543
217046
217522
215371
215559
215758
216009
216271
216595
215253
215475
215655
216023
216359
216832
215294
215479
215641
215972
216220
216554
215184
215298
215365
215550
215616
215747
215131
215142
215103
215057
214821
214720
215040
214930
214746
214512
213999
213618
215018
214811
214508
214048
213271
212708
215082
214829
214450
213896
213108
212441
215247
214997
214641
214126
213509
212805
215517
215353
215119
214703
214193
213581
215919
215850
215677
215441
215103
214718
216448
216485
216472
216392
216335
216242
216992
217150
217323
217470
217713
217924
217637
217956
218214
218552
218980
219360
202121
203361
203995
205279
207625
210170
199264
200046
200951
202438
205011
208767
198602
199222
200078
201473
203789
207452
197407
197408
197917
199085
201244
203961
196408
196068
196343
197376
199102
200929
195493
194627
194608
195679
197491
199010
194966
193816
193734
194935