/*--------------------------------*- C++ -*----------------------------------*\
| =========                 |                                                 |
| \\      /  F ield         | OpenFOAM: The Open Source CFD Toolbox           |
|  \\    /   O peration     | Version:  v2106                                 |
|   \\  /    A nd           | Website:  www.openfoam.com                      |
|    \\/     M anipulation  |                                                 |
\*---------------------------------------------------------------------------*/
FoamFile
{
    version     2.0;
    format      ascii;
    arch        "LSB;label=32;scalar=64";
    class       volScalarField;
    location    "0.000165";
    object      T;
}
// * * * * * * * * * * * * * * * * * * * * * * * * * * * * * * * * * * * * * //

dimensions      [0 0 0 1 0 0 0];

internalField   nonuniform List<scalar> 
144746
(
292.428
292.311
291.89
291.718
291.565
291.525
291.503
291.521
291.62
291.83
292.081
292.334
292.603
292.927
292.047
292.074
291.918
291.917
291.863
291.836
291.811
291.809
291.85
291.969
292.149
292.388
292.637
292.717
291.746
291.828
291.894
292.027
292.086
292.104
292.082
292.061
292.055
292.109
292.181
292.27
292.296
292.243
291.384
291.544
291.795
292.04
292.169
292.228
292.226
292.225
292.216
292.226
292.206
292.167
292.087
292.022
290.989
291.309
291.712
292.036
292.192
292.256
292.273
292.264
292.263
292.238
292.173
292.045
291.904
291.835
290.628
291.101
291.62
291.988
292.163
292.237
292.266
292.27
292.272
292.237
292.139
291.972
291.821
291.762
290.38
290.976
291.595
291.975
292.151
292.215
292.24
292.254
292.26
292.216
292.097
291.912
291.759
291.708
290.211
290.855
291.533
291.918
292.094
292.16
292.194
292.213
292.224
292.179
292.059
291.893
291.764
291.72
290.061
290.725
291.439
291.831
291.992
292.045
292.085
292.114
292.138
292.093
291.984
291.841
291.731
291.721
289.913
290.58
291.281
291.618
291.755
291.788
291.825
291.85
291.872
291.845
291.786
291.703
291.652
291.679
289.785
290.411
291.066
291.306
291.364
291.322
291.318
291.316
291.341
291.35
291.366
291.37
291.396
291.417
289.642
290.227
290.822
290.981
290.926
290.746
290.621
290.568
290.59
290.59
290.625
290.675
290.843
290.907
289.757
290.26
290.667
290.745
290.611
290.298
290.01
289.863
289.834
289.804
289.846
289.881
290.193
290.342
289.846
290.102
290.51
290.633
290.504
290.128
289.727
289.51
289.426
289.412
289.418
289.433
289.725
290.012
291.091
290.848
290.323
290.057
289.838
289.735
289.7
289.784
290.057
290.453
290.817
291.029
291.135
291.286
290.902
290.917
290.777
290.709
290.632
290.552
290.49
290.484
290.57
290.742
290.945
291.074
291.143
290.927
290.767
290.865
291.002
291.113
291.161
291.136
291.072
290.997
290.985
291.008
291.035
290.976
290.731
290.286
290.47
290.745
291.072
291.297
291.388
291.413
291.362
291.308
291.244
291.209
291.116
290.895
290.458
289.945
290.042
290.578
291.076
291.372
291.479
291.502
291.472
291.419
291.36
291.286
291.139
290.823
290.297
289.773
289.616
290.373
291.031
291.373
291.498
291.524
291.509
291.469
291.415
291.326
291.147
290.782
290.247
289.758
289.319
290.244
291.015
291.377
291.509
291.532
291.517
291.485
291.431
291.325
291.133
290.756
290.261
289.858
289.112
290.147
290.992
291.353
291.488
291.513
291.51
291.477
291.435
291.327
291.138
290.789
290.38
290.097
288.935
290.039
290.928
291.297
291.427
291.452
291.462
291.435
291.393
291.292
291.107
290.833
290.531
290.345
288.752
289.859
290.772
291.153
291.27
291.28
291.287
291.266
291.242
291.164
291.011
290.79
290.581
290.437
288.59
289.635
290.501
290.835
290.922
290.91
290.903
290.869
290.835
290.771
290.671
290.545
290.423
290.275
288.407
289.376
290.135
290.361
290.355
290.258
290.151
290.064
290.016
289.962
289.91
289.858
289.92
289.799
288.525
289.334
289.825
289.908
289.789
289.524
289.256
289.068
288.967
288.905
288.902
288.886
289.125
289.084
288.623
289.121
289.521
289.574
289.385
288.991
288.581
288.314
288.208
288.148
288.121
288.07
288.306
288.503
290.534
290.202
289.521
289.168
288.87
288.675
288.571
288.653
289.015
289.535
290.07
290.394
290.487
290.359
290.689
290.656
290.43
290.299
290.179
290.044
289.926
289.882
290.028
290.178
290.344
290.438
290.38
289.96
290.638
290.793
290.89
290.92
290.923
290.845
290.737
290.661
290.622
290.582
290.49
290.314
289.879
289.08
290.375
290.792
291.083
291.214
291.273
291.255
291.177
291.066
290.96
290.83
290.636
290.281
289.567
288.532
289.931
290.687
291.15
291.339
291.394
291.368
291.285
291.194
291.079
290.94
290.686
290.205
289.328
288.165
289.423
290.549
291.161
291.394
291.453
291.41
291.346
291.256
291.148
290.998
290.689
290.123
289.171
287.999
288.98
290.343
291.1
291.391
291.451
291.427
291.371
291.267
291.13
290.964
290.649
290.076
289.115
287.97
288.67
290.184
291.024
291.342
291.413
291.398
291.354
291.261
291.146
290.965
290.667
290.086
289.225
288.209
288.428
290.009
290.938
291.306
291.384
291.35
291.307
291.223
291.109
290.932
290.628
290.162
289.469
288.676
288.191
289.751
290.725
291.093
291.178
291.153
291.109
291.046
290.955
290.801
290.541
290.138
289.634
289.062
287.976
289.436
290.367
290.705
290.769
290.698
290.645
290.593
290.524
290.413
290.226
289.957
289.639
289.177
287.712
289.045
289.84
290.031
289.99
289.868
289.765
289.681
289.598
289.511
289.408
289.27
289.205
288.858
287.817
288.871
289.325
289.3
289.058
288.685
288.392
288.197
288.075
288.014
288.013
287.992
288.235
288.037
287.907
288.514
288.797
288.621
288.111
287.471
286.978
286.653
286.515
286.475
286.483
286.457
286.876
287.095
293.391
293.808
294.145
294.751
295.163
295.639
292.663
293.013
293.405
294.08
294.643
295.205
292.328
292.728
293.111
293.853
294.407
295.031
292.053
292.449
292.834
293.699
294.311
295
291.932
292.425
292.944
293.948
294.591
295.352
291.859
292.343
292.912
294.043
294.886
295.766
291.82
292.396
293.101
294.28
295.139
296.143
291.775
292.318
293.08
294.351
295.328
296.301
291.81
292.315
293.1
294.322
295.36
296.284
291.783
292.184
292.881
293.99
295.098
295.977
291.557
291.815
292.354
293.317
294.425
295.337
291.103
291.285
291.673
292.493
293.518
294.381
290.629
290.834
291.203
291.971
292.843
293.58
290.231
290.551
291.008
291.829
292.631
293.219
291.532
291.746
291.866
292.263
292.723
293.206
290.522
290.585
290.686
291.148
291.691
292.375
289.931
290.002
290.18
290.849
291.357
292.236
289.557
289.693
289.997
290.928
291.609
292.748
289.473
289.789
290.329
291.512
292.437
293.96
289.491
289.822
290.522
292.017
293.232
295.444
289.68
290.049
290.843
292.475
293.899
296.041
290.023
290.356
291.157
292.82
294.347
296.347
290.319
290.623
291.35
292.854
294.384
296.196
290.439
290.629
291.208
292.436
293.827
295.429
290.339
290.397
290.715
291.566
292.68
293.96
289.916
289.839
289.891
290.396
291.202
292.144
289.289
289.134
289.068
289.366
289.911
290.614
288.543
288.475
288.498
288.822
289.36
289.92
290.761
290.516
290.105
289.649
289.245
288.49
289.127
288.746
288.356
287.875
287.657
286.79
288.18
287.595
287.269
287.037
287.086
286.41
287.454
286.812
286.631
286.658
286.877
286.862
287.076
286.61
286.672
287.264
287.967
288.915
286.919
286.443
286.658
288.083
289.747
291.99
286.99
286.609
286.967
288.889
291.231
294.495
287.366
287.105
287.564
289.626
292.253
295.547
288.039
287.881
288.312
290.056
292.464
295.474
288.694
288.571
288.897
290.117
291.92
294.148
289.01
288.854
289.088
289.773
290.644
291.903
288.8
288.586
288.565
288.66
288.759
289.244
288.162
287.825
287.402
286.997
286.718
286.767
286.998
286.54
286.028
285.607
285.319
285.321
290.111
290.754
291.268
292.051
292.645
293.212
289.444
290.189
290.944
292.014
292.888
293.767
289.417
290.172
291.145
292.426
293.448
294.527
289.321
290.021
291.186
292.596
293.919
295.534
289.382
290.133
291.449
293.084
294.531
296.037
289.348
290.047
291.406
293.275
294.814
296.826
289.544
290.219
291.469
293.292
294.914
297.462
289.834
290.517
291.728
293.593
295.236
297.072
290.259
290.865
291.858
293.542
295.052
296.633
290.579
290.998
291.698
293.075
294.443
295.89
290.687
290.923
291.298
292.263
293.436
294.542
290.497
290.569
290.7
291.441
292.48
293.512
290.106
290.197
290.285
291.014
291.903
292.744
289.671
289.829
290.06
290.908
291.839
292.629
288.302
288.506
288.506
288.974
289.4
290.061
287.709
288.035
288.369
289.313
290.041
291.133
287.77
288.237
288.901
290.125
291.111
292.851
287.759
288.232
289.212
290.859
292.478
294.094
287.852
288.435
289.608
291.539
293.217
295.223
287.872
288.384
289.619
291.893
293.699
296.264
288.019
288.498
289.665
291.95
293.829
296.761
288.33
288.729
289.754
291.866
293.741
296.949
288.803
289.112
289.837
291.673
293.375
295.963
289.237
289.409
289.76
291.057
292.402
294.592
289.446
289.497
289.534
290.213
291.06
292.325
289.347
289.195
289.001
289.265
289.69
290.638
288.988
288.694
288.305
288.426
288.646
289.333
288.281
288.021
287.714
288.002
288.396
289.178
286.292
286.01
285.459
285.258
285.007
284.957
285.41
285.166
284.908
285.134
285.283
285.768
285.291
285.03
285.074
285.846
286.867
288.069
285.25
284.896
285.201
286.8
288.931
291.227
285.321
285.027
285.548
287.807
290.843
294.334
285.355
284.975
285.607
288.24
291.845
296.057
285.499
285.092
285.789
288.466
292.059
296.365
285.886
285.492
286.155
288.644
291.996
296.139
286.555
286.312
286.84
288.782
291.45
294.93
287.405
287.285
287.579
288.705
290.392
292.98
288.142
287.988
288.029
288.534
288.95
290.274
288.413
288.119
287.778
287.559
287.126
287.46
288.203
287.775
286.916
286.128
285.246
285.295
287.272
286.651
285.575
284.856
284.115
284.153
295.596
294.894
293.986
293.252
292.873
292.548
296.32
295.425
294.296
293.363
292.744
292.412
296.517
295.584
294.363
293.175
292.38
291.962
296.784
295.483
294.122
292.708
291.898
291.478
296.701
295.076
293.597
292.045
291.264
290.921
296.453
294.43
292.904
291.349
290.685
290.43
296.099
293.822
292.318
290.776
290.255
290.06
295.263
293.345
291.956
290.475
290.02
289.835
294.448
292.823
291.593
290.226
289.766
289.627
293.812
292.497
291.34
290.193
289.658
289.47
293.741
292.259
290.947
289.899
289.45
289.306
293.319
292.255
291.11
289.981
289.523
289.231
293.158
292.071
291.015
289.896
289.503
289.155
292.943
292.101
291.243
290.382
290.122
289.701
293.59
292.925
292.175
291.498
291.097
290.981
295.155
294.179
292.945
291.929
291.299
291.189
296.071
294.68
293.21
291.921
291.152
290.92
296.812
294.671
293.064
291.423
290.599
290.421
296.904
294.197
292.494
290.635
289.85
289.727
296.671
293.631
291.751
289.835
289.143
289.114
296.139
293.035
291.159
289.227
288.635
288.662
295.48
292.413
290.736
288.847
288.337
288.359
294.445
291.711
290.192
288.458
288.059
288.106
293.133
290.939
289.605
288.195
287.871
287.888
291.948
290.177
288.941
287.778
287.585
287.696
290.694
289.469
288.638
287.7
287.578
287.605
290.07
288.907
288.156
287.372
287.45
287.481
289.601
288.642
288.218
287.798
288.1
288.059
290.232
290.405
290.394
290.292
290.124
290.278
293.209
292.839
292.06
291.417
290.921
290.989
295.578
294.065
292.54
291.326
290.782
290.756
297.183
294.215
292.07
290.543
289.985
290.08
297.549
293.893
291.167
289.242
288.753
289.128
297.866
293.407
290.107
287.909
287.574
288.213
297.823
292.837
289.216
286.872
286.674
287.497
297.263
292.164
288.486
286.179
286.097
287.005
296.194
291.369
287.794
285.636
285.702
286.648
294.116
290.111
287.114
285.178
285.373
286.347
290.917
287.997
285.978
284.637
285.074
286.118
287.417
285.886
285.077
284.479
285.092
286.004
284.928
284.211
284.314
284.308
285.192
286.012
283.862
283.802
284.389
285.021
286.237
286.976
296.216
295.6
294.728
293.989
293.458
293.184
296.263
295.618
294.752
293.936
293.284
293.005
296.176
295.494
294.548
293.621
292.934
292.609
295.946
295.134
294.112
293.108
292.473
292.202
295.713
294.752
293.67
292.569
291.999
291.81
295.376
294.292
293.234
292.122
291.665
291.524
295.124
293.941
292.908
291.812
291.472
291.351
294.884
293.736
292.793
291.705
291.433
291.304
294.598
293.476
292.65
291.643
291.421
291.292
294.286
293.414
292.704
291.756
291.517
291.339
293.983
293.231
292.583
291.804
291.636
291.495
294.045
293.376
292.78
292.099
291.948
291.754
294.162
293.587
293.072
292.506
292.34
292.117
294.754
294.362
293.988
293.473
293.297
292.934
294.582
293.918
293.006
292.207
291.634
291.481
295.812
294.827
293.554
292.516
291.793
291.595
296.433
295.226
293.767
292.505
291.676
291.371
296.689
295.159
293.547
292.081
291.252
290.969
296.661
294.729
292.959
291.315
290.547
290.357
296.228
293.966
292.187
290.474
289.828
289.784
295.5
292.875
291.302
289.726
289.251
289.319
294.433
291.879
290.588
289.256
288.965
289.097
293.136
291.121
290.041
288.951
288.851
289.029
292.111
290.56
289.758
288.955
288.875
289.042
291.514
290.046
289.447
288.828
288.924
289.212
291.1
290.15
289.597
289.119
289.327
289.641
290.834
290.285
289.959
289.758
290.018
290.235
291.911
291.47
291.341
291.278
291.411
291.454
290.977
291.194
290.909
290.588
290.288
290.391
293.608
293.126
292.229
291.48
290.939
290.971
295.33
294.104
292.59
291.421
290.809
290.743
296.778
294.339
292.139
290.67
290.026
290.083
297.171
293.945
291.114
289.302
288.747
289.019
296.994
292.956
289.84
287.775
287.442
287.991
295.976
291.607
288.475
286.455
286.447
287.28
293.916
289.953
287.285
285.572
285.827
286.951
290.934
287.895
286.193
285.03
285.529
286.898
287.686
286.063
285.419
284.93
285.593
287.047
285.427
284.823
284.931
284.998
285.957
287.463
284.611
285.044
285.283
285.944
287.003
288.206
285.303
285.775
286.321
287.317
288.291
289.152
287.384
287.921
288.648
289.563
290.371
290.81
291.316
290.882
290.228
289.79
289.378
289.075
288.923
288.922
289.205
289.702
290.347
290.904
291.262
291.475
291.329
291.338
291.191
291.037
290.859
290.627
290.468
290.461
290.499
290.666
290.862
291.057
291.123
290.905
291.256
291.483
291.615
291.608
291.593
291.477
291.354
291.263
291.268
291.242
291.198
291.095
290.765
289.934
290.99
291.516
291.78
291.835
291.85
291.768
291.691
291.64
291.584
291.522
291.412
291.13
290.492
289.228
290.587
291.456
291.824
291.92
291.926
291.845
291.795
291.741
291.699
291.634
291.496
291.085
290.157
288.585
290.195
291.322
291.82
291.941
291.922
291.883
291.825
291.766
291.705
291.625
291.474
290.92
289.785
288.084
289.816
291.176
291.761
291.921
291.932
291.898
291.848
291.782
291.72
291.602
291.359
290.704
289.51
287.821
289.535
290.994
291.683
291.877
291.913
291.884
291.847
291.782
291.72
291.594
291.284
290.617
289.437
287.861
289.314
290.857
291.594
291.826
291.878
291.86
291.839
291.776
291.698
291.543
291.223
290.587
289.582
288.277
289.094
290.659
291.435
291.712
291.771
291.769
291.757
291.706
291.628
291.484
291.16
290.606
289.804
288.847
288.911
290.346
291.096
291.374
291.468
291.486
291.491
291.454
291.4
291.26
290.982
290.536
289.949
289.292
288.708
289.908
290.53
290.734
290.79
290.789
290.782
290.753
290.717
290.644
290.471
290.202
289.907
289.41
288.857
289.572
289.823
289.791
289.648
289.475
289.379
289.307
289.28
289.289
289.268
289.214
289.388
289.116
288.899
289.094
289.075
288.745
288.187
287.679
287.368
287.195
287.148
287.22
287.356
287.51
288.153
288.492
292.231
292.005
291.615
291.301
290.881
290.411
290.077
289.956
290.083
290.332
290.832
291.42
291.945
292.356
292.215
292.322
292.276
292.188
292.001
291.726
291.499
291.413
291.437
291.511
291.647
291.832
292.019
292.062
292.156
292.493
292.583
292.564
292.474
292.304
292.163
292.098
292.086
292.089
292.056
292.006
291.862
291.352
291.95
292.53
292.694
292.698
292.629
292.499
292.419
292.37
292.345
292.323
292.261
292.104
291.718
290.782
291.667
292.472
292.695
292.735
292.621
292.549
292.479
292.435
292.404
292.378
292.313
292.086
291.464
290.137
291.392
292.36
292.661
292.705
292.623
292.552
292.484
292.442
292.408
292.347
292.249
291.904
291.018
289.423
291.188
292.239
292.581
292.64
292.601
292.547
292.491
292.45
292.405
292.34
292.147
291.633
290.555
288.871
291.002
292.119
292.5
292.586
292.58
292.541
292.502
292.459
292.41
292.322
292.066
291.454
290.301
288.63
290.919
292.034
292.44
292.553
292.568
292.547
292.518
292.474
292.408
292.291
291.989
291.365
290.275
288.687
290.832
291.907
292.34
292.484
292.523
292.521
292.506
292.464
292.386
292.244
291.938
291.374
290.411
289.119
290.691
291.642
292.1
292.298
292.364
292.388
292.389
292.364
292.297
292.172
291.862
291.366
290.659
289.735
290.498
291.2
291.593
291.784
291.899
291.942
291.972
291.974
291.965
291.894
291.648
291.27
290.862
290.311
290.514
290.714
290.828
290.834
290.83
290.853
290.906
290.962
291.053
291.114
291.035
290.871
290.82
290.584
290.373
290.158
289.917
289.492
289.149
288.979
288.972
289.043
289.237
289.491
289.717
289.886
290.42
290.563
293.308
293.262
293.133
292.949
292.659
292.29
291.994
291.867
291.835
291.949
292.205
292.637
293.166
293.633
293.322
293.442
293.418
293.342
293.171
292.955
292.782
292.72
292.761
292.82
292.938
293.117
293.342
293.536
293.214
293.522
293.547
293.509
293.372
293.219
293.125
293.09
293.127
293.156
293.216
293.263
293.315
293.26
293.055
293.52
293.582
293.553
293.424
293.311
293.243
293.22
293.253
293.281
293.327
293.325
293.245
292.93
292.889
293.457
293.544
293.524
293.401
293.324
293.269
293.255
293.269
293.289
293.317
293.295
293.107
292.522
292.716
293.336
293.462
293.445
293.369
293.31
293.268
293.261
293.264
293.27
293.246
293.173
292.813
291.953
292.6
293.206
293.354
293.349
293.313
293.285
293.263
293.26
293.259
293.244
293.179
292.959
292.427
291.338
292.459
293.085
293.266
293.287
293.283
293.276
293.266
293.266
293.257
293.224
293.111
292.795
292.126
290.871
292.422
293.016
293.204
293.261
293.281
293.289
293.288
293.291
293.27
293.215
293.064
292.697
291.97
290.694
292.401
292.937
293.131
293.226
293.266
293.294
293.303
293.312
293.282
293.198
293.013
292.622
291.918
290.711
292.256
292.734
292.996
293.129
293.214
293.266
293.301
293.313
293.27
293.166
292.968
292.598
291.994
291.013
292.004
292.368
292.634
292.851
292.983
293.074
293.137
293.172
293.157
293.108
292.906
292.56
292.144
291.504
291.783
291.843
291.981
292.134
292.306
292.449
292.579
292.699
292.794
292.823
292.695
292.459
292.249
291.951
291.411
291.18
291.005
290.856
290.868
291
291.234
291.505
291.81
292.052
292.139
292.141
292.334
292.296
294.172
294.206
294.176
294.087
293.947
293.746
293.571
293.494
293.518
293.54
293.674
293.882
294.233
294.584
294.236
294.34
294.283
294.193
294.063
293.926
293.843
293.823
293.885
293.977
294.106
294.241
294.418
294.577
294.128
294.355
294.312
294.232
294.093
293.972
293.919
293.911
293.977
294.061
294.151
294.262
294.401
294.529
294.017
294.305
294.278
294.208
294.059
293.98
293.932
293.927
293.982
294.061
294.166
294.268
294.349
294.386
293.886
294.187
294.168
294.107
294.008
293.952
293.917
293.921
293.961
294.027
294.122
294.216
294.267
294.218
293.736
294.045
294.031
293.984
293.932
293.906
293.895
293.91
293.943
294.001
294.062
294.114
294.106
293.921
293.621
293.887
293.889
293.872
293.861
293.868
293.879
293.904
293.939
293.987
294.015
294.016
293.913
293.547
293.509
293.764
293.799
293.811
293.828
293.854
293.88
293.913
293.95
293.987
293.993
293.932
293.719
293.174
293.459
293.686
293.756
293.801
293.84
293.877
293.911
293.948
293.978
294.001
293.99
293.873
293.582
292.889
293.435
293.647
293.722
293.805
293.868
293.921
293.962
293.999
294.015
294.015
293.977
293.818
293.473
292.694
293.275
293.512
293.694
293.81
293.898
293.964
294.004
294.037
294.043
294.016
293.949
293.751
293.428
292.685
293.006
293.269
293.513
293.711
293.836
293.937
294.012
294.049
294.04
294.006
293.947
293.744
293.455
292.833
292.664
292.876
293.108
293.34
293.538
293.702
293.824
293.926
293.974
293.995
293.902
293.721
293.506
293.093
292.236
292.226
292.26
292.382
292.633
292.903
293.153
293.415
293.63
293.752
293.754
293.695
293.625
293.407
295.055
295.075
295.06
294.989
294.913
294.813
294.725
294.701
294.758
294.815
294.934
295.109
295.346
295.614
295.102
295.159
295.101
294.997
294.896
294.795
294.75
294.752
294.846
294.967
295.139
295.304
295.469
295.617
295.006
295.15
295.082
294.968
294.835
294.766
294.732
294.734
294.815
294.937
295.089
295.239
295.418
295.589
294.891
295.067
294.983
294.882
294.77
294.724
294.695
294.708
294.777
294.888
295.025
295.179
295.346
295.519
294.718
294.899
294.825
294.757
294.696
294.667
294.658
294.682
294.739
294.833
294.943
295.096
295.279
295.471
294.574
294.714
294.665
294.629
294.614
294.619
294.632
294.666
294.718
294.796
294.898
295.036
295.193
295.312
294.452
294.537
294.527
294.529
294.554
294.589
294.622
294.666
294.718
294.789
294.882
294.999
295.102
295.134
294.35
294.424
294.453
294.486
294.532
294.582
294.628
294.678
294.736
294.806
294.886
294.961
294.995
294.906
294.287
294.372
294.437
294.498
294.558
294.614
294.662
294.713
294.771
294.841
294.905
294.938
294.909
294.697
294.242
294.343
294.443
294.542
294.619
294.676
294.723
294.772
294.822
294.88
294.928
294.935
294.856
294.525
294.091
294.312
294.473
294.594
294.685
294.745
294.79
294.838
294.88
294.917
294.941
294.9
294.793
294.373
293.894
294.183
294.423
294.592
294.716
294.793
294.845
294.891
294.923
294.94
294.958
294.892
294.781
294.35
293.604
293.939
294.226
294.454
294.62
294.757
294.854
294.911
294.935
294.966
294.976
294.899
294.768
294.404
293.236
293.402
293.628
293.877
294.155
294.407
294.619
294.793
294.917
294.986
294.965
294.918
294.799
294.545
295.885
295.849
295.802
295.72
295.675
295.613
295.569
295.576
295.666
295.77
295.907
296.08
296.331
296.555
295.871
295.882
295.813
295.699
295.621
295.549
295.533
295.55
295.639
295.785
295.979
296.189
296.375
296.508
295.77
295.845
295.754
295.638
295.535
295.495
295.488
295.512
295.597
295.738
295.916
296.104
296.286
296.458
295.611
295.704
295.611
295.529
295.458
295.442
295.442
295.477
295.555
295.68
295.835
296.013
296.195
296.372
295.421
295.494
295.444
295.405
295.386
295.39
295.406
295.452
295.523
295.628
295.753
295.914
296.113
296.348
295.274
295.304
295.293
295.295
295.318
295.352
295.391
295.443
295.508
295.599
295.711
295.864
296.06
296.287
295.113
295.15
295.183
295.227
295.285
295.34
295.392
295.448
295.511
295.594
295.701
295.848
296.038
296.221
295.012
295.066
295.135
295.204
295.279
295.344
295.403
295.463
295.527
295.61
295.713
295.855
296.006
296.098
294.944
295.034
295.141
295.232
295.313
295.377
295.434
295.493
295.56
295.644
295.745
295.86
295.955
295.975
294.894
295.032
295.175
295.295
295.375
295.436
295.489
295.543
295.609
295.693
295.788
295.868
295.913
295.851
294.791
295.04
295.24
295.369
295.45
295.507
295.552
295.603
295.669
295.746
295.829
295.876
295.892
295.731
294.707
295.024
295.264
295.411
295.508
295.572
295.614
295.662
295.727
295.796
295.865
295.881
295.882
295.655
294.559
294.936
295.214
295.411
295.543
295.623
295.661
295.715
295.775
295.83
295.88
295.895
295.856
295.636
294.33
294.605
294.872
295.126
295.317
295.5
295.644
295.745
295.815
295.873
295.888
295.898
295.819
295.665
296.705
296.661
296.59
296.495
296.457
296.411
296.409
296.443
296.526
296.647
296.795
296.984
297.245
297.489
296.644
296.628
296.55
296.45
296.384
296.349
296.36
296.398
296.482
296.625
296.816
297.041
297.262
297.419
296.507
296.525
296.447
296.37
296.312
296.303
296.318
296.363
296.444
296.579
296.755
296.96
297.161
297.339
296.31
296.339
296.289
296.258
296.243
296.256
296.284
296.341
296.42
296.542
296.695
296.876
297.062
297.248
296.121
296.147
296.139
296.152
296.177
296.216
296.262
296.327
296.405
296.512
296.637
296.788
296.97
297.191
295.951
295.981
296.017
296.067
296.129
296.192
296.252
296.321
296.398
296.493
296.604
296.743
296.925
297.154
295.805
295.865
295.944
296.027
296.112
296.187
296.254
296.324
296.398
296.486
296.591
296.726
296.914
297.145
295.714
295.81
295.921
296.022
296.116
296.194
296.265
296.335
296.407
296.493
296.597
296.735
296.919
297.121
295.658
295.796
295.938
296.052
296.146
296.22
296.287
296.355
296.428
296.516
296.623
296.757
296.921
297.062
295.642
295.82
295.987
296.114
296.204
296.266
296.322
296.384
296.459
296.552
296.663
296.787
296.912
296.98
295.616
295.889
296.077
296.195
296.27
296.318
296.364
296.422
296.5
296.596
296.707
296.814
296.897
296.9
295.635
295.939
296.149
296.265
296.327
296.367
296.405
296.461
296.541
296.637
296.75
296.837
296.906
296.831
295.598
295.942
296.18
296.318
296.372
296.409
296.45
296.509
296.585
296.672
296.773
296.849
296.893
296.82
295.497
295.767
296.011
296.186
296.311
296.406
296.481
296.556
296.636
296.721
296.793
296.845
296.845
296.807
297.483
297.429
297.36
297.266
297.226
297.192
297.202
297.254
297.345
297.479
297.636
297.824
298.081
298.359
297.385
297.358
297.286
297.213
297.171
297.16
297.179
297.23
297.315
297.455
297.644
297.868
298.104
298.297
297.217
297.215
297.157
297.125
297.11
297.128
297.158
297.219
297.3
297.429
297.6
297.805
298.015
298.205
297.011
297.022
297.004
297.022
297.048
297.093
297.141
297.213
297.299
297.42
297.571
297.754
297.94
298.116
296.827
296.854
296.882
296.938
296.995
297.064
297.131
297.211
297.3
297.413
297.543
297.692
297.856
298.038
296.662
296.72
296.791
296.88
296.963
297.048
297.125
297.21
297.301
297.406
297.523
297.655
297.813
298.003
296.539
296.64
296.75
296.86
296.957
297.047
297.129
297.214
297.303
297.401
297.51
297.634
297.79
297.992
296.474
296.614
296.748
296.866
296.966
297.054
297.137
297.221
297.308
297.403
297.509
297.632
297.795
297.998
296.445
296.623
296.78
296.902
296.997
297.078
297.156
297.237
297.323
297.416
297.521
297.646
297.811
297.998
296.472
296.671
296.841
296.957
297.041
297.111
297.18
297.259
297.347
297.443
297.551
297.676
297.834
297.985
296.513
296.768
296.928
297.026
297.091
297.144
297.205
297.282
297.374
297.476
297.589
297.712
297.848
297.942
296.589
296.859
297.01
297.089
297.134
297.174
297.227
297.303
297.399
297.507
297.63
297.745
297.861
297.894
296.594
296.894
297.06
297.131
297.165
297.204
297.256
297.331
297.427
297.534
297.654
297.764
297.857
297.875
296.557
296.793
296.972
297.086
297.166
297.222
297.282
297.368
297.463
297.564
297.662
297.761
297.817
297.855
298.291
298.247
298.203
298.137
298.1
298.091
298.104
298.149
298.23
298.353
298.512
298.696
298.939
299.228
298.179
298.159
298.106
298.074
298.056
298.066
298.089
298.146
298.227
298.355
298.523
298.739
298.972
299.183
297.991
298
297.971
297.983
298.001
298.039
298.08
298.148
298.232
298.352
298.509
298.702
298.907
299.102
297.793
297.823
297.837
297.89
297.946
298.011
298.073
298.152
298.244
298.363
298.51
298.684
298.867
299.039
297.62
297.673
297.736
297.82
297.901
297.987
298.069
298.159
298.258
298.374
298.505
298.651
298.805
298.96
297.476
297.568
297.67
297.777
297.877
297.976
298.068
298.166
298.268
298.379
298.5
298.628
298.769
298.923
297.386
297.517
297.646
297.766
297.875
297.976
298.073
298.174
298.276
298.382
298.493
298.609
298.741
298.897
297.352
297.51
297.656
297.779
297.886
297.985
298.082
298.182
298.283
298.386
298.491
298.603
298.735
298.9
297.348
297.537
297.696
297.816
297.915
298.006
298.098
298.195
298.295
298.396
298.5
298.609
298.749
298.918
297.392
297.596
297.757
297.864
297.95
298.031
298.118
298.213
298.313
298.415
298.519
298.632
298.78
298.94
297.477
297.697
297.835
297.919
297.985
298.053
298.134
298.229
298.331
298.435
298.543
298.662
298.809
298.945
297.568
297.787
297.898
297.96
298.009
298.066
298.142
298.237
298.342
298.453
298.57
298.69
298.833
298.924
297.591
297.826
297.936
297.982
298.027
298.083
298.154
298.246
298.351
298.462
298.58
298.7
298.833
298.913
297.573
297.762
297.884
297.968
298.031
298.092
298.166
298.259
298.36
298.466
298.575
298.689
298.791
298.887
291.696
291.634
291.21
290.754
290.353
289.432
289.752
288.843
287.793
286.906
286.207
285.201
288.559
286.954
285.343
284.141
283.052
281.883
287.557
285.318
283.472
282.343
281.363
280.222
286.906
284.526
282.885
281.969
281.496
280.987
286.548
284.204
282.778
282.408
282.997
283.521
286.472
284.323
283.251
283.509
285.122
286.775
286.778
284.94
284.114
284.823
287.381
290.105
287.583
286.168
285.756
286.8
289.907
293.09
288.755
287.878
287.958
289.238
292.354
295.369
290.112
289.68
290.205
291.645
294.47
296.939
291.159
291.127
291.857
293.227
295.615
297.444
291.772
291.827
292.535
293.674
295.6
296.956
291.382
291.515
292.108
293.064
294.326
294.94
292.692
292.775
292.356
291.545
290.583
289.659
291.166
290.376
289.262
287.902
286.439
285.027
290.334
288.776
286.747
284.705
282.815
281.164
289.504
287.203
284.53
282.228
280.444
279.265
288.701
285.884
283.151
281.192
280.009
279.682
288.015
284.986
282.542
281.193
280.853
281.364
287.67
284.737
282.679
281.894
282.234
283.737
287.67
285.014
283.342
282.877
283.821
286.247
288.034
285.905
284.783
284.713
286.205
289.078
288.888
287.41
286.84
287.112
288.973
291.881
290.063
289.266
289.134
289.745
291.669
294.214
291.366
291.05
291.251
291.987
293.655
295.549
292.327
292.23
292.512
293.118
294.471
295.864
292.107
292.099
292.397
292.946
293.989
294.667
293.796
294.239
294.24
294.023
293.497
292.753
292.869
292.705
292.222
291.52
290.376
288.854
292.578
291.803
290.466
288.683
286.527
284.418
292.065
290.644
288.44
285.658
282.967
280.792
291.426
289.416
286.502
283.451
280.992
279.437
290.716
288.275
285.051
282.298
280.518
279.882
290.199
287.521
284.34
282.056
280.951
281.186
290.038
287.262
284.373
282.564
281.983
282.928
290.186
287.476
285.161
283.972
283.956
285.338
290.56
288.379
286.758
286.044
286.509
288.205
291.24
289.744
288.813
288.477
289.301
291.136
292.177
291.412
291.095
291.07
292.026
293.669
293.223
292.999
293.043
293.351
294.29
295.475
293.463
293.536
293.795
294.274
294.98
295.756
294.456
294.743
294.862
294.994
294.978
294.865
294.021
294.107
294.106
294.029
293.704
293.058
294.033
293.908
293.467
292.65
291.396
289.619
293.849
293.411
292.332
290.595
288.159
285.236
293.573
292.712
290.901
288.199
284.786
281.856
293.136
291.781
289.353
285.94
282.614
280.554
292.742
290.926
288.087
284.492
281.861
280.698
292.537
290.418
287.38
284.045
282.051
281.536
292.528
290.319
287.252
284.54
283.278
283.34
292.63
290.471
287.912
285.974
285.294
285.815
292.878
291.088
289.198
288.015
287.874
288.621
293.329
292.122
291.036
290.443
290.616
291.54
293.993
293.479
293.14