/*--------------------------------*- C++ -*----------------------------------*\
| =========                 |                                                 |
| \\      /  F ield         | OpenFOAM: The Open Source CFD Toolbox           |
|  \\    /   O peration     | Version:  v2106                                 |
|   \\  /    A nd           | Website:  www.openfoam.com                      |
|    \\/     M anipulation  |                                                 |
\*---------------------------------------------------------------------------*/
FoamFile
{
    version     2.0;
    format      ascii;
    arch        "LSB;label=32;scalar=64";
    class       volScalarField;
    location    "0.000209";
    object      k;
}
// * * * * * * * * * * * * * * * * * * * * * * * * * * * * * * * * * * * * * //

dimensions      [0 2 -2 0 0 0 0];

internalField   nonuniform List<scalar> 
17920
(
2.08225e-12
2.08227e-12
2.08239e-12
2.08242e-12
2.08255e-12
2.08258e-12
2.08273e-12
2.08275e-12
2.08293e-12
2.08294e-12
2.08315e-12
2.08314e-12
2.08338e-12
2.08337e-12
2.08363e-12
2.08362e-12
2.08389e-12
2.08388e-12
2.08417e-12
2.08416e-12
2.08447e-12
2.08445e-12
2.08478e-12
2.08476e-12
2.08509e-12
2.08507e-12
2.08542e-12
2.08541e-12
2.08279e-12
2.08266e-12
2.08256e-12
2.08246e-12
2.08237e-12
2.08229e-12
2.08222e-12
2.08215e-12
2.08209e-12
2.08204e-12
2.08199e-12
2.08195e-12
2.0819e-12
2.08187e-12
2.08289e-12
2.08277e-12
2.08267e-12
2.08256e-12
2.08246e-12
2.08237e-12
2.0823e-12
2.08222e-12
2.08216e-12
2.0821e-12
2.08205e-12
2.082e-12
2.08195e-12
2.08191e-12
2.08298e-12
2.08286e-12
2.08276e-12
2.08265e-12
2.08255e-12
2.08246e-12
2.08238e-12
2.08231e-12
2.08224e-12
2.08217e-12
2.08212e-12
2.08206e-12
2.08201e-12
2.08197e-12
2.08308e-12
2.08296e-12
2.08286e-12
2.08275e-12
2.08265e-12
2.08256e-12
2.08247e-12
2.08239e-12
2.08232e-12
2.08225e-12
2.08219e-12
2.08214e-12
2.08208e-12
2.08203e-12
2.08318e-12
2.08306e-12
2.08296e-12
2.08285e-12
2.08276e-12
2.08266e-12
2.08258e-12
2.0825e-12
2.08242e-12
2.08235e-12
2.08228e-12
2.08222e-12
2.08215e-12
2.0821e-12
2.08329e-12
2.08317e-12
2.08307e-12
2.08297e-12
2.08287e-12
2.08278e-12
2.08269e-12
2.0826e-12
2.08252e-12
2.08245e-12
2.08238e-12
2.08231e-12
2.08225e-12
2.08219e-12
2.08339e-12
2.08328e-12
2.08318e-12
2.08308e-12
2.08299e-12
2.0829e-12
2.08281e-12
2.08272e-12
2.08264e-12
2.08256e-12
2.08249e-12
2.08242e-12
2.08235e-12
2.08229e-12
2.08351e-12
2.08341e-12
2.08331e-12
2.08321e-12
2.08311e-12
2.08302e-12
2.08293e-12
2.08285e-12
2.08276e-12
2.08268e-12
2.08261e-12
2.08254e-12
2.08247e-12
2.0824e-12
2.08363e-12
2.08353e-12
2.08344e-12
2.08334e-12
2.08325e-12
2.08316e-12
2.08307e-12
2.08298e-12
2.0829e-12
2.08282e-12
2.08274e-12
2.08267e-12
2.0826e-12
2.08252e-12
2.08376e-12
2.08367e-12
2.08357e-12
2.08348e-12
2.08339e-12
2.0833e-12
2.08321e-12
2.08313e-12
2.08304e-12
2.08296e-12
2.08289e-12
2.08281e-12
2.08274e-12
2.08266e-12
2.08388e-12
2.08381e-12
2.08371e-12
2.08362e-12
2.08354e-12
2.08345e-12
2.08336e-12
2.08328e-12
2.0832e-12
2.08312e-12
2.08304e-12
2.08295e-12
2.08289e-12
2.0828e-12
2.08402e-12
2.08395e-12
2.08386e-12
2.08378e-12
2.08369e-12
2.08361e-12
2.08352e-12
2.08344e-12
2.08336e-12
2.08327e-12
2.08319e-12
2.08311e-12
2.08305e-12
2.08295e-12
2.08417e-12
2.0841e-12
2.08402e-12
2.08393e-12
2.08385e-12
2.08377e-12
2.08369e-12
2.08361e-12
2.08352e-12
2.08344e-12
2.08336e-12
2.08327e-12
2.08321e-12
2.08312e-12
2.08433e-12
2.08426e-12
2.08417e-12
2.08409e-12
2.08402e-12
2.08394e-12
2.08386e-12
2.08378e-12
2.0837e-12
2.08362e-12
2.08354e-12
2.08345e-12
2.08338e-12
2.0833e-12
2.08285e-12
2.08271e-12
2.08259e-12
2.08248e-12
2.08237e-12
2.08228e-12
2.08218e-12
2.08209e-12
2.082e-12
2.08192e-12
2.08184e-12
2.08176e-12
2.08168e-12
2.08161e-12
2.08287e-12
2.08274e-12
2.08262e-12
2.0825e-12
2.08239e-12
2.08229e-12
2.08219e-12
2.08209e-12
2.082e-12
2.08191e-12
2.08183e-12
2.08174e-12
2.08166e-12
2.08158e-12
2.08289e-12
2.08276e-12
2.08264e-12
2.08252e-12
2.08241e-12
2.08231e-12
2.0822e-12
2.0821e-12
2.08201e-12
2.08191e-12
2.08182e-12
2.08173e-12
2.08165e-12
2.08156e-12
2.08291e-12
2.08278e-12
2.08266e-12
2.08254e-12
2.08243e-12
2.08232e-12
2.08222e-12
2.08211e-12
2.08201e-12
2.08191e-12
2.08182e-12
2.08173e-12
2.08164e-12
2.08155e-12
2.08292e-12
2.0828e-12
2.08268e-12
2.08257e-12
2.08245e-12
2.08234e-12
2.08223e-12
2.08212e-12
2.08202e-12
2.08192e-12
2.08182e-12
2.08172e-12
2.08162e-12
2.08153e-12
2.08294e-12
2.08282e-12
2.08271e-12
2.08259e-12
2.08248e-12
2.08236e-12
2.08225e-12
2.08214e-12
2.08203e-12
2.08192e-12
2.08182e-12
2.08172e-12
2.08162e-12
2.08152e-12
2.08295e-12
2.08284e-12
2.08273e-12
2.08261e-12
2.0825e-12
2.08238e-12
2.08227e-12
2.08216e-12
2.08205e-12
2.08193e-12
2.08183e-12
2.08172e-12
2.08162e-12
2.08151e-12
2.08298e-12
2.08286e-12
2.08275e-12
2.08264e-12
2.08252e-12
2.08241e-12
2.08229e-12
2.08218e-12
2.08206e-12
2.08195e-12
2.08184e-12
2.08173e-12
2.08162e-12
2.08151e-12
2.083e-12
2.08289e-12
2.08278e-12
2.08267e-12
2.08255e-12
2.08243e-12
2.08232e-12
2.0822e-12
2.08208e-12
2.08196e-12
2.08185e-12
2.08173e-12
2.08162e-12
2.08151e-12
2.08303e-12
2.08292e-12
2.08281e-12
2.08269e-12
2.08258e-12
2.08246e-12
2.08234e-12
2.08222e-12
2.0821e-12
2.08198e-12
2.08187e-12
2.08175e-12
2.08163e-12
2.08152e-12
2.08305e-12
2.08295e-12
2.08284e-12
2.08272e-12
2.08261e-12
2.08249e-12
2.08237e-12
2.08225e-12
2.08213e-12
2.08201e-12
2.08188e-12
2.08176e-12
2.08164e-12
2.08152e-12
2.08309e-12
2.08299e-12
2.08287e-12
2.08276e-12
2.08264e-12
2.08252e-12
2.0824e-12
2.08228e-12
2.08215e-12
2.08203e-12
2.0819e-12
2.08178e-12
2.08166e-12
2.08153e-12
2.08312e-12
2.08301e-12
2.0829e-12
2.08279e-12
2.08267e-12
2.08255e-12
2.08243e-12
2.08231e-12
2.08219e-12
2.08206e-12
2.08193e-12
2.0818e-12
2.08168e-12
2.08154e-12
2.08314e-12
2.08304e-12
2.08293e-12
2.08282e-12
2.08271e-12
2.08259e-12
2.08247e-12
2.08235e-12
2.08222e-12
2.0821e-12
2.08197e-12
2.08184e-12
2.08171e-12
2.08158e-12
2.0826e-12
2.08247e-12
2.08236e-12
2.08225e-12
2.08214e-12
2.08203e-12
2.08192e-12
2.08181e-12
2.08171e-12
2.08159e-12
2.08149e-12
2.08138e-12
2.08128e-12
2.08117e-12
2.08256e-12
2.08243e-12
2.08232e-12
2.0822e-12
2.08209e-12
2.08198e-12
2.08187e-12
2.08176e-12
2.08165e-12
2.08153e-12
2.08143e-12
2.08131e-12
2.08121e-12
2.0811e-12
2.08249e-12
2.08237e-12
2.08226e-12
2.08215e-12
2.08204e-12
2.08193e-12
2.08182e-12
2.0817e-12
2.08159e-12
2.08147e-12
2.08136e-12
2.08124e-12
2.08113e-12
2.08102e-12
2.08244e-12
2.08232e-12
2.08221e-12
2.08209e-12
2.08198e-12
2.08187e-12
2.08175e-12
2.08164e-12
2.08152e-12
2.0814e-12
2.08129e-12
2.08117e-12
2.08106e-12
2.08094e-12
2.08237e-12
2.08226e-12
2.08215e-12
2.08204e-12
2.08192e-12
2.08181e-12
2.08169e-12
2.08157e-12
2.08146e-12
2.08133e-12
2.08122e-12
2.08109e-12
2.08098e-12
2.08086e-12
2.0823e-12
2.0822e-12
2.08209e-12
2.08198e-12
2.08186e-12
2.08175e-12
2.08163e-12
2.08151e-12
2.08139e-12
2.08126e-12
2.08114e-12
2.08102e-12
2.0809e-12
2.08077e-12
2.08224e-12
2.08214e-12
2.08203e-12
2.08192e-12
2.0818e-12
2.08168e-12
2.08156e-12
2.08144e-12
2.08131e-12
2.08119e-12
2.08106e-12
2.08094e-12
2.08081e-12
2.08068e-12
2.08217e-12
2.08207e-12
2.08196e-12
2.08185e-12
2.08173e-12
2.08161e-12
2.08149e-12
2.08136e-12
2.08124e-12
2.08111e-12
2.08098e-12
2.08085e-12
2.08072e-12
2.08059e-12
2.0821e-12
2.082e-12
2.08189e-12
2.08178e-12
2.08166e-12
2.08154e-12
2.08141e-12
2.08128e-12
2.08115e-12
2.08102e-12
2.08089e-12
2.08076e-12
2.08063e-12
2.0805e-12
2.08203e-12
2.08193e-12
2.08182e-12
2.0817e-12
2.08158e-12
2.08146e-12
2.08133e-12
2.0812e-12
2.08107e-12
2.08094e-12
2.0808e-12
2.08067e-12
2.08053e-12
2.08041e-12
2.08196e-12
2.08186e-12
2.08175e-12
2.08163e-12
2.08151e-12
2.08138e-12
2.08125e-12
2.08112e-12
2.08098e-12
2.08085e-12
2.08071e-12
2.08057e-12
2.08043e-12
2.08031e-12
2.08189e-12
2.08178e-12
2.08167e-12
2.08155e-12
2.08143e-12
2.0813e-12
2.08117e-12
2.08104e-12
2.0809e-12
2.08076e-12
2.08062e-12
2.08048e-12
2.08034e-12
2.08021e-12
2.08181e-12
2.0817e-12
2.08159e-12
2.08147e-12
2.08135e-12
2.08122e-12
2.08108e-12
2.08095e-12
2.0808e-12
2.08066e-12
2.08052e-12
2.08038e-12
2.08024e-12
2.0801e-12
2.08173e-12
2.08162e-12
2.0815e-12
2.08138e-12
2.08126e-12
2.08113e-12
2.08099e-12
2.08086e-12
2.08072e-12
2.08058e-12
2.08044e-12
2.0803e-12
2.08015e-12
2.08002e-12
2.08172e-12
2.08162e-12
2.08152e-12
2.08142e-12
2.08133e-12
2.08122e-12
2.08111e-12
2.081e-12
2.08088e-12
2.08076e-12
2.08065e-12
2.08052e-12
2.08041e-12
2.08028e-12
2.08161e-12
2.08151e-12
2.08141e-12
2.08132e-12
2.08122e-12
2.08111e-12
2.081e-12
2.08089e-12
2.08077e-12
2.08065e-12
2.08053e-12
2.0804e-12
2.08029e-12
2.08016e-12
2.08147e-12
2.08138e-12
2.08129e-12
2.0812e-12
2.0811e-12
2.08099e-12
2.08089e-12
2.08077e-12
2.08066e-12
2.08053e-12
2.08041e-12
2.08029e-12
2.08017e-12
2.08005e-12
2.08135e-12
2.08126e-12
2.08117e-12
2.08107e-12
2.08097e-12
2.08087e-12
2.08076e-12
2.08065e-12
2.08053e-12
2.08041e-12
2.08029e-12
2.08016e-12
2.08004e-12
2.07992e-12
2.08122e-12
2.08113e-12
2.08104e-12
2.08095e-12
2.08085e-12
2.08074e-12
2.08063e-12
2.08052e-12
2.0804e-12
2.08028e-12
2.08016e-12
2.08003e-12
2.07991e-12
2.07978e-12
2.08108e-12
2.081e-12
2.08091e-12
2.08081e-12
2.08071e-12
2.08061e-12
2.0805e-12
2.08038e-12
2.08026e-12
2.08014e-12
2.08002e-12
2.07989e-12
2.07977e-12
2.07964e-12
2.08095e-12
2.08087e-12
2.08077e-12
2.08068e-12
2.08057e-12
2.08047e-12
2.08035e-12
2.08024e-12
2.08012e-12
2.08e-12
2.07988e-12
2.07975e-12
2.07963e-12
2.0795e-12
2.08081e-12
2.08072e-12
2.08063e-12
2.08053e-12
2.08043e-12
2.08032e-12
2.08021e-12
2.08009e-12
2.07997e-12
2.07985e-12
2.07973e-12
2.0796e-12
2.07947e-12
2.07934e-12
2.08066e-12
2.08058e-12
2.08049e-12
2.08039e-12
2.08028e-12
2.08017e-12
2.08006e-12
2.07994e-12
2.07982e-12
2.07969e-12
2.07957e-12
2.07944e-12
2.07931e-12
2.07919e-12
2.08052e-12
2.08043e-12
2.08033e-12
2.08023e-12
2.08012e-12
2.08001e-12
2.0799e-12
2.07978e-12
2.07966e-12
2.07953e-12
2.0794e-12
2.07928e-12
2.07915e-12
2.07903e-12
2.08037e-12
2.08027e-12
2.08018e-12
2.08007e-12
2.07997e-12
2.07985e-12
2.07974e-12
2.07961e-12
2.07949e-12
2.07936e-12
2.07923e-12
2.07911e-12
2.07897e-12
2.07886e-12
2.08021e-12
2.08011e-12
2.08001e-12
2.07991e-12
2.0798e-12
2.07969e-12
2.07957e-12
2.07945e-12
2.07932e-12
2.0792e-12
2.07906e-12
2.07894e-12
2.0788e-12
2.07869e-12
2.08006e-12
2.07995e-12
2.07985e-12
2.07975e-12
2.07964e-12
2.07952e-12
2.0794e-12
2.07927e-12
2.07914e-12
2.07902e-12
2.07888e-12
2.07876e-12
2.07862e-12
2.07852e-12
2.07989e-12
2.07978e-12
2.07968e-12
2.07957e-12
2.07946e-12
2.07934e-12
2.07922e-12
2.0791e-12
2.07898e-12
2.07885e-12
2.07872e-12
2.07859e-12
2.07846e-12
2.07836e-12
2.07989e-12
2.07982e-12
2.07976e-12
2.07969e-12
2.07962e-12
2.07954e-12
2.07945e-12
2.07936e-12
2.07926e-12
2.07915e-12
2.07905e-12
2.07894e-12
2.07883e-12
2.07872e-12
2.07973e-12
2.07967e-12
2.07961e-12
2.07954e-12
2.07947e-12
2.07939e-12
2.0793e-12
2.07921e-12
2.07911e-12
2.079e-12
2.0789e-12
2.07879e-12
2.07868e-12
2.07857e-12
2.07956e-12
2.07951e-12
2.07945e-12
2.07938e-12
2.07931e-12
2.07923e-12
2.07915e-12
2.07905e-12
2.07896e-12
2.07885e-12
2.07875e-12
2.07864e-12
2.07854e-12
2.07843e-12
2.07939e-12
2.07934e-12
2.07928e-12
2.07922e-12
2.07915e-12
2.07907e-12
2.07898e-12
2.07889e-12
2.07879e-12
2.07869e-12
2.07859e-12
2.07848e-12
2.07838e-12
2.07827e-12
2.07922e-12
2.07918e-12
2.07911e-12
2.07905e-12
2.07898e-12
2.0789e-12
2.07881e-12
2.07872e-12
2.07863e-12
2.07853e-12
2.07843e-12
2.07832e-12
2.07822e-12
2.07812e-12
2.07905e-12
2.079e-12
2.07894e-12
2.07887e-12
2.0788e-12
2.07872e-12
2.07864e-12
2.07854e-12
2.07845e-12
2.07835e-12
2.07826e-12
2.07815e-12
2.07805e-12
2.07795e-12
2.07888e-12
2.07883e-12
2.07876e-12
2.07869e-12
2.07862e-12
2.07854e-12
2.07845e-12
2.07836e-12
2.07827e-12
2.07818e-12
2.07808e-12
2.07798e-12
2.07788e-12
2.07778e-12
2.0787e-12
2.07864e-12
2.07858e-12
2.07851e-12
2.07843e-12
2.07835e-12
2.07827e-12
2.07818e-12
2.07809e-12
2.07799e-12
2.07789e-12
2.0778e-12
2.0777e-12
2.0776e-12
2.07852e-12
2.07846e-12
2.07839e-12
2.07832e-12
2.07824e-12
2.07816e-12
2.07807e-12
2.07799e-12
2.07789e-12
2.0778e-12
2.0777e-12
2.07761e-12
2.07751e-12
2.07742e-12
2.07833e-12
2.07827e-12
2.0782e-12
2.07812e-12
2.07805e-12
2.07796e-12
2.07788e-12
2.07779e-12
2.0777e-12
2.07761e-12
2.07751e-12
2.07741e-12
2.07731e-12
2.07723e-12
2.07815e-12
2.07807e-12
2.078e-12
2.07793e-12
2.07785e-12
2.07777e-12
2.07768e-12
2.07759e-12
2.0775e-12
2.07741e-12
2.07731e-12
2.07722e-12
2.07712e-12
2.07704e-12
2.07794e-12
2.07787e-12
2.0778e-12
2.07772e-12
2.07765e-12
2.07756e-12
2.07748e-12
2.07739e-12
2.0773e-12
2.07721e-12
2.07711e-12
2.07702e-12
2.07692e-12
2.07685e-12
2.07776e-12
2.07768e-12
2.07761e-12
2.07753e-12
2.07745e-12
2.07736e-12
2.07728e-12
2.07719e-12
2.07709e-12
2.077e-12
2.0769e-12
2.07681e-12
2.07672e-12
2.07665e-12
2.07756e-12
2.07747e-12
2.0774e-12
2.07732e-12
2.07724e-12
2.07715e-12
2.07707e-12
2.07698e-12
2.0769e-12
2.0768e-12
2.07671e-12
2.07662e-12
2.07653e-12
2.07646e-12
2.07703e-12
2.07701e-12
2.07699e-12
2.07696e-12
2.07693e-12
2.07689e-12
2.07684e-12
2.07679e-12
2.07673e-12
2.07667e-12
2.0766e-12
2.07653e-12
2.07647e-12
2.07639e-12
2.07686e-12
2.07686e-12
2.07684e-12
2.07681e-12
2.07678e-12
2.07674e-12
2.07669e-12
2.07664e-12
2.07658e-12
2.07652e-12
2.07645e-12
2.07638e-12
2.07632e-12
2.07624e-12
2.0767e-12
2.0767e-12
2.07668e-12
2.07665e-12
2.07662e-12
2.07658e-12
2.07653e-12
2.07648e-12
2.07643e-12
2.07637e-12
2.07631e-12
2.07624e-12
2.07618e-12
2.0761e-12
2.07654e-12
2.07654e-12
2.07652e-12
2.07649e-12
2.07646e-12
2.07642e-12
2.07637e-12
2.07632e-12
2.07627e-12
2.07621e-12
2.07615e-12
2.07609e-12
2.07603e-12
2.07596e-12
2.07638e-12
2.07638e-12
2.07635e-12
2.07632e-12
2.07629e-12
2.07625e-12
2.07621e-12
2.07616e-12
2.07611e-12
2.07605e-12
2.07599e-12
2.07593e-12
2.07588e-12
2.07581e-12
2.07622e-12
2.07621e-12
2.07618e-12
2.07615e-12
2.07612e-12
2.07608e-12
2.07604e-12
2.07599e-12
2.07594e-12
2.07588e-12
2.07583e-12
2.07577e-12
2.07572e-12
2.07565e-12
2.07606e-12
2.07604e-12
2.07601e-12
2.07598e-12
2.07594e-12
2.07591e-12
2.07586e-12
2.07582e-12
2.07577e-12
2.07572e-12
2.07566e-12
2.07561e-12
2.07555e-12
2.07549e-12
2.07589e-12
2.07586e-12
2.07584e-12
2.0758e-12
2.07577e-12
2.07573e-12
2.07569e-12
2.07564e-12
2.07559e-12
2.07554e-12
2.07549e-12
2.07544e-12
2.07538e-12
2.07533e-12
2.07572e-12
2.07569e-12
2.07566e-12
2.07562e-12
2.07559e-12
2.07555e-12
2.07551e-12
2.07546e-12
2.07542e-12
2.07537e-12
2.07532e-12
2.07527e-12
2.07521e-12
2.07517e-12
2.07554e-12
2.07551e-12
2.07548e-12
2.07544e-12
2.07541e-12
2.07537e-12
2.07533e-12
2.07528e-12
2.07524e-12
2.07519e-12
2.07514e-12
2.07509e-12
2.07504e-12
2.075e-12
2.07537e-12
2.07533e-12
2.0753e-12
2.07526e-12
2.07522e-12
2.07518e-12
2.07514e-12
2.0751e-12
2.07505e-12
2.07501e-12
2.07496e-12
2.07492e-12
2.07487e-12
2.07484e-12
2.07519e-12
2.07514e-12
2.07511e-12
2.07508e-12
2.07504e-12
2.075e-12
2.07496e-12
2.07492e-12
2.07487e-12
2.07483e-12
2.07478e-12
2.07474e-12
2.07469e-12
2.07467e-12
2.07502e-12
2.07497e-12
2.07494e-12
2.0749e-12
2.07486e-12
2.07482e-12
2.07478e-12
2.07474e-12
2.07469e-12
2.07465e-12
2.0746e-12
2.07456e-12
2.07452e-12
2.0745e-12
2.07483e-12
2.07478e-12
2.07474e-12
2.07471e-12
2.07468e-12
2.07464e-12
2.0746e-12
2.07456e-12
2.07452e-12
2.07447e-12
2.07443e-12
2.07438e-12
2.07434e-12
2.07433e-12
2.07338e-12
2.0734e-12
2.07341e-12
2.07343e-12
2.07344e-12
2.07345e-12
2.07345e-12
2.07345e-12
2.07345e-12
2.07344e-12
2.07342e-12
2.07341e-12
2.07339e-12
2.07337e-12
2.07327e-12
2.0733e-12
2.07331e-12
2.07333e-12
2.07334e-12
2.07335e-12
2.07335e-12
2.07334e-12
2.07334e-12
2.07333e-12
2.07332e-12
2.0733e-12
2.07328e-12
2.07325e-12
2.07316e-12
2.07319e-12
2.0732e-12
2.07322e-12
2.07323e-12
2.07323e-12
2.07324e-12
2.07324e-12
2.07323e-12
2.07322e-12
2.07321e-12
2.0732e-12
2.07318e-12
2.07316e-12
2.07305e-12
2.07308e-12
2.07309e-12
2.07311e-12
2.07312e-12
2.07312e-12
2.07312e-12
2.07312e-12
2.07312e-12
2.07311e-12
2.0731e-12
2.07309e-12
2.07308e-12
2.07305e-12
2.07294e-12
2.07297e-12
2.07298e-12
2.07299e-12
2.073e-12
2.073e-12
2.07301e-12
2.07301e-12
2.073e-12
2.073e-12
2.07299e-12
2.07298e-12
2.07297e-12
2.07295e-12
2.07283e-12
2.07285e-12
2.07286e-12
2.07287e-12
2.07288e-12
2.07289e-12
2.07289e-12
2.07289e-12
2.07289e-12
2.07288e-12
2.07288e-12
2.07287e-12
2.07286e-12
2.07284e-12
2.07271e-12
2.07273e-12
2.07274e-12
2.07275e-12
2.07276e-12
2.07276e-12
2.07277e-12
2.07277e-12
2.07277e-12
2.07277e-12
2.07276e-12
2.07276e-12
2.07275e-12
2.07273e-12
2.0726e-12
2.07261e-12
2.07262e-12
2.07263e-12
2.07264e-12
2.07264e-12
2.07265e-12
2.07265e-12
2.07265e-12
2.07265e-12
2.07264e-12
2.07264e-12
2.07263e-12
2.07262e-12
2.07248e-12
2.07248e-12
2.0725e-12
2.07251e-12
2.07251e-12
2.07252e-12
2.07252e-12
2.07253e-12
2.07253e-12
2.07253e-12
2.07252e-12
2.07252e-12
2.07251e-12
2.07252e-12
2.07236e-12
2.07236e-12
2.07237e-12
2.07238e-12
2.07239e-12
2.07239e-12
2.0724e-12
2.0724e-12
2.0724e-12
2.07241e-12
2.0724e-12
2.0724e-12
2.0724e-12
2.0724e-12
2.07224e-12
2.07223e-12
2.07225e-12
2.07226e-12
2.07226e-12
2.07227e-12
2.07227e-12
2.07228e-12
2.07228e-12
2.07228e-12
2.07228e-12
2.07228e-12
2.07228e-12
2.07229e-12
2.07212e-12
2.07211e-12
2.07212e-12
2.07213e-12
2.07214e-12
2.07215e-12
2.07215e-12
2.07215e-12
2.07216e-12
2.07216e-12
2.07216e-12
2.07216e-12
2.07216e-12
2.07218e-12
2.072e-12
2.07199e-12
2.072e-12
2.07201e-12
2.07202e-12
2.07202e-12
2.07203e-12
2.07203e-12
2.07203e-12
2.07204e-12
2.07204e-12
2.07204e-12
2.07205e-12
2.07207e-12
2.07188e-12
2.07187e-12
2.07188e-12
2.07189e-12
2.07189e-12
2.0719e-12
2.0719e-12
2.07191e-12
2.07191e-12
2.07192e-12
2.07192e-12
2.07192e-12
2.07193e-12
2.07194e-12
2.06938e-12
2.06943e-12
2.06947e-12
2.06951e-12
2.06956e-12
2.0696e-12
2.06964e-12
2.06968e-12
2.06971e-12
2.06974e-12
2.06977e-12
2.0698e-12
2.06982e-12
2.06984e-12
2.06934e-12
2.06939e-12
2.06943e-12
2.06948e-12
2.06952e-12
2.06956e-12
2.0696e-12
2.06964e-12
2.06967e-12
2.0697e-12
2.06973e-12
2.06976e-12
2.06978e-12
2.06979e-12
2.0693e-12
2.06935e-12
2.0694e-12
2.06944e-12
2.06948e-12
2.06952e-12
2.06956e-12
2.0696e-12
2.06963e-12
2.06967e-12
2.0697e-12
2.06972e-12
2.06975e-12
2.06976e-12
2.06926e-12
2.06931e-12
2.06936e-12
2.0694e-12
2.06944e-12
2.06948e-12
2.06952e-12
2.06956e-12
2.06959e-12
2.06962e-12
2.06965e-12
2.06968e-12
2.0697e-12
2.06972e-12
2.06923e-12
2.06927e-12
2.06931e-12
2.06936e-12
2.0694e-12
2.06944e-12
2.06948e-12
2.06951e-12
2.06955e-12
2.06958e-12
2.06961e-12
2.06964e-12
2.06966e-12
2.06968e-12
2.06918e-12
2.06923e-12
2.06927e-12
2.06931e-12
2.06935e-12
2.06939e-12
2.06943e-12
2.06947e-12
2.0695e-12
2.06953e-12
2.06957e-12
2.06959e-12
2.06962e-12
2.06964e-12
2.06913e-12
2.06918e-12
2.06922e-12
2.06926e-12
2.06931e-12
2.06935e-12
2.06938e-12
2.06942e-12
2.06946e-12
2.06949e-12
2.06952e-12
2.06955e-12
2.06957e-12
2.06959e-12
2.06909e-12
2.06913e-12
2.06917e-12
2.06922e-12
2.06926e-12
2.0693e-12
2.06934e-12
2.06937e-12
2.06941e-12
2.06944e-12
2.06947e-12
2.0695e-12
2.06953e-12
2.06955e-12
2.06904e-12
2.06908e-12
2.06912e-12
2.06916e-12
2.06921e-12
2.06925e-12
2.06929e-12
2.06932e-12
2.06936e-12
2.06939e-12
2.06942e-12
2.06945e-12
2.06948e-12
2.06951e-12
2.06898e-12
2.06902e-12
2.06907e-12
2.06911e-12
2.06915e-12
2.0692e-12
2.06923e-12
2.06927e-12
2.06931e-12
2.06934e-12
2.06937e-12
2.06941e-12
2.06943e-12
2.06946e-12
2.06893e-12
2.06897e-12
2.06902e-12
2.06906e-12
2.0691e-12
2.06914e-12
2.06918e-12
2.06922e-12
2.06925e-12
2.06929e-12
2.06932e-12
2.06936e-12
2.06938e-12
2.06942e-12
2.06888e-12
2.06892e-12
2.06897e-12
2.06901e-12
2.06905e-12
2.06909e-12
2.06913e-12
2.06917e-12
2.0692e-12
2.06924e-12
2.06927e-12
2.06931e-12
2.06934e-12
2.06937e-12
2.06883e-12
2.06887e-12
2.06891e-12
2.06895e-12
2.069e-12
2.06904e-12
2.06907e-12
2.06911e-12
2.06915e-12
2.06918e-12
2.06922e-12
2.06925e-12
2.06929e-12
2.06933e-12
2.06878e-12
2.06882e-12
2.06886e-12
2.0689e-12
2.06894e-12
2.06898e-12
2.06902e-12
2.06906e-12
2.06909e-12
2.06913e-12
2.06916e-12
2.0692e-12
2.06923e-12
2.06927e-12
2.06541e-12
2.06545e-12
2.06551e-12
2.06556e-12
2.06561e-12
2.06567e-12
2.06572e-12
2.06577e-12
2.06582e-12
2.06587e-12
2.06592e-12
2.06597e-12
2.06601e-12
2.06605e-12
2.06542e-12
2.06547e-12
2.06553e-12
2.06558e-12
2.06563e-12
2.06569e-12
2.06574e-12
2.0658e-12
2.06585e-12
2.0659e-12
2.06594e-12
2.06599e-12
2.06603e-12
2.06607e-12
2.06545e-12
2.0655e-12
2.06555e-12
2.06561e-12
2.06566e-12
2.06571e-12
2.06577e-12
2.06582e-12
2.06587e-12
2.06592e-12
2.06596e-12
2.06601e-12
2.06605e-12
2.06608e-12
2.06546e-12
2.06552e-12
2.06557e-12
2.06563e-12
2.06568e-12
2.06574e-12
2.06579e-12
2.06584e-12
2.06589e-12
2.06594e-12
2.06599e-12
2.06603e-12
2.06607e-12
2.0661e-12
2.06548e-12
2.06554e-12
2.06559e-12
2.06565e-12
2.0657e-12
2.06576e-12
2.06581e-12
2.06586e-12
2.06591e-12
2.06596e-12
2.066e-12
2.06605e-12
2.06609e-12
2.06612e-12
2.0655e-12
2.06555e-12
2.06561e-12
2.06567e-12
2.06572e-12
2.06578e-12
2.06583e-12
2.06588e-12
2.06593e-12
2.06598e-12
2.06602e-12
2.06606e-12
2.0661e-12
2.06614e-12
2.06551e-12
2.06557e-12
2.06563e-12
2.06568e-12
2.06574e-12
2.06579e-12
2.06585e-12
2.0659e-12
2.06595e-12
2.06599e-12
2.06604e-12
2.06608e-12
2.06612e-12
2.06615e-12
2.06552e-12
2.06558e-12
2.06564e-12
2.0657e-12
2.06575e-12
2.06581e-12
2.06586e-12
2.06591e-12
2.06596e-12
2.06601e-12
2.06605e-12
2.06609e-12
2.06613e-12
2.06617e-12
2.06553e-12
2.06559e-12
2.06565e-12
2.06571e-12
2.06576e-12
2.06582e-12
2.06587e-12
2.06592e-12
2.06597e-12
2.06602e-12
2.06606e-12
2.06611e-12
2.06615e-12
2.06618e-12
2.06554e-12
2.0656e-12
2.06566e-12
2.06572e-12
2.06577e-12
2.06583e-12
2.06588e-12
2.06593e-12
2.06598e-12
2.06603e-12
2.06608e-12
2.06612e-12
2.06616e-12
2.0662e-12
2.06555e-12
2.06561e-12
2.06567e-12
2.06573e-12
2.06578e-12
2.06584e-12
2.06589e-12
2.06594e-12
2.06599e-12
2.06604e-12
2.06608e-12
2.06613e-12
2.06617e-12
2.06621e-12
2.06555e-12
2.06561e-12
2.06567e-12
2.06573e-12
2.06579e-12
2.06584e-12
2.0659e-12
2.06595e-12
2.066e-12
2.06605e-12
2.06609e-12
2.06613e-12
2.06618e-12
2.06622e-12
2.06556e-12
2.06562e-12
2.06568e-12
2.06573e-12
2.06579e-12
2.06585e-12
2.0659e-12
2.06595e-12
2.066e-12
2.06605e-12
2.0661e-12
2.06614e-12
2.06618e-12
2.06623e-12
2.06557e-12
2.06562e-12
2.06568e-12
2.06574e-12
2.06579e-12
2.06585e-12
2.0659e-12
2.06595e-12
2.066e-12
2.06605e-12
2.0661e-12
2.06614e-12
2.06619e-12
2.06623e-12
2.06165e-12
2.06169e-12
2.06173e-12
2.06177e-12
2.06182e-12
2.06187e-12
2.06191e-12
2.06196e-12
2.062e-12
2.06205e-12
2.06209e-12
2.06213e-12
2.06217e-12
2.06222e-12
2.0617e-12
2.06174e-12
2.06178e-12
2.06183e-12
2.06187e-12
2.06192e-12
2.06197e-12
2.06202e-12
2.06206e-12
2.0621e-12
2.06215e-12
2.06219e-12
2.06223e-12
2.06227e-12
2.06175e-12
2.06179e-12
2.06184e-12
2.06188e-12
2.06193e-12
2.06198e-12
2.06203e-12
2.06207e-12
2.06212e-12
2.06216e-12
2.0622e-12
2.06224e-12
2.06228e-12
2.06232e-12
2.0618e-12
2.06184e-12
2.06189e-12
2.06194e-12
2.06199e-12
2.06203e-12
2.06208e-12
2.06213e-12
2.06217e-12
2.06221e-12
2.06225e-12
2.06229e-12
2.06233e-12
2.06237e-12
2.06185e-12
2.06189e-12
2.06194e-12
2.06199e-12
2.06204e-12
2.06209e-12
2.06214e-12
2.06218e-12
2.06222e-12
2.06227e-12
2.06231e-12
2.06235e-12
2.06238e-12
2.06242e-12
2.06189e-12
2.06194e-12
2.06199e-12
2.06204e-12
2.06209e-12
2.06214e-12
2.06219e-12
2.06223e-12
2.06228e-12
2.06232e-12
2.06236e-12
2.0624e-12
2.06243e-12
2.06247e-12
2.06194e-12
2.06199e-12
2.06204e-12
2.06209e-12
2.06214e-12
2.06219e-12
2.06224e-12
2.06229e-12
2.06233e-12
2.06237e-12
2.06241e-12
2.06245e-12
2.06248e-12
2.06251e-12
2.06199e-12
2.06204e-12
2.06209e-12
2.06214e-12
2.06219e-12
2.06224e-12
2.06229e-12
2.06233e-12
2.06238e-12
2.06242e-12
2.06246e-12
2.0625e-12
2.06253e-12
2.06256e-12
2.06203e-12
2.06208e-12
2.06214e-12
2.06219e-12
2.06224e-12
2.06229e-12
2.06234e-12
2.06238e-12
2.06243e-12
2.06247e-12
2.06251e-12
2.06254e-12
2.06258e-12
2.06261e-12
2.06207e-12
2.06213e-12
2.06218e-12
2.06223e-12
2.06228e-12
2.06233e-12
2.06238e-12
2.06243e-12
2.06247e-12
2.06251e-12
2.06255e-12
2.06259e-12
2.06262e-12
2.06266e-12
2.06211e-12
2.06217e-12
2.06222e-12
2.06227e-12
2.06233e-12
2.06238e-12
2.06242e-12
2.06247e-12
2.06251e-12
2.06256e-12
2.0626e-12
2.06263e-12
2.06267e-12
2.0627e-12
2.06215e-12
2.06221e-12
2.06226e-12
2.06231e-12
2.06237e-12
2.06242e-12
2.06246e-12
2.06251e-12
2.06256e-12
2.0626e-12
2.06264e-12
2.06267e-12
2.06271e-12
2.06274e-12
2.06219e-12
2.06225e-12
2.0623e-12
2.06235e-12
2.0624e-12
2.06245e-12
2.0625e-12
2.06255e-12
2.06259e-12
2.06264e-12
2.06268e-12
2.06271e-12
2.06275e-12
2.06279e-12
2.06223e-12
2.06228e-12
2.06233e-12
2.06239e-12
2.06244e-12
2.06249e-12
2.06254e-12
2.06258e-12
2.06263e-12
2.06267e-12
2.06271e-12
2.06275e-12
2.06279e-12
2.06283e-12
2.05819e-12
2.05821e-12
2.05823e-12
2.05826e-12
2.05829e-12
2.05831e-12
2.05834e-12
2.05837e-12
2.05839e-12
2.05842e-12
2.05845e-12
2.05847e-12
2.0585e-12
2.05854e-12
2.05824e-12
2.05826e-12
2.05828e-12
2.05831e-12
2.05834e-12
2.05837e-12
2.05839e-12
2.05842e-12
2.05845e-12
2.05848e-12
2.0585e-12
2.05853e-12
2.05856e-12
2.05859e-12
2.05829e-12
2.05831e-12
2.05834e-12
2.05837e-12
2.05839e-12
2.05842e-12
2.05845e-12
2.05848e-12
2.0585e-12
2.05853e-12
2.05856e-12
2.05858e-12
2.05861e-12
2.05864e-12
2.05834e-12
2.05836e-12
2.05839e-12
2.05842e-12
2.05845e-12
2.05848e-12
2.05851e-12
2.05853e-12
2.05856e-12
2.05859e-12
2.05861e-12
2.05864e-12
2.05867e-12
2.0587e-12
2.05839e-12
2.05841e-12
2.05844e-12
2.05847e-12
2.0585e-12
2.05853e-12
2.05856e-12
2.05859e-12
2.05862e-12
2.05864e-12
2.05867e-12
2.0587e-12
2.05872e-12
2.05875e-12
2.05844e-12
2.05847e-12
2.0585e-12
2.05853e-12
2.05856e-12
2.05859e-12
2.05861e-12
2.05864e-12
2.05867e-12
2.0587e-12
2.05872e-12
2.05875e-12
2.05877e-12
2.0588e-12
2.05849e-12
2.05852e-12
2.05855e-12
2.05858e-12
2.05861e-12
2.05864e-12
2.05867e-12
2.0587e-12
2.05873e-12
2.05875e-12
2.05878e-12
2.0588e-12
2.05883e-12
2.05885e-12
2.05854e-12
2.05857e-12
2.0586e-12
2.05863e-12
2.05866e-12
2.05869e-12
2.05872e-12
2.05875e-12
2.05878e-12
2.05881e-12
2.05883e-12
2.05886e-12
2.05888e-12
2.0589e-12
2.05859e-12
2.05862e-12
2.05865e-12
2.05868e-12
2.05872e-12
2.05875e-12
2.05878e-12
2.0588e-12
2.05883e-12
2.05886e-12
2.05889e-12
2.05891e-12
2.05893e-12
2.05895e-12
2.05864e-12
2.05867e-12
2.0587e-12
2.05874e-12
2.05877e-12
2.0588e-12
2.05883e-12
2.05886e-12
2.05889e-12
2.05891e-12
2.05894e-12
2.05896e-12
2.05899e-12
2.059e-12
2.05869e-12
2.05872e-12
2.05875e-12
2.05879e-12
2.05882e-12
2.05885e-12
2.05888e-12
2.05891e-12
2.05894e-12
2.05896e-12
2.05899e-12
2.05901e-12
2.05904e-12
2.05905e-12
2.05874e-12
2.05877e-12
2.0588e-12
2.05884e-12
2.05887e-12
2.0589e-12
2.05893e-12
2.05896e-12
2.05899e-12
2.05901e-12
2.05904e-12
2.05906e-12
2.05909e-12
2.0591e-12
2.05879e-12
2.05882e-12
2.05885e-12
2.05888e-12
2.05891e-12
2.05895e-12
2.05898e-12
2.05901e-12
2.05904e-12
2.05906e-12
2.05909e-12
2.05911e-12
2.05913e-12
2.05916e-12
2.05884e-12
2.05887e-12
2.0589e-12
2.05893e-12
2.05896e-12
2.05899e-12
2.05902e-12
2.05905e-12
2.05908e-12
2.05911e-12
2.05914e-12
2.05916e-12
2.05919e-12
2.05921e-12
2.05504e-12
2.05504e-12
2.05505e-12
2.05505e-12
2.05506e-12
2.05507e-12
2.05507e-12
2.05508e-12
2.05509e-12
2.0551e-12
2.05511e-12
2.05512e-12
2.05514e-12
2.05516e-12
2.05507e-12
2.05507e-12
2.05508e-12
2.05508e-12
2.05509e-12
2.0551e-12
2.0551e-12
2.05511e-12
2.05512e-12
2.05513e-12
2.05515e-12
2.05516e-12
2.05518e-12
2.05519e-12
2.0551e-12
2.0551e-12
2.05511e-12
2.05511e-12
2.05512e-12
2.05513e-12
2.05514e-12
2.05515e-12
2.05516e-12
2.05517e-12
2.05518e-12
2.05519e-12
2.05521e-12
2.05523e-12
2.05513e-12
2.05513e-12
2.05514e-12
2.05515e-12
2.05515e-12
2.05516e-12
2.05517e-12
2.05518e-12
2.05519e-12
2.0552e-12
2.05522e-12
2.05523e-12
2.05525e-12
2.05526e-12
2.05516e-12
2.05517e-12
2.05517e-12
2.05518e-12
2.05519e-12
2.0552e-12
2.05521e-12
2.05522e-12
2.05523e-12
2.05524e-12
2.05525e-12
2.05527e-12
2.05528e-12
2.0553e-12
2.0552e-12
2.0552e-12
2.05521e-12
2.05522e-12
2.05522e-12
2.05523e-12
2.05524e-12
2.05525e-12
2.05526e-12
2.05528e-12
2.05529e-12
2.0553e-12
2.05532e-12
2.05533e-12
2.05523e-12
2.05524e-12
2.05525e-12
2.05525e-12
2.05526e-12
2.05527e-12
2.05528e-12
2.05529e-12
2.0553e-12
2.05531e-12
2.05533e-12
2.05534e-12
2.05535e-12
2.05537e-12
2.05527e-12
2.05528e-12
2.05529e-12
2.05529e-12
2.0553e-12
2.05531e-12
2.05532e-12
2.05533e-12
2.05534e-12
2.05535e-12
2.05537e-12
2.05538e-12
2.05539e-12
2.0554e-12
2.05531e-12
2.05532e-12
2.05532e-12
2.05533e-12
2.05534e-12
2.05535e-12
2.05536e-12
2.05537e-12
2.05538e-12
2.05539e-12
2.0554e-12
2.05542e-12
2.05543e-12
2.05544e-12
2.05535e-12
2.05536e-12
2.05536e-12
2.05537e-12
2.05538e-12
2.05539e-12
2.0554e-12
2.05541e-12
2.05542e-12
2.05543e-12
2.05544e-12
2.05546e-12
2.05547e-12
2.05548e-12
2.05539e-12
2.0554e-12
2.05541e-12
2.05541e-12
2.05542e-12
2.05543e-12
2.05544e-12
2.05545e-12
2.05546e-12
2.05547e-12
2.05549e-12
2.0555e-12
2.05551e-12
2.05552e-12
2.05543e-12
2.05544e-12
2.05545e-12
2.05545e-12
2.05546e-12
2.05547e-12
2.05548e-12
2.05549e-12
2.0555e-12
2.05552e-12
2.05553e-12
2.05554e-12
2.05555e-12
2.05556e-12
2.05547e-12
2.05548e-12
2.05549e-12
2.05549e-12
2.0555e-12
2.05551e-12
2.05552e-12
2.05554e-12
2.05555e-12
2.05556e-12
2.05557e-12
2.05558e-12
2.05559e-12
2.0556e-12
2.05552e-12
2.05552e-12
2.05553e-12
2.05554e-12
2.05555e-12
2.05556e-12
2.05557e-12
2.05558e-12
2.05559e-12
2.0556e-12
2.05561e-12
2.05562e-12
2.05563e-12
2.05564e-12
2.05218e-12
2.05218e-12
2.05217e-12
2.05216e-12
2.05215e-12
2.05215e-12
2.05214e-12
2.05214e-12
2.05214e-12
2.05214e-12
2.05214e-12
2.05214e-12
2.05215e-12
2.05215e-12
2.05219e-12
2.05218e-12
2.05217e-12
2.05217e-12
2.05216e-12
2.05216e-12
2.05215e-12
2.05215e-12
2.05215e-12
2.05215e-12
2.05215e-12
2.05215e-12
2.05216e-12
2.05217e-12
2.0522e-12
2.05219e-12
2.05218e-12
2.05218e-12
2.05217e-12
2.05216e-12
2.05216e-12
2.05216e-12
2.05216e-12
2.05216e-12
2.05216e-12
2.05216e-12
2.05217e-12
2.05218e-12
2.05221e-12
2.0522e-12
2.05219e-12
2.05219e-12
2.05218e-12
2.05217e-12
2.05217e-12
2.05217e-12
2.05217e-12
2.05217e-12
2.05217e-12
2.05218e-12
2.05218e-12
2.05219e-12
2.05223e-12
2.05222e-12
2.05221e-12
2.0522e-12
2.05219e-12
2.05219e-12
2.05218e-12
2.05218e-12
2.05218e-12
2.05218e-12