/*--------------------------------*- C++ -*----------------------------------*\
| =========                 |                                                 |
| \\      /  F ield         | OpenFOAM: The Open Source CFD Toolbox           |
|  \\    /   O peration     | Version:  v2106                                 |
|   \\  /    A nd           | Website:  www.openfoam.com                      |
|    \\/     M anipulation  |                                                 |
\*---------------------------------------------------------------------------*/
FoamFile
{
    version     2.0;
    format      ascii;
    arch        "LSB;label=32;scalar=64";
    class       volScalarField;
    location    "0.000209";
    object      nut;
}
// * * * * * * * * * * * * * * * * * * * * * * * * * * * * * * * * * * * * * //

dimensions      [0 2 -1 0 0 0 0];

internalField   nonuniform List<scalar> 
17920
(
3.56238e-17
3.5624e-17
3.56252e-17
3.56254e-17
3.56267e-17
3.56269e-17
3.56284e-17
3.56285e-17
3.56303e-17
3.56303e-17
3.56323e-17
3.56323e-17
3.56345e-17
3.56344e-17
3.56369e-17
3.56368e-17
3.56394e-17
3.56393e-17
3.56421e-17
3.56419e-17
3.56449e-17
3.56447e-17
3.56479e-17
3.56477e-17
3.56508e-17
3.56506e-17
3.56539e-17
3.56538e-17
3.56255e-17
3.56243e-17
3.56233e-17
3.56223e-17
3.56215e-17
3.56207e-17
3.562e-17
3.56193e-17
3.56188e-17
3.56183e-17
3.56178e-17
3.56174e-17
3.56169e-17
3.56166e-17
3.56265e-17
3.56253e-17
3.56243e-17
3.56232e-17
3.56223e-17
3.56215e-17
3.56207e-17
3.562e-17
3.56194e-17
3.56188e-17
3.56183e-17
3.56178e-17
3.56173e-17
3.56169e-17
3.56273e-17
3.56261e-17
3.56252e-17
3.56241e-17
3.56232e-17
3.56223e-17
3.56215e-17
3.56208e-17
3.56201e-17
3.56195e-17
3.56189e-17
3.56184e-17
3.56179e-17
3.56175e-17
3.56283e-17
3.56271e-17
3.56261e-17
3.56251e-17
3.56241e-17
3.56232e-17
3.56224e-17
3.56216e-17
3.56209e-17
3.56203e-17
3.56197e-17
3.56191e-17
3.56185e-17
3.5618e-17
3.56292e-17
3.5628e-17
3.56271e-17
3.5626e-17
3.56251e-17
3.56242e-17
3.56234e-17
3.56226e-17
3.56218e-17
3.56211e-17
3.56205e-17
3.56198e-17
3.56192e-17
3.56187e-17
3.56302e-17
3.5629e-17
3.56281e-17
3.56271e-17
3.56262e-17
3.56253e-17
3.56244e-17
3.56236e-17
3.56228e-17
3.56221e-17
3.56214e-17
3.56207e-17
3.56201e-17
3.56195e-17
3.56312e-17
3.56301e-17
3.56292e-17
3.56282e-17
3.56273e-17
3.56264e-17
3.56255e-17
3.56247e-17
3.56239e-17
3.56231e-17
3.56224e-17
3.56217e-17
3.56211e-17
3.56204e-17
3.56323e-17
3.56313e-17
3.56303e-17
3.56294e-17
3.56285e-17
3.56276e-17
3.56267e-17
3.56259e-17
3.56251e-17
3.56243e-17
3.56236e-17
3.56228e-17
3.56222e-17
3.56215e-17
3.56334e-17
3.56325e-17
3.56315e-17
3.56306e-17
3.56297e-17
3.56288e-17
3.5628e-17
3.56272e-17
3.56263e-17
3.56256e-17
3.56248e-17
3.56241e-17
3.56234e-17
3.56226e-17
3.56346e-17
3.56338e-17
3.56328e-17
3.56319e-17
3.56311e-17
3.56302e-17
3.56293e-17
3.56285e-17
3.56277e-17
3.56269e-17
3.56261e-17
3.56254e-17
3.56247e-17
3.56239e-17
3.56358e-17
3.5635e-17
3.56341e-17
3.56333e-17
3.56324e-17
3.56316e-17
3.56307e-17
3.56299e-17
3.56291e-17
3.56283e-17
3.56276e-17
3.56268e-17
3.56261e-17
3.56252e-17
3.56371e-17
3.56364e-17
3.56355e-17
3.56347e-17
3.56339e-17
3.56331e-17
3.56322e-17
3.56314e-17
3.56306e-17
3.56298e-17
3.5629e-17
3.56282e-17
3.56276e-17
3.56267e-17
3.56385e-17
3.56378e-17
3.5637e-17
3.56362e-17
3.56354e-17
3.56346e-17
3.56338e-17
3.5633e-17
3.56322e-17
3.56314e-17
3.56306e-17
3.56298e-17
3.56291e-17
3.56282e-17
3.564e-17
3.56393e-17
3.56385e-17
3.56377e-17
3.5637e-17
3.56362e-17
3.56354e-17
3.56347e-17
3.56339e-17
3.56331e-17
3.56323e-17
3.56315e-17
3.56308e-17
3.563e-17
3.56225e-17
3.56211e-17
3.562e-17
3.56189e-17
3.56179e-17
3.5617e-17
3.56161e-17
3.56151e-17
3.56143e-17
3.56135e-17
3.56127e-17
3.56119e-17
3.56112e-17
3.56105e-17
3.56227e-17
3.56214e-17
3.56203e-17
3.56192e-17
3.56181e-17
3.56171e-17
3.56161e-17
3.56152e-17
3.56143e-17
3.56134e-17
3.56126e-17
3.56118e-17
3.5611e-17
3.56102e-17
3.56228e-17
3.56215e-17
3.56205e-17
3.56193e-17
3.56183e-17
3.56172e-17
3.56162e-17
3.56153e-17
3.56143e-17
3.56134e-17
3.56126e-17
3.56117e-17
3.56108e-17
3.561e-17
3.5623e-17
3.56217e-17
3.56207e-17
3.56195e-17
3.56184e-17
3.56174e-17
3.56163e-17
3.56153e-17
3.56144e-17
3.56134e-17
3.56125e-17
3.56116e-17
3.56107e-17
3.56098e-17
3.56231e-17
3.56219e-17
3.56208e-17
3.56197e-17
3.56186e-17
3.56175e-17
3.56165e-17
3.56154e-17
3.56144e-17
3.56134e-17
3.56125e-17
3.56115e-17
3.56106e-17
3.56096e-17
3.56232e-17
3.56221e-17
3.5621e-17
3.56199e-17
3.56188e-17
3.56177e-17
3.56166e-17
3.56155e-17
3.56145e-17
3.56135e-17
3.56125e-17
3.56115e-17
3.56105e-17
3.56095e-17
3.56234e-17
3.56223e-17
3.56212e-17
3.56201e-17
3.5619e-17
3.56179e-17
3.56168e-17
3.56157e-17
3.56146e-17
3.56135e-17
3.56125e-17
3.56115e-17
3.56105e-17
3.56094e-17
3.56235e-17
3.56225e-17
3.56214e-17
3.56203e-17
3.56192e-17
3.56181e-17
3.5617e-17
3.56159e-17
3.56148e-17
3.56137e-17
3.56126e-17
3.56115e-17
3.56105e-17
3.56094e-17
3.56237e-17
3.56227e-17
3.56216e-17
3.56205e-17
3.56194e-17
3.56183e-17
3.56172e-17
3.56161e-17
3.56149e-17
3.56138e-17
3.56127e-17
3.56115e-17
3.56105e-17
3.56094e-17
3.5624e-17
3.5623e-17
3.56219e-17
3.56208e-17
3.56197e-17
3.56186e-17
3.56174e-17
3.56163e-17
3.56151e-17
3.56139e-17
3.56128e-17
3.56116e-17
3.56105e-17
3.56094e-17
3.56242e-17
3.56232e-17
3.56221e-17
3.5621e-17
3.56199e-17
3.56188e-17
3.56176e-17
3.56165e-17
3.56153e-17
3.56141e-17
3.56129e-17
3.56118e-17
3.56106e-17
3.56094e-17
3.56245e-17
3.56235e-17
3.56224e-17
3.56213e-17
3.56202e-17
3.56191e-17
3.56179e-17
3.56167e-17
3.56155e-17
3.56143e-17
3.56131e-17
3.56119e-17
3.56107e-17
3.56095e-17
3.56248e-17
3.56238e-17
3.56227e-17
3.56216e-17
3.56205e-17
3.56193e-17
3.56182e-17
3.5617e-17
3.56158e-17
3.56146e-17
3.56133e-17
3.56121e-17
3.56109e-17
3.56096e-17
3.5625e-17
3.5624e-17
3.5623e-17
3.56219e-17
3.56208e-17
3.56197e-17
3.56185e-17
3.56173e-17
3.56161e-17
3.56149e-17
3.56136e-17
3.56124e-17
3.56112e-17
3.56099e-17
3.56165e-17
3.56153e-17
3.56142e-17
3.56132e-17
3.56121e-17
3.56111e-17
3.56101e-17
3.5609e-17
3.5608e-17
3.56069e-17
3.56059e-17
3.56048e-17
3.56039e-17
3.56028e-17
3.56161e-17
3.56149e-17
3.56138e-17
3.56127e-17
3.56117e-17
3.56106e-17
3.56095e-17
3.56085e-17
3.56074e-17
3.56063e-17
3.56053e-17
3.56041e-17
3.56031e-17
3.56021e-17
3.56155e-17
3.56143e-17
3.56133e-17
3.56122e-17
3.56111e-17
3.56101e-17
3.5609e-17
3.56079e-17
3.56068e-17
3.56057e-17
3.56046e-17
3.56035e-17
3.56024e-17
3.56013e-17
3.56149e-17
3.56138e-17
3.56128e-17
3.56117e-17
3.56106e-17
3.56095e-17
3.56084e-17
3.56073e-17
3.56062e-17
3.5605e-17
3.56039e-17
3.56028e-17
3.56017e-17
3.56006e-17
3.56143e-17
3.56132e-17
3.56122e-17
3.56111e-17
3.561e-17
3.56089e-17
3.56078e-17
3.56066e-17
3.56055e-17
3.56043e-17
3.56032e-17
3.5602e-17
3.56009e-17
3.55997e-17
3.56136e-17
3.56126e-17
3.56116e-17
3.56105e-17
3.56094e-17
3.56083e-17
3.56071e-17
3.5606e-17
3.56048e-17
3.56036e-17
3.56025e-17
3.56013e-17
3.56001e-17
3.55989e-17
3.5613e-17
3.5612e-17
3.5611e-17
3.56099e-17
3.56088e-17
3.56076e-17
3.56065e-17
3.56053e-17
3.56041e-17
3.56029e-17
3.56017e-17
3.56005e-17
3.55993e-17
3.5598e-17
3.56123e-17
3.56113e-17
3.56103e-17
3.56092e-17
3.56081e-17
3.56069e-17
3.56057e-17
3.56045e-17
3.56033e-17
3.56021e-17
3.56009e-17
3.55996e-17
3.55984e-17
3.55971e-17
3.56116e-17
3.56107e-17
3.56096e-17
3.56085e-17
3.56074e-17
3.56062e-17
3.5605e-17
3.56038e-17
3.56025e-17
3.56013e-17
3.56e-17
3.55987e-17
3.55975e-17
3.55962e-17
3.56109e-17
3.56099e-17
3.56089e-17
3.56078e-17
3.56066e-17
3.56055e-17
3.56042e-17
3.5603e-17
3.56017e-17
3.56004e-17
3.55991e-17
3.55979e-17
3.55965e-17
3.55953e-17
3.56103e-17
3.56092e-17
3.56082e-17
3.56071e-17
3.56059e-17
3.56047e-17
3.56034e-17
3.56022e-17
3.56009e-17
3.55995e-17
3.55982e-17
3.55969e-17
3.55955e-17
3.55943e-17
3.56095e-17
3.56084e-17
3.56074e-17
3.56062e-17
3.56051e-17
3.56039e-17
3.56026e-17
3.56013e-17
3.56e-17
3.55987e-17
3.55973e-17
3.5596e-17
3.55946e-17
3.55934e-17
3.56087e-17
3.56077e-17
3.56066e-17
3.56055e-17
3.56043e-17
3.5603e-17
3.56018e-17
3.56004e-17
3.55991e-17
3.55977e-17
3.55963e-17
3.5595e-17
3.55936e-17
3.55923e-17
3.56079e-17
3.56068e-17
3.56058e-17
3.56046e-17
3.56034e-17
3.56021e-17
3.56009e-17
3.55996e-17
3.55982e-17
3.55969e-17
3.55955e-17
3.55942e-17
3.55928e-17
3.55915e-17
3.56047e-17
3.56036e-17
3.56027e-17
3.56018e-17
3.56009e-17
3.55999e-17
3.55989e-17
3.55978e-17
3.55966e-17
3.55955e-17
3.55943e-17
3.55931e-17
3.55921e-17
3.55909e-17
3.56035e-17
3.56026e-17
3.56017e-17
3.56008e-17
3.55998e-17
3.55988e-17
3.55978e-17
3.55967e-17
3.55955e-17
3.55944e-17
3.55932e-17
3.5592e-17
3.55909e-17
3.55897e-17
3.56022e-17
3.56014e-17
3.56005e-17
3.55996e-17
3.55987e-17
3.55977e-17
3.55966e-17
3.55956e-17
3.55944e-17
3.55933e-17
3.55921e-17
3.55909e-17
3.55898e-17
3.55886e-17
3.5601e-17
3.56002e-17
3.55993e-17
3.55984e-17
3.55975e-17
3.55965e-17
3.55954e-17
3.55943e-17
3.55932e-17
3.5592e-17
3.55909e-17
3.55897e-17
3.55885e-17
3.55873e-17
3.55998e-17
3.5599e-17
3.55981e-17
3.55972e-17
3.55962e-17
3.55952e-17
3.55942e-17
3.55931e-17
3.5592e-17
3.55908e-17
3.55896e-17
3.55884e-17
3.55873e-17
3.5586e-17
3.55985e-17
3.55977e-17
3.55968e-17
3.55959e-17
3.55949e-17
3.55939e-17
3.55929e-17
3.55918e-17
3.55906e-17
3.55895e-17
3.55883e-17
3.55871e-17
3.55859e-17
3.55847e-17
3.55972e-17
3.55964e-17
3.55955e-17
3.55946e-17
3.55936e-17
3.55926e-17
3.55915e-17
3.55904e-17
3.55893e-17
3.55881e-17
3.55869e-17
3.55857e-17
3.55845e-17
3.55833e-17
3.55958e-17
3.5595e-17
3.55941e-17
3.55932e-17
3.55922e-17
3.55911e-17
3.55901e-17
3.5589e-17
3.55878e-17
3.55866e-17
3.55854e-17
3.55842e-17
3.5583e-17
3.55818e-17
3.55944e-17
3.55936e-17
3.55927e-17
3.55917e-17
3.55907e-17
3.55897e-17
3.55886e-17
3.55875e-17
3.55863e-17
3.55851e-17
3.55839e-17
3.55827e-17
3.55815e-17
3.55803e-17
3.5593e-17
3.55921e-17
3.55912e-17
3.55902e-17
3.55892e-17
3.55882e-17
3.55871e-17
3.55859e-17
3.55847e-17
3.55836e-17
3.55823e-17
3.55811e-17
3.55798e-17
3.55787e-17
3.55915e-17
3.55906e-17
3.55897e-17
3.55887e-17
3.55877e-17
3.55866e-17
3.55855e-17
3.55843e-17
3.55831e-17
3.55819e-17
3.55807e-17
3.55795e-17
3.55782e-17
3.55771e-17
3.559e-17
3.5589e-17
3.55881e-17
3.55871e-17
3.55861e-17
3.5585e-17
3.55839e-17
3.55827e-17
3.55815e-17
3.55803e-17
3.5579e-17
3.55778e-17
3.55765e-17
3.55755e-17
3.55885e-17
3.55875e-17
3.55866e-17
3.55855e-17
3.55845e-17
3.55834e-17
3.55822e-17
3.5581e-17
3.55798e-17
3.55785e-17
3.55773e-17
3.55761e-17
3.55748e-17
3.55737e-17
3.55869e-17
3.55858e-17
3.55849e-17
3.55838e-17
3.55828e-17
3.55817e-17
3.55805e-17
3.55794e-17
3.55782e-17
3.55769e-17
3.55757e-17
3.55745e-17
3.55732e-17
3.55722e-17
3.55838e-17
3.55831e-17
3.55825e-17
3.55819e-17
3.55812e-17
3.55804e-17
3.55796e-17
3.55787e-17
3.55777e-17
3.55767e-17
3.55757e-17
3.55746e-17
3.55736e-17
3.55725e-17
3.55822e-17
3.55816e-17
3.5581e-17
3.55804e-17
3.55797e-17
3.5579e-17
3.55781e-17
3.55772e-17
3.55763e-17
3.55753e-17
3.55742e-17
3.55732e-17
3.55722e-17
3.55711e-17
3.55805e-17
3.55801e-17
3.55795e-17
3.55789e-17
3.55782e-17
3.55775e-17
3.55766e-17
3.55758e-17
3.55748e-17
3.55738e-17
3.55728e-17
3.55718e-17
3.55708e-17
3.55698e-17
3.55789e-17
3.55785e-17
3.55779e-17
3.55773e-17
3.55766e-17
3.55759e-17
3.55751e-17
3.55742e-17
3.55732e-17
3.55723e-17
3.55713e-17
3.55703e-17
3.55693e-17
3.55683e-17
3.55773e-17
3.55769e-17
3.55763e-17
3.55757e-17
3.5575e-17
3.55742e-17
3.55734e-17
3.55725e-17
3.55716e-17
3.55707e-17
3.55697e-17
3.55687e-17
3.55678e-17
3.55667e-17
3.55757e-17
3.55752e-17
3.55746e-17
3.5574e-17
3.55733e-17
3.55725e-17
3.55717e-17
3.55709e-17
3.557e-17
3.5569e-17
3.55681e-17
3.55671e-17
3.55662e-17
3.55651e-17
3.5574e-17
3.55735e-17
3.55729e-17
3.55722e-17
3.55715e-17
3.55708e-17
3.557e-17
3.55691e-17
3.55682e-17
3.55673e-17
3.55664e-17
3.55654e-17
3.55645e-17
3.55635e-17
3.55723e-17
3.55717e-17
3.55711e-17
3.55705e-17
3.55697e-17
3.5569e-17
3.55682e-17
3.55673e-17
3.55664e-17
3.55655e-17
3.55646e-17
3.55637e-17
3.55627e-17
3.55617e-17
3.55705e-17
3.557e-17
3.55693e-17
3.55686e-17
3.55679e-17
3.55671e-17
3.55663e-17
3.55655e-17
3.55646e-17
3.55637e-17
3.55628e-17
3.55618e-17
3.55609e-17
3.556e-17
3.55687e-17
3.55681e-17
3.55674e-17
3.55667e-17
3.5566e-17
3.55652e-17
3.55644e-17
3.55636e-17
3.55627e-17
3.55618e-17
3.55609e-17
3.556e-17
3.5559e-17
3.55582e-17
3.55669e-17
3.55662e-17
3.55656e-17
3.55649e-17
3.55641e-17
3.55633e-17
3.55625e-17
3.55617e-17
3.55608e-17
3.55599e-17
3.5559e-17
3.55581e-17
3.55571e-17
3.55564e-17
3.5565e-17
3.55643e-17
3.55636e-17
3.55629e-17
3.55622e-17
3.55614e-17
3.55606e-17
3.55597e-17
3.55589e-17
3.5558e-17
3.55571e-17
3.55562e-17
3.55552e-17
3.55545e-17
3.55632e-17
3.55624e-17
3.55618e-17
3.5561e-17
3.55602e-17
3.55594e-17
3.55586e-17
3.55577e-17
3.55569e-17
3.5556e-17
3.5555e-17
3.55542e-17
3.55533e-17
3.55527e-17
3.55612e-17
3.55604e-17
3.55597e-17
3.5559e-17
3.55582e-17
3.55574e-17
3.55566e-17
3.55558e-17
3.5555e-17
3.55541e-17
3.55532e-17
3.55523e-17
3.55514e-17
3.55508e-17
3.55531e-17
3.55529e-17
3.55527e-17
3.55525e-17
3.55521e-17
3.55518e-17
3.55513e-17
3.55508e-17
3.55503e-17
3.55497e-17
3.5549e-17
3.55484e-17
3.55478e-17
3.5547e-17
3.55515e-17
3.55514e-17
3.55513e-17
3.5551e-17
3.55507e-17
3.55503e-17
3.55499e-17
3.55494e-17
3.55488e-17
3.55482e-17
3.55476e-17
3.55469e-17
3.55463e-17
3.55456e-17
3.55499e-17
3.555e-17
3.55498e-17
3.55495e-17
3.55492e-17
3.55488e-17
3.55484e-17
3.55479e-17
3.55474e-17
3.55468e-17
3.55462e-17
3.55456e-17
3.5545e-17
3.55443e-17
3.55484e-17
3.55484e-17
3.55482e-17
3.55479e-17
3.55476e-17
3.55473e-17
3.55468e-17
3.55464e-17
3.55459e-17
3.55453e-17
3.55447e-17
3.55441e-17
3.55436e-17
3.55429e-17
3.55469e-17
3.55468e-17
3.55466e-17
3.55464e-17
3.5546e-17
3.55457e-17
3.55453e-17
3.55448e-17
3.55443e-17
3.55438e-17
3.55432e-17
3.55426e-17
3.55421e-17
3.55415e-17
3.55454e-17
3.55452e-17
3.5545e-17
3.55447e-17
3.55444e-17
3.5544e-17
3.55436e-17
3.55432e-17
3.55427e-17
3.55422e-17
3.55417e-17
3.55411e-17
3.55406e-17
3.554e-17
3.55438e-17
3.55436e-17
3.55433e-17
3.5543e-17
3.55427e-17
3.55424e-17
3.5542e-17
3.55415e-17
3.55411e-17
3.55406e-17
3.55401e-17
3.55395e-17
3.5539e-17
3.55384e-17
3.55421e-17
3.55419e-17
3.55417e-17
3.55414e-17
3.5541e-17
3.55407e-17
3.55403e-17
3.55398e-17
3.55394e-17
3.55389e-17
3.55384e-17
3.55379e-17
3.55374e-17
3.55369e-17
3.55405e-17
3.55402e-17
3.554e-17
3.55396e-17
3.55393e-17
3.55389e-17
3.55385e-17
3.55381e-17
3.55377e-17
3.55372e-17
3.55367e-17
3.55363e-17
3.55358e-17
3.55353e-17
3.55388e-17
3.55385e-17
3.55382e-17
3.55379e-17
3.55376e-17
3.55372e-17
3.55368e-17
3.55364e-17
3.5536e-17
3.55355e-17
3.5535e-17
3.55346e-17
3.55341e-17
3.55337e-17
3.55372e-17
3.55368e-17
3.55365e-17
3.55362e-17
3.55358e-17
3.55354e-17
3.5535e-17
3.55346e-17
3.55342e-17
3.55338e-17
3.55333e-17
3.55329e-17
3.55324e-17
3.55321e-17
3.55354e-17
3.5535e-17
3.55347e-17
3.55344e-17
3.5534e-17
3.55337e-17
3.55333e-17
3.55329e-17
3.55325e-17
3.5532e-17
3.55316e-17
3.55312e-17
3.55307e-17
3.55305e-17
3.55338e-17
3.55333e-17
3.5533e-17
3.55327e-17
3.55323e-17
3.55319e-17
3.55315e-17
3.55311e-17
3.55307e-17
3.55303e-17
3.55298e-17
3.55295e-17
3.55291e-17
3.55289e-17
3.5532e-17
3.55315e-17
3.55312e-17
3.55309e-17
3.55305e-17
3.55302e-17
3.55298e-17
3.55294e-17
3.5529e-17
3.55286e-17
3.55282e-17
3.55278e-17
3.55274e-17
3.55273e-17
3.55151e-17
3.55153e-17
3.55154e-17
3.55156e-17
3.55157e-17
3.55158e-17
3.55158e-17
3.55158e-17
3.55158e-17
3.55157e-17
3.55155e-17
3.55154e-17
3.55152e-17
3.5515e-17
3.5514e-17
3.55143e-17
3.55144e-17
3.55146e-17
3.55147e-17
3.55148e-17
3.55148e-17
3.55148e-17
3.55147e-17
3.55146e-17
3.55145e-17
3.55144e-17
3.55142e-17
3.55139e-17
3.5513e-17
3.55132e-17
3.55134e-17
3.55135e-17
3.55136e-17
3.55137e-17
3.55137e-17
3.55137e-17
3.55137e-17
3.55136e-17
3.55135e-17
3.55134e-17
3.55133e-17
3.5513e-17
3.55119e-17
3.55122e-17
3.55123e-17
3.55125e-17
3.55126e-17
3.55126e-17
3.55127e-17
3.55127e-17
3.55126e-17
3.55126e-17
3.55125e-17
3.55124e-17
3.55122e-17
3.5512e-17
3.55109e-17
3.55111e-17
3.55112e-17
3.55114e-17
3.55115e-17
3.55115e-17
3.55116e-17
3.55116e-17
3.55115e-17
3.55115e-17
3.55114e-17
3.55113e-17
3.55112e-17
3.5511e-17
3.55098e-17
3.551e-17
3.55101e-17
3.55102e-17
3.55103e-17
3.55104e-17
3.55104e-17
3.55104e-17
3.55104e-17
3.55104e-17
3.55103e-17
3.55103e-17
3.55102e-17
3.551e-17
3.55087e-17
3.55089e-17
3.5509e-17
3.55091e-17
3.55092e-17
3.55092e-17
3.55093e-17
3.55093e-17
3.55093e-17
3.55093e-17
3.55092e-17
3.55092e-17
3.55091e-17
3.5509e-17
3.55076e-17
3.55077e-17
3.55078e-17
3.55079e-17
3.5508e-17
3.55081e-17
3.55081e-17
3.55081e-17
3.55081e-17
3.55081e-17
3.55081e-17
3.55081e-17
3.5508e-17
3.55079e-17
3.55064e-17
3.55065e-17
3.55066e-17
3.55067e-17
3.55068e-17
3.55069e-17
3.55069e-17
3.5507e-17
3.5507e-17
3.5507e-17
3.5507e-17
3.5507e-17
3.55069e-17
3.55069e-17
3.55053e-17
3.55053e-17
3.55054e-17
3.55055e-17
3.55056e-17
3.55057e-17
3.55057e-17
3.55058e-17
3.55058e-17
3.55058e-17
3.55058e-17
3.55058e-17
3.55057e-17
3.55058e-17
3.55041e-17
3.55041e-17
3.55042e-17
3.55043e-17
3.55044e-17
3.55045e-17
3.55045e-17
3.55046e-17
3.55046e-17
3.55046e-17
3.55047e-17
3.55047e-17
3.55046e-17
3.55048e-17
3.5503e-17
3.55029e-17
3.5503e-17
3.55031e-17
3.55032e-17
3.55033e-17
3.55034e-17
3.55034e-17
3.55034e-17
3.55035e-17
3.55035e-17
3.55035e-17
3.55035e-17
3.55036e-17
3.55019e-17
3.55018e-17
3.55019e-17
3.5502e-17
3.55021e-17
3.55021e-17
3.55022e-17
3.55022e-17
3.55023e-17
3.55023e-17
3.55023e-17
3.55024e-17
3.55024e-17
3.55026e-17
3.55007e-17
3.55006e-17
3.55007e-17
3.55008e-17
3.55009e-17
3.55009e-17
3.5501e-17
3.55011e-17
3.55011e-17
3.55011e-17
3.55012e-17
3.55012e-17
3.55012e-17
3.55014e-17
3.54739e-17
3.54743e-17
3.54747e-17
3.54752e-17
3.54756e-17
3.5476e-17
3.54764e-17
3.54767e-17
3.54771e-17
3.54774e-17
3.54777e-17
3.54779e-17
3.54782e-17
3.54783e-17
3.54735e-17
3.5474e-17
3.54744e-17
3.54748e-17
3.54752e-17
3.54756e-17
3.5476e-17
3.54764e-17
3.54767e-17
3.5477e-17
3.54773e-17
3.54775e-17
3.54778e-17
3.54779e-17
3.54731e-17
3.54736e-17
3.5474e-17
3.54745e-17
3.54749e-17
3.54753e-17
3.54756e-17
3.5476e-17
3.54763e-17
3.54767e-17
3.5477e-17
3.54772e-17
3.54774e-17
3.54776e-17
3.54728e-17
3.54732e-17
3.54737e-17
3.54741e-17
3.54745e-17
3.54749e-17
3.54753e-17
3.54756e-17
3.54759e-17
3.54763e-17
3.54765e-17
3.54768e-17
3.5477e-17
3.54772e-17
3.54724e-17
3.54728e-17
3.54732e-17
3.54737e-17
3.54741e-17
3.54745e-17
3.54748e-17
3.54752e-17
3.54755e-17
3.54759e-17
3.54761e-17
3.54764e-17
3.54767e-17
3.54768e-17
3.5472e-17
3.54724e-17
3.54728e-17
3.54733e-17
3.54737e-17
3.5474e-17
3.54744e-17
3.54748e-17
3.54751e-17
3.54754e-17
3.54757e-17
3.5476e-17
3.54762e-17
3.54764e-17
3.54715e-17
3.5472e-17
3.54724e-17
3.54728e-17
3.54732e-17
3.54736e-17
3.5474e-17
3.54743e-17
3.54747e-17
3.5475e-17
3.54753e-17
3.54756e-17
3.54758e-17
3.5476e-17
3.54711e-17
3.54715e-17
3.54719e-17
3.54723e-17
3.54727e-17
3.54731e-17
3.54735e-17
3.54739e-17
3.54742e-17
3.54745e-17
3.54748e-17
3.54751e-17
3.54754e-17
3.54756e-17
3.54706e-17
3.5471e-17
3.54714e-17
3.54719e-17
3.54723e-17
3.54727e-17
3.5473e-17
3.54734e-17
3.54737e-17
3.54741e-17
3.54744e-17
3.54747e-17
3.54749e-17
3.54752e-17
3.54701e-17
3.54705e-17
3.5471e-17
3.54714e-17
3.54718e-17
3.54722e-17
3.54726e-17
3.54729e-17
3.54733e-17
3.54736e-17
3.54739e-17
3.54742e-17
3.54745e-17
3.54748e-17
3.54696e-17
3.547e-17
3.54705e-17
3.54709e-17
3.54713e-17
3.54717e-17
3.54721e-17
3.54724e-17
3.54728e-17
3.54731e-17
3.54734e-17
3.54737e-17
3.5474e-17
3.54744e-17
3.54691e-17
3.54695e-17
3.547e-17
3.54704e-17
3.54708e-17
3.54712e-17
3.54715e-17
3.54719e-17
3.54723e-17
3.54726e-17
3.54729e-17
3.54733e-17
3.54736e-17
3.54739e-17
3.54686e-17
3.5469e-17
3.54695e-17
3.54699e-17
3.54703e-17
3.54707e-17
3.5471e-17
3.54714e-17
3.54717e-17
3.54721e-17
3.54724e-17
3.54728e-17
3.54731e-17
3.54735e-17
3.54682e-17
3.54685e-17
3.54689e-17
3.54694e-17
3.54698e-17
3.54701e-17
3.54705e-17
3.54709e-17
3.54712e-17
3.54716e-17
3.54719e-17
3.54722e-17
3.54726e-17
3.54729e-17
3.54331e-17
3.54335e-17
3.5434e-17
3.54345e-17
3.54351e-17
3.54356e-17
3.54361e-17
3.54366e-17
3.54371e-17
3.54376e-17
3.5438e-17
3.54385e-17
3.54389e-17
3.54393e-17
3.54332e-17
3.54337e-17
3.54342e-17
3.54347e-17
3.54353e-17
3.54358e-17
3.54363e-17
3.54369e-17
3.54373e-17
3.54378e-17
3.54383e-17
3.54387e-17
3.54391e-17
3.54394e-17
3.54335e-17
3.5434e-17
3.54345e-17
3.5435e-17
3.54355e-17
3.54361e-17
3.54366e-17
3.54371e-17
3.54376e-17
3.5438e-17
3.54385e-17
3.54389e-17
3.54393e-17
3.54396e-17
3.54336e-17
3.54342e-17
3.54347e-17
3.54352e-17
3.54358e-17
3.54363e-17
3.54368e-17
3.54373e-17
3.54378e-17
3.54383e-17
3.54387e-17
3.54391e-17
3.54395e-17
3.54398e-17
3.54338e-17
3.54344e-17
3.54349e-17
3.54354e-17
3.5436e-17
3.54365e-17
3.5437e-17
3.54375e-17
3.5438e-17
3.54384e-17
3.54389e-17
3.54393e-17
3.54397e-17
3.544e-17
3.5434e-17
3.54345e-17
3.54351e-17
3.54356e-17
3.54362e-17
3.54367e-17
3.54372e-17
3.54377e-17
3.54382e-17
3.54386e-17
3.54391e-17
3.54395e-17
3.54398e-17
3.54402e-17
3.54341e-17
3.54347e-17
3.54352e-17
3.54358e-17
3.54363e-17
3.54369e-17
3.54374e-17
3.54379e-17
3.54383e-17
3.54388e-17
3.54392e-17
3.54396e-17
3.544e-17
3.54403e-17
3.54342e-17
3.54348e-17
3.54354e-17
3.54359e-17
3.54365e-17
3.5437e-17
3.54375e-17
3.5438e-17
3.54385e-17
3.54389e-17
3.54394e-17
3.54398e-17
3.54401e-17
3.54405e-17
3.54343e-17
3.54349e-17
3.54355e-17
3.5436e-17
3.54366e-17
3.54371e-17
3.54376e-17
3.54381e-17
3.54386e-17
3.54391e-17
3.54395e-17
3.54399e-17
3.54403e-17
3.54406e-17
3.54344e-17
3.5435e-17
3.54356e-17
3.54361e-17
3.54367e-17
3.54372e-17
3.54377e-17
3.54382e-17
3.54387e-17
3.54392e-17
3.54396e-17
3.544e-17
3.54404e-17
3.54408e-17
3.54345e-17
3.54351e-17
3.54356e-17
3.54362e-17
3.54368e-17
3.54373e-17
3.54378e-17
3.54383e-17
3.54388e-17
3.54392e-17
3.54397e-17
3.54401e-17
3.54405e-17
3.54409e-17
3.54346e-17
3.54351e-17
3.54357e-17
3.54363e-17
3.54368e-17
3.54374e-17
3.54379e-17
3.54384e-17
3.54389e-17
3.54393e-17
3.54398e-17
3.54402e-17
3.54406e-17
3.5441e-17
3.54346e-17
3.54352e-17
3.54357e-17
3.54363e-17
3.54369e-17
3.54374e-17
3.54379e-17
3.54384e-17
3.54389e-17
3.54394e-17
3.54398e-17
3.54402e-17
3.54406e-17
3.54411e-17
3.54347e-17
3.54352e-17
3.54358e-17
3.54364e-17
3.54369e-17
3.54374e-17
3.54379e-17
3.54384e-17
3.54389e-17
3.54394e-17
3.54398e-17
3.54402e-17
3.54407e-17
3.54411e-17
3.53946e-17
3.53949e-17
3.53953e-17
3.53957e-17
3.53962e-17
3.53966e-17
3.53971e-17
3.53975e-17
3.53979e-17
3.53984e-17
3.53988e-17
3.53992e-17
3.53996e-17
3.54e-17
3.5395e-17
3.53954e-17
3.53958e-17
3.53963e-17
3.53967e-17
3.53972e-17
3.53976e-17
3.53981e-17
3.53985e-17
3.53989e-17
3.53993e-17
3.53997e-17
3.54001e-17
3.54005e-17
3.53955e-17
3.53959e-17
3.53964e-17
3.53968e-17
3.53973e-17
3.53977e-17
3.53982e-17
3.53986e-17
3.53991e-17
3.53995e-17
3.53999e-17
3.54002e-17
3.54006e-17
3.5401e-17
3.5396e-17
3.53964e-17
3.53969e-17
3.53973e-17
3.53978e-17
3.53983e-17
3.53987e-17
3.53992e-17
3.53996e-17
3.54e-17
3.54004e-17
3.54008e-17
3.54011e-17
3.54015e-17
3.53965e-17
3.53969e-17
3.53974e-17
3.53979e-17
3.53983e-17
3.53988e-17
3.53993e-17
3.53997e-17
3.54001e-17
3.54005e-17
3.54009e-17
3.54013e-17
3.54016e-17
3.5402e-17
3.53969e-17
3.53974e-17
3.53979e-17
3.53984e-17
3.53989e-17
3.53993e-17
3.53998e-17
3.54002e-17
3.54006e-17
3.5401e-17
3.54014e-17
3.54018e-17
3.54021e-17
3.54024e-17
3.53974e-17
3.53979e-17
3.53984e-17
3.53989e-17
3.53993e-17
3.53998e-17
3.54003e-17
3.54007e-17
3.54011e-17
3.54015e-17
3.54019e-17
3.54023e-17
3.54026e-17
3.54029e-17
3.53978e-17
3.53983e-17
3.53988e-17
3.53993e-17
3.53998e-17
3.54003e-17
3.54007e-17
3.54012e-17
3.54016e-17
3.5402e-17
3.54024e-17
3.54027e-17
3.54031e-17
3.54034e-17
3.53982e-17
3.53988e-17
3.53993e-17
3.53998e-17
3.54003e-17
3.54007e-17
3.54012e-17
3.54017e-17
3.54021e-17
3.54025e-17
3.54029e-17
3.54032e-17
3.54035e-17
3.54038e-17
3.53987e-17
3.53992e-17
3.53997e-17
3.54002e-17
3.54007e-17
3.54012e-17
3.54016e-17
3.54021e-17
3.54025e-17
3.54029e-17
3.54033e-17
3.54036e-17
3.5404e-17
3.54043e-17
3.53991e-17
3.53996e-17
3.54001e-17
3.54006e-17
3.54011e-17
3.54016e-17
3.54021e-17
3.54025e-17
3.54029e-17
3.54033e-17
3.54037e-17
3.54041e-17
3.54044e-17
3.54047e-17
3.53994e-17
3.54e-17
3.54005e-17
3.5401e-17
3.54015e-17
3.5402e-17
3.54025e-17
3.54029e-17
3.54033e-17
3.54037e-17
3.54041e-17
3.54045e-17
3.54048e-17
3.54051e-17
3.53998e-17
3.54003e-17
3.54008e-17
3.54014e-17
3.54019e-17
3.54023e-17
3.54028e-17
3.54033e-17
3.54037e-17
3.54041e-17
3.54045e-17
3.54048e-17
3.54052e-17
3.54055e-17
3.54002e-17
3.54007e-17
3.54012e-17
3.54017e-17
3.54022e-17
3.54027e-17
3.54032e-17
3.54036e-17
3.5404e-17
3.54044e-17
3.54048e-17
3.54052e-17
3.54056e-17
3.5406e-17
3.5359e-17
3.53592e-17
3.53595e-17
3.53597e-17
3.536e-17
3.53602e-17
3.53605e-17
3.53607e-17
3.5361e-17
3.53613e-17
3.53615e-17
3.53618e-17
3.53621e-17
3.53624e-17
3.53595e-17
3.53597e-17
3.53599e-17
3.53602e-17
3.53605e-17
3.53608e-17
3.5361e-17
3.53613e-17
3.53616e-17
3.53618e-17
3.53621e-17
3.53623e-17
3.53626e-17
3.53629e-17
3.536e-17
3.53602e-17
3.53605e-17
3.53607e-17
3.5361e-17
3.53613e-17
3.53616e-17
3.53618e-17
3.53621e-17
3.53623e-17
3.53626e-17
3.53629e-17
3.53631e-17
3.53634e-17
3.53605e-17
3.53607e-17
3.5361e-17
3.53613e-17
3.53615e-17
3.53618e-17
3.53621e-17
3.53624e-17
3.53626e-17
3.53629e-17
3.53631e-17
3.53634e-17
3.53636e-17
3.53639e-17
3.53609e-17
3.53612e-17
3.53615e-17
3.53618e-17
3.53621e-17
3.53623e-17
3.53626e-17
3.53629e-17
3.53632e-17
3.53634e-17
3.53637e-17
3.53639e-17
3.53642e-17
3.53644e-17
3.53614e-17
3.53617e-17
3.5362e-17
3.53623e-17
3.53626e-17
3.53629e-17
3.53632e-17
3.53634e-17
3.53637e-17
3.5364e-17
3.53642e-17
3.53645e-17
3.53647e-17
3.53649e-17
3.53619e-17
3.53622e-17
3.53625e-17
3.53628e-17
3.53631e-17
3.53634e-17
3.53637e-17
3.5364e-17
3.53642e-17
3.53645e-17
3.53647e-17
3.5365e-17
3.53652e-17
3.53654e-17
3.53624e-17
3.53627e-17
3.5363e-17
3.53633e-17
3.53636e-17
3.53639e-17
3.53642e-17
3.53645e-17
3.53647e-17
3.5365e-17
3.53653e-17
3.53655e-17
3.53657e-17
3.53659e-17
3.53629e-17
3.53632e-17
3.53635e-17
3.53638e-17
3.53641e-17
3.53644e-17
3.53647e-17
3.5365e-17
3.53653e-17
3.53655e-17
3.53658e-17
3.5366e-17
3.53662e-17
3.53664e-17
3.53634e-17
3.53637e-17
3.5364e-17
3.53643e-17
3.53646e-17
3.53649e-17
3.53652e-17
3.53655e-17
3.53658e-17
3.5366e-17
3.53663e-17
3.53665e-17
3.53667e-17
3.53669e-17
3.53639e-17
3.53642e-17
3.53645e-17
3.53648e-17
3.53651e-17
3.53654e-17
3.53657e-17
3.5366e-17
3.53663e-17
3.53665e-17
3.53668e-17
3.5367e-17
3.53672e-17
3.53674e-17
3.53643e-17
3.53647e-17
3.5365e-17
3.53653e-17
3.53656e-17
3.53659e-17
3.53662e-17
3.53665e-17
3.53668e-17
3.5367e-17
3.53673e-17
3.53675e-17
3.53677e-17
3.53679e-17
3.53648e-17
3.53651e-17
3.53654e-17
3.53657e-17
3.53661e-17
3.53664e-17
3.53667e-17
3.53669e-17
3.53672e-17
3.53675e-17
3.53677e-17
3.5368e-17
3.53682e-17
3.53684e-17
3.53653e-17
3.53656e-17
3.53659e-17
3.53662e-17
3.53665e-17
3.53668e-17
3.53671e-17
3.53674e-17
3.53677e-17
3.53679e-17
3.53682e-17
3.53684e-17
3.53686e-17
3.53689e-17
3.53266e-17
3.53267e-17
3.53267e-17
3.53268e-17
3.53269e-17
3.53269e-17
3.5327e-17
3.53271e-17
3.53271e-17
3.53272e-17
3.53273e-17
3.53275e-17
3.53276e-17
3.53278e-17
3.53269e-17
3.53269e-17
3.5327e-17
3.53271e-17
3.53272e-17
3.53272e-17
3.53273e-17
3.53274e-17
3.53275e-17
3.53276e-17
3.53277e-17
3.53278e-17
3.5328e-17
3.53282e-17
3.53272e-17
3.53272e-17
3.53273e-17
3.53274e-17
3.53275e-17
3.53275e-17
3.53276e-17
3.53277e-17
3.53278e-17
3.53279e-17
3.5328e-17
3.53282e-17
3.53283e-17
3.53285e-17
3.53275e-17
3.53276e-17
3.53276e-17
3.53277e-17
3.53278e-17
3.53279e-17
3.53279e-17
3.5328e-17
3.53281e-17
3.53283e-17
3.53284e-17
3.53285e-17
3.53286e-17
3.53288e-17
3.53279e-17
3.53279e-17
3.5328e-17
3.5328e-17
3.53281e-17
3.53282e-17
3.53283e-17
3.53284e-17
3.53285e-17
3.53286e-17
3.53287e-17
3.53289e-17
3.5329e-17
3.53292e-17
3.53282e-17
3.53283e-17
3.53283e-17
3.53284e-17
3.53285e-17
3.53285e-17
3.53286e-17
3.53287e-17
3.53288e-17
3.5329e-17
3.53291e-17
3.53292e-17
3.53294e-17
3.53295e-17
3.53286e-17
3.53286e-17
3.53287e-17
3.53288e-17
3.53288e-17
3.53289e-17
3.5329e-17
3.53291e-17
3.53292e-17
3.53293e-17
3.53294e-17
3.53296e-17
3.53297e-17
3.53298e-17
3.53289e-17
3.5329e-17
3.53291e-17
3.53291e-17
3.53292e-17
3.53293e-17
3.53294e-17
3.53295e-17
3.53296e-17
3.53297e-17
3.53298e-17
3.53299e-17
3.53301e-17
3.53302e-17
3.53293e-17
3.53294e-17
3.53294e-17
3.53295e-17
3.53296e-17
3.53297e-17
3.53298e-17
3.53299e-17
3.533e-17
3.53301e-17
3.53302e-17
3.53303e-17
3.53304e-17
3.53305e-17
3.53297e-17
3.53298e-17
3.53298e-17
3.53299e-17
3.533e-17
3.53301e-17
3.53301e-17
3.53303e-17
3.53304e-17
3.53305e-17
3.53306e-17
3.53307e-17
3.53308e-17
3.53309e-17
3.533e-17
3.53301e-17
3.53302e-17
3.53303e-17
3.53304e-17
3.53305e-17
3.53305e-17
3.53306e-17
3.53308e-17
3.53309e-17
3.5331e-17
3.53311e-17
3.53312e-17
3.53313e-17
3.53304e-17
3.53305e-17
3.53306e-17
3.53307e-17
3.53308e-17
3.53309e-17
3.53309e-17
3.53311e-17
3.53312e-17
3.53313e-17
3.53314e-17
3.53315e-17
3.53316e-17
3.53316e-17
3.53308e-17
3.53309e-17
3.5331e-17
3.53311e-17
3.53312e-17
3.53313e-17
3.53314e-17
3.53315e-17
3.53316e-17
3.53317e-17
3.53318e-17
3.53319e-17
3.5332e-17
3.5332e-17
3.53313e-17
3.53313e-17
3.53314e-17
3.53315e-17
3.53316e-17
3.53317e-17
3.53318e-17
3.53319e-17
3.5332e-17
3.53321e-17
3.53322e-17
3.53323e-17
3.53324e-17
3.53325e-17
3.52973e-17
3.52972e-17
3.52971e-17
3.52971e-17
3.5297e-17
3.52969e-17
3.52969e-17
3.52969e-17
3.52968e-17
3.52968e-17
3.52968e-17
3.52969e-17
3.52969e-17
3.5297e-17
3.52974e-17
3.52973e-17
3.52972e-17
3.52971e-17
3.52971e-17
3.5297e-17
3.5297e-17
3.52969e-17
3.52969e-17
3.52969e-17
3.52969e-17
3.5297e-17
3.5297e-17
3.52971e-17
3.52974e-17
3.52974e-17
3.52973e-17
3.52972e-17
3.52971e-17
3.52971e-17
3.5297e-17
3.5297e-17
3.5297e-17
3.5297e-17
3.5297e-17
3.52971e-17
3.52971e-17
3.52972e-17
3.52976e-17
3.52975e-17
3.52974e-17
3.52973e-17
3.52972e-17
3.52972e-17
3.52972e-17
3.52971e-17
3.52971e-17
3.52971e-17
3.52972e-17
3.52972e-17
3.52973e-17
3.52973e-17
3.52977e-17
3.52976e-17
3.52975e-17
3.52974e-17
3.52974e-17
3.52973e-17
3.52973e-17
3.52973e-17
3.52973e-17
3.52973e-17
3.52973e-17