/*--------------------------------*- C++ -*----------------------------------*\
| =========                 |                                                 |
| \\      /  F ield         | OpenFOAM: The Open Source CFD Toolbox           |
|  \\    /   O peration     | Version:  v2106                                 |
|   \\  /    A nd           | Website:  www.openfoam.com                      |
|    \\/     M anipulation  |                                                 |
\*---------------------------------------------------------------------------*/
FoamFile
{
    version     2.0;
    format      ascii;
    arch        "LSB;label=32;scalar=64";
    class       volScalarField;
    location    "0.000196";
    object      epsilon;
}
// * * * * * * * * * * * * * * * * * * * * * * * * * * * * * * * * * * * * * //

dimensions      [0 2 -3 0 0 0 0];

internalField   nonuniform List<scalar> 
18109
(
692.089
489.689
340.81
247.103
196.81
181.085
201.645
276.164
191.101
128.939
90.6137
70.4058
63.707
70.6895
107.346
69.0243
44.5557
30.3222
23.1251
20.8025
23.445
41.7545
23.2714
14.0601
9.22869
6.93426
6.27517
7.38602
17.3702
7.61286
4.09394
2.55642
1.89595
1.76052
2.28425
8.98823
2.78515
1.16851
0.654884
0.476955
0.475806
0.755569
6.89701
1.54989
0.413165
0.168504
0.115671
0.139733
0.315795
7.68715
1.48297
0.268505
0.0632449
0.0383456
0.0667302
0.208218
634.831
453.212
312.861
219.578
163.31
135.829
135.435
168.064
255.493
441.473
799.439
1444.15
2549.07
4413.13
248.245
173.432
116.104
78.9084
57.1497
46.7053
46.6619
59.6595
96.007
178.085
348.417
685.094
1314.98
2484.97
93.2715
61.1598
39.2567
25.7749
18.2479
14.7828
15.0914
20.5888
36.7016
76.209
166.071
360.893
761.98
1584.28
34.3231
19.975
12.0821
7.63124
5.29554
4.30267
4.64476
7.18731
15.0451
36.1528
88.8054
212.941
490.24
1098.8
13.2513
6.24405
3.41344
2.05059
1.39689
1.16513
1.42735
2.74516
7.03076
19.4843
53.0049
137.615
338.892
800.651
6.47449
2.15209
0.935712
0.507845
0.338449
0.307065
0.485914
1.24929
3.84771
11.8705
34.7607
95.653
247.415
606.287
5.03248
1.15619
0.314682
0.125691
0.0792348
0.0905796
0.215098
0.719346
2.5018
8.25274
25.3555
72.4953
193.471
484.564
5.90865
1.12839
0.200607
0.0462561
0.0267823
0.0459234
0.147089
0.548814
1.99563
6.76398
21.2136
61.5711
166.045
417.719
8.39196
1.5012
0.242917
0.0607273
0.0495282
0.0805686
0.197456
0.627652
2.13244
7.00321
21.5258
61.4297
163.063
403.823
12.8229
2.34589
0.478254
0.217604
0.224181
0.309506
0.530907
1.19502
3.27834
9.5767
27.3584
74.0937
188.726
451.206
21.0132
4.6055
1.44963
0.933996
0.986749
1.28085
1.89504
3.33052
7.08637
17.2169
43.5716
108.559
259.85
589.814
38.7341
11.6464
5.14367
3.71114
3.82759
4.80371
6.71941
10.4765
18.5921
37.5742
82.3157
184.893
410.42
874.476
80.357
32.6925
17.3378
13.0389
13.1297
16.0589
21.845
32.2069
51.4772
90.4531
172.597
345.908
703.216
1391.15
179.413
89.9203
52.3754
40.4805
40.3219
48.4468
64.6422
92.2134
138.215
219.453
369.823
656.683
1210.36
2222.42
1670.11
3145.64
5885.26
10963.2
20604.8
39719.3
1553.47
2972.18
5657.7
10690.5
20151.2
38017.1
1097.6
2290.59
4646.7
9183.18
17926.9
35580.7
775.157
1752.78
3786.81
7860.98
16053.9
33988.8
560.998
1361.78
3126.73
6878.63
15005.9
34571.9
430.402
1111.69
2711.57
6385.8
15151.2
38349.8
367.313
999.743
2594.98
6624.95
17363.8
48309.9
370.705
1049.64
2888.67
7970.23
22694
66748.4
457.04
1315.64
3739.03
10733.8
31336.7
91084.4
675.948
1917.44
5394.35
15208.6
43023.9
118415
1115
2996.17
7955.6
21044
55031.8
138431
1898.22
4669.86
11352.7
27464.8
65490.6
149296
3185.19
7047.59
15523.4
34118.2
73840.6
151502
5256.97
10424.1
20644.6
40880.7
79971.5
148544
8575.67
15204.7
27011.8
47943.1
83756.3
139738
5882.39
11816.6
22710.5
41803.3
72973.4
119659
4471.85
9220.73
17875.3
32907.3
58009.8
98359.1
3381.66
7114.44
14036.9
26308.9
47701.9
84879.5
2507.85
5432.72
11012.7
21169.9
39685.6
74227.5
1875.57
4196.84
8783.08
17410.8
33941
68703.1
1434.64
3298.63
7117.93
14578
29699.9
66381.3
1146.72
2686.26
5934.87
12570.8
27207.8
68153.1
978.788
2306.39
5176.81
11330.5
26470.4
76394.1
923.337
2153.93
4858.38
10994.2
27910.7
90718.1
991.651
2248.79
5011.94
11573.4
30651
103229
1225.28
2640.84
5689.92
12972.4
33870.5
107548
1691.57
3396.2
6925.9
15049.1
36902
105216
2482.13
4606.1
8767.04
17700.2
39625.8
99734.5
3688.5
6311.4
11137.8
20686.9
41608.7
90685.2
3053.82
4793.43
8558.62
16558.4
33953.3
72584
2073.71
3560.76
6835.28
13797.6
28311.9
59292
1352.69
2658.12
5497.29
11414.7
23459.7
48725.1
902.601
1988.64
4323.68
9159.62
19032.2
40179.1
613.194
1459.67
3301.64
7200.69
15295.9
33441.8
418.8
1046.88
2454.46
5528.86
12101.3
27482.2
287.074
741.103
1799.11
4200.66
9527.29
22693.4
199.28
525.904
1319.22
3192.98
7516.76
18976.2
145.531
388.809
999.978
2496.33
6103.15
16422.5
118.885
317.798
824.986
2090.91
5243.21
14849.7
119.839
313.822
796.243
1988.8
4998.32
14568
157.288
392.6
939.047
2237.62
5438.43
15825.4
251.484
596.548
1348.83
3030.1
7018.15
19015.7
365.657
834.451
1879.81
4114.2
8964.53
21688.6
88.4789
325.915
1223.21
4324.17
14483.3
45740.2
169.069
538.719
1800.46
5674.11
16791.9
46258.2
347.907
933.557
2655.92
7282.42
18809.8
45316.4
761.827
1710.1
3964.59
9104.6
20350.3
43396.4
379.804
909.291
2170.28
4885.73
10516.1
23670.8
246.674
727.328
1899.97
4467.44
9998.59
23043.2
160.774
542.348
1509.39
3712.79
8710.46
20910.5
104.322
379.932
1114.57
2897.57
7208.08
18326.9
67.1576
253.72
780.486
2161.88
5759.44
15792.4
43.4091
165.498
534.561
1586.9
4554.84
13677.9
29.2357
112.949
382.038
1216.66
3785.15
12634.6
22.7682
89.7795
323.189
1111.78
3816.84
14452.1
23.47
92.3967
350.21
1281.63
4728.68
18590.9
33.6124
125.714
482.98
1797.07
6635.49
24625.3
61.7663
210.48
776.69
2753.5
9429.61
31008.8
130.394
395.24
1319.17
4207.27
12713.7
35978.2
293.737
777.642
2232.51
6187.87
16146.8
39153.1
681.356
1543.18
3642.7
8486.16
19043.2
40306.5
68471.7
318954
1.11177e+06
1.0941e+06
748883
71425.7
331131
1.11843e+06
1.0842e+06
746659
77427.2
355084
1.2237e+06
1.10131e+06
760685
85288.8
403110
1.40195e+06
1.12219e+06
795012
101554
466068
1.57829e+06
1.11536e+06
812245
135623
551599
1.63887e+06
1.02973e+06
798768
187591
681103
1.56967e+06
912641
797941
243014
798193
1.4359e+06
851765
824383
1.107e+06
292076
864297
1.27887e+06
801646
833228
1.17573e+06
309766
833104
1.12456e+06
740760
793174
1.20877e+06
301698
751100
1.03039e+06
686203
705944
1.17748e+06
1.83504e+06
277719
653928
1.00072e+06
682985
610311
1.01728e+06
2.06389e+06
3.02438e+06
247750
557283
1.01446e+06
745650
571023
778029
1.85215e+06
6.07648e+06
215207
473506
1.05419e+06
865401
629481
697504
1.03563e+06
3.53135e+06
183930
426757
1.1029e+06
991275
716470
740681
998309
3.71357e+06
158951
425009
1.17597e+06
1.07652e+06
765406
806088
1.09181e+06
2.937e+06
153863
451461
1.35607e+06
1.1533e+06
810556
891132
1.15223e+06
3.7127e+06
158650
523469
1.65219e+06
1.23011e+06
886825
1.00825e+06
1.15341e+06
1.58752e+06
167348
643509
2.00357e+06
1.26584e+06
927125
1.10156e+06
1.2513e+06
1.12747e+06
181213
798021
2.20414e+06
1.18731e+06
892655
1.15296e+06
1.34507e+06
1.06217e+06
209661
976948
2.15074e+06
1.06556e+06
865309
1.22566e+06
1.49717e+06
1.91857e+06
257325
1.16428e+06
2.0082e+06
1.03089e+06
895165
1.31694e+06
1.72184e+06
1.47803e+06
312413
1.29745e+06
1.85464e+06
1.01043e+06
909092
1.37095e+06
339866
1.27881e+06
1.67191e+06
962768
863215
1.33459e+06
321176
1.12122e+06
1.46237e+06
915616
770843
1.23986e+06
276846
919875
1.27664e+06
938813
684288
1.03278e+06
236758
719807
1.06742e+06
996699
675396
777010
201680
573183
946979
1.08495e+06
763256
172118
463211
893018
1.21055e+06
878624
148689
379041
870501
1.33178e+06
939898
130957
321387
913246
1.47875e+06
984907
114416
288436
1.05541e+06
1.70821e+06
1.08904e+06
100505
277496
1.32106e+06
2.00006e+06
1.14555e+06
88635.5
279777
1.68041e+06
2.18e+06
1.08613e+06
78598
287428
2.0516e+06
2.18927e+06
993471
70339.7
314729
2.36018e+06
2.20801e+06
983820
65165.5
365755
2.5101e+06
2.19497e+06
952958
63391
414140
2.3371e+06
2.02587e+06
883988
65375.8
434058
1.90961e+06
1.74262e+06
855227
71323.6
422390
1.45811e+06
1.50147e+06
878048
78982.9
392718
1.11782e+06
1.30071e+06
902463
84099.7
355795
931246
1.22089e+06
933051
84999.3
311592
814530
1.20403e+06
959935
81835
272273
752759
1.19735e+06
919214
76287.6
244939
764677
1.24853e+06
890752
70687.6
235491
878596
1.39071e+06
914162
65281.7
238026
1.08311e+06
1.55294e+06
892922
59835.4
246069
1.32597e+06
1.59683e+06
804782
56235.3
262110
1.5811e+06
1.5266e+06
715050
60512.3
298105
1.77249e+06
1.44755e+06
679375
72458.1
377032
1.80321e+06
1.35496e+06
651259
85873
420568
1.65019e+06
1.23053e+06
622444
92956.8
410221
1.47683e+06
1.13665e+06
593300
90619.8
361583
1.33693e+06
1.08697e+06
598225
82956.3
309928
1.2316e+06
1.06212e+06
651893
74635.1
303428
1.15587e+06
1.07362e+06
712376
572.106
411.597
284.84
197.551
142.118
111.538
103.25
119.645
174.935
301.828
563.514
1069.46
1982.17
3564.99
218.989
153.526
103.224
69.3345
48.5047
37.3498
34.7557
41.896
66.0039
124.355
252.878
521.49
1051.02
2078.93
79.6097
52.6082
34.0288
22.0782
15.0654
11.4678
10.9442
14.2896
25.5651
55.0574
125.848
286.9
634.368
1376.78
27.8889
16.6153
10.1887
6.36076
4.24656
3.23494
3.29411
5.01389
10.8408
27.3511
70.4344
176.284
421.821
977.627
10.134
4.98764
2.79192
1.66135
1.08798
0.852027
1.00812
1.98315
5.33242
15.4566
43.6948
117.413
298.028
722.144
4.78399
1.64881
0.738954
0.399684
0.256458
0.221213
0.353169
0.952724
3.06093
9.75983
29.4243
83.1734
220.273
550.178
3.85388
0.881328
0.240736
0.0960745
0.0587818
0.0662283
0.164747
0.57435
2.05484
6.94123
21.8196
63.726
173.242
440.038
4.78813
0.890999
0.153565
0.0349528
0.0202928
0.035333
0.116322
0.444243
1.64858
5.69989
18.238
53.9225
147.781
376.282
7.07478
1.22144
0.190107
0.0485004
0.0412375
0.0663413
0.159529
0.507041
1.7459
5.84098
18.3034
53.1696
143.332
359.279
11.128
1.94908
0.385263
0.182558
0.193658
0.266456
0.447234
0.984325
2.6853
7.92131
22.9964
63.3749
164.07
397.585
18.6678
3.88795
1.20144
0.802163
0.868003
1.13076
1.65535
2.85054
5.95798
14.4212
36.8098
93.0496
226.291
521.078
34.928
9.98934
4.35519
3.23495
3.41506
4.31758
6.01403
9.25828
16.1522
32.276
70.7834
160.724
362.249
784.618
72.9537
28.5463
14.9452
11.5062
11.8584
14.6493
19.9078
29.1318
46.0054
79.9658
152.207
307.472
634.477
1276.91
163.277
80.0885
45.9668
36.2028
36.8781
44.8734
59.9649
85.1279
126.539
199.24
334.325
596.076
1111.77
2075.51
456.116
334.133
237.326
165.41
117.333
87.328
73.281
73.9
96.489
158.182
299.938
599.349
1197.01
2315.87
159.28
112.89
78.0959
52.9101
36.722
26.7977
22.4729
23.4342
33.4848
62.4662
134.634
300.066
662.988
1447.62
51.7293
34.6206
23.1393
15.2239
10.3771
7.46382
6.3517
7.15839
12.0669
27.2679
68.9389
173.845
425.174
1018.23
15.7524
9.62207
6.13766
3.91305
2.63235
1.88596
1.68886
2.26548
4.97352
13.9378
40.5226
112.641
296.524
749.519
5.03381
2.51978
1.46775
0.896914
0.597386
0.437295
0.453266
0.852086
2.53595
8.37557
26.6252
78.7751
217.759
569.715
2.48616
0.785426
0.341945
0.186924
0.12241
0.0982045
0.145424
0.424192
1.56558
5.65321
18.9126
58.2379
166.346
444.581
2.52029
0.501086
0.113491
0.0400607
0.0241605
0.0261167
0.0691513
0.2772
1.12967
4.25538
14.6595
46.2537
134.613
363.179
3.66419
0.610135
0.0887574
0.0160828
0.00859483
0.0148594
0.0525455
0.225197
0.934946
3.56981
12.4466
39.6531
116.079
313.024
5.7977
0.897331
0.121193
0.0283857
0.0244251
0.0363822
0.0807855
0.262106
0.982552
3.61728
12.3705
38.8239
111.96
297.345
9.40162
1.45109
0.248316
0.117646
0.12894
0.172141
0.268374
0.553222
1.5237
4.80801
15.1549
45.2134
125.585
323.539
15.9249
2.84901
0.782771
0.544848
0.615549
0.800099
1.13134
1.83815
3.69231
9.0773
24.5231
66.4779
172.692
421.935
29.8575
7.31426
2.9416
2.30091
2.54951
3.26185
4.47861
6.65594
11.1599
21.9718
49.3804
117.905
281.077
643.47
62.2318
21.6098
10.6559
8.60749
9.29494
11.6831
15.7756
22.5894
34.681
59.1259
113.146
236.236
510.99
1083.78
140.773
64.5501
34.9279
28.5673
30.3608
37.7584
50.4342
70.5842
102.863
159.108
264.99
479.374
926.555
1819.04
277.685
200.971
146.188
104.774
77.6975
59.9644
51.2104
49.8589
60.4448
91.5017
166.491
329.733
676.392
1381.82
87.5639
60.3979
42.4795
29.2407
21.068
15.8447
13.5052
13.5751
18.0285
31.688
68.0971
157.19
370.492
882.434
25.5305
16.4528
11.1233
7.32907
5.12574
3.74887
3.21321
3.47009
5.53409
12.4053
32.8964
89.2811
238.855
631.498
6.9666
4.04802
2.597
1.63472
1.11054
0.792968
0.70534
0.916731
2.03334
6.0517
19.1005
58.1026
168.84
473.372
2.18798
0.96644
0.545827
0.323486
0.21283
0.151382
0.156822
0.310494
1.02148
3.72106
12.9931
42.2903
129.497
376.914
1.39164
0.339909
0.119537
0.058484
0.0363318
0.0279842
0.045311
0.155034
0.65222
2.61978
9.67904
32.9396
104.447
310.38
1.81081
0.303565
0.0507424
0.0123617
0.00614003
0.00678229
0.0221661
0.105228
0.488087
2.05929
7.90208
27.7567
89.9496
269.783
2.92147
0.433549
0.0534129
0.00730593
0.00330331
0.00539514
0.0187259
0.0880765
0.414262
1.79139
7.03794
25.1645
82.2107
246.005
4.89515
0.679197
0.0799461
0.0172858
0.0156264
0.0218834
0.0401033
0.117242
0.464205
1.91798
7.41721
26.1828
84.0477
246.151
8.3443
1.14905
0.169941
0.0793028
0.091584
0.123274
0.178203
0.322147
0.834273
2.77814
9.69198
32.1333
98.1346
275.333
14.7446
2.33415
0.563823
0.394497
0.462853
0.614521
0.851429
1.2997
2.43683
5.95763
17.0326
49.9586
139.912
366.976
28.9709
6.23667
2.26875
1.77899
2.01385
2.62329
3.58344
5.17422
8.30615
15.9893
36.6968
92.3935
233.804
568.165
61.4475
19.3015
8.82086
7.1109
7.71974
9.80045
13.2017
18.6099
27.8718
46.643
89.4453
192.452
436.428
978.094
137.875
61.6523
31.0793
25.2029
26.5692
33.1555
44.1596
61.224
88.0242
134.614
222.338
403.962
800.46
1651.6
113.383
79.1552
58.3887
43.5159
34.6686
28.4375
25.1965
24.3654
27.6005
38.3498
67.0283
133.64
290.672
645.563
31.7348
20.809
14.7361
10.411
7.98293
6.33919
5.58013
5.50213
6.72446
10.9837
23.8053
59.0343
154.958
412.041
8.04971
4.85951
3.29684
2.21361
1.63296
1.25005
1.0925
1.1293
1.65421
3.69923
10.7697
33.1939
101.279
302.604
2.00529
1.01812
0.643213
0.410757
0.291825
0.216092
0.191835
0.235192
0.521971
1.74303
6.35804
22.2592
73.8782
235.499
0.830971
0.248078
0.115494
0.0664024
0.045002
0.0328292
0.0334188
0.0685725
0.262218
1.12882
4.58674
17.2105
60.5254
202.459
0.89729
0.154921
0.0310167
0.0105502
0.00607433
0.00473353
0.00837293
0.0354195
0.180747
0.856294
3.67609
14.4618
52.909
181.29
1.432
0.207868
0.0255858
0.00336794
0.00100088
0.00111728
0.00451128
0.0265518
0.14768
0.733776
3.28247
13.367
49.9703
171.968
2.45535
0.323704
0.0343963
0.00382844
0.00157856
0.0021608
0.00555676
0.025829
0.139118
0.703679
3.21824
13.282
49.6213
168.273
4.2312
0.521356
0.0535999
0.0110822
0.0104465
0.0140525
0.0212218
0.048353
0.183886
0.84196
3.72319
14.9892
54.3392
177.946
7.4101
0.927699
0.119808
0.0555149
0.0648812
0.0871007
0.119354
0.187412
0.419844
1.38602
5.27476
19.5161
66.2045
204.626
13.4123
1.97303
0.427597
0.295322
0.342837
0.453768
0.614526
0.88211
1.49823
3.44063
10.0877
31.9183
97.388
278.01
28.3455
5.46679
1.84045
1.42447
1.57107
2.02188
2.70848
3.77761
5.72317
10.3576
23.316
60.9595
164.638
430.993
61.7193
17.3271
7.61802
6.11334
6.41715
7.97596
10.487
14.3771
20.767
33.2829
61.7411
133.581
316.185
758.314
130.524
58.6453
28.8256
23.2245
23.6252
28.7164
37.1406
50.0361
70.015
104.151
166.779
296.995
592.551
1289.44
21.968
13.9284
9.65
6.89468
5.50144
4.76393
4.64669
4.94678
5.96764
8.42038
14.6705
30.2189
71.2131
176.924
5.38257
3.1619
2.13162
1.44831
1.09477
0.896225
0.845157
0.899677
1.15604
1.94235
4.4457
12.2904
36.6816
109.639
1.24075
0.618618
0.4003
0.261337
0.189124
0.147168
0.134545
0.147637
0.231511
0.581406
1.9666
7.05689
24.5604
81.6047
0.416575
0.125489
0.0652094
0.0396949
0.0275577
0.0206282
0.0189571
0.0257586
0.0701632
0.289078
1.24439
4.99437
18.5821
65.3756
0.388941
0.0631828
0.014109
0.0055226
0.00335942
0.00246256
0.00280027
0.00795093
0.0402071
0.208052
0.975345
4.14661
16.3609
61.29
0.612384
0.0819303
0.0104045
0.00145945
0.000414949
0.000299383
0.000804646
0.00492564
0.0308996
0.171193
0.842843
3.77115
15.6591
61.102
1.10102
0.129705
0.0139046
0.00133461
0.000196867
0.000161355
0.000622406
0.00417214
0.0273221
0.158486
0.820052
3.84791
16.5709
65.7936
2.0723
0.217769
0.0198529
0.00204456
0.000810099
0.000964964
0.0015774
0.00516537
0.0285673
0.166123
0.884705
4.2473
18.4155
72.2396
3.8514
0.390821
0.031717
0.00617975
0.00572073
0.00745629
0.00986103
0.0161742
0.0478214
0.224686
1.13208
5.28718
22.2259
83.9087
7.20717
0.831485
0.077909
0.0326297
0.0367817
0.0481798
0.0626563
0.0860577
0.152846
0.444475
1.7847
7.47099
29.0511
102.482
13.229
1.88538
0.301356
0.186503
0.204929
0.26184
0.339636
0.453294
0.672738
1.33279
3.78595
12.9431
44.3713
142.801
25.0879
5.12704
1.39297
0.983823
1.01435
1.24349
1.58901
2.09777
2.92868
4.75134
9.90803
26.2443
76.376
220.327
47.8324
15.1531
6.19513
4.66134
4.56036
5.35374
6.65968
8.64475
11.7491
17.494
30.1308
63.2269
153.787
395.938
102.109
50.0084
25.8925
19.6027
18.5095
21.25
25.9312
33.0178
43.8568
62.2654
94.9871
161.824
312.464
692.24
1.98131
1.16124
0.779835
0.537576
0.406631
0.333857
0.317879
0.340834
0.423421
0.631406
1.22137
2.94006
8.19948
24.0476
0.441484
0.215697
0.140441
0.0940713
0.0688712
0.0541855
0.0493933
0.0515837
0.0674943
0.128017
0.365446
1.26575
4.51075
15.3706
0.144168
0.0392049
0.020912
0.0132886
0.0094689
0.00724616
0.00646222
0.00708789
0.0129612
0.0445249
0.195237
0.83629
3.29311
11.9097
0.129025
0.018017
0.00395833
0.00165008
0.00104433
0.000778033
0.000734173
0.0012541
0.00518483
0.0281329
0.142757
0.643735
2.60563
9.68917
0.191785
0.023949
0.00293749
0.000437205
0.000117445
7.11789e-05
0.000110293
0.000551872
0.00372457
0.0226168
0.119238
0.555385
2.34586
9.24553
0.315811
0.0387038
0.00397357
0.000423936
4.62182e-05
1.35201e-05
5.14842e-05
0.000416085
0.00306817
0.0193042
0.105529
0.514482
2.29651
9.59917
0.539361
0.066306
0.0056594
0.000531372
6.97119e-05
4.19278e-05
8.08791e-05
0.000406246
0.00282654
0.0182972
0.104937
0.540778
2.55092
11.1538
0.927241
0.115592
0.00839479
0.000810694
0.000315367
0.000365013
0.00047574
0.000865074
0.00344478
0.0203736
0.119377
0.637635
3.09223
13.6707
1.56861
0.200231
0.0142128
0.00241151
0.00223425
0.00290144
0.00365625
0.00480422
0.00898265
0.0330103
0.17009
0.879108
4.1723
17.9433
2.66123
0.365807
0.0355873
0.0133072
0.0149994
0.0194199
0.0245267
0.0310062
0.0436701
0.0917198
0.323803
1.42316
6.1679
24.6934
4.59019
0.765813
0.139935
0.0821336
0.0895383
0.111845
0.140329
0.177826
0.235199
0.375097
0.87063
2.86525
10.5214
37.7333
8.48535
2.04579
0.672808
0.468928
0.481457
0.572394
0.700827
0.883619
1.14925
1.65065
2.90976
6.94833
20.2586
62.6172
16.7819
6.28789
3.04255
2.32653
2.29886
2.62135
3.106
3.83722
4.91252
6.75814
10.3964
19.5055
44.7927
117.936
39.8449
21.3391
12.6996
10.2306
9.90866
11.0487
12.7597
15.3918
19.2499
25.666
36.5883
58.0882
104.214
223.316
0.121768
0.0643248
0.0428469
0.0298486
0.0221831
0.0175404
0.0157104
0.0156513
0.0183446
0.0283346
0.0649886
0.197064
0.667066
2.28272
0.0317587
0.0100658
0.0057759
0.0038666
0.00282741
0.00221004
0.0019547
0.00193416
0.00253044
0.00598175
0.0232744
0.100907
0.415274
1.5656
0.0223993
0.00351257
0.000886876
0.000411628
0.000273713
0.000210509
0.000189228
0.000223557
0.000584491
0.00293278
0.0157754
0.0764413
0.328515
1.26454
0.030965
0.00436517
0.000623837
0.000102087
2.75079e-05
1.57835e-05
1.7016e-05
5.2354e-05
0.000337804
0.00220589
0.0125524
0.0619703
0.269405
1.0498
0.0482285
0.00667252
0.000869629
0.000110432
1.30509e-05
2.1858e-06
4.16552e-06
3.41794e-05
0.000274003
0.00186081
0.0107805
0.0542524
0.242184
0.980754
0.076433
0.0101806
0.00118182
0.000136121
1.47114e-05
2.67434e-06
4.35459e-06
2.95064e-05
0.000233003
0.00160897
0.00956465
0.049808
0.232398
0.994103
0.122742
0.015898
0.0015885
0.000167894
2.56645e-05
1.60843e-05
2.03409e-05
4.47538e-05
0.000231698
0.00152979
0.0093563
0.0510482
0.25173
1.14145
0.196147
0.0248602
0.00218626
0.000261161
0.000118825
0.000139651
0.000172661
0.000222585
0.000441637
0.00187585
0.0107701
0.0602226
0.308478
1.44668
0.309764
0.0392829
0.00353692
0.000838338
0.000825947
0.00107558
0.00134453
0.00164029
0.00218574
0.00450286
0.0175282
0.0885465
0.441336
2.03718
0.490715
0.0682749
0.00928659
0.00468387
0.00540164
0.00698791
0.00877896
0.0108087
0.0135149
0.0199016
0.0456576
0.168838
0.732371
3.11586
0.813943
0.149409
0.0385493
0.0268705
0.0302348
0.0378253
0.0471562
0.0584152
0.0726595
0.0971834
0.163317
0.41477
1.4164
5.23984
1.53098
0.437654
0.181384
0.14022
0.14995
0.179064
0.218186
0.268531
0.333572
0.433448
0.632411
1.20601
3.11682
9.59136
3.34146
1.47136
0.808569
0.659862
0.677911
0.772524
0.909904
1.09699
1.3495
1.73199
2.37892
3.8225
7.71763
19.5079
8.76283
5.07971
3.31311
2.82367
2.8405
3.12672
3.55868
4.1637
5.01114
6.32899
8.41745
12.2687
20.1699
40.7975
0.0107611
0.00454882
0.00283409
0.00194109
0.00143108
0.00114367
0.00103203
0.00100377
0.00111031
0.00174927
0.00478259
0.0179281
0.0706249
0.267931
0.00420417
0.000884371
0.000322025
0.000181607
0.000128396
0.000102868
9.42131e-05
9.5566e-05
0.000138522
0.000441344
0.00217548
0.0107477
0.0480088
0.192651
0.00466654
0.000784452
0.000133565
2.69664e-05
9.92255e-06
6.74076e-06
6.50609e-06
1.03306e-05
4.37643e-05
0.000277108
0.0016498
0.00857579
0.0390865
0.158366
0.00706718
0.00119224
0.000191554
2.73745e-05
3.66789e-06
6.6241e-07
6.52687e-07
3.81048e-06
3.04655e-05
0.000216767
0.0013211
0.00694969
0.0320274
0.131255
0.0108108
0.00175161
0.00027056
3.67439e-05
4.36005e-06
4.94806e-07
3.65125e-07
2.9213e-06
2.49226e-05
0.000181097
0.00112166
0.00600273
0.028242
0.118882
0.0163769
0.00247546
0.000352137
4.43608e-05
5.11934e-06
9.07272e-07
8.0719e-07
2.93711e-06
2.12355e-05
0.000153739
0.000971873
0.00534882
0.0260647
0.114592
0.0248691
0.00348696
0.000449589
5.35091e-05
8.50619e-06
5.14726e-06
6.00126e-06
8.53829e-06
2.52251e-05
0.000146043
0.000916623
0.00521961
0.0266603
0.123847
0.0373523
0.00487824
0.000581668
8.0038e-05
3.52211e-05
4.10419e-05
5.07039e-05
6.06434e-05
8.42606e-05
0.000217276
0.00105879
0.00592127
0.031207
0.150986
0.0551063
0.00693928
0.000870153
0.000229051
0.00022001
0.000288587
0.000361853
0.000432955
0.000523202
0.000774505
0.00203461
0.00898165
0.0446694
0.213056
0.0820979
0.0112925
0.00205313
0.00110362
0.00128723
0.00168652
0.00212022
0.00256987
0.00308235
0.00396323
0.00675401
0.0194697
0.0787789
0.341003
0.131798
0.0250593
0.00788838
0.00577061
0.00667605
0.00849031
0.0105948
0.0129404
0.0156503
0.0195608
0.0279184
0.0564663
0.169467
0.618016
0.253949
0.0773418
0.0354061
0.0282802
0.0311728
0.0379606
0.0464698
0.0566217
0.0688532
0.0857548
0.114334
0.186813
0.420403
1.23937
0.599811
0.270944
0.153471
0.127264
0.133801
0.155158
0.184257
0.221387
0.268604
0.334901
0.435487
0.635168
1.14247
2.7144
1.65531
0.944713
0.616503
0.527794
0.536825
0.595029
0.680731
0.797313
0.954736
1.18681
1.52991
2.11357
3.23999
6.18716
0.00177841
0.000544012
0.000277115
0.000177941
0.000129253
0.000105062
9.66886e-05
9.34475e-05
9.87112e-05
0.000157308
0.000498011
0.00215744
0.00929051
0.0370476
0.00100011
0.000188435
4.15718e-05
1.49554e-05
9.12965e-06
7.39707e-06
7.09297e-06
7.58254e-06
1.26174e-05
5.01694e-05
0.000278384
0.00146024
0.00678836
0.0279931
0.00129195
0.000247423
4.23375e-05
6.60761e-06
1.19929e-06
4.53264e-07
4.26473e-07
9.24959e-07
5.15375e-06
3.5682e-05
0.000222632
0.00120171
0.00566325
0.0235261
0.00195932
0.000381396
6.61746e-05
9.80094e-06
1.28619e-06
1.63426e-07
7.8965e-08
4.60123e-07
3.83845e-06
2.8379e-05
0.000179916
0.000983207
0.00469656
0.0197942
0.00288635
0.000544343
9.17617e-05
1.30413e-05
1.62228e-06
1.90454e-07
7.38465e-08
3.74878e-07
3.12913e-06
2.35109e-05
0.000151751
0.000845594
0.00412672
0.0178215
0.0041489
0.000738271
0.000116917
1.54797e-05
1.86967e-06
3.26638e-07
2.3172e-07
4.89801e-07
2.75683e-06
1.98101e-05
0.000129697
0.000741822
0.00373748
0.0167844
0.00593624
0.000989293
0.000145912
1.8326e-05
2.88568e-06
1.60369e-06
1.81575e-06
2.25403e-06
4.39169e-06
1.96768e-05
0.000120544
0.000704034
0.0036927
0.0174498
0.00835602
0.00130698
0.000183333
2.58492e-05
1.0199e-05
1.14905e-05
1.41835e-05
1.66638e-05
2.06357e-05
3.80727e-05
0.000146182
0.000784925
0.00418107
0.0205523
0.0115784
0.00174187
0.000257314
6.33602e-05
5.66062e-05
7.41044e-05
9.29823e-05
0.000110449
0.000129637
0.000168718
0.000335776
0.00124389
0.00597261
0.0287719
0.0163812
0.00262938
0.000533866
0.0002694
0.000311701
0.000411728
0.000518011
0.000623614
0.000735908
0.000897501
0.00130929
0.00305563
0.0111562
0.0476972
0.0257199
0.00548427
0.00182678
0.00131763
0.00155064
0.00200125
0.00250512
0.00304316
0.00363102
0.00439882
0.00578151
0.0100295
0.0263519
0.092075
0.0512348
0.016494
0.00773407
0.00618984
0.0069931
0.00869211
0.0107218
0.0130313
0.0156584
0.0190483
0.0241545
0.0358508
0.0716922
0.198764
0.128984
0.0573485
0.0324814
0.0269401
0.0290142
0.034467
0.04149
0.0500081
0.0601692
0.0736194
0.0924041
0.126831
0.208579
0.463144
0.367073
0.198471
0.127675
0.108771
0.112636
0.127656
0.148506
0.175391
0.209468
0.257016
0.322786
0.428831
0.62022
1.11921
0.000362566
8.19812e-05
2.91347e-05
1.60521e-05
1.13905e-05
9.68697e-06
9.41045e-06
9.32838e-06
9.54676e-06
1.46672e-05
5.0614e-05
0.000243856
0.00112794
0.00469036
0.000256879
4.82341e-05
8.50216e-06
1.78168e-06
7.09897e-07
5.54972e-07
5.86507e-07
6.93066e-07
1.26575e-06
5.49439e-06
3.24487e-05
0.000178576
0.000864248
0.00367872
0.000358941
7.33185e-05
1.30284e-05
2.02944e-06
3.0277e-07
6.44614e-08
4.61453e-08
1.02667e-07
5.79779e-07
4.12739e-06
2.67487e-05
0.000150198
0.000735039
0.00315237
0.00054426
0.000113288
2.04861e-05
3.17175e-06
4.37576e-07
6.13505e-08
2.27888e-08
6.22654e-08
4.45843e-07
3.33651e-06
2.19279e-05
0.000124646
0.000619014
0.0026994
0.000786968
0.000160052
2.80807e-05
4.1742e-06
5.48034e-07
7.32122e-08
2.59399e-08
5.65048e-08
3.70957e-07
2.78621e-06
1.86184e-05
0.000107888
0.00054708
0.00244021
0.0011001
0.0002138
3.53375e-05
4.91159e-06
6.2215e-07
1.11062e-07
7.12545e-08
1.00708e-07
3.62888e-07
2.39132e-06
1.59821e-05
9.46909e-05
0.000493847
0.00227898
0.00152176
0.000280889
4.3447e-05
5.7209e-06
8.77384e-07
4.28963e-07
4.70013e-07
5.51807e-07
8.23532e-07
2.65099e-06
1.50232e-05
8.89077e-05
0.000478024
0.00230283
0.00206923
0.000363723
5.35957e-05
7.58611e-06
2.55876e-06
2.71242e-06
3.33804e-06
3.88622e-06
4.56151e-06
6.7809e-06
1.99505e-05
9.89636e-05
0.000527147
0.00262093
0.0027614
0.000471072
7.15266e-05
1.58793e-05
1.27474e-05
1.65707e-05
2.08053e-05
2.45522e-05
2.82777e-05
3.41941e-05
5.5397e-05
0.000167437
0.000754536
0.00362168
0.00373911
0.000668956
0.000130876
5.91132e-05
6.71477e-05
8.94041e-05
0.000112597
0.000134534
0.000156374
0.000183753
0.00024155
0.000466967
0.00149729
0.00618654
0.00558849
0.00125727
0.000392326
0.000272069
0.000325473
0.000426432
0.000535278
0.000645546
0.000758978
0.000894343
0.00110728
0.00169657
0.00388039
0.0127139
0.0107567
0.00346893
0.00155673
0.00123794
0.00143702
0.00182423
0.00226481
0.00273797
0.00324379
0.00385124
0.00468566
0.0064261
0.0114913
0.0294915
0.0270131
0.0116021
0.0063517
0.00526049
0.00582866
0.00710494
0.00865682
0.0104265
0.0124002
0.0148436
0.0180282
0.0234497
0.0355544
0.0730163
0.0766145
0.0393543
0.0245302
0.0208069
0.0220694
0.0256906
0.0304036
0.0360891
0.0428048
0.0515838
0.0630264
0.0804761
0.110257
0.186375
7.69578e-05
1.51393e-05
3.86672e-06
1.69502e-06
1.18428e-06
1.10571e-06
1.18375e-06
1.24756e-06
1.26417e-06
1.65432e-06
5.15941e-06
2.59805e-05
0.000126952
0.000548354
6.19476e-05
1.20338e-05
2.08642e-06
3.60913e-07
9.80855e-08
7.02057e-08
8.24097e-08
1.041e-07
1.67665e-07
5.99767e-07
3.48878e-06
1.99469e-05
0.000100595
0.000443443
9.08419e-05
1.92865e-05
3.56782e-06
5.82706e-07
9.42274e-08
2.43579e-08
1.75024e-08
2.33454e-08
7.19354e-08
4.42589e-07
2.91452e-06
1.70416e-05
8.69322e-05
0.000386708
0.000138274
2.98532e-05
5.59659e-06
9.07584e-07
1.37182e-07
2.7271e-08
1.47406e-08
1.78031e-08
5.65905e-08
3.61662e-07
2.4178e-06
1.43274e-05
7.42993e-05
0.000336903
0.00019846
4.19184e-05
7.61804e-06
1.18577e-06
1.69097e-07
3.07605e-08
1.57362e-08
1.78295e-08
4.96923e-08
3.05318e-07
2.06143e-06
1.24448e-05
6.59183e-05
0.000305868
0.000273669
5.53784e-05
9.49974e-06
1.38639e-06
1.88623e-07
3.90623e-08
2.56573e-08
2.8341e-08
5.53442e-08
2.70346e-07
1.77709e-06
1.09107e-05
5.92798e-05
0.000283716
0.000372067
7.17236e-05
1.15388e-05
1.58992e-06
2.41581e-07
1.03251e-07
1.06752e-07
1.20331e-07
1.52112e-07
3.46767e-07
1.70479e-06
1.0141e-05
5.62589e-05
0.000279177
0.000496934
9.15229e-05
1.40024e-05
1.99361e-06
5.68252e-07
5.48068e-07
6.66551e-07
7.6761e-07
8.70614e-07
1.12538e-06
2.5628e-06
1.13753e-05
6.04929e-05
0.000306425
0.000649563
0.000116023
1.78942e-05
3.58384e-06
2.49348e-06
3.18789e-06
3.99633e-06
4.67718e-06
5.29535e-06
6.09698e-06
8.51757e-06
2.09597e-05
8.6961e-05
0.000415333
0.000853772
0.000156735
2.91735e-05
1.15039e-05
1.26129e-05
1.68949e-05
2.12857e-05
2.52124e-05
2.88578e-05
3.29177e-05
4.01925e-05
6.63364e-05
0.000184263
0.000727503
0.00121089
0.000265918
7.57782e-05
4.96105e-05
6.00897e-05
7.98641e-05
0.000100461
0.000120142
0.000139136
0.000159942
0.000189059
0.000262325
0.000524054
0.0015907
0.00217429
0.000662479
0.000278799
0.000219623
0.00026209
0.0003396
0.000423773
0.000508788
0.000594051
0.000689246
0.00080964
0.00104071
0.00167862
0.00395776
0.00521604
0.00210938
0.00110475
0.000916589
0.00104815
0.00131136
0.00161354
0.00193707
0.00227482
0.00266451
0.00314084
0.00389928
0.00549233
0.0104001
0.0144923
0.00701486
0.00420505
0.00356793
0.00389849
0.00467472
0.00561832
0.00668202
0.0078539
0.00928169
0.0110407
0.0135809
0.0176943
0.0279913
1.54574e-05
2.9683e-06
6.64834e-07
2.5578e-07
1.84006e-07
1.89675e-07
2.20296e-07
2.45005e-07
2.5039e-07
2.65119e-07
5.5898e-07
2.59919e-06
1.31472e-05
5.89118e-05
1.35417e-05
2.72697e-06
4.94752e-07
9.25581e-08
2.96452e-08
2.31934e-08
2.63947e-08
3.12223e-08
3.87828e-08
7.83006e-08
3.5655e-07
2.03672e-06
1.06743e-05
4.88526e-05
2.04817e-05
4.47625e-06
8.6206e-07
1.53437e-07
3.33124e-08
1.55993e-08
1.3723e-08
1.43497e-08
1.89293e-08
5.37285e-08
2.9662e-07
1.75659e-06
9.33215e-06
4.32184e-05
3.1384e-05
6.95882e-06