/*--------------------------------*- C++ -*----------------------------------*\
| =========                 |                                                 |
| \\      /  F ield         | OpenFOAM: The Open Source CFD Toolbox           |
|  \\    /   O peration     | Version:  v2106                                 |
|   \\  /    A nd           | Website:  www.openfoam.com                      |
|    \\/     M anipulation  |                                                 |
\*---------------------------------------------------------------------------*/
FoamFile
{
    version     2.0;
    format      ascii;
    arch        "LSB;label=32;scalar=64";
    class       volScalarField;
    location    "0.000196";
    object      nut;
}
// * * * * * * * * * * * * * * * * * * * * * * * * * * * * * * * * * * * * * //

dimensions      [0 2 -1 0 0 0 0];

internalField   nonuniform List<scalar> 
18109
(
4.18149e-07
2.9936e-07
2.07541e-07
1.47694e-07
1.13861e-07
1.00004e-07
1.0551e-07
1.82326e-07
1.27584e-07
8.61355e-08
5.96884e-08
4.50203e-08
3.89074e-08
4.09468e-08
7.5736e-08
4.93108e-08
3.20384e-08
2.16511e-08
1.61103e-08
1.38652e-08
1.48493e-08
3.13532e-08
1.7631e-08
1.07379e-08
7.04278e-09
5.19359e-09
4.51285e-09
5.08362e-09
1.43687e-08
6.23857e-09
3.31976e-09
2.06596e-09
1.51011e-09
1.35572e-09
1.71328e-09
8.77334e-09
2.67029e-09
1.0451e-09
5.6265e-10
4.01611e-10
3.92217e-10
6.23124e-10
7.86431e-09
1.82682e-09
4.48793e-10
1.6097e-10
1.03883e-10
1.24216e-10
2.82023e-10
9.11131e-09
1.8774e-09
3.43312e-10
7.40345e-11
3.98667e-11
6.4155e-11
1.87033e-10
3.73349e-07
2.68817e-07
1.84861e-07
1.27995e-07
9.3371e-08
7.576e-08
7.34142e-08
8.9126e-08
1.3433e-07
2.31226e-07
4.12911e-07
7.19251e-07
1.18482e-06
1.85613e-06
1.60259e-07
1.12883e-07
7.55127e-08
5.07507e-08
3.60691e-08
2.86974e-08
2.77701e-08
3.48079e-08
5.62274e-08
1.05645e-07
2.06743e-07
3.95595e-07
7.13536e-07
1.22016e-06
6.46728e-08
4.27868e-08
2.7587e-08
1.80138e-08
1.25619e-08
9.91397e-09
9.8025e-09
1.32071e-08
2.39701e-08
5.09006e-08
1.1111e-07
2.34021e-07
4.61098e-07
8.55571e-07
2.54839e-08
1.48702e-08
9.04771e-09
5.71663e-09
3.92892e-09
3.12155e-09
3.28762e-09
5.10928e-09
1.09993e-08
2.68316e-08
6.49261e-08
1.48123e-07
3.12593e-07
6.15257e-07
1.09621e-08
5.03793e-09
2.71913e-09
1.63113e-09
1.10575e-09
9.09377e-10
1.1079e-09
2.17938e-09
5.68253e-09
1.55688e-08
4.05954e-08
9.79694e-08
2.17275e-07
4.47197e-07
6.46978e-09
2.04467e-09
8.21836e-10
4.30308e-10
2.84354e-10
2.58303e-10
4.16544e-10
1.08781e-09
3.30129e-09
9.74987e-09
2.66699e-08
6.69673e-08
1.54517e-07
3.30995e-07
5.92286e-09
1.37183e-09
3.37335e-10
1.18693e-10
7.14551e-11
8.27726e-11
1.98328e-10
6.47454e-10
2.14311e-09
6.60406e-09
1.8651e-08
4.83029e-08
1.15316e-07
2.56186e-07
7.11072e-09
1.43676e-09
2.55968e-10
5.4152e-11
2.85917e-11
4.57044e-11
1.35408e-10
4.72001e-10
1.60096e-09
5.02403e-09
1.44728e-08
3.83247e-08
9.38722e-08
2.14253e-07
9.50516e-09
1.80303e-09
3.04207e-10
7.98702e-11
6.42094e-11
9.00453e-11
1.82109e-10
5.04056e-10
1.56219e-09
4.75261e-09
1.35655e-08
3.59231e-08
8.84595e-08
2.0349e-07
1.32852e-08
2.52125e-09
5.30821e-10
2.70637e-10
2.91355e-10
3.69893e-10
5.35675e-10
9.95194e-10
2.36189e-09
6.26938e-09
1.66633e-08
4.23492e-08
1.01562e-07
2.29088e-07
1.96602e-08
4.29859e-09
1.40773e-09
1.06128e-09
1.21945e-09
1.52918e-09
2.02899e-09
3.05056e-09
5.52742e-09
1.18533e-08
2.74678e-08
6.39599e-08
1.4432e-07
3.0978e-07
3.27545e-08
9.61521e-09
4.49475e-09
3.80102e-09
4.37078e-09
5.50058e-09
7.20915e-09
1.01073e-08
1.57752e-08
2.81729e-08
5.5825e-08
1.15831e-07
2.40078e-07
4.79139e-07
6.2633e-08
2.4852e-08
1.38596e-08
1.19177e-08
1.34796e-08
1.70263e-08
2.24514e-08
3.09183e-08
4.51451e-08
7.17858e-08
1.24436e-07
2.28575e-07
4.28178e-07
7.80786e-07
1.31037e-07
6.40873e-08
3.84797e-08
3.2819e-08
3.63111e-08
4.5826e-08
6.09193e-08
8.37115e-08
1.18474e-07
1.7523e-07
2.7261e-07
4.43602e-07
7.43707e-07
1.23504e-06
8.95603e-07
1.50729e-06
2.45815e-06
3.9023e-06
6.13655e-06
9.72939e-06
8.07524e-07
1.37831e-06
2.28874e-06
3.7079e-06
5.93398e-06
9.45786e-06
5.78076e-07
1.07213e-06
1.89876e-06
3.23579e-06
5.39973e-06
9.02504e-06
4.07642e-07
8.18217e-07
1.549e-06
2.79384e-06
4.90463e-06
8.67353e-06
2.9202e-07
6.29925e-07
1.27387e-06
2.44811e-06
4.57936e-06
8.64344e-06
2.20655e-07
5.07629e-07
1.09448e-06
2.24894e-06
4.50516e-06
9.0326e-06
1.84557e-07
4.48009e-07
1.02521e-06
2.24853e-06
4.79844e-06
1.00732e-05
1.81602e-07
4.57249e-07
1.0936e-06
2.50954e-06
5.56055e-06
1.19417e-05
2.18162e-07
5.52227e-07
1.33044e-06
3.06699e-06
6.78055e-06
1.44214e-05
3.15236e-07
7.71133e-07
1.78911e-06
3.95508e-06
8.43346e-06
1.73656e-05
5.08012e-07
1.15605e-06
2.48993e-06
5.14208e-06
1.0305e-05
2.00742e-05
8.38369e-07
1.73016e-06
3.40405e-06
6.5015e-06
1.21796e-05
2.22272e-05
1.34071e-06
2.49121e-06
4.4882e-06
7.96154e-06
1.39575e-05
2.36812e-05
2.04913e-06
3.45715e-06
5.73745e-06
9.4636e-06
1.54856e-05
2.44523e-05
3.02189e-06
4.67602e-06
7.19627e-06
1.10392e-05
1.67375e-05
2.44645e-05
2.39395e-06
4.03266e-06
6.54926e-06
1.03392e-05
1.57213e-05
2.26988e-05
1.96741e-06
3.37387e-06
5.54312e-06
8.82569e-06
1.36225e-05
2.02288e-05
1.54803e-06
2.72625e-06
4.60429e-06
7.53214e-06
1.19898e-05
1.84895e-05
1.17197e-06
2.15265e-06
3.78632e-06
6.42499e-06
1.06027e-05
1.69808e-05
8.82038e-07
1.70238e-06
3.13953e-06
5.5541e-06
9.53545e-06
1.60919e-05
6.73953e-07
1.36426e-06
2.63763e-06
4.86997e-06
8.70541e-06
1.55391e-05
5.36505e-07
1.13087e-06
2.27566e-06
4.37479e-06
8.17234e-06
1.53691e-05
4.57235e-07
9.89893e-07
2.05126e-06
4.0725e-06
7.92844e-06
1.58215e-05
4.34254e-07
9.4689e-07
1.98714e-06
4.02687e-06
8.09171e-06
1.70275e-05
4.7677e-07
1.02049e-06
2.11179e-06
4.2591e-06
8.56757e-06
1.84355e-05
6.10138e-07
1.24012e-06
2.44746e-06
4.74501e-06
9.26279e-06
1.94417e-05
8.69582e-07
1.62979e-06
2.98727e-06
5.42269e-06
1.0022e-05
1.98278e-05
1.28588e-06
2.1988e-06
3.70366e-06
6.22505e-06
1.0757e-05
1.9726e-05
1.86046e-06
2.90866e-06
4.51561e-06
7.04736e-06
1.13301e-05
1.89996e-05
1.63273e-06
2.37145e-06
3.70769e-06
5.96881e-06
9.81729e-06
1.64906e-05
1.21016e-06
1.91901e-06
3.16766e-06
5.24407e-06
8.69448e-06
1.45825e-05
8.6593e-07
1.54274e-06
2.68211e-06
4.52712e-06
7.58619e-06
1.28553e-05
6.24821e-07
1.21722e-06
2.18897e-06
3.76744e-06
6.455e-06
1.12507e-05
4.50848e-07
9.27782e-07
1.7174e-06
3.05072e-06
5.41492e-06
9.8183e-06
3.22674e-07
6.84281e-07
1.30492e-06
2.41096e-06
4.4735e-06
8.4644e-06
2.28914e-07
4.9376e-07
9.73963e-07
1.88593e-06
3.6773e-06
7.29922e-06
1.61703e-07
3.53381e-07
7.25051e-07
1.47737e-06
3.03235e-06
6.34801e-06
1.16676e-07
2.58978e-07
5.54901e-07
1.19166e-06
2.574e-06
5.69337e-06
9.04742e-08
2.05926e-07
4.60908e-07
1.03496e-06
2.32676e-06
5.36202e-06
8.44488e-08
1.97037e-07
4.5058e-07
1.02812e-06
2.33663e-06
5.43006e-06
1.06051e-07
2.45819e-07
5.47825e-07
1.21382e-06
2.64669e-06
5.85367e-06
1.71197e-07
3.8293e-07
8.10835e-07
1.66616e-06
3.30657e-06
6.53517e-06
2.57404e-07
5.51282e-07
1.13652e-06
2.1783e-06
3.89948e-06
6.95643e-06
6.39123e-08
2.03137e-07
6.23642e-07
1.6997e-06
4.16978e-06
9.41852e-06
1.16038e-07
3.22303e-07
8.90852e-07
2.19641e-06
4.87784e-06
9.94343e-06
2.26167e-07
5.34077e-07
1.2734e-06
2.78207e-06
5.54556e-06
1.02394e-05
4.57441e-07
9.1256e-07
1.80662e-06
3.3971e-06
6.04435e-06
1.02283e-05
2.74523e-07
6.11579e-07
1.29166e-06
2.44087e-06
4.21653e-06
7.22191e-06
1.89997e-07
5.15263e-07
1.1683e-06
2.24297e-06
3.94117e-06
6.97621e-06
1.32597e-07
4.063e-07
9.62145e-07
1.88464e-06
3.43278e-06
6.4054e-06
9.29847e-08
3.03208e-07
7.40738e-07
1.49617e-06
2.87374e-06
5.73646e-06
6.48512e-08
2.16695e-07
5.43025e-07
1.14268e-06
2.35011e-06
5.08617e-06
4.51503e-08
1.50491e-07
3.87535e-07
8.6047e-07
1.92061e-06
4.55056e-06
3.19229e-08
1.05817e-07
2.80868e-07
6.71161e-07
1.64551e-06
4.279e-06
2.43631e-08
8.09195e-08
2.27725e-07
6.02194e-07
1.62621e-06
4.56485e-06
2.23571e-08
7.47304e-08
2.27332e-07
6.57038e-07
1.85939e-06
5.19417e-06
2.76274e-08
9.02998e-08
2.87598e-07
8.50317e-07
2.34722e-06
6.11971e-06
4.57495e-08
1.38332e-07
4.2841e-07
1.2017e-06
3.06576e-06
7.22604e-06
8.99966e-08
2.42003e-07
6.79406e-07
1.72105e-06
3.94327e-06
8.30164e-06
1.88857e-07
4.42706e-07
1.07385e-06
2.39385e-06
4.87445e-06
9.18429e-06
4.00007e-07
8.04808e-07
1.62444e-06
3.11536e-06
5.64184e-06
9.68068e-06
1.46117e-05
4.42203e-05
9.50288e-05
0.000103983
9.01948e-05
1.52295e-05
4.46934e-05
9.34207e-05
0.000103867
8.98326e-05
1.60511e-05
4.53729e-05
9.75087e-05
0.000105475
9.01152e-05
1.67461e-05
4.73642e-05
0.000106322
0.000107643
9.10102e-05
1.78501e-05
5.0121e-05
0.000116257
0.000108779
9.06925e-05
2.02829e-05
5.43957e-05
0.000121872
0.000106474
8.86349e-05
2.42272e-05
6.22836e-05
0.000121975
0.00010228
8.7179e-05
2.87695e-05
7.09343e-05
0.000118847
9.95492e-05
8.77609e-05
8.58246e-05
3.33893e-05
7.76354e-05
0.000114576
9.7323e-05
8.8056e-05
8.79233e-05
3.64168e-05
7.95963e-05
0.000110136
9.5141e-05
8.75976e-05
9.04439e-05
3.76298e-05
7.78436e-05
0.000107472
9.38e-05
8.72124e-05
9.29151e-05
9.86115e-05
3.7343e-05
7.37742e-05
0.000106813
9.45827e-05
8.7842e-05
9.28596e-05
0.000112692
0.000115993
3.58535e-05
6.80973e-05
0.000107052
9.7838e-05
8.96697e-05
9.1018e-05
0.000113249
0.000219354
3.35681e-05
6.23343e-05
0.000106846
0.000103757
9.29455e-05
8.94141e-05
9.19475e-05
0.000206111
3.09171e-05
5.883e-05
0.000105973
0.000109563
9.69686e-05
8.97384e-05
8.69694e-05
0.00017965
2.85368e-05
5.77959e-05
0.000106669
0.000113297
9.88293e-05
9.10072e-05
8.69201e-05
0.00016628
2.80299e-05
5.73414e-05
0.000113537
0.000116989
0.000100435
9.30795e-05
8.80395e-05
9.735e-05
2.82599e-05
5.93696e-05
0.000126788
0.000121104
0.000103447
9.61478e-05
8.80971e-05
0.000139843
2.84101e-05
6.46096e-05
0.000143297
0.000123868
0.000104398
9.68739e-05
8.54876e-05
0.000146411
2.86683e-05
7.26126e-05
0.000154443
0.000122173
0.000101713
9.58134e-05
8.30638e-05
0.000120736
2.99653e-05
8.29031e-05
0.00015554
0.000118312
9.92656e-05
9.62726e-05
8.60987e-05
5.79461e-05
3.30592e-05
9.45874e-05
0.000151527
0.000117282
9.98212e-05
9.86105e-05
9.29573e-05
7.38518e-05
3.7529e-05
0.00010449
0.000146429
0.000116266
9.91834e-05
9.82549e-05
4.09234e-05
0.000107723
0.000140239
0.00011333
9.68202e-05
9.66325e-05
4.14014e-05
0.000103659
0.000132594
0.000110494
9.53645e-05
9.60149e-05
3.93523e-05
9.51723e-05
0.000124099
0.000110758
9.57646e-05
9.42095e-05
3.68122e-05
8.42474e-05
0.000112242
0.000111864
9.75138e-05
9.2155e-05
3.4108e-05
7.3885e-05
0.000102107
0.000113907
0.000100652
3.14661e-05
6.46075e-05
9.4361e-05
0.000117098
0.000104981
2.91325e-05
5.65826e-05
8.836e-05
0.000120268
0.000106698
2.69646e-05
5.01256e-05
8.62909e-05
0.000125348
0.000108001
2.46176e-05
4.5304e-05
9.01007e-05
0.00013452
0.000112401
2.22958e-05
4.21921e-05
0.000100937
0.000146632
0.000114964
2.00914e-05
4.04951e-05
0.000117539
0.000155075
0.000112843
1.8153e-05
3.99463e-05
0.00013645
0.000157428
0.000109256
1.65623e-05
4.14709e-05
0.000153517
0.000158503
0.000108738
1.5501e-05
4.53364e-05
0.000163501
0.000157431
0.000107346
1.50052e-05
4.98855e-05
0.000159542
0.000150717
0.000104188
1.51424e-05
5.32064e-05
0.000143278
0.000139815
0.000102875
1.59524e-05
5.41468e-05
0.000122378
0.000128846
0.000103341
1.71756e-05
5.28223e-05
0.000103801
0.000117976
0.000102419
1.8135e-05
4.98477e-05
9.05973e-05
0.000110965
0.000101641
1.8472e-05
4.58355e-05
8.10083e-05
0.000107166
0.000100952
1.812e-05
4.1891e-05
7.45866e-05
0.000105238
9.77303e-05
1.72527e-05
3.85953e-05
7.22151e-05
0.000106972
9.53285e-05
1.6217e-05
3.65409e-05
7.54329e-05
0.000113438
9.5365e-05
1.51685e-05
3.54983e-05
8.40522e-05
0.000121423
9.36884e-05
1.41695e-05
3.5004e-05
9.59595e-05
0.000124956
8.92921e-05
1.33622e-05
3.50085e-05
0.000109906
0.000123714
8.49854e-05
1.30995e-05
3.60581e-05
0.000121997
0.000120774
8.31791e-05
1.34912e-05
4.03779e-05
0.000127278
0.000116651
8.20283e-05
1.44411e-05
4.42533e-05
0.000125273
0.00011121
8.14609e-05
1.53857e-05
4.55232e-05
0.000120864
0.000107517
8.20357e-05
1.57546e-05
4.40069e-05
0.000115475
0.000105517
8.36889e-05
1.55511e-05
4.18385e-05
0.000108624
0.000104016
8.61399e-05
1.50273e-05
4.25537e-05
0.000100727
0.000103663
8.86572e-05
3.28459e-07
2.37481e-07
1.63382e-07
1.11864e-07
7.9266e-08
6.12454e-08
5.58844e-08
6.44285e-08
9.50319e-08
1.65572e-07
3.06232e-07
5.58364e-07
9.60885e-07
1.55754e-06
1.38546e-07
9.77094e-08
6.54671e-08
4.34534e-08
2.99079e-08
2.2596e-08
2.062e-08
2.47087e-08
3.96011e-08
7.62736e-08
1.55413e-07
3.10673e-07
5.84995e-07
1.04026e-06
5.43127e-08
3.61549e-08
2.34233e-08
1.50899e-08
1.01578e-08
7.5873e-09
7.09875e-09
9.27855e-09
1.70803e-08
3.77227e-08
8.59904e-08
1.88529e-07
3.85637e-07
7.4067e-07
2.04625e-08
1.21935e-08
7.5018e-09
4.67568e-09
3.09471e-09
2.3224e-09
2.33858e-09
3.62507e-09
8.09746e-09
2.06306e-08
5.1854e-08
1.22269e-07
2.65818e-07
5.37731e-07
8.36631e-09
3.97834e-09
2.19223e-09
1.30048e-09
8.48339e-10
6.60756e-10
7.8991e-10
1.60428e-09
4.37043e-09
1.24031e-08
3.32824e-08
8.24047e-08
1.87111e-07
3.93882e-07
4.87275e-09
1.56051e-09
6.40626e-10
3.3396e-10
2.1288e-10
1.85936e-10
3.06635e-10
8.38667e-10
2.63122e-09
7.96312e-09
2.22596e-08
5.70602e-08
1.3428e-07
2.93156e-07
4.63008e-09
1.05292e-09
2.56207e-10
8.967e-11
5.2598e-11
6.07632e-11
1.52718e-10
5.16063e-10
1.74545e-09
5.47668e-09
1.57495e-08
4.15168e-08
1.00816e-07
2.27479e-07
5.78452e-09
1.13504e-09
1.95543e-10
4.07932e-11
2.18063e-11
3.5377e-11
1.06859e-10
3.78965e-10
1.30598e-09
4.16523e-09
1.22067e-08
3.28675e-08
8.17974e-08
1.89296e-07
7.96816e-09
1.45872e-09
2.37014e-10
6.38341e-11
5.37563e-11
7.49051e-11
1.47857e-10
4.05123e-10
1.26436e-09
3.90384e-09
1.13357e-08
3.05262e-08
7.63639e-08
1.78098e-07
1.14179e-08
2.07729e-09
4.24999e-10
2.26835e-10
2.51403e-10
3.19685e-10
4.55653e-10
8.24298e-10
1.92657e-09
5.12966e-09
1.38105e-08
3.5673e-08
8.69692e-08
1.99129e-07
1.72657e-08
3.59116e-09
1.15813e-09
9.08128e-10
1.06701e-09
1.346e-09
1.778e-09
2.62983e-09
4.66337e-09
9.88864e-09
2.29881e-08
5.41762e-08
1.24139e-07
2.70605e-07
2.91912e-08
8.14791e-09
3.76813e-09
3.28752e-09
3.8621e-09
4.90088e-09
6.42494e-09
8.93966e-09
1.37411e-08
2.41846e-08
4.77351e-08
9.97858e-08
2.09684e-07
4.25341e-07
5.62087e-08
2.14166e-08
1.17885e-08
1.03826e-08
1.19957e-08
1.53055e-08
2.02321e-08
2.77756e-08
4.01989e-08
6.32384e-08
1.09063e-07
2.01313e-07
3.81896e-07
7.07439e-07
1.17881e-07
5.62104e-08
3.31799e-08
2.87906e-08
3.25044e-08
4.151e-08
5.54048e-08
7.60695e-08
1.07169e-07
1.57519e-07
2.4403e-07
3.98095e-07
6.7386e-07
1.13519e-06
2.42866e-07
1.78159e-07
1.25183e-07
8.57297e-08
5.95904e-08
4.35672e-08
3.61913e-08
3.67847e-08
4.96081e-08
8.48842e-08
1.64186e-07
3.20975e-07
5.99476e-07
1.04706e-06
9.47817e-08
6.74325e-08
4.62201e-08
3.07185e-08
2.07891e-08
1.47917e-08
1.21712e-08
1.27334e-08
1.8928e-08
3.71945e-08
8.19493e-08
1.78591e-07
3.68058e-07
7.15846e-07
3.35637e-08
2.26143e-08
1.50568e-08
9.75287e-09
6.48478e-09
4.53644e-09
3.77718e-09
4.30135e-09
7.6616e-09
1.81899e-08
4.61415e-08
1.11402e-07
2.49154e-07
5.20961e-07
1.11364e-08
6.78031e-09
4.31536e-09
2.72276e-09
1.7936e-09
1.25313e-09
1.1073e-09
1.53935e-09
3.5898e-09
1.02527e-08
2.88875e-08
7.47297e-08
1.76208e-07
3.84712e-07
4.18383e-09
1.96733e-09
1.11107e-09
6.69808e-10
4.38618e-10
3.16055e-10
3.32631e-10
6.64022e-10
2.02702e-09
6.51272e-09
1.93966e-08
5.21512e-08
1.27372e-07
2.87697e-07
2.71637e-09
7.71302e-10
2.93259e-10
1.50435e-10
9.62253e-11
7.76486e-11
1.21273e-10
3.64526e-10
1.30596e-09
4.42131e-09
1.35348e-08
3.73444e-08
9.3969e-08
2.19061e-07
3.0928e-09
6.21342e-10
1.25736e-10
3.71584e-11
2.07225e-11
2.30437e-11
6.25105e-11
2.4154e-10
9.20028e-10
3.18124e-09
9.91889e-09
2.80055e-08
7.24882e-08
1.73953e-07
4.29451e-09
7.59057e-10
1.12936e-10
1.93732e-11
9.50576e-12
1.4963e-11
4.71794e-11
1.84686e-10
7.03678e-10
2.45372e-09
7.77563e-09
2.24455e-08
5.96013e-08
1.46521e-07
6.2464e-09
1.02804e-09
1.45808e-10
3.6959e-11
3.21885e-11
4.2224e-11
7.55238e-11
2.03117e-10
6.74672e-10
2.26724e-09
7.14596e-09
2.07479e-08
5.5591e-08
1.37901e-07
9.23155e-09
1.4854e-09
2.63681e-10
1.43075e-10
1.65119e-10
2.06941e-10
2.7867e-10
4.64779e-10
1.05688e-09
2.94281e-09
8.53188e-09
2.38239e-08
6.24432e-08
1.52595e-07
1.41603e-08
2.53454e-09
7.24546e-10
5.98431e-10
7.35797e-10
9.34229e-10
1.21125e-09
1.70547e-09
2.86209e-09
6.0038e-09
1.4536e-08
3.6544e-08
8.94799e-08
2.07531e-07
2.40635e-08
5.722e-09
2.42189e-09
2.23529e-09
2.76082e-09
3.5683e-09
4.6683e-09
6.34281e-09
9.38463e-09
1.60732e-08
3.20154e-08
6.97694e-08
1.54676e-07
3.31776e-07
4.62204e-08
1.54565e-08
7.90614e-09
7.29143e-09
8.83698e-09
1.1543e-08
1.53372e-08
2.08344e-08
2.9512e-08
4.54534e-08
7.81616e-08
1.47966e-07
2.93013e-07
5.70888e-07
9.77649e-08
4.30355e-08
2.3508e-08
2.09861e-08
2.46777e-08
3.23344e-08
4.35677e-08
5.96295e-08
8.31456e-08
1.20654e-07
1.85556e-07
3.06135e-07
5.34646e-07
9.43008e-07
1.45564e-07
1.04864e-07
7.43957e-08
5.15068e-08
3.67451e-08
2.7494e-08
2.31479e-08
2.28099e-08
2.8817e-08
4.64008e-08
8.84044e-08
1.76397e-07
3.47208e-07
6.49625e-07
5.14463e-08
3.56573e-08
2.46365e-08
1.63866e-08
1.12682e-08
8.10288e-09
6.70422e-09
6.76098e-09
9.42764e-09
1.7873e-08
4.02807e-08
9.27815e-08
2.06522e-07
4.3888e-07
1.63707e-08
1.06819e-08
7.17479e-09
4.60436e-09
3.07482e-09
2.13554e-09
1.76113e-09
1.91859e-09
3.29155e-09
7.976e-09
2.15908e-08
5.6483e-08
1.38091e-07
3.1688e-07
4.92572e-09
2.8525e-09
1.82366e-09
1.12906e-09
7.37011e-10
5.00279e-10
4.3097e-10
5.85688e-10
1.41944e-09
4.37588e-09
1.34139e-08
3.77968e-08
9.75017e-08
2.33858e-07
1.93797e-09
7.7984e-10
4.17429e-10
2.42052e-10
1.5401e-10
1.05321e-10
1.0993e-10
2.36882e-10
8.07609e-10
2.85143e-09
9.24276e-09
2.7002e-08
7.20909e-08
1.79407e-07
1.6305e-09
3.68828e-10
1.08828e-10
4.80242e-11
2.84599e-11
2.16971e-11
3.74566e-11
1.32559e-10
5.36107e-10
1.99431e-09
6.64676e-09
1.99672e-08
5.5112e-08
1.42081e-07
2.1871e-09
3.83019e-10
6.09247e-11
1.2457e-11
5.42365e-12
6.06899e-12
2.00046e-11
9.00438e-11
3.8476e-10
1.46802e-09
5.02284e-09
1.55915e-08
4.46392e-08
1.19101e-07
3.27823e-09
5.1951e-10
6.67823e-11
9.26025e-12
4.06825e-12
5.83598e-12
1.68693e-11
6.97751e-11
2.95378e-10
1.14995e-09
4.06227e-09
1.30815e-08
3.87669e-08
1.06255e-07
5.02126e-09
7.42226e-10
9.15698e-11
2.17441e-11
2.05436e-11
2.64099e-11
3.96136e-11
9.02312e-11
3.01116e-10
1.11389e-09
3.94445e-09
1.28781e-08
3.85609e-08
1.06141e-07
7.78431e-09
1.11828e-09
1.68821e-10
9.11312e-11
1.13838e-10
1.47522e-10
1.9054e-10
2.80895e-10
5.72091e-10
1.61316e-09
5.10299e-09
1.58084e-08
4.5692e-08
1.2213e-07
1.24536e-08
1.96604e-09
4.78705e-10
4.01011e-10
5.26468e-10
6.97276e-10
9.0433e-10
1.21962e-09
1.90052e-09
3.84813e-09
9.64637e-09
2.6035e-08
6.86556e-08
1.7109e-07
2.21811e-08
4.60166e-09
1.69618e-09
1.56611e-09
2.02674e-09
2.728e-09
3.61421e-09
4.84416e-09
6.91249e-09
1.14783e-08
2.29859e-08
5.22979e-08
1.22638e-07
2.7894e-07
4.33605e-08
1.30033e-08
5.94089e-09
5.37973e-09
6.65695e-09
8.9763e-09
1.21257e-08
1.64647e-08
2.29778e-08
3.48021e-08
5.96404e-08
1.15579e-07
2.39074e-07
4.91223e-07
9.10757e-08
3.88063e-08
1.90941e-08
1.64625e-08
1.92362e-08
2.56694e-08
3.5097e-08
4.83515e-08
6.73381e-08
9.73638e-08
1.49124e-07
2.47423e-07
4.42754e-07
8.18267e-07
6.3433e-08
4.43918e-08
3.17257e-08
2.23545e-08
1.658e-08
1.28091e-08
1.09601e-08
1.05661e-08
1.23579e-08
1.83943e-08
3.45511e-08
7.18751e-08
1.54617e-07
3.22459e-07
1.94887e-08
1.30458e-08
9.14629e-09
6.19655e-09
4.41686e-09
3.25213e-09
2.70234e-09
2.60796e-09
3.29404e-09
5.88508e-09
1.38176e-08
3.5166e-08
8.87332e-08
2.13354e-07
5.32897e-09
3.30765e-09
2.26357e-09
1.48738e-09
1.03083e-09
7.28708e-10
5.92374e-10
5.96623e-10
9.3231e-10
2.32541e-09
7.08725e-09
2.12931e-08
5.96161e-08
1.54839e-07
1.52757e-09
7.58678e-10
4.78415e-10
3.0346e-10
2.05834e-10
1.41658e-10
1.17207e-10
1.45723e-10
3.60569e-10
1.27282e-09
4.52619e-09
1.46454e-08
4.2909e-08
1.16071e-07
8.82928e-10
2.36748e-10
9.66257e-11
5.33258e-11
3.47617e-11
2.39259e-11
2.36809e-11
5.28871e-11
2.1145e-10
8.78361e-10
3.28497e-09
1.0937e-08
3.30697e-08
9.33385e-08
1.0998e-09
1.95366e-10
3.47794e-11
9.83289e-12
5.12938e-12
3.86001e-12
7.16293e-12
3.10619e-11
1.50666e-10
6.53055e-10
2.49284e-09
8.51929e-09
2.6727e-08
7.8662e-08
1.66754e-09
2.59457e-10
3.29355e-11
4.12808e-12
1.04193e-12
1.09473e-12
4.19144e-12
2.28129e-11
1.15118e-10
5.09516e-10
2.00136e-09
7.1095e-09
2.32789e-08
7.10573e-08
2.62414e-09
3.72013e-10
4.15706e-11
4.90806e-12
2.10607e-12
2.60075e-12
5.32267e-12
2.02303e-11
9.5142e-11
4.27143e-10
1.74128e-09
6.44571e-09
2.18334e-08
6.79709e-08
4.12815e-09
5.44059e-10
5.80894e-11
1.32373e-11
1.34739e-11
1.72492e-11
2.25806e-11
3.92424e-11
1.16224e-10
4.60963e-10
1.85209e-09
6.89591e-09
2.33723e-08
7.21348e-08
6.57524e-09
8.58209e-10
1.1001e-10
5.9134e-11
7.74913e-11
1.02575e-10
1.2974e-10
1.72791e-10
2.9799e-10
7.87226e-10
2.64756e-09
9.09573e-09
2.91914e-08
8.60297e-08
1.07986e-08
1.57934e-09
3.31079e-10
2.72668e-10
3.66665e-10
4.96638e-10
6.43474e-10
8.37451e-10
1.20116e-09
2.23324e-09
5.56457e-09
1.59615e-08
4.5639e-08
1.2364e-07
2.06534e-08
3.84632e-09
1.25723e-09
1.12295e-09
1.44974e-09
1.98153e-09
2.63251e-09
3.47415e-09
4.75855e-09
7.44498e-09
1.43915e-08
3.34772e-08
8.32034e-08
2.0351e-07
4.1314e-08
1.11286e-08
4.72257e-09
4.12868e-09
4.96662e-09
6.701e-09
9.04466e-09
1.21801e-08
1.66574e-08
2.43964e-08
4.04113e-08
7.81736e-08
1.6795e-07
3.68948e-07
8.18467e-08
3.52168e-08
1.64573e-08
1.36424e-08
1.52138e-08
1.99472e-08
2.69756e-08
3.68273e-08
5.07688e-08
7.23356e-08
1.08435e-07
1.77333e-07
3.20516e-07
6.24776e-07
1.40737e-08
9.35175e-09
6.59362e-09
4.60055e-09
3.39352e-09
2.63961e-09
2.32402e-09
2.3172e-09
2.74911e-09
4.05774e-09
7.66515e-09
1.69611e-08
4.08198e-08
9.84766e-08
3.62988e-09
2.26056e-09
1.58706e-09
1.08761e-09
7.84379e-10
5.84746e-10
4.91683e-10
4.76848e-10
5.93349e-10
1.06172e-09
2.67478e-09
7.77521e-09
2.28541e-08
6.37851e-08
9.06878e-10
4.6877e-10
3.16465e-10
2.13131e-10
1.51881e-10
1.1041e-10
9.04266e-11
8.97807e-11
1.40465e-10
3.87825e-10
1.3833e-09
4.89046e-09
1.5908e-08
4.71395e-08
4.04704e-10
1.15055e-10
5.58404e-11
3.44831e-11
2.4054e-11
1.72888e-11
1.45275e-11
1.86754e-11
5.36946e-11
2.28724e-10
9.58292e-10
3.58608e-09
1.1943e-08
3.60845e-08
4.74922e-10
8.18248e-11
1.59326e-11
5.37744e-12
3.14812e-12
2.25178e-12
2.44919e-12
7.02443e-12
3.5416e-11
1.75028e-10
7.57139e-10
2.86824e-09
9.7315e-09
3.05337e-08
7.33841e-10
1.08762e-10
1.42369e-11
1.87877e-12
4.50302e-13
3.00981e-13
7.96432e-13
4.71211e-12
2.77633e-11
1.40619e-10
6.14631e-10
2.37341e-09
8.34468e-09
2.75204e-08
1.21503e-09
1.58999e-10
1.80021e-11
1.80865e-12
2.69724e-13
1.97851e-13
6.41655e-13
3.8429e-12
2.26742e-11
1.16415e-10
5.2337e-10
2.11168e-09
7.84045e-09
2.72401e-08
2.0771e-09
2.43025e-10
2.35001e-11
2.58316e-12
1.1075e-12
1.25336e-12
1.75367e-12
4.46077e-12
2.04518e-11
1.03468e-10
4.84549e-10
2.06184e-09
8.02617e-09
2.87093e-08
3.50712e-09
3.92225e-10
3.3241e-11
7.10773e-12
7.36979e-12
9.3785e-12
1.13523e-11
1.52527e-11
3.30323e-11
1.25487e-10
5.60945e-10
2.40011e-09
9.38182e-09
3.32673e-08
5.96108e-09
7.36213e-10
6.77231e-11
3.26795e-11
4.30866e-11
5.70741e-11
7.02802e-11
8.61835e-11
1.22046e-10
2.67664e-10
9.02334e-10
3.4454e-09
1.25946e-08
4.2237e-08
1.00114e-08
1.46668e-09
2.19471e-10
1.58749e-10
2.09626e-10
2.82688e-10
3.58877e-10
4.46601e-10
5.80529e-10
9.30099e-10
2.14938e-09
6.47354e-09
2.05733e-08
6.26205e-08
1.74783e-08
3.54947e-09
8.9826e-10
7.07136e-10
8.69661e-10
1.1682e-09
1.52035e-09
1.9432e-09
2.51343e-09
3.58459e-09
6.34456e-09
1.46089e-08
3.86382e-08
1.0388e-07
3.09272e-08
9.52749e-09
3.6465e-09
2.87119e-09
3.20779e-09
4.16963e-09
5.46914e-09
7.15096e-09
9.40987e-09
1.30396e-08
2.02021e-08
3.76723e-08
8.26476e-08
1.9529e-07
6.16587e-08
2.90034e-08
1.41285e-08
1.06097e-08
1.07842e-08
1.33682e-08
1.73322e-08
2.28654e-08
3.05994e-08
4.23832e-08
6.14442e-08
9.72519e-08
1.72249e-07
3.46531e-07
1.42941e-09
9.05359e-10
6.51119e-10
4.7238e-10
3.60414e-10
2.82217e-10
2.40845e-10
2.24416e-10
2.4499e-10
3.48773e-10
7.0782e-10
1.83595e-09
5.30108e-09
1.54026e-08
3.34102e-10
1.74036e-10
1.21636e-10
8.71198e-11
6.62747e-11
5.17337e-11
4.37143e-11
3.98883e-11
4.51861e-11
8.31143e-11
2.52484e-10
9.09463e-10
3.21595e-09
1.05178e-08
1.35108e-10
3.66565e-11
1.91322e-11
1.27988e-11
9.62043e-12
7.52322e-12
6.42175e-12
6.26039e-12
1.02811e-11
3.55645e-11
1.57878e-10
6.63271e-10
2.49107e-09
8.34811e-09
1.57662e-10
2.48398e-11
4.81176e-12
1.75695e-12
1.11312e-12
8.55858e-13
7.8738e-13
1.21741e-12
4.78526e-12
2.55163e-11
1.25498e-10
5.37478e-10
2.01213e-09
6.68542e-09
2.44276e-10
3.50355e-11
4.5197e-12
6.38221e-13
1.45668e-13
8.26448e-14
1.21646e-13
5.71299e-13
3.72367e-12
2.169e-11
1.07673e-10
4.59903e-10
1.72173e-09
5.79909e-09
3.82457e-10
5.25599e-11
5.79003e-12
6.44529e-13
7.0747e-14
1.79458e-14
5.86535e-14
4.4917e-13
3.14562e-12
1.84642e-11
9.17783e-11
3.94412e-10
1.50509e-09
5.27131e-09
6.06715e-10
8.22675e-11
7.55052e-12
7.47613e-13
1.03579e-13
5.95387e-14
9.9079e-14
4.32579e-13
2.73119e-12
1.58993e-11
8.01459e-11
3.55339e-10
1.42599e-09
5.32667e-09
9.62399e-10
1.30726e-10
1.01759e-11
1.05423e-12
4.51636e-13
5.05928e-13
6.02858e-13
9.20305e-13
2.93335e-12
1.47833e-11
7.54713e-11
3.52443e-10
1.50582e-09
5.95093e-09
1.49984e-09
2.05383e-10
1.51733e-11
2.84081e-12
3.00106e-12
3.84717e-12
4.53922e-12
5.31156e-12
7.79557e-12
2.15253e-11
9.37019e-11
4.34579e-10
1.89069e-09
7.55156e-09
2.33578e-09
3.35073e-10
3.15025e-11
1.3471e-11
1.80863e-11
2.40299e-11
2.91168e-11
3.39707e-11
4.12517e-11
6.64399e-11
1.83203e-10
7.05289e-10
2.82614e-09
1.06653e-08
3.68785e-09
6.13855e-10
1.029e-10
6.95314e-11
9.23106e-11
1.24065e-10
1.5474e-10
1.862e-10
2.2426e-10
3.03377e-10
5.6291e-10
1.55859e-09
5.17341e-09
1.73666e-08
6.23367e-09
1.44236e-09
4.35594e-10
3.31881e-10
4.06456e-10
5.38529e-10
6.85032e-10
8.50678e-10
1.04782e-09
1.3647e-09
2.07753e-09
4.23502e-09
1.09656e-08
3.12636e-08
1.13085e-08
3.99357e-09
1.79528e-09
1.41408e-09
1.5768e-09
2.00221e-09
2.54552e-09
3.22473e-09
4.07377e-09
5.32372e-09
7.5148e-09
1.25973e-08
2.59219e-08
6.2471e-08
2.48159e-08
1.25186e-08
6.94693e-09
5.49855e-09
5.63833e-09
6.76062e-09
8.38107e-09
1.06279e-08
1.36401e-08
1.80603e-08
2.48554e-08
3.70538e-08
6.1623e-08
1.21556e-07
9.82565e-11
5.58076e-11
4.03722e-11
3.05898e-11
2.44498e-11
2.02605e-11
1.79845e-11
1.63955e-11
1.60338e-11
2.05499e-11
4.48461e-11
1.41432e-10
4.90682e-10
1.66865e-09
2.99525e-11
9.57638e-12
5.63808e-12
4.06229e-12
3.2201e-12
2.68886e-12
2.42538e-12
2.2548e-12
2.46381e-12
4.97012e-12
1.90006e-11
8.28597e-11
3.37244e-10
1.23863e-09
2.98613e-11
5.13255e-12
1.13624e-12
4.71715e-13
3.22499e-13
2.65615e-13
2.46589e-13
2.68709e-13
5.84215e-13
2.73915e-12
1.44821e-11
6.87903e-11
2.86769e-10
1.05558e-09
4.67366e-11
7.37609e-12
1.09819e-12
1.7043e-13
3.88672e-14
2.09119e-14
2.20034e-14
5.85214e-14
3.52066e-13
2.24352e-12
1.24609e-11
5.95218e-11
2.46805e-10
8.97856e-10
7.09032e-11
1.06617e-11
1.46687e-12
1.93296e-13
2.31656e-14
3.47803e-15
5.07636e-15
3.91376e-14
3.05925e-13
2.01974e-12
1.12576e-11
5.3636e-11
2.21441e-10
8.03801e-10
1.04825e-10
1.49361e-11
1.82871e-12
2.19798e-13
2.46823e-14
4.32983e-15
5.76521e-15
3.58337e-14
2.71935e-13
1.79217e-12
9.99313e-12
4.76538e-11
1.97606e-10
7.27683e-10
1.55428e-10
2.1341e-11
2.25033e-12
2.49364e-13
4.04163e-14
2.46648e-14
2.84862e-14
5.57762e-14
2.63312e-13
1.60401e-12
8.89224e-12
4.29076e-11
1.82741e-10
7.04432e-10
2.28619e-10
3.04944e-11
2.8175e-12
3.58756e-13
1.80744e-13
2.06762e-13
2.37857e-13
2.77653e-13
4.69605e-13
1.6814e-12
8.42937e-12
4.13204e-11
1.84951e-10
7.60431e-10
3.31207e-10
4.3582e-11
3.97641e-12
1.0403e-12
1.17496e-12
1.51967e-12
1.79223e-12
2.01348e-12
2.35682e-12
3.83617e-12
1.18152e-11
5.17137e-11
2.3193e-10
9.77974e-10
4.78863e-10
6.66245e-11
8.48962e-12
5.0034e-12
6.88323e-12
9.1951e-12
1.11508e-11
1.28473e-11
1.46028e-11
1.8254e-11
3.24969e-11
9.8007e-11
3.78794e-10
1.49268e-09
7.18612e-10
1.2476e-10
2.95635e-11
2.43478e-11
3.3257e-11
4.48692e-11
5.58068e-11
6.61368e-11
7.65192e-11
9.16507e-11
1.29006e-10
2.66424e-10
7.86004e-10
2.65942e-09
1.21639e-09
3.1948e-10
1.24023e-10
1.07997e-10
1.38007e-10
1.83745e-10
2.32338e-10
2.82351e-10
3.34682e-10
4.02422e-10
5.22608e-10
8.52617e-10
1.90333e-09
5.29039e-09
2.40695e-09
9.77811e-10
5.06822e-10
4.38559e-10
5.14636e-10
6.58587e-10
8.32459e-10
1.02937e-09
1.25002e-09
1.53082e-09
1.94795e-09
2.81208e-09
5.03859e-09
1.15201e-08
5.83255e-09
3.15116e-09
1.92929e-09
1.6554e-09
1.79405e-09
2.16435e-09
2.67209e-09
3.30871e-09
4.0882e-09
5.11571e-09
6.54325e-09
8.9136e-09
1.34897e-08
2.5033e-08
9.79469e-12
4.30885e-12
2.87504e-12
2.15041e-12
1.73696e-12
1.50698e-12
1.42592e-12
1.36492e-12
1.32041e-12
1.61549e-12
3.82898e-12
1.43129e-11
5.68258e-11
2.13448e-10
5.21029e-12
1.13287e-12
3.7664e-13
2.1046e-13
1.60052e-13
1.40189e-13
1.36489e-13
1.3697e-13
1.65148e-13
4.20976e-13
1.9654e-12
9.61262e-12
4.23983e-11
1.66791e-10
7.7851e-12
1.45024e-12
2.52045e-13
4.57571e-14
1.42238e-14
9.59704e-15
9.62552e-15
1.35696e-14
4.6858e-14
2.79587e-13
1.63531e-12
8.36368e-12
3.73165e-11
1.46767e-10
1.21937e-11
2.20217e-12
3.69792e-13
5.45642e-14
7.33118e-15
1.18692e-15
8.95215e-16
4.41425e-15
3.38956e-14
2.37109e-13
1.42014e-12
7.30485e-12
3.26373e-11
1.27942e-10
1.75976e-11
3.00401e-12
4.83262e-13
6.81372e-14
8.37481e-15
9.59896e-16
5.06303e-16
3.59034e-15
2.99562e-14
2.13387e-13
1.28783e-12
6.64939e-12
2.97289e-11
1.16315e-10
2.46036e-11
3.89358e-12
5.76484e-13
7.551e-14
9.05762e-15
1.58638e-15
1.21765e-15
3.90931e-15
2.70525e-14
1.89548e-13
1.14779e-12
5.95169e-12
2.67066e-11
1.0502e-10
3.43631e-11
5.03124e-12
6.75385e-13
8.38838e-14
1.41488e-14
8.3944e-15
9.03178e-15
1.17215e-14
3.19514e-14
1.7455e-13
1.02194e-12
5.31099e-12
2.41452e-11
9.73692e-11
4.74363e-11
6.45075e-12
7.97886e-13
1.16462e-13
5.68975e-14
6.4682e-14
7.45113e-14
8.19434e-14
1.023e-13
2.30104e-13
9.93153e-13
4.95059e-12
2.30313e-11
9.74973e-11
6.41932e-11
8.30317e-12
1.04969e-12
3.06028e-13
3.36355e-13
4.36833e-13
5.16381e-13
5.7197e-13
6.27522e-13
7.96052e-13
1.67502e-12
6.23944e-12
2.75768e-11
1.18802e-10
8.70468e-11
1.17719e-11
2.04199e-12
1.30673e-12
1.80388e-12
2.41507e-12
2.91386e-12
3.30236e-12
3.63976e-12
4.15772e-12
5.8154e-12