/*--------------------------------*- C++ -*----------------------------------*\
| =========                 |                                                 |
| \\      /  F ield         | OpenFOAM: The Open Source CFD Toolbox           |
|  \\    /   O peration     | Version:  v2106                                 |
|   \\  /    A nd           | Website:  www.openfoam.com                      |
|    \\/     M anipulation  |                                                 |
\*---------------------------------------------------------------------------*/
FoamFile
{
    version     2.0;
    format      ascii;
    arch        "LSB;label=32;scalar=64";
    class       volScalarField;
    location    "0.000196";
    object      p;
}
// * * * * * * * * * * * * * * * * * * * * * * * * * * * * * * * * * * * * * //

dimensions      [1 -1 -2 0 0 0 0];

internalField   nonuniform List<scalar> 
18109
(
207459
206832
206199
205564
204953
204372
203844
207292
206731
206130
205507
204894
204306
203752
207171
206640
206051
205441
204843
204269
203723
207103
206596
206037
205446
204859
204294
203746
207064
206570
206031
205464
204894
204336
203784
207035
206543
206017
205472
204918
204363
203807
207003
206507
205990
205445
204893
204343
203791
206935
206413
205889
205351
204812
204270
203722
207987
207477
206894
206280
205668
205074
204523
204000
203490
202960
202417
201861
201349
200719
207880
207380
206821
206208
205592
204992
204425
203885
203367
202853
202331
201788
201256
200700
207786
207309
206751
206141
205529
204937
204374
203849
203337
202828
202309
201784
201254
200728
207724
207249
206703
206106
205509
204930
204375
203848
203333
202825
202306
201784
201245
200718
207653
207173
206641
206068
205493
204929
204382
203854
203333
202822
202303
201781
201240
200715
207555
207074
206557
206014
205462
204913
204371
203841
203317
202803
202282
201758
201216
200674
207419
206936
206430
205905
205382
204859
204328
203796
203270
202752
202228
201699
201150
200588
207213
206718
206231
205737
205241
204740
204228
203704
203178
202654
202123
201584
201023
200437
206966
206471
205999
205527
205057
204581
204089
203577
203050
202514
201967
201412
200837
200248
206692
206200
205741
205292
204846
204395
203925
203426
202899
202349
201784
201207
200617
200022
206427
205939
205496
205063
204640
204211
203754
203263
202729
202163
201575
200975
200369
199786
206169
205709
205292
204879
204473
204057
203605
203110
202566
201983
201374
200762
200157
199582
206033
205583
205178
204762
204355
203938
203472
202965
202412
201820
201206
200593
199974
199395
205846
205417
205069
204671
204274
203854
203378
202857
202291
201693
201089
200474
199894
199282
207765
208160
208532
208893
209116
209304
208211
208541
208832
209126
209320
209498
207730
208115
208467
208850
209140
209411
207204
207626
208066
208532
208916
209246
206598
207046
207560
208119
208634
209112
205978
206420
206948
207571
208173
208706
205360
205784
206287
206883
207503
208107
204760
205134
205582
206098
206637
207165
204175
204463
204816
205203
205602
205967
203588
203785
204021
204260
204483
204705
202992
203083
203200
203297
203403
203417
202424
202440
202463
202391
202311
202134
201833
201710
201599
201405
201260
201024
201273
201069
200892
200629
200467
200159
200637
200265
199986
199628
199401
199114
200294
200106
199826
199539
199133
198784
200271
199847
199428
199085
198703
198442
200234
199806
199334
198914
198513
198255
200159
199650
199105
198649
198252
198002
200107
199528
198929
198442
198034
197737
200027
199378
198720
198177
197708
197336
199915
199204
198498
197876
197323
196868
199764
199019
198273
197609
196997
196436
199575
198815
198084
197400
196753
196074
199362
198635
197934
197246
196512
195729
199171
198530
197914
197250
196522
195735
199014
198423
197864
197269
196653
195980
198921
198478
198040
197575
197094
196566
198807
198435
198132
197784
197453
197125
199237
198957
198807
198559
198427
198157
199835
199601
199455
199275
199211
199059
200381
200207
200132
200144
200174
200133
200976
200840
200831
200958
201135
201265
201578
201459
201496
201718
202014
202303
202182
202086
202141
202412
202708
203084
202765
202713
202759
203014
203245
203644
203307
203300
203334
203517
203611
203925
203802
203835
203866
203962
203916
204113
204259
204339
204363
204384
204236
204287
204693
204809
204824
204835
204623
204544
205123
205271
205291
205300
205102
204973
205480
205672
205736
205732
205690
205463
205999
206157
206232
206212
206211
206106
207566
208003
208347
208680
208987
209284
207640
208074
208414
208710
209022
209239
207740
208211
208560
208913
209183
209420
207933
208297
208608
208899
209133
209354
206224
206345
206590
206742
206915
207067
206455
206684
207060
207351
207667
208036
206654
206977
207463
207925
208421
208998
206939
207358
207920
208516
209164
209922
207229
207749
208370
209064
209822
210710
207511
208097
208752
209500
210295
211199
207754
208361
208976
209688
210461
211369
207938
208494
209033
209671
210342
211205
208044
208542
208974
209452
209924
210721
208103
208518
208816
209154
209494
210121
208124
208486
208735
208996
209247
209574
208156
208479
208679
208852
209059
209240
208212
208555
208751
208967
209147
209354
208383
208642
208842
209025
209193
209411
209771
210676
212762
218663
227971
209900
211090
213926
220454
230383
209913
211538
215191
222657
236595
210032
211819
215405
222883
236284
209514
211366
214676
220709
230196
208700
210146
213059
217427
224245
207751
209006
211784
216763
225866
206387
207380
210125
214750
223183
231902
204990
205664
207979
211473
217593
223734
203444
204014
206579
211253
218306
225662
202091
202529
205475
211163
220684
231971
241258
200911
201405
204651
211815
224226
239283
255747
271722
199892
200377
203610
211465
226379
247952
279122
314907
198979
199703
202888
210580
224266
243519
268286
288539
198390
199204
202257
208838
218483
230954
246145
256016
198159
198976
202354
208896
218590
232857
242039
251175
198160
199087
202817
209592
222652
242128
264327
272752
198099
198965
202176
208524
220593
238816
259423
287554
197883
198694
201439
206772
215203
226024
239693
247190
197300
198026
200379
205231
212660
222634
227855
232883
196635
197090
199896
205484
217266
232811
245711
248505
195905
196042
198796
204244
215207
229784
246170
269941
195231
195149
197122
200968
207759
215087
194716
194511
196246
200049
206016
212197
194660
194309
195994
200287
208004
217507
194990
194516
196235
201743
212067
225916
195696
195302
197172
203230
215355
234819
196654
196400
198097
203748
214893
197808
197868
199362
203803
211169
199059
199551
201196
205273
212426
200470
201172
203308
207211
216803
201801
202509
204895
208031
216214
203021
203703
206228
209595
216028
203827
204517
206730
210197
215952
204264
205091
207162
211297
219820
204136
204933
206744
210835
218753
203937
204532
206051
209425
215356
203786
203911
205226
208741
215365
203880
203836
205052
208719
216821
204360
204150
205499
209512
219727
205151
205001
206715
211034
221692
206193
206338
208273
212584
222581
207451
208176
210229
214315
221800
208824
210060
212265
216412
223736
210093
211726
214296
218660
228845
211274
213004
215605
219876
229013
212195
213859
216729
220534
227373
212707
214369
216710
220671
226374
212842
214605
216900
221428
228464
212403
214057
216200
220706
227164
211651
213190
215250
218922
223739
210693
212090
214346
218754
225289
210110
211338
213830
218604
227773
209859
210726
213245
218449
230084
209798
210455
212831
218037
231274
209768
210534
212541
217871
229472
208582
208260
207852
207379
206868
206317
205781
205257
204744
204213
203670
203101
202582
201951
208602
208236
207803
207288
206746
206172
205614
205066
204531
203997
203473
202933
202431
201879
208578
208197
207737
207202
206644
206059
205497
204954
204432
203904
203377
202850
202340
201829
208521
208120
207651
207114
206556
205976
205417
204871
204345
203822
203294
202773
202245
201745
208403
207994
207529
207010
206471
205911
205362
204816
204287
203762
203231
202708
202168
201656
208221
207813
207369
206882
206363
205826
205291
204753
204224
203700
203169
202643
202091
201557
207954
207539
207106
206664
206201
205710
205198
204673
204149
203623
203090
202556
201992
201430
207643
207239
206838
206430
205996
205540
205054
204549
204032
203510
202975
202431
201853
201268
207306
206914
206536
206159
205758
205333
204868
204379
203867
203345
202803
202245
201654
201054
206945
206566
206202
205850
205477
205077
204633
204158
203651
203128
202582
202013
201418
200810
206599
206226
205878
205539
205180
204791
204356
203890
203385
202857
202305
201724
201123
200521
206248
205899
205564
205232
204881
204501
204065
203595
203085
202551
201994
201420
200829
200240
205962
205611
205288
204956
204601
204221
203776
203301
202785
202240
201676
201103
200515
199940
205625
205313
205032
204701
204352
203974
203532
203048
202525
201977
201423
200861
200293
199610
210031
209841
209576
209223
208810
208338
207877
207384
206910
206385
205867
205277
204714
204033
210123
209867
209546
209149
208711
208199
207700
207176
206660
206102
205570
204997
204472
203871
210108
209793
209463
209026
208580
208061
207548
207011
206492
205951
205427
204865
204334
203747
210029
209695
209340
208888
208439
207907
207391
206855
206327
205780
205256
204706
204171
203592
209837
209512
209150
208713
208280
207774
207268
206736
206207
205661
205125
204570
204018
203438
209578
209273
208918
208510
208098
207620
207127
206603
206072
205525
204980
204421
203851
203270
209265
208975
208645
208266
207884
207439
206971
206465
205940
205394
204841
204275
203684
203095
208908
208627
208334
207984
207632
207216
206774
206289
205773
205230
204667
204090
203480
202876
208515
208252
207993
207661
207341
206948
206528
206059
205552
205012
204445
203860
203237
202627
208094
207848
207608
207302
206997
206626
206219
205767
205273
204746
204183
203593
202963
202340
207653
207428
207193
206925
206614
206260
205854
205408
204919
204401
203842
203254
202625
201997
207169
206968
206744
206502
206192
205849
205439
205000
204515
204013
203469
202891
202281
201657
206672
206461
206285
206061
205762
205423
205011
204577
204085
203589
203053
202489
201875
201232
206102
205928
205806
205609
205336
204999
204595
204167
203684
203203
202678
202138
201528
200769
213418
213213
212993
212733
212424
212044
211641
211191
210752
210233
209753
209184
208620
207938
213475
213219
212986
212673
212338
211926
211499
211000
210507
209960
209456
208890
208369
207766
213405
213116
212884
212553
212213
211781
211344
210846
210352
209808
209308
208749
208211
207610
213206
212938
212693
212364
212021
211585
211145
210637
210126
209579
209066
208517
207990
207407
212973
212736
212478
212161
211817
211382
210943
210438
209928
209382
208857
208298
207758
207175
212664
212442
212178
211876
211541
211126
210699
210204
209696
209153
208610
208045
207489
206905
212327
212101
211843
211553
211227
210835
210422
209945
209444
208907
208353
207779
207202
206619
211911
211687
211454
211162
210864
210493
210098
209640
209147
208616
208052
207471
206868
206278
211413
211216
211000
210715
210449
210096
209720
209282
208801
208282
207715
207137
206519
205934
210870
210677
210490
210207
209979
209641
209287
208874
208411
207912
207348
206771
206133
205535
210271
210085
209935
209659
209457
209134
208793
208394
207941
207456
206894
206324
205679
205077
209608
209426
209314
209062
208883
208584
208259
207885
207450
206989
206443
205875
205226
204572
208890
208766
208690
208475
208298
208027
207708
207347
206904
206440
205885
205306
204651
203997
208152
208052
208013
207876
207710
207475
207162
206827
206393
205946
205408
204835
204150
203374
218445
218127
217934
217668
217423
217094
216758
216362
215945
215481
215069
214580
214134
213576
218312
218017
217813
217520
217253
216909
216549
216133
215698
215218
214775
214272
213835
213325
218160
217891
217684
217390
217116
216760
216390
215966
215527
215056
214612
214116
213661
213142
217908
217684
217470
217189
216908
216545
216167
215736
215290
214813
214355
213859
213398
212888
217602
217420
217202
216940
216659
216301
215923
215495
215049
214575
214108
213610
213137
212627
217259
217104
216894
216641
216366
216012
215636
215212
214767
214293
213817
213316
212828
212316
216844
216711
216528
216280
216024
215681
215312
214898
214459
213990
213507
213007
212501
211991
216375
216234
216105
215857
215632
215303
214944
214541
214106
213640
213147
212643
212113
211603
215828
215691
215610
215374
215178
214868
214522
214135
213708
213251
212754
212256
211711
211213
215232
215096
215051
214838
214669
214384
214053
213685
213267
212816
212310
211804
211226
210727
214591
214452
214448
214266
214110
213851
213527
213174
212761
212313
211802
211295
210703
210204
213890
213762
213806
213666
213518
213286
212975
212642
212238
211797
211284
210759
210130
209582
213157
213115
213158
213056
212909
212701
212385
212051
211630
211171
210633
210081
209464
208851
212325
212410
212517
212454
212306
212108
211798
211470
211047
210591
210042
209455
208765
208017
224947
224573
224360
224081
223828
223529
223220
222878
222526
222156
221814
221442
221120
220734
224623
224322
224111
223822
223562
223257
222939
222591
222232
221859
221503
221119
220781
220384
224341
224080
223869
223583
223317
223006
222685
222339
221987
221625
221271
220898
220548
220154
223984
223774
223564
223289
223021
222709
222388
222045
221696
221336
220978
220603
220240
219842
223595
223434
223231
222969
222702
222393
222074
221738
221394
221040
220682
220310
219937
219538
223172
223036
222855
222603
222342
222040
221725
221394
221054
220703
220344
219973
219593
219190
222697
222573
222427
222192
221944
221655
221347
221023
220687
220339
219981
219612
219226
218826
222188
222065
221959
221744
221511
221237
220934
220616
220280
219933
219571
219202
218807
218412
221634
221515
221443
221252
221031
220775
220481
220170
219838
219492
219127
218759
218357
217976
221065
220944
220904
220740
220530
220290
220003
219696
219361
219010
218635
218258
217831
217456
220477
220367
220342
220199
219993
219767
219483
219179
218843
218489
218108
217727
217288
216923
219868
219770
219769
219650
219454
219238
218953
218648
218303
217939
217544
217141
216671
216282
219264
219242
219212
219095
218901
218690
218390
218069
217703
217320
216906
216478
216032
215561
218546
218622
218643
218542
218342
218133
217822
217495
217115
216718
216278
215805
215287
214712
231123
230766
230543
230260
229998
229717
229443
229168
228906
228653
228430
228208
228022
227795
230657
230376
230165
229892
229634
229359
229089
228819
228560
228310
228080
227841
227620
227341
230263
230021
229808
229545
229292
229025
228766
228509
228264
228025
227795
227556
227317
227034
229821
229620
229417
229167
228921
228661
228409
228161
227925
227692
227461
227215
226957
226664
229385
229214
229027
228790
228549
228296
228051
227812
227583
227358
227129
226884
226619
226328
228937
228781
228617
228392
228159
227912
227669
227434
227208
226986
226758
226518
226254
225970
228480
228333
228196
227986
227761
227520
227277
227043
226817
226597
226374
226143
225887
225620
228016
227875
227766
227570
227351
227113
226868
226630
226399
226177
225955
225733
225487
225242
227550
227416
227328
227146
226931
226696
226446
226201
225963
225738
225516
225303
225065
224848
227098
226972
226895
226724
226509
226272
226014
225759
225509
225275
225048
224837
224597
224408
226642
226533
226452
226291
226073
225834
225566
225302
225040
224799
224566
224358
224114
223951
226229
226123
226036
225877
225651
225404
225120
224841
224562
224305
224058
223835
223581
223424
225788
225727
225604
225444
225210
224956
224654
224359
224064
223795
223537
223302
223057
222853
225364
225317
225211
225047
224790
224526
224207
223899
223585
223297
223012
222740
222462
222222
235880
235662
235470
235243
235027
234805
234596
234399
234227
234077
233966
233865
233807
233684
235443
235234
235048
234829
234615
234399
234196
234008
233846
233706
233595
233493
233405
233255
235010
234839
234646
234432
234221
234013
233822
233651
233505
233380
233275
233172
233067
232891
234590
234425
234240
234030
233820
233614
233427
233263
233125
233010
232906
232801
232676
232489
234181
234028
233852
233645
233436
233230
233044
232884
232753
232644
232544
232439
232305
232119
233779
233628
233464
233259
233047
232838
232648
232486
232353
232247
232148
232045
231911
231739
233388
233240
233085
232884
232668
232453
232256
232088
231951
231843
231746
231650
231527
231378
233009
232861
232713
232512
232291
232068
231859
231682
231535
231423
231325
231237
231126
231007
232647
232500
232354
232151
231922
231689
231468
231278
231120
231000
230901
230820
230722
230638
232309
232160
232009
231800
231560
231317
231082
230877
230706
230577
230472
230396
230304
230253
231986
231835
231676
231459
231208
230953
230703
230485
230300
230161
230049
229976
229887
229868
231696
231538
231364
231136
230871
230603
230338
230106
229907
229756
229634
229557
229462
229459
231392
231234
231055
230819
230542
230263
229985
229739
229530
229370
229241
229158
229061
229040
231167
230952
230766
230522
230232
229948
229663
229408
229185
229011
228860
228752
228632
228636
239075
238958
238786
238616
238452
238293
238147
238014
237900
237805
237748
237700
237713
237637
238707
238565
238394
238220
238051
237890
237745
237616
237509
237425
237371
237335
237333
237280
238312
238192
238009
237832
237660
237501
237362
237245
237152
237082
237039
237006
236997
236930
237949
237812
237634
237452
237278
237117
236978
236865
236778
236717
236677
236646
236623
236557
237597
237453
237276
237090
236913
236750
236612
236502
236420
236367
236332
236302
236271
236205
237255
237097
236923
236733
236551
236384
236242
236132
236050
236000
235965
235941
235907
235851
236932
236760
236586
236391
236202
236029
235881
235769
235687
235639
235607
235588
235560
235517
236626
236439
236260
236057
235860
235679
235523
235406
235320
235273
235242
235230
235207
235188
236344
236142
235953
235740
235531
235341
235176
235053
234962
234915
234884
234880
234865
234873
236086
235867
235665
235438
235217
235016
234842
234712
234616
234567
234535
234537
234531
234564
235853
235616
235398
235157
234922
234710
234527
234389
234287
234235
234202
234210
234210
234271
235647
235394
235156
234900
234651
234430
234238
234093
233984
233927
233892
233903
233904
233985
235448
235178
234935
234667
234408
234178
233978
233827
233711
233648
233612
233624
233627
233711
235297
234959
234719
234450
234188
233961
233759
233604
233482
233412
233367
233369
233354
233476
241008
240933
240789
240668
240550
240445
240350
240265
240195
240134
240101
240072
240093
240041
240692
240596
240451
240323
240199
240088
239988
239902
239830
239773
239738
239717
239736
239707
240354
240266
240110
239978
239851
239739
239642
239560
239495
239444
239416
239395
239415
239381
240038
239931
239779
239643
239515
239403
239306
239227
239164
239117
239087
239067
239077
239052
239731
239609
239457
239318
239189
239078
238984
238910
238851
238809
238782
238760
238763
238740
239429
239287
239138
238995
238867
238758
238666
238597
238540
238503
238476
238455
238447
238429
239144
238984
238832
238685
238556
238447
238358
238293
238241
238208
238183
238166
238153
238140
238871
238692
238535
238382
238251
238142
238054
237993
237945
237917
237895
237884
237870
237863
238618
238420
238255
238094
237957
237847
237759
237702
237658
237637
237618
237616
237606
237613
238385
238169
237993
237821
237677
237563
237475
237421
237381
237367
237353
237360
237357
237382
238174
237941
237752
237569
237416
237297
237205
237153
237116
237109
237102
237121
237128
237171
237988
237739
237536
237340
237178
237053
236959
236904
236870
236869
236867
236897
236910
236975
237815
237558
237343
237139
236968
236838
236738
236682
236651
236654
236657
236697
236719
236797
237662
237355
237154
236948
236778
236648
236549
236489
236458
236463
236465
236509
236523
236647
242052
242016
241921
241850
241782
241728
241683
241644
241618
241597
241595
241589
241616
241580
241789
241742
241645
241568
241495
241437
241387
241344
241313
241287
241278
241271
241294
241270
241522
241474
241369
241290
241214
241154
241102
241058
241027
240997
240987
240976
240999
240971
241260
241196
241095
241013
240939
240878
240827
240785
240751
240721
240704
240688
240700
240679
241008
240930
240828
240746
240673
240614
240564
240524
240491
240459
240440
240419
240421
240402
240752
240658
240560
240478
240408
240353
240307
240271
240239
240210
240187
240163
240152
240134
240509
240401
240304
240220
240152
240102
240060
240028
239998
239972
239948
239924
239904
239883
240271
240150
240052
239968
239903
239857
239820
239794
239768
239747
239723
239700
239671
239648
240044
239911
239813
239727
239663
239620
239587
239568
239548
239533
239512
239493
239459
239437
239830
239688
239587
239498
239435
239394
239364
239351
239337
239329
239312
239298
239265
239250
239629
239481
239376
239285
239220
239179
239151
239143
239135
239137
239126
239120
239094
239089
239446
239291
239183
239087
239019
238977
238952
238947
238942
238951
238946
238953
238933
238942
239274
239125
239008
238909
238837
238793
238768
238769
238769
238785
238789
238809
238805
238822
239108
238936
238832
238735
238665
238621
238600
238601
238603
238626
238634
238665
238662
238709
242589
242601
242578
242565
242555
242555
242561
242571
242592
242610
242641
242661
242699
242691
242387
242399
242374
242357
242345
242341
242344
242351
242367
242382
242409
242425
242458
242448
242198
242207
242177
242157
242142
242135
242135
242137
242150
242159
242183
242191
242222
242209
242002
242001
241972
241951
241935
241928
241926
241927
241937
241943
241960
241963
241985
241974
241819
241804
241774
241753
241736
241728
241724
241723
241728
241730
241740
241738
241751
241739
241627
241601
241571
241551
241536
241529
241525
241524
241526
241526
241528
241522
241523
241511
241441
241406
241378
241356
241342
241336
241332
241332
241330
241327
241321
241313
241304
241290
241257
241215
241188
241166
241154
241150
241147
241146
241142
241137
241127
241115
241095
241078
241075
241029
241003
240982
240971
240970
240966
240968
240962
240958
240945
240932
240902
240880
240901
240852
240828
240808
240798
240797
240793
240795
240789
240786
240771
240756
240717
240692
240728
240683
240659
240639
240630
240629
240625
240629
240626
240624
240610
240593
240552
240523
240561
240519
240498
240478
240469
240467
240465
240469
240466
240466
240451
240436
240394
240366
240397
240369
240343
240324
240313
240312
240310
240317
240318
240319
240308
240294
240259
240225
240229
240205
240188
240174
240165
240164
240163
240169
240170
240173
240164
240152
240119
240076
242891
242926
242954
242988
243026
243067
243112
243155
243203
243245
243292
243327
243371
243384
242748
242786
242815
242850
242890
242932
242978
243024
243073
243117
243164
243200
243240
243253
242624
242663
242690
242725
242763
242805
242850
242895
242945
242987
243034
243067
243108
243116
242491
242526
242555
242592
242631
242674
242720
242766
242814
242857
242901
242932
242968
242976
242366
242399
242429
242465
242504
242545
242590
242634
242680
242720
242760
242787
242816
242822
242234
242265
242296
242333
242371
242412
242455
242497
242540
242576
242610
242632
242653
242655
242102
242131
242164
242200
242237
242277
242316
242355
242391
242422
242446
242463
242472
242472
241971
241998
242031
242066
242101
242138
242173
242207
242234
242258
242271
242280
242277
242276
241836
241861
241893
241927
241960
241994
242024
242052
242071
242088
242089
242093
242082
242081
241701
241724
241757
241789
241820
241850
241873
241895
241903
241912
241906
241902
241883
241882
241564
241586
241617
241647
241674
241700
241717
241733
241735
241738
241728
241718
241691
241684
241425
241448
241479
241507
241531
241553
241564
241574
241571
241569
241554
241539
241503
241482
241284
241312
241339
241364
241384
241402
241409
241416
241412
241404
241385
241363
241324
241294
241127
241176
241206
241227
241241
241252
241256
241258
241250
241238
241218
241188
241148
241079
243021
243064
243102
243143
243185
243229
243277
243323
243372
243417
243463
243501
243542
243561
242916
242962
243003
243047
243093
243140
243190
243240
243292
243341
243389
243429
243468
243491
242829
242877
242918
242964
243010
243058
243110
243161
243215
243264
243314
243353
243395
243415
242735
242784
242828
242875
242924
242975
243029
243082
243137
243188
243239
243279
243320
243341
242647
242697
242742
242791
242841
242893
242948
243002
243058
243109
243160
243199
243238
243259
242557
242607
242654
242704
242754
242808
242863
242917
242973
243023
243072
243111
243146
243166
242463
242514
242563
242613
242664
242718
242772
242826
242880
242929
242974
243011
243041
243059
242369
242420
242469
242519
242569
242621
242673
242726
242775
242821
242860
242894
242916
242931
242268
242319
242368
242417
242466
242516
242565
242614
242659
242701
242733
242763
242777
242791
242162
242212
242261
242309
242356
242403
242448
242492
242530
242566
242590
242614
242620
242636
242052
242098
242146
242192
242236
242279
242318
242356
242387
242416
242432
242450
242451
242468
241932
241976
242022
242064
242104
242143
242178
242210
242234
242257
242267
242278
242272
242282
241807
241848
241890
241927
241962
241996
242023
242048
242066
242084
242088
242090
242080
242084
241663
241717
241755
241785
241812
241838
241859
241879
241890
241899
241898
241891
241877
241861
243021
243060
243088
243121
243156
243194
243234
243274
243316
243356
243397
243432
243471
243495
242930
242967
242999
243036
243075
243117
243161
243205
243250
243293
243337
243374
243412
243435
242851
242888
242923
242962
243003
243047
243092
243138
243186
243230
243275
243313
243353
243377
242769
242808
242845
242887
242931
242977
243026
243074
243124
243171
243219
243258
243298
243323
242693
242732
242772
242815
242860
242909
242959
243009
243061
243110
243159
243199
243238
243264
242617
242656
242696
242741
242788
242838
242890
242942
242995
243044
243093
243134
243172
243198
242537
242576
242618
242664
242712
242763
242816
242869
242923
242973
243021
243062
243098
243126
242455
242494
242536
242581
242630
242682
242735
242789
242842
242893
242939
242980
243014
243042
242368
242406
242447
242492
242541
242593
242646
242700
242752
242803
242848
242890
242922
242950
242275
242311
242352
242396
242444
242495
242548
242602
242653
242703
242746
242788
242815
242844
242177
242210
242250
242292
242339
242389
242439
242491
242540
242588
242628
242669
242693
242725
242067
242100
242138
242178
242223
242270
242320
242370
242417
242463
242500
242538
242559
242589
241951
241979
242015
242054
242097
242143
242189
242236
242281
242326
242363
242399
242422
242452
241815
241853
241886
241924
241962
242004
242045
242089
242131
242174
242212
242249
242274
242296
242960
242982
242996
243012
243031
243053
243078
243105
243135
243167
243202
243237
243275
243307
242863
242886
242901
242920
242942
242966
242993
243023
243058
243093
243131
243167
243207
243233
242778
242799
242816
242837
242860
242887
242916
242947
242982
243018
243058
243093
243138
243168
242698
242716
242734
242757
242783
242812
242844
242878
242916
242954
242997
243035
243079
243111
242622
242638
242657
242682
242709
242740
242774
242810
242851
242891
242936
242977
243021
243056
242545
242561
242580
242607
242636
242669
242705
242744
242787
242831
242877
242920
242965
243002
242468
242483
242504
242531
242562
242597
242636
242678
242723
242770
242817
242862
242907
242945
242388
242403
242425
242454
242487
242524
242565
242609
242657
242705
242753
242799
242843
242882
242304
242318
242343
242372
242407
242447
242490
242536
242585
242635
242685
242732
242775
242815
242214
242229
242255
242284
242322
242364
242409
242457
242507
242558
242607
242655
242696
242738
242120
242134
242163
242193
242232
242275
242322
242371
242422
242475
242524
242574
242615
242659
242016
242031
242063
242094
242135
242180
242230
242282
242335
242388
242438
242490
242530
242575
241904
241921
241954
241989
242033
242081
242132
242185
242240
242297
242350
242404
242448
242495
241776
241806
241842
241881
241925
241975
242029
242084
242140
242198
242254
242310
242355
242401
242848
242848
242848
242849
242855
242865
242878
242894
242914
242937
242965
242995
243035
243069
242743
242746
242744
242746
242751
242761
242775
242791
242813
242837
242867
242896
242937
242963
242649
242650
242646
242648
242653
242663
242677
242694
242717
242741
242772
242802
242843
242871
242559
242557
242553
242556
242561
242571
242587
242606
242629
242654
242687
242717
242758
242790
242476
242471
242468
242471
242477
242487
242503
242524
242548
242574
242608
242641
242681
242716
242395
242389
242386
242391
242398
242410
242428
242449
242475
242504
242539
242574
242617
242655
242316
242309
242309
242314
242324
242338
242357
242380
242408
242440
242477
242515
242559
242601
242237
242231
242233
242240
242252
242269
242291
242316
242346
242381
242420
242462
242507
242552
242159
242154
242158
242167
242183
242203
242228
242256
242290
242329
242370
242415
242461
242507
242080
242076
242083
242096
242115
242138
242166
242198
242235
242276
242320
242368
242416
242463
241999
241997
242006
242024
242047
242074
242106
242144
242185
242230
242277
242326
242374
242422
241914
241913
241928
241950
241979
242012
242049
242090
242134
242182
242230
242281
242329
242379
241824
241825
241846
241874
241910
241948
241991
242038
242088
242140
242192
242245
242291
242338
241725
241737
241765
241799
241841
241886
241934
241985
242039
242093
242146
242200
242249
242298
242685
242683
242685
242692
242703
242720
242742
242768
242805
242839
242638
242622
242601
242586
242576
242571
242570
242575
242586
242601
242623
242646
242683
242705
242544
242526
242501
242483
242470
242464
242461
242464
242473
242486
242507
242530
242565
242587
242452
242431
242404
242386
242371
242363
242359
242360
242368
242381
242400
242422
242456
242479
242366
242339
242313
242294
242279
242269
242265
242265
242272
242284
242303
242325
242358
242386
242281
242251
242226
242208
242193
242184
242180
242180
242186
242199
242217
242240
242272