/*--------------------------------*- C++ -*----------------------------------*\
| =========                 |                                                 |
| \\      /  F ield         | OpenFOAM: The Open Source CFD Toolbox           |
|  \\    /   O peration     | Version:  v2106                                 |
|   \\  /    A nd           | Website:  www.openfoam.com                      |
|    \\/     M anipulation  |                                                 |
\*---------------------------------------------------------------------------*/
FoamFile
{
    version     2.0;
    format      ascii;
    arch        "LSB;label=32;scalar=64";
    class       volScalarField;
    location    "0.000196";
    object      Ttot;
}
// * * * * * * * * * * * * * * * * * * * * * * * * * * * * * * * * * * * * * //

dimensions      [0 0 0 1 0 0 0];

internalField   nonuniform List<scalar> 
18109
(
298.593
298.413
298.242
298.052
297.852
297.648
297.473
298.548
298.392
298.216
298.019
297.818
297.613
297.431
298.502
298.347
298.164
297.966
297.773
297.58
297.398
298.474
298.317
298.14
297.945
297.754
297.564
297.378
298.459
298.298
298.124
297.936
297.751
297.563
297.372
298.454
298.29
298.116
297.936
297.757
297.572
297.376
298.453
298.285
298.109
297.929
297.751
297.567
297.372
298.432
298.255
298.073
297.898
297.723
297.54
297.344
298.738
298.591
298.422
298.227
298.028
297.825
297.645
297.468
297.294
297.113
296.935
296.751
296.587
296.382
298.714
298.568
298.395
298.191
297.986
297.777
297.588
297.407
297.233
297.057
296.88
296.702
296.545
296.383
298.681
298.533
298.349
298.139
297.934
297.728
297.54
297.363
297.189
297.016
296.849
296.695
296.557
296.426
298.655
298.498
298.314
298.106
297.906
297.705
297.517
297.338
297.163
296.995
296.832
296.691
296.567
296.456
298.628
298.464
298.283
298.085
297.893
297.7
297.51
297.326
297.146
296.978
296.823
296.692
296.579
296.48
298.6
298.431
298.252
298.068
297.887
297.701
297.511
297.322
297.136
296.965
296.813
296.688
296.58
296.473
298.561
298.389
298.211
298.037
297.869
297.695
297.508
297.312
297.12
296.947
296.796
296.674
296.564
296.443
298.487
298.31
298.14
297.982
297.827
297.661
297.479
297.284
297.091
296.916
296.764
296.637
296.515
296.373
298.399
298.219
298.055
297.906
297.759
297.601
297.425
297.234
297.043
296.865
296.707
296.57
296.434
296.28
298.301
298.119
297.959
297.815
297.671
297.52
297.35
297.167
296.979
296.799
296.637
296.488
296.334
296.171
298.214
298.028
297.875
297.733
297.593
297.445
297.278
297.097
296.906
296.721
296.549
296.385
296.21
296.046
298.107
297.944
297.808
297.672
297.538
297.395
297.229
297.048
296.849
296.655
296.465
296.284
296.097
295.932
298.061
297.908
297.781
297.64
297.509
297.372
297.211
297.031
296.83
296.626
296.419
296.217
296.011
295.83
297.961
297.829
297.739
297.618
297.504
297.376
297.22
297.044
296.847
296.64
296.427
296.205
296.002
295.783
298.62
298.629
298.574
298.494
298.27
298.008
298.745
298.761
298.723
298.666
298.452
298.213
298.614
298.632
298.579
298.511
298.319
298.151
298.469
298.492
298.451
298.383
298.222
298.101
298.281
298.309
298.291
298.253
298.139
298.077
298.086
298.109
298.102
298.085
298.006
297.962
297.881
297.908
297.907
297.878
297.803
297.788
297.685
297.714
297.716
297.669
297.549
297.455
297.493
297.513
297.506
297.433
297.262
297.017
297.309
297.318
297.289
297.197
296.928
296.483
297.119
297.101
297.049
296.913
296.545
295.865
296.939
296.892
296.806
296.586
296.089
295.164
296.742
296.624
296.456
296.119
295.504
294.503
296.543
296.368
296.112
295.662
294.977
293.927
296.301
296.018
295.623
295.021
294.256
293.348
296.227
296.045
295.609
294.951
294.031
293.194
296.266
296.01
295.51
294.796
293.902
293.124
296.295
296.055
295.539
294.826
293.965
293.221
296.298
296.039
295.512
294.818
294.02
293.364
296.303
296.023
295.501
294.855
294.121
293.521
296.278
295.974
295.467
294.864
294.212
293.606
296.23
295.907
295.437
294.887
294.293
293.612
296.147
295.832
295.409
294.935
294.373
293.578
296.051
295.746
295.387
294.983
294.422
293.491
295.942
295.662
295.353
294.98
294.358
293.283
295.837
295.603
295.345
294.964
294.264
293.079
295.743
295.529
295.282
294.859
294.114
292.942
295.682
295.52
295.283
294.838
294.11
293.01
295.623
295.459
295.215
294.743
294.016
293.093
295.778
295.614
295.386
294.93
294.307
293.553
296.017
295.885
295.648
295.207
294.606
293.935
296.218
296.123
295.933
295.602
295.082
294.507
296.44
296.371
296.234
295.986
295.606
295.178
296.653
296.596
296.509
296.354
296.122
295.86
296.858
296.807
296.746
296.675
296.504
296.384
297.049
297.012
296.958
296.929
296.765
296.711
297.222
297.198
297.139
297.103
296.909
296.844
297.374
297.362
297.305
297.24
297.02
296.916
297.505
297.518
297.465
297.375
297.133
296.947
297.62
297.656
297.613
297.541
297.27
296.951
297.741
297.784
297.75
297.679
297.394
296.976
297.831
297.879
297.868
297.777
297.518
297.008
298.011
298.017
297.992
297.858
297.581
297.079
298.609
298.728
298.719
298.684
298.579
298.333
298.62
298.71
298.694
298.644
298.493
298.144
298.634
298.711
298.688
298.639
298.443
298.089
298.704
298.714
298.643
298.531
298.304
298
298.071
298.048
298.043
297.931
297.693
297.35
298.191
298.221
298.25
298.176
297.977
297.758
298.273
298.346
298.403
298.384
298.266
298.209
298.399
298.521
298.606
298.64
298.589
298.65
298.495
298.662
298.78
298.878
298.89
299.027
298.592
298.785
298.925
299.07
299.11
299.251
298.67
298.864
298.995
299.136
299.206
299.347
298.732
298.898
299.008
299.118
299.173
299.298
298.76
298.915
298.993
299.031
299.038
299.156
298.775
298.911
298.933
298.914
298.872
298.904
298.778
298.887
298.878
298.846
298.765
298.59
298.779
298.852
298.819
298.762
298.612
298.292
298.777
298.835
298.788
298.718
298.522
298.211
298.832
298.833
298.764
298.646
298.432
298.172
297.553
296.76
298.01
302.556
307.141
297.633
297.186
298.95
302.807
305.865
297.716
297.611
299.643
302.877
305.83
297.848
297.95
299.349
301.833
304.312
297.576
297.568
298.609
301.679
304.247
297.168
296.585
297.304
301.132
304.73
296.573
295.39
296.009
300.323
303.909
295.74
293.938
294.864
299.985
303.954
302.546
294.84
292.573
294.08
299.539
303.552
303.111
293.818
291.277
293.151
298.908
303.595
304.368
292.97
290.373
292.296
297.641
302.287
303.668
302.416
292.293
289.804
291.395
296.314
300.972
301.881
300.193
300.189
291.759
289.503
291.064
295.085
299.076
300.075
299.151
303.058
291.4
289.552
291.262
294.77
298.63
299.475
298.531
296.163
291.369
290.004
292.009
295.228
298.557
299.779
298.336
293.49
291.551
290.678
292.698
295.462
298.168
299.34
297.974
295.444
291.838
291.417
293.203
295.247
298.283
298.883
298.659
294.827
292.164
292.002
292.882
294.34
297.527
299.24
298.309
292.549
292.439
292.108
291.99
294.557
298.473
299.411
298.513
291.866
292.455
291.537
290.809
294.701
300.352
301.312
298.479
294.136
292.313
290.447
289.907
294.34
299.902
300.499
299.612
295.533
291.934
289.402
289.708
295.203
300.95
301.792
298.95
296.707
291.441
288.606
289.55
295.225
299.868
300.257
290.901
288.001
289.322
295.529
300.601
300.982
290.564
287.727
288.839
294.689
299.582
300.531
290.505
287.751
288.676
294.294
299.465
300.369
290.748
288.188
289.011
293.472
297.65
298.247
291.253
288.968
289.875
293.588
297.782
291.996
290.156
291.341
294.497
298.207
292.756
291.495
292.841
295.089
298.274
293.639
292.862
294.136
295.304
298.307
294.536
294.026
295.051
295.744
299.663
295.379
294.97
295.61
296.898
301.762
295.961
295.55
295.424
297.35
303.529
296.286
295.781
294.899
297.275
303.781
296.275
295.484
294.205
297.619
304.81
296.172
294.969
293.69
297.808
305.064
296.04
294.278
293.09
297.87
306.239
295.833
293.789
292.718
297.275
305.514
295.775
293.777
292.996
297.226
304.954
295.937
294.206
293.92
297.375
303.022
296.308
295.039
295.446
298.683
303.424
296.907
296.192
297.209
300.124
304.024
297.597
297.309
298.597
300.757
303.544
298.264
298.275
299.464
300.862
303.297
298.819
298.979
299.865
301.276
304.034
299.188
299.328
300.191
302.325
305.956
299.373
299.467
299.789
303.019
307.646
299.428
299.408
299.557
303.339
307.477
299.152
298.833
298.845
303.402
308.166
298.733
298.051
298.235
303.288
308.365
298.176
297.158
297.377
302.544
308.374
297.706
296.467
296.759
301.569
308.102
297.453
296.046
296.415
300.671
307.249
297.419
296.058
296.573
300.36
306.381
297.465
296.337
297.253
301.313
305.894
298.924
298.841
298.722
298.561
298.391
298.198
298.017
297.833
297.654
297.465
297.287
297.1
296.932
296.719
298.951
298.828
298.684
298.497
298.312
298.112
297.925
297.737
297.553
297.362
297.181
296.994
296.849
296.701
298.944
298.799
298.628
298.423
298.231
298.028
297.844
297.664
297.488
297.302
297.124
296.953
296.821
296.71
298.906
298.749
298.57
298.363
298.167
297.966
297.785
297.607
297.433
297.256
297.084
296.927
296.8
296.705
298.852
298.69
298.511
298.314
298.125
297.931
297.753
297.573
297.399
297.225
297.059
296.915
296.793
296.698
298.78
298.617
298.446
298.268
298.088
297.903
297.728
297.55
297.375
297.201
297.037
296.897
296.774
296.67
298.677
298.51
298.345
298.19
298.033
297.866
297.698
297.524
297.351
297.178
297.016
296.878
296.75
296.631
298.558
298.395
298.243
298.105
297.96
297.809
297.649
297.482
297.313
297.142
296.982
296.841
296.703
296.565
298.43
298.269
298.128
298.003
297.872
297.732
297.578
297.416
297.249
297.082
296.924
296.779
296.631
296.477
298.299
298.143
298.007
297.89
297.768
297.638
297.491
297.335
297.169
297.008
296.852
296.703
296.544
296.381
298.196
298.038
297.91
297.794
297.676
297.547
297.397
297.239
297.07
296.908
296.749
296.593
296.421
296.259
298.101
297.955
297.832
297.716
297.598
297.468
297.312
297.146
296.969
296.8
296.632
296.47
296.295
296.138
298.051
297.899
297.787
297.67
297.551
297.418
297.257
297.084
296.898
296.714
296.53
296.351
296.166
296.006
297.931
297.797
297.714
297.602
297.496
297.381
297.237
297.069
296.88
296.689
296.5
296.31
296.121
295.882
299.33
299.268
299.179
299.04
298.889
298.706
298.544
298.355
298.184
297.992
297.835
297.661
297.516
297.332
299.34
299.219
299.1
298.942
298.788
298.6
298.431
298.238
298.058
297.854
297.684
297.498
297.372
297.25
299.318
299.161
299.022
298.84
298.682
298.495
298.327
298.141
297.969
297.772
297.605
297.431
297.314
297.209
299.267
299.108
298.951
298.759
298.593
298.403
298.236
298.058
297.887
297.693
297.532
297.374
297.263
297.159
299.196
299.048
298.882
298.695
298.526
298.343
298.18
298.007
297.837
297.648
297.486
297.332
297.218
297.115
299.113
298.971
298.807
298.635
298.472
298.298
298.138
297.97
297.798
297.611
297.443
297.287
297.162
297.056
299.013
298.869
298.716
298.558
298.41
298.249
298.097
297.936
297.765
297.582
297.412
297.258
297.122
297.007
298.901
298.755
298.618
298.474
298.343
298.195
298.053
297.899
297.731
297.551
297.377
297.218
297.063
296.925
298.775
298.634
298.511
298.373
298.258
298.119
297.982
297.83
297.663
297.488
297.317
297.16
296.996
296.846
298.65
298.518
298.403
298.271
298.162
298.029
297.893
297.746
297.584
297.42
297.254
297.095
296.918
296.753
298.538
298.41
298.295
298.174
298.06
297.93
297.785
297.633
297.467
297.307
297.141
296.982
296.796
296.631
298.414
298.298
298.182
298.07
297.953
297.823
297.671
297.518
297.351
297.195
297.03
296.866
296.674
296.511
298.294
298.174
298.077
297.971
297.858
297.73
297.568
297.408
297.231
297.075
296.909
296.739
296.536
296.354
298.086
298.001
297.951
297.857
297.75
297.634
297.49
297.349
297.177
297.021
296.845
296.667
296.454
296.203
300.302
300.198
300.118
299.999
299.876
299.719
299.572
299.395
299.23
299.036
298.895
298.735
298.602
298.432
300.275
300.124
300.031
299.891
299.769
299.607
299.459
299.271
299.095
298.892
298.733
298.558
298.445
298.334
300.212
300.052
299.941
299.788
299.667
299.501
299.352
299.171
299.002
298.805
298.65
298.481
298.368
298.269
300.115
299.976
299.849
299.696
299.565
299.4
299.252
299.071
298.9
298.706
298.55
298.389
298.282
298.183
300.027
299.905
299.767
299.623
299.483
299.32
299.173
298.996
298.825
298.633
298.476
298.317
298.208
298.106
299.916
299.799
299.661
299.527
299.39
299.237
299.095
298.924
298.752
298.563
298.4
298.239
298.121
298.014
299.798
299.669
299.538
299.41
299.284
299.145
299.009
298.846
298.675
298.493
298.326
298.168
298.038
297.924
299.658
299.521
299.405
299.278
299.17
299.043
298.914
298.759
298.589
298.412
298.238
298.079
297.929
297.803
299.497
299.368
299.254
299.127
299.034
298.917
298.792
298.644
298.476
298.309
298.138
297.989
297.831
297.703
299.344
299.212
299.105
298.975
298.894
298.779
298.66
298.523
298.365
298.212
298.045
297.899
297.725
297.583
299.183
299.055
298.957
298.819
298.744
298.629
298.507
298.373
298.217
298.07
297.903
297.764
297.586
297.453
299.004
298.877
298.796
298.664
298.593
298.479
298.359
298.236
298.088
297.953
297.793
297.652
297.463
297.318
298.805
298.709
298.635
298.516
298.447
298.344
298.216
298.088
297.938
297.805
297.644
297.492
297.296
297.145
298.562
298.5
298.455
298.363
298.291
298.212
298.1
297.994
297.853
297.73
297.576
297.414
297.19
296.944
301.535
301.377
301.308
301.181
301.082
300.944
300.821
300.67
300.515
300.346
300.226
300.087
300.007
299.891
301.441
301.279
301.188
301.051
300.95
300.811
300.682
300.529
300.378
300.209
300.073
299.919
299.839
299.757
301.358
301.216
301.105
300.963
300.857
300.715
300.583
300.43
300.28
300.119
299.986
299.839
299.753
299.67
301.262
301.142
301.017
300.881
300.764
300.62
300.486
300.331
300.18
300.019
299.883
299.741
299.65
299.561
301.148
301.044
300.914
300.789
300.67
300.531
300.397
300.244
300.091
299.93
299.792
299.651
299.556
299.465
301.027
300.93
300.805
300.686
300.572
300.438
300.305
300.153
299.999
299.837
299.694
299.555
299.451
299.358
300.88
300.788
300.677
300.559
300.459
300.331
300.201
300.054
299.901
299.743
299.597
299.461
299.348
299.251
300.728
300.623
300.54
300.417
300.333
300.213
300.087
299.944
299.792
299.636
299.485
299.35
299.221
299.118
300.549
300.448
300.382
300.255
300.182
300.07
299.948
299.813
299.665
299.516
299.368
299.243
299.107
299.007
300.37
300.268
300.216
300.093
300.027
299.922
299.803
299.676
299.533
299.39
299.24
299.115
298.961
298.855
300.186
300.075
300.042
299.931
299.862
299.764
299.641
299.519
299.379
299.239
299.086
298.969
298.815
298.719
299.986
299.869
299.874
299.781
299.707
299.614
299.495
299.384
299.25
299.116
298.962
298.831
298.653
298.562
299.782
299.696
299.69
299.622
299.553
299.474
299.344
299.228
299.089
298.951
298.794
298.65
298.478
298.354
299.504
299.498
299.521
299.463
299.398
299.336
299.224
299.122
298.992
298.863
298.706
298.539
298.319
298.074
303.174
303.003
302.925
302.801
302.703
302.588
302.479
302.359
302.239
302.113
302.01
301.903
301.844
301.773
303.034
302.886
302.792
302.664
302.564
302.448
302.336
302.215
302.097
301.974
301.866
301.755
301.691
301.622
302.914
302.786
302.682
302.553
302.448
302.329
302.216
302.097
301.981
301.864
301.758
301.653
301.583
301.511
302.783
302.676
302.565
302.441
302.332
302.213
302.099
301.981
301.865
301.75
301.645
301.541
301.463
301.385
302.639
302.549
302.438
302.321
302.215
302.099
301.986
301.868
301.753
301.639
301.533
301.432
301.35
301.272
302.485
302.403
302.301
302.189
302.088
301.977
301.865
301.749
301.635
301.521
301.414
301.315
301.231
301.153
302.315
302.234
302.15
302.043
301.949
301.844
301.735
301.622
301.509
301.396
301.29
301.192
301.106
301.029
302.144
302.056
301.992
301.888
301.8
301.701
301.595
301.485
301.372
301.259
301.152
301.056
300.966
300.889
301.958
301.873
301.82
301.721
301.636
301.543
301.44
301.333
301.222
301.112
301.007
300.916
300.823
300.752
301.783
301.693
301.65
301.558
301.473
301.385
301.283
301.178
301.066
300.956
300.848
300.756
300.653
300.582
301.605
301.513
301.476
301.394
301.307
301.222
301.117
301.012
300.901
300.792
300.684
300.596
300.492
300.428
301.427
301.332
301.317
301.248
301.159
301.074
300.967
300.862
300.749
300.637
300.522
300.419
300.296
300.239
301.25
301.195
301.158
301.102
301.016
300.932
300.815
300.701
300.581
300.464
300.346
300.235
300.124
300.025
301.022
301.014
301.005
300.952
300.872
300.797
300.686
300.58
300.461
300.343
300.216
300.076
299.919
299.732
304.814
304.663
304.579
304.465
304.367
304.265
304.17
304.078
303.993
303.913
303.848
303.787
303.753
303.717
304.63
304.506
304.418
304.308
304.212
304.112
304.019
303.928
303.846
303.768
303.701
303.636
303.591
303.537
304.471
304.364
304.273
304.168
304.072
303.975
303.886
303.8
303.722
303.648
303.582
303.518
303.465
303.408
304.305
304.214
304.124
304.024
303.931
303.837
303.75
303.667
303.592
303.521
303.455
303.389
303.328
303.264
304.14
304.06
303.976
303.881
303.792
303.702
303.617
303.537
303.464
303.395
303.329
303.264
303.2
303.137
303.973
303.898
303.823
303.734
303.649
303.562
303.479
303.4
303.327
303.258
303.194
303.13
303.067
303.006
303.806
303.731
303.67
303.586
303.505
303.42
303.337
303.259
303.186
303.118
303.055
302.995
302.936
302.881
303.643
303.566
303.517
303.438
303.359
303.275
303.191
303.111
303.037
302.969
302.907
302.852
302.798
302.751
303.484
303.41
303.365
303.29
303.211
303.127
303.041
302.96
302.883
302.815
302.754
302.705
302.656
302.619
303.339
303.267
303.224
303.149
303.067
302.981
302.891
302.806
302.726
302.655
302.594
302.547
302.499
302.474
303.194
303.128
303.083
303.011
302.925
302.836
302.741
302.651
302.567
302.496
302.436
302.392
302.344
302.331
303.076
303.009
302.964
302.893
302.8
302.705
302.602
302.506
302.415
302.338
302.273
302.222
302.169
302.161
302.937
302.901
302.839
302.772
302.677
302.578
302.464
302.36
302.263
302.183
302.116
302.063
302.014
301.982
302.821
302.779
302.732
302.664
302.566
302.467
302.351
302.246
302.144
302.057
301.977
301.905
301.834
301.77
306.21
306.119
306.048
305.962
305.884
305.806
305.736
305.672
305.62
305.577
305.552
305.533
305.533
305.516
306.034
305.949
305.878
305.797
305.72
305.644
305.575
305.514
305.465
305.426
305.401
305.381
305.369
305.343
305.865
305.793
305.719
305.64
305.565
305.492
305.428
305.373
305.33
305.296
305.273
305.253
305.235
305.2
305.702
305.634
305.563
305.485
305.411
305.339
305.277
305.224
305.183
305.153
305.13
305.109
305.084
305.043
305.545
305.481
305.413
305.338
305.264
305.193
305.131
305.08
305.041
305.013
304.991
304.97
304.942
304.9
305.392
305.33
305.267
305.193
305.118
305.046
304.982
304.93
304.891
304.863
304.841
304.821
304.793
304.755
305.246
305.184
305.125
305.052
304.977
304.902
304.836
304.782
304.741
304.713
304.692
304.673
304.65
304.621
305.108
305.045
304.989
304.916
304.837
304.76
304.69
304.633
304.588
304.558
304.537
304.522
304.504
304.486
304.979
304.916
304.86
304.785
304.703
304.622
304.547
304.485
304.437
304.405
304.383
304.372
304.36
304.355
304.864
304.799
304.739
304.661
304.574
304.487
304.407
304.34
304.288
304.253
304.231
304.222
304.213
304.221
304.758
304.694
304.629
304.545
304.451
304.359
304.273
304.2
304.143
304.106
304.083
304.076
304.07
304.09
304.668
304.602
304.531
304.441
304.34
304.241
304.148
304.07
304.007
303.966
303.94
303.934
303.926
303.949
304.57
304.511
304.438
304.345
304.239
304.135
304.034
303.949
303.882
303.838
303.81
303.803
303.795
303.811
304.508
304.422
304.352
304.259
304.15
304.044
303.941
303.853
303.781
303.73
303.693
303.674
303.656
303.673
307.291
307.243
307.18
307.118
307.06
307.005
306.957
306.915
306.883
306.861
306.854
306.852
306.873
306.865
307.141
307.086
307.023
306.96
306.901
306.845
306.797
306.757
306.727
306.708
306.701
306.703
306.718
306.716
306.985
306.938
306.871
306.807
306.746
306.692
306.646
306.611
306.586
306.572
306.569
306.572
306.585
306.579
306.842
306.789
306.724
306.658
306.597
306.543
306.497
306.463
306.439
306.428
306.426
306.429
306.437
306.431
306.704
306.65
306.585
306.518
306.456
306.4
306.355
306.322
306.301
306.291
306.291
306.295
306.3
306.294
306.573
306.513
306.449
306.381
306.317
306.26
306.213
306.18
306.158
306.15
306.15
306.155
306.158
306.156
306.452
306.386
306.322
306.251
306.185
306.125
306.077
306.042
306.021
306.013
306.014
306.021
306.026
306.028
306.338
306.267
306.2
306.126
306.056
305.994
305.942
305.906
305.883
305.876
305.877
305.886
305.894
305.904
306.236
306.158
306.087
306.009
305.934
305.868
305.813
305.775
305.751
305.744
305.745
305.758
305.769
305.789
306.146
306.06
305.983
305.899
305.819
305.748
305.69
305.65
305.624
305.617
305.619
305.634
305.648
305.678
306.066
305.973
305.889
305.799
305.712
305.637
305.575
305.532
305.505
305.498
305.499
305.517
305.535
305.576
305.999
305.9
305.807
305.71
305.618
305.538
305.472
305.426
305.396
305.388
305.388
305.408
305.429
305.478
305.935
305.831
305.736
305.634
305.537
305.453
305.383
305.334
305.301
305.29
305.291
305.312
305.335
305.387
305.889
305.761
305.669
305.567
305.469
305.385
305.314
305.263
305.227
305.213
305.21
305.228
305.242
305.306
308.05
308.021
307.967
307.923
307.882
307.846
307.815
307.79
307.773
307.761
307.761
307.764
307.785
307.779
307.922
307.886
307.832
307.786
307.742
307.705
307.672
307.647
307.628
307.617
307.616
307.621
307.641
307.643
307.788
307.755
307.697
307.649
307.604
307.566
307.535
307.511
307.495
307.486
307.488
307.493
307.515
307.515
307.662
307.623
307.566
307.517
307.472
307.434
307.403
307.38
307.365
307.357
307.357
307.362
307.38
307.384
307.543
307.498
307.441
307.391
307.345
307.308
307.277
307.256
307.242
307.236
307.237
307.241
307.256
307.261
307.427
307.375
307.319
307.267
307.221
307.184
307.155
307.135
307.122
307.117
307.118
307.122
307.133
307.14
307.32
307.26
307.203
307.149
307.103
307.066
307.037
307.019
307.008
307.004
307.006
307.011
307.02
307.029
307.22
307.151
307.092
307.035
306.988
306.951
306.923
306.907
306.896
306.895
306.897
306.905
306.913
306.925
307.128
307.051
306.988
306.928
306.879
306.841
306.814
306.799
306.79
306.792
306.796
306.807
306.815
306.833
307.045
306.96
306.893
306.829
306.776
306.737
306.709
306.696
306.689
306.694
306.699
306.714
306.726
306.75
306.972
306.879
306.806
306.738
306.682
306.641
306.611
306.599
306.594
306.602
306.61
306.63
306.646
306.677
306.908
306.809
306.731
306.657
306.597
306.553
306.523
306.51
306.506
306.516
306.526
306.551
306.57
306.61
306.849
306.748
306.665
306.588
306.524
306.479
306.446
306.433
306.43
306.442
306.455
306.484
306.506
306.551
306.799
306.68
306.603
306.525
306.462
306.416
306.383
306.367
306.364
306.376
306.388
306.418
306.438
306.499
308.519
308.505
308.469
308.444
308.42
308.403
308.39
308.38
308.377
308.378
308.388
308.396
308.417
308.413
308.413
308.396
308.36
308.332
308.307
308.288
308.273
308.262
308.258
308.256
308.263
308.271
308.29
308.29
308.308
308.291
308.251
308.223
308.196
308.176
308.161
308.15
308.145
308.142
308.148
308.154
308.174
308.174
308.205
308.182
308.144
308.114
308.088
308.069
308.053
308.043
308.037
308.033
308.037
308.041
308.057
308.059
308.108
308.08
308.041
308.011
307.985
307.966
307.951
307.941
307.935
307.931
307.934
307.936
307.949
307.952
308.011
307.976
307.939
307.909
307.884
307.866
307.853
307.845
307.839
307.836
307.837
307.838
307.845
307.849
307.92
307.879
307.842
307.811
307.787
307.771
307.759
307.753
307.748
307.746
307.746
307.747
307.751
307.755
307.833
307.786
307.749
307.718
307.695
307.68
307.67
307.665
307.662
307.662
307.663
307.664
307.664
307.667
307.751
307.699
307.661
307.629
307.606
307.593
307.584
307.583
307.582
307.585
307.586
307.59
307.587
307.591
307.676
307.619
307.58
307.547
307.524
307.511
307.504
307.504
307.506
307.512
307.514
307.52
307.518
307.525
307.605
307.545
307.505
307.47
307.447
307.434
307.428
307.431
307.435
307.445
307.45
307.459
307.459
307.469
307.542
307.479
307.438
307.401
307.377
307.363
307.358
307.362
307.367
307.379
307.387
307.401
307.404
307.42
307.482
307.422
307.377
307.339
307.313
307.299
307.294
307.301
307.308
307.324
307.335
307.353
307.362
307.38
307.424
307.357
307.317
307.28
307.255
307.241
307.237
307.243
307.251
307.268
307.281
307.303
307.312
307.34
308.787
308.792
308.785
308.781
308.779
308.782
308.788
308.796
308.81
308.824
308.845
308.861
308.884
308.887
308.708
308.713
308.704
308.7
308.697
308.699
308.703
308.711
308.723
308.736
308.755
308.769
308.79
308.793
308.635
308.638
308.628
308.622
308.618
308.619
308.622
308.627
308.638
308.648
308.666
308.678
308.699
308.701
308.559
308.559
308.549
308.542
308.538
308.538
308.541
308.546
308.556
308.565
308.579
308.589
308.607
308.61
308.49
308.485
308.474
308.467
308.462
308.462
308.464
308.468
308.476
308.483
308.495
308.502
308.517
308.52
308.418
308.408
308.398
308.391
308.387
308.387
308.388
308.393
308.399
308.405
308.414
308.42
308.43
308.434
308.349
308.336
308.326
308.319
308.315
308.315
308.317
308.321
308.326
308.331
308.337
308.342
308.348
308.352
308.283
308.267
308.256
308.249
308.246
308.247
308.248
308.253
308.257
308.261
308.265
308.269
308.271
308.274
308.218
308.199
308.189
308.182
308.18
308.181
308.183
308.188
308.192
308.198
308.2
308.204
308.201
308.203
308.157
308.137
308.128
308.121
308.118
308.12
308.122
308.127
308.131
308.136
308.138
308.142
308.136
308.135
308.096
308.077
308.068
308.061
308.059
308.061
308.063
308.069
308.074
308.081
308.083
308.086
308.078
308.076
308.038
308.02
308.013
308.006
308.004
308.005
308.007
308.014
308.018
308.025
308.027
308.03
308.022
308.021
307.981
307.969
307.958
307.952
307.949
307.952
307.954
307.962
307.968
307.976
307.979
307.982
307.976
307.971
307.92
307.91
307.905
307.901
307.899
307.902
307.904
307.911
307.917
307.924
307.928
307.931
307.927
307.917
308.949
308.962
308.975
308.99
309.007
309.025
309.045
309.066
309.089
309.111
309.136
309.156
309.178
309.187
308.893
308.908
308.921
308.937
308.954
308.973
308.994
309.016
309.039
309.062
309.087
309.107
309.128
309.137
308.846
308.861
308.874
308.889
308.906
308.924
308.945
308.966
308.989
309.011
309.036
309.055
309.077
309.085
308.795
308.809
308.823
308.839
308.856
308.875
308.895
308.916
308.94
308.961
308.985
309.003
309.023
309.031
308.75
308.763
308.776
308.791
308.808
308.827
308.847
308.867
308.889
308.91
308.931
308.948
308.966
308.974
308.702
308.714
308.727
308.743
308.759
308.777
308.797
308.816
308.837
308.856
308.875
308.89
308.905
308.912
308.654
308.665
308.679
308.694
308.71
308.728
308.746
308.764
308.783
308.8
308.815
308.828
308.838
308.845
308.607
308.618
308.631
308.646
308.661
308.678
308.694
308.71
308.726
308.74
308.751
308.761
308.766
308.773
308.56
308.569
308.582
308.596
308.61
308.626
308.64
308.655
308.667
308.679
308.686
308.694
308.696
308.703
308.512
308.521
308.534
308.548
308.561
308.575
308.586
308.599
308.607
308.616
308.62
308.625
308.625
308.631
308.465
308.473
308.485
308.498
308.51
308.522
308.531
308.541
308.547
308.554
308.556
308.56
308.556
308.559
308.416
308.425
308.437
308.449
308.46
308.47
308.477
308.485
308.488
308.493
308.493
308.494
308.487
308.485
308.366
308.377
308.388
308.399
308.408
308.417
308.423
308.429
308.432
308.434
308.433
308.431
308.422
308.415
308.309
308.328
308.341
308.351
308.358
308.365
308.369
308.373
308.374
308.374
308.372
308.367
308.358
308.336
309.029
309.045
309.061
309.078
309.097
309.116
309.136
309.157
309.179
309.201
309.223
309.243
309.262
309.272
308.989
309.006
309.024
309.042
309.062
309.082
309.104
309.126
309.15
309.173
309.196
309.215
309.234
309.246
308.956
308.974
308.992
309.011
309.031
309.052
309.074
309.096
309.121
309.143
309.167
309.187
309.207
309.218
308.921
308.94
308.959
308.979
308.999
309.021
309.044
309.068
309.092
309.116
309.14
309.159
309.179
309.191
308.889
308.909
308.928
308.948
308.969
308.992
309.015
309.039
309.064
309.087
309.11
309.13
309.149
309.161
308.857
308.877
308.896
308.917
308.938
308.961
308.985
309.008
309.033
309.056
309.079
309.098
309.116
309.128
308.824
308.844
308.864
308.885
308.906
308.929
308.952
308.976
309
309.022
309.044
309.062
309.078
309.09
308.791
308.811
308.831
308.851
308.872
308.894
308.917
308.94
308.962
308.984
309.003
309.02
309.033
309.044
308.755
308.775
308.795
308.815
308.835
308.857
308.878
308.9
308.921
308.941
308.958
308.974
308.984
308.994
308.718
308.738
308.757
308.777
308.797
308.817
308.836
308.856
308.874
308.893
308.906
308.921
308.928
308.938
308.68
308.698
308.717
308.736
308.754
308.772
308.79
308.808
308.823
308.839
308.85
308.862
308.867
308.877
308.637
308.654
308.673
308.691
308.707
308.724
308.74
308.756
308.768
308.782
308.79
308.799
308.801
308.809
308.592
308.608
308.625
308.641
308.657
308.672
308.684
308.697
308.708
308.719
308.724
308.73
308.73
308.734
308.539
308.56
308.576
308.59
308.603
308.615
308.626
308.636
308.644
308.651
308.655
308.656
308.655
308.651
309.045
309.06
309.072
309.086
309.102
309.119
309.136
309.154
309.173
309.191
309.211
309.228
309.245
309.255
309.011
309.024
309.038
309.054
309.072
309.09
309.109
309.128
309.148
309.168
309.188
309.206
309.223
309.233
308.981
308.995
309.01
309.027
309.045
309.064
309.084
309.104
309.124
309.144
309.165
309.183
309.201
309.212
308.95
308.966
308.982
309
309.019
309.039
309.06
309.08
309.102
309.123
309.144
309.162
309.181
309.192
308.923
308.939
308.955
308.974
308.993
309.014
309.035
309.057
309.079
309.101
309.122
309.141
309.159
309.171
308.896
308.912
308.929
308.947
308.967
308.988
309.01
309.033
309.056
309.077
309.099
309.117
309.135
309.148
308.868
308.883
308.901
308.92
308.94
308.961
308.984
309.007
309.03
309.052
309.073
309.092
309.109
309.122
308.839
308.854
308.871
308.89
308.911
308.932
308.955
308.978
309.001
309.023
309.044
309.063
309.079
309.093
308.808
308.823
308.84
308.858
308.879
308.901
308.923
308.946
308.969
308.991
309.011
309.031
309.046
309.06
308.775
308.79
308.806
308.824
308.844
308.865
308.888
308.911
308.933
308.955
308.975
308.995
309.009
309.023
308.74
308.754
308.77
308.787
308.806
308.827
308.849
308.871
308.892
308.914
308.933
308.952
308.965
308.98
308.7
308.714
308.729
308.746
308.765
308.785
308.805
308.827
308.848
308.869
308.886
308.904
308.916
308.93
308.658
308.67
308.685
308.701
308.719
308.739
308.758
308.779
308.799
308.819
308.836
308.854
308.866
308.88
308.609
308.623
308.637
308.654
308.67
308.688
308.707
308.726
308.744
308.764
308.781
308.799
308.811
308.821
309.03
309.039