/*--------------------------------*- C++ -*----------------------------------*\
| =========                 |                                                 |
| \\      /  F ield         | OpenFOAM: The Open Source CFD Toolbox           |
|  \\    /   O peration     | Version:  v2106                                 |
|   \\  /    A nd           | Website:  www.openfoam.com                      |
|    \\/     M anipulation  |                                                 |
\*---------------------------------------------------------------------------*/
FoamFile
{
    version     2.0;
    format      ascii;
    arch        "LSB;label=32;scalar=64";
    class       volVectorField;
    location    "0.000196";
    object      U;
}
// * * * * * * * * * * * * * * * * * * * * * * * * * * * * * * * * * * * * * //

dimensions      [0 1 -1 0 0 0 0];

internalField   nonuniform List<vector> 
18109
(
(5.31634 18.4178 -80.9147)
(4.62407 18.8091 -81.5545)
(4.00558 19.4168 -82.2409)
(3.37123 19.9772 -82.7928)
(2.81623 20.5336 -83.2302)
(2.33915 21.0848 -83.6271)
(2.03012 21.5907 -84.2531)
(5.19953 18.8598 -81.2293)
(4.57235 19.4071 -82.0132)
(4.03091 19.7922 -82.7687)
(3.50372 20.1816 -83.3028)
(3.05147 20.6129 -83.7115)
(2.64158 21.0533 -84.0188)
(2.35726 21.5012 -84.5063)
(5.12337 19.5492 -81.3738)
(4.48038 20.0561 -82.2304)
(3.95916 20.3056 -83.0114)
(3.45033 20.5663 -83.5634)
(3.06438 20.8808 -84.0436)
(2.69736 21.1837 -84.3921)
(2.41513 21.4667 -84.8128)
(4.95215 20.3046 -81.4417)
(4.36389 20.636 -82.356)
(3.91643 20.7098 -83.2089)
(3.44667 20.7929 -83.8349)
(3.09675 20.9597 -84.3648)
(2.78267 21.1498 -84.7408)
(2.5435 21.3655 -85.0938)
(4.73249 20.9581 -81.4462)
(4.23264 21.1075 -82.3821)
(3.87455 21.0518 -83.2957)
(3.45546 21.0267 -84.0136)
(3.13743 21.0895 -84.6159)
(2.86654 21.1864 -85.0544)
(2.65203 21.2981 -85.3906)
(4.51085 21.4305 -81.4422)
(4.10569 21.4562 -82.4111)
(3.80182 21.3021 -83.3562)
(3.4458 21.1968 -84.154)
(3.18346 21.1577 -84.8239)
(2.96748 21.1636 -85.3116)
(2.80256 21.2152 -85.6577)
(4.30037 21.7496 -81.4271)
(3.99267 21.6959 -82.4423)
(3.70239 21.4711 -83.3995)
(3.38196 21.2998 -84.2603)
(3.15426 21.1575 -84.9856)
(2.98557 21.0829 -85.5152)
(2.88267 21.0744 -85.8839)
(4.08308 21.931 -81.3565)
(3.85441 21.8158 -82.4578)
(3.5595 21.5237 -83.4431)
(3.28916 21.2955 -84.3449)
(3.07968 21.0907 -85.0826)
(2.95299 20.9591 -85.6319)
(2.89307 20.9129 -86.0201)
(4.05421 18.4763 -80.2152)
(3.32366 18.9369 -80.6968)
(2.66552 19.3823 -81.2298)
(2.0541 19.7843 -81.6403)
(1.53598 20.1268 -82.0925)
(1.11585 20.5448 -82.5178)
(0.89295 20.9769 -83.1447)
(0.774559 21.5734 -83.7322)
(0.830269 22.3504 -84.3051)
(1.03923 23.2581 -84.8656)
(1.55952 24.0625 -85.4388)
(2.07828 24.6167 -85.8312)
(2.50812 24.6958 -86.045)
(2.58309 24.6052 -86.1798)
(3.78616 19.1389 -80.4494)
(3.19392 19.7214 -81.0606)
(2.63824 19.9862 -81.6634)
(2.13856 20.2267 -82.0937)
(1.72716 20.4573 -82.5184)
(1.36991 20.7252 -82.8696)
(1.1623 21.044 -83.3664)
(1.00964 21.5189 -83.8544)
(1.04215 22.1058 -84.3951)
(1.18206 22.7809 -84.9081)
(1.53536 23.4105 -85.4064)
(1.83139 23.9999 -85.7783)
(2.16549 24.2716 -86.073)
(2.37628 24.2397 -86.2233)
(3.70355 20.0511 -80.5405)
(3.06835 20.4768 -81.2516)
(2.54576 20.5925 -81.8852)
(2.06359 20.6822 -82.3528)
(1.71053 20.818 -82.8227)
(1.39376 20.9843 -83.1727)
(1.19667 21.1804 -83.6109)
(1.05976 21.4465 -84.0537)
(1.07178 21.8164 -84.5143)
(1.18668 22.2966 -84.9818)
(1.42402 22.8063 -85.4746)
(1.66344 23.3245 -85.8984)
(1.96043 23.6409 -86.2191)
(2.21892 23.6849 -86.4053)
(3.52508 20.9417 -80.5647)
(2.95195 21.1491 -81.3523)
(2.50046 21.0927 -82.0765)
(2.05198 21.0258 -82.6292)
(1.72786 21.044 -83.1432)
(1.45309 21.0864 -83.5177)
(1.28995 21.1846 -83.9013)
(1.19681 21.3545 -84.2865)
(1.20663 21.5786 -84.7125)
(1.28461 21.8848 -85.1673)
(1.4473 22.2604 -85.6226)
(1.65078 22.6667 -86.0364)
(1.86505 22.9708 -86.3783)
(2.12654 23.0564 -86.637)
(3.26303 21.6305 -80.5603)
(2.80787 21.6649 -81.4001)
(2.46936 21.4862 -82.2126)
(2.06377 21.313 -82.8656)
(1.76563 21.2189 -83.4463)
(1.52604 21.1695 -83.8705)
(1.3719 21.172 -84.2318)
(1.30207 21.2173 -84.581)
(1.33138 21.3147 -84.9573)
(1.40507 21.5 -85.3815)
(1.53196 21.7641 -85.8192)
(1.69918 22.0724 -86.2266)
(1.84671 22.3268 -86.5809)
(2.05301 22.4047 -86.8792)
(3.01986 22.0877 -80.5922)
(2.67741 22.0195 -81.4518)
(2.41171 21.766 -82.3008)
(2.07279 21.5381 -83.0469)
(1.83924 21.3508 -83.7038)
(1.65038 21.2063 -84.1904)
(1.53168 21.118 -84.5609)
(1.49058 21.071 -84.8908)
(1.52886 21.0675 -85.2333)
(1.59511 21.1496 -85.6224)
(1.71088 21.3204 -86.0216)
(1.8524 21.5447 -86.4011)
(1.97978 21.7309 -86.7435)
(2.1187 21.8022 -87.0393)
(2.78019 22.3329 -80.6391)
(2.55002 22.2186 -81.5361)
(2.32544 21.9132 -82.3992)
(2.03772 21.6346 -83.2211)
(1.85711 21.3595 -83.9415)
(1.7187 21.1491 -84.4791)
(1.654 21.0053 -84.873)
(1.65341 20.8904 -85.1814)
(1.71202 20.831 -85.4911)
(1.77579 20.8429 -85.8415)
(1.87769 20.9337 -86.2032)
(1.98662 21.0835 -86.5652)
(2.08789 21.2173 -86.9075)
(2.16205 21.2897 -87.2057)
(2.51728 22.3708 -80.6546)
(2.39283 22.2324 -81.6162)
(2.22108 21.8989 -82.5178)
(2.01181 21.5746 -83.3852)
(1.87141 21.2488 -84.1281)
(1.77889 21.0006 -84.6884)
(1.75764 20.8292 -85.0911)
(1.79106 20.694 -85.3947)
(1.85877 20.6168 -85.6949)
(1.92768 20.5901 -86.019)
(2.01509 20.6294 -86.3593)
(2.09226 20.7153 -86.704)
(2.16962 20.8085 -87.0208)
(2.17946 20.873 -87.3298)
(2.25638 22.226 -80.7787)
(2.25317 22.0812 -81.7455)
(2.11647 21.7617 -82.657)
(1.98037 21.4171 -83.5304)
(1.85439 21.0587 -84.2562)
(1.78349 20.7833 -84.8114)
(1.76148 20.5977 -85.2084)
(1.80093 20.4606 -85.5118)
(1.86203 20.384 -85.815)
(1.93324 20.3395 -86.1245)
(2.00899 20.3519 -86.4527)
(2.07021 20.4116 -86.7887)
(2.04836 20.4969 -87.1349)
(1.98293 20.5937 -87.5067)
(1.98807 21.9196 -80.9734)
(2.09514 21.8055 -81.9078)
(2.0207 21.5163 -82.7854)
(1.97049 21.1794 -83.6094)
(1.87073 20.8251 -84.2837)
(1.82643 20.553 -84.822)
(1.78115 20.3765 -85.2222)
(1.77882 20.2617 -85.5458)
(1.77505 20.2003 -85.8595)
(1.81899 20.1507 -86.1908)
(1.85249 20.1523 -86.5627)
(1.86285 20.2327 -86.9475)
(1.7224 20.3683 -87.3031)
(1.58399 20.5581 -87.732)
(1.65789 21.5288 -81.2761)
(1.92323 21.4065 -82.1023)
(1.92348 21.1802 -82.9219)
(1.97856 20.87 -83.6704)
(1.94257 20.5498 -84.2969)
(1.94948 20.3184 -84.8072)
(1.88146 20.1723 -85.2016)
(1.83455 20.0873 -85.5487)
(1.73847 20.0347 -85.8585)
(1.70723 19.992 -86.2396)
(1.63974 20.0146 -86.6632)
(1.56277 20.1608 -87.0941)
(1.29626 20.3719 -87.417)
(1.07646 20.6448 -87.8702)
(1.24668 20.9079 -81.3509)
(1.61096 20.881 -82.1464)
(1.75254 20.7385 -82.9289)
(1.93731 20.4872 -83.5957)
(1.98225 20.2227 -84.1775)
(2.03522 20.0485 -84.6612)
(1.95465 19.9633 -85.0574)
(1.86877 19.9209 -85.4286)
(1.70228 19.8942 -85.758)
(1.57831 19.8692 -86.1954)
(1.40226 19.9264 -86.667)
(1.26094 20.1441 -87.149)
(0.954422 20.4577 -87.4713)
(0.71104 20.7878 -87.876)
(0.470832 20.6083 -81.471)
(1.01033 20.4619 -82.1628)
(1.36408 20.2508 -82.8614)
(1.78115 20.0366 -83.3769)
(1.98616 19.8612 -83.9107)
(2.10092 19.7678 -84.3914)
(2.03984 19.7345 -84.8253)
(1.92263 19.7088 -85.2417)
(1.6946 19.715 -85.6049)
(1.49441 19.7039 -86.0778)
(1.25341 19.7542 -86.5674)
(1.06779 20.0252 -87.0397)
(0.809525 20.4124 -87.396)
(0.603401 20.7997 -87.7307)
(0.00659134 19.7005 -81.3149)
(0.623794 19.5762 -82.047)
(1.01687 19.4007 -82.8086)
(1.55796 19.31 -83.2786)
(1.84414 19.2889 -83.7618)
(1.98883 19.3216 -84.1869)
(1.94691 19.4119 -84.5812)
(1.83242 19.4568 -85.0032)
(1.60637 19.5126 -85.4089)
(1.3949 19.528 -85.905)
(1.16466 19.5759 -86.4082)
(0.931215 19.8394 -86.8621)
(0.840251 20.1884 -87.3194)
(0.738554 20.5179 -87.5996)
(4.56577 17.8241 -80.6243)
(3.96846 17.3752 -79.8996)
(3.36247 16.561 -79.1274)
(2.03205 15.727 -78.3704)
(-0.335391 15.1334 -76.9512)
(-5.16706 16.3695 -75.3862)
(3.39541 17.7067 -79.8956)
(2.87935 17.084 -79.3803)
(2.48164 16.217 -78.9046)
(1.42495 15.388 -78.4548)
(-0.646471 14.9152 -77.2673)
(-5.11932 16.0604 -76.3123)
(2.89086 17.8898 -80.4847)
(2.17665 17.2683 -79.877)
(1.49012 16.299 -79.1621)
(-0.0227414 15.4146 -78.2687)
(-2.78392 14.917 -76.5386)
(-8.6501 15.5557 -75.3883)
(2.30108 18.3835 -80.9428)
(1.4729 17.7493 -80.2393)
(0.496137 16.8262 -79.3028)
(-1.46589 15.8892 -78.2359)
(-4.92529 15.3022 -76.1804)
(-12.0097 15.5331 -74.4199)
(1.7217 18.9005 -81.2782)
(0.814152 18.3088 -80.4779)
(-0.4172 17.433 -79.442)
(-2.72023 16.5661 -78.1834)
(-6.74572 15.9957 -75.8889)
(-14.8597 16.2233 -73.5153)
(1.18238 19.387 -81.6908)
(0.262877 18.9366 -80.7976)
(-1.20939 18.1362 -79.7359)
(-3.72354 17.4298 -78.241)
(-8.14766 16.8719 -75.7364)
(-17.1114 16.9367 -72.9472)
(0.787646 20.0277 -82.1021)
(-0.0596237 19.7898 -81.2322)
(-1.60497 19.2666 -80.1798)
(-4.16492 18.8333 -78.4641)
(-8.82817 18.4833 -75.8488)
(-18.6102 18.3094 -73.1988)
(0.604377 20.8084 -82.6652)
(-0.135253 20.8156 -81.9136)
(-1.59835 20.7107 -80.9006)
(-4.05114 20.6339 -79.1294)
(-8.73405 20.5842 -76.3919)
(-19.0798 20.2548 -73.6492)
(0.657305 21.7913 -83.2846)
(0.0237709 22.0967 -82.6496)
(-1.25375 22.4616 -81.7044)
(-3.61849 22.7273 -80.0558)
(-8.47983 22.7249 -77.346)
(-19.4746 21.5993 -74.6068)
(0.860116 22.8734 -84.0334)
(0.396926 23.5177 -83.4922)
(-0.596996 24.2425 -82.5731)
(-3.04803 24.637 -81.1984)
(-8.22826 24.1816 -78.5229)
(-19.6018 22.0389 -75.5789)
(1.15065 24.046 -84.6794)
(0.850602 24.9293 -84.1415)
(-0.0734951 25.7325 -83.2742)
(-2.62716 25.8251 -82.1243)
(-7.99969 24.8062 -79.568)
(-19.1479 21.6437 -76.5605)
(1.55668 25.0275 -85.2295)
(1.41387 25.8361 -84.616)
(0.496643 26.3898 -83.8156)
(-2.08511 26.0394 -82.8702)
(-7.58288 24.4006 -80.7779)
(-18.0769 20.1181 -77.505)
(2.04287 25.4453 -85.6583)
(2.06151 25.8176 -85.05)
(1.16935 26.1148 -84.2901)
(-1.48679 25.2415 -83.3746)
(-7.3023 22.9532 -81.4816)
(-16.9137 17.8138 -78.6447)
(2.43246 25.3294 -85.9177)
(2.48285 25.3263 -85.4921)
(1.66872 25.2116 -84.7672)
(-0.669787 23.6834 -83.8998)
(-6.02517 20.9832 -82.3158)
(-14.2288 15.1634 -79.4967)
(2.35593 24.8837 -86.0892)
(2.17235 24.4412 -85.7077)
(1.00587 23.8293 -84.7865)
(-1.36931 21.3251 -83.9)
(-6.10746 17.6322 -82.427)
(-12.2617 10.9245 -80.6202)
(2.58699 24.6801 -86.2673)
(2.30363 24.3211 -86.1805)
(1.80565 22.9954 -85.4753)
(0.148026 19.7443 -84.7475)
(-3.30406 14.7667 -83.1606)
(-8.37221 7.2559 -82.1646)
(2.52281 24.1714 -86.4682)
(2.65053 23.7235 -86.3712)
(2.47599 22.1901 -85.8425)
(1.76551 18.8259 -85.0413)
(-0.832284 13.3456 -83.5089)
(-4.83547 4.50811 -82.3388)
(2.36015 23.6111 -86.6545)
(2.46266 22.9789 -86.6995)
(2.34457 21.2326 -86.2116)
(2.06033 17.5394 -85.5408)
(0.0401385 11.5371 -83.9338)
(-2.86647 1.62002 -82.3853)
(2.33897 22.9499 -86.8509)
(2.45927 22.221 -87.0026)
(2.33132 20.3462 -86.5604)
(2.11278 16.4766 -85.9339)
(0.341534 10.098 -84.3239)
(-1.73115 -0.699101 -82.7391)
(2.2073 22.2879 -87.0939)
(2.26301 21.5221 -87.3022)
(2.02482 19.626 -86.9074)
(1.76861 15.7677 -86.3229)
(0.183354 9.24482 -84.8316)
(-1.1841 -2.21885 -83.4413)
(2.21111 21.676 -87.2742)
(2.16342 20.9493 -87.5142)
(1.71088 19.1804 -87.2184)
(1.2709 15.5264 -86.7166)
(-0.207548 9.01489 -85.7322)
(-1.12061 -2.86008 -84.4941)
(2.17359 21.187 -87.4877)
(2.02319 20.5842 -87.7791)
(1.3784 19.1192 -87.7014)
(0.811801 15.8244 -87.4278)
(-0.703793 9.44713 -86.9708)
(-1.28385 -2.72516 -85.3813)
(2.01984 20.8245 -87.6145)
(1.70159 20.4516 -88.0673)
(0.874951 19.3825 -88.2327)
(0.128626 16.4193 -88.3054)
(-1.33109 10.2216 -88.0627)
(-1.23383 -1.86826 -86.2212)
(1.67063 20.6855 -87.8475)
(1.13972 20.5951 -88.3284)
(0.17189 19.8218 -88.6748)
(-0.62512 17.1733 -89.0208)
(-1.65661 11.2264 -88.7618)
(-0.823117 -0.484162 -86.8902)
(1.10955 20.7219 -88.0649)
(0.43776 20.7811 -88.4872)
(-0.476181 20.1595 -88.89)
(-1.05631 17.8528 -89.3377)
(-1.5059 12.3996 -89.1532)
(0.148194 1.50058 -87.3953)
(0.535636 20.8007 -88.1865)
(-0.0222427 20.9823 -88.533)
(-0.668321 20.4807 -88.9572)
(-0.973311 18.5482 -89.406)
(-0.869982 13.7317 -89.2566)
(1.58067 3.96625 -87.5326)
(0.269961 20.8715 -88.1293)
(-0.0433947 20.9844 -88.4112)
(-0.444634 20.6391 -88.7748)
(-0.387918 19.0724 -89.0438)
(0.377355 14.8527 -88.9547)
(3.58773 6.42987 -87.2876)
(0.275264 20.8487 -87.9348)
(0.212646 20.8476 -88.1625)
(0.169873 20.5461 -88.3934)
(0.485901 19.2867 -88.5294)
(1.69917 15.8703 -88.5175)
(5.32897 8.87873 -86.9707)
(0.725411 20.486 -87.8165)
(0.745021 20.3981 -87.8367)
(0.834773 19.9487 -87.8592)
(1.46212 18.8623 -87.6415)
(3.0244 16.0452 -87.2082)
(7.2706 10.7951 -86.0283)
(0.601214 20.096 -87.5164)
(0.679188 20.0645 -87.2682)
(0.89698 19.5223 -87.0111)
(1.94124 18.9161 -86.3407)
(4.12429 16.6342 -86.0106)
(9.42041 12.9027 -85.8943)
(0.860441 19.7096 -87.3011)
(0.978403 19.6996 -87.0333)
(1.35284 19.2656 -86.5094)
(2.51206 19.0115 -85.4982)
(4.76504 17.129 -84.7744)
(10.4833 14.5381 -84.3988)
(0.893788 19.3765 -86.8309)
(1.07904 19.2841 -86.5059)
(1.64102 18.856 -85.8837)
(2.98373 18.5366 -84.8919)
(5.57827 17.0018 -84.0899)
(11.5411 15.2833 -83.2814)
(1.13991 19.0868 -86.3927)
(1.3677 18.8922 -86.0407)
(2.02455 18.4406 -85.4084)
(3.35103 18.005 -84.3338)
(5.96099 16.6249 -83.516)
(11.7335 15.2778 -82.5187)
(1.36125 19.0075 -85.878)
(1.58812 18.6212 -85.5497)
(2.25097 18.0375 -85.0304)
(3.47253 17.3553 -83.9987)
(5.95367 16.0549 -83.2668)
(11.4658 14.9265 -82.4298)
(1.52702 18.9984 -85.3467)
(1.69513 18.4565 -85.0513)
(2.22113 17.7291 -84.5762)
(3.3152 16.7991 -83.7507)
(5.44226 15.4774 -82.8231)
(10.4755 14.1904 -82.5588)
(1.65486 18.9605 -84.8597)
(1.70784 18.3194 -84.5864)
(1.97488 17.4754 -84.1538)
(2.8657 16.397 -83.6273)
(4.44497 14.9685 -82.5694)
(8.84665 13.3167 -82.5567)
(1.67786 18.9433 -84.3987)
(1.57509 18.2382 -84.1422)
(1.56671 17.3312 -83.7255)
(2.14673 16.145 -83.3812)
(3.13479 14.6442 -82.3734)
(6.8252 12.8896 -82.5712)
(1.62615 18.8618 -83.9617)
(1.35561 18.1212 -83.725)
(1.04155 17.2182 -83.3853)
(1.19371 15.9798 -83.1087)
(1.73363 14.4361 -82.3689)
(4.80499 12.9146 -82.8215)
(1.40986 18.7937 -83.4998)
(1.01357 17.9393 -83.3372)
(0.414028 17.0072 -83.0807)
(0.116133 15.7914 -82.8475)
(0.395816 14.4077 -82.3741)
(2.92443 13.3089 -82.9091)
(1.02013 18.79 -82.9411)
(0.474653 17.8563 -82.8235)
(-0.395452 16.9194 -82.6431)
(-1.009 15.8411 -82.6041)
(-0.905973 14.8356 -82.3434)
(1.07543 14.3243 -82.6877)
(0.359342 18.9641 -82.3277)
(-0.307962 18.0783 -82.1128)
(-1.34845 17.282 -81.9461)
(-2.08124 16.5659 -82.0105)
(-2.05396 16.1558 -81.8511)
(-0.73916 16.1385 -81.9532)
(-0.131348 19.405 -81.5131)
(-0.97159 18.7411 -81.182)
(-2.15537 18.3123 -81.0813)
(-2.95258 17.9657 -81.1103)
(-3.17362 18.0584 -81.0279)
(-2.44418 18.7764 -80.8451)
(-0.858519 19.5763 -81.019)
(-1.77292 19.3516 -80.4623)
(-2.87197 19.291 -80.187)
(-3.83537 19.3115 -79.9847)
(-4.43799 19.8836 -79.8917)
(-3.91539 21.4651 -79.1963)
(5.59422 19.6476 -80.5641)
(6.64994 19.0181 -79.977)
(7.50882 18.2267 -78.9303)
(8.52442 17.68 -78.1006)
(9.31279 18.105 -77.114)
(8.64175 21.2523 -75.8456)
(5.66004 18.691 -80.5392)
(6.49382 17.8591 -79.9528)
(7.02095 16.9941 -79.113)
(7.64794 16.559 -78.482)
(7.7712 16.9947 -77.366)
(6.33702 20.0766 -75.7269)
(5.40077 17.8922 -80.4619)
(5.83668 16.933 -79.9266)
(5.93765 16.0892 -79.2095)
(6.00316 15.6166 -78.5262)
(5.37653 15.8827 -77.4263)
(3.22403 18.79 -75.5162)
(5.34296 17.3987 -80.5264)
(4.9777 16.4902 -79.9911)
(4.62476 15.6051 -79.2192)
(3.98735 14.8224 -78.4179)
(2.56461 14.9185 -77.1866)
(-0.643685 17.3354 -75.4765)
(-0.52517 20.3353 -80.4751)
(-1.37287 20.2746 -79.7868)
(-2.21392 20.033 -79.1758)
(-3.19491 20.2908 -78.5856)
(-4.03902 21.3443 -77.9607)
(-3.82745 24.2662 -77.1798)
(0.136906 20.8399 -80.5788)
(-0.550828 20.9921 -79.789)
(-1.40068 20.9013 -79.0759)
(-2.42837 21.4793 -78.2968)
(-3.1754 22.9766 -76.9422)
(-3.28032 26.7257 -75.5202)
(0.916772 21.0082 -80.4145)
(0.292686 21.2937 -79.4508)
(-0.556907 21.4641 -78.3885)
(-1.68784 22.3648 -77.3814)
(-2.37069 24.1753 -75.5603)
(-2.57526 28.5034 -73.9283)
(1.45486 21.4974 -80.3126)
(0.917421 21.8802 -79.312)
(0.296901 22.174 -77.9749)
(-0.766627 23.2369 -76.7259)
(-1.345 25.0758 -74.5901)
(-1.68725 29.5364 -72.9174)
(1.88435 21.8331 -79.9498)
(1.44117 22.2661 -78.8746)
(0.992895 22.6351 -77.4255)
(0.142794 23.7999 -76.0791)
(-0.253679 25.4081 -73.8927)
(-0.540363 29.6268 -72.544)
(2.23249 22.1413 -79.7162)
(1.90742 22.6311 -78.6029)
(1.64594 22.9524 -77.099)
(1.10339 24.0129 -75.6373)
(0.941703 25.1175 -73.4483)
(0.972503 28.988 -72.3203)
(2.56339 22.272 -79.5701)
(2.46202 22.6681 -78.3883)
(2.44063 22.7956 -76.9059)
(2.21985 23.5301 -75.4218)
(2.44449 24.1263 -73.514)
(2.91136 27.5651 -72.4684)
(2.9039 22.1538 -79.6105)
(3.12159 22.3272 -78.4247)
(3.4206 22.2639 -77.0163)
(3.60924 22.6557 -75.4931)
(4.36493 22.8992 -73.9535)
(5.12486 25.9851 -73.0514)
(3.27256 21.7652 -79.6554)
(3.88396 21.6872 -78.6605)
(4.49917 21.4336 -77.388)
(5.11687 21.3657 -75.9656)
(6.19323 21.436 -74.8834)
(6.856 24.3375 -74.1287)
(3.71946 21.1611 -79.7153)
(4.60929 20.8118 -79.0028)
(5.41158 20.2566 -77.8801)
(6.33178 19.834 -76.6969)
(7.47609 20.0383 -75.8491)
(7.64827 22.8263 -74.9649)
(4.15217 20.3183 -79.797)
(5.16628 19.7147 -79.2838)
(6.02451 18.9139 -78.331)
(6.9761 18.3212 -77.5067)
(7.78144 18.6089 -76.7122)
(7.31524 21.2398 -75.5705)
(4.33473 19.2419 -79.8647)
(5.22047 18.4328 -79.4546)
(5.82588 17.5112 -78.7627)
(6.44877 16.9798 -78.265)
(6.64757 17.2002 -77.3025)
(5.47923 19.8273 -75.8427)
(4.1754 18.2076 -79.834)
(4.68225 17.2771 -79.5024)
(4.9177 16.3607 -78.9697)
(5.05164 15.8189 -78.5105)
(4.63863 15.8973 -77.6102)
(2.74878 18.4322 -76.1113)
(4.15444 17.5373 -79.8881)
(3.92876 16.5785 -79.5527)
(3.73985 15.6351 -79.0269)
(3.26433 14.8871 -78.4215)
(2.07568 14.9447 -77.3817)
(-0.874055 17.1541 -76.145)
(-21.9431 25.9049 -69.0813)
(-51.8458 39.497 -42.2604)
(-90.5687 59.8986 -3.83123)
(-137.17 89.3607 39.1331)
(-182.799 124.829 68.435)
(-27.608 23.2884 -67.1606)
(-60.5646 33.5031 -40.7266)
(-104.012 51.8969 -4.92911)
(-152.462 76.6644 36.134)
(-195.975 108.646 64.6621)
(-33.0765 21.0648 -65.3366)
(-69.1146 28.3366 -39.4503)
(-116.159 43.504 -4.91139)
(-164.969 61.4001 38.1951)
(-205.086 84.5409 66.2996)
(-38.2702 20.339 -63.6728)
(-78.3265 25.6046 -37.9981)
(-127.38 34.3534 -0.717043)
(-177.484 43.5509 40.0949)
(-219.98 58.5101 60.6189)
(-42.244 19.2834 -61.9007)
(-85.8056 22.0312 -36.0013)
(-138.224 26.4304 4.99156)
(-194.65 31.1731 44.9237)
(-241.006 40.0078 63.3737)
(-45.7525 18.9697 -62.1564)
(-91.4236 17.4867 -34.5992)
(-144.749 16.9056 10.7729)
(-204.925 18.9512 52.2567)
(-254.68 27.4602 70.8339)
(-47.8985 19.1635 -62.2779)
(-94.1553 14.0105 -30.7657)
(-145.97 8.58264 18.7318)
(-204.413 7.12909 59.5511)
(-249.199 11.7775 78.7979)
(-49.1191 18.0844 -62.4818)
(-93.7507 8.46166 -26.9165)
(-144.28 -1.1961 25.1624)
(-204.334 -9.58074 63.7089)
(-251.293 -10.5552 80.564)
(-268.915 -3.86375 83.8707)
(-49.5141 16.4545 -62.2299)
(-91.9479 3.20462 -21.6373)
(-142.896 -10.4236 31.6078)
(-203.339 -24.6988 69.6756)
(-252.103 -29.169 88.3833)
(-276.049 -24.5776 94.0898)
(-47.457 13.2837 -62.2581)
(-85.7169 -1.91548 -19.4903)
(-135.415 -19.4159 31.5449)
(-192.828 -36.1715 71.7324)
(-240.49 -43.127 95.5766)
(-266.293 -40.2983 105.296)
(-44.5643 9.19503 -63.056)
(-78.2771 -8.955 -20.8664)
(-123.798 -30.2294 26.937)
(-175.988 -49.6412 67.8498)
(-221.237 -62.0127 92.9917)
(-247.578 -61.639 105.881)
(-253.304 -49.1865 110.789)
(-40.2529 5.21033 -64.4012)
(-68.606 -15.2451 -25.1874)
(-107.93 -40.9716 18.5201)
(-154.069 -65.1537 61.1765)
(-195.818 -83.405 88.512)
(-220.709 -86.2788 100.976)
(-221.477 -80.9415 108.436)
(-211.68 -61.692 106.1)
(-35.0089 0.593565 -65.3147)
(-58.5696 -24.0871 -29.1593)
(-93.4043 -55.6673 6.63744)
(-131.276 -84.708 48.3824)
(-167.643 -107.433 76.0586)
(-188.27 -114.773 87.5973)
(-179.341 -114.305 93.8379)
(-174.46 -79.613 107.313)
(-29.4477 -4.77675 -66.3843)
(-48.4411 -33.5755 -33.2207)
(-79.5955 -70.6555 -3.42754)
(-109.286 -105.731 37.6595)
(-142.567 -137.852 64.6192)
(-167.479 -162.145 72.0513)
(-172.739 -161.322 73.3681)
(-153.401 -168.026 75.7271)
(-23.4164 -10.6494 -68.7512)
(-40.0017 -44.3614 -38.8518)
(-69.274 -86.6575 -10.5643)
(-94.5581 -128.499 31.9017)
(-128.44 -168.324 59.9831)
(-158.063 -201.588 68.4517)
(-173.733 -208.93 68.2677)
(-166.457 -201.439 63.8536)
(-17.8262 -16.5801 -70.2579)
(-31.9112 -54.5799 -44.3356)
(-57.6088 -98.5667 -14.9556)
(-78.9317 -141.397 28.6044)
(-110.728 -181.374 58.6817)
(-135.545 -214.315 72.1679)
(-161.325 -225.578 71.2341)
(-166.207 -217.577 70.7914)
(-13.1266 -21.6918 -70.5227)
(-24.2358 -63.1972 -48.8008)
(-45.6586 -108.494 -17.2775)
(-62.3985 -151.255 28.2844)
(-86.4095 -191.376 57.9704)
(-105.246 -217.843 66.6986)
(-129.562 -217.026 74.7193)
(-149.001 -200.476 77.5884)
(-9.88519 -26.1568 -71.4076)
(-18.5308 -70.9166 -52.6753)
(-33.4892 -117.14 -15.961)
(-43.6893 -161.569 30.9326)
(-59.319 -208.261 55.5487)
(-72.233 -242.452 59.957)
(-85.7076 -250.356 54.8332)
(-71.4254 -227.987 51.1019)
(-7.96298 -29.7783 -73.1805)
(-14.0616 -77.0085 -53.4637)
(-23.0348 -122.684 -7.3612)
(-30.3182 -175.919 39.5912)
(-41.1806 -231.693 61.0127)
(-53.3812 -271.059 61.6252)
(-65.4811 -286.386 52.7172)
(-66.2444 -274.066 43.5148)
(-6.38423 -32.0102 -75.2707)
(-9.10444 -79.5402 -51.0882)
(-13.284 -123.742 2.39782)
(-17.7917 -182.975 50.3386)
(-29.8084 -242.846 74.149)
(-38.6178 -280.927 77.1425)
(-55.3618 -299.711 66.0049)
(-67.9058 -292.844 58.3902)
(-4.99749 -32.8779 -76.8419)
(-3.83157 -78.2519 -45.8311)
(-4.11597 -121.5 11.2764)
(-1.85373 -180.245 57.109)
(-8.93588 -234.568 80.4951)
(-19.0562 -264.316 85.4831)
(-39.9046 -279.568 78.0849)
(-57.6575 -274.97 72.6125)
(-2.40959 -32.2794 -77.0337)
(3.08334 -75.7389 -39.5323)
(7.87602 -121.718 19.0387)
(18.9225 -182.526 62.9318)
(20.3346 -237.964 82.5023)
(17.2793 -269.624 81.7541)
(10.7036 -274.688 67.7734)
(1.64035 -262.594 53.1029)
(0.77539 -30.6508 -76.2787)
(10.4383 -72.2842 -34.0352)
(20.6882 -121.608 24.8088)
(36.9598 -184.68 68.6519)
(43.9342 -241.909 89.1614)
(44.2091 -279.467 89.4519)
(4.11648 -27.485 -75.4296)
(17.5772 -66.4819 -31.8798)
(31.0434 -115.471 27.3284)
(48.7239 -178.358 73.9331)
(57.8394 -235.958 100.005)
(57.5147 -274.217 106.261)
(8.00247 -22.9241 -75.2503)
(24.6298 -58.238 -33.899)
(40.06 -103.069 22.0357)
(60.1794 -161.545 67.2777)
(71.5666 -214.126 97.2687)
(72.3783 -250.772 107.442)
(12.3467 -17.6879 -75.6766)
(31.4543 -47.991 -37.71)
(50.2301 -88.108 12.7145)
(74.6372 -139.955 58.2393)
(90.815 -188.008 92.5362)
(95.7715 -221.684 102.999)
(16.7258 -12.1877 -76.267)
(37.8169 -37.2622 -41.528)
(60.4457 -72.4966 0.0920503)
(87.6625 -115.542 40.6776)
(108.033 -154.477 77.737)
(116.345 -182.241 91.4789)
(20.7314 -7.0218 -77.0263)
(43.7598 -27.1817 -44.7176)
(72.5318 -57.7833 -10.1315)
(105.068 -92.8266 27.5715)
(134.828 -126.32 64.5523)
(24.2091 -2.5614 -77.9356)
(49.6547 -19.4706 -48.3622)
(83.9863 -47.9271 -20.2001)
(121.885 -76.7942 19.0758)
(160.44 -111.028 56.5731)
(26.4183 1.32951 -77.5127)
(54.5646 -13.0133 -51.914)
(92.0404 -38.6531 -27.4148)
(130.452 -62.2421 14.3826)
(170.194 -95.1755 53.8048)
(27.7711 4.34771 -77.0727)
(58.0498 -7.76211 -56.597)
(96.506 -29.8999 -32.9138)
(133.65 -46.3359 11.603)
(173.704 -72.2145 50.4864)
(27.9351 6.49718 -77.0726)
(59.5621 -2.66183 -60.8892)
(99.1793 -21.5436 -36.2803)
(139.052 -30.2277 10.4361)
(189.151 -49.1252 46.9419)
(27.396 7.71426 -77.4296)
(59.7379 1.68448 -63.8131)
(101.068 -12.8424 -35.3551)
(146.157 -17.9692 17.0083)
(205.155 -31.7908 55.4511)
(26.3558 8.53189 -77.9166)
(59.1903 4.77939 -65.5992)
(99.8282 -4.13561 -30.4177)
(148.577 -8.1361 26.8031)
(214.018 -19.678 65.7764)
(24.6215 9.03361 -78.5393)
(57.2373 7.85854 -66.1377)
(94.2294 3.55275 -24.2239)
(144.378 3.27803 34.0217)
(208.487 -2.15379 73.0658)
(22.3857 10.2986 -79.3844)
(54.3929 12.0227 -65.0642)
(89.0937 12.3505 -18.4855)
(144.028 20.8924 37.9014)
(211.758 23.8964 74.8743)
(19.7071 12.4798 -80.1023)
(50.3692 16.52 -62.3242)
(85.1244 20.9612 -11.4876)
(143.157 36.6134 46.6579)
(213.208 45.1881 84.9416)
(16.8121 15.439 -80.6438)
(45.2116 22.1295 -59.7875)
(79.221 30.6893 -7.43214)
(137.064 48.9447 53.1174)
(208.218 60.7349 94.34)
(13.6273 18.4879 -80.108)
(38.736 28.2121 -57.6633)
(69.3837 40.6032 -6.92127)
(122.329 61.2584 51.6261)
(189.678 79.0916 93.0485)
(10.5421 22.3549 -78.9404)
(32.4811 36.1764 -56.8876)
(58.9509 52.1537 -9.91693)
(105.464 77.1908 44.0311)
(165.893 100.905 86.6044)
(7.71065 27.2305 -77.611)
(26.4619 44.7313 -55.9794)
(48.94 64.0918 -13.6428)
(86.6617 92.1397 33.6527)
(134.819 120.805 74.2546)
(5.09519 32.364 -75.9288)
(21.06 53.0646 -54.4097)
(41.4029 77.3713 -16.1122)
(72.3542 110.507 27.0526)
(111.061 145.542 65.7551)
(3.67776 37.1375 -73.7062)
(16.3125 59.8756 -52.2063)
(36.2716 89.3406 -19.2267)
(62.5718 127.042 23.2301)
(98.6763 168.869 62.7059)
(3.13375 40.5216 -70.929)
(12.1446 64.5001 -49.6028)
(30.7431 98.1562 -21.0982)
(51.9149 137.28 22.7513)
(86.0248 180.327 59.7117)
(2.74169 42.8298 -68.6549)
(8.85271 68.057 -48.5814)
(24.3144 103.851 -21.6497)
(38.9761 143.237 22.4394)
(63.4415 185.179 58.055)
(2.96742 43.9521 -67.0166)
(6.90693 71.2688 -48.5707)
(18.7955 109.461 -19.3398)
(26.0188 154.075 23.654)
(41.5801 202.928 54.3432)
(3.49992 43.9288 -66.1619)
(5.23124 73.4824 -48.3233)
(14.2768 114.458 -14.3714)
(15.6927 166.63 31.4918)
(26.8221 222.564 61.7098)
(4.4163 43.5666 -65.7818)
(3.96818 74.7775 -47.7452)
(6.6574 117.066 -8.79582)
(5.31488 174.786 38.636)
(15.1485 234.47 68.3635)
(4.99312 42.8105 -65.8119)
(2.52865 75.4671 -46.2735)
(-0.645132 117.508 -2.44529)
(-5.39376 174.995 46.013)
(-1.09464 230.587 75.5592)
(4.84072 41.6126 -66.2558)
(-0.497491 74.5804 -45.1713)
(-8.65415 115.149 1.74295)
(-19.692 174.36 48.7623)
(-22.0656 232.474 76.5968)
(4.32258 40.16 -66.947)
(-3.96118 72.6862 -43.4371)
(-15.7483 112.844 6.22001)
(-32.5433 173.03 53.927)
(-40.0173 232.235 84.2281)
(2.89787 38.1296 -67.5504)
(-7.80193 68.9047 -43.1117)
(-22.7499 106.607 5.56639)
(-42.4039 163.286 54.5817)
(-54.2608 221.032 88.5696)
(0.229723 36.0375 -68.1123)
(-13.3807 63.882 -43.3132)
(-32.1509 97.6639 3.21683)
(-55.6734 148.525 52.8786)
(-74.2032 204.604 87.2143)
(-3.94183 34.0163 -68.9803)
(-21.5533 58.0584 -43.624)
(-44.5915 87.2243 0.017755)
(-72.2991 130.467 48.8641)
(-97.4335 181.417 83.9086)
(-9.48725 31.5428 -69.6546)
(-31.7072 52.0919 -43.5332)
(-59.5221 76.9239 -2.57104)
(-92.5476 112.951 42.2405)
(-124.288 155.631 75.0434)
(-15.7267 28.8094 -69.7481)
(-42.1422 45.8304 -42.7068)
(-75.9316 68.6563 -3.49529)
(-115.803 99.2639 39.6705)
(-154.602 134.642 68.1856)
(2.47789 18.505 -79.7892)
(1.71699 19.1054 -80.0831)
(1.02793 19.4404 -80.3836)
(0.438486 19.7075 -80.5475)
(-0.046294 19.8327 -80.8769)
(-0.468899 19.975 -81.2202)
(-0.749885 20.2019 -81.737)
(-1.00837 20.5958 -82.2044)
(-1.10533 21.1773 -82.6834)
(-1.17877 21.9504 -83.1064)
(-0.943852 22.7426 -83.6522)
(-0.665293 23.4418 -84.044)
(-0.278018 23.7105 -84.2887)
(-0.172644 23.7257 -84.3839)
(2.05796 19.425 -79.9248)
(1.44558 19.9518 -80.2328)
(0.865846 20.162 -80.5475)
(0.379639 20.2756 -80.6891)
(-0.00247821 20.287 -81.0434)
(-0.337616 20.2897 -81.4131)
(-0.563772 20.4188 -81.9002)
(-0.798208 20.6956 -82.3535)
(-0.885039 21.126 -82.8355)
(-0.961016 21.7124 -83.2331)
(-0.816339 22.3146 -83.68)
(-0.736974 22.9385 -83.943)
(-0.510942 23.2996 -84.2628)
(-0.488438 23.471 -84.4827)
(1.9152 20.4647 -79.9183)
(1.26223 20.7316 -80.2594)
(0.72922 20.7816 -80.575)
(0.275617 20.7252 -80.7522)
(-0.0559352 20.6378 -81.168)
(-0.34394 20.5241 -81.5871)
(-0.539241 20.5598 -82.0967)
(-0.732087 20.6812 -82.5769)
(-0.827297 20.9379 -83.0375)
(-0.908875 21.3511 -83.4153)
(-0.855376 21.828 -83.8445)
(-0.813247 22.3666 -84.1383)
(-0.669982 22.7644 -84.4756)
(-0.612683 22.9908 -84.7251)
(1.62844 21.2999 -79.7606)
(1.09626 21.3628 -80.1833)
(0.665415 21.2614 -80.5819)
(0.262737 21.0752 -80.8684)
(-0.0483289 20.8936 -81.3198)
(-0.307184 20.684 -81.7583)
(-0.466377 20.6234 -82.2903)
(-0.593127 20.6331 -82.7947)
(-0.666349 20.7951 -83.2722)
(-0.759213 21.0683 -83.6925)
(-0.777316 21.4085 -84.1201)
(-0.772771 21.838 -84.4429)
(-0.751737 22.2071 -84.7687)
(-0.659223 22.4166 -85.0165)
(1.27277 21.8328 -79.6337)
(0.927096 21.7812 -80.1291)
(0.656483 21.5792 -80.6021)
(0.310716 21.3384 -81.0018)
(0.00941068 21.0754 -81.4932)
(-0.242897 20.7588 -81.9632)
(-0.409754 20.5793 -82.5153)
(-0.50498 20.4814 -83.0367)
(-0.567988 20.5571 -83.5342)
(-0.632121 20.7312 -83.9894)
(-0.669366 20.9955 -84.4223)
(-0.693239 21.3489 -84.7826)
(-0.727161 21.6593 -85.1104)
(-0.669457 21.8233 -85.3792)
(0.940962 22.0797 -79.5535)
(0.761631 21.9814 -80.0928)
(0.60007 21.7485 -80.6245)
(0.328001 21.5166 -81.1239)
(0.106593 21.1926 -81.6559)
(-0.114194 20.7982 -82.1555)
(-0.257336 20.5117 -82.7287)
(-0.329636 20.3305 -83.276)
(-0.382413 20.3294 -83.7973)
(-0.428675 20.3965 -84.2566)
(-0.473631 20.5852 -84.6614)
(-0.506001 20.8541 -85.0073)
(-0.545624 21.0941 -85.3192)
(-0.507966 21.2071 -85.6027)
(0.635602 22.031 -79.548)
(0.599346 21.979 -80.1275)
(0.532274 21.7822 -80.6868)
(0.358617 21.5538 -81.2495)
(0.227055 21.165 -81.7907)
(0.0479136 20.7055 -82.3083)
(-0.0821623 20.3361 -82.8931)
(-0.176497 20.0918 -83.4674)
(-0.241236 20.0388 -84.0217)
(-0.288563 20.0371 -84.493)
(-0.350506 20.1769 -84.897)
(-0.393608 20.3698 -85.2504)
(-0.432075 20.5487 -85.565)
(-0.410892 20.6321 -85.8909)
(0.31682 21.8541 -79.608)
(0.406809 21.8368 -80.2228)
(0.469267 21.6681 -80.8012)
(0.416902 21.4339 -81.3859)
(0.387818 21.0347 -81.9267)
(0.256205 20.5715 -82.4501)
(0.129654 20.1726 -83.0331)
(0.0111344 19.8985 -83.6319)
(-0.0733993 19.7897 -84.2034)
(-0.112901 19.7287 -84.6729)
(-0.179189 19.816 -85.0712)
(-0.211773 19.9326 -85.4331)
(-0.258504 20.0501 -85.7544)
(-0.247437 20.1027 -86.0849)
(0.0158063 21.5447 -79.7663)
(0.243879 21.5562 -80.3644)
(0.412231 21.4232 -80.948)
(0.468564 21.1829 -81.539)
(0.500496 20.7886 -82.076)
(0.401982 20.3486 -82.5991)
(0.247057 19.957 -83.1558)
(0.0954326 19.6715 -83.741)
(-0.023355 19.5183 -84.3031)
(-0.0678033 19.4166 -84.7862)
(-0.15295 19.4572 -85.215)
(-0.169851 19.524 -85.6235)
(-0.263915 19.6 -85.981)
(-0.282938 19.6466 -86.3704)