/*--------------------------------*- C++ -*----------------------------------*\
| =========                 |                                                 |
| \\      /  F ield         | OpenFOAM: The Open Source CFD Toolbox           |
|  \\    /   O peration     | Version:  v2106                                 |
|   \\  /    A nd           | Website:  www.openfoam.com                      |
|    \\/     M anipulation  |                                                 |
\*---------------------------------------------------------------------------*/
FoamFile
{
    version     2.0;
    format      ascii;
    arch        "LSB;label=32;scalar=64";
    class       volVectorField;
    location    "0.000144";
    object      U;
}
// * * * * * * * * * * * * * * * * * * * * * * * * * * * * * * * * * * * * * //

dimensions      [0 1 -1 0 0 0 0];

internalField   nonuniform List<vector> 
18265
(
(5.38431e-05 5.38439e-05 -0.00659177)
(4.40581e-05 5.20621e-05 -0.00658973)
(3.57433e-05 5.34578e-05 -0.00658628)
(2.75113e-05 5.25254e-05 -0.00658362)
(1.94709e-05 5.23979e-05 -0.00658188)
(1.16571e-05 5.19913e-05 -0.00658088)
(3.74253e-06 5.17575e-05 -0.00658062)
(-3.74435e-06 5.17579e-05 -0.00658062)
(-1.16592e-05 5.19919e-05 -0.00658088)
(-1.94734e-05 5.23983e-05 -0.00658188)
(-2.75146e-05 5.2526e-05 -0.00658362)
(-3.57478e-05 5.34587e-05 -0.00658628)
(-4.40634e-05 5.20653e-05 -0.00658972)
(-5.38498e-05 5.38492e-05 -0.00659177)
(5.20616e-05 4.40593e-05 -0.00658973)
(4.35385e-05 4.35395e-05 -0.00658782)
(3.60404e-05 4.43912e-05 -0.00658419)
(2.81996e-05 4.38586e-05 -0.00658144)
(2.02228e-05 4.38499e-05 -0.00657923)
(1.22102e-05 4.3714e-05 -0.00657755)
(3.93127e-06 4.36704e-05 -0.00657696)
(-3.93314e-06 4.36709e-05 -0.00657696)
(-1.22125e-05 4.37144e-05 -0.00657755)
(-2.02256e-05 4.38507e-05 -0.00657923)
(-2.82035e-05 4.38594e-05 -0.00658144)
(-3.60456e-05 4.43927e-05 -0.00658419)
(-4.35437e-05 4.35422e-05 -0.00658782)
(-5.20667e-05 4.4063e-05 -0.00658972)
(5.34568e-05 3.57445e-05 -0.00658628)
(4.43899e-05 3.60417e-05 -0.00658419)
(3.6631e-05 3.66323e-05 -0.00658014)
(2.84088e-05 3.62159e-05 -0.0065777)
(2.02708e-05 3.6115e-05 -0.00657563)
(1.21565e-05 3.58881e-05 -0.00657423)
(3.9011e-06 3.58309e-05 -0.00657374)
(-3.90265e-06 3.58315e-05 -0.00657373)
(-1.21583e-05 3.58885e-05 -0.00657423)
(-2.02733e-05 3.61159e-05 -0.00657563)
(-2.84121e-05 3.62171e-05 -0.0065777)
(-3.66357e-05 3.66342e-05 -0.00658014)
(-4.43955e-05 3.60439e-05 -0.00658419)
(-5.34637e-05 3.57458e-05 -0.00658628)
(5.25246e-05 2.75124e-05 -0.00658362)
(4.38574e-05 2.82008e-05 -0.00658144)
(3.62145e-05 2.841e-05 -0.0065777)
(2.81916e-05 2.8193e-05 -0.00657532)
(2.01815e-05 2.80788e-05 -0.00657333)
(1.21303e-05 2.79131e-05 -0.00657194)
(3.89673e-06 2.78751e-05 -0.00657144)
(-3.89823e-06 2.78757e-05 -0.00657143)
(-1.2132e-05 2.79135e-05 -0.00657194)
(-2.01839e-05 2.80798e-05 -0.00657333)
(-2.81949e-05 2.81944e-05 -0.00657532)
(-3.62189e-05 2.84122e-05 -0.0065777)
(-4.38623e-05 2.82033e-05 -0.00658144)
(-5.25312e-05 2.75133e-05 -0.00658362)
(5.23971e-05 1.94719e-05 -0.00658188)
(4.38489e-05 2.02239e-05 -0.00657923)
(3.61138e-05 2.0272e-05 -0.00657563)
(2.80775e-05 2.01827e-05 -0.00657333)
(2.00894e-05 2.00906e-05 -0.00657138)
(1.20648e-05 1.99714e-05 -0.00657005)
(3.8746e-06 1.99445e-05 -0.00656955)
(-3.87553e-06 1.99449e-05 -0.00656955)
(-1.20657e-05 1.99717e-05 -0.00657005)
(-2.00906e-05 2.00913e-05 -0.00657138)
(-2.80788e-05 2.01837e-05 -0.00657333)
(-3.6115e-05 2.02733e-05 -0.00657562)
(-4.38494e-05 2.02251e-05 -0.00657923)
(-5.23965e-05 1.94724e-05 -0.00658187)
(5.19906e-05 1.16581e-05 -0.00658088)
(4.37129e-05 1.22113e-05 -0.00657755)
(3.58868e-05 1.21576e-05 -0.00657423)
(2.79117e-05 1.21313e-05 -0.00657194)
(1.99702e-05 1.20658e-05 -0.00657005)
(1.1996e-05 1.19969e-05 -0.00656871)
(3.85291e-06 1.19801e-05 -0.00656822)
(-3.85374e-06 1.19805e-05 -0.00656822)
(-1.1997e-05 1.19972e-05 -0.00656871)
(-1.99718e-05 1.20662e-05 -0.00657004)
(-2.7914e-05 1.2132e-05 -0.00657193)
(-3.58901e-05 1.21585e-05 -0.00657423)
(-4.37169e-05 1.2212e-05 -0.00657755)
(-5.1997e-05 1.16588e-05 -0.00658088)
(5.17567e-05 3.74337e-06 -0.00658062)
(4.36693e-05 3.93205e-06 -0.00657696)
(3.58296e-05 3.90185e-06 -0.00657374)
(2.78738e-05 3.89736e-06 -0.00657144)
(1.99433e-05 3.87518e-06 -0.00656955)
(1.19792e-05 3.85334e-06 -0.00656822)
(3.84759e-06 3.84806e-06 -0.00656773)
(-3.84842e-06 3.84836e-06 -0.00656773)
(-1.19801e-05 3.85354e-06 -0.00656822)
(-1.99446e-05 3.87547e-06 -0.00656955)
(-2.78755e-05 3.89791e-06 -0.00657143)
(-3.58318e-05 3.90254e-06 -0.00657373)
(-4.36717e-05 3.93296e-06 -0.00657695)
(-5.17611e-05 3.74449e-06 -0.00658062)
(5.1757e-05 -3.7432e-06 -0.00658062)
(4.36696e-05 -3.93206e-06 -0.00657696)
(3.58299e-05 -3.90156e-06 -0.00657374)
(2.78741e-05 -3.89721e-06 -0.00657144)
(1.99435e-05 -3.87451e-06 -0.00656955)
(1.19793e-05 -3.85291e-06 -0.00656822)
(3.84769e-06 -3.84756e-06 -0.00656773)
(-3.84825e-06 -3.84738e-06 -0.00656773)
(-1.19799e-05 -3.853e-06 -0.00656822)
(-1.99444e-05 -3.87461e-06 -0.00656955)
(-2.78751e-05 -3.89717e-06 -0.00657143)
(-3.58312e-05 -3.90132e-06 -0.00657373)
(-4.36707e-05 -3.9312e-06 -0.00657695)
(-5.17596e-05 -3.74189e-06 -0.00658062)
(5.19908e-05 -1.16583e-05 -0.00658088)
(4.37131e-05 -1.22116e-05 -0.00657755)
(3.5887e-05 -1.21576e-05 -0.00657423)
(2.7912e-05 -1.21313e-05 -0.00657194)
(1.99702e-05 -1.20652e-05 -0.00657005)
(1.19959e-05 -1.19966e-05 -0.00656871)
(3.8527e-06 -1.19797e-05 -0.00656822)
(-3.85377e-06 -1.19796e-05 -0.00656822)
(-1.19971e-05 -1.19968e-05 -0.00656871)
(-1.99717e-05 -1.20654e-05 -0.00657005)
(-2.79138e-05 -1.21315e-05 -0.00657193)
(-3.58895e-05 -1.21575e-05 -0.00657423)
(-4.3716e-05 -1.22107e-05 -0.00657755)
(-5.19958e-05 -1.16568e-05 -0.00658088)
(5.23974e-05 -1.94724e-05 -0.00658188)
(4.38493e-05 -2.02248e-05 -0.00657923)
(3.61143e-05 -2.02724e-05 -0.00657563)
(2.80782e-05 -2.01831e-05 -0.00657333)
(2.00898e-05 -2.009e-05 -0.00657138)
(1.2065e-05 -1.99712e-05 -0.00657005)
(3.87458e-06 -1.99442e-05 -0.00656955)
(-3.87531e-06 -1.9944e-05 -0.00656955)
(-1.20657e-05 -1.99714e-05 -0.00657005)
(-2.00904e-05 -2.00902e-05 -0.00657138)
(-2.80787e-05 -2.01834e-05 -0.00657333)
(-3.61143e-05 -2.02726e-05 -0.00657563)
(-4.38481e-05 -2.02242e-05 -0.00657923)
(-5.23945e-05 -1.94705e-05 -0.00658187)
(5.25247e-05 -2.75134e-05 -0.00658362)
(4.38579e-05 -2.82025e-05 -0.00658144)
(3.62154e-05 -2.84111e-05 -0.0065777)
(2.81927e-05 -2.8194e-05 -0.00657532)
(2.0182e-05 -2.80781e-05 -0.00657333)
(1.21306e-05 -2.79133e-05 -0.00657194)
(3.89673e-06 -2.78749e-05 -0.00657144)
(-3.89793e-06 -2.78748e-05 -0.00657144)
(-1.21318e-05 -2.79135e-05 -0.00657194)
(-2.01836e-05 -2.80783e-05 -0.00657333)
(-2.81947e-05 -2.81943e-05 -0.00657532)
(-3.62181e-05 -2.84118e-05 -0.0065777)
(-4.38608e-05 -2.82029e-05 -0.00658144)
(-5.25293e-05 -2.75117e-05 -0.00658362)
(5.34576e-05 -3.57463e-05 -0.00658628)
(4.43913e-05 -3.60445e-05 -0.00658419)
(3.66324e-05 -3.66344e-05 -0.00658014)
(2.84103e-05 -3.62178e-05 -0.0065777)
(2.02716e-05 -3.61139e-05 -0.00657563)
(1.2157e-05 -3.5889e-05 -0.00657423)
(3.90121e-06 -3.58308e-05 -0.00657374)
(-3.90216e-06 -3.58307e-05 -0.00657373)
(-1.21579e-05 -3.5889e-05 -0.00657423)
(-2.02729e-05 -3.61138e-05 -0.00657563)
(-2.84121e-05 -3.62175e-05 -0.0065777)
(-3.66349e-05 -3.66345e-05 -0.00658014)
(-4.43938e-05 -3.60443e-05 -0.00658419)
(-5.34611e-05 -3.57448e-05 -0.00658628)
(5.20633e-05 -4.40618e-05 -0.00658973)
(4.35403e-05 -4.35427e-05 -0.00658782)
(3.6042e-05 -4.43939e-05 -0.00658419)
(2.82013e-05 -4.3861e-05 -0.00658144)
(2.02233e-05 -4.38479e-05 -0.00657923)
(1.22103e-05 -4.37154e-05 -0.00657755)
(3.93129e-06 -4.36701e-05 -0.00657696)
(-3.93229e-06 -4.36701e-05 -0.00657696)
(-1.22112e-05 -4.37151e-05 -0.00657755)
(-2.02245e-05 -4.38474e-05 -0.00657923)
(-2.82032e-05 -4.38598e-05 -0.00658144)
(-3.6045e-05 -4.43931e-05 -0.00658419)
(-4.35434e-05 -4.35419e-05 -0.00658782)
(-5.20668e-05 -4.40621e-05 -0.00658973)
(5.38477e-05 -5.3848e-05 -0.00659177)
(4.40615e-05 -5.20656e-05 -0.00658973)
(3.57439e-05 -5.34617e-05 -0.00658628)
(2.75114e-05 -5.25296e-05 -0.00658362)
(1.94705e-05 -5.23944e-05 -0.00658188)
(1.16571e-05 -5.1995e-05 -0.00658088)
(3.74268e-06 -5.17586e-05 -0.00658062)
(-3.74325e-06 -5.1759e-05 -0.00658062)
(-1.16574e-05 -5.19946e-05 -0.00658088)
(-1.94709e-05 -5.23937e-05 -0.00658188)
(-2.75121e-05 -5.25278e-05 -0.00658362)
(-3.57453e-05 -5.34602e-05 -0.00658628)
(-4.40629e-05 -5.20645e-05 -0.00658973)
(-5.38506e-05 -5.38493e-05 -0.00659177)
(6.91782e-05 6.91799e-05 -0.00846639)
(5.67258e-05 6.69144e-05 -0.00846397)
(4.60146e-05 6.87016e-05 -0.00845983)
(3.5425e-05 6.75273e-05 -0.00845661)
(2.50765e-05 6.73524e-05 -0.00845454)
(1.50159e-05 6.68677e-05 -0.00845336)
(4.83379e-06 6.65758e-05 -0.00845306)
(-4.83192e-06 6.65759e-05 -0.00845306)
(-1.50149e-05 6.68684e-05 -0.00845336)
(-2.5076e-05 6.73542e-05 -0.00845454)
(-3.54251e-05 6.75293e-05 -0.00845661)
(-4.60153e-05 6.87043e-05 -0.00845982)
(-5.67276e-05 6.69162e-05 -0.00846397)
(-6.91796e-05 6.91801e-05 -0.00846639)
(6.69126e-05 5.67271e-05 -0.00846397)
(5.60342e-05 5.60357e-05 -0.00846172)
(4.63462e-05 5.71378e-05 -0.00845736)
(3.62684e-05 5.64454e-05 -0.00845405)
(2.60039e-05 5.64143e-05 -0.00845141)
(1.56987e-05 5.62421e-05 -0.00844938)
(5.0672e-06 5.61782e-05 -0.00844867)
(-5.06492e-06 5.61789e-05 -0.00844867)
(-1.5697e-05 5.62429e-05 -0.00844938)
(-2.60025e-05 5.64158e-05 -0.00845141)
(-3.62674e-05 5.64473e-05 -0.00845404)
(-4.63455e-05 5.71404e-05 -0.00845735)
(-5.60348e-05 5.60377e-05 -0.00846171)
(-6.69143e-05 5.67281e-05 -0.00846397)
(6.86996e-05 4.60155e-05 -0.00845983)
(5.71364e-05 4.63473e-05 -0.00845736)
(4.71179e-05 4.71189e-05 -0.00845245)
(3.65571e-05 4.65796e-05 -0.00844953)
(2.60837e-05 4.64527e-05 -0.00844705)
(1.56454e-05 4.6174e-05 -0.00844536)
(5.0341e-06 4.60989e-05 -0.00844477)
(-5.03136e-06 4.60996e-05 -0.00844477)
(-1.56429e-05 4.61746e-05 -0.00844536)
(-2.60814e-05 4.64536e-05 -0.00844704)
(-3.6555e-05 4.65807e-05 -0.00844952)
(-4.71158e-05 4.71202e-05 -0.00845245)
(-5.71349e-05 4.63486e-05 -0.00845735)
(-6.86982e-05 4.60196e-05 -0.00845982)
(6.75249e-05 3.54255e-05 -0.00845661)
(5.64436e-05 3.6269e-05 -0.00845405)
(4.65785e-05 3.65576e-05 -0.00844953)
(3.62648e-05 3.62653e-05 -0.00844667)
(2.59563e-05 3.6124e-05 -0.0084443)
(1.56029e-05 3.5915e-05 -0.00844262)
(5.02576e-06 3.5864e-05 -0.00844203)
(-5.02277e-06 3.58646e-05 -0.00844202)
(-1.56001e-05 3.59154e-05 -0.00844262)
(-2.59542e-05 3.61246e-05 -0.00844429)
(-3.62634e-05 3.62658e-05 -0.00844667)
(-4.65781e-05 3.65583e-05 -0.00844952)
(-5.64446e-05 3.62694e-05 -0.00845404)
(-6.7527e-05 3.54302e-05 -0.00845661)
(6.73506e-05 2.50768e-05 -0.00845454)
(5.64128e-05 2.6004e-05 -0.00845142)
(4.64516e-05 2.60838e-05 -0.00844705)
(3.61234e-05 2.59563e-05 -0.0084443)
(2.58458e-05 2.58457e-05 -0.00844197)
(1.55248e-05 2.56951e-05 -0.00844036)
(4.99931e-06 2.56598e-05 -0.00843977)
(-4.99634e-06 2.56604e-05 -0.00843977)
(-1.55222e-05 2.56954e-05 -0.00844036)
(-2.58441e-05 2.58463e-05 -0.00844197)
(-3.61231e-05 2.5957e-05 -0.00844429)
(-4.64532e-05 2.60848e-05 -0.00844704)
(-5.64167e-05 2.60054e-05 -0.00845141)
(-6.73587e-05 2.50803e-05 -0.00845453)
(6.68654e-05 1.5016e-05 -0.00845336)
(5.62403e-05 1.56986e-05 -0.00844938)
(4.61727e-05 1.56452e-05 -0.00844536)
(3.59144e-05 1.56025e-05 -0.00844262)
(2.56951e-05 1.55243e-05 -0.00844036)
(1.54372e-05 1.54366e-05 -0.00843876)
(4.97181e-06 1.54147e-05 -0.00843818)
(-4.96805e-06 1.54151e-05 -0.00843818)
(-1.54336e-05 1.54368e-05 -0.00843876)
(-2.56921e-05 1.55247e-05 -0.00844036)
(-3.59119e-05 1.5603e-05 -0.00844262)
(-4.61708e-05 1.5646e-05 -0.00844536)
(-5.62386e-05 1.57e-05 -0.00844938)
(-6.68641e-05 1.50179e-05 -0.00845335)
(6.65732e-05 4.83273e-06 -0.00845306)
(5.61763e-05 5.06604e-06 -0.00844867)
(4.60977e-05 5.03298e-06 -0.00844477)
(3.58634e-05 5.02453e-06 -0.00844203)
(2.56599e-05 4.99801e-06 -0.00843978)
(1.54153e-05 4.97029e-06 -0.00843818)
(4.96483e-06 4.96335e-06 -0.00843759)
(-4.96147e-06 4.96373e-06 -0.00843759)
(-1.54123e-05 4.97043e-06 -0.00843817)
(-2.56576e-05 4.99823e-06 -0.00843977)
(-3.58621e-05 5.02489e-06 -0.00844202)
(-4.60977e-05 5.0335e-06 -0.00844477)
(-5.61775e-05 5.06697e-06 -0.00844867)
(-6.65755e-05 4.83385e-06 -0.00845305)
(6.65736e-05 -4.83242e-06 -0.00845306)
(5.61767e-05 -5.06552e-06 -0.00844867)
(4.6098e-05 -5.03201e-06 -0.00844477)
(3.58636e-05 -5.02354e-06 -0.00844203)
(2.56601e-05 -4.99723e-06 -0.00843978)
(1.54154e-05 -4.96913e-06 -0.00843818)
(4.96494e-06 -4.96255e-06 -0.00843759)
(-4.96132e-06 -4.96224e-06 -0.00843759)
(-1.54121e-05 -4.96911e-06 -0.00843817)
(-2.56573e-05 -4.99713e-06 -0.00843977)
(-3.58616e-05 -5.02328e-06 -0.00844202)
(-4.6097e-05 -5.03163e-06 -0.00844477)
(-5.61767e-05 -5.06488e-06 -0.00844867)
(-6.65743e-05 -4.83147e-06 -0.00845305)
(6.68658e-05 -1.50158e-05 -0.00845336)
(5.62407e-05 -1.5698e-05 -0.00844938)
(4.61729e-05 -1.5644e-05 -0.00844536)
(3.59143e-05 -1.56014e-05 -0.00844262)
(2.56951e-05 -1.55236e-05 -0.00844036)
(1.54371e-05 -1.54353e-05 -0.00843876)
(4.97168e-06 -1.54139e-05 -0.00843818)
(-4.96805e-06 -1.54137e-05 -0.00843817)
(-1.54336e-05 -1.54354e-05 -0.00843876)
(-2.56919e-05 -1.55237e-05 -0.00844036)
(-3.59115e-05 -1.56015e-05 -0.00844262)
(-4.61703e-05 -1.56441e-05 -0.00844536)
(-5.62382e-05 -1.5698e-05 -0.00844938)
(-6.68634e-05 -1.50158e-05 -0.00845335)
(6.73515e-05 -2.50766e-05 -0.00845454)
(5.64136e-05 -2.60032e-05 -0.00845142)
(4.64518e-05 -2.60822e-05 -0.00844705)
(3.61234e-05 -2.59552e-05 -0.0084443)
(2.58459e-05 -2.58453e-05 -0.00844197)
(1.55249e-05 -2.56936e-05 -0.00844036)
(4.99936e-06 -2.56591e-05 -0.00843977)
(-4.99611e-06 -2.5659e-05 -0.00843977)
(-1.5522e-05 -2.56938e-05 -0.00844036)
(-2.58437e-05 -2.58456e-05 -0.00844197)
(-3.61224e-05 -2.59554e-05 -0.00844429)
(-4.64524e-05 -2.60825e-05 -0.00844704)
(-5.6416e-05 -2.60032e-05 -0.00845141)
(-6.73579e-05 -2.50783e-05 -0.00845453)
(6.75265e-05 -3.54253e-05 -0.00845661)
(5.64447e-05 -3.62678e-05 -0.00845405)
(4.65786e-05 -3.65555e-05 -0.00844953)
(3.62643e-05 -3.62643e-05 -0.00844667)
(2.59563e-05 -3.61242e-05 -0.0084443)
(1.5603e-05 -3.59132e-05 -0.00844262)
(5.0258e-06 -3.58634e-05 -0.00844203)
(-5.02242e-06 -3.58633e-05 -0.00844202)
(-1.55998e-05 -3.59133e-05 -0.00844262)
(-2.59535e-05 -3.61243e-05 -0.00844429)
(-3.62621e-05 -3.6264e-05 -0.00844667)
(-4.65771e-05 -3.65553e-05 -0.00844952)
(-5.64444e-05 -3.62668e-05 -0.00845404)
(-6.7527e-05 -3.54281e-05 -0.00845661)
(6.87012e-05 -4.60147e-05 -0.00845983)
(5.71376e-05 -4.63454e-05 -0.00845736)
(4.7118e-05 -4.71157e-05 -0.00845245)
(3.65567e-05 -4.65786e-05 -0.00844953)
(2.6084e-05 -4.64538e-05 -0.00844705)
(1.56459e-05 -4.61717e-05 -0.00844536)
(5.03422e-06 -4.60984e-05 -0.00844477)
(-5.03094e-06 -4.60985e-05 -0.00844477)
(-1.56425e-05 -4.61718e-05 -0.00844536)
(-2.60807e-05 -4.64542e-05 -0.00844704)
(-3.65533e-05 -4.65787e-05 -0.00844952)
(-4.71142e-05 -4.71161e-05 -0.00845245)
(-5.71341e-05 -4.63451e-05 -0.00845735)
(-6.86976e-05 -4.6017e-05 -0.00845982)
(6.69124e-05 -5.67264e-05 -0.00846397)
(5.60341e-05 -5.60344e-05 -0.00846172)
(4.63456e-05 -5.71342e-05 -0.00845736)
(3.62673e-05 -5.64446e-05 -0.00845405)
(2.60041e-05 -5.64164e-05 -0.00845141)
(1.56995e-05 -5.62389e-05 -0.00844938)
(5.06737e-06 -5.61775e-05 -0.00844867)
(-5.06446e-06 -5.61778e-05 -0.00844867)
(-1.56967e-05 -5.62391e-05 -0.00844938)
(-2.60016e-05 -5.64175e-05 -0.00845141)
(-3.62651e-05 -5.64453e-05 -0.00845404)
(-4.63439e-05 -5.71355e-05 -0.00845735)
(-5.60336e-05 -5.60342e-05 -0.00846171)
(-6.6913e-05 -5.67255e-05 -0.00846397)
(6.91766e-05 -6.91775e-05 -0.00846639)
(5.67247e-05 -6.69135e-05 -0.00846398)
(4.60167e-05 -6.86968e-05 -0.00845983)
(3.54281e-05 -6.75264e-05 -0.00845661)
(2.50789e-05 -6.73575e-05 -0.00845454)
(1.50172e-05 -6.68635e-05 -0.00845336)
(4.83401e-06 -6.65747e-05 -0.00845306)
(-4.83134e-06 -6.65749e-05 -0.00845306)
(-1.50149e-05 -6.68637e-05 -0.00845336)
(-2.5077e-05 -6.73588e-05 -0.00845454)
(-3.54265e-05 -6.7527e-05 -0.00845661)
(-4.60157e-05 -6.86981e-05 -0.00845982)
(-5.67244e-05 -6.69129e-05 -0.00846397)
(-6.91754e-05 -6.91762e-05 -0.00846639)
(8.71959e-05 8.71971e-05 -0.0106865)
(7.16821e-05 8.4403e-05 -0.0106838)
(5.81211e-05 8.65985e-05 -0.010679)
(4.47542e-05 8.51547e-05 -0.0106752)
(3.16775e-05 8.49307e-05 -0.0106728)
(1.89661e-05 8.43359e-05 -0.0106715)
(6.12147e-06 8.3983e-05 -0.0106711)
(-6.11709e-06 8.3983e-05 -0.0106711)
(-1.89622e-05 8.43362e-05 -0.0106715)
(-3.16739e-05 8.49316e-05 -0.0106728)
(-4.47511e-05 8.51555e-05 -0.0106752)
(-5.81188e-05 8.66e-05 -0.010679)
(-7.16814e-05 8.4405e-05 -0.0106838)
(-8.71992e-05 8.72011e-05 -0.0106865)
(8.44012e-05 7.16818e-05 -0.0106838)
(7.07656e-05 7.07659e-05 -0.0106812)
(5.84417e-05 7.21361e-05 -0.0106762)
(4.57295e-05 7.12478e-05 -0.0106723)
(3.27745e-05 7.11773e-05 -0.0106693)
(1.97813e-05 7.09344e-05 -0.0106669)
(6.40295e-06 7.08415e-05 -0.0106661)
(-6.3978e-06 7.08419e-05 -0.0106661)
(-1.97766e-05 7.0935e-05 -0.0106669)
(-3.27701e-05 7.11779e-05 -0.0106693)
(-4.57257e-05 7.12486e-05 -0.0106723)
(-5.84389e-05 7.21374e-05 -0.0106762)
(-7.07646e-05 7.07683e-05 -0.0106812)
(-8.44018e-05 7.16877e-05 -0.0106838)
(8.65978e-05 5.81205e-05 -0.010679)
(7.2136e-05 5.8441e-05 -0.0106762)
(5.941e-05 5.94094e-05 -0.0106704)
(4.61108e-05 5.87186e-05 -0.010667)
(3.28944e-05 5.85563e-05 -0.0106642)
(1.97322e-05 5.82041e-05 -0.0106622)
(6.36748e-06 5.81069e-05 -0.0106616)
(-6.36297e-06 5.81075e-05 -0.0106616)
(-1.97282e-05 5.82048e-05 -0.0106622)
(-3.28912e-05 5.85572e-05 -0.0106642)
(-4.61091e-05 5.87199e-05 -0.010667)
(-5.94104e-05 5.94114e-05 -0.0106704)
(-7.21385e-05 5.84442e-05 -0.0106762)
(-8.66033e-05 5.81245e-05 -0.010679)
(8.51528e-05 4.4753e-05 -0.0106752)
(7.12473e-05 4.57281e-05 -0.0106723)
(5.87192e-05 4.61096e-05 -0.010667)
(4.57166e-05 4.57153e-05 -0.0106637)
(3.27078e-05 4.5538e-05 -0.010661)
(1.96594e-05 4.52682e-05 -0.0106591)
(6.35113e-06 4.51999e-05 -0.0106584)
(-6.34548e-06 4.52006e-05 -0.0106584)
(-1.96539e-05 4.52687e-05 -0.0106591)
(-3.27024e-05 4.55389e-05 -0.010661)
(-4.57114e-05 4.57168e-05 -0.0106637)
(-5.87142e-05 4.61119e-05 -0.010667)
(-7.12428e-05 4.57319e-05 -0.0106723)
(-8.51476e-05 4.47558e-05 -0.0106752)
(8.49296e-05 3.16759e-05 -0.0106728)
(7.1177e-05 3.27726e-05 -0.0106693)
(5.85569e-05 3.28926e-05 -0.0106642)
(4.55393e-05 3.27059e-05 -0.010661)
(3.25725e-05 3.25706e-05 -0.0106584)
(1.95645e-05 3.23765e-05 -0.0106565)
(6.31918e-06 3.23301e-05 -0.0106558)
(-6.31378e-06 3.23307e-05 -0.0106558)
(-1.95593e-05 3.2377e-05 -0.0106565)
(-3.25676e-05 3.25713e-05 -0.0106584)
(-4.55351e-05 3.27071e-05 -0.010661)
(-5.85534e-05 3.28945e-05 -0.0106642)
(-7.11744e-05 3.27754e-05 -0.0106693)
(-8.49274e-05 3.16794e-05 -0.0106728)
(8.43338e-05 1.89642e-05 -0.0106715)
(7.0934e-05 1.97792e-05 -0.0106669)
(5.82048e-05 1.97302e-05 -0.0106622)
(4.52696e-05 1.96574e-05 -0.0106591)
(3.23785e-05 1.95625e-05 -0.0106565)
(1.94507e-05 1.94486e-05 -0.0106546)
(6.28329e-06 1.94199e-05 -0.010654)
(-6.27737e-06 1.94205e-05 -0.010654)
(-1.9445e-05 1.9449e-05 -0.0106546)
(-3.23732e-05 1.95633e-05 -0.0106565)
(-4.5265e-05 1.96586e-05 -0.0106591)
(-5.82011e-05 1.9732e-05 -0.0106622)
(-7.09312e-05 1.97816e-05 -0.0106669)
(-8.43331e-05 1.89673e-05 -0.0106715)
(8.3981e-05 6.11901e-06 -0.0106712)
(7.0841e-05 6.4004e-06 -0.0106661)
(5.81076e-05 6.36521e-06 -0.0106616)
(4.52015e-05 6.34894e-06 -0.0106584)
(3.23322e-05 6.3171e-06 -0.0106558)
(1.94221e-05 6.28115e-06 -0.010654)
(6.27447e-06 6.27229e-06 -0.0106533)
(-6.26842e-06 6.27288e-06 -0.0106533)
(-1.94162e-05 6.28161e-06 -0.010654)
(-3.23265e-05 6.31793e-06 -0.0106558)
(-4.51962e-05 6.35022e-06 -0.0106584)
(-5.81029e-05 6.36697e-06 -0.0106616)
(-7.0837e-05 6.40279e-06 -0.0106661)
(-8.39788e-05 6.12179e-06 -0.0106711)
(8.39815e-05 -6.11962e-06 -0.0106712)
(7.08414e-05 -6.40028e-06 -0.0106661)
(5.8108e-05 -6.36537e-06 -0.0106616)
(4.52018e-05 -6.34795e-06 -0.0106584)
(3.23325e-05 -6.31625e-06 -0.0106558)
(1.94223e-05 -6.27997e-06 -0.010654)
(6.2747e-06 -6.27106e-06 -0.0106533)
(-6.26818e-06 -6.27054e-06 -0.0106533)
(-1.94159e-05 -6.27963e-06 -0.010654)
(-3.23261e-05 -6.31568e-06 -0.0106558)
(-4.51957e-05 -6.34716e-06 -0.0106584)
(-5.81022e-05 -6.36442e-06 -0.0106616)
(-7.0836e-05 -6.39895e-06 -0.0106661)
(-8.39775e-05 -6.11795e-06 -0.0106711)
(8.43347e-05 -1.89645e-05 -0.0106715)
(7.09344e-05 -1.9779e-05 -0.0106669)
(5.82053e-05 -1.97306e-05 -0.0106622)
(4.527e-05 -1.96564e-05 -0.0106591)
(3.23788e-05 -1.95618e-05 -0.0106565)
(1.9451e-05 -1.94475e-05 -0.0106546)
(6.28356e-06 -1.94187e-05 -0.010654)
(-6.27713e-06 -1.94183e-05 -0.010654)
(-1.94447e-05 -1.94472e-05 -0.0106546)
(-3.23729e-05 -1.95613e-05 -0.0106565)
(-4.52646e-05 -1.96558e-05 -0.0106591)
(-5.82005e-05 -1.973e-05 -0.0106622)
(-7.09304e-05 -1.97781e-05 -0.0106669)
(-8.43325e-05 -1.89636e-05 -0.0106715)
(8.49299e-05 -3.16761e-05 -0.0106728)
(7.11775e-05 -3.27725e-05 -0.0106693)
(5.85579e-05 -3.28936e-05 -0.0106642)
(4.55403e-05 -3.27049e-05 -0.010661)
(3.25733e-05 -3.25701e-05 -0.0106584)
(1.95654e-05 -3.23759e-05 -0.0106565)
(6.31988e-06 -3.23292e-05 -0.0106558)
(-6.3132e-06 -3.23287e-05 -0.0106558)
(-1.95588e-05 -3.23756e-05 -0.0106565)
(-3.2567e-05 -3.25697e-05 -0.0106583)
(-4.55345e-05 -3.27043e-05 -0.010661)
(-5.85525e-05 -3.28932e-05 -0.0106642)
(-7.11728e-05 -3.27721e-05 -0.0106693)
(-8.49258e-05 -3.16756e-05 -0.0106728)
(8.5154e-05 -4.47534e-05 -0.0106752)
(7.12479e-05 -4.57283e-05 -0.0106723)
(5.87204e-05 -4.61116e-05 -0.010667)
(4.5718e-05 -4.57141e-05 -0.0106637)
(3.27089e-05 -4.55379e-05 -0.010661)
(1.96606e-05 -4.5268e-05 -0.0106591)
(6.35208e-06 -4.51992e-05 -0.0106584)
(-6.34474e-06 -4.51988e-05 -0.0106584)
(-1.96533e-05 -4.52678e-05 -0.0106591)
(-3.27016e-05 -4.55377e-05 -0.010661)
(-4.57108e-05 -4.5714e-05 -0.0106637)
(-5.87131e-05 -4.61118e-05 -0.010667)
(-7.12409e-05 -4.5729e-05 -0.0106723)
(-8.51461e-05 -4.47523e-05 -0.0106752)
(8.65979e-05 -5.81207e-05 -0.010679)
(7.21364e-05 -5.84414e-05 -0.0106762)
(5.94118e-05 -5.94128e-05 -0.0106704)
(4.6113e-05 -5.8717e-05 -0.010667)
(3.28962e-05 -5.85563e-05 -0.0106642)
(1.97338e-05 -5.82043e-05 -0.0106622)
(6.36875e-06 -5.81061e-05 -0.0106616)
(-6.36209e-06 -5.81058e-05 -0.0106616)
(-1.97275e-05 -5.82042e-05 -0.0106622)
(-3.28905e-05 -5.85562e-05 -0.0106642)
(-4.61085e-05 -5.87169e-05 -0.010667)
(-5.94092e-05 -5.9413e-05 -0.0106704)
(-7.21358e-05 -5.84419e-05 -0.0106762)
(-8.66004e-05 -5.81215e-05 -0.010679)
(8.44022e-05 -7.16828e-05 -0.0106838)
(7.07665e-05 -7.07668e-05 -0.0106812)
(5.84439e-05 -7.21405e-05 -0.0106762)
(4.57324e-05 -7.12454e-05 -0.0106723)
(3.27765e-05 -7.11772e-05 -0.0106693)
(1.97831e-05 -7.09346e-05 -0.0106669)
(6.40444e-06 -7.08404e-05 -0.0106661)
(-6.39684e-06 -7.08401e-05 -0.0106661)
(-1.97758e-05 -7.09343e-05 -0.0106669)
(-3.27696e-05 -7.1177e-05 -0.0106693)
(-4.5726e-05 -7.12449e-05 -0.0106723)
(-5.84386e-05 -7.21401e-05 -0.0106762)
(-7.07633e-05 -7.07666e-05 -0.0106812)
(-8.44005e-05 -7.16857e-05 -0.0106837)
(8.71989e-05 -8.72001e-05 -0.0106865)
(7.16861e-05 -8.44038e-05 -0.0106838)
(5.81239e-05 -8.66053e-05 -0.010679)
(4.4756e-05 -8.51505e-05 -0.0106752)
(3.16801e-05 -8.49302e-05 -0.0106728)
(1.89684e-05 -8.43367e-05 -0.0106715)
(6.12335e-06 -8.39822e-05 -0.0106711)
(-6.11607e-06 -8.39816e-05 -0.0106711)
(-1.89616e-05 -8.43362e-05 -0.0106715)
(-3.16735e-05 -8.49301e-05 -0.0106728)
(-4.47497e-05 -8.51497e-05 -0.0106752)
(-5.81184e-05 -8.66047e-05 -0.010679)
(-7.16818e-05 -8.44034e-05 -0.0106838)
(-8.71979e-05 -8.72016e-05 -0.0106865)
(0.00010787 0.000107869 -0.0132827)
(8.88873e-05 0.000104494 -0.0132797)
(7.20161e-05 0.000107108 -0.0132743)
(5.54636e-05 0.000105324 -0.0132699)
(3.92512e-05 0.000105028 -0.0132673)
(2.34935e-05 0.000104307 -0.0132658)
(7.59832e-06 0.000103873 -0.0132654)
(-7.59783e-06 0.000103873 -0.0132654)
(-2.34922e-05 0.000104308 -0.0132658)
(-3.9249e-05 0.000105029 -0.0132673)
(-5.54604e-05 0.000105326 -0.01327)
(-7.20117e-05 0.00010711 -0.0132743)
(-8.88821e-05 0.000104495 -0.0132797)
(-0.000107864 0.000107869 -0.0132827)
(0.000104495 8.88855e-05 -0.0132797)
(8.76881e-05 8.76861e-05 -0.0132768)
(7.22801e-05 8.93297e-05 -0.0132711)
(5.65409e-05 8.81845e-05 -0.0132667)
(4.04984e-05 8.80513e-05 -0.0132633)
(2.44311e-05 8.77156e-05 -0.0132605)
(7.92569e-06 8.75752e-05 -0.0132596)
(-7.92407e-06 8.75757e-05 -0.0132596)
(-2.44291e-05 8.77162e-05 -0.0132605)
(-4.04953e-05 8.80526e-05 -0.0132633)
(-5.65363e-05 8.81855e-05 -0.0132667)
(-7.22736e-05 8.93312e-05 -0.0132711)
(-8.76802e-05 8.76877e-05 -0.0132768)
(-0.000104486 8.88863e-05 -0.0132797)
(0.000107109 7.20139e-05 -0.0132743)
(8.93316e-05 7.22779e-05 -0.0132711)
(7.34474e-05 7.34452e-05 -0.0132646)
(5.70149e-05 7.25533e-05 -0.0132607)
(4.06595e-05 7.23412e-05 -0.0132575)
(2.43878e-05 7.18998e-05 -0.0132552)
(7.88906e-06 7.17679e-05 -0.0132545)
(-7.88659e-06 7.17684e-05 -0.0132545)
(-2.43851e-05 7.19002e-05 -0.0132552)
(-4.06556e-05 7.23418e-05 -0.0132575)
(-5.70096e-05 7.25533e-05 -0.0132607)
(-7.34405e-05 7.34451e-05 -0.0132646)
(-8.93236e-05 7.22776e-05 -0.0132711)
(-0.000107097 7.2016e-05 -0.0132743)
(0.000105325 5.54611e-05 -0.0132699)
(8.81865e-05 5.65386e-05 -0.0132667)
(7.25554e-05 5.70129e-05 -0.0132607)
(5.64741e-05 5.64722e-05 -0.0132569)
(4.03789e-05 5.62474e-05 -0.0132539)
(2.4262e-05 5.59023e-05 -0.0132516)
(7.8561e-06 5.58078e-05 -0.0132509)
(-7.85435e-06 5.58085e-05 -0.0132509)
(-2.42603e-05 5.59029e-05 -0.0132516)
(-4.03769e-05 5.62483e-05 -0.0132539)
(-5.64725e-05 5.64733e-05 -0.0132569)
(-7.25553e-05 5.70143e-05 -0.0132607)
(-8.81896e-05 5.65409e-05 -0.0132667)
(-0.000105332 5.54648e-05 -0.01327)
(0.00010503 3.92488e-05 -0.0132673)
(8.80539e-05 4.04964e-05 -0.0132633)
(7.23439e-05 4.0658e-05 -0.0132575)
(5.62494e-05 4.03777e-05 -0.0132539)
(4.02112e-05 4.021e-05 -0.0132508)
(2.41458e-05 3.99617e-05 -0.0132487)
(7.8176e-06 3.98982e-05 -0.013248)
(-7.8144e-06 3.9899e-05 -0.013248)
(-2.4142e-05 3.99623e-05 -0.0132487)
(-4.02059e-05 4.0211e-05 -0.0132508)
(-5.62423e-05 4.03791e-05 -0.0132539)
(-7.23346e-05 4.06601e-05 -0.0132575)
(-8.80431e-05 4.05001e-05 -0.0132633)
(-0.000105015 3.92527e-05 -0.0132673)
(0.000104309 2.34918e-05 -0.0132658)
(8.77187e-05 2.44299e-05 -0.0132605)
(7.19029e-05 2.43872e-05 -0.0132552)
(5.59047e-05 2.42617e-05 -0.0132516)
(3.9963e-05 2.41457e-05 -0.0132487)
(2.39984e-05 2.39983e-05 -0.0132466)
(7.77062e-06 2.39593e-05 -0.0132459)
(-7.7677e-06 2.396e-05 -0.0132459)
(-2.3995e-05 2.39988e-05 -0.0132466)
(-3.99587e-05 2.41466e-05 -0.0132487)
(-5.58992e-05 2.4263e-05 -0.0132516)
(-7.18963e-05 2.43891e-05 -0.0132552)
(-8.7712e-05 2.44328e-05 -0.0132605)
(-0.0001043 2.34955e-05 -0.0132658)
(0.000103875 7.5963e-06 -0.0132654)
(8.75786e-05 7.92408e-06 -0.0132596)
(7.17714e-05 7.88834e-06 -0.0132545)
(5.58106e-05 7.85584e-06 -0.0132509)
(3.98999e-05 7.81789e-06 -0.013248)
(2.39597e-05 7.77102e-06 -0.0132459)
(7.75878e-06 7.75905e-06 -0.0132452)
(-7.7555e-06 7.75978e-06 -0.0132452)
(-2.39559e-05 7.77165e-06 -0.0132459)
(-3.9895e-05 7.81903e-06 -0.013248)
(-5.58045e-05 7.85768e-06 -0.0132509)
(-7.17642e-05 7.89098e-06 -0.0132545)
(-8.75713e-05 7.92808e-06 -0.0132596)
(-0.000103867 7.60136e-06 -0.0132654)
(0.000103877 -7.59814e-06 -0.0132654)
(8.75799e-05 -7.92415e-06 -0.0132596)
(7.17724e-05 -7.88622e-06 -0.0132545)
(5.58114e-05 -7.85358e-06 -0.0132509)
(3.99006e-05 -7.8133e-06 -0.013248)
(2.39602e-05 -7.76633e-06 -0.0132459)
(7.75916e-06 -7.75412e-06 -0.0132452)
(-7.75519e-06 -7.75333e-06 -0.0132452)
(-2.39556e-05 -7.76549e-06 -0.0132459)
(-3.98947e-05 -7.81181e-06 -0.013248)
(-5.5804e-05 -7.8514e-06 -0.0132509)
(-7.17634e-05 -7.88327e-06 -0.0132545)
(-8.75703e-05 -7.92026e-06 -0.0132596)
(-0.000103865 -7.59341e-06 -0.0132654)
(0.000104312 -2.34937e-05 -0.0132658)
(8.77207e-05 -2.44301e-05 -0.0132605)
(7.19046e-05 -2.43854e-05 -0.0132552)
(5.59063e-05 -2.42603e-05 -0.0132516)
(3.99644e-05 -2.41415e-05 -0.0132487)
(2.39993e-05 -2.39943e-05 -0.0132466)
(7.7713e-06 -2.39551e-05 -0.0132459)
(-7.76724e-06 -2.39542e-05 -0.0132459)
(-2.39946e-05 -2.39933e-05 -0.0132466)
(-3.99583e-05 -2.41397e-05 -0.0132487)
(-5.58988e-05 -2.42576e-05 -0.0132516)
(-7.18954e-05 -2.43819e-05 -0.0132552)
(-8.77111e-05 -2.44258e-05 -0.0132605)
(-0.000104299 -2.34886e-05 -0.0132658)
(0.000105034 -3.92511e-05 -0.0132673)
(8.80576e-05 -4.04972e-05 -0.0132633)
(7.23467e-05 -4.06569e-05 -0.0132575)
(5.62523e-05 -4.0378e-05 -0.0132538)
(4.02135e-05 -4.02066e-05 -0.0132508)
(2.41475e-05 -3.99591e-05 -0.0132487)
(7.819e-06 -3.98953e-05 -0.013248)
(-7.81328e-06 -3.98944e-05 -0.013248)
(-2.4141e-05 -3.9958e-05 -0.0132487)
(-4.02051e-05 -4.02047e-05 -0.0132508)
(-5.62415e-05 -4.03753e-05 -0.0132539)
(-7.23331e-05 -4.06534e-05 -0.0132575)
(-8.80421e-05 -4.04933e-05 -0.0132633)
(-0.000105014 -3.92458e-05 -0.0132673)
(0.000105331 -5.54635e-05 -0.01327)
(8.81907e-05 -5.65396e-05 -0.0132667)
(7.25586e-05 -5.70124e-05 -0.0132607)
(5.64775e-05 -5.64752e-05 -0.0132569)
(4.0382e-05 -5.62447e-05 -0.0132539)
(2.42643e-05 -5.59015e-05 -0.0132516)
(7.85799e-06 -5.58065e-05 -0.0132509)
(-7.85255e-06 -5.58055e-05 -0.0132509)
(-2.42586e-05 -5.59001e-05 -0.0132516)
(-4.03756e-05 -5.62424e-05 -0.0132539)
(-5.64709e-05 -5.64718e-05 -0.0132569)
(-7.25526e-05 -5.70078e-05 -0.0132607)
(-8.81874e-05 -5.65339e-05 -0.0132667)
(-0.00010533 -5.54577e-05 -0.01327)
(0.000107115 -7.20159e-05 -0.0132743)
(8.93363e-05 -7.22784e-05 -0.0132711)
(7.34505e-05 -7.3445e-05 -0.0132646)
(5.70187e-05 -7.25599e-05 -0.0132607)
(4.06631e-05 -7.2339e-05 -0.0132575)
(2.43905e-05 -7.19006e-05 -0.0132552)
(7.89149e-06 -7.17683e-05 -0.0132545)
(-7.88387e-06 -7.17671e-05 -0.0132545)
(-2.43823e-05 -7.18988e-05 -0.0132552)
(-4.06532e-05 -7.23359e-05 -0.0132575)
(-5.70068e-05 -7.2555e-05 -0.0132607)
(-7.34362e-05 -7.34385e-05 -0.0132646)
(-8.93208e-05 -7.22703e-05 -0.0132711)
(-0.000107094 -7.2009e-05 -0.0132743)
(0.000104499 -8.88872e-05 -0.0132797)
(8.76919e-05 -8.7686e-05 -0.0132768)
(7.22824e-05 -8.93295e-05 -0.0132711)
(5.65449e-05 -8.81957e-05 -0.0132667)
(4.05031e-05 -8.80494e-05 -0.0132633)