/*--------------------------------*- C++ -*----------------------------------*\
| =========                 |                                                 |
| \\      /  F ield         | OpenFOAM: The Open Source CFD Toolbox           |
|  \\    /   O peration     | Version:  v2106                                 |
|   \\  /    A nd           | Website:  www.openfoam.com                      |
|    \\/     M anipulation  |                                                 |
\*---------------------------------------------------------------------------*/
FoamFile
{
    version     2.0;
    format      ascii;
    arch        "LSB;label=32;scalar=64";
    class       volScalarField;
    location    "0.000165";
    object      rho;
}
// * * * * * * * * * * * * * * * * * * * * * * * * * * * * * * * * * * * * * //

dimensions      [1 -3 0 0 0 0 0];

internalField   nonuniform List<scalar> 
18109
(
2.48957
2.4893
2.48953
2.48898
2.4888
2.48819
2.48826
2.48542
2.48658
2.48751
2.48806
2.48829
2.48841
2.4889
2.48191
2.48444
2.48569
2.48684
2.48744
2.48817
2.48888
2.47837
2.482
2.48391
2.48551
2.4865
2.48759
2.48861
2.47563
2.47987
2.48236
2.48426
2.48555
2.48695
2.4883
2.47324
2.47784
2.48086
2.48314
2.48487
2.48655
2.48811
2.47173
2.47657
2.47999
2.48263
2.48467
2.48649
2.48814
2.47136
2.4762
2.47978
2.48254
2.48472
2.48662
2.48837
2.5057
2.50645
2.50731
2.50743
2.50758
2.50763
2.50796
2.50877
2.50998
2.51178
2.51413
2.51704
2.52122
2.52645
2.50242
2.50444
2.50567
2.5066
2.50705
2.50759
2.50824
2.50943
2.51093
2.51305
2.51557
2.51885
2.52269
2.52672
2.49923
2.50248
2.50402
2.50543
2.50624
2.50722
2.50816
2.50965
2.51141
2.51363
2.51613
2.5191
2.52252
2.52644
2.49631
2.50031
2.50237
2.50413
2.50532
2.50665
2.50796
2.50971
2.51169
2.51407
2.51669
2.51972
2.5231
2.52663
2.49398
2.49827
2.50082
2.50287
2.50444
2.50611
2.50779
2.50973
2.51185
2.51427
2.51692
2.5198
2.52293
2.526
2.49199
2.49649
2.49951
2.50191
2.50389
2.50584
2.50771
2.50976
2.51197
2.51441
2.51709
2.51994
2.52294
2.5256
2.49099
2.49558
2.49893
2.50155
2.50377
2.50582
2.50779
2.50991
2.51215
2.51458
2.51722
2.5199
2.5226
2.52472
2.49096
2.49547
2.49893
2.5016
2.50388
2.50599
2.50805
2.51017
2.51239
2.51478
2.5173
2.51982
2.52216
2.52378
2.49144
2.49578
2.49921
2.50194
2.50431
2.5065
2.50855
2.51061
2.51273
2.51496
2.5173
2.51954
2.52155
2.52275
2.49239
2.49615
2.4995
2.50229
2.5048
2.50708
2.50915
2.51115
2.51312
2.51513
2.51717
2.5191
2.52088
2.52194
2.49336
2.49673
2.49976
2.50252
2.5051
2.50742
2.50953
2.51152
2.51338
2.51518
2.51691
2.51858
2.52024
2.52126
2.49432
2.49698
2.49955
2.50218
2.5047
2.50712
2.50938
2.51149
2.51338
2.5151
2.51669
2.51812
2.51994
2.52083
2.49439
2.49677
2.49905
2.5012
2.50352
2.50597
2.50844
2.51083
2.51294
2.51473
2.51627
2.51761
2.51944
2.52129
2.49463
2.49617
2.49752
2.49911
2.50103
2.50338
2.50611
2.50904
2.51167
2.51392
2.51576
2.51749
2.51899
2.52165
2.49377
2.49762
2.50302
2.50873
2.51367
2.51721
2.50934
2.51228
2.51661
2.52208
2.52665
2.53025
2.50857
2.51157
2.51467
2.51918
2.52263
2.52637
2.50916
2.51136
2.51344
2.51639
2.51792
2.5206
2.5084
2.50946
2.50994
2.51087
2.51041
2.51097
2.50798
2.50762
2.50641
2.50484
2.50197
2.50127
2.50712
2.50532
2.50235
2.4987
2.49402
2.49401
2.50682
2.50393
2.49975
2.4942
2.48858
2.49125
2.5072
2.50384
2.49902
2.49336
2.48966
2.49543
2.50832
2.50495
2.5005
2.49638
2.49658
2.5047
2.51029
2.50778
2.50493
2.50293
2.50643
2.51659
2.51345
2.51204
2.51053
2.5115
2.51794
2.52904
2.51779
2.51778
2.51842
2.52186
2.53082
2.54132
2.52227
2.52389
2.52696
2.53285
2.54265
2.55144
2.52778
2.53128
2.53562
2.54253
2.55102
2.55757
2.53154
2.53622
2.54238
2.54873
2.55557
2.56132
2.53102
2.53624
2.542
2.54835
2.55458
2.56078
2.53134
2.53636
2.54168
2.54714
2.55281
2.55927
2.53062
2.53495
2.53923
2.54335
2.54823
2.55457
2.52957
2.5329
2.53574
2.53828
2.54181
2.54673
2.52804
2.52998
2.53125
2.53235
2.53435
2.53972
2.52623
2.5269
2.52717
2.52734
2.52825
2.53356
2.52465
2.52447
2.52394
2.52278
2.52386
2.53105
2.52348
2.52337
2.52285
2.52196
2.52558
2.53402
2.52286
2.52316
2.5232
2.52432
2.53079
2.53807
2.523
2.52379
2.52497
2.52799
2.53553
2.54412
2.52333
2.52425
2.527
2.53247
2.54181
2.5492
2.52395
2.52551
2.52994
2.53683
2.54515
2.55054
2.52323
2.52518
2.53026
2.5365
2.5429
2.54735
2.5242
2.52742
2.53246
2.5374
2.54253
2.54718
2.52044
2.52363
2.52741
2.53139
2.53523
2.54039
2.51851
2.52017
2.52214
2.52427
2.5264
2.52968
2.51556
2.51532
2.51533
2.5144
2.51472
2.51851
2.51254
2.51045
2.50826
2.5049
2.50499
2.51119
2.50911
2.50547
2.5007
2.49576
2.49658
2.50454
2.50553
2.50015
2.49385
2.48987
2.49267
2.50013
2.50184
2.49552
2.48929
2.48792
2.49074
2.49545
2.4988
2.49254
2.48754
2.48799
2.49126
2.49489
2.49691
2.49174
2.48905
2.49014
2.49654
2.49957
2.49631
2.49225
2.49276
2.49741
2.50452
2.50728
2.49684
2.495
2.49817
2.50368
2.51134
2.51399
2.49751
2.49745
2.50219
2.50776
2.51424
2.5163
2.4937
2.49545
2.49992
2.50482
2.50936
2.51197
2.47507
2.47235
2.47328
2.48027
2.49038
2.49566
2.47993
2.4796
2.48304
2.49184
2.50287
2.5085
2.48492
2.48647
2.49203
2.50168
2.51186
2.51777
2.48928
2.49296
2.49802
2.50655
2.51344
2.51875
2.49635
2.4988
2.50281
2.50532
2.50618
2.5066
2.49306
2.4941
2.49445
2.49484
2.49438
2.49379
2.49212
2.49125
2.48791
2.48488
2.48042
2.47752
2.48907
2.48516
2.47876
2.4728
2.46639
2.46424
2.48717
2.48071
2.47201
2.4633
2.45577
2.45367
2.48525
2.477
2.46694
2.45702
2.45215
2.45384
2.48433
2.47506
2.46489
2.45567
2.45438
2.4591
2.4843
2.47513
2.46574
2.45979
2.46066
2.4657
2.48588
2.47813
2.47121
2.46792
2.4705
2.47646
2.48902
2.48282
2.47861
2.4776
2.4843
2.49023
2.49262
2.48857
2.48674
2.48974
2.4985
2.50472
2.49681
2.49517
2.49595
2.5018
2.51125
2.51797
2.50105
2.50123
2.5045
2.51212
2.52187
2.5283
2.50492
2.50738
2.51102
2.5184
2.5252
2.5303
2.53883
2.55545
2.60262
2.7011
2.90535
2.53866
2.56559
2.62923
2.76596
3.00511
2.53311
2.56407
2.65484
2.82844
3.09581
2.52306
2.56519
2.67288
2.845
3.0863
2.51272
2.56502
2.66426
2.81304
3.00557
2.50669
2.55824
2.62971
2.75022
2.92854
2.50811
2.54833
2.59795
2.69862
2.89161
2.51282
2.54086
2.57148
2.64926
2.81913
3.04743
2.52034
2.53655
2.55244
2.60697
2.72792
2.91576
2.53068
2.53948
2.54701
2.59296
2.68824
2.8574
2.54078
2.54699
2.55423
2.6029
2.69795
2.86151
3.01021
2.55085
2.55822
2.56995
2.62339
2.73112
2.91751
3.13782
3.28817
2.56047
2.57081
2.58861
2.65007
2.7858
3.03144
3.35255
3.73093
2.56701
2.58113
2.60811
2.66803
2.79619
3.0203
3.30679
3.57305
2.57307
2.59027
2.62705
2.69429
2.83492
3.0529
3.27812
3.39653
2.57588
2.60218
2.64959
2.73536
2.90298
3.14228
3.33672
3.46724
2.57674
2.60803
2.66843
2.78691
2.98289
3.24072
3.51433
3.61937
2.57287
2.61096
2.69268
2.82309
3.00471
3.23432
3.47302
3.74297
2.56527
2.61574
2.70078
2.81806
2.97039
3.14992
3.32656
3.41698
2.5596
2.61515
2.68427
2.78366
2.92715
3.11887
3.27935
3.37638
2.5544
2.5966
2.64097
2.72702
2.89107
3.14692
3.36306
3.45731
2.55066
2.57706
2.60663
2.6797
2.82957
3.06304
3.32121
3.62892
2.54775
2.55761
2.57609
2.6364
2.7535
2.93204
2.5468
2.54686
2.56087
2.61952
2.72819
2.90758
2.54898
2.54591
2.56415
2.63165
2.75326
2.94941
2.55253
2.55251
2.58
2.6579
2.80798
3.04379
2.5551
2.566
2.6049
2.69698
2.87996
3.17674
2.55756
2.57902
2.63003
2.73395
2.93281
2.56098
2.59323
2.66065
2.7879
2.98615
2.5575
2.59931
2.68785
2.8319
3.02299
2.55041
2.60357
2.69696
2.83356
3.03894
2.54136
2.59447
2.66824
2.78529
2.97775
2.53058
2.56541
2.616
2.72198
2.89406
2.5196
2.53474
2.57691
2.68236
2.8636
2.50496
2.50418
2.54642
2.66205
2.88057
2.49182
2.48602
2.53033
2.63565
2.83338
2.48677
2.47655
2.515
2.602
2.75786
2.49186
2.48226
2.52055
2.60562
2.7641
2.50185
2.49772
2.5395
2.63776
2.8125
2.51216
2.51641
2.56434
2.67788
2.88512
2.51772
2.53611
2.59177
2.71722
2.96607
2.51939
2.54448
2.61287
2.7551
3.01683
2.51783
2.55249
2.64393
2.81344
3.06006
2.50583
2.5481
2.66465
2.8427
3.0854
2.49171
2.54614
2.66116
2.83261
3.11261
2.47767
2.52599
2.61621
2.78517
3.06427
2.47119
2.50153
2.56743
2.71087
2.95039
2.46933
2.4806
2.52731
2.64776
2.86727
2.46746
2.46656
2.5062
2.63165
2.87444
2.46726
2.46143
2.49742
2.60253
2.81196
2.47402
2.4634
2.48694
2.566
2.72029
2.48691
2.47508
2.49697
2.56651
2.70207
2.50256
2.49379
2.51584
2.58688
2.73461
2.51865
2.51509
2.53922
2.6138
2.77573
2.53073
2.53245
2.56117
2.63963
2.81679
2.53615
2.54691
2.58158
2.65581
2.82866
2.53717
2.53942
2.5409
2.54196
2.54242
2.54277
2.54293
2.54356
2.54445
2.54593
2.54808
2.55079
2.55433
2.55859
2.53423
2.5377
2.53941
2.54084
2.5415
2.54218
2.54269
2.54361
2.54485
2.54666
2.54903
2.55213
2.55595
2.56004
2.53158
2.5357
2.53774
2.53944
2.54044
2.54142
2.54229
2.54347
2.545
2.54701
2.54947
2.55244
2.55591
2.55973
2.52948
2.53367
2.53606
2.538
2.53934
2.54062
2.54182
2.54331
2.54511
2.54729
2.54988
2.55287
2.55632
2.56008
2.52762
2.53185
2.53458
2.53677
2.53843
2.54004
2.54158
2.54331
2.54524
2.5475
2.55014
2.55309
2.55637
2.55976
2.52648
2.53066
2.53364
2.53605
2.53798
2.53983
2.54161
2.54346
2.5455
2.54777
2.5504
2.55328
2.55643
2.55951
2.52627
2.5304
2.53347
2.53595
2.53799
2.53994
2.54183
2.5438
2.5459
2.54817
2.55075
2.55351
2.55644
2.55914
2.52681
2.53074
2.53372
2.53616
2.53825
2.54026
2.54224
2.54427
2.5464
2.54866
2.55116
2.55377
2.55648
2.55878
2.52772
2.53138
2.53428
2.53671
2.53883
2.5409
2.5429
2.54492
2.54701
2.54921
2.55157
2.55398
2.55644
2.55839
2.52877
2.53196
2.53476
2.53721
2.53944
2.54159
2.54361
2.5456
2.5476
2.54969
2.55188
2.55408
2.55632
2.55798
2.52952
2.53242
2.5351
2.53757
2.53986
2.54207
2.54411
2.54609
2.54802
2.54997
2.552
2.55402
2.55612
2.55769
2.53023
2.53253
2.535
2.53737
2.53967
2.54196
2.5441
2.54615
2.54809
2.55
2.55191
2.5538
2.55589
2.55741
2.52995
2.53215
2.53436
2.53652
2.53885
2.54123
2.54354
2.54573
2.54776
2.54969
2.55154
2.55331
2.55553
2.55738
2.52957
2.53135
2.5328
2.53471
2.53688
2.5393
2.54187
2.54439
2.54672
2.54885
2.55081
2.55272
2.55486
2.5573
2.58894
2.59298
2.59503
2.59692
2.59788
2.59852
2.59871
2.59896
2.59947
2.60039
2.60202
2.60431
2.60739
2.61013
2.58694
2.59123
2.59353
2.59548
2.5966
2.59738
2.59782
2.59833
2.59912
2.60034
2.60223
2.60483
2.60821
2.61192
2.58517
2.58949
2.59206
2.59404
2.59529
2.59621
2.59689
2.59764
2.59868
2.60012
2.60222
2.60488
2.60822
2.61184
2.58377
2.58793
2.59071
2.59277
2.59414
2.59519
2.59605
2.597
2.59828
2.59997
2.60226
2.60507
2.60847
2.61215
2.58306
2.58705
2.58984
2.59193
2.5934
2.59458
2.59562
2.59673
2.59816
2.59999
2.60235
2.60521
2.60859
2.61216
2.58313
2.5869
2.58965
2.59171
2.59323
2.59448
2.59565
2.59688
2.5984
2.60028
2.60267
2.60552
2.60884
2.61228
2.58392
2.58741
2.59004
2.59201
2.59352
2.59479
2.59602
2.59734
2.59892
2.60084
2.60322
2.60601
2.60919
2.61242
2.58522
2.58835
2.59079
2.59265
2.59412
2.59541
2.59669
2.59807
2.59971
2.60166
2.604
2.6067
2.6097
2.61266
2.58678
2.58959
2.59183
2.59357
2.59498
2.59627
2.59759
2.59903
2.60071
2.60268
2.60498
2.60756
2.61032
2.61296
2.58826
2.59067
2.59273
2.5944
2.59582
2.59715
2.59852
2.60002
2.60174
2.60373
2.60601
2.60846
2.61099
2.61326
2.58943
2.59152
2.59346
2.59508
2.59653
2.5979
2.59931
2.60084
2.6026
2.60463
2.60689
2.60925
2.6116
2.61356
2.59016
2.5919
2.59365
2.59521
2.59672
2.5982
2.5997
2.60132
2.60316
2.60523
2.60752
2.60984
2.61214
2.6138
2.59021
2.59186
2.59334
2.59481
2.59639
2.59797
2.59959
2.60133
2.6033
2.60547
2.60781
2.61016
2.61253
2.61427
2.5896
2.5907
2.59194
2.59342
2.59507
2.59684
2.59869
2.60067
2.60283
2.60523
2.60772
2.60992
2.61246
2.61346
2.63353
2.63749
2.63966
2.64151
2.64253
2.64315
2.64343
2.64369
2.64417
2.64497
2.64631
2.64824
2.65087
2.65356
2.6324
2.63604
2.63844
2.6403
2.64144
2.64215
2.64259
2.64302
2.64369
2.64473
2.64635
2.64854
2.65133
2.65468
2.63122
2.63488
2.63743
2.63929
2.64048
2.64125
2.64181
2.64239
2.64322
2.64446
2.64628
2.64861
2.65152
2.65487
2.63079
2.63429
2.63683
2.6386
2.63978
2.64057
2.64121
2.64191
2.64291
2.64432
2.6463
2.64878
2.6518
2.65524
2.63107
2.63433
2.63674
2.6384
2.63952
2.6403
2.64098
2.64177
2.64288
2.64441
2.64648
2.64906
2.65215
2.6556
2.63193
2.63492
2.63714
2.63865
2.63967
2.6404
2.6411
2.64194
2.64311
2.64473
2.64688
2.64951
2.6526
2.65599
2.63325
2.63594
2.63791
2.63923
2.64014
2.64082
2.64152
2.64242
2.64366
2.64536
2.64754
2.65018
2.65321
2.65644
2.63496
2.63731
2.639
2.6401
2.64087
2.6415
2.64221
2.64316
2.64447
2.64622
2.64842
2.65102
2.65393
2.65695
2.6368
2.63881
2.64022
2.64113
2.64179
2.64237
2.6431
2.64411
2.64549
2.6473
2.6495
2.65203
2.6548
2.65758
2.63851
2.64017
2.64135
2.64212
2.64272
2.6433
2.64408
2.64516
2.64663
2.64851
2.65072
2.65319
2.65579
2.6583
2.64003
2.64132
2.64226
2.64291
2.64349
2.64412
2.64498
2.64616
2.64773
2.64971
2.65196
2.65439
2.65684
2.6591
2.641
2.64198
2.6427
2.64328
2.64393
2.64469
2.64568
2.647
2.64871
2.65081
2.65315
2.65558
2.65793
2.65997
2.64162
2.64225
2.64275
2.64328
2.64399
2.64491
2.64605
2.64754
2.64941
2.65166
2.65411
2.65661
2.65895
2.661
2.64104
2.64177
2.64201
2.64257
2.64341
2.64456
2.64595
2.6477
2.64978
2.6522
2.65474
2.65718
2.65951
2.66116
2.66872
2.6717
2.67373
2.67529
2.67637
2.67716
2.67783
2.67848
2.67925
2.68021
2.68144
2.68301
2.68491
2.68723
2.66866
2.67138
2.67327
2.67469
2.67573
2.67652
2.67722
2.67797
2.67886
2.68001
2.68147
2.68328
2.68533
2.68798
2.66874
2.67132
2.67315
2.67445
2.6754
2.67615
2.67685
2.67765
2.67863
2.67991
2.68148
2.6834
2.6856
2.68827
2.66949
2.67177
2.67345
2.67459
2.67543
2.6761
2.67677
2.67758
2.67863
2.67999
2.68166
2.68371
2.68602
2.68877
2.67061
2.67257
2.67402
2.675
2.67569
2.67627
2.6769
2.67771
2.67878
2.68022
2.68199
2.68414
2.68655
2.68932
2.67206
2.67371
2.6749
2.67567
2.6762
2.67666
2.67722
2.67803
2.67913
2.68064
2.68249
2.68471
2.68716
2.68993
2.67376
2.67509
2.67599
2.67653
2.6769
2.67726
2.67776
2.67855
2.67968
2.68124
2.68314
2.6854
2.68785
2.69058
2.67561
2.6766
2.67719
2.6775
2.67772
2.67798
2.67843
2.67922
2.68038
2.68197
2.68389
2.68616
2.68858
2.69124
2.67742
2.67807
2.67836
2.67845
2.67854
2.67874
2.67918
2.67999
2.68119
2.68281
2.68474
2.68699
2.68936
2.69193
2.67897
2.67934
2.67938
2.6793
2.67931
2.6795
2.67998
2.68085
2.68211
2.68377
2.68571
2.68793
2.69023
2.69268
2.68026
2.68036
2.68018
2.67995
2.67993
2.68017
2.68073
2.68169
2.68304
2.68477
2.68674
2.68894
2.69117
2.69353
2.68109
2.68097
2.68062
2.68034
2.68038
2.68073
2.68143
2.68253
2.68401
2.68584
2.68788
2.69007
2.69224
2.69446
2.68149
2.68122
2.68074
2.68048
2.68064
2.68117
2.68204
2.6833
2.68492
2.68687
2.68897
2.69121
2.69334
2.69556
2.68087
2.68084
2.68032
2.68021
2.68057
2.68135
2.68247
2.68394
2.68574
2.68779
2.68997
2.69215
2.6943
2.69632
2.69315
2.69488
2.69597
2.69692
2.69781
2.69869
2.69968
2.70078
2.70195
2.70328
2.70462
2.70614
2.70763
2.70945
2.69395
2.69538
2.69635
2.69717
2.69795
2.69875
2.69966
2.70076
2.70195
2.70335
2.70476
2.70638
2.70795
2.70989
2.69486
2.69605
2.69694
2.69764
2.69831
2.69901
2.69984
2.70088
2.70204
2.70342
2.70485
2.70649
2.70813
2.71005
2.69608
2.697
2.69772
2.69828
2.69883
2.69944
2.7002
2.70118
2.70233
2.7037
2.70515
2.70681
2.70849
2.71044
2.69745
2.69815
2.69869
2.69911
2.69954
2.70005
2.70073
2.70165
2.70275
2.70409
2.70556
2.70722
2.70894
2.71088
2.69893
2.69942
2.69977
2.70004
2.70034
2.70075
2.70134
2.7022
2.70326
2.70459
2.70606
2.70773
2.70949
2.71144
2.70044
2.70071
2.70087
2.70099
2.70117
2.7015
2.70202
2.70283
2.70386
2.70517
2.70664
2.70832
2.7101
2.71206
2.70188
2.70195
2.7019
2.70187
2.70197
2.70223
2.7027
2.70347
2.70448
2.70578
2.70726
2.70895
2.71075
2.71272
2.70318
2.70301
2.70276
2.70261
2.70266
2.70288
2.70334
2.70409
2.7051
2.7064
2.70789
2.7096
2.71143
2.71342
2.70418
2.70385
2.70347
2.70324
2.70325
2.70347
2.70395
2.70473
2.70576
2.70707
2.70859
2.71031
2.71217
2.71419
2.70485
2.70441
2.70397
2.70372
2.70375
2.704
2.70452
2.70534
2.70641
2.70777
2.70932
2.7111
2.71297
2.71504
2.70528
2.70477
2.7043
2.70407
2.70414
2.70446
2.70506
2.70596
2.70713
2.70856
2.71018
2.71199
2.7139
2.71595
2.70547
2.70493
2.70448
2.70435
2.70453
2.70496
2.70567
2.70668
2.70794
2.70947
2.71114
2.71302
2.71493
2.71708
2.70505
2.70476
2.70441
2.70447
2.70479
2.70539
2.70627
2.70743
2.70881
2.71039
2.71212
2.71397
2.71596
2.71798
2.70854
2.70912
2.70955
2.71014
2.71081
2.71164
2.71264
2.71381
2.71501
2.71633
2.71754
2.71886
2.72001
2.72135
2.70966
2.70998
2.71029
2.71078
2.71138
2.71216
2.7131
2.71423
2.7154
2.71671
2.7179
2.71922
2.72036
2.72172
2.71083
2.71095
2.7112
2.71159
2.71208
2.71277
2.71361
2.71464
2.71572
2.71694
2.71808
2.71935
2.7205
2.72183
2.71194
2.71191
2.71205
2.71234
2.71276
2.71337
2.71414
2.7151
2.71613
2.71728
2.71839
2.71962
2.72078
2.72211
2.71302
2.71289
2.71293
2.71313
2.71346
2.714
2.7147
2.71558
2.71654
2.71762
2.71871
2.7199
2.72108
2.72242
2.71402
2.71381
2.71374
2.71386
2.71413
2.71459
2.71523
2.71604
2.71695
2.71799
2.71907
2.72024
2.72146
2.72282
2.71491
2.71464
2.71449
2.71454
2.71476
2.71516
2.71573
2.71648
2.71735
2.71836
2.71945
2.72064
2.72192
2.72332
2.71569
2.71537
2.71515
2.71515
2.71533
2.71568
2.71621
2.71692
2.71776
2.71877
2.71988
2.7211
2.72246
2.7239
2.71632
2.71596
2.71571
2.71569
2.71583
2.71616
2.71665
2.71734
2.71818
2.71919
2.72035
2.72162
2.72306
2.72458
2.71684
2.71646
2.7162
2.71617
2.7163
2.71661
2.71709
2.71778
2.71863
2.71967
2.72089
2.72222
2.72376
2.72533
2.7172
2.71686
2.71664
2.71662
2.71676
2.71707
2.71757
2.71827
2.71916
2.72025
2.72154
2.72295
2.72457
2.72623
2.71752
2.71724
2.71705
2.71707
2.71723
2.71757
2.71811
2.71885
2.71979
2.72092
2.72228
2.72375
2.72547
2.72718
2.71782
2.71758
2.71745
2.71752
2.71775
2.71816
2.71877
2.71959
2.72061
2.72183
2.72324
2.72482
2.72656
2.72842
2.71789
2.71795
2.71789
2.71807
2.71839
2.7189
2.71959
2.72048
2.72153
2.72276
2.72419
2.72574
2.72758
2.72938
2.71589
2.71566
2.71557
2.71571
2.71603
2.71651
2.71713
2.7179
2.71874
2.71974
2.72067
2.72179
2.72278
2.72397
2.71657
2.71628
2.7162
2.71629
2.71659
2.71706
2.71767
2.71843
2.71927
2.72025
2.7212
2.7223
2.72325
2.7244
2.71726
2.71693
2.71682
2.71689
2.71716
2.7176
2.71819
2.71891
2.71971
2.72062
2.72151
2.72255
2.72349
2.72463
2.71781
2.71745
2.71732
2.71738
2.71764
2.71808
2.71865
2.71937
2.72015
2.72104
2.72192
2.72293
2.72386
2.72499
2.7183
2.71795
2.71781
2.71786
2.71811
2.71853
2.71911
2.71981
2.72058
2.72145
2.72233
2.72331
2.72426
2.72539
2.71873
2.7184
2.71825
2.71831
2.71855
2.71897
2.71954
2.72025
2.72102
2.72188
2.72277
2.72375
2.72474
2.72587
2.71915
2.71884
2.71869
2.71876
2.719
2.71942
2.71998
2.72068
2.72147
2.72233
2.72325
2.72424
2.72528
2.72642
2.71957
2.71929
2.71915
2.71924
2.71947
2.71989
2.72045
2.72114
2.72194
2.72281
2.72378
2.72479
2.7259
2.72707
2.71998
2.71975
2.71964
2.71975
2.71999
2.7204
2.72096
2.72166
2.72248
2.72338
2.7244
2.72544
2.72663
2.72782
2.72045
2.72029
2.72021
2.72034
2.72057
2.72097
2.72153
2.72223
2.72308
2.724
2.72509
2.72617
2.72745
2.72868
2.72092
2.72085
2.72082
2.72095
2.72119
2.7216
2.72218
2.72292
2.72381
2.7248
2.72594
2.7271
2.72844
2.7297
2.72151
2.72156
2.72155
2.7217
2.72196
2.72236
2.72295
2.7237
2.72462
2.72563
2.72685
2.72806
2.72951
2.73079
2.72212
2.72223
2.72225
2.72244
2.72275
2.7232
2.72384
2.72465
2.72565
2.72675
2.72802
2.72933
2.73079
2.73217
2.72286
2.72312
2.72324
2.7235
2.72387
2.72436
2.72501
2.72581
2.72678
2.72786
2.72914
2.73045
2.73199
2.7334
2.71608
2.71553
2.71524
2.71506
2.71512
2.71538
2.71578
2.71636
2.71707
2.71795
2.71883
2.71993
2.72096
2.72217
2.71633
2.7158
2.71557
2.71544
2.71552
2.71581
2.71625
2.71686
2.7176
2.71849
2.71941
2.72051
2.72155
2.72278
2.71657
2.7161
2.71587
2.71579
2.71591
2.71623
2.71669
2.71733
2.71807
2.71895
2.71984
2.7209
2.72192
2.72315
2.71676
2.71634
2.71613
2.7161
2.71627
2.71662
2.71711
2.71777
2.71853
2.71942
2.72033
2.72139
2.7224
2.72362
2.71698
2.7166
2.71642
2.71643
2.71663
2.71701
2.71753
2.71821
2.71899
2.71989
2.72081
2.72186
2.7229
2.72411
2.71721
2.7169
2.71674
2.71679
2.71701
2.71741
2.71797
2.71868
2.71948
2.72039
2.72134
2.72239
2.72345
2.72466
2.71752
2.71726
2.71712
2.71721
2.71744
2.71787
2.71846
2.71919
2.72001
2.72093
2.72192
2.72297
2.72409
2.72529
2.7179
2.7177
2.71759
2.71772
2.71795
2.71841
2.71901
2.71976
2.72061
2.72155
2.72258
2.72364
2.72482
2.72602
2.71837
2.71823
2.71815
2.71831
2.71856
2.71904
2.71967
2.72044
2.72133
2.72229
2.72337
2.72445
2.72568
2.72686
2.71897
2.71891
2.71887
2.71905
2.71932
2.71981
2.72046
2.72124
2.72216
2.72314
2.72426
2.72536
2.72666
2.72783
2.7196
2.71964
2.71964
2.71987
2.72019
2.72072
2.7214
2.72221
2.72317
2.72418
2.72536
2.72649
2.72783
2.72898
2.72045
2.72059
2.72067
2.72095
2.72132
2.72184
2.72252
2.72333
2.72429
2.72532
2.72653
2.7277
2.72909
2.73023
2.72129
2.72155
2.7217
2.72205
2.72252
2.72309
2.72383
2.72468
2.72569
2.72678
2.72802
2.72924
2.73061
2.73173
2.72251
2.72293
2.72322
2.7236
2.72411
2.72468
2.7254
2.72623
2.7272
2.72826
2.72945
2.73065
2.73204
2.73321
2.71311
2.71269
2.7124
2.71219
2.7121
2.71214
2.7123
2.71259
2.71306
2.71373
2.71455
2.71559
2.71668
2.7181
2.71314
2.71273
2.71251
2.71237
2.71236
2.71249
2.71271
2.7131
2.71364
2.7144
2.7153
2.7164
2.71755
2.71886
2.71318
2.71286
2.71268
2.7126
2.71265
2.71285
2.71313
2.7136
2.7142
2.715
2.71593
2.71704
2.71816
2.71947
2.71329
2.71303
2.7129
2.71288
2.713
2.71323
2.7136
2.71413
2.71481
2.71567
2.71664
2.71777
2.7189
2.72019
2.71352
2.7133
2.71321
2.71323
2.71339
2.71369
2.71411
2.71471
2.71544
2.71636
2.71735
2.71849
2.71962
2.72091
2.71383
2.71366
2.7136
2.71369
2.71387
2.71422
2.71471
2.71537
2.71617
2.71712
2.71815
2.71928
2.72044
2.7217
2.71425
2.71413
2.7141
2.71425
2.71446
2.71487
2.71541
2.71613
2.71699
2.71797
2.71902
2.72015
2.72132
2.72253
2.71479
2.71473
2.71474
2.71492
2.71517
2.71563
2.71624
2.71702
2.71793
2.71893
2.72002
2.72113
2.72231
2.72346
2.71544
2.71546
2.7155
2.71572
2.71603
2.71656
2.71724
2.71807
2.71902
2.72004
2.72113
2.72222
2.72338
2.72446
2.71628
2.71636
2.71644
2.71672
2.71709
2.71767
2.71841
2.71928
2.72024
2.72125
2.72234
2.72339
2.72454
2.72554
2.71721
2.71738
2.71752
2.71787
2.71833
2.71899
2.71978
2.72066
2.72162
2.72261
2.72368
2.72469
2.72581
2.72672
2.71841
2.71871
2.71891
2.71935
2.71986
2.72053
2.72131
2.72216
2.72309
2.72404
2.72506
2.72604
2.72715
2.72799
2.71964
2.72012
2.7204
2.7209
2.7215
2.72218
2.72297
2.72381
2.72473
2.72566
2.72666
2.7276
2.72867
2.72943
2.72148
2.72197
2.72236
2.7228
2.72338
2.72402
2.72474
2.72552
2.72637
2.72724
2.72816
2.72906
2.7301
2.73092
2.71107
2.71075
2.71054
2.71034
2.71019
2.71017
2.71023
2.7104
2.71071
2.71116
2.71174
2.71247
2.7133
2.71434
2.71101
2.71078
2.71061
2.71049
2.71044
2.71049
2.71063
2.71091
2.71133
2.71189
2.71257
2.71341
2.71432
2.71536
2.71105
2.71089
2.71078
2.71072
2.71076
2.71088
2.71112
2.71149
2.71199
2.71262
2.71336
2.71422
2.71513
2.71618
2.71122
2.7111
2.71105
2.71107
2.71116
2.71136
2.71171
2.71217
2.71275
2.71345
2.71424
2.71513
2.71605
2.71711
2.71151
2.71145
2.71146
2.71153
2.71169
2.71197
2.7124
2.71294
2.71357
2.71432
2.71513
2.71603
2.71695
2.71798
2.71193
2.71193
2.71198
2.71211
2.71234
2.71271
2.7132
2.7138
2.71448
2.71526
2.71609
2.71699
2.7179
2.71889
2.71252
2.71255
2.71265
2.71285
2.71315
2.71359
2.71413
2.71477
2.71549
2.71627
2.7171
2.71797
2.71887
2.71981
2.71326
2.71334
2.71348
2.71374
2.71411
2.7146
2.71518
2.71584
2.71657
2.71735
2.71818
2.71902
2.7199
2.72076
2.71416
2.71432
2.7145
2.71483
2.71523
2.71575
2.71634
2.71701
2.71774
2.71851
2.71933
2.72012
2.72096
2.72173
2.71527
2.71549
2.71571
2.71606
2.71648
2.717
2.71761
2.71828
2.719
2.71975
2.72053
2.72127
2.72207
2.72275
2.7165
2.71679
2.71704
2.71742
2.71784
2.71838
2.71899
2.71965
2.72036
2.72107
2.7218
2.72247
2.7232
2.72376
2.71796
2.7183
2.71855
2.71892
2.71934
2.71988
2.72048
2.72111
2.72177
2.72242
2.72309
2.72371
2.72437
2.72483
2.71952
2.71985
2.72009
2.72047
2.72092
2.72145
2.72202
2.72262
2.72323
2.72383
2.72443
2.72499
2.72558
2.72593
2.72144
2.72163
2.7219
2.72221
2.72262
2.72308
2.72359
2.72412
2.72466
2.7252
2.72573
2.72624
2.72679
2.72716
2.71114
2.71102
2.7109
2.71081
2.71075
2.71076
2.71078
2.71086
2.71097
2.71114
2.71135
2.71158
2.71188
2.71226
2.711
2.71099
2.71093
2.71093
2.71097
2.71104
2.71116
2.71135
2.71156
2.71182
2.71209
2.71241
2.71277
2.7133
2.71106
2.7111
2.71111
2.71118
2.7113
2.71146
2.71167
2.71193
2.7122
2.71251
2.71282
2.7132
2.71359
2.71416
2.71127
2.71134
2.71143
2.71158
2.71176
2.71199
2.71226
2.71256
2.71288
2.71322
2.71357
2.71399
2.71444
2.71501
2.71165
2.71175
2.71192
2.71211
2.71235
2.71262
2.71292
2.71325
2.7136
2.71396
2.71434
2.71479
2.71524
2.71579
2.71221
2.71234
2.71255
2.71277
2.71303
2.71332
2.71365
2.71399
2.71435
2.71473
2.71513
2.71557
2.71603
2.71655
2.71291
2.71307
2.71329
2.71353
2.71381
2.71411
2.71445
2.7148
2.71517
2.71555
2.71594
2.71637
2.71681
2.71729
2.71376
2.71393
2.71414
2.71438
2.71466
2.71498
2.71532
2.71567
2.71602
2.71639
2.71677
2.71717
2.71759
2.71802
2.71472
2.71489
2.71508
2.71533
2.71562
2.71594
2.71626
2.71658
2.71691
2.71726
2.71762
2.71798
2.71837
2.71873
2.71579
2.71597
2.71613
2.71638
2.71666
2.71695
2.71723
2.71752
2.71783
2.71816
2.7185
2.71882
2.71915
2.71943
2.71694
2.71716
2.71729
2.71752
2.71774
2.71798
2.71824
2.71851
2.7188
2.71909
2.71939
2.71966
2.71993
2.72011
2.71824
2.71843
2.71849
2.71865
2.71882
2.71903
2.71927
2.71953
2.7198
2.72005
2.72031
2.72053
2.72073
2.72081
2.71953
2.71966
2.71968
2.7198
2.71994
2.72013
2.72036
2.72059
2.72081
2.72102
2.72121
2.72137
2.72151
2.72148
2.72099
2.72093
2.72092
2.72098
2.7211
2.72125
2.72144
2.72163
2.72182
2.72197
2.72211
2.72221
2.7223
2.72226
2.7123
2.71243
2.71245
2.71248
2.71244
2.71237
2.71226
2.71212
2.71195
2.71176
2.71157
2.71138
2.71121
2.71112
2.71221
2.71236
2.71241
2.71247
2.71247
2.71245
2.7124
2.71232
2.71221
2.71209
2.71196
2.71185
2.71175
2.71178
2.71229
2.71243
2.71252
2.71259
2.71263
2.71263
2.71261
2.71258
2.71254
2.7125
2.71244
2.71239
2.71235
2.7124
2.71251
2.71262
2.71274
2.71282
2.71288
2.7129
2.71291
2.71292
2.71291
2.71291
2.7129
2.71291
2.71292
2.713
2.71285
2.71296
2.71308
2.71317
2.71324
2.71328
2.7133
2.71333
2.71335
2.71337
2.71339
2.71345
2.71349
2.71358
2.7133
2.7134
2.71352
2.71362
2.71369
2.71373
2.71376
2.71379
2.71381
2.71384
2.71389
2.71396
2.71403
2.71412
2.71386
2.71396
2.71407
2.71415
2.71421
2.71424
2.71426
2.71429
2.71432
2.71436
2.71442
2.71449
2.71456
2.71463
2.71451
2.7146
2.71468
2.71473
2.71476
2.71478
2.7148
2.71483
2.71486
2.7149
2.71495
2.715
2.71505
2.7151
2.71522
2.71528
2.71531
2.71534
2.71535
2.71538
2.71539
2.71542
2.71544
2.71546
2.71548
2.71549
2.71551
2.71552
2.71594
2.71598
2.71597
2.71598
2.71599
2.71601
2.71602
2.71602
2.71601
2.71601
2.71599
2.71597
2.71595
2.7159
2.71669
2.71672
2.71668
2.71669
2.71668
2.71669
2.71667
2.71664
2.71659
2.71654
2.71648
2.71642
2.71635
2.71624
2.7175
2.71752
2.71744
2.71742
2.71737
2.71734
2.71728
2.71722
2.71714
2.71705
2.71695
2.71684
2.71672
2.71655
2.71837
2.71835
2.71823
2.71816
2.71807
2.71799
2.71789
2.7178
2.71768
2.71754
2.71739
2.71721
2.71703
2.7168
2.71935
2.71916
2.71896
2.71883
2.7187
2.71859
2.71847
2.71834
2.7182
2.71803
2.71783
2.71759
2.71736
2.71703
2.71318
2.7133
2.7133
2.71327
2.71318
2.71305
2.71286
2.71263
2.71236
2.71201
2.71166
2.71123
2.71076
2.71019
2.71314
2.71324
2.71326
2.71323
2.71315
2.71303
2.71285
2.71262
2.71234
2.712
2.71164
2.71125
2.71084
2.71041
2.7132
2.71327
2.71327
2.71323
2.71314
2.71301
2.71284
2.71263
2.71239
2.7121
2.71179
2.71145
2.71109
2.7107
2.71331
2.71336
2.71334
2.71329
2.71319
2.71307
2.7129
2.71271
2.71249
2.71224
2.71195
2.71164
2.71131
2.71098
2.7135
2.7135
2.71347
2.7134
2.7133
2.71317
2.71301
2.71284
2.71264
2.71241
2.71216
2.71188
2.71158
2.71129
2.71371
2.71369
2.71364
2.71356
2.71346
2.71334
2.71319
2.71301
2.71282
2.7126
2.71236
2.7121
2.71183
2.71156
2.71396
2.71393
2.71387
2.71379
2.71368
2.71356
2.7134
2.71322
2.71302
2.7128
2.71257
2.71232
2.71206
2.71179
2.71427
2.71423
2.71416
2.71407
2.71395
2.71381
2.71363
2.71344
2.71322
2.71299
2.71275
2.7125
2.71224
2.71198
2.71464
2.71459
2.7145
2.71439
2.71425
2.71407
2.71387
2.71366
2.71342
2.71317
2.71291
2.71265
2.71237
2.7121
2.71504
2.71498
2.71485
2.71472
2.71453
2.71433
2.7141
2.71386
2.7136
2.71333
2.71304
2.71276
2.71245
2.71216
2.71545
2.71536
2.7152
2.71503
2.71481
2.71458
2.71433
2.71406
2.71376
2.71345
2.71312
2.71281
2.71246
2.71216
2.71585
2.71572
2.71552
2.71532
2.71508
2.71481
2.71452
2.71421
2.71388
2.71355
2.71319
2.71284
2.71245
2.71211
2.71626
2.7161
2.71586
2.71563
2.71534
2.71503
2.71469
2.71435
2.71397
2.71358
2.71318
2.71278
2.71235
2.71195
2.71662
2.71636
2.71608
2.7158
2.71549
2.71516
2.71479
2.71441
2.71402
2.71362
2.71319
2.71275
2.71228
2.71177
2.71344
2.71345
2.71339
2.71329
2.71313
2.71292
2.71266
2.71234
2.71197
2.71153
2.71105
2.71048
2.70987
2.70912
2.71331
2.71331
2.71325
2.71314
2.71298
2.71276
2.71249
2.71215
2.71176
2.71131
2.71081
2.71024
2.70963
2.70896
2.71324
2.71323
2.71314
2.71301
2.71283
2.7126
2.71231
2.71199
2.7116
2.71116
2.71067
2.71011
2.70953
2.70886
2.71318
2.71315
2.71304
2.71289
2.7127
2.71247
2.71218
2.71184
2.71145
2.71101
2.71052
2.70997
2.7094
2.70878
2.71315
2.71309
2.71296
2.71281
2.7126
2.71235
2.71205
2.71171
2.71132
2.71088
2.7104
2.70987
2.70932
2.70871
2.71313
2.71305
2.71291
2.71273
2.7125
2.71224
2.71193
2.71158
2.71118
2.71074
2.71026
2.70974
2.7092
2.70862
2.71314
2.71303
2.71286
2.71266
2.71242
2.71214
2.71182
2.71145
2.71104
2.7106
2.71012
2.70961
2.70908
2.70853
2.71314
2.713
2.71281
2.71259
2.71233
2.71202
2.71168
2.7113
2.71088
2.71043
2.70995
2.70945
2.70893
2.7084
2.71315
2.71298
2.71277
2.71252
2.71223
2.7119
2.71153
2.71113
2.71069
2.71023
2.70974
2.70925
2.70873
2.70823
2.71313
2.71293
2.71269
2.71241
2.71209
2.71173
2.71134
2.71092
2.71046
2.70999
2.70949
2.709
2.70847
2.708
2.71312
2.71289
2.71262
2.7123
2.71195
2.71156
2.71113
2.71067
2.71018
2.70969
2.70918
2.70868
2.70814
2.70769
2.71304
2.71278
2.71247
2.71211
2.71173
2.71131
2.71085
2.71037
2.70987
2.70936
2.70883
2.70832
2.70777
2.70732
2.71295
2.71267
2.71231
2.71192
2.7115
2.71104
2.71054
2.71002
2.70948
2.70894
2.70838
2.70785
2.70728
2.70683
2.71276
2.71239
2.71202
2.71161
2.71116
2.71068
2.71016
2.70963
2.70908
2.70853
2.70797
2.70742
2.70685
2.7063
2.7125
2.71241
2.71226
2.71207
2.71186
2.71159
2.71128