/*--------------------------------*- C++ -*----------------------------------*\
| =========                 |                                                 |
| \\      /  F ield         | OpenFOAM: The Open Source CFD Toolbox           |
|  \\    /   O peration     | Version:  v2106                                 |
|   \\  /    A nd           | Website:  www.openfoam.com                      |
|    \\/     M anipulation  |                                                 |
\*---------------------------------------------------------------------------*/
FoamFile
{
    version     2.0;
    format      ascii;
    arch        "LSB;label=32;scalar=64";
    class       volScalarField;
    location    "0.000165";
    object      T;
}
// * * * * * * * * * * * * * * * * * * * * * * * * * * * * * * * * * * * * * //

dimensions      [0 0 0 1 0 0 0];

internalField   nonuniform List<scalar> 
18109
(
297.483
297.429
297.36
297.266
297.226
297.192
297.202
297.385
297.358
297.286
297.213
297.171
297.16
297.179
297.217
297.215
297.157
297.125
297.11
297.128
297.158
297.011
297.022
297.004
297.022
297.048
297.093
297.141
296.827
296.854
296.882
296.938
296.995
297.064
297.131
296.662
296.72
296.791
296.88
296.963
297.048
297.125
296.539
296.64
296.75
296.86
296.957
297.047
297.129
296.474
296.614
296.748
296.866
296.966
297.054
297.137
298.291
298.247
298.203
298.137
298.1
298.091
298.104
298.149
298.23
298.353
298.512
298.696
298.939
299.228
298.179
298.159
298.106
298.074
298.056
298.066
298.089
298.146
298.227
298.355
298.523
298.739
298.972
299.183
297.991
298
297.971
297.983
298.001
298.039
298.08
298.148
298.232
298.352
298.509
298.702
298.907
299.102
297.793
297.823
297.837
297.89
297.946
298.011
298.073
298.152
298.244
298.363
298.51
298.684
298.867
299.039
297.62
297.673
297.736
297.82
297.901
297.987
298.069
298.159
298.258
298.374
298.505
298.651
298.805
298.96
297.476
297.568
297.67
297.777
297.877
297.976
298.068
298.166
298.268
298.379
298.5
298.628
298.769
298.923
297.386
297.517
297.646
297.766
297.875
297.976
298.073
298.174
298.276
298.382
298.493
298.609
298.741
298.897
297.352
297.51
297.656
297.779
297.886
297.985
298.082
298.182
298.283
298.386
298.491
298.603
298.735
298.9
297.348
297.537
297.696
297.816
297.915
298.006
298.098
298.195
298.295
298.396
298.5
298.609
298.749
298.918
297.392
297.596
297.757
297.864
297.95
298.031
298.118
298.213
298.313
298.415
298.519
298.632
298.78
298.94
297.477
297.697
297.835
297.919
297.985
298.053
298.134
298.229
298.331
298.435
298.543
298.662
298.809
298.945
297.568
297.787
297.898
297.96
298.009
298.066
298.142
298.237
298.342
298.453
298.57
298.69
298.833
298.924
297.591
297.826
297.936
297.982
298.027
298.083
298.154
298.246
298.351
298.462
298.58
298.7
298.833
298.913
297.573
297.762
297.884
297.968
298.031
298.092
298.166
298.259
298.36
298.466
298.575
298.689
298.791
298.887
297.51
297.4
297.16
296.926
296.853
296.996
298.327
298.236
297.999
297.698
297.52
297.541
298.253
298.205
298.086
298.06
298.116
298.325
298.241
298.235
298.212
298.32
298.481
298.625
298.179
298.211
298.246
298.392
298.538
298.653
298.156
298.213
298.302
298.426
298.441
298.383
298.131
298.193
298.291
298.401
298.247
297.717
298.137
298.193
298.271
298.293
297.882
296.776
298.18
298.229
298.276
298.182
297.524
295.907
298.275
298.33
298.365
298.141
297.259
295.317
298.415
298.486
298.501
298.163
297.039
294.995
298.596
298.668
298.608
298.166
296.938
295.105
298.812
298.865
298.77
298.252
297.118
295.763
299.031
299.056
298.93
298.438
297.62
296.881
299.265
299.29
299.131
298.78
298.37
298.122
299.412
299.446
299.434
299.355
299.323
299.397
299.351
299.491
299.609
299.774
300.036
300.387
299.311
299.508
299.753
300.091
300.515
300.887
299.236
299.485
299.812
300.222
300.638
300.863
299.183
299.475
299.844
300.244
300.546
300.602
299.151
299.464
299.825
300.115
300.212
299.878
299.14
299.45
299.733
299.861
299.654
298.606
299.146
299.397
299.537
299.43
298.798
297.126
299.139
299.294
299.324
298.995
297.946
295.916
299.108
299.183
299.101
298.57
297.272
295.198
299.077
299.077
298.872
298.125
296.746
295.15
299.03
298.921
298.588
297.787
296.653
295.608
298.959
298.792
298.426
297.766
297.031
296.642
298.845
298.661
298.348
297.941
297.701
297.686
298.889
298.77
298.602
298.452
298.501
298.685
298.737
298.66
298.591
298.634
298.794
298.958
298.678
298.663
298.663
298.77
298.899
298.897
298.577
298.592
298.64
298.646
298.593
298.057
298.479
298.508
298.563
298.376
297.825
296.335
298.374
298.401
298.367
297.832
296.488
294.069
298.272
298.267
298.032
297.063
295.008
292.129
298.176
298.108
297.594
296.246
293.776
290.968
298.092
297.915
297.152
295.556
293.087
290.633
298.013
297.69
296.789
295.116
292.969
290.918
297.924
297.455
296.515
295.011
293.193
291.813
297.787
297.284
296.378
295
293.706
293.004
297.593
297.122
296.397
295.337
294.556
294.216
297.272
296.864
296.292
295.716
295.432
295.416
297.068
296.851
296.063
294.471
292.42
290.956
297.233
297.046
296.358
294.981
293.4
292.504
297.349
297.176
296.614
295.597
294.575
294.096
297.397
297.268
296.799
296.21
295.733
295.627
297.424
297.127
296.712
296.327
296.149
296.179
297.272
296.943
296.547
296.328
296.286
296.332
297.27
296.961
296.631
296.485
296.331
296.032
297.17
296.877
296.59
296.431
296.08
295.181
297.143
296.897
296.636
296.32
295.442
293.473
297.135
296.928
296.674
296.064
294.545
291.754
297.18
296.988
296.688
295.721
293.688
290.519
297.263
297.096
296.703
295.517
293.155
290.056
297.42
297.299
296.841
295.521
293.092
290.306
297.639
297.525
297
295.614
293.417
291.057
297.857
297.742
297.194
295.907
293.958
292.11
298.054
297.939
297.431
296.294
294.694
293.461
298.174
298.06
297.623
296.715
295.611
294.942
298.228
298.144
297.741
297.135
296.507
296.245
297.877
298.172
298.044
294.577
285.071
298.55
298.511
296.543
289.749
278.892
298.612
297.282
292.629
283.707
274.975
297.977
294.669
287.726
278.555
271.042
296.533
291.336
283.58
276.141
269.411
294.588
288.596
281.903
276.158
269.629
292.909
287.158
282.604
279.948
275.648
291.843
287.122
284.664
283.677
279.627
273.35
291.568
288.003
286.984
286.698
281.811
272.626
291.972
289.84
290.05
290.574
286.293
276.321
293.156
292.186
293.146
294.254
291.301
283.126
273.925
294.769
294.685
296.036
297.332
295.06
288.501
281.528
277.298
296.547
297.102
298.498
299.534
297.55
293.377
290.341
293.309
298.302
299.23
300.223
300.247
297.484
290.146
286.597
283.647
299.905
300.639
301.04
299.993
294.783
284.627
277.369
273.722
300.89
301.262
301.029
297.97
290.591
281.157
274.666
273.066
301.157
300.92
298.884
293.494
286.156
280.231
278.316
276.242
300.777
299.187
294.855
287.866
280.961
275.599
273.279
276.173
299.461
295.981
290.148
283.694
277.917
271.59
266.949
264.547
297.322
292.464
287.092
282.799
278.017
271.893
265.296
263.166
295.047
290.01
286.274
284.509
281.802
276.248
270.451
265.589
293.454
289.528
287.661
287.253
284.398
277.927
270.976
270.112
292.756
290.035
289.504
289.273
284.858
275.403
292.837
291.253
291.702
292.042
288.012
278.815
293.719
293.208
294.39
295.005
291.145
283.145
295.077
295.517
296.83
296.978
293.068
286.886
296.655
297.517
298.34
297.728
293.841
289.47
298.089
298.554
298.549
296.07
290.157
298.854
298.798
297.042
291.752
284.223
298.735
297.19
293.092
286.679
280.267
297.652
293.99
288.588
283.323
279.528
295.235
290.172
285.459
282.115
278.292
292.397
287.591
284.567
282.207
276.893
290.188
286.881
285.702
284.049
278.418
288.86
286.957
287.105
286.091
281.102
288.565
287.591
288.241
287.289
282.068
288.762
288.366
289.105
287.474
280.14
289.74
290.186
291.467
290.388
282.745
291.242
292.397
294.066
292.972
285.326
292.973
294.483
295.977
294.524
287.569
294.583
295.928
296.8
294.848
288.839
295.776
296.035
295.389
290.972
282.784
296.208
295.504
292.061
284.535
274.931
295.631
292.678
286.854
278.892
271.028
294.052
288.855
282.438
276.564
271.391
291.512
285.321
280.256
276.523
271.285
289.107
283.511
280.265
277.193
270.067
287.425
283.217
281.462
278.081
269.755
286.524
283.653
283.465
281.864
275.185
286.702
284.854
285.321
284.226
277.724
287.77
286.617
286.88
285.595
277.121
289.356
288.903
289.508
289.293
281.809
291.104
291.25
292.38
292.624
286.015
292.955
293.608
295.026
295.299
289.753
294.834
295.786
297.043
296.653
291.986
296.513
297.414
298.044
296.611
290.494
299.755
299.755
299.749
299.749
299.738
299.738
299.74
299.769
299.818
299.904
300.035
300.2
300.406
300.649
299.601
299.641
299.639
299.665
299.678
299.699
299.716
299.757
299.818
299.914
300.05
300.234
300.458
300.691
299.417
299.481
299.514
299.572
299.616
299.661
299.699
299.752
299.821
299.919
300.051
300.223
300.427
300.636
299.257
299.336
299.406
299.489
299.558
299.623
299.681
299.748
299.828
299.93
300.061
300.224
300.411
300.604
299.125
299.23
299.327
299.429
299.514
299.596
299.672
299.752
299.841
299.945
300.071
300.217
300.38
300.546
299.036
299.166
299.284
299.397
299.495
299.588
299.675
299.763
299.857
299.961
300.08
300.21
300.353
300.504
299.003
299.15
299.282
299.399
299.499
299.594
299.685
299.778
299.876
299.977
300.088
300.205
300.335
300.476
299.01
299.169
299.305
299.42
299.516
299.608
299.701
299.797
299.896
299.995
300.1
300.207
300.33
300.47
299.042
299.215
299.353
299.459
299.547
299.635
299.726
299.823
299.921
300.02
300.12
300.222
300.343
300.486
299.11
299.28
299.407
299.499
299.578
299.662
299.752
299.849
299.949
300.048
300.149
300.253
300.378
300.519
299.19
299.359
299.465
299.538
299.604
299.682
299.771
299.87
299.973
300.076
300.18
300.289
300.422
300.56
299.272
299.417
299.5
299.556
299.613
299.686
299.774
299.875
299.982
300.09
300.201
300.32
300.462
300.584
299.29
299.436
299.508
299.558
299.616
299.686
299.771
299.871
299.978
300.091
300.21
300.336
300.483
300.593
299.283
299.416
299.481
299.549
299.61
299.679
299.763
299.86
299.963
300.076
300.194
300.318
300.454
300.577
302.088
302.199
302.255
302.315
302.34
302.354
302.35
302.355
302.377
302.423
302.51
302.638
302.812
302.973
301.953
302.061
302.14
302.221
302.268
302.299
302.313
302.332
302.365
302.423
302.517
302.654
302.837
303.043
301.827
301.947
302.044
302.135
302.198
302.244
302.276
302.308
302.352
302.417
302.516
302.651
302.83
303.026
301.725
301.859
301.971
302.069
302.141
302.196
302.239
302.283
302.339
302.414
302.52
302.658
302.832
303.023
301.669
301.812
301.931
302.031
302.107
302.168
302.22
302.272
302.336
302.418
302.528
302.663
302.826
303
301.656
301.802
301.925
302.025
302.102
302.164
302.221
302.279
302.349
302.436
302.544
302.673
302.824
302.981
301.678
301.827
301.95
302.045
302.118
302.179
302.238
302.3
302.374
302.461
302.567
302.688
302.824
302.967
301.736
301.881
301.998
302.083
302.149
302.207
302.266
302.332
302.409
302.497
302.598
302.71
302.834
302.966
301.822
301.957
302.06
302.132
302.189
302.243
302.304
302.373
302.453
302.542
302.641
302.746
302.86
302.983
301.917
302.033
302.118
302.176
302.225
302.278
302.341
302.416
302.5
302.592
302.691
302.794
302.905
303.023
302.008
302.106
302.173
302.215
302.256
302.306
302.372
302.451
302.543
302.641
302.744
302.848
302.962
303.08
302.084
302.158
302.199
302.229
302.266
302.317
302.387
302.474
302.574
302.681
302.791
302.902
303.023
303.138
302.114
302.176
302.2
302.226
302.262
302.312
302.384
302.476
302.585
302.702
302.824
302.945
303.076
303.192
302.105
302.146
302.178
302.212
302.248
302.297
302.368
302.461
302.573
302.701
302.836
302.962
303.104
303.171
304.081
304.208
304.291
304.367
304.406
304.427
304.432
304.435
304.45
304.482
304.547
304.645
304.781
304.924
303.988
304.106
304.206
304.291
304.345
304.377
304.396
304.412
304.438
304.483
304.556
304.661
304.801
304.975
303.904
304.035
304.145
304.234
304.295
304.335
304.362
304.388
304.424
304.478
304.559
304.668
304.811
304.981
303.869
304.002
304.114
304.201
304.262
304.303
304.336
304.368
304.412
304.475
304.564
304.679
304.824
304.994
303.871
304.002
304.111
304.193
304.25
304.291
304.326
304.363
304.413
304.482
304.576
304.695
304.839
305.002
303.9
304.03
304.134
304.208
304.259
304.296
304.331
304.371
304.425
304.499
304.596
304.716
304.856
305.01
303.961
304.085
304.178
304.24
304.283
304.316
304.35
304.392
304.45
304.528
304.627
304.744
304.876
305.018
304.049
304.159
304.237
304.285
304.319
304.346
304.38
304.425
304.486
304.567
304.665
304.778
304.902
305.03
304.148
304.24
304.3
304.335
304.359
304.384
304.418
304.467
304.532
304.616
304.713
304.822
304.937
305.054
304.245
304.316
304.358
304.38
304.398
304.421
304.458
304.513
304.584
304.671
304.769
304.874
304.984
305.094
304.34
304.387
304.409
304.419
304.429
304.452
304.494
304.556
304.636
304.728
304.828
304.933
305.039
305.148
304.414
304.442
304.446
304.445
304.452
304.474
304.521
304.593
304.682
304.783
304.889
304.996
305.102
305.209
304.463
304.472
304.461
304.455
304.461
304.485
304.538
304.618
304.716
304.829
304.945
305.061
305.171
305.283
304.45
304.47
304.454
304.451
304.456
304.484
304.544
304.632
304.737
304.86
304.99
305.114
305.232
305.325
305.642
305.76
305.837
305.902
305.95
305.984
306.012
306.039
306.07
306.111
306.165
306.236
306.326
306.438
305.614
305.719
305.799
305.865
305.915
305.953
305.985
306.018
306.057
306.107
306.17
306.252
306.348
306.476
305.604
305.705
305.787
305.85
305.898
305.935
305.969
306.005
306.049
306.105
306.176
306.263
306.365
306.493
305.627
305.722
305.799
305.856
305.899
305.933
305.966
306.003
306.051
306.112
306.188
306.281
306.387
306.517
305.674
305.759
305.827
305.875
305.911
305.941
305.972
306.01
306.06
306.125
306.205
306.302
306.412
306.54
305.742
305.817
305.873
305.91
305.936
305.96
305.987
306.025
306.076
306.145
306.228
306.329
306.44
306.565
305.825
305.887
305.928
305.953
305.97
305.988
306.012
306.049
306.101
306.173
306.259
306.36
306.469
306.59
305.917
305.963
305.988
306
306.009
306.02
306.042
306.079
306.133
306.206
306.293
306.394
306.5
306.615
306.007
306.034
306.044
306.045
306.046
306.053
306.074
306.114
306.17
306.245
306.332
306.431
306.534
306.644
306.087
306.096
306.092
306.083
306.079
306.086
306.109
306.152
306.212
306.288
306.376
306.473
306.572
306.678
306.161
306.15
306.13
306.112
306.105
306.113
306.14
306.189
306.254
306.334
306.422
306.519
306.615
306.72
306.216
306.191
306.158
306.133
306.124
306.135
306.168
306.226
306.298
306.384
306.475
306.572
306.667
306.77
306.249
306.214
306.172
306.145
306.139
306.152
306.192
306.258
306.34
306.433
306.53
306.63
306.726
306.833
306.229
306.208
306.164
306.142
306.143
306.16
306.209
306.286
306.378
306.48
306.585
306.688
306.788
306.887
306.71
306.785
306.836
306.879
306.919
306.959
307.003
307.053
307.105
307.165
307.225
307.293
307.36
307.443
306.74
306.8
306.845
306.886
306.923
306.961
307.003
307.052
307.106
307.169
307.232
307.305
307.376
307.465
306.779
306.83
306.871
306.905
306.938
306.972
307.011
307.059
307.112
307.174
307.239
307.313
307.386
307.474
306.833
306.875
306.908
306.936
306.963
306.993
307.029
307.074
307.126
307.189
307.254
307.329
307.405
307.493
306.897
306.929
306.955
306.976
306.997
307.022
307.054
307.096
307.146
307.207
307.274
307.348
307.426
307.514
306.967
306.99
307.007
307.02
307.034
307.054
307.082
307.122
307.171
307.231
307.297
307.372
307.451
307.539
307.038
307.051
307.059
307.064
307.073
307.089
307.114
307.151
307.198
307.257
307.324
307.4
307.479
307.566
307.107
307.11
307.108
307.106
307.11
307.122
307.145
307.18
307.227
307.286
307.353
307.429
307.509
307.596
307.169
307.16
307.148
307.14
307.142
307.151
307.173
307.209
307.255
307.314
307.382
307.458
307.539
307.626
307.218
307.2
307.18
307.169
307.168
307.178
307.2
307.237
307.285
307.345
307.413
307.491
307.573
307.66
307.253
307.227
307.203
307.19
307.189
307.2
307.225
307.264
307.314
307.376
307.447
307.526
307.608
307.699
307.277
307.245
307.218
307.204
307.205
307.219
307.247
307.291
307.346
307.412
307.485
307.566
307.651
307.742
307.289
307.254
307.227
307.216
307.221
307.238
307.272
307.322
307.382
307.453
307.53
307.614
307.699
307.797
307.27
307.248
307.226
307.223
307.231
307.255
307.297
307.354
307.421
307.497
307.577
307.661
307.751
307.844
307.397
307.424
307.444
307.471
307.502
307.541
307.586
307.64
307.694
307.754
307.809
307.87
307.921
307.981
307.448
307.463
307.478
307.501
307.528
307.564
307.608
307.659
307.713
307.772
307.826
307.886
307.937
307.998
307.501
307.508
307.52
307.538
307.561
307.593
307.632
307.679
307.728
307.783
307.835
307.893
307.944
308.004
307.553
307.552
307.559
307.573
307.593
307.621
307.657
307.7
307.747
307.8
307.85
307.905
307.957
308.017
307.602
307.598
307.6
307.609
307.625
307.65
307.683
307.723
307.766
307.815
307.865
307.918
307.971
308.031
307.648
307.64
307.637
307.643
307.656
307.678
307.707
307.744
307.785
307.832
307.881
307.934
307.988
308.049
307.689
307.678
307.671
307.674
307.685
307.704
307.73
307.764
307.804
307.85
307.899
307.952
308.01
308.072
307.726
307.711
307.702
307.702
307.711
307.728
307.752
307.784
307.823
307.868
307.919
307.974
308.034
308.099
307.756
307.739
307.728
307.727
307.734
307.749
307.772
307.803
307.842
307.888
307.94
307.998
308.062
308.129
307.78
307.762
307.751
307.749
307.755
307.77
307.792
307.823
307.862
307.91
307.965
308.025
308.094
308.164
307.797
307.781
307.77
307.769
307.776
307.79
307.813
307.846
307.886
307.936
307.994
308.058
308.131
308.204
307.812
307.798
307.788
307.789
307.796
307.812
307.837
307.871
307.914
307.966
308.027
308.094
308.171
308.247
307.825
307.812
307.805
307.808
307.818
307.837
307.866
307.904
307.95
308.006
308.071
308.142
308.22
308.303
307.825
307.828
307.824
307.83
307.845
307.868
307.901
307.942
307.991
308.048
308.113
308.183
308.266
308.347
307.729
307.719
307.716
307.722
307.736
307.758
307.786
307.822
307.86
307.906
307.948
307.999
308.044
308.098
307.761
307.749
307.745
307.749
307.763
307.784
307.812
307.847
307.885
307.93
307.973
308.023
308.066
308.117
307.792
307.779
307.774
307.777
307.789
307.809
307.836
307.869
307.905
307.947
307.988
308.035
308.077
308.128
307.817
307.802
307.797
307.799
307.811
307.831
307.857
307.89
307.926
307.966
308.006
308.052
308.094
308.144
307.84
307.825
307.819
307.821
307.833
307.852
307.878
307.91
307.945
307.985
308.025
308.069
308.112
308.162
307.859
307.845
307.838
307.842
307.853
307.872
307.898
307.93
307.965
308.004
308.045
308.089
308.133
308.184
307.878
307.865
307.858
307.862
307.873
307.893
307.918
307.95
307.986
308.025
308.067
308.111
308.158
308.209
307.897
307.885
307.879
307.884
307.895
307.914
307.94
307.971
308.007
308.047
308.091
308.137
308.187
308.239
307.916
307.906
307.901
307.907
307.919
307.938
307.963
307.995
308.032
308.073
308.12
308.167
308.22
308.274
307.937
307.931
307.928
307.934
307.945
307.964
307.989
308.021
308.059
308.102
308.151
308.201
308.258
308.313
307.959
307.956
307.955
307.962
307.973
307.992
308.019
308.052
308.093
308.138
308.19
308.243
308.303
308.36
307.986
307.988
307.989
307.996
308.008
308.027
308.053
308.087
308.129
308.175
308.23
308.286
308.351
308.409
308.013
308.018
308.02
308.029
308.043
308.064
308.093
308.13
308.175
308.225
308.283
308.342
308.409
308.471
308.045
308.057
308.063
308.075
308.092
308.115
308.145
308.181
308.225
308.274
308.332
308.392
308.462
308.525
307.738
307.713
307.7
307.692
307.695
307.706
307.724
307.751
307.784
307.824
307.865
307.914
307.961
308.016
307.75
307.727
307.716
307.71
307.713
307.727
307.746
307.775
307.808
307.849
307.891
307.941
307.988
308.044
307.761
307.741
307.73
307.726
307.732
307.746
307.767
307.796
307.83
307.87
307.911
307.959
308.005
308.06
307.77
307.751
307.742
307.74
307.748
307.764
307.786
307.816
307.851
307.892
307.933
307.981
308.027
308.082
307.779
307.763
307.755
307.755
307.765
307.781
307.805
307.836
307.872
307.913
307.955
308.002
308.049
308.104
307.79
307.776
307.769
307.771
307.782
307.8
307.825
307.857
307.894
307.935
307.978
308.026
308.074
308.129
307.803
307.792
307.786
307.79
307.801
307.821
307.847
307.88
307.918
307.96
308.005
308.053
308.103
308.157
307.821
307.812
307.807
307.813
307.824
307.845
307.872
307.906
307.945
307.988
308.035
308.084
308.137
308.191
307.842
307.835
307.832
307.84
307.852
307.874
307.902
307.938
307.978
308.022
308.071
308.12
308.176
308.23
307.869
307.866
307.865
307.874
307.887
307.909
307.938
307.974
308.016
308.061
308.112
308.162
308.221
308.274
307.897
307.9
307.9
307.911
307.927
307.95
307.981
308.018
308.062
308.108
308.162
308.214
308.274
308.326
307.936
307.943
307.947
307.961
307.978
308.002
308.032
308.069
308.112
308.159
308.214
308.268
308.331
308.382
307.975
307.987
307.994
308.011
308.032
308.058
308.091
308.129
308.175
308.225
308.281
308.337
308.4
308.45
308.03
308.049
308.063
308.08
308.103
308.129
308.162
308.199
308.243
308.291
308.345
308.4
308.463
308.516
307.604
307.585
307.571
307.561
307.557
307.559
307.566
307.58
307.601
307.632
307.67
307.717
307.766
307.831
307.606
307.587
307.577
307.57
307.569
307.575
307.586
307.603
307.628
307.663
307.704
307.754
307.806
307.865
307.608
307.593
307.585
307.581
307.583
307.592
307.605
307.626
307.653
307.69
307.732
307.783
307.834
307.893
307.612
307.601
307.595
307.593
307.599
307.609
307.626
307.65
307.681
307.72
307.764
307.816
307.867
307.926
307.622
307.613
307.609
307.609
307.617
307.63
307.649
307.676
307.709
307.751
307.796
307.848
307.9
307.958
307.636
307.629
307.626
307.63
307.638
307.654
307.676
307.706
307.742
307.786
307.832
307.884
307.937
307.994
307.655
307.65
307.649
307.655
307.665
307.683
307.708
307.741
307.78
307.824
307.872
307.924
307.977
308.032
307.679
307.677
307.677
307.686
307.697
307.718
307.746
307.781
307.822
307.868
307.918
307.968
308.022
308.074
307.708
307.709
307.712
307.722
307.736
307.76
307.791
307.829
307.872
307.918
307.968
308.018
308.071
308.12
307.747
307.75
307.754
307.767
307.784
307.811
307.845
307.884
307.928
307.974
308.023
308.071
308.124
308.169
307.789
307.797
307.804
307.82
307.841
307.871
307.907
307.947
307.991
308.035
308.084
308.13
308.181
308.223
307.844
307.858
307.867
307.887
307.911
307.941
307.977
308.015
308.057
308.1
308.147
308.191
308.242
308.28
307.9
307.922
307.935
307.958
307.985
308.016
308.052
308.09
308.131
308.173
308.219
308.262
308.31
308.345
307.984
308.006
308.024
308.044
308.071
308.099
308.132
308.167
308.205
308.244
308.286
308.328
308.375
308.412
307.512
307.497
307.487
307.478
307.471
307.47
307.473
307.48
307.495
307.515
307.542
307.575
307.612
307.66
307.509
307.498
307.49
307.484
307.482
307.484
307.491
307.504
307.523
307.548
307.579
307.617
307.659
307.706
307.511
307.503
307.498
307.495
307.497
307.502
307.513
307.53
307.553
307.581
307.615
307.654
307.696
307.743
307.518
307.513
307.51
307.511
307.515
307.524
307.54
307.561
307.587
307.619
307.655
307.695
307.737
307.785
307.531
307.529
307.529
307.532
307.539
307.552
307.571
307.595
307.624
307.658
307.695
307.736
307.778
307.825
307.55
307.55
307.552
307.558
307.568
307.585
307.607
307.634
307.666
307.701
307.739
307.779
307.821
307.866
307.577
307.578
307.583
307.591
307.605
307.625
307.65
307.678
307.711
307.747
307.784
307.824
307.865
307.908
307.61
307.614
307.621
307.632
307.649
307.671
307.697
307.727
307.76
307.796
307.833
307.872
307.912
307.951
307.651
307.658
307.667
307.681
307.7
307.723
307.75
307.78
307.813
307.849
307.886
307.922
307.96
307.996
307.701
307.711
307.722
307.737
307.757
307.78
307.808
307.838
307.871
307.905
307.94
307.974
308.011
308.042
307.757
307.771
307.782
307.799
307.819
307.843
307.871
307.901
307.933
307.965
307.998
308.029
308.062
308.088
307.824
307.839
307.851
307.868
307.887
307.911
307.938
307.967
307.997
308.026
308.056
308.085
308.115
308.136
307.895
307.91
307.921
307.939
307.959
307.983
308.009
308.036
308.063
308.09
308.118
308.143
308.17
308.186
307.983
307.991
308.003
308.018
308.036
308.057
308.08
308.104
308.128
308.152
308.176
308.2
308.225
308.242
307.515
307.509
307.504
307.499
307.497
307.497
307.498
307.502
307.507
307.514
307.524
307.534
307.548
307.565
307.508
307.508
307.505
307.505
307.506
307.51
307.515
307.524
307.533
307.545
307.557
307.572
307.588
307.613
307.511
307.513
307.513
307.516
307.521
307.528
307.538
307.55
307.562
307.576
307.591
307.608
307.626
307.651
307.52
307.523
307.527
307.534
307.542
307.552
307.565
307.579
307.593
307.608
307.624
307.644
307.664
307.69
307.538
307.542
307.549
307.558
307.569
307.581
307.595
307.61
307.625
307.642
307.659
307.68
307.7
307.725
307.563
307.569
307.578
307.588
307.6
307.613
307.628
307.643
307.66
307.677
307.695
307.715
307.736
307.76
307.595
307.602
307.612
307.623
307.635
307.649
307.664
307.68
307.697
307.714
307.732
307.751
307.772
307.794
307.634
307.641
307.65
307.661
307.674
307.688
307.704
307.72
307.736
307.752
307.769
307.788
307.807
307.827
307.677
307.685
307.693
307.705
307.718
307.732
307.747
307.761
307.776
307.792
307.808
307.825
307.843
307.859
307.726
307.734
307.741
307.752
307.765
307.778
307.791
307.804
307.818
307.833
307.848
307.863
307.878
307.891
307.778
307.788
307.794
307.804
307.814
307.825
307.836
307.849
307.862
307.875
307.889
307.901
307.913
307.922
307.837
307.846
307.848
307.855
307.863
307.873
307.884
307.895
307.907
307.919
307.93
307.94
307.95
307.954
307.896
307.902
307.903
307.908
307.914
307.923
307.933
307.943
307.954
307.963
307.972
307.979
307.985
307.984
307.963
307.96
307.959
307.962
307.967
307.974
307.983
307.991
307.999
308.006
308.012
308.017
308.021
308.02
307.567
307.573
307.574
307.575
307.573
307.57
307.565
307.559
307.551
307.542
307.534
307.525
307.517
307.513
307.563
307.57
307.572
307.575
307.575
307.574
307.571
307.568
307.563
307.557
307.551
307.546
307.542
307.543
307.567
307.573
307.577
307.58
307.582
307.582
307.581
307.58
307.578
307.576
307.573
307.571
307.569
307.571
307.577
307.582
307.587
307.591
307.593
307.594
307.594
307.595
307.595
307.594
307.594
307.594
307.595
307.598
307.592
307.597
307.602
307.606
307.609
307.611
307.612
307.613
307.614
307.615
307.616
307.619
307.621
307.625
307.613
307.617
307.623
307.627
307.63
307.632
307.633
307.634
307.635
307.637
307.639
307.642
307.645
307.65
307.638
307.643
307.647
307.651
307.653
307.655
307.656
307.657
307.658
307.661
307.663
307.666
307.67
307.673
307.668
307.672
307.675
307.677
307.679
307.68
307.68
307.682
307.683
307.685
307.687
307.689
307.692
307.694
307.7
307.703
307.704
307.705
307.706
307.707
307.707
307.708
307.709
307.71
307.711
307.712
307.713
307.713
307.733
307.734
307.734
307.734
307.735
307.735
307.736
307.736
307.736
307.735
307.735
307.734
307.733
307.731
307.767
307.768
307.766
307.766
307.766
307.766
307.765
307.764
307.762
307.76
307.757
307.754
307.751
307.746
307.804
307.804
307.801
307.799
307.797
307.796
307.793
307.791
307.787
307.783
307.778
307.773
307.768
307.76
307.843
307.842
307.837
307.833
307.829
307.825
307.821
307.817
307.811
307.805
307.798
307.79
307.782
307.772
307.888
307.879
307.87
307.864
307.858
307.853
307.848
307.842
307.835
307.828
307.819
307.808
307.797
307.782
307.607
307.613
307.613
307.611
307.607
307.601
307.593
307.582
307.569
307.554
307.538
307.518
307.497
307.471
307.605
307.61
307.611
307.609
307.606
307.6
307.592
307.581
307.569
307.553
307.537
307.519
307.501
307.481
307.608
307.611
307.611
307.609
307.605
307.599
307.592
307.582
307.571
307.558
307.544
307.528
307.512
307.494
307.613
307.615
307.614
307.612
307.608
307.602
307.594
307.585
307.575
307.564
307.551
307.537
307.522
307.507
307.621
307.622
307.62
307.617
307.612
307.607
307.599
307.591
307.582
307.572
307.561
307.548
307.534
307.521
307.631
307.63
307.628
307.624
307.62
307.614
307.607
307.6
307.591
307.581
307.57
307.558
307.546
307.533
307.643
307.641
307.638
307.635
307.63
307.624
307.617
307.609
307.6
307.59
307.579
307.568
307.556
307.544
307.657
307.655
307.652
307.648
307.642
307.636
307.628
307.619
307.609
307.599
307.588
307.576
307.564
307.552
307.673
307.671
307.667
307.662
307.655
307.648
307.639
307.629
307.618
307.607
307.595
307.583
307.57
307.558
307.692
307.689
307.683
307.677
307.668
307.659
307.649
307.638
307.626
307.614
307.601
307.588
307.574
307.561
307.711
307.706
307.699
307.691
307.681
307.671
307.659
307.647
307.633
307.619
307.604
307.59
307.574
307.561
307.729
307.723
307.713
307.704
307.693
307.681
307.668
307.654
307.639
307.624
307.607
307.591
307.574
307.559
307.747
307.74
307.729
307.718
307.705
307.691
307.676
307.66
307.643
307.625
307.607
307.589
307.569
307.551
307.764
307.751
307.739
307.726
307.712
307.697
307.68
307.663
307.645
307.627
307.608
307.588
307.566
307.543
307.619
307.619
307.616
307.612
307.604
307.595
307.583
307.569
307.552
307.532
307.51
307.484
307.456
307.422
307.613
307.613
307.61
307.605
307.598
307.588
307.575
307.56
307.542
307.522
307.499
307.473
307.446
307.415
307.61
307.609
307.605
307.599
307.591
307.58
307.568
307.553
307.535
307.515
307.493
307.468
307.441
307.411
307.607
307.605
307.6
307.594
307.585
307.575
307.562
307.546
307.529
307.508
307.486
307.461
307.435
307.407
307.606
307.603
307.597
307.59
307.581
307.569
307.556
307.54
307.522
307.502
307.481
307.457
307.431
307.404
307.605
307.601
307.595
307.587
307.576
307.565
307.55
307.534
307.516
307.496
307.474
307.451
307.426
307.4
307.605
307.6
307.592
307.583
307.573
307.56
307.545
307.529
307.51
307.49
307.468
307.445
307.421
307.395
307.605
307.599
307.59
307.58
307.568
307.555
307.539
307.522
307.503
307.482
307.46
307.437
307.414
307.39
307.606
307.598
307.588
307.577
307.564
307.549
307.532
307.514
307.494
307.473
307.451
307.428
307.405
307.382
307.605
307.596
307.585
307.572
307.558
307.541
307.523
307.504
307.484
307.462
307.439
307.417
307.393
307.371
307.604
307.594
307.581
307.567
307.551
307.533
307.514
307.493
307.471
307.448
307.425
307.402
307.378
307.357
307.601
307.589
307.574
307.558
307.541
307.522
307.501
307.479
307.457
307.433
307.409
307.386
307.361
307.341
307.597
307.584
307.567
307.55
307.531
307.51
307.487
307.464
307.439
307.414
307.389
307.365
307.339
307.318
307.588
307.571
307.554
307.536
307.515
307.493
307.47
307.445
307.421
307.396
307.37
307.345
307.319
307.294
307.576
307.572
307.565
307.557
307.547
307.535
307.521
307.504