/*--------------------------------*- C++ -*----------------------------------*\
| =========                 |                                                 |
| \\      /  F ield         | OpenFOAM: The Open Source CFD Toolbox           |
|  \\    /   O peration     | Version:  v2106                                 |
|   \\  /    A nd           | Website:  www.openfoam.com                      |
|    \\/     M anipulation  |                                                 |
\*---------------------------------------------------------------------------*/
FoamFile
{
    version     2.0;
    format      ascii;
    arch        "LSB;label=32;scalar=64";
    class       volScalarField;
    location    "0.000126";
    object      k;
}
// * * * * * * * * * * * * * * * * * * * * * * * * * * * * * * * * * * * * * //

dimensions      [0 2 -2 0 0 0 0];

internalField   nonuniform List<scalar> 
144746
(
0.179123
0.153587
0.185611
0.220477
0.268066
0.317419
0.355858
0.378328
0.38542
0.373158
0.328434
0.254756
0.186477
0.138724
0.196073
0.120262
0.102787
0.104716
0.119508
0.141437
0.163126
0.179768
0.190187
0.191102
0.168369
0.125034
0.0871172
0.0629237
0.261698
0.14142
0.0808783
0.0543532
0.047705
0.0514467
0.0593322
0.0676633
0.0752057
0.0798766
0.0706372
0.0518554
0.0389342
0.0404091
0.353592
0.192696
0.0945669
0.0434606
0.0223502
0.0162382
0.0164814
0.0190578
0.022608
0.0258635
0.0231836
0.0183974
0.0194409
0.0336437
0.434242
0.243969
0.117799
0.0482718
0.0174436
0.00656575
0.00380749
0.00383489
0.00485699
0.0061163
0.00585884
0.00649702
0.0131998
0.0344124
0.46745
0.263275
0.126303
0.0504919
0.0166632
0.00456078
0.0011873
0.000565701
0.000673611
0.000976489
0.00134764
0.00379739
0.0143914
0.045571
0.46846
0.255917
0.117892
0.0451411
0.0140528
0.00346248
0.000656878
0.000110201
5.53944e-05
0.000124301
0.00071658
0.00451608
0.020181
0.0648712
0.449931
0.236571
0.104528
0.0378111
0.0109691
0.00249048
0.000431992
5.87496e-05
1.04259e-05
7.88541e-05
0.00103437
0.00685711
0.0290927
0.0883398
0.410756
0.209004
0.089277
0.0313031
0.00891574
0.00210274
0.000472876
0.000137852
6.11836e-05
0.000173687
0.00174058
0.0102785
0.0397912
0.111781
0.352811
0.174178
0.0731907
0.0263264
0.00855404
0.0030401
0.00143189
0.000787319
0.000446421
0.000481765
0.00240294
0.012333
0.0451575
0.122459
0.2858
0.139957
0.0607806
0.0255348
0.0126669
0.00830161
0.00595062
0.00392363
0.00239661
0.00179099
0.00344831
0.0123604
0.0419445
0.114508
0.227146
0.114708
0.0570257
0.0346169
0.0286449
0.0258742
0.0211474
0.0150402
0.00970727
0.00657898
0.00693433
0.0130192
0.0335152
0.0910516
0.180592
0.0996848
0.067503
0.0651453
0.0711978
0.0706029
0.0603729
0.0453179
0.030918
0.0206469
0.0169703
0.0195686
0.0280415
0.0653525
0.154878
0.110485
0.112524
0.140372
0.162917
0.162182
0.14132
0.111307
0.0804751
0.0549278
0.04057
0.0381936
0.0346112
0.0537909
0.349205
0.366863
0.458329
0.556742
0.656454
0.730091
0.76185
0.7548
0.716909
0.651688
0.542159
0.395944
0.271313
0.19103
0.308053
0.231732
0.232268
0.259418
0.300834
0.342111
0.369962
0.379835
0.373866
0.351227
0.291165
0.202614
0.13096
0.0929455
0.39804
0.237055
0.155562
0.121377
0.116773
0.126725
0.139186
0.1483
0.152887
0.151393
0.125483
0.0868564
0.0636124
0.0734313
0.56952
0.332157
0.175809
0.0882964
0.0501174
0.0388135
0.0388552
0.0423341
0.0465004
0.0495263
0.0416579
0.0320321
0.0366619
0.0729303
0.742943
0.44604
0.229642
0.100343
0.0385477
0.015213
0.00880801
0.00834427
0.00974976
0.0114946
0.0105406
0.0126715
0.0306292
0.087233
0.848913
0.510775
0.261137
0.111169
0.0387574
0.0110506
0.0028523
0.00118751
0.00125451
0.00175288
0.00269235
0.00945422
0.0384369
0.120624
0.904159
0.528922
0.260403
0.105571
0.034547
0.00889392
0.00173793
0.0002727
9.70048e-05
0.000252886
0.00193106
0.0125202
0.0541137
0.16466
0.931953
0.526956
0.248498
0.0952325
0.0290516
0.00689221
0.00124648
0.000179317
3.25156e-05
0.000226019
0.00287436
0.0182143
0.0731118
0.208029
0.916483
0.49836
0.226352
0.083601
0.0249226
0.00614546
0.00147755
0.00047774
0.000219095
0.000471274
0.00431978
0.0244631
0.0903177
0.239969
0.845423
0.44107
0.194419
0.0722192
0.0239693
0.00877176
0.00439342
0.00259472
0.00150207
0.00133565
0.00546814
0.0265654
0.09314
0.240848
0.726455
0.36675
0.161662
0.0671396
0.0328169
0.0221694
0.0169513
0.0119781
0.00756813
0.00513999
0.00783833
0.0248808
0.0796735
0.20807
0.587112
0.295549
0.14187
0.0811612
0.0668124
0.0635612
0.0557353
0.04262
0.0288639
0.0188549
0.0166492
0.0260156
0.0597932
0.153074
0.460817
0.242257
0.148339
0.134686
0.151788
0.160516
0.14769
0.11949
0.0865582
0.0581461
0.0426011
0.0410512
0.0501601
0.102765
0.381442
0.237334
0.210913
0.260239
0.319912
0.342109
0.321599
0.273447
0.211907
0.150243
0.104892
0.0838586
0.0678665
0.0859075
0.800193
0.917758
1.12277
1.32181
1.46429
1.51195
1.46618
1.35239
1.20068
1.02416
0.799924
0.550669
0.353074
0.246418
0.521876
0.490546
0.546526
0.631682
0.71372
0.765624
0.771621
0.732992
0.665819
0.579684
0.444186
0.287336
0.176584
0.144139
0.559629
0.3837
0.29578
0.267559
0.27458
0.292817
0.303628
0.298801
0.282134
0.256098
0.193921
0.127234
0.0997154
0.147667
0.822014
0.511655
0.289476
0.160341
0.103554
0.0869846
0.0856596
0.0865818
0.0865118
0.083644
0.0645872
0.0508352
0.0731942
0.175316
1.13745
0.723701
0.388138
0.175985
0.0705609
0.0297885
0.0180748
0.0162763
0.0171926
0.0186958
0.0167433
0.0256885
0.0774677
0.230808
1.37731
0.876237
0.466328
0.204865
0.0729086
0.0208661
0.00525286
0.0020262
0.00198691
0.00275669
0.00561381
0.0255437
0.104163
0.31159
1.54005
0.95719
0.491824
0.205501
0.0683484
0.0175544
0.00333974
0.000475232
0.000136488
0.000570095
0.00557208
0.0351142
0.141259
0.397211
1.68467
1.01826
0.50327
0.199132
0.0617189
0.0145763
0.00258835
0.000378323
7.9706e-05
0.000670594
0.00795924
0.0469565
0.174849
0.459175
1.77568
1.03235
0.491308
0.186344
0.0560914
0.013859
0.00347679
0.00127191
0.000627237
0.00123491
0.0104788
0.0558635
0.19367
0.481151
1.77112
0.980753
0.449026
0.168921
0.0554826
0.0203731
0.0108694
0.00693804
0.00418406
0.00339126
0.012017
0.0547173
0.181219
0.442949
1.64535
0.865832
0.385802
0.155813
0.0726822
0.0498931
0.0406416
0.0307171
0.020369
0.0133764
0.0170754
0.0476481
0.142224
0.352647
1.4079
0.717085
0.3302
0.172073
0.136625
0.135748
0.127023
0.103967
0.0747022
0.0494504
0.0388899
0.0500345
0.10051
0.238084
1.14281
0.582133
0.313851
0.252627
0.288465
0.324082
0.318709
0.276466
0.214329
0.150653
0.105772
0.0870383
0.0895877
0.153006
0.95717
0.53024
0.384508
0.441036
0.569017
0.65109
0.655142
0.5984
0.499467
0.378203
0.267708
0.194321
0.143279
0.144185
0.132953
0.223744
0.424662
1.02915
7.18228
6.29855
0.0615427
0.103446
0.203982
0.528856
4.47035
4.38996
0.0639582
0.114342
0.217743
0.503605
3.72221
3.20587
0.0698293
0.136885
0.266808
0.571741
3.45203
2.50187
0.0841673
0.1816
0.36446
0.742552
3.61449
2.13944
0.117244
0.25756
0.513599
1.0044
4.16771
2.01652
0.162372
0.348293
0.679978
1.30345
5.01504
2.06648
0.209788
0.430657
0.820244
1.57006
5.9478
2.25229
0.251028
0.490277
0.914136
1.77457
6.87211
2.55787
0.268789
0.503639
0.930844
1.85732
7.59924
2.95645
0.255375
0.465754
0.858675
1.78187
8.00947
3.4341
0.211104
0.382849
0.711354
1.55527
7.88632
4.07032
0.152787
0.285916
0.552763
1.28587
7.50482
5.05119
0.10317
0.211378
0.446857
1.11496
7.6478
6.70924
0.182973
0.286967
0.504558
1.0428
4.90011
4.51528
0.108129
0.182356
0.332231
0.674057
3.17801
3.13318
0.131481
0.238302
0.429627
0.788093
2.96303
2.41152
0.163253
0.323592
0.598199
1.04747
3.1984
2.10965
0.216424
0.452007
0.843391
1.43721
3.81134
2.09737
0.296347
0.613085
1.12813
1.87424
4.65372
2.26946
0.384396
0.76902
1.38242
2.26341
5.52495
2.52293
0.458909
0.875898
1.53635
2.52888
6.27458
2.77886
0.504643
0.916662
1.57828
2.65912
6.90137
3.02991
0.499428
0.871425
1.48812
2.58582
7.20527
3.2249
0.442966
0.752462
1.28046
2.30175
7.0827
3.36035
0.34235
0.577159
0.988772
1.85462
6.5446
3.53973
0.22904
0.398208
0.706999
1.40349
5.80953
3.96723
0.145005
0.269437
0.518518
1.08881
5.31456
4.84777
0.264344
0.384035
0.597889
0.958747
1.7088
2.6681
0.229437
0.393584
0.660867
1.04834
1.66541
2.3046
0.309042
0.565627
0.95904
1.47832
2.13276
2.57407
0.414607
0.80089
1.36663
2.0659
2.8231
3.18098
0.556077
1.08521
1.82234
2.68696
3.55108
3.86814
0.713945
1.35862
2.21773
3.19217
4.12764
4.38221
0.852194
1.55823
2.46471
3.48171
4.48287
4.59144
0.929811
1.6253
2.5049
3.54171
4.70341
4.54975
0.937606
1.56659
2.37459
3.40608
4.86847
4.33386
0.858832
1.37976
2.08171
3.02091
4.74829
3.91158
0.710215
1.10438
1.66177
2.42833
4.18118
3.36305
0.509927
0.77969
1.18522
1.72969
3.2289
2.85859
0.316982
0.492289
0.767273
1.14029
2.26537
2.61954
0.20212
0.327119
0.535181
0.822532
1.73723
2.76026
0.0712008
0.130076
0.270041
0.700753
6.07521
6.49346
0.0600565
0.102721
0.197419
0.489221
4.26007
4.45852
0.0754091
0.131235
0.241597
0.531313
3.76211
3.24904
0.0891293
0.170386
0.319494
0.651759
3.66278
2.55558
0.125491
0.248137
0.462564
0.887108
4.00428
2.21695
0.176493
0.346818
0.637251
1.18424
4.66185
2.11451
0.231638
0.443651
0.801375
1.47349
5.53024
2.16418
0.282753
0.522518
0.928275
1.71015
6.41818
2.32407
0.319856
0.572225
1.00483
1.88209
7.26849
2.59805
0.327876
0.573034
1.00315
1.93307
7.98529
2.95204
0.292521
0.507351
0.894631
1.81209
8.31923
3.37277
0.227913
0.394965
0.710398
1.55059
8.14397
3.92166
0.180166
0.309758
0.565189
1.31047
7.71841
4.8831
0.178799
0.311075
0.569924
1.27296
8.25633
6.52457
0.123403
0.20651
0.377938
0.787407
4.07376
4.53114
0.126085
0.209294
0.363198
0.690676
3.07641
3.14635
0.171411
0.298127
0.511532
0.901094
3.08532
2.4653
0.231869
0.43071
0.747818
1.26032
3.52573
2.23564
0.328382
0.61665
1.06206
1.736
4.30136
2.29889
0.435644
0.804146
1.36297
2.18934
5.17924
2.50072
0.529351
0.946971
1.57728
2.52093
5.99172
2.72665
0.596853
1.02814
1.68386
2.71047
6.64919
2.93131
0.626018
1.04222
1.68446
2.75817
7.17988
3.09547
0.596766
0.967171
1.55217
2.59969
7.34447
3.19311
0.496897
0.795259
1.2772
2.2252
6.99737
3.22906
0.37134
0.588441
0.957735
1.75673
6.2734
3.33531
0.31543
0.492351
0.792899
1.47214
5.69633
3.81621
0.389127
0.613388
0.952357
1.59
5.88931
4.81244
0.239632
0.366232
0.572209
0.891853
1.55013
2.5815
0.292617
0.477151
0.756215
1.13838
1.71362
2.33641
0.418662
0.718896
1.14915
1.69888
2.32516
2.74688
0.588986
1.04845
1.68077
2.4443
3.19533
3.54069
0.7933
1.39999
2.20456
3.13049
3.99723
4.30675
0.972767
1.66892
2.55465
3.5532
4.47553
4.68683
1.0913
1.80542
2.68438
3.69979
4.70717
4.74835
1.14099
1.81699
2.63457
3.65317
4.84797
4.5879
1.11445
1.71067
2.42818
3.40915
4.83497
4.21946
0.989749
1.46731
2.04782
2.8788
4.35835
3.63073
0.769595
1.1142
1.54161
2.1745
3.49366
3.00421
0.570203
0.808953
1.11476
1.56927
2.5553
2.60616
0.579993
0.819459
1.11474
1.50008
2.23938
2.79488
0.907996
1.27121
1.68906
2.10438
2.77646
3.58442
6.42134
9.83165
1.99681
0.922083
0.502853
0.273108
5.12015
9.8947
2.12765
0.996945
0.584141
0.356766
4.18204
10.2057
2.38867
1.19299
0.726891
0.468835
3.54309
10.3184
2.71343
1.43827
0.897034
0.594607
3.04713
10.108
2.96372
1.6561
1.05222
0.697886
2.64106
9.58023
3.05728
1.79893
1.14664
0.744742
2.32184
8.88076
3.0363
1.87345
1.19575
0.763797
2.14867
8.08902
2.90497
1.86063
1.20295
0.756228
2.0994
7.2692
2.70296
1.74638
1.1407
0.713811
2.19533
6.53952
2.3859
1.5421
1.01095
0.6337
2.50611
5.99686
1.98622
1.2664
0.832234
0.524659
3.13799
5.75292
1.59818
0.985621
0.653349
0.416451
4.26256
6.02147
1.34054
0.78002
0.509579
0.329386
6.23039
7.61097
1.36176
0.718759
0.444264
0.276816
4.88988
7.23678
2.18295
1.21652
0.739934
0.43538
4.21902
7.5854
2.26096
1.22087
0.772289
0.501741
3.79623
8.31341
2.61489
1.46633
0.969861
0.673452
3.56169
8.8829
3.09673
1.84157
1.25363
0.895891
3.41888
9.1043
3.58271
2.23295
1.54384
1.10677
3.27164
8.93375
3.93718
2.58352
1.78434
1.2533
3.11127
8.47121
4.14323
2.86748
1.98285
1.36682
2.97062
7.91925
4.23997
3.06992
2.15848
1.45199
2.8295
7.49589
4.20007
3.1103
2.21986
1.4804
2.71622
6.9734
4.02254
2.98532
2.14806
1.42362
2.69339
6.32191
3.59977
2.66593
1.9288
1.27294
2.8501
5.59933
2.9725
2.19284
1.6067
1.05637
3.36541
5.18563
2.41593
1.72926
1.27145
0.842955
4.56403
5.70926
2.12961
1.4646
1.06404
0.708153
3.6941
3.05932
2.17324
1.68528
1.2009
0.812015
3.1159
2.88796
1.80862
1.33254
0.958477
0.686132
2.98736
3.49232
1.98184
1.46791
1.11488
0.861283
3.25778
4.39086
2.50872
1.90218
1.50185
1.19599
3.71277
5.06898
3.13677
2.44184
1.95422
1.55327
4.22091
5.32183
3.74035
2.9697
2.38015
1.85744
4.69056
5.26205
4.21283
3.4287
2.78567
2.1348
5.12301
5.16305
4.53405
3.86519
3.17613
2.39734
5.52138
5.23171
4.86037
4.25564
3.51317
2.61943
5.83316
5.40423
5.17196
4.53482
3.71907
2.73897
5.91606
5.42851
5.24559
4.53683
3.67322
2.67649
5.4805
4.96818
4.80226
4.07953
3.30171
2.38827
4.66966
4.10812
3.88069
3.30251
2.726
2.00264
4.15406
3.40935
3.06149
2.63527
2.2114
1.69494
6.70946
9.6757
1.86222
0.843713
0.431324
0.232301
5.36085
9.73426
2.06016
0.972349
0.549565
0.333282
4.36104
9.95375
2.32621
1.15767
0.693926
0.442258
3.64054
9.86855
2.63543
1.38975
0.852201
0.54958
3.0985
9.58005
2.87797
1.59986
0.989669
0.630626
2.63624
9.05379
2.99641
1.74537
1.08256
0.673392
2.26768
8.36218
2.95897
1.81236
1.12196
0.679189
2.04138
7.55338
2.79755
1.78672
1.10582
0.657022
1.98206
6.7369
2.53855
1.64186
1.02873
0.603971
2.08487
6.0119
2.18211
1.39455
0.882003
0.519392
2.41039
5.58374
1.78175
1.11874
0.707135
0.422785
3.04901
5.58582
1.46618
0.88848
0.566367
0.346856
4.14319
5.99345
1.27253
0.700231
0.429918
0.260681
6.00383
8.12366
1.56414
0.783433
0.44783
0.256106
5.06271
7.03615
1.75602
0.902078
0.498933
0.293861
4.43312
7.8903
2.15666
1.16
0.712291
0.461304
3.99741
8.53793
2.58755
1.47012
0.95744
0.652041
3.69796
8.79312
3.07932
1.84634
1.22783
0.848848
3.46975
8.71808
3.54852
2.23467
1.4977
1.02235
3.21906
8.45761
3.89489
2.56417
1.73212
1.16019
2.9563
8.04662
4.03991
2.81173
1.91333
1.25515
2.74914
7.54524
4.08165
2.9851
2.03872
1.30683
2.57302
7.11993
3.97807
2.98943
2.06272
1.29882
2.45122
6.53654
3.71627
2.76991
1.92224
1.20577
2.44724
5.84177
3.24678
2.38832
1.65944
1.03857
2.66224
5.27552
2.6856
1.95659
1.3671
0.858403
3.23423
5.07817
2.23439
1.55571
1.07808
0.673539
4.4525
6.15589
2.21272
1.45167
0.971477
0.596305
3.01166
2.3794
1.08905
0.758468
0.498387
0.341252
3.01794
3.35746
1.55504
1.12932
0.799339
0.580207
3.19876
4.35419
2.11004
1.57641
1.16104
0.874027
3.52298
5.02693
2.69776
2.07679
1.56149
1.18548
3.93124
5.26307
3.29692
2.60695
1.98798
1.48253
4.35408
5.15908
3.82961
3.09928
2.41025
1.76885
4.73719
5.03307
4.20907
3.50586
2.80335
2.03276
5.09205
4.99047
4.46878
3.87474
3.1402
2.26412
5.40967
5.06785
4.72327
4.15663
3.37027
2.41817
5.60538
5.15291
4.88144
4.25839
3.4144
2.43023
5.51304
5.01104
4.757
4.0859
3.22768
2.26922
5.03306
4.5368
4.26559
3.61761
2.84329
1.98547
4.38977
3.88073
3.55205
2.97679
2.36867
1.66453
4.06215
3.40379
2.94599
2.4702
1.98913
1.45238
1.68569
1.86618
2.17716
2.4182
2.49637
2.41194
2.20791
1.93704
1.65017
1.371
1.05024
0.707411
0.438387
0.316329
0.908831
0.925768
1.04266
1.17375
1.25301
1.25671
1.18786
1.06409
0.920189
0.77502
0.577546
0.367262
0.228033
0.233295
0.758615
0.564779
0.47842
0.460865
0.472658
0.481223
0.46943
0.433227
0.387885
0.338653
0.25001
0.162721
0.145317
0.277867
1.05385
0.654739
0.377793
0.223189
0.157065
0.136239
0.130101
0.123655
0.117163
0.108613
0.0822359
0.0685021
0.126923
0.358279
1.47135
0.923573
0.492441
0.22423
0.0920872
0.0412073
0.026267
0.0230331
0.0232153
0.0237086
0.0214976
0.0415579
0.150549
0.471475
1.80861
1.1556
0.615001
0.268493
0.0947875
0.027145
0.00698057
0.00266006
0.00240874
0.00328878
0.00856475
0.046424
0.198381
0.596508
2.08774
1.31065
0.67547
0.280385
0.0921506
0.0234548
0.00444939
0.000620143
0.000151318
0.000869903
0.00965777
0.0625258
0.25326
0.707686
2.39169
1.47144
0.732623
0.288106
0.0877871
0.0203884
0.00358405
0.000523352
0.000111465
0.00110835
0.0131623
0.0783635
0.292674
0.763695
2.66859
1.59365
0.764932
0.287906
0.0842341
0.0200019
0.00488436
0.00183059
0.000931187
0.00190088
0.0162274
0.0874846
0.305119
0.756711
2.84824
1.63171
0.753096
0.276458
0.0855384
0.0293088
0.0156406
0.0104559
0.00657762
0.00522458
0.0177473
0.0814279
0.272147
0.665398
2.84484
1.5474
0.688812
0.260921
0.108741
0.0713948
0.0602156
0.0480101
0.0335547
0.0223774
0.0260188
0.0692869
0.207757
0.511136
2.60967
1.35315
0.603468
0.276715
0.196598
0.197238
0.193174
0.167369
0.12746
0.0891422
0.0674794
0.0766064
0.14493
0.331164
2.21173
1.12163
0.547995
0.373392
0.410899
0.477488
0.491929
0.452557
0.37334
0.282853
0.202574
0.153443
0.142354
0.212556
1.94773
1.00265
0.601509
0.61215
0.806587
0.96135
1.01237
0.978677
0.870726
0.712607
0.531774
0.378825
0.266743
0.230962
1.39513
1.561
1.81395
2.01158
2.08186
2.02251
1.86682
1.65229
1.41997
1.19919
0.931304
0.62365
0.373546
0.250824
0.765481
0.770158
0.848929
0.944053
1.00456
1.0096
0.959115
0.865818
0.75566
0.647414
0.490148
0.310767
0.184698
0.177604
0.649525
0.465091
0.377779
0.355761
0.362834
0.370177
0.362573
0.336859
0.304055
0.269645
0.202272
0.130305
0.109066
0.206142
0.935718
0.55686
0.307064
0.173383
0.117928
0.101165
0.09682
0.0925993
0.0883435
0.0829884
0.0633581
0.0514909
0.0937709
0.270458
1.30641
0.789962
0.406789
0.179732
0.071473
0.0307758
0.0191041
0.0166959
0.0169168
0.0174444
0.0158228
0.0308479
0.114377
0.362619
1.57112
0.967448
0.499002
0.212769
0.0739989
0.0209314
0.00522307
0.00187361
0.00167954
0.00233767
0.00644943
0.0356358
0.153242
0.464305
1.77491
1.07676
0.537707
0.218258
0.0709459
0.0180191
0.00341667
0.000467394
0.000106735
0.000687131
0.00757506
0.0486342
0.197905
0.559246
1.99503
1.18846
0.574127
0.22103
0.0667355
0.0155254
0.00275776
0.000417152
9.78405e-05
0.000897256
0.0102824
0.0609992
0.230566
0.613052
2.1825
1.26767
0.592319
0.218524
0.0633345
0.0151336
0.00383564
0.00151979
0.000782519
0.00148227
0.0124
0.0675457
0.240895
0.613196
2.28783
1.28504
0.58005
0.208655
0.0638523
0.0223207
0.0124131
0.00847742
0.00529293
0.00397714
0.0131461
0.0619887
0.214142
0.540579
2.24796
1.21215
0.5301
0.196335
0.081415
0.0550969
0.0474162
0.0379143
0.0261524
0.0168678
0.018569
0.0508168
0.160539
0.410533
2.05275
1.06575
0.466924
0.208779
0.149988
0.154134
0.151721
0.130302
0.0974497
0.0667577
0.0484465
0.053372
0.106521
0.254781
1.73705
0.889015
0.424032
0.284775
0.321777
0.379572
0.389387
0.351645
0.28297
0.210537
0.147632
0.107514
0.0981054
0.148376
1.5104
0.787121
0.460949
0.476438
0.64826
0.779473
0.81145
0.763265
0.657405
0.525406
0.386006
0.269869
0.18416
0.149555
0.67938
0.77581
0.94031
1.10122
1.192
1.20014
1.13768
1.02722
0.892857
0.760307
0.594671
0.393779
0.231715
0.141923
0.370858
0.343821
0.377042
0.438522
0.492357
0.517647
0.508919
0.47302
0.421606
0.368718
0.285325
0.180346
0.0989329
0.0731679
0.389931
0.238339
0.166823
0.147599
0.153936
0.164435
0.167946
0.162383
0.151045
0.138126
0.105996
0.0664485
0.044143
0.0752199
0.626471
0.341718
0.168904
0.0826439
0.0490894
0.040353
0.0396806
0.0397578
0.0393817
0.0384156
0.0295917
0.021376
0.03275
0.109293
0.878869
0.493112
0.236136
0.096514
0.0347505
0.0130139
0.00728564
0.00642675
0.00676572
0.00724306
0.00621667
0.0105272
0.042923
0.16074
1.03092
0.586224
0.280704
0.112164
0.0368478
0.00982714
0.00222892
0.000699679
0.000621962
0.00086957
0.0021044
0.012652
0.062597
0.218529
1.15092
0.638044
0.292798
0.110578
0.0339519
0.00825349
0.00151274
0.00020022
4.01146e-05
0.00020419
0.00251207
0.0184274
0.0854179
0.27594
1.26533
0.68298
0.300355
0.106685
0.030248
0.00670961
0.00114682
0.000165139
3.31575e-05
0.000264136
0.00357277
0.0240567
0.102683
0.309371
1.34339
0.702666
0.296307
0.0998624
0.0268984
0.00607757
0.00148732
0.000571236
0.000277501
0.000448951
0.00443656
0.0274564
0.10997
0.314673
1.35701
0.683895
0.276798
0.090197
0.0256645
0.00886313
0.00501835
0.00334782
0.00199329
0.00128085
0.00461895
0.0254855
0.099232
0.2795
1.27589
0.614967
0.239825
0.0808517
0.0332989
0.0238367
0.020578
0.0159026
0.0104844
0.00604606
0.00611799
0.0199802
0.0739988
0.211185
1.10161
0.512439
0.201529
0.0871404
0.068284
0.072813
0.0705308
0.0584626
0.0418973
0.0265304
0.0170232
0.0183876
0.0459466
0.127698
0.888686
0.40919
0.181394
0.131929
0.162655
0.193821
0.194999
0.170542
0.131869
0.0926725
0.0595317
0.0379682
0.0350812
0.0652955
0.739983
0.354066
0.21051
0.248604
0.356695
0.43004
0.440589
0.403611
0.335386
0.25689
0.177705
0.112605
0.0683045
0.0547611
0.224927
0.258415
0.341691
0.42571
0.485632
0.509352
0.496824
0.457072
0.400772
0.339817
0.260649
0.164417
0.0911203
0.0578939
0.132645
0.104
0.112828
0.137282
0.163227
0.179771
0.183168
0.175239
0.159589
0.14088
0.10821
0.0651246
0.032773
0.0213682
0.18032
0.0927859
0.0534701
0.0415258
0.042739
0.0470969
0.0500053
0.0502394
0.0483394
0.0451816
0.0346737
0.0205686
0.0116567
0.018209
0.311594
0.152103
0.0664994
0.0277958
0.0136489
0.0100168
0.00986319
0.0103157
0.0107266
0.0108319
0.00839085
0.00544704
0.00711228
0.027902
0.441944
0.223066
0.0964669
0.0357321
0.011492
0.00360199
0.00164274
0.00138974
0.00154618
0.00176393
0.00149854
0.00207734
0.00950124
0.0444528
0.518592
0.262596
0.112859
0.0409113
0.0123185
0.00301812
0.000610188
0.000156645
0.000134276
0.000192626
0.000371556
0.00240162
0.0148517
0.0649718
0.571949
0.278407
0.113431
0.0385681
0.0108196
0.00243737
0.000420242
5.29875e-05
9.3534e-06
2.82061e-05
0.000391793
0.00366394
0.021357
0.0862604
0.614381
0.287312
0.110796
0.0350812
0.00902408
0.00184527
0.000293933
3.89565e-05
6.53459e-06
3.06371e-05
0.000578643
0.00498447
0.0265468
0.0990996
0.631921
0.283042
0.103575
0.0308402
0.00746568
0.00153022
0.000339595
0.000120114
5.44989e-05
5.95312e-05
0.000743332
0.00586338
0.0290854
0.102063
0.613908
0.262853
0.091671
0.0261979
0.00666807
0.0021404
0.00117181
0.000749586
0.000422058
0.000226403
0.000787484
0.00548747
0.0263178
0.090063
0.55052
0.224212
0.075104
0.0223575
0.00875045
0.00630669
0.00532982
0.00393057
0.0024498
0.00128281
0.00110965
0.00416404
0.019023
0.0656126
0.452941
0.177964
0.0605096
0.024685
0.0203012
0.0218316
0.0205436
0.0162246
0.0110084
0.00641859
0.00370929
0.00378233
0.0112471
0.0379621
0.347909
0.136217
0.0549289
0.0427485
0.0555815
0.0659498
0.064528
0.053966
0.0395868
0.0258504
0.0153978
0.00899605
0.0082387
0.0184125
0.280202
0.116868
0.0713152
0.0943877
0.138958
0.167004
0.167521
0.147892
0.116986
0.0842477
0.054545
0.0322042
0.0182458
0.0151104
0.0537511
0.0625954
0.0957898
0.131987
0.162892
0.17972
0.180557
0.168306
0.1475
0.122207
0.0903784
0.0537476
0.025976
0.0159964
0.039191
0.0242306
0.0255202
0.0335255
0.0435558
0.0509879
0.0540778
0.0531067
0.0488966
0.0424894
0.0316433
0.0178368
0.00786048
0.00460284
0.0662785
0.0286357
0.013354
0.00893847
0.00927457
0.0108101
0.0120726
0.0126009
0.0123294
0.0114072
0.00852021
0.00467378
0.00219027
0.00290496
0.125138
0.0533557
0.0203142
0.00720515
0.00291913
0.00192957
0.00194739
0.00213269
0.00226028
0.00226591
0.00173304
0.000989885
0.00100363
0.00483785
0.186877
0.0828225
0.0315837
0.0103455
0.00291307
0.000763596
0.00028449
0.000231243
0.000270066
0.000313392
0.00025937
0.000265662
0.00136885
0.00880688
0.224428
0.0995071
0.0376884
0.0120914
0.00323188
0.000703056
0.000124367
2.63858e-05
2.09765e-05
2.91409e-05
4.17679e-05
0.000280518
0.00240442
0.0143202
0.248074
0.104964
0.0375637
0.0113154
0.00282628
0.00056879
8.82111e-05
1.00896e-05
1.49053e-06
2.31675e-06
3.31816e-05
0.000451861
0.00365294
0.0198746
0.262085
0.105406
0.035467
0.0099204
0.00227345
0.00041581
5.88973e-05
6.55709e-06
7.89425e-07
1.43075e-06
4.97656e-05
0.00063385
0.0046371
0.0230536
0.261679
0.0996926
0.0315756
0.00825058
0.0017607
0.000310739
5.42862e-05
1.49157e-05
6.04317e-06
3.73108e-06
6.34217e-05
0.000743216
0.00504016
0.0233796
0.243529
0.0878563
0.0262867
0.00649999
0.0013964
0.000356958
0.000168728
0.000102533
5.50129e-05
2.48257e-05
6.64419e-05
0.000673649
0.00439484
0.01971
0.205906
0.0699521
0.0198633
0.00496963
0.00160167
0.00107006
0.000895549
0.000645294
0.000383816
0.000187014
0.000114283
0.000469913
0.00291338
0.0131325
0.157474
0.0510359
0.0144947
0.00501268
0.00398388
0.004404
0.00416767
0.0032216
0.00208943
0.00113765
0.000554614
0.000440644
0.00151067
0.00671402
0.109315
0.0351727
0.012202
0.00948331
0.0131054
0.0160911
0.0158543
0.0129885
0.00914079
0.00553517
0.00295945
0.00148972
0.00113181
0.00297924
0.0811268
0.0286966
0.0176067
0.0256096
0.0397942
0.0494338
0.0500001
0.0433045
0.0329379
0.0220666
0.0130884
0.00695
0.00343893
0.00277894
0.00954054
0.0106004
0.0190073
0.0298563
0.0413498
0.0495722
0.0527623
0.0510477
0.0450281
0.0363461
0.0255326
0.0143026
0.00590887
0.0029963
0.00973443
0.00444343
0.00399158
0.00564319
0.00837258
0.0109781
0.0127215
0.0132408
0.0123588
0.0104341
0.00736065
0.00391383
0.00144401
0.000707697
0.0205394
0.00752035
0.00274514
0.00139712
0.00140661
0.00184952
0.00232704
0.00260606
0.00257878
0.00229102
0.00163913
0.000833551
0.000314833
0.000355648
0.0431962
0.015959
0.00525711
0.00157243
0.000501263
0.000285773
0.000310282
0.000363372
0.000388809
0.000378598
0.000280484
0.000142448
0.00010938
0.000662017
0.0686898
0.0265634
0.00887111
0.00256064
0.00063562
0.000142348
4.32688e-05
3.41605e-05
4.06172e-05
4.51188e-05
3.59489e-05
2.73319e-05
0.000153838
0.00138696
0.0845222
0.0326231
0.0108432
0.00308213
0.000738938
0.00014642
2.38608e-05
4.41345e-06
2.95023e-06
3.68274e-06
3.96482e-06
2.38346e-05
0.000300253
0.00250042
0.0935081
0.0343177
0.0108036
0.00289941
0.000654354
0.000121161
1.77485e-05
1.98612e-06
2.50261e-07
1.94658e-07
1.57907e-06
3.78163e-05
0.000469887
0.00362293
0.0961443
0.0331564
0.0097628
0.00243268
0.00050549
8.55143e-05
1.14325e-05
1.1934e-06
1.16394e-07
2.78495e-08
1.93013e-06
4.98278e-05
0.000575653
0.00412189
0.0912933
0.0293166
0.00802348
0.00185268
0.000355723
5.65559e-05
8.31481e-06
1.78199e-06
6.60342e-07
2.46345e-07
2.09581e-06
5.28966e-05
0.000579045
0.0039182
0.0796125
0.0237357
0.0060134
0.00128603
0.000238411
4.99153e-05
2.06859e-05
1.25237e-05
6.81972e-06
2.89551e-06
2.50822e-06
4.3266e-05
0.000458375
0.00300061
0.0621288
0.0171211
0.00401577
0.000835403
0.000226276
0.000146817
0.000127543
9.40146e-05
5.59855e-05
2.62985e-05
1.04367e-05
2.75457e-05
0.000267007
0.00175372
0.0432855
0.011238
0.00257698
0.000756754
0.000624944
0.000737088
0.000723479
0.000566454
0.000362181
0.000187697
7.77874e-05
3.71691e-05
0.00011644
0.00074188
0.0264575
0.0067857
0.00197536
0.00166479
0.00256446
0.00331796
0.00336443
0.00276744
0.00189695
0.00108006
0.000503736
0.000208381
0.000106186
0.000278746
0.0176087
0.00515431
0.00332103
0.00571248
0.00962305
0.0125206
0.0129871
0.0112143
0.00824387
0.00513172
0.00269496
0.00123791
0.000508374
0.000345688
0.00132306
0.00148043
0.00314184
0.00543707
0.00796735
0.00975474
0.0104223
0.0101186
0.00905574
0.00748579
0.00532616
0.00294772
0.00113846
0.000435716
0.0016055
0.000596395
0.000490022
0.000731577
0.00114099
0.00153334
0.00182226
0.00197393
0.00194722
0.00174917
0.00128226
0.000685633
0.000236785
8.42268e-05
0.00438506
0.00138898
0.00042146
0.000162971
0.000137373
0.000180223
0.00024034
0.000292959
0.000323066
0.000318687
0.000241371
0.000124954
4.11398e-05
2.92961e-05
0.0108857
0.00346733
0.000987046
0.000251766
6.16534e-05
2.32976e-05
2.29755e-05
3.1344e-05
4.03437e-05
4.44604e-05
3.5287e-05
1.79104e-05
8.78187e-06
5.33628e-05
0.0183433
0.00610423
0.00175901
0.000438177
9.31433e-05
1.70195e-05
3.58709e-06
2.57147e-06
3.64384e-06
4.56834e-06
3.88129e-06
2.28832e-06
9.38919e-06
0.000126655
0.0229625
0.0074584
0.00210329
0.000509338
0.00010417
1.76228e-05
2.42784e-06
3.58892e-07
2.37163e-07
3.27121e-07
3.20325e-07
1.0566e-06
1.98854e-05
0.000252998
0.0252984
0.00764678
0.0020094
0.000453885
8.66879e-05
1.36616e-05
1.71832e-06
1.67345e-07
1.93198e-08
1.56836e-08
4.80223e-08
1.72545e-06
3.45224e-05
0.000399389
0.0257569
0.00716033
0.00172405
0.000355499
6.17773e-05
8.83576e-06
1.00998e-06
9.02444e-08
7.01555e-09
1.16487e-09
4.49462e-08
2.46651e-06
4.60929e-05
0.000485413
0.0241638
0.00616556
0.00135479
0.000253971
4.0017e-05
5.2516e-06
6.21661e-07
1.01986e-07
3.11586e-08
1.00602e-08
4.41843e-08
2.64729e-06
4.81022e-05
0.000474983
0.0205302
0.00484661
0.000976693
0.000166936
2.46057e-05
4.01775e-06
1.41663e-06
7.90669e-07
3.90502e-07
1.47435e-07
7.03548e-08
2.03781e-06
3.72438e-05
0.000354617
0.0153024
0.00332902
0.000618125
0.000100341
2.10457e-05
1.27406e-05
1.07987e-05
7.46315e-06
4.03983e-06
1.69698e-06
5.70493e-07
1.11985e-06
1.92324e-05
0.000185326
0.0100511
0.00205879
0.000367478
8.17648e-05
6.56971e-05
8.06049e-05
7.74263e-05
5.69879e-05
3.32948e-05
1.55654e-05
5.81313e-06
2.0907e-06
6.55061e-06
6.22149e-05
0.00561923
0.00112638
0.000246118
0.000195025
0.000337719
0.000456367
0.000455494
0.000354426
0.000223891
0.000116353
4.91873e-05
1.77797e-05
6.82229e-06
1.67625e-05
0.00343144
0.000775296
0.00042691
0.000831511
0.0015778
0.00216025
0.00222603
0.00183459
0.00125692
0.000722779
0.000345052
0.000141691
5.05373e-05
2.71581e-05
0.000223986
0.000192742
0.000432578
0.000806998
0.0012324
0.0015528
0.00167382
0.00158203
0.00133915
0.00102095
0.000647652
0.000316352
0.00010533
3.21045e-05
0.000333976
9.34653e-05
5.35968e-05
7.70101e-05
0.000124643
0.000174168
0.000210268
0.000220528
0.000208134
0.000173482
0.000114861
5.48802e-05
1.65254e-05
4.66351e-06
0.000847842
0.000218702
5.22787e-05
1.48411e-05
1.04255e-05
1.39842e-05
1.89704e-05
2.32279e-05
2.52243e-05
2.34128e-05
1.62819e-05
7.67422e-06
2.18025e-06
1.53325e-06
0.00212559
0.000547559
0.000125419
2.57084e-05
4.90679e-06
1.36903e-06
1.28479e-06
1.84154e-06
2.3578e-06
2.47945e-06
1.83973e-06
8.67762e-07
3.62379e-07
3.58915e-06
0.00380012
0.00101004
0.000232964
4.67817e-05
8.11765e-06
1.21744e-06
1.99132e-07
1.19072e-07
1.64683e-07
2.00093e-07
1.62325e-07
8.54033e-08
4.01883e-07
9.31734e-06
0.00513769
0.00132459
0.000296247
5.7285e-05
9.4719e-06
1.31902e-06
1.52373e-07
1.77945e-08
8.98269e-09
1.18407e-08
1.08182e-08
2.27442e-08
8.32518e-07
1.87879e-05
0.00595296
0.00143606
0.000300085
5.40332e-05
8.29881e-06
1.06894e-06
1.12682e-07
9.49292e-09
8.67733e-10
5.2463e-10
6.0387e-10
2.74245e-08
1.30387e-06
2.81555e-05
0.00618747
0.00137984
0.000265647
4.38171e-05
6.13128e-06
7.16277e-07