/*--------------------------------*- C++ -*----------------------------------*\
| =========                 |                                                 |
| \\      /  F ield         | OpenFOAM: The Open Source CFD Toolbox           |
|  \\    /   O peration     | Version:  v2106                                 |
|   \\  /    A nd           | Website:  www.openfoam.com                      |
|    \\/     M anipulation  |                                                 |
\*---------------------------------------------------------------------------*/
FoamFile
{
    version     2.0;
    format      ascii;
    arch        "LSB;label=32;scalar=64";
    class       volScalarField;
    location    "0.000126";
    object      nut;
}
// * * * * * * * * * * * * * * * * * * * * * * * * * * * * * * * * * * * * * //

dimensions      [0 2 -1 0 0 0 0];

internalField   nonuniform List<scalar> 
144746
(
1.21157e-06
1.03434e-06
1.25602e-06
1.48634e-06
1.80215e-06
2.13499e-06
2.39337e-06
2.54514e-06
2.59818e-06
2.52746e-06
2.225e-06
1.71443e-06
1.24563e-06
9.52274e-07
1.26979e-06
7.67313e-07
6.60626e-07
6.74743e-07
7.67175e-07
9.06812e-07
1.04749e-06
1.15934e-06
1.2352e-06
1.25366e-06
1.10954e-06
8.21238e-07
5.72933e-07
4.38955e-07
1.67617e-06
8.86118e-07
5.03936e-07
3.41602e-07
3.0039e-07
3.22647e-07
3.72027e-07
4.26935e-07
4.79687e-07
5.16573e-07
4.59396e-07
3.37003e-07
2.60048e-07
2.99798e-07
2.30235e-06
1.22178e-06
5.89972e-07
2.71338e-07
1.40989e-07
1.02553e-07
1.03548e-07
1.20116e-07
1.44178e-07
1.67564e-07
1.51088e-07
1.21341e-07
1.37437e-07
2.60664e-07
2.89635e-06
1.57571e-06
7.46243e-07
3.03764e-07
1.10406e-07
4.21238e-08
2.44964e-08
2.45912e-08
3.14409e-08
4.02253e-08
3.89642e-08
4.49654e-08
9.65764e-08
2.5982e-07
3.15896e-06
1.71387e-06
8.04216e-07
3.18531e-07
1.05329e-07
2.91687e-08
7.7581e-09
3.74601e-09
4.48858e-09
6.60963e-09
9.366e-09
2.67868e-08
1.0126e-07
3.28351e-07
3.20748e-06
1.67641e-06
7.51661e-07
2.84395e-07
8.85073e-08
2.19849e-08
4.23638e-09
7.33214e-10
3.84163e-10
8.76172e-10
4.91268e-09
3.02318e-08
1.3579e-07
4.52324e-07
3.1125e-06
1.55614e-06
6.66071e-07
2.37328e-07
6.87294e-08
1.57297e-08
2.76813e-09
3.83657e-10
7.17655e-11
5.29509e-10
6.73831e-09
4.44292e-08
1.9122e-07
6.03285e-07
2.86297e-06
1.38023e-06
5.69342e-07
1.96613e-07
5.60541e-08
1.33891e-08
3.05305e-09
8.95036e-10
4.14085e-10
1.17431e-09
1.12833e-08
6.62064e-08
2.59598e-07
7.55403e-07
2.46983e-06
1.15466e-06
4.69543e-07
1.66846e-07
5.4456e-08
1.94514e-08
9.13688e-09
5.05725e-09
2.98997e-09
3.40292e-09
1.58666e-08
7.9808e-08
2.9515e-07
8.25814e-07
2.00731e-06
9.34327e-07
3.9496e-07
1.64117e-07
8.06873e-08
5.2446e-08
3.76933e-08
2.52091e-08
1.5983e-08
1.28517e-08
2.40076e-08
8.14344e-08
2.75916e-07
7.73731e-07
1.60676e-06
7.75633e-07
3.75143e-07
2.22593e-07
1.81205e-07
1.63596e-07
1.35114e-07
9.78463e-08
6.52574e-08
4.7155e-08
5.16127e-08
9.13205e-08
2.24937e-07
6.20378e-07
1.29365e-06
6.81247e-07
4.44201e-07
4.18709e-07
4.55908e-07
4.55654e-07
3.95531e-07
3.03278e-07
2.13296e-07
1.49668e-07
1.30745e-07
1.51537e-07
2.02485e-07
4.62348e-07
1.10551e-06
7.57261e-07
7.48454e-07
9.23131e-07
1.0772e-06
1.08725e-06
9.66188e-07
7.79861e-07
5.80275e-07
4.11177e-07
3.20431e-07
3.15728e-07
2.82828e-07
4.19227e-07
2.1309e-06
2.26992e-06
2.85082e-06
3.48137e-06
4.12301e-06
4.59655e-06
4.79198e-06
4.74225e-06
4.50589e-06
4.09802e-06
3.38883e-06
2.43405e-06
1.63921e-06
1.18748e-06
1.78936e-06
1.33714e-06
1.35354e-06
1.52556e-06
1.78245e-06
2.03939e-06
2.21522e-06
2.28608e-06
2.26556e-06
2.14557e-06
1.78016e-06
1.2245e-06
7.86073e-07
5.96379e-07
2.29224e-06
1.34078e-06
8.78937e-07
6.92448e-07
6.72434e-07
7.34896e-07
8.12872e-07
8.74744e-07
9.12837e-07
9.15986e-07
7.61686e-07
5.22697e-07
3.91974e-07
5.00337e-07
3.36716e-06
1.92489e-06
1.00879e-06
5.08286e-07
2.90786e-07
2.2608e-07
2.27162e-07
2.49961e-07
2.7855e-07
3.01537e-07
2.54524e-07
1.96621e-07
2.38226e-07
5.08157e-07
4.55927e-06
2.66864e-06
1.35648e-06
5.91774e-07
2.28858e-07
9.11378e-08
5.28475e-08
5.02526e-08
5.95107e-08
7.13618e-08
6.58951e-08
8.09863e-08
2.01949e-07
5.94652e-07
5.33307e-06
3.10613e-06
1.56072e-06
6.61352e-07
2.31798e-07
6.695e-08
1.75958e-08
7.41407e-09
7.90807e-09
1.12246e-08
1.73682e-08
6.03872e-08
2.46588e-07
8.01694e-07
5.78935e-06
3.24749e-06
1.56128e-06
6.27573e-07
2.05992e-07
5.36263e-08
1.06585e-08
1.71701e-09
6.35653e-10
1.64963e-09
1.20941e-08
7.73462e-08
3.38314e-07
1.07077e-06
6.05784e-06
3.25662e-06
1.489e-06
5.63227e-07
1.71909e-07
4.12059e-08
7.57763e-09
1.11259e-09
2.09395e-10
1.41038e-09
1.75307e-08
1.10616e-07
4.50003e-07
1.32867e-06
6.02288e-06
3.0938e-06
1.35431e-06
4.9252e-07
1.46936e-07
3.67189e-08
8.99313e-09
2.94358e-09
1.38912e-09
2.99309e-09
2.63458e-08
1.47945e-07
5.51841e-07
1.51482e-06
5.58539e-06
2.74236e-06
1.16254e-06
4.24881e-07
1.41552e-07
5.24983e-08
2.65474e-08
1.58337e-08
9.41166e-09
8.73699e-09
3.38655e-08
1.60834e-07
5.67917e-07
1.51025e-06
4.79997e-06
2.27798e-06
9.66977e-07
3.95801e-07
1.93655e-07
1.31699e-07
1.01758e-07
7.2951e-08
4.72253e-08
3.36769e-08
5.06653e-08
1.5262e-07
4.85857e-07
1.29785e-06
3.86854e-06
1.83356e-06
8.48712e-07
4.78125e-07
3.93279e-07
3.78022e-07
3.36638e-07
2.62181e-07
1.81786e-07
1.23501e-07
1.12626e-07
1.68771e-07
3.69804e-07
9.54849e-07
3.04181e-06
1.50477e-06
8.87033e-07
7.95583e-07
9.0389e-07
9.71687e-07
9.1186e-07
7.54443e-07
5.60294e-07
3.88155e-07
2.95548e-07
2.88576e-07
3.32836e-07
6.61471e-07
2.48516e-06
1.47193e-06
1.2737e-06
1.56854e-06
1.95874e-06
2.14217e-06
2.06495e-06
1.80374e-06
1.43584e-06
1.04481e-06
7.52005e-07
6.2161e-07
5.03588e-07
6.11553e-07
4.5157e-06
5.30731e-06
6.50884e-06
7.70548e-06
8.56917e-06
8.85153e-06
8.55674e-06
7.85745e-06
6.94104e-06
5.88287e-06
4.51997e-06
3.0164e-06
1.88512e-06
1.3668e-06
2.70691e-06
2.57841e-06
2.91382e-06
3.41287e-06
3.90109e-06
4.21749e-06
4.2721e-06
4.07838e-06
3.72332e-06
3.25518e-06
2.47554e-06
1.56155e-06
9.48771e-07
8.49319e-07
2.82347e-06
1.92203e-06
1.5003e-06
1.38379e-06
1.44754e-06
1.56602e-06
1.64249e-06
1.6358e-06
1.56351e-06
1.4353e-06
1.08254e-06
6.95828e-07
5.61326e-07
9.19833e-07
4.29241e-06
2.64096e-06
1.49469e-06
8.36369e-07
5.47535e-07
4.65626e-07
4.64123e-07
4.76259e-07
4.83665e-07
4.74848e-07
3.65467e-07
2.86867e-07
4.34874e-07
1.10743e-06
6.27247e-06
3.9288e-06
2.1001e-06
9.56603e-07
3.87292e-07
1.64965e-07
1.0056e-07
9.15449e-08
9.83809e-08
1.0878e-07
9.73564e-08
1.50822e-07
4.65282e-07
1.44488e-06
7.89155e-06
4.89004e-06
2.57491e-06
1.13245e-06
4.07194e-07
1.18462e-07
3.03673e-08
1.18505e-08
1.17752e-08
1.65823e-08
3.34027e-08
1.49911e-07
6.17903e-07
1.92408e-06
9.04586e-06
5.40683e-06
2.72633e-06
1.13523e-06
3.80666e-07
9.93416e-08
1.92902e-08
2.81586e-09
8.40185e-10
3.43403e-09
3.24449e-08
2.02699e-07
8.25103e-07
2.40935e-06
1.00816e-05
5.79507e-06
2.78667e-06
1.09273e-06
3.40249e-07
8.15179e-08
1.47772e-08
2.21282e-09
4.81243e-10
3.94058e-09
4.57779e-08
2.68113e-07
1.00747e-06
2.73277e-06
1.07836e-05
5.90899e-06
2.71284e-06
1.0153e-06
3.06455e-07
7.69647e-08
1.98241e-08
7.40662e-09
3.72931e-09
7.35151e-09
6.01458e-08
3.16794e-07
1.10407e-06
2.81829e-06
1.08569e-05
5.62867e-06
2.47113e-06
9.12871e-07
3.01106e-07
1.13064e-07
6.17516e-08
4.00163e-08
2.4556e-08
2.04568e-08
6.94495e-08
3.08725e-07
1.02456e-06
2.55898e-06
1.01176e-05
4.95908e-06
2.11217e-06
8.35764e-07
3.92557e-07
2.75625e-07
2.29153e-07
1.76129e-07
1.18837e-07
8.02452e-08
1.0129e-07
2.69729e-07
7.96745e-07
2.00519e-06
8.63138e-06
4.08233e-06
1.79274e-06
9.17019e-07
7.36682e-07
7.50065e-07
7.17771e-07
5.99434e-07
4.39149e-07
2.97472e-07
2.37943e-07
2.96062e-07
5.65875e-07
1.33738e-06
7.00568e-06
3.29827e-06
1.69109e-06
1.34638e-06
1.57065e-06
1.81457e-06
1.83164e-06
1.62896e-06
1.29295e-06
9.28247e-07
6.64494e-07
5.49867e-07
5.40195e-07
8.82731e-07
5.78649e-06
2.97834e-06
2.07434e-06
2.38502e-06
3.16813e-06
3.74958e-06
3.89445e-06
3.66749e-06
3.14831e-06
2.43703e-06
1.75616e-06
1.29498e-06
9.59782e-07
9.31749e-07
9.88639e-07
1.72385e-06
3.2205e-06
6.56529e-06
2.38178e-05
3.3708e-05
4.98468e-07
8.97383e-07
1.80773e-06
4.14447e-06
1.81664e-05
3.22324e-05
5.32633e-07
1.01318e-06
2.03214e-06
4.53636e-06
1.7837e-05
3.06665e-05
5.74289e-07
1.20096e-06
2.52274e-06
5.54536e-06
1.87861e-05
2.94217e-05
6.63174e-07
1.54646e-06
3.39137e-06
7.3083e-06
2.15471e-05
2.88951e-05
8.91513e-07
2.13495e-06
4.65933e-06
9.72048e-06
2.60731e-05
2.91801e-05
1.20259e-06
2.81755e-06
6.01309e-06
1.23081e-05
3.18096e-05
3.01224e-05
1.52155e-06
3.40314e-06
7.07503e-06
1.44325e-05
3.73556e-05
3.14534e-05
1.79464e-06
3.80305e-06
7.71343e-06
1.58575e-05
4.19561e-05
3.2881e-05
1.90667e-06
3.85813e-06
7.70785e-06
1.61313e-05
4.43263e-05
3.3993e-05
1.80355e-06
3.53017e-06
6.97638e-06
1.49655e-05
4.34889e-05
3.45001e-05
1.49345e-06
2.88782e-06
5.6942e-06
1.25322e-05
3.8569e-05
3.45831e-05
1.11144e-06
2.1912e-06
4.38861e-06
9.71826e-06
3.1009e-05
3.45982e-05
8.03674e-07
1.67111e-06
3.43333e-06
7.18878e-06
2.4881e-05
3.47989e-05
1.24954e-06
2.05525e-06
3.6432e-06
6.85861e-06
1.78446e-05
2.85384e-05
8.01482e-07
1.45432e-06
2.81145e-06
5.62626e-06
1.45082e-05
2.72363e-05
9.85466e-07
1.92892e-06
3.78971e-06
7.37407e-06
1.63588e-05
2.66154e-05
1.20795e-06
2.60592e-06
5.33036e-06
1.01981e-05
2.04646e-05
2.705e-05
1.56362e-06
3.58291e-06
7.42412e-06
1.39253e-05
2.66216e-05
2.86512e-05
2.09753e-06
4.76746e-06
9.70953e-06
1.78122e-05
3.35595e-05
3.09966e-05
2.66209e-06
5.8421e-06
1.15792e-05
2.09556e-05
3.9837e-05
3.33146e-05
3.11102e-06
6.48396e-06
1.24937e-05
2.26402e-05
4.42881e-05
3.49559e-05
3.36314e-06
6.63402e-06
1.24702e-05
2.29164e-05
4.68559e-05
3.57941e-05
3.28449e-06
6.18634e-06
1.14433e-05
2.14724e-05
4.64567e-05
3.55018e-05
2.87703e-06
5.23921e-06
9.5738e-06
1.8388e-05
4.24364e-05
3.41233e-05
2.20695e-06
3.96711e-06
7.23908e-06
1.42348e-05
3.50352e-05
3.22454e-05
1.50332e-06
2.7603e-06
5.1273e-06
1.02284e-05
2.6084e-05
3.06585e-05
1.02127e-06
1.95405e-06
3.74062e-06
7.16582e-06
1.88665e-05
2.95783e-05
1.67434e-06
2.65709e-06
4.47256e-06
7.5917e-06
1.33245e-05
2.1974e-05
1.56614e-06
2.96529e-06
5.57435e-06
9.99757e-06
1.72245e-05
2.34374e-05
2.11327e-06
4.29447e-06
8.277e-06
1.47438e-05
2.39166e-05
2.7606e-05
2.81756e-06
6.06268e-06
1.18047e-05
2.06162e-05
3.16309e-05
3.33152e-05
3.73379e-06
8.10857e-06
1.54901e-05
2.62515e-05
3.86364e-05
3.89738e-05
4.71711e-06
9.94346e-06
1.83771e-05
3.02776e-05
4.34566e-05
4.30923e-05
5.50722e-06
1.10908e-05
1.97584e-05
3.1876e-05
4.55921e-05
4.49349e-05
5.86017e-06
1.11966e-05
1.92958e-05
3.09888e-05
4.55874e-05
4.47082e-05
5.77815e-06
1.04591e-05
1.75231e-05
2.82703e-05
4.39972e-05
4.2781e-05
5.1807e-06
8.94396e-06
1.47202e-05
2.38839e-05
3.9796e-05
3.90683e-05
4.18535e-06
6.95321e-06
1.1297e-05
1.84041e-05
3.26136e-05
3.41059e-05
2.94787e-06
4.80412e-06
7.8292e-06
1.271e-05
2.35883e-05
2.8956e-05
1.84773e-06
3.05034e-06
5.05594e-06
8.22381e-06
1.55738e-05
2.49055e-05
1.28084e-06
2.19248e-06
3.75005e-06
6.09328e-06
1.16727e-05
2.23321e-05
6.19381e-07
1.13452e-06
2.21458e-06
4.58645e-06
1.97929e-05
3.42282e-05
5.33916e-07
9.54657e-07
1.86306e-06
4.03668e-06
1.72506e-05
3.24872e-05
6.50017e-07
1.20131e-06
2.33769e-06
4.93458e-06
1.80177e-05
3.08767e-05
7.32418e-07
1.5105e-06
3.0687e-06
6.37407e-06
1.99539e-05
2.97405e-05
9.90758e-07
2.13127e-06
4.33193e-06
8.6683e-06
2.38608e-05
2.94193e-05
1.35249e-06
2.89731e-06
5.81183e-06
1.13575e-05
2.91316e-05
2.98856e-05
1.7269e-06
3.60338e-06
7.10847e-06
1.38253e-05
3.49964e-05
3.08298e-05
2.05177e-06
4.12089e-06
7.9921e-06
1.5639e-05
4.02262e-05
3.19503e-05
2.26557e-06
4.39096e-06
8.39592e-06
1.66718e-05
4.43131e-05
3.31346e-05
2.27861e-06
4.29935e-06
8.16381e-06
1.65772e-05
4.63015e-05
3.39611e-05
2.01204e-06
3.74864e-06
7.13877e-06
1.50049e-05
4.45335e-05
3.41807e-05
1.58157e-06
2.92051e-06
5.59527e-06
1.21992e-05
3.8557e-05
3.3938e-05
1.29037e-06
2.33152e-06
4.40308e-06
9.48094e-06
3.04764e-05
3.40108e-05
1.31519e-06
2.3343e-06
4.19905e-06
7.80999e-06
2.5836e-05
3.4312e-05
9.77773e-07
1.67713e-06
3.01293e-06
5.45543e-06
1.47676e-05
2.85924e-05
1.00887e-06
1.78179e-06
3.27483e-06
6.04378e-06
1.42423e-05
2.7299e-05
1.33603e-06
2.50917e-06
4.69135e-06
8.51119e-06
1.73495e-05
2.69179e-05
1.75693e-06
3.55941e-06
6.80901e-06
1.21755e-05
2.29316e-05
2.78551e-05
2.42978e-06
4.98841e-06
9.46181e-06
1.6565e-05
3.02534e-05
3.00033e-05
3.14575e-06
6.33969e-06
1.18164e-05
2.04662e-05
3.73897e-05
3.25405e-05
3.71345e-06
7.23226e-06
1.32256e-05
2.29455e-05
4.29859e-05
3.4634e-05
4.05717e-06
7.57633e-06
1.35844e-05
2.38343e-05
4.66125e-05
3.59001e-05
4.12825e-06
7.41641e-06
1.30574e-05
2.32621e-05
4.82279e-05
3.61741e-05
3.82783e-06
6.66982e-06
1.16134e-05
2.10723e-05
4.64747e-05
3.53182e-05
3.12263e-06
5.35163e-06
9.31267e-06
1.73864e-05
4.07249e-05
3.34415e-05
2.33262e-06
3.93262e-06
6.8703e-06
1.31495e-05
3.22141e-05
3.12963e-05
2.02819e-06
3.32939e-06
5.64712e-06
1.03863e-05
2.43511e-05
3.00698e-05
2.58364e-06
4.2272e-06
6.71682e-06
1.03902e-05
2.06061e-05
2.94748e-05
1.73602e-06
2.84994e-06
4.76307e-06
7.82915e-06
1.33362e-05
2.16203e-05
2.13149e-06
3.81327e-06
6.74146e-06
1.13835e-05
1.83841e-05
2.36035e-05
2.98754e-06
5.67742e-06
1.02449e-05
1.72028e-05
2.60497e-05
2.85243e-05
4.13774e-06
8.16193e-06
1.47529e-05
2.42535e-05
3.48664e-05
3.51491e-05
5.46827e-06
1.06637e-05
1.88465e-05
3.01325e-05
4.20179e-05
4.11165e-05
6.54223e-06
1.23477e-05
2.11504e-05
3.30998e-05
4.5685e-05
4.45566e-05
7.10565e-06
1.28475e-05
2.13056e-05
3.30374e-05
4.6331e-05
4.56934e-05
7.16152e-06
1.23548e-05
1.98621e-05
3.08503e-05
4.49832e-05
4.48899e-05
6.7341e-06
1.111e-05
1.73444e-05
2.70813e-05
4.157e-05
4.22016e-05
5.7535e-06
9.14057e-06
1.39734e-05
2.18244e-05
3.50991e-05
3.76244e-05
4.32809e-06
6.71849e-06
1.01945e-05
1.59855e-05
2.67841e-05
3.22289e-05
3.1826e-06
4.84422e-06
7.32646e-06
1.14282e-05
1.92961e-05
2.76661e-05
3.34597e-06
5.07897e-06
7.58564e-06
1.12337e-05
1.74362e-05
2.57743e-05
5.59417e-06
8.50814e-06
1.24296e-05
1.70723e-05
2.28264e-05
2.55056e-05
3.40422e-05
3.13855e-05
1.16436e-05
6.26192e-06
3.49783e-06
1.91e-06
3.48357e-05
3.92107e-05
1.44923e-05
7.16407e-06
4.06791e-06
2.39632e-06
3.50565e-05
4.80609e-05
1.77922e-05
8.85846e-06
5.11203e-06
3.12805e-06
3.50452e-05
5.40542e-05
2.11803e-05
1.09685e-05
6.46373e-06
4.04842e-06
3.45105e-05
5.67461e-05
2.39118e-05
1.29576e-05
7.77225e-06
4.86472e-06
3.34118e-05
5.62729e-05
2.5348e-05
1.43736e-05
8.63258e-06
5.26689e-06
3.19342e-05
5.36032e-05
2.57622e-05
1.52891e-05
9.19096e-06
5.50118e-06
3.07142e-05
4.9238e-05
2.4941e-05
1.54576e-05
9.39682e-06
5.52868e-06
2.97738e-05
4.36904e-05
2.30408e-05
1.47115e-05
9.03883e-06
5.27802e-06
2.92707e-05
3.77891e-05
2.0068e-05
1.30505e-05
8.06996e-06
4.71652e-06
2.94468e-05
3.2146e-05
1.64263e-05
1.06994e-05
6.64258e-06
3.91638e-06
3.03395e-05
2.73692e-05
1.2752e-05
8.24382e-06
5.17245e-06
3.1178e-06
3.17594e-05
2.41325e-05
9.91032e-06
6.33828e-06
4.00179e-06
2.49059e-06
3.35214e-05
2.40306e-05
8.21738e-06
5.28461e-06
3.33336e-06
2.06536e-06
2.97096e-05
2.52969e-05
1.29421e-05
7.81099e-06
4.70139e-06
2.72574e-06
3.16204e-05
3.19429e-05
1.4567e-05
7.94425e-06
4.8191e-06
3.01443e-06
3.3398e-05
4.11969e-05
1.80433e-05
9.79081e-06
6.11213e-06
4.03201e-06
3.5129e-05
4.93095e-05
2.24443e-05
1.26715e-05
8.14905e-06
5.52699e-06
3.65466e-05
5.47687e-05
2.70415e-05
1.59194e-05
1.04024e-05
7.07504e-06
3.71843e-05
5.72708e-05
3.09929e-05
1.90852e-05
1.24126e-05
8.215e-06
3.69724e-05
5.71673e-05
3.40613e-05
2.19804e-05
1.42442e-05
9.19735e-06
3.6133e-05
5.50464e-05
3.5781e-05
2.4316e-05
1.59151e-05
9.99995e-06
3.45939e-05
5.20819e-05
3.58655e-05
2.53062e-05
1.67468e-05
1.03799e-05
3.25948e-05
4.74462e-05
3.42168e-05
2.46239e-05
1.64048e-05
1.00861e-05
3.05661e-05
4.08797e-05
3.02925e-05
2.20584e-05
1.47529e-05
9.04569e-06
2.89481e-05
3.27789e-05
2.44041e-05
1.79912e-05
1.21495e-05
7.47802e-06
2.82424e-05
2.54266e-05
1.85262e-05
1.38278e-05
9.48931e-06
5.98039e-06
2.87008e-05
2.12134e-05
1.36927e-05
1.07214e-05
7.56374e-06
4.9026e-06
2.58855e-05
2.31521e-05
1.64564e-05
1.15001e-05
7.45048e-06
4.66394e-06
2.72046e-05
1.99536e-05
1.23661e-05
8.22047e-06
5.4241e-06
3.64764e-06
2.96152e-05
2.34757e-05
1.32433e-05
8.79264e-06
6.18079e-06
4.51101e-06
3.35592e-05
3.0493e-05
1.71056e-05
1.1653e-05
8.61507e-06
6.51816e-06
3.80367e-05
3.74649e-05
2.22813e-05
1.56145e-05
1.17602e-05
8.91533e-06
4.21842e-05
4.26979e-05
2.79981e-05
2.00318e-05
1.50141e-05
1.10979e-05
4.53469e-05
4.62164e-05
3.36534e-05
2.46507e-05
1.84319e-05
1.32221e-05
4.74024e-05
4.89341e-05
3.87597e-05
2.94423e-05
2.19453e-05
1.53029e-05
4.82843e-05
5.15177e-05
4.35171e-05
3.38943e-05
2.51399e-05
1.71393e-05
4.77462e-05
5.33926e-05
4.72338e-05
3.71233e-05
2.72549e-05
1.82364e-05
4.5323e-05
5.30942e-05
4.81892e-05
3.77176e-05
2.72965e-05
1.80101e-05
4.02239e-05
4.86085e-05
4.43947e-05
3.4283e-05
2.46321e-05
1.61149e-05
3.33801e-05
4.04504e-05
3.63025e-05
2.79397e-05
2.03447e-05
1.35836e-05
2.74793e-05
3.15065e-05
2.76778e-05
2.16353e-05
1.61459e-05
1.1297e-05
3.48054e-05
3.22528e-05
1.15789e-05
5.9198e-06
3.08801e-06
1.64377e-06
3.56523e-05
3.98819e-05
1.45592e-05
7.14776e-06
3.94425e-06
2.30678e-06
3.58091e-05
4.75649e-05
1.76822e-05
8.79477e-06
5.05147e-06
3.08068e-06
3.55329e-05
5.22923e-05
2.08801e-05
1.08019e-05
6.30264e-06
3.86568e-06
3.4809e-05
5.42739e-05
2.34269e-05
1.26546e-05
7.41031e-06
4.45909e-06
3.33881e-05
5.36065e-05
2.48568e-05
1.39966e-05
8.17564e-06
4.76543e-06
3.15641e-05
5.07147e-05
2.49164e-05
1.46701e-05
8.5385e-06
4.82023e-06
2.99369e-05
4.61041e-05
2.37195e-05
1.45343e-05
8.45395e-06
4.68256e-06
2.89259e-05
4.04976e-05
2.13921e-05
1.34325e-05
7.89601e-06
4.32264e-06
2.8519e-05
3.46858e-05
1.8133e-05
1.14428e-05
6.77627e-06
3.72024e-06
2.88737e-05
2.97511e-05
1.45631e-05
9.12428e-06
5.41564e-06
3.03459e-06
2.99015e-05
2.63028e-05
1.14845e-05
7.09835e-06
4.28905e-06
2.49859e-06
3.13072e-05
2.39261e-05
9.08142e-06
5.39315e-06
3.20087e-06
1.8759e-06
3.29029e-05
2.59989e-05
9.10796e-06
5.38006e-06
3.16291e-06
1.82624e-06
3.02292e-05
2.5619e-05
1.08523e-05
5.86276e-06
3.24649e-06
1.87014e-06
3.24146e-05
3.46957e-05
1.44522e-05
7.70714e-06
4.592e-06
2.87243e-06
3.42757e-05
4.36446e-05
1.84246e-05
1.00793e-05
6.29982e-06
4.12953e-06
3.58054e-05
5.01057e-05
2.29197e-05
1.30487e-05
8.28879e-06
5.48232e-06
3.68307e-05
5.3858e-05
2.74433e-05
1.62685e-05
1.03342e-05
6.69266e-06
3.68932e-05
5.54866e-05
3.1278e-05
1.9269e-05
1.21936e-05
7.65802e-06
3.60439e-05
5.50753e-05
3.36798e-05
2.17241e-05
1.37155e-05
8.35092e-06
3.47604e-05
5.26854e-05
3.47238e-05
2.34633e-05
1.47861e-05
8.75789e-06
3.29861e-05
4.91945e-05
3.39542e-05
2.37884e-05
1.5105e-05
8.77351e-06
3.0959e-05
4.39046e-05
3.14264e-05
2.22001e-05
1.41376e-05
8.1681e-06
2.91282e-05
3.70386e-05
2.70292e-05
1.91011e-05
1.21576e-05
7.03137e-06
2.79679e-05
2.99359e-05
2.1605e-05
1.53446e-05
9.85454e-06
5.78496e-06
2.7678e-05
2.41351e-05
1.66778e-05
1.17549e-05
7.60027e-06
4.52141e-06
2.83414e-05
2.25117e-05
1.37934e-05
9.82209e-06
6.43967e-06
3.8919e-06
2.33201e-05
1.42273e-05
7.32909e-06
4.68337e-06
2.93976e-06
1.92319e-06
2.67266e-05
2.02961e-05
1.0165e-05
6.73449e-06
4.56302e-06
3.17966e-06
3.06266e-05
2.82487e-05
1.41837e-05
9.62128e-06
6.80513e-06
4.92896e-06
3.49017e-05
3.54851e-05
1.89214e-05
1.31618e-05
9.48518e-06
6.90595e-06
3.9151e-05
4.0876e-05
2.43165e-05
1.72395e-05
1.24579e-05
8.83911e-06
4.28528e-05
4.42324e-05
2.9961e-05
2.15878e-05
1.55914e-05
1.07412e-05
4.55778e-05
4.68441e-05
3.50626e-05
2.58393e-05
1.87343e-05
1.25698e-05
4.72625e-05
4.90707e-05
3.93226e-05
2.98573e-05
2.16073e-05
1.42117e-05
4.77958e-05
5.09799e-05
4.29237e-05
3.30901e-05
2.37659e-05
1.53776e-05
4.68095e-05
5.18438e-05
4.49757e-05
3.46061e-05
2.44846e-05
1.56023e-05
4.37607e-05
5.02454e-05
4.41048e-05
3.35842e-05
2.33494e-05
1.4644e-05
3.8545e-05
4.54279e-05
3.96388e-05
2.97788e-05
2.05156e-05
1.28126e-05
3.23582e-05
3.83366e-05
3.27515e-05
2.43451e-05
1.69412e-05
1.07602e-05
2.71676e-05
3.06364e-05
2.56047e-05
1.9265e-05
1.37194e-05
9.12485e-06
8.32784e-06
9.42519e-06
1.09649e-05
1.22012e-05
1.26209e-05
1.22193e-05
1.121e-05
9.87218e-06
8.44397e-06
7.01642e-06
5.26494e-06
3.37845e-06
2.00319e-06
1.50302e-06
4.11329e-06
4.28104e-06
4.88464e-06
5.57192e-06
6.02854e-06
6.11725e-06
5.84497e-06
5.2985e-06
4.63879e-06
3.94246e-06
2.90443e-06
1.7674e-06
1.0687e-06
1.21184e-06
3.28246e-06
2.46719e-06
2.14181e-06
2.11861e-06
2.22534e-06
2.30975e-06
2.29229e-06
2.15371e-06
1.96343e-06
1.73926e-06
1.2743e-06
7.99784e-07
7.20837e-07
1.50304e-06
4.76068e-06
2.96191e-06
1.7346e-06
1.04398e-06
7.48215e-07
6.60684e-07
6.43191e-07
6.2474e-07
6.04815e-07
5.7032e-07
4.28135e-07
3.48459e-07
6.61376e-07
1.96256e-06
7.1165e-06
4.46855e-06
2.41056e-06
1.11497e-06
4.64576e-07
2.09456e-07
1.34391e-07
1.20009e-07
1.23727e-07
1.28581e-07
1.14916e-07
2.1783e-07
7.96749e-07
2.5794e-06
9.11559e-06
5.77775e-06
3.08844e-06
1.36644e-06
4.9199e-07
1.44066e-07
3.77509e-08
1.45547e-08
1.3409e-08
1.84686e-08
4.60544e-08
2.44335e-07
1.04809e-06
3.23512e-06
1.07029e-05
6.59317e-06
3.38576e-06
1.41834e-06
4.74967e-07
1.23874e-07
2.41252e-08
3.45705e-09
8.74553e-10
4.79551e-09
5.14078e-08
3.28165e-07
1.32959e-06
3.79014e-06
1.23741e-05
7.39572e-06
3.64122e-06
1.43738e-06
4.44647e-07
1.05591e-07
1.90507e-08
2.85629e-09
6.17186e-10
6.04233e-09
7.00385e-08
4.10157e-07
1.52539e-06
4.03663e-06
1.39171e-05
7.99242e-06
3.76454e-06
1.41458e-06
4.18828e-07
1.01806e-07
2.57226e-08
9.88413e-09
5.05783e-09
1.03868e-08
8.62634e-08
4.56062e-07
1.579e-06
3.95284e-06
1.49602e-05
8.16023e-06
3.6679e-06
1.33716e-06
4.18496e-07
1.48241e-07
8.19827e-08
5.56522e-08
3.51743e-08
2.8212e-08
9.37851e-08
4.20407e-07
1.39262e-06
3.42423e-06
1.50269e-05
7.70808e-06
3.31602e-06
1.24157e-06
5.26484e-07
3.59791e-07
3.11981e-07
2.5217e-07
1.7747e-07
1.19192e-07
1.37165e-07
3.52803e-07
1.041e-06
2.56392e-06
1.38041e-05
6.70037e-06
2.86451e-06
1.29422e-06
9.46026e-07
9.87693e-07
9.92388e-07
8.73597e-07
6.72675e-07
4.74259e-07
3.5926e-07
3.95253e-07
7.16103e-07
1.61634e-06
1.17416e-05
5.52373e-06
2.56198e-06
1.72664e-06
1.975e-06
2.39013e-06
2.53142e-06
2.37606e-06
1.99298e-06
1.52802e-06
1.10202e-06
8.2964e-07
7.40947e-07
1.05212e-06
1.01961e-05
4.87846e-06
2.7801e-06
2.83709e-06
3.90511e-06
4.86209e-06
5.29205e-06
5.25378e-06
4.78581e-06
3.98776e-06
3.01449e-06
2.16075e-06
1.52706e-06
1.27746e-06
5.62534e-06
6.50834e-06
7.68036e-06
8.69988e-06
9.21858e-06
9.17207e-06
8.66049e-06
7.84064e-06
6.87721e-06
5.88653e-06
4.52975e-06
2.90033e-06
1.63308e-06
1.06805e-06
3.02517e-06
3.11809e-06
3.51419e-06
4.00963e-06
4.39138e-06
4.53704e-06
4.42328e-06
4.09611e-06
3.66148e-06
3.19458e-06
2.41187e-06
1.46571e-06
8.24542e-07
7.94517e-07
2.63725e-06
1.90416e-06
1.5745e-06
1.51784e-06
1.59406e-06
1.6751e-06
1.6882e-06
1.61346e-06
1.49591e-06
1.35541e-06
1.01519e-06
6.26789e-07
5.00047e-07
9.44818e-07
4.10785e-06
2.47108e-06
1.38299e-06
7.88202e-07
5.39707e-07
4.70336e-07
4.6178e-07
4.54958e-07
4.46629e-07
4.29091e-07
3.25431e-07
2.51663e-07
4.3843e-07
1.2594e-06
6.14733e-06
3.75593e-06
1.9681e-06
8.85544e-07
3.56506e-07
1.53409e-07
9.53155e-08
8.51061e-08
8.87061e-08
9.34028e-08
8.26172e-08
1.50517e-07
5.42904e-07
1.71517e-06
7.58392e-06
4.68951e-06
2.45208e-06
1.06679e-06
3.79898e-07
1.10012e-07
2.79183e-08
1.0093e-08
9.22115e-09
1.28821e-08
3.29382e-08
1.74669e-07
7.38569e-07
2.22607e-06
8.54235e-06
5.17385e-06
2.60755e-06
1.07773e-06
3.58967e-07
9.37128e-08
1.82691e-08
2.56902e-09
6.06047e-10
3.64385e-09
3.8554e-08
2.41581e-07
9.6614e-07
2.70851e-06
9.47646e-06
5.61278e-06
2.72661e-06
1.06594e-06
3.29141e-07
7.86251e-08
1.43692e-08
2.23188e-09
5.25014e-10
4.74739e-09
5.29634e-08
3.06455e-07
1.13639e-06
2.99233e-06
1.01934e-05
5.86608e-06
2.74752e-06
1.02672e-06
3.03987e-07
7.48538e-08
1.97412e-08
8.00762e-09
4.10095e-09
7.83779e-09
6.42532e-08
3.41344e-07
1.1939e-06
3.00744e-06
1.04851e-05
5.81603e-06
2.62397e-06
9.54487e-07
2.99656e-07
1.0984e-07
6.36492e-08
4.38753e-08
2.71713e-08
2.03751e-08
6.74877e-08
3.1178e-07
1.05801e-06
2.64311e-06
1.01059e-05
5.36225e-06
2.33775e-06
8.7687e-07
3.79251e-07
2.71324e-07
2.39572e-07
1.92344e-07
1.31609e-07
8.3873e-08
9.23796e-08
2.50328e-07
7.78265e-07
1.96849e-06
9.02732e-06
4.60469e-06
2.00808e-06
9.17084e-07
6.9888e-07
7.51747e-07
7.53607e-07
6.49184e-07
4.82139e-07
3.26121e-07
2.34229e-07
2.55355e-07
5.00166e-07
1.18035e-06
7.50598e-06
3.75983e-06
1.78534e-06
1.24384e-06
1.4932e-06
1.83026e-06
1.90834e-06
1.72914e-06
1.38421e-06
1.01877e-06
7.05462e-07
5.07538e-07
4.53469e-07
6.65662e-07
6.31533e-06
3.23827e-06
1.91127e-06
2.07816e-06
2.98973e-06
3.72884e-06
3.9478e-06
3.73036e-06
3.20375e-06
2.53866e-06
1.84346e-06
1.27396e-06
8.61833e-07
6.80516e-07
2.82144e-06
3.31933e-06
4.09178e-06
4.89121e-06
5.42627e-06
5.6076e-06
5.45413e-06
5.05214e-06
4.50095e-06
3.90913e-06
3.07874e-06
1.99449e-06
1.11357e-06
6.51001e-07
1.54975e-06
1.46153e-06
1.63484e-06
1.94618e-06
2.2449e-06
2.42598e-06
2.45051e-06
2.34071e-06
2.14399e-06
1.91937e-06
1.50111e-06
9.2811e-07
4.85325e-07
3.46986e-07
1.7438e-06
1.07383e-06
7.54661e-07
6.72409e-07
7.14665e-07
7.83198e-07
8.22662e-07
8.1889e-07
7.84312e-07
7.35994e-07
5.70811e-07
3.49085e-07
2.19376e-07
3.61719e-07
3.03047e-06
1.67779e-06
8.41259e-07
4.12852e-07
2.42498e-07
1.99293e-07
2.00022e-07
2.06369e-07
2.10724e-07
2.11114e-07
1.6337e-07
1.13541e-07
1.62869e-07
5.33526e-07
4.45349e-06
2.53137e-06
1.23484e-06
5.14158e-07
1.8736e-07
6.97856e-08
3.86366e-08
3.46385e-08
3.75443e-08
4.12412e-08
3.49021e-08
5.47812e-08
2.15026e-07
7.96288e-07
5.25471e-06
3.01249e-06
1.46705e-06
5.99006e-07
2.01435e-07
5.49342e-08
1.26595e-08
3.98721e-09
3.60378e-09
5.09488e-09
1.14102e-08
6.5486e-08
3.17837e-07
1.09611e-06
5.80108e-06
3.22794e-06
1.50139e-06
5.78658e-07
1.8204e-07
4.5407e-08
8.53514e-09
1.15782e-09
2.39664e-10
1.14474e-09
1.3493e-08
9.67189e-08
4.39801e-07
1.40105e-06
6.26366e-06
3.38426e-06
1.50489e-06
5.44493e-07
1.57952e-07
3.59252e-08
6.30256e-09
9.3007e-10
1.87221e-10
1.47243e-09
1.94713e-08
1.28083e-07
5.3566e-07
1.59014e-06
6.51664e-06
3.40577e-06
1.4496e-06
4.96886e-07
1.36884e-07
3.18491e-08
8.09899e-09
3.17979e-09
1.53456e-09
2.5038e-09
2.44251e-08
1.47788e-07
5.80166e-07
1.63616e-06
6.44622e-06
3.24245e-06
1.32283e-06
4.38263e-07
1.28414e-07
4.66315e-08
2.73963e-08
1.83713e-08
1.0837e-08
6.92934e-09
2.53283e-08
1.37592e-07
5.26532e-07
1.46408e-06
5.94588e-06
2.85695e-06
1.12216e-06
3.8657e-07
1.67775e-07
1.26522e-07
1.11044e-07
8.57415e-08
5.60178e-08
3.18877e-08
3.25112e-08
1.0659e-07
3.90084e-07
1.10117e-06
5.05155e-06
2.33999e-06
9.27415e-07
4.16605e-07
3.48275e-07
3.83671e-07
3.74648e-07
3.09787e-07
2.20194e-07
1.37762e-07
8.76756e-08
9.49532e-08
2.36844e-07
6.52925e-07
4.02312e-06
1.8399e-06
8.27399e-07
6.37746e-07
8.28516e-07
1.00957e-06
1.02102e-06
8.90388e-07
6.83604e-07
4.75768e-07
3.02825e-07
1.91422e-07
1.75743e-07
3.24597e-07
3.26929e-06
1.56168e-06
9.59628e-07
1.20768e-06
1.80591e-06
2.21952e-06
2.28337e-06
2.08569e-06
1.72297e-06
1.30973e-06
8.99339e-07
5.65403e-07
3.40701e-07
2.69213e-07
1.04394e-06
1.2273e-06
1.64566e-06
2.09392e-06
2.4458e-06
2.62884e-06
2.62893e-06
2.48099e-06
2.2329e-06
1.94024e-06
1.51844e-06
9.64626e-07
5.25274e-07
3.22764e-07
6.55981e-07
5.12169e-07
5.54491e-07
6.84505e-07
8.32586e-07
9.40256e-07
9.83447e-07
9.671e-07
9.06638e-07
8.2318e-07
6.47004e-07
3.91334e-07
1.93929e-07
1.20579e-07
9.70048e-07
5.03785e-07
2.8703e-07
2.18315e-07
2.24677e-07
2.52277e-07
2.75002e-07
2.84501e-07
2.82378e-07
2.7221e-07
2.13839e-07
1.26784e-07
6.91453e-08
9.89194e-08
1.75474e-06
8.72724e-07
3.88242e-07
1.63022e-07
7.82933e-08
5.6316e-08
5.61058e-08
6.03444e-08
6.47743e-08
6.75692e-08
5.3334e-08
3.40206e-08
4.04907e-08
1.51167e-07
2.52637e-06
1.29891e-06
5.74307e-07
2.17397e-07
7.10602e-08
2.2248e-08
9.93933e-09
8.46463e-09
9.6891e-09
1.14167e-08
9.73467e-09
1.24034e-08
5.32151e-08
2.4377e-07
2.9343e-06
1.50832e-06
6.62153e-07
2.45857e-07
7.58446e-08
1.90078e-08
3.91117e-09
1.00752e-09
8.743e-10
1.28402e-09
2.31183e-09
1.39587e-08
8.42014e-08
3.61318e-07
3.18591e-06
1.56877e-06
6.51033e-07
2.26406e-07
6.50768e-08
1.50208e-08
2.65071e-09
3.41832e-10
6.23694e-11
1.81137e-10
2.37039e-09
2.16073e-08
1.23154e-07
4.87414e-07
3.35815e-06
1.58514e-06
6.21459e-07
2.00948e-07
5.29017e-08
1.10792e-08
1.80841e-09
2.45491e-10
4.14843e-11
1.93117e-10
3.56766e-09
2.99924e-08
1.56021e-07
5.70199e-07
3.38688e-06
1.52962e-06
5.68427e-07
1.72675e-07
4.27895e-08
9.03074e-09
2.08313e-09
7.53073e-10
3.39432e-10
3.76174e-10
4.67241e-09
3.59862e-08
1.74353e-07
5.99027e-07
3.2277e-06
1.3933e-06
4.93156e-07
1.43898e-07
3.78615e-08
1.28295e-08
7.26011e-09
4.64489e-09
2.58821e-09
1.38379e-09
4.9843e-09
3.42052e-08
1.60559e-07
5.38683e-07
2.84647e-06
1.16889e-06
3.97602e-07
1.21988e-07
5.08711e-08
3.84252e-08
3.26821e-08
2.39511e-08
1.47735e-08
7.6467e-09
6.78227e-09
2.60657e-08
1.17356e-07
3.97683e-07
2.31141e-06
9.15682e-07
3.17662e-07
1.37378e-07
1.20707e-07
1.32029e-07
1.23936e-07
9.71116e-08
6.52431e-08
3.761e-08
2.16749e-08
2.2859e-08
6.92063e-08
2.30888e-07
1.75423e-06
6.93186e-07
2.9066e-07
2.4487e-07
3.29995e-07
3.93434e-07
3.82855e-07
3.17408e-07
2.30663e-07
1.49173e-07
8.82426e-08
5.15706e-08
4.87132e-08
1.10972e-07
1.38253e-06
5.88802e-07
3.85864e-07
5.44999e-07
8.17568e-07
9.83251e-07
9.79003e-07
8.56117e-07
6.71102e-07
4.79418e-07
3.08565e-07
1.81179e-07
1.02712e-07
8.68916e-08
2.85716e-07
3.29929e-07
5.06754e-07
7.11345e-07
8.9839e-07
1.0165e-06
1.04884e-06
1.00626e-06
9.09679e-07
7.79043e-07
5.96324e-07
3.66066e-07
1.8039e-07
1.10468e-07
2.38886e-07
1.4173e-07
1.41868e-07
1.85763e-07
2.45665e-07
2.94786e-07
3.21465e-07
3.25563e-07
3.10117e-07
2.7965e-07
2.16236e-07
1.25618e-07
5.64214e-08
3.187e-08
4.2826e-07
1.87813e-07
8.57784e-08
5.41262e-08
5.45886e-08
6.44048e-08
7.38888e-08
7.96693e-08
8.08475e-08
7.7877e-08
6.05109e-08
3.39997e-08
1.57554e-08
1.77536e-08
8.12251e-07
3.5528e-07
1.3837e-07
4.95153e-08
1.94245e-08
1.22511e-08
1.23833e-08
1.39674e-08
1.53674e-08
1.60789e-08
1.27685e-08
7.3528e-09
6.53606e-09
2.8427e-08
1.19689e-06
5.44716e-07
2.13485e-07
7.17495e-08
2.06186e-08
5.42177e-09
1.95675e-09
1.58376e-09
1.90836e-09
2.31185e-09