/*--------------------------------*- C++ -*----------------------------------*\
| =========                 |                                                 |
| \\      /  F ield         | OpenFOAM: The Open Source CFD Toolbox           |
|  \\    /   O peration     | Version:  v2106                                 |
|   \\  /    A nd           | Website:  www.openfoam.com                      |
|    \\/     M anipulation  |                                                 |
\*---------------------------------------------------------------------------*/
FoamFile
{
    version     2.0;
    format      ascii;
    arch        "LSB;label=32;scalar=64";
    class       volScalarField;
    location    "0.000126";
    object      T;
}
// * * * * * * * * * * * * * * * * * * * * * * * * * * * * * * * * * * * * * //

dimensions      [0 0 0 1 0 0 0];

internalField   nonuniform List<scalar> 
144746
(
295.984
295.768
295.569
295.428
295.304
295.205
295.099
294.991
294.9
294.852
294.846
294.877
294.992
295.196
295.493
295.141
294.894
294.758
294.66
294.598
294.532
294.474
294.431
294.424
294.43
294.464
294.621
294.926
295.097
294.712
294.445
294.311
294.225
294.179
294.133
294.098
294.077
294.086
294.108
294.167
294.359
294.705
294.879
294.496
294.225
294.094
294.013
293.969
293.93
293.9
293.883
293.889
293.91
293.972
294.172
294.517
294.818
294.414
294.13
293.984
293.894
293.848
293.811
293.784
293.766
293.766
293.781
293.833
294.032
294.37
294.812
294.4
294.103
293.944
293.848
293.801
293.766
293.741
293.718
293.708
293.717
293.755
293.943
294.273
294.823
294.395
294.086
293.915
293.813
293.767
293.733
293.711
293.683
293.671
293.671
293.701
293.879
294.2
294.849
294.382
294.055
293.872
293.767
293.722
293.693
293.671
293.643
293.624
293.621
293.648
293.822
294.139
294.879
294.367
294.023
293.831
293.72
293.675
293.649
293.627
293.598
293.577
293.574
293.601
293.768
294.077
294.902
294.34
293.978
293.784
293.675
293.635
293.614
293.598
293.573
293.558
293.554
293.578
293.742
294.04
294.954
294.351
293.969
293.77
293.664
293.623
293.602
293.58
293.558
293.546
293.548
293.582
293.749
294.045
295.019
294.393
293.984
293.777
293.671
293.632
293.615
293.601
293.588
293.583
293.591
293.633
293.803
294.102
295.157
294.548
294.123
293.9
293.792
293.756
293.744
293.739
293.736
293.736
293.755
293.818
293.989
294.27
295.328
294.836
294.41
294.155
294.03
293.996
293.992
294.003
294.026
294.047
294.098
294.186
294.342
294.513
296.148
296.217
296.249
296.384
296.502
296.59
296.637
296.64
296.622
296.597
296.571
296.508
296.437
296.38
296.125
296.123
296.123
296.232
296.348
296.44
296.502
296.523
296.529
296.516
296.477
296.4
296.36
296.381
296.094
296.038
296.023
296.104
296.208
296.301
296.381
296.429
296.458
296.452
296.416
296.36
296.351
296.409
296.122
296.058
296.025
296.065
296.135
296.218
296.307
296.381
296.435
296.453
296.427
296.394
296.403
296.474
296.211
296.115
296.041
296.048
296.09
296.173
296.281
296.381
296.448
296.459
296.457
296.453
296.472
296.543
296.336
296.231
296.113
296.087
296.11
296.186
296.298
296.407
296.48
296.497
296.506
296.509
296.548
296.614
296.436
296.322
296.194
296.142
296.143
296.216
296.337
296.459
296.535
296.547
296.565
296.565
296.6
296.658
296.503
296.369
296.243
296.162
296.179
296.255
296.384
296.504
296.576
296.583
296.599
296.598
296.634
296.68
296.518
296.366
296.243
296.141
296.17
296.247
296.377
296.497
296.565
296.568
296.585
296.588
296.626
296.682
296.542
296.368
296.231
296.116
296.133
296.205
296.332
296.454
296.518
296.518
296.531
296.539
296.575
296.639
296.48
296.305
296.189
296.088
296.106
296.175
296.295
296.414
296.473
296.476
296.489
296.489
296.518
296.583
296.376
296.221
296.141
296.069
296.095
296.18
296.308
296.441
296.502
296.494
296.495
296.478
296.485
296.539
296.288
296.179
296.137
296.104
296.148
296.243
296.372
296.494
296.542
296.533
296.522
296.473
296.451
296.455
296.195
296.179
296.176
296.201
296.27
296.372
296.513
296.626
296.668
296.662
296.632
296.541
296.451
296.372
297.963
298.185
298.456
298.652
298.832
298.975
299.11
299.197
299.25
299.267
299.262
299.192
299.088
298.895
298.239
298.371
298.655
298.904
299.12
299.293
299.432
299.527
299.594
299.616
299.588
299.448
299.282
299.166
298.405
298.619
298.872
299.135
299.358
299.545
299.695
299.798
299.86
299.861
299.803
299.664
299.529
299.434
298.525
298.827
299.066
299.309
299.52
299.709
299.867
299.988
300.073
300.095
300.029
299.921
299.809
299.689
298.712
299.022
299.238
299.449
299.651
299.845
300.02
300.16
300.261
300.285
300.219
300.121
299.997
299.852
298.842
299.203
299.404
299.61
299.799
299.989
300.165
300.315
300.419
300.445
300.395
300.305
300.177
299.992
298.939
299.3
299.534
299.727
299.907
300.096
300.282
300.441
300.548
300.573
300.527
300.433
300.289
300.069
299.015
299.364
299.615
299.816
300.005
300.196
300.378
300.53
300.633
300.654
300.613
300.512
300.357
300.11
299.045
299.372
299.628
299.828
300.02
300.22
300.41
300.567
300.666
300.679
300.638
300.533
300.377
300.128
299.078
299.392
299.632
299.813
299.995
300.192
300.384
300.541
300.628
300.632
300.587
300.482
300.325
300.098
299.042
299.335
299.564
299.746
299.931
300.131
300.327
300.485
300.556
300.547
300.484
300.366
300.195
300.029
299.01
299.237
299.452
299.656
299.863
300.058
300.249
300.397
300.451
300.43
300.347
300.221
300.018
299.892
298.804
299.063
299.293
299.522
299.735
299.925
300.134
300.277
300.324
300.295
300.201
300.057
299.815
299.697
298.62
299.023
299.235
299.447
299.654
299.857
300.044
300.121
300.159
300.152
300.081
299.984
299.709
299.417
295.591
295.85
296.167
296.279
296.396
296.378
295.471
295.864
296.263
296.375
296.547
296.5
295.289
295.79
296.31
296.492
296.699
296.63
295.127
295.704
296.331
296.569
296.798
296.699
294.991
295.623
296.312
296.583
296.806
296.733
294.888
295.538
296.238
296.523
296.733
296.616
294.797
295.427
296.109
296.389
296.596
296.477
294.719
295.319
295.963
296.228
296.441
296.312
294.638
295.19
295.806
296.056
296.268
296.154
294.563
295.052
295.621
295.849
296.046
295.999
294.539
294.958
295.455
295.657
295.849
295.821
294.577
294.934
295.379
295.576
295.749
295.744
294.723
295.02
295.387
295.469
295.629
295.569
294.882
295.128
295.457
295.534
295.662
295.668
296.418
296.311
296.634
296.804
297.156
296.954
296.549
296.498
296.841
296.996
297.417
297.103
296.55
296.554
296.912
297.05
297.478
297.071
296.633
296.647
297.012
297.138
297.515
297.028
296.698
296.738
297.085
297.13
297.437
296.927
296.768
296.805
297.101
297.05
297.278
296.699
296.803
296.829
297.072
296.952
297.143
296.568
296.809
296.835
297.034
296.867
297.029
296.507
296.817
296.838
297.016
296.831
297.01
296.538
296.786
296.834
297.004
296.781
296.92
296.525
296.728
296.758
296.916
296.674
296.78
296.473
296.669
296.622
296.771
296.582
296.728
296.534
296.598
296.475
296.641
296.438
296.612
296.365
296.489
296.347
296.588
296.517
296.72
296.514
298.91
298.671
298.742
298.016
297.638
294.973
299.245
299.053
299.117
298.176
297.603
294.06
299.468
299.222
299.089
297.89
297.101
292.956
299.68
299.387
299.122
297.776
296.795
292.203
299.79
299.415
299.071
297.573
296.466
291.817
299.894
299.465
299.054
297.465
296.269
291.869
299.953
299.483
299.053
297.475
296.248
292.349
299.983
299.497
299.093
297.638
296.494
293.207
300.018
299.528
299.21
298.005
297.091
294.348
299.957
299.538
299.385
298.442
297.729
295.275
299.841
299.493
299.511
298.781
298.166
295.805
299.72
299.438
299.537
298.882
298.29
295.865
299.736
299.426
299.599
298.847
298.209
295.522
299.238
298.942
299.17
298.393
297.685
294.772
294.878
295.197
295.527
295.636
295.805
295.763
294.88
295.269
295.683
295.806
296.004
295.954
294.77
295.264
295.785
295.98
296.215
296.121
294.689
295.254
295.857
296.108
296.359
296.219
294.621
295.224
295.866
296.14
296.393
296.273
294.576
295.17
295.817
296.09
296.334
296.185
294.527
295.092
295.729
295.992
296.223
296.052
294.489
295.017
295.634
295.879
296.088
295.95
294.476
294.961
295.534
295.76
295.937
295.842
294.5
294.936
295.459
295.65
295.859
295.762
294.625
295.026
295.499
295.617
295.755
295.714
294.89
295.251
295.651
295.757
295.876
295.778
295.315
295.629
295.951
296.025
296.128
295.999
295.693
295.977
296.259
296.316
296.412
296.289
296.35
296.17
296.469
296.588
296.922
296.632
296.623
296.524
296.793
296.802
297.193
296.84
296.688
296.642
296.923
296.932
297.328
296.867
296.782
296.755
297.034
297.016
297.386
296.874
296.817
296.802
297.063
296.983
297.331
296.791
296.818
296.808
297.025
296.889
297.174
296.556
296.793
296.785
296.96
296.792
297.051
296.438
296.712
296.754
296.929
296.732
296.981
296.381
296.581
296.64
296.817
296.588
296.834
296.319
296.462
296.452
296.643
296.43
296.679
296.265
296.347
296.278
296.456
296.256
296.544
296.124
296.315
296.182
296.386
296.221
296.5
296.154
296.388
296.252
296.586
296.513
296.823
296.481
296.341
296.237
296.737
296.739
297.079
296.728
299.443
299.05
299.148
298.16
297.426
294.115
299.87
299.618
299.673
298.54
297.698
293.523
300.025
299.744
299.627
298.344
297.397
292.639
300.116
299.788
299.582
298.167
297.13
292.04
300.152
299.789
299.482
297.986
296.886
291.858
300.106
299.708
299.357
297.85
296.721
292.063
300.05
299.64
299.265
297.851
296.776
292.674
299.902
299.548
299.226
297.986
297.056
293.475
299.693
299.382
299.195
298.199
297.463
294.318
299.467
299.131
299.144
298.32
297.676
294.625
299.219
298.902
298.976
298.249
297.78
294.659
299.037
298.774
298.902
298.084
297.501
294.405
299.073
298.649
298.75
297.847
297.3
293.821
298.281
297.689
297.662
296.727
296.426
292.746
296.955
297.042
296.932
296.867
296.601
296.343
296.724
296.809
296.708
296.641
296.332
295.991
296.6
296.67
296.506
296.438
296.066
295.649
296.419
296.487
296.416
296.332
295.912
295.458
296.377
296.476
296.366
296.299
295.896
295.409
296.378
296.493
296.418
296.335
295.917
295.436
296.42
296.523
296.472
296.432
296.036
295.499
296.515
296.626
296.608
296.606
296.195
295.586
296.683
296.824
296.801
296.795
296.354
295.677
296.852
297.014
296.979
296.932
296.458
295.751
296.988
297.149
297.073
296.993
296.504
295.816
296.924
297.111
297.046
296.963
296.511
295.863
296.826
296.998
296.911
296.825
296.414
295.904
296.646
296.8
296.702
296.603
296.274
295.901
297.069
297.334
296.928
296.791
296.261
296.317
296.881
297.135
296.765
296.654
296.274
296.342
296.627
296.908
296.561
296.563
296.263
296.282
296.67
296.935
296.654
296.697
296.426
296.326
296.633
296.962
296.719
296.815
296.558
296.436
296.571
296.891
296.702
296.828
296.605
296.538
296.328
296.698
296.566
296.738
296.545
296.596
296.115
296.59
296.504
296.714
296.559
296.652
296.078
296.629
296.528
296.734
296.563
296.679
296.197
296.774
296.62
296.803
296.579
296.695
296.426
296.977
296.761
296.89
296.587
296.659
296.578
297.107
296.868
296.899
296.512
296.585
296.763
297.28
296.998
296.97
296.531
296.582
296.881
297.287
296.926
296.728
296.201
296.285
293.745
296.465
296.329
296.909
296.992
297.484
294.75
297.103
297.079
297.647
297.64
298.071
295.299
297.417
297.316
297.861
297.824
298.127
295.466
297.27
297.424
297.94
297.902
298.288
295.151
296.937
297.14
297.762
297.903
298.427
294.455
296.333
296.583
297.392
297.764
298.441
293.166
295.478
295.961
297.046
297.615
298.406
291.768
294.73
295.467
296.838
297.533
298.388
290.715
294.357
295.197
296.723
297.511
298.4
289.996
294.294
295.105
296.679
297.526
298.441
289.609
294.43
295.182
296.764
297.644
298.517
289.579
294.749
295.478
296.975
297.784
298.631
290.397
295.359
296
297.353
298.047
298.751
291.568
295.735
296.047
297.176
297.702
298.438
296.366
296.424
296.311
296.254
295.906
295.591
296.49
296.481
296.329
296.185
295.822
295.462
296.461
296.47
296.337
296.201
295.805
295.395
296.551
296.562
296.413
296.253
295.816
295.382
296.613
296.644
296.525
296.384
295.935
295.444
296.735
296.758
296.685
296.576
296.118
295.562
296.895
296.928
296.869
296.806
296.352
295.731
297.095
297.159
297.098
297.039
296.576
295.903
297.27
297.378
297.305
297.229
296.753
296.056
297.458
297.552
297.472
297.372
296.882
296.184
297.582
297.661
297.545
297.432
296.953
296.302
297.511
297.611
297.507
297.431
296.99
296.411
297.388
297.488
297.391
297.309
296.937
296.502
297.192
297.293
297.209
297.115
296.814
296.497
296.768
296.921
296.678
296.721
296.464
296.52
296.794
296.949
296.77
296.83
296.631
296.656
296.921
297.116
296.937
297.031
296.813
296.717
296.925
297.128
296.984
297.103
296.892
296.792
296.746
296.996
296.891
297.053
296.866
296.789
296.502
296.828
296.797
296.983
296.828
296.806
296.249
296.673
296.679
296.897
296.778
296.814
296.147
296.642
296.638
296.867
296.745
296.807
296.161
296.702
296.66
296.883
296.708
296.774
296.296
296.866
296.745
296.918
296.663
296.701
296.527
297.085
296.879
296.976
296.616
296.627
296.761
297.258
296.989
296.962
296.523
296.506
297.004
297.467
297.125
297.018
296.517
296.535
297.116
297.451
297.038
296.81
296.273
296.287
295.743
297.879
298.174
298.691
298.531
298.68
296.482
298.368
298.629
299.023
298.858
299.114
296.835
298.379
298.536
298.947
298.893
299.122
296.567
298.013
298.226
298.72
298.762
299.101
295.63
297.127
297.452
298.129
298.366
298.914
294.323
296.138
296.704
297.705
298.15
298.795
292.775
295.108
295.957
297.29
297.893
298.667
291.402
294.379
295.413
296.981
297.693
298.554
290.382
293.981
295.066
296.738
297.526
298.416
289.761
293.889
294.907
296.573
297.397
298.301
289.555
294.059
294.952
296.545
297.326
298.149
290.01
294.575
295.216
296.593
297.301
298.051
291.154
295.332
295.69
296.786
297.383
298.07
292.438
295.731
295.699
296.545
297.03
297.652
300.772
300.66
300.778
300.625
300.594
300.527
300.572
300.617
300.715
300.855
301.056
301.261
301.638
301.808
301.129
300.984
301.028
300.993
301.006
300.998
301.043
301.072
301.129
301.194
301.297
301.423
301.627
301.753
300.996
300.983
301.041
301.117
301.18
301.223
301.278
301.311
301.359
301.41
301.465
301.551
301.693
301.879
300.839
300.968
301.079
301.191
301.282
301.361
301.433
301.482
301.538
301.597
301.648
301.708
301.808
301.95
300.724
300.987
301.128
301.259
301.37
301.472
301.56
301.624
301.693
301.75
301.785
301.834
301.899
301.996
300.685
301.016
301.215
301.364
301.488
301.597
301.692
301.766
301.84
301.891
301.907
301.941
301.958
301.997
300.686
301.072
301.313
301.466
301.592
301.704
301.802
301.884
301.961
302.003
302.003
302.022
302.017
302.018
300.738
301.193
301.448
301.597
301.712
301.817
301.913
301.996
302.07
302.1
302.084
302.083
302.06
302.019
300.8
301.296
301.55
301.689
301.796
301.902
302.005
302.093
302.167
302.193
302.171
302.153
302.117
302.054
300.981
301.476
301.691
301.801
301.894
301.993
302.096
302.182
302.249
302.271
302.246
302.217
302.172
302.113
301.137
301.6
301.778
301.875
301.964
302.058
302.159
302.245
302.308
302.329
302.308
302.281
302.239
302.236
301.489
301.829
301.923
301.973
302.042
302.12
302.218
302.312
302.381
302.41
302.39
302.363
302.302
302.376
301.514
301.905
301.946
301.997
302.062
302.142
302.246
302.358
302.447
302.503
302.513
302.521
302.456
302.593
301.784
302.178
302.157
302.123
302.148
302.198
302.283
302.391
302.503
302.62
302.687
302.733
302.578
302.631
302.189
302.013
301.999
301.793
301.705
301.64
301.704
301.815
301.992
302.228
302.519
302.791
303.267
303.498
302.628
302.449
302.4
302.317
302.288
302.271
302.335
302.416
302.537
302.683
302.838
303.062
303.343
303.495
302.488
302.474
302.489
302.528
302.56
302.596
302.67
302.743
302.835
302.935
303.046
303.197
303.416
303.581
302.32
302.483
302.577
302.648
302.725
302.805
302.897
302.975
303.06
303.15
303.256
303.372
303.494
303.606
302.184
302.474
302.619
302.748
302.869
302.982
303.085
303.168
303.251
303.341
303.421
303.493
303.547
303.613
302.07
302.46
302.694
302.865
303.012
303.145
303.257
303.345
303.427
303.51
303.565
303.598
303.588
303.598
301.968
302.471
302.769
302.972
303.138
303.281
303.398
303.492
303.574
303.642
303.674
303.685
303.654
303.611
301.954
302.548
302.884
303.098
303.262
303.403
303.52
303.617
303.697
303.754
303.767
303.759
303.713
303.626
301.98
302.64
302.987
303.198
303.359
303.5
303.622
303.723
303.802
303.853
303.859
303.841
303.793
303.685
302.127
302.809
303.139
303.325
303.471
303.604
303.726
303.829
303.903
303.952
303.953
303.925
303.869
303.755
302.228
302.925
303.231
303.418
303.571
303.705
303.822
303.921
303.992
304.045
304.055
304.033
303.985
303.901
302.615
303.215
303.423
303.56
303.682
303.79
303.895
303.993
304.072
304.137
304.162
304.15
304.105
304.08
302.8
303.431
303.53
303.647
303.754
303.834
303.927
304.03
304.133
304.223
304.282
304.303
304.272
304.348
303.145
303.748
303.746
303.762
303.823
303.865
303.929
304.033
304.16
304.292
304.399
304.468
304.371
304.372
303.534
303.363
303.225
303.072
303.023
302.983
303.03
303.157
303.326
303.539
303.755
304.033
304.467
304.703
303.856
303.74
303.612
303.535
303.494
303.487
303.546
303.641
303.762
303.926
304.103
304.287
304.601
304.76
303.748
303.755
303.741
303.731
303.738
303.771
303.843
303.931
304.027
304.143
304.268
304.402
304.626
304.788
303.667
303.809
303.828
303.854
303.911
303.981
304.062
304.145
304.234
304.335
304.439
304.572
304.697
304.792
303.574
303.789
303.89
303.982
304.069
304.156
304.243
304.328
304.416
304.506
304.589
304.689
304.752
304.793
303.451
303.786
303.958
304.091
304.209
304.317
304.413
304.499
304.582
304.664
304.736
304.795
304.798
304.796
303.424
303.815
304.041
304.202
304.338
304.457
304.559
304.647
304.727
304.801
304.861
304.893
304.872
304.84
303.451
303.901
304.161
304.332
304.471
304.59
304.695
304.784
304.863
304.931
304.976
304.988
304.953
304.888
303.498
303.991
304.271
304.447
304.586
304.706
304.814
304.906
304.985
305.052
305.09
305.095
305.06
304.977
303.635
304.156
304.431
304.595
304.721
304.832
304.934
305.023
305.099
305.165
305.203
305.206
305.172
305.07
303.701
304.288
304.554
304.722
304.847
304.953
305.053
305.142
305.216
305.283
305.324
305.334
305.315
305.213
304.004
304.559
304.75
304.881
304.99
305.084
305.176
305.267
305.343
305.416
305.453
305.472
305.469
305.346
304.215
304.766
304.87
305.009
305.11
305.188
305.27
305.364
305.454
305.55
305.601
305.644
305.658
305.623
304.545
305.065
305.088
305.136
305.212
305.245
305.307
305.404
305.51
305.636
305.706
305.793
305.766
305.777
304.445
304.24
304.114
304.015
303.978
303.964
304.012
304.131
304.275
304.465
304.699
304.936
305.299
305.509
304.64
304.527
304.406
304.347
304.32
304.33
304.399
304.507
304.635
304.809
304.986
305.17
305.41
305.542
304.577
304.565
304.545
304.531
304.55
304.593
304.676
304.775
304.883
305.009
305.138
305.265
305.446
305.583
304.561
304.654
304.665
304.685
304.744
304.814
304.901
304.996
305.1
305.21
305.314
305.419
305.497
305.587
304.51
304.667
304.744
304.829
304.915
305.003
305.098
305.195
305.295
305.388
305.464
305.538
305.577
305.605
304.453
304.689
304.831
304.953
305.066
305.174
305.278
305.377
305.47
305.551
305.611
305.655
305.645
305.615
304.458
304.729
304.918
305.067
305.201
305.322
305.435
305.537
305.626
305.698
305.746
305.768
305.734
305.673
304.522
304.824
305.035
305.198
305.338
305.465
305.581
305.682
305.769
305.835
305.875
305.879
305.828
305.746
304.592
304.921
305.147
305.319
305.464
305.592
305.708
305.81
305.895
305.962
306
306.001
305.952
305.856
304.744
305.082
305.303
305.47
305.605
305.723
305.831
305.926
306.009
306.077
306.118
306.121
306.081
305.971
304.855
305.228
305.441
305.608
305.738
305.845
305.944
306.036
306.115
306.186
306.231
306.245
306.228
306.116
305.102
305.456
305.629
305.769
305.886
305.976
306.063
306.149
306.224
306.298
306.341
306.37
306.371
306.256
305.268
305.659
305.787
305.908
306.012
306.077
306.151
306.236
306.316
306.404
306.452
306.497
306.528
306.486
305.588
305.935
306.008
306.096
306.126
306.167
306.226
306.312
306.396
306.508
306.564
306.645
306.645
306.651
305.032
304.827
304.739
304.664
304.635
304.625
304.668
304.777
304.907
305.081
305.302
305.509
305.818
306.007
305.195
305.075
304.976
304.921
304.901
304.911
304.977
305.083
305.208
305.369
305.537
305.703
305.902
306.044
305.154
305.131
305.105
305.097
305.118
305.158
305.236
305.333
305.441
305.565
305.692
305.825
305.983
306.109
305.181
305.227
305.246
305.266
305.317
305.377
305.461
305.553
305.656
305.767
305.866
305.961
306.028
306.11
305.149
305.26
305.325
305.404
305.485
305.568
305.661
305.755
305.852
305.943
306.014
306.076
306.109
306.131
305.137
305.296
305.417
305.53
305.639
305.742
305.844
305.94
306.031
306.107
306.158
306.195
306.187
306.155
305.159
305.357
305.513
305.65
305.778
305.895
306.006
306.106
306.192
306.257
306.293
306.31
306.278
306.208
305.239
305.457
305.633
305.785
305.92
306.044
306.158
306.257
306.34
306.398
306.426
306.427
306.377
306.287
305.332
305.564
305.751
305.914
306.054
306.18
306.294
306.392
306.474
306.531
306.558
306.551
306.498
306.397
305.493
305.726
305.907
306.068
306.199
306.317
306.421
306.514
306.594
306.653
306.684
306.678
306.632
306.519
305.623
305.875
306.045
306.204
306.33
306.437
306.533
306.622
306.7
306.766
306.803
306.804
306.781
306.667
305.843
306.082
306.226
306.368
306.476
306.565
306.649
306.732
306.807
306.877
306.917
306.93
306.918
306.829
305.984
306.272
306.379
306.489
306.585
306.656
306.732
306.814
306.891
306.972
307.021
307.049
307.069
307.029
306.283
306.538
306.585
306.689
306.724
306.766
306.833
306.919
307
307.1
307.15
307.206
307.212
307.173
305.378
305.202
305.135
305.073
305.044
305.039
305.082
305.185
305.306
305.474
305.673
305.865
306.13
306.32
305.501
305.403
305.33
305.285
305.268
305.28
305.348
305.447
305.572
305.729
305.888
306.048
306.221
306.361
305.474
305.456
305.443
305.443
305.47
305.51
305.591
305.683
305.793
305.918
306.045
306.185
306.324
306.444
305.514
305.545
305.579
305.605
305.662
305.722
305.809
305.9
306.005
306.117
306.217
306.309
306.379
306.452
305.507
305.59
305.666
305.741
305.826
305.912
306.009
306.102
306.2
306.291
306.362
306.425
306.455
306.48
305.522
305.651
305.764
305.875
305.984
306.089
306.193
306.289
306.379
306.455
306.506
306.543
306.54
306.518
305.57
305.73
305.868
306.003
306.129
306.248
306.359
306.456
306.542
306.605
306.639
306.658
306.631
306.567
305.672
305.846
305.997
306.144
306.276
306.401
306.513
306.611
306.692
306.748
306.773
306.776
306.731
306.641
305.782
305.966
306.124
306.279
306.414
306.54
306.653
306.749
306.829
306.881
306.903
306.896
306.846
306.743
305.947
306.128
306.28
306.432
306.559
306.678
306.784
306.876
306.954
307.006
307.031
307.019
306.972
306.859
306.083
306.276
306.417
306.564
306.685
306.794
306.894
306.984
307.062
307.119
307.151
307.143
307.111
307.002
306.282
306.465
306.582
306.717
306.825
306.921
307.01
307.094
307.17
307.231
307.267
307.265
307.237
307.16
306.417
306.639
306.723
306.833
306.919
307.002
307.088
307.174
307.25
307.319
307.365
307.382
307.375
307.322
306.68
306.868
306.891
306.993
307.052
307.114
307.194
307.285
307.363
307.444
307.49
307.522
307.525
307.468
305.593
305.445
305.394
305.345
305.32
305.317
305.362
305.45
305.571
305.731
305.917
306.095
306.324
306.506
305.683
305.611
305.558
305.523
305.513
305.531
305.595
305.686
305.811
305.961
306.115
306.268
306.427
306.566
305.671
305.664
305.663
305.67
305.7
305.744
305.822
305.91
306.019
306.141
306.267
306.404
306.535
306.648
305.726
305.76
305.794
305.826
305.882
305.942
306.028
306.116
306.219
306.329
306.43
306.524
306.596
306.672
305.742
305.819
305.887
305.96
306.042
306.125
306.219
306.309
306.403
306.492
306.567
306.634
306.671
306.707
305.785
305.896
305.995
306.096
306.198
306.297
306.397
306.487
306.573
306.647
306.702
306.745
306.753
306.75
305.853
305.985
306.106
306.228
306.344
306.456
306.559
306.65
306.729
306.791
306.829
306.852
306.841
306.798
305.965
306.109
306.24
306.374
306.494
306.61
306.713
306.803
306.877
306.93
306.957
306.967
306.937
306.861
306.085
306.236
306.371
306.512
306.635
306.753
306.856
306.944
307.015
307.063
307.085
307.084
307.045
306.951
306.248
306.396
306.525
306.665
306.783
306.896
306.994
307.077
307.146
307.191
307.214
307.207
307.167
307.062
306.385
306.541
306.662
306.798
306.912
307.019
307.113
307.194
307.262
307.31
307.338
307.332
307.301
307.196
306.568
306.718
306.818
306.947
307.052
307.149
307.235
307.312
307.378
307.429
307.463
307.46
307.433
307.345
306.692
306.873
306.947
307.061
307.148
307.235
307.321
307.402
307.47
307.529
307.571
307.584
307.576
307.507
306.925
307.071
307.088
307.191
307.268
307.346
307.43
307.518
307.59
307.659
307.703
307.732
307.733
307.661
305.72
305.598
305.557
305.518
305.495
305.498
305.545
305.622
305.738
305.887
306.057
306.228
306.436
306.614
305.79
305.734
305.698
305.669
305.667
305.691
305.751
305.835
305.955
306.094
306.242
306.391
306.545
306.681
305.791
305.789
305.795
305.804
305.835
305.879
305.951
306.033
306.138
306.255
306.381
306.523
306.647
306.761
305.854
305.889
305.922
305.95
305.999
306.055
306.134
306.217
306.317
306.424
306.529
306.623
306.712
306.792
305.892
305.958
306.02
306.077
306.147
306.22
306.305
306.389
306.48
306.569
306.65
306.728
306.774
306.827
305.96
306.051
306.132
306.213
306.295
306.379
306.467
306.551
306.635
306.711
306.776
306.83
306.851
306.872
306.042
306.152
306.249
306.346
306.438
306.532
306.622
306.705
306.782
306.847
306.896
306.93
306.935
306.924
306.16
306.281
306.386
306.494
306.59
306.687
306.775
306.856
306.928
306.984
307.022
307.042
307.033
306.988
306.283
306.411
306.521
306.639
306.738
306.838
306.925
307.004
307.071
307.122
307.152
307.162
307.143
307.072
306.443
306.57
306.677
306.796
306.895
306.992
307.076
307.15
307.214
307.259
307.286
307.291
307.267
307.18
306.584
306.716
306.818
306.938
307.036
307.132
307.214
307.287
307.348
307.392
307.423
307.426
307.405
307.314
306.758
306.883
306.971
307.088
307.182
307.272
307.351
307.423
307.485
307.532
307.567
307.569
307.547
307.462
306.875
307.025
307.093
307.202
307.285
307.37
307.454
307.532
307.6
307.656
307.7
307.714
307.705
307.621
307.072
307.192
307.213
307.313
307.39
307.475
307.561
307.65
307.726
307.798
307.846
307.875
307.871
307.782
305.783
305.688
305.664
305.637
305.628
305.641
305.691
305.764
305.874
306.011
306.17
306.331
306.514
306.678
305.853
305.808
305.784
305.768
305.777
305.807
305.867
305.949
306.062
306.193
306.336
306.481
306.622
306.75
305.872
305.867
305.875
305.889
305.922
305.967
306.036
306.117
306.22
306.336
306.464
306.601
306.717
306.828
305.947
305.972
305.997
306.022
306.067
306.119
306.195
306.278
306.379
306.488
306.599
306.696
306.791
306.871
306.001
306.051
306.098
306.143
306.201
306.266
306.345
306.429
306.524
306.622
306.715
306.803
306.86
306.919
306.087
306.154
306.214
306.275
306.34
306.413
306.495
306.581
306.672
306.761
306.841
306.908
306.943
306.976
306.182
306.265
306.336
306.409
306.481
306.563
306.647
306.734
306.82
306.899
306.964
307.012
307.032
307.04
306.308
306.401
306.476
306.559
306.636
306.723
306.808
306.893
306.973
307.042
307.096
307.128
307.137
307.115
306.435
306.536
306.619
306.714
306.796
306.888
306.972
307.054
307.129
307.189
307.233
307.252
307.25
307.202
306.59
306.694
306.78
306.88
306.965
307.057
307.138
307.216
307.285
307.335
307.371
307.382
307.372
307.306
306.728
306.838
306.925
307.031
307.12
307.213
307.294
307.368
307.431
307.475
307.507
307.514
307.503
307.43
306.888
306.994
307.075
307.184
307.273
307.362
307.44
307.512
307.573
307.615
307.649
307.654
307.638
307.567
306.994
307.125
307.193
307.301
307.384
307.472
307.554
307.63
307.695
307.743
307.784
307.795
307.785
307.713
307.157
307.273
307.306
307.409
307.487
307.576
307.661
307.745
307.819
307.884
307.932
307.957
307.948
307.863
300.654
300.734
300.522
300.388
300.292
298.993
300.069
299.535
298.818
298.269
297.63
295.544
299.969
298.954
297.771
296.694
295.46
292.77
299.705
298.435
297.041
295.644
294.184
291.512
299.706
298.362
296.889
295.319
293.882
291.545
299.688
298.372
296.963
295.404
294.05
292.253
299.83
298.599
297.374
295.931
294.786
293.521
300.004
298.927
297.993
296.905
296.169
295.488
300.227
299.406
298.86
298.277
298.123
297.983
300.483
300.008
299.877
299.77
300.082
300.29
300.871
300.758
300.966
301.289
302.007
302.372
301.266
301.424
301.852
302.394
303.346
303.912
301.75
302.105
302.705
303.468
304.473
304.795
301.527
302.101
302.963
303.944
304.871
304.923
302.006
302.04
301.416
300.542
299.731
298.796
301.03
300.275
299.218
297.882
296.486
294.831
300.709
299.222
297.62
295.851
293.855
291.592
300.362
298.484
296.539
294.536
292.386
289.966
300.324
298.389
296.258
294.232
292.281
290.002
300.32
298.399
296.35
294.384
292.704
290.912
300.505
298.696
296.832
295.057
293.735
292.543
300.836
299.282
297.713
296.3
295.455
294.806
301.274
300.04
298.929
298.028
297.728
297.451
301.742
300.892
300.301
299.866
300.052
300.073
302.225
301.811
301.662
301.614
302.118
302.35
302.687
302.577
302.699
302.992
303.69
304.048
303.298
303.404
303.719
304.087
304.742
305.044
303.174
303.625
304.092
304.491
304.97
305.209
303.498
303.497
302.783
301.696
300.809
300.05
302.467
301.727
300.56
299.061
297.455
295.919
302.069
300.657
298.849
296.721
294.501
292.321
301.779
299.969
297.727
295.182
292.627
290.275
301.78
299.797
297.362
294.781
292.334
290.161
301.773
299.816
297.473
294.98
292.755
290.951
301.928
300.124
297.984
295.786
294.007
292.667
302.232
300.726
298.904
297.172
295.932
295.063
302.651
301.521
300.185
299.03
298.333
297.93
303.119
302.318
301.546
300.914
300.72
300.743
303.587
303.117
302.841
302.645
302.791
303.134
304.046
303.838
303.892
304.016
304.408
304.868
304.59
304.525
304.773
305.009
305.453
305.932
304.513
304.793
305.056
305.344
305.702
306.154
304.578
304.762
304.422
303.688
302.819
302.003
303.639
303.284
302.567
301.435
300.026
298.34
303.359
302.499
301.174
299.326
297.082
294.729
303.157
301.885
300.03
297.611
294.912
292.236
303.127
301.683
299.565
296.937
294.196
291.694
303.12
301.643
299.562
296.965
294.337
292
303.235
301.826
299.945
297.61
295.371
293.449
303.475
302.274
300.712
298.824
297.137
295.667
303.787
302.902
301.765
300.482
299.406
298.428
304.167
303.525
302.866
302.154
301.621
301.12
304.523
304.151
303.896
303.601
303.481
303.357
304.876
304.739
304.784
304.813
304.956
305.015