/*--------------------------------*- C++ -*----------------------------------*\
| =========                 |                                                 |
| \\      /  F ield         | OpenFOAM: The Open Source CFD Toolbox           |
|  \\    /   O peration     | Version:  v2106                                 |
|   \\  /    A nd           | Website:  www.openfoam.com                      |
|    \\/     M anipulation  |                                                 |
\*---------------------------------------------------------------------------*/
FoamFile
{
    version     2.0;
    format      ascii;
    arch        "LSB;label=32;scalar=64";
    class       volScalarField;
    location    "0.000147";
    object      epsilon;
}
// * * * * * * * * * * * * * * * * * * * * * * * * * * * * * * * * * * * * * //

dimensions      [0 2 -3 0 0 0 0];

internalField   nonuniform List<scalar> 
17924
(
2.25914e-08
2.25913e-08
2.25915e-08
2.25917e-08
2.25516e-08
2.25512e-08
2.25507e-08
2.25503e-08
2.25499e-08
2.25496e-08
2.25493e-08
2.2553e-08
2.25525e-08
2.2552e-08
2.25516e-08
2.25512e-08
2.25509e-08
2.25506e-08
2.25543e-08
2.25538e-08
2.25534e-08
2.2553e-08
2.25526e-08
2.25523e-08
2.2552e-08
2.25557e-08
2.25552e-08
2.25548e-08
2.25544e-08
2.2554e-08
2.25537e-08
2.25534e-08
2.25571e-08
2.25566e-08
2.25562e-08
2.25558e-08
2.25554e-08
2.25551e-08
2.25548e-08
2.25585e-08
2.2558e-08
2.25576e-08
2.25572e-08
2.25568e-08
2.25565e-08
2.25562e-08
2.25598e-08
2.25593e-08
2.25589e-08
2.25585e-08
2.25582e-08
2.25579e-08
2.25576e-08
2.25611e-08
2.25607e-08
2.25603e-08
2.25599e-08
2.25596e-08
2.25593e-08
2.2559e-08
2.25623e-08
2.25619e-08
2.25616e-08
2.25612e-08
2.25609e-08
2.25607e-08
2.25604e-08
2.25635e-08
2.25632e-08
2.25629e-08
2.25626e-08
2.25623e-08
2.2562e-08
2.25618e-08
2.25648e-08
2.25645e-08
2.25641e-08
2.25639e-08
2.25636e-08
2.25634e-08
2.25632e-08
2.2566e-08
2.25657e-08
2.25654e-08
2.25652e-08
2.2565e-08
2.25647e-08
2.25645e-08
2.25672e-08
2.2567e-08
2.25667e-08
2.25665e-08
2.25663e-08
2.25661e-08
2.25659e-08
2.25685e-08
2.25682e-08
2.2568e-08
2.25678e-08
2.25676e-08
2.25675e-08
2.25673e-08
2.25106e-08
2.25098e-08
2.2509e-08
2.25083e-08
2.25077e-08
2.25071e-08
2.25066e-08
2.25061e-08
2.25056e-08
2.25051e-08
2.25046e-08
2.25042e-08
2.25037e-08
2.25034e-08
2.25111e-08
2.25103e-08
2.25096e-08
2.25089e-08
2.25082e-08
2.25077e-08
2.25071e-08
2.25066e-08
2.25061e-08
2.25056e-08
2.25051e-08
2.25046e-08
2.25042e-08
2.25039e-08
2.25116e-08
2.25109e-08
2.25101e-08
2.25094e-08
2.25088e-08
2.25082e-08
2.25077e-08
2.25072e-08
2.25067e-08
2.25062e-08
2.25057e-08
2.25052e-08
2.25047e-08
2.25044e-08
2.25121e-08
2.25114e-08
2.25107e-08
2.251e-08
2.25094e-08
2.25088e-08
2.25083e-08
2.25078e-08
2.25073e-08
2.25068e-08
2.25062e-08
2.25058e-08
2.25053e-08
2.25049e-08
2.25126e-08
2.25119e-08
2.25112e-08
2.25106e-08
2.251e-08
2.25094e-08
2.25089e-08
2.25084e-08
2.25079e-08
2.25074e-08
2.25069e-08
2.25064e-08
2.25059e-08
2.25055e-08
2.25131e-08
2.25124e-08
2.25117e-08
2.25111e-08
2.25106e-08
2.251e-08
2.25095e-08
2.2509e-08
2.25085e-08
2.2508e-08
2.25075e-08
2.2507e-08
2.25065e-08
2.25061e-08
2.25136e-08
2.25129e-08
2.25123e-08
2.25117e-08
2.25111e-08
2.25106e-08
2.25101e-08
2.25096e-08
2.25091e-08
2.25086e-08
2.25081e-08
2.25075e-08
2.25071e-08
2.25067e-08
2.2514e-08
2.25134e-08
2.25128e-08
2.25122e-08
2.25117e-08
2.25112e-08
2.25107e-08
2.25102e-08
2.25097e-08
2.25092e-08
2.25086e-08
2.25081e-08
2.25077e-08
2.25072e-08
2.25145e-08
2.25139e-08
2.25133e-08
2.25128e-08
2.25123e-08
2.25118e-08
2.25113e-08
2.25108e-08
2.25103e-08
2.25097e-08
2.25092e-08
2.25087e-08
2.25082e-08
2.25078e-08
2.2515e-08
2.25144e-08
2.25139e-08
2.25134e-08
2.25129e-08
2.25124e-08
2.25119e-08
2.25114e-08
2.25109e-08
2.25103e-08
2.25098e-08
2.25093e-08
2.25088e-08
2.25083e-08
2.25155e-08
2.2515e-08
2.25145e-08
2.2514e-08
2.25135e-08
2.2513e-08
2.25125e-08
2.2512e-08
2.25115e-08
2.25109e-08
2.25104e-08
2.25098e-08
2.25094e-08
2.25089e-08
2.25161e-08
2.25156e-08
2.25151e-08
2.25146e-08
2.25142e-08
2.25137e-08
2.25132e-08
2.25126e-08
2.25121e-08
2.25115e-08
2.2511e-08
2.25104e-08
2.25099e-08
2.25094e-08
2.25167e-08
2.25162e-08
2.25158e-08
2.25153e-08
2.25148e-08
2.25143e-08
2.25138e-08
2.25133e-08
2.25127e-08
2.25122e-08
2.25116e-08
2.2511e-08
2.25105e-08
2.251e-08
2.25174e-08
2.25169e-08
2.25164e-08
2.2516e-08
2.25155e-08
2.2515e-08
2.25145e-08
2.2514e-08
2.25134e-08
2.25128e-08
2.25122e-08
2.25116e-08
2.25111e-08
2.25106e-08
2.24667e-08
2.24658e-08
2.2465e-08
2.24643e-08
2.24636e-08
2.2463e-08
2.24624e-08
2.24618e-08
2.24613e-08
2.24609e-08
2.24604e-08
2.246e-08
2.24597e-08
2.24594e-08
2.24666e-08
2.24657e-08
2.2465e-08
2.24643e-08
2.24636e-08
2.2463e-08
2.24624e-08
2.24618e-08
2.24613e-08
2.24608e-08
2.24603e-08
2.246e-08
2.24596e-08
2.24593e-08
2.24665e-08
2.24657e-08
2.24649e-08
2.24642e-08
2.24635e-08
2.24629e-08
2.24623e-08
2.24618e-08
2.24613e-08
2.24608e-08
2.24603e-08
2.24599e-08
2.24596e-08
2.24593e-08
2.24664e-08
2.24656e-08
2.24649e-08
2.24642e-08
2.24635e-08
2.24629e-08
2.24623e-08
2.24618e-08
2.24613e-08
2.24608e-08
2.24603e-08
2.24599e-08
2.24596e-08
2.24593e-08
2.24664e-08
2.24656e-08
2.24648e-08
2.24642e-08
2.24635e-08
2.24629e-08
2.24623e-08
2.24618e-08
2.24613e-08
2.24608e-08
2.24603e-08
2.246e-08
2.24596e-08
2.24593e-08
2.24663e-08
2.24655e-08
2.24648e-08
2.24642e-08
2.24635e-08
2.24629e-08
2.24624e-08
2.24618e-08
2.24613e-08
2.24608e-08
2.24604e-08
2.246e-08
2.24597e-08
2.24594e-08
2.24663e-08
2.24656e-08
2.24648e-08
2.24642e-08
2.24635e-08
2.2463e-08
2.24624e-08
2.24619e-08
2.24613e-08
2.24609e-08
2.24604e-08
2.24601e-08
2.24597e-08
2.24595e-08
2.24663e-08
2.24656e-08
2.24649e-08
2.24642e-08
2.24636e-08
2.2463e-08
2.24625e-08
2.24619e-08
2.24614e-08
2.2461e-08
2.24605e-08
2.24602e-08
2.24598e-08
2.24596e-08
2.24664e-08
2.24657e-08
2.2465e-08
2.24644e-08
2.24638e-08
2.24632e-08
2.24626e-08
2.24621e-08
2.24616e-08
2.24611e-08
2.24607e-08
2.24603e-08
2.246e-08
2.24597e-08
2.24665e-08
2.24658e-08
2.24652e-08
2.24645e-08
2.24639e-08
2.24633e-08
2.24628e-08
2.24623e-08
2.24617e-08
2.24613e-08
2.24608e-08
2.24605e-08
2.24601e-08
2.24599e-08
2.24666e-08
2.2466e-08
2.24654e-08
2.24648e-08
2.24642e-08
2.24636e-08
2.2463e-08
2.24625e-08
2.2462e-08
2.24615e-08
2.2461e-08
2.24607e-08
2.24603e-08
2.246e-08
2.24669e-08
2.24662e-08
2.24656e-08
2.2465e-08
2.24644e-08
2.24638e-08
2.24633e-08
2.24627e-08
2.24622e-08
2.24617e-08
2.24613e-08
2.24609e-08
2.24605e-08
2.24602e-08
2.24672e-08
2.24665e-08
2.24659e-08
2.24653e-08
2.24647e-08
2.24641e-08
2.24635e-08
2.2463e-08
2.24625e-08
2.2462e-08
2.24615e-08
2.24611e-08
2.24608e-08
2.24605e-08
2.24675e-08
2.24669e-08
2.24662e-08
2.24656e-08
2.2465e-08
2.24644e-08
2.24638e-08
2.24633e-08
2.24627e-08
2.24622e-08
2.24618e-08
2.24613e-08
2.2461e-08
2.24607e-08
2.24214e-08
2.24205e-08
2.24198e-08
2.24192e-08
2.24186e-08
2.24181e-08
2.24176e-08
2.24172e-08
2.24168e-08
2.24165e-08
2.24162e-08
2.2416e-08
2.24159e-08
2.24158e-08
2.24209e-08
2.24202e-08
2.24195e-08
2.24188e-08
2.24182e-08
2.24177e-08
2.24172e-08
2.24167e-08
2.24164e-08
2.24161e-08
2.24158e-08
2.24156e-08
2.24155e-08
2.24154e-08
2.24205e-08
2.24198e-08
2.24191e-08
2.24185e-08
2.24178e-08
2.24173e-08
2.24168e-08
2.24163e-08
2.2416e-08
2.24157e-08
2.24154e-08
2.24153e-08
2.24151e-08
2.2415e-08
2.24202e-08
2.24194e-08
2.24188e-08
2.24181e-08
2.24175e-08
2.24169e-08
2.24164e-08
2.2416e-08
2.24156e-08
2.24153e-08
2.24151e-08
2.24149e-08
2.24148e-08
2.24147e-08
2.24199e-08
2.24191e-08
2.24184e-08
2.24178e-08
2.24171e-08
2.24166e-08
2.24161e-08
2.24156e-08
2.24153e-08
2.2415e-08
2.24148e-08
2.24147e-08
2.24146e-08
2.24145e-08
2.24196e-08
2.24189e-08
2.24182e-08
2.24175e-08
2.24169e-08
2.24163e-08
2.24158e-08
2.24154e-08
2.2415e-08
2.24148e-08
2.24146e-08
2.24144e-08
2.24144e-08
2.24143e-08
2.24194e-08
2.24187e-08
2.2418e-08
2.24173e-08
2.24167e-08
2.24161e-08
2.24156e-08
2.24152e-08
2.24148e-08
2.24146e-08
2.24144e-08
2.24143e-08
2.24142e-08
2.24142e-08
2.24193e-08
2.24186e-08
2.24179e-08
2.24172e-08
2.24166e-08
2.2416e-08
2.24155e-08
2.24151e-08
2.24147e-08
2.24145e-08
2.24143e-08
2.24142e-08
2.24141e-08
2.24141e-08
2.24192e-08
2.24185e-08
2.24178e-08
2.24171e-08
2.24165e-08
2.2416e-08
2.24155e-08
2.24151e-08
2.24147e-08
2.24145e-08
2.24143e-08
2.24141e-08
2.24141e-08
2.24141e-08
2.24192e-08
2.24185e-08
2.24178e-08
2.24172e-08
2.24166e-08
2.2416e-08
2.24155e-08
2.24151e-08
2.24148e-08
2.24145e-08
2.24143e-08
2.24142e-08
2.24141e-08
2.24141e-08
2.24192e-08
2.24186e-08
2.24179e-08
2.24173e-08
2.24167e-08
2.24161e-08
2.24156e-08
2.24152e-08
2.24149e-08
2.24146e-08
2.24144e-08
2.24143e-08
2.24142e-08
2.24141e-08
2.24193e-08
2.24187e-08
2.2418e-08
2.24174e-08
2.24168e-08
2.24163e-08
2.24158e-08
2.24154e-08
2.2415e-08
2.24147e-08
2.24145e-08
2.24144e-08
2.24143e-08
2.24142e-08
2.24195e-08
2.24189e-08
2.24182e-08
2.24176e-08
2.2417e-08
2.24165e-08
2.2416e-08
2.24156e-08
2.24152e-08
2.24149e-08
2.24147e-08
2.24145e-08
2.24144e-08
2.24144e-08
2.24198e-08
2.24191e-08
2.24184e-08
2.24178e-08
2.24172e-08
2.24167e-08
2.24162e-08
2.24158e-08
2.24154e-08
2.24151e-08
2.24149e-08
2.24147e-08
2.24146e-08
2.24145e-08
2.23776e-08
2.2377e-08
2.23764e-08
2.23759e-08
2.23755e-08
2.23751e-08
2.23748e-08
2.23745e-08
2.23743e-08
2.23742e-08
2.23741e-08
2.23741e-08
2.23741e-08
2.23741e-08
2.23772e-08
2.23766e-08
2.23761e-08
2.23755e-08
2.23751e-08
2.23746e-08
2.23743e-08
2.2374e-08
2.23738e-08
2.23737e-08
2.23736e-08
2.23736e-08
2.23736e-08
2.23736e-08
2.23767e-08
2.23762e-08
2.23756e-08
2.23751e-08
2.23746e-08
2.23742e-08
2.23738e-08
2.23736e-08
2.23734e-08
2.23733e-08
2.23732e-08
2.23732e-08
2.23732e-08
2.23732e-08
2.23764e-08
2.23758e-08
2.23753e-08
2.23747e-08
2.23742e-08
2.23738e-08
2.23734e-08
2.23731e-08
2.2373e-08
2.23728e-08
2.23728e-08
2.23728e-08
2.23729e-08
2.23729e-08
2.23761e-08
2.23755e-08
2.23749e-08
2.23744e-08
2.23739e-08
2.23734e-08
2.2373e-08
2.23728e-08
2.23726e-08
2.23725e-08
2.23725e-08
2.23725e-08
2.23726e-08
2.23726e-08
2.23758e-08
2.23752e-08
2.23746e-08
2.23741e-08
2.23736e-08
2.23731e-08
2.23728e-08
2.23725e-08
2.23723e-08
2.23722e-08
2.23722e-08
2.23722e-08
2.23723e-08
2.23724e-08
2.23756e-08
2.2375e-08
2.23744e-08
2.23739e-08
2.23734e-08
2.23729e-08
2.23726e-08
2.23723e-08
2.23721e-08
2.2372e-08
2.2372e-08
2.2372e-08
2.23721e-08
2.23722e-08
2.23754e-08
2.23749e-08
2.23743e-08
2.23737e-08
2.23732e-08
2.23728e-08
2.23724e-08
2.23722e-08
2.2372e-08
2.23719e-08
2.23719e-08
2.23719e-08
2.2372e-08
2.23721e-08
2.23754e-08
2.23748e-08
2.23742e-08
2.23737e-08
2.23732e-08
2.23727e-08
2.23724e-08
2.23721e-08
2.2372e-08
2.23719e-08
2.23719e-08
2.23719e-08
2.2372e-08
2.23721e-08
2.23754e-08
2.23748e-08
2.23742e-08
2.23737e-08
2.23732e-08
2.23728e-08
2.23724e-08
2.23722e-08
2.2372e-08
2.23719e-08
2.23719e-08
2.23719e-08
2.2372e-08
2.23721e-08
2.23754e-08
2.23749e-08
2.23743e-08
2.23738e-08
2.23733e-08
2.23729e-08
2.23726e-08
2.23723e-08
2.23721e-08
2.2372e-08
2.2372e-08
2.2372e-08
2.23721e-08
2.23722e-08
2.23756e-08
2.2375e-08
2.23745e-08
2.2374e-08
2.23735e-08
2.23731e-08
2.23727e-08
2.23724e-08
2.23723e-08
2.23722e-08
2.23721e-08
2.23722e-08
2.23722e-08
2.23723e-08
2.23758e-08
2.23752e-08
2.23747e-08
2.23742e-08
2.23737e-08
2.23733e-08
2.23729e-08
2.23727e-08
2.23725e-08
2.23724e-08
2.23723e-08
2.23723e-08
2.23724e-08
2.23725e-08
2.2376e-08
2.23754e-08
2.23749e-08
2.23744e-08
2.23739e-08
2.23735e-08
2.23732e-08
2.23729e-08
2.23727e-08
2.23726e-08
2.23725e-08
2.23725e-08
2.23726e-08
2.23727e-08
2.23381e-08
2.23377e-08
2.23374e-08
2.23371e-08
2.23368e-08
2.23366e-08
2.23364e-08
2.23362e-08
2.23361e-08
2.23361e-08
2.2336e-08
2.2336e-08
2.23361e-08
2.23361e-08
2.23378e-08
2.23375e-08
2.23372e-08
2.23368e-08
2.23366e-08
2.23363e-08
2.23361e-08
2.2336e-08
2.23359e-08
2.23358e-08
2.23358e-08
2.23358e-08
2.23358e-08
2.23358e-08
2.23375e-08
2.23372e-08
2.23369e-08
2.23366e-08
2.23363e-08
2.23361e-08
2.23359e-08
2.23357e-08
2.23356e-08
2.23355e-08
2.23355e-08
2.23355e-08
2.23356e-08
2.23356e-08
2.23373e-08
2.2337e-08
2.23367e-08
2.23364e-08
2.23361e-08
2.23358e-08
2.23356e-08
2.23355e-08
2.23354e-08
2.23353e-08
2.23353e-08
2.23353e-08
2.23353e-08
2.23354e-08
2.23371e-08
2.23368e-08
2.23365e-08
2.23362e-08
2.23359e-08
2.23356e-08
2.23354e-08
2.23353e-08
2.23352e-08
2.23351e-08
2.23351e-08
2.23351e-08
2.23351e-08
2.23352e-08
2.2337e-08
2.23366e-08
2.23363e-08
2.2336e-08
2.23357e-08
2.23355e-08
2.23353e-08
2.23351e-08
2.2335e-08
2.2335e-08
2.23349e-08
2.2335e-08
2.2335e-08
2.2335e-08
2.23368e-08
2.23365e-08
2.23362e-08
2.23359e-08
2.23356e-08
2.23354e-08
2.23352e-08
2.2335e-08
2.23349e-08
2.23349e-08
2.23348e-08
2.23348e-08
2.23349e-08
2.23349e-08
2.23368e-08
2.23365e-08
2.23361e-08
2.23358e-08
2.23356e-08
2.23353e-08
2.23351e-08
2.2335e-08
2.23349e-08
2.23348e-08
2.23348e-08
2.23348e-08
2.23348e-08
2.23349e-08
2.23367e-08
2.23364e-08
2.23361e-08
2.23358e-08
2.23356e-08
2.23353e-08
2.23351e-08
2.2335e-08
2.23348e-08
2.23348e-08
2.23348e-08
2.23348e-08
2.23348e-08
2.23349e-08
2.23368e-08
2.23365e-08
2.23361e-08
2.23359e-08
2.23356e-08
2.23353e-08
2.23351e-08
2.2335e-08
2.23349e-08
2.23348e-08
2.23348e-08
2.23348e-08
2.23348e-08
2.23349e-08
2.23368e-08
2.23365e-08
2.23362e-08
2.23359e-08
2.23356e-08
2.23354e-08
2.23352e-08
2.2335e-08
2.23349e-08
2.23349e-08
2.23349e-08
2.23349e-08
2.23349e-08
2.2335e-08
2.23369e-08
2.23366e-08
2.23363e-08
2.2336e-08
2.23357e-08
2.23355e-08
2.23353e-08
2.23351e-08
2.2335e-08
2.2335e-08
2.2335e-08
2.2335e-08
2.2335e-08
2.23351e-08
2.23371e-08
2.23368e-08
2.23365e-08
2.23362e-08
2.23359e-08
2.23356e-08
2.23354e-08
2.23353e-08
2.23352e-08
2.23351e-08
2.23351e-08
2.23351e-08
2.23352e-08
2.23352e-08
2.23373e-08
2.23369e-08
2.23366e-08
2.23363e-08
2.2336e-08
2.23358e-08
2.23356e-08
2.23354e-08
2.23353e-08
2.23352e-08
2.23352e-08
2.23352e-08
2.23353e-08
2.23354e-08
2.23036e-08
2.23036e-08
2.23035e-08
2.23034e-08
2.23033e-08
2.23033e-08
2.23032e-08
2.23031e-08
2.2303e-08
2.23029e-08
2.23028e-08
2.23027e-08
2.23026e-08
2.23025e-08
2.23036e-08
2.23035e-08
2.23035e-08
2.23034e-08
2.23033e-08
2.23033e-08
2.23032e-08
2.23031e-08
2.2303e-08
2.23029e-08
2.23028e-08
2.23027e-08
2.23026e-08
2.23025e-08
2.23035e-08
2.23035e-08
2.23034e-08
2.23034e-08
2.23033e-08
2.23033e-08
2.23032e-08
2.23031e-08
2.2303e-08
2.23029e-08
2.23028e-08
2.23027e-08
2.23026e-08
2.23025e-08
2.23035e-08
2.23035e-08
2.23034e-08
2.23034e-08
2.23034e-08
2.23033e-08
2.23032e-08
2.23031e-08
2.2303e-08
2.23029e-08
2.23028e-08
2.23027e-08
2.23026e-08
2.23025e-08
2.23035e-08
2.23035e-08
2.23035e-08
2.23034e-08
2.23034e-08
2.23033e-08
2.23032e-08
2.23031e-08
2.2303e-08
2.23029e-08
2.23028e-08
2.23027e-08
2.23026e-08
2.23025e-08
2.23035e-08
2.23035e-08
2.23035e-08
2.23034e-08
2.23034e-08
2.23033e-08
2.23032e-08
2.23031e-08
2.2303e-08
2.23029e-08
2.23028e-08
2.23027e-08
2.23025e-08
2.23024e-08
2.23035e-08
2.23035e-08
2.23035e-08
2.23034e-08
2.23034e-08
2.23033e-08
2.23032e-08
2.23031e-08
2.2303e-08
2.23029e-08
2.23028e-08
2.23027e-08
2.23025e-08
2.23024e-08
2.23035e-08
2.23035e-08
2.23035e-08
2.23034e-08
2.23034e-08
2.23033e-08
2.23032e-08
2.23031e-08
2.2303e-08
2.23029e-08
2.23028e-08
2.23026e-08
2.23025e-08
2.23024e-08
2.23035e-08
2.23035e-08
2.23034e-08
2.23034e-08
2.23034e-08
2.23033e-08
2.23032e-08
2.23031e-08
2.2303e-08
2.23029e-08
2.23027e-08
2.23026e-08
2.23025e-08
2.23024e-08
2.23035e-08
2.23035e-08
2.23034e-08
2.23034e-08
2.23033e-08
2.23032e-08
2.23032e-08
2.23031e-08
2.2303e-08
2.23028e-08
2.23027e-08
2.23026e-08
2.23025e-08
2.23023e-08
2.23035e-08
2.23034e-08
2.23034e-08
2.23033e-08
2.23033e-08
2.23032e-08
2.23031e-08
2.2303e-08
2.23029e-08
2.23028e-08
2.23027e-08
2.23026e-08
2.23024e-08
2.23023e-08
2.23035e-08
2.23034e-08
2.23033e-08
2.23033e-08
2.23032e-08
2.23031e-08
2.23031e-08
2.2303e-08
2.23029e-08
2.23028e-08
2.23027e-08
2.23025e-08
2.23024e-08
2.23023e-08
2.23035e-08
2.23034e-08
2.23033e-08
2.23032e-08
2.23032e-08
2.23031e-08
2.2303e-08
2.23029e-08
2.23028e-08
2.23027e-08
2.23026e-08
2.23025e-08
2.23025e-08
2.23023e-08
2.23035e-08
2.23033e-08
2.23032e-08
2.23032e-08
2.23031e-08
2.2303e-08
2.2303e-08
2.23029e-08
2.23028e-08
2.23027e-08
2.23026e-08
2.23025e-08
2.23025e-08
2.23024e-08
2.22736e-08
2.22738e-08
2.22739e-08
2.2274e-08
2.22741e-08
2.22741e-08
2.2274e-08
2.2274e-08
2.22739e-08
2.22737e-08
2.22735e-08
2.22733e-08
2.22731e-08
2.22729e-08
2.22738e-08
2.2274e-08
2.22741e-08
2.22742e-08
2.22743e-08
2.22743e-08
2.22743e-08
2.22742e-08
2.22741e-08
2.22739e-08
2.22738e-08
2.22735e-08
2.22733e-08
2.22731e-08
2.22739e-08
2.22741e-08
2.22743e-08
2.22744e-08
2.22745e-08
2.22745e-08
2.22745e-08
2.22744e-08
2.22743e-08
2.22741e-08
2.2274e-08
2.22737e-08
2.22735e-08
2.22733e-08
2.22741e-08
2.22743e-08
2.22744e-08
2.22745e-08
2.22746e-08
2.22747e-08
2.22747e-08
2.22746e-08
2.22745e-08
2.22743e-08
2.22741e-08
2.22739e-08
2.22737e-08
2.22734e-08
2.22742e-08
2.22744e-08
2.22745e-08
2.22747e-08
2.22748e-08
2.22748e-08
2.22748e-08
2.22747e-08
2.22746e-08
2.22745e-08
2.22743e-08
2.2274e-08
2.22738e-08
2.22735e-08
2.22743e-08
2.22745e-08
2.22746e-08
2.22748e-08
2.22749e-08
2.22749e-08
2.22749e-08
2.22749e-08
2.22747e-08
2.22746e-08
2.22744e-08
2.22741e-08
2.22738e-08
2.22736e-08
2.22744e-08
2.22745e-08
2.22747e-08
2.22748e-08
2.22749e-08
2.2275e-08
2.2275e-08
2.22749e-08
2.22748e-08
2.22746e-08
2.22744e-08
2.22742e-08
2.22739e-08
2.22736e-08
2.22744e-08
2.22746e-08
2.22747e-08
2.22749e-08
2.22749e-08
2.2275e-08
2.2275e-08
2.22749e-08
2.22748e-08
2.22746e-08
2.22744e-08
2.22742e-08
2.22739e-08
2.22736e-08
2.22744e-08
2.22745e-08
2.22747e-08
2.22748e-08
2.22749e-08
2.22749e-08
2.22749e-08
2.22749e-08
2.22747e-08
2.22746e-08
2.22744e-08
2.22741e-08
2.22738e-08
2.22735e-08
2.22743e-08
2.22745e-08
2.22746e-08
2.22747e-08
2.22748e-08
2.22748e-08
2.22748e-08
2.22748e-08
2.22747e-08
2.22745e-08
2.22743e-08
2.2274e-08
2.22737e-08
2.22735e-08
2.22742e-08
2.22743e-08
2.22745e-08
2.22746e-08
2.22747e-08
2.22747e-08
2.22747e-08
2.22746e-08
2.22745e-08
2.22743e-08
2.22741e-08
2.22739e-08
2.22736e-08
2.22733e-08
2.2274e-08
2.22742e-08
2.22743e-08
2.22744e-08
2.22745e-08
2.22745e-08
2.22745e-08
2.22744e-08
2.22743e-08
2.22742e-08
2.2274e-08
2.22737e-08
2.22735e-08
2.22732e-08
2.22739e-08
2.2274e-08
2.22741e-08
2.22742e-08
2.22743e-08
2.22743e-08
2.22743e-08
2.22742e-08
2.22741e-08
2.2274e-08
2.22738e-08
2.22736e-08
2.22733e-08
2.22731e-08
2.22736e-08
2.22737e-08
2.22738e-08
2.22739e-08
2.2274e-08
2.2274e-08
2.2274e-08
2.2274e-08
2.22739e-08
2.22738e-08
2.22736e-08
2.22734e-08
2.22732e-08
2.22729e-08
2.22468e-08
2.2247e-08
2.22472e-08
2.22474e-08
2.22475e-08
2.22475e-08
2.22475e-08
2.22475e-08
2.22474e-08
2.22472e-08
2.2247e-08
2.22468e-08
2.22465e-08
2.22462e-08
2.2247e-08
2.22473e-08
2.22475e-08
2.22476e-08
2.22478e-08
2.22478e-08
2.22478e-08
2.22478e-08
2.22477e-08
2.22475e-08
2.22473e-08
2.2247e-08
2.22468e-08
2.22465e-08
2.22472e-08
2.22475e-08
2.22477e-08
2.22479e-08
2.2248e-08
2.22481e-08
2.22481e-08
2.22481e-08
2.22479e-08
2.22478e-08
2.22476e-08
2.22473e-08
2.2247e-08
2.22467e-08
2.22474e-08
2.22477e-08
2.22479e-08
2.22481e-08
2.22482e-08
2.22483e-08
2.22483e-08
2.22483e-08
2.22482e-08
2.2248e-08
2.22478e-08
2.22475e-08
2.22472e-08
2.22469e-08
2.22476e-08
2.22478e-08
2.22481e-08
2.22483e-08
2.22484e-08
2.22485e-08
2.22485e-08
2.22485e-08
2.22483e-08
2.22482e-08
2.2248e-08
2.22477e-08
2.22474e-08
2.2247e-08
2.22477e-08
2.2248e-08
2.22482e-08
2.22484e-08
2.22485e-08
2.22486e-08
2.22486e-08
2.22486e-08
2.22485e-08
2.22483e-08
2.22481e-08
2.22478e-08
2.22475e-08
2.22471e-08
2.22478e-08
2.2248e-08
2.22483e-08
2.22485e-08
2.22486e-08
2.22487e-08
2.22487e-08
2.22486e-08
2.22485e-08
2.22484e-08
2.22481e-08
2.22478e-08
2.22475e-08
2.22472e-08
2.22478e-08
2.2248e-08
2.22483e-08
2.22484e-08
2.22486e-08
2.22487e-08
2.22487e-08
2.22486e-08
2.22485e-08
2.22483e-08
2.22481e-08
2.22478e-08
2.22475e-08
2.22471e-08
2.22477e-08
2.2248e-08
2.22482e-08
2.22484e-08
2.22485e-08
2.22486e-08
2.22486e-08
2.22486e-08
2.22484e-08
2.22483e-08
2.2248e-08
2.22478e-08
2.22474e-08
2.22471e-08
2.22476e-08
2.22478e-08
2.22481e-08
2.22482e-08
2.22484e-08
2.22485e-08
2.22485e-08
2.22484e-08
2.22483e-08
2.22481e-08
2.22479e-08
2.22476e-08
2.22473e-08
2.22469e-08
2.22475e-08
2.22477e-08
2.22479e-08
2.22481e-08
2.22482e-08
2.22483e-08
2.22483e-08
2.22482e-08
2.22481e-08
2.2248e-08
2.22477e-08
2.22474e-08
2.22471e-08
2.22468e-08
2.22472e-08
2.22474e-08
2.22476e-08
2.22478e-08
2.22479e-08
2.2248e-08
2.2248e-08
2.2248e-08
2.22479e-08
2.22477e-08
2.22475e-08
2.22472e-08
2.22469e-08
2.22465e-08
2.2247e-08
2.22472e-08
2.22473e-08
2.22475e-08
2.22476e-08
2.22477e-08
2.22477e-08
2.22477e-08
2.22476e-08
2.22474e-08
2.22472e-08
2.22469e-08
2.22466e-08
2.22463e-08
2.22466e-08
2.22468e-08
2.2247e-08
2.22472e-08
2.22473e-08
2.22474e-08
2.22474e-08
2.22474e-08
2.22473e-08
2.22471e-08
2.22469e-08
2.22467e-08
2.22464e-08
2.2246e-08
2.22217e-08
2.22219e-08
2.22221e-08
2.22223e-08
2.22224e-08
2.22225e-08
2.22225e-08
2.22224e-08
2.22223e-08
2.22222e-08
2.2222e-08
2.22218e-08
2.22215e-08
2.22212e-08
2.22219e-08
2.22222e-08
2.22224e-08
2.22225e-08
2.22227e-08
2.22227e-08
2.22227e-08
2.22227e-08
2.22226e-08
2.22225e-08
2.22223e-08
2.2222e-08
2.22218e-08
2.22215e-08
2.22221e-08
2.22224e-08
2.22226e-08
2.22228e-08
2.22229e-08
2.2223e-08
2.2223e-08
2.22229e-08
2.22228e-08
2.22227e-08
2.22225e-08
2.22223e-08
2.2222e-08
2.22217e-08
2.22223e-08
2.22226e-08
2.22228e-08
2.2223e-08
2.22231e-08
2.22231e-08
2.22232e-08
2.22231e-08
2.2223e-08
2.22229e-08
2.22227e-08
2.22224e-08
2.22222e-08
2.22218e-08
2.22224e-08
2.22227e-08
2.22229e-08
2.22231e-08
2.22232e-08
2.22233e-08
2.22233e-08
2.22233e-08
2.22232e-08
2.2223e-08
2.22228e-08
2.22226e-08
2.22223e-08
2.2222e-08
2.22225e-08
2.22228e-08
2.2223e-08
2.22232e-08
2.22233e-08
2.22234e-08
2.22234e-08
2.22234e-08
2.22233e-08
2.22231e-08
2.22229e-08
2.22227e-08
2.22224e-08
2.22221e-08
2.22226e-08
2.22228e-08
2.2223e-08
2.22232e-08
2.22233e-08
2.22234e-08
2.22234e-08
2.22234e-08
2.22233e-08
2.22231e-08
2.22229e-08
2.22227e-08
2.22224e-08
2.22221e-08
2.22226e-08
2.22228e-08
2.2223e-08
2.22232e-08
2.22233e-08
2.22234e-08
2.22234e-08
2.22234e-08
2.22233e-08
2.22231e-08
2.22229e-08
2.22227e-08
2.22224e-08
2.2222e-08
2.22225e-08
2.22227e-08
2.22229e-08
2.22231e-08
2.22232e-08
2.22233e-08
2.22233e-08
2.22233e-08
2.22232e-08
2.2223e-08
2.22228e-08
2.22226e-08
2.22223e-08
2.22219e-08
2.22224e-08
2.22226e-08
2.22228e-08
2.2223e-08
2.22231e-08
2.22232e-08
2.22232e-08
2.22231e-08
2.2223e-08
2.22229e-08
2.22227e-08
2.22224e-08
2.22221e-08
2.22218e-08
2.22222e-08
2.22224e-08
2.22226e-08
2.22228e-08
2.22229e-08
2.2223e-08
2.2223e-08
2.22229e-08
2.22228e-08
2.22227e-08
2.22225e-08
2.22222e-08
2.22219e-08
2.22216e-08
2.22219e-08
2.22221e-08
2.22223e-08
2.22225e-08
2.22226e-08
2.22227e-08
2.22227e-08
2.22227e-08
2.22226e-08
2.22225e-08
2.22222e-08
2.2222e-08
2.22217e-08
2.22214e-08
2.22217e-08
2.22219e-08
2.2222e-08
2.22222e-08
2.22223e-08
2.22224e-08
2.22224e-08
2.22224e-08
2.22223e-08
2.22222e-08
2.2222e-08
2.22217e-08
2.22214e-08
2.22211e-08
2.22213e-08
2.22215e-08
2.22217e-08
2.22219e-08
2.2222e-08
2.22221e-08
2.22221e-08
2.22221e-08
2.2222e-08
2.22219e-08
2.22217e-08
2.22214e-08
2.22211e-08
2.22208e-08
2.21976e-08
2.21978e-08
2.2198e-08
2.21981e-08
2.21982e-08
2.21983e-08
2.21983e-08
2.21982e-08
2.21982e-08
2.21981e-08
2.21979e-08
2.21977e-08
2.21975e-08
2.21972e-08
2.21978e-08
2.2198e-08
2.21982e-08
2.21983e-08
2.21984e-08
2.21985e-08
2.21985e-08
2.21984e-08
2.21984e-08
2.21983e-08
2.21981e-08
2.21979e-08
2.21977e-08
2.21974e-08
2.21979e-08
2.21982e-08
2.21983e-08
2.21985e-08
2.21986e-08
2.21986e-08
2.21986e-08
2.21986e-08
2.21985e-08
2.21984e-08
2.21983e-08
2.21981e-08
2.21978e-08
2.21976e-08
2.21981e-08
2.21983e-08
2.21985e-08
2.21986e-08
2.21987e-08
2.21988e-08
2.21988e-08
2.21987e-08
2.21987e-08
2.21985e-08
2.21984e-08
2.21982e-08
2.2198e-08
2.21977e-08
2.21982e-08
2.21984e-08
2.21986e-08
2.21987e-08
2.21988e-08
2.21988e-08
2.21988e-08
2.21988e-08
2.21987e-08
2.21986e-08
2.21985e-08
2.21983e-08
2.21981e-08
2.21978e-08
2.21982e-08
2.21984e-08
2.21986e-08
2.21987e-08
2.21988e-08
2.21989e-08
2.21989e-08
2.21989e-08
2.21988e-08
2.21987e-08
2.21985e-08
2.21983e-08
2.21981e-08
2.21978e-08
2.21982e-08
2.21984e-08
2.21986e-08
2.21987e-08
2.21988e-08
2.21989e-08
2.21989e-08
2.21989e-08
2.21988e-08
2.21987e-08
2.21985e-08
2.21983e-08
2.21981e-08
2.21978e-08
2.21982e-08
2.21984e-08
2.21986e-08
2.21987e-08
2.21988e-08
2.21988e-08
2.21988e-08
2.21988e-08
2.21987e-08
2.21986e-08
2.21985e-08
2.21983e-08
2.21981e-08
2.21978e-08
2.21981e-08
2.21983e-08
2.21985e-08
2.21986e-08
2.21987e-08
2.21987e-08
2.21988e-08
2.21987e-08
2.21987e-08
2.21985e-08
2.21984e-08
2.21982e-08
2.2198e-08
2.21977e-08
2.2198e-08
2.21982e-08
2.21984e-08
2.21985e-08
2.21986e-08
2.21986e-08
2.21986e-08
2.21986e-08
2.21985e-08
2.21984e-08
2.21983e-08
2.21981e-08
2.21978e-08
2.21976e-08
2.21978e-08
2.2198e-08
2.21982e-08
2.21983e-08
2.21984e-08
2.21985e-08
2.21985e-08
2.21984e-08
2.21984e-08
2.21982e-08
2.21981e-08
2.21979e-08
2.21977e-08
2.21974e-08
2.21976e-08
2.21978e-08
2.2198e-08
2.21981e-08
2.21982e-08
2.21983e-08
2.21983e-08
2.21982e-08
2.21982e-08
2.2198e-08
2.21979e-08
2.21977e-08
2.21974e-08
2.21972e-08
2.21974e-08
2.21976e-08
2.21977e-08
2.21979e-08
2.21979e-08
2.2198e-08
2.2198e-08
2.2198e-08
2.21979e-08
2.21978e-08
2.21976e-08
2.21974e-08
2.21972e-08
2.21969e-08
2.21971e-08
2.21973e-08
2.21974e-08
2.21976e-08
2.21977e-08
2.21977e-08
2.21978e-08
2.21977e-08
2.21977e-08
2.21976e-08
2.21974e-08
2.21972e-08
2.2197e-08
2.21967e-08
2.21742e-08
2.21743e-08
2.21745e-08
2.21746e-08
2.21747e-08
2.21747e-08
2.21747e-08
2.21747e-08
2.21746e-08
2.21746e-08
2.21744e-08
2.21743e-08
2.21741e-08
2.21739e-08
2.21743e-08
2.21745e-08
2.21746e-08
2.21747e-08
2.21748e-08
2.21748e-08
2.21748e-08
2.21748e-08
2.21748e-08
2.21747e-08
2.21746e-08
2.21744e-08
2.21742e-08
2.2174e-08
2.21744e-08
2.21746e-08
2.21747e-08
2.21748e-08
2.21749e-08
2.21749e-08
2.2175e-08
2.21749e-08
2.21749e-08
2.21748e-08
2.21747e-08
2.21745e-08
2.21744e-08
2.21741e-08
2.21745e-08
2.21747e-08
2.21748e-08
2.21749e-08
2.2175e-08
2.2175e-08
2.2175e-08
2.2175e-08
2.21749e-08
2.21749e-08
2.21748e-08
2.21746e-08
2.21744e-08
2.21742e-08
2.21746e-08
2.21747e-08
2.21749e-08
2.2175e-08
2.2175e-08
2.21751e-08
2.21751e-08
2.2175e-08
2.2175e-08
2.21749e-08
2.21748e-08
2.21747e-08
2.21745e-08
2.21743e-08
2.21746e-08
2.21748e-08
2.21749e-08
2.2175e-08
2.2175e-08
2.21751e-08
2.21751e-08
2.21751e-08
2.2175e-08
2.21749e-08
2.21748e-08
2.21747e-08
2.21745e-08
2.21743e-08
2.21746e-08
2.21747e-08
2.21749e-08
2.2175e-08
2.2175e-08
2.2175e-08
2.21751e-08
2.2175e-08
2.2175e-08
2.21749e-08
2.21748e-08
2.21747e-08
2.21745e-08
2.21743e-08
2.21746e-08
2.21747e-08
2.21748e-08
2.21749e-08
2.2175e-08
2.2175e-08
2.2175e-08
2.2175e-08
2.21749e-08
2.21749e-08
2.21748e-08
2.21746e-08
2.21745e-08
2.21743e-08
2.21745e-08
2.21746e-08
2.21747e-08
2.21748e-08
2.21749e-08
2.21749e-08
2.21749e-08
2.21749e-08
2.21749e-08
2.21748e-08
2.21747e-08
2.21745e-08
2.21744e-08
2.21742e-08
2.21744e-08
2.21745e-08
2.21746e-08
2.21747e-08
2.21748e-08
2.21748e-08
2.21748e-08
2.21748e-08
2.21748e-08
2.21747e-08
2.21746e-08
2.21744e-08
2.21743e-08
2.21741e-08
2.21742e-08
2.21744e-08
2.21745e-08
2.21746e-08
2.21747e-08
2.21747e-08
2.21747e-08
2.21747e-08
2.21746e-08
2.21746e-08
2.21745e-08
2.21743e-08
2.21741e-08
2.2174e-08
2.21741e-08
2.21742e-08
2.21744e-08
2.21745e-08
2.21745e-08
2.21746e-08
2.21746e-08
2.21745e-08
2.21745e-08
2.21744e-08
2.21743e-08
2.21742e-08
2.2174e-08
2.21738e-08
2.21739e-08
2.2174e-08
2.21742e-08
2.21743e-08
2.21743e-08
2.21744e-08
2.21744e-08
2.21744e-08
2.21743e-08
2.21742e-08
2.21741e-08
2.2174e-08
2.21738e-08
2.21736e-08
2.21737e-08
2.21738e-08
2.2174e-08
2.21741e-08
2.21741e-08
2.21742e-08
2.21742e-08
2.21742e-08
2.21741e-08
2.2174e-08
2.21739e-08
2.21738e-08
2.21736e-08
2.21734e-08
2.21512e-08
2.21514e-08
2.21515e-08
2.21515e-08
2.21516e-08
2.21516e-08
2.21517e-08
2.21516e-08
2.21516e-08
2.21515e-08
2.21515e-08
2.21513e-08
2.21512e-08
2.21511e-08
2.21513e-08
2.21515e-08
2.21516e-08
2.21516e-08
2.21517e-08
2.21517e-08
2.21518e-08
2.21517e-08
2.21517e-08
2.21516e-08
2.21516e-08
2.21514e-08
2.21513e-08
2.21511e-08
2.21514e-08
2.21516e-08
2.21517e-08
2.21517e-08
2.21518e-08
2.21518e-08
2.21518e-08
2.21518e-08
2.21518e-08
2.21517e-08
2.21516e-08
2.21515e-08
2.21514e-08
2.21512e-08
2.21515e-08
2.21516e-08
2.21517e-08
2.21518e-08
2.21518e-08
2.21519e-08
2.21519e-08
2.21519e-08
2.21518e-08
2.21518e-08
2.21517e-08
2.21516e-08
2.21515e-08
2.21513e-08
2.21515e-08
2.21517e-08
2.21518e-08
2.21518e-08
2.21519e-08
2.21519e-08
2.21519e-08
2.21519e-08
2.21519e-08
2.21518e-08
2.21517e-08
2.21516e-08
2.21515e-08
2.21513e-08
2.21516e-08
2.21517e-08
2.21518e-08
2.21518e-08
2.21519e-08
2.21519e-08
2.21519e-08
2.21519e-08
2.21519e-08
2.21518e-08
2.21517e-08
2.21516e-08
2.21515e-08
2.21514e-08
2.21515e-08
2.21517e-08
2.21518e-08
2.21518e-08
2.21519e-08
2.21519e-08
2.21519e-08
2.21519e-08
2.21519e-08
2.21518e-08
2.21517e-08
2.21516e-08
2.21515e-08
2.21514e-08
2.21515e-08
2.21516e-08
2.21517e-08
2.21518e-08
2.21518e-08
2.21519e-08
2.21519e-08
2.21518e-08
2.21518e-08
2.21518e-08
2.21517e-08
2.21516e-08
2.21515e-08
2.21513e-08
2.21514e-08
2.21516e-08
2.21517e-08
2.21517e-08
2.21518e-08
2.21518e-08
2.21518e-08
2.21518e-08
2.21518e-08
2.21517e-08
2.21516e-08
2.21515e-08
2.21514e-08
2.21513e-08
2.21514e-08
2.21515e-08
2.21516e-08
2.21517e-08
2.21517e-08
2.21517e-08
2.21517e-08
2.21517e-08
2.21517e-08
2.21516e-08
2.21516e-08
2.21515e-08
2.21514e-08
2.21512e-08
2.21513e-08
2.21514e-08
2.21515e-08
2.21516e-08
2.21516e-08
2.21516e-08
2.21517e-08
2.21516e-08
2.21516e-08
2.21515e-08
2.21515e-08
2.21514e-08
2.21513e-08
2.21511e-08
2.21512e-08
2.21513e-08
2.21514e-08
2.21515e-08
2.21515e-08
2.21515e-08
2.21515e-08
2.21515e-08
2.21515e-08
2.21514e-08
2.21514e-08
2.21513e-08
2.21511e-08
2.2151e-08
2.2151e-08
2.21511e-08
2.21512e-08
2.21513e-08
2.21514e-08
2.21514e-08
2.21514e-08
2.21514e-08
2.21514e-08
2.21513e-08
2.21512e-08
2.21511e-08
2.2151e-08
2.21509e-08
2.21509e-08
2.2151e-08
2.21511e-08
2.21512e-08