/*--------------------------------*- C++ -*----------------------------------*\
| =========                 |                                                 |
| \\      /  F ield         | OpenFOAM: The Open Source CFD Toolbox           |
|  \\    /   O peration     | Version:  v2106                                 |
|   \\  /    A nd           | Website:  www.openfoam.com                      |
|    \\/     M anipulation  |                                                 |
\*---------------------------------------------------------------------------*/
FoamFile
{
    version     2.0;
    format      ascii;
    arch        "LSB;label=32;scalar=64";
    class       volVectorField;
    location    "0.000147";
    object      U;
}
// * * * * * * * * * * * * * * * * * * * * * * * * * * * * * * * * * * * * * //

dimensions      [0 1 -1 0 0 0 0];

internalField   nonuniform List<vector> 
17924
(
(0.194861 -0.306451 15.7436)
(0.21144 -0.297517 15.7457)
(0.225038 -0.298859 15.7382)
(0.240205 -0.298762 15.7314)
(0.151796 -0.168505 14.8775)
(0.171517 -0.168977 14.8744)
(0.182531 -0.170513 14.8597)
(0.197699 -0.171041 14.8476)
(0.210352 -0.170054 14.8343)
(0.223394 -0.1697 14.8229)
(0.235397 -0.169544 14.8116)
(0.149555 -0.152165 14.9037)
(0.172341 -0.154599 14.8988)
(0.185206 -0.156299 14.8823)
(0.201501 -0.157979 14.8697)
(0.214915 -0.157071 14.8562)
(0.228176 -0.156341 14.8442)
(0.240324 -0.155595 14.8323)
(0.148335 -0.133313 14.9266)
(0.171339 -0.136195 14.9191)
(0.185302 -0.138796 14.9031)
(0.200831 -0.140832 14.8902)
(0.214148 -0.140598 14.8772)
(0.227264 -0.140579 14.8652)
(0.239809 -0.140526 14.8536)
(0.147325 -0.117348 14.9494)
(0.169521 -0.120712 14.9408)
(0.184552 -0.12368 14.9258)
(0.199796 -0.125685 14.9127)
(0.213662 -0.126065 14.8999)
(0.227043 -0.126316 14.8877)
(0.240169 -0.126559 14.876)
(0.146682 -0.101008 14.971)
(0.167838 -0.104309 14.9614)
(0.183395 -0.107404 14.9473)
(0.198439 -0.109489 14.9343)
(0.212555 -0.110474 14.9218)
(0.226121 -0.111201 14.9096)
(0.239451 -0.111826 14.8979)
(0.145329 -0.0854606 14.9927)
(0.165579 -0.0891012 14.9824)
(0.181829 -0.0922243 14.969)
(0.197056 -0.0944144 14.9561)
(0.211623 -0.0958974 14.9438)
(0.225449 -0.0968477 14.9316)
(0.239116 -0.097671 14.9201)
(0.143548 -0.0702759 15.014)
(0.163004 -0.0744618 15.0031)
(0.179903 -0.0773081 14.9903)
(0.195401 -0.0796003 14.9774)
(0.210428 -0.0813696 14.9654)
(0.224588 -0.0825436 14.9534)
(0.238628 -0.0834822 14.942)
(0.140893 -0.0555907 15.0349)
(0.15956 -0.0605595 15.0232)
(0.177291 -0.0630179 15.0112)
(0.193185 -0.0654492 14.9987)
(0.20882 -0.0674209 14.987)
(0.223448 -0.0687354 14.975)
(0.237998 -0.0696762 14.9638)
(0.137485 -0.041409 15.0553)
(0.155404 -0.0471105 15.0427)
(0.174288 -0.0491483 15.0318)
(0.190738 -0.0515971 15.0195)
(0.207091 -0.0536422 15.0082)
(0.222286 -0.0550465 14.9964)
(0.237398 -0.0559332 14.9853)
(0.133524 -0.0272054 15.075)
(0.151065 -0.0336475 15.0616)
(0.171141 -0.035638 15.052)
(0.188247 -0.0379953 15.0401)
(0.205326 -0.0400684 15.0292)
(0.221158 -0.0414707 15.0176)
(0.236914 -0.0422445 15.0066)
(0.129225 -0.0141456 15.0952)
(0.146975 -0.0202059 15.0806)
(0.167931 -0.0218172 15.0714)
(0.185975 -0.023782 15.0601)
(0.203808 -0.0257928 15.0497)
(0.220392 -0.0272359 15.0384)
(0.236793 -0.027978 15.0277)
(0.124987 -0.00111765 15.1151)
(0.144363 -0.00506201 15.1)
(0.165521 -0.00786445 15.0912)
(0.184101 -0.00955659 15.0807)
(0.202294 -0.011696 15.0707)
(0.21941 -0.0130384 15.0597)
(0.236183 -0.0134815 15.0491)
(0.119946 0.00823676 15.1344)
(0.142921 0.00972275 15.1228)
(0.163018 0.00969381 15.1106)
(0.183122 0.00793564 15.1006)
(0.20203 0.00542926 15.0905)
(0.219789 0.00368121 15.0801)
(0.236657 0.00296925 15.07)
(0.122786 0.0193615 15.1494)
(0.141424 0.0284035 15.1455)
(0.158423 0.0248889 15.134)
(0.177415 0.0224029 15.1233)
(0.196122 0.0204059 15.1121)
(0.214515 0.0196214 15.101)
(0.232254 0.0201459 15.0902)
(0.0967205 -0.0943634 14.0002)
(0.113724 -0.101329 13.9927)
(0.12388 -0.102117 13.9759)
(0.13925 -0.102838 13.9616)
(0.153338 -0.101986 13.947)
(0.167344 -0.101694 13.9334)
(0.180655 -0.101757 13.9205)
(0.192577 -0.101581 13.9072)
(0.204629 -0.10114 13.8945)
(0.21542 -0.101816 13.8807)
(0.227104 -0.101245 13.8673)
(0.237799 -0.101691 13.8536)
(0.251045 -0.097996 13.8439)
(0.263788 -0.0989827 13.8325)
(0.0911039 -0.0801102 14.0131)
(0.112063 -0.0837958 14.0021)
(0.126933 -0.0853874 13.985)
(0.143582 -0.087366 13.9712)
(0.158168 -0.0867824 13.9572)
(0.171821 -0.0862937 13.9435)
(0.184856 -0.0860297 13.9303)
(0.196155 -0.0854778 13.9163)
(0.207693 -0.084955 13.903)
(0.217654 -0.0854394 13.8888)
(0.228655 -0.0850877 13.8754)
(0.238275 -0.0853081 13.8617)
(0.249784 -0.0824754 13.8509)
(0.262318 -0.0841141 13.8397)
(0.0907817 -0.0651976 14.0232)
(0.110345 -0.0673854 14.0098)
(0.126844 -0.0693569 13.9946)
(0.142306 -0.0707945 13.9801)
(0.156932 -0.0703211 13.9664)
(0.17065 -0.070098 13.9527)
(0.184154 -0.0701132 13.9397)
(0.196233 -0.0700066 13.9261)
(0.208438 -0.070061 13.9132)
(0.219171 -0.0711506 13.8996)
(0.230192 -0.0711476 13.8862)
(0.240234 -0.071449 13.8725)
(0.251015 -0.0689893 13.8604)
(0.264516 -0.0711716 13.85)
(0.0899747 -0.050911 14.0322)
(0.109017 -0.0521945 14.0183)
(0.126171 -0.0544395 14.0045)
(0.141452 -0.0555683 13.99)
(0.1565 -0.0554606 13.9765)
(0.170477 -0.0554181 13.9627)
(0.184254 -0.0555845 13.9496)
(0.196519 -0.0555318 13.9358)
(0.208862 -0.0556675 13.9229)
(0.219603 -0.0565406 13.9091)
(0.230464 -0.0565356 13.8956)
(0.240357 -0.0566712 13.8818)
(0.251026 -0.0550812 13.8696)
(0.263824 -0.0571213 13.8591)
(0.0893836 -0.0367482 14.0403)
(0.108257 -0.0375875 14.0267)
(0.125567 -0.0398517 14.0134)
(0.140928 -0.0408072 13.9991)
(0.156043 -0.0410282 13.9857)
(0.170092 -0.0411954 13.9721)
(0.183811 -0.0415102 13.959)
(0.19616 -0.0416565 13.9455)
(0.208357 -0.0419555 13.9326)
(0.219182 -0.0427903 13.919)
(0.22983 -0.0428662 13.9055)
(0.239969 -0.0430536 13.892)
(0.250654 -0.0419725 13.8794)
(0.263182 -0.0435409 13.8685)
(0.0883001 -0.0228059 14.0479)
(0.107432 -0.0237568 14.035)
(0.124869 -0.0258933 14.0218)
(0.140511 -0.0268182 14.0079)
(0.155738 -0.0273559 13.9947)
(0.169857 -0.0277169 13.9814)
(0.183554 -0.0281525 13.9684)
(0.195893 -0.0283573 13.955)
(0.208005 -0.0287094 13.9421)
(0.218717 -0.0292716 13.9285)
(0.229293 -0.0294027 13.9151)
(0.239236 -0.029571 13.9015)
(0.250175 -0.0290767 13.8888)
(0.261862 -0.0300711 13.8769)
(0.0868659 -0.00932769 14.0556)
(0.106381 -0.0107121 14.0433)
(0.123986 -0.0124944 14.0302)
(0.139956 -0.0134405 14.0166)
(0.155334 -0.0141732 14.0036)
(0.169575 -0.0146831 13.9904)
(0.183312 -0.0151646 13.9776)
(0.195684 -0.0153935 13.9642)
(0.207798 -0.0157388 13.9513)
(0.218445 -0.0160389 13.9377)
(0.229049 -0.0161688 13.9243)
(0.23874 -0.016361 13.9105)
(0.249942 -0.0163742 13.8979)
(0.260872 -0.016927 13.8852)
(0.085093 0.00381903 14.0631)
(0.104773 0.00198002 14.0511)
(0.122687 0.000657424 14.0383)
(0.139 -0.000345367 14.0251)
(0.154604 -0.00122346 14.0123)
(0.16902 -0.00186831 13.9993)
(0.182869 -0.00235779 13.9866)
(0.195312 -0.0025659 13.9732)
(0.207492 -0.00284314 13.9603)
(0.218106 -0.00286455 13.9466)
(0.228768 -0.00299764 13.9332)
(0.238262 -0.00328793 13.9193)
(0.24961 -0.00388824 13.9069)
(0.259992 -0.00404162 13.8939)
(0.0830266 0.0167382 14.0704)
(0.102668 0.0145389 14.0585)
(0.121187 0.013629 14.0465)
(0.137872 0.0126277 14.0336)
(0.153795 0.0116635 14.0211)
(0.168452 0.0109239 14.0082)
(0.182491 0.0104574 13.9955)
(0.195086 0.0102906 13.9822)
(0.207373 0.0101185 13.9692)
(0.218073 0.0103959 13.9555)
(0.228748 0.0103027 13.9419)
(0.238188 0.00996522 13.9278)
(0.249432 0.00890588 13.9152)
(0.259477 0.0092879 13.9022)
(0.0805012 0.0296463 14.0775)
(0.100187 0.0271437 14.0658)
(0.119368 0.0265722 14.0545)
(0.136503 0.0256866 14.042)
(0.152811 0.0246966 14.0297)
(0.167789 0.0239288 14.0169)
(0.182119 0.023532 14.0042)
(0.194959 0.0234539 13.9908)
(0.207471 0.0234082 13.9777)
(0.218349 0.0240381 13.9638)
(0.229124 0.0240399 13.95)
(0.238476 0.0237875 13.9356)
(0.249567 0.0223117 13.9231)
(0.25918 0.023214 13.9101)
(0.0783159 0.0422435 14.0849)
(0.0983334 0.0398354 14.0733)
(0.117988 0.0396445 14.0624)
(0.13559 0.0390721 14.0502)
(0.15223 0.0381411 14.0381)
(0.167471 0.0373939 14.0253)
(0.182079 0.0370717 14.0127)
(0.19504 0.0371266 13.9991)
(0.207838 0.0372254 13.9859)
(0.218729 0.0382884 13.9716)
(0.229881 0.0384648 13.9575)
(0.238794 0.0385485 13.9426)
(0.250082 0.0367098 13.9304)
(0.258547 0.0382721 13.9168)
(0.0765613 0.0546993 14.0925)
(0.0972141 0.0535363 14.0804)
(0.117073 0.0532852 14.0697)
(0.135064 0.0529609 14.0583)
(0.151848 0.051991 14.0466)
(0.167195 0.0512888 14.0341)
(0.181767 0.0511311 14.0214)
(0.194721 0.05129 14.0077)
(0.207449 0.0515273 13.9943)
(0.218443 0.0528571 13.9797)
(0.229816 0.0534262 13.9653)
(0.238736 0.054004 13.9498)
(0.250177 0.0522637 13.9372)
(0.257997 0.0541976 13.923)
(0.0750742 0.0655439 14.1015)
(0.0976596 0.0676277 14.0904)
(0.116491 0.0683884 14.0772)
(0.135508 0.0681751 14.0664)
(0.152567 0.0672602 14.0547)
(0.16807 0.0666068 14.0424)
(0.1824 0.0666097 14.0299)
(0.194727 0.0669875 14.016)
(0.206771 0.0673165 14.0022)
(0.217083 0.0686958 13.9871)
(0.228489 0.0692923 13.9726)
(0.237209 0.0700538 13.9571)
(0.249378 0.0682387 13.9451)
(0.25638 0.0703984 13.9303)
(0.0783165 0.0759149 14.1082)
(0.0977635 0.0838704 14.1021)
(0.113659 0.0825814 14.0891)
(0.131396 0.0821915 14.0772)
(0.148077 0.0817892 14.0643)
(0.164007 0.0819116 14.0511)
(0.178945 0.0827579 14.0379)
(0.192203 0.0837209 14.0239)
(0.205069 0.0842843 14.0101)
(0.216221 0.0856277 13.9949)
(0.228206 0.0864099 13.9801)
(0.237571 0.0873367 13.9643)
(0.250691 0.0859806 13.9529)
(0.256651 0.0882713 13.9378)
(0.0378766 -0.069055 13.0913)
(0.0534187 -0.0764951 13.0823)
(0.0657494 -0.076492 13.0666)
(0.0817652 -0.0771988 13.0534)
(0.0969373 -0.0766079 13.0402)
(0.111627 -0.0762139 13.0275)
(0.125637 -0.0765002 13.0155)
(0.13825 -0.0765188 13.0032)
(0.150994 -0.0764875 12.9918)
(0.162703 -0.0773173 12.9797)
(0.175472 -0.0772998 12.9685)
(0.186812 -0.077775 12.9562)
(0.201366 -0.0761851 12.9486)
(0.211891 -0.0766492 12.9356)
(0.0321927 -0.056753 13.0931)
(0.0516646 -0.0599507 13.0789)
(0.0690647 -0.0610227 13.0649)
(0.0860347 -0.0619111 13.0531)
(0.101447 -0.0611492 13.0413)
(0.115486 -0.0604134 13.0291)
(0.128934 -0.060362 13.0173)
(0.140769 -0.0601783 13.0048)
(0.15284 -0.0601834 12.9931)
(0.163753 -0.0611916 12.9805)
(0.176014 -0.061418 12.969)
(0.187029 -0.06197 12.9566)
(0.200984 -0.0602183 12.9482)
(0.212312 -0.0620162 12.9358)
(0.0328688 -0.0441847 13.0942)
(0.0505898 -0.0447947 13.0796)
(0.0686189 -0.0458884 13.0677)
(0.0846408 -0.0461819 13.055)
(0.100174 -0.0454787 13.0429)
(0.114438 -0.0449025 13.0304)
(0.128331 -0.044944 13.0184)
(0.140776 -0.0449051 13.006)
(0.153411 -0.0451103 12.9946)
(0.164887 -0.0463212 12.9825)
(0.177088 -0.0466958 12.9711)
(0.188138 -0.0472699 12.9587)
(0.201455 -0.0456015 12.9491)
(0.213677 -0.0480305 12.9382)
(0.0327975 -0.0311789 13.0947)
(0.050317 -0.0304998 13.0804)
(0.0686076 -0.0317893 13.0691)
(0.084547 -0.0318729 13.056)
(0.100228 -0.0313442 13.0438)
(0.114539 -0.0308487 13.0314)
(0.12841 -0.0308964 13.0195)
(0.14084 -0.0309017 13.0071)
(0.153393 -0.031152 12.9957)
(0.164855 -0.0322605 12.9837)
(0.176845 -0.0325636 12.9723)
(0.187943 -0.0330183 12.9602)
(0.20103 -0.0316266 12.9506)
(0.213471 -0.0340059 12.9404)
(0.0326934 -0.0179186 13.0946)
(0.0506468 -0.0169323 13.0812)
(0.0688602 -0.0182498 13.07)
(0.0847934 -0.0182468 13.0571)
(0.100324 -0.0179345 13.045)
(0.114498 -0.0175822 13.0326)
(0.128169 -0.0176746 13.0207)
(0.14052 -0.017729 13.0085)
(0.152865 -0.0179997 12.9971)
(0.164297 -0.0189044 12.9853)
(0.175988 -0.0191381 12.9738)
(0.187322 -0.0194981 12.9622)
(0.200167 -0.0184339 12.9521)
(0.213014 -0.020362 12.9422)
(0.0324917 -0.00470867 13.0944)
(0.0511805 -0.00397421 13.0821)
(0.0691882 -0.00508852 13.0705)
(0.0852011 -0.00507466 13.0578)
(0.10059 -0.00495545 13.0458)
(0.114636 -0.00476221 13.0336)
(0.128101 -0.00490682 13.0219)
(0.140303 -0.0049904 13.0098)
(0.152441 -0.00524462 12.9983)
(0.163748 -0.00588471 12.9866)
(0.175256 -0.00606933 12.9753)
(0.186584 -0.00639762 12.9638)
(0.199347 -0.00576552 12.9535)
(0.212168 -0.0071672 12.9434)
(0.0320336 0.00831287 13.0946)
(0.0513904 0.00869562 13.0833)
(0.0692475 0.00808504 13.0714)
(0.085387 0.00806017 13.0589)
(0.100706 0.00799256 13.047)
(0.1147 0.00797964 13.0348)
(0.128057 0.00777119 13.0231)
(0.140183 0.0076554 13.011)
(0.152221 0.00742616 12.9996)
(0.163445 0.00704539 12.988)
(0.174883 0.00689702 12.9767)
(0.186123 0.00652367 12.9652)
(0.198902 0.0066259 12.9549)
(0.211692 0.00565773 12.9445)
(0.0316156 0.0214043 13.0949)
(0.0512311 0.0214821 13.0841)
(0.0690373 0.0213068 13.0722)
(0.0852778 0.021149 13.0599)
(0.100564 0.0208945 13.048)
(0.114529 0.0206705 13.036)
(0.127818 0.0203863 13.0243)
(0.139909 0.0202164 13.0123)
(0.151892 0.0199996 13.0009)
(0.163059 0.0198491 12.9893)
(0.17444 0.0197148 12.978)
(0.185605 0.0192385 12.9666)
(0.198304 0.0187141 12.9564)
(0.211104 0.0181445 12.9463)
(0.0311708 0.0344907 13.0954)
(0.0506666 0.0341341 13.0847)
(0.0685962 0.0343992 13.0732)
(0.0848685 0.0341644 13.0612)
(0.100182 0.0337734 13.0495)
(0.114183 0.03338 13.0376)
(0.12751 0.033051 13.026)
(0.139679 0.0328533 13.014)
(0.151698 0.0326654 13.0026)
(0.162934 0.0327497 12.9909)
(0.174253 0.0326156 12.9795)
(0.185467 0.0320568 12.9681)
(0.197869 0.0309416 12.9576)
(0.21073 0.0308561 12.948)
(0.0301099 0.0476562 13.0959)
(0.0494754 0.0470581 13.0856)
(0.067606 0.0476898 13.0746)
(0.0840169 0.0474452 13.0627)
(0.0994961 0.0469381 13.0511)
(0.113653 0.0464209 13.0392)
(0.127132 0.0460723 13.0275)
(0.139484 0.0458802 13.0155)
(0.151638 0.0457317 13.004)
(0.163061 0.0460746 12.9923)
(0.174424 0.0459394 12.9808)
(0.185695 0.0453749 12.9692)
(0.197826 0.0437716 12.9587)
(0.210619 0.0442234 12.9497)
(0.0295093 0.0609125 13.0969)
(0.048932 0.0603035 13.0867)
(0.0671815 0.0612326 13.0759)
(0.0836622 0.0610714 13.0641)
(0.0992062 0.0604771 13.0525)
(0.113402 0.0598696 13.0406)
(0.126983 0.0595094 13.0289)
(0.139401 0.0593321 13.0168)
(0.151727 0.0592362 13.0053)
(0.163168 0.0598386 12.9934)
(0.174785 0.0597535 12.9817)
(0.185732 0.0593074 12.9697)
(0.197971 0.0573419 12.9596)
(0.210151 0.0583681 12.9504)
(0.0293558 0.0739686 13.0976)
(0.0488572 0.0740035 13.0872)
(0.0670129 0.0750566 13.0767)
(0.0835904 0.0750756 13.0654)
(0.0990447 0.0744497 13.0542)
(0.113114 0.0738141 13.0424)
(0.126515 0.0734762 13.0306)
(0.138853 0.0733052 13.0185)
(0.151092 0.0732506 13.0069)
(0.162612 0.0740315 12.9949)
(0.174391 0.0741061 12.9831)
(0.185271 0.0739172 12.9706)
(0.19754 0.0717177 12.9605)
(0.209528 0.0730778 12.9507)
(0.0298928 0.0863623 13.1007)
(0.0502541 0.0882116 13.0902)
(0.067469 0.089433 13.078)
(0.0845787 0.0897058 13.0672)
(0.100031 0.0892894 13.056)
(0.113974 0.0887899 13.0443)
(0.126948 0.0885873 13.0325)
(0.138572 0.0884804 13.02)
(0.150018 0.0883779 13.0078)
(0.160846 0.0890562 12.9953)
(0.172453 0.0891168 12.9835)
(0.183006 0.0890481 12.9712)
(0.195695 0.0865797 12.9621)
(0.20672 0.0876275 12.9508)
(0.0346377 0.0979338 13.1018)
(0.0516452 0.104289 13.0938)
(0.0655903 0.104188 13.0816)
(0.0811495 0.104181 13.0703)
(0.0960304 0.103986 13.0582)
(0.11024 0.103957 13.0459)
(0.12366 0.104254 13.0339)
(0.136078 0.104506 13.0219)
(0.148208 0.104471 13.0102)
(0.159875 0.105055 12.9981)
(0.171993 0.105152 12.9861)
(0.18315 0.105302 12.9738)
(0.196441 0.10292 12.9653)
(0.206599 0.103089 12.9536)
(-0.013037 -0.0722947 12.1724)
(0.00242473 -0.0787177 12.1633)
(0.0171601 -0.0789711 12.1511)
(0.0338197 -0.0794895 12.1409)
(0.0498154 -0.0794213 12.1307)
(0.0651721 -0.0792617 12.1206)
(0.0799453 -0.0797352 12.1113)
(0.0938499 -0.0799319 12.102)
(0.107766 -0.0800631 12.0937)
(0.121232 -0.0807601 12.0852)
(0.135164 -0.0808091 12.0773)
(0.148121 -0.0809966 12.0686)
(0.16258 -0.079461 12.0642)
(0.173194 -0.0791459 12.0544)
(-0.0166464 -0.0621809 12.1679)
(0.00199243 -0.0644597 12.1552)
(0.0200032 -0.0654315 12.1454)
(0.0369933 -0.0655563 12.136)
(0.0529714 -0.0649257 12.1269)
(0.067806 -0.0641949 12.1173)
(0.0821389 -0.0641286 12.1084)
(0.0954759 -0.0640642 12.099)
(0.108859 -0.0642048 12.0904)
(0.121727 -0.0651428 12.0815)
(0.135347 -0.0653342 12.0736)
(0.148266 -0.0655474 12.0647)
(0.162874 -0.0635073 12.0598)
(0.175171 -0.0651042 12.0509)
(-0.0164529 -0.0497877 12.1647)
(0.000692962 -0.049335 12.1525)
(0.0189921 -0.050367 12.1439)
(0.0355754 -0.0502823 12.1337)
(0.0518081 -0.0497432 12.1241)
(0.066971 -0.0491364 12.1141)
(0.0817662 -0.0490974 12.1048)
(0.095685 -0.0490292 12.0954)
(0.109628 -0.0491189 12.0872)
(0.123012 -0.0500214 12.0789)
(0.136756 -0.0502655 12.0712)
(0.149789 -0.0505257 12.0625)
(0.164039 -0.0487249 12.0562)
(0.176811 -0.0507572 12.0492)
(-0.0165353 -0.0361788 12.1615)
(0.00075917 -0.0348712 12.1498)
(0.0192035 -0.036128 12.141)
(0.0357328 -0.0359967 12.1303)
(0.0519913 -0.0355633 12.1205)
(0.067132 -0.0349876 12.1105)
(0.0818895 -0.0348892 12.1013)
(0.095801 -0.0348191 12.092)
(0.109711 -0.034903 12.0838)
(0.123112 -0.0356783 12.0756)
(0.136747 -0.0357728 12.0681)
(0.14989 -0.0358793 12.06)
(0.163995 -0.0341977 12.0537)
(0.177195 -0.0359658 12.0476)
(-0.0164351 -0.0222137 12.1581)
(0.00129953 -0.0208213 12.1472)
(0.0196088 -0.0219149 12.1381)
(0.0360525 -0.0217362 12.1275)
(0.0521485 -0.0214384 12.1176)
(0.0671564 -0.0210062 12.1076)
(0.0817867 -0.0209562 12.0983)
(0.0956509 -0.0209253 12.0891)
(0.109458 -0.0209917 12.081)
(0.12283 -0.0215618 12.0731)
(0.136264 -0.0215691 12.0655)
(0.149526 -0.0216049 12.058)
(0.163566 -0.0203126 12.0514)
(0.177309 -0.0215221 12.0456)
(-0.0161015 -0.00823943 12.155)
(0.0022039 -0.00709465 12.1448)
(0.0201899 -0.00781811 12.1352)
(0.0365861 -0.00763036 12.1246)
(0.0525189 -0.007444 12.1147)
(0.0673972 -0.00715983 12.1048)
(0.0818604 -0.00715524 12.0956)
(0.0955864 -0.00717035 12.0865)
(0.109242 -0.00724364 12.0784)
(0.122523 -0.00763473 12.0706)
(0.135807 -0.00761689 12.0632)
(0.149037 -0.00768017 12.0559)
(0.163101 -0.00684202 12.0494)
(0.177085 -0.00760424 12.0432)
(-0.0159129 0.0056112 12.1525)
(0.0027789 0.00651957 12.143)
(0.0204662 0.00635177 12.133)
(0.0368674 0.00651788 12.1224)
(0.0527069 0.00660754 12.1125)
(0.0675399 0.00672374 12.1026)
(0.0819286 0.00667736 12.0934)
(0.0955927 0.00661587 12.0844)
(0.109182 0.00653249 12.0763)
(0.122425 0.00629801 12.0686)
(0.135655 0.00629024 12.0612)
(0.148834 0.00611385 12.0541)
(0.162965 0.00638533 12.0476)
(0.177091 0.00587767 12.0412)
(-0.0156147 0.0194393 12.1506)
(0.00313462 0.0201635 12.1413)
(0.0206396 0.0205777 12.131)
(0.0370128 0.020691 12.1205)
(0.0527596 0.0206942 12.1106)
(0.0675315 0.02063 12.1007)
(0.0818362 0.0205223 12.0915)
(0.0954364 0.0204049 12.0825)
(0.108957 0.0203065 12.0745)
(0.122158 0.0202145 12.0668)
(0.135344 0.0201662 12.0595)
(0.148521 0.0198373 12.0525)
(0.162635 0.0194383 12.0461)
(0.176945 0.0191428 12.0401)
(-0.0150162 0.0333072 12.1487)
(0.0033497 0.0337407 12.1393)
(0.0207339 0.0348154 12.1294)
(0.0369497 0.0350231 12.1191)
(0.0526231 0.035054 12.1093)
(0.0673713 0.0349051 12.0995)
(0.0816706 0.0347965 12.0904)
(0.0952894 0.0346503 12.0814)
(0.108804 0.0345324 12.0734)
(0.122033 0.0345678 12.0657)
(0.135164 0.0344152 12.0583)
(0.148424 0.0339002 12.0513)
(0.162327 0.0327588 12.0445)
(0.176775 0.0326428 12.0392)
(-0.0149883 0.0478064 12.1473)
(0.0029879 0.0483359 12.138)
(0.0203503 0.0497073 12.1286)
(0.0364997 0.0497838 12.1183)
(0.0522122 0.0496304 12.1086)
(0.0670245 0.0492636 12.0988)
(0.0814065 0.0490516 12.0896)
(0.0951382 0.0488193 12.0807)
(0.108735 0.0486631 12.0726)
(0.122087 0.0488496 12.0649)
(0.13526 0.0486256 12.0573)
(0.14861 0.0480247 12.0503)
(0.162304 0.0463049 12.0432)
(0.176725 0.0465997 12.0389)
(-0.0144834 0.0623446 12.1464)
(0.00318558 0.0624856 12.1371)
(0.0204572 0.0641896 12.1278)
(0.0364684 0.0642883 12.1175)
(0.0521165 0.0640503 12.1079)
(0.0668707 0.0635791 12.0981)
(0.0812381 0.0633326 12.089)
(0.094973 0.0630433 12.08)
(0.108629 0.0628405 12.0719)
(0.121986 0.0631252 12.064)
(0.135334 0.0628267 12.0564)
(0.148533 0.0621883 12.0488)
(0.162236 0.0601217 12.0421)
(0.176411 0.0608499 12.0379)
(-0.0136876 0.0769193 12.1452)
(0.00367349 0.0772291 12.1358)
(0.0207487 0.0790668 12.1268)
(0.0366627 0.0791815 12.117)
(0.0521014 0.0788321 12.1077)
(0.066635 0.0782443 12.0981)
(0.0807656 0.0779407 12.0888)
(0.0943684 0.0775748 12.0798)
(0.107918 0.0773021 12.0717)
(0.121279 0.0776187 12.0638)
(0.134759 0.0773145 12.0561)
(0.14788 0.0766892 12.0478)
(0.161566 0.0743359 12.0411)
(0.175805 0.0752882 12.0365)
(-0.0121592 0.0911109 12.1462)
(0.00559033 0.0924007 12.1364)
(0.0220297 0.0943041 12.1264)
(0.0381548 0.0945506 12.1168)
(0.0533672 0.0942811 12.1076)
(0.0674912 0.0936664 12.0981)
(0.0809872 0.0933315 12.0889)
(0.0937923 0.092858 12.0796)
(0.106496 0.0923887 12.0709)
(0.119173 0.092451 12.0624)
(0.132348 0.0920349 12.0548)
(0.145235 0.0913113 12.0466)
(0.158918 0.0885813 12.041)
(0.173092 0.0889564 12.0351)
(-0.00659442 0.104434 12.1462)
(0.00679404 0.108979 12.137)
(0.0204584 0.109614 12.1272)
(0.0353241 0.109652 12.1176)
(0.0500526 0.10954 12.1077)
(0.0643123 0.10919 12.0979)
(0.0780659 0.109109 12.0886)
(0.0914038 0.108761 12.0799)
(0.104605 0.108191 12.0719)
(0.117963 0.107984 12.0639)
(0.131587 0.10738 12.0559)
(0.145272 0.106611 12.048)
(0.15915 0.103737 12.0424)
(0.172624 0.102623 12.0364)
(-0.0505919 -0.0881594 11.2909)
(-0.0356857 -0.0926351 11.2827)
(-0.0194518 -0.0938214 11.2751)
(-0.00224283 -0.0944926 11.2681)
(0.0148076 -0.0949038 11.2612)
(0.031489 -0.0951973 11.2543)
(0.0477792 -0.0958017 11.248)
(0.0636182 -0.0960553 11.2422)
(0.0792231 -0.0961156 11.2372)
(0.0945433 -0.0964317 11.2323)
(0.109654 -0.0961509 11.2276)
(0.12424 -0.0958497 11.2225)
(0.138301 -0.0934049 11.22)
(0.150548 -0.0923404 11.2152)
(-0.0529543 -0.0776219 11.2851)
(-0.0353692 -0.0784896 11.2763)
(-0.0178548 -0.0804033 11.2698)
(-0.000665297 -0.0807874 11.2629)
(0.0162718 -0.0806696 11.2565)
(0.0327637 -0.0804566 11.25)
(0.0490125 -0.0805697 11.2439)
(0.0647758 -0.0806065 11.238)
(0.0802274 -0.0806967 11.2326)
(0.0952004 -0.0812617 11.2274)
(0.110053 -0.0810384 11.2227)
(0.124487 -0.0806486 11.2175)
(0.138796 -0.0777781 11.2147)
(0.152517 -0.0787106 11.2105)
(-0.0542519 -0.0641044 11.2815)
(-0.0375449 -0.0635089 11.273)
(-0.0196203 -0.0652975 11.2671)
(-0.00242815 -0.0656092 11.2597)
(0.014884 -0.0654741 11.253)
(0.0318424 -0.0652805 11.246)
(0.0486413 -0.0653303 11.2396)
(0.0650879 -0.0652552 11.2337)
(0.0812297 -0.0651742 11.2287)
(0.0968276 -0.0655826 11.2241)
(0.112157 -0.065312 11.2196)
(0.126899 -0.0649056 11.2146)
(0.141392 -0.0624269 11.2108)
(0.154908 -0.0635879 11.2079)
(-0.0545698 -0.0493456 11.2782)
(-0.0377169 -0.0484945 11.27)
(-0.019731 -0.0502204 11.2637)
(-0.00258807 -0.0504486 11.2558)
(0.0147748 -0.0502842 11.2489)
(0.0318118 -0.0500431 11.242)
(0.0487019 -0.0499746 11.2356)
(0.0652789 -0.0498684 11.2297)
(0.0815714 -0.049756 11.2247)
(0.0973235 -0.0500432 11.2201)
(0.112852 -0.0496475 11.2158)
(0.127668 -0.0491369 11.2114)
(0.142192 -0.0468387 11.2077)
(0.155858 -0.0475059 11.2053)
(-0.054616 -0.0340973 11.2748)
(-0.0375059 -0.0333513 11.267)
(-0.0196293 -0.0346338 11.2605)
(-0.00257514 -0.0347082 11.2526)
(0.0147143 -0.0345444 11.2455)
(0.0317351 -0.0343359 11.2385)
(0.0486275 -0.0342451 11.232)
(0.0652722 -0.0341366 11.2262)
(0.0816257 -0.0339879 11.2213)
(0.0974621 -0.0341164 11.2169)
(0.113111 -0.0337091 11.2126)
(0.128028 -0.0332142 11.2088)
(0.142473 -0.031364 11.2049)
(0.156526 -0.031469 11.2026)
(-0.0542165 -0.0186707 11.2716)
(-0.0367517 -0.0180022 11.2643)
(-0.0191485 -0.0186786 11.2573)
(-0.00217433 -0.0186073 11.2494)
(0.0150057 -0.0184368 11.2423)
(0.0319555 -0.0182627 11.2354)
(0.0487752 -0.0181608 11.2289)
(0.0653723 -0.0180778 11.2232)
(0.0816883 -0.0179479 11.2184)
(0.0974977 -0.0179893 11.2139)
(0.113206 -0.0176619 11.2098)
(0.128085 -0.0172802 11.2061)
(0.142583 -0.0159846 11.2024)
(0.15689 -0.0157778 11.1997)
(-0.0538418 -0.00316403 11.2691)
(-0.0362194 -0.0024188 11.2622)
(-0.0188722 -0.00238351 11.2548)
(-0.00192512 -0.00218878 11.247)
(0.0151973 -0.00200268 11.2399)
(0.0321325 -0.00187335 11.233)
(0.0489421 -0.00178332 11.2265)
(0.0655349 -0.0017423 11.2208)
(0.0818444 -0.00165723 11.216)
(0.0976424 -0.00164811 11.2116)
(0.113431 -0.00144968 11.2076)
(0.128304 -0.00128406 11.2039)
(0.142977 -0.000679371 11.2006)
(0.157511 -0.000497896 11.1974)
(-0.0531851 0.0124499 11.2673)
(-0.0356584 0.0133529 11.2604)
(-0.0185137 0.0140871 11.2529)
(-0.00166269 0.0143801 11.2451)
(0.0153496 0.0145928 11.2379)
(0.0322112 0.0146745 11.2311)
(0.0489626 0.0147315 11.2246)
(0.0655109 0.0147065 11.219)
(0.0817874 0.0147133 11.2142)
(0.0975603 0.0147335 11.2098)
(0.113401 0.0147733 11.2059)
(0.128305 0.014653 11.2023)
(0.143095 0.0144518 11.1991)
(0.157838 0.0144731 11.1961)
(-0.052237 0.0280423 11.2658)
(-0.0351401 0.0291915 11.2585)
(-0.0181179 0.0306349 11.2514)
(-0.00144724 0.0310972 11.2436)
(0.0154506 0.0313722 11.2366)
(0.0322298 0.031428 11.2298)
(0.0489334 0.0314448 11.2234)
(0.0654478 0.0313405 11.2177)
(0.0816999 0.0312445 11.2129)
(0.0974628 0.0312566 11.2086)
(0.113315 0.0311111 11.2046)
(0.128271 0.0306968 11.2011)
(0.143012 0.0296669 11.1974)
(0.157835 0.029519 11.1951)
(-0.0515231 0.0446966 11.2647)
(-0.0349804 0.0456688 11.2574)
(-0.018075 0.0475452 11.2506)
(-0.00153658 0.0479942 11.2429)
(0.0153288 0.0481479 11.236)
(0.0320816 0.048063 11.2292)
(0.048779 0.0479551 11.2227)
(0.0653042 0.0477295 11.2171)
(0.0815786 0.0475046 11.2122)
(0.0974112 0.0475047 11.2079)
(0.113314 0.0471556 11.2037)
(0.128389 0.0464628 11.2002)
(0.143052 0.0445912 11.1962)
(0.157787 0.044624 11.1949)
(-0.0504013 0.0610126 11.2643)
(-0.0343057 0.0617818 11.2569)
(-0.0175897 0.063981 11.2502)
(-0.00125453 0.0644066 11.2424)
(0.015458 0.0644184 11.2355)
(0.0320511 0.0642093 11.2287)
(0.0486093 0.0639774 11.2223)
(0.0650252 0.063627 11.2167)
(0.0812488 0.0632626 11.2118)
(0.0970954 0.0632191 11.2073)
(0.113029 0.0626865 11.2031)
(0.128163 0.0617969 11.1991)
(0.142832 0.0593512 11.1952)
(0.157373 0.059744 11.1943)
(-0.0491223 0.0774663 11.2636)
(-0.0333741 0.0780362 11.256)
(-0.0169011 0.080428 11.2496)
(-0.000801945 0.0807898 11.2423)
(0.015593 0.0806109 11.2358)
(0.0318919 0.0802431 11.2291)
(0.0481564 0.0798477 11.2225)
(0.0643611 0.0793354 11.2168)
(0.0804138 0.078795 11.212)
(0.0962267 0.0786399 11.2075)
(0.112124 0.0779513 11.2031)
(0.127305 0.0769327 11.1985)
(0.142001 0.074067 11.1946)
(0.156671 0.0747518 11.1934)
(-0.0466453 0.0932092 11.2646)
(-0.0306923 0.094191 11.2567)
(-0.0147403 0.0968542 11.2495)
(0.00118566 0.0972397 11.2424)
(0.017025 0.096979 11.2358)
(0.0326185 0.0964594 11.2293)
(0.0480747 0.0958565 11.2229)
(0.0634478 0.0951343 11.217)
(0.0786834 0.0943374 11.2115)
(0.09386 0.0938658 11.2065)
(0.109241 0.0929433 11.2023)
(0.124139 0.0917266 11.1977)
(0.138756 0.0883981 11.1947)
(0.153676 0.0886289 11.1927)
(-0.0420207 0.107977 11.2658)
(-0.0303809 0.110966 11.2574)
(-0.0161127 0.112605 11.2507)
(-0.000775122 0.112884 11.2436)
(0.0148168 0.112794 11.2364)
(0.0303352 0.112433 11.2295)
(0.0456856 0.111851 11.2229)
(0.061111 0.111035 11.2176)
(0.0765229 0.109962 11.2128)
(0.0921624 0.109051 11.2083)
(0.107924 0.107756 11.2038)
(0.123783 0.106405 11.1993)
(0.138749 0.102898 11.1964)
(0.153092 0.101529 11.1941)
(-0.0752333 -0.102387 10.4865)
(-0.06017 -0.104418 10.4811)
(-0.0434264 -0.106945 10.4774)
(-0.0256739 -0.107747 10.4736)
(-0.00776841 -0.108382 10.4696)
(0.01009 -0.108948 10.4657)
(0.0277233 -0.109535 10.4617)
(0.0451026 -0.10986 10.4585)
(0.0621247 -0.109877 10.4555)
(0.0788341 -0.109941 10.4528)
(0.095018 -0.109316 10.4498)
(0.110628 -0.108674 10.4464)
(0.125096 -0.105161 10.4446)
(0.138321 -0.105059 10.4427)
(-0.0763414 -0.0902005 10.4827)
(-0.0598326 -0.0900656 10.478)
(-0.0428168 -0.0928232 10.4743)
(-0.02538 -0.0934676 10.4705)
(-0.00762289 -0.0936875 10.4669)
(0.0103052 -0.0939144 10.4633)
(0.0282648 -0.0941265 10.4596)
(0.0460368 -0.0942553 10.4561)
(0.0633412 -0.0942602 10.4527)
(0.079987 -0.0945197 10.4494)
(0.0959177 -0.0940448 10.4464)
(0.110908 -0.0933481 10.4429)
(0.125248 -0.0898067 10.441)
(0.13912 -0.0904357 10.4394)
(-0.0788472 -0.0756786 10.4807)
(-0.0625681 -0.0751216 10.4761)
(-0.0450356 -0.077435 10.473)
(-0.0273471 -0.0779507 10.469)
(-0.00912334 -0.0780495 10.4653)
(0.00933688 -0.0782008 10.4615)
(0.0278386 -0.0782601 10.4573)
(0.0462847 -0.0782452 10.454)
(0.0643378 -0.0781112 10.451)
(0.0817523 -0.0782819 10.4482)
(0.0983056 -0.0777974 10.4452)
(0.113893 -0.0771647 10.442)
(0.128572 -0.0741603 10.439)
(0.142477 -0.0744883 10.4383)
(-0.0790011 -0.0599028 10.4792)
(-0.0626859 -0.0596418 10.4747)
(-0.0452285 -0.0615086 10.4715)
(-0.0276671 -0.0618425 10.467)
(-0.00942404 -0.0618103 10.4632)
(0.0091456 -0.0618358 10.4594)
(0.0278146 -0.06174 10.4554)
(0.0464837 -0.0616685 10.4521)
(0.0647806 -0.0615034 10.449)
(0.0824184 -0.0615835 10.4461)
(0.0991626 -0.0610555 10.4432)
(0.114934 -0.0603733 10.4405)
(0.129691 -0.0578015 10.4375)
(0.143631 -0.0572838 10.4369)
(-0.0789944 -0.0435558 10.4775)
(-0.0625459 -0.0435084 10.4732)
(-0.0452433 -0.0447296 10.47)
(-0.0277881 -0.0448476 10.4655)
(-0.00957781 -0.0447127 10.4616)
(0.00902603 -0.0446455 10.4578)
(0.0277444 -0.044478 10.4537)
(0.0465137 -0.0443798 10.4504)
(0.06492 -0.0441838 10.4474)
(0.0826955 -0.044148 10.4446)
(0.099565 -0.0436306 10.4417)
(0.115569 -0.0429523 10.4393)
(0.130508 -0.0409269 10.4362)
(0.144816 -0.039876 10.4353)
(-0.0784627 -0.0268413 10.4758)
(-0.0618206 -0.0266905 10.4718)
(-0.0447317 -0.0272023 10.4683)
(-0.0273759 -0.0271066 10.4639)
(-0.00927564 -0.0268827 10.46)
(0.0092488 -0.0267346 10.4563)
(0.0279109 -0.0265364 10.4522)
(0.046656 -0.0264429 10.4489)
(0.0650629 -0.0262543 10.4459)
(0.0828629 -0.0261487 10.4431)
(0.0997809 -0.0257011 10.4403)
(0.115865 -0.0251114 10.4378)
(0.130991 -0.0236766 10.435)
(0.145557 -0.0225757 10.4334)
(-0.0779976 -0.00975921 10.4745)
(-0.0613275 -0.00924984 10.4709)
(-0.0444041 -0.00907462 10.4671)
(-0.0270711 -0.00879962 10.4627)
(-0.00902184 -0.00851457 10.4588)