/*--------------------------------*- C++ -*----------------------------------*\
| =========                 |                                                 |
| \\      /  F ield         | OpenFOAM: The Open Source CFD Toolbox           |
|  \\    /   O peration     | Version:  v2106                                 |
|   \\  /    A nd           | Website:  www.openfoam.com                      |
|    \\/     M anipulation  |                                                 |
\*---------------------------------------------------------------------------*/
FoamFile
{
    version     2.0;
    format      ascii;
    arch        "LSB;label=32;scalar=64";
    class       surfaceScalarField;
    location    "0.000172";
    object      phi;
}
// * * * * * * * * * * * * * * * * * * * * * * * * * * * * * * * * * * * * * //

dimensions      [1 0 -1 0 0 0 0];

internalField   nonuniform List<scalar> 
51992
(
-8.16546e-06
9.17758e-06
-6.38565e-06
9.38123e-06
-1.04539e-05
-7.02477e-06
7.09468e-06
-6.27422e-06
-8.27922e-06
-6.0017e-06
5.08835e-06
-6.17819e-06
-6.13178e-06
-5.07323e-06
3.27938e-06
-6.18389e-06
-4.19988e-06
-4.5975e-06
1.98725e-06
-6.21573e-06
-2.43974e-06
-4.60186e-06
8.04808e-07
-6.33043e-06
-7.57003e-07
-4.99841e-06
-2.48148e-07
-6.45863e-06
7.12089e-07
-5.7961e-06
-1.15284e-06
-6.58957e-06
2.03e-06
-6.83546e-06
-1.92405e-06
-6.7514e-06
3.05166e-06
-7.97247e-06
-2.82663e-06
-6.90381e-06
4.06429e-06
-9.16367e-06
-3.91815e-06
-6.92505e-06
5.19914e-06
-1.02839e-05
-5.46133e-06
-6.68432e-06
6.62979e-06
-1.13206e-05
-7.19009e-06
-6.05999e-06
8.21547e-06
-9.03622e-06
-5.053e-06
-1.23788e-05
1.00133e-05
-6.26838e-06
7.79108e-06
-6.92949e-06
7.61566e-06
-4.94077e-06
5.74229e-06
-6.86432e-06
-3.96068e-06
4.09278e-06
-6.74589e-06
-3.29799e-06
2.62474e-06
-6.73371e-06
-2.95897e-06
1.67373e-06
-6.68829e-06
-3.02126e-06
9.08851e-07
-6.6834e-06
-3.43343e-06
2.17043e-07
-6.6868e-06
-4.13971e-06
-3.83217e-07
-6.73651e-06
-5.01453e-06
-9.69531e-07
-6.82888e-06
-6.0313e-06
-1.70592e-06
-6.94408e-06
-7.12672e-06
-2.71296e-06
-6.97684e-06
-8.2685e-06
-4.2372e-06
-6.72584e-06
-9.37451e-06
-6.08392e-06
-6.03932e-06
-8.30852e-06
-5.01326e-06
-1.01821e-05
-4.90288e-06
6.38298e-06
-7.03813e-06
6.26745e-06
-3.71373e-06
4.52145e-06
-7.03099e-06
-2.90326e-06
3.29012e-06
-6.96955e-06
-2.44772e-06
2.18049e-06
-6.91785e-06
-2.22452e-06
1.4718e-06
-6.83526e-06
-2.27232e-06
9.88847e-07
-6.78473e-06
-2.57087e-06
5.5523e-07
-6.77423e-06
-3.09948e-06
1.92705e-07
-6.7983e-06
-3.80709e-06
-1.94567e-07
-6.84343e-06
-4.66108e-06
-7.5337e-07
-6.91238e-06
-5.58578e-06
-1.67511e-06
-6.90256e-06
-6.5773e-06
-3.14029e-06
-6.62548e-06
-7.53412e-06
-5.07201e-06
-5.9368e-06
-7.52967e-06
-4.89649e-06
-8.32442e-06
-4.12373e-06
5.21038e-06
-6.99646e-06
5.27622e-06
-3.18324e-06
3.58772e-06
-7.01239e-06
-2.48988e-06
2.6192e-06
-6.94861e-06
-2.15491e-06
1.86807e-06
-6.90097e-06
-2.03183e-06
1.37799e-06
-6.83969e-06
-2.02582e-06
1.0208e-06
-6.80059e-06
-2.19741e-06
7.6659e-07
-6.78753e-06
-2.54498e-06
5.8184e-07
-6.80192e-06
-3.00988e-06
3.28209e-07
-6.84131e-06
-3.55716e-06
-1.17305e-07
-6.89061e-06
-4.15793e-06
-9.60111e-07
-6.86435e-06
-4.82857e-06
-2.34697e-06
-6.5959e-06
-5.49693e-06
-4.29547e-06
-5.9589e-06
-6.87795e-06
-4.99291e-06
-6.08033e-06
-3.74559e-06
4.29693e-06
-6.90341e-06
4.6873e-06
-3.03718e-06
2.9095e-06
-6.91321e-06
-2.48882e-06
2.10992e-06
-6.87897e-06
-2.1823e-06
1.60478e-06
-6.84843e-06
-2.03778e-06
1.28168e-06
-6.81532e-06
-2.02417e-06
1.05848e-06
-6.78958e-06
-2.12731e-06
9.21092e-07
-6.7734e-06
-2.31285e-06
8.1875e-07
-6.78064e-06
-2.5679e-06
6.46994e-07
-6.80968e-06
-2.86989e-06
2.75292e-07
-6.83711e-06
-3.19967e-06
-5.0113e-07
-6.77999e-06
-3.52702e-06
-1.86399e-06
-6.50766e-06
-3.75961e-06
-3.89668e-06
-5.93439e-06
-6.59066e-06
-5.12477e-06
-3.90587e-06
-3.54853e-06
3.72779e-06
-6.81071e-06
4.19329e-06
-3.01305e-06
2.44059e-06
-6.83304e-06
-2.59139e-06
1.75747e-06
-6.8254e-06
-2.32221e-06
1.40596e-06
-6.80456e-06
-2.17097e-06
1.19587e-06
-6.78009e-06
-2.13296e-06
1.08815e-06
-6.7672e-06
-2.1699e-06
1.02825e-06
-6.74974e-06
-2.23716e-06
9.62291e-07
-6.75063e-06
-2.32538e-06
8.19045e-07
-6.77135e-06
-2.39064e-06
4.54207e-07
-6.79236e-06
-2.40034e-06
-3.42278e-07
-6.72469e-06
-2.33087e-06
-1.75054e-06
-6.4804e-06
-2.12337e-06
-3.89539e-06
-6.01748e-06
-6.71603e-06
-5.40104e-06
-1.78771e-06
-3.24422e-06
3.50538e-06
-6.70896e-06
3.58751e-06
-2.90237e-06
2.20227e-06
-6.7813e-06
-2.62618e-06
1.57584e-06
-6.7984e-06
-2.42317e-06
1.29268e-06
-6.77737e-06
-2.29827e-06
1.15413e-06
-6.75508e-06
-2.24736e-06
1.12474e-06
-6.73898e-06
-2.22516e-06
1.1036e-06
-6.72694e-06
-2.20811e-06
1.05559e-06
-6.72793e-06
-2.15118e-06
8.80209e-07
-6.74356e-06
-2.01277e-06
4.53459e-07
-6.74004e-06
-1.7238e-06
-4.62848e-07
-6.66251e-06
-1.26102e-06
-2.00197e-06
-6.45153e-06
-6.27428e-07
-4.28293e-06
-6.10087e-06
-7.14154e-06
-5.68399e-06
4.75967e-08
-2.69667e-06
3.66672e-06
-6.6e-06
2.6865e-06
-2.58573e-06
2.22183e-06
-6.74293e-06
-2.46938e-06
1.57996e-06
-6.77889e-06
-2.36563e-06
1.30671e-06
-6.75499e-06
-2.30504e-06
1.2075e-06
-6.73359e-06
-2.2716e-06
1.21334e-06
-6.71851e-06
-2.21436e-06
1.18245e-06
-6.70975e-06
-2.13265e-06
1.12103e-06
-6.70998e-06
-1.96078e-06
8.6696e-07
-6.7245e-06
-1.63935e-06
3.0845e-07
-6.70746e-06
-1.09815e-06
-8.02579e-07
-6.63634e-06
-3.22988e-07
-2.53846e-06
-6.47408e-06
6.33372e-07
-4.97137e-06
-6.24132e-06
-7.85823e-06
-5.97587e-06
1.62408e-06
-1.86421e-06
4.21233e-06
-6.46466e-06
1.50302e-06
-2.04688e-06
2.56072e-06
-6.70974e-06
-2.1222e-06
1.80273e-06
-6.77644e-06
-2.13062e-06
1.46288e-06
-6.74723e-06
-2.12447e-06
1.35185e-06
-6.71899e-06
-2.12397e-06
1.37167e-06
-6.70415e-06
-2.06248e-06
1.29689e-06
-6.69879e-06
-1.93137e-06
1.17662e-06
-6.7021e-06
-1.65731e-06
7.85462e-07
-6.72123e-06
-1.16367e-06
2.23178e-08
-6.69977e-06
-4.14971e-07
-1.31752e-06
-6.64452e-06
5.93735e-07
-3.28001e-06
-6.53262e-06
1.74519e-06
-5.83635e-06
-6.40426e-06
-8.73125e-06
-6.22141e-06
2.89637e-06
-5.05679e-07
5.20568e-06
-6.29093e-06
-2.6577e-07
-1.04856e-06
3.29004e-06
-6.67228e-06
-1.3918e-06
2.31547e-06
-6.7825e-06
-1.56306e-06
1.81377e-06
-6.75838e-06
-1.66098e-06
1.6374e-06
-6.71334e-06
-1.71711e-06
1.62128e-06
-6.69318e-06
-1.67398e-06
1.46193e-06
-6.69226e-06
-1.49462e-06
1.20891e-06
-6.68944e-06
-1.10816e-06
6.19518e-07
-6.71672e-06
-4.38392e-07
-4.03892e-07
-6.70292e-06
5.28425e-07
-2.01529e-06
-6.66823e-06
1.72984e-06
-4.18435e-06
-6.58186e-06
3.01056e-06
-6.82647e-06
-6.50376e-06
-9.76301e-06
-6.30077e-06
4.30866e-06
1.30695e-06
6.4837e-06
-6.00876e-06
-2.33088e-06
4.99378e-07
4.31535e-06
-6.591e-06
-1.18071e-07
3.12439e-06
-6.79734e-06
-5.27258e-07
2.42363e-06
-6.77403e-06
-7.95783e-07
2.12076e-06
-6.69817e-06
-9.37252e-07
1.99313e-06
-6.65682e-06
-9.09259e-07
1.68203e-06
-6.6565e-06
-6.54935e-07
1.21319e-06
-6.6513e-06
-1.30913e-07
3.66618e-07
-6.66342e-06
6.9837e-07
-9.35939e-07
-6.62324e-06
1.79882e-06
-2.80702e-06
-6.57507e-06
3.09598e-06
-5.15517e-06
-6.41803e-06
4.41707e-06
-7.83904e-06
-6.29401e-06
-1.07696e-05
-6.03244e-06
5.70666e-06
3.95887e-06
7.91314e-06
-5.6709e-06
-5.11683e-06
2.86555e-06
5.65998e-06
-6.42629e-06
1.89576e-06
4.31563e-06
-6.76581e-06
1.16439e-06
3.38308e-06
-6.77927e-06
6.46857e-07
2.88253e-06
-6.67598e-06
3.66066e-07
2.54308e-06
-6.58136e-06
3.52354e-07
2.00176e-06
-6.53436e-06
6.60767e-07
1.23463e-06
-6.48353e-06
1.29084e-06
8.47471e-08
-6.41869e-06
2.25066e-06
-1.5231e-06
-6.29209e-06
3.4242e-06
-3.59752e-06
-6.14314e-06
4.74918e-06
-6.09193e-06
-5.83781e-06
6.06447e-06
-8.80735e-06
-5.58844e-06
-1.16326e-05
-5.28036e-06
7.25041e-06
6.88202e-06
9.29507e-06
-5.17981e-06
-8.01004e-06
5.65707e-06
7.13432e-06
-6.15497e-06
4.42844e-06
5.78206e-06
-6.68975e-06
3.4663e-06
4.59622e-06
-6.79239e-06
2.78243e-06
3.83137e-06
-6.66379e-06
2.38944e-06
3.23386e-06
-6.47425e-06
2.29148e-06
2.45016e-06
-6.30497e-06
2.5707e-06
1.34933e-06
-6.12941e-06
3.18298e-06
-1.01629e-07
-5.91637e-06
4.12905e-06
-2.03249e-06
-5.61896e-06
5.22852e-06
-4.26632e-06
-5.28283e-06
6.45455e-06
-6.90636e-06
-4.82269e-06
7.63884e-06
-9.63971e-06
-4.45949e-06
-1.2375e-05
-4.16148e-06
8.70119e-06
1.00188e-05
-5.03942e-06
1.06357e-05
-1.11064e-05
8.80511e-06
-6.02628e-06
8.59811e-06
7.56932e-06
-6.63787e-06
7.24889e-06
6.48114e-06
-6.78418e-06
5.9251e-06
5.66012e-06
-6.64191e-06
4.91167e-06
5.17292e-06
-6.36159e-06
4.0253e-06
4.99759e-06
-6.04062e-06
2.99226e-06
5.25042e-06
-5.69517e-06
1.51889e-06
5.82638e-06
-5.28248e-06
-2.21842e-07
6.74463e-06
-4.78603e-06
-2.50182e-06
7.73688e-06
-4.25014e-06
-4.83406e-06
8.80021e-06
-3.69303e-06
-7.59207e-06
9.84969e-06
-3.28584e-06
-1.03692e-05
-3.05218e-06
1.08722e-05
-1.31243e-05
-7.97302e-06
9.21836e-06
-6.29607e-06
9.34417e-06
-1.07298e-05
-6.7289e-06
7.05805e-06
-6.20783e-06
-8.42462e-06
-5.6769e-06
5.01815e-06
-6.2269e-06
-6.0788e-06
-4.8249e-06
3.24789e-06
-6.29141e-06
-4.05961e-06
-4.40634e-06
1.93723e-06
-6.39537e-06
-2.25302e-06
-4.48548e-06
7.63111e-07
-6.53711e-06
-5.55614e-07
-4.9427e-06
-2.82685e-07
-6.70078e-06
9.06358e-07
-5.79564e-06
-1.18226e-06
-6.84077e-06
2.2182e-06
-6.92734e-06
-1.91538e-06
-6.97995e-06
3.21245e-06
-8.20485e-06
-2.78398e-06
-7.10038e-06
4.19947e-06
-9.56828e-06
-3.79309e-06
-7.13965e-06
5.29912e-06
-1.08823e-05
-5.37787e-06
-6.91652e-06
6.8306e-06
-1.20022e-05
-7.35582e-06
-6.30326e-06
8.61642e-06
-9.48644e-06
-5.23258e-06
-1.29648e-05
1.05479e-05
-5.99932e-06
7.601e-06
-6.87314e-06
7.48413e-06
-4.60605e-06
5.58496e-06
-6.84887e-06
-3.64652e-06
4.03375e-06
-6.79301e-06
-3.05614e-06
2.62388e-06
-6.77924e-06
-2.80979e-06
1.65849e-06
-6.74277e-06
-2.96462e-06
8.90782e-07
-6.74323e-06
-3.44991e-06
2.16967e-07
-6.78659e-06
-4.21606e-06
-3.63865e-07
-6.86551e-06
-5.13815e-06
-9.08491e-07
-6.98654e-06
-6.23211e-06
-1.58811e-06
-7.11238e-06
-7.4194e-06
-2.48092e-06
-7.17095e-06
-8.66121e-06
-3.98769e-06
-6.95798e-06
-9.82967e-06
-6.00566e-06
-6.31426e-06
-8.56152e-06
-5.23398e-06
-1.06277e-05
-4.64767e-06
6.10797e-06
-7.06362e-06
6.09584e-06
-3.45397e-06
4.34289e-06
-7.05627e-06
-2.68605e-06
3.18242e-06
-6.97565e-06
-2.29779e-06
2.14111e-06
-6.91447e-06
-2.16261e-06
1.44997e-06
-6.85252e-06
-2.28677e-06
9.71583e-07
-6.8301e-06
-2.64776e-06
5.47431e-07
-6.83571e-06
-3.23786e-06
2.08338e-07
-6.86981e-06
-4.0001e-06
-1.27162e-07
-6.94706e-06
-4.91245e-06
-6.10358e-07
-7.05223e-06
-5.8773e-06
-1.39882e-06
-7.09225e-06
-6.85931e-06
-2.82052e-06
-6.88831e-06
-7.72937e-06
-4.88772e-06
-6.27106e-06
-7.64493e-06
-5.25159e-06
-8.38029e-06
-3.93423e-06
4.88283e-06
-7.04049e-06
5.12283e-06
-3.02063e-06
3.36316e-06
-7.03133e-06
-2.37915e-06
2.47242e-06
-6.9639e-06
-2.09626e-06
1.7876e-06
-6.91529e-06
-2.0428e-06
1.33757e-06
-6.86522e-06
-2.10467e-06
9.85421e-07
-6.84058e-06
-2.33166e-06
7.36466e-07
-6.84026e-06
-2.73066e-06
5.70516e-07
-6.86103e-06
-3.24858e-06
3.64345e-07
-6.90865e-06
-3.85246e-06
9.21432e-09
-6.99016e-06
-4.46963e-06
-7.0308e-07
-7.02103e-06
-5.07886e-06
-2.0251e-06
-6.85679e-06
-5.5876e-06
-4.06825e-06
-6.34634e-06
-6.89231e-06
-5.46413e-06
-5.94741e-06
-3.63884e-06
3.87443e-06
-6.94623e-06
4.6095e-06
-2.96033e-06
2.63295e-06
-6.94302e-06
-2.4616e-06
1.92035e-06
-6.90609e-06
-2.20116e-06
1.47412e-06
-6.87471e-06
-2.10385e-06
1.1897e-06
-6.84354e-06
-2.14175e-06
9.86955e-07
-6.83218e-06
-2.29062e-06
8.47939e-07
-6.8235e-06
-2.52528e-06
7.66174e-07
-6.83543e-06
-2.83095e-06
6.35737e-07
-6.86961e-06
-3.18183e-06
3.57296e-07
-6.92248e-06
-3.50332e-06
-3.03842e-07
-6.93735e-06
-3.73522e-06
-1.56863e-06
-6.80581e-06
-3.78042e-06
-3.6214e-06
-6.40711e-06
-6.46166e-06
-5.72895e-06
-3.67943e-06
-3.49274e-06
3.14315e-06
-6.88041e-06
4.22605e-06
-2.98087e-06
2.09395e-06
-6.87608e-06
-2.60795e-06
1.51825e-06
-6.86714e-06
-2.38404e-06
1.22284e-06
-6.84756e-06
-2.27417e-06
1.04676e-06
-6.81961e-06
-2.27387e-06
9.58347e-07
-6.81169e-06
-2.35313e-06
8.98439e-07
-6.80124e-06
-2.47113e-06
8.56933e-07
-6.8064e-06
-2.60856e-06
7.50713e-07
-6.83222e-06
-2.7142e-06
4.64105e-07
-6.87296e-06
-2.72548e-06
-2.14162e-07
-6.87724e-06
-2.55425e-06
-1.50718e-06
-6.78592e-06
-2.13209e-06
-3.61163e-06
-6.51859e-06
-6.49193e-06
-6.05883e-06
-1.51116e-06
-3.25694e-06
2.73636e-06
-6.83299e-06
3.73081e-06
-2.9004e-06
1.73452e-06
-6.84113e-06
-2.64375e-06
1.24923e-06
-6.84942e-06
-2.47809e-06
1.03873e-06
-6.82736e-06
-2.40358e-06
9.47017e-07
-6.80111e-06
-2.39737e-06
9.33119e-07
-6.78883e-06
-2.42244e-06
9.09263e-07
-6.78147e-06
-2.44897e-06
8.78009e-07
-6.78796e-06
-2.44974e-06
7.53782e-07
-6.81032e-06
-2.35955e-06
4.00422e-07
-6.83279e-06
-2.06815e-06
-3.88975e-07
-6.84439e-06
-1.51332e-06
-1.79805e-06
-6.78347e-06
-6.75634e-07
-3.9774e-06
-6.63729e-06
-6.85936e-06
-6.3767e-06
3.21019e-07
-2.80518e-06
2.67715e-06
-6.78493e-06
3.00226e-06
-2.65167e-06
1.60416e-06
-6.81102e-06
-2.53359e-06
1.13638e-06
-6.82895e-06
-2.45197e-06
9.6202e-07
-6.81027e-06
-2.42164e-06
9.23042e-07
-6.78857e-06
-2.42116e-06
9.39747e-07
-6.77472e-06
-2.42047e-06
9.2015e-07
-6.76821e-06
-2.39849e-06
8.70401e-07
-6.77372e-06
-2.29828e-06
6.77679e-07
-6.79526e-06
-2.0238e-06
1.93507e-07
-6.8261e-06
-1.48477e-06
-7.76304e-07
-6.8435e-06
-6.03949e-07
-2.37815e-06
-6.83464e-06
5.65487e-07
-4.6834e-06
-6.76219e-06
-7.58751e-06
-6.63026e-06
1.88934e-06
-2.12055e-06
3.02486e-06
-6.74482e-06
2.01313e-06
-2.19755e-06
1.75637e-06
-6.82388e-06
-2.25496e-06
1.20406e-06
-6.82575e-06
-2.28082e-06
1.00013e-06
-6.80049e-06
-2.30893e-06
9.68887e-07
-6.77571e-06
-2.33856e-06
9.95869e-07
-6.76494e-06
-2.34065e-06
9.60136e-07
-6.76234e-06
-2.2755e-06
8.46558e-07
-6.771e-06
-2.07444e-06
5.27819e-07
-6.80415e-06
-1.62796e-06
-1.47473e-07
-6.84529e-06
-8.69871e-07
-1.34181e-06
-6.88429e-06
2.55295e-07
-3.17936e-06
-6.91033e-06
1.63688e-06
-5.60973e-06
-6.91077e-06
-8.54528e-06
-6.82556e-06
3.1472e-06
-9.81654e-07
3.87469e-06
-6.68181e-06
4.93826e-07
-1.36163e-06
2.28213e-06
-6.84702e-06
-1.6492e-06
1.55794e-06
-6.87267e-06
-1.8386e-06
1.24431e-06
-6.82978e-06
-1.96862e-06
1.15779e-06
-6.78462e-06
-2.06236e-06
1.14856e-06
-6.76531e-06
-2.08358e-06
1.04754e-06
-6.76926e-06
-1.97466e-06
8.16454e-07
-6.78783e-06
-1.66553e-06
3.15914e-07
-6.8401e-06
-1.0479e-06
-6.06585e-07
-6.89415e-06
-8.73361e-08
-2.05785e-06
-6.9533e-06
1.2463e-06
-4.14413e-06
-6.99081e-06
2.78816e-06
-6.69649e-06
-7.00036e-06
-9.71142e-06
-6.8758e-06
4.48188e-06
6.56399e-07
5.16237e-06
-6.525e-06
-1.43659e-06
-6.12728e-09
3.18776e-06
-6.84879e-06
-5.79513e-07
2.25166e-06
-6.93661e-06
-1.00626e-06
1.76912e-06
-6.88898e-06
-1.30816e-06
1.5779e-06
-6.82593e-06
-1.4948e-06
1.46967e-06
-6.79378e-06
-1.54165e-06
1.23269e-06
-6.79776e-06
-1.38296e-06
8.18071e-07
-6.82534e-06
-9.55489e-07
8.37071e-08
-6.88011e-06
-1.66894e-07
-1.10795e-06
-6.93657e-06
9.59786e-07
-2.80662e-06
-6.98379e-06
2.44724e-06
-5.11336e-06
-6.96746e-06
4.07858e-06
-7.73668e-06
-6.91953e-06
-1.08127e-05
-6.69747e-06
5.80522e-06
3.17178e-06
6.75044e-06
-6.25732e-06
-4.16672e-06
2.15829e-06
4.53206e-06
-6.75457e-06
1.17444e-06
3.42195e-06
-6.95773e-06
3.96346e-07
2.70829e-06
-6.94504e-06
-1.69169e-07
2.3452e-06
-6.87991e-06
-4.93863e-07
2.05277e-06
-6.83853e-06
-5.69677e-07
1.60946e-06
-6.83025e-06
-3.49765e-07
9.52083e-07
-6.8412e-06
2.13172e-07
-4.61844e-08
-6.85963e-06
1.19116e-06
-1.51961e-06
-6.86996e-06
2.48694e-06
-3.42243e-06
-6.83539e-06
4.09794e-06
-5.90057e-06
-6.67431e-06
5.8058e-06
-8.5755e-06
-6.4711e-06
-1.16153e-05
-6.1725e-06
7.48304e-06
6.0427e-06
8.42799e-06
-5.8216e-06
-7.06015e-06
4.79687e-06
6.23472e-06
-6.59804e-06
3.4553e-06
5.03708e-06
-6.95792e-06
2.39006e-06
4.00016e-06
-7.01466e-06
1.59485e-06
3.41892e-06
-6.93886e-06
1.13048e-06
2.91207e-06
-6.86217e-06
9.88508e-07
2.27141e-06
-6.81243e-06
1.23099e-06
1.3547e-06
-6.76779e-06
1.87149e-06
1.01906e-07
-6.702e-06
2.95007e-06
-1.63819e-06
-6.57977e-06
4.32169e-06
-3.71705e-06
-6.36011e-06
5.92745e-06
-6.34936e-06
-5.98028e-06
7.47573e-06
-9.02585e-06
-5.55647e-06
-1.20476e-05
-5.21689e-06
8.96497e-06
9.26047e-06
-5.69559e-06
1.00822e-05
-1.02291e-05
7.93884e-06
-6.45658e-06
8.00649e-06
6.49301e-06
-6.89803e-06
6.75236e-06
5.19943e-06
-7.01279e-06
5.52865e-06
4.1403e-06
-6.95656e-06
4.79556e-06
3.51322e-06
-6.85882e-06
4.04028e-06
3.28971e-06
-6.75091e-06
3.21304e-06
3.5615e-06
-6.59215e-06
1.98441e-06
4.29506e-06
-6.357e-06
4.46491e-07
5.48058e-06
-6.00459e-06
-1.60224e-06
6.87767e-06
-5.53594e-06
-3.82157e-06
8.39302e-06
-4.94222e-06
-6.60705e-06
9.82852e-06
-4.33549e-06
-9.40084e-06
-4.02149e-06
1.11722e-05
-1.24141e-05
-6.37971e-06
1.0232e-05
7.98903e-06
-1.20404e-05
-6.20347e-06
-4.9522e-06
8.04223e-06
-9.68154e-06
-6.10778e-06
-3.86725e-06
5.92543e-06
-7.17566e-06
-6.17571e-06
-3.17912e-06
4.08857e-06
-4.94615e-06
-6.2372e-06
-3.00479e-06
2.68721e-06
-3.00841e-06
-6.3715e-06
-3.44282e-06
1.53904e-06
-1.27667e-06
-6.48443e-06
-4.31833e-06
5.74757e-07
1.18538e-07
-6.63617e-06
-5.6384e-06
-2.27711e-07
1.37476e-06
-6.77308e-06
-7.27715e-06
-8.09492e-07
2.24951e-06
-6.87735e-06
-9.12844e-06
-1.43103e-06
3.05599e-06
-6.9614e-06
-1.10943e-05
-2.09659e-06
3.8254e-06
-6.98949e-06
-1.29983e-05
-3.29034e-06
5.05051e-06
-6.86438e-06
-1.45335e-05
-5.19408e-06
6.88824e-06
-6.55539e-06
-7.50701e-06
-1.55623e-05
9.14671e-06
-5.91206e-06
-4.31416e-06
8.19078e-06
5.90599e-06
-6.53443e-06
-2.9355e-06
6.18866e-06
-6.48259e-06
-2.14266e-06
4.67948e-06
-6.4582e-06
-1.86275e-06
3.37079e-06
-6.46487e-06
-1.95637e-06
2.41304e-06
-6.49991e-06
-2.46498e-06
1.71871e-06
-6.53783e-06
-3.26189e-06
1.08608e-06
-6.62553e-06
-4.32323e-06
5.71167e-07
-6.71158e-06
-5.58462e-06
1.88154e-07
-6.82145e-06
-7.11421e-06
-1.86543e-07
-6.91443e-06
-8.86141e-06
-6.41545e-07
-6.96489e-06
-1.06684e-05
-1.67909e-06
-6.85219e-06
-1.21813e-05
-3.53899e-06
-6.53547e-06
-6.17793e-06
-1.29886e-05
-5.82483e-06
-3.14274e-06
6.23838e-06
4.56348e-06
-6.63044e-06
-2.10178e-06
4.59853e-06
-6.61268e-06
-1.52956e-06
3.6e-06
-6.58367e-06
-1.46686e-06
2.81148e-06
-6.5405e-06
-1.73511e-06
2.23036e-06
-6.52561e-06
-2.17083e-06
1.74005e-06
-6.54123e-06
-2.78702e-06
1.33419e-06
-6.58824e-06
-3.60819e-06
1.05798e-06
-6.64865e-06
-4.62676e-06
8.9134e-07
-6.73545e-06
-5.87864e-06
7.42803e-07
-6.82255e-06
-7.30586e-06
4.83013e-07
-6.87642e-06
-8.74438e-06
-4.20842e-07
-6.79231e-06
-9.90806e-06
-2.19534e-06
-6.52335e-06
-4.9608e-06
-1.05183e-05
-5.92542e-06
-2.73288e-06
4.63859e-06
3.84568e-06
-6.64544e-06
-2.02492e-06
3.38056e-06
-6.62072e-06
-1.64547e-06
2.73255e-06
-6.58155e-06
-1.61331e-06
2.28151e-06
-6.53027e-06
-1.81718e-06
1.96022e-06
-6.50738e-06
-2.21268e-06
1.69942e-06
-6.51903e-06
-2.70443e-06
1.41889e-06
-6.54923e-06
-3.2999e-06
1.27387e-06
-6.59097e-06
-4.01172e-06
1.25015e-06
-6.65885e-06
-4.87854e-06
1.25999e-06
-6.73575e-06
-5.84305e-06
1.12854e-06
-6.79085e-06
-6.81863e-06
3.63951e-07
-6.74944e-06
-7.6008e-06
-1.25408e-06
-6.57621e-06
-3.96982e-06
-8.021e-06
-6.10501e-06
-2.76941e-06
3.30842e-06
3.66979e-06
-6.60412e-06
-2.27057e-06
2.41364e-06
-6.57226e-06
-2.02395e-06
2.00169e-06
-6.52451e-06
-2.00142e-06
1.76662e-06
-6.48924e-06
-2.13642e-06
1.61867e-06
-6.47689e-06
-2.41072e-06
1.52192e-06
-6.48947e-06
-2.79616e-06
1.38371e-06
-6.50879e-06
-3.2419e-06
1.32409e-06
-6.54315e-06
-3.72232e-06
1.35966e-06
-6.59994e-06
-4.26181e-06
1.45493e-06
-6.67595e-06
-4.78767e-06
1.35795e-06
-6.73416e-06
-5.30922e-06
7.24914e-07
-6.73152e-06
-5.64402e-06
-7.66534e-07
-6.63722e-06
-3.37674e-06
-5.7239e-06
-6.31767e-06
-2.94279e-06
2.18177e-06
3.68508e-06
-6.57757e-06
-2.56727e-06
1.58634e-06
-6.52111e-06
-2.40273e-06
1.34873e-06
-6.47932e-06
-2.39527e-06
1.25999e-06
-6.44986e-06
-2.48532e-06
1.22909e-06
-6.44385e-06
-2.67203e-06
1.2459e-06
-6.4497e-06
-2.9428e-06
1.2293e-06
-6.47155e-06
-3.25945e-06
1.25622e-06
-6.51304e-06
-3.56481e-06
1.31903e-06
-6.57581e-06
-3.82409e-06
1.39258e-06
-6.64355e-06
-3.99891e-06
1.25416e-06
-6.69436e-06
-4.08014e-06
6.49642e-07
-6.72087e-06
-3.92988e-06
-8.26917e-07
-6.69458e-06
-3.38841e-06
-3.53961e-06
-6.51629e-06
-3.01511e-06
1.34725e-06
3.50803e-06
-6.56659e-06
-2.73413e-06
8.97907e-07
-6.52287e-06
-2.63249e-06
7.70593e-07
-6.47013e-06
-2.63461e-06
7.79114e-07
-6.43736e-06
-2.7168e-06
8.45741e-07
-6.4261e-06
-2.87424e-06
9.56933e-07
-6.43152e-06
-3.08229e-06
1.02629e-06
-6.45638e-06
-3.28744e-06
1.09326e-06
-6.50429e-06
-3.45604e-06
1.16067e-06
-6.56839e-06
-3.51025e-06
1.15482e-06
-6.62903e-06
-3.42218e-06
9.19457e-07
-6.6877e-06
-3.10406e-06
1.93972e-07
-6.73629e-06
-2.53074e-06
-1.36565e-06
-6.7575e-06
-3.93324e-06
-1.7366e-06
-6.7025e-06
-2.81567e-06
8.33467e-07
3.00893e-06
-6.53858e-06
-2.68435e-06
3.87871e-07
-6.51368e-06
-2.64031e-06
2.89796e-07
-6.47779e-06
-2.65936e-06
3.55594e-07
-6.44823e-06
-2.77765e-06
5.32885e-07
-6.43132e-06
-2.96383e-06
7.29716e-07
-6.43265e-06
-3.16063e-06
8.47295e-07
-6.46042e-06
-3.31217e-06
9.12113e-07
-6.50731e-06
-3.37862e-06
9.3375e-07
-6.56783e-06
-3.31682e-06
8.26929e-07
-6.63122e-06
-3.01558e-06
3.89604e-07
-6.69183e-06
-2.37169e-06
-5.95321e-07
-6.76854e-06
-1.3828e-06
-2.3591e-06
-6.83372e-06
-5.02999e-06
-1.29575e-07
-6.85259e-06
-2.31694e-06
6.29107e-07
2.22027e-06
-6.50523e-06
-2.38045e-06
7.41052e-08
-6.50918e-06
-2.45031e-06
-2.15272e-08
-6.50348e-06
-2.56589e-06
1.09373e-07
-6.48837e-06
-2.74714e-06
3.60954e-07
-6.46914e-06
-2.97488e-06
6.11913e-07
-6.4682e-06
-3.18313e-06
7.44587e-07
-6.49658e-06
-3.31674e-06
7.65355e-07
-6.53563e-06
-3.33754e-06
6.90913e-07
-6.58798e-06
-3.17032e-06
4.10149e-07
-6.65104e-06
-2.68178e-06
-3.1781e-07
-6.72942e-06
-1.77962e-06
-1.65754e-06
-6.81838e-06
-5.06526e-07
-3.69353e-06
-6.91603e-06
-6.58627e-06
1.1281e-06
-6.96285e-06
-1.44586e-06
8.89778e-07
9.40183e-07
-6.48833e-06
-1.77435e-06
2.61796e-08
-6.51804e-06
-2.05165e-06
-1.25358e-07
-6.53112e-06
-2.33005e-06
5.26349e-08
-6.52283e-06
-2.61075e-06
3.47428e-07
-6.51397e-06
-2.89841e-06
6.28641e-07
-6.51598e-06
-3.16314e-06
7.61032e-07
-6.54379e-06
-3.32938e-06
6.92967e-07
-6.57489e-06
-3.33493e-06
4.50149e-07
-6.62541e-06
-3.0664e-06
-9.85775e-08
-6.69469e-06
-2.4235e-06
-1.18397e-06
-6.7781e-06
-1.2766e-06
-2.97459e-06
-6.87183e-06
2.80756e-07
-5.34137e-06
-6.96293e-06
-8.49461e-06
2.24681e-06
-6.97984e-06
1.44834e-08
1.68264e-06
-9.31516e-07
-6.43295e-06
-6.90715e-07
3.74166e-07
-6.52369e-06
-1.33099e-06
1.11848e-07
-6.56076e-06
-1.89778e-06
2.69711e-07
-6.55604e-06
-2.37132e-06
5.48471e-07
-6.55962e-06
-2.77157e-06
8.07684e-07
-6.57262e-06
-3.07656e-06
8.65346e-07
-6.60379e-06
-3.24747e-06
6.63786e-07
-6.63507e-06
-3.20714e-06
1.94523e-07
-6.68582e-06
-2.81905e-06
-6.93339e-07
-6.75974e-06
-2.01678e-06
-2.17232e-06
-6.8349e-06
-6.60111e-07
-4.43753e-06
-6.89986e-06
1.09182e-06
-7.09073e-06
-6.96185e-06
-1.0421e-05
3.18983e-06
-6.90636e-06
2.36049e-06
3.06431e-06
-3.69023e-06
-6.31746e-06
1.11968e-06
1.3266e-06
-6.47389e-06
-8.86916e-08
9.24496e-07
-6.56794e-06
-1.08481e-06
9.19962e-07
-6.5961e-06
-1.84283e-06
1.05565e-06
-6.61862e-06
-2.40145e-06
1.18474e-06
-6.64601e-06
-2.76174e-06
1.08618e-06
-6.68021e-06
-2.90628e-06
6.71733e-07
-6.70305e-06
-2.74922e-06
-8.57226e-08
-6.74926e-06
-2.16848e-06
-1.36012e-06
-6.80549e-06
-1.152e-06
-3.20645e-06
-6.84384e-06
4.16814e-07
-5.88092e-06
-6.82639e-06
2.4336e-06
-8.80333e-06
-6.80119e-06
-1.20931e-05
4.58289e-06
-6.67793e-06
5.22438e-06
4.95624e-06
-6.79307e-06
-6.13276e-06
3.40462e-06
3.0302e-06
-6.47264e-06
1.61182e-06
2.37655e-06
-6.60764e-06
2.26662e-07
1.96083e-06
-6.6537e-06
-8.21981e-07
1.87183e-06
-6.68384e-06
-1.56508e-06
1.80744e-06
-6.71928e-06
-1.98478e-06
1.46572e-06
-6.75244e-06
-2.08203e-06
7.63631e-07
-6.7551e-06
-1.76214e-06
-3.41115e-07
-6.77043e-06
-9.54701e-07
-1.99463e-06
-6.76472e-06
2.75099e-07
-4.09644e-06
-6.71495e-06
1.92662e-06
-6.94802e-06
-6.58077e-06
3.88504e-06
-9.91007e-06
-6.42383e-06
-1.31179e-05
5.95482e-06
-6.27726e-06
8.35522e-06
7.05947e-06
-9.96937e-06
-6.16003e-06
6.34896e-06
5.02479e-06
-6.42352e-06
4.27326e-06
4.16737e-06
-6.59062e-06
2.49545e-06
3.42609e-06
-6.67498e-06
1.01502e-06
3.15451e-06
-6.73198e-06
1.48448e-08
2.75158e-06
-6.77606e-06
-4.65156e-07
2.01337e-06
-6.79411e-06
-4.79673e-07
9.57745e-07
-6.76117e-06
2.64197e-08
-4.87727e-07
-6.71494e-06
1.0973e-06
-2.46634e-06
-6.61166e-06
2.5914e-06
-4.7215e-06
-6.41383e-06
4.35853e-06
-7.54934e-06
-6.11879e-06
6.16241e-06
-1.03567e-05
-5.69748e-06
8.12082e-06
-1.35197e-05
-5.58245e-06
-1.13974e-05
-1.28069e-05
-2.58973e-06
1.17289e-05
-9.67556e-06
-1.48847e-05
-2.70045e-06
1.30182e-05
-7.52042e-06
-1.61321e-05
-2.56686e-06
1.37698e-05
-5.31426e-06
-1.74763e-05
-2.60271e-06
1.5037e-05
-3.45596e-06
-1.77557e-05
-2.28452e-06
1.55589e-05
-1.68108e-05
-1.24928e-06
1.29797e-05
-1.01172e-05
-1.29375e-05
-3.18106e-06
-9.03665e-06
-1.60534e-05
-2.95815e-06
-7.21588e-06
-1.81101e-05
-2.55862e-06
-5.25236e-06
-1.96548e-05
-2.46087e-06
-3.36781e-06
-2.00566e-05
-2.20378e-06
-2.04097e-05
-1.93762e-06
-8.57031e-06
-1.27056e-05
-3.62163e-06
-7.94567e-06
-1.6683e-05
-3.26832e-06
-6.28867e-06
-1.9804e-05
-2.79625e-06
-4.25289e-06
-2.18537e-05
-2.63525e-06
-2.26707e-06
-2.25441e-05
-2.57495e-06
-2.28695e-05
-2.76889e-06
-6.41003e-06
-1.23441e-05
-4.16586e-06
-5.95192e-06
-1.71365e-05
-3.73665e-06
-4.61063e-06
-2.11836e-05
-3.38302e-06
-2.98602e-06
-2.36184e-05
-3.33933e-06
-1.49929e-06
-2.42863e-05
-3.35442e-06
-2.47412e-05
-3.72476e-06
-3.9748e-06
-1.2189e-05
-4.94239e-06
-3.62136e-06
-1.74823e-05
-4.69695e-06
-2.66893e-06
-2.21837e-05
-4.5656e-06
-1.49161e-06
-2.49352e-05
-4.5746e-06
-6.14924e-07
-2.53593e-05
-4.57174e-06
-2.56812e-05
-4.93757e-06
-1.38495e-06
-1.24128e-05
-5.78564e-06
-1.13958e-06
-1.76679e-05
-5.8417e-06
-8.89806e-07
-2.24552e-05
-5.98206e-06
-3.69044e-07
-2.54977e-05
-6.05446e-06
7.12039e-07
-2.60241e-05
-5.93327e-06
-2.59202e-05
-6.08203e-06
7.69316e-07
-1.2875e-05
-6.6307e-06
9.63223e-07
-1.77146e-05
-6.97315e-06
7.43698e-07
-2.22061e-05
-7.25798e-06
5.37805e-07
-2.53898e-05
-7.37106e-06
4.34242e-07
-2.61259e-05
-7.2102e-06
-2.5902e-05
-6.53636e-06
2.57761e-06
-1.35293e-05
-7.2059e-06
2.78135e-06
-1.7717e-05
-7.68508e-06
2.36018e-06
-2.17014e-05
-7.99898e-06
1.68711e-06
-2.48202e-05
-8.07579e-06
1.15272e-06
-2.58429e-05
-7.92066e-06
-2.52613e-05
-6.83923e-06
3.85582e-06
-1.41789e-05
-7.39427e-06
4.0874e-06
-1.77207e-05
-7.88255e-06
3.62228e-06
-2.10991e-05
-8.19982e-06
2.69747e-06
-2.39469e-05
-8.23948e-06
1.76651e-06
-2.51236e-05
-8.00987e-06
-2.40216e-05
-6.47623e-06
5.19264e-06
-1.47962e-05
-6.99944e-06
5.38997e-06
-1.77066e-05
-7.39664e-06
4.85812e-06
-2.04073e-05
-7.59332e-06
3.71826e-06
-2.28032e-05
-7.57771e-06
2.35775e-06
-2.38945e-05
-7.33696e-06
-2.21707e-05
-5.64683e-06
6.24612e-06
-1.50772e-05
-5.97409e-06
6.19822e-06
-1.74293e-05
-6.19e-06
5.49972e-06
-1.95389e-05
-6.20236e-06
4.17118e-06
-2.14321e-05
-6.1563e-06
2.40181e-06
-2.22286e-05
-5.92594e-06
-2.0255e-05
-4.47167e-06
7.22182e-06
-1.4811e-05
-4.48578e-06
6.6307e-06
-1.66319e-05
-4.53556e-06
5.58137e-06
-1.83425e-05
-4.46422e-06
3.98898e-06
-1.97991e-05
-4.41874e-06
1.90384e-06
-2.02824e-05
-4.19308e-06
-1.88123e-05
-3.13147e-06
8.24405e-06
-1.4155e-05
-2.95292e-06
7.34971e-06
-1.5571e-05
-2.99643e-06
5.94737e-06
-1.68211e-05
-2.95808e-06
4.03985e-06
-1.78704e-05
-2.91488e-06
1.84242e-06
-1.82391e-05
-2.78781e-06
-1.73298e-05
-2.27949e-06
9.53305e-06
-1.78725e-06
-1.26917e-05
8.11707e-06
-1.88636e-06
-1.40439e-05
6.33326e-06
-1.8783e-06
-1.49729e-05
4.20445e-06
-1.8713e-06
-1.57653e-05
1.87756e-06
-1.89216e-06
-1.6049e-05
-1.85473e-06
-1.57245e-05
-1.19204e-05
-1.32942e-05
-2.60239e-06
1.22004e-05
-1.02568e-05
-1.5399e-05
-2.66607e-06
1.36275e-05
-8.09172e-06
-1.67996e-05
-2.4623e-06
1.44372e-05
-5.83656e-06
-1.84636e-05
-2.33882e-06
1.58487e-05
-3.72702e-06
-1.90016e-05
-2.04664e-06
1.65987e-05
-1.88971e-05
-1.03518e-06
1.49517e-05
-1.05658e-05
-1.33373e-05
-3.25362e-06
-9.58409e-06
-1.64541e-05
-2.93519e-06
-7.77119e-06
-1.87952e-05
-2.44332e-06
-5.68951e-06
-2.09175e-05
-2.1221e-06
-3.42119e-06
-2.17854e-05
-1.71669e-06
-2.24583e-05
-1.71711e-06
-8.60444e-06
-1.29224e-05
-3.86667e-06
-8.1841e-06
-1.68835e-05
-3.29291e-06
-6.65867e-06
-2.04381e-05
-2.70048e-06
-4.56032e-06
-2.33207e-05
-2.36005e-06
-2.34495e-06
-2.46237e-05
-1.94643e-06
-2.55907e-05
-1.99912e-06
-6.12418e-06
-1.23866e-05
-4.59395e-06
-5.7868e-06
-1.71187e-05
-3.90469e-06
-4.591e-06
-2.16885e-05
-3.36429e-06
-2.81737e-06
-2.53342e-05
-3.13253e-06
-1.3124e-06
-2.68049e-05
-2.6853e-06
-2.78616e-05
-2.85819e-06
-3.47325e-06
-1.20661e-05
-5.55405e-06
-3.13419e-06
-1.72548e-05
-4.99324e-06
-2.37084e-06
-2.24726e-05
-4.61859e-06
-1.23127e-06
-2.66094e-05
-4.50024e-06
-4.9334e-07
-2.81282e-05
-4.0278e-06
-2.91012e-05
-4.25817e-06
-7.47776e-07
-1.21619e-05
-6.537e-06
-3.44981e-07
-1.73382e-05
-6.25185e-06
-1.57483e-07
-2.26469e-05
-6.08435e-06
2.23095e-07
-2.70519e-05
-6.06158e-06
3.78811e-07
-2.87754e-05
-5.50051e-06
-2.94106e-05
-5.46888e-06
1.51116e-06
-1.26223e-05
-7.43396e-06
1.99965e-06
-1.74408e-05
-7.43176e-06
1.83926e-06
-2.24062e-05
-7.43182e-06
1.41239e-06
-2.67058e-05
-7.39851e-06
7.81978e-07
-2.86975e-05
-6.76942e-06
-2.92506e-05
-6.02358e-06
3.38557e-06
-1.34e-05
-7.99356e-06
3.99193e-06
-1.76055e-05
-8.18843e-06
3.76069e-06
-2.19803e-05
-8.27809e-06
2.88203e-06
-2.59144e-05
-8.09984e-06
1.88816e-06
-2.82628e-05
-7.50901e-06
-2.81442e-05
-6.27741e-06
4.6456e-06
-1.41999e-05
-8.14613e-06
5.3155e-06
-1.7776e-05
-8.43812e-06
5.10001e-06
-2.14635e-05
-8.57396e-06
4.05695e-06
-2.48711e-05
-8.32513e-06
2.83977e-06
-2.7336e-05
-7.84886e-06
-2.6328e-05
-5.61021e-06
5.90124e-06
-1.49454e-05
-7.73413e-06
6.55057e-06
-1.78858e-05
-8.0053e-06
6.25677e-06
-2.07833e-05
-8.04378e-06
4.98254e-06
-2.35647e-05
-7.6683e-06
3.31849e-06
-2.5786e-05
-7.28343e-06
-2.40033e-05
-4.75465e-06
6.8373e-06
-1.52531e-05
-6.73579e-06
7.24509e-06
-1.76696e-05
-6.85023e-06
6.71734e-06
-1.9808e-05
-6.68068e-06
5.26311e-06
-2.20209e-05
-6.27108e-06
3.20887e-06
-2.36815e-05
-5.97384e-06
-2.15621e-05
-3.71726e-06
7.81846e-06
-1.48401e-05
-5.24479e-06
7.54208e-06
-1.67619e-05
-5.17279e-06
6.54266e-06
-1.84136e-05
-4.85923e-06
4.84897e-06
-2.02245e-05
-4.51483e-06
2.51391e-06
-2.12494e-05
-4.24773e-06
-1.96895e-05
-2.47578e-06
8.826e-06
-1.40526e-05
-3.59395e-06
8.105e-06
-1.5556e-05
-3.46635e-06