/*--------------------------------*- C++ -*----------------------------------*\
| =========                 |                                                 |
| \\      /  F ield         | OpenFOAM: The Open Source CFD Toolbox           |
|  \\    /   O peration     | Version:  v2106                                 |
|   \\  /    A nd           | Website:  www.openfoam.com                      |
|    \\/     M anipulation  |                                                 |
\*---------------------------------------------------------------------------*/
FoamFile
{
    version     2.0;
    format      ascii;
    arch        "LSB;label=32;scalar=64";
    class       volVectorField;
    location    "0.000162";
    object      U;
}
// * * * * * * * * * * * * * * * * * * * * * * * * * * * * * * * * * * * * * //

dimensions      [0 1 -1 0 0 0 0];

internalField   nonuniform List<vector> 
18265
(
(0.000268676 0.000268726 -0.0325856)
(0.000223225 0.000261498 -0.0325806)
(0.000181136 0.000267782 -0.0325707)
(0.000139847 0.000264121 -0.0325621)
(9.91737e-05 0.00026342 -0.0325572)
(5.94122e-05 0.000261952 -0.0325544)
(1.93528e-05 0.000261053 -0.0325538)
(-1.93346e-05 0.000261059 -0.0325538)
(-5.93916e-05 0.000261962 -0.0325544)
(-9.91594e-05 0.000263436 -0.0325571)
(-0.000139839 0.000264146 -0.032562)
(-0.000181134 0.000267816 -0.0325705)
(-0.000223229 0.00026154 -0.0325804)
(-0.000268685 0.00026878 -0.0325854)
(0.00026145 0.000223259 -0.0325805)
(0.000220212 0.000220246 -0.0325751)
(0.000181109 0.000224491 -0.0325648)
(0.000141718 0.000221952 -0.032556)
(0.000101509 0.000221531 -0.0325497)
(6.1201e-05 0.000220715 -0.0325443)
(1.99849e-05 0.000220331 -0.0325425)
(-1.99582e-05 0.000220333 -0.0325425)
(-6.11772e-05 0.000220724 -0.0325442)
(-0.000101491 0.000221545 -0.0325496)
(-0.000141707 0.000221972 -0.0325558)
(-0.000181105 0.000224518 -0.0325646)
(-0.000220212 0.000220282 -0.0325749)
(-0.00026145 0.000223296 -0.0325803)
(0.000267736 0.000181166 -0.0325706)
(0.000224456 0.00018114 -0.0325647)
(0.000184281 0.000184314 -0.032552)
(0.000143359 0.000182303 -0.0325442)
(0.000102344 0.000181899 -0.0325381)
(6.14512e-05 0.000180986 -0.0325335)
(2.00254e-05 0.000180683 -0.0325321)
(-1.99927e-05 0.000180685 -0.032532)
(-6.14223e-05 0.000180993 -0.0325335)
(-0.00010232 0.000181911 -0.032538)
(-0.000143341 0.000182319 -0.032544)
(-0.000184273 0.000184336 -0.0325518)
(-0.000224454 0.000181169 -0.0325645)
(-0.00026774 0.000181191 -0.0325704)
(0.000264074 0.000139876 -0.032562)
(0.000221917 0.000141748 -0.0325559)
(0.000182271 0.000143388 -0.0325441)
(0.000141986 0.000142016 -0.0325367)
(0.000101515 0.000141609 -0.0325309)
(6.10116e-05 0.000140868 -0.0325265)
(1.98918e-05 0.000140649 -0.0325251)
(-1.9857e-05 0.00014065 -0.032525)
(-6.09802e-05 0.000140872 -0.0325265)
(-0.000101488 0.000141617 -0.0325308)
(-0.000141965 0.000142028 -0.0325366)
(-0.000182257 0.000143406 -0.0325439)
(-0.00022191 0.000141772 -0.0325557)
(-0.000264075 0.000139894 -0.0325618)
(0.000263371 9.92022e-05 -0.0325571)
(0.000221493 0.000101539 -0.0325496)
(0.000181866 0.000102375 -0.032538)
(0.000141579 0.000101547 -0.0325309)
(0.000101235 0.000101266 -0.0325251)
(6.08216e-05 0.000100729 -0.0325208)
(1.98288e-05 0.000100587 -0.0325194)
(-1.97902e-05 0.000100588 -0.0325193)
(-6.07848e-05 0.00010073 -0.0325208)
(-0.0001012 0.000101269 -0.032525)
(-0.000141546 0.000101552 -0.0325307)
(-0.000181835 0.000102385 -0.0325378)
(-0.000221463 0.000101553 -0.0325493)
(-0.00026334 9.92159e-05 -0.0325568)
(0.000261909 5.94419e-05 -0.0325542)
(0.000220679 6.12321e-05 -0.0325442)
(0.000180953 6.14829e-05 -0.0325334)
(0.000140838 6.1044e-05 -0.0325265)
(0.000100698 6.08542e-05 -0.0325208)
(6.0496e-05 6.05287e-05 -0.0325166)
(1.97219e-05 6.04429e-05 -0.0325151)
(-1.96852e-05 6.04433e-05 -0.0325151)
(-6.04611e-05 6.05276e-05 -0.0325165)
(-0.000100665 6.08533e-05 -0.0325207)
(-0.000140808 6.10447e-05 -0.0325263)
(-0.000180928 6.14862e-05 -0.0325332)
(-0.000220659 6.12392e-05 -0.0325439)
(-0.000261898 5.94526e-05 -0.032554)
(0.000261017 1.94021e-05 -0.0325536)
(0.000220299 2.00365e-05 -0.0325423)
(0.000180654 2.00769e-05 -0.0325319)
(0.00014062 1.99435e-05 -0.0325249)
(0.000100556 1.98806e-05 -0.0325193)
(6.04101e-05 1.97737e-05 -0.0325151)
(1.96944e-05 1.97464e-05 -0.0325136)
(-1.96595e-05 1.97469e-05 -0.0325136)
(-6.03761e-05 1.97723e-05 -0.032515)
(-0.000100523 1.98794e-05 -0.0325192)
(-0.000140587 1.99434e-05 -0.0325248)
(-0.000180623 2.00789e-05 -0.0325317)
(-0.000220271 2.00425e-05 -0.0325421)
(-0.000260995 1.94126e-05 -0.0325533)
(0.000261015 -1.92994e-05 -0.0325535)
(0.000220295 -1.99208e-05 -0.0325423)
(0.000180651 -1.99573e-05 -0.0325318)
(0.000140619 -1.98232e-05 -0.0325249)
(0.000100556 -1.97578e-05 -0.0325192)
(6.04103e-05 -1.96534e-05 -0.032515)
(1.9695e-05 -1.9628e-05 -0.0325136)
(-1.96605e-05 -1.96291e-05 -0.0325136)
(-6.03761e-05 -1.96595e-05 -0.032515)
(-0.000100521 -1.97661e-05 -0.0325191)
(-0.000140582 -1.98324e-05 -0.0325247)
(-0.000180613 -1.99652e-05 -0.0325317)
(-0.000220256 -1.9924e-05 -0.0325421)
(-0.000260981 -1.92958e-05 -0.0325533)
(0.000261914 -5.93407e-05 -0.0325541)
(0.000220685 -6.11267e-05 -0.032544)
(0.000180959 -6.13735e-05 -0.0325333)
(0.000140841 -6.09328e-05 -0.0325263)
(0.000100698 -6.07383e-05 -0.0325206)
(6.04944e-05 -6.04152e-05 -0.0325164)
(1.97204e-05 -6.03304e-05 -0.032515)
(-1.96915e-05 -6.03308e-05 -0.032515)
(-6.04659e-05 -6.04202e-05 -0.0325164)
(-0.000100669 -6.07448e-05 -0.0325205)
(-0.000140809 -6.094e-05 -0.0325262)
(-0.000180925 -6.13792e-05 -0.0325331)
(-0.00022065 -6.11267e-05 -0.0325438)
(-0.000261882 -5.93328e-05 -0.0325538)
(0.000263387 -9.91126e-05 -0.0325568)
(0.000221505 -0.000101444 -0.0325493)
(0.000181874 -0.000102275 -0.0325377)
(0.000141584 -0.000101444 -0.0325306)
(0.000101236 -0.000101157 -0.0325248)
(6.08197e-05 -0.000100623 -0.0325206)
(1.98275e-05 -0.00010048 -0.0325191)
(-1.97982e-05 -0.000100479 -0.0325191)
(-6.07899e-05 -0.000100626 -0.0325205)
(-0.000101202 -0.00010116 -0.0325247)
(-0.000141544 -0.000101447 -0.0325305)
(-0.000181827 -0.000102276 -0.0325375)
(-0.000221449 -0.00010144 -0.0325491)
(-0.000263321 -9.90987e-05 -0.0325566)
(0.000264097 -0.000139793 -0.0325616)
(0.00022193 -0.000141663 -0.0325555)
(0.000182281 -0.000143298 -0.0325438)
(0.000141994 -0.000141923 -0.0325363)
(0.000101518 -0.000141506 -0.0325305)
(6.1011e-05 -0.000140769 -0.0325261)
(1.98913e-05 -0.000140546 -0.0325247)
(-1.98654e-05 -0.000140544 -0.0325247)
(-6.09855e-05 -0.00014077 -0.0325261)
(-0.000101489 -0.000141506 -0.0325305)
(-0.000141961 -0.000141922 -0.0325362)
(-0.000182244 -0.000143295 -0.0325436)
(-0.000221889 -0.000141656 -0.0325553)
(-0.000264052 -0.000139772 -0.0325614)
(0.000267765 -0.000181092 -0.0325701)
(0.000224475 -0.000181067 -0.0325642)
(0.000184297 -0.000184234 -0.0325515)
(0.000143371 -0.00018222 -0.0325437)
(0.00010235 -0.0001818 -0.0325376)
(6.14526e-05 -0.000180893 -0.0325331)
(2.00268e-05 -0.000180585 -0.0325316)
(-1.99984e-05 -0.00018058 -0.0325316)
(-6.14244e-05 -0.000180891 -0.032533)
(-0.000102318 -0.000181793 -0.0325375)
(-0.000143334 -0.00018221 -0.0325436)
(-0.000184255 -0.000184221 -0.0325513)
(-0.000224427 -0.000181051 -0.0325641)
(-0.000267711 -0.000181064 -0.0325699)
(0.00026149 -0.000223189 -0.03258)
(0.000220238 -0.000220177 -0.0325746)
(0.000181129 -0.00022442 -0.0325642)
(0.000141735 -0.000221878 -0.0325554)
(0.000101518 -0.000221434 -0.0325491)
(6.12056e-05 -0.000220629 -0.0325437)
(1.99897e-05 -0.000220235 -0.032542)
(-1.99582e-05 -0.000220227 -0.0325419)
(-6.11731e-05 -0.000220621 -0.0325437)
(-0.000101482 -0.00022142 -0.032549)
(-0.000141694 -0.000221861 -0.0325553)
(-0.000181083 -0.000224398 -0.032564)
(-0.000220186 -0.000220155 -0.0325744)
(-0.000261429 -0.00022316 -0.0325798)
(0.000268728 -0.000268648 -0.032585)
(0.000223248 -0.000261417 -0.0325799)
(0.000181148 -0.000267708 -0.03257)
(0.000139855 -0.000264047 -0.0325615)
(9.918e-05 -0.000263315 -0.0325566)
(5.94191e-05 -0.00026187 -0.0325537)
(1.9362e-05 -0.00026096 -0.0325531)
(-1.93257e-05 -0.000260953 -0.0325531)
(-5.93783e-05 -0.000261857 -0.0325537)
(-9.91386e-05 -0.000263295 -0.0325565)
(-0.000139809 -0.000264024 -0.0325613)
(-0.000181096 -0.000267681 -0.0325699)
(-0.000223189 -0.000261393 -0.0325797)
(-0.00026866 -0.000268624 -0.0325848)
(0.000314309 0.000314392 -0.0381091)
(0.000261403 0.000306132 -0.0381037)
(0.000212165 0.000313393 -0.0380928)
(0.000163864 0.000309183 -0.0380832)
(0.000116247 0.000308272 -0.0380777)
(6.96522e-05 0.000306608 -0.0380746)
(2.27142e-05 0.000305547 -0.0380739)
(-2.2667e-05 0.00030555 -0.038074)
(-6.96091e-05 0.000306624 -0.0380747)
(-0.000116206 0.000308297 -0.0380778)
(-0.000163828 0.000309212 -0.0380833)
(-0.000212135 0.000313423 -0.0380929)
(-0.000261375 0.000306158 -0.0381039)
(-0.000314272 0.000314408 -0.0381093)
(0.000306056 0.000261497 -0.0381037)
(0.000257824 0.000257917 -0.0380977)
(0.000211942 0.000262855 -0.0380862)
(0.000165814 0.000259893 -0.0380763)
(0.000118752 0.00025931 -0.0380693)
(7.15856e-05 0.000258353 -0.0380633)
(2.34003e-05 0.000257864 -0.0380614)
(-2.33407e-05 0.00025787 -0.0380614)
(-7.1531e-05 0.000258369 -0.0380634)
(-0.000118702 0.000259336 -0.0380694)
(-0.000165772 0.000259923 -0.0380764)
(-0.000211908 0.00026289 -0.0380863)
(-0.000257796 0.00025795 -0.0380979)
(-0.000306027 0.000261528 -0.0381039)
(0.000313309 0.000212256 -0.0380928)
(0.00026276 0.000212037 -0.0380862)
(0.000215644 0.000215739 -0.0380719)
(0.000167767 0.000213385 -0.0380631)
(0.000119772 0.000212869 -0.0380563)
(7.19224e-05 0.000211822 -0.0380512)
(2.34666e-05 0.000211444 -0.0380495)
(-2.33957e-05 0.00021145 -0.0380496)
(-7.18563e-05 0.000211835 -0.0380512)
(-0.000119713 0.000212889 -0.0380563)
(-0.000167716 0.00021341 -0.0380632)
(-0.000215602 0.000215768 -0.038072)
(-0.000262724 0.000212066 -0.0380864)
(-0.000313275 0.000212295 -0.038093)
(0.000309101 0.000163952 -0.0380832)
(0.000259798 0.000165907 -0.0380763)
(0.00021329 0.00016786 -0.0380631)
(0.000166126 0.00016622 -0.0380547)
(0.000118758 0.000165719 -0.0380483)
(7.13736e-05 0.000164863 -0.0380433)
(2.32987e-05 0.000164588 -0.0380417)
(-2.32216e-05 0.000164592 -0.0380417)
(-7.13017e-05 0.000164871 -0.0380434)
(-0.000118695 0.000165731 -0.0380483)
(-0.000166074 0.000166236 -0.0380548)
(-0.000213251 0.000167879 -0.0380632)
(-0.000259769 0.000165928 -0.0380765)
(-0.000309076 0.000163988 -0.0380833)
(0.000308186 0.00011633 -0.0380777)
(0.000259216 0.000118841 -0.0380693)
(0.000212774 0.000119862 -0.0380563)
(0.000165625 0.000118848 -0.0380483)
(0.000118414 0.000118504 -0.0380418)
(7.11436e-05 0.000117883 -0.038037)
(2.32217e-05 0.000117704 -0.0380354)
(-2.31435e-05 0.000117706 -0.0380354)
(-7.10709e-05 0.000117885 -0.038037)
(-0.000118352 0.000118508 -0.0380418)
(-0.000165576 0.000118855 -0.0380484)
(-0.000212742 0.000119872 -0.0380564)
(-0.000259198 0.000118856 -0.0380695)
(-0.000308182 0.000116354 -0.0380779)
(0.000306528 6.97298e-05 -0.0380746)
(0.00025826 7.16671e-05 -0.0380633)
(0.000211726 7.20046e-05 -0.0380512)
(0.000164768 7.14556e-05 -0.0380433)
(0.000117793 7.12251e-05 -0.038037)
(7.07655e-05 7.08467e-05 -0.0380323)
(2.30983e-05 7.07384e-05 -0.0380307)
(-2.30176e-05 7.07384e-05 -0.0380307)
(-7.06885e-05 7.08435e-05 -0.0380323)
(-0.000117723 7.12215e-05 -0.0380371)
(-0.000164707 7.14531e-05 -0.0380434)
(-0.000211675 7.20049e-05 -0.0380513)
(-0.000258217 7.16741e-05 -0.0380635)
(-0.000306486 6.97422e-05 -0.0380748)
(0.000305476 2.27972e-05 -0.0380739)
(0.000257777 2.34835e-05 -0.0380614)
(0.00021135 2.35463e-05 -0.0380495)
(0.000164493 2.3375e-05 -0.0380417)
(0.000117613 2.32953e-05 -0.0380354)
(7.06568e-05 2.31702e-05 -0.0380307)
(2.30628e-05 2.3134e-05 -0.0380291)
(-2.29865e-05 2.31326e-05 -0.0380291)
(-7.05844e-05 2.31636e-05 -0.0380307)
(-0.000117548 2.32865e-05 -0.0380354)
(-0.000164438 2.33657e-05 -0.0380418)
(-0.000211305 2.35386e-05 -0.0380497)
(-0.00025774 2.34805e-05 -0.0380615)
(-0.000305442 2.28006e-05 -0.0380741)
(0.000305463 -2.25962e-05 -0.038074)
(0.000257773 -2.32709e-05 -0.0380614)
(0.00021135 -2.33286e-05 -0.0380496)
(0.000164493 -2.3157e-05 -0.0380418)
(0.000117612 -2.3081e-05 -0.0380354)
(7.06556e-05 -2.29563e-05 -0.0380307)
(2.30611e-05 -2.2926e-05 -0.0380291)
(-2.29888e-05 -2.29284e-05 -0.0380291)
(-7.05857e-05 -2.29663e-05 -0.0380307)
(-0.000117547 -2.30955e-05 -0.0380355)
(-0.000164434 -2.31741e-05 -0.0380418)
(-0.000211298 -2.33457e-05 -0.0380497)
(-0.000257727 -2.32846e-05 -0.0380616)
(-0.000305418 -2.26036e-05 -0.0380741)
(0.000306536 -6.95444e-05 -0.0380747)
(0.000258271 -7.14693e-05 -0.0380634)
(0.000211732 -7.17977e-05 -0.0380513)
(0.000164769 -7.12465e-05 -0.0380434)
(0.000117789 -7.10186e-05 -0.0380371)
(7.07594e-05 -7.0638e-05 -0.0380324)
(2.30912e-05 -7.05351e-05 -0.0380308)
(-2.3027e-05 -7.0537e-05 -0.0380308)
(-7.06958e-05 -7.06466e-05 -0.0380324)
(-0.000117727 -7.10307e-05 -0.0380372)
(-0.000164709 -7.12607e-05 -0.0380435)
(-0.000211674 -7.18114e-05 -0.0380514)
(-0.000258212 -7.14801e-05 -0.0380635)
(-0.000306475 -6.95511e-05 -0.0380749)
(0.000308206 -0.000116152 -0.0380779)
(0.000259234 -0.000118651 -0.0380695)
(0.000212783 -0.000119664 -0.0380564)
(0.000165626 -0.000118649 -0.0380484)
(0.000118411 -0.000118309 -0.0380419)
(7.11363e-05 -0.000117681 -0.0380372)
(2.32137e-05 -0.000117507 -0.0380355)
(-2.31561e-05 -0.000117508 -0.0380355)
(-7.10794e-05 -0.000117687 -0.0380372)
(-0.000118356 -0.000118316 -0.038042)
(-0.000165575 -0.000118656 -0.0380485)
(-0.000212736 -0.00011967 -0.0380565)
(-0.000259191 -0.000118652 -0.0380696)
(-0.000308172 -0.000116155 -0.038078)
(0.000309119 -0.00016378 -0.0380834)
(0.000259819 -0.000165727 -0.0380765)
(0.000213302 -0.000167673 -0.0380633)
(0.000166129 -0.000166033 -0.0380549)
(0.000118755 -0.000165537 -0.0380485)
(7.13673e-05 -0.000164669 -0.0380436)
(2.32923e-05 -0.000164398 -0.0380419)
(-2.32349e-05 -0.000164397 -0.0380419)
(-7.13092e-05 -0.000164669 -0.0380436)
(-0.000118697 -0.000165536 -0.0380485)
(-0.00016607 -0.00016603 -0.038055)
(-0.000213242 -0.000167666 -0.0380634)
(-0.000259757 -0.000165714 -0.0380766)
(-0.000309055 -0.000163776 -0.0380835)
(0.000313328 -0.000212088 -0.0380931)
(0.000262783 -0.000211865 -0.0380865)
(0.000215657 -0.000215559 -0.0380722)
(0.000167771 -0.000213209 -0.0380634)
(0.000119772 -0.0002127 -0.0380565)
(7.19195e-05 -0.000211634 -0.0380515)
(2.34655e-05 -0.000211261 -0.0380498)
(-2.34059e-05 -0.000211257 -0.0380498)
(-7.18591e-05 -0.00021163 -0.0380515)
(-0.000119709 -0.000212693 -0.0380566)
(-0.000167705 -0.000213197 -0.0380634)
(-0.000215588 -0.000215543 -0.0380723)
(-0.000262707 -0.000211843 -0.0380866)
(-0.00031325 -0.000212072 -0.0380932)
(0.000306065 -0.000261323 -0.038104)
(0.000257844 -0.000257748 -0.038098)
(0.000211956 -0.000262675 -0.0380865)
(0.00016582 -0.000259719 -0.0380766)
(0.000118756 -0.000259148 -0.0380697)
(7.15895e-05 -0.000258164 -0.0380636)
(2.3408e-05 -0.000257682 -0.0380617)
(-2.33447e-05 -0.000257674 -0.0380617)
(-7.15273e-05 -0.000258156 -0.0380637)
(-0.000118692 -0.000259135 -0.0380697)
(-0.000165754 -0.000259701 -0.0380767)
(-0.000211889 -0.000262651 -0.0380866)
(-0.000257774 -0.00025772 -0.0380982)
(-0.000305997 -0.000261289 -0.0381042)
(0.000314306 -0.000314213 -0.0381095)
(0.00026142 -0.000305969 -0.0381041)
(0.000212188 -0.000313213 -0.0380932)
(0.000163884 -0.000309012 -0.0380835)
(0.00011626 -0.000308118 -0.0380781)
(6.96617e-05 -0.000306416 -0.038075)
(2.27317e-05 -0.000305364 -0.0380743)
(-2.26615e-05 -0.000305349 -0.0380743)
(-6.95976e-05 -0.000306405 -0.038075)
(-0.000116194 -0.000308101 -0.0380781)
(-0.000163817 -0.00030899 -0.0380836)
(-0.000212119 -0.000313185 -0.0380932)
(-0.000261345 -0.00030594 -0.0381042)
(-0.000314225 -0.000314171 -0.0381096)
(0.000365179 0.000365226 -0.0442476)
(0.000304024 0.000355947 -0.0442418)
(0.000246826 0.000364277 -0.0442297)
(0.000190706 0.000359535 -0.0442189)
(0.00013532 0.000358473 -0.0442128)
(8.10735e-05 0.000356524 -0.0442093)
(2.64226e-05 0.000355302 -0.0442086)
(-2.64618e-05 0.000355306 -0.0442086)
(-8.11102e-05 0.000356516 -0.0442094)
(-0.000135349 0.000358459 -0.0442129)
(-0.000190723 0.000359505 -0.044219)
(-0.000246827 0.000364236 -0.0442299)
(-0.000304002 0.000355893 -0.0442419)
(-0.00036513 0.000365162 -0.0442477)
(0.000355908 0.000304105 -0.0442418)
(0.000299886 0.00029997 -0.0442351)
(0.000246418 0.000305689 -0.0442224)
(0.000192755 0.000302328 -0.0442112)
(0.000138023 0.000301635 -0.0442034)
(8.31705e-05 0.000300486 -0.0441966)
(2.71635e-05 0.000299903 -0.0441945)
(-2.7206e-05 0.000299908 -0.0441945)
(-8.32108e-05 0.000300485 -0.0441967)
(-0.000138058 0.000301631 -0.0442035)
(-0.000192781 0.000302319 -0.0442113)
(-0.000246427 0.000305672 -0.0442225)
(-0.000299877 0.000299942 -0.0442353)
(-0.000355872 0.000304079 -0.044242)
(0.000364247 0.000246922 -0.0442297)
(0.000305607 0.000246522 -0.0442224)
(0.000250723 0.000250828 -0.0442064)
(0.000195077 0.000248154 -0.0441963)
(0.000139265 0.000247568 -0.0441887)
(8.36098e-05 0.000246358 -0.0441829)
(2.72553e-05 0.000245919 -0.0441811)
(-2.7297e-05 0.000245926 -0.0441811)
(-8.36527e-05 0.000246365 -0.044183)
(-0.000139308 0.000247577 -0.0441888)
(-0.000195117 0.000248162 -0.0441965)
(-0.000250754 0.000250829 -0.0442066)
(-0.000305618 0.000246514 -0.0442226)
(-0.000364227 0.000246908 -0.0442299)
(0.000359504 0.000190803 -0.0442189)
(0.000302246 0.000192862 -0.0442112)
(0.000248049 0.000195186 -0.0441963)
(0.000193186 0.000193295 -0.0441868)
(0.000138077 0.000192733 -0.0441796)
(8.29569e-05 0.00019175 -0.044174)
(2.70529e-05 0.000191435 -0.0441722)
(-2.70825e-05 0.000191442 -0.0441722)
(-8.29893e-05 0.000191762 -0.0441741)
(-0.00013811 0.000192751 -0.0441797)
(-0.000193218 0.000193315 -0.044187)
(-0.000248071 0.000195203 -0.0441966)
(-0.000302249 0.000192873 -0.0442114)
(-0.000359475 0.000190799 -0.0442191)
(0.000358449 0.000135404 -0.0442128)
(0.000301556 0.000138115 -0.0442034)
(0.000247463 0.000139357 -0.0441887)
(0.000192624 0.000138168 -0.0441796)
(0.000137693 0.000137785 -0.0441723)
(8.27022e-05 0.000137075 -0.0441669)
(2.69665e-05 0.000136872 -0.044165)
(-2.69898e-05 0.000136879 -0.044165)
(-8.27303e-05 0.000137089 -0.044167)
(-0.000137726 0.000137807 -0.0441724)
(-0.000192661 0.000138196 -0.0441798)
(-0.000247496 0.000139386 -0.0441889)
(-0.000301575 0.00013814 -0.0442036)
(-0.00035844 0.000135418 -0.0442131)
(0.000356498 8.11337e-05 -0.0442094)
(0.000300406 8.3234e-05 -0.0441967)
(0.000246251 8.3672e-05 -0.0441829)
(0.00019164 8.30179e-05 -0.044174)
(0.000136983 8.27619e-05 -0.0441669)
(8.22718e-05 8.2332e-05 -0.0441615)
(2.6825e-05 8.22127e-05 -0.0441597)
(-2.68376e-05 8.22196e-05 -0.0441597)
(-8.22897e-05 8.23478e-05 -0.0441616)
(-0.000137008 8.27883e-05 -0.044167)
(-0.000191672 8.30518e-05 -0.0441742)
(-0.000246285 8.37096e-05 -0.0441832)
(-0.000300431 8.32702e-05 -0.0441969)
(-0.000356504 8.11607e-05 -0.0442096)
(0.000355279 2.64532e-05 -0.0442086)
(0.000299826 2.71929e-05 -0.0441945)
(0.000245812 2.72815e-05 -0.0441811)
(0.000191324 2.70758e-05 -0.0441722)
(0.00013678 2.69864e-05 -0.044165)
(8.2154e-05 2.68436e-05 -0.0441597)
(2.67888e-05 2.68047e-05 -0.0441579)
(-2.67882e-05 2.68132e-05 -0.0441579)
(-8.21602e-05 2.68626e-05 -0.0441598)
(-0.000136796 2.70169e-05 -0.0441651)
(-0.00019135 2.71167e-05 -0.0441724)
(-0.000245844 2.73305e-05 -0.0441813)
(-0.000299856 2.72473e-05 -0.0441947)
(-0.0003553 2.65084e-05 -0.0442088)
(0.000355274 -2.64559e-05 -0.0442087)
(0.000299824 -2.72058e-05 -0.0441946)
(0.000245813 -2.73005e-05 -0.0441812)
(0.000191326 -2.70901e-05 -0.0441723)
(0.000136784 -2.70006e-05 -0.0441651)
(8.2159e-05 -2.68498e-05 -0.0441598)
(2.67966e-05 -2.68034e-05 -0.0441579)
(-2.67834e-05 -2.67989e-05 -0.0441579)
(-8.21521e-05 -2.68375e-05 -0.0441598)
(-0.000136787 -2.69795e-05 -0.0441652)
(-0.000191341 -2.70628e-05 -0.0441724)
(-0.000245837 -2.727e-05 -0.0441813)
(-0.000299849 -2.71749e-05 -0.0441947)
(-0.00035529 -2.64306e-05 -0.0442089)
(0.000356481 -8.11291e-05 -0.0442095)
(0.000300397 -8.32396e-05 -0.0441968)
(0.000246249 -8.36858e-05 -0.0441831)
(0.000191643 -8.30263e-05 -0.0441742)
(0.000136991 -8.27702e-05 -0.044167)
(8.22838e-05 -8.23317e-05 -0.0441617)
(2.68424e-05 -8.22042e-05 -0.0441598)
(-2.68238e-05 -8.21966e-05 -0.0441598)
(-8.22701e-05 -8.23132e-05 -0.0441617)
(-0.000136988 -8.27409e-05 -0.0441671)
(-0.000191653 -8.29879e-05 -0.0441743)
(-0.000246271 -8.36413e-05 -0.0441832)
(-0.000300424 -8.31919e-05 -0.0441969)
(-0.000356504 -8.10842e-05 -0.0442096)
(0.000358414 -0.00013538 -0.0442131)
(0.000301536 -0.0001381 -0.0442037)
(0.000247457 -0.000139354 -0.0441889)
(0.00019263 -0.000138158 -0.0441799)
(0.000137708 -0.000137776 -0.0441725)
(8.27241e-05 -0.000137058 -0.0441671)
(2.69976e-05 -0.000136846 -0.0441652)
(-2.6965e-05 -0.000136838 -0.0441652)
(-8.26971e-05 -0.000137037 -0.0441671)
(-0.000137694 -0.000137744 -0.0441725)
(-0.000192632 -0.000138118 -0.0441799)
(-0.000247476 -0.000139308 -0.044189)
(-0.000301564 -0.000138053 -0.0442037)
(-0.000358439 -0.000135336 -0.0442132)
(0.000359455 -0.000190756 -0.0442192)
(0.000302221 -0.000192821 -0.0442115)
(0.00024804 -0.000195159 -0.0441967)
(0.000193193 -0.000193259 -0.0441872)
(0.000138097 -0.0001927 -0.0441799)
(8.2988e-05 -0.000191709 -0.0441743)
(2.70976e-05 -0.000191386 -0.0441725)
(-2.70486e-05 -0.000191378 -0.0441725)
(-8.2945e-05 -0.00019169 -0.0441743)
(-0.000138069 -0.00019267 -0.0441799)
(-0.000193184 -0.000193223 -0.0441872)
(-0.000248049 -0.000195119 -0.0441967)
(-0.000302241 -0.000192782 -0.0442116)
(-0.000359478 -0.000190713 -0.0442193)
(0.000364178 -0.000246846 -0.0442301)
(0.000305571 -0.000246448 -0.0442227)
(0.00025071 -0.000250773 -0.0442067)
(0.000195085 -0.000248086 -0.0441967)
(0.00013929 -0.000247506 -0.0441891)
(8.36486e-05 -0.000246289 -0.0441833)
(2.73127e-05 -0.000245846 -0.0441814)
(-2.72556e-05 -0.000245838 -0.0441814)
(-8.36007e-05 -0.000246274 -0.0441833)
(-0.000139262 -0.000247482 -0.044189)
(-0.000195082 -0.000248059 -0.0441967)
(-0.000250733 -0.000250745 -0.0442068)
(-0.000305611 -0.000246423 -0.0442228)
(-0.000364235 -0.000246822 -0.0442302)
(0.000355831 -0.000304001 -0.0442422)
(0.000299846 -0.000299871 -0.0442355)
(0.000246402 -0.000305603 -0.0442228)
(0.000192763 -0.000302225 -0.0442116)
(0.000138051 -0.00030154 -0.0442038)
(8.32129e-05 -0.000300389 -0.044197)
(2.72312e-05 -0.000299809 -0.0441948)
(-2.71603e-05 -0.000299802 -0.0441948)
(-8.31558e-05 -0.000300381 -0.044197)
(-0.000138013 -0.000301528 -0.0442038)
(-0.000192751 -0.000302211 -0.0442116)
(-0.000246416 -0.000305591 -0.0442228)
(-0.000299879 -0.000299859 -0.0442356)
(-0.000355882 -0.000304002 -0.0442423)
(0.000365096 -0.000365104 -0.044248)
(0.000303991 -0.000355835 -0.0442422)
(0.00024681 -0.000364171 -0.0442301)
(0.000190708 -0.000359406 -0.0442193)
(0.000135345 -0.000358356 -0.0442132)
(8.11137e-05 -0.000356413 -0.0442097)
(2.64933e-05 -0.000355204 -0.044209)
(-2.64177e-05 -0.000355193 -0.0442089)
(-8.10583e-05 -0.000356414 -0.0442097)
(-0.000135309 -0.000358363 -0.0442132)
(-0.000190694 -0.000359413 -0.0442193)
(-0.00024682 -0.000364185 -0.0442302)
(-0.000304019 -0.000355846 -0.0442423)
(-0.000365159 -0.000365129 -0.0442481)
(0.000421762 0.000421707 -0.0510195)
(0.000351536 0.000411384 -0.0510131)
(0.000285501 0.000420965 -0.0509998)
(0.000220696 0.000415647 -0.0509877)
(0.00015666 0.000414498 -0.0509809)
(9.38616e-05 0.000412293 -0.050977)
(3.0585e-05 0.000410898 -0.0509761)
(-3.07044e-05 0.00041088 -0.0509761)
(-9.39659e-05 0.000412231 -0.050977)
(-0.000156727 0.000414388 -0.0509809)
(-0.000220711 0.000415506 -0.0509877)
(-0.000285453 0.000420794 -0.0509998)
(-0.000351425 0.000411215 -0.0510131)
(-0.000421599 0.000421517 -0.0510194)
(0.000411437 0.000351539 -0.0510132)
(0.000346865 0.000346865 -0.0510056)
(0.000284981 0.000353521 -0.0509915)
(0.000222951 0.000349753 -0.0509789)
(0.000159654 0.000349015 -0.0509703)
(9.61832e-05 0.00034771 -0.0509627)
(3.13868e-05 0.000347031 -0.0509602)
(-3.15544e-05 0.000347018 -0.0509602)
(-9.63272e-05 0.000347654 -0.0509627)
(-0.000159753 0.000348921 -0.0509703)
(-0.000222986 0.000349627 -0.050979)
(-0.000284941 0.000353365 -0.0509916)
(-0.000346757 0.000346692 -0.0510056)
(-0.000411279 0.000351356 -0.0510132)
(0.000421044 0.00028554 -0.0509999)
(0.000353523 0.000285025 -0.0509916)
(0.000290014 0.000290062 -0.0509737)
(0.000225726 0.000287071 -0.0509624)
(0.00016117 0.000286475 -0.0509538)
(9.675e-05 0.000285134 -0.0509473)
(3.15078e-05 0.000284634 -0.0509452)
(-3.17024e-05 0.000284628 -0.0509452)
(-9.69233e-05 0.000285098 -0.0509474)
(-0.000161301 0.000286413 -0.0509539)
(-0.000225795 0.000286978 -0.0509625)
(-0.000290002 0.000289938 -0.0509738)
(-0.000353431 0.000284876 -0.0509917)
(-0.00042086 0.000285393 -0.051)
(0.000415733 0.000220751 -0.0509878)
(0.00034976 0.000223013 -0.050979)
(0.000287024 0.000225791 -0.0509624)
(0.000223594 0.00022366 -0.0509517)
(0.000159814 0.00022309 -0.0509435)
(9.59935e-05 0.00022201 -0.0509372)
(3.12628e-05 0.00022166 -0.0509351)
(-3.14761e-05 0.000221664 -0.0509352)
(-9.61908e-05 0.000222004 -0.0509373)
(-0.000159976 0.000223076 -0.0509437)
(-0.000223704 0.000223628 -0.0509518)
(-0.000287066 0.000225737 -0.0509626)
(-0.000349731 0.000222929 -0.0509791)
(-0.000415628 0.000220656 -0.0509879)
(0.000414587 0.000156702 -0.0509811)
(0.000349022 0.000159703 -0.0509704)
(0.000286429 0.00016122 -0.0509539)
(0.000223025 0.000159867 -0.0509436)
(0.000159434 0.000159487 -0.0509353)
(9.57416e-05 0.000158713 -0.0509292)
(3.11809e-05 0.000158499 -0.050927)
(-3.13773e-05 0.000158511 -0.0509271)
(-9.59254e-05 0.000158736 -0.0509293)
(-0.000159586 0.00015952 -0.0509354)
(-0.000223127 0.000159899 -0.0509437)
(-0.000286463 0.00016124 -0.050954)
(-0.000348979 0.000159699 -0.0509705)
(-0.000414454 0.000156676 -0.0509812)
(0.000412384 9.38706e-05 -0.0509772)
(0.000347722 9.61953e-05 -0.0509628)
(0.000285091 9.67633e-05 -0.0509474)
(0.000221946 9.60098e-05 -0.0509373)
(0.000158661 9.576e-05 -0.0509292)
(9.52764e-05 9.52963e-05 -0.0509231)
(3.10306e-05 9.51818e-05 -0.050921)
(-3.12079e-05 9.5203e-05 -0.050921)
(-9.54454e-05 9.53488e-05 -0.0509232)
(-0.000158806 9.58401e-05 -0.0509293)
(-0.000222056 9.6104e-05 -0.0509375)
(-0.000285149 9.68554e-05 -0.0509476)
(-0.000347716 9.62685e-05 -0.050963)
(-0.000412303 9.39164e-05 -0.0509773)
(0.000410981 3.05613e-05 -0.0509763)
(0.000347041 3.13615e-05 -0.0509604)
(0.000284593 3.14825e-05 -0.0509453)
(0.0002216 3.1238e-05 -0.0509352)
(0.000158449 3.11564e-05 -0.0509271)
(9.51641e-05 3.10069e-05 -0.050921)
(3.10058e-05 3.09812e-05 -0.0509189)
(-3.11322e-05 3.10085e-05 -0.0509189)
(-9.52901e-05 3.10764e-05 -0.0509211)
(-0.000158567 3.12669e-05 -0.0509272)
(-0.0002217 3.13762e-05 -0.0509354)
(-0.000284663 3.16325e-05 -0.0509454)
(-0.000347068 3.15079e-05 -0.0509605)
(-0.000410958 3.06825e-05 -0.0509764)
(0.000410965 -3.07712e-05 -0.0509764)
(0.000347031 -3.16286e-05 -0.0509604)
(0.000284592 -3.1771e-05 -0.0509453)
(0.000221607 -3.15376e-05 -0.0509352)
(0.000158464 -3.14317e-05 -0.0509271)
(9.51865e-05 -3.12556e-05 -0.050921)
(3.10265e-05 -3.11853e-05 -0.0509189)
(-3.10954e-05 -3.11545e-05 -0.0509189)
(-9.52599e-05 -3.11723e-05 -0.0509211)
(-0.000158541 -3.13046e-05 -0.0509272)
(-0.000221682 -3.13803e-05 -0.0509353)
(-0.000284654 -3.16022e-05 -0.0509454)
(-0.000347068 -3.14677e-05 -0.0509605)
(-0.000410958 -3.06425e-05 -0.0509764)
(0.000412304 -9.40349e-05 -0.0509772)
(0.000347663 -9.64044e-05 -0.0509629)
(0.000285064 -9.69996e-05 -0.0509475)
(0.000221953 -9.62628e-05 -0.0509374)
(0.000158696 -9.59914e-05 -0.0509293)
(9.53347e-05 -9.55045e-05 -0.0509232)
(3.10861e-05 -9.53537e-05 -0.0509211)
(-3.11124e-05 -9.53221e-05 -0.0509211)
(-9.5367e-05 -9.54209e-05 -0.0509232)
(-0.000158738 -9.58619e-05 -0.0509293)
(-0.000222005 -9.61005e-05 -0.0509374)
(-0.00028512 -9.68217e-05 -0.0509476)
(-0.000347713 -9.62317e-05 -0.050963)
(-0.000412322 -9.38885e-05 -0.0509773)
(0.000414452 -0.000156791 -0.0509812)
(0.00034893 -0.000159824 -0.0509705)
(0.000286385 -0.000161369 -0.050954)
(0.000223033 -0.000160037 -0.0509437)
(0.000159487 -0.000159638 -0.0509354)
(9.58309e-05 -0.000158849 -0.0509293)
(3.12784e-05 -0.000158612 -0.0509271)
(-3.12408e-05 -0.000158584 -0.0509271)
(-9.58061e-05 -0.000158774 -0.0509293)
(-0.000159485 -0.000159524 -0.0509355)
(-0.000223055 -0.000159896 -0.0509437)
(-0.000286427 -0.000161215 -0.050954)
(-0.000348981 -0.000159677 -0.0509705)
(-0.000414484 -0.000156663 -0.0509812)
(0.00041556 -0.000220755 -0.0509879)
(0.000349637 -0.000223031 -0.0509791)
(0.000286958 -0.000225833 -0.0509626)
(0.000223596 -0.00022373 -0.0509518)
(0.000159875 -0.000223142 -0.0509437)
(9.61e-05 -0.000222059 -0.0509374)
(3.13901e-05 -0.000221703 -0.0509352)
(-3.13169e-05 -0.000221683 -0.0509352)
(-9.60474e-05 -0.000222008 -0.0509374)
(-0.000159859 -0.000223063 -0.0509437)
(-0.000223624 -0.000223634 -0.0509518)
(-0.00028703 -0.000225729 -0.0509626)
(-0.000349743 -0.000222936 -0.0509791)
(-0.000415678 -0.000220675 -0.0509879)
(0.000420846 -0.00028547 -0.051)
(0.000353382 -0.000284951 -0.0509917)
(0.000289932 -0.000289999 -0.0509739)
(0.00022572 -0.000287046 -0.0509625)
(0.00016123 -0.000286428 -0.0509539)
(9.68588e-05 -0.000285101 -0.0509474)
(3.16477e-05 -0.000284614 -0.0509453)
(-3.15411e-05 -0.000284603 -0.0509453)
(-9.67767e-05 -0.000285081 -0.0509474)
(-0.000161186 -0.000286398 -0.0509539)
(-0.000225723 -0.000287013 -0.0509625)
(-0.00028998 -0.000289965 -0.0509739)
(-0.00035346 -0.000284927 -0.0509917)
(-0.000420927 -0.000285457 -0.051)
(0.000411258 -0.000351421 -0.0510133)
(0.00034672 -0.000346735 -0.0510057)
(0.000284886 -0.000353389 -0.0509917)
(0.00022293 -0.000349669 -0.0509791)
(0.000159702 -0.0003489 -0.0509704)
(9.62797e-05 -0.000347624 -0.0509628)
(3.15202e-05 -0.000346975 -0.0509603)
(-3.14119e-05 -0.000346975 -0.0509603)
(-9.62015e-05 -0.000347642 -0.0509628)
(-0.000159665 -0.000348925 -0.0509704)
(-0.000222943 -0.000349708 -0.0509791)
(-0.000284942 -0.000353437 -0.0509917)
(-0.000346806 -0.000346788 -0.0510058)
(-0.00041136 -0.000351474 -0.0510133)
(0.000421582 -0.000421583 -0.0510195)
(0.000351396 -0.000411249 -0.0510132)