/*--------------------------------*- C++ -*----------------------------------*\
| =========                 |                                                 |
| \\      /  F ield         | OpenFOAM: The Open Source CFD Toolbox           |
|  \\    /   O peration     | Version:  v2106                                 |
|   \\  /    A nd           | Website:  www.openfoam.com                      |
|    \\/     M anipulation  |                                                 |
\*---------------------------------------------------------------------------*/
FoamFile
{
    version     2.0;
    format      ascii;
    arch        "LSB;label=32;scalar=64";
    class       volScalarField;
    location    "0.000215";
    object      p;
}
// * * * * * * * * * * * * * * * * * * * * * * * * * * * * * * * * * * * * * //

dimensions      [1 -1 -2 0 0 0 0];

internalField   nonuniform List<scalar> 
17924
(
240003
239905
239839
239772
240520
240414
240334
240254
240185
240120
240063
240591
240496
240419
240342
240270
240202
240140
240663
240575
240499
240422
240351
240283
240218
240735
240653
240579
240504
240431
240361
240293
240802
240725
240653
240580
240508
240436
240367
240867
240795
240724
240652
240580
240508
240437
240930
240861
240792
240722
240650
240578
240506
240990
240925
240857
240789
240719
240647
240574
241050
240988
240922
240855
240785
240715
240641
241107
241048
240985
240920
240851
240781
240707
241161
241106
241045
240983
240915
240845
240771
241207
241154
241097
241037
240974
240906
240834
241249
241198
241144
241088
241028
240964
240894
241285
241230
241182
241128
241073
241014
240950
241068
240973
240893
240809
240729
240652
240580
240511
240448
240384
240327
240267
240218
240160
241100
241020
240948
240870
240792
240714
240640
240566
240498
240428
240364
240298
240239
240179
241140
241064
240994
240921
240846
240770
240696
240622
240550
240476
240406
240334
240266
240198
241178
241111
241043
240972
240899
240824
240749
240672
240596
240518
240442
240363
240289
240216
241214
241152
241087
241018
240947
240873
240798
240720
240641
240557
240475
240391
240309
240228
241249
241192
241129
241063
240992
240918
240842
240761
240679
240591
240504
240414
240327
240241
241282
241227
241166
241101
241032
240958
240881
240798
240713
240622
240530
240435
240342
240251
241313
241260
241199
241136
241067
240992
240914
240829
240742
240648
240552
240454
240357
240262
241340
241288
241229
241166
241096
241022
240942
240857
240767
240672
240574
240473
240372
240274
241359
241307
241251
241189
241120
241046
240965
240880
240788
240693
240594
240493
240391
240290
241372
241321
241266
241205
241138
241065
240985
240899
240808
240714
240614
240513
240409
240306
241377
241326
241273
241214
241148
241077
241000
240918
240829
240735
240636
240534
240429
240324
241378
241327
241276
241219
241156
241087
241011
240930
240843
240752
240654
240551
240447
240341
241373
241320
241274
241219
241159
241093
241019
240940
240856
240767
240673
240575
240473
240357
241599
241521
241452
241380
241307
241232
241156
241080
241008
240935
240870
240803
240750
240691
241595
241528
241465
241397
241326
241254
241180
241103
241028
240951
240881
240811
240751
240690
241589
241532
241472
241408
241341
241271
241200
241124
241048
240970
240896
240822
240757
240691
241590
241539
241481
241421
241356
241287
241216
241141
241064
240983
240906
240828
240759
240690
241590
241544
241489
241431
241367
241300
241229
241153
241075
240992
240912
240831
240757
240684
241590
241546
241493
241438
241375
241307
241235
241158
241078
240993
240911
240827
240749
240673
241588
241546
241495
241440
241378
241310
241237
241158
241076
240990
240905
240819
240737
240658
241581
241540
241489
241435
241372
241304
241230
241150
241067
240979
240891
240804
240719
240638
241571
241529
241480
241425
241362
241293
241218
241137
241052
240963
240874
240785
240697
240616
241554
241510
241461
241406
241343
241274
241199
241118
241033
240944
240853
240764
240673
240590
241534
241489
241440
241384
241321
241252
241177
241095
241009
240920
240828
240738
240646
240563
241510
241462
241413
241357
241294
241226
241151
241071
240986
240898
240806
240715
240621
240536
241486
241436
241388
241331
241269
241200
241125
241044
240958
240870
240778
240686
240592
240506
241457
241405
241359
241302
241241
241172
241098
241019
240935
240850
240762
240673
240580
240483
242074
242015
241957
241898
241837
241772
241706
241637
241567
241497
241432
241368
241319
241263
242036
241983
241930
241875
241816
241754
241689
241621
241552
241483
241418
241355
241305
241250
241997
241954
241902
241848
241792
241732
241669
241604
241537
241469
241405
241343
241291
241237
241964
241925
241875
241824
241768
241709
241648
241582
241516
241449
241386
241324
241272
241218
241932
241895
241847
241799
241743
241685
241624
241559
241493
241426
241363
241301
241247
241194
241898
241863
241816
241769
241714
241656
241594
241529
241463
241396
241332
241270
241216
241162
241864
241829
241784
241737
241682
241623
241561
241495
241428
241360
241296
241233
241176
241123
241825
241790
241745
241698
241643
241584
241521
241454
241386
241317
241251
241188
241128
241074
241787
241750
241705
241657
241601
241541
241477
241409
241339
241269
241201
241136
241073
241020
241745
241705
241660
241610
241554
241492
241427
241358
241286
241214
241144
241077
241011
240957
241704
241660
241615
241563
241505
241442
241374
241303
241229
241155
241081
241012
240943
240890
241661
241614
241567
241513
241453
241388
241318
241246
241170
241094
241017
240945
240872
240818
241623
241572
241523
241466
241404
241336
241263
241187
241107
241028
240948
240872
240797
240741
241579
241527
241475
241415
241351
241281
241206
241129
241049
240969
240888
240811
240735
240668
242444
242397
242347
242296
242244
242187
242130
242069
242009
241948
241891
241834
241789
241736
242378
242339
242292
242244
242193
242138
242082
242023
241965
241907
241853
241802
241760
241713
242314
242282
242235
242189
242139
242086
242032
241976
241921
241867
241816
241768
241730
241687
242255
242224
242179
242135
242085
242034
241981
241927
241874
241822
241774
241730
241695
241658
242197
242167
242122
242080
242031
241981
241929
241876
241825
241775
241730
241688
241655
241621
242138
242107
242064
242023
241974
241925
241873
241822
241771
241723
241679
241639
241608
241577
242080
242049
242007
241965
241917
241868
241816
241765
241715
241667
241624
241585
241554
241525
242021
241988
241947
241905
241857
241807
241755
241703
241653
241605
241562
241523
241491
241463
241964
241929
241888
241845
241796
241746
241693
241639
241587
241538
241494
241454
241420
241394
241906
241867
241827
241782
241732
241680
241625
241570
241516
241464
241417
241376
241338
241314
241850
241808
241767
241720
241669
241614
241556
241497
241439
241384
241333
241290
241248
241226
241793
241748
241705
241655
241601
241544
241483
241420
241357
241298
241243
241197
241150
241127
241740
241692
241646
241593
241536
241474
241407
241339
241270
241206
241146
241095
241046
241022
241684
241633
241584
241527
241466
241400
241329
241258
241185
241117
241053
240997
240944
240908
242673
242636
242594
242549
242503
242452
242400
242345
242290
242234
242180
242125
242076
242019
242587
242559
242518
242477
242431
242381
242331
242278
242225
242173
242122
242073
242029
241981
242504
242481
242439
242399
242354
242307
242259
242210
242161
242113
242066
242022
241984
241942
242425
242401
242360
242322
242277
242232
242186
242140
242094
242050
242008
241969
241937
241901
242348
242322
242281
242244
242200
242157
242113
242069
242027
241986
241948
241913
241884
241854
242270
242242
242202
242165
242122
242080
242038
241996
241956
241918
241884
241852
241827
241802
242195
242165
242126
242089
242046
242005
241963
241923
241885
241849
241817
241788
241766
241745
242120
242087
242049
242011
241969
241928
241886
241847
241810
241775
241745
241718
241698
241682
242050
242014
241976
241936
241894
241852
241810
241770
241733
241699
241669
241643
241625
241613
241981
241942
241904
241862
241818
241774
241731
241690
241651
241617
241587
241562
241544
241536
241915
241875
241835
241791
241745
241698
241651
241607
241567
241530
241498
241474
241454
241455
241849
241806
241764
241718
241668
241618
241569
241522
241478
241440
241405
241380
241358
241364
241787
241742
241697
241647
241595
241540
241485
241433
241386
241343
241305
241278
241254
241262
241722
241673
241625
241572
241515
241457
241398
241343
241292
241246
241204
241172
241147
241144
242778
242748
242711
242672
242632
242588
242543
242494
242444
242392
242340
242287
242237
242176
242679
242658
242621
242585
242544
242501
242456
242409
242361
242312
242264
242215
242170
242119
242585
242566
242528
242492
242452
242411
242369
242325
242280
242236
242191
242147
242106
242063
242493
242472
242434
242400
242360
242320
242279
242238
242197
242156
242116
242077
242042
242005
242403
242379
242341
242307
242268
242230
242191
242153
242115
242078
242042
242008
241978
241947
242312
242285
242248
242214
242176
242139
242102
242065
242030
241997
241965
241936
241910
241885
242225
242195
242158
242124
242085
242049
242013
241979
241947
241916
241888
241862
241841
241820
242139
242105
242069
242033
241995
241959
241924
241891
241861
241832
241807
241784
241766
241750
242057
242020
241983
241945
241908
241871
241836
241804
241774
241747
241725
241704
241689
241679
241977
241936
241898
241858
241819
241782
241747
241715
241686
241660
241639
241621
241608
241604
241900
241857
241818
241775
241734
241695
241658
241625
241597
241572
241552
241536
241525
241529
241824
241778
241736
241691
241648
241607
241568
241535
241507
241482
241462
241447
241436
241448
241754
241705
241660
241612
241565
241521
241480
241444
241414
241389
241368
241354
241344
241363
241679
241628
241579
241528
241478
241431
241389
241352
241321
241294
241272
241256
241246
241264
242767
242746
242715
242684
242651
242615
242578
242536
242492
242445
242397
242346
242297
242236
242663
242650
242618
242589
242555
242519
242481
242440
242397
242352
242305
242257
242210
242157
242565
242552
242518
242489
242454
242419
242382
242343
242303
242261
242218
242174
242130
242082
242467
242451
242417
242388
242352
242318
242282
242244
242206
242167
242127
242087
242048
242005
242372
242351
242316
242286
242251
242217
242182
242147
242111
242075
242039
242003
241968
241932
242275
242250
242215
242185
242150
242116
242082
242048
242014
241981
241949
241917
241887
241856
242181
242153
242117
242085
242050
242017
241983
241951
241920
241890
241861
241834
241808
241783
242088
242054
242020
241986
241951
241917
241885
241854
241825
241798
241772
241749
241727
241708
241997
241960
241926
241889
241855
241821
241789
241759
241732
241707
241685
241665
241648
241635
241905
241865
241830
241792
241758
241724
241693
241664
241639
241616
241597
241581
241567
241560
241818
241775
241738
241699
241663
241630
241599
241571
241547
241526
241510
241496
241486
241487
241729
241683
241645
241604
241568
241534
241504
241478
241455
241436
241421
241410
241401
241410
241646
241598
241558
241515
241476
241442
241411
241384
241362
241344
241331
241322
241317
241333
241554
241506
241462
241419
241379
241345
241315
241289
241268
241252
241241
241233
241229
241250
242623
242614
242593
242572
242548
242521
242491
242458
242422
242382
242340
242295
242249
242192
242522
242519
242496
242475
242450
242422
242391
242358
242321
242281
242239
242194
242149
242094
242427
242422
242396
242374
242347
242319
242289
242256
242221
242183
242143
242101
242058
242008
242329
242320
242294
242271
242243
242215
242184
242151
242117
242081
242043
242002
241962
241916
242234
242219
242191
242167
242138
242109
242078
242047
242013
241980
241944
241907
241869
241827
242136
242116
242087
242061
242032
242003
241972
241941
241909
241877
241844
241810
241775
241739
242039
242015
241985
241956
241927
241897
241867
241837
241807
241777
241747
241717
241686
241655
241940
241911
241881
241851
241821
241791
241762
241734
241706
241678
241651
241624
241597
241571
241842
241809
241779
241747
241717
241687
241659
241632
241606
241582
241558
241536
241512
241493
241741
241705
241675
241642
241612
241584
241557
241532
241509
241487
241467
241448
241429
241416
241644
241604
241574
241540
241510
241482
241457
241434
241414
241395
241378
241364
241350
241344
241542
241501
241470
241436
241407
241381
241358
241337
241320
241305
241292
241281
241271
241272
241445
241404
241371
241337
241307
241282
241261
241242
241228
241216
241208
241201
241196
241203
241336
241298
241262
241232
241204
241182
241163
241148
241137
241129
241125
241121
241120
241133
242338
242333
242320
242308
242292
242274
242254
242231
242206
242178
242146
242112
242075
242035
242242
242244
242227
242214
242196
242177
242155
242131
242104
242074
242041
242005
241967
241921
242152
242151
242132
242117
242096
242077
242054
242029
242002
241972
241940
241904
241867
241822
242060
242054
242034
242017
241995
241974
241951
241925
241897
241867
241834
241798
241761
241717
241968
241956
241934
241915
241893
241870
241846
241820
241792
241762
241730
241696
241659
241617
241873
241856
241832
241811
241788
241765
241740
241714
241686
241657
241626
241593
241557
241518
241776
241755
241730
241707
241683
241659
241634
241609
241582
241554
241524
241494
241460
241424
241676
241650
241626
241600
241577
241552
241528
241504
241478
241452
241424
241396
241364
241333
241576
241546
241521
241494
241471
241447
241424
241400
241377
241353
241328
241304
241274
241248
241471
241438
241414
241387
241364
241341
241320
241299
241278
241256
241234
241214
241188
241167
241369
241332
241308
241282
241259
241238
241218
241199
241182
241164
241146
241129
241107
241093
241260
241223
241200
241175
241154
241135
241118
241102
241088
241074
241061
241048
241032
241024
241154
241119
241095
241071
241051
241035
241021
241009
240999
240989
240981
240972
240962
240961
241035
241007
240983
240964
240947
240934
240924
240917
240912
240908
240905
240900
240895
240897
241952
241945
241932
241923
241911
241900
241888
241875
241860
241844
241825
241806
241783
241766
241857
241858
241842
241832
241818
241806
241792
241777
241760
241741
241720
241697
241672
241644
241770
241768
241751
241739
241724
241710
241694
241678
241660
241640
241619
241595
241568
241536
241681
241675
241657
241643
241627
241612
241596
241578
241559
241538
241515
241488
241461
241427
241593
241582
241562
241546
241529
241513
241496
241478
241458
241436
241412
241385
241358
241323
241500
241485
241465
241448
241430
241413
241396
241377
241356
241334
241309
241283
241253
241219
241407
241387
241366
241348
241330
241313
241295
241276
241256
241234
241209
241183
241153
241121
241309
241286
241265
241246
241229
241211
241194
241176
241156
241134
241110
241086
241055
241025
241211
241183
241163
241144
241127
241110
241094
241076
241057
241038
241015
240992
240963
240936
241109
241078
241059
241040
241025
241009
240994
240978
240961
240943
240922
240902
240873
240850
241008
240974
240956
240938
240923
240910
240897
240883
240869
240853
240835
240818
240792
240774
240900
240867
240851
240835
240822
240811
240801
240790
240779
240766
240752
240737
240716
240701
240795
240765
240749
240734
240724
240715
240708
240700
240693
240685
240675
240664
240648
240638
240681
240658
240643
240633
240625
240621
240617
240615
240612
240608
240604
240596
240585
240575
241498
241488
241473
241466
241458
241453
241448
241444
241440
241436
241431
241426
241421
241422
241406
241402
241386
241378
241368
241362
241355
241350
241344
241337
241330
241321
241314
241300
241321
241316
241298
241289
241278
241270
241263
241256
241248
241240
241231
241221
241211
241194
241234
241226
241209
241199
241188
241179
241171
241163
241154
241144
241133
241120
241107
241087
241148
241138
241120
241108
241097
241087
241078
241069
241059
241048
241036
241022
241008
240987
241060
241047
241030
241017
241006
240996
240986
240977
240966
240954
240941
240926
240909
240887
240972
240955
240939
240926
240914
240904
240895
240884
240873
240861
240847
240832
240813
240791
240881
240861
240846
240834
240823
240813
240803
240793
240782
240770
240755
240739
240718
240697
240789
240767
240753
240741
240731
240722
240713
240704
240693
240681
240666
240650
240628
240609
240696
240672
240660
240649
240640
240632
240624
240616
240606
240594
240579
240564
240540
240523
240602
240578
240567
240558
240550
240544
240538
240530
240522
240511
240497
240483
240460
240445
240506
240482
240475
240467
240462
240458
240453
240447
240440
240431
240419
240406
240384
240370
240417
240390
240384
240379
240377
240375
240372
240369
240364
240357
240347
240336
240318
240306
240319
240299
240294
240293
240293
240294
240294
240294
240292
240287
240280
240269
240254
240242
240991
240983
240971
240967
240966
240967
240971
240976
240982
240990
240999
241008
241020
241033
240903
240903
240890
240885
240883
240884
240886
240890
240896
240902
240909
240915
240924
240923
240825
240824
240811
240805
240802
240802
240803
240805
240809
240813
240819
240822
240830
240826
240745
240742
240730
240725
240722
240721
240721
240723
240725
240728
240732
240733
240737
240730
240668
240662
240651
240646
240642
240641
240640
240641
240642
240644
240645
240645
240648
240641
240590
240582
240572
240567
240563
240562
240561
240561
240562
240562
240562
240561
240559
240553
240513
240503
240494
240489
240486
240484
240483
240483
240483
240482
240480
240478
240474
240468
240434
240424
240417
240412
240410
240408
240407
240407
240406
240404
240401
240397
240391
240385
240356
240345
240340
240337
240335
240334
240333
240332
240331
240328
240324
240320
240311
240306
240278
240269
240265
240262
240262
240261
240261
240260
240259
240255
240249
240244
240233
240228
240202
240193
240191
240190
240190
240191
240192
240191
240189
240185
240179
240174
240161
240155
240129
240120
240120
240121
240122
240124
240125
240125
240122
240118
240111
240105
240091
240084
240058
240049
240052
240053
240057
240059
240062
240062
240061
240056
240050
240043
240029
240022
239990
239980
239985
239989
239995
239999
240001
240003
240001
239997
239990
239980
239968
239957
240432
240433
240431
240435
240442
240453
240466
240480
240497
240516
240535
240556
240581
240605
240360
240366
240365
240369
240376
240386
240399
240413
240429
240447
240465
240483
240504
240518
240298
240304
240303
240306
240312
240321
240332
240345
240360
240376
240393
240409
240429
240439
240235
240239
240238
240243
240248
240258
240269
240281
240294
240309
240324
240339
240356
240363
240173
240176
240176
240181
240187
240196
240206
240218
240230
240243
240257
240271
240286
240294
240112
240115
240116
240122
240128
240137
240147
240157
240169
240180
240193
240204
240217
240226
240053
240055
240058
240064
240071
240079
240089
240099
240109
240119
240130
240141
240151
240160
239995
239998
240003
240009
240016
240024
240033
240042
240051
240060
240069
240078
240086
240095
239939
239942
239949
239955
239963
239970
239979
239987
239995
240003
240010
240018
240023
240031
239885
239889
239897
239904
239912
239919
239927
239934
239942
239948
239953
239959
239961
239968
239833
239838
239847
239855
239863
239871
239878
239885
239891
239895
239899
239902
239902
239909
239786
239790
239801
239809
239818
239825
239832
239838
239842
239845
239847
239847
239845
239851
239740
239745
239756
239766
239775
239783
239790
239794
239798
239799
239799
239798
239795
239800
239700
239704
239717
239727
239737
239744
239750
239753
239754
239754
239752
239747
239743
239741
239818
239834
239850
239868
239887
239907
239930
239954
239980
240007
240035
240064
240096
240129
239775
239792
239808
239828
239847
239869
239892
239917
239942
239968
239995
240024
240052
240077
239739
239758
239773
239792
239810
239831
239853
239876
239901
239926
239952
239979
240007
240031
239701
239721
239737
239757
239775
239795
239816
239838
239862
239887
239912
239937
239964
239987
239665
239686
239702
239721
239739
239758
239779
239801
239824
239848
239872
239896
239922
239945
239630
239650
239667
239687
239705
239724
239744
239765
239786
239809
239832
239855
239879
239902
239596
239615
239634
239653
239672
239691
239710
239730
239750
239771
239793
239815
239837
239860
239564
239584
239604
239622
239641
239659
239678
239696
239715
239735
239755
239775
239796
239818
239534
239553
239574
239592
239611
239629
239646
239664
239682
239700
239718
239737
239755
239777
239506
239526
239547
239565
239584
239601
239617
239633
239650
239666
239682
239699
239715
239735
239480
239500
239522
239540
239558
239574
239590
239604
239619
239633
239648
239662
239676
239695
239459
239479
239500
239518
239535
239550
239564
239577
239590
239602
239614
239626
239637
239653
239438
239459
239480
239498
239514
239528
239541
239552
239562
239572
239582
239591
239601
239616
239428
239447
239466
239483
239497
239509
239519
239528
239535
239542
239549
239556
239563
239570
239157
239193
239228
239261
239294
239325
239357
239389
239423
239458
239493
239529
239563
239601
239149
239186
239221
239256
239288
239322
239355
239389
239423
239457
239493
239529
239565
239601
239146
239183
239218
239253
239286
239318
239351
239384
239417
239451
239486
239522
239558
239593
239141
239179
239214
239248
239282
239315
239348
239380
239412
239446
239480
239514
239549
239584
239138
239175
239211
239245
239278
239310
239342
239374
239406
239439
239472
239505
239539
239574
239133
239170
239206
239240
239273
239305
239337
239368
239400
239431
239464
239497
239530
239563
239129
239167
239203
239236
239269
239300
239331
239361
239392
239423
239454
239486
239518
239550
239126
239164
239199
239233
239264
239295
239325
239354
239384
239414
239444
239474
239505
239537
239124
239161
239197
239229
239260
239290
239318
239347
239375
239403
239432
239461
239491
239521
239125
239161
239195
239227
239257
239285
239313
239339
239366
239393
239420
239447
239475
239505
239125
239161
239195
239225
239254
239281
239307
239331
239356
239381
239406
239432
239458
239487
239128
239162
239195
239225
239252
239277
239301
239324
239347
239369
239392
239416
239440
239467
239130
239165
239196
239225
239250
239273
239295
239316
239336
239357
239378
239399
239421
239445
239142
239174
239202
239228
239250
239271
239290
239308
239325
239343
239361
239379
239399
239421
238466
238519
238568
238614
238658
238700
238741
238782
238823
238862
238903
238943
238982
239028
238496
238544
238597
238644
238691
238735
238779
238821
238863
238904
238944
238985
239025
239069
238530
238579
238633
238680
238727
238770
238814
238855
238896
238937
238977
239017
239056
239100
238559
238609
238662
238710
238757
238801
238845
238888
238929
238970
239010
239051
239090
239133
238589
238640
238693
238741
238788
238832
238875
238916
238957
238997
239037
239077
239116
239158
238616
238668
238720
238768
238814
238859
238902
238944
238984
239024
239064
239103
239143
239183
238643
238697
238747
238795
238841
238884
238927
238967
239007
239047
239086
239124
239163
239202
238671
238723
238773
238820
238865
238908
238950
238990
239029
239068
239106
239144
239182
239220
238697
238750
238798
238844
238888
238930
238970
239009
239047
239085
239122
239159
239197
239234
238725
238776
238823
238868
238910
238951
238989
239027
239064
239100
239137
239173
239209
239246
238752
238801
238846
238890
238930
238969
239006
239042
239078
239112
239148
239183
239219
239254
238779
238826
238869
238911
238949
238986
239022
239056
239090
239124
239157
239191
239224
239260
238807
238852
238892
238931
238967
239002
239036
239068
239100
239131
239163
239195
239227
239261
238838
238881
238917
238953
238985
239017
239048
239078
239107
239137
239166
239197
239228
239265
237804
237855
237910
237961
238011
238058
238104
238148
238190
238231
238272
238312
238352
238398
237861
237909
237968
238021
238074
238124
238173
238220
238264
238307
238350
238391
238431
238480
237924
237975
238036
238089
238142
238192
238241
238287
238331
238374
238416
238458
238498
238545
237982
238035
238095
238149
238204
238255
238305
238352
238398
238441
238484
238527
238567
238613
238040
238096
238156
238211
238266
238317
238366
238413
238458
238502
238544
238587
238628
238672
238097
238155
238214
238269
238323
238374
238424
238472
238517
238561
238604
238647
238688
238731
238153
238212
238270
238325
238378
238429
238479
238526
238571
238615
238658
238700
238742
238783
238208
238267
238324
238378
238431
238482
238530
238577
238622
238666
238709
238750
238793
238833
238261
238320
238374
238429
238480
238530
238578
238624
238669
238712
238754
238796
238838
238877
238314
238372
238424
238477
238527
238576
238623
238669
238712
238755
238797
238837
238880
238918
238365
238421
238471
238522
238571
238619
238665
238709
238752
238793
238835
238875
238918
238956
238416
238469
238517
238566
238613
238659
238703
238746
238788
238829
238870
238910
238951
238991
238463
238514
238559
238606
238651
238695
238738
238780
238821
238861
238902
238941
238981
239024
238514
238561
238603
238647
238688
238730
238771
238810
238850
238889
238928
238969
239009
239054
237238
237276
237322
237366
237410
237452
237493
237532
237569
237606
237641
237675
237310
237347
237397
237444
237491
237535
237578
237620
237660
237699
237736
237774
237388
237428
237480
237527
237575
237620
237664
237706
237746
237785
237823
237861
237464
237506
237559
237606
237656
237702
237747
237791
237832
237873
237912
237951
237538
237585
237637
237686
237736
237783
237829
237873
237915
237956
237996
238035
237614
237663
237715
237764
237814
237862
237908
237953
237996
238038
238079
238119
237688
237739
237790
237840
237890
237938
237984
238030
238073
238116
238157
238197
237763
237814
237864
237914
237963
238011
238058
238104
238148
238191
238232
238273
237834
237885
237934
237984
238033
238081
238128
238174
238219
238261
238304
238344
237905
237956
238003
238053
238101
238149
238195
238241
238286
238329
238371
238412
237972
238022
238068
238117
238165
238213
238259
238305
238349
238393
238436
238476
238040
238088
238133
238181
238227
238274
238320
238365
238409
238452
238495
238535
238101
238149
238192
238239
238284
238330
238376
238421
238466
238509
238553
238594
238168
238212
238254
238298
238342
238385
238430
238473
238517
238559
238602
238645
239936
239945
239944
239950
239967
239989
239830
239814
239790
239775
239775
239779
239756
239714
239670
239630
239605
239591
239688
239624
239562
239504
239461
239433
240473
240495
240503
240530
240563
240610
240354
240354
240350
240358
240382
240421
240267
240239
240212
240199
240208
240232
240182
240128
240085
240053
240046
240056
240106
240033
239974
239925
239901
239897
240037
239952
239880
239821
239780
239764
239976
239886
239805
239739
239687
239659
241054
241085
241105
241146
241191
241252
240954
240965
240980
241014
241060
241121
240863
240857
240858
240875
240910
240965
240770
240744
240731
240733
240754
240800
240680
240636
240605
240592
240601
240634
240594
240536
240490
240463
240459
240480
240515
240449
240391
240352
240334
240343
240443
240372
240308
240262
240233
240229
240381
240309
240243
240195
240158
240141
240322
240254
240192
240144
240106
240082
240274
240209
240154
240109
240073
240049
240226
240167
240122
240084
240054
240033
240184
240128
240091
240061
240039
240023
240130
240083
240061
240041
240028
240018
241618
241666
241704
241757
241811
241873
241540
241581
241623
241681
241741
241812
241467
241498
241535
241587
241645
241718
241386
241406
241432
241475
241527
241595
241303
241308
241320
241349
241391
241451
241217
241208
241206
241219
241248
241298
241133
241111
241095
241094
241108
241146
241051
241018
240991
240978
240981
241004
240976
240935
240900
240879
240871
240881
240903
240858
240821
240795
240780
240779
240842
240794
240759
240732
240713
240705
240780
240735
240704
240680
240662
240652
240735
240689
240663
240642
240628
240621
240676
240634
240621
240608
240601
240596
242116
242176
242224
242282
242337
242396
242059
242122
242181
242251
242319
242388
242005
242066
242129
242204
242277
242354
241941
242000
242062
242135
242208
242284
241875
241927
241981
242046
242113
242184
241803
241844
241888
241940
241996
242058
241729
241756
241786
241822
241865
241916
241653
241665
241680
241700
241728
241766
241578
241575
241576
241582
241595
241618
241501
241488
241478
241472
241472
241483
241434
241411
241394
241379
241370
241369
241368
241339
241319
241300
241287
241278
241321
241288
241267
241247
241232
241219
241265
241226
241212
241196
241185
241177
242499
242561
242612
242669
242719
242770
242455
242527
242592
242662
242726
242788
242415
242493
242566
242645
242719
242790
242364
242446
242524
242608
242687
242763
242310
242392
242470
242552
242631
242705
242250
242326
242400
242476
242549
242617
242187
242253
242317
242382
242444
242502
242121
242172
242224
242273
242320
242365
242054
242088
242124
242155
242185
242214
241986
242003
242021
242035
242047
242061
241921
241920
241924
241921
241917
241917
241855
241842
241833
241818
241805
241792
241803
241778
241761
241739
241718
241697
241746
241711
241693
241670
241650
241629
242743
242805
242858
242913
242959
243003
242706
242785
242853
242921
242981
243037
242676
242765
242845
242923
242992
243056
242635
242732
242819
242905
242983
243052
242590
242690
242781
242870
242950
243021
242537
242636
242727
242814
242893
242961
242481
242572
242658
242739
242812
242875
242421
242500
242576
242646
242709
242763
242358
242421
242483
242538
242587
242628
242294
242338
242383
242420
242452
242478
242229
242254
242281
242299
242313
242322
242165
242171
242180
242180
242178
242173
242106
242095
242089
242075
242058
242037
242043
242016
242001
241977
241953
241925
242858
242923
242979
243032
243077
243117
242828
242912
242983
243053
243112
243164
242805
242903
242987
243067
243136
243195
242772
242879
242975
243063
243138
243203
242735
242848
242948
243041
243122
243192
242690
242804
242906
242999
243081
243149
242642
242750
242849
242940
243018
243084
242588
242686
242778
242861
242934
242994
242530
242614
242695
242766
242829
242881
242470
242536
242602
242658
242708
242748
242407
242454
242503
242542
242575
242600
242343
242370