/*--------------------------------*- C++ -*----------------------------------*\
| =========                 |                                                 |
| \\      /  F ield         | OpenFOAM: The Open Source CFD Toolbox           |
|  \\    /   O peration     | Version:  v2106                                 |
|   \\  /    A nd           | Website:  www.openfoam.com                      |
|    \\/     M anipulation  |                                                 |
\*---------------------------------------------------------------------------*/
FoamFile
{
    version     2.0;
    format      ascii;
    arch        "LSB;label=32;scalar=64";
    class       volScalarField;
    location    "0.000215";
    object      rho;
}
// * * * * * * * * * * * * * * * * * * * * * * * * * * * * * * * * * * * * * //

dimensions      [1 -3 0 0 0 0 0];

internalField   nonuniform List<scalar> 
17924
(
2.71231
2.71152
2.71098
2.71045
2.71648
2.71562
2.71498
2.71434
2.71378
2.71326
2.71279
2.71705
2.71629
2.71567
2.71504
2.71446
2.71392
2.71341
2.71763
2.71692
2.71631
2.71569
2.71512
2.71457
2.71404
2.71821
2.71755
2.71696
2.71635
2.71577
2.71519
2.71465
2.71875
2.71814
2.71755
2.71696
2.71638
2.7158
2.71524
2.71928
2.71869
2.71813
2.71755
2.71697
2.71638
2.71581
2.71978
2.71923
2.71867
2.7181
2.71753
2.71695
2.71637
2.72027
2.71974
2.7192
2.71865
2.71808
2.7175
2.71691
2.72075
2.72025
2.71972
2.71918
2.71862
2.71805
2.71745
2.72121
2.72074
2.72022
2.7197
2.71915
2.71858
2.71799
2.72165
2.7212
2.72071
2.72021
2.71967
2.7191
2.7185
2.72202
2.72159
2.72113
2.72065
2.72014
2.71959
2.71901
2.72235
2.72194
2.72151
2.72105
2.72057
2.72006
2.71949
2.72264
2.7222
2.72181
2.72138
2.72093
2.72046
2.71994
2.72089
2.72013
2.71949
2.71881
2.71817
2.71755
2.71697
2.71641
2.7159
2.71538
2.71492
2.71444
2.71404
2.71358
2.72115
2.72051
2.71993
2.7193
2.71867
2.71805
2.71744
2.71685
2.7163
2.71574
2.71522
2.71469
2.71421
2.71373
2.72147
2.72086
2.7203
2.71971
2.71911
2.7185
2.7179
2.7173
2.71672
2.71612
2.71556
2.71498
2.71443
2.71388
2.72178
2.72124
2.72069
2.72012
2.71953
2.71893
2.71832
2.7177
2.71709
2.71646
2.71585
2.71522
2.71462
2.71403
2.72208
2.72157
2.72105
2.72049
2.71992
2.71932
2.71872
2.71809
2.71745
2.71678
2.71612
2.71544
2.71478
2.71413
2.72236
2.72189
2.72139
2.72085
2.72028
2.71969
2.71907
2.71842
2.71776
2.71705
2.71635
2.71563
2.71492
2.71423
2.72262
2.72218
2.72169
2.72116
2.7206
2.72001
2.71939
2.71872
2.71804
2.7173
2.71656
2.7158
2.71505
2.71431
2.72287
2.72244
2.72195
2.72144
2.72088
2.72029
2.71965
2.71897
2.71826
2.71751
2.71674
2.71595
2.71516
2.7144
2.72309
2.72267
2.7222
2.72169
2.72112
2.72052
2.71988
2.71919
2.71847
2.7177
2.71691
2.7161
2.71529
2.7145
2.72324
2.72282
2.72237
2.72187
2.72131
2.72071
2.72007
2.71938
2.71864
2.71787
2.71707
2.71626
2.71543
2.71463
2.72334
2.72293
2.72249
2.722
2.72146
2.72087
2.72022
2.71954
2.7188
2.71804
2.71724
2.71642
2.71558
2.71475
2.72338
2.72297
2.72254
2.72207
2.72154
2.72097
2.72034
2.71968
2.71897
2.71821
2.71742
2.71659
2.71575
2.7149
2.72339
2.72298
2.72257
2.72211
2.7216
2.72105
2.72044
2.71978
2.71908
2.71835
2.71756
2.71673
2.71589
2.71504
2.72335
2.72293
2.72256
2.72211
2.72163
2.72109
2.7205
2.71986
2.71919
2.71847
2.71771
2.71692
2.7161
2.71517
2.72517
2.72454
2.72399
2.72341
2.72282
2.72221
2.72161
2.72099
2.72041
2.71983
2.7193
2.71876
2.71834
2.71786
2.72514
2.7246
2.72409
2.72354
2.72298
2.72239
2.72179
2.72118
2.72057
2.71995
2.71939
2.71882
2.71834
2.71785
2.72509
2.72463
2.72415
2.72363
2.72309
2.72253
2.72195
2.72135
2.72074
2.7201
2.71951
2.71891
2.71839
2.71786
2.7251
2.72469
2.72422
2.72374
2.72321
2.72266
2.72209
2.72148
2.72086
2.72021
2.71959
2.71896
2.7184
2.71785
2.7251
2.72473
2.72428
2.72382
2.72331
2.72276
2.72219
2.72158
2.72095
2.72028
2.71964
2.71898
2.71839
2.7178
2.7251
2.72475
2.72432
2.72387
2.72337
2.72282
2.72224
2.72162
2.72097
2.72029
2.71963
2.71896
2.71833
2.71771
2.72508
2.72475
2.72433
2.72389
2.72339
2.72284
2.72225
2.72162
2.72096
2.72027
2.71958
2.71889
2.71823
2.71759
2.72503
2.7247
2.72429
2.72385
2.72335
2.7228
2.7222
2.72156
2.72089
2.72018
2.71947
2.71877
2.71808
2.71743
2.72494
2.72461
2.72421
2.72377
2.72326
2.72271
2.7221
2.72145
2.72077
2.72005
2.71933
2.71862
2.71791
2.71725
2.72481
2.72446
2.72406
2.72362
2.72311
2.72256
2.72195
2.7213
2.72061
2.71989
2.71916
2.71845
2.71771
2.71705
2.72465
2.72428
2.72389
2.72344
2.72293
2.72238
2.72177
2.72111
2.72042
2.7197
2.71896
2.71824
2.71749
2.71683
2.72445
2.72407
2.72368
2.72322
2.72272
2.72217
2.72156
2.72092
2.72023
2.71952
2.71879
2.71805
2.71729
2.71661
2.72426
2.72386
2.72347
2.72302
2.72251
2.72196
2.72135
2.7207
2.72001
2.7193
2.71856
2.71782
2.71706
2.71637
2.72403
2.72361
2.72324
2.72278
2.72229
2.72174
2.72114
2.7205
2.71983
2.71914
2.71843
2.71771
2.71696
2.71618
2.72899
2.72852
2.72806
2.72758
2.72709
2.72657
2.72603
2.72547
2.72491
2.72435
2.72383
2.72331
2.72291
2.72247
2.72869
2.72827
2.72784
2.72739
2.72692
2.72642
2.72589
2.72535
2.72479
2.72423
2.72371
2.72321
2.7228
2.72236
2.72838
2.72803
2.72761
2.72718
2.72672
2.72624
2.72574
2.72521
2.72467
2.72412
2.72361
2.72311
2.72269
2.72225
2.72811
2.7278
2.72739
2.72698
2.72653
2.72606
2.72556
2.72504
2.72451
2.72397
2.72346
2.72296
2.72254
2.72211
2.72785
2.72756
2.72717
2.72678
2.72633
2.72587
2.72537
2.72485
2.72432
2.72378
2.72327
2.72277
2.72234
2.72191
2.72758
2.72729
2.72692
2.72654
2.7261
2.72563
2.72513
2.72461
2.72407
2.72353
2.72302
2.72252
2.72208
2.72165
2.7273
2.72702
2.72666
2.72628
2.72584
2.72537
2.72486
2.72433
2.72379
2.72325
2.72273
2.72222
2.72177
2.72134
2.72699
2.72671
2.72635
2.72597
2.72553
2.72505
2.72454
2.724
2.72345
2.7229
2.72237
2.72186
2.72138
2.72095
2.72668
2.72639
2.72603
2.72564
2.72519
2.72471
2.72419
2.72364
2.72308
2.72251
2.72196
2.72144
2.72094
2.7205
2.72634
2.72602
2.72567
2.72526
2.72481
2.72431
2.72378
2.72323
2.72265
2.72208
2.72151
2.72097
2.72043
2.72
2.72601
2.72567
2.7253
2.72488
2.72442
2.72391
2.72336
2.72279
2.72219
2.7216
2.721
2.72044
2.71988
2.71946
2.72567
2.7253
2.72492
2.72448
2.724
2.72348
2.72291
2.72233
2.72172
2.72111
2.72049
2.71991
2.71932
2.71888
2.72536
2.72496
2.72456
2.7241
2.7236
2.72305
2.72247
2.72185
2.72121
2.72058
2.71993
2.71932
2.71871
2.71826
2.72501
2.72459
2.72418
2.72369
2.72317
2.72261
2.72201
2.72139
2.72074
2.7201
2.71945
2.71882
2.71821
2.71768
2.73197
2.73159
2.73119
2.73078
2.73036
2.72991
2.72944
2.72896
2.72847
2.72798
2.72752
2.72707
2.7267
2.72627
2.73144
2.73112
2.73075
2.73037
2.72995
2.72951
2.72906
2.72858
2.72812
2.72765
2.72722
2.7268
2.72647
2.72609
2.73093
2.73067
2.73029
2.72992
2.72952
2.72909
2.72866
2.72821
2.72776
2.72733
2.72692
2.72653
2.72623
2.72588
2.73045
2.7302
2.72984
2.72949
2.72909
2.72867
2.72825
2.72781
2.72738
2.72697
2.72658
2.72623
2.72595
2.72564
2.72998
2.72974
2.72938
2.72904
2.72865
2.72824
2.72783
2.7274
2.72699
2.72659
2.72622
2.72589
2.72562
2.72535
2.72951
2.72926
2.72892
2.72858
2.72819
2.72779
2.72738
2.72696
2.72656
2.72617
2.72582
2.72549
2.72524
2.72499
2.72905
2.72879
2.72846
2.72812
2.72773
2.72733
2.72692
2.72651
2.7261
2.72572
2.72538
2.72506
2.72481
2.72457
2.72857
2.7283
2.72797
2.72763
2.72725
2.72685
2.72643
2.72601
2.72561
2.72522
2.72487
2.72456
2.7243
2.72408
2.72811
2.72783
2.7275
2.72715
2.72676
2.72635
2.72592
2.7255
2.72508
2.72468
2.72432
2.724
2.72373
2.72352
2.72764
2.72733
2.72701
2.72664
2.72625
2.72583
2.72538
2.72494
2.7245
2.72409
2.72371
2.72338
2.72307
2.72287
2.72719
2.72686
2.72653
2.72614
2.72573
2.72529
2.72483
2.72435
2.72388
2.72344
2.72303
2.72268
2.72234
2.72217
2.72673
2.72637
2.72603
2.72562
2.72519
2.72473
2.72423
2.72373
2.72322
2.72275
2.7223
2.72194
2.72155
2.72137
2.7263
2.72592
2.72555
2.72512
2.72466
2.72416
2.72363
2.72308
2.72252
2.72201
2.72152
2.72111
2.72072
2.72052
2.72586
2.72545
2.72505
2.72459
2.7241
2.72357
2.723
2.72242
2.72184
2.72129
2.72077
2.72032
2.7199
2.71961
2.73381
2.73351
2.73318
2.73282
2.73245
2.73204
2.73162
2.73118
2.73073
2.73028
2.72984
2.72941
2.72901
2.72855
2.73312
2.73289
2.73257
2.73223
2.73186
2.73147
2.73106
2.73063
2.73021
2.72979
2.72938
2.72898
2.72864
2.72825
2.73246
2.73226
2.73193
2.73161
2.73125
2.73087
2.73048
2.73009
2.72969
2.72931
2.72893
2.72858
2.72827
2.72794
2.73182
2.73162
2.73129
2.73099
2.73063
2.73027
2.7299
2.72952
2.72916
2.7288
2.72846
2.72815
2.72789
2.7276
2.7312
2.73099
2.73066
2.73036
2.73001
2.72966
2.72931
2.72896
2.72861
2.72829
2.72798
2.7277
2.72747
2.72722
2.73057
2.73034
2.73002
2.72973
2.72938
2.72905
2.7287
2.72837
2.72805
2.72774
2.72746
2.72721
2.72701
2.7268
2.72997
2.72973
2.72941
2.72911
2.72877
2.72844
2.7281
2.72778
2.72747
2.72719
2.72693
2.72669
2.72652
2.72635
2.72936
2.7291
2.72879
2.72849
2.72815
2.72782
2.72748
2.72717
2.72687
2.72659
2.72635
2.72613
2.72597
2.72584
2.7288
2.72851
2.72821
2.72789
2.72754
2.72721
2.72687
2.72655
2.72625
2.72597
2.72574
2.72553
2.72538
2.72528
2.72825
2.72793
2.72763
2.72729
2.72693
2.72658
2.72623
2.7259
2.72559
2.72531
2.72507
2.72487
2.72472
2.72467
2.72772
2.72739
2.72707
2.72672
2.72635
2.72597
2.72559
2.72524
2.72491
2.72462
2.72436
2.72417
2.72401
2.72401
2.72718
2.72684
2.7265
2.72613
2.72573
2.72533
2.72493
2.72455
2.7242
2.72389
2.72361
2.72341
2.72323
2.72328
2.72669
2.72632
2.72596
2.72556
2.72514
2.7247
2.72426
2.72384
2.72345
2.72311
2.72281
2.72259
2.7224
2.72246
2.72616
2.72577
2.72538
2.72496
2.7245
2.72403
2.72356
2.72311
2.7227
2.72233
2.72199
2.72173
2.72153
2.72151
2.73466
2.73442
2.73412
2.73381
2.73348
2.73313
2.73276
2.73237
2.73197
2.73155
2.73113
2.7307
2.7303
2.72982
2.73386
2.73369
2.7334
2.73311
2.73278
2.73243
2.73207
2.73169
2.73131
2.73091
2.73052
2.73013
2.72976
2.72936
2.73311
2.73295
2.73264
2.73236
2.73203
2.7317
2.73136
2.73101
2.73066
2.7303
2.72994
2.72958
2.72925
2.7289
2.73236
2.7322
2.73189
2.73162
2.73129
2.73097
2.73065
2.73031
2.72998
2.72965
2.72933
2.72902
2.72874
2.72844
2.73164
2.73145
2.73114
2.73087
2.73055
2.73025
2.72994
2.72963
2.72932
2.72902
2.72874
2.72847
2.72822
2.72797
2.73091
2.73069
2.73039
2.73012
2.72981
2.72951
2.72922
2.72893
2.72864
2.72837
2.72812
2.72788
2.72768
2.72747
2.73021
2.72997
2.72967
2.7294
2.72909
2.72879
2.72851
2.72823
2.72797
2.72772
2.7275
2.72729
2.72712
2.72695
2.72951
2.72925
2.72895
2.72866
2.72836
2.72807
2.72779
2.72753
2.72728
2.72705
2.72684
2.72666
2.72652
2.72639
2.72886
2.72856
2.72827
2.72796
2.72766
2.72736
2.72708
2.72682
2.72658
2.72637
2.72618
2.72602
2.7259
2.72582
2.72821
2.72789
2.72758
2.72726
2.72694
2.72664
2.72636
2.7261
2.72587
2.72567
2.72549
2.72535
2.72525
2.72522
2.7276
2.72725
2.72693
2.72659
2.72626
2.72594
2.72565
2.72538
2.72516
2.72496
2.72479
2.72466
2.72457
2.72461
2.72699
2.72661
2.72627
2.72591
2.72557
2.72523
2.72493
2.72466
2.72443
2.72423
2.72407
2.72395
2.72386
2.72395
2.72642
2.72603
2.72566
2.72528
2.7249
2.72454
2.72421
2.72393
2.72369
2.72348
2.72332
2.7232
2.72312
2.72327
2.72582
2.72541
2.72501
2.7246
2.72419
2.72382
2.72348
2.72318
2.72293
2.72271
2.72254
2.72241
2.72233
2.72248
2.73457
2.7344
2.73415
2.7339
2.73364
2.73335
2.73305
2.73271
2.73236
2.73198
2.73159
2.73118
2.73079
2.7303
2.73373
2.73362
2.73337
2.73314
2.73286
2.73257
2.73227
2.73194
2.73159
2.73123
2.73086
2.73047
2.73009
2.72966
2.73294
2.73284
2.73257
2.73233
2.73205
2.73177
2.73148
2.73116
2.73084
2.7305
2.73015
2.7298
2.72945
2.72906
2.73216
2.73203
2.73175
2.73152
2.73124
2.73096
2.73067
2.73037
2.73006
2.72974
2.72942
2.7291
2.72878
2.72844
2.73139
2.73122
2.73094
2.7307
2.73042
2.73015
2.72986
2.72958
2.72929
2.729
2.72871
2.72842
2.72814
2.72785
2.73061
2.73041
2.73013
2.72988
2.7296
2.72933
2.72906
2.72879
2.72852
2.72825
2.72799
2.72774
2.72749
2.72724
2.72986
2.72963
2.72934
2.72908
2.7288
2.72853
2.72827
2.72801
2.72776
2.72751
2.72728
2.72706
2.72685
2.72666
2.7291
2.72884
2.72856
2.72828
2.72801
2.72774
2.72748
2.72723
2.72699
2.72677
2.72657
2.72638
2.72621
2.72605
2.72838
2.72808
2.7278
2.72751
2.72723
2.72696
2.7267
2.72646
2.72624
2.72604
2.72587
2.72571
2.72557
2.72546
2.72764
2.72732
2.72703
2.72673
2.72645
2.72618
2.72593
2.7257
2.7255
2.72531
2.72516
2.72502
2.72491
2.72486
2.72694
2.72659
2.72629
2.72598
2.72569
2.72542
2.72517
2.72495
2.72476
2.72459
2.72445
2.72434
2.72426
2.72427
2.72622
2.72585
2.72554
2.72521
2.72492
2.72465
2.72441
2.72419
2.72401
2.72386
2.72374
2.72365
2.72358
2.72365
2.72555
2.72517
2.72484
2.7245
2.72418
2.7239
2.72366
2.72344
2.72326
2.72312
2.72302
2.72294
2.7229
2.72303
2.72481
2.72442
2.72407
2.72372
2.7234
2.72313
2.72288
2.72268
2.72251
2.72237
2.72229
2.72222
2.72219
2.72236
2.73341
2.73334
2.73317
2.733
2.73281
2.73259
2.73235
2.73208
2.73179
2.73147
2.73114
2.73077
2.7304
2.72994
2.7326
2.73257
2.73239
2.73222
2.73202
2.73179
2.73155
2.73128
2.73098
2.73066
2.73033
2.72996
2.7296
2.72916
2.73183
2.73179
2.73159
2.73141
2.73119
2.73097
2.73072
2.73046
2.73018
2.72987
2.72955
2.72921
2.72886
2.72847
2.73105
2.73098
2.73076
2.73058
2.73035
2.73013
2.72988
2.72962
2.72934
2.72905
2.72874
2.72842
2.72809
2.72772
2.73028
2.73016
2.72994
2.72974
2.72951
2.72928
2.72903
2.72878
2.72851
2.72824
2.72795
2.72765
2.72735
2.72701
2.72949
2.72933
2.7291
2.72889
2.72866
2.72842
2.72818
2.72793
2.72767
2.72741
2.72714
2.72687
2.72659
2.7263
2.72872
2.72852
2.72828
2.72805
2.72781
2.72757
2.72733
2.72709
2.72685
2.72661
2.72636
2.72612
2.72587
2.72562
2.72792
2.72768
2.72744
2.7272
2.72696
2.72672
2.72649
2.72626
2.72603
2.72581
2.72559
2.72538
2.72516
2.72495
2.72713
2.72686
2.72662
2.72636
2.72612
2.72588
2.72566
2.72544
2.72523
2.72503
2.72484
2.72466
2.72447
2.72432
2.72632
2.72602
2.72578
2.72552
2.72528
2.72505
2.72484
2.72463
2.72445
2.72427
2.72411
2.72396
2.7238
2.7237
2.72553
2.72522
2.72497
2.7247
2.72446
2.72423
2.72403
2.72384
2.72368
2.72353
2.7234
2.72328
2.72316
2.72312
2.72472
2.72438
2.72413
2.72386
2.72363
2.72342
2.72323
2.72307
2.72293
2.7228
2.7227
2.72261
2.72253
2.72254
2.72393
2.7236
2.72333
2.72306
2.72282
2.72262
2.72245
2.7223
2.72219
2.72209
2.72202
2.72196
2.72192
2.72198
2.72306
2.72275
2.72246
2.72221
2.72199
2.72181
2.72166
2.72154
2.72145
2.72139
2.72135
2.72133
2.72131
2.72142
2.73112
2.73108
2.73098
2.73087
2.73075
2.7306
2.73044
2.73026
2.73006
2.72983
2.72958
2.7293
2.729
2.72868
2.73034
2.73036
2.73023
2.73012
2.72997
2.72982
2.72965
2.72945
2.72924
2.72899
2.72873
2.72844
2.72813
2.72776
2.72962
2.72961
2.72946
2.72934
2.72918
2.72902
2.72883
2.72864
2.72842
2.72818
2.72792
2.72763
2.72733
2.72696
2.72888
2.72883
2.72867
2.72853
2.72836
2.72819
2.728
2.7278
2.72757
2.72733
2.72707
2.72677
2.72648
2.72612
2.72814
2.72805
2.72787
2.72772
2.72753
2.72735
2.72716
2.72695
2.72672
2.72649
2.72623
2.72595
2.72566
2.72532
2.72738
2.72724
2.72705
2.72688
2.72669
2.72651
2.72631
2.7261
2.72587
2.72564
2.72539
2.72512
2.72484
2.72452
2.7266
2.72642
2.72623
2.72604
2.72585
2.72565
2.72546
2.72525
2.72503
2.72481
2.72457
2.72433
2.72405
2.72377
2.72579
2.72558
2.72539
2.72518
2.72499
2.7248
2.7246
2.7244
2.7242
2.72399
2.72376
2.72354
2.72328
2.72303
2.72498
2.72474
2.72454
2.72433
2.72414
2.72395
2.72376
2.72357
2.72338
2.72319
2.72299
2.72279
2.72256
2.72235
2.72414
2.72387
2.72368
2.72347
2.72328
2.7231
2.72293
2.72275
2.72258
2.72241
2.72224
2.72207
2.72186
2.72169
2.72332
2.72303
2.72283
2.72262
2.72244
2.72227
2.72211
2.72195
2.72181
2.72167
2.72152
2.72139
2.72121
2.7211
2.72244
2.72214
2.72196
2.72176
2.72159
2.72144
2.7213
2.72117
2.72106
2.72095
2.72084
2.72074
2.7206
2.72054
2.72159
2.72131
2.72111
2.72092
2.72076
2.72063
2.72052
2.72042
2.72034
2.72026
2.72019
2.72012
2.72004
2.72003
2.72063
2.72041
2.72021
2.72006
2.71992
2.71982
2.71974
2.71968
2.71964
2.71961
2.71958
2.71955
2.71951
2.71952
2.72801
2.72796
2.72785
2.72778
2.72768
2.7276
2.7275
2.72739
2.72728
2.72714
2.72699
2.72684
2.72665
2.72652
2.72725
2.72725
2.72713
2.72705
2.72694
2.72684
2.72673
2.72661
2.72647
2.72632
2.72615
2.72596
2.72576
2.72554
2.72655
2.72653
2.72639
2.7263
2.72617
2.72606
2.72594
2.72581
2.72567
2.72551
2.72533
2.72514
2.72492
2.72467
2.72583
2.72578
2.72564
2.72553
2.7254
2.72528
2.72515
2.72501
2.72485
2.72468
2.72449
2.72428
2.72406
2.72379
2.72512
2.72503
2.72487
2.72475
2.72461
2.72448
2.72434
2.7242
2.72403
2.72386
2.72367
2.72345
2.72323
2.72295
2.72438
2.72425
2.72409
2.72395
2.72381
2.72368
2.72354
2.72339
2.72322
2.72304
2.72284
2.72263
2.72239
2.72211
2.72363
2.72346
2.7233
2.72315
2.72301
2.72287
2.72272
2.72257
2.72241
2.72223
2.72203
2.72183
2.72158
2.72132
2.72284
2.72265
2.72248
2.72233
2.72219
2.72205
2.72191
2.72176
2.7216
2.72143
2.72124
2.72104
2.72079
2.72055
2.72205
2.72182
2.72166
2.72151
2.72137
2.72124
2.7211
2.72096
2.72081
2.72065
2.72047
2.72029
2.72005
2.71983
2.72123
2.72097
2.72082
2.72067
2.72055
2.72042
2.7203
2.72017
2.72004
2.71989
2.71972
2.71956
2.71933
2.71914
2.72041
2.72014
2.71999
2.71985
2.71973
2.71962
2.71952
2.7194
2.71929
2.71916
2.71902
2.71888
2.71867
2.71853
2.71954
2.71928
2.71915
2.71902
2.71892
2.71882
2.71874
2.71865
2.71857
2.71846
2.71835
2.71823
2.71806
2.71794
2.7187
2.71846
2.71833
2.71821
2.71812
2.71805
2.71799
2.71793
2.71788
2.71781
2.71773
2.71764
2.71751
2.71744
2.71778
2.71759
2.71747
2.71739
2.71733
2.71729
2.71727
2.71724
2.71722
2.71719
2.71715
2.71709
2.717
2.71693
2.72436
2.72428
2.72416
2.7241
2.72404
2.72399
2.72396
2.72392
2.72389
2.72386
2.72382
2.72378
2.72374
2.72375
2.72362
2.72359
2.72346
2.72339
2.72332
2.72326
2.72321
2.72317
2.72312
2.72307
2.72301
2.72294
2.72287
2.72277
2.72293
2.72289
2.72275
2.72267
2.72259
2.72252
2.72247
2.72241
2.72235
2.72228
2.72221
2.72213
2.72205
2.72191
2.72223
2.72217
2.72203
2.72195
2.72186
2.72179
2.72172
2.72166
2.72159
2.72151
2.72142
2.72132
2.72121
2.72105
2.72154
2.72146
2.72132
2.72122
2.72113
2.72105
2.72098
2.7209
2.72082
2.72074
2.72064
2.72053
2.72041
2.72025
2.72084
2.72072
2.72059
2.72049
2.7204
2.72032
2.72024
2.72016
2.72007
2.71998
2.71987
2.71975
2.71962
2.71944
2.72012
2.71999
2.71986
2.71975
2.71966
2.71958
2.7195
2.71942
2.71933
2.71923
2.71911
2.71899
2.71884
2.71867
2.71939
2.71923
2.71911
2.71901
2.71892
2.71884
2.71877
2.71868
2.71859
2.7185
2.71837
2.71825
2.71808
2.71791
2.71865
2.71847
2.71836
2.71826
2.71818
2.71811
2.71804
2.71796
2.71788
2.71778
2.71766
2.71753
2.71735
2.7172
2.7179
2.71771
2.71761
2.71752
2.71745
2.71739
2.71732
2.71725
2.71717
2.71708
2.71696
2.71683
2.71664
2.7165
2.71714
2.71695
2.71686
2.71678
2.71673
2.71667
2.71662
2.71656
2.71649
2.71641
2.7163
2.71618
2.716
2.71588
2.71637
2.71618
2.71611
2.71605
2.71602
2.71598
2.71594
2.71589
2.71584
2.71576
2.71566
2.71556
2.71539
2.71527
2.71565
2.71544
2.71538
2.71534
2.71532
2.71531
2.71529
2.71526
2.71522
2.71516
2.71509
2.715
2.71485
2.71476
2.71486
2.7147
2.71466
2.71465
2.71465
2.71466
2.71466
2.71466
2.71464
2.7146
2.71454
2.71445
2.71434
2.71424
2.72027
2.72021
2.72012
2.72008
2.72007
2.72008
2.72011
2.72015
2.7202
2.72027
2.72034
2.72041
2.72051
2.72062
2.71956
2.71956
2.71946
2.71943
2.71941
2.71941
2.71943
2.71946
2.71951
2.71956
2.71962
2.71966
2.71974
2.71973
2.71894
2.71893
2.71882
2.71878
2.71876
2.71875
2.71876
2.71878
2.71881
2.71884
2.71889
2.71892
2.71898
2.71895
2.7183
2.71827
2.71817
2.71813
2.7181
2.7181
2.7181
2.71811
2.71813
2.71816
2.71819
2.71819
2.71823
2.71818
2.71768
2.71762
2.71753
2.71749
2.71746
2.71745
2.71745
2.71745
2.71746
2.71748
2.71749
2.71749
2.71751
2.71746
2.71705
2.71698
2.7169
2.71686
2.71683
2.71682
2.71681
2.71681
2.71682
2.71682
2.71682
2.71681
2.7168
2.71675
2.71642
2.71634
2.71627
2.71623
2.7162
2.71619
2.71618
2.71618
2.71618
2.71617
2.71616
2.71614
2.71611
2.71606
2.71579
2.7157
2.71565
2.71561
2.71559
2.71558
2.71557
2.71557
2.71556
2.71555
2.71552
2.71549
2.71544
2.71539
2.71516
2.71507
2.71503
2.715
2.71499
2.71498
2.71497
2.71497
2.71496
2.71494
2.7149
2.71486
2.7148
2.71476
2.71453
2.71445
2.71442
2.7144
2.7144
2.7144
2.7144
2.71439
2.71437
2.71434
2.7143
2.71426
2.71417
2.71413
2.71391
2.71384
2.71383
2.71382
2.71382
2.71383
2.71383
2.71383
2.71381
2.71378
2.71373
2.71369
2.71358
2.71354
2.71333
2.71325
2.71326
2.71326
2.71327
2.71329
2.71329
2.71329
2.71328
2.71324
2.71318
2.71313
2.71302
2.71296
2.71276
2.71268
2.7127
2.71272
2.71274
2.71277
2.71278
2.71279
2.71278
2.71274
2.71269
2.71263
2.71252
2.71246
2.71221
2.71213
2.71217
2.7122
2.71224
2.71228
2.7123
2.71231
2.7123
2.71226
2.71221
2.71213
2.71203
2.71194
2.71577
2.71578
2.71576
2.71579
2.71585
2.71594
2.71604
2.71616
2.7163
2.71644
2.7166
2.71677
2.71697
2.71716
2.71519
2.71524
2.71523
2.71526
2.71532
2.7154
2.7155
2.71562
2.71575
2.71589
2.71604
2.71618
2.71635
2.71646
2.71469
2.71474
2.71473
2.71476
2.7148
2.71488
2.71497
2.71507
2.71519
2.71532
2.71545
2.71558
2.71575
2.71583
2.71418
2.71421
2.71421
2.71424
2.71429
2.71437
2.71445
2.71455
2.71466
2.71478
2.7149
2.71502
2.71516
2.71522
2.71368
2.71371
2.7137
2.71374
2.71379
2.71387
2.71395
2.71404
2.71414
2.71425
2.71436
2.71447
2.71459
2.71466
2.71319
2.71321
2.71322
2.71327
2.71332
2.7134
2.71347
2.71356
2.71365
2.71374
2.71384
2.71394
2.71404
2.71411
2.71272
2.71273
2.71276
2.7128
2.71286
2.71293
2.713
2.71308
2.71317
2.71325
2.71333
2.71342
2.7135
2.71358
2.71225
2.71227
2.71231
2.71236
2.71242
2.71248
2.71255
2.71262
2.7127
2.71277
2.71284
2.71292
2.71298
2.71305
2.7118
2.71182
2.71188
2.71193
2.71199
2.71205
2.71211
2.71218
2.71225
2.71231
2.71237
2.71243
2.71247
2.71254
2.71136
2.71139
2.71146
2.71151
2.71158
2.71164
2.7117
2.71176
2.71182
2.71187
2.71191
2.71196
2.71197
2.71203
2.71094
2.71098
2.71105
2.71111
2.71118
2.71124
2.7113
2.71136
2.71141
2.71144
2.71147
2.7115
2.7115
2.71156
2.71056
2.71059
2.71068
2.71075
2.71082
2.71088
2.71094
2.71098
2.71102
2.71104
2.71105
2.71106
2.71104
2.71109
2.71019
2.71023
2.71032
2.7104
2.71048
2.71054
2.71059
2.71063
2.71066
2.71067
2.71067
2.71066
2.71063
2.71067
2.70987
2.7099
2.71001
2.71009
2.71017
2.71022
2.71027
2.7103
2.71031
2.7103
2.71029
2.71025
2.71022
2.7102
2.71082
2.71095
2.71108
2.71122
2.71137
2.71154
2.71172
2.71192
2.71213
2.71234
2.71257
2.71281
2.71306
2.71333
2.71047
2.71061
2.71074
2.7109
2.71105
2.71123
2.71142
2.71161
2.71182
2.71203
2.71225
2.71248
2.71271
2.71291
2.71018
2.71033
2.71046
2.71061
2.71075
2.71092
2.7111
2.71129
2.71149
2.71169
2.7119
2.71211
2.71234
2.71254
2.70987
2.71004
2.71017
2.71032
2.71047
2.71063
2.7108
2.71098
2.71117
2.71137
2.71158
2.71178
2.712
2.71218
2.70958
2.70975
2.70988
2.71003
2.71018
2.71034
2.7105
2.71068
2.71087
2.71106
2.71126
2.71145
2.71166
2.71184
2.7093
2.70946
2.7096
2.70976
2.70991
2.71006
2.71022
2.71039
2.71056
2.71075
2.71093
2.71112
2.71132
2.7115
2.70903
2.70919
2.70933
2.70949
2.70964
2.70979
2.70995
2.71011
2.71027
2.71044
2.71062
2.7108
2.71098
2.71116
2.70877
2.70893
2.70909
2.70924
2.70939
2.70954
2.70969
2.70984
2.70999
2.71015
2.71031
2.71048
2.71064
2.71082
2.70853
2.70868
2.70885
2.709
2.70915
2.70929
2.70944
2.70958
2.70972
2.70986
2.71001
2.71017
2.71031
2.71048
2.7083
2.70846
2.70863
2.70878
2.70893
2.70907
2.7092
2.70933
2.70946
2.70959
2.70972
2.70986
2.70999
2.71015
2.70809
2.70825
2.70843
2.70858
2.70872
2.70885
2.70898
2.70909
2.70921
2.70933
2.70944
2.70956
2.70967
2.70982
2.70792
2.70808
2.70826
2.7084
2.70854
2.70866
2.70877
2.70888
2.70898
2.70907
2.70917
2.70927
2.70935
2.70949
2.70775
2.70793
2.70809
2.70824
2.70837
2.70848
2.70858
2.70867
2.70876
2.70884
2.70891
2.70899
2.70907
2.70919
2.70767
2.70783
2.70798
2.70811
2.70823
2.70833
2.70841
2.70848
2.70854
2.70859
2.70865
2.7087
2.70876
2.70882
2.70548
2.70578
2.70606
2.70632
2.70659
2.70684
2.7071
2.70735
2.70763
2.70791
2.7082
2.70849
2.70876
2.70907
2.70542
2.70572
2.706
2.70628
2.70654
2.70681
2.70708
2.70735
2.70763
2.70791
2.70819
2.70849
2.70878
2.70907
2.70539
2.7057
2.70598
2.70626
2.70652
2.70678
2.70705
2.70732
2.70759
2.70786
2.70814
2.70843
2.70872
2.70901
2.70535
2.70566
2.70594
2.70622
2.70649
2.70676
2.70702
2.70728
2.70755
2.70781
2.70809
2.70837
2.70865
2.70893
2.70533
2.70563
2.70592
2.70619
2.70646
2.70672
2.70698
2.70724
2.70749
2.70776
2.70802
2.7083
2.70857
2.70885
2.70529
2.70559
2.70588
2.70616
2.70642
2.70668
2.70694
2.70719
2.70744
2.7077
2.70796
2.70823
2.70849
2.70877
2.70526
2.70557
2.70585
2.70613
2.70639
2.70664
2.70689
2.70713
2.70738
2.70763
2.70788
2.70814
2.70839
2.70866
2.70524
2.70554
2.70583
2.70609
2.70635
2.7066
2.70684
2.70708
2.70732
2.70756
2.7078
2.70805
2.70829
2.70855
2.70522
2.70552
2.7058
2.70607
2.70632
2.70656
2.70679
2.70702
2.70724
2.70747
2.7077
2.70794
2.70818
2.70843
2.70522
2.70552
2.70579
2.70605
2.70629
2.70652
2.70674
2.70696
2.70717
2.70739
2.7076
2.70783
2.70805
2.70829
2.70523
2.70552
2.70579
2.70604
2.70627
2.70648
2.70669
2.70689
2.70709
2.70729
2.70749
2.70771
2.70791
2.70815
2.70525
2.70553
2.70579
2.70603
2.70625
2.70645
2.70665
2.70683
2.70701
2.7072
2.70738
2.70758
2.70776
2.70799
2.70527
2.70555
2.7058
2.70603
2.70623
2.70642
2.7066
2.70677
2.70693
2.7071
2.70726
2.70744
2.70761
2.70781
2.70537
2.70562
2.70585
2.70606
2.70624
2.70641
2.70656
2.7067
2.70684
2.70699
2.70713
2.70728
2.70744
2.70762
2.6999
2.70033
2.70073
2.7011
2.70145
2.70179
2.70213
2.70245
2.70278
2.7031
2.70343
2.70376
2.70407
2.70444
2.70015
2.70053
2.70096
2.70134
2.70172
2.70207
2.70243
2.70277
2.70311
2.70344
2.70377
2.7041
2.70442
2.70478
2.70042
2.70082
2.70125
2.70163
2.70201
2.70236
2.70271
2.70305
2.70338
2.7037
2.70403
2.70436
2.70467
2.70503
2.70065
2.70106
2.70149
2.70187
2.70225
2.70261
2.70297
2.70331
2.70364
2.70397
2.7043
2.70463
2.70494
2.70529
2.70089
2.70131
2.70174
2.70212
2.7025
2.70286
2.70321
2.70354
2.70387
2.70419
2.70452
2.70484
2.70516
2.70549
2.70111
2.70154
2.70195
2.70234
2.70272
2.70307
2.70342
2.70376
2.70409
2.70441
2.70473
2.70505
2.70537
2.70569
2.70133
2.70177
2.70218
2.70256
2.70293
2.70328
2.70362
2.70395
2.70428
2.70459
2.70491
2.70522
2.70553
2.70585
2.70156
2.70198
2.70238
2.70276
2.70313
2.70347
2.70381
2.70413
2.70445
2.70476
2.70507
2.70538
2.70569
2.706
2.70177
2.70219
2.70258
2.70296
2.70331
2.70365
2.70398
2.70429
2.7046
2.7049
2.7052
2.7055
2.70581
2.70611
2.70199
2.70241
2.70278
2.70315
2.70349
2.70382
2.70413
2.70444
2.70473
2.70503
2.70532
2.70561
2.70591
2.7062
2.70221
2.70261
2.70297
2.70333
2.70365
2.70397
2.70427
2.70456
2.70485
2.70512
2.70541
2.70569
2.70598
2.70627
2.70243
2.70282
2.70316
2.7035
2.70381
2.70411
2.70439
2.70467
2.70495
2.70521
2.70548
2.70576
2.70603
2.70631
2.70266
2.70302
2.70334
2.70366
2.70395
2.70424
2.7045
2.70477
2.70502
2.70528
2.70553
2.70579
2.70605
2.70633
2.70291
2.70326
2.70354
2.70383
2.7041
2.70435
2.7046
2.70484
2.70508
2.70532
2.70556
2.70581
2.70606
2.70635
2.69455
2.69496
2.69541
2.69582
2.69622
2.6966
2.69698
2.69733
2.69768
2.69801
2.69834
2.69866
2.69898
2.69935
2.69501
2.6954
2.69588
2.69631
2.69674
2.69714
2.69754
2.69791
2.69827
2.69862
2.69896
2.6993
2.69962
2.70002
2.69552
2.69594
2.69642
2.69685
2.69729
2.69769
2.69808
2.69846
2.69881
2.69916
2.6995
2.69984
2.70016
2.70054
2.69599
2.69642
2.69691
2.69734
2.69779
2.6982
2.6986
2.69898
2.69935
2.6997
2.70005
2.70039
2.70072
2.70109
2.69646
2.69691
2.6974
2.69784
2.69828
2.6987
2.6991
2.69948
2.69984
2.70019
2.70054
2.70088
2.70121
2.70157
2.69692
2.69739
2.69787
2.69831
2.69875
2.69916
2.69957
2.69995
2.70032
2.70067
2.70102
2.70136
2.7017
2.70205
2.69737
2.69785
2.69832
2.69876
2.6992
2.69961
2.70001
2.70039
2.70075
2.7011
2.70145
2.70179
2.70213
2.70246
2.69782
2.6983
2.69875
2.69919
2.69962
2.70003
2.70042
2.7008
2.70116
2.70152
2.70186
2.7022
2.70254
2.70287
2.69825
2.69872
2.69916
2.6996
2.70002
2.70042
2.70081
2.70118
2.70154
2.70189
2.70223
2.70257
2.70291
2.70322
2.69868
2.69914
2.69957
2.69999
2.7004
2.7008
2.70117
2.70154
2.70189
2.70223
2.70258
2.7029
2.70324
2.70356
2.69908
2.69954
2.69994
2.70036
2.70075
2.70114
2.70151
2.70187
2.70221
2.70255
2.70289
2.70321
2.70355
2.70386
2.6995
2.69993
2.70032
2.70071
2.70109
2.70146
2.70182
2.70217
2.70251
2.70283
2.70316
2.70349
2.70382
2.70414
2.69988
2.70029
2.70066
2.70104
2.7014
2.70176
2.7021
2.70244
2.70277
2.7031
2.70342
2.70374
2.70407
2.70441
2.70029
2.70067
2.70101
2.70136
2.7017
2.70203
2.70236
2.70269
2.70301
2.70332
2.70364
2.70396
2.70429
2.70465
2.68997
2.69028
2.69065
2.69101
2.69137
2.69171
2.69203
2.69235
2.69265
2.69295
2.69324
2.69351
2.69056
2.69086
2.69126
2.69164
2.69202
2.69238
2.69273
2.69306
2.69338
2.6937
2.694
2.69431
2.69118
2.69151
2.69193
2.69231
2.6927
2.69306
2.69342
2.69376
2.69408
2.6944
2.69471
2.69501
2.6918
2.69214
2.69257
2.69295
2.69335
2.69373
2.69409
2.69444
2.69478
2.69511
2.69543
2.69574
2.6924
2.69278
2.6932
2.6936
2.694
2.69438
2.69475
2.69511
2.69545
2.69578
2.6961
2.69642
2.69302
2.69341
2.69383
2.69423
2.69463
2.69502
2.69539
2.69575
2.69611
2.69645
2.69677
2.6971
2.69361
2.69402
2.69444
2.69484
2.69524
2.69563
2.69601
2.69638
2.69673
2.69707
2.6974
2.69773
2.69422
2.69463
2.69504
2.69544
2.69584
2.69622
2.6966
2.69697
2.69733
2.69768
2.69802
2.69834
2.69479
2.69521
2.6956
2.69601
2.6964
2.69679
2.69717
2.69754
2.6979
2.69825
2.69859
2.69892
2.69536
2.69578
2.69616
2.69657
2.69695
2.69734
2.69772
2.69809
2.69845
2.69879
2.69914
2.69946
2.69591
2.69631
2.69669
2.69708
2.69747
2.69785
2.69823
2.6986
2.69896
2.69931
2.69966
2.69998
2.69646
2.69685
2.69721
2.6976
2.69797
2.69835
2.69872
2.69908
2.69944
2.69979
2.70014
2.70046
2.69695
2.69734
2.69769
2.69806
2.69843
2.6988
2.69917
2.69954
2.6999
2.70025
2.70061
2.70094
2.6975
2.69785
2.69819
2.69854
2.6989
2.69925
2.69961
2.69996
2.70031
2.70066
2.701
2.70135
2.71177
2.71184
2.71183
2.71188
2.71201
2.7122
2.71091
2.71079
2.71059
2.71047
2.71047
2.7105
2.71031
2.70997
2.70962
2.7093
2.7091
2.70899
2.70977
2.70925
2.70875
2.70829
2.70794
2.70771
2.7161
2.71628
2.71634
2.71656
2.71683
2.71721
2.71514
2.71514
2.7151
2.71517
2.71537
2.71569
2.71444
2.71421
2.714
2.71389
2.71396
2.71416
2.71375
2.71332
2.71297
2.71272
2.71265
2.71274
2.71314
2.71255
2.71207
2.71168
2.71149
2.71146
2.71258
2.7119
2.71132
2.71084
2.71051
2.71038
2.71209
2.71137
2.71071
2.71018
2.70976
2.70953
2.72078
2.72103
2.72119
2.72153
2.72189
2.72238
2.71998
2.72006
2.72019
2.72047
2.72083
2.72132
2.71924