/*--------------------------------*- C++ -*----------------------------------*\
| =========                 |                                                 |
| \\      /  F ield         | OpenFOAM: The Open Source CFD Toolbox           |
|  \\    /   O peration     | Version:  v2106                                 |
|   \\  /    A nd           | Website:  www.openfoam.com                      |
|    \\/     M anipulation  |                                                 |
\*---------------------------------------------------------------------------*/
FoamFile
{
    version     2.0;
    format      ascii;
    arch        "LSB;label=32;scalar=64";
    class       volScalarField;
    location    "0.000215";
    object      Ttot;
}
// * * * * * * * * * * * * * * * * * * * * * * * * * * * * * * * * * * * * * //

dimensions      [0 0 0 1 0 0 0];

internalField   nonuniform List<scalar> 
17924
(
307.908
307.871
307.846
307.82
308.11
308.071
308.04
308.009
307.983
307.959
307.937
308.138
308.102
308.072
308.042
308.015
307.989
307.966
308.165
308.131
308.102
308.072
308.045
308.019
307.995
308.192
308.16
308.132
308.103
308.076
308.049
308.023
308.217
308.187
308.16
308.131
308.104
308.077
308.051
308.241
308.213
308.186
308.159
308.132
308.105
308.078
308.265
308.238
308.212
308.185
308.159
308.132
308.105
308.288
308.263
308.237
308.211
308.185
308.158
308.13
308.31
308.287
308.262
308.236
308.21
308.184
308.156
308.332
308.31
308.286
308.261
308.235
308.209
308.181
308.352
308.331
308.309
308.285
308.26
308.233
308.206
308.37
308.35
308.328
308.306
308.282
308.256
308.229
308.386
308.367
308.346
308.325
308.302
308.278
308.252
308.4
308.38
308.361
308.341
308.32
308.298
308.274
308.322
308.286
308.256
308.224
308.193
308.164
308.137
308.111
308.087
308.063
308.042
308.019
308
307.979
308.335
308.304
308.276
308.246
308.216
308.187
308.159
308.131
308.106
308.08
308.056
308.031
308.009
307.986
308.35
308.32
308.293
308.265
308.237
308.208
308.18
308.152
308.125
308.098
308.072
308.044
308.019
307.993
308.363
308.337
308.311
308.284
308.256
308.228
308.2
308.171
308.142
308.113
308.085
308.055
308.027
308
308.376
308.352
308.327
308.301
308.274
308.246
308.218
308.189
308.159
308.128
308.097
308.065
308.034
308.004
308.389
308.367
308.343
308.318
308.291
308.263
308.234
308.204
308.173
308.14
308.108
308.074
308.041
308.008
308.401
308.38
308.357
308.332
308.306
308.278
308.249
308.218
308.186
308.152
308.117
308.082
308.047
308.012
308.412
308.392
308.369
308.345
308.319
308.291
308.261
308.23
308.197
308.162
308.126
308.089
308.052
308.016
308.422
308.403
308.38
308.357
308.33
308.302
308.272
308.24
308.206
308.171
308.134
308.096
308.058
308.021
308.429
308.41
308.388
308.365
308.339
308.311
308.281
308.249
308.214
308.179
308.141
308.104
308.065
308.027
308.433
308.414
308.393
308.371
308.345
308.318
308.288
308.256
308.222
308.186
308.149
308.111
308.071
308.032
308.435
308.416
308.396
308.374
308.349
308.322
308.293
308.263
308.229
308.194
308.157
308.118
308.079
308.039
308.435
308.416
308.397
308.375
308.352
308.326
308.298
308.267
308.234
308.2
308.164
308.125
308.085
308.046
308.433
308.414
308.397
308.376
308.353
308.328
308.3
308.271
308.24
308.206
308.171
308.134
308.095
308.052
308.525
308.496
308.47
308.443
308.415
308.387
308.358
308.329
308.302
308.275
308.25
308.225
308.205
308.182
308.524
308.498
308.474
308.448
308.421
308.394
308.366
308.337
308.309
308.281
308.255
308.228
308.206
308.182
308.522
308.499
308.476
308.452
308.426
308.4
308.373
308.345
308.316
308.287
308.26
308.232
308.207
308.182
308.521
308.501
308.479
308.456
308.431
308.406
308.379
308.351
308.322
308.292
308.263
308.233
308.207
308.181
308.52
308.502
308.481
308.459
308.436
308.41
308.383
308.355
308.325
308.294
308.264
308.234
308.206
308.178
308.519
308.502
308.482
308.461
308.438
308.412
308.385
308.356
308.326
308.294
308.263
308.232
308.203
308.174
308.518
308.502
308.483
308.462
308.439
308.413
308.385
308.356
308.325
308.293
308.261
308.228
308.197
308.168
308.515
308.499
308.48
308.46
308.436
308.41
308.383
308.353
308.321
308.288
308.255
308.223
308.19
308.16
308.51
308.495
308.476
308.455
308.432
308.406
308.378
308.347
308.315
308.282
308.248
308.215
308.182
308.151
308.503
308.487
308.468
308.448
308.424
308.398
308.37
308.34
308.308
308.274
308.241
308.207
308.172
308.141
308.495
308.478
308.46
308.439
308.415
308.389
308.361
308.331
308.298
308.265
308.231
308.197
308.162
308.13
308.485
308.467
308.449
308.428
308.405
308.379
308.351
308.321
308.289
308.256
308.222
308.187
308.152
308.119
308.476
308.457
308.439
308.418
308.395
308.369
308.341
308.31
308.278
308.245
308.211
308.176
308.14
308.108
308.465
308.446
308.428
308.407
308.384
308.358
308.33
308.301
308.269
308.237
308.204
308.171
308.136
308.099
308.705
308.683
308.662
308.639
308.617
308.593
308.568
308.541
308.515
308.489
308.465
308.44
308.422
308.401
308.692
308.671
308.651
308.63
308.608
308.584
308.56
308.535
308.51
308.484
308.46
308.436
308.417
308.396
308.677
308.659
308.64
308.619
308.598
308.576
308.553
308.528
308.503
308.478
308.454
308.431
308.412
308.391
308.663
308.648
308.629
308.609
308.589
308.567
308.544
308.519
308.495
308.47
308.446
308.423
308.404
308.383
308.65
308.636
308.617
308.599
308.579
308.557
308.534
308.51
308.485
308.46
308.437
308.413
308.393
308.373
308.636
308.623
308.605
308.587
308.567
308.545
308.522
308.498
308.473
308.448
308.424
308.401
308.381
308.36
308.622
308.609
308.592
308.575
308.554
308.532
308.509
308.484
308.459
308.434
308.41
308.386
308.365
308.345
308.607
308.594
308.577
308.56
308.539
308.517
308.493
308.468
308.443
308.417
308.393
308.369
308.347
308.326
308.592
308.578
308.562
308.544
308.523
308.5
308.476
308.45
308.424
308.398
308.373
308.349
308.325
308.305
308.575
308.561
308.544
308.525
308.504
308.481
308.456
308.431
308.404
308.377
308.351
308.326
308.301
308.281
308.559
308.543
308.526
308.507
308.485
308.462
308.436
308.409
308.382
308.354
308.327
308.301
308.275
308.254
308.542
308.525
308.507
308.487
308.465
308.441
308.414
308.387
308.359
308.331
308.302
308.275
308.247
308.226
308.527
308.509
308.49
308.469
308.446
308.42
308.393
308.364
308.335
308.305
308.275
308.246
308.218
308.196
308.511
308.492
308.472
308.449
308.425
308.399
308.371
308.342
308.312
308.282
308.252
308.223
308.194
308.169
308.844
308.826
308.808
308.789
308.77
308.749
308.727
308.705
308.682
308.66
308.638
308.617
308.6
308.579
308.82
308.804
308.787
308.769
308.75
308.729
308.709
308.687
308.665
308.644
308.624
308.605
308.59
308.571
308.795
308.782
308.765
308.747
308.729
308.709
308.689
308.669
308.648
308.628
308.609
308.592
308.578
308.561
308.772
308.76
308.743
308.726
308.708
308.689
308.669
308.649
308.63
308.611
308.593
308.577
308.564
308.55
308.749
308.738
308.721
308.705
308.687
308.668
308.649
308.63
308.61
308.592
308.575
308.56
308.548
308.535
308.726
308.714
308.698
308.683
308.665
308.647
308.628
308.608
308.59
308.572
308.556
308.541
308.529
308.518
308.703
308.692
308.676
308.661
308.643
308.625
308.606
308.586
308.568
308.55
308.534
308.52
308.508
308.498
308.68
308.668
308.653
308.638
308.62
308.601
308.582
308.562
308.544
308.526
308.51
308.496
308.484
308.474
308.658
308.645
308.63
308.614
308.596
308.577
308.558
308.538
308.518
308.5
308.484
308.469
308.457
308.447
308.636
308.622
308.607
308.59
308.572
308.552
308.532
308.511
308.491
308.472
308.454
308.439
308.425
308.416
308.614
308.599
308.583
308.566
308.547
308.527
308.505
308.483
308.461
308.44
308.422
308.406
308.39
308.382
308.591
308.575
308.559
308.54
308.521
308.499
308.476
308.453
308.429
308.408
308.387
308.37
308.352
308.343
308.571
308.553
308.536
308.516
308.495
308.472
308.447
308.422
308.396
308.372
308.35
308.331
308.312
308.303
308.55
308.531
308.512
308.491
308.468
308.444
308.417
308.39
308.363
308.338
308.314
308.293
308.273
308.259
308.928
308.914
308.899
308.882
308.865
308.846
308.827
308.806
308.786
308.765
308.745
308.724
308.706
308.684
308.896
308.885
308.87
308.854
308.837
308.819
308.8
308.781
308.761
308.742
308.723
308.705
308.689
308.67
308.865
308.855
308.84
308.824
308.808
308.79
308.773
308.754
308.736
308.719
308.702
308.685
308.672
308.655
308.834
308.824
308.809
308.795
308.778
308.762
308.745
308.727
308.711
308.694
308.679
308.665
308.653
308.639
308.804
308.794
308.779
308.765
308.749
308.733
308.717
308.7
308.685
308.67
308.656
308.643
308.633
308.621
308.773
308.763
308.748
308.735
308.719
308.703
308.688
308.672
308.657
308.644
308.631
308.619
308.61
308.601
308.744
308.733
308.719
308.705
308.69
308.674
308.659
308.644
308.63
308.617
308.605
308.595
308.587
308.579
308.715
308.704
308.689
308.675
308.66
308.645
308.629
308.615
308.601
308.589
308.578
308.568
308.56
308.554
308.689
308.675
308.661
308.647
308.631
308.615
308.6
308.585
308.571
308.559
308.548
308.539
308.533
308.528
308.662
308.647
308.633
308.618
308.602
308.585
308.569
308.554
308.54
308.527
308.517
308.508
308.501
308.499
308.636
308.621
308.607
308.59
308.573
308.556
308.539
308.522
308.508
308.494
308.483
308.474
308.467
308.467
308.61
308.594
308.579
308.562
308.544
308.525
308.507
308.489
308.473
308.459
308.447
308.438
308.43
308.432
308.586
308.57
308.553
308.535
308.515
308.495
308.475
308.456
308.438
308.422
308.409
308.399
308.39
308.392
308.562
308.544
308.526
308.506
308.485
308.463
308.441
308.421
308.402
308.385
308.369
308.358
308.348
308.347
308.964
308.953
308.939
308.925
308.91
308.893
308.877
308.859
308.84
308.821
308.801
308.781
308.762
308.739
308.927
308.919
308.905
308.891
308.876
308.86
308.844
308.826
308.809
308.791
308.773
308.754
308.738
308.718
308.891
308.883
308.869
308.856
308.84
308.826
308.81
308.794
308.777
308.761
308.744
308.728
308.713
308.697
308.855
308.847
308.833
308.82
308.805
308.791
308.776
308.761
308.745
308.73
308.716
308.701
308.689
308.674
308.82
308.811
308.797
308.785
308.77
308.756
308.742
308.728
308.714
308.7
308.687
308.675
308.663
308.651
308.785
308.776
308.762
308.749
308.735
308.721
308.708
308.694
308.681
308.669
308.657
308.647
308.637
308.627
308.752
308.741
308.727
308.715
308.701
308.687
308.674
308.661
308.649
308.638
308.628
308.618
308.61
308.603
308.719
308.707
308.693
308.68
308.666
308.653
308.64
308.627
308.616
308.606
308.597
308.588
308.582
308.576
308.688
308.674
308.661
308.647
308.632
308.619
308.606
308.594
308.583
308.573
308.565
308.558
308.552
308.549
308.657
308.642
308.628
308.613
308.599
308.585
308.572
308.56
308.549
308.54
308.532
308.526
308.521
308.52
308.627
308.612
308.597
308.581
308.566
308.551
308.538
308.525
308.515
308.506
308.499
308.493
308.489
308.491
308.598
308.581
308.565
308.549
308.533
308.518
308.503
308.491
308.48
308.471
308.464
308.459
308.455
308.459
308.571
308.553
308.536
308.518
308.501
308.485
308.469
308.456
308.445
308.436
308.428
308.423
308.42
308.427
308.542
308.524
308.505
308.486
308.468
308.45
308.434
308.421
308.409
308.399
308.391
308.385
308.382
308.389
308.955
308.947
308.936
308.924
308.912
308.899
308.885
308.869
308.852
308.835
308.817
308.797
308.779
308.756
308.917
308.911
308.899
308.888
308.875
308.862
308.848
308.832
308.816
308.8
308.783
308.764
308.747
308.727
308.879
308.874
308.861
308.849
308.836
308.824
308.81
308.796
308.781
308.765
308.749
308.732
308.716
308.698
308.841
308.835
308.822
308.811
308.798
308.785
308.772
308.758
308.744
308.729
308.714
308.699
308.685
308.669
308.804
308.797
308.784
308.772
308.759
308.747
308.734
308.721
308.707
308.694
308.68
308.667
308.654
308.64
308.767
308.758
308.745
308.734
308.721
308.708
308.696
308.683
308.671
308.658
308.646
308.634
308.623
308.611
308.731
308.721
308.708
308.696
308.683
308.67
308.658
308.646
308.634
308.623
308.613
308.603
308.593
308.583
308.696
308.683
308.67
308.658
308.645
308.633
308.621
308.609
308.598
308.588
308.579
308.57
308.562
308.555
308.661
308.648
308.634
308.621
308.608
308.596
308.584
308.573
308.563
308.553
308.545
308.538
308.532
308.527
308.626
308.611
308.598
308.584
308.571
308.559
308.547
308.536
308.527
308.519
308.512
308.506
308.501
308.498
308.592
308.576
308.563
308.548
308.535
308.522
308.511
308.501
308.492
308.484
308.478
308.474
308.47
308.47
308.557
308.541
308.527
308.512
308.498
308.486
308.475
308.465
308.456
308.449
308.444
308.44
308.437
308.44
308.525
308.508
308.493
308.477
308.463
308.45
308.439
308.429
308.421
308.414
308.41
308.407
308.405
308.411
308.491
308.473
308.457
308.441
308.426
308.413
308.402
308.393
308.385
308.379
308.375
308.372
308.371
308.379
308.895
308.892
308.884
308.876
308.867
308.857
308.847
308.834
308.82
308.805
308.79
308.772
308.755
308.733
308.858
308.856
308.847
308.839
308.83
308.82
308.808
308.796
308.782
308.767
308.752
308.735
308.718
308.697
308.821
308.819
308.809
308.801
308.791
308.781
308.769
308.757
308.744
308.73
308.715
308.699
308.683
308.664
308.784
308.78
308.77
308.761
308.751
308.741
308.729
308.717
308.704
308.691
308.676
308.661
308.646
308.628
308.747
308.742
308.731
308.722
308.711
308.701
308.689
308.677
308.665
308.652
308.639
308.625
308.611
308.594
308.71
308.702
308.691
308.682
308.671
308.66
308.649
308.637
308.625
308.613
308.6
308.588
308.575
308.56
308.673
308.663
308.652
308.642
308.631
308.62
308.608
308.597
308.586
308.575
308.563
308.552
308.54
308.528
308.635
308.624
308.613
308.601
308.59
308.579
308.568
308.558
308.547
308.537
308.527
308.517
308.506
308.497
308.597
308.585
308.574
308.562
308.551
308.54
308.529
308.519
308.509
308.5
308.491
308.483
308.474
308.467
308.558
308.545
308.534
308.521
308.511
308.5
308.49
308.481
308.472
308.464
308.456
308.45
308.443
308.438
308.521
308.506
308.495
308.482
308.471
308.461
308.452
308.443
308.435
308.429
308.423
308.418
308.412
308.41
308.482
308.466
308.455
308.442
308.432
308.422
308.414
308.406
308.4
308.394
308.39
308.386
308.382
308.382
308.444
308.429
308.417
308.404
308.394
308.384
308.376
308.37
308.364
308.36
308.357
308.355
308.353
308.356
308.403
308.389
308.376
308.364
308.354
308.346
308.339
308.333
308.329
308.327
308.325
308.324
308.324
308.329
308.782
308.78
308.775
308.77
308.764
308.757
308.75
308.742
308.732
308.721
308.71
308.697
308.682
308.667
308.745
308.746
308.739
308.734
308.727
308.72
308.712
308.703
308.693
308.682
308.67
308.656
308.642
308.624
308.711
308.71
308.703
308.697
308.689
308.682
308.674
308.664
308.654
308.643
308.631
308.617
308.603
308.586
308.675
308.673
308.665
308.659
308.651
308.643
308.634
308.625
308.614
308.603
308.59
308.577
308.563
308.546
308.64
308.635
308.627
308.62
308.612
308.603
308.594
308.584
308.574
308.563
308.551
308.537
308.524
308.507
308.603
308.597
308.588
308.58
308.572
308.563
308.554
308.544
308.533
308.523
308.511
308.498
308.485
308.469
308.566
308.558
308.549
308.54
308.532
308.523
308.513
308.504
308.494
308.483
308.472
308.46
308.447
308.434
308.528
308.519
308.509
308.5
308.491
308.482
308.473
308.464
308.454
308.444
308.434
308.423
308.411
308.399
308.49
308.479
308.469
308.459
308.45
308.442
308.433
308.424
308.415
308.406
308.397
308.388
308.377
308.367
308.45
308.437
308.428
308.418
308.41
308.401
308.393
308.385
308.377
308.369
308.361
308.354
308.344
308.336
308.41
308.397
308.388
308.378
308.37
308.362
308.354
308.347
308.34
308.334
308.327
308.321
308.313
308.307
308.368
308.355
308.346
308.337
308.329
308.322
308.316
308.31
308.305
308.3
308.295
308.29
308.284
308.281
308.327
308.315
308.306
308.297
308.29
308.284
308.279
308.274
308.27
308.267
308.264
308.261
308.257
308.257
308.282
308.272
308.263
308.256
308.25
308.245
308.242
308.239
308.237
308.236
308.235
308.233
308.231
308.232
308.628
308.626
308.62
308.617
308.612
308.608
308.604
308.599
308.594
308.587
308.58
308.573
308.564
308.557
308.593
308.592
308.586
308.582
308.577
308.572
308.567
308.562
308.555
308.548
308.54
308.532
308.522
308.512
308.559
308.558
308.551
308.546
308.541
308.535
308.53
308.524
308.517
308.51
308.501
308.492
308.482
308.47
308.525
308.522
308.515
308.51
308.504
308.498
308.492
308.485
308.478
308.47
308.462
308.451
308.441
308.428
308.49
308.486
308.479
308.473
308.466
308.46
308.454
308.447
308.439
308.431
308.422
308.412
308.401
308.388
308.455
308.449
308.441
308.435
308.429
308.422
308.416
308.408
308.401
308.392
308.383
308.373
308.362
308.348
308.419
308.412
308.404
308.397
308.39
308.384
308.377
308.37
308.362
308.354
308.344
308.335
308.323
308.31
308.382
308.373
308.365
308.358
308.351
308.345
308.338
308.331
308.324
308.316
308.306
308.297
308.286
308.274
308.344
308.334
308.326
308.319
308.312
308.306
308.3
308.293
308.286
308.279
308.27
308.262
308.25
308.24
308.305
308.293
308.286
308.279
308.273
308.267
308.262
308.256
308.249
308.242
308.235
308.227
308.216
308.207
308.266
308.253
308.246
308.24
308.234
308.229
308.224
308.219
308.214
308.208
308.201
308.195
308.185
308.178
308.224
308.212
308.206
308.2
308.196
308.191
308.187
308.183
308.179
308.175
308.169
308.164
308.156
308.15
308.184
308.173
308.167
308.162
308.158
308.155
308.152
308.149
308.146
308.143
308.14
308.136
308.13
308.126
308.141
308.132
308.126
308.123
308.12
308.118
308.117
308.116
308.115
308.114
308.112
308.109
308.105
308.102
308.449
308.445
308.438
308.436
308.433
308.431
308.429
308.428
308.426
308.425
308.423
308.421
308.419
308.419
308.414
308.411
308.405
308.402
308.398
308.396
308.394
308.392
308.389
308.387
308.384
308.381
308.378
308.374
308.381
308.378
308.371
308.367
308.364
308.361
308.358
308.355
308.353
308.35
308.346
308.343
308.338
308.332
308.347
308.344
308.337
308.333
308.329
308.326
308.323
308.32
308.316
308.313
308.309
308.304
308.299
308.291
308.314
308.31
308.303
308.299
308.294
308.291
308.287
308.284
308.28
308.276
308.271
308.266
308.261
308.252
308.28
308.275
308.268
308.264
308.259
308.256
308.252
308.248
308.244
308.24
308.235
308.229
308.223
308.214
308.246
308.24
308.234
308.229
308.224
308.221
308.217
308.213
308.209
308.204
308.199
308.193
308.186
308.177
308.211
308.204
308.198
308.193
308.189
308.185
308.182
308.178
308.174
308.169
308.163
308.157
308.149
308.141
308.176
308.168
308.162
308.158
308.154
308.151
308.147
308.144
308.139
308.135
308.129
308.123
308.115
308.107
308.14
308.131
308.126
308.122
308.119
308.116
308.113
308.11
308.106
308.102
308.096
308.09
308.081
308.074
308.104
308.095
308.091
308.087
308.085
308.082
308.08
308.077
308.074
308.07
308.065
308.06
308.051
308.045
308.068
308.058
308.055
308.053
308.051
308.049
308.047
308.045
308.042
308.039
308.034
308.03
308.022
308.016
308.033
308.023
308.02
308.019
308.018
308.017
308.016
308.015
308.013
308.01
308.007
308.003
307.996
307.991
307.995
307.988
307.986
307.986
307.986
307.986
307.986
307.986
307.985
307.983
307.981
307.977
307.971
307.966
308.248
308.244
308.239
308.238
308.238
308.238
308.24
308.242
308.244
308.248
308.251
308.255
308.259
308.264
308.214
308.213
308.208
308.207
308.206
308.206
308.207
308.209
308.211
308.214
308.216
308.219
308.222
308.222
308.184
308.183
308.177
308.176
308.175
308.175
308.175
308.176
308.178
308.18
308.182
308.183
308.186
308.185
308.153
308.151
308.147
308.145
308.144
308.144
308.144
308.144
308.145
308.147
308.148
308.149
308.15
308.148
308.123
308.121
308.116
308.115
308.113
308.113
308.113
308.113
308.113
308.114
308.115
308.115
308.116
308.113
308.094
308.09
308.086
308.084
308.083
308.083
308.082
308.082
308.083
308.083
308.083
308.083
308.082
308.079
308.064
308.06
308.057
308.055
308.053
308.053
308.052
308.052
308.052
308.052
308.051
308.051
308.049
308.047
308.033
308.029
308.027
308.025
308.024
308.023
308.023
308.023
308.023
308.022
308.021
308.02
308.017
308.015
308.003
307.999
307.997
307.996
307.995
307.995
307.995
307.994
307.994
307.993
307.991
307.99
307.987
307.985
307.973
307.97
307.968
307.967
307.967
307.967
307.967
307.967
307.966
307.965
307.963
307.961
307.957
307.955
307.944
307.941
307.94
307.94
307.94
307.94
307.94
307.94
307.939
307.938
307.936
307.934
307.929
307.927
307.916
307.912
307.913
307.913
307.914
307.914
307.914
307.914
307.914
307.912
307.91
307.908
307.902
307.899
307.889
307.885
307.886
307.887
307.888
307.889
307.89
307.89
307.89
307.888
307.886
307.884
307.878
307.875
307.862
307.859
307.861
307.862
307.865
307.866
307.867
307.868
307.867
307.865
307.863
307.859
307.854
307.85
308.026
308.026
308.025
308.027
308.03
308.034
308.039
308.045
308.052
308.059
308.067
308.075
308.084
308.093
307.998
308
308
308.002
308.004
308.009
308.014
308.019
308.025
308.032
308.04
308.047
308.054
308.06
307.974
307.976
307.976
307.977
307.98
307.984
307.988
307.993
307.999
308.005
308.012
308.018
308.025
308.029
307.95
307.951
307.951
307.953
307.956
307.959
307.964
307.968
307.974
307.979
307.985
307.991
307.997
308
307.926
307.927
307.927
307.929
307.932
307.936
307.94
307.944
307.949
307.954
307.96
307.965
307.971
307.973
307.903
307.904
307.905
307.907
307.91
307.913
307.917
307.921
307.925
307.93
307.935
307.939
307.944
307.947
307.88
307.881
307.882
307.885
307.887
307.891
307.894
307.898
307.902
307.906
307.91
307.915
307.919
307.922
307.858
307.859
307.861
307.864
307.866
307.869
307.873
307.876
307.88
307.883
307.887
307.891
307.893
307.897
307.836
307.838
307.84
307.843
307.846
307.849
307.852
307.855
307.858
307.861
307.864
307.867
307.869
307.873
307.816
307.817
307.82
307.823
307.826
307.829
307.832
307.835
307.838
307.84
307.842
307.845
307.846
307.849
307.796
307.797
307.801
307.804
307.807
307.811
307.813
307.816
307.818
307.82
307.822
307.823
307.823
307.826
307.778
307.779
307.783
307.787
307.79
307.793
307.796
307.798
307.799
307.801
307.802
307.802
307.802
307.804
307.76
307.762
307.766
307.77
307.774
307.777
307.779
307.781
307.782
307.783
307.783
307.783
307.782
307.784
307.744
307.746
307.751
307.755
307.759
307.762
307.764
307.765
307.766
307.766
307.765
307.763
307.761
307.76
307.783
307.789
307.795
307.802
307.809
307.818
307.827
307.836
307.846
307.857
307.868
307.879
307.891
307.904
307.766
307.772
307.779
307.786
307.794
307.803
307.812
307.821
307.831
307.842
307.852
307.863
307.874
307.883
307.752
307.759
307.765
307.773
307.78
307.788
307.797
307.806
307.816
307.825
307.836
307.846
307.856
307.865
307.737
307.745
307.752
307.759
307.767
307.775
307.783
307.791
307.801
307.81
307.82
307.83
307.84
307.849
307.724
307.732
307.738
307.746
307.753
307.761
307.769
307.777
307.786
307.795
307.805
307.814
307.824
307.833
307.711
307.718
307.725
307.733
307.74
307.748
307.755
307.763
307.772
307.78
307.79
307.799
307.808
307.817
307.698
307.705
307.712
307.72
307.727
307.735
307.742
307.75
307.758
307.766
307.774
307.783
307.792
307.8
307.685
307.693
307.701
307.708
307.715
307.723
307.73
307.737
307.744
307.752
307.76
307.768
307.776
307.784
307.674
307.681
307.689
307.697
307.704
307.711
307.718
307.725
307.731
307.738
307.746
307.753
307.76
307.768
307.663
307.671
307.679
307.686
307.693
307.7
307.707
307.713
307.719
307.725
307.732
307.739
307.745
307.753
307.653
307.661
307.669
307.677
307.684
307.69
307.696
307.702
307.707
307.713
307.719
307.725
307.73
307.737
307.645
307.653
307.661
307.668
307.675
307.681
307.686
307.691
307.696
307.701
307.706
307.711
307.715
307.722
307.637
307.645
307.653
307.661
307.667
307.672
307.677
307.681
307.685
307.689
307.693
307.697
307.702
307.707
307.633
307.64
307.648
307.654
307.66
307.665
307.669
307.672
307.675
307.678
307.681
307.683
307.686
307.689
307.521
307.535
307.548
307.561
307.574
307.587
307.599
307.611
307.625
307.638
307.652
307.666
307.679
307.694
307.518
307.532
307.545
307.559
307.572
307.585
307.598
307.611
307.625
307.638
307.652
307.666
307.68
307.693
307.516
307.531
307.545
307.558
307.571
307.584
307.597
307.61
307.623
307.636
307.649
307.663
307.677
307.69
307.515
307.529
307.543
307.557
307.57
307.583
307.596
307.608
307.621
307.634
307.647
307.661
307.674
307.687
307.514
307.528
307.543
307.556
307.569
307.581
307.594
307.606
307.619
307.631
307.644
307.657
307.671
307.683
307.512
307.527
307.541
307.554
307.567
307.58
307.592
307.604
307.616
307.629
307.641
307.654
307.667
307.68
307.511
307.526
307.54
307.553
307.566
307.578
307.59
307.601
307.613
307.625
307.638
307.65
307.662
307.675
307.51
307.525
307.538
307.551
307.564
307.576
307.587
307.599
307.61
307.622
307.634
307.646
307.658
307.67
307.509
307.524
307.537
307.55
307.562
307.574
307.585
307.596
307.607
307.618
307.629
307.641
307.652
307.664
307.51
307.524
307.537
307.55
307.561
307.572
307.583
307.593
307.604
307.614
307.625
307.636
307.646
307.658
307.51
307.524
307.537
307.549
307.56
307.571
307.581
307.59
307.6
307.61
307.619
307.63
307.64
307.651
307.511
307.525
307.537
307.549
307.559
307.569
307.578
307.587
307.596
307.605
307.614
307.624
307.633
307.644
307.512
307.526
307.538
307.549
307.559
307.568
307.576
307.584
307.592
307.6
307.609
307.617
307.626
307.636
307.517
307.529
307.54
307.55
307.559
307.567
307.574
307.582
307.588
307.595
307.603
307.61
307.618
307.626
307.248
307.268
307.287
307.305
307.322
307.339
307.355
307.371
307.387
307.402
307.418
307.433
307.449
307.466
307.259
307.277
307.298
307.317
307.335
307.352
307.369
307.386
307.402
307.418
307.434
307.45
307.465
307.482
307.272
307.291
307.312
307.331
307.349
307.366
307.383
307.399
307.415
307.431
307.447
307.462
307.477
307.494
307.284
307.303
307.324
307.343
307.361
307.379
307.396
307.412
307.428
307.444
307.46
307.476
307.491
307.507
307.296
307.316
307.336
307.355
307.373
307.39
307.407
307.423
307.439
307.455
307.47
307.486
307.501
307.517
307.307
307.327
307.347
307.366
307.384
307.401
307.418
307.434
307.45
307.466
307.481
307.496
307.512
307.527
307.318
307.338
307.358
307.377
307.394
307.411
307.428
307.443
307.459
307.474
307.489
307.504
307.52
307.534
307.328
307.349
307.368
307.386
307.404
307.421
307.437
307.452
307.468
307.483
307.498
307.512
307.527
307.542
307.339
307.359
307.378
307.396
307.413
307.429
307.445
307.46
307.475
307.489
307.504
307.518
307.533
307.548
307.349
307.369
307.387
307.405
307.421
307.437
307.452
307.467
307.481
307.495
307.51
307.524
307.538
307.552
307.36
307.379
307.397
307.414
307.429
307.445
307.459
307.473
307.487
307.5
307.514
307.528
307.542
307.556
307.371
307.389
307.406
307.422
307.437
307.451
307.465
307.479
307.492
307.505
307.518
307.531
307.545
307.559
307.382
307.399
307.415
307.43
307.444
307.458
307.471
307.483
307.496
307.508
307.52
307.533
307.546
307.559
307.393
307.41
307.424
307.438
307.451
307.463
307.475
307.487
307.499
307.51
307.522
307.534
307.546
307.56
306.986
307.006
307.027
307.047
307.067
307.085
307.103
307.12
307.137
307.153
307.169
307.184
307.2
307.217
307.008
307.027
307.05
307.071
307.092
307.111
307.13
307.148
307.165
307.182
307.198
307.215
307.23
307.248
307.033
307.053
307.076
307.097
307.118
307.138
307.156
307.174
307.191
307.208
307.224
307.241
307.256
307.274
307.056
307.076
307.1
307.121
307.142
307.162
307.181
307.2
307.217
307.234
307.251
307.268
307.283
307.301
307.079
307.1
307.124
307.145
307.166
307.186
307.205
307.223
307.241
307.258
307.275
307.291
307.307
307.324
307.101
307.123
307.146
307.168
307.189
307.209
307.228
307.246
307.264
307.281
307.298
307.314
307.331
307.347
307.123
307.145
307.168
307.189
307.21
307.23
307.249
307.267
307.285
307.302
307.319
307.335
307.351
307.367
307.144
307.167
307.189
307.21
307.231
307.25
307.269
307.287
307.305
307.322
307.339
307.355
307.371
307.387
307.165
307.188
307.209
307.23
307.25
307.269
307.288
307.306
307.323
307.34
307.356
307.373
307.389
307.404
307.185
307.208
307.228
307.249
307.268
307.287
307.305
307.323
307.34
307.357
307.373
307.389
307.405
307.421
307.205
307.227
307.246
307.267
307.285
307.304
307.322
307.339
307.356
307.372
307.388
307.404
307.42
307.436
307.225
307.246
307.264
307.284
307.302
307.32
307.337
307.354
307.37
307.386
307.402
307.418
307.434
307.45
307.244
307.264
307.281
307.3
307.317
307.334
307.351
307.367
307.383
307.398
307.414
307.43
307.446
307.462
307.263
307.281
307.298
307.315
307.331
307.347
307.363
307.379
307.394
307.409
307.425
307.441
307.456
307.473
306.763
306.777
306.796
306.813
306.83
306.846
306.862
306.877
306.892
306.906
306.92
306.933
306.791
306.805
306.825
306.843
306.861
306.879
306.895
306.911
306.927
306.942
306.957
306.971
306.821
306.837
306.857
306.875
306.894
306.911
306.929
306.945
306.96
306.976
306.99
307.005
306.851
306.867
306.888
306.906
306.925
306.943
306.961
306.978
306.994
307.01
307.025
307.04
306.88
306.898
306.919
306.937
306.957
306.975
306.993
307.01
307.026
307.042
307.058
307.073
306.91
306.929
306.949
306.968
306.987
307.005
307.024
307.041
307.058
307.074
307.09
307.105
306.938
306.958
306.978
306.997
307.016
307.035
307.053
307.071
307.088
307.104
307.12
307.136
306.967
306.987
307.007
307.026
307.045
307.064
307.082
307.1
307.117
307.133
307.15
307.165
306.995
307.015
307.034
307.053
307.072
307.091
307.109
307.127
307.144
307.161
307.177
307.193
307.023
307.042
307.061
307.08
307.099
307.117
307.135
307.153
307.17
307.187
307.204
307.219
307.049
307.068
307.086
307.105
307.124
307.142
307.16
307.178
307.195
307.212
307.229
307.244
307.075
307.094
307.112
307.13
307.148
307.166
307.184
307.201
307.218
307.235
307.252
307.268
307.1
307.118
307.135
307.153
307.17
307.188
307.206
307.223
307.241
307.257
307.274
307.291
307.125
307.142
307.158
307.175
307.192
307.209
307.227
307.244
307.261
307.277
307.294
307.311
307.883
307.887
307.887
307.891
307.898
307.908
307.843
307.838
307.83
307.825
307.826
307.829
307.815
307.799
307.784
307.77
307.762
307.758
307.789
307.766
307.743
307.723
307.707
307.698
308.093
308.101
308.105
308.117
308.13
308.149
308.048
308.048
308.047
308.052
308.062
308.078
308.015
308.004
307.995
307.992
307.996
308.006
307.982
307.963
307.947
307.937
307.934
307.94
307.953
307.927
307.905
307.888
307.879
307.879
307.927
307.896
307.87
307.848
307.834
307.828
307.905
307.872
307.841
307.817
307.798
307.788
308.316
308.328
308.336
308.353
308.371
308.395
308.279
308.283
308.29
308.304
308.322
308.346
308.244
308.242
308.244
308.252
308.265
308.287
308.209
308.2
308.196
308.198
308.207