/*--------------------------------*- C++ -*----------------------------------*\
| =========                 |                                                 |
| \\      /  F ield         | OpenFOAM: The Open Source CFD Toolbox           |
|  \\    /   O peration     | Version:  v2106                                 |
|   \\  /    A nd           | Website:  www.openfoam.com                      |
|    \\/     M anipulation  |                                                 |
\*---------------------------------------------------------------------------*/
FoamFile
{
    version     2.0;
    format      ascii;
    arch        "LSB;label=32;scalar=64";
    class       volScalarField;
    location    "0.000128";
    object      rho;
}
// * * * * * * * * * * * * * * * * * * * * * * * * * * * * * * * * * * * * * //

dimensions      [1 -3 0 0 0 0 0];

internalField   nonuniform List<scalar> 
18273
(
2.41361
2.41775
2.42081
2.42403
2.42668
2.42918
2.43125
2.4331
2.43421
2.43489
2.4346
2.43358
2.43204
2.42898
2.41724
2.42263
2.42639
2.42994
2.43262
2.43511
2.43692
2.4384
2.43903
2.43915
2.43855
2.43725
2.43532
2.4309
2.41953
2.42552
2.42953
2.43327
2.43588
2.43826
2.43979
2.44093
2.44142
2.44127
2.44051
2.43917
2.43676
2.43178
2.42096
2.42717
2.43127
2.43504
2.43766
2.4401
2.44159
2.44257
2.44295
2.44258
2.44163
2.44027
2.43773
2.43264
2.42085
2.42696
2.4311
2.43498
2.43779
2.44028
2.44171
2.44255
2.44292
2.44245
2.44138
2.43998
2.43746
2.43241
2.41976
2.42577
2.4301
2.43408
2.43699
2.43941
2.44078
2.4416
2.44199
2.44146
2.44042
2.43899
2.43652
2.43171
2.41798
2.42401
2.42842
2.43242
2.43534
2.43771
2.43893
2.4397
2.44001
2.43954
2.43853
2.43697
2.43446
2.43016
2.41605
2.42195
2.42625
2.43014
2.433
2.43524
2.43644
2.43723
2.43749
2.43708
2.43606
2.43442
2.432
2.42803
2.41375
2.41977
2.42402
2.42771
2.43039
2.43241
2.43362
2.43433
2.43452
2.43413
2.43315
2.43154
2.42925
2.42553
2.41141
2.41743
2.42146
2.42483
2.42729
2.42904
2.43024
2.43097
2.4312
2.43089
2.42995
2.42844
2.42633
2.42278
2.40892
2.41491
2.41879
2.42182
2.42407
2.42562
2.42668
2.42735
2.42759
2.42744
2.4268
2.4256
2.42373
2.42031
2.40613
2.41196
2.41558
2.41838
2.42044
2.42186
2.42286
2.42354
2.42394
2.42405
2.42375
2.42279
2.42124
2.41786
2.40376
2.40892
2.41222
2.41466
2.41642
2.4177
2.41871
2.41939
2.41996
2.42023
2.42024
2.41952
2.4185
2.41548
2.40049
2.40411
2.40688
2.4094
2.41108
2.41237
2.41347
2.41434
2.41517
2.41548
2.41559
2.415
2.41465
2.41301
2.39642
2.40235
2.40707
2.4127
2.4175
2.42176
2.42572
2.42864
2.43108
2.43252
2.43249
2.43007
2.425
2.41755
2.40639
2.41377
2.41887
2.42377
2.42759
2.43067
2.43353
2.43546
2.43695
2.43741
2.43718
2.4346
2.4296
2.4212
2.41418
2.42123
2.42627
2.43102
2.43461
2.43723
2.43944
2.44082
2.44159
2.44135
2.44054
2.43766
2.43258
2.42422
2.4198
2.42659
2.43156
2.43645
2.44021
2.44262
2.44425
2.445
2.44528
2.44489
2.44332
2.44015
2.4351
2.42682
2.4217
2.42891
2.43417
2.43931
2.44333
2.44608
2.44762
2.44815
2.44815
2.44708
2.44523
2.44181
2.43658
2.4286
2.42105
2.42896
2.43511
2.44108
2.44525
2.44818
2.44969
2.45002
2.4498
2.44846
2.44615
2.44254
2.43765
2.43003
2.4186
2.42742
2.43449
2.44086
2.44509
2.44842
2.45018
2.45067
2.4505
2.44902
2.44669
2.44291
2.43812
2.4308
2.41585
2.42529
2.4333
2.43943
2.44432
2.44779
2.44973
2.45026
2.45012
2.44867
2.44639
2.44268
2.43813
2.43109
2.41185
2.42179
2.43091
2.43699
2.44239
2.44602
2.44813
2.44874
2.44863
2.4473
2.44517
2.44172
2.43734
2.43078
2.40757
2.41787
2.42747
2.43391
2.43939
2.44316
2.44547
2.4463
2.44629
2.44511
2.44314
2.43999
2.43562
2.42947
2.40233
2.41309
2.42299
2.42968
2.43518
2.4389
2.44112
2.44199
2.44196
2.44097
2.43938
2.43647
2.43241
2.42658
2.39625
2.40735
2.41718
2.42412
2.42959
2.43337
2.43568
2.43677
2.43694
2.43578
2.4343
2.43125
2.42755
2.42198
2.39079
2.40166
2.41089
2.4178
2.42309
2.42662
2.42857
2.42935
2.4293
2.42855
2.427
2.42399
2.42037
2.41495
2.38368
2.39311
2.40205
2.40921
2.41443
2.41763
2.41923
2.41991
2.41981
2.41898
2.41688
2.41357
2.41025
2.40583
2.42229
2.43308
2.4438
2.45253
2.46091
2.46778
2.47465
2.48005
2.48486
2.48732
2.48823
2.48432
2.47609
2.46081
2.44421
2.45318
2.46315
2.47073
2.47797
2.48409
2.48984
2.49446
2.49847
2.49991
2.49906
2.49444
2.48436
2.46798
2.45986
2.4704
2.47969
2.48729
2.49358
2.49873
2.50305
2.50619
2.50831
2.50851
2.50677
2.5009
2.4911
2.47464
2.4693
2.48155
2.49082
2.49888
2.50497
2.50948
2.51286
2.5151
2.51634
2.51581
2.51279
2.5067
2.4966
2.48041
2.47425
2.48714
2.49739
2.50579
2.51205
2.51654
2.51954
2.52123
2.52181
2.52066
2.51692
2.51032
2.50034
2.48473
2.47352
2.48763
2.49956
2.50888
2.51584
2.52073
2.52366
2.52505
2.52526
2.52378
2.51978
2.51315
2.50329
2.48815
2.46973
2.48575
2.49822
2.50888
2.51661
2.52195
2.52504
2.52646
2.52669
2.5252
2.52132
2.51472
2.50527
2.49069
2.46449
2.48196
2.49586
2.50773
2.51606
2.52186
2.52518
2.52669
2.52684
2.52528
2.52157
2.51519
2.50612
2.49233
2.45757
2.47586
2.49152
2.50452
2.51368
2.51995
2.52346
2.52509
2.52517
2.52366
2.52012
2.51414
2.50544
2.49327
2.45058
2.46969
2.48664
2.50046
2.51023
2.51667
2.52025
2.52193
2.52175
2.52012
2.51651
2.51083
2.50215
2.49185
2.44118
2.46187
2.48007
2.49472
2.50495
2.51132
2.51489
2.51645
2.51601
2.51425
2.51059
2.50537
2.49704
2.48717
2.43161
2.45372
2.47235
2.48747
2.49796
2.50412
2.50743
2.50832
2.50743
2.50527
2.50127
2.49601
2.48809
2.47806
2.41869
2.44305
2.46239
2.47807
2.48837
2.49389
2.49647
2.49688
2.4955
2.49269
2.48781
2.48211
2.4735
2.46432
2.40454
2.43154
2.45121
2.46699
2.47676
2.48211
2.48358
2.48216
2.47944
2.47544
2.46995
2.46375
2.45385
2.44349
2.42561
2.42253
2.42128
2.41884
2.41885
2.41773
2.42723
2.42224
2.42053
2.41678
2.41696
2.41529
2.42727
2.42139
2.41913
2.41492
2.41544
2.41356
2.42791
2.42085
2.41791
2.41387
2.41446
2.41253
2.42742
2.4199
2.41663
2.4125
2.41306
2.41165
2.42681
2.41903
2.41571
2.4115
2.41214
2.40963
2.42562
2.41804
2.41493
2.41067
2.41147
2.40897
2.42401
2.4167
2.41385
2.40956
2.41046
2.40822
2.42189
2.41507
2.41266
2.40825
2.40903
2.40693
2.41928
2.41343
2.41142
2.4073
2.40824
2.4065
2.41692
2.41131
2.40967
2.40562
2.40647
2.40477
2.41502
2.41022
2.4091
2.40617
2.40788
2.40593
2.41295
2.40878
2.40772
2.40478
2.4053
2.40376
2.41133
2.40828
2.40799
2.40587
2.40683
2.40558
2.40932
2.39986
2.39592
2.38589
2.38617
2.37851
2.41343
2.40283
2.39747
2.38553
2.38501
2.37477
2.41413
2.40235
2.39648
2.38435
2.38448
2.3724
2.41638
2.40332
2.39692
2.38576
2.38669
2.37443
2.41816
2.40475
2.39813
2.38777
2.38929
2.37693
2.42013
2.40703
2.40078
2.39121
2.39303
2.38046
2.42163
2.40966
2.40398
2.39515
2.39693
2.38546
2.42261
2.41186
2.40663
2.39818
2.39906
2.3883
2.4232
2.41355
2.40839
2.39994
2.3998
2.3893
2.42281
2.41368
2.40847
2.40015
2.39946
2.38935
2.42053
2.41125
2.40629
2.39722
2.3964
2.38678
2.41631
2.40671
2.40193
2.39297
2.39268
2.38299
2.40976
2.39937
2.39483
2.38434
2.3829
2.37407
2.40221
2.39207
2.38822
2.37855
2.3784
2.37101
2.44114
2.4131
2.38555
2.3479
2.32401
2.2596
2.44947
2.42106
2.39251
2.35036
2.32294
2.24204
2.45422
2.42475
2.39458
2.34959
2.32135
2.23204
2.46016
2.42984
2.39991
2.35525
2.32776
2.23619
2.46549
2.43507
2.40557
2.36217
2.33797
2.25147
2.46984
2.44007
2.41222
2.37162
2.35099
2.27443
2.4736
2.44468
2.41846
2.38111
2.3631
2.29911
2.47628
2.44887
2.42436
2.3902
2.37312
2.31957
2.47774
2.45215
2.42849
2.39654
2.37961
2.3329
2.47691
2.45286
2.43042
2.4003
2.3838
2.34122
2.47352
2.44959
2.42735
2.39627
2.37903
2.33562
2.46321
2.43934
2.41642
2.38542
2.36779
2.32176
2.44952
2.42338
2.39928
2.3631
2.34283
2.29031
2.4243
2.39658
2.37156
2.33588
2.31583
2.25712
2.4108
2.40823
2.40724
2.40427
2.40468
2.403
2.41089
2.40703
2.40608
2.40317
2.404
2.40232
2.41112
2.40619
2.40465
2.40134
2.40225
2.40004
2.41133
2.40559
2.4034
2.40024
2.4013
2.39863
2.41107
2.4049
2.40215
2.39861
2.39932
2.39736
2.41065
2.40406
2.40097
2.39711
2.39796
2.39516
2.40963
2.40275
2.39989
2.39585
2.39653
2.39417
2.40859
2.40153
2.39871
2.39431
2.3954
2.39325
2.40735
2.40022
2.39757
2.39337
2.39369
2.3916
2.40631
2.39946
2.39713
2.3929
2.39471
2.3919
2.405
2.39887
2.39693
2.39347
2.39426
2.39278
2.40287
2.39777
2.39664
2.39462
2.39657
2.39511
2.40038
2.39628
2.39576
2.39394
2.39523
2.39356
2.39748
2.39484
2.39467
2.39274
2.39417
2.39287
2.39643
2.38602
2.38175
2.37132
2.37201
2.36325
2.40197
2.39101
2.38513
2.37274
2.37281
2.36157
2.40332
2.39089
2.3845
2.37258
2.37272
2.35966
2.4056
2.39236
2.38599
2.37461
2.37564
2.36172
2.4072
2.39366
2.38723
2.37644
2.37781
2.36332
2.4085
2.39521
2.38881
2.37883
2.37989
2.36464
2.40927
2.39673
2.3904
2.38101
2.38205
2.36751
2.40951
2.39775
2.39158
2.38223
2.38243
2.36787
2.40872
2.39721
2.39087
2.38091
2.38038
2.3659
2.40639
2.39527
2.38939
2.37922
2.37831
2.36444
2.4017
2.3901
2.38393
2.37211
2.37084
2.35673
2.39514
2.38286
2.37692
2.36466
2.36264
2.35016
2.38749
2.3748
2.36965
2.35676
2.35499
2.3431
2.37801
2.36554
2.36181
2.35042
2.35099
2.34067
2.42185
2.38793
2.35943
2.31993
2.29724
2.22625
2.43348
2.40157
2.371
2.32754
2.30079
2.2114
2.44156
2.40929
2.3771
2.3319
2.30388
2.20433
2.44847
2.41686
2.38568
2.34009
2.31284
2.21035
2.45426
2.42359
2.39295
2.34909
2.3242
2.22767
2.45902
2.42944
2.39985
2.35844
2.33551
2.24956
2.46256
2.43448
2.40567
2.36664
2.34449
2.27039
2.46426
2.43795
2.41018
2.37277
2.351
2.28398
2.46434
2.43788
2.41123
2.37472
2.35269
2.29105
2.46092
2.43365
2.40711
2.36978
2.34654
2.28457
2.4507
2.42299
2.39619
2.35834
2.33456
2.26907
2.43411
2.40576
2.37798
2.33792
2.31293
2.24476
2.41596
2.38337
2.35537
2.3159
2.29245
2.21683
2.38231
2.35055
2.32694
2.29153
2.26986
2.18987
2.40248
2.4038
2.40301
2.40569
2.40684
2.4103
2.40275
2.40379
2.40333
2.40577
2.40746
2.41256
2.40161
2.40328
2.40203
2.4056
2.40805
2.41433
2.40275
2.40367
2.40296
2.40612
2.40866
2.41565
2.39995
2.40156
2.40087
2.40508
2.40807
2.41516
2.39926
2.4007
2.40025
2.40398
2.40679
2.41417
2.39917
2.40014
2.39972
2.40304
2.40585
2.41299
2.39877
2.39967
2.39937
2.40204
2.40426
2.41105
2.39691
2.39831
2.398
2.40039
2.40224
2.40867
2.39502
2.39693
2.39656
2.39895
2.40033
2.40637
2.39455
2.39653
2.39572
2.39768
2.39857
2.40397
2.39406
2.39616
2.39493
2.39651
2.39688
2.40155
2.39307
2.39533
2.39402
2.3953
2.39534
2.39919
2.39356
2.39562
2.39449
2.39594
2.39631
2.39825
2.35566
2.36423
2.36413
2.37542
2.37939
2.39085
2.36066
2.36966
2.37159
2.38391
2.38878
2.40075
2.36704
2.37643
2.37898
2.39063
2.39623
2.40767
2.37844
2.38837
2.38967
2.39853
2.40389
2.41371
2.38604
2.39491
2.39541
2.40289
2.40726
2.4161
2.39129
2.39903
2.39793
2.40478
2.40834
2.4155
2.39249
2.39895
2.39698
2.4034
2.40476
2.41211
2.38956
2.39646
2.39381
2.39949
2.39992
2.40834
2.38267
2.39094
2.38794
2.39348
2.39387
2.40347
2.37461
2.38409
2.38096
2.38686
2.38779
2.39832
2.36639
2.37677
2.3735
2.37999
2.38157
2.39273
2.35793
2.36815
2.3653
2.37217
2.37478
2.38679
2.34941
2.36095
2.35961
2.36791
2.37115
2.38247
2.34264
2.35364
2.35327
2.36227
2.36507
2.37603
2.22778
2.29601
2.31869
2.35265
2.37496
2.40083
2.25668
2.31949
2.34415
2.37958
2.40297
2.42879
2.28506
2.34067
2.36501
2.39981
2.42293
2.44481
2.3161
2.36451
2.38739
2.41684
2.43476
2.45652
2.33485
2.37756
2.39525
2.42244
2.44033
2.46135
2.34423
2.38358
2.39825
2.42141
2.43706
2.45868
2.34174
2.38146
2.39247
2.41538
2.43111
2.45311
2.33062
2.37535
2.38269
2.40589
2.42237
2.44527
2.3101
2.36457
2.36978
2.3945
2.4126
2.43665
2.28367
2.35014
2.35559
2.38254
2.40264
2.42814
2.25417
2.33274
2.34114
2.37067
2.39247
2.41885
2.22445
2.31373
2.326
2.35821
2.38105
2.40865
2.20007
2.29499
2.312
2.34581
2.369
2.39749
2.18557
2.27426
2.29618
2.33151
2.35458
2.38441
2.41707
2.41832
2.41817
2.42176
2.42326
2.42794
2.42142
2.42257
2.42074
2.42274
2.42427
2.4285
2.42027
2.42114
2.42045
2.42316
2.42486
2.42976
2.42075
2.42178
2.42077
2.42376
2.42531
2.43069
2.4204
2.42092
2.42018
2.42341
2.42558
2.43112
2.4201
2.41982
2.4192
2.42231
2.42427
2.43006
2.41805
2.41797
2.41758
2.42057
2.42252
2.42866
2.41534
2.41571
2.4155
2.41828
2.42005
2.42641
2.41192
2.41302
2.41296
2.41577
2.41757
2.42418
2.40922
2.41067
2.41058
2.41367
2.41541
2.4218
2.40788
2.4095
2.40922
2.41191
2.4134
2.41923
2.40663
2.40801
2.40746
2.41006
2.41126
2.41645
2.40426
2.40629
2.4058
2.40843
2.40942
2.4137
2.404
2.40566
2.40535
2.40777
2.40883
2.4114
2.38534
2.39164
2.39272
2.40222
2.40555
2.41387
2.3937
2.39987
2.40117
2.40858
2.41222
2.42066
2.39949
2.40748
2.40771
2.41399
2.41751
2.4251
2.40761
2.41449
2.41342
2.41883
2.42158
2.42869
2.41182
2.41697
2.41574
2.421
2.42337
2.4291
2.4116
2.41591
2.41431
2.41975
2.42146
2.42698
2.40909
2.41342
2.41103
2.41603
2.41701
2.42347
2.40378
2.40881
2.40572
2.4104
2.41138
2.41913
2.39574
2.40182
2.39869
2.40376
2.40497
2.41413
2.38696
2.39432
2.39121
2.3969
2.39846
2.40854
2.37781
2.38698
2.3837
2.39022
2.39216
2.40333
2.36905
2.37876
2.3761
2.38296
2.38555
2.3977
2.36147
2.37204
2.37084
2.37924
2.38275
2.39438
2.35611
2.36576
2.36551
2.37449
2.37748
2.38788
2.29221
2.34436
2.36674
2.39967
2.42204
2.44345
2.3295
2.37415
2.39411
2.42339
2.44266
2.46335
2.35785
2.39605
2.41435
2.44029
2.45572
2.47346
2.37648
2.40864
2.42198
2.44474
2.46046
2.47811
2.38539
2.41338
2.42363
2.4428
2.45676
2.4751
2.3843
2.41177
2.41896
2.43738
2.45116
2.47028
2.37554
2.40592
2.40935
2.42751
2.44161
2.4624
2.3586
2.39599
2.39695
2.41696
2.43217
2.45496
2.3348
2.38238
2.38303
2.40548
2.42249
2.44672
2.30908
2.36705
2.36894
2.3941
2.41329
2.43903
2.2816
2.34993
2.35513
2.38312
2.40412
2.43028
2.25529
2.33213
2.3415
2.37179
2.39397
2.42079
2.23372
2.31477
2.32998
2.36242
2.38508
2.41256
2.21995
2.29602
2.31863
2.35192
2.37453
2.4001
2.50283
2.50347
2.5117
2.51368
2.51821
2.52086
2.52551
2.52966
2.53535
2.53987
2.54265
2.54262
2.5429
2.53411
2.52058
2.5214
2.52693
2.52939
2.53307
2.53565
2.53939
2.54255
2.5469
2.55034
2.552
2.55042
2.54647
2.53428
2.53098
2.53513
2.53999
2.54323
2.54615
2.54851
2.55127
2.55366
2.55652
2.55807
2.55833
2.55588
2.55014
2.53906
2.535
2.54272
2.54825
2.55272
2.55572
2.55804
2.56024
2.56199
2.56372
2.56426
2.56332
2.55986
2.55302
2.54159
2.53483
2.54453
2.55205
2.55756
2.5613
2.56406
2.56625
2.5677
2.56868
2.56851
2.56661
2.56261
2.55529
2.5446
2.53249
2.5438
2.55226
2.55927
2.56429
2.56777
2.57015
2.57144
2.572
2.57151
2.56922
2.56471
2.55699
2.54624
2.5285
2.54031
2.5507
2.55898
2.56508
2.56922
2.57192
2.57328
2.5738
2.57326
2.57086
2.56641
2.55888
2.54851
2.52497
2.53728
2.54933
2.55867
2.56557
2.57016
2.57296
2.5743
2.57471
2.57403
2.57155
2.56721
2.56003
2.55016
2.52014
2.53345
2.54657
2.55703
2.56472
2.56969
2.57265
2.57409
2.57452
2.57388
2.57154
2.56752
2.56094
2.55208
2.51753
2.53186
2.54542
2.5562
2.56394
2.56879
2.57155
2.57283
2.57304
2.57231
2.57004
2.56637
2.56017
2.5525
2.51237
2.5277
2.5422
2.55368
2.56179
2.56656
2.56902
2.57008
2.56998
2.56924
2.56708
2.56406
2.55816
2.55168
2.51088
2.52617
2.54071
2.55183
2.55949
2.56362
2.5653
2.56577
2.56504
2.56393
2.56138
2.55862
2.55236
2.54647
2.50112
2.52044
2.53612
2.54754
2.55464
2.55805
2.55905
2.55892
2.55751
2.55595
2.55298
2.5506
2.54534
2.54138
2.49889
2.52017
2.53487
2.54387
2.54964
2.55194
2.55151
2.55014
2.54777
2.54528
2.54099
2.53781
2.53036
2.52803
2.56565
2.56212
2.56639
2.5647
2.5652
2.56506
2.56749
2.57081
2.57636
2.58277
2.58803
2.59073
2.59576
2.59194
2.57765
2.57443
2.57612
2.5758
2.57678
2.57752
2.58013
2.58299
2.58749
2.5919
2.59583
2.59718
2.59752
2.59124
2.5816
2.58311
2.58491
2.58622
2.58741
2.58853
2.59068
2.59288
2.5961
2.599
2.60065
2.60119
2.59912
2.5935
2.5817
2.58724
2.59063
2.59338
2.59513
2.59665
2.59868
2.60054
2.60276
2.6045
2.60497
2.60381
2.60061
2.59397
2.57957
2.58714
2.59266
2.59658
2.59953
2.60196
2.60421
2.60594
2.60745
2.60833
2.60784
2.60582
2.60156
2.59488
2.57636
2.58507
2.59196
2.5976
2.602
2.6053
2.60784
2.60955
2.61071
2.61111
2.61015
2.60744
2.60219
2.59486
2.57168
2.58119
2.59015
2.59729
2.60283
2.60691
2.6098
2.61163
2.61264
2.61291
2.61171
2.60883
2.60333
2.59568
2.56801
2.57856
2.5888
2.59717
2.60355
2.60803
2.61103
2.61287
2.61378
2.6139
2.6125
2.60956
2.60425
2.59665
2.56575
2.57671
2.58749
2.59659
2.60346
2.60819
2.61131
2.61319
2.61407
2.61419
2.61285
2.61012
2.6054
2.59864
2.56682
2.57735
2.58804
2.59709
2.60382
2.60822
2.61102
2.61269
2.61338
2.61346
2.61218
2.60971
2.6055
2.59972
2.56698
2.57712
2.58776
2.59668
2.60336
2.60733
2.60969
2.61108
2.61153
2.61164
2.61066
2.6088
2.60534
2.60102
2.5706
2.57949
2.58926
2.59735
2.60311
2.60616
2.60769
2.60851
2.60852
2.60849
2.60752
2.60614
2.60248
2.59919
2.5655
2.57825
2.58842
2.59638
2.60141
2.60359
2.60421
2.6044
2.60396
2.60374
2.60263
2.60242
2.60026
2.59909
2.56957
2.58333
2.59152
2.59707
2.60041
2.60074
2.59993
2.5991
2.59808
2.59762
2.59616
2.5962
2.59281
2.59289
2.61394
2.60986
2.61047
2.60727
2.60592
2.60457
2.60526
2.60771
2.61155
2.61646
2.62272
2.62721
2.63366
2.63333
2.62206
2.61807
2.61657
2.61467
2.61372
2.61317
2.61431
2.61641
2.61985
2.62414
2.628
2.63192
2.63483
2.63291
2.62181
2.62243
2.6216
2.62122
2.62092
2.62102
2.62217
2.62373
2.62616
2.62912
2.63134
2.63332
2.63462
2.63317
2.62056
2.62361
2.62475
2.62541
2.626
2.62673
2.62804
2.62938
2.63118
2.63323
2.63466
2.63504
2.63507
2.633
2.61767
2.62274
2.6248
2.62721
2.62908
2.63071
2.63226
2.63356
2.63494
2.63616
2.63679
2.63657
2.63513
2.63258
2.6141
2.61969
2.62423
2.62812
2.63102
2.6333
2.63512
2.63651
2.63769
2.63851
2.63867
2.63797
2.63552
2.63205
2.6099
2.61729
2.62329
2.62824
2.63209
2.63496
2.63706
2.63853
2.63957
2.64018
2.64007
2.63911
2.63636
2.6323
2.60822
2.616
2.6232
2.62897
2.63337
2.6365
2.63868
2.64015
2.64104
2.64152
2.64112
2.63986
2.63707
2.63286
2.60813
2.6158
2.62333
2.62957
2.63423
2.63745
2.63968
2.64117
2.64199
2.64246
2.64201
2.64079
2.63838
2.63448
2.61123
2.61786
2.62502
2.63108
2.63554
2.63845
2.64043
2.64178
2.64245
2.64293
2.64245
2.64131
2.63935
2.63565
2.61366
2.61971
2.62648
2.63217
2.63645
2.63895
2.6406
2.64185
2.6424
2.64301
2.64273
2.64195
2.64091
2.63789
2.61916
2.62415
2.62976
2.63431
2.63771
2.63942
2.64055
2.64156
2.64186
2.64252
2.64232
2.64181
2.64066
2.63826
2.61845
2.62629
2.63197
2.63603
2.6386
2.63943
2.63992
2.64056
2.64053
2.64119
2.64093
2.64164
2.64179
2.64159
2.62393
2.6335
2.63632
2.63854
2.63987
2.6393
2.63876
2.63883
2.63859
2.63935
2.63892
2.64024
2.63929
2.63996
2.64047
2.63513
2.63352
2.63098
2.62951
2.62879
2.62987
2.63217
2.63579
2.6402
2.64516
2.64965
2.65603
2.65783
2.64552
2.64201
2.6393
2.63762
2.63657
2.63627
2.6376
2.63952
2.6426
2.64636
2.65022
2.65346
2.65692
2.65674
2.64416
2.64417
2.64302
2.64277
2.64276
2.64314
2.64445
2.6459
2.64801
2.65049
2.65252
2.65489
2.65651
2.65628
2.6436
2.64521
2.64572
2.64625
2.64707
2.64806
2.64947
2.65075
2.65238
2.65423
2.65563
2.65617
2.65679
2.65607
2.64032
2.64427
2.64594
2.64792
2.64995
2.65166
2.65325
2.65452
2.65582
2.65699
2.65768
2.65777
2.657
2.65561
2.63769
2.6422
2.64607
2.64934
2.65203
2.65418
2.65593
2.65725
2.65836
2.65915
2.65948
2.65912
2.65743
2.65533
2.63476
2.64061
2.64579
2.64997
2.65335
2.65593
2.65787
2.65925
2.66022
2.66079
2.66085
2.66028
2.65841
2.65576
2.63363
2.64004
2.64615
2.65103
2.65478
2.65753
2.65951
2.66084
2.66166
2.66209
2.66186
2.66104
2.65912
2.65622
2.63366
2.64025
2.6467
2.6519
2.6558
2.65858
2.66058
2.66192
2.66265
2.66307
2.66281
2.66204
2.66051
2.65774
2.63595
2.64214
2.64834
2.65339
2.65713
2.65963
2.66143
2.66267
2.66328
2.66369
2.66343
2.66271
2.66157
2.65888
2.63843
2.64433
2.65006
2.65469
2.6582
2.66032
2.66185
2.66302
2.66356
2.66405
2.664
2.66368
2.66334
2.66143
2.64371
2.64874
2.65324
2.65697
2.65973
2.66121
2.66231
2.66325
2.66363
2.66417
2.66419
2.66402
2.66398
2.66319
2.64568
2.65251
2.65628
2.65898
2.66083
2.66149
2.66218
2.66294
2.66318
2.66387
2.66416
2.66463
2.66602
2.66618
2.65252
2.65957
2.66067
2.66263
2.6628
2.66235
2.66224
2.66251
2.66249
2.66331
2.66348
2.6649
2.6653
2.66649
2.65435
2.64907
2.64714
2.64544
2.64446
2.64425
2.64584
2.6482
2.65153
2.65593
2.65998
2.66363
2.66926
2.67129
2.65858
2.65562
2.65321
2.65187
2.65134
2.65157
2.65316
2.65526
2.65809
2.66126
2.66442
2.66688
2.66992
2.67022
2.65768
2.65745
2.65677
2.65683
2.65726
2.6581
2.65956
2.66109
2.66294
2.66497
2.66675
2.66863
2.66993
2.66981
2.6581
2.65918
2.6599
2.6606
2.66167
2.66283
2.66426
2.66553
2.66695
2.66837
2.66952
2.66978
2.67024
2.66968
2.65581
2.65912
2.66087
2.66267
2.66472
2.66642
2.66794
2.66909
2.67016
2.67104
2.67151
2.67145
2.67072
2.6695
2.65397
2.65843
2.66157
2.66457
2.66708
2.66908
2.67068
2.67179
2.67262
2.67316
2.67325
2.67275
2.67132
2.66951
2.65193
2.65737
2.6619
2.66564
2.66867
2.67098
2.67268
2.67379
2.67447
2.67482
2.67463
2.67397
2.67237
2.67004
2.65083
2.65696
2.66247
2.66679
2.67011
2.67255
2.67427
2.67534
2.6759
2.6761
2.6757
2.67487
2.67319
2.67062
2.65053
2.65695
2.66291
2.66755
2.67099
2.67351
2.67525
2.67634
2.67686
2.67706
2.67666
2.67587
2.6745
2.67205
2.65202
2.6583
2.6641
2.66874
2.6721
2.67446
2.67607
2.67709
2.67754
2.67776
2.67743
2.67668
2.67567
2.67332
2.65372
2.66005
2.66536
2.66975
2.67288
2.67498
2.67642
2.67743
2.67787
2.67817
2.67813
2.6777
2.67727
2.67588
2.658
2.66376
2.66797
2.67173
2.67432
2.67597
2.6771
2.6779
2.67816
2.67839
2.67842
2.67828
2.67831
2.67727
2.66069
2.66726
2.67048
2.67345
2.6751
2.67613
2.67693
2.67759
2.67776
2.67811
2.67857
2.67899
2.6804
2.68059
2.6676
2.67344
2.67464
2.67674
2.67745
2.67712
2.67729
2.67754
2.67745
2.67792
2.6782
2.67924
2.68018
2.68138
2.66279
2.6581
2.65664
2.65556
2.65522
2.65551
2.65725
2.65961
2.66287
2.66675
2.67022
2.67301
2.67739
2.67905
2.66626
2.66398
2.66232
2.66152
2.6615
2.66228
2.66396
2.6661
2.66877
2.67154
2.67402
2.67579
2.67801
2.67815
2.66605
2.66587
2.66577
2.6662
2.66704
2.66827
2.66988
2.67146
2.67319
2.6749
2.67625
2.6777
2.67836
2.678
2.66731
2.66823
2.66912
2.67009
2.6714
2.67275
2.67429
2.67557
2.67692
2.67808
2.67888
2.67884
2.67877
2.67803
2.66616
2.66884
2.67073
2.67259
2.67453
2.67624
2.6778
2.67894
2.67992
2.68062
2.68088
2.68054
2.67948
2.67817
2.66513
2.6689
2.67186
2.67465
2.677
2.67896
2.68052
2.68156
2.68229
2.68268
2.68254
2.6818
2.68029
2.67842
2.66368
2.66849
2.67249
2.67592
2.67867
2.68086
2.68248
2.68349
2.68409
2.6843
2.68393
2.68309
2.68143
2.67912
2.66252
2.66827
2.67313
2.67703
2.68002
2.68233
2.68395
2.68494
2.68546
2.68558
2.68508
2.68413
2.68241
2.67979
2.66222
2.66823
2.67348
2.67765
2.68074
2.68311
2.68476
2.68578
2.68632
2.68648
2.68605
2.68517
2.68373
2.68118
2.66334
2.66926
2.67441
2.6786
2.68161
2.68391
2.68545
2.68642
2.68691
2.68711
2.68681
2.68605
2.68495
2.68253
2.66465
2.67068
2.67536
2.67938
2.68213
2.68417
2.68555
2.68652
2.68703
2.68731
2.68732
2.68691
2.68632
2.68475
2.66824
2.67376
2.67742
2.68098
2.68332
2.68504
2.68615
2.68693
2.68723
2.68737
2.68748
2.68735
2.68732
2.68594
2.67073
2.6767
2.67943
2.68246
2.68403
2.68512
2.68591
2.68648
2.6866
2.68683
2.68733
2.68778
2.68872
2.68872
2.67709
2.68168
2.68273
2.68497
2.68572
2.68577
2.68592
2.68612
2.68603
2.68635
2.68677
2.68766
2.68876
2.68982
2.66906
2.66533
2.66451
2.66399
2.66419
2.66486
2.66649
2.66859
2.67148
2.67477
2.67777
2.67996
2.68331
2.68467
2.67219
2.67044
2.66943
2.66915
2.66963
2.67065
2.67236
2.67429
2.67667
2.679
2.68106
2.6823
2.68382
2.68392
2.67257
2.67247
2.6727
2.67344
2.67458
2.67596
2.67759
2.67906
2.68061
2.682
2.68301
2.68404
2.68431
2.68383
2.67433
2.67512
2.67602
2.67716
2.67854
2.68
2.68154
2.6828
2.68405
2.685
2.68558
2.68534
2.68483
2.68396
2.67392
2.67614
2.67781
2.67963
2.68146
2.68322
2.6848
2.68596
2.68689
2.68746
2.68757
2.68698
2.68563
2.68417
2.67332
2.67658
2.67913
2.68169
2.68387
2.6858
2.68737
2.68845
2.68917
2.68951
2.68921
2.6882
2.68647
2.68447
2.67234
2.6765
2.67994
2.68299
2.68548
2.68759
2.68922
2.6903
2.69093
2.69114
2.69062
2.68954
2.68767
2.68521
2.67172
2.67662
2.68071
2.68413
2.68681
2.68901
2.69063
2.6917
2.6923
2.69245
2.69187
2.69073
2.68883
2.68604
2.67161
2.67674
2.68113
2.68477
2.68752
2.68977
2.69139
2.69249
2.69311
2.69334
2.69289
2.69187
2.69023
2.68749
2.67268
2.67776
2.68206
2.68573
2.6884
2.69057
2.69208
2.69309
2.69366
2.69394
2.69368
2.69285
2.69156
2.68898
2.67385
2.679
2.68292
2.68645
2.68886
2.69077
2.69207
2.69305
2.69363
2.69402
2.69407
2.69362
2.69284
2.69089
2.67689
2.6816
2.68466
2.68784
2.6899
2.69153
2.6926
2.69338
2.69381
2.69404
2.69423
2.69407
2.69385
2.69206
2.67897
2.68399
2.68631
2.68908
2.69053
2.6916
2.69236
2.69293
2.69318
2.69347
2.69398
2.69442
2.69492
2.69449
2.68439
2.68808
2.68897
2.69108
2.69174
2.69202
2.69226
2.69253
2.69267
2.69315
2.69372
2.69443
2.69528
2.69581
2.67476
2.67721
2.67996
2.68261
2.68474
2.68762
2.68908
2.67975
2.68184
2.68378
2.6856
2.68676
2.68811
2.68847
2.68395
2.68535
2.68653
2.68764
2.68846
2.68866
2.68841
2.68742
2.68857
2.68944
2.68983
2.68988
2.68937
2.68861
2.69041
2.69131
2.69179
2.69188
2.69138
2.69014
2.68879
2.69284
2.69358
2.69389
2.69363
2.69264
2.69093
2.68905
2.6947
2.69539
2.69561
2.69511
2.69394
2.69205
2.68974
2.69615
2.69681
2.69701
2.69642
2.69522
2.69335
2.69069
2.67835
2.68272
2.68637
2.68959
2.69207
2.69424
2.69586
2.69702
2.69771
2.69797
2.69748
2.6964
2.69477
2.69209
2.6796
2.68388
2.68742
2.69061
2.693
2.69509
2.6966
2.69768
2.69832
2.69863
2.69833
2.69745
2.69616
2.69364
2.6809
2.68515
2.68833
2.69138
2.69351
2.69535
2.69665
2.69764
2.69828
2.69873
2.69879
2.69832
2.69748
2.69539
2.68361
2.68739
2.68989
2.69261
2.69438
2.69594
2.69706
2.69793
2.69851
2.69883
2.69912
2.69903
2.69859
2.69667
2.68551
2.68952
2.69138
2.69375
2.69498
2.69605
2.69683
2.69752
2.698
2.69839
2.69897
2.69946
2.69959
2.69888
2.69003
2.69284
2.6936
2.69537
2.69588
2.6963
2.69669
2.69718
2.69767
2.69839
2.69912
2.69972
2.70024
2.7003
2.49276
2.48971
2.48751
2.49688
2.52694
2.57246
2.48639
2.47742
2.47466
2.48414
2.51594
2.56835
2.49467
2.48363
2.47715
2.47897
2.50351
2.55216
2.49639
2.48175
2.47186
2.46949
2.48847
2.53046
2.50112
2.48359
2.47118
2.4654
2.47937
2.5131
2.50458
2.48584
2.47336
2.46658
2.47552
2.5005
2.51019
2.49136
2.48026
2.47298
2.47959
2.49824
2.5155
2.49871
2.48994
2.48395
2.48924
2.50576
2.52228
2.50883
2.50203
2.49673
2.50149
2.51671
2.5288
2.51887
2.51312
2.50836
2.51429
2.52894
2.53385
2.52678
2.52252
2.5175
2.52464
2.53948
2.53494
2.53053
2.52584
2.52123
2.53165
2.54981
2.53477
2.52812
2.52124
2.51694
2.53102
2.55557
2.51996
2.51562
2.50953
2.50899
2.52802
2.55733
2.56438
2.57484
2.58512
2.60239
2.62747
2.65396
2.55124
2.5561
2.56707
2.58657
2.61708
2.65171
2.55627
2.55726
2.56124
2.57246
2.59571
2.6267
2.55262
2.54839
2.54648
2.55095
2.56795
2.59096
2.55222
2.5431
2.5358
2.53422
2.54479
2.55973
2.552
2.53987
2.52962
2.52449
2.52916
2.53732
2.55464
2.54032
2.52933
2.52215
2.52448
2.52898
2.55938
2.54487
2.53521
2.52772
2.52995
2.53194
2.56619
2.55319
2.54649
2.54006
2.54351
2.54311
2.5735
2.56372
2.55925
2.55539
2.56091
2.55916
2.58107
2.57543
2.57264
2.57128
2.57818
2.57743
2.5853
2.58385
2.58464
2.58594
2.59534
2.59819
2.59129
2.58983
2.5906
2.59364
2.6053
2.61438
2.58162
2.58472
2.58768
2.59548
2.61085
2.62389
2.61578
2.62802
2.63824
2.65132
2.6658
2.68299
2.60182
2.61015
2.62254
2.63823
2.65799
2.68091
2.60322
2.60766
2.6143
2.62508
2.64014
2.65733
2.59839
2.59885
2.6006
2.60507
2.6125
2.62196
2.59613
2.59107
2.58736
2.58578
2.5868
2.59008
2.59442
2.58676
2.57925
2.57304
2.56935
2.56722
2.59548
2.58615
2.57618
2.5671
2.56093
2.55622
2.59878
2.58865
2.57819
2.56923
2.56335
2.55908
2.60479
2.59476
2.58709
2.57943
2.57502
2.57275
2.61161
2.60271
2.59836
2.59333
2.59226
2.59262
2.61908
2.61436
2.61256
2.61077
2.61263
2.61573
2.62459
2.62417
2.6261
2.62779
2.63278
2.63812
2.63334
2.63327
2.63693
2.64016
2.64761
2.65623
2.62706
2.63201
2.63681
2.64511
2.6542
2.66445
2.64347
2.65398
2.66039
2.66884
2.67803
2.69056
2.62694
2.63254
2.6416
2.65636
2.67337
2.69045
2.62598
2.62853
2.63416
2.64429
2.65794
2.67142
2.62158
2.62067
2.6231
2.62852
2.6352
2.6393
2.61939
2.61385
2.61141
2.61025
2.60948
2.60728
2.61842
2.60997
2.60402
2.59786
2.5918
2.58295
2.61994
2.60992
2.60197
2.59218
2.58328
2.57179
2.62321
2.61333
2.60324
2.59313
2.58486
2.57407
2.62869
2.61944
2.61124
2.60312
2.59646
2.58779
2.63521
2.62714
2.62236
2.61604
2.61255
2.60767
2.6424
2.63779
2.63632
2.63336
2.63282
2.63153
2.64806
2.64724
2.64914
2.64962
2.65276
2.6544
2.65683
2.65683
2.6607
2.66296
2.66814
2.67301
2.65386
2.65858
2.66254
2.66961
2.67611
2.68271
2.6553
2.66294
2.66531
2.66974
2.67531
2.68563
2.64038
2.6423
2.64509
2.65354
2.66631
2.68211
2.63865
2.63754
2.63737
2.64228
2.65185
2.66527
2.63507
2.63013
2.62697
2.62873
2.63332
2.63927
2.63351
2.62531
2.6189
2.61537
2.61289
2.61091
2.63335
2.62286
2.61412
2.60604
2.59837
2.59012
2.63556
2.62374
2.6148
2.60372
2.59369
2.58175
2.63944
2.62798
2.61847
2.60673
2.59759
2.58584
2.64463
2.63447
2.62605
2.61789
2.61045
2.60112
2.65033
2.64289
2.63727
2.63126
2.6266
2.62149
2.6569
2.65248
2.65007
2.64751
2.64654
2.64523
2.66186
2.66093
2.66179
2.66236
2.66481
2.66688
2.66931
2.66933
2.67254
2.67451
2.67859
2.68342
2.66853
2.67271
2.67538
2.68051
2.68593
2.69287
2.66247
2.66822
2.66949
2.6717
2.67519
2.68124
2.65021
2.65045
2.64989
2.65374
2.66083
2.6726
2.64857
2.64572
2.64263
2.64311
2.64797
2.65739
2.64582
2.63925
2.6326
2.62989
2.63112
2.63559
2.64487
2.63585
2.62647
2.62017
2.61506
2.61173
2.64507
2.63428
2.62309
2.61394
2.60353
2.59434
2.64748
2.63613
2.62392
2.61437
2.60164
2.58935
2.65134
2.64055
2.63019
2.61808
2.60712
2.59501
2.65609
2.64673
2.63766
2.62889
2.62093
2.61119
2.66149
2.6548
2.64872
2.64235
2.63704
2.6314
2.6672
2.66296
2.6603
2.65758
2.65639
2.65503
2.67144
2.67012
2.67038
2.67078
2.67279
2.67472
2.67724
2.67713
2.67973
2.6817
2.6854
2.68986
2.67693
2.68052
2.68284
2.68709
2.69187
2.69827
2.66823
2.67224
2.67294
2.6745
2.67591
2.67941
2.65849
2.65796
2.65614
2.65738
2.66025
2.66532
2.65718
2.65384
2.64938
2.64701
2.64658
2.65038
2.65529
2.64851
2.64063
2.63487
2.63146
2.63186
2.65499
2.64602
2.63588
2.62661
2.61929
2.61367
2.65563
2.6451
2.63348
2.62176
2.61159
2.60016
2.65785
2.64698
2.63531
2.62251
2.6116
2.59751
2.66127
2.65183
2.6411
2.62883
2.61698
2.6044
2.66539
2.65737
2.64847
2.639
2.63043
2.62071
2.67005
2.66441
2.65851
2.65212
2.64633
2.64024
2.67494
2.67141
2.66871
2.6659
2.66432
2.66273
2.67852
2.67732
2.67728
2.6774
2.67899
2.68061
2.68324
2.68311
2.68527