/*--------------------------------*- C++ -*----------------------------------*\
| =========                 |                                                 |
| \\      /  F ield         | OpenFOAM: The Open Source CFD Toolbox           |
|  \\    /   O peration     | Version:  v2106                                 |
|   \\  /    A nd           | Website:  www.openfoam.com                      |
|    \\/     M anipulation  |                                                 |
\*---------------------------------------------------------------------------*/
FoamFile
{
    version     2.0;
    format      ascii;
    arch        "LSB;label=32;scalar=64";
    class       volScalarField;
    location    "0.000128";
    object      T;
}
// * * * * * * * * * * * * * * * * * * * * * * * * * * * * * * * * * * * * * //

dimensions      [0 0 0 1 0 0 0];

internalField   nonuniform List<scalar> 
18273
(
296.291
296.071
295.863
295.695
295.531
295.378
295.211
295.048
294.897
294.81
294.77
294.788
294.927
295.184
295.738
295.367
295.107
294.954
294.828
294.728
294.612
294.51
294.419
294.356
294.322
294.35
294.535
294.901
295.268
294.867
294.573
294.417
294.297
294.216
294.126
294.057
294.009
293.973
293.954
294.011
294.228
294.638
295.019
294.626
294.32
294.153
294.026
293.95
293.876
293.822
293.786
293.753
293.74
293.801
294.023
294.43
294.922
294.522
294.202
294.016
293.881
293.8
293.728
293.676
293.643
293.607
293.593
293.65
293.85
294.234
294.905
294.487
294.148
293.941
293.79
293.698
293.621
293.569
293.536
293.498
293.487
293.535
293.712
294.068
294.932
294.489
294.121
293.886
293.719
293.619
293.536
293.484
293.448
293.413
293.402
293.441
293.597
293.926
295.003
294.498
294.092
293.829
293.651
293.544
293.463
293.416
293.38
293.346
293.334
293.37
293.523
293.829
295.088
294.513
294.074
293.79
293.603
293.486
293.407
293.36
293.325
293.295
293.286
293.326
293.482
293.775
295.188
294.54
294.067
293.77
293.578
293.453
293.377
293.333
293.304
293.28
293.272
293.315
293.474
293.763
295.301
294.594
294.087
293.78
293.587
293.463
293.385
293.341
293.314
293.299
293.301
293.353
293.518
293.81
295.418
294.677
294.138
293.818
293.624
293.505
293.437
293.403
293.391
293.39
293.408
293.466
293.638
293.932
295.59
294.872
294.325
293.979
293.773
293.657
293.604
293.582
293.586
293.607
293.65
293.72
293.896
294.176
295.803
295.196
294.647
294.268
294.042
293.933
293.897
293.892
293.925
293.983
294.065
294.166
294.355
294.579
296.277
296.357
296.395
296.509
296.6
296.65
296.666
296.622
296.552
296.499
296.415
296.303
296.261
296.235
296.195
296.218
296.23
296.322
296.419
296.474
296.497
296.467
296.434
296.378
296.29
296.182
296.169
296.228
296.126
296.091
296.067
296.126
296.204
296.262
296.302
296.307
296.309
296.268
296.199
296.132
296.136
296.228
296.144
296.078
296.016
296.025
296.055
296.094
296.145
296.184
296.204
296.194
296.158
296.135
296.164
296.266
296.196
296.114
295.993
295.953
295.945
295.974
296.037
296.105
296.136
296.124
296.129
296.137
296.187
296.299
296.264
296.167
296.02
295.966
295.928
295.94
295.994
296.064
296.098
296.09
296.1
296.123
296.203
296.321
296.323
296.199
296.034
295.95
295.889
295.904
295.965
296.046
296.086
296.075
296.093
296.112
296.191
296.308
296.384
296.231
296.044
295.903
295.853
295.861
295.925
296.008
296.05
296.038
296.059
296.078
296.161
296.273
296.398
296.218
296.027
295.847
295.801
295.8
295.86
295.941
295.979
295.968
295.986
296.012
296.092
296.205
296.424
296.216
295.999
295.801
295.742
295.738
295.796
295.879
295.916
295.904
295.917
295.942
296.007
296.115
296.417
296.179
295.955
295.758
295.694
295.691
295.747
295.826
295.857
295.849
295.867
295.887
295.947
296.056
296.385
296.126
295.908
295.732
295.673
295.684
295.757
295.85
295.891
295.875
295.89
295.883
295.941
296.062
296.399
296.153
295.942
295.781
295.724
295.74
295.818
295.912
295.956
295.97
295.987
295.979
296.011
296.082
296.333
296.145
295.978
295.848
295.793
295.827
295.929
296.05
296.127
296.17
296.187
296.172
296.169
296.142
297.861
298.113
298.362
298.511
298.677
298.797
298.922
298.975
299.021
299.025
299.047
298.965
298.852
298.652
298.198
298.346
298.621
298.815
299.005
299.147
299.265
299.323
299.376
299.365
299.295
299.138
298.953
298.849
298.33
298.565
298.82
299.045
299.234
299.378
299.48
299.529
299.563
299.539
299.452
299.28
299.144
299.043
298.416
298.723
298.946
299.162
299.335
299.47
299.575
299.649
299.695
299.679
299.592
299.469
299.336
299.197
298.546
298.881
299.087
299.248
299.387
299.514
299.629
299.724
299.773
299.759
299.687
299.582
299.462
299.293
298.556
298.942
299.183
299.339
299.456
299.572
299.688
299.79
299.837
299.82
299.757
299.661
299.534
299.338
298.506
298.952
299.182
299.364
299.483
299.599
299.714
299.821
299.871
299.854
299.795
299.689
299.551
299.337
298.474
298.951
299.185
299.361
299.476
299.599
299.721
299.831
299.875
299.852
299.796
299.687
299.543
299.316
298.416
298.887
299.135
299.304
299.417
299.542
299.667
299.779
299.818
299.791
299.732
299.629
299.484
299.298
298.414
298.857
299.095
299.242
299.349
299.468
299.592
299.703
299.727
299.688
299.609
299.497
299.332
299.207
298.347
298.773
298.999
299.137
299.244
299.357
299.485
299.593
299.608
299.566
299.469
299.355
299.189
299.066
298.333
298.68
298.862
299
299.12
299.235
299.373
299.461
299.467
299.429
299.322
299.191
299.027
298.922
298.164
298.5
298.663
298.821
298.952
299.076
299.22
299.31
299.321
299.296
299.199
299.085
298.867
298.776
297.967
298.424
298.526
298.664
298.79
298.972
299.113
299.155
299.169
299.163
299.123
299.076
298.822
298.558
295.607
296.032
296.425
296.609
296.764
296.729
295.529
296.026
296.523
296.708
296.904
296.837
295.331
295.947
296.544
296.781
296.978
296.886
295.151
295.835
296.521
296.799
296.983
296.87
294.952
295.679
296.409
296.701
296.865
296.768
294.772
295.495
296.224
296.511
296.666
296.519
294.593
295.282
295.988
296.275
296.443
296.297
294.438
295.062
295.734
296.022
296.23
296.107
294.329
294.882
295.517
295.797
296.029
295.933
294.283
294.785
295.362
295.629
295.851
295.816
294.307
294.741
295.272
295.5
295.711
295.692
294.428
294.851
295.351
295.576
295.812
295.773
294.673
295.055
295.458
295.58
295.746
295.711
294.994
295.321
295.668
295.843
296.051
296.005
296.303
296.269
296.747
297.076
297.51
297.236
296.466
296.462
296.95
297.213
297.659
297.303
296.432
296.514
296.983
297.198
297.598
297.131
296.487
296.577
297.011
297.177
297.523
297.003
296.512
296.61
296.983
297.022
297.3
296.747
296.527
296.61
296.922
296.85
297.044
296.459
296.507
296.575
296.835
296.717
296.872
296.338
296.466
296.536
296.775
296.636
296.798
296.319
296.419
296.543
296.781
296.623
296.809
296.383
296.34
296.489
296.729
296.574
296.786
296.455
296.272
296.369
296.623
296.48
296.712
296.438
296.282
296.298
296.563
296.496
296.76
296.467
296.31
296.261
296.543
296.462
296.692
296.41
296.339
296.29
296.717
296.784
297.075
296.796
298.546
298.274
298.267
297.471
297.147
294.196
298.947
298.69
298.61
297.518
296.928
293.13
299.064
298.739
298.447
297.095
296.382
292.079
299.191
298.775
298.364
296.868
295.988
291.487
299.253
298.763
298.278
296.656
295.671
291.359
299.266
298.743
298.249
296.598
295.525
291.619
299.261
298.715
298.229
296.661
295.622
292.356
299.223
298.696
298.292
296.974
296.093
293.432
299.162
298.722
298.457
297.444
296.809
294.569
299.036
298.694
298.661
297.944
297.468
295.452
298.936
298.665
298.791
298.181
297.732
295.626
298.811
298.605
298.771
298.244
297.784
295.453
298.856
298.619
298.812
298.008
297.38
294.719
298.365
298.117
298.312
297.529
296.95
294.003
295.106
295.506
295.868
296.073
296.273
296.202
294.995
295.499
295.993
296.255
296.49
296.393
294.859
295.477
296.069
296.35
296.559
296.42
294.742
295.414
296.076
296.39
296.593
296.42
294.629
295.316
296.002
296.303
296.472
296.319
294.531
295.191
295.858
296.142
296.311
296.101
294.459
295.065
295.703
295.961
296.132
295.943
294.442
294.995
295.575
295.787
295.987
295.817
294.458
294.969
295.516
295.707
295.857
295.709
294.558
295.048
295.553
295.69
295.914
295.75
294.792
295.257
295.707
295.811
295.947
295.852
295.179
295.609
296.009
296.135
296.324
296.211
295.698
296.06
296.381
296.511
296.671
296.533
296.164
296.474
296.748
296.828
296.968
296.855
296.233
296.182
296.68
296.92
297.299
296.932
296.474
296.473
296.97
297.128
297.528
297.098
296.443
296.508
296.951
297.114
297.481
296.947
296.455
296.543
296.942
297.064
297.407
296.819
296.421
296.532
296.875
296.872
297.163
296.551
296.367
296.469
296.768
296.713
296.94
296.285
296.288
296.405
296.685
296.614
296.86
296.251
296.179
296.335
296.626
296.543
296.819
296.254
296.067
296.232
296.544
296.464
296.797
296.292
296.023
296.164
296.521
296.513
296.902
296.471
296.069
296.133
296.484
296.481
296.903
296.456
296.249
296.228
296.618
296.745
297.17
296.761
296.49
296.465
296.961
297.073
297.446
297.03
296.54
296.513
297.061
297.112
297.492
297.12
298.578
298.212
298.25
297.211
296.604
293.166
299.01
298.751
298.715
297.52
296.792
292.423
299.128
298.79
298.504
297.12
296.351
291.481
299.145
298.769
298.388
296.845
295.993
290.93
299.115
298.705
298.254
296.661
295.746
290.962
299.063
298.622
298.159
296.627
295.669
291.373
299.001
298.57
298.13
296.753
295.891
292.224
298.915
298.557
298.234
297.097
296.376
293.182
298.796
298.468
298.332
297.426
296.841
293.994
298.634
298.317
298.392
297.637
297.166
294.343
298.483
298.203
298.359
297.702
297.366
294.325
298.391
298.138
298.305
297.545
297.153
294.024
298.523
298.079
298.156
297.319
297.027
293.478
297.605
296.892
296.784
295.947
295.869
292.082
297.347
297.416
297.308
297.226
296.926
296.636
297.131
297.193
297.08
296.956
296.605
296.241
296.845
296.925
296.775
296.682
296.28
295.829
296.738
296.761
296.634
296.487
296.052
295.593
296.52
296.584
296.46
296.371
295.961
295.492
296.459
296.541
296.451
296.349
295.944
295.492
296.433
296.499
296.43
296.403
296.046
295.572
296.504
296.554
296.522
296.542
296.222
295.713
296.651
296.728
296.71
296.749
296.432
295.87
296.852
296.959
296.935
296.964
296.627
296.031
297.068
297.183
297.135
297.13
296.788
296.181
297.181
297.313
297.245
297.217
296.876
296.304
297.153
297.311
297.231
297.17
296.854
296.377
297.107
297.261
297.169
297.089
296.801
296.436
297.233
297.491
297.042
296.898
296.359
296.416
297.26
297.508
297.064
296.831
296.369
296.426
297.022
297.249
296.802
296.63
296.261
296.311
297
297.25
296.838
296.755
296.419
296.344
296.864
297.116
296.822
296.847
296.558
296.429
296.755
297.013
296.755
296.838
296.608
296.489
296.513
296.764
296.543
296.707
296.507
296.508
296.147
296.484
296.343
296.561
296.448
296.552
295.919
296.354
296.253
296.484
296.405
296.565
295.93
296.421
296.307
296.53
296.43
296.593
296.116
296.646
296.478
296.663
296.499
296.627
296.43
296.921
296.698
296.807
296.538
296.647
296.765
297.265
297.021
297.057
296.697
296.742
297.013
297.456
297.142
297.041
296.574
296.59
293.081
296.053
295.968
296.587
296.736
297.31
294.685
297.226
297.05
297.54
297.501
297.96
295.316
297.376
297.186
297.66
297.697
298.011
295.883
297.639
297.519
297.875
297.774
298.17
295.764
297.377
297.287
297.723
297.8
298.259
295.254
296.805
296.759
297.285
297.517
298.135
294.102
295.88
295.968
296.702
297.17
297.964
292.472
294.787
295.219
296.28
296.89
297.796
290.904
293.916
294.629
295.974
296.713
297.681
289.772
293.478
294.299
295.791
296.629
297.653
289.095
293.438
294.228
295.758
296.635
297.666
288.852
293.649
294.374
295.91
296.781
297.766
289.353
294.219
294.834
296.218
297.001
297.893
290.55
294.867
295.189
296.305
296.882
297.733
296.51
296.511
296.373
296.292
295.932
295.644
296.631
296.636
296.427
296.218
295.823
295.446
296.539
296.517
296.371
296.178
295.756
295.334
296.585
296.567
296.389
296.204
295.764
295.324
296.658
296.624
296.459
296.297
295.863
295.397
296.774
296.744
296.616
296.476
296.038
295.536
296.913
296.886
296.802
296.724
296.315
295.771
297.115
297.106
297.04
296.999
296.601
296.006
297.334
297.359
297.292
297.259
296.853
296.23
297.552
297.6
297.52
297.475
297.05
296.422
297.731
297.799
297.711
297.625
297.197
296.592
297.813
297.873
297.775
297.684
297.277
296.735
297.725
297.824
297.728
297.646
297.279
296.827
297.611
297.698
297.612
297.505
297.197
296.861
297.126
297.271
296.91
296.775
296.397
296.421
297.028
297.113
296.812
296.762
296.5
296.512
296.884
297.058
296.835
296.871
296.625
296.516
296.996
297.168
296.965
297.032
296.785
296.664
297.02
297.172
297.008
297.099
296.88
296.747
296.808
296.992
296.874
297.031
296.858
296.771
296.45
296.715
296.681
296.923
296.812
296.828
296.182
296.541
296.582
296.872
296.792
296.859
296.076
296.499
296.546
296.839
296.756
296.855
296.129
296.614
296.585
296.851
296.727
296.808
296.278
296.827
296.696
296.909
296.707
296.761
296.515
297.022
296.837
296.942
296.642
296.683
296.838
297.296
297.063
297.081
296.707
296.731
297.101
297.46
297.107
296.96
296.49
296.497
295.373
297.677
297.868
298.354
298.22
298.374
296.361
298.246
298.258
298.651
298.569
298.816
296.777
298.357
298.432
298.812
298.696
298.896
296.887
298.226
298.232
298.596
298.61
298.909
296.537
297.766
297.786
298.183
298.296
298.747
295.488
296.816
297.024
297.693
298.02
298.617
293.871
295.613
296.183
297.184
297.684
298.432
292.255
294.566
295.463
296.802
297.438
298.303
290.859
293.811
294.898
296.464
297.204
298.137
289.861
293.395
294.535
296.215
297.035
298.014
289.264
293.297
294.413
296.097
296.944
297.881
289.13
293.509
294.517
296.127
296.931
297.802
289.844
294.143
294.937
296.336
297.051
297.852
291.238
294.897
295.253
296.252
296.798
297.475
300.474
300.313
300.413
300.198
300.182
300.134
300.229
300.311
300.465
300.617
300.872
301.18
301.494
301.516
300.986
300.846
300.901
300.8
300.779
300.739
300.771
300.769
300.834
300.921
301.052
301.192
301.362
301.42
300.992
300.953
301.001
301.009
301.019
301.009
301.022
301.013
301.046
301.086
301.151
301.226
301.365
301.507
300.871
300.945
300.987
301.051
301.086
301.106
301.127
301.132
301.17
301.207
301.242
301.287
301.367
301.428
300.632
300.868
300.992
301.058
301.102
301.142
301.181
301.209
301.259
301.289
301.293
301.323
301.357
301.4
300.383
300.787
300.981
301.086
301.147
301.196
301.244
301.287
301.336
301.355
301.345
301.344
301.328
301.324
300.217
300.698
300.973
301.112
301.181
301.232
301.29
301.346
301.395
301.409
301.387
301.369
301.327
301.276
300.146
300.711
301.037
301.172
301.246
301.304
301.365
301.423
301.462
301.463
301.427
301.383
301.31
301.224
300.04
300.679
301.047
301.2
301.285
301.348
301.411
301.469
301.502
301.498
301.458
301.407
301.327
301.241
300.093
300.792
301.157
301.287
301.347
301.39
301.442
301.496
301.519
301.507
301.462
301.413
301.329
301.269
300.085
300.849
301.215
301.323
301.375
301.412
301.459
301.519
301.544
301.538
301.494
301.455
301.375
301.38
300.394
301.095
301.361
301.398
301.421
301.442
301.477
301.533
301.562
301.579
301.534
301.51
301.424
301.497
300.436
301.169
301.351
301.383
301.391
301.407
301.447
301.508
301.557
301.624
301.621
301.645
301.566
301.69
300.721
301.439
301.498
301.456
301.436
301.44
301.452
301.49
301.557
301.662
301.7
301.786
301.593
301.622
301.861
301.593
301.556
301.296
301.237
301.225
301.363
301.538
301.793
302.08
302.399
302.733
303.211
303.262
302.555
302.331
302.274
302.136
302.078
302.039
302.103
302.168
302.294
302.427
302.628
302.855
303.107
303.142
302.548
302.474
302.45
302.43
302.415
302.402
302.436
302.465
302.537
302.626
302.738
302.907
303.064
303.162
302.378
302.457
302.469
302.509
302.533
302.554
302.599
302.634
302.694
302.773
302.855
302.941
303.029
303.069
302.072
302.336
302.456
302.52
302.58
302.641
302.705
302.754
302.815
302.885
302.93
302.962
302.982
303
301.79
302.187
302.408
302.539
302.636
302.72
302.796
302.858
302.925
302.978
302.989
302.98
302.942
302.906
301.504
302.049
302.371
302.552
302.673
302.774
302.863
302.937
303.005
303.044
303.033
303.008
302.942
302.85
301.262
301.99
302.391
302.598
302.736
302.844
302.935
303.012
303.073
303.097
303.067
303.02
302.931
302.803
301.063
301.935
302.399
302.635
302.782
302.895
302.989
303.066
303.12
303.138
303.103
303.051
302.96
302.83
300.997
301.992
302.493
302.727
302.856
302.946
303.027
303.099
303.144
303.158
303.123
303.07
302.981
302.849
300.924
302.042
302.573
302.787
302.908
302.978
303.044
303.114
303.16
303.182
303.157
303.12
303.055
302.994
301.277
302.327
302.751
302.897
302.973
303.014
303.058
303.121
303.172
303.209
303.2
303.19
303.123
303.146
301.463
302.533
302.827
302.935
302.985
303.006
303.029
303.085
303.146
303.222
303.258
303.312
303.268
303.348
301.893
302.874
303.034
303.036
303.048
303.029
303.006
303.035
303.104
303.225
303.292
303.376
303.249
303.263
303.384
303.141
302.982
302.776
302.744
302.722
302.803
302.968
303.165
303.38
303.662
303.906
304.327
304.505
303.933
303.727
303.588
303.453
303.382
303.345
303.387
303.459
303.574
303.716
303.854
304.064
304.341
304.422
303.861
303.823
303.728
303.683
303.647
303.633
303.663
303.702
303.768
303.861
303.955
304.107
304.293
304.363
303.71
303.78
303.762
303.75
303.75
303.766
303.81
303.85
303.907
303.985
304.074
304.164
304.262
304.293
303.486
303.687
303.717
303.762
303.812
303.867
303.925
303.973
304.028
304.093
304.158
304.199
304.215
304.234
303.259
303.539
303.69
303.793
303.876
303.953
304.023
304.081
304.138
304.198
304.233
304.235
304.199
304.175
303.006
303.458
303.677
303.82
303.93
304.024
304.105
304.169
304.225
304.274
304.287
304.273
304.217
304.152
302.825
303.415
303.711
303.881
304.003
304.1
304.181
304.247
304.298
304.332
304.328
304.301
304.233
304.134
302.717
303.411
303.757
303.938
304.059
304.155
304.236
304.303
304.349
304.379
304.369
304.338
304.276
304.165
302.705
303.48
303.855
304.03
304.138
304.219
304.294
304.359
304.396
304.421
304.403
304.364
304.303
304.178
302.61
303.52
303.929
304.096
304.202
304.271
304.343
304.409
304.443
304.474
304.463
304.432
304.4
304.29
302.882
303.77
304.097
304.209
304.288
304.337
304.386
304.446
304.481
304.528
304.529
304.516
304.479
304.389
303.134
303.994
304.214
304.302
304.366
304.391
304.405
304.454
304.493
304.564
304.581
304.626
304.625
304.629
303.5
304.289
304.402
304.444
304.467
304.43
304.411
304.446
304.495
304.589
304.613
304.685
304.633
304.668
304.439
304.204
304.058
303.936
303.896
303.883
303.947
304.062
304.217
304.388
304.579
304.767
305.101
305.268
304.726
304.571
304.425
304.338
304.288
304.275
304.331
304.403
304.514
304.642
304.774
304.903
305.132
305.198
304.637
304.596
304.525
304.508
304.502
304.515
304.57
304.623
304.696
304.779
304.849
304.969
305.099
305.133
304.569
304.604
304.597
304.6
304.625
304.666
304.728
304.782
304.845
304.916
304.98
305.028
305.093
305.103
304.4
304.554
304.584
304.643
304.721
304.795
304.868
304.926
304.981
305.035
305.077
305.094
305.081
305.07
304.281
304.473
304.599
304.708
304.811
304.904
304.985
305.047
305.098
305.139
305.161
305.15
305.094
305.049
304.139
304.428
304.613
304.753
304.878
304.987
305.076
305.142
305.189
305.22
305.226
305.203
305.135
305.059
304.058
304.418
304.653
304.815
304.949
305.061
305.151
305.216
305.257
305.28
305.271
305.238
305.164
305.063
304.027
304.437
304.694
304.864
304.998
305.108
305.197
305.261
305.298
305.32
305.31
305.279
305.219
305.114
304.059
304.51
304.77
304.934
305.058
305.155
305.235
305.296
305.326
305.345
305.333
305.302
305.256
305.144
304.046
304.572
304.837
304.988
305.106
305.188
305.262
305.324
305.353
305.373
305.366
305.348
305.329
305.245
304.243
304.758
304.967
305.086
305.182
305.246
305.305
305.36
305.386
305.411
305.406
305.386
305.366
305.325
304.418
304.936
305.089
305.177
305.248
305.286
305.328
305.373
305.399
305.443
305.453
305.464
305.507
305.501
304.749
305.203
305.282
305.367
305.365
305.348
305.349
305.377
305.403
305.462
305.477
305.53
305.54
305.592
305.05
304.829
304.744
304.675
304.643
304.637
304.706
304.796
304.917
305.08
305.228
305.369
305.631
305.759
305.229
305.092
304.983
304.923
304.9
304.911
304.979
305.061
305.167
305.28
305.393
305.486
305.653
305.703
305.168
305.126
305.083
305.083
305.099
305.136
305.202
305.266
305.339
305.415
305.479
305.562
305.647
305.67
305.175
305.188
305.197
305.216
305.258
305.311
305.378
305.436
305.497
305.554
305.602
305.62
305.652
305.646
305.077
305.191
305.236
305.299
305.385
305.465
305.538
305.593
305.641
305.678
305.699
305.699
305.671
305.635
305.014
305.175
305.277
305.389
305.496
305.59
305.669
305.724
305.761
305.783
305.785
305.761
305.7
305.636
304.941
305.15
305.307
305.446
305.574
305.683
305.768
305.823
305.853
305.866
305.854
305.819
305.748
305.657
304.904
305.147
305.345
305.504
305.642
305.756
305.841
305.894
305.92
305.926
305.905
305.862
305.784
305.677
304.897
305.161
305.373
305.541
305.68
305.795
305.88
305.933
305.958
305.965
305.946
305.906
305.842
305.736
304.95
305.223
305.427
305.592
305.725
305.83
305.908
305.958
305.98
305.988
305.972
305.937
305.89
305.786
304.983
305.284
305.473
305.63
305.752
305.844
305.915
305.969
305.992
306.003
305.997
305.975
305.952
305.89
305.146
305.433
305.577
305.711
305.816
305.894
305.956
306.002
306.017
306.025
306.019
305.999
305.986
305.942
305.256
305.576
305.677
305.784
305.859
305.92
305.971
306.009
306.022
306.043
306.056
306.057
306.105
306.112
305.561
305.837
305.872
305.956
305.992
305.989
306.003
306.022
306.03
306.06
306.077
306.117
306.148
306.195
305.403
305.205
305.165
305.13
305.12
305.131
305.201
305.287
305.406
305.551
305.682
305.792
305.99
306.078
305.538
305.428
305.355
305.32
305.319
305.354
305.427
305.514
305.62
305.728
305.823
305.892
306.008
306.036
305.519
305.485
305.469
305.483
305.516
305.572
305.645
305.715
305.789
305.86
305.912
305.977
306.019
306.025
305.572
305.581
305.604
305.639
305.695
305.757
305.829
305.89
305.951
306
306.034
306.034
306.035
306.011
305.528
305.616
305.678
305.75
305.837
305.918
305.993
306.048
306.093
306.122
306.132
306.116
306.068
306.016
305.504
305.631
305.734
305.848
305.954
306.049
306.126
306.178
306.21
306.224
306.214
306.176
306.107
306.029
305.464
305.625
305.769
305.909
306.034
306.141
306.223
306.273
306.298
306.304
306.282
306.237
306.159
306.06
305.433
305.629
305.805
305.962
306.096
306.208
306.291
306.341
306.363
306.365
306.337
306.287
306.203
306.088
305.437
305.642
305.826
305.99
306.127
306.241
306.323
306.374
306.397
306.403
306.38
306.334
306.263
306.148
305.493
305.693
305.869
306.03
306.161
306.268
306.344
306.393
306.415
306.423
306.407
306.37
306.316
306.206
305.539
305.749
305.906
306.059
306.174
306.266
306.337
306.388
306.414
306.425
306.422
306.401
306.372
306.301
305.68
305.878
305.991
306.124
306.224
306.306
306.366
306.407
306.423
306.43
306.431
306.417
306.408
306.348
305.769
306.004
306.074
306.185
306.259
306.324
306.37
306.399
306.408
306.421
306.441
306.452
306.486
306.488
306.057
306.241
306.234
306.314
306.358
306.373
306.386
306.402
306.406
306.425
306.449
306.485
306.526
306.571
305.654
305.489
305.481
305.468
305.478
305.507
305.572
305.652
305.764
305.894
306.015
306.106
306.26
306.328
305.782
305.695
305.651
305.638
305.66
305.705
305.779
305.86
305.961
306.059
306.146
306.198
306.276
306.294
305.795
305.777
305.777
305.803
305.852
305.915
305.989
306.055
306.125
306.186
306.229
306.277
306.294
306.287
305.874
305.889
305.918
305.964
306.026
306.093
306.165
306.225
306.282
306.324
306.349
306.339
306.317
306.282
305.86
305.936
306
306.078
306.162
306.245
306.321
306.376
306.419
306.442
306.445
306.417
306.354
306.29
305.849
305.963
306.062
306.173
306.276
306.368
306.446
306.498
306.529
306.542
306.524
306.474
306.393
306.305
305.824
305.969
306.102
306.234
306.351
306.454
306.534
306.587
306.614
306.62
306.592
306.536
306.448
306.338
305.814
305.984
306.14
306.287
306.411
306.519
306.6
306.652
306.678
306.682
306.651
306.592
306.5
306.374
305.826
305.999
306.163
306.316
306.442
306.551
306.631
306.684
306.711
306.72
306.696
306.644
306.563
306.438
305.884
306.05
306.206
306.357
306.478
306.581
306.653
306.703
306.729
306.741
306.727
306.686
306.623
306.504
305.928
306.102
306.242
306.386
306.491
306.577
306.643
306.692
306.721
306.738
306.739
306.717
306.678
306.588
306.055
306.216
306.317
306.442
306.532
306.608
306.664
306.704
306.725
306.738
306.745
306.734
306.719
306.639
306.14
306.325
306.387
306.492
306.559
306.618
306.662
306.691
306.706
306.721
306.743
306.758
306.776
306.758
306.395
306.527
306.516
306.59
306.63
306.654
306.671
306.69
306.703
306.726
306.754
306.784
306.818
306.842
305.894
305.996
306.112
306.226
306.321
306.455
306.529
306.095
306.187
306.274
306.357
306.41
306.477
306.501
306.281
306.345
306.399
306.449
306.488
306.501
306.496
306.443
306.496
306.535
306.552
306.554
306.532
306.498
306.586
306.627
306.646
306.649
306.625
306.566
306.505
306.702
306.734
306.746
306.731
306.682
306.602
306.517
306.789
306.819
306.827
306.8
306.742
306.652
306.547
306.856
306.885
306.891
306.861
306.8
306.711
306.588
306.09
306.251
306.398
306.54
306.656
306.76
306.838
306.893
306.924
306.934
306.909
306.854
306.775
306.65
306.153
306.306
306.447
306.586
306.695
306.793
306.866
306.917
306.947
306.96
306.945
306.901
306.838
306.72
306.206
306.362
306.488
306.619
306.713
306.797
306.858
306.906
306.938
306.959
306.961
306.939
306.897
306.798
306.324
306.464
306.556
306.669
306.746
306.818
306.872
306.914
306.944
306.962
306.974
306.968
306.945
306.857
306.414
306.564
306.62
306.712
306.768
306.823
306.866
306.901
306.926
306.946
306.971
306.99
306.993
306.964
306.629
306.729
306.722
306.786
306.818
306.846
306.87
306.899
306.925
306.958
306.992
307.018
307.039
307.043
300.016
299.729
299.119
298.521
297.696
295.725
299.323
298.332
297.215
296.166
294.867
292.317
299.193
297.809
296.334
294.924
293.286
290.563
298.948
297.424
295.852
294.368
292.795
290.372
299.027
297.509
295.956
294.413
293.021
291.157
299.111
297.7
296.341
294.941
293.788
292.463
299.351
298.096
297.024
295.918
295.081
294.276
299.592
298.597
297.91
297.294
297.052
296.834
299.898
299.266
298.996
298.836
299.124
299.393
300.252
300.011
300.084
300.313
301.027
301.588
300.752
300.784
301.131
301.649
302.635
303.336
301.23
301.528
302.045
302.757
303.872
304.46
301.562
301.958
302.575
303.359
304.382
304.721
301.183
301.788
302.513
303.397
304.374
304.458
301.223
300.648
299.313
297.859
296.459
294.996
300.019
298.53
296.737
294.923
293.103
291.135
299.648
297.586
295.515
293.396
291.187
288.933
299.352
297.108
294.925
292.859
290.799
288.63
299.465
297.285
295.05
293.048
291.281
289.487
299.661
297.585
295.535
293.766
292.418
291.174
300.037
298.153
296.428
294.99
294.108
293.412
300.525
299.004
297.705
296.726
296.383
296.14
301.072
299.986
299.204
298.696
298.907
299.028
301.6
301.012
300.724
300.593
301.119
301.435
302.181
302.017
302.028
302.22
302.95
303.354
302.695
302.793
303.075
303.522
304.282
304.622
303.171
303.363
303.711
304.092
304.657
304.942
302.891
303.304
303.708
304.045
304.482
304.694
302.895
302.3
300.824
299.176
297.642
296.319
301.736
300.266
298.214
295.993
293.917
292.062
301.25
299.135
296.644
294.002
291.499
289.313
300.965
298.643
295.964
293.23
290.759
288.689
301.089
298.733
296.028
293.379
291.114
289.391
301.253
299.062
296.572
294.235
292.39
291.066
301.573
299.664
297.51
295.587
294.227
293.348
302.031
300.532
298.84
297.479
296.691
296.314
302.562
301.49
300.427
299.631
299.364
299.421
303.046
302.378
301.903
301.592
301.678
302.021
303.514
303.26
303.191
303.211
303.547
304.064
303.915
303.909
304.09
304.375
304.858
305.372
304.414
304.483
304.721
304.948
305.353
305.832
304.236
304.528
304.724
304.954
305.269
305.674
304.331
304.194
303.281
301.881
300.347
298.901
303.286
302.41
300.933
298.978
296.82
294.674
302.912
301.438
299.336
296.728
293.992
291.428
302.717
300.951
298.513
295.615
292.765
290.266
302.769
300.937
298.409
295.486
292.734
290.478
302.855
301.096
298.733
296.058
293.643
291.753
303.072
301.523
299.505
297.23
295.271
293.763
303.379
302.203
300.614
298.943
297.609
296.598
303.753
302.929
301.939
300.943
300.199
299.647
304.121
303.588
303.118
302.623
302.377
302.212
304.48
304.243
304.147
304.048
304.126
304.176
304.769
304.738
304.882
305.04
305.334
305.539
305.189
305.225
305.466
305.655
305.957
306.197
305.106
305.365
305.55
305.826
306.067
306.306
305.064
305.215
304.836
304.008
302.827
301.565
304.282
303.895
303.104
301.754
299.921
297.83
304.085
303.276
301.897
299.865
297.261
294.511
303.953
302.893
301.103
298.648
295.747
292.907
303.943
302.805
300.919
298.346
295.447
292.752
303.974
302.813
301.001
298.557
295.895
293.547
304.13
303.041
301.507
299.378
297.158
295.187
304.348
303.48
302.301
300.688
299.105
297.674
304.601
303.975
303.201
302.256
301.295
300.425
304.853
304.472
304.078
303.586
303.134
302.755
305.131
304.946
304.833
304.714
304.665
304.593
305.34
305.324
305.41
305.522
305.709
305.851
305.666
305.707
305.915
306.08
306.308
306.523
305.645
305.877
306.051
306.306
306.516
306.752
305.421
305.64
305.564
305.256
304.651
303.847
304.853
304.741
304.371
303.674
302.533
301.022
304.786
304.451
303.665
302.359
300.453
298.079
304.694
304.159
303.067
301.309
298.896
296.167
304.671
304.043
302.836
300.957
298.418
295.741
304.687
304.005
302.793
300.992
298.583
296.126
304.801
304.134
303.015
301.49
299.44
297.404
304.968
304.398
303.574
302.32
300.875
299.409
305.158
304.722
304.147
303.394
302.538
301.638
305.367
305.094
304.787
304.379
303.956
303.535
305.592
305.44
305.349
305.237
305.182
305.128
305.762
305.73
305.782
305.865
306.012
306.144
306.006
306.027
306.195
306.345
306.55
306.767
305.989
306.182
306.34
306.573
306.784
307.021
305.633
305.848
305.875
305.813
305.644
305.326
305.212
305.224
305.049
304.766
304.262
303.408
305.212
305.068
304.67
303.962
302.804
301.198
305.152
304.854
304.25
303.227
301.567
299.43
305.142
304.754
304.05
302.855
301.066
298.835
305.169
304.715
303.977
302.773
301.089
298.969
305.261
304.798
304.103
302.997
301.588
299.81
305.395
305.011
304.441
303.576
302.492
301.265
305.551
305.242
304.829
304.276
303.65
302.922
305.727
305.526
305.295
305.001
304.696
304.361
305.92
305.802
305.727
305.648
305.631
305.614
306.066
306.035
306.071
306.133
306.264
306.397
306.27