/*--------------------------------*- C++ -*----------------------------------*\
| =========                 |                                                 |
| \\      /  F ield         | OpenFOAM: The Open Source CFD Toolbox           |
|  \\    /   O peration     | Version:  v2106                                 |
|   \\  /    A nd           | Website:  www.openfoam.com                      |
|    \\/     M anipulation  |                                                 |
\*---------------------------------------------------------------------------*/
FoamFile
{
    version     2.0;
    format      ascii;
    arch        "LSB;label=32;scalar=64";
    class       volScalarField;
    location    "0.000206";
    object      Ttot;
}
// * * * * * * * * * * * * * * * * * * * * * * * * * * * * * * * * * * * * * //

dimensions      [0 0 0 1 0 0 0];

internalField   nonuniform List<scalar> 
17924
(
309.161
309.154
309.146
309.136
309.191
309.19
309.189
309.185
309.182
309.177
309.171
309.144
309.145
309.142
309.139
309.134
309.128
309.12
309.098
309.099
309.095
309.09
309.084
309.076
309.066
309.049
309.049
309.044
309.038
309.03
309.021
309.01
309.001
308.997
308.991
308.984
308.975
308.964
308.951
308.95
308.944
308.937
308.928
308.917
308.904
308.89
308.899
308.891
308.882
308.871
308.858
308.844
308.828
308.846
308.836
308.825
308.812
308.798
308.782
308.766
308.792
308.781
308.769
308.754
308.738
308.721
308.705
308.738
308.725
308.712
308.695
308.679
308.661
308.645
308.686
308.671
308.657
308.639
308.622
308.604
308.587
308.633
308.617
308.602
308.583
308.566
308.548
308.532
308.585
308.569
308.551
308.532
308.513
308.496
308.48
308.536
308.519
308.499
308.48
308.462
308.445
308.431
309.176
309.179
309.181
309.182
309.182
309.18
309.178
309.174
309.168
309.161
309.152
309.142
309.13
309.118
309.135
309.139
309.14
309.141
309.14
309.138
309.135
309.13
309.123
309.115
309.105
309.094
309.082
309.066
309.094
309.098
309.098
309.098
309.097
309.095
309.091
309.085
309.077
309.068
309.058
309.046
309.034
309.018
309.05
309.053
309.053
309.053
309.052
309.049
309.043
309.037
309.028
309.018
309.007
308.995
308.982
308.966
309.006
309.008
309.008
309.007
309.004
309.001
308.995
308.987
308.977
308.967
308.956
308.944
308.93
308.916
308.961
308.961
308.96
308.958
308.955
308.951
308.944
308.935
308.925
308.915
308.904
308.892
308.878
308.865
308.914
308.913
308.911
308.909
308.905
308.899
308.891
308.882
308.873
308.862
308.852
308.84
308.827
308.815
308.866
308.864
308.861
308.857
308.852
308.846
308.838
308.829
308.819
308.809
308.799
308.788
308.777
308.767
308.817
308.814
308.81
308.804
308.799
308.792
308.784
308.775
308.766
308.757
308.747
308.738
308.728
308.721
308.766
308.762
308.757
308.751
308.745
308.738
308.73
308.721
308.713
308.704
308.696
308.688
308.681
308.675
308.716
308.711
308.705
308.697
308.691
308.683
308.676
308.668
308.66
308.653
308.646
308.64
308.635
308.633
308.664
308.658
308.651
308.643
308.636
308.629
308.622
308.615
308.608
308.602
308.597
308.593
308.59
308.591
308.614
308.607
308.599
308.59
308.583
308.575
308.569
308.563
308.557
308.553
308.55
308.547
308.547
308.55
308.562
308.554
308.545
308.536
308.529
308.522
308.516
308.511
308.507
308.504
308.503
308.502
308.502
308.51
309.114
309.122
309.128
309.133
309.137
309.139
309.139
309.139
309.137
309.133
309.127
309.119
309.111
309.101
309.079
309.088
309.094
309.099
309.102
309.104
309.104
309.103
309.1
309.095
309.087
309.079
309.069
309.057
309.046
309.054
309.059
309.064
309.066
309.067
309.067
309.065
309.061
309.055
309.047
309.038
309.028
309.014
309.009
309.017
309.021
309.025
309.027
309.027
309.027
309.024
309.019
309.012
309.004
308.994
308.983
308.969
308.971
308.978
308.981
308.985
308.986
308.986
308.985
308.982
308.976
308.969
308.96
308.95
308.939
308.925
308.93
308.936
308.939
308.942
308.943
308.943
308.941
308.937
308.931
308.924
308.915
308.905
308.893
308.88
308.889
308.893
308.896
308.898
308.898
308.897
308.896
308.892
308.886
308.879
308.87
308.86
308.849
308.837
308.845
308.848
308.85
308.851
308.852
308.851
308.849
308.845
308.84
308.832
308.824
308.815
308.804
308.793
308.8
308.801
308.803
308.803
308.804
308.803
308.801
308.798
308.793
308.786
308.779
308.771
308.761
308.751
308.754
308.753
308.755
308.754
308.755
308.754
308.752
308.749
308.745
308.74
308.734
308.726
308.718
308.711
308.706
308.704
308.705
308.704
308.705
308.704
308.703
308.701
308.698
308.694
308.689
308.684
308.677
308.673
308.655
308.653
308.655
308.654
308.655
308.654
308.654
308.653
308.651
308.648
308.645
308.641
308.637
308.635
308.605
308.602
308.604
308.603
308.604
308.604
308.604
308.604
308.604
308.603
308.602
308.6
308.599
308.599
308.552
308.55
308.551
308.55
308.552
308.553
308.554
308.555
308.557
308.558
308.559
308.559
308.56
308.564
309.007
309.015
309.023
309.03
309.036
309.041
309.044
309.046
309.047
309.047
309.045
309.041
309.035
309.029
308.977
308.986
308.994
309.001
309.007
309.012
309.016
309.018
309.019
309.018
309.014
309.009
309.003
308.994
308.948
308.958
308.965
308.972
308.978
308.983
308.986
308.988
308.988
308.987
308.983
308.977
308.97
308.959
308.916
308.926
308.934
308.941
308.947
308.951
308.954
308.956
308.956
308.954
308.949
308.942
308.934
308.922
308.885
308.894
308.901
308.908
308.914
308.918
308.921
308.922
308.922
308.919
308.914
308.906
308.897
308.885
308.851
308.859
308.866
308.873
308.879
308.883
308.885
308.886
308.885
308.882
308.876
308.869
308.858
308.847
308.816
308.823
308.83
308.836
308.841
308.845
308.848
308.848
308.847
308.844
308.838
308.83
308.82
308.809
308.779
308.785
308.791
308.797
308.802
308.806
308.808
308.808
308.807
308.804
308.798
308.79
308.78
308.77
308.74
308.745
308.751
308.756
308.761
308.764
308.766
308.767
308.766
308.763
308.758
308.751
308.741
308.732
308.699
308.702
308.708
308.713
308.718
308.721
308.723
308.724
308.724
308.721
308.717
308.71
308.702
308.694
308.657
308.657
308.664
308.668
308.673
308.677
308.679
308.68
308.681
308.68
308.676
308.672
308.665
308.659
308.611
308.611
308.618
308.621
308.627
308.631
308.634
308.636
308.637
308.637
308.636
308.632
308.627
308.624
308.564
308.564
308.57
308.574
308.579
308.584
308.588
308.592
308.595
308.596
308.596
308.595
308.592
308.591
308.514
308.515
308.521
308.525
308.531
308.537
308.542
308.547
308.552
308.555
308.557
308.557
308.557
308.557
308.881
308.884
308.888
308.891
308.896
308.9
308.904
308.907
308.91
308.911
308.911
308.911
308.907
308.906
308.851
308.855
308.858
308.863
308.868
308.873
308.877
308.88
308.883
308.884
308.884
308.883
308.878
308.874
308.822
308.826
308.83
308.835
308.841
308.846
308.85
308.854
308.856
308.857
308.857
308.855
308.85
308.845
308.793
308.797
308.802
308.808
308.813
308.818
308.823
308.826
308.829
308.83
308.829
308.826
308.821
308.813
308.764
308.768
308.773
308.779
308.785
308.79
308.795
308.798
308.801
308.802
308.801
308.797
308.791
308.783
308.734
308.738
308.743
308.749
308.755
308.761
308.766
308.769
308.772
308.772
308.771
308.767
308.761
308.752
308.703
308.707
308.712
308.718
308.725
308.73
308.735
308.739
308.741
308.742
308.741
308.737
308.729
308.721
308.67
308.674
308.68
308.686
308.692
308.698
308.703
308.707
308.709
308.71
308.709
308.705
308.697
308.689
308.637
308.64
308.646
308.652
308.659
308.665
308.67
308.674
308.676
308.678
308.676
308.672
308.665
308.658
308.602
308.604
308.61
308.616
308.623
308.63
308.635
308.639
308.642
308.643
308.643
308.639
308.632
308.625
308.566
308.567
308.573
308.579
308.586
308.593
308.599
308.604
308.607
308.609
308.609
308.606
308.6
308.595
308.527
308.527
308.534
308.54
308.548
308.556
308.562
308.567
308.571
308.573
308.574
308.573
308.568
308.563
308.487
308.487
308.494
308.5
308.509
308.517
308.524
308.53
308.535
308.539
308.541
308.541
308.537
308.536
308.444
308.445
308.452
308.46
308.469
308.478
308.486
308.493
308.499
308.504
308.508
308.508
308.507
308.505
308.753
308.75
308.747
308.747
308.747
308.749
308.751
308.753
308.756
308.758
308.761
308.763
308.764
308.767
308.72
308.719
308.716
308.716
308.716
308.718
308.721
308.723
308.726
308.728
308.73
308.731
308.732
308.731
308.69
308.689
308.686
308.686
308.687
308.689
308.691
308.694
308.697
308.699
308.7
308.701
308.701
308.7
308.66
308.659
308.657
308.657
308.658
308.66
308.663
308.666
308.668
308.67
308.672
308.672
308.671
308.668
308.631
308.63
308.627
308.628
308.629
308.632
308.635
308.638
308.641
308.642
308.644
308.644
308.641
308.638
308.602
308.6
308.599
308.6
308.601
308.604
308.607
308.611
308.613
308.615
308.616
308.616
308.613
308.609
308.573
308.571
308.57
308.571
308.573
308.577
308.58
308.583
308.586
308.588
308.589
308.589
308.586
308.581
308.543
308.541
308.541
308.542
308.545
308.549
308.553
308.556
308.559
308.562
308.562
308.562
308.558
308.553
308.513
308.511
308.511
308.513
308.517
308.521
308.525
308.529
308.532
308.535
308.536
308.535
308.531
308.526
308.482
308.48
308.481
308.484
308.488
308.493
308.498
308.502
308.505
308.508
308.509
308.508
308.504
308.499
308.451
308.448
308.451
308.455
308.459
308.465
308.47
308.475
308.479
308.482
308.483
308.483
308.479
308.474
308.419
308.416
308.42
308.424
308.43
308.436
308.442
308.447
308.452
308.455
308.457
308.457
308.453
308.449
308.387
308.384
308.388
308.394
308.401
308.408
308.414
308.421
308.426
308.43
308.433
308.433
308.429
308.426
308.353
308.351
308.357
308.364
308.372
308.379
308.387
308.394
308.4
308.404
308.408
308.408
308.405
308.402
308.626
308.618
308.611
308.608
308.606
308.605
308.606
308.608
308.611
308.615
308.619
308.624
308.629
308.636
308.592
308.587
308.579
308.576
308.573
308.573
308.573
308.575
308.578
308.581
308.585
308.589
308.594
308.596
308.561
308.555
308.548
308.544
308.542
308.541
308.541
308.543
308.545
308.548
308.551
308.555
308.56
308.56
308.53
308.525
308.517
308.514
308.511
308.51
308.511
308.512
308.514
308.517
308.52
308.522
308.526
308.526
308.501
308.495
308.488
308.484
308.482
308.481
308.481
308.482
308.484
308.486
308.489
308.492
308.495
308.494
308.473
308.466
308.46
308.456
308.454
308.453
308.453
308.454
308.456
308.458
308.46
308.463
308.464
308.464
308.445
308.438
308.432
308.429
308.427
308.426
308.426
308.427
308.429
308.431
308.433
308.435
308.435
308.435
308.417
308.41
308.405
308.402
308.401
308.4
308.401
308.402
308.403
308.405
308.406
308.408
308.408
308.407
308.389
308.383
308.379
308.377
308.376
308.376
308.377
308.378
308.379
308.381
308.382
308.383
308.382
308.381
308.361
308.356
308.353
308.352
308.352
308.352
308.354
308.355
308.357
308.358
308.359
308.359
308.358
308.356
308.334
308.33
308.328
308.328
308.329
308.33
308.332
308.334
308.335
308.337
308.337
308.338
308.335
308.334
308.308
308.304
308.304
308.305
308.307
308.309
308.311
308.314
308.315
308.317
308.317
308.317
308.314
308.311
308.283
308.279
308.28
308.282
308.286
308.289
308.292
308.295
308.298
308.299
308.3
308.299
308.296
308.292
308.258
308.255
308.258
308.262
308.266
308.271
308.275
308.278
308.28
308.282
308.282
308.28
308.277
308.272
308.491
308.482
308.475
308.471
308.469
308.469
308.471
308.473
308.477
308.481
308.488
308.494
308.503
308.511
308.458
308.452
308.445
308.441
308.439
308.438
308.439
308.441
308.444
308.448
308.454
308.46
308.468
308.473
308.429
308.423
308.415
308.411
308.409
308.408
308.408
308.409
308.412
308.416
308.421
308.426
308.434
308.437
308.4
308.394
308.387
308.383
308.38
308.379
308.378
308.379
308.382
308.385
308.389
308.394
308.401
308.404
308.373
308.367
308.36
308.356
308.353
308.351
308.35
308.351
308.353
308.356
308.36
308.364
308.371
308.373
308.347
308.34
308.334
308.33
308.326
308.325
308.324
308.324
308.326
308.328
308.332
308.336
308.341
308.344
308.321
308.315
308.309
308.305
308.302
308.3
308.299
308.299
308.3
308.302
308.305
308.309
308.313
308.317
308.296
308.29
308.285
308.281
308.279
308.277
308.276
308.276
308.277
308.278
308.281
308.284
308.287
308.29
308.272
308.267
308.262
308.259
308.257
308.255
308.255
308.254
308.255
308.256
308.258
308.26
308.262
308.265
308.249
308.244
308.241
308.239
308.237
308.236
308.235
308.235
308.235
308.236
308.236
308.238
308.239
308.241
308.227
308.224
308.222
308.22
308.219
308.218
308.217
308.217
308.217
308.217
308.217
308.218
308.218
308.22
308.208
308.205
308.204
308.203
308.203
308.202
308.201
308.201
308.2
308.2
308.2
308.2
308.198
308.199
308.189
308.187
308.187
308.187
308.188
308.188
308.188
308.187
308.186
308.186
308.185
308.184
308.181
308.18
308.173
308.171
308.173
308.174
308.175
308.176
308.176
308.175
308.174
308.172
308.17
308.167
308.163
308.16
308.332
308.329
308.326
308.326
308.327
308.328
308.331
308.335
308.34
308.346
308.354
308.362
308.372
308.382
308.305
308.305
308.302
308.302
308.302
308.303
308.306
308.309
308.314
308.32
308.327
308.334
308.343
308.349
308.282
308.282
308.279
308.278
308.278
308.279
308.281
308.284
308.288
308.293
308.299
308.306
308.315
308.32
308.259
308.259
308.256
308.255
308.255
308.256
308.257
308.26
308.263
308.268
308.273
308.28
308.288
308.293
308.237
308.236
308.234
308.233
308.233
308.233
308.234
308.236
308.24
308.244
308.249
308.255
308.263
308.269
308.216
308.215
308.213
308.212
308.212
308.212
308.213
308.215
308.218
308.221
308.226
308.232
308.239
308.245
308.196
308.194
308.193
308.193
308.192
308.192
308.193
308.194
308.197
308.2
308.204
308.21
308.216
308.223
308.176
308.175
308.175
308.174
308.174
308.174
308.174
308.175
308.177
308.18
308.184
308.189
308.194
308.201
308.157
308.157
308.157
308.157
308.157
308.157
308.157
308.158
308.159
308.161
308.165
308.169
308.174
308.181
308.141
308.14
308.141
308.141
308.141
308.141
308.141
308.142
308.143
308.144
308.147
308.15
308.154
308.161
308.126
308.126
308.127
308.127
308.127
308.127
308.127
308.127
308.128
308.129
308.13
308.133
308.136
308.142
308.114
308.113
308.115
308.115
308.116
308.115
308.115
308.114
308.114
308.114
308.115
308.117
308.119
308.123
308.101
308.102
308.104
308.105
308.105
308.105
308.104
308.103
308.102
308.102
308.102
308.102
308.102
308.106
308.094
308.094
308.097
308.098
308.098
308.097
308.095
308.094
308.092
308.09
308.088
308.086
308.085
308.086
308.135
308.141
308.146
308.152
308.158
308.164
308.17
308.177
308.184
308.192
308.201
308.211
308.221
308.232
308.119
308.126
308.131
308.138
308.144
308.15
308.156
308.163
308.17
308.178
308.186
308.195
308.205
308.213
308.105
308.113
308.119
308.125
308.13
308.136
308.142
308.148
308.155
308.162
308.17
308.179
308.188
308.196
308.091
308.1
308.106
308.112
308.117
308.122
308.128
308.134
308.14
308.147
308.155
308.163
308.173
308.181
308.078
308.087
308.093
308.098
308.104
308.109
308.114
308.119
308.125
308.132
308.14
308.148
308.157
308.166
308.065
308.073
308.079
308.085
308.09
308.096
308.101
308.106
308.111
308.118
308.125
308.133
308.142
308.151
308.053
308.06
308.067
308.073
308.078
308.083
308.088
308.093
308.098
308.104
308.11
308.118
308.126
308.136
308.04
308.048
308.055
308.061
308.066
308.071
308.075
308.08
308.085
308.09
308.097
308.104
308.112
308.121
308.029
308.037
308.044
308.05
308.055
308.059
308.064
308.068
308.072
308.077
308.083
308.09
308.097
308.107
308.02
308.028
308.035
308.04
308.045
308.049
308.053
308.057
308.061
308.065
308.07
308.077
308.083
308.092
308.013
308.02
308.026
308.032
308.036
308.04
308.043
308.046
308.049
308.053
308.058
308.063
308.07
308.078
308.007
308.013
308.02
308.025
308.029
308.032
308.034
308.037
308.039
308.042
308.046
308.05
308.056
308.063
308.002
308.009
308.015
308.019
308.022
308.025
308.026
308.028
308.029
308.031
308.034
308.038
308.042
308.049
308.003
308.008
308.013
308.016
308.018
308.019
308.019
308.02
308.02
308.02
308.022
308.024
308.027
308.031
307.881
307.898
307.913
307.928
307.941
307.953
307.964
307.974
307.986
307.997
308.009
308.021
308.033
308.045
307.879
307.896
307.911
307.926
307.94
307.953
307.965
307.977
307.988
307.999
308.011
308.023
308.035
308.046
307.878
307.896
307.912
307.927
307.941
307.953
307.965
307.976
307.987
307.998
308.01
308.022
308.034
308.045
307.877
307.894
307.911
307.926
307.94
307.952
307.964
307.975
307.987
307.998
308.009
308.021
308.032
308.044
307.876
307.893
307.91
307.925
307.939
307.951
307.963
307.973
307.984
307.995
308.007
308.018
308.029
308.041
307.873
307.891
307.908
307.922
307.936
307.948
307.96
307.971
307.982
307.992
308.003
308.014
308.026
308.037
307.872
307.89
307.906
307.921
307.934
307.946
307.957
307.968
307.978
307.988
307.999
308.01
308.021
308.032
307.87
307.888
307.904
307.918
307.931
307.943
307.954
307.964
307.974
307.984
307.994
308.005
308.015
308.027
307.869
307.887
307.902
307.916
307.928
307.939
307.95
307.96
307.969
307.979
307.988
307.999
308.009
308.021
307.87
307.886
307.901
307.914
307.925
307.936
307.946
307.955
307.964
307.973
307.982
307.992
308.002
308.014
307.871
307.886
307.9
307.912
307.923
307.933
307.941
307.95
307.958
307.966
307.975
307.985
307.994
308.006
307.874
307.887
307.9
307.911
307.92
307.929
307.937
307.945
307.952
307.96
307.968
307.977
307.986
307.997
307.876
307.889
307.9
307.91
307.918
307.926
307.933
307.939
307.946
307.952
307.96
307.968
307.977
307.987
307.882
307.893
307.902
307.911
307.917
307.923
307.928
307.934
307.939
307.944
307.951
307.958
307.965
307.975
307.568
307.594
307.619
307.641
307.661
307.68
307.697
307.714
307.73
307.745
307.76
307.775
307.79
307.806
307.581
307.605
307.631
307.654
307.676
307.696
307.715
307.732
307.749
307.765
307.781
307.796
307.811
307.827
307.596
307.621
307.647
307.67
307.692
307.712
307.731
307.749
307.765
307.781
307.797
307.812
307.827
307.842
307.609
307.634
307.66
307.683
307.706
307.726
307.746
307.763
307.781
307.797
307.813
307.828
307.843
307.859
307.622
307.648
307.674
307.697
307.719
307.739
307.758
307.776
307.793
307.809
307.825
307.84
307.855
307.87
307.634
307.66
307.685
307.708
307.73
307.75
307.77
307.787
307.804
307.82
307.836
307.851
307.866
307.881
307.646
307.672
307.697
307.719
307.741
307.761
307.779
307.797
307.813
307.829
307.844
307.859
307.874
307.888
307.658
307.683
307.707
307.729
307.75
307.769
307.787
307.805
307.821
307.836
307.851
307.866
307.881
307.895
307.67
307.694
307.717
307.738
307.758
307.777
307.794
307.811
307.826
307.841
307.856
307.871
307.885
307.9
307.682
307.705
307.726
307.747
307.765
307.783
307.8
307.816
307.831
307.846
307.86
307.875
307.889
307.904
307.694
307.716
307.735
307.755
307.772
307.789
307.804
307.819
307.834
307.848
307.862
307.877
307.891
307.906
307.705
307.726
307.743
307.761
307.777
307.793
307.808
307.822
307.836
307.85
307.863
307.878
307.892
307.907
307.717
307.735
307.751
307.768
307.782
307.797
307.81
307.823
307.836
307.849
307.862
307.876
307.89
307.905
307.729
307.746
307.759
307.773
307.786
307.799
307.811
307.824
307.836
307.848
307.861
307.874
307.888
307.904
307.24
307.266
307.293
307.318
307.343
307.365
307.387
307.407
307.426
307.443
307.461
307.478
307.495
307.512
307.264
307.289
307.318
307.345
307.371
307.395
307.417
307.439
307.459
307.478
307.497
307.514
307.532
307.551
307.293
307.318
307.348
307.374
307.401
307.425
307.448
307.469
307.489
307.509
307.527
307.546
307.563
307.582
307.32
307.345
307.375
307.401
307.428
307.452
307.476
307.498
307.519
307.539
307.558
307.577
307.595
307.614
307.346
307.373
307.402
307.429
307.455
307.479
307.503
307.525
307.546
307.566
307.585
307.604
307.623
307.641
307.373
307.4
307.428
307.454
307.48
307.505
307.528
307.55
307.571
307.592
307.612
307.631
307.649
307.668
307.399
307.426
307.453
307.479
307.504
307.528
307.552
307.574
307.595
307.615
307.635
307.654
307.673
307.69
307.424
307.451
307.477
307.502
307.527
307.551
307.573
307.595
307.616
307.636
307.656
307.675
307.694
307.712
307.449
307.475
307.499
307.524
307.548
307.571
307.593
307.615
307.636
307.656
307.675
307.694
307.713
307.731
307.473
307.498
307.521
307.545
307.568
307.59
307.612
307.633
307.653
307.673
307.693
307.712
307.731
307.749
307.495
307.52
307.541
307.564
307.586
307.608
307.629
307.649
307.669
307.689
307.708
307.727
307.747
307.765
307.518
307.54
307.561
307.582
307.603
307.624
307.644
307.664
307.684
307.703
307.722
307.741
307.761
307.78
307.538
307.559
307.578
307.599
307.619
307.639
307.658
307.677
307.697
307.716
307.735
307.754
307.774
307.795
307.558
307.578
307.595
307.614
307.633
307.652
307.67
307.689
307.708
307.727
307.746
307.766
307.785
307.806
306.96
306.978
307
307.021
307.042
307.062
307.082
307.1
307.119
307.136
307.153
307.169
307.186
307.201
306.993
307.01
307.033
307.055
307.077
307.098
307.119
307.139
307.158
307.177
307.195
307.213
307.23
307.249
307.028
307.046
307.07
307.092
307.114
307.135
307.156
307.176
307.196
307.215
307.234
307.252
307.269
307.29
307.064
307.082
307.106
307.127
307.15
307.171
307.193
307.214
307.234
307.255
307.274
307.293
307.311
307.332
307.099
307.119
307.142
307.163
307.186
307.208
307.229
307.251
307.272
307.292
307.312
307.332
307.35
307.37
307.135
307.155
307.177
307.199
307.221
307.243
307.265
307.287
307.308
307.329
307.35
307.37
307.389
307.409
307.17
307.19
307.212
307.234
307.256
307.278
307.3
307.322
307.344
307.365
307.386
307.406
307.426
307.445
307.205
307.226
307.247
307.268
307.29
307.312
307.334
307.356
307.378
307.399
307.42
307.441
307.461
307.48
307.238
307.259
307.279
307.301
307.323
307.345
307.367
307.389
307.411
307.432
307.454
307.474
307.495
307.514
307.271
307.292
307.312
307.333
307.354
307.376
307.398
307.42
307.442
307.464
307.485
307.506
307.527
307.546
307.302
307.322
307.342
307.363
307.384
307.406
307.428
307.45
307.472
307.494
307.515
307.536
307.558
307.576
307.333
307.353
307.372
307.392
307.413
307.435
307.456
307.478
307.5
307.522
307.543
307.565
307.587
307.606
307.361
307.38
307.398
307.419
307.439
307.461
307.483
307.505
307.527
307.549
307.571
307.593
307.616
307.636
307.389
307.407
307.425
307.445
307.466
307.486
307.508
307.53
307.552
307.573
307.595
307.618
307.641
307.664
306.772
306.777
306.788
306.799
306.812
306.825
306.838
306.851
306.865
306.878
306.891
306.903
306.916
306.929
306.807
306.811
306.822
306.833
306.846
306.859
306.873
306.887
306.901
306.915
306.929
306.943
306.957
306.972
306.841
306.847
306.858
306.869
306.882
306.896
306.91
306.924
306.938
306.953
306.967
306.982
306.996
307.012
306.877
306.884
306.895
306.906
306.919
306.933
306.947
306.962
306.977
306.992
307.007
307.023
307.037
307.055
306.913
306.92
306.932
306.943
306.957
306.971
306.986
307.001
307.016
307.032
307.048
307.063
307.079
307.096
306.949
306.958
306.969
306.982
306.995
307.01
307.025
307.04
307.056
307.072
307.089
307.105
307.121
307.138
306.985
306.996
307.007
307.02
307.034
307.049
307.064
307.08
307.096
307.113
307.13
307.146
307.163
307.179
307.022
307.033
307.045
307.058
307.072
307.087
307.103
307.12
307.136
307.153
307.171
307.188
307.205
307.221
307.058
307.069
307.081
307.095
307.11
307.126
307.142
307.159
307.176
307.193
307.211
307.228
307.246
307.262
307.094
307.106
307.118
307.132
307.147
307.163
307.18
307.197
307.215
307.233
307.251
307.269
307.288
307.303
307.128
307.14
307.152
307.167
307.183
307.2
307.218
307.235
307.254
307.272
307.291
307.308
307.328
307.342
307.162
307.175
307.187
307.203
307.219
307.236
307.254
307.272
307.291
307.309
307.329
307.347
307.367
307.383
307.194
307.206
307.22
307.236
307.253
307.271
307.29
307.308
307.328
307.347
307.367
307.386
307.407
307.423
307.227
307.239
307.254
307.27
307.287
307.305
307.324
307.343
307.363
307.382
307.402
307.421
307.442
307.461
306.667
306.663
306.664
306.666
306.669
306.673
306.678
306.684
306.691
306.698
306.705
306.712
306.719
306.728
306.697
306.692
306.693
306.695
306.697
306.701
306.706
306.712
306.719
306.726
306.733
306.741
306.749
306.759
306.725
306.721
306.722
306.724
306.727
306.731
306.736
306.742
306.748
306.756
306.763
306.771
306.779
306.789
306.755
306.752
306.753
306.755
306.758
306.762
306.767
306.773
306.78
306.787
306.795
306.803
306.811
306.822
306.785
306.783
306.785
306.787
306.79
306.794
306.799
306.806
306.813
306.82
306.828
306.837
306.845
306.856
306.816
306.815
306.817
306.819
306.823
306.828
306.833
306.84
306.847
306.855
306.863
306.872
306.882
306.891
306.847
306.848
306.849
306.853
306.857
306.862
306.868
306.875
306.883
306.891
306.9
306.909
306.919
306.928
306.878
306.88
306.883
306.886
306.891
306.897
306.904
306.911
306.919
306.928
306.938
306.947
306.957
306.966
306.909
306.913
306.916
306.92
306.926
306.932
306.94
306.948
306.957
306.966
306.976
306.986
306.997
307.005
306.941
306.946
306.949
306.955
306.961
306.968
306.976
306.985
306.995
307.005
307.015
307.025
307.037
307.045
306.972
306.978
306.982
306.989
306.996
307.004
307.013
307.023
307.034
307.044
307.054
307.064
307.077
307.085
307.004
307.011
307.016
307.023
307.032
307.04
307.05
307.061
307.072
307.083
307.094
307.105
307.118
307.126
307.035
307.042
307.049
307.057
307.066
307.076
307.087
307.099
307.111
307.122
307.134
307.145
307.159
307.167
307.07
307.076
307.083
307.092
307.102
307.112
307.124
307.136
307.148
307.16
307.173
307.185
307.199
307.209
306.616
306.607
306.601
306.596
306.593
306.59
306.588
306.588
306.588
306.589
306.59
306.591
306.593
306.598
306.637
306.627
306.621
306.616
306.612
306.609
306.607
306.606
306.606
306.606
306.607
306.609
306.61
306.615
306.657
306.648
306.642
306.636
306.632
306.629
306.627
306.626
306.625
306.626
306.626
306.627
306.628
306.633
306.678
306.669
306.664
306.658
306.654
306.651
306.648
306.647
306.646
306.646
306.647
306.648
306.649
306.653
306.699
306.692
306.686
306.681
306.677
306.674
306.671
306.67
306.669
306.669
306.669
306.671
306.672
306.674
306.722
306.715
306.709
306.704
306.701
306.697
306.695
306.694
306.693
306.693
306.694
306.695
306.696
306.698
306.744
306.738
306.733
306.729
306.725
306.723
306.721
306.719
306.719
306.719
306.719
306.72
306.722
306.724
306.767
306.762
306.758
306.754
306.751
306.749
306.747
306.746
306.746
306.746
306.747
306.748
306.75
306.751
306.79
306.787
306.783
306.78
306.778
306.776
306.775
306.774
306.774
306.774
306.775
306.777
306.779
306.779
306.814
306.813
306.809
306.807
306.805
306.804
306.803
306.803
306.803
306.804
306.805
306.807
306.81
306.81
306.839
306.839
306.836
306.835
306.833
306.833
306.833
306.833
306.834
306.835
306.837
306.839
306.842
306.841
306.864
306.865
306.863
306.862
306.862
306.862
306.863
306.864
306.865
306.867
306.869
306.872
306.875
306.874
306.891
306.892
306.891
306.891
306.892
306.892
306.894
306.895
306.897
306.899
306.902
306.905
306.908
306.907
306.92
306.92
306.919
306.92
306.921
306.923
306.925
306.927
306.93
306.932
306.935
306.939
306.943
306.944
306.588
306.577
306.567
306.559
306.551
306.544
306.539
306.533
306.529
306.525
306.522
306.519
306.516
306.514
306.6
306.589
306.579
306.57
306.563
306.556
306.549
306.543
306.539
306.534
306.53
306.527
306.523
306.521
306.612
306.6
306.591
306.582
306.574
306.567
306.56
306.554
306.549
306.544
306.54
306.536
306.532
306.53
306.624
306.613
306.604
306.595
306.587
306.579
306.573
306.566
306.561
306.556
306.551
306.547
306.542
306.539
306.637
306.627
306.618
306.609
306.6
306.593
306.586
306.579
306.573
306.568
306.563
306.558
306.554
306.55
306.651
306.641
306.632
306.623
306.614
306.607
306.6
306.593
306.587
306.581
306.576
306.571
306.566
306.562
306.665
306.655
306.646
306.638
306.63
306.622
306.615
306.608
306.602
306.596
306.59
306.585
306.58
306.575
306.679
306.67
306.662
306.654
306.645
306.638
306.63
306.624
306.617
306.611
306.605
306.6
306.595
306.59
306.694
306.686
306.678
306.67
306.662
306.654
306.647
306.64
306.634
306.628
306.622
306.616
306.611
306.606
306.709
306.702
306.694
306.687
306.679
306.672
306.665
306.658
306.651
306.645
306.639
306.633
306.629
306.622
306.724
306.719
306.711
306.704
306.697
306.69
306.683
306.677
306.67
306.664
306.658
306.651
306.647
306.64
306.741
306.736
306.729
306.722
306.716
306.709
306.702
306.696
306.689
306.683
306.677
306.671
306.666
306.66
306.759
306.754
306.748
306.742
306.735
306.729
306.722
306.716
306.71
306.703
306.697
306.69
306.686
306.68
306.779
306.773
306.766
306.76
306.754
306.749
306.743
306.737
306.731
306.725
306.719
306.713
306.708
306.703
306.563
306.55
306.54
306.53
306.521
306.512
306.503
306.495
306.488
306.481
306.474
306.467
306.567
306.555
306.545
306.535
306.525
306.516
306.507
306.499
306.491
306.483
306.476
306.469
306.572
306.56
306.55
306.539
306.53
306.521
306.512
306.503
306.494
306.486
306.478
306.471
306.577
306.566
306.555
306.545
306.535
306.525
306.516
306.507
306.498
306.49
306.481
306.473
306.582
306.571
306.56
306.55
306.54
306.53
306.521
306.511
306.502
306.493
306.485
306.476
306.587
306.577
306.566
306.555
306.545
306.535
306.526
306.516
306.507
306.497
306.488
306.479
306.593
306.582
306.572
306.561
306.551
306.541
306.531
306.521
306.511
306.502
306.492
306.483
306.598
306.588
306.578
306.567
306.557
306.547
306.536
306.526
306.516
306.507
306.497
306.487
306.604
306.595
306.584
306.574
306.563
306.553
306.542
306.532
306.522
306.512
306.502
306.492
306.61
306.601
306.591
306.58
306.57
306.559
306.549
306.538
306.528
306.517
306.507
306.496
306.617
306.608
306.598
306.587
306.577
306.566
306.555
306.545
306.534
306.523
306.512
306.502
306.623
306.614
306.604
306.594
306.584
306.573
306.562
306.551
306.54
306.529
306.518
306.508
306.63
306.621
306.612
306.602
306.591
306.58
306.569
306.559
306.548
306.536
306.525
306.514
306.637
306.628
306.618
306.608
306.598
306.588
306.577
306.566
306.555
306.544
306.532
306.521
309.207
309.238
309.269
309.297
309.322
309.343
309.2
309.244
309.282
309.319
309.35
309.378
309.199
309.25
309.295
309.337
309.374
309.405
309.194
309.252
309.303
309.349
309.389
309.422
309.228
309.249
309.272
309.294
309.313
309.33
309.226
309.26
309.29
309.318
309.343
309.366
309.231
309.271
309.308
309.341
309.37
309.396
309.231
309.278
309.32
309.357
309.39
309.418
309.232
309.283
309.328
309.369
309.404
309.433
309.23
309.284
309.332
309.374
309.41
309.439
309.225
309.282
309.332
309.375
309.411
309.44
309.205
309.22
309.238
309.253
309.267
309.28
309.21
309.235
309.259
309.279
309.298
309.315
309.218
309.25
309.279
309.304
309.326