/*--------------------------------*- C++ -*----------------------------------*\
| =========                 |                                                 |
| \\      /  F ield         | OpenFOAM: The Open Source CFD Toolbox           |
|  \\    /   O peration     | Version:  v2106                                 |
|   \\  /    A nd           | Website:  www.openfoam.com                      |
|    \\/     M anipulation  |                                                 |
\*---------------------------------------------------------------------------*/
FoamFile
{
    version     2.0;
    format      ascii;
    arch        "LSB;label=32;scalar=64";
    class       volScalarField;
    location    "0.000173";
    object      rho;
}
// * * * * * * * * * * * * * * * * * * * * * * * * * * * * * * * * * * * * * //

dimensions      [1 -3 0 0 0 0 0];

internalField   nonuniform List<scalar> 
144746
(
2.40615
2.40018
2.391
2.38507
2.38027
2.37598
2.37233
2.369
2.36718
2.36578
2.36551
2.36685
2.36977
2.37328
2.39887
2.39458
2.38611
2.38051
2.37593
2.37213
2.36812
2.36474
2.36189
2.35957
2.35886
2.36083
2.364
2.36696
2.39236
2.38727
2.38083
2.37577
2.37106
2.36699
2.36333
2.3601
2.35675
2.35382
2.35231
2.35248
2.35351
2.35411
2.38681
2.38088
2.37516
2.37018
2.36564
2.36221
2.35817
2.35502
2.3514
2.34813
2.34603
2.34527
2.34508
2.34506
2.38195
2.37583
2.37035
2.36542
2.36099
2.35697
2.35335
2.34995
2.34615
2.34255
2.33952
2.33779
2.33681
2.33723
2.37741
2.3709
2.36517
2.36016
2.35601
2.35209
2.34842
2.34473
2.34095
2.33715
2.33403
2.33215
2.33119
2.33115
2.37338
2.36624
2.35992
2.35474
2.3507
2.34674
2.34305
2.33938
2.33577
2.33223
2.32935
2.32761
2.32706
2.32832
2.37062
2.36271
2.35574
2.34992
2.34577
2.3417
2.3378
2.33423
2.33085
2.32777
2.32566
2.32481
2.32532
2.32796
2.36819
2.35997
2.35242
2.34623
2.34157
2.33722
2.33313
2.32945
2.32649
2.32404
2.32274
2.32281
2.32483
2.32977
2.36737
2.35867
2.35089
2.34396
2.33893
2.33404
2.32968
2.32572
2.32308
2.3213
2.321
2.32219
2.32605
2.33354
2.36818
2.35884
2.35097
2.34326
2.33778
2.33237
2.32755
2.32368
2.32138
2.32026
2.32179
2.32461
2.33073
2.33985
2.37185
2.36167
2.35382
2.34479
2.3386
2.33268
2.32718
2.32353
2.32179
2.32146
2.32417
2.32818
2.33599
2.34404
2.3789
2.36713
2.35833
2.34766
2.34083
2.33454
2.32853
2.32477
2.32296
2.32294
2.326
2.3309
2.34074
2.3472
2.38226
2.37152
2.36494
2.35453
2.34628
2.33873
2.33173
2.32779
2.32603
2.32713
2.33098
2.33662
2.34853
2.35476
2.41193
2.40919
2.40332
2.39859
2.39452
2.3905
2.38698
2.38293
2.37999
2.37768
2.37623
2.3768
2.37913
2.38028
2.40526
2.40267
2.39706
2.39251
2.38855
2.38514
2.38198
2.37849
2.37571
2.37323
2.37204
2.37364
2.3752
2.37723
2.39984
2.39656
2.39207
2.38783
2.38389
2.38023
2.3773
2.37465
2.37205
2.36959
2.36828
2.36896
2.36895
2.369
2.39682
2.39224
2.3876
2.38322
2.37933
2.37669
2.37341
2.37116
2.36843
2.36606
2.36494
2.36497
2.36451
2.3636
2.39462
2.38911
2.38436
2.38032
2.37668
2.37321
2.37064
2.36817
2.36541
2.36299
2.36174
2.36134
2.36092
2.36018
2.3923
2.38616
2.38107
2.37704
2.37363
2.37043
2.3678
2.36524
2.36249
2.36032
2.35919
2.35906
2.35902
2.35824
2.39036
2.3839
2.37821
2.37396
2.37048
2.36738
2.36474
2.36217
2.35972
2.35786
2.35699
2.35737
2.35787
2.35822
2.38959
2.38187
2.37561
2.37086
2.36738
2.36441
2.36174
2.35947
2.35727
2.35596
2.35564
2.35659
2.35756
2.35896
2.38905
2.38146
2.37465
2.3696
2.3658
2.3624
2.35946
2.35728
2.35546
2.35445
2.35464
2.35592
2.35787
2.36069
2.38935
2.38138
2.37403
2.3685
2.36467
2.3611
2.35819
2.35613
2.35459
2.35391
2.3546
2.356
2.35874
2.36337
2.39051
2.38251
2.37533
2.36932
2.36512
2.36132
2.35836
2.35639
2.35518
2.35487
2.35605
2.35826
2.36221
2.36845
2.39438
2.38537
2.3783
2.37166
2.36732
2.36358
2.36035
2.35864
2.35786
2.3581
2.35991
2.3627
2.3667
2.37247
2.39983
2.38951
2.38254
2.37534
2.37065
2.36704
2.36398
2.36227
2.36128
2.36099
2.36215
2.36505
2.37047
2.37522
2.40268
2.39384
2.38823
2.38142
2.37615
2.37214
2.3684
2.36625
2.36482
2.36432
2.36566
2.36878
2.37671
2.37907
2.43296
2.43047
2.42495
2.42005
2.41697
2.4133
2.41072
2.40672
2.40309
2.3982
2.39266
2.38829
2.38768
2.38448
2.42765
2.42398
2.41785
2.41365
2.4103
2.40677
2.40463
2.40109
2.39779
2.39318
2.38825
2.38553
2.38407
2.38276
2.42382
2.41902
2.41307
2.40818
2.40443
2.40235
2.39907
2.39628
2.39297
2.38878
2.38418
2.38133
2.37795
2.37595
2.42247
2.41646
2.41067
2.40585
2.40188
2.39862
2.39589
2.39262
2.38896
2.38482
2.38054
2.37808
2.37439
2.37182
2.42089
2.41446
2.40876
2.40398
2.39987
2.39694
2.39347
2.39003
2.38605
2.3819
2.3779
2.37549
2.37188
2.36919
2.41837
2.41165
2.4065
2.40207
2.398
2.39491
2.39123
2.38736
2.38316
2.37937
2.37625
2.37402
2.37133
2.36824
2.41637
2.4091
2.40399
2.39949
2.39537
2.3923
2.38876
2.38508
2.38133
2.37783
2.37527
2.37309
2.3714
2.36893
2.41517
2.40667
2.4011
2.39679
2.39288
2.38937
2.38588
2.38233
2.37901
2.37657
2.37452
2.37326
2.37169
2.36924
2.41426
2.4055
2.39903
2.39451
2.39027
2.38629
2.38278
2.37951
2.37677
2.37487
2.37364
2.37315
2.3728
2.37109
2.41425
2.40438
2.39762
2.39295
2.38841
2.38395
2.38022
2.37687
2.37458
2.37313
2.37262
2.37271
2.37325
2.3726
2.41505
2.4046
2.39784
2.3927
2.3876
2.3826
2.3784
2.37513
2.37314
2.37199
2.37182
2.37224
2.3732
2.37398
2.41752
2.40581
2.39969
2.39401
2.38849
2.38317
2.37855
2.37551
2.37361
2.37267
2.37279
2.37353
2.37463
2.37606
2.42049
2.40933
2.40317
2.39692
2.39084
2.38554
2.38072
2.37782
2.37538
2.37388
2.37329
2.37371
2.37578
2.3779
2.42121
2.41061
2.40581
2.39987
2.39373
2.38841
2.38385
2.3808
2.37779
2.37634
2.37554
2.37649
2.38008
2.37968
2.38377
2.39259
2.39441
2.40109
2.40221
2.41191
2.36442
2.37405
2.37846
2.38772
2.39134
2.40508
2.35631
2.36652
2.37134
2.38017
2.38689
2.40106
2.34525
2.35336
2.3594
2.37115
2.37603
2.39885
2.34011
2.34868
2.35469
2.36745
2.37114
2.40041
2.3338
2.34347
2.35162
2.36544
2.3704
2.40721
2.3324
2.34348
2.3552
2.37217
2.37873
2.40338
2.33333
2.34531
2.35916
2.37879
2.38941
2.41429
2.33612
2.34956
2.36565
2.38708
2.40009
2.4199
2.34285
2.35684
2.37246
2.39292
2.40546
2.42481
2.35062
2.36365
2.37794
2.396
2.40631
2.42463
2.35571
2.36771
2.38075
2.3964
2.4051
2.42299
2.36296
2.37107
2.38212
2.39387
2.40299
2.41963
2.36388
2.36945
2.37916
2.38769
2.39786
2.40874
2.39144
2.40039
2.40076
2.40893
2.40979
2.4182
2.37293
2.38063
2.3846
2.39231
2.39319
2.40675
2.36841
2.37509
2.37774
2.38413
2.38051
2.39814
2.36059
2.36495
2.36594
2.37396
2.36826
2.39385
2.35878
2.36255
2.36237
2.37044
2.36276
2.39171
2.35639
2.35989
2.36078
2.36902
2.3611
2.39678
2.35726
2.36088
2.36463
2.37487
2.37017
2.39705
2.35953
2.36387
2.37026
2.38201
2.38364
2.41135
2.36284
2.3693
2.3783
2.39083
2.39815
2.41881
2.36854
2.37672
2.38655
2.39943
2.40831
2.43003
2.37517
2.38389
2.39351
2.40634
2.41401
2.43333
2.37918
2.38725
2.39642
2.40898
2.41463
2.43421
2.38555
2.39013
2.39765
2.40904
2.414
2.43148
2.3826
2.38605
2.39252
2.40064
2.40807
2.41896
2.3936
2.40041
2.40219
2.40667
2.41255
2.41881
2.37673
2.38245
2.38715
2.39505
2.40326
2.42123
2.37249
2.37672
2.38033
2.38847
2.39081
2.41673
2.36504
2.36617
2.36897
2.3785
2.37902
2.41235
2.36284
2.362
2.36479
2.37417
2.37375
2.40664
2.362
2.35934
2.36154
2.37151
2.37251
2.4026
2.36374
2.35976
2.36071
2.37033
2.37384
2.40145
2.36523
2.36184
2.36205
2.37013
2.37771
2.40383
2.368
2.3662
2.36747
2.37676
2.38555
2.40142
2.37126
2.3707
2.37485
2.38371
2.39299
2.40191
2.37492
2.3768
2.38257
2.39144
2.40017
2.40449
2.37766
2.38014
2.3866
2.39607
2.40321
2.40787
2.38304
2.38463
2.39073
2.40076
2.4071
2.41265
2.37956
2.38021
2.38738
2.39756
2.40322
2.41141
2.36853
2.37998
2.38146
2.38615
2.39219
2.40088
2.34474
2.35646
2.3616
2.37422
2.37956
2.3981
2.33999
2.35361
2.35628
2.36884
2.37187
2.395
2.33229
2.34543
2.35037
2.3661
2.36939
2.39579
2.33059
2.34301
2.35099
2.36875
2.37244
2.40049
2.3294
2.34186
2.35351
2.37434
2.37891
2.41003
2.33244
2.34504
2.35896
2.38177
2.38836
2.424
2.33732
2.35094
2.36579
2.38932
2.39941
2.43879
2.34539
2.36057
2.37533
2.39948
2.41446
2.4435
2.35283
2.36946
2.38386
2.40692
2.42059
2.44624
2.36354
2.3804
2.39298
2.41345
2.42506
2.44707
2.37336
2.38667
2.39922
2.41723
2.42458
2.44606
2.38273
2.39268
2.40397
2.41899
2.42372
2.44306
2.38533
2.39234
2.40318
2.41623
2.42624
2.43987
2.38903
2.39698
2.39454
2.39431
2.3935
2.40831
2.37095
2.37558
2.3745
2.38055
2.37636
2.39362
2.36713
2.37237
2.3699
2.37548
2.36633
2.38832
2.36277
2.36584
2.36496
2.37295
2.36302
2.38991
2.36335
2.36518
2.3673
2.37596
2.36633
2.39568
2.36465
2.36655
2.37165
2.38197
2.37408
2.40533
2.36829
2.37167
2.37785
2.38971
2.38434
2.42069
2.37191
2.37801
2.38593
2.40065
2.40002
2.43206
2.37719
2.38643
2.39467
2.41065
2.41669
2.44434
2.3818
2.39279
2.40313
2.42081
2.42995
2.45442
2.38853
2.40154
2.41217
2.43061
2.43981
2.46135
2.3951
2.40649
2.41758
2.43551
2.44293
2.4643
2.40278
2.41171
2.42166
2.43777
2.44245
2.46379
2.40271
2.40885
2.41836
2.43283
2.43818
2.45194
2.3869
2.39634
2.39882
2.39942
2.39923
2.40862
2.37371
2.376
2.37782
2.3816
2.38331
2.4023
2.37104
2.37215
2.3735
2.37729
2.37413
2.39892
2.37053
2.36813
2.36664
2.37247
2.36994
2.40074
2.37373
2.36972
2.36815
2.37491
2.37274
2.40503
2.37701
2.37337
2.372
2.38104
2.38022
2.4129
2.38159
2.37875
2.37785
2.388
2.39095
2.42125
2.3855
2.38478
2.38473
2.39498
2.40231
2.43145
2.39017
2.39256
2.39455
2.40498
2.41399
2.43427
2.39638
2.4004
2.40558
2.418
2.42878
2.43938
2.40404
2.41039
2.41698
2.42977
2.44022
2.44721
2.4103
2.41736
2.42533
2.43992
2.4508
2.45563
2.41802
2.42437
2.43326
2.44862
2.45818
2.46703
2.41571
2.4213
2.43124
2.44835
2.45908
2.47698
2.44922
2.43898
2.43526
2.42349
2.41532
2.40853
2.44954
2.44041
2.43486
2.4243
2.41631
2.40919
2.44783
2.44
2.43152
2.42047
2.4108
2.40109
2.44445
2.43283
2.42588
2.41491
2.40443
2.39478
2.43511
2.42406
2.42015
2.40846
2.39886
2.38882
2.43616
2.41516
2.41509
2.40193
2.39318
2.38385
2.43637
2.40893
2.41066
2.39745
2.38902
2.38021
2.43408
2.40793
2.40845
2.39364
2.38555
2.37719
2.43354
2.40627
2.40654
2.39069
2.38267
2.37393
2.43408
2.40698
2.40511
2.38892
2.38164
2.37225
2.43553
2.40932
2.40509
2.38875
2.38189
2.37135
2.43868
2.41463
2.40856
2.39351
2.38679
2.37502
2.43939
2.41972
2.41119
2.39654
2.38885
2.37834
2.43805
2.4275
2.42052
2.41288
2.40903
2.39607
2.46082
2.44834
2.44241
2.42883
2.41966
2.41284
2.46128
2.4482
2.44005
2.42836
2.42014
2.41426
2.45149
2.44007
2.43022
2.41956
2.41242
2.40636
2.44186
2.42803
2.42161
2.41455
2.40794
2.40233
2.42777
2.41582
2.41659
2.41043
2.40464
2.39924
2.42741
2.407
2.41328
2.40701
2.40274
2.39723
2.42829
2.39867
2.4095
2.4044
2.40094
2.39597
2.42523
2.39912
2.40941
2.40251
2.39902
2.39544
2.4259
2.39744
2.40847
2.40041
2.39739
2.39391
2.42499
2.39657
2.40824
2.39931
2.39694
2.39307
2.42504
2.39867
2.40878
2.39896
2.39687
2.39207
2.42818
2.40604
2.41434
2.40489
2.40212
2.39527
2.43301
2.41537
2.41911
2.40875
2.40535
2.39814
2.44042
2.43112
2.43361
2.42844
2.42629
2.41333
2.48131
2.47232
2.45952
2.44509
2.4346
2.43071
2.46929
2.46468
2.45481
2.44666
2.43871
2.4371
2.45172
2.44996
2.44254
2.43927
2.4332
2.43092
2.4427
2.44147
2.4379
2.43842
2.43247
2.42986
2.44765
2.43895
2.43928
2.43769
2.43286
2.42802
2.45518
2.43953
2.44084
2.43773
2.43284
2.42629
2.46217
2.44262
2.44596
2.43865
2.43327
2.42533
2.47022
2.4418
2.44669
2.43813
2.43321
2.42526
2.47169
2.43706
2.44334
2.43451
2.43081
2.42408
2.46894
2.43279
2.43896
2.43077
2.4283
2.42261
2.46574
2.43104
2.4353
2.42735
2.42552
2.4203
2.46534
2.43788
2.44003
2.43125
2.42718
2.42042
2.469
2.44573
2.44215
2.43349
2.42937
2.42029
2.47522
2.46147
2.45733
2.45024
2.44494
2.43275
2.41671
2.40806
2.40544
2.39613
2.38875
2.38259
2.41944
2.41122
2.40599
2.39753
2.38957
2.38355
2.41983
2.41238
2.40489
2.39551
2.38587
2.37794
2.42205
2.41255
2.40307
2.39347
2.38277
2.37469
2.41742
2.40678
2.39955
2.39062
2.38015
2.37209
2.41987
2.40326
2.39862
2.38805
2.37997
2.37235
2.41923
2.3992
2.39784
2.38626
2.3797
2.37291
2.43074
2.39568
2.39649
2.38524
2.38095
2.37548
2.42741
2.39926
2.40005
2.38771
2.38343
2.37785
2.43213
2.40615
2.4038
2.39174
2.38855
2.38244
2.44014
2.41683
2.41025
2.39746
2.39305
2.38622
2.44469
2.42752
2.4205
2.40942
2.40387
2.39407
2.44966
2.42611
2.42435
2.41345
2.40919
2.39919
2.44776
2.43655
2.43565
2.42704
2.4254
2.41554
2.42593
2.4166
2.40991
2.39947
2.39184
2.38743
2.42704
2.41733
2.40982
2.40084
2.39298
2.38982
2.42068
2.41139
2.40378
2.39545
2.38812
2.38449
2.41698
2.40543
2.39878
2.39328
2.38635
2.38292
2.4084
2.39595
2.39441
2.39134
2.38494
2.38203
2.40675
2.39124
2.39504
2.39209
2.38748
2.38328
2.41056
2.38668
2.39569
2.39177
2.38942
2.3858
2.41896
2.38582
2.39731
2.39308
2.39221
2.3897
2.4197
2.39172
2.4021
2.39565
2.39515
2.39256
2.42557
2.39824
2.40839
2.40089
2.40026
2.39679
2.43322
2.40745
2.41461
2.40644
2.40399
2.39996
2.43927
2.42079
2.42546
2.4182
2.4137
2.40566
2.44708
2.43264
2.43251
2.42414
2.4188
2.40864
2.45444
2.44455
2.44505
2.43688
2.43424
2.42341
2.41234
2.4082
2.40038
2.39441
2.3878
2.38843
2.40696
2.4064
2.40125
2.39933
2.39512
2.39703
2.3983
2.40068
2.39677
2.39638
2.39312
2.39464
2.39822
2.39796
2.39672
2.4008
2.39691
2.39761
2.40284
2.39946
2.40142
2.40418
2.40233
2.40211
2.41778
2.40409
2.40886
2.40945
2.40758
2.40638
2.4344
2.4107
2.41529
2.41373
2.41208
2.40997
2.44676
2.41841
2.42382
2.41908
2.41713
2.41465
2.46084
2.42408
2.43074
2.42303
2.42044
2.41744
2.47177
2.43245
2.43799
2.42899
2.42534
2.42126
2.48379
2.44442
2.44594
2.43431
2.43032
2.42392
2.49165
2.46146
2.45948
2.446
2.43927
2.4292
2.50291
2.47606
2.46584
2.45185
2.44451
2.4319
2.49809
2.48287
2.4768
2.46375
2.45803
2.4469
2.44556
2.44084
2.43637
2.43195
2.42891
2.42478
2.42168
2.41827
2.41508
2.41168
2.40832
2.4048
2.4048
2.40475
2.43993
2.43363
2.42684
2.42221
2.41858
2.41577
2.41297
2.41043
2.40815
2.40524
2.40205
2.39921
2.39883
2.39873
2.4364
2.42931
2.42297
2.418
2.41422
2.41068
2.40765
2.40515
2.4026
2.39964
2.39645
2.39336
2.39229
2.39351
2.4342
2.42659
2.42015
2.41517
2.41135
2.40809
2.40481
2.40181
2.39879
2.39516
2.39179
2.38901
2.38833
2.38869
2.43157
2.42427
2.41813
2.41328
2.40964
2.40627
2.40277
2.39917
2.39523
2.39146
2.38847
2.38614
2.38608
2.38611
2.42865
2.42146
2.4157
2.41103
2.40763
2.40426
2.4007
2.39697
2.39313
2.38939
2.38654
2.38463
2.38485
2.38477
2.42587
2.41836
2.41293
2.40849
2.40524
2.40197
2.3985
2.39482
2.39114
2.38782
2.3852
2.38411
2.38419
2.38463
2.42392
2.41542
2.41007
2.40563
2.40223
2.39894
2.39571
2.39235
2.38916
2.38642
2.38462
2.38402
2.38462
2.38441
2.42254
2.41316
2.40765
2.40301
2.39918
2.39577
2.39267
2.38968
2.38709
2.38515
2.3843
2.38401
2.38491
2.38459
2.4221
2.4113
2.40527
2.40039
2.39627
2.39274
2.38973
2.38706
2.385
2.38391
2.38358
2.38405
2.38512
2.38462
2.42275
2.4113
2.40484
2.39953
2.39478
2.39072
2.38764
2.38505
2.38355
2.38295
2.38313
2.38428
2.38579
2.38566
2.4244
2.4124
2.40598
2.4006
2.39557
2.3909
2.38745
2.38454
2.3834
2.38291
2.38361
2.38493
2.3867
2.38661
2.42712
2.41629
2.40952
2.40402
2.39881
2.39431
2.39048
2.38735
2.38576
2.38463
2.38458
2.38513
2.38744
2.38866
2.4284
2.41765
2.41334
2.40866
2.4033
2.39926
2.39546
2.39244
2.39036
2.38907
2.38849
2.38968
2.39219
2.39429
2.45175
2.44545
2.44037
2.43488
2.43116
2.4288
2.42727
2.42554
2.42403
2.42201
2.41992
2.41762
2.41747
2.41891
2.44845
2.44119
2.43473
2.4298
2.42603
2.42287
2.42029
2.41856
2.4168
2.41483
2.41243
2.41019
2.40994
2.41193
2.44595
2.4383
2.43185
2.42692
2.42313
2.41991
2.41701
2.41431
2.41179
2.40884
2.4056
2.40276
2.40182
2.40598
2.44387
2.43631
2.42989
2.42541
2.42148
2.41801
2.4146
2.41122
2.40771
2.40382
2.40031
2.39744
2.39664
2.40031
2.44081
2.43381
2.42781
2.42368
2.41981
2.41622
2.41247
2.40861
2.40458
2.40025
2.39639
2.39379
2.39324
2.39679
2.43764
2.43076
2.42531
2.42147
2.41788
2.4143
2.41044
2.40643
2.40225
2.39795
2.39424
2.39188
2.39173
2.39489
2.43397
2.42748
2.4225
2.41869
2.41531
2.41179
2.40804
2.40411
2.40011
2.39609
2.39282
2.39089
2.39157
2.39451
2.43017
2.42402
2.41934
2.41536
2.41203
2.40856
2.40506
2.40142
2.39787
2.3945
2.39194
2.3908
2.39228
2.39499
2.42683
2.42058
2.41598
2.41179
2.40836
2.40498
2.40166
2.39839
2.39541
2.39298
2.39132
2.39125
2.39314
2.39581
2.42401
2.41733
2.41261
2.40843
2.40468
2.4012
2.398
2.39505
2.3927
2.39105
2.39061
2.39136
2.39349
2.39552
2.42278
2.41566
2.41043
2.40579
2.40164
2.39789
2.39458
2.39174
2.38988
2.38894
2.38945
2.39095
2.39356
2.39582
2.42329
2.41562
2.41026
2.40528
2.40031
2.39585
2.39217
2.38927
2.38771
2.38737
2.38832
2.39035
2.39339
2.39564
2.42521
2.41832
2.4123
2.40715
2.40206
2.39699
2.39268
2.38919
2.38754
2.38713
2.38845
2.39051
2.39412
2.39613
2.42767
2.42002
2.41574
2.41148
2.40668
2.40204
2.39744
2.3935
2.39149
2.39121
2.39279
2.39556
2.3985
2.40132
2.45577
2.44945
2.44479
2.44021
2.43751
2.43534
2.43373
2.43295
2.43268
2.43251
2.43196
2.43103
2.43017
2.42894
2.45582
2.44894
2.44339
2.43849
2.43499
2.4321
2.42994
2.42805
2.42678
2.42565
2.42403
2.42249
2.42126
2.42022
2.45447
2.44739
2.44169
2.4372
2.43357
2.43037
2.42749
2.42473
2.42232
2.41955
2.41725
2.41465
2.41272
2.4134
2.45236
2.44569
2.44012
2.436
2.43211
2.42854
2.42509
2.42176
2.41861
2.41507
2.41177
2.40896
2.40704
2.40786
2.44932
2.44305
2.43782
2.43403
2.43041
2.42689
2.42324
2.41963
2.41594
2.41196
2.40809
2.40481
2.40297
2.40422
2.44589
2.44011
2.4354
2.43187
2.4284
2.42482
2.4211
2.41737
2.41344
2.40933
2.40536
2.40219
2.40074
2.4023
2.44188
2.43658
2.43246
2.42904
2.42571
2.42214
2.41851
2.41489
2.41105
2.40709
2.40344
2.40048
2.39974
2.40191
2.43769
2.43283
2.42909
2.42561
2.42239
2.41895
2.41555
2.41216
2.40864
2.40509
2.40207
2.39974
2.39979
2.40303
2.43365
2.42879
2.42523
2.42177
2.4186
2.4154
2.41229
2.40923
2.4062
2.40327
2.40104
2.39957
2.4005
2.404
2.42985
2.42504
2.42127
2.41776
2.41449
2.41143
2.4086
2.40592
2.40346
2.40137
2.39994
2.3995
2.4011
2.4046
2.4268
2.42195
2.41787
2.41436
2.41096
2.40777
2.40495
2.4025
2.40054
2.39926
2.39881
2.39949
2.40153
2.40463
2.42582
2.42069
2.4162
2.41196
2.40796
2.40446
2.40164
2.39932
2.39769
2.39685
2.39733
2.39864
2.40147
2.40417
2.42654
2.42183
2.41687
2.41251
2.408
2.40367
2.40001
2.39719
2.39546
2.39503
2.39585
2.39784
2.40132
2.40399
2.42818
2.42321
2.41943
2.41548
2.41091
2.40646
2.40206
2.39851
2.3965
2.39604
2.39681
2.39881
2.40151
2.40511
2.46251
2.4562
2.45216
2.44782
2.44524
2.44322
2.44192
2.44135
2.44152
2.44181
2.44215
2.44165
2.44115
2.43946
2.46266
2.45643
2.45196
2.4476
2.44444
2.44167
2.43952
2.43771
2.43639
2.43562
2.43507
2.4338
2.43286
2.43087
2.4611
2.45521
2.45069
2.44678
2.44347
2.4403
2.43742
2.43477
2.4325
2.43042
2.42877
2.42692
2.42518
2.42366
2.45923
2.45381
2.44952
2.44594
2.44245
2.43905
2.43575
2.43271
2.42996
2.42722
2.4245
2.42162
2.4194
2.41771
2.4561
2.45098
2.4472
2.44392
2.4406
2.43723
2.43387
2.43065
2.42756
2.42435
2.42104
2.41763
2.41493
2.41352
2.45277
2.44809
2.44474
2.44162
2.43837
2.43497
2.43159
2.42834
2.42511
2.42167
2.4181
2.41464
2.41199
2.41134
2.44867
2.44462
2.44176
2.43873
2.4356
2.43226
2.42899
2.42582
2.42261
2.41918
2.41568
2.41248
2.4102
2.41061
2.44434
2.4407
2.43829
2.43534
2.4324
2.42924
2.42619
2.4232
2.42013
2.41692
2.41374
2.41102
2.40941
2.41046
2.43971
2.43631
2.43414
2.43139
2.42862
2.42581
2.42312
2.42045
2.41771
2.41488
2.41221
2.40984
2.40917
2.41122
2.43509
2.43191
2.42972
2.42711
2.42451
2.42205
2.41974
2.41745
2.41517
2.41283
2.41077
2.40902
2.40923
2.41193
2.43092
2.42806
2.42558
2.42296
2.42037
2.41812
2.41612
2.41415
2.41228
2.41056
2.40924
2.40825
2.40935
2.41187
2.42909
2.42564
2.42233
2.41935
2.4167
2.41445
2.41239
2.41052
2.4089
2.40779
2.4072
2.40724
2.40876
2.41119
2.42856
2.42534
2.42166
2.4182
2.41469
2.41151
2.409
2.407
2.40543
2.4046
2.40482
2.4056
2.40813
2.41058
2.42953
2.42604
2.42284
2.41928
2.4152
2.41135
2.40769
2.40486
2.40287
2.40216
2.40288
2.40445
2.40676
2.40927
2.4692
2.46334
2.46026
2.45679
2.45463
2.45283
2.45168
2.45121
2.45117
2.45188
2.45274
2.45291
2.45415
2.45333
2.46871
2.46357
2.46021
2.45677
2.45405
2.45163
2.44964
2.44806
2.44715
2.44655
2.44658
2.44609
2.44637
2.44476
2.46704
2.46231
2.4591
2.45616
2.45351
2.45088
2.44843
2.44613
2.44424
2.4426
2.44129
2.43996
2.43939
2.43748
2.46504
2.46091
2.45786
2.45502
2.45217
2.44928
2.44648
2.44387
2.44166
2.4396
2.4377
2.4354
2.43366
2.43122
2.46198
2.45839
2.45565
2.45296
2.45016
2.44723
2.44435
2.44164
2.43919
2.43675
2.43441
2.43158
2.42928
2.42681
2.45872
2.45572
2.45327
2.45056
2.4477
2.44469
2.44179
2.43909
2.43655
2.43393
2.43135
2.42838
2.42605
2.42412
2.45501
2.4524
2.45028
2.44761
2.44482
2.44191
2.43912
2.43653
2.434
2.43131
2.42864
2.42586
2.42374
2.42249
2.45086
2.44843
2.44676
2.44427
2.44169
2.43899
2.43641
2.434
2.43153
2.42891
2.4263
2.4239
2.42203
2.42186
2.44633
2.44405
2.44265
2.44048
2.4382
2.43586
2.4336
2.43147
2.42916
2.42675
2.42431
2.42216
2.42076
2.42123
2.44153
2.43957
2.43821
2.43635
2.43439
2.43248
2.43064
2.42886
2.42679
2.42464
2.42248
2.42053
2.41974
2.42096
2.43685
2.43541
2.43394
2.43225
2.43045
2.42888
2.4274
2.42597
2.42422
2.42239
2.42053
2.41885
2.41869
2.42061
2.4341
2.4322
2.43029
2.42846
2.42672
2.42524
2.42396
2.42266
2.42106
2.41962
2.41833
2.41712
2.41757
2.41918
2.43258
2.43088
2.42863
2.42624
2.42381
2.42189
2.4202
2.41858
2.41708
2.41603
2.41545
2.41518
2.41609
2.41856
2.43285
2.43076
2.42818
2.42563
2.42269
2.41971
2.41701
2.41496
2.41344
2.41248
2.41241
2.41266
2.41393
2.41573
2.47479
2.47012
2.4679
2.46533
2.46362
2.46215
2.46137
2.46105
2.46142
2.46229
2.46351
2.46412
2.46597
2.46583
2.47405
2.47021
2.46764
2.4651
2.46318
2.46141
2.46008
2.45909
2.4586
2.45822
2.45844
2.45838
2.45921
2.45824
2.47219
2.46888
2.46651
2.46448
2.46247
2.46052
2.45865
2.45704
2.45589
2.45484
2.45416
2.45331
2.45338
2.45183
2.47036
2.46736
2.46508
2.46289
2.46059
2.4584
2.4563
2.45446
2.45306
2.45186
2.45084
2.44934
2.44822
2.44588
2.46753
2.46476
2.46286
2.46066
2.45824
2.45585
2.45359
2.45163
2.45004
2.44869
2.4474
2.44556
2.44383
2.44154
2.46434
2.46211
2.46023
2.45793
2.45542
2.45295
2.45067
2.44871
2.44702
2.44554
2.44404
2.4421
2.4401
2.43831
2.46037
2.45889
2.45705
2.45482
2.45239
2.45002
2.44785
2.44595
2.44423
2.44265
2.441
2.43914
2.43741
2.43619
2.45614
2.45487
2.45352
2.45147
2.44931
2.44717
2.4452
2.44343
2.44172
2.44006
2.43831
2.43657
2.43523
2.43463
2.45156
2.45044
2.44954
2.44787
2.4461
2.44434
2.44265
2.44108
2.43946
2.43778
2.43602
2.43437
2.43342
2.43346
2.44676
2.44589
2.44526
2.44404
2.4427
2.44144
2.44013
2.43882
2.43732
2.43566
2.43389
2.43228
2.43151
2.43204
2.44211
2.44166
2.44116
2.4403
2.4392
2.43831
2.43734
2.43635
2.43502
2.43347
2.43168
2.43001
2.42952
2.43053
2.43908
2.43833
2.43749
2.43667
2.43573
2.43503
2.43423
2.4334
2.43221
2.4308
2.42913
2.42747
2.42717
2.42853
2.43702
2.43648
2.4355
2.43429
2.43279
2.43169
2.43071
2.42968
2.42846
2.42725
2.42592
2.42482
2.42492
2.42678
2.4368
2.43584
2.43425
2.43274
2.43084
2.42893
2.42705
2.42562
2.42418
2.42312
2.42208
2.42175
2.42167
2.42295
2.48195
2.47822
2.47643
2.4746
2.47341
2.47258
2.47245
2.47216
2.47241
2.47333
2.47487
2.47599
2.47845
2.47923
2.48118
2.47837
2.476
2.47421
2.47284
2.47165
2.47098
2.4705
2.47044
2.4703
2.47072
2.47135
2.47283
2.47261
2.47927
2.47694
2.47499
2.47351
2.47193
2.47051
2.46936
2.46848
2.4679
2.46733
2.46726
2.46688
2.46756
2.46701
2.47749
2.47516
2.47349
2.47172
2.46981
2.46809
2.46657
2.46549
2.46486
2.4643
2.46391
2.46324
2.46299
2.46143
2.47467
2.47256
2.47126
2.46937
2.46729
2.46538
2.46369
2.46243
2.46163
2.46102
2.46049
2.45965
2.45876
2.4569
2.47137
2.46981
2.46835
2.46644
2.46432
2.46237
2.46063
2.4593
2.4584
2.45778
2.45718
2.45619
2.45495
2.45317
2.46717
2.46634
2.4649
2.46316
2.46121
2.45935
2.4577
2.45638
2.4554
2.45472
2.45402
2.45297
2.45177
2.4505
2.46269
2.46225
2.46129
2.45975
2.45813
2.45649
2.45503
2.45378
2.45272
2.45192
2.45108
2.45001
2.44904
2.44855
2.45801
2.45778
2.45738
2.45626
2.45509
2.45382
2.45259
2.45147
2.45036
2.4494
2.4484
2.44736
2.44666
2.44696
2.45336
2.45333
2.45339
2.45276
2.45207
2.45127
2.45033
2.44932
2.44814
2.44699
2.44574
2.44471
2.44434
2.44503
2.44883
2.44932
2.44974
2.44955
2.44901
2.44858
2.4479
2.4471
2.44594
2.44463
2.44315
2.44195
2.44161
2.44301
2.44601
2.44615
2.44633
2.44632
2.44594
2.4458
2.44521
2.44451
2.44335
2.44193
2.44022
2.43885
2.43859
2.44009
2.44383
2.44433
2.44452
2.44437
2.44354
2.44286
2.44193
2.44102
2.43978
2.43837
2.43667
2.43557
2.4355
2.43739
2.44327
2.44339
2.44285
2.44224
2.44088
2.43959
2.43816
2.43697
2.43555
2.43415
2.43257
2.43211
2.43183
2.43316
2.49048
2.48731
2.48575
2.48443
2.48368
2.48334
2.48402
2.48444
2.48529
2.48634
2.48789
2.48895
2.49151
2.49258
2.48957
2.48726
2.48507
2.48376
2.48285
2.48238
2.48264
2.48274
2.48323
2.48359
2.48419
2.48507
2.48681
2.48687
2.48764
2.48598
2.48427
2.48315
2.48199
2.48104
2.48065
2.48048
2.48051
2.48053
2.48085
2.48108
2.48224
2.48215
2.4858
2.48422
2.48281
2.48136
2.47981
2.47854
2.47766
2.47729
2.47721
2.4772
2.47739
2.47739
2.47781
2.47711
2.48295
2.48167
2.4806
2.47901
2.47728
2.47581
2.47465
2.47404
2.47381
2.47372
2.47373
2.47361
2.47355
2.4725
2.47951
2.47869
2.47759
2.47603
2.4743
2.47276
2.47147
2.47073
2.47043
2.47031
2.47022
2.47002
2.46955
2.46836
2.47509
2.47493
2.47405
2.47269
2.47117
2.4697
2.46845
2.46765
2.46729
2.46713
2.46694
2.46668
2.46607
2.46512
2.47038
2.47062
2.47031
2.4692
2.46804
2.46679
2.4657
2.46488
2.46442
2.46419
2.46391
2.46358
2.46302
2.4625
2.46548
2.46608
2.46632
2.46573
2.46503
2.46414
2.46326
2.46247
2.46185
2.46146
2.46107
2.4607
2.46037
2.46056
2.46081
2.46177
2.46247
2.46248
2.46219
2.46176
2.46109
2.46033
2.4595
2.45881
2.45818
2.4578
2.45762
2.45863
2.45662
2.45783
2.45909
2.4596
2.45947
2.45939
2.45891
2.45823
2.45722
2.45625
2.45535
2.45481
2.45462
2.45663
2.45384
2.4551
2.45614
2.4567
2.45671
2.45693
2.45653
2.45588
2.45467
2.45332
2.45196
2.45126
2.4513
2.45338
2.45175
2.45332
2.45441
2.45512
2.45474
2.45443
2.45367
2.45274
2.45133
2.44979
2.44822
2.44769
2.44777
2.45023
2.45127
2.45241
2.4527
2.45287
2.4521
2.45123
2.45015
2.44883
2.44719
2.44545
2.44378
2.44345
2.44339
2.44523
2.49974
2.49763
2.49646
2.49573
2.49539
2.49559
2.4967
2.49759
2.4988
2.49995
2.50141
2.50254
2.50462
2.50581
2.49861
2.49711
2.49542
2.49472
2.49427
2.49434
2.49518
2.49592
2.4969
2.49774
2.49856
2.4992
2.5008
2.50111
2.49673
2.49582
2.49466
2.49409
2.49338
2.49297
2.49316
2.49348
2.49401
2.49453
2.49526
2.49588
2.4971
2.49745
2.49489
2.49407
2.49313
2.49229
2.49127
2.49043
2.49016
2.49029
2.49064
2.49114
2.49185
2.49245
2.49312
2.49308
2.4922
2.49159
2.4909
2.48993
2.48876
2.48772
2.48713
2.48705
2.48718
2.48756
2.48815
2.48873
2.48912
2.48887
2.48857
2.48851
2.48793
2.48698
2.48581
2.48469
2.48393
2.48369
2.48372
2.48402
2.4845
2.48497
2.48507
2.48461
2.48403
2.48461
2.48444
2.48363
2.48267
2.48165
2.48086
2.48052
2.48049
2.48071
2.48105
2.48139
2.48134
2.48101
2.47939
2.48043
2.48072
2.48023
2.47959
2.47878
2.47805
2.47761
2.47751
2.47762
2.4778
2.47802
2.47789
2.47785
2.47474
2.47613
2.47695
2.47707
2.47674
2.47625
2.47562
2.47508
2.47481
2.47477
2.47476
2.47487
2.47483
2.47522
2.47035
2.47212
2.47358
2.47416
2.47416
2.474
2.47346
2.47282
2.47226
2.47196
2.47172
2.47175
2.47174
2.4729
2.46655
2.46862
2.47058
2.47165
2.47184
2.47195
2.47144
2.47074
2.46984
2.46923
2.46879
2.46866
2.46863
2.4708
2.46408
2.46629
2.46814
2.46915
2.46933
2.46975
2.46924
2.46847
2.46715
2.46604
2.46518
2.4649
2.46523
2.46759
2.46215
2.46476
2.4666
2.46794
2.46775
2.46763
2.4667
2.46552
2.46379
2.4623
2.46134
2.46129
2.46172
2.46475
2.46183
2.46391
2.46497
2.46559
2.465
2.46451
2.46334
2.46176
2.45967
2.4578
2.45657
2.45653
2.45697
2.45982
2.46172
2.47518
2.48765
2.50093
2.51468
2.52489
2.44621
2.46295
2.47511
2.48606
2.49733
2.4993
2.44337
2.45799
2.46642
2.47385
2.47851
2.47484
2.43887
2.45006
2.45322
2.45558
2.45795
2.4531
2.43673
2.44532
2.44773
2.44963
2.45002
2.44182
2.43411
2.4418
2.44343
2.44621
2.44854
2.43745
2.43158
2.43946
2.44214
2.44569
2.44956
2.43753
2.42696
2.43365
2.43803
2.4422
2.44935
2.44456
2.42226
2.42759
2.43293
2.43726
2.44832
2.45496
2.4177
2.4218
2.42766
2.43213
2.44845
2.4678
2.41436
2.41843
2.42523
2.43078
2.45153
2.48308
2.41092
2.41482
2.42368
2.43407
2.46026
2.49484
2.41398
2.41653
2.42719
2.44114
2.46881
2.50452
2.40677
2.41127
2.42591
2.44391
2.47178
2.50373
2.46452
2.47913
2.49125
2.50899
2.52275
2.53785
2.45193
2.46725
2.48177
2.49845
2.50898
2.51795
2.44911
2.46393
2.4768
2.49003
2.49693
2.50119
2.44465
2.45803
2.46845
2.47519
2.47758
2.48313
2.44215
2.45397
2.4633
2.4676
2.46924
2.47359
2.43936
2.4517
2.45964
2.46259
2.4647
2.46686
2.4381
2.45115
2.45863
2.46106
2.46321
2.4628
2.43711
2.44851
2.4558
2.45907
2.46066
2.46086
2.43432
2.44449
2.45124
2.45584
2.45835
2.46504
2.43143
2.43946
2.44646
2.45283
2.45976
2.47398
2.429
2.43659
2.44495
2.45228
2.4651
2.48564
2.4265
2.43315
2.44296
2.45393
2.47215
2.49699
2.42739
2.43353
2.4451
2.46017
2.48194
2.50848
2.41861
2.42758
2.44394
2.46494
2.48735
2.50992
2.46095
2.47037
2.47974
2.49512
2.51187
2.53055
2.4516
2.46117
2.47419
2.49102
2.50752
2.52064
2.44726
2.45828
2.47259
2.48981
2.50382
2.51075
2.44347
2.45648
2.47037
2.48562
2.49432
2.49845
2.44153
2.45613
2.46893
2.48266
2.48823
2.49
2.44091
2.45622
2.46874
2.47991
2.48289
2.48534
2.4419
2.45685
2.47086
2.4791
2.48124
2.48313
2.44295
2.45795
2.47141
2.47864
2.48167
2.48206
2.44345
2.4581
2.47025
2.47689
2.48159
2.48283
2.44305
2.45579
2.46645
2.47404
2.48081
2.48745
2.44191
2.45275
2.46325
2.47304
2.48279
2.4959
2.44068
2.44982
2.46064
2.47165
2.48628
2.50291
2.44082
2.448
2.45931
2.47262
2.48986
2.51013
2.43085
2.43827
2.45276
2.4719
2.4923
2.51427
2.46341
2.46825
2.4726
2.48112
2.49153
2.50924
2.45604
2.45988
2.46608
2.47748
2.49164
2.50928
2.4519
2.45577
2.46407
2.47896
2.49574
2.51078
2.44859
2.45323
2.46477
2.4806
2.49563
2.50399
2.44709
2.45271
2.46711
2.48148
2.49572
2.50133
2.44659
2.45354
2.4693
2.48345
2.49442
2.49698
2.44684
2.45654
2.47262
2.48712
2.49434
2.495
2.44812
2.45968
2.47652
2.4895
2.49469
2.49442
2.44954
2.46302
2.47928
2.49002
2.49432
2.49422
2.45086
2.46428
2.47816
2.48732
2.49183
2.49383
2.45123
2.46305
2.47428
2.48287
2.48962
2.49526
2.45021
2.45976
2.4694
2.47839
2.48624
2.49713
2.45019
2.45695
2.46481
2.47379
2.48396