/*--------------------------------*- C++ -*----------------------------------*\
| =========                 |                                                 |
| \\      /  F ield         | OpenFOAM: The Open Source CFD Toolbox           |
|  \\    /   O peration     | Version:  v2106                                 |
|   \\  /    A nd           | Website:  www.openfoam.com                      |
|    \\/     M anipulation  |                                                 |
\*---------------------------------------------------------------------------*/
FoamFile
{
    version     2.0;
    format      ascii;
    arch        "LSB;label=32;scalar=64";
    class       volScalarField;
    location    "0.00013";
    object      k;
}
// * * * * * * * * * * * * * * * * * * * * * * * * * * * * * * * * * * * * * //

dimensions      [0 2 -2 0 0 0 0];

internalField   nonuniform List<scalar> 
18109
(
0.00100344
0.00107854
0.00165985
0.00202281
0.00202419
0.00183541
0.00168878
0.000606977
0.000229043
0.000166171
0.000166508
0.000168691
0.000180935
0.000194998
0.00122016
0.000360617
0.000102817
3.03097e-05
1.3872e-05
1.31133e-05
1.64894e-05
0.00318908
0.000952402
0.000252426
5.90149e-05
1.2184e-05
2.58574e-06
1.26723e-06
0.00563412
0.00169454
0.000443811
0.000100647
1.95593e-05
3.20482e-06
4.65087e-07
0.00787069
0.00226497
0.000566815
0.000122465
2.25413e-05
3.45701e-06
4.30125e-07
0.0099197
0.0026546
0.000616775
0.000123348
2.09275e-05
2.95388e-06
3.37428e-07
0.0117517
0.00290598
0.000621516
0.000113899
1.76283e-05
2.26443e-06
2.39899e-07
0.000157798
0.000139216
0.00022106
0.000279714
0.000286121
0.000283209
0.000275027
0.000256194
0.000223401
0.000174081
0.000112206
5.5012e-05
2.02316e-05
8.2432e-06
0.000161852
4.65318e-05
2.1008e-05
1.67188e-05
1.8675e-05
2.20259e-05
2.5567e-05
2.78912e-05
2.77636e-05
2.42486e-05
1.68953e-05
8.54698e-06
2.96819e-06
1.84979e-06
0.000373822
0.000100157
2.45729e-05
5.71903e-06
1.76522e-06
1.37362e-06
1.79516e-06
2.32343e-06
2.66408e-06
2.61884e-06
1.97599e-06
1.04224e-06
4.37606e-07
2.30657e-06
0.000942957
0.00025165
5.88638e-05
1.20397e-05
2.14349e-06
3.65238e-07
1.30448e-07
1.49616e-07
1.96126e-07
2.21088e-07
1.85e-07
1.05546e-07
2.12818e-07
4.35221e-06
0.00159189
0.000422964
9.69342e-05
1.91154e-05
3.21279e-06
4.53395e-07
5.5365e-08
1.13234e-08
1.09373e-08
1.40303e-08
1.31973e-08
1.31891e-08
2.72491e-07
6.57268e-06
0.00219404
0.000551965
0.000119794
2.23069e-05
3.5244e-06
4.6396e-07
4.98364e-08
4.44018e-09
7.09633e-10
7.05498e-10
7.54044e-10
5.66324e-09
3.10805e-07
7.89248e-06
0.0027309
0.000634448
0.000127463
2.19171e-05
3.19143e-06
3.87596e-07
3.84161e-08
3.05497e-09
2.12894e-10
4.34118e-11
4.20513e-11
3.11075e-09
2.57714e-07
7.2073e-06
0.00319385
0.00068288
0.000126305
1.99515e-05
2.65785e-06
2.95535e-07
2.73285e-08
2.39935e-09
3.81614e-10
1.27663e-10
5.05115e-11
1.57976e-09
1.57182e-07
4.71067e-06
0.00348969
0.000687075
0.000116767
1.69535e-05
2.07721e-06
2.19684e-07
2.65224e-08
7.97456e-09
4.21528e-09
1.98011e-09
7.69396e-10
1.2526e-09
9.12782e-08
2.70762e-06
0.00351533
0.000644523
0.000101461
1.3602e-05
1.599e-06
2.46967e-07
1.15064e-07
8.27077e-08
5.31639e-08
2.74728e-08
1.16277e-08
5.04744e-09
5.37155e-08
1.37236e-06
0.00312143
0.000537537
7.92718e-05
1.02271e-05
1.74373e-06
1.05063e-06
9.95839e-07
8.23647e-07
5.67939e-07
3.19271e-07
1.47945e-07
5.94018e-08
4.83756e-08
6.05623e-07
0.00238826
0.000397959
5.78947e-05
9.80336e-06
6.06726e-06
7.37404e-06
7.87441e-06
6.93535e-06
5.09999e-06
3.10713e-06
1.5746e-06
6.90485e-07
2.76867e-07
3.22067e-07
0.00152576
0.000256508
4.45727e-05
2.33542e-05
3.42397e-05
4.71603e-05
5.29864e-05
4.93342e-05
3.86114e-05
2.53249e-05
1.39839e-05
6.69107e-06
2.79604e-06
1.29261e-06
0.00103032
0.000198443
7.44365e-05
0.000105415
0.000181972
0.000259693
0.000304306
0.000298843
0.000248983
0.000175339
0.00010507
5.43684e-05
2.42291e-05
1.05773e-05
0.00611896
0.0224722
0.0691031
0.177885
0.395284
0.760315
0.000893175
0.00385236
0.0142
0.0440136
0.118059
0.275457
0.00135095
0.00745565
0.0318348
0.106408
0.2879
0.637842
0.00248981
0.0149438
0.0646177
0.209298
0.534829
1.10444
0.00335088
0.0214297
0.0938656
0.298579
0.734872
1.45441
0.00341336
0.0231321
0.10389
0.331417
0.804624
1.56242
0.00287808
0.0198896
0.0929928
0.302784
0.739166
1.43657
0.00237769
0.015336
0.0709275
0.235296
0.586837
1.16218
0.00189715
0.0113335
0.0509974
0.169679
0.42898
0.86526
0.00143599
0.00784447
0.0338801
0.112047
0.286073
0.588223
0.000986885
0.00488583
0.0201612
0.0659087
0.16885
0.350375
0.000554653
0.0024718
0.00974667
0.031393
0.0809856
0.170483
0.000243756
0.000987109
0.00376046
0.0119733
0.0317051
0.0676231
8.25297e-05
0.000309047
0.00115168
0.00356561
0.00977745
0.021479
2.26253e-05
8.30271e-05
0.000297502
0.000942361
0.00298472
0.0080564
1.95455e-05
7.29123e-05
0.000300951
0.00128514
0.00521795
0.0191532
1.41278e-05
0.000111805
0.000756017
0.00417892
0.0187202
0.0686168
3.31808e-05
0.000314675
0.00225519
0.0124188
0.0531027
0.18011
6.53035e-05
0.000664519
0.00488881
0.0267261
0.110022
0.345388
9.9356e-05
0.0010578
0.00792467
0.0430644
0.169166
0.492204
0.000121302
0.00133598
0.0100454
0.0530834
0.198595
0.543957
0.000115298
0.00130129
0.00985847
0.0510379
0.18537
0.493266
7.99903e-05
0.000913831
0.00699068
0.0369843
0.136754
0.37314
4.76874e-05
0.000541907
0.00414238
0.0222829
0.0853445
0.239371
2.32374e-05
0.000253592
0.00192382
0.0104271
0.0414268
0.121471
9.11758e-06
9.44662e-05
0.000688045
0.00370186
0.0153362
0.0469409
3.05717e-06
2.9375e-05
0.000203953
0.00108994
0.00466519
0.0149301
1.96224e-06
1.2493e-05
7.44198e-05
0.000350784
0.00139877
0.00453348
9.88248e-06
4.19461e-05
0.000177508
0.000679506
0.00233028
0.00720676
7.67337e-05
0.000298527
0.00109882
0.00373633
0.0115829
0.0327132
0.000173116
0.000783072
0.00320437
0.0116266
0.0371701
0.10457
0.000367694
0.0018088
0.00778311
0.0287834
0.0910976
0.246448
0.000665078
0.00339591
0.0148489
0.0547591
0.16904
0.434044
0.00103269
0.00529797
0.0230211
0.0833318
0.246304
0.590602
0.00137254
0.00690909
0.029185
0.100854
0.281646
0.638698
0.00154975
0.00748706
0.0301951
0.0995898
0.266866
0.585955
0.00149925
0.00685838
0.0262488
0.083179
0.216865
0.469152
0.0012343
0.00527746
0.0190031
0.057815
0.147808
0.315663
0.000850287
0.00336193
0.011247
0.0321356
0.078549
0.164565
0.000488193
0.00178618
0.00557456
0.0150095
0.0351098
0.0707978
0.000269379
0.000917324
0.00268288
0.00681056
0.0150869
0.0292026
0.000299643
0.000970137
0.00281718
0.00733477
0.0172945
0.0375696
0.0010916
0.00351154
0.0102357
0.0266344
0.0623506
0.132288
0.00984698
0.0246389
0.0561181
0.118167
0.225784
0.365807
0.00407169
0.0101311
0.0238007
0.0496615
0.097223
0.160794
0.00206382
0.00527381
0.0127163
0.0287134
0.0609164
0.119394
0.00173268
0.00581731
0.0187717
0.0541841
0.136496
0.296735
0.00525096
0.0151281
0.0393881
0.0917533
0.195392
0.381069
0.00813717
0.0270421
0.0781647
0.19466
0.422426
0.799716
0.012459
0.0446837
0.133927
0.333909
0.70649
1.28308
0.01557
0.0579237
0.175526
0.434533
0.901968
1.60012
0.0164534
0.0619263
0.188214
0.463903
0.951509
1.6669
0.0152353
0.057058
0.173247
0.426319
0.8715
1.52475
0.0128221
0.0466036
0.140192
0.345964
0.712791
1.25624
0.0100745
0.0347248
0.102089
0.25193
0.526804
0.949052
0.00748544
0.0240563
0.0682518
0.170683
0.365039
0.667614
0.00518265
0.0155059
0.0422386
0.106091
0.229243
0.415571
0.00315502
0.00889558
0.0229084
0.0542571
0.116414
0.209665
0.0013976
0.00369125
0.00926115
0.0208933
0.0457902
0.0838251
0.000623978
0.00166576
0.00415837
0.00956073
0.0207112
0.041446
0.000381677
0.00120682
0.00386963
0.0119392
0.0341126
0.0877671
0.56762
1.4902
2.91036
4.67815
6.66504
1.19476
2.70818
4.78925
7.11207
9.28679
1.93757
3.84189
6.29624
8.82222
10.5075
2.44777
4.54438
7.26663
10.1223
11.1955
2.59844
4.78867
7.81765
10.9285
11.1569
2.40683
4.53651
7.73758
10.6419
10.2615
1.97474
3.83958
6.74674
9.16031
8.94035
1.49941
2.79193
5.03905
7.30418
7.73191
6.13629
1.04117
1.79517
3.12895
5.14524
6.49707
5.66814
0.629904
1.03318
1.64947
2.9898
5.00832
4.96735
0.317557
0.513644
0.749413
1.29945
3.11185
4.09515
3.87791
0.126108
0.199445
0.290404
0.441662
1.1983
2.73537
3.61912
2.95002
0.0406709
0.0716434
0.132053
0.233294
0.407099
1.00803
2.39251
5.97746
0.0208378
0.079981
0.242078
0.540325
0.938397
1.38177
1.02307
2.15684
0.0622093
0.267738
0.758764
1.57706
2.60294
3.78805
4.90684
9.20643
0.206324
0.737984
1.79577
3.33942
5.10975
7.27445
12.5909
29.6976
0.487103
1.45977
3.10153
5.2107
7.27374
9.15245
13.5113
43.502
0.835302
2.15295
4.13041
6.45342
8.43904
9.34085
9.94125
31.6287
1.09385
2.54584
4.64961
7.2019
9.274
9.36069
8.93198
14.8366
1.15065
2.56771
4.71742
7.57175
9.75033
9.07627
7.98299
12.2632
1.02585
2.28695
4.39801
7.46176
9.62477
8.56794
7.11548
10.2354
0.788241
1.79838
3.71485
6.70981
8.87835
8.0232
6.88713
7.70529
0.522768
1.21793
2.55492
5.10544
7.37889
7.09916
0.278729
0.658095
1.38596
2.98201
5.32987
5.86072
0.11467
0.277297
0.562521
1.23368
2.88127
4.353
0.0377664
0.0951119
0.189147
0.348935
0.918281
2.3986
0.0115564
0.0374159
0.0964439
0.196521
0.348277
0.759949
0.0202425
0.0835681
0.24704
0.543012
0.939794
0.0837746
0.30438
0.797722
1.5996
2.60208
0.257491
0.803546
1.8426
3.32994
5.02914
0.566921
1.52853
3.10193
5.0848
7.0085
0.921526
2.18598
4.02662
6.1504
7.91933
1.16508
2.5132
4.43002
6.72574
8.45917
1.20595
2.49351
4.4328
6.92322
8.6488
1.07376
2.20939
4.07336
6.63744
8.34867
0.843429
1.74377
3.37202
5.84537
7.59747
0.550582
1.1551
2.31567
4.4164
6.31184
0.28304
0.616517
1.22797
2.61618
4.57337
0.11579
0.263401
0.520507
1.12914
2.63149
0.04952
0.124221
0.264575
0.513698
1.22757
0.0765031
0.223252
0.493199
0.870716
1.35903
0.256073
0.683599
1.39798
2.34078
3.421
0.683471
1.61193
3.0077
4.7393
6.66421
1.34796
2.82403
4.82113
7.02681
9.08447
2.07102
3.8827
6.16777
8.50186
10.0441
2.5211
4.46516
6.96564
9.56685
10.4873
2.60427
4.62116
7.37907
10.1912
10.3022
2.38872
4.33399
7.19252
9.89963
9.44425
1.97381
3.6579
6.2457
8.64215
8.37011
1.49078
2.68235
4.69762
6.98058
7.39996
1.02723
1.71393
2.92223
5.01347
6.26503
0.608906
0.958611
1.53194
2.98317
4.89387
0.298448
0.449975
0.677738
1.39977
3.26189
0.12017
0.20652
0.351412
0.668391
1.72514
0.0795479
0.225656
0.505115
0.902538
1.4697
0.201108
0.61275
1.32722
2.26821
3.36115
1.21758e-05
6.93901e-06
1.08135e-05
1.52986e-05
1.93356e-05
2.26763e-05
2.51333e-05
2.58808e-05
2.41978e-05
1.97927e-05
1.3216e-05
6.70084e-06
2.53089e-06
8.75772e-07
2.18841e-05
5.22651e-06
1.50108e-06
9.23277e-07
1.15142e-06
1.61494e-06
2.15585e-06
2.59695e-06
2.76593e-06
2.53194e-06
1.82749e-06
9.58871e-07
3.46055e-07
1.30828e-07
5.81793e-05
1.38877e-05
3.00472e-06
6.01503e-07
1.45059e-07
1.00552e-07
1.43661e-07
2.02265e-07
2.46654e-07
2.52699e-07
1.96861e-07
1.07291e-07
4.0085e-08
7.74453e-08
0.000138336
3.33781e-05
7.05266e-06
1.30649e-06
2.11288e-07
3.22108e-08
1.03557e-08
1.2376e-08
1.71046e-08
1.98961e-08
1.70077e-08
9.77651e-09
8.10074e-09
1.51544e-07
0.000232366
5.54609e-05
1.14631e-05
2.04899e-06
3.13986e-07
4.07469e-08
4.62277e-09
9.15878e-10
9.2294e-10
1.20651e-09
1.13854e-09
7.92547e-10
8.05917e-09
2.59468e-07
0.000313303
7.05874e-05
1.37994e-05
2.32767e-06
3.3538e-07
4.06872e-08
4.09091e-09
3.53056e-10
6.09157e-11
6.14924e-11
6.38317e-11
1.32358e-10
9.60229e-09
3.45282e-07
0.000373634
7.74713e-05
1.40016e-05
2.18244e-06
2.90545e-07
3.26283e-08
3.0374e-09
2.34502e-10
1.90301e-11
6.6006e-12
6.32532e-12
6.44234e-11
8.14821e-09
3.36392e-07
0.000411279
7.81565e-05
1.29653e-05
1.85602e-06
2.26459e-07
2.33467e-08
2.02269e-09
1.63244e-10
2.28562e-11
8.8585e-12
5.52831e-12
4.53272e-11
5.34419e-09
2.34008e-07
0.000416761
7.26765e-05
1.1056e-05
1.45423e-06
1.63324e-07
1.59394e-08
1.68937e-09
4.17943e-10
2.01409e-10
9.00775e-11
3.50696e-11
5.39596e-11
3.63979e-09
1.41739e-07
0.000382945
6.20291e-05
8.73793e-06
1.06261e-06
1.14204e-07
1.59278e-08
6.77764e-09
4.56943e-09
2.7609e-09
1.32308e-09
5.1918e-10
2.22165e-10
2.90911e-09
8.16168e-08
0.000304618
4.63154e-05
6.11381e-06
7.18381e-07
1.1747e-07
7.18882e-08
6.58163e-08
5.12413e-08
3.30087e-08
1.70381e-08
7.20813e-09
2.62397e-09
2.74201e-09
4.40646e-08
0.00020711
3.05757e-05
4.00789e-06
6.74061e-07
4.77593e-07
5.82834e-07
5.95408e-07
4.91201e-07
3.35226e-07
1.86145e-07
8.52178e-08
3.33514e-08
1.22717e-08
2.22515e-08
0.000116766
1.76109e-05
3.01548e-06
2.03503e-06
3.19273e-06
4.31148e-06
4.61654e-06
4.01162e-06
2.89499e-06
1.71879e-06
8.49326e-07
3.59763e-07
1.32617e-07
5.88474e-08
7.05861e-05
1.32091e-05
6.61161e-06
1.1271e-05
1.97463e-05
2.75543e-05
3.07264e-05
2.80733e-05
2.14282e-05
1.35741e-05
7.21905e-06
3.28318e-06
1.28298e-06
5.03649e-07
1.27479e-06
4.2352e-07
5.27194e-07
9.34544e-07
1.49638e-06
2.12583e-06
2.73539e-06
3.15831e-06
3.19916e-06
2.76504e-06
1.89801e-06
1.00044e-06
3.85303e-07
1.22349e-07
3.35954e-06
7.10754e-07
1.58061e-07
6.98434e-08
9.13595e-08
1.50276e-07
2.2918e-07
3.05311e-07
3.49386e-07
3.36185e-07
2.48859e-07
1.35468e-07
5.05524e-08
1.56118e-08
9.16974e-06
1.98928e-06
3.90243e-07
7.02325e-08
1.4522e-08
9.53168e-09
1.50578e-08
2.31449e-08
3.01442e-08
3.22434e-08
2.55989e-08
1.43999e-08
5.35271e-09
3.40414e-09
2.10427e-05
4.64751e-06
9.0122e-07
1.53919e-07
2.31077e-08
3.29577e-09
1.06938e-09
1.39737e-09
2.04635e-09
2.45739e-09
2.11992e-09
1.24514e-09
5.77944e-10
5.13298e-09
3.50045e-05
7.64517e-06
1.45267e-06
2.39925e-07
3.42763e-08
4.19841e-09
4.61488e-10
1.01083e-10
1.1232e-10
1.49207e-10
1.40672e-10
8.99401e-11
2.60425e-10
1.00707e-08
4.54117e-05
9.38462e-06
1.69248e-06
2.64762e-07
3.5705e-08
4.10862e-09
4.00829e-10
3.73502e-11
9.94184e-12
1.04608e-11
1.06278e-11
1.04286e-11
3.04259e-10
1.52611e-08
5.06639e-05
9.68228e-06
1.62099e-06
2.35865e-07
2.95778e-08
3.17018e-09
2.88588e-10
2.49565e-11
5.04338e-12
3.91618e-12
3.89005e-12
5.62816e-12
3.0813e-10
1.64751e-08
5.08326e-05
8.94739e-06
1.38087e-06
1.85588e-07
2.14673e-08
2.12645e-09
1.81434e-10
1.67726e-11
4.79948e-12
3.84382e-12
3.68699e-12
5.5221e-12
2.59219e-10
1.31819e-08
4.62342e-05
7.49908e-06
1.06741e-06
1.32736e-07
1.42288e-08
1.33212e-09
1.28784e-10
2.68895e-11
1.31031e-11
7.46079e-12
4.92112e-12
6.8335e-12
2.34694e-10
9.78953e-09
3.76599e-05
5.69506e-06
7.54597e-07
8.73015e-08
8.94857e-09
1.12333e-09
4.0826e-10
2.54732e-10
1.45244e-10
6.66751e-11
2.63459e-11
1.46876e-11
2.42881e-10
7.02849e-09
2.63096e-05
3.74822e-06
4.67492e-07
5.25286e-08
8.27884e-09
4.88472e-09
4.25128e-09
3.10476e-09
1.85894e-09
8.83939e-10
3.43008e-10
1.1721e-10
2.20668e-10
4.44906e-09
1.58003e-05
2.19273e-06
2.73192e-07
4.75765e-08
3.72376e-08
4.4587e-08
4.30819e-08
3.30311e-08
2.07432e-08
1.04706e-08
4.32552e-09
1.51977e-09
5.55856e-10
2.12865e-09
7.91504e-06
1.13283e-06
2.05898e-07
1.78439e-07
2.89088e-07
3.7555e-07
3.76902e-07
3.01614e-07
1.98405e-07
1.06054e-07
4.67906e-08
1.76074e-08
5.77311e-09
2.8073e-09
4.3391e-06
8.57629e-07
6.08467e-07
1.18169e-06
2.06203e-06
2.74465e-06
2.84276e-06
2.36983e-06
1.63194e-06
9.21833e-07
4.33209e-07
1.73652e-07
5.99419e-08
2.18899e-08
1.40827e-07
3.2977e-08
2.78313e-08
5.55589e-08
1.07751e-07
1.80848e-07
2.66183e-07
3.41859e-07
3.74931e-07
3.42811e-07
2.42699e-07
1.32121e-07
5.30183e-08
1.66495e-08
4.28386e-07
8.26044e-08
1.57587e-08
5.24892e-09
6.86474e-09
1.29353e-08
2.21798e-08
3.2438e-08
3.98437e-08
4.03134e-08
3.06502e-08
1.7155e-08
6.74638e-09
2.03064e-09
1.17035e-06
2.33715e-07
4.21336e-08
6.94755e-09
1.28961e-09
8.39131e-10
1.46337e-09
2.44017e-09
3.38358e-09
3.77953e-09
3.06663e-09
1.76509e-09
6.90165e-10
2.45594e-10
2.62249e-06
5.33357e-07
9.56328e-08
1.5181e-08
2.13635e-09
2.92578e-10
1.04095e-10
1.50174e-10
2.30784e-10
2.85692e-10
2.50112e-10
1.50437e-10
6.29491e-11
1.52251e-10
4.28063e-06
8.62127e-07
1.51871e-07
2.33838e-08
3.14339e-09
3.6872e-10
4.24161e-11
1.3111e-11
1.56263e-11
2.01523e-11
1.92372e-11
1.33081e-11
1.29458e-11
3.09541e-10
5.30517e-06
1.01552e-06
1.70595e-07
2.50026e-08
3.18758e-09
3.52995e-10
3.62515e-11
6.32847e-12
4.1856e-12
4.30847e-12
4.323e-12
4.10389e-12
1.27933e-11
5.41799e-10
5.51612e-06
9.83305e-07
1.54265e-07
2.11766e-08
2.52712e-09
2.62982e-10
2.62271e-11
5.21288e-12
3.65196e-12
3.56608e-12
3.56371e-12
3.61767e-12
1.50271e-11
7.26719e-10
5.04554e-06
8.34104e-07
1.2136e-07
1.54903e-08
1.71779e-09
1.67415e-10
1.69192e-11
4.4872e-12
3.60571e-12
3.54437e-12
3.53691e-12
3.63848e-12
1.6557e-11
7.2816e-10
4.14016e-06
6.35016e-07
8.58229e-08
1.0209e-08
1.05735e-09
9.86423e-11
1.17192e-11
4.67342e-12
3.91023e-12
3.67563e-12
3.58011e-12
3.76308e-12
1.98981e-11
7.00029e-10
3.01715e-06
4.34154e-07
5.49712e-08
6.12463e-09
6.07111e-10
7.1214e-11
2.33383e-11
1.46467e-11
9.39218e-12
5.98643e-12
4.35995e-12
4.1374e-12
2.43213e-11
6.36445e-10
1.87781e-06
2.56332e-07
3.07505e-08
3.34137e-09
4.97584e-10
2.70643e-10
2.2199e-10
1.53304e-10
8.70304e-11
4.0379e-11
1.66332e-11
7.792e-12
2.26238e-11
4.59054e-10
1.01389e-06
1.35415e-07
1.63132e-08
2.89246e-09
2.34902e-09
2.71288e-09
2.4683e-09
1.76439e-09
1.02481e-09
4.77701e-10
1.82362e-10
6.07072e-11
2.87198e-11
2.22216e-10
4.60857e-07
6.39685e-08
1.25167e-08
1.28728e-08
2.08341e-08
2.57807e-08
2.41422e-08
1.78381e-08
1.07428e-08
5.23552e-09
2.09253e-09
7.13198e-10
2.15789e-10
1.49966e-10
2.34436e-07
5.06751e-08
4.821e-08
9.98121e-08
1.70073e-07
2.13653e-07
2.04484e-07
1.55878e-07
9.73087e-08
4.96184e-08
2.09043e-08
7.51219e-09
2.3355e-09
8.42145e-10
1.38821e-08
2.67694e-09
1.47509e-09
3.06609e-09
6.95225e-09
1.34801e-08
2.23805e-08
3.16881e-08
3.74707e-08
3.61048e-08
2.63329e-08
1.46524e-08
6.06488e-09
1.97495e-09
4.45618e-08
7.97606e-09
1.37281e-09
3.67348e-10
4.64197e-10
9.80281e-10
1.86331e-09
2.96771e-09
3.8967e-09
4.13319e-09
3.22469e-09
1.84175e-09
7.51823e-10
2.37358e-10
1.21711e-07
2.26356e-08
3.7983e-09
5.84352e-10
1.01973e-10
6.77289e-11
1.26685e-10
2.25281e-10
3.29566e-10
3.82983e-10
3.18036e-10
1.87283e-10
7.76897e-11
2.68879e-11
2.67507e-07
5.06112e-08
8.47179e-09
1.2632e-09
1.70405e-10
2.52025e-11
1.17819e-11
1.6883e-11
2.53018e-11
3.14422e-11
2.82761e-11
1.84309e-11
9.55565e-12
8.42669e-12
4.2651e-07
7.99929e-08
1.31799e-08
1.91097e-09
2.46146e-10
3.04904e-11
6.32944e-12
4.32483e-12
4.66147e-12
5.13607e-12
5.05666e-12
4.4707e-12
4.02891e-12
1.20935e-11
5.03785e-07
9.0211e-08
1.4235e-08
1.97332e-09
2.42276e-10
2.8672e-11
5.79249e-12
3.69943e-12
3.55929e-12
3.57644e-12
3.57802e-12
3.55244e-12
3.78301e-12
2.13025e-11
4.8825e-07
8.19588e-08
1.21567e-08
1.58901e-09
1.84468e-10
2.14734e-11
5.03668e-12
3.61387e-12
3.50972e-12
3.50435e-12
3.50424e-12
3.50576e-12
3.92581e-12
3.26133e-11
4.08392e-07
6.39903e-08
8.86256e-09
1.08548e-09
1.1899e-10
1.4238e-11
4.36274e-12
3.56247e-12
3.50655e-12
3.50291e-12
3.50248e-12
3.50838e-12
4.17206e-12
4.13317e-11
3.04018e-07
4.45265e-08
5.77216e-09
6.64661e-10
6.9761e-11
9.32665e-12
3.9739e-12
3.55411e-12
3.51638e-12
3.50811e-12
3.50512e-12
3.51964e-12
4.63812e-12
5.11436e-11
1.99853e-07
2.76594e-08
3.38308e-09
3.68486e-10
3.8399e-11
7.03921e-12
4.31009e-12
3.90231e-12
3.70122e-12
3.58293e-12
3.53008e-12
3.54163e-12
5.18582e-12
5.65578e-11
1.12319e-07
1.48645e-08
1.73554e-09
1.86119e-10
2.84013e-11
1.53019e-11
1.25033e-11
9.3112e-12
6.54131e-12
4.76265e-12
3.92249e-12
3.65412e-12
5.12924e-12
4.58272e-11
5.52955e-08
7.19312e-09
8.47633e-10
1.51379e-10
1.22223e-10
1.34688e-10
1.16017e-10
7.87173e-11
4.40836e-11
2.10141e-11
9.59982e-12
5.31317e-12
4.83833e-12
2.45632e-11
2.31859e-08
3.15213e-09
6.59323e-10
7.52311e-10
1.1961e-09
1.4052e-09
1.23086e-09
8.44942e-10
4.70804e-10
2.13258e-10
8.01898e-11
2.73132e-11
1.02197e-11
1.26306e-11
1.11366e-08
2.65511e-09
3.16011e-09
6.71481e-09
1.1067e-08
1.30873e-08
1.16023e-08
8.13254e-09
4.64084e-09
2.16225e-09
8.29591e-10
2.72648e-10
7.9772e-11
3.28766e-11
1.14767e-09
1.99135e-10
7.80584e-11
1.55685e-10
3.97168e-10
8.6988e-10
1.60534e-09
2.47957e-09
3.13898e-09
3.16982e-09
2.37556e-09
1.34327e-09
5.68128e-10
1.93275e-10
3.77773e-09
6.34619e-10
1.03107e-10
2.56777e-11
3.04303e-11
6.69291e-11
1.36145e-10
2.32011e-10
3.22649e-10
3.56779e-10
2.85661e-10
1.668e-10
7.13921e-11
2.54287e-11
1.03521e-08
1.8025e-09
2.85294e-10
4.37746e-11
9.81822e-12
7.70654e-12
1.23221e-11
2.05173e-11
2.98767e-11
3.53699e-11
3.04495e-11
1.9428e-11
1.00637e-11
5.56972e-12
2.23685e-08
3.95844e-09
6.23523e-10
9.022e-11
1.43394e-11
4.84393e-12
4.06384e-12
4.51424e-12
5.23839e-12
5.80074e-12
5.56827e-12
4.75192e-12
4.00852e-12
3.71676e-12
3.47387e-08
6.10148e-09
9.46461e-10
1.32276e-10
1.90265e-11
5.13863e-12
3.65682e-12
3.54601e-12
3.57933e-12
3.62089e-12
3.61573e-12
3.56778e-12
3.52389e-12
3.71402e-12
3.90352e-08
6.57576e-09
9.81117e-10
1.31713e-10
1.83023e-11
4.98643e-12
3.6192e-12
3.49858e-12
3.49147e-12
3.49343e-12
3.49384e-12
3.49194e-12
3.49691e-12
4.02859e-12
3.52993e-08
5.60801e-09
7.92147e-10
1.01542e-10
1.42195e-11
4.51683e-12
3.57354e-12
3.49417e-12
3.4886e-12
3.4885e-12
3.48868e-12
3.4889e-12
3.50422e-12
4.5777e-12
2.71271e-08
4.04787e-09
5.38468e-10
6.61595e-11
9.94612e-12
4.07238e-12
3.535e-12
3.49243e-12
3.48957e-12
3.4895e-12
3.48958e-12
3.49003e-12
3.5235e-12
5.35523e-12
1.84392e-08
2.59171e-09
3.26131e-10
3.91862e-11
6.96378e-12
3.78799e-12
3.51356e-12
3.49268e-12
3.49109e-12
3.49091e-12
3.49088e-12
3.4919e-12
3.56298e-12
6.49304e-12
1.10316e-08
1.47668e-09
1.77791e-10
2.17632e-11
5.1879e-12
3.6495e-12
3.51964e-12
3.50366e-12
3.49748e-12
3.49423e-12
3.49285e-12
3.49448e-12
3.61232e-12
7.4172e-12
5.66698e-09
7.32061e-10
8.61948e-11
1.19568e-11
4.54481e-12
3.91554e-12
3.79152e-12
3.67499e-12
3.58304e-12
3.52858e-12
3.50454e-12
3.49894e-12
3.61694e-12
6.9018e-12
2.57445e-09
3.29724e-10
4.08377e-11
9.78678e-12
8.31986e-12
8.57776e-12
7.61541e-12
6.0835e-12
4.80243e-12
4.02298e-12
3.6662e-12
3.54324e-12
3.57672e-12
5.26936e-12
1.00937e-09
1.37105e-10
3.24278e-11
3.85358e-11
5.79792e-11
6.43189e-11
5.34567e-11
3.5429e-11
1.99656e-11
1.03592e-11
5.8151e-12
4.16095e-12
3.68491e-12
4.12612e-12
4.63851e-10
1.23258e-10
1.72154e-10
3.64635e-10
5.76555e-10
6.41212e-10
5.2877e-10
3.4366e-10
1.82136e-10
8.00102e-11
3.03536e-11
1.15146e-11
5.59297e-12
4.47998e-12
8.28814e-11
1.59298e-11
6.9985e-12
1.02034e-11
2.29345e-11
5.13441e-11
1.00875e-10
1.66409e-10
2.23092e-10
2.35027e-10
1.81255e-10
1.05001e-10
4.67562e-11
1.83462e-11
2.69564e-10
4.52414e-11
9.59853e-12
4.65549e-12
4.84161e-12
7.00737e-12
1.15073e-11
1.83158e-11
2.54049e-11
2.87301e-11
2.41015e-11
1.55449e-11
8.56228e-12
5.15599e-12
7.35646e-10
1.22846e-10
2.10068e-11
5.82594e-12
3.82163e-12
3.71368e-12
4.01407e-12
4.57745e-12
5.2666e-12
5.71675e-12
5.40852e-12
4.63051e-12
3.96043e-12
3.63392e-12
1.55794e-09
2.6136e-10
4.14764e-11
8.48715e-12
4.07038e-12
3.54927e-12
3.51203e-12
3.54422e-12
3.59585e-12
3.63847e-12
3.62476e-12
3.56832e-12
3.51651e-12
3.4927e-12
2.3451e-09
3.89712e-10
5.97222e-11
1.07404e-11
4.31017e-12
3.56301e-12
3.48719e-12
3.48229e-12
3.48493e-12
3.48808e-12
3.48802e-12
3.48498e-12
3.48211e-12
3.48586e-12
2.49969e-09
4.00045e-10
5.92535e-11
1.04242e-11
4.24458e-12
3.55373e-12
3.48579e-12
3.48005e-12
3.47982e-12
3.48009e-12
3.48029e-12
3.48038e-12
3.48066e-12
3.49597e-12
2.10938e-09
3.2068e-10
4.59221e-11
8.5154e-12
4.00876e-12
3.52929e-12
3.48437e-12
3.48071e-12
3.4805e-12
3.48059e-12
3.48073e-12
3.48091e-12
3.48166e-12
3.52018e-12
1.49454e-09
2.15574e-10
3.03259e-11
6.4992e-12
3.78144e-12
3.50781e-12
3.48352e-12
3.48163e-12
3.48152e-12
3.48159e-12
3.48168e-12
3.48184e-12
3.48359e-12
3.56899e-12
9.33009e-10
1.28767e-10
1.85184e-11
5.08752e-12
3.63412e-12
3.49532e-12
3.48358e-12
3.48269e-12
3.48263e-12
3.48268e-12
3.48273e-12
3.48289e-12
3.48702e-12
3.65374e-12
5.12691e-10
6.91676e-11
1.10047e-11
4.24792e-12
3.55278e-12
3.48987e-12
3.48466e-12
3.48409e-12
3.48392e-12
3.48389e-12
3.48388e-12
3.48406e-12
3.4915e-12
3.73699e-12
2.4439e-10
3.35731e-11
6.80512e-12
3.81426e-12
3.52256e-12
3.49764e-12
3.49317e-12
3.4897e-12
3.4872e-12
3.48586e-12
3.48529e-12
3.48529e-12
3.49332e-12
3.72147e-12
1.05165e-10
1.60408e-11
4.88196e-12
3.70885e-12
3.6464e-12
3.64674e-12
3.60941e-12
3.55914e-12
3.52087e-12
3.49943e-12
3.49029e-12
3.4874e-12
3.49146e-12
3.61515e-12
4.09353e-11
8.32423e-12
4.5517e-12
4.82122e-12
5.50657e-12
5.62941e-12
5.14191e-12
4.47611e-12
3.96313e-12
3.67235e-12
3.54566e-12
3.50301e-12
3.49266e-12
3.52992e-12
1.99789e-11
8.09148e-12
1.08497e-11
1.92439e-11
2.75178e-11
2.86489e-11
2.2789e-11
1.507e-11
9.11332e-12
5.71555e-12
4.21074e-12
3.6877e-12
3.53715e-12
3.52195e-12
8.08898e-12
4.14693e-12
3.62299e-12
3.73552e-12
4.31382e-12
5.75881e-12
8.53902e-12
1.25717e-11
1.64558e-11
1.77234e-11
1.46659e-11
9.91808e-12
6.23868e-12
4.43471e-12
1.91368e-11
5.78925e-12
3.78971e-12
3.52626e-12
3.53215e-12
3.6414e-12
3.8875e-12
4.28993e-12
4.74519e-12
4.99399e-12
4.74166e-12
4.2214e-12
3.79057e-12
3.5788e-12
4.65789e-11
1.00875e-11
4.38632e-12
3.58774e-12
3.48846e-12
3.48389e-12
3.50028e-12
3.53268e-12
3.57494e-12
3.60515e-12
3.58919e-12
3.54289e-12
3.50257e-12
3.4829e-12
9.35066e-11
1.75284e-11
5.42421e-12
3.71604e-12
3.50042e-12
3.47633e-12
3.47481e-12
3.47665e-12
3.47973e-12
3.48245e-12
3.48189e-12
3.47872e-12
3.47587e-12
3.47465e-12
1.34753e-10
2.38768e-11
6.27778e-12
3.81661e-12
3.51117e-12
3.47743e-12
3.4741e-12
3.47386e-12
3.474e-12
3.47422e-12
3.47431e-12
3.47427e-12
3.47431e-12
3.47461e-12
1.36195e-10
2.34204e-11
6.13229e-12
3.7892e-12
3.50768e-12
3.47761e-12
3.47468e-12
3.47438e-12
3.47434e-12
3.47437e-12
3.47445e-12
3.47458e-12
3.47478e-12
3.47546e-12
1.08105e-10
1.84596e-11
5.38472e-12
3.69179e-12
3.49716e-12
3.47722e-12
3.47532e-12
3.4751e-12
3.47505e-12
3.47507e-12
3.47512e-12
3.47524e-12
3.47543e-12
3.47702e-12
7.20313e-11
1.27976e-11
4.60644e-12
3.59829e-12
3.4879e-12
3.47708e-12
3.47605e-12
3.47589e-12
3.47584e-12
3.47585e-12
3.47589e-12
3.47599e-12
3.4762e-12
3.48013e-12
4.28884e-11
8.58259e-12
4.06735e-12
3.53797e-12
3.48264e-12
3.4774e-12
3.47686e-12
3.47674e-12
3.47668e-12
3.47668e-12
3.47671e-12
3.4768e-12
3.47709e-12
3.48571e-12
2.3375e-11
5.95603e-12
3.75267e-12
3.50515e-12
3.48038e-12
3.47806e-12
3.47776e-12
3.47765e-12
3.47759e-12
3.47758e-12
3.47759e-12
3.47766e-12
3.47813e-12
3.492e-12
1.22064e-11
4.53557e-12
3.59236e-12
3.48998e-12
3.48012e-12
3.47915e-12
3.47889e-12
3.47871e-12
3.47859e-12
3.47855e-12
3.47853e-12
3.47857e-12
3.47907e-12
3.49277e-12
6.92437e-12
3.89278e-12
3.52467e-12
3.48679e-12
3.48443e-12
3.48407e-12
3.48279e-12
3.48134e-12
3.48033e-12
3.47981e-12
3.47959e-12
3.47954e-12
3.47984e-12
3.48757e-12
4.68217e-12
3.63134e-12
3.51431e-12
3.52349e-12
3.54336e-12
3.54379e-12
3.52658e-12
3.50634e-12
3.49217e-12
3.48478e-12
3.48178e-12
3.48083e-12
3.48067e-12
3.48304e-12
3.99585e-12
3.63363e-12
3.75036e-12
4.05414e-12
4.32042e-12
4.30872e-12
4.07411e-12
3.81203e-12
3.63058e-12
3.53638e-12
3.49809e-12
3.4858e-12
3.48246e-12
3.48263e-12
3.69692e-12
3.49999e-12
3.47433e-12
3.47757e-12
3.50031e-12
3.56319e-12
3.69509e-12
3.90241e-12
4.1208e-12
4.21232e-12
4.06538e-12
3.81436e-12
3.61711e-12
3.52003e-12
4.25173e-12
3.57862e-12
3.48309e-12
3.47101e-12
3.47102e-12
3.47562e-12
3.48695e-12
3.5069e-12
3.53119e-12
3.54615e-12
3.53456e-12
3.50768e-12
3.48511e-12
3.47397e-12
5.61648e-12
3.78093e-12
3.51009e-12
3.47418e-12
3.46984e-12
3.46955e-12
3.47019e-12
3.47167e-12
3.47378e-12
3.47542e-12
3.47472e-12
3.47238e-12
3.47035e-12
3.46938e-12
7.87924e-12
4.1201e-12
3.55527e-12
3.47992e-12
3.4708e-12
3.46971e-12
3.46953e-12
3.46952e-12
3.4696e-12
3.46971e-12
3.46968e-12
3.46955e-12
3.46946e-12
3.46947e-12
9.68386e-12
4.38338e-12
3.58926e-12
3.48418e-12
3.47169e-12
3.47025e-12
3.46999e-12
3.46988e-12
3.4698e-12
3.46977e-12
3.46976e-12
3.46978e-12
3.46985e-12
3.46996e-12
9.43166e-12
4.32102e-12
3.57865e-12
3.48309e-12
3.47203e-12
3.47076e-12
3.47052e-12
3.4704e-12
3.47031e-12
3.47027e-12
3.47026e-12
3.47029e-12
3.47037e-12
3.47049e-12
7.87518e-12
4.07289e-12
3.54477e-12
3.47946e-12
3.47214e-12
3.47128e-12
3.47108e-12
3.47096e-12
3.47087e-12
3.47082e-12
3.4708e-12
3.47083e-12
3.4709e-12
3.47106e-12
6.15589e-12
3.82196e-12
3.51295e-12
3.47635e-12
3.47235e-12
3.47184e-12
3.47166e-12
3.47155e-12
3.47146e-12
3.47141e-12
3.47139e-12
3.47141e-12
3.47147e-12
3.47171e-12
4.90396e-12
3.65147e-12
3.49281e-12
3.47474e-12
3.47276e-12
3.47244e-12
3.47229e-12
3.47217e-12
3.47208e-12
3.47203e-12
3.47201e-12
3.47202e-12
3.47206e-12
3.47251e-12
4.14352e-12
3.55431e-12
3.48224e-12
3.47425e-12
3.47332e-12
3.4731e-12
3.47295e-12
3.47283e-12
3.47274e-12
3.47269e-12
3.47266e-12
3.47266e-12
3.47269e-12
3.47339e-12
3.74822e-12
3.50655e-12
3.47765e-12
3.47445e-12
3.47399e-12
3.4738e-12
3.47366e-12
3.47354e-12
3.47344e-12
3.47338e-12
3.47334e-12
3.47333e-12
3.47334e-12
3.47404e-12
3.57662e-12
3.48697e-12
3.47628e-12
3.47506e-12
3.47481e-12
3.47464e-12
3.47446e-12
3.4743e-12
3.47418e-12
3.4741e-12
3.47405e-12
3.47401e-12
3.47401e-12
3.47438e-12
3.50956e-12
3.48e-12
3.4767e-12
3.47681e-12
3.47714e-12
3.47691e-12
3.47626e-12
3.47561e-12
3.47518e-12
3.47493e-12
3.47481e-12
3.47474e-12
3.47469e-12
3.47474e-12
3.49088e-12
3.48105e-12
3.48502e-12
3.49438e-12
3.50153e-12
3.4996e-12
3.4917e-12
3.48399e-12
3.47913e-12
3.47677e-12
3.47585e-12
3.47553e-12
3.47539e-12
3.47535e-12
3.4754e-12
3.46681e-12
3.4656e-12
3.46553e-12
3.46616e-12
3.46837e-12
3.47355e-12
3.4824e-12
3.4925e-12
3.49751e-12
3.49142e-12
3.48002e-12
3.47089e-12
3.4664e-12
3.49961e-12
3.4704e-12
3.46633e-12
3.46571e-12
3.46556e-12
3.46558e-12
3.46588e-12
3.46659e-12
3.46755e-12
3.46819e-12
3.46763e-12
3.46636e-12
3.46525e-12
3.46473e-12
3.55785e-12
3.47892e-12
3.46776e-12
3.46622e-12
3.46591e-12
3.46575e-12
3.46563e-12
3.46556e-12
3.46552e-12
3.46549e-12
3.46536e-12
3.46518e-12
3.46501e-12
3.46495e-12
3.65101e-12
3.49248e-12
3.46981e-12
3.46681e-12
3.46633e-12
3.46615e-12
3.466e-12
3.46586e-12
3.46574e-12
3.46564e-12
3.46554e-12
3.46547e-12
3.46539e-12
3.46537e-12
3.71773e-12
3.50205e-12
3.47132e-12
3.46734e-12
3.46675e-12
3.46656e-12
3.4664e-12
3.46627e-12
3.46614e-12
3.46604e-12
3.46594e-12
3.46588e-12
3.46581e-12
3.46578e-12
3.69593e-12
3.49854e-12
3.47116e-12
3.46768e-12
3.46716e-12
3.46697e-12
3.46682e-12
3.46668e-12
3.46656e-12
3.46645e-12
3.46636e-12
3.46629e-12
3.46623e-12
3.46619e-12
3.62668e-12
3.48868e-12
3.47025e-12
3.46794e-12
3.46756e-12
3.46739e-12
3.46724e-12
3.46711e-12
3.46698e-12
3.46688e-12