/*--------------------------------*- C++ -*----------------------------------*\
| =========                 |                                                 |
| \\      /  F ield         | OpenFOAM: The Open Source CFD Toolbox           |
|  \\    /   O peration     | Version:  v2106                                 |
|   \\  /    A nd           | Website:  www.openfoam.com                      |
|    \\/     M anipulation  |                                                 |
\*---------------------------------------------------------------------------*/
FoamFile
{
    version     2.0;
    format      ascii;
    arch        "LSB;label=32;scalar=64";
    class       volScalarField;
    location    "0.00013";
    object      rho;
}
// * * * * * * * * * * * * * * * * * * * * * * * * * * * * * * * * * * * * * //

dimensions      [1 -3 0 0 0 0 0];

internalField   nonuniform List<scalar> 
18109
(
2.67826
2.67387
2.67264
2.671
2.67054
2.6705
2.67114
2.67951
2.67676
2.67519
2.67381
2.67341
2.67339
2.67393
2.67848
2.67728
2.67651
2.67605
2.67592
2.67582
2.67601
2.67834
2.67791
2.67746
2.67719
2.67701
2.67688
2.6769
2.67636
2.67691
2.67715
2.67725
2.67731
2.67737
2.67742
2.67493
2.67614
2.67682
2.67722
2.67748
2.67762
2.67763
2.67312
2.67504
2.67624
2.677
2.67733
2.67754
2.67757
2.67191
2.6743
2.67592
2.67685
2.67734
2.67765
2.67769
2.6827
2.67945
2.67862
2.67771
2.67774
2.67793
2.67876
2.67962
2.6807
2.68154
2.68254
2.68298
2.68405
2.6846
2.6838
2.68181
2.68079
2.68005
2.68013
2.68035
2.68107
2.68163
2.68231
2.68283
2.68304
2.68293
2.6832
2.68249
2.68347
2.68264
2.68231
2.68217
2.68234
2.68249
2.68284
2.68296
2.68313
2.68303
2.68312
2.68271
2.68224
2.68154
2.68385
2.68363
2.6835
2.6835
2.68354
2.6836
2.68373
2.68376
2.68378
2.68353
2.68312
2.68262
2.68169
2.6808
2.68269
2.68331
2.68364
2.68394
2.6841
2.68424
2.68431
2.68427
2.68404
2.68362
2.68304
2.68244
2.68124
2.68005
2.6819
2.68303
2.68371
2.68425
2.68449
2.68462
2.6846
2.68445
2.6841
2.68358
2.68288
2.68215
2.68085
2.67941
2.68063
2.68233
2.6834
2.68415
2.68444
2.6846
2.68456
2.6844
2.68397
2.68339
2.68263
2.68181
2.68057
2.67909
2.67966
2.6817
2.6831
2.68399
2.6844
2.68461
2.68454
2.6843
2.68377
2.68312
2.68234
2.68146
2.6804
2.67903
2.67853
2.68084
2.68257
2.68365
2.68414
2.68437
2.68427
2.68398
2.6834
2.68273
2.682
2.68119
2.68046
2.67942
2.67834
2.68065
2.68245
2.68358
2.68405
2.68429
2.68413
2.68374
2.68311
2.68238
2.68167
2.68094
2.68041
2.67969
2.67852
2.6808
2.68248
2.68362
2.68396
2.68413
2.68389
2.6834
2.68272
2.68201
2.68137
2.68091
2.68071
2.6805
2.67989
2.68187
2.68311
2.68411
2.68426
2.68428
2.68392
2.68332
2.68257
2.68187
2.68122
2.68095
2.68097
2.68102
2.68035
2.68274
2.68373
2.68474
2.68469
2.68444
2.68382
2.68309
2.68227
2.68162
2.68117
2.68111
2.6816
2.68228
2.68378
2.68533
2.68545
2.68612
2.68562
2.6849
2.68398
2.6831
2.68232
2.68178
2.68154
2.68163
2.68223
2.68356
2.67625
2.67956
2.67932
2.67988
2.68029
2.68209
2.68088
2.68318
2.68298
2.68333
2.68332
2.68427
2.67498
2.67438
2.67198
2.67085
2.66985
2.66955
2.67359
2.6707
2.66639
2.66209
2.65771
2.65445
2.6725
2.6677
2.6613
2.65414
2.64646
2.6395
2.67266
2.66664
2.6589
2.64995
2.64034
2.63026
2.6734
2.66699
2.65894
2.64941
2.63907
2.62793
2.67495
2.66927
2.66192
2.65289
2.6427
2.63136
2.67671
2.67228
2.66644
2.65889
2.65013
2.64098
2.67844
2.67512
2.67102
2.66601
2.66038
2.6544
2.68036
2.67844
2.67645
2.67397
2.67152
2.6691
2.68231
2.68163
2.68184
2.68183
2.68248
2.683
2.68309
2.68375
2.68543
2.68732
2.69027
2.69329
2.68498
2.68592
2.68851
2.69114
2.69486
2.69943
2.68407
2.68653
2.68864
2.69219
2.69574
2.70052
2.68549
2.68896
2.69031
2.6924
2.69396
2.6968
2.68034
2.6815
2.6817
2.68282
2.68387
2.68575
2.67921
2.67927
2.67818
2.67731
2.67627
2.67568
2.67812
2.67645
2.67382
2.67073
2.66724
2.66368
2.67724
2.67439
2.67051
2.66564
2.66014
2.6541
2.67676
2.67322
2.66876
2.66302
2.65654
2.649
2.67676
2.67326
2.66898
2.66341
2.65691
2.64875
2.6772
2.67446
2.67105
2.66667
2.66104
2.65405
2.67829
2.67654
2.67444
2.67134
2.66756
2.66312
2.67915
2.67842
2.67796
2.67701
2.67585
2.67394
2.68081
2.68089
2.68182
2.68258
2.68404
2.68495
2.68179
2.68298
2.68507
2.68746
2.69078
2.69404
2.68385
2.68545
2.68855
2.69161
2.69594
2.70079
2.68408
2.68689
2.68959
2.69362
2.69798
2.70344
2.6864
2.6899
2.69233
2.69529
2.69828
2.70227
2.68208
2.68415
2.68622
2.68912
2.69202
2.69555
2.68163
2.68296
2.68413
2.68563
2.6871
2.68889
2.68124
2.68152
2.6816
2.6816
2.68116
2.68041
2.68129
2.68093
2.68012
2.67858
2.67625
2.67269
2.68174
2.68092
2.67947
2.67699
2.67342
2.66821
2.6827
2.68194
2.68024
2.67752
2.67346
2.669
2.68385
2.68371
2.68264
2.68047
2.67647
2.67159
2.68505
2.68543
2.68504
2.6842
2.68226
2.67944
2.68611
2.68737
2.68804
2.68874
2.68872
2.68813
2.68699
2.68871
2.69024
2.69227
2.69457
2.69672
2.68669
2.68879
2.6911
2.69434
2.698
2.70203
2.68655
2.68853
2.69073
2.69403
2.69773
2.70272
2.68357
2.68536
2.68698
2.68982
2.69288
2.69763
2.67852
2.67962
2.68128
2.68331
2.68623
2.68929
2.6795
2.68191
2.68465
2.68848
2.6931
2.69855
2.68067
2.68277
2.6854
2.68902
2.69327
2.69944
2.67734
2.67945
2.68098
2.68403
2.68711
2.69242
2.68252
2.68557
2.68594
2.68707
2.6878
2.68947
2.67659
2.67689
2.67535
2.67524
2.67533
2.67606
2.67545
2.67315
2.66975
2.66683
2.66407
2.66234
2.67402
2.66996
2.66471
2.65926
2.6535
2.64892
2.67408
2.66907
2.66268
2.65574
2.64807
2.64124
2.67476
2.66948
2.66286
2.65566
2.64706
2.63948
2.67654
2.67205
2.66634
2.6593
2.65068
2.6424
2.67828
2.67479
2.67034
2.66498
2.65915
2.65318
2.68024
2.67811
2.67567
2.67261
2.6695
2.66596
2.68166
2.68105
2.68062
2.68019
2.68028
2.67999
2.68382
2.68444
2.68568
2.68718
2.68944
2.69174
2.68412
2.68591
2.68799
2.69091
2.69444
2.69858
2.68451
2.68616
2.6883
2.69117
2.69449
2.69933
2.68178
2.6834
2.68474
2.68719
2.68967
2.69371
2.68945
2.70638
2.73614
2.7795
2.8317
2.67424
2.69185
2.72385
2.77851
2.84765
2.65396
2.66238
2.68427
2.7342
2.81321
2.63378
2.63044
2.63712
2.67004
2.74595
2.61926
2.60391
2.59961
2.62499
2.6911
2.61299
2.59235
2.58301
2.60167
2.66207
2.61643
2.59888
2.59038
2.60921
2.67383
2.62977
2.61677
2.61064
2.6267
2.68558
2.80415
2.64707
2.64114
2.64056
2.65614
2.70816
2.82022
2.66704
2.66743
2.67237
2.69011
2.73339
2.8249
2.68578
2.69308
2.70297
2.72364
2.75724
2.83045
3.00435
2.69993
2.71185
2.72564
2.74608
2.77362
2.81876
2.95293
3.22278
2.70856
2.7248
2.74375
2.7658
2.79256
2.83087
2.87942
3.16389
2.70988
2.7275
2.74742
2.76862
2.78939
2.80663
2.82014
2.81162
2.70402
2.71954
2.7403
2.76687
2.79718
2.83001
2.83622
2.83144
2.69065
2.7026
2.72404
2.75526
2.79539
2.84276
2.88293
2.90424
2.67696
2.6858
2.70362
2.73946
2.78897
2.85391
2.92654
2.94615
2.66044
2.66108
2.66791
2.69407
2.74104
2.82055
2.91873
2.99837
2.64662
2.64074
2.63894
2.65682
2.70173
2.79402
2.90187
2.97241
2.6394
2.62581
2.61801
2.62964
2.67571
2.7709
2.92035
3.06494
2.63844
2.62289
2.61392
2.62318
2.6686
2.77668
2.94399
3.08246
2.64343
2.63251
2.62512
2.63261
2.67403
2.76552
2.92201
3.16182
2.65708
2.651
2.6474
2.65301
2.68841
2.77448
2.67219
2.67179
2.67378
2.68186
2.70911
2.78365
2.68803
2.69394
2.70229
2.71609
2.73763
2.79324
2.70127
2.71353
2.7274
2.74409
2.76438
2.80017
2.71128
2.72951
2.74903
2.77078
2.79224
2.82772
2.71497
2.73519
2.75726
2.78005
2.801
2.71256
2.73129
2.75441
2.78188
2.8123
2.70374
2.71913
2.74271
2.77424
2.81534
2.69415
2.7062
2.7263
2.76359
2.81349
2.68039
2.683
2.69159
2.71953
2.76887
2.66882
2.66439
2.66436
2.68442
2.73526
2.66166
2.65041
2.64553
2.662
2.71541
2.65873
2.64798
2.64219
2.65852
2.71641
2.66335
2.65505
2.65039
2.66725
2.72512
2.67442
2.66933
2.66834
2.68343
2.73599
2.68741
2.68746
2.68998
2.70456
2.74654
2.70019
2.70542
2.71216
2.72928
2.75863
2.70926
2.72072
2.73352
2.75103
2.77686
2.71211
2.72794
2.74604
2.76909
2.79348
2.70708
2.72433
2.74673
2.77644
2.80819
2.69622
2.71475
2.74441
2.78843
2.83947
2.68315
2.70323
2.73696
2.79047
2.85894
2.66387
2.6753
2.69948
2.74966
2.82899
2.64517
2.64492
2.65348
2.69052
2.77101
2.63058
2.62101
2.62087
2.65237
2.72588
2.62591
2.61146
2.60677
2.63325
2.70046
2.63156
2.61925
2.61638
2.64261
2.714
2.64558
2.63755
2.63662
2.65846
2.72295
2.66254
2.66042
2.66344
2.68313
2.73885
2.68037
2.68302
2.6909
2.71112
2.75567
2.69656
2.70507
2.716
2.73729
2.77064
2.70661
2.71972
2.73451
2.75512
2.78392
2.70879
2.72501
2.7436
2.76592
2.79224
2.70219
2.71894
2.74116
2.76885
2.80024
2.68775
2.68595
2.68591
2.68584
2.6863
2.68682
2.68769
2.6885
2.68946
2.69022
2.69095
2.69126
2.69192
2.69207
2.68932
2.68824
2.68804
2.68797
2.68835
2.68887
2.68966
2.69034
2.691
2.69142
2.69167
2.69148
2.69148
2.69069
2.68972
2.68949
2.68961
2.68985
2.69032
2.69081
2.69136
2.69174
2.69203
2.69206
2.692
2.69155
2.69086
2.68997
2.69057
2.69074
2.69101
2.69136
2.69172
2.69211
2.69251
2.69277
2.69296
2.69284
2.69232
2.69167
2.69056
2.68944
2.69031
2.69097
2.69148
2.69206
2.69252
2.69297
2.69332
2.69351
2.69354
2.69322
2.69251
2.69167
2.69029
2.6889
2.68991
2.691
2.69175
2.69255
2.69308
2.69356
2.69384
2.69396
2.69384
2.69339
2.6926
2.69166
2.69015
2.68852
2.6891
2.69055
2.69157
2.69249
2.69311
2.69364
2.69391
2.69402
2.69383
2.69333
2.69254
2.69156
2.69007
2.68838
2.68844
2.69009
2.69134
2.69241
2.6931
2.69366
2.69389
2.69395
2.69371
2.69317
2.6924
2.69141
2.69007
2.68842
2.68774
2.68954
2.69095
2.69209
2.69279
2.69333
2.69354
2.69359
2.69333
2.69282
2.69213
2.69123
2.69014
2.6887
2.68765
2.68943
2.69084
2.69198
2.69261
2.69311
2.69325
2.69323
2.69295
2.69246
2.69184
2.69107
2.69019
2.68901
2.68767
2.68946
2.69078
2.69192
2.69247
2.69285
2.6929
2.69278
2.69246
2.69203
2.69148
2.69101
2.69032
2.68963
2.68868
2.69024
2.69126
2.69227
2.69264
2.69289
2.6928
2.69254
2.69215
2.69175
2.69126
2.69101
2.69057
2.69029
2.68921
2.69103
2.69182
2.69276
2.69289
2.69292
2.69262
2.69217
2.69171
2.69133
2.69109
2.6911
2.69114
2.69135
2.69178
2.69291
2.69313
2.69377
2.69352
2.69318
2.69261
2.69203
2.69153
2.69122
2.69122
2.69136
2.6917
2.69255
2.68871
2.68819
2.68866
2.68905
2.68973
2.69034
2.69117
2.69195
2.69289
2.69398
2.69493
2.69587
2.69701
2.69776
2.69023
2.69013
2.69056
2.69093
2.69158
2.6922
2.69301
2.69377
2.69462
2.69535
2.6961
2.69667
2.69729
2.69758
2.69092
2.69129
2.69189
2.69252
2.69326
2.69396
2.6947
2.69533
2.69596
2.6965
2.6969
2.69727
2.69739
2.69751
2.69202
2.69266
2.69333
2.69405
2.69476
2.69545
2.69612
2.69669
2.69723
2.69764
2.69782
2.69795
2.69775
2.69759
2.69246
2.69334
2.69416
2.69503
2.69582
2.69657
2.69722
2.69776
2.69818
2.69846
2.69851
2.69848
2.69804
2.69762
2.69284
2.69395
2.69493
2.69591
2.69674
2.69753
2.69816
2.69865
2.69899
2.69919
2.69916
2.69898
2.69835
2.69769
2.69303
2.69429
2.69537
2.69644
2.69732
2.69815
2.69878
2.69927
2.69956
2.69973
2.69963
2.69937
2.6987
2.69789
2.69332
2.69472
2.69588
2.697
2.69788
2.6987
2.69929
2.69975
2.70001
2.70016
2.70004
2.69975
2.69912
2.69821
2.69357
2.69504
2.69623
2.69738
2.69823
2.69902
2.69958
2.70002
2.70028
2.70042
2.70035
2.70009
2.69958
2.69866
2.69421
2.69566
2.69681
2.69794
2.69872
2.69944
2.69993
2.70032
2.70058
2.70069
2.70071
2.70049
2.70009
2.69923
2.6949
2.69635
2.6974
2.69847
2.69916
2.6998
2.70023
2.70057
2.70082
2.70095
2.70106
2.70097
2.70068
2.70002
2.6962
2.6975
2.69834
2.69928
2.69983
2.70036
2.7007
2.70097
2.70121
2.70137
2.70153
2.70165
2.70146
2.70104
2.69724
2.69863
2.69926
2.70011
2.70051
2.70092
2.70117
2.70137
2.7016
2.70182
2.70216
2.70242
2.70251
2.70249
2.69932
2.70029
2.70055
2.70122
2.70139
2.70166
2.70179
2.70193
2.70214
2.70241
2.70294
2.70334
2.70368
2.70414
2.68664
2.68661
2.68726
2.68784
2.68867
2.68945
2.69039
2.69132
2.69238
2.69348
2.69464
2.69572
2.69693
2.69788
2.68834
2.68846
2.68911
2.68969
2.69051
2.69128
2.69221
2.69314
2.69414
2.69511
2.69598
2.69682
2.69763
2.69837
2.68932
2.68975
2.6905
2.69125
2.69214
2.693
2.69392
2.69476
2.69559
2.69637
2.697
2.69768
2.69816
2.69879
2.69067
2.69126
2.69204
2.69287
2.69377
2.69465
2.69554
2.69633
2.69707
2.69771
2.69818
2.69866
2.69889
2.69933
2.6916
2.69236
2.69325
2.69417
2.69512
2.69604
2.69692
2.69766
2.6983
2.69882
2.69915
2.6995
2.69961
2.69989
2.69259
2.69347
2.6944
2.69537
2.69634
2.69729
2.69815
2.69887
2.69946
2.69992
2.70017
2.70043
2.70043
2.70052
2.69351
2.69445
2.69539
2.6964
2.69737
2.69834
2.69919
2.69992
2.70049
2.70092
2.70111
2.70131
2.70128
2.70122
2.69457
2.69556
2.69648
2.69747
2.6984
2.69935
2.70017
2.7009
2.70146
2.70189
2.70206
2.70224
2.70221
2.70204
2.69556
2.69657
2.69747
2.69845
2.69934
2.70026
2.70106
2.70179
2.70235
2.7028
2.70299
2.70318
2.70322
2.703
2.69676
2.69774
2.69858
2.69953
2.70036
2.70123
2.70198
2.7027
2.70327
2.70373
2.70399
2.7042
2.70431
2.70405
2.69787
2.69884
2.69962
2.70052
2.70129
2.70213
2.70286
2.70357
2.70417
2.70466
2.70504
2.70528
2.70552
2.70526
2.69926
2.70017
2.70083
2.70166
2.70236
2.70314
2.70384
2.70453
2.70516
2.70566
2.70619
2.70653
2.70683
2.70661
2.7004
2.7014
2.70195
2.70274
2.70338
2.70414
2.70483
2.70554
2.7062
2.70678
2.70744
2.70786
2.70818
2.70819
2.70208
2.70295
2.70329
2.70403
2.70459
2.70531
2.70596
2.70667
2.70732
2.70802
2.7087
2.70923
2.70969
2.71006
2.68382
2.68392
2.68445
2.68497
2.6857
2.68644
2.68733
2.68827
2.68931
2.6904
2.69151
2.69264
2.69375
2.6948
2.68558
2.68563
2.68615
2.68667
2.6874
2.68814
2.68902
2.68995
2.69097
2.692
2.69297
2.69395
2.69481
2.69565
2.6867
2.68702
2.68759
2.68821
2.68898
2.68977
2.69066
2.69154
2.69246
2.69337
2.69421
2.69505
2.69572
2.69645
2.68812
2.68853
2.68914
2.68982
2.69062
2.69143
2.69231
2.69316
2.69403
2.69485
2.69557
2.69627
2.69674
2.69728
2.68937
2.68991
2.6906
2.69135
2.69218
2.69302
2.69389
2.69472
2.69551
2.69623
2.69684
2.69741
2.69774
2.69816
2.69069
2.69132
2.69205
2.69285
2.6937
2.69457
2.69543
2.69624
2.69698
2.69763
2.69814
2.69861
2.69883
2.6991
2.69196
2.69267
2.69345
2.6943
2.69517
2.69607
2.69692
2.69771
2.6984
2.69899
2.69941
2.6998
2.69996
2.70013
2.69328
2.69405
2.69484
2.69574
2.69662
2.69753
2.69836
2.69914
2.69979
2.70034
2.70072
2.70105
2.70118
2.70124
2.69455
2.69536
2.69616
2.69708
2.69798
2.6989
2.69973
2.7005
2.70114
2.70167
2.70204
2.70232
2.70246
2.70242
2.69589
2.69671
2.69751
2.69843
2.69932
2.70024
2.70105
2.70182
2.70246
2.70299
2.70339
2.70365
2.70383
2.70367
2.69712
2.69797
2.69876
2.69968
2.70056
2.70147
2.7023
2.70308
2.70375
2.70429
2.70473
2.705
2.70523
2.705
2.69843
2.6993
2.70006
2.70097
2.70183
2.70272
2.70354
2.70433
2.70501
2.70558
2.7061
2.70641
2.7067
2.70646
2.69954
2.70048
2.70123
2.70213
2.70298
2.70388
2.70472
2.70553
2.70626
2.70688
2.70745
2.70785
2.70808
2.70795
2.70093
2.70189
2.70254
2.70342
2.70423
2.70511
2.70593
2.70675
2.70749
2.70819
2.70878
2.70925
2.70959
2.70973
2.67992
2.67999
2.68027
2.6806
2.68107
2.68159
2.68222
2.68292
2.6837
2.68452
2.68535
2.68624
2.68709
2.68801
2.68146
2.6814
2.68167
2.68199
2.68245
2.68297
2.68361
2.6843
2.68507
2.68586
2.68665
2.68746
2.68819
2.68895
2.68263
2.68273
2.68302
2.68337
2.68384
2.68437
2.68501
2.68567
2.68638
2.68711
2.68783
2.68855
2.68918
2.68987
2.68394
2.6841
2.68443
2.68479
2.68528
2.68582
2.68645
2.68709
2.68778
2.68846
2.68912
2.68976
2.69028
2.69083
2.68522
2.68546
2.68582
2.68623
2.68674
2.68729
2.68791
2.68853
2.68917
2.6898
2.69039
2.69095
2.69138
2.69183
2.68657
2.68686
2.68725
2.68771
2.68823
2.6888
2.6894
2.69001
2.69062
2.6912
2.69173
2.69222
2.69255
2.69288
2.68791
2.68826
2.68868
2.68918
2.68973
2.69031
2.6909
2.6915
2.69207
2.69261
2.69308
2.69349
2.69375
2.69396
2.68927
2.68968
2.69012
2.69066
2.69123
2.69183
2.69242
2.69301
2.69356
2.69406
2.69448
2.69482
2.695
2.69509
2.6906
2.69106
2.69153
2.69211
2.6927
2.69333
2.69392
2.69451
2.69504
2.69551
2.69589
2.69615
2.69629
2.69624
2.69192
2.69245
2.69294
2.69355
2.69415
2.6948
2.6954
2.696
2.69651
2.69696
2.69731
2.69752
2.69765
2.69749
2.69316
2.69376
2.69427
2.69491
2.69553
2.6962
2.69682
2.69743
2.69795
2.69839
2.69872
2.6989
2.69904
2.69877
2.69443
2.69509
2.69561
2.69626
2.6969
2.69757
2.69821
2.69882
2.69935
2.69979
2.70014
2.70031
2.70047
2.70019
2.69558
2.69628
2.69682
2.69749
2.69815
2.69885
2.69952
2.70016
2.70071
2.70118
2.70154
2.70172
2.70186
2.70167
2.69687
2.69755
2.69812
2.6988
2.69946
2.70015
2.70082
2.70147
2.70204
2.70255
2.70292
2.7032
2.70332
2.70335
2.67632
2.67624
2.67631
2.67642
2.67661
2.67684
2.67714
2.6775
2.67792
2.67839
2.67889
2.67944
2.67999
2.68064
2.6775
2.67733
2.67739
2.67749
2.67768
2.6779
2.67821
2.67856
2.67899
2.67944
2.67994
2.68046
2.68098
2.68155
2.67851
2.67839
2.67847
2.67858
2.67877
2.679
2.6793
2.67964
2.68004
2.68046
2.68092
2.68141
2.68187
2.68242
2.6796
2.67952
2.67959
2.67972
2.67991
2.68013
2.68043
2.68076
2.68115
2.68156
2.68199
2.68244
2.68286
2.68335
2.68067
2.68064
2.68073
2.68087
2.68107
2.6813
2.68159
2.68191
2.68227
2.68265
2.68305
2.68345
2.68384
2.68426
2.68178
2.6818
2.68191
2.68206
2.68226
2.6825
2.68278
2.6831
2.68344
2.6838
2.68417
2.68453
2.68486
2.68522
2.68289
2.68296
2.68309
2.68326
2.68347
2.68372
2.684
2.68431
2.68463
2.68496
2.68529
2.6856
2.68588
2.68616
2.68403
2.68414
2.68428
2.68448
2.68471
2.68497
2.68525
2.68555
2.68585
2.68616
2.68645
2.68672
2.68695
2.68715
2.68515
2.68531
2.68548
2.68572
2.68596
2.68623
2.68651
2.68681
2.68709
2.68738
2.68763
2.68785
2.68803
2.68814
2.68627
2.68651
2.68669
2.68696
2.68721
2.68751
2.68779
2.68809
2.68836
2.68862
2.68884
2.68903
2.68919
2.68918
2.68737
2.68767
2.68788
2.68818
2.68846
2.68878
2.68907
2.68937
2.68963
2.68987
2.69007
2.6902
2.69035
2.69025
2.68851
2.68885
2.68908
2.68941
2.68971
2.69004
2.69035
2.69065
2.69091
2.69115
2.69133
2.69144
2.69159
2.69142
2.68962
2.68995
2.69022
2.69057
2.69091
2.69127
2.6916
2.69192
2.69219
2.69243
2.6926
2.6927
2.69282
2.69267
2.69084
2.69113
2.69143
2.69179
2.69214
2.69251
2.69285
2.69319
2.69347
2.69372
2.6939
2.69403
2.69411
2.69409
2.67229
2.67209
2.67203
2.67199
2.672
2.67204
2.67211
2.67222
2.67238
2.67256
2.67278
2.67306
2.67335
2.67373
2.67316
2.67294
2.67287
2.67283
2.67283
2.67286
2.67294
2.67304
2.6732
2.67338
2.67361
2.67387
2.67419
2.67455
2.67396
2.67377
2.67371
2.67367
2.67367
2.67371
2.67378
2.67388
2.67402
2.67419
2.67441
2.67464
2.67493
2.67528
2.67481
2.67464
2.67458
2.67454
2.67455
2.67458
2.67465
2.67474
2.67488
2.67505
2.67525
2.67547
2.67575
2.67606
2.67564
2.6755
2.67545
2.67542
2.67543
2.67547
2.67553
2.67562
2.67575
2.6759
2.67609
2.6763
2.67655
2.67684
2.67651
2.6764
2.67635
2.67633
2.67634
2.67638
2.67644
2.67653
2.67665
2.67679
2.67697
2.67716
2.67739
2.67765
2.67736
2.67729
2.67726
2.67724
2.67726
2.6773
2.67737
2.67745
2.67756
2.67769
2.67785
2.67802
2.67822
2.67845
2.67824
2.67821
2.67818
2.67818
2.6782
2.67825
2.67831
2.6784
2.6785
2.67862
2.67876
2.67892
2.67909
2.67928
2.67913
2.67914
2.67912
2.67914
2.67917
2.67922
2.67929
2.67936
2.67945
2.67956
2.67968
2.67982
2.67996
2.6801
2.68005
2.68009
2.68008
2.68011
2.68016
2.68021
2.68028
2.68036
2.68044
2.68054
2.68064
2.68076
2.68088
2.68095
2.68098
2.68105
2.68105
2.6811
2.68116
2.68123
2.6813
2.68137
2.68145
2.68153
2.68162
2.68171
2.68181
2.68179
2.68195
2.68204
2.68205
2.68212
2.68219
2.68226
2.68234
2.68241
2.68248
2.68256
2.68264
2.68271
2.68281
2.68274
2.68292
2.68301
2.68306
2.68315
2.68323
2.68332
2.6834
2.68347
2.68354
2.68361
2.68367
2.68372
2.68381
2.68372
2.68401
2.68407
2.68413
2.68421
2.6843
2.68439
2.68448
2.68456
2.68463
2.6847
2.68475
2.68481
2.68486
2.68486
2.66829
2.66805
2.66793
2.66781
2.66772
2.66765
2.66759
2.66756
2.66755
2.66756
2.66759
2.66765
2.66774
2.66784
2.66894
2.66869
2.66857
2.66844
2.66835
2.66828
2.66822
2.66819
2.66817
2.66819
2.66823
2.66829
2.66839
2.66849
2.66953
2.66931
2.6692
2.66908
2.66899
2.66892
2.66886
2.66883
2.66881
2.66882
2.66885
2.66891
2.66899
2.6691
2.67016
2.66996
2.66984
2.66973
2.66965
2.66957
2.66951
2.66948
2.66946
2.66947
2.66949
2.66955
2.66962
2.66974
2.67078
2.67061
2.67049
2.67039
2.6703
2.67023
2.67017
2.67013
2.67011
2.67012
2.67014
2.67018
2.67025
2.67037
2.67142
2.67127
2.67116
2.67106
2.67098
2.6709
2.67085
2.6708
2.67078
2.67078
2.67079
2.67083
2.6709
2.67101
2.67206
2.67194
2.67183
2.67173
2.67165
2.67158
2.67153
2.67148
2.67145
2.67145
2.67146
2.67149
2.67155
2.67164
2.67272
2.67262
2.67252
2.67243
2.67235
2.67228
2.67222
2.67217
2.67215
2.67214
2.67214
2.67217
2.67222
2.67229
2.6734
2.67332
2.67321
2.67313
2.67306
2.67299
2.67293
2.67288
2.67285
2.67284
2.67284
2.67287
2.6729
2.67293
2.67409
2.67404
2.67393
2.67386
2.67378
2.67372
2.67366
2.67361
2.67358
2.67355
2.67356
2.67357
2.6736
2.6736
2.67481
2.67477
2.67467
2.6746
2.67453
2.67447
2.67441
2.67436
2.67432
2.67429
2.67428
2.67428
2.6743
2.67426
2.67556
2.67553
2.67543
2.67537
2.6753
2.67524
2.67518
2.67512
2.67508
2.67504
2.67504
2.67503
2.67505
2.67499
2.67632
2.67629
2.67621
2.67616
2.67609
2.67603
2.67597
2.67591
2.67586
2.67581
2.67579
2.67577
2.67578
2.6757
2.67719
2.6771
2.67701
2.67695
2.67689
2.67684
2.67678
2.67672
2.67667
2.67662
2.67659
2.67657
2.67657
2.67654
2.664
2.66376
2.66361
2.66345
2.66331
2.66318
2.66305
2.66294
2.66283
2.66275
2.66266
2.66261
2.66254
2.66254
2.66445
2.66422
2.66407
2.66392
2.66379
2.66366
2.66354
2.66342
2.66331
2.66323
2.66314
2.66309
2.66302
2.66305
2.66488
2.66468
2.66454
2.66439
2.66427
2.66414
2.66402
2.66391
2.6638
2.66372
2.66363
2.66357
2.6635
2.66352
2.66533
2.66515
2.66501
2.66488
2.66475
2.66463
2.66451
2.6644
2.66429
2.6642
2.66411
2.66405
2.66398
2.66399
2.66578
2.66562
2.66549
2.66536
2.66523
2.66511
2.665
2.66489
2.66478
2.66469
2.6646
2.66453
2.66446
2.66445
2.66625
2.6661
2.66597
2.66584
2.66572
2.6656
2.66549
2.66537
2.66527
2.66517
2.66508
2.66501
2.66494
2.66491
2.66671
2.66658
2.66646
2.66633
2.66621
2.66609
2.66598
2.66587
2.66576
2.66566
2.66557
2.66549
2.66542
2.66537
2.66719
2.66707
2.66695
2.66683
2.66671
2.66659
2.66647
2.66636
2.66625
2.66615
2.66606
2.66598
2.66591
2.66584
2.66767
2.66757
2.66744
2.66732
2.66721
2.66709
2.66697
2.66686
2.66675
2.66665
2.66656
2.66647
2.6664
2.66631
2.66816
2.66807
2.66795
2.66783
2.66771
2.66759
2.66748
2.66736
2.66725
2.66714
2.66705
2.66695
2.66688
2.66679
2.66866
2.66858
2.66845
2.66834
2.66822
2.6681
2.66799
2.66787
2.66776
2.66765
2.66755
2.66744
2.66737
2.66727
2.66917
2.66909
2.66897
2.66886
2.66874
2.66862
2.6685
2.66838
2.66827
2.66815
2.66805
2.66794
2.66786
2.66775
2.66968
2.6696
2.66949
2.66938
2.66926
2.66914
2.66902
2.66889
2.66878
2.66865
2.66854
2.66842
2.66834
2.66821
2.67025
2.67012
2.67
2.66989
2.66977
2.66965
2.66954
2.66941
2.66929
2.66916
2.66906
2.66893
2.66884
2.66872
2.65911
2.65891
2.65876
2.65859
2.65844
2.65828
2.65813
2.65797
2.65782
2.65768
2.65753
2.6574
2.65725
2.65715
2.65941
2.65922
2.65907
2.65892
2.65877
2.65862
2.65847
2.65832
2.65817
2.65802
2.65787
2.65774
2.65758
2.65749
2.65969
2.65953
2.65939
2.65924
2.65911
2.65896
2.65881
2.65867
2.65852
2.65837
2.65822
2.65808
2.65792
2.65782
2.66
2.65984
2.65972
2.65958
2.65944
2.6593
2.65915
2.65901
2.65885
2.65871
2.65855
2.65841
2.65825
2.65814
2.6603
2.66016
2.66003
2.6599
2.65977
2.65963
2.65949
2.65934
2.65919
2.65905
2.65889
2.65874
2.65858
2.65845
2.6606
2.66048
2.66036
2.66023
2.6601
2.65996
2.65982
2.65967
2.65952
2.65937
2.65921
2.65906
2.6589
2.65876
2.66091
2.66079
2.66067
2.66055
2.66042
2.66028
2.66015
2.66
2.65985
2.6597
2.65954
2.65938
2.65922
2.65906
2.66121
2.6611
2.66099
2.66087
2.66074
2.66061
2.66047
2.66032
2.66017
2.66001
2.65986
2.65969
2.65953
2.65936
2.66151
2.66141
2.6613
2.66118
2.66106
2.66092
2.66078
2.66064
2.66049
2.66033
2.66017
2.66
2.65984
2.65966
2.66181
2.66172
2.66161
2.66149
2.66137
2.66123
2.66109
2.66094
2.66079
2.66063
2.66047
2.6603
2.66014
2.65994
2.6621
2.66201
2.6619
2.66179
2.66166
2.66153
2.66139
2.66124
2.66109
2.66093
2.66076
2.66058
2.66042
2.66022
2.66238
2.6623
2.66219
2.66208
2.66195
2.66181
2.66167
2.66152
2.66137
2.6612
2.66104
2.66085
2.66069
2.66047
2.66266
2.66257
2.66247
2.66235
2.66223
2.66209
2.66195
2.66179
2.66164
2.66147
2.6613
2.66111
2.66093
2.6607
2.66293
2.66283
2.66272
2.6626
2.66248
2.66234
2.6622
2.66205
2.66189
2.66172
2.66155
2.66136
2.66118
2.66096
2.65333
2.65318
2.65305
2.6529
2.65276
2.6526
2.65245
2.65228
2.65212
2.65195
2.65178
2.65162
2.65143
2.65127
2.6535
2.65336
2.65324
2.6531
2.65296
2.65281
2.65266
2.6525
2.65233
2.65216
2.65198
2.65181
2.65162
2.65145
2.65367
2.65354
2.65342
2.65329
2.65316
2.65301
2.65286
2.6527
2.65254
2.65237
2.65219
2.65202
2.65182
2.65165
2.65384
2.65372
2.65361
2.65348
2.65335
2.65321
2.65306
2.65291
2.65274
2.65257
2.65239
2.65221
2.65201
2.65184
2.654
2.65389
2.65379
2.65367
2.65354
2.6534
2.65326
2.6531
2.65294
2.65277
2.65259
2.65241
2.65221
2.65202
2.65417
2.65407
2.65397
2.65385
2.65373
2.65359
2.65345
2.65329
2.65313
2.65296
2.65277
2.65259
2.65239
2.65219
2.65433
2.65424
2.65414
2.65403
2.65391
2.65377
2.65363
2.65348
2.65331
2.65314
2.65296
2.65276
2.65256
2.65236
2.65448
2.6544
2.6543
2.65419
2.65408
2.65394
2.6538
2.65365
2.65348
2.65331
2.65312
2.65293
2.65273
2.65252
2.65463
2.65455
2.65445
2.65435
2.65423
2.6541
2.65396
2.65381
2.65364
2.65347
2.65328
2.65308
2.65288
2.65267
2.65476
2.65468
2.65459
2.65449
2.65438
2.65425
2.65411
2.65395
2.65379
2.65361
2.65342
2.65322
2.65302
2.65279
2.65488
2.65481
2.65472
2.65461
2.6545
2.65437
2.65423
2.65408
2.65391
2.65373
2.65354
2.65334
2.65313
2.6529
2.65499
2.65492
2.65483
2.65472
2.65461
2.65448
2.65434
2.65418
2.65402
2.65384
2.65365
2.65344
2.65323
2.65299
2.65508
2.65501
2.65492
2.65481
2.6547
2.65457
2.65443
2.65427
2.6541
2.65392
2.65372
2.65351
2.6533
2.65306
2.65517
2.65508
2.65498
2.65488
2.65477
2.65464
2.6545
2.65434
2.65417
2.65398
2.6538
2.65359
2.65338
2.65315
2.64676
2.64667
2.64657
2.64646
2.64634
2.64622
2.64608
2.64594
2.64579
2.64563
2.64547
2.64531
2.64513
2.64496
2.64685
2.64675
2.64666
2.64655
2.64644
2.64631
2.64618
2.64604
2.64588
2.64572
2.64556
2.64538
2.6452
2.64503
2.64691
2.64683
2.64674
2.64663
2.64652
2.6464
2.64627
2.64613
2.64598
2.64582
2.64566
2.64549
2.6453
2.64512
2.64699
2.6469
2.64682
2.64672
2.64661
2.64649
2.64636
2.64622
2.64607
2.64591
2.64575
2.64557
2.64539
2.64521
2.64705
2.64697
2.64689
2.6468
2.64669
2.64657
2.64645
2.64631
2.64616
2.646
2.64583
2.64566
2.64548
2.64529
2.64711
2.64704
2.64696
2.64687
2.64676
2.64665
2.64652
2.64639
2.64624
2.64608
2.64591
2.64574
2.64556
2.64537
2.64716
2.6471
2.64702
2.64693
2.64683
2.64672
2.64659
2.64646
2.64631
2.64615
2.64598
2.64581
2.64563
2.64544
2.64721
2.64714
2.64707
2.64698
2.64689
2.64677
2.64665
2.64652
2.64637
2.64621
2.64604
2.64587
2.64569
2.6455
2.64724
2.64718
2.64711
2.64702
2.64693
2.64682
2.6467
2.64656
2.64641
2.64625
2.64609
2.64591
2.64573
2.64554
2.64727
2.64721
2.64714
2.64705
2.64696
2.64685
2.64673
2.64659
2.64644
2.64628
2.64611
2.64594
2.64575
2.64557
2.64728
2.64722
2.64715
2.64707
2.64697
2.64686
2.64674
2.6466
2.64645
2.64629
2.64612
2.64594
2.64576
2.64557
2.64729
2.64723
2.64715
2.64707
2.64697
2.64686
2.64673
2.6466
2.64645
2.64629
2.64612
2.64594
2.64575
2.64557
2.64729
2.64722
2.64715
2.64706
2.64696
2.64685
2.64672
2.64658
2.64643
2.64627
2.64609
2.64591
2.64573
2.64554
2.64728
2.6472
2.64712
2.64703
2.64693
2.64681
2.64669
2.64655
2.6464
2.64625
2.64608
2.64591
2.64573
2.64554
2.63992
2.63987
2.63981
2.63974
2.63966
2.63957
2.63948
2.63937
2.63926
2.63914
2.63902
2.63888
2.63874
2.6386
2.63995
2.6399
2.63984
2.63977
2.63969
2.63961
2.63951
2.6394
2.63929
2.63916
2.63903
2.63889
2.63875
2.6386
2.63997
2.63992
2.63986
2.63979
2.63972
2.63963
2.63953
2.63943
2.63931
2.63919
2.63906
2.63893
2.63879
2.63864
2.63999
2.63994
2.63988
2.63981
2.63974
2.63965
2.63956
2.63945
2.63934
2.63922
2.63909
2.63895
2.63881
2.63867
2.64
2.63995
2.63989
2.63983
2.63975
2.63967
2.63957
2.63947
2.63936
2.63924
2.63911
2.63898
2.63884
2.6387
2.64
2.63996
2.6399
2.63984
2.63976
2.63968
2.63958
2.63948
2.63937
2.63925
2.63913
2.639
2.63886
2.63872
2.64
2.63996
2.6399
2.63984
2.63976
2.63968
2.63959
2.63949
2.63938
2.63926
2.63914
2.63901
2.63887
2.63873
2.63999
2.63995
2.63989
2.63983
2.63976
2.63967
2.63958
2.63948
2.63937
2.63926
2.63913
2.639
2.63887
2.63874
2.63998
2.63993
2.63988
2.63981
2.63974
2.63966
2.63957
2.63947
2.63936
2.63924
2.63912
2.63899
2.63886
2.63873
2.63996
2.63991
2.63986
2.63979
2.63972
2.63963
2.63954
2.63944
2.63933
2.63922
2.6391
2.63897
2.63884
2.63871
2.63994
2.63988
2.63983
2.63976
2.63969
2.6396
2.63951
2.63941
2.6393
2.63918
2.63906
2.63894
2.63881
2.63868
2.63991
2.63985
2.63979
2.63973
2.63965
2.63956
2.63947
2.63937
2.63926
2.63914
2.63902
2.6389
2.63877
2.63864
2.63988
2.63982
2.63976
2.63969
2.63961
2.63952
2.63942
2.63932
2.63921
2.63909
2.63897
2.63884
2.63872
2.63859
2.63984
2.63978
2.63971
2.63964
2.63956
2.63946
2.63937
2.63926
2.63916
2.63904
2.63893
2.63881
2.63868
2.63856
2.6334
2.63338
2.63335
2.63331
2.63327
2.63322
2.63316
2.63309
2.63302
2.63294
2.63286
2.63277
2.63267
2.63256
2.63342
2.63339
2.63336
2.63332
2.63328
2.63322
2.63317
2.6331
2.63302
2.63294
2.63285
2.63276
2.63266
2.63256
2.63343
2.6334
2.63337
2.63333
2.63328
2.63323
2.63317
2.6331
2.63303
2.63295
2.63286
2.63277
2.63267
2.63257
2.63343
2.6334
2.63336
2.63332
2.63328
2.63322
2.63316
2.6331
2.63303
2.63295
2.63286
2.63277
2.63268
2.63258
2.63342
2.63339
2.63336
2.63331
2.63327
2.63321
2.63315
2.63309
2.63302
2.63294
2.63286
2.63277
2.63268
2.63258
2.63341
2.63338
2.63334
2.6333
2.63325
2.6332
2.63314
2.63308
2.63301
2.63293
2.63285
2.63276
2.63267
2.63258
2.6334
2.63336
2.63333
2.63328
2.63323
2.63318
2.63312
2.63306
2.63299
2.63291
2.63284
2.63275
2.63266
2.63257
2.63338
2.63334
2.6333
2.63326
2.63321
2.63315
2.63309
2.63303
2.63296
2.63289
2.63281
2.63273
2.63265
2.63256
2.63336
2.63332
2.63328
2.63323
2.63318
2.63313
2.63307
2.633
2.63294
2.63286
2.63279
2.63271
2.63262
2.63254
2.63333
2.63329
2.63325
2.6332
2.63315
2.6331
2.63303
2.63297
2.6329
2.63283
2.63276
2.63268
2.6326
2.63251
2.63331
2.63327
2.63323
2.63318
2.63312
2.63306
2.633
2.63294
2.63287
2.6328
2.63272
2.63265
2.63256
2.63248
2.63328
2.63324
2.63319
2.63314
2.63309
2.63303
2.63297
2.6329
2.63283
2.63276
2.63269
2.63261
2.63253
2.63245
2.63326
2.63321
2.63317
2.63311
2.63305
2.63299
2.63293
2.63286
2.63279
2.63272
2.63265
2.63257
2.63249
2.63241
2.63322
2.63317
2.63312
2.63307
2.63301
2.63295
2.63289
2.63282
2.63275
2.63268
2.63261
2.63254
2.63246
2.63239
2.62753