/*--------------------------------*- C++ -*----------------------------------*\
| =========                 |                                                 |
| \\      /  F ield         | OpenFOAM: The Open Source CFD Toolbox           |
|  \\    /   O peration     | Version:  v2106                                 |
|   \\  /    A nd           | Website:  www.openfoam.com                      |
|    \\/     M anipulation  |                                                 |
\*---------------------------------------------------------------------------*/
FoamFile
{
    version     2.0;
    format      ascii;
    arch        "LSB;label=32;scalar=64";
    class       volScalarField;
    location    "0.000122";
    object      p;
}
// * * * * * * * * * * * * * * * * * * * * * * * * * * * * * * * * * * * * * //

dimensions      [1 -1 -2 0 0 0 0];

internalField   nonuniform List<scalar> 
18109
(
234568
234322
234228
233996
233823
233662
233574
234721
234584
234521
234381
234266
234159
234108
234753
234737
234759
234712
234666
234607
234588
234891
234942
235038
235047
235049
235035
235040
235030
235176
235311
235381
235421
235438
235468
235232
235445
235614
235718
235788
235831
235878
235499
235748
235939
236070
236157
236218
236273
235861
236122
236308
236447
236537
236603
236659
234997
234798
234706
234495
234327
234170
234068
234007
234002
234069
234239
234448
234754
235118
235135
235039
234982
234853
234736
234621
234552
234507
234515
234588
234745
234946
235218
235518
235170
235183
235199
235148
235087
235011
234970
234941
234957
235027
235154
235336
235580
235912
235287
235367
235443
235438
235420
235379
235362
235355
235384
235462
235584
235755
235966
236243
235424
235564
235680
235723
235732
235718
235719
235730
235767
235839
235948
236093
236282
236575
235615
235802
235937
236009
236042
236049
236061
236087
236135
236208
236315
236456
236631
236850
235870
236080
236224
236311
236354
236377
236397
236431
236480
236549
236651
236780
236950
237153
236216
236427
236553
236640
236680
236708
236730
236764
236811
236875
236975
237100
237269
237448
236623
236825
236919
236995
237024
237051
237069
237098
237142
237204
237304
237426
237605
237765
237130
237287
237331
237383
237393
237408
237415
237437
237479
237538
237645
237769
237967
238105
237674
237787
237786
237819
237799
237789
237777
237790
237830
237891
238011
238142
238369
238481
238303
238366
238301
238290
238228
238188
238158
238164
238205
238269
238407
238551
238807
238908
238931
239001
238865
238807
238694
238615
238562
238562
238609
238684
238838
239003
239275
239423
239713
239665
239431
239302
239143
239038
238975
238980
239040
239130
239300
239490
239770
240040
234753
234960
235122
235281
235494
235778
235135
235278
235393
235506
235660
235887
234611
234656
234712
234838
235028
235220
234475
234410
234311
234224
234175
234110
234093
233827
233543
233274
233037
232741
233845
233407
232937
232427
231881
231201
233625
233039
232393
231647
230820
229787
233491
232805
232050
231144
230152
228867
233418
232686
231883
230910
229866
228448
233430
232708
231929
230986
229958
228735
233571
232941
232281
231458
230563
229531
233789
233253
232723
232096
231482
230756
234082
233690
233342
232931
232577
232154
234503
234247
234133
233938
233861
233738
234802
234819
234827
234878
235017
235143
235505
235586
235826
236011
236288
236566
235788
236010
236298
236636
237046
237505
236211
236481
236846
237245
237720
238221
236507
236803
237183
237603
238074
238556
236837
237127
237495
237865
238240
238561
237121
237401
237731
238022
238267
238383
237423
237685
237968
238178
238270
238170
237735
237998
238244
238377
238319
238025
238077
238341
238576
238665
238552
238145
238453
238737
238977
239061
238962
238610
238871
239187
239438
239562
239496
239187
239333
239690
239958
240142
240201
240089
239786
240196
240515
240798
241001
241104
240350
240765
241080
241443
241754
242040
240595
241061
241553
242027
242493
242921
240270
240895
241472
242090
242723
243348
240052
240736
241420
242132
242854
243572
239810
240502
241205
241977
242761
243516
239656
240284
240963
241676
242390
243086
239541
240134
240755
241393
242013
242569
239468
240026
240607
241154
241639
241996
239456
239982
240516
240995
241382
241621
239523
240049
240553
240965
241281
241369
239649
240216
240714
241139
241421
241523
239834
240433
240949
241424
241760
241971
239966
240595
241138
241706
242143
242497
240197
240787
241298
241870
242376
242846
240162
240737
241219
241839
242370
242928
234733
234489
234264
233883
233513
233030
234636
234498
234419
234306
234282
234197
234769
234727
234833
234899
235079
235251
234452
234610
234770
235043
235336
235719
240208
240810
241224
241650
242060
242538
239050
239523
239936
240447
240938
241410
238407
238776
239060
239386
239687
239963
237632
237783
237870
237992
238099
238133
236987
236937
236809
236659
236462
236134
236389
236140
235811
235415
234953
234289
235928
235546
235086
234503
233858
232946
235566
235136
234633
233977
233251
232326
235334
234922
234449
233811
233088
232230
235189
234836
234432
233884
233345
232709
235130
234908
234720
234416
234126
233732
235056
234930
234849
234738
234710
234627
235158
235112
235180
235213
235365
235497
234897
235011
235131
235337
235564
235863
236551
237845
239327
241015
242917
235789
236845
238239
240189
242498
234237
234687
235764
237332
239846
232326
232239
232378
233682
235396
230136
228829
227901
228058
229406
228223
226020
224282
223640
224795
227099
224052
221669
220844
222155
226597
223274
220711
219825
221024
223649
226845
224226
221935
220616
222249
224680
228069
226276
224597
223530
224778
226036
229784
228712
227973
227638
229179
230982
235830
231707
231359
231232
231611
233325
235926
240564
246458
233768
234017
234551
235400
237142
239311
240119
259243
235580
236295
237175
237988
238770
239063
239105
235798
237257
238348
239606
240768
241812
242747
242137
242334
238408
239723
241181
242603
244114
245846
246096
246718
239143
240344
241718
243421
245510
247900
250431
251186
239249
240005
240908
242167
244141
247044
250440
251768
238887
239169
239639
240390
241600
243873
246051
245120
238226
237710
236793
236511
237075
239187
242460
247266
237534
236433
234749
233702
233766
236066
239988
243001
237161
235550
233343
231946
231852
233313
236794
245364
237242
235288
232971
231256
231175
231321
237729
235794
233826
231837
230744
230814
238522
237206
235562
233716
231969
230763
239778
238928
237686
236276
234828
234010
241158
240952
240457
239712
239264
238894
242457
242822
242908
242555
241982
243664
244544
245326
245794
246251
244401
245680
246865
247937
249093
244737
246069
247452
249025
250860
244584
245636
246737
247872
249697
243967
244850
245369
246311
247442
243063
243208
242785
242765
243523
242151
241929
240894
240346
240837
241611
240809
239535
238879
239206
241398
240317
239204
238382
239043
241449
240810
239841
238838
239102
242083
241840
241170
240507
240450
242799
242973
242733
242473
242531
243481
244236
244727
245046
245805
243760
244852
245729
246400
246719
243404
244710
245973
247328
248894
242225
243466
244900
246772
248905
240430
241215
242270
243951
246280
238187
238443
238726
240037
241705
235550
234708
233972
234290
235783
233331
231670
230240
229913
231389
231750
229377
227549
227237
228931
230854
228443
226554
226297
227720
230867
229127
227506
226966
228885
231843
230775
229796
229554
231144
233275
232861
232716
233232
235081
234646
234813
235233
236291
238363
235898
236680
237815
239258
241745
236461
237595
238962
240386
241740
235375
235217
235142
234973
234842
234713
234627
234566
234551
234585
234684
234839
235045
235316
235509
235418
235358
235246
235145
235041
234973
234924
234919
234968
235067
235226
235417
235647
235568
235541
235523
235457
235394
235317
235267
235233
235235
235287
235375
235523
235709
235976
235696
235702
235708
235670
235637
235585
235551
235535
235549
235608
235706
235849
236024
236261
235830
235870
235893
235877
235862
235831
235810
235805
235831
235888
235987
236117
236292
236557
236008
236069
236099
236101
236095
236080
236068
236075
236110
236176
236280
236416
236589
236799
236233
236303
236331
236345
236340
236335
236328
236344
236383
236452
236560
236695
236871
237073
236526
236595
236607
236623
236612
236606
236598
236618
236660
236733
236844
236980
237158
237343
236865
236932
236923
236935
236910
236896
236886
236906
236950
237025
237139
237276
237461
237630
237292
237335
237293
237284
237237
237209
237191
237210
237257
237332
237452
237588
237785
237937
237749
237781
237705
237670
237594
237546
237519
237534
237584
237661
237788
237924
238140
238273
238280
238282
238157
238082
237978
237909
237872
237886
237941
238017
238152
238291
238530
238651
238809
238813
238643
238539
238401
238309
238258
238271
238331
238414
238557
238702
238950
239083
239450
239359
239128
238983
238822
238718
238665
238681
238748
238839
238991
239152
239396
239609
235257
235113
235040
234916
234825
234734
234678
234637
234631
234674
234734
234852
234993
235184
235391
235269
235195
235093
235013
234939
234892
234865
234869
234923
234999
235125
235265
235430
235461
235378
235323
235244
235181
235123
235086
235071
235087
235139
235217
235336
235480
235671
235592
235527
235481
235416
235367
235322
235295
235289
235318
235370
235458
235576
235713
235893
235735
235685
235645
235590
235549
235514
235495
235498
235530
235586
235675
235785
235931
236122
235914
235873
235832
235787
235749
235721
235707
235719
235753
235817
235909
236025
236163
236333
236124
236088
236043
236004
235965
235940
235926
235944
235979
236048
236143
236258
236399
236555
236377
236344
236288
236250
236205
236178
236162
236183
236221
236295
236392
236508
236649
236793
236658
236630
236562
236522
236469
236438
236421
236441
236482
236558
236657
236770
236913
237040
236988
236960
236873
236823
236757
236720
236699
236720
236763
236839
236941
237051
237196
237306
237345
237316
237210
237146
237068
237024
237001
237021
237067
237144
237247
237349
237498
237591
237760
237712
237577
237494
237403
237353
237327
237347
237397
237474
237580
237672
237826
237903
238165
238120
237967
237872
237771
237714
237686
237703
237754
237834
237945
238029
238182
238232
238630
238539
238363
238257
238153
238093
238065
238083
238133
238211
238325
238422
238557
238638
235062
234937
234869
234785
234725
234671
234638
234615
234616
234641
234678
234741
234819
234928
235195
235069
234998
234919
234864
234818
234792
234777
234783
234818
234866
234940
235025
235123
235282
235180
235118
235048
235000
234961
234940
234933
234948
234984
235033
235104
235190
235303
235417
235325
235266
235203
235159
235126
235107
235106
235127
235163
235217
235291
235376
235483
235563
235483
235426
235367
235325
235295
235279
235281
235304
235344
235399
235472
235559
235665
235736
235664
235606
235551
235509
235483
235469
235474
235499
235541
235596
235669
235753
235853
235932
235867
235804
235752
235709
235685
235673
235679
235702
235746
235801
235874
235956
236047
236157
236095
236024
235974
235929
235905
235892
235899
235922
235967
236023
236095
236176
236255
236400
236343
236267
236217
236170
236145
236131
236137
236160
236206
236261
236330
236407
236471
236666
236613
236531
236481
236430
236405
236388
236394
236417
236463
236518
236582
236654
236698
236939
236894
236811
236762
236710
236684
236667
236671
236693
236737
236790
236847
236912
236927
237234
237191
237106
237059
237006
236979
236961
236965
236986
237025
237076
237125
237182
237169
237506
237485
237407
237365
237315
237287
237271
237275
237292
237325
237369
237408
237454
237416
237815
237785
237708
237670
237624
237600
237586
237589
237605
237631
237668
237699
237728
237701
234923
234830
234772
234706
234656
234612
234580
234558
234549
234550
234557
234571
234588
234600
235059
234958
234898
234834
234787
234746
234718
234699
234691
234695
234705
234726
234748
234762
235156
235070
235018
234960
234917
234879
234854
234839
234835
234840
234849
234865
234884
234906
235278
235202
235153
235100
235060
235026
235004
234991
234987
234991
235001
235018
235036
235056
235409
235343
235297
235247
235210
235180
235159
235147
235143
235148
235156
235170
235185
235202
235554
235496
235452
235407
235371
235344
235325
235314
235311
235314
235320
235332
235343
235355
235708
235660
235616
235576
235543
235518
235501
235490
235485
235486
235490
235497
235502
235508
235875
235833
235789
235753
235722
235701
235685
235675
235668
235667
235667
235670
235668
235663
236050
236015
235971
235940
235911
235893
235877
235866
235857
235853
235847
235844
235835
235817
236231
236203
236160
236133
236106
236089
236073
236062
236051
236042
236032
236020
236002
235972
236412
236392
236351
236331
236305
236289
236272
236258
236244
236231
236215
236194
236168
236123
236594
236581
236543
236526
236502
236487
236468
236452
236436
236418
236396
236368
236333
236272
236761
236765
236733
236718
236696
236680
236662
236643
236623
236598
236570
236533
236492
236418
236946
236943
236914
236899
236878
236864
236846
236826
236803
236774
236740
236696
236648
236572
234644
234572
234517
234456
234402
234349
234305
234268
234236
234209
234189
234173
234158
234134
234747
234670
234615
234556
234505
234455
234413
234376
234345
234319
234300
234286
234271
234256
234823
234757
234709
234655
234607
234560
234521
234486
234457
234432
234411
234393
234375
234359
234917
234856
234811
234760
234715
234673
234636
234603
234574
234549
234527
234508
234488
234468
235016
234963
234920
234872
234830
234791
234755
234722
234694
234669
234645
234622
234597
234572
235121
235076
235035
234991
234951
234914
234880
234849
234819
234792
234765
234739
234709
234678
235230
235192
235154
235114
235077
235042
235009
234977
234947
234917
234887
234854
234819
234780
235342
235311
235276
235240
235205
235172
235139
235108
235076
235043
235008
234971
234929
234883
235453
235430
235398
235367
235334
235303
235271
235239
235205
235169
235130
235087
235039
234986
235564
235548
235519
235493
235462
235433
235401
235368
235332
235293
235249
235201
235149
235090
235670
235662
235636
235616
235587
235560
235527
235492
235453
235410
235363
235311
235254
235188
235770
235769
235747
235731
235704
235678
235646
235610
235569
235522
235472
235414
235353
235280
235867
235872
235852
235840
235815
235789
235756
235718
235674
235623
235568
235505
235441
235362
235971
235967
235947
235935
235912
235887
235854
235815
235769
235715
235655
235586
235518
235434
234206
234150
234102
234049
234001
233952
233906
233859
233815
233770
233728
233686
233643
233597
234268
234214
234169
234119
234071
234022
233976
233928
233883
233839
233795
233752
233708
233667
234315
234267
234227
234181
234136
234090
234045
234000
233955
233910
233865
233821
233775
233731
234367
234326
234289
234245
234203
234159
234115
234070
234024
233979
233933
233888
233841
233798
234420
234384
234350
234310
234269
234227
234184
234140
234095
234049
234002
233955
233906
233859
234476
234445
234412
234375
234336
234295
234253
234208
234163
234116
234069
234020
233970
233921
234531
234505
234474
234439
234402
234362
234320
234276
234230
234183
234133
234082
234030
233979
234586
234564
234535
234503
234467
234428
234386
234342
234295
234246
234195
234142
234088
234034
234639
234620
234594
234564
234530
234492
234449
234404
234356
234306
234253
234197
234142
234085
234690
234675
234650
234622
234588
234550
234508
234463
234414
234361
234307
234250
234193
234134
234740
234726
234703
234676
234642
234604
234562
234515
234465
234411
234356
234297
234239
234178
234787
234775
234751
234724
234690
234652
234610
234563
234512
234457
234399
234338
234279
234216
234834
234822
234798
234771
234737
234697
234653
234603
234550
234492
234433
234372
234312
234247
234884
234862
234836
234806
234772
234732
234688
234637
234583
234524
234464
234400
234340
234271
233500
233464
233429
233389
233350
233305
233260
233213
233165
233117
233069
233021
232974
232929
233525
233492
233460
233422
233381
233338
233293
233246
233199
233150
233102
233053
233004
232960
233542
233513
233483
233447
233409
233368
233325
233279
233233
233185
233137
233088
233040
232994
233562
233536
233507
233473
233437
233397
233355
233309
233263
233215
233167
233119
233071
233025
233580
233556
233529
233497
233462
233423
233382
233337
233292
233244
233197
233148
233100
233054
233598
233577
233551
233520
233486
233447
233407
233363
233318
233271
233223
233175
233127
233081
233616
233596
233571
233541
233507
233469
233429
233386
233341
233294
233247
233198
233151
233104
233634
233614
233589
233559
233526
233489
233449
233406
233362
233315
233267
233219
233172
233125
233651
233631
233606
233576
233542
233505
233465
233423
233378
233332
233285
233237
233190
233144
233667
233646
233621
233591
233557
233519
233479
233436
233392
233346
233299
233252
233206
233160
233682
233661
233634
233603
233569
233531
233490
233447
233403
233356
233310
233263
233218
233172
233699
233675
233646
233614
233579
233540
233499
233456
233411
233364
233318
233271
233227
233183
233716
233688
233659
233625
233588
233547
233505
233460
233416
233369
233323
233277
233233
233189
233736
233699
233665
233626
233589
233549
233508
233464
233420
233374
233329
233283
233240
233195
232593
232569
232546
232519
232490
232458
232423
232387
232350
232310
232272
232233
232195
232158
232598
232578
232556
232529
232500
232467
232433
232396
232359
232319
232280
232241
232203
232165
232600
232581
232559
232532
232504
232473
232439
232403
232367
232328
232291
232252
232215
232177
232603
232584
232562
232536
232508
232477
232444
232409
232372
232335
232297
232259
232222
232187
232605
232586
232564
232538
232510
232479
232446
232412
232376
232339
232302
232265
232229
232194
232607
232588
232565
232539
232511
232480
232447
232413
232378
232342
232306
232269
232234
232200
232608
232588
232565
232539
232510
232479
232447
232413
232378
232342
232307
232271
232237
232204
232609
232588
232564
232537
232508
232477
232445
232411
232377
232342
232307
232272
232239
232206
232610
232587
232562
232534
232505
232474
232441
232408
232374
232339
232305
232272
232239
232208
232612
232587
232560
232531
232501
232469
232437
232404
232370
232336
232303
232270
232239
232208
232613
232586
232558
232528
232497
232465
232433
232399
232366
232332
232300
232268
232238
232209
232616
232587
232557
232525
232493
232460
232428
232395
232362
232329
232298
232267
232237
232209
232618
232586
232556
232523
232490
232457
232424
232390
232358
232325
232294
232264
232236
232209
232621
232585
232553
232519
232486
232452
232420
232387
232355
232325
232296
232267
232240
232212
231644
231628
231613
231594
231576
231555
231533
231510
231486
231461
231436
231411
231386
231361
231646
231631
231615
231596
231577
231555
231533
231509
231485
231460
231434
231409
231384
231359
231645
231630
231613
231594
231574
231553
231531
231507
231484
231459
231434
231409
231385
231360
231644
231628
231611
231592
231572
231550
231528
231505
231481
231457
231433
231408
231385
231361
231643
231626
231609
231589
231568
231547
231525
231501
231478
231454
231431
231407
231384
231360
231641
231624
231605
231585
231564
231542
231520
231497
231474
231451
231428
231405
231382
231359
231639
231620
231601
231580
231559
231537
231514
231492
231469
231446
231424
231401
231379
231357
231636
231616
231596
231575
231553
231531
231509
231486
231464
231441
231419
231397
231376
231354
231633
231612
231591
231569
231547
231524
231502
231480
231458
231436
231414
231393
231372
231351
231631
231608
231586
231563
231541
231518
231496
231474
231452
231431
231410
231389
231368
231348
231628
231604
231582
231558
231536
231513
231491
231469
231447
231426
231405
231385
231365
231345
231626
231601
231578
231553
231530
231508
231486
231464
231443
231422
231402
231382
231363
231344
231623
231598
231574
231550
231527
231504
231482
231461
231440
231420
231400
231381
231363
231344
231621
231593
231570
231546
231523
231501
231479
231458
231439
231420
231402
231384
231367
231348
230775
230762
230750
230737
230724
230711
230697
230683
230669
230655
230641
230626
230611
230596
230777
230764
230752
230738
230725
230711
230697
230682
230668
230653
230638
230623
230608
230594
230777
230764
230751
230737
230723
230709
230695
230681
230667
230652
230637
230622
230608
230593
230777
230764
230750
230736
230722
230708
230694
230680
230665
230651
230636
230622
230607
230593
230776
230763
230749
230735
230721
230706
230692
230678
230664
230649
230635
230621
230606
230592
230775
230761
230747
230733
230718
230704
230690
230676
230662
230648
230634
230619
230605
230591
230774
230759
230745
230730
230716
230701
230687
230673
230660
230646
230632
230618
230603
230589
230773
230757
230743
230728
230713
230698
230684
230671
230657
230644
230630
230616
230602
230587
230771
230756
230740
230725
230710
230696
230682
230668
230655
230641
230628
230614
230599
230585
230769
230753
230738
230723
230708
230694
230680
230666
230653
230639
230626
230612
230597
230583
230767
230751
230736
230721
230706
230692
230678
230664
230651
230638
230624
230610
230596
230581
230765
230749
230734
230718
230704
230690
230677
230663
230650
230637
230624
230610
230596
230580
230762
230746
230732
230717
230703
230689
230676
230663
230650
230637
230624
230610
230596
230581
230759
230742
230729
230714
230701
230688
230676
230663
230651
230639
230627
230614
230601
230586
230012
230001
229992
229982
229973
229964
229955
229946
229937
229928
229919
229910
229901
229893
230013
230003
229994
229984
229974
229965
229956
229946
229937
229928
229919
229909
229901
229892
230014
230004
229994
229984
229975
229965
229956
229947
229938
229928
229919
229910
229902
229893
230015
230005
229995
229985
229975
229966
229957
229947
229938
229929
229920
229911
229902
229894
230015
230005
229995
229985
229976
229966
229957
229948
229939
229931
229922
229912
229903
229894
230016
230006
229996
229986
229976
229967
229958
229949
229940
229932
229923
229913
229904
229895
230016
230006
229996
229986
229977
229968
229959
229950
229942
229933
229924
229914
229905
229895
230017
230007
229997
229987
229978
229969
229960
229951
229943
229934
229925
229915
229905
229895
230018
230008
229998
229988
229979
229970
229961
229953
229944
229935
229926
229916
229905
229894
230018
230008
229999
229989
229980
229971
229963
229954
229946
229937
229927
229917
229906
229894
230018
230009
229999
229990
229981
229973
229964
229956
229947
229938
229928
229917
229906
229895
230017
230008
229999
229990
229982
229974
229966
229957
229949
229939
229930
229918
229907
229895
230016
230007
229998
229990
229982
229974
229967
229958
229950
229941
229931
229919
229908
229896
230013
230005
229997
229989
229982
229975
229967
229959
229951
229942
229933
229922
229911
229900
229333
229326
229320
229313
229307
229300
229294
229288
229281
229275
229268
229262
229256
229251
229335
229328
229321
229315
229308
229302
229295
229289
229282
229276
229269
229263
229257
229251
229336
229329
229322
229316
229309
229303
229297
229290
229284
229278
229271
229265
229259
229253
229337
229330
229324
229317
229311
229304
229298
229292
229286
229280
229273
229267
229261
229254
229338
229332
229325
229319
229312
229306
229300
229294
229288
229282
229276
229269
229263
229256
229340
229333
229327
229321
229314
229308
229302
229297
229291
229284
229278
229271
229264
229257
229342
229336
229329
229323
229317
229311
229305
229299
229293
229287
229280
229273
229266
229258
229344
229338
229331
229325
229320
229314
229308
229302
229296
229290
229283
229275
229267
229259
229345
229340
229334
229328
229322
229317
229311
229306
229299
229292
229285
229277
229269
229260
229347
229341
229336
229330
229325
229320
229314
229308
229302
229295
229287
229279
229270
229262
229347
229342
229337
229332
229327
229322
229316
229310
229304
229297
229289
229280
229272
229263
229347
229342
229337
229332
229328
229323
229318
229312
229306
229298
229290
229282
229273
229264
229346
229341
229337
229333
229328
229323
229318
229312
229306
229299
229291
229282
229273
229264
229345
229341
229337
229332
229328
229323
229318
229312
229306
229299
229291
229283
229274
229266
228713
228709
228706
228702
228698
228694
228690
228685
228680
228676
228671
228666
228662
228657
228715
228712
228708
228704
228700
228696
228692
228687
228683
228678
228673
228668
228663
228658
228717
228713
228710
228706
228702
228698
228694
228690
228685
228680
228675
228670
228665
228660
228719
228716
228712
228708
228705
228701
228696
228692
228687
228683
228677
228672
228667
228661
228721
228718
228714
228711
228707
228703
228699
228695
228690
228685
228680
228674
228668
228662
228723
228720
228717
228713
228710
228706
228702
228698
228693
228687
228682
228676
228670
228663
228725
228722
228719
228716
228712
228709
228705
228700
228696
228690
228684
228678
228671
228665
228726
228724
228721
228718
228715
228711
228708
228703
228698
228692
228686
228680
228673
228667
228727
228725
228722
228719
228717
228713
228710
228705
228700
228694
228688
228681
228675
228668
228728
228725
228723
228720
228718
228715
228711
228707
228702
228696
228689
228683
228676
228670
228728
228725
228723
228721
228718
228715
228711
228707
228702
228696
228690
228684
228677
228671
228728
228725
228723
228721
228718
228715
228711
228707
228702
228696
228690
228683
228677
228672
228727
228725
228723
228720
228718
228714
228710
228706
228701
228695
228689
228682
228677
228671
228728
228725
228723
228720
228717
228713
228709
228704
228699
228693
228688
228682
228676
228671
228136
228135
228133
228131
228129
228126
228123
228120
228117
228114
228111
228107
228103
228098
228139
228137
228136
228134
228132
228130
228127
228124
228120
228117
228113
228109
228104
228099
228141
228140
228139
228137
228135
228133
228130
228127
228123
228120
228115
228111
228106
228101
228144
228143
228142
228140
228138
228136
228133
228130
228126
228122
228118
228113
228107
228102
228145
228145
228144
228143
228141
228139
228136
228133
228129
228125
228120
228115
228109
228104
228147
228146
228146
228145
228144
228142
228139
228136
228132
228127
228122
228116
228111
228105
228148
228148
228147
228147
228146
228144
228141
228138
228134
228129
228123
228118
228112
228107
228148
228148
228148
228148
228147
228145
228142
228139
228135
228130
228125
228119
228114
228108
228148
228148
228148
228148
228147
228145
228142
228139
228135
228130
228125
228120
228115
228110
228148
228148
228148
228147
228146
228144
228142
228138
228134
228130
228125
228120
228115
228111
228148
228148
228147
228146
228145
228143
228140
228137
228133
228129
228124
228120
228115
228111
228148
228147
228146
228145
228144
228142
228139
228135
228131
228127
228123
228119
228114
228110
228148
228147
228146
228144
228142
228140
228137
228133
228129
228125
228121
228117
228113
228109
228148
228147
228145
228143
228141
228138
228135
228131
228127
228123
228119
228115
228111
228108
227596
227595
227594
227593
227591
227589
227588
227586
227583
227581
227579
227576
227572
227568
227598
227597
227597
227596
227595
227593
227591
227589
227587
227584
227581
227577
227573
227569
227600
227599
227599
227599
227598
227596
227595
227592
227590
227587
227583
227579
227575
227571
227601
227602
227602
227602
227601
227600
227598
227596
227593
227589
227585
227581
227577
227573
227603
227603
227604
227604
227603
227602
227601
227598
227595
227592
227588
227584
227579
227575
227603
227605
227605
227606
227605
227604
227603
227600
227597
227594
227590
227585
227581
227576
227604
227605
227606
227606
227606
227606
227604
227601
227598
227595
227591
227587
227583
227578
227604
227606
227606
227607
227606
227606
227604
227602
227599
227595
227592
227588
227584
227579
227604
227605
227606
227606
227606
227605
227603
227601
227598
227595
227592
227588
227584
227580
227604
227605
227605
227605
227605
227604
227602
227600
227597
227594
227591
227588
227584
227581
227604
227605
227605
227604
227604
227602
227601
227598
227596
227593
227590
227587
227584
227580
227604
227604
227604
227603
227602
227601
227599
227596
227594
227591
227589
227586
227582
227579
227605
227604
227603
227602
227601
227599
227597
227595
227592
227589
227587
227584
227581
227578
227605
227604
227603
227601
227599
227597
227595
227592
227590
227587
227585
227582
227580
227576
227092
227090
227088
227086
227085
227083
227082
227080
227079
227077
227076
227074
227073
227071
227092
227090
227089
227088
227087
227085
227084
227082
227080
227079
227077
227075
227073
227071
227092
227091
227090
227089
227088
227087
227086
227084
227082
227080
227078
227076
227074
227072
227092
227092
227091
227091
227090
227089
227088
227086
227084
227082
227080
227077
227075
227073
227093
227093
227092
227092
227091
227091
227089
227088
227086
227084
227081
227079
227077
227074
227093
227093
227093
227093
227092
227092
227091
227089
227087
227085
227083
227081
227078
227076
227094
227094
227094
227094
227093
227092
227091
227090
227088
227086
227084
227082
227080
227077
227094
227094
227094
227094
227093
227093
227092
227090
227089
227087
227085
227083
227081
227078
227095
227095
227095
227094
227094
227093
227092
227090
227089
227087
227086
227084
227082
227079
227096
227095
227095
227094
227093
227093
227091
227090
227089
227087
227086
227084
227082
227079
227097
227096
227095
227094
227093
227092
227091
227090
227089
227087
227086
227084
227082
227080
227097
227096
227095
227094
227093
227092
227091
227090
227088
227087
227085
227084
227082
227080
227098
227097
227096
227095
227093
227092
227091
227090
227088
227087
227085
227083
227081
227080
227100
227098
227096
227094
227093
227092
227090
227089
227088
227086
227085
227084
227082
227080
226613
226610
226609
226607
226606
226606
226606
226607
226608
226610
226623
226619
226616
226614
226612
226610
226608
226607
226606
226605
226605
226605
226606
226607
226621
226618
226615
226613
226610
226609
226607
226606
226605
226604
226604
226604
226605
226606
226619
226617
226614
226612
226610
226608
226607
226606
226605
226604
226604
226604
226605
226605
226619
226616
226614
226612
226610
226608
226607
226606
226605
226604
226604
226604
226605
226605
226619
226616
226614
226611
226610
226608
226607
226606
226605
226605
226604
226605
226605