/*--------------------------------*- C++ -*----------------------------------*\
| =========                 |                                                 |
| \\      /  F ield         | OpenFOAM: The Open Source CFD Toolbox           |
|  \\    /   O peration     | Version:  v2106                                 |
|   \\  /    A nd           | Website:  www.openfoam.com                      |
|    \\/     M anipulation  |                                                 |
\*---------------------------------------------------------------------------*/
FoamFile
{
    version     2.0;
    format      ascii;
    arch        "LSB;label=32;scalar=64";
    class       surfaceScalarField;
    location    "0.000122";
    object      phi;
}
// * * * * * * * * * * * * * * * * * * * * * * * * * * * * * * * * * * * * * //

dimensions      [1 0 -1 0 0 0 0];

internalField   nonuniform List<scalar> 
52765
(
1.07506e-06
1.36347e-06
4.32291e-07
-1.89162e-06
-8.06646e-07
1.26843e-06
1.30203e-06
4.10263e-07
1.43546e-06
1.3129e-06
3.72787e-07
1.536e-06
1.22858e-06
3.49615e-07
1.58137e-06
1.11769e-06
2.96049e-07
1.5653e-06
9.75477e-07
2.45222e-07
8.12284e-07
1.98776e-07
1.13212e-06
8.74639e-07
4.10317e-07
-9.19978e-07
1.26982e-06
8.88344e-07
3.67319e-07
1.38342e-06
9.16303e-07
3.2847e-07
1.4473e-06
8.75028e-07
2.988e-07
1.45734e-06
8.10621e-07
2.50278e-07
1.4117e-06
7.16369e-07
2.0279e-07
6.00222e-07
1.62456e-07
1.18119e-06
4.02133e-07
3.40191e-07
-9.99762e-07
1.28636e-06
4.91956e-07
3.00885e-07
1.35969e-06
5.45467e-07
2.67948e-07
1.3845e-06
5.43368e-07
2.39402e-07
1.3622e-06
5.19619e-07
2.01214e-07
1.2923e-06
4.65668e-07
1.62072e-07
3.89353e-07
1.28268e-07
1.26779e-06
-1.5744e-08
2.99674e-07
-1.15685e-06
1.33314e-06
1.18852e-07
2.65454e-07
1.36542e-06
1.99715e-07
2.36783e-07
1.35437e-06
2.31619e-07
2.02085e-07
1.30335e-06
2.39171e-07
1.67699e-07
1.21081e-06
2.19986e-07
1.34422e-07
1.75486e-07
1.0441e-07
1.40304e-06
-3.7944e-07
2.70895e-07
1.42111e-06
-2.18184e-07
2.39416e-07
1.40962e-06
-1.1634e-07
2.07706e-07
1.36056e-06
-5.42725e-08
1.74544e-07
1.28051e-06
-2.53161e-08
1.41684e-07
1.16558e-06
-1.84331e-08
1.10466e-07
-3.69388e-08
8.42073e-08
1.5568e-06
-6.93266e-07
2.64925e-07
1.52953e-06
-5.18456e-07
2.30929e-07
1.47669e-06
-4.00502e-07
1.94309e-07
1.39458e-06
-3.188e-07
1.60667e-07
1.2847e-06
-2.72483e-07
1.28229e-07
1.14739e-06
-2.47591e-07
9.85307e-08
-2.46567e-07
7.4362e-08
1.72591e-06
-9.5135e-07
2.78595e-07
1.65403e-06
-7.78225e-07
2.35259e-07
1.56126e-06
-6.5008e-07
1.95223e-07
1.44685e-06
-5.59353e-07
1.58811e-07
1.30905e-06
-5.00892e-07
1.24096e-07
1.15017e-06
-4.65127e-07
9.57654e-08
-4.51362e-07
7.23269e-08
1.90968e-06
3.11453e-07
1.791e-06
2.56428e-07
1.65615e-06
2.11103e-07
1.50682e-06
1.70176e-07
1.34137e-06
1.32951e-07
1.16196e-06
1.0425e-07
8.12779e-08
9.19436e-07
9.94991e-07
-1.40846e-06
-6.96459e-07
6.42809e-07
1.08195e-06
9.45444e-07
-1.29674e-06
6.22602e-07
1.22471e-06
9.5573e-07
-1.29132e-06
5.90855e-07
1.31689e-06
8.83893e-07
-1.17222e-06
5.70277e-07
1.36435e-06
7.93794e-07
-1.04469e-06
5.22482e-07
1.35961e-06
6.77584e-07
-8.84963e-07
4.77654e-07
1.30275e-06
5.44141e-07
-7.08296e-07
4.35275e-07
1.19832e-06
3.94356e-07
-5.19385e-07
4.01414e-07
1.04894e-06
2.39382e-07
-3.26458e-07
3.7586e-07
8.52769e-07
8.62672e-08
-1.32611e-07
3.56523e-07
6.17687e-07
-5.74998e-08
4.86346e-08
3.58901e-07
3.51377e-07
-2.17207e-07
2.40854e-07
3.73566e-07
4.77453e-08
-3.87144e-07
4.53997e-07
4.0336e-07
-5.10521e-07
6.56863e-07
-3.31891e-07
4.2839e-07
9.60646e-07
6.11754e-07
-7.80741e-07
6.28413e-07
1.08114e-06
6.20253e-07
5.90445e-07
1.18264e-06
6.43821e-07
5.58182e-07
1.24452e-06
6.0777e-07
5.31069e-07
1.26332e-06
5.54872e-07
4.86795e-07
1.23615e-06
4.77451e-07
4.434e-07
1.16514e-06
3.81427e-07
4.05223e-07
1.05271e-06
2.67905e-07
3.7555e-07
9.0212e-07
1.46051e-07
3.55661e-07
7.14449e-07
2.67036e-08
3.48001e-07
4.95525e-07
-8.62481e-08
3.58579e-07
2.41656e-07
-2.07494e-07
3.77329e-07
-4.7452e-08
-3.3677e-07
4.08608e-07
-4.14678e-07
-3.76762e-07
4.4592e-07
1.00004e-06
2.4068e-07
-8.45409e-07
5.6759e-07
1.09359e-06
3.08345e-07
5.3387e-07
1.16141e-06
3.51064e-07
5.065e-07
1.19085e-06
3.47953e-07
4.80647e-07
1.18305e-06
3.2739e-07
4.45292e-07
1.13665e-06
2.82424e-07
4.08858e-07
1.0531e-06
2.18082e-07
3.77147e-07
9.32823e-07
1.37263e-07
3.54431e-07
7.8068e-07
4.41694e-08
3.39575e-07
5.9593e-07
-4.3842e-08
3.36143e-07
3.85282e-07
-1.30253e-07
3.48203e-07
1.44456e-07
-2.15917e-07
3.72511e-07
-1.38044e-07
-2.95754e-07
4.08022e-07
-3.32486e-07
-4.57258e-07
4.47046e-07
1.07083e-06
-8.73767e-08
-9.7167e-07
5.35217e-07
1.13107e-06
1.58678e-08
5.07305e-07
1.16581e-06
7.80583e-08
4.81848e-07
1.1659e-06
1.02014e-07
4.51128e-07
1.13434e-06
1.08106e-07
4.19179e-07
1.07003e-06
9.07224e-08
3.87467e-07
9.74937e-07
5.27356e-08
3.59122e-07
8.47283e-07
1.06953e-09
3.40233e-07
6.91185e-07
-6.41674e-08
3.2822e-07
5.07689e-07
-1.23905e-07
3.29066e-07
3.01691e-07
-1.85182e-07
3.44164e-07
6.95287e-08
-2.38247e-07
3.6915e-07
-1.89267e-07
-2.83593e-07
3.99425e-07
-2.86761e-07
-4.74193e-07
4.39793e-07
1.18471e-06
-3.70686e-07
-1.13857e-06
5.13235e-07
1.20621e-06
-2.47499e-07
4.8559e-07
1.20354e-06
-1.69119e-07
4.58269e-07
1.17079e-06
-1.2258e-07
4.28028e-07
1.11469e-06
-9.88259e-08
3.97244e-07
1.0312e-06
-9.42763e-08
3.68023e-07
9.22653e-07
-1.10745e-07
3.42651e-07
7.87359e-07
-1.3902e-07
3.26791e-07
6.27704e-07
-1.80044e-07
3.1813e-07
4.47539e-07
-2.17495e-07
3.19856e-07
2.48727e-07
-2.55791e-07
3.34637e-07
2.88172e-08
-2.80533e-07
3.59507e-07
-2.13621e-07
-2.94541e-07
3.94006e-07
-2.76119e-07
-4.67677e-07
4.32621e-07
1.31028e-06
-6.15192e-07
-1.30662e-06
5.10286e-07
1.29582e-06
-4.81552e-07
4.80084e-07
1.2586e-06
-3.90296e-07
4.48254e-07
1.1971e-06
-3.27841e-07
4.17732e-07
1.11572e-06
-2.90598e-07
3.87258e-07
1.01385e-06
-2.71462e-07
3.5962e-07
8.92261e-07
-2.72006e-07
3.36098e-07
7.4971e-07
-2.82215e-07
3.22361e-07
5.88869e-07
-3.03847e-07
3.15252e-07
4.12243e-07
-3.2234e-07
3.18007e-07
2.22083e-07
-3.40999e-07
3.32873e-07
1.87257e-08
-3.43549e-07
3.56408e-07
-1.99035e-07
-3.33677e-07
3.90944e-07
-2.86915e-07
-4.33631e-07
4.25864e-07
1.44909e-06
-8.15746e-07
-1.48833e-06
5.23849e-07
1.39855e-06
-6.82593e-07
4.85986e-07
1.32817e-06
-5.82375e-07
4.49842e-07
1.23981e-06
-5.12184e-07
4.17105e-07
1.13507e-06
-4.65343e-07
3.84406e-07
1.01527e-06
-4.37017e-07
3.57907e-07
8.81329e-07
-4.27096e-07
3.3427e-07
7.32237e-07
-4.25226e-07
3.22991e-07
5.71684e-07
-4.33698e-07
3.16933e-07
4.0037e-07
-4.37385e-07
3.19663e-07
2.19676e-07
-4.3995e-07
3.34474e-07
2.79787e-08
-4.22377e-07
3.55333e-07
-1.74277e-07
-3.92542e-07
3.88917e-07
-3.31751e-07
-3.79734e-07
4.19729e-07
1.59766e-06
-9.69618e-07
-1.67865e-06
5.53974e-07
1.50909e-06
-8.44829e-07
5.06511e-07
1.40407e-06
-7.40071e-07
4.64409e-07
1.28746e-06
-6.70086e-07
4.27346e-07
1.16016e-06
-6.20186e-07
3.91755e-07
1.02387e-06
-5.89497e-07
3.65377e-07
8.78903e-07
-5.75185e-07
3.42604e-07
7.25085e-07
-5.6733e-07
3.31577e-07
5.65847e-07
-5.6858e-07
3.26208e-07
4.01212e-07
-5.62156e-07
3.29006e-07
2.32197e-07
-5.53081e-07
3.43457e-07
5.66824e-08
-5.19791e-07
3.63147e-07
-1.24796e-07
-4.73488e-07
3.95474e-07
-4.06558e-07
-3.02261e-07
4.17903e-07
1.73835e-06
-1.07136e-06
-1.86409e-06
5.95662e-07
1.61476e-06
-9.67902e-07
5.40692e-07
1.48003e-06
-8.65452e-07
4.9043e-07
1.33873e-06
-8.01712e-07
4.4832e-07
1.19208e-06
-7.55536e-07
4.09973e-07
1.04131e-06
-7.28316e-07
3.82278e-07
8.86802e-07
-7.15099e-07
3.59506e-07
7.29332e-07
-7.06874e-07
3.47853e-07
5.72569e-07
-7.0638e-07
3.42267e-07
4.15853e-07
-6.94683e-07
3.44687e-07
2.59469e-07
-6.7892e-07
3.58863e-07
1.00899e-07
-6.34665e-07
3.77113e-07
-5.9647e-08
-5.75249e-07
4.08516e-07
-5.09693e-07
-2.09489e-07
4.22943e-07
1.87342e-06
-1.11774e-06
-2.04649e-06
6.45977e-07
1.70854e-06
-1.04482e-06
5.83618e-07
1.5418e-06
-9.54458e-07
5.22388e-07
1.37578e-06
-9.03969e-07
4.78524e-07
1.2115e-06
-8.69371e-07
4.37252e-07
1.04792e-06
-8.52156e-07
4.08109e-07
8.86461e-07
-8.46594e-07
3.8423e-07
7.28831e-07
-8.43691e-07
3.7163e-07
5.77742e-07
-8.46541e-07
3.66236e-07
4.31398e-07
-8.34459e-07
3.67854e-07
2.89615e-07
-8.16592e-07
3.83361e-07
1.50264e-07
-7.67044e-07
3.99866e-07
1.4885e-08
-7.00142e-07
4.2987e-07
-6.40067e-07
-1.06073e-07
4.37922e-07
1.97377e-06
-1.11113e-06
-2.19227e-06
6.98706e-07
1.77268e-06
-1.07655e-06
6.35819e-07
1.58524e-06
-1.01315e-06
5.63932e-07
1.40329e-06
-9.81556e-07
5.17758e-07
1.226e-06
-9.63975e-07
4.73903e-07
1.05218e-06
-9.61938e-07
4.43249e-07
8.86332e-07
-9.68836e-07
4.17652e-07
7.30039e-07
-9.76114e-07
4.0302e-07
5.84703e-07
-9.86616e-07
3.97201e-07
4.48597e-07
-9.78964e-07
3.99034e-07
3.20455e-07
-9.62754e-07
4.16392e-07
2.00343e-07
-9.14774e-07
4.32322e-07
9.25551e-08
-8.48603e-07
4.61411e-07
-8.01213e-07
6.16191e-09
4.67873e-07
2.07266e-06
-1.07073e-06
-2.32155e-06
7.36291e-07
1.84109e-06
-1.06502e-06
6.84171e-07
1.623e-06
-1.03157e-06
6.06173e-07
1.41349e-06
-1.02631e-06
5.56768e-07
1.21675e-06
-1.03559e-06
5.10649e-07
1.03262e-06
-1.05564e-06
4.79456e-07
8.64387e-07
-1.08153e-06
4.54997e-07
7.13238e-07
-1.1058e-06
4.4122e-07
5.78508e-07
-1.12864e-06
4.37388e-07
4.57742e-07
-1.13086e-06
4.40233e-07
3.46596e-07
-1.11815e-06
4.60437e-07
2.49791e-07
-1.07859e-06
4.76844e-07
1.72935e-07
-1.02091e-06
5.0463e-07
-9.94202e-07
1.25129e-07
5.14018e-07
2.13191e-06
-1.02922e-06
-2.37037e-06
7.8512e-07
1.88413e-06
-1.02751e-06
7.35965e-07
1.64218e-06
-1.01839e-06
6.52868e-07
1.41317e-06
-1.04548e-06
6.01575e-07
1.20393e-06
-1.08791e-06
5.5199e-07
1.01147e-06
-1.13372e-06
5.21031e-07
8.40647e-07
-1.18398e-06
4.9754e-07
6.91865e-07
-1.22952e-06
4.83794e-07
5.63562e-07
-1.26811e-06
4.80813e-07
4.56221e-07
-1.28679e-06
4.86922e-07
3.62858e-07
-1.2811e-06
5.10745e-07
2.95124e-07
-1.26082e-06
5.31776e-07
2.56986e-07
-1.2213e-06
5.57841e-07
-1.2176e-06
2.48825e-07
5.7057e-07
2.23175e-06
-9.51232e-07
-2.50454e-06
8.12207e-07
1.94777e-06
-9.53763e-07
7.76127e-07
1.66145e-06
-9.58462e-07
7.01492e-07
1.40248e-06
-1.02876e-06
6.47138e-07
1.16879e-06
-1.11002e-06
5.92135e-07
9.59927e-07
-1.18877e-06
5.58864e-07
7.83208e-07
-1.27245e-06
5.37374e-07
6.38803e-07
-1.34787e-06
5.29662e-07
5.25129e-07
-1.41094e-06
5.3352e-07
4.42274e-07
-1.45469e-06
5.44448e-07
3.78955e-07
-1.46148e-06
5.68646e-07
3.38892e-07
-1.45905e-06
5.89129e-07
3.23382e-07
-1.43494e-06
6.08147e-07
3.29465e-07
-1.4477e-06
6.22677e-07
-2.383e-06
3.22186e-07
5.01789e-07
-2.8334e-06
4.38126e-07
6.78411e-07
-3.25729e-06
6.00046e-07
9.03657e-07
-3.62997e-06
7.65839e-07
1.18818e-06
-3.95661e-06
9.81037e-07
1.48086e-06
1.16639e-06
1.83293e-06
-1.79977e-06
-4.9144e-08
3.2466e-07
4.51651e-07
-2.15801e-06
-2.3368e-07
4.66061e-07
5.77406e-07
-2.48975e-06
-4.38167e-07
6.41815e-07
7.44099e-07
-2.7747e-06
-7.11302e-07
8.62243e-07
9.17463e-07
-3.01749e-06
-9.70491e-07
1.08104e-06
1.13529e-06
-1.31017e-06
1.35909e-06
-3.20657e-06
1.33177e-06
-1.80933e-06
3.27116e-07
5.60692e-07
-2.3534e-06
1.72144e-07
7.03732e-07
-2.93676e-06
1.40507e-08
9.0765e-07
-3.56985e-06
-2.09616e-07
1.12358e-06
-4.21389e-06
-4.48394e-07
1.40397e-06
-7.80537e-07
-4.85789e-06
1.69036e-06
-1.89901e-06
7.73183e-07
6.41886e-07
-2.57468e-06
6.89327e-07
8.08923e-07
-3.32514e-06
6.17762e-07
1.05623e-06
-4.16862e-06
4.92275e-07
1.32135e-06
-5.08661e-06
3.41155e-07
1.65931e-06
1.03993e-07
-6.08216e-06
2.01498e-06
-1.77073e-06
1.18684e-06
6.99977e-07
-2.49357e-06
1.2285e-06
8.72801e-07
-3.34711e-06
1.29447e-06
1.13179e-06
-4.35047e-06
1.32293e-06
1.41102e-06
-5.49717e-06
1.32863e-06
1.79426e-06
1.24188e-06
-6.77366e-06
2.20058e-06
-1.59569e-06
1.52337e-06
6.92353e-07
-2.2794e-06
1.69555e-06
8.6076e-07
-3.11107e-06
1.91332e-06
1.12432e-06
-4.12044e-06
2.12585e-06
1.41077e-06
-5.29668e-06
2.31298e-06
1.80775e-06
2.38254e-06
-6.61617e-06
2.24181e-06
-1.34018e-06
1.73881e-06
6.66388e-07
-1.91583e-06
2.02561e-06
8.19983e-07
-2.62082e-06
2.37333e-06
1.06366e-06
-3.47874e-06
2.74197e-06
1.33845e-06
-4.46958e-06
3.06713e-06
1.70841e-06
3.25115e-06
-5.57889e-06
2.10112e-06
-1.03202e-06
1.80368e-06
6.17023e-07
-1.44571e-06
2.17095e-06
7.56502e-07
-1.95104e-06
2.60203e-06
9.66372e-07
-2.54745e-06
3.05378e-06
1.20866e-06
-3.20215e-06
3.41897e-06
1.52186e-06
3.60422e-06
-3.88093e-06
1.80532e-06
-6.96776e-07
1.71098e-06
5.5481e-07
-9.05124e-07
2.09427e-06
6.78923e-07
-1.15619e-06
2.54667e-06
8.51645e-07
-1.43137e-06
2.99805e-06
1.0461e-06
-1.70015e-06
3.31401e-06
1.26471e-06
3.4091e-06
-1.88477e-06
1.4014e-06
-3.55879e-07
1.46697e-06
4.88289e-07
-3.45668e-07
1.79243e-06
5.94504e-07
-3.15202e-07
2.1944e-06
7.28662e-07
-2.46094e-07
2.56972e-06
8.6592e-07
-1.49798e-07
2.80835e-06
9.79754e-07
2.89077e-06
-8.09691e-08
1.04361e-06
-2.53294e-08
1.08789e-06
4.39433e-07
1.58328e-07
1.31442e-06
5.18528e-07
4.15219e-07
1.60864e-06
6.19761e-07
7.54268e-07
1.85721e-06
7.10973e-07
1.13128e-06
2.00793e-06
7.74197e-07
2.0523e-06
1.48408e-06
7.77094e-07
2.60926e-07
6.22131e-07
3.9829e-07
5.56915e-07
7.39155e-07
4.58116e-07
9.49499e-07
9.02778e-07
5.32469e-07
1.43479e-06
1.01685e-06
5.94427e-07
1.96267e-06
1.07827e-06
6.42355e-07
1.03689e-06
2.5166e-06
6.16563e-07
4.82718e-07
1.51531e-07
3.58579e-07
7.92952e-07
1.73418e-07
4.06601e-07
1.20198e-06
2.08487e-07
4.70588e-07
1.70967e-06
1.87233e-07
5.2278e-07
2.26819e-06
1.57487e-07
5.75641e-07
2.43014e-08
2.86849e-06
5.67648e-07
6.63684e-07
-2.49904e-07
3.23897e-07
9.06342e-07
-2.85133e-07
3.6887e-07
1.21766e-06
-3.43119e-07
4.38132e-07
1.58969e-06
-4.56301e-07
4.85783e-07
2.0123e-06
-5.6504e-07
5.56493e-07
-7.51709e-07
2.45204e-06
5.87176e-07
7.27103e-07
-4.70962e-07
2.66615e-07
8.16264e-07
-5.45751e-07
3.31417e-07
9.52773e-07
-6.74499e-07
3.93847e-07
1.10029e-06
-8.21853e-07
4.56477e-07
1.27418e-06
-9.74239e-07
5.49316e-07
-1.17925e-06
1.44241e-06
6.17887e-07
-3.78394e-07
-5.74119e-07
2.87219e-07
-3.60496e-07
-7.30605e-07
3.65447e-07
-3.18307e-07
-9.00307e-07
4.44826e-07
-2.12951e-07
-1.1241e-06
5.38657e-07
-5.57686e-08
-1.33779e-06
6.7241e-07
-1.62554e-06
1.66511e-07
7.85252e-07
-5.58205e-07
-5.77482e-07
3.77653e-07
-7.25676e-07
-7.6219e-07
4.72774e-07
-8.93344e-07
-9.41059e-07
5.92879e-07
-1.04747e-06
-1.18777e-06
7.24628e-07
-1.19352e-06
-1.41538e-06
9.07509e-07
-1.74535e-06
-1.31004e-06
1.08578e-06
-7.2711e-07
-5.26308e-07
4.52144e-07
-1.0255e-06
-6.913e-07
5.7835e-07
-1.37165e-06
-8.31982e-07
7.22842e-07
-1.76037e-06
-1.03841e-06
9.03125e-07
-2.19863e-06
-1.21878e-06
1.13487e-06
-1.51231e-06
-2.68316e-06
1.38904e-06
-8.01172e-07
-4.43183e-07
5.11563e-07
-1.19605e-06
-5.47483e-07
6.54085e-07
-1.68158e-06
-6.05956e-07
8.21489e-07
-2.26321e-06
-7.19129e-07
1.03777e-06
-2.94666e-06
-8.03788e-07
1.30857e-06
-9.89152e-07
-3.73676e-06
1.63502e-06
-8.154e-07
-3.61629e-07
5.54996e-07
-1.2568e-06
-3.78336e-07
7.06823e-07
-1.8098e-06
-3.34621e-07
8.87696e-07
-2.49327e-06
-3.18519e-07
1.12368e-06
-3.31522e-06
-2.70656e-07
1.41783e-06
-2.86649e-07
-4.30098e-06
1.79795e-06
-7.72333e-07
-3.05624e-07
5.8016e-07
-1.20493e-06
-2.35348e-07
7.33733e-07
-1.75366e-06
-8.69553e-08
9.17797e-07
-2.45193e-06
7.29835e-08
1.1475e-06
-3.30748e-06
2.76337e-07
1.45033e-06
4.50812e-07
-4.34169e-06
1.85634e-06
-6.80113e-07
-2.97966e-07
5.91896e-07
-1.06412e-06
-1.53051e-07
7.40071e-07
-1.55345e-06
8.67216e-08
9.19942e-07
-2.18488e-06
3.80926e-07
1.14363e-06
-2.95323e-06
7.08773e-07
1.44189e-06
9.93977e-07
-3.82324e-06
1.82232e-06
-5.52694e-07
-3.43474e-07
5.88922e-07
-8.62513e-07
-1.4952e-07
7.3236e-07
-1.25121e-06
1.5381e-07
8.99033e-07
-1.73965e-06
5.32265e-07
1.10969e-06
-2.2954e-06
9.11296e-07
1.38317e-06
1.19149e-06
-2.85328e-06
1.6847e-06
-4.01115e-07
-4.42501e-07
5.7667e-07
-6.21679e-07
-2.30873e-07
7.13606e-07
-8.79824e-07
9.04215e-08
8.69297e-07
-1.17382e-06
4.83603e-07
1.05731e-06
-1.45512e-06
8.29391e-07
1.2967e-06
1.01578e-06
-1.67419e-06
1.49884e-06
-2.42642e-07
-5.81096e-07
5.62246e-07
-3.69389e-07
-3.92281e-07
6.91548e-07
-4.80735e-07
-1.0814e-07
8.43901e-07
-5.54323e-07
2.20085e-07
1.01468e-06
-5.73175e-07
4.76641e-07
1.19275e-06
5.9197e-07
-5.6085e-07
1.31874e-06
-8.82769e-08
-7.36163e-07
5.46217e-07
-1.4023e-07
-6.03417e-07
6.65381e-07
-1.24252e-07
-4.08835e-07
8.08392e-07
-2.04296e-08
-2.00474e-07
9.54702e-07
1.50587e-07
-4.27905e-08
1.07994e-06
2.2912e-08
3.37589e-07
1.17092e-06
4.85745e-08
-8.79117e-07
5.208e-07
1.65948e-08
-8.05383e-07
6.27939e-07
7.3093e-08
-7.20285e-07
7.53787e-07
2.30398e-07
-6.41848e-07
8.80905e-07
4.54216e-07
-5.83054e-07
9.97926e-07
-5.87936e-07
7.2543e-07
1.09685e-06
1.42031e-07
-9.54722e-07
4.71395e-07
6.77762e-08
-9.31241e-07
5.68698e-07
6.81224e-08
-9.40555e-07
6.85094e-07
1.45273e-07
-9.61696e-07
8.09515e-07
2.91879e-07
-9.94537e-07
9.28106e-07
-1.07684e-06
4.96069e-07
1.04817e-06
1.44358e-07
-9.10944e-07
4.05917e-07
-7.32531e-09
-9.40265e-07
5.00388e-07
-1.23905e-07
-1.00335e-06
6.02014e-07
-2.04619e-07
-1.07747e-06
7.25729e-07
-2.50035e-07
-1.16209e-06
8.5477e-07
-1.28774e-06
-2.74734e-07
9.93032e-07
-1.51436e-06
-9.86026e-07
4.12279e-07
-1.53655e-06
-1.07239e-06
5.19542e-07
-1.53942e-06
-1.16845e-06
6.43756e-07
-1.49997e-06
-1.29981e-06
7.87211e-07
-1.4233e-06
-1.43298e-06
9.54357e-07
-1.63317e-06
-1.29297e-06
1.1214e-06
-1.62178e-06
-9.76076e-07
5.18952e-07
-1.81576e-06
-1.06774e-06
6.46344e-07
-2.00131e-06
-1.18167e-06
8.03365e-07
-2.1783e-06
-1.32984e-06
9.8308e-07
-2.33882e-06
-1.48816e-06
1.19538e-06
-1.73023e-06
-2.47668e-06
1.42225e-06
-1.71327e-06
-9.32409e-07
6.0499e-07
-2.01055e-06
-9.9211e-07
7.51681e-07
-2.34242e-06
-1.07756e-06
9.29712e-07
-2.71156e-06
-1.1945e-06
1.15267e-06
-3.11781e-06
-1.32029e-06
1.41234e-06
-1.53607e-06
-3.5621e-06
1.71195e-06
-1.75698e-06
-8.81692e-07
6.62175e-07
-2.10722e-06
-8.91734e-07
8.31711e-07
-2.5446e-06
-8.95683e-07
1.0255e-06
-3.06493e-06
-9.32237e-07
1.27694e-06
-3.67484e-06
-9.74383e-07
1.57448e-06
-1.10164e-06
-4.37698e-06
1.94006e-06
-1.75774e-06
-8.5126e-07
7.03147e-07
-2.1352e-06
-7.94076e-07
8.82965e-07
-2.60892e-06
-7.08863e-07
1.08595e-06
-3.19177e-06
-6.3784e-07
1.35018e-06
-3.89732e-06
-5.59889e-07
1.664e-06
-5.33343e-07
-4.7429e-06
2.07445e-06
-1.71003e-06
-8.46556e-07
7.29215e-07
-2.07684e-06
-7.31021e-07
9.11147e-07
-2.5409e-06
-5.55408e-07
1.11603e-06
-3.12786e-06
-3.64415e-07
1.38144e-06
-3.84478e-06
-1.60435e-07
1.70608e-06
7.85101e-09
-4.6971e-06
2.12991e-06
-1.62084e-06
-8.81854e-07
7.42878e-07
-1.94812e-06
-7.22294e-07
9.20173e-07
-2.35441e-06
-4.75903e-07
1.12441e-06
-2.86675e-06
-1.83612e-07
1.38207e-06
-3.47436e-06
1.11166e-07
1.69906e-06
3.44235e-07
-4.16357e-06
2.08868e-06
-1.51057e-06
-9.5449e-07
7.49358e-07
-1.77776e-06
-7.78003e-07
9.20243e-07
-2.08851e-06
-4.96343e-07
1.12142e-06
-2.45788e-06
-1.5805e-07
1.36399e-06
-2.85942e-06
1.52132e-07
1.6608e-06
3.5014e-07
-3.26799e-06
1.97502e-06
-1.38959e-06
-1.05572e-06
7.53352e-07
-1.5879e-06
-8.94896e-07
9.21092e-07
-1.78303e-06
-6.29036e-07
1.12283e-06
-1.97113e-06
-3.17074e-07
1.35728e-06
-2.12931e-06
-7.0554e-08
1.61712e-06
3.42336e-08
-2.25804e-06
1.84392e-06
-1.28694e-06
-1.15873e-06
7.50553e-07
-1.42429e-06
-1.04996e-06
9.21241e-07
-1.50177e-06
-8.61857e-07
1.12403e-06
-1.51644e-06
-6.43367e-07
1.34451e-06
-1.4827e-06
-4.86669e-07
1.54239e-06
-4.29316e-07
-1.43783e-06
1.69822e-06
-1.20396e-06
-1.2311e-06
7.44626e-07
-1.32386e-06
-1.19036e-06
9.09021e-07
-1.35406e-06
-1.11192e-06
1.09524e-06
-1.28896e-06
-1.01896e-06
1.28911e-06
-1.1605e-06
-9.62707e-07
1.46919e-06
-9.93483e-07
-9.82034e-07
1.6408e-06
-1.17798e-06
-1.22009e-06
7.05307e-07
-1.34834e-06
-1.24173e-06
8.59639e-07
-1.43531e-06
-1.2646e-06
1.03315e-06
-1.41956e-06
-1.2969e-06
1.22382e-06
-1.32869e-06
-1.34447e-06
1.40613e-06
-1.47239e-06
-1.17174e-06
1.59774e-06
-1.26718e-06
-1.068e-06
6.60283e-07
-1.54539e-06
-1.13827e-06
8.05863e-07
-1.75881e-06
-1.23815e-06
9.74739e-07
-1.89266e-06
-1.36562e-06
1.16407e-06
-1.96171e-06
-1.49905e-06
1.35602e-06
-1.69469e-06
-1.99075e-06
1.55544e-06
-1.39046e-06
-7.48338e-07
5.55055e-07
-1.81496e-06
-8.47994e-07
6.94032e-07
-2.22228e-06
-9.72008e-07
8.68364e-07
-2.58851e-06
-1.14809e-06
1.06566e-06
-2.92778e-06
-1.32123e-06
1.27224e-06
-1.52453e-06
-3.28157e-06
1.49038e-06
-1.02701e-06
6.1977e-08
3.60852e-07
-8.05781e-07
9.78022e-08
4.44812e-07
-4.77436e-07
1.5351e-07
5.41168e-07
-4.55478e-08
1.21058e-07
6.033e-07
4.6927e-07
-3.06742e-08
6.52521e-07
-3.47387e-07
6.25065e-07
-8.80804e-07
-3.39266e-07
3.43203e-07
-6.8171e-07
-4.17488e-07
4.28631e-07
-3.85656e-07
-4.941e-07
5.33741e-07
-7.93135e-09
-6.53189e-07
6.11835e-07
4.20734e-07
-9.03629e-07
7.00005e-07
-1.27879e-06
7.19333e-07
-9.27188e-07
-5.59751e-07
3.50933e-07
-8.94062e-07
-7.02867e-07
4.34174e-07
-7.92345e-07
-8.73013e-07
5.5399e-07
-6.3017e-07
-1.12852e-06
6.45655e-07
-4.46603e-07
-1.43377e-06
7.75584e-07
-1.82722e-06
8.46773e-07
-1.03128e-06
3.0053e-07
-1.24573e-06
3.91268e-07
-1.42326e-06
5.11432e-07
-1.5976e-06
6.38049e-07
-1.81087e-06
7.93256e-07
9.17755e-07
-2.93261e-06
-4.34302e-07
5.77129e-07
-3.33936e-06
-5.66971e-07
7.26753e-07
-3.71891e-06
-7.1924e-07
9.29249e-07
-4.07163e-06
-9.26807e-07
1.14578e-06
-4.38171e-06
-1.1436e-06
1.39879e-06
-1.40343e-06
-4.64635e-06
1.66094e-06
-2.87374e-06
-7.0515e-08
7.1606e-07
-3.42396e-06
-1.602e-07
8.75981e-07
-4.02876e-06
-2.49909e-07
1.11304e-06
-4.69009e-06
-4.02575e-07
1.36981e-06
-5.36151e-06
-6.04873e-07
1.69069e-06
-8.67443e-07
-6.02935e-06
2.02772e-06
-2.91215e-06
3.45723e-07
7.99647e-07
-3.58037e-06
3.31251e-07
9.82987e-07
-4.3251e-06
3.32201e-07
1.26558e-06
-5.1611e-06
2.73714e-07
1.56831e-06
-6.07112e-06
1.61247e-07
1.95031e-06
-1.40994e-08
-7.05657e-06
2.35315e-06
-2.77516e-06
7.27974e-07
8.54436e-07
-3.46739e-06
8.20373e-07
1.04271e-06
-4.26429e-06
9.45106e-07
1.33438e-06
-5.20943e-06
1.04442e-06
1.64815e-06
-6.29302e-06
1.09141e-06
2.0585e-06
1.04853e-06
-7.48605e-06
2.50656e-06
-2.56297e-06
1.01426e-06
8.49622e-07
-3.20485e-06
1.23107e-06
1.02829e-06
-3.96719e-06
1.49152e-06
1.3083e-06
-4.88881e-06
1.75696e-06
1.62766e-06
-5.95029e-06
1.96343e-06
2.04297e-06
2.05638e-06
-7.13796e-06
2.51086e-06
-2.28329e-06
1.17976e-06
8.19762e-07
-2.81321e-06
1.50063e-06
9.94218e-07
-3.44787e-06
1.86733e-06
1.25721e-06
-4.19718e-06
2.2506e-06
1.5567e-06
-5.04431e-06
2.55407e-06
1.94272e-06
2.71501e-06
-5.96831e-06
2.34256e-06
-1.9731e-06
1.2009e-06
7.76004e-07
-2.33474e-06
1.57308e-06
9.39071e-07
-2.76263e-06
1.99657e-06
1.17094e-06
-3.24455e-06
2.42031e-06
1.4368e-06
-3.75408e-06
2.72166e-06
1.75355e-06
2.84523e-06
-4.23908e-06
2.02666e-06
-1.65205e-06
1.0792e-06
7.28146e-07
-1.81455e-06
1.43046e-06
8.741e-07
-1.9881e-06
1.84295e-06
1.07443e-06
-2.15424e-06
2.2245e-06
1.29783e-06
-2.31035e-06
2.46082e-06
1.51444e-06
2.53841e-06
-2.45623e-06
1.65271e-06
-1.34206e-06
8.31801e-07
6.8689e-07
-1.3118e-06
1.09274e-06
8.17297e-07
-1.23258e-06
1.42358e-06
9.84146e-07
-1.10118e-06
1.70419e-06
1.142e-06
-9.48425e-07
1.8623e-06
1.26899e-06
1.89013e-06
-8.20195e-07
1.33254e-06
-1.07401e-06
4.98682e-07
6.4764e-07
-9.07971e-07
6.29981e-07
7.63888e-07
-6.41817e-07
8.22275e-07
8.98481e-07
-2.92011e-07
9.67357e-07
1.01101e-06
9.47647e-08
1.02785e-06
1.10601e-06
9.71176e-07
4.91162e-07
1.13025e-06
-8.53994e-07
1.35775e-07
6.11453e-07
-6.55993e-07
1.56458e-07
7.22813e-07
-3.59448e-07
2.13835e-07
8.5218e-07
3.68027e-08
2.18936e-07
9.5217e-07
5.11535e-07
1.54104e-07
1.04438e-06
-2.23712e-08
1.0446e-06
1.06842e-06
-7.36422e-07
-1.82018e-07
5.60769e-07
-5.60583e-07
-2.53273e-07
6.71199e-07
-2.98448e-07
-3.09521e-07
8.01601e-07
4.48306e-08
-4.21339e-07
9.08006e-07
4.47064e-07
-5.81565e-07
1.02522e-06
-8.40376e-07
8.90536e-07
1.07725e-06
-7.67732e-07
-3.61462e-07
5.27274e-07
-7.24986e-07
-4.80694e-07
6.2893e-07
-6.23414e-07
-6.13175e-07
7.64609e-07
-4.64793e-07
-8.07744e-07
8.78212e-07
-2.69271e-07
-1.02482e-06
1.02603e-06
-1.32258e-06
-6.12222e-08
1.11801e-06
-8.54307e-07
4.34137e-07
-1.00613e-06
5.40856e-07
-1.12767e-06
6.73772e-07
-1.23856e-06
8.13516e-07
-1.36101e-06
9.80469e-07
-1.52104e-06
1.11983e-06
-3.93092e-06
-5.58301e-06
5.95993e-06
4.96623e-06
-4.38699e-06
-8.61197e-06
8.78457e-06
6.772e-06
-4.26894e-06
-1.19694e-05
1.15912e-05
9.11414e-06
-3.26779e-06
-1.57086e-05
1.42716e-05
1.15002e-05
-1.94389e-05
1.68771e-05
1.38036e-05
-6.56053e-06
-4.06269e-06
5.76955e-06
-8.14859e-06
-7.09341e-06
8.27868e-06
-9.11083e-06
-1.11226e-05
1.14251e-05
-9.00872e-06
-1.62088e-05
1.48955e-05
-2.13601e-05
1.86297e-05
-8.50966e-06
-1.73462e-06
6.29643e-06
-1.09121e-05
-4.74608e-06
9.10501e-06
-1.25878e-05
-9.68611e-06
1.24708e-05
-1.33113e-05
-1.58372e-05
1.63461e-05
-2.37537e-05
2.10854e-05
-9.54537e-06
9.08115e-07
6.42865e-06
-1.22034e-05
-2.29596e-06
9.22278e-06
-1.4193e-05
-8.0122e-06
1.23678e-05
-1.45185e-05
-1.63567e-05
1.61312e-05
-2.84953e-05
2.00384e-05
-9.233e-06
3.32278e-06
6.07127e-06
-1.18956e-05
2.37776e-08
8.44127e-06
-1.37917e-05
-6.66469e-06
1.09046e-05
-1.38298e-05
-1.77073e-05
1.34976e-05
-3.35981e-05
1.53707e-05
-7.70409e-06
5.07071e-06
5.2909e-06
-1.00973e-05
1.78425e-06
6.90814e-06
-1.20322e-05
-5.74141e-06
8.23925e-06
-1.26515e-05
-1.86607e-05
8.94894e-06
-3.66994e-05
1.0073e-05
-5.33599e-06
5.89674e-06
4.216e-06
-7.3853e-06
2.78903e-06
4.80788e-06
-9.74408e-06
-4.84913e-06
4.80949e-06
-1.1598e-05
-1.84909e-05
4.09839e-06
-3.76032e-05
4.85728e-06
-2.5964e-06
5.76639e-06
2.97242e-06
-4.09645e-06
2.89363e-06
2.77836e-06
-6.96438e-06
-3.89297e-06
1.66648e-06
-1.03594e-05
-1.68837e-05
1.72655e-07
-1.27727e-05
-3.62325e-05
8.7363e-07
-5.87208e-05
3.63565e-06
-2.2298e-08
4.74126e-06
1.85831e-06
-7.86685e-07
2.16673e-06
1.21079e-06
-3.42102e-06
-3.30322e-06
-5.37735e-07
-8.15657e-06
-1.39338e-05
-2.28261e-06
-1.45894e-05
-3.11787e-05
-1.70842e-06
-5.392e-05
1.17261e-06
2.07928e-06
3.04219e-06
1.19045e-06
2.03414e-06
7.44244e-07
3.75213e-07
2.98582e-07
-3.48321e-06
-1.26439e-06
-4.30574e-06
-1.10162e-05
-3.13071e-06
-1.32937e-05
-2.37841e-05
-2.38272e-06
-4.35686e-05
1.09089e-06
3.4745e-06
9.46873e-07
9.83728e-07
3.94756e-06
-1.12112e-06
2.36056e-07
3.1862e-06
-4.34218e-06
-9.95091e-07
-2.82734e-07
-9.11236e-06
-2.52223e-06
-9.1641e-06
-1.64199e-05
-1.35279e-06
-2.59689e-05
-2.95809e-05
2.56703e-06
-5.23395e-05
5.43845e-06
4.00795e-06
-1.29442e-06
1.12655e-06
4.80201e-06
-3.21738e-06
6.35465e-07
4.75773e-06
-5.70777e-06
-1.19867e-07
2.92754e-06
-8.68594e-06
-1.07612e-06
-2.71435e-06
-1.2107e-05
5.15719e-08
-1.7028e-05
-1.78094e-05
3.80915e-06
-4.72319e-05
-2.8947e-05
8.4362e-06
-1.33929e-05
1.77331e-05
-1.8803e-05
-1.16843e-05
-1.62132e-05
3.53752e-06
-3.35208e-06
1.53189e-06
4.45567e-06
-5.28528e-06
1.39259e-06
4.85298e-06
-7.33046e-06
1.33018e-06
4.27533e-06
-9.4077e-06
1.28028e-06
2.61394e-06
-1.17529e-05
2.0224e-06
-1.86221e-06
-1.45098e-05
3.76312e-06
-6.53288e-06
-4.30211e-06
4.58826e-06
-1.92337e-06
-5.64162e-06
-1.45511e-06
-4.60963e-06
-4.17613e-06
-4.61591e-06
-1.69537e-05
-5.97521e-06
2.85203e-06
2.24513e-06
-4.98711e-06
2.13698e-06
3.10578e-06
-7.12337e-06
2.41516e-06
4.0277e-06
-9.27711e-06
2.92512e-06
4.86139e-06
-1.13766e-05
3.30024e-06
5.58412e-06
-1.35604e-05
3.56163e-06
1.61462e-06
-1.62771e-05
4.0017e-06
1.82078e-06
1.68452e-06
1.73926e-06
1.81297e-06
-4.57656e-06
8.68234e-07
4.13997e-06
-7.18759e-06
1.02172e-07
5.66909e-06
-2.28521e-06
2.95942e-07
-5.82263e-06
2.89609e-06
6.21804e-07
-8.25074e-06
3.69433e-06
1.26231e-06
-1.07435e-05
4.84765e-06
2.30215e-06
-1.33229e-05
5.89093e-06
3.51285e-06
-1.58063e-05
6.8429e-06
1.30259e-06
-1.81307e-05
7.64832e-06
1.29473e-06
8.47666e-07
9.75622e-07
4.99463e-06
1.34272e-06
1.93184e-06
-5.13183e-06
4.93733e-06
2.19532e-06
-4.23428e-06
-1.0806e-06
-2.00257e-06
-5.73723e-06
3.66007e-06
-2.58139e-06
-8.25861e-06
5.16555e-06
-2.85448e-06
-1.10081e-05
7.243e-06
-2.51416e-06
-1.43231e-05
9.48325e-06
-1.70549e-06
-1.74226e-05
1.17139e-05
-2.15977e-07
-1.97182e-05
1.39307e-05
-6.12259e-07
2.72517e-08
-3.79984e-07
5.10752e-06
-1.47607e-07
-5.31016e-06
3.59606e-06
3.96237e-06
-4.62386e-06
3.49966e-06
1.57387e-07
-4.21411e-06
-4.7232e-06
4.33933e-06
-5.93521e-06
-6.98795e-06
6.4662e-06
-7.42888e-06
-9.93546e-06
9.28375e-06
-8.00313e-06
-1.43949e-05
1.25833e-05
-7.274e-06
-1.89793e-05
1.62762e-05
-1.42504e-06
-2.28357e-05
2.02747e-05
-1.41077e-06
-1.20936e-06
-1.27521e-06
5.42753e-06
-1.20738e-06
-5.92724e-06
5.90816e-06
5.61062e-06
-2.44942e-06
-5.3361e-06
8.55272e-06
1.31922e-06
-5.90105e-06
-3.03924e-06
4.8111e-06
-8.36047e-06
-4.94587e-06
7.2983e-06
-1.04299e-05
-8.34889e-06
1.04202e-05
-1.15533e-05
-1.37512e-05
1.41348e-05
-1.06606e-05
-2.05409e-05
1.89022e-05
-1.77928e-06
-2.81317e-05
2.45485e-05
-1.59621e-06
-1.86349e-06
-1.36675e-06
6.78222e-06
-8.71797e-07
-8.053e-06
7.29345e-06
6.11132e-06
5.76951e-07
-7.24242e-06
7.56899e-06
5.39747e-08
-6.79166e-06
-1.03715e-06
5.00418e-06
-9.51682e-06
-2.65018e-06
7.55762e-06
-1.18048e-05
-6.63325e-06
1.05146e-05
-1.29232e-05
-1.32583e-05
1.40544e-05
-1.1732e-05
-2.28954e-05
1.85236e-05
-1.8041e-06
-3.43062e-05
2.42385e-05
-1.98159e-06
-2.00531e-06
-1.43236e-06
9.55093e-06
-4.75358e-07
-1.12016e-05
6.97554e-06
1.04827e-05
-1.05191e-05
7.84487e-06
-7.03867e-07
-6.70285e-06
8.42429e-07
4.9127e-06
-9.16835e-06
-6.48164e-07
7.17319e-06
-1.14342e-05
-4.97581e-06
9.46214e-06
-1.26318e-05
-1.2977e-05
1.20129e-05
-1.21742e-05
-2.4708e-05
1.47942e-05
-2.74323e-06
-3.82579e-05
1.95018e-05
-2.46054e-06
-2.41555e-06
-1.87594e-06
1.23761e-05
-2.29387e-06
-1.32233e-05
6.21064e-06
1.12653e-05
-1.40894e-05
7.07265e-06
1.96721e-06
-5.56362e-06
2.08868e-06
4.46477e-06
-7.51293e-06
7.12568e-07
6.16592e-06
-9.54097e-06
-3.8139e-06
7.47905e-06
-1.11753e-05
-1.27166e-05
8.6911e-06
-1.18931e-05
-2.57793e-05
9.82535e-06
-3.33112e-06
-4.09441e-05
1.3073e-05
-2.45225e-06
-2.75751e-06
-2.13966e-06
1.35799e-05
-3.41942e-06
-1.37939e-05
4.52377e-06
1.74614e-05
-8.53632e-06
-1.49024e-05
8.50988e-06
4.51976e-06
-3.77546e-06
2.44733e-06
3.81489e-06
-5.22167e-06
1.32398e-06
4.87052e-06
-7.37261e-06
-2.90021e-06
5.20205e-06
-9.88409e-06
-1.18476e-05
5.2506e-06
-1.15099e-05
-2.5931e-05
5.63017e-06
-1.09912e-05
-4.36401e-05
7.74506e-06
-1.80215e-06
1.12076e-05
-1.93651e-06
-2.14662e-06
-8.17865e-07
1.39762e-05
1.48753e-05
1.22039e-05
1.32756e-05
1.67437e-05
-9.77928e-07
-1.86213e-05
3.62723e-06
-1.9477e-06
2.03464e-06
3.18152e-06
-2.77611e-06
1.16742e-06
3.63895e-06