/*--------------------------------*- C++ -*----------------------------------*\
| =========                 |                                                 |
| \\      /  F ield         | OpenFOAM: The Open Source CFD Toolbox           |
|  \\    /   O peration     | Version:  v2106                                 |
|   \\  /    A nd           | Website:  www.openfoam.com                      |
|    \\/     M anipulation  |                                                 |
\*---------------------------------------------------------------------------*/
FoamFile
{
    version     2.0;
    format      ascii;
    arch        "LSB;label=32;scalar=64";
    class       volVectorField;
    location    "0.000122";
    object      U;
}
// * * * * * * * * * * * * * * * * * * * * * * * * * * * * * * * * * * * * * //

dimensions      [0 1 -1 0 0 0 0];

internalField   nonuniform List<vector> 
18109
(
(6.62324 11.5587 4.31189)
(8.28866 10.8612 3.9634)
(9.59027 10.8904 3.35577)
(10.6747 10.0811 2.98039)
(11.1276 9.11234 2.13253)
(11.2786 7.91223 1.33811)
(10.9009 6.56894 0.612713)
(7.30013 7.87893 3.88093)
(8.50749 7.69816 3.20925)
(9.37115 7.8452 2.57001)
(10.1395 7.40993 2.09785)
(10.3607 6.80059 1.34279)
(10.243 5.97687 0.605204)
(9.69663 4.99599 -0.0150956)
(7.7351 4.52721 2.73453)
(8.75391 4.89525 2.12084)
(9.33147 5.17721 1.58006)
(9.8005 5.0217 1.1163)
(9.76104 4.70767 0.526853)
(9.42938 4.18787 -0.0757206)
(8.75628 3.51285 -0.595596)
(8.57517 1.31363 2.04355)
(9.18309 2.12557 1.4935)
(9.58982 2.60371 1.0362)
(9.67155 2.72106 0.482911)
(9.41361 2.67009 -0.0597152)
(8.88979 2.41455 -0.568873)
(8.10905 1.99161 -1.02593)
(9.7541 -1.42079 1.55133)
(9.97222 -0.378966 1.05668)
(10.0618 0.276704 0.541348)
(9.80805 0.607927 0.0225409)
(9.33833 0.740104 -0.49509)
(8.63595 0.701197 -0.978266)
(7.70797 0.482176 -1.38055)
(11.0106 -3.83416 1.43429)
(10.9266 -2.63226 0.896505)
(10.6504 -1.84955 0.309747)
(10.1525 -1.33596 -0.218864)
(9.45522 -1.06912 -0.731322)
(8.57494 -0.954562 -1.19894)
(7.50961 -1.01355 -1.57136)
(12.3856 -5.8781 1.64085)
(11.9571 -4.6184 0.951561)
(11.3599 -3.73751 0.317083)
(10.6186 -3.11795 -0.262225)
(9.71469 -2.74373 -0.80416)
(8.65804 -2.5285 -1.25332)
(7.4683 -2.47514 -1.61365)
(13.876 -7.47879 2.15894)
(13.0617 -6.28023 1.27441)
(12.1563 -5.35545 0.562509)
(11.1423 -4.70836 -0.0866831)
(10.0266 -4.27792 -0.668174)
(8.80231 -4.0127 -1.12588)
(7.4944 -3.89396 -1.48096)
(5.67873 8.54332 7.90844)
(7.07255 7.97178 7.59851)
(8.16631 8.00833 7.08216)
(9.10857 7.33253 6.76036)
(9.55556 6.54639 6.00723)
(9.74883 5.57036 5.29073)
(9.49165 4.48018 4.62735)
(8.90846 3.28031 4.10485)
(8.01566 2.05074 3.72214)
(6.78624 0.861291 3.45078)
(5.19647 -0.253335 3.51675)
(3.41211 -1.47711 3.79167)
(1.43788 -2.76829 4.31143)
(-0.898984 -4.02237 4.7236)
(6.18826 5.63512 7.63248)
(7.21591 5.48237 7.04103)
(7.98757 5.60921 6.51881)
(8.67677 5.23498 6.1029)
(8.92819 4.74092 5.41609)
(8.91628 4.0667 4.74189)
(8.536 3.26215 4.15801)
(7.87449 2.33325 3.70851)
(6.95205 1.3567 3.41496)
(5.73874 0.375882 3.32206)
(4.2712 -0.558395 3.50141)
(2.60513 -1.57985 3.83174)
(0.721182 -2.63741 4.3561)
(-1.4674 -3.26823 4.9537)
(6.54414 3.02451 6.6623)
(7.40598 3.29486 6.12982)
(7.93837 3.52441 5.68944)
(8.38677 3.38424 5.29483)
(8.42764 3.12256 4.75216)
(8.23992 2.69473 4.19222)
(7.76564 2.13233 3.70505)
(7.0251 1.45152 3.36092)
(6.08171 0.693181 3.14461)
(4.86585 -0.0294609 3.1162)
(3.4538 -0.718195 3.32146)
(1.862 -1.43685 3.73201)
(0.0500078 -2.20824 4.31814)
(-2.07841 -2.67584 4.92712)
(7.20833 0.492288 6.11872)
(7.76892 1.11034 5.67217)
(8.13647 1.48603 5.27607)
(8.28399 1.57245 4.80083)
(8.14 1.52573 4.31367)
(7.79601 1.30807 3.83278)
(7.2342 0.949851 3.40067)
(6.43351 0.486536 3.11717)
(5.44424 -0.0692407 2.95447)
(4.22051 -0.583142 2.99105)
(2.84747 -1.10539 3.24627)
(1.307 -1.59362 3.66107)
(-0.429011 -2.01948 4.15585)
(-2.32495 -2.18647 4.78844)
(8.19999 -1.6347 5.74239)
(8.43244 -0.838543 5.31597)
(8.55316 -0.335602 4.88783)
(8.40127 -0.086622 4.42489)
(8.07093 0.022714 3.95878)
(7.57191 -0.0192877 3.51326)
(6.8951 -0.2088 3.1327)
(6.02832 -0.487632 2.89298)
(4.9885 -0.856003 2.78204)
(3.77796 -1.19278 2.828)
(2.44317 -1.53534 3.07618)
(0.964876 -1.79583 3.4849)
(-0.654321 -2.02582 4.03589)
(-2.40146 -1.97388 4.64896)
(9.22303 -3.51828 5.67482)
(9.21456 -2.59839 5.2105)
(9.04326 -1.99414 4.71215)
(8.67426 -1.60519 4.24499)
(8.16071 -1.38895 3.78685)
(7.50693 -1.3027 3.36514)
(6.71731 -1.36038 3.01417)
(5.77865 -1.49393 2.80996)
(4.70786 -1.71173 2.72513)
(3.51205 -1.90752 2.78964)
(2.22056 -2.10758 3.04045)
(0.831502 -2.20799 3.42868)
(-0.644707 -2.22978 3.96925)
(-2.24517 -1.94612 4.51991)
(10.3535 -5.10506 5.87523)
(10.061 -4.13951 5.28484)
(9.63147 -3.4542 4.73063)
(9.05341 -2.9779 4.22697)
(8.3707 -2.67759 3.73143)
(7.56755 -2.50989 3.32234)
(6.6781 -2.47576 2.97142)
(5.67031 -2.50413 2.80218)
(4.57949 -2.60905 2.73136)
(3.40566 -2.68648 2.79531)
(2.16828 -2.76187 3.04311)
(0.851857 -2.71012 3.3846)
(-0.523732 -2.57532 3.90456)
(-1.99214 -2.18009 4.38507)
(11.5603 -6.34376 6.33822)
(10.9532 -5.41839 5.59164)
(10.2717 -4.68993 4.9558)
(9.47218 -4.18687 4.38182)
(8.61713 -3.84164 3.8366)
(7.67776 -3.63072 3.42362)
(6.69179 -3.54357 3.08179)
(5.63149 -3.50763 2.91596)
(4.52847 -3.5411 2.85297)
(3.38476 -3.5313 2.91947)
(2.21176 -3.50861 3.16466)
(0.992647 -3.33049 3.48121)
(-0.240721 -3.06162 3.98317)
(-1.56699 -2.59318 4.33203)
(12.7082 -7.28301 6.98154)
(11.7852 -6.42789 6.11434)
(10.9026 -5.67445 5.35666)
(9.90423 -5.19664 4.69879)
(8.90011 -4.85497 4.10644)
(7.84295 -4.65062 3.67056)
(6.77295 -4.55361 3.32633)
(5.669 -4.49654 3.15556)
(4.56172 -4.49781 3.09926)
(3.45629 -4.43157 3.16386)
(2.35449 -4.34447 3.39955)
(1.23793 -4.06877 3.68987)
(0.160869 -3.69227 4.17647)
(-1.03576 -3.22201 4.38838)
(13.838 -7.75826 7.75102)
(12.5432 -7.13048 6.75855)
(11.4459 -6.43797 5.83362)
(10.2319 -6.03031 5.14877)
(9.0903 -5.73899 4.51381)
(7.92557 -5.5783 4.05708)
(6.78804 -5.50695 3.70874)
(5.66142 -5.46209 3.53221)
(4.57373 -5.46702 3.4731)
(3.52418 -5.38315 3.52099)
(2.51204 -5.26374 3.77192)
(1.50787 -4.93197 4.03331)
(0.617043 -4.47998 4.50298)
(-0.42862 -4.03945 4.61368)
(14.7386 -7.95335 8.54014)
(13.0649 -7.53528 7.54202)
(11.8253 -6.94675 6.45342)
(10.4591 -6.63363 5.73492)
(9.22524 -6.44299 5.06424)
(7.97883 -6.37764 4.59964)
(6.79092 -6.38539 4.23281)
(5.66283 -6.40252 4.0211)
(4.59836 -6.44994 3.95036)
(3.60294 -6.37759 3.99583)
(2.67947 -6.25636 4.27408)
(1.7795 -5.91098 4.52565)
(1.08864 -5.43264 4.98793)
(0.22284 -5.05809 5.07839)
(15.5324 -7.65298 9.06732)
(13.5786 -7.57066 8.26546)
(12.1615 -7.24938 7.07152)
(10.6003 -7.10666 6.30556)
(9.21157 -7.05446 5.6094)
(7.86723 -7.10107 5.15771)
(6.63201 -7.20463 4.80786)
(5.5229 -7.30552 4.60837)
(4.51447 -7.41674 4.56476)
(3.60556 -7.39862 4.62219)
(2.80593 -7.29421 4.94654)
(2.02996 -6.98867 5.20684)
(1.56043 -6.54087 5.65536)
(0.923464 -6.28589 5.79749)
(15.9204 -7.40926 9.80953)
(13.8815 -7.35362 9.04643)
(12.3646 -7.19738 7.77325)
(10.6439 -7.26156 6.98204)
(9.15412 -7.43502 6.24613)
(7.73758 -7.66743 5.78791)
(6.45959 -7.9392 5.44944)
(5.36443 -8.19574 5.2496)
(4.38517 -8.4171 5.21816)
(3.53579 -8.48206 5.32742)
(2.8537 -8.40448 5.71385)
(2.22977 -8.17235 6.05477)
(1.97749 -7.80918 6.47811)
(1.69131 -7.68124 6.66962)
(16.6445 -6.93678 10.1603)
(14.4431 -7.0154 9.6294)
(12.5969 -7.0544 8.50442)
(10.6518 -7.3807 7.69407)
(8.98752 -7.79928 6.85548)
(7.42394 -8.20641 6.35315)
(6.06988 -8.64259 6.04518)
(4.9673 -9.03702 5.94223)
(4.05614 -9.36648 6.01989)
(3.34662 -9.57331 6.20448)
(2.85393 -9.55837 6.59788)
(2.45234 -9.50388 6.92745)
(2.29988 -9.28845 7.23361)
(2.19784 -9.32621 7.44529)
(7.11752 14.5001 5.43887)
(5.65154 16.2583 6.8639)
(4.15825 18.3817 8.78927)
(2.16464 20.8253 10.2924)
(0.444982 23.3023 12.2277)
(-1.62668 26.1896 13.3867)
(6.04826 10.81 8.89004)
(4.8786 12.1871 10.0524)
(3.6606 13.8142 11.6903)
(2.06195 15.6896 13.0687)
(0.713841 17.5262 14.8295)
(-1.01516 19.7388 15.9255)
(7.34674 10.1497 8.78593)
(6.99331 12.3064 10.0328)
(6.52303 14.3852 11.9774)
(5.68772 17.0946 13.688)
(4.78237 19.8734 15.9456)
(3.33305 23.1955 17.8819)
(8.73933 10.3007 8.48143)
(8.84964 12.9753 9.91733)
(8.92841 15.4312 12.1677)
(8.81988 18.4812 14.2344)
(8.54635 21.5332 16.8325)
(7.87674 25.2781 19.258)
(9.98736 9.38228 8.15523)
(10.6786 12.13 9.51215)
(11.4575 14.7985 11.6972)
(12.1106 18.1777 13.7698)
(12.593 21.5942 16.6542)
(12.7013 25.8836 19.3808)
(10.6659 8.43516 7.21816)
(11.9526 11.0308 8.47136)
(13.447 13.549 10.6195)
(14.9579 16.7961 12.7231)
(16.3474 20.1106 15.6385)
(17.2355 24.2317 18.5141)
(11.0718 7.16164 6.40689)
(12.8027 9.41845 7.4842)
(14.874 11.6008 9.39581)
(17.1075 14.3545 11.3746)
(19.1732 17.1171 13.9579)
(20.5556 20.5265 16.3226)
(10.983 5.73104 5.58934)
(13.1039 7.42868 6.54365)
(15.629 9.15488 8.10449)
(18.3479 11.2407 9.77371)
(20.7287 13.1286 11.7936)
(22.1894 15.4283 13.1769)
(10.4715 4.21417 4.83106)
(12.7867 5.17665 5.67724)
(15.4841 6.29642 6.88588)
(18.2697 7.56267 8.12472)
(20.41 8.50863 9.30419)
(21.2052 9.55913 9.71176)
(9.55962 2.64458 4.17688)
(11.8533 2.80508 4.89506)
(14.6005 3.22403 5.75165)
(17.2814 3.53552 6.49637)
(19.0481 3.64445 6.86881)
(19.5955 3.65129 6.81355)
(8.15012 0.950219 3.87369)
(10.0997 0.490614 4.34569)
(12.4583 0.292644 4.921)
(14.6706 -0.225673 5.2756)
(16.2125 -0.966227 5.30279)
(16.9709 -1.82355 4.77763)
(6.24902 -0.710567 3.79391)
(7.77155 -1.59254 4.06893)
(9.66833 -2.33206 4.4272)
(11.3484 -3.44984 4.5718)
(12.5487 -4.77442 4.54062)
(13.0543 -6.24675 3.77756)
(4.01047 -2.26866 3.89099)
(4.98662 -3.27083 4.03368)
(6.21043 -4.31404 4.33572)
(7.20228 -5.78144 4.42697)
(8.02298 -7.43853 4.50718)
(8.10667 -9.36744 3.92186)
(1.72184 -3.73723 4.3187)
(2.12243 -4.73444 4.40688)
(2.59595 -5.79309 4.83717)
(2.71376 -7.2325 4.87316)
(2.95228 -8.87123 5.20144)
(2.50228 -10.8348 4.99489)
(-0.704728 -4.97923 4.57706)
(-0.929675 -5.41843 5.05342)
(-1.32141 -6.3807 5.3912)
(-1.87196 -7.61897 5.655)
(-2.34745 -9.04436 6.33431)
(-3.2095 -10.9062 6.55675)
(-3.23598 -4.33726 5.02416)
(-3.72229 -5.27427 5.76408)
(-4.96767 -6.14587 6.34196)
(-5.91002 -7.58451 7.05498)
(-7.10919 -8.77028 8.20863)
(-8.42836 -10.5317 8.84775)
(-3.66691 -3.12738 5.31455)
(-5.06155 -4.01675 6.15646)
(-6.80866 -4.62403 7.19526)
(-8.52419 -5.93615 8.21262)
(-10.5192 -6.92411 9.69929)
(-12.6664 -8.64824 10.8759)
(-4.3658 -2.59433 5.40892)
(-6.1437 -3.241 6.55393)
(-8.35106 -3.60633 7.69206)
(-10.5752 -4.47072 9.1258)
(-13.0952 -5.0101 10.8908)
(-15.9012 -6.29964 12.6049)
(-4.48999 -2.00583 5.44041)
(-6.56434 -2.33407 6.64108)
(-8.99323 -2.29324 7.90642)
(-11.5918 -2.63562 9.53984)
(-14.5015 -2.68208 11.4657)
(-17.7269 -3.3447 13.6953)
(-4.39784 -1.62901 5.40878)
(-6.55179 -1.57405 6.6147)
(-9.00052 -1.09723 7.9136)
(-11.6876 -0.840984 9.61989)
(-14.7049 -0.323596 11.609)
(-18.0761 -0.32112 14.156)
(-4.06657 -1.45802 5.33585)
(-6.12372 -1.02589 6.4861)
(-8.37917 -0.155345 7.74889)
(-10.988 0.695968 9.29948)
(-13.8848 1.81561 11.3117)
(-17.1423 2.71315 14.0255)
(-3.54309 -1.61102 5.27234)
(-5.35374 -0.837051 6.32367)
(-7.32493 0.40899 7.51332)
(-9.65356 1.87155 8.99189)
(-12.3058 3.62335 10.9397)
(-15.0811 5.23932 13.4289)
(-2.84841 -1.98212 5.2087)
(-4.32959 -1.00431 6.20943)
(-5.93512 0.599156 7.27669)
(-7.86546 2.59478 8.64158)
(-9.99948 4.71613 10.4128)
(-11.9149 6.39796 12.1982)
(-2.03396 -2.61718 5.21301)
(-3.08067 -1.46197 6.17317)
(-4.25398 0.346161 7.14813)
(-5.70489 2.59463 8.32928)
(-7.08663 4.72714 9.81453)
(-8.09469 6.11706 10.7206)
(-1.13104 -3.51065 5.39899)
(-1.7029 -2.29172 6.30724)
(-2.36225 -0.424496 7.28646)
(-3.17625 1.77994 8.30747)
(-3.71405 3.60348 9.21115)
(-3.92008 4.40216 9.51257)
(-0.118413 -4.60512 5.80702)
(-0.290443 -3.50117 6.6421)
(-0.432802 -1.83113 7.57329)
(-0.519849 0.0431174 8.3486)
(-0.332014 1.56427 8.80308)
(0.17315 2.42507 8.89024)
(0.957787 -5.88378 6.35464)
(1.02647 -5.05063 7.07727)
(1.23712 -3.87146 7.88013)
(1.70892 -2.54841 8.52561)
(2.37047 -1.41327 8.95395)
(3.3728 -0.738639 9.16726)
(1.9808 -7.39525 6.90008)
(2.06756 -6.8988 7.52104)
(2.50037 -6.29893 8.29201)
(3.15497 -5.68299 9.0196)
(4.08893 -5.0561 9.54613)
(5.31127 -4.78759 10.0166)
(2.45863 -8.92303 7.63456)
(2.60058 -8.85214 8.23938)
(3.24765 -8.93835 8.8356)
(3.91119 -9.00286 9.6671)
(4.9125 -9.00326 10.413)
(6.13358 -9.28732 11.1205)
(3.02635 -10.6158 7.76452)
(3.44968 -10.9979 8.64307)
(3.84284 -11.6104 9.60188)
(4.5856 -12.0943 10.6573)
(5.30057 -12.6877 11.8556)
(6.48878 -13.4515 12.804)
(2.75102 -10.6088 7.76196)
(2.85547 -11.7987 8.75898)
(3.1105 -12.9497 10.0056)
(3.79503 -14.1018 11.3331)
(4.43835 -15.419 12.8386)
(5.72367 -16.8898 14.2474)
(2.69921 -10.8731 7.67561)
(2.71955 -12.2986 8.7764)
(2.91574 -13.8643 10.0814)
(3.3039 -15.4686 11.72)
(3.64021 -17.3088 13.5072)
(4.53486 -19.3655 15.4231)
(2.77597 -10.9587 7.41595)
(2.59094 -12.3539 8.70094)
(2.37676 -14.0621 10.0264)
(2.35994 -15.9177 11.7657)
(2.31778 -18.1133 13.7171)
(2.79149 -20.5837 16.0645)
(3.18283 -10.8563 7.20422)
(2.69331 -12.1853 8.51683)
(2.03998 -13.8449 9.8209)
(1.55927 -15.6662 11.5617)
(0.979655 -17.8893 13.51)
(0.773496 -20.3433 16.117)
(3.80035 -10.4803 7.05508)
(3.10558 -11.7052 8.31512)
(2.07419 -13.1672 9.58669)
(1.03496 -14.8767 11.2407)
(-0.100397 -16.9631 13.1877)
(-1.02375 -19.207 15.7613)
(4.66869 -9.92152 6.98327)
(3.77329 -10.9101 8.15427)
(2.43426 -12.0797 9.38825)
(0.887197 -13.5085 10.9495)
(-0.731174 -15.2165 12.8174)
(-2.10008 -16.9383 15.0441)
(5.75713 -9.23387 7.05615)
(4.77422 -9.92794 8.15304)
(3.21118 -10.677 9.35713)
(1.32828 -11.7062 10.7644)
(-0.518746 -12.7806 12.4689)
(-1.89356 -13.7422 14.0525)
(7.10283 -8.44894 7.3271)
(6.07355 -8.78164 8.41205)
(4.37944 -9.04818 9.64646)
(2.41702 -9.57798 10.9733)
(0.737763 -9.80974 12.298)
(0.00394206 -10.0704 13.1111)
(8.70014 -7.68591 7.78072)
(7.78928 -7.6622 8.95278)
(6.21725 -7.41684 10.2324)
(4.43339 -7.25661 11.4035)
(3.03844 -6.81987 12.1594)
(2.34939 -6.27279 12.4914)
(10.4274 -6.94714 8.51502)
(9.79749 -6.63283 9.64987)
(8.6769 -6.01542 10.7832)
(7.35592 -5.26695 11.7643)
(6.26588 -4.23281 12.4398)
(5.74806 -2.9756 12.9653)
(12.4402 -6.36586 9.15184)
(12.1976 -5.9774 10.2341)
(11.6359 -5.17006 11.3271)
(10.9566 -4.17171 12.4294)
(10.3261 -2.76146 13.228)
(10.2157 -1.06893 13.9994)
(14.3284 -6.41885 10.2979)
(14.6257 -6.10096 11.2932)
(14.7455 -5.23522 12.4241)
(14.8994 -4.09832 13.6139)
(14.8454 -2.51787 14.6082)
(15.2957 -0.624042 15.5057)
(16.4457 -6.52745 11.0142)
(17.31 -6.43304 11.9983)
(18.0126 -5.62292 13.4022)
(18.8857 -4.69613 14.8761)
(19.5067 -3.12779 16.1793)
(20.522 -1.326 17.3629)
(7.46407 0.300502 2.61791)
(5.93414 -0.914364 3.16768)
(4.40212 -2.31436 3.73982)
(2.35711 -3.21649 3.8465)
(-0.109549 -3.37568 3.78179)
(-2.99854 -2.36643 3.0133)
(6.17752 3.94875 3.02944)
(4.46066 3.36038 3.67506)
(2.54914 2.68399 4.4472)
(0.175745 2.48464 4.74493)
(-2.58492 2.96421 5.09664)
(-5.73548 4.42741 4.70737)
(5.79651 7.71478 4.23982)
(4.25745 7.94961 4.90043)
(2.56321 8.09761 5.96206)
(0.174677 8.81819 6.38491)
(-2.54838 9.91735 7.20784)
(-5.81559 11.7078 7.25527)
(5.23402 11.5595 4.87964)
(4.57661 12.6635 5.78653)
(3.07897 13.8455 7.01637)
(1.01403 15.4313 8.03766)
(-1.43837 17.1978 9.25961)
(-4.37798 19.3558 9.87437)
(17.9194 -7.10702 11.5347)
(19.3759 -6.70739 12.6736)
(20.3321 -5.7421 14.5356)
(21.9509 -4.71501 16.1917)
(23.2476 -3.49633 18.0667)
(25.001 -2.2903 19.6638)
(17.0036 -7.87233 11.4223)
(18.922 -7.92011 12.5093)
(20.3707 -7.64031 14.5786)
(22.7002 -7.26793 16.4737)
(24.9043 -6.45647 18.8733)
(27.688 -5.51816 21.0706)
(16.9364 -8.42977 10.7392)
(19.2724 -8.99789 12.0541)
(21.0267 -9.35204 14.493)
(23.6003 -9.57501 16.7069)
(26.049 -9.3239 19.4994)
(29.3169 -8.92122 22.0943)
(16.03 -9.02096 10.1692)
(18.3598 -10.0218 11.4504)
(20.1776 -11.0001 13.8117)
(22.8264 -11.9009 16.0158)
(25.526 -12.4488 18.9306)
(29.0629 -12.7455 21.8084)
(14.9695 -8.89221 9.15966)
(16.9996 -10.3218 10.2949)
(18.7299 -11.9595 12.4047)
(21.1521 -13.7107 14.5615)
(23.6694 -15.1493 17.4066)
(26.8808 -16.0891 20.2699)
(13.5875 -8.55812 8.22747)
(15.1491 -10.4444 9.28999)
(16.6011 -12.6019 11.1568)
(18.5257 -14.9204 13.1247)
(20.408 -16.8462 15.5677)
(22.8747 -18.0929 17.7082)
(12.1409 -7.71355 7.42673)
(13.0385 -9.89757 8.39196)
(14.0117 -12.3725 9.95008)
(15.2335 -14.9518 11.5783)
(16.2596 -16.9629 13.3381)
(17.5928 -17.9602 14.4846)
(10.6462 -6.46557 6.81902)
(10.779 -8.7137 7.66503)
(11.1275 -11.2897 8.9206)
(11.4699 -13.7749 10.1529)
(11.6621 -15.4037 11.0622)
(11.8828 -15.9785 11.3279)
(9.13088 -4.7773 6.52852)
(8.53549 -6.80888 7.24984)
(8.18837 -9.20468 8.2003)
(7.63438 -11.3715 8.86345)
(6.98223 -12.7455 9.14433)
(6.20194 -13.3025 8.83717)
(7.66409 -2.66835 6.47352)
(6.5528 -4.20608 7.07997)
(5.55674 -6.2246 7.74619)
(4.18502 -8.00713 8.07178)
(2.66105 -9.13909 8.1721)
(0.990802 -9.47117 7.58355)
(6.26312 -0.265135 6.69972)
(4.92496 -1.21788 7.29396)
(3.63563 -2.49686 7.97154)
(1.9165 -3.52703 8.2194)
(-0.0937204 -4.11135 8.33576)
(-2.43687 -3.98813 7.75815)
(5.23873 2.59199 7.00704)
(3.79771 2.16599 7.66513)
(2.24275 1.53649 8.46089)
(0.294619 1.16638 8.8331)
(-1.92897 1.15944 9.25737)
(-4.52904 1.83984 8.94983)
(4.93144 5.51638 8.01767)
(3.65116 5.74257 8.60225)
(2.28862 5.81263 9.57541)
(0.360937 6.26658 10.0412)
(-1.77274 6.83823 10.8662)
(-4.44696 7.97238 10.9212)
(4.52355 8.541 8.46212)
(3.95898 9.41923 9.24961)
(2.77121 10.3098 10.3282)
(1.14645 11.479 11.2868)
(-0.781117 12.6716 12.4469)
(-3.20637 14.2364 13.0154)
(-4.51293 24.3087 18.963)
(-11.4125 30.5005 23.0726)
(-18.8572 36.4886 27.978)
(-28.5514 40.5415 31.4565)
(-38.6233 44.0561 33.7901)
(0.333026 29.1748 22.5315)
(-6.22851 37.2537 28.7571)
(-14.314 45.1765 35.2832)
(-25.7389 50.4681 40.6735)
(-37.6796 54.4998 45.4744)
(6.03429 31.5025 24.9286)
(-0.0941649 41.0265 31.6045)
(-10.9533 50.0637 37.9037)
(-26.8816 57.6221 44.2116)
(-45.5908 64.3018 50.6629)
(11.5403 32.1481 25.5426)
(4.59601 42.1544 31.7455)
(-10.1426 51.083 36.9431)
(-33.0066 59.5275 42.7599)
(-63.9109 65.3407 46.1109)
(16.3986 30.2736 24.0395)
(8.05121 39.2491 28.8447)
(-11.0509 47.4478 31.9199)
(-42.4919 55.5668 34.3528)
(-86.6007 59.2662 33.0003)
(19.1784 25.7343 20.5164)
(9.06008 33.3097 22.9754)
(-14.7149 39.6436 23.3137)
(-54.2133 47.6668 21.285)
(-108.085 49.5957 21.0463)
(20.0071 19.0429 15.5883)
(9.23945 24.211 14.6114)
(-16.7343 29.6322 12.2927)
(-61.1971 36.3147 7.44147)
(-120.232 38.0567 9.43993)
(19.29 11.0962 10.1038)
(8.99215 13.005 6.6552)
(-16.8184 18.234 1.53118)
(-63.1426 22.5573 -3.27389)
(-125.998 25.1965 0.613238)
(-188.083 20.5914 7.16206)
(18.0713 3.01645 5.39626)
(9.05869 2.35938 1.11297)
(-12.7367 5.69367 -5.66745)
(-55.2257 6.81071 -9.23952)
(-117.922 11.1696 -5.41211)
(-186.78 10.5504 2.53473)
(15.1745 -4.07671 2.63206)
(7.44852 -6.62536 -1.41629)
(-9.51935 -6.86583 -7.18257)
(-42.0321 -7.58329 -11.2263)
(-95.7091 -4.16684 -6.60643)
(-165.765 0.502733 2.95232)
(11.2823 -9.55749 1.87135)
(5.18228 -13.4406 -1.47566)
(-6.83693 -16.1622 -5.42051)
(-28.7659 -18.2225 -8.82661)
(-66.6158 -15.1715 -3.33564)
(-127.09 -8.63374 6.94488)
(-200.587 -1.9954 9.2872)
(6.51848 -13.3554 2.65846)
(1.66333 -18.1109 0.327354)
(-6.40407 -22.2712 -2.04917)
(-19.4076 -24.5798 -4.1057)
(-40.242 -23.291 0.281655)
(-77.8964 -17.0633 9.63858)
(-145.727 -7.26731 15.7927)
(-233.62 3.81819 9.78584)
(0.787239 -15.0102 4.56813)
(-3.10982 -20.3841 3.35444)
(-8.27871 -25.0527 2.91667)
(-15.1388 -27.4292 2.66483)
(-24.3452 -28.0328 4.86361)
(-38.3719 -29.3624 9.49886)
(-65.9495 -21.3184 10.4339)
(-143.779 21.9918 11.6399)
(-5.41589 -15.0256 7.3043)
(-8.97102 -20.9793 7.27601)
(-12.7231 -26.6298 8.2057)
(-16.3456 -31.8271 8.53255)
(-20.422 -36.5794 8.71561)
(-25.9508 -41.1026 10.0262)
(-30.7474 -45.6056 7.3753)
(-46.1003 -64.1217 2.15464)
(-11.5816 -13.9172 10.5225)
(-15.7863 -20.0044 12.0238)
(-19.9469 -26.2193 14.4467)
(-23.1619 -33.2008 16.0352)
(-26.1878 -40.2734 16.8628)
(-29.2881 -47.0012 17.5051)
(-32.8142 -53.6312 15.8313)
(-37.8012 -49.3 17.1178)
(-17.0695 -11.5219 13.667)
(-22.4978 -17.5146 17.4463)
(-28.0347 -23.5762 22.2337)
(-32.0434 -31.2356 26.2678)
(-34.5625 -38.4591 29.215)
(-35.0594 -44.2203 31.3355)
(-37.1355 -49.0471 29.394)
(-36.6836 -43.9198 27.2486)
(-21.0965 -8.1796 16.4502)
(-27.9628 -13.2261 22.127)
(-35.691 -19.0278 28.6038)
(-41.2838 -28.3994 34.6021)
(-44.8753 -38.669 40.2483)
(-43.9204 -48.8756 45.5498)
(-42.3143 -52.8805 47.7775)
(-38.4841 -50.1426 53.5434)
(-23.4008 -4.37294 18.3355)
(-31.3855 -8.50668 25.0259)
(-39.9804 -15.7075 31.8989)
(-46.2483 -29.209 38.6081)
(-51.8306 -45.427 46.5526)
(-49.4352 -63.9788 54.5317)
(-46.716 -77.0862 59.4808)
(-26.5259 -78.0823 60.0719)
(-23.8393 -0.18693 19.0254)
(-32.1232 -3.79085 25.7876)
(-40.5079 -13.8114 31.6085)
(-46.5708 -32.4802 37.6387)
(-51.9481 -58.055 44.3457)
(-49.685 -87.0241 51.6083)
(-49.725 -111.643 54.3232)
(-26.7246 -110.183 54.7558)
(-22.3338 3.67027 18.5994)
(-29.821 0.173507 24.1179)
(-36.2914 -12.2813 27.6638)
(-41.8456 -35.8265 31.0072)
(-45.2782 -69.9392 33.4499)
(-44.7836 -107.61 39.8255)
(-48.5543 -142.072 47.3028)
(-41.692 -150.173 51.7669)
(-18.9774 6.43008 16.6939)
(-24.5762 1.98754 20.1705)
(-28.7336 -12.7357 21.0955)
(-32.8627 -40.3138 20.8654)
(-34.6745 -79.1638 20.2811)
(-34.151 -121.571 25.5395)
(-36.9092 -161.639 34.4391)
(-39.4378 -177.907 48.5715)
(-14.1478 7.03572 13.8267)
(-17.1507 2.52667 14.9486)
(-20.2826 -12.4278 13.1243)
(-22.9369 -42.5067 11.1718)
(-24.3311 -86.1828 10.4681)
(-20.1971 -134.9 14.137)
(-12.2381 -177.683 18.4116)
(-1.02086 -199.061 25.9321)
(-8.62055 6.372 11.0844)
(-9.24252 3.04704 10.3012)
(-11.0192 -10.5584 7.08248)
(-13.0536 -40.1111 3.9845)
(-14.7815 -86.7041 4.78967)
(-10.9929 -143.899 9.55774)
(-3.29822 4.5482 9.32097)
(-2.10815 2.42197 7.61292)
(-1.94204 -7.42173 4.61143)
(-3.18374 -30.9488 0.654373)
(-4.08789 -74.1988 1.17491)
(-3.3546 -136.837 6.83038)
(1.62065 2.66938 8.46832)
(3.88155 0.606534 7.08789)
(6.07154 -5.66171 4.74616)
(6.55161 -20.8915 1.82821)
(7.20708 -52.2091 3.17349)
(5.99884 -109.286 9.49597)
(5.56322 -0.466304 8.97256)
(8.84673 -1.85204 7.97056)
(12.3249 -5.47815 6.22438)
(14.7573 -13.763 4.46889)
(16.3015 -30.7709 5.96893)
(16.1751 -66.1228 12.057)
(8.05381 -4.76568 10.3726)
(12.1931 -5.78017 10.0226)
(16.4334 -7.53422 9.65281)
(19.9086 -10.9068 9.30331)
(22.5649 -17.8652 10.5639)
(27.765 -31.3017 12.7077)
(9.18945 -10.0096 12.2652)
(14.1234 -11.2694 12.8758)
(19.5059 -12.4554 13.7047)
(25.435 -13.4963 13.5597)
(31.9414 -15.7018 13.4531)
(9.1182 -15.3416 14.7387)
(14.2629 -17.7995 16.8083)
(20.2607 -19.9369 19.2592)
(27.5009 -21.4669 20.351)
(35.5199 -23.0319 20.8766)
(8.06845 -20.0627 17.2559)
(13.099 -24.0679 21.4638)
(18.9035 -28.2606 26.1497)
(26.52 -31.005 29.8522)
(33.9072 -32.5759 32.6024)
(6.07347 -23.314 19.4451)
(10.3455 -29.0942 25.2188)
(15.9104 -35.6515 31.5461)
(24.9581 -40.364 37.362)
(35.2199 -43.3677 42.9928)
(3.64648 -24.9623 20.7141)
(7.10218 -31.789 27.1761)
(14.4057 -39.3596 33.8044)
(27.3621 -45.5062 40.9641)
(43.4536 -50.6569 48.6947)
(0.744702 -24.8569 20.8866)
(4.04043 -31.9873 27.4254)
(13.8389 -39.4783 33.1338)
(32.1265 -45.5741 39.3767)
(57.7438 -50.6237 45.2095)
(-1.74644 -23.1086 19.9777)
(1.67612 -29.1814 25.2941)
(13.8694 -34.9109 28.8362)
(37.2536 -39.9757 31.6909)
(71.2626 -43.4436 33.9372)
(-2.79364 -19.6808 18.1298)
(1.71909 -23.7988 21.3403)
(15.9907 -26.8853 22.0656)
(43.2938 -30.3615 21.7728)
(81.9055 -32.3125 21.556)
(-1.96088 -15.0643 15.6923)
(2.63067 -16.3198 16.4656)
(17.5505 -18.1156 14.8566)
(47.2466 -20.1151 13.0712)
(90.2905 -21.4372 13.3153)
(0.098591 -9.93689 13.4715)
(3.76051 -8.83727 12.4653)
(17.2493 -9.51051 9.7773)
(45.8426 -9.64225 7.62286)
(91.1097 -11.3413 9.86165)
(2.42423 -4.71984 12.3885)
(6.05252 -2.34408 11.1506)
(16.3382 -0.805984 8.65344)
(38.7656 0.414851 6.1838)
(79.6935 -1.09396 8.48111)
(6.06382 -0.378958 12.8628)
(8.96092 3.1803 11.9305)
(15.7137 6.64607 10.2296)
(30.5234 8.88741 8.98111)
(59.7282 9.24648 12.945)
(10.7571 2.46489 14.4026)
(13.0478 7.3934 14.1455)
(17.0781 12.3544 13.3889)
(25.2698 15.8167 13.2036)
(40.8904 18.0764 17.2706)
(16.5144 3.32657 16.7202)
(18.8393 9.03438 17.7562)
(21.0311 14.6869 18.8919)
(24.1576 19.4169 20.2429)
(29.9933 22.2625 23.9404)
(22.691 2.59644 19.673)
(25.7321 8.86886 22.4579)
(28.0289 15.9645 25.1791)
(29.3131 23.7895 26.8874)
(29.9544 31.6023 28.6611)
(28.487 0.895815 23.0745)
(33.5205 6.88491 27.8298)
(37.5962 14.2431 32.743)
(40.1096 23.8516 35.9565)
(41.8807 34.506 37.9144)
(32.4071 -2.9955 26.0418)
(39.4926 2.4647 32.7023)
(46.1222 10.7694 39.2345)
(50.5965 22.1541 44.7463)
(53.6468 34.4287 49.5878)
(34.5639 -7.16999 27.8906)
(42.9562 -1.43076 34.76)
(50.6954 9.46024 41.0976)
(58.118 24.8943 47.7748)
(63.9417 43.9689 54.0401)
(34.4165 -11.5013 27.7863)
(43.259 -4.68614 33.9882)
(51.4032 10.0748 39.2817)
(59.5674 32.8713 45.2224)
(64.8336 63.9885 47.796)
(31.7666 -14.9029 25.4922)
(39.6895 -6.57239 30.0341)
(46.971 12.4778 33.3011)
(54.6878 43.9577 35.1162)
(58.379 88.0465 33.8577)
(26.7828 -16.1774 21.4786)
(32.872 -5.9734 23.5626)
(38.4792 17.6392 23.9815)
(45.984 57.1244 22.183)
(48.1669 110.699 22.0124)
(19.7757 -15.5876 16.3542)
(23.4962 -4.75464 15.2058)
(27.8079 21.1628 13.0793)
(33.8238 65.4457 9.29804)
(35.6271 123.832 11.5797)
(11.8138 -13.7277 11.0859)
(12.5011 -3.02645 8.04829)
(15.936 22.5603 3.3371)
(19.5463 68.1154 -0.332111)
(21.6632 130.023 4.83638)
(4.10907 -10.9909 7.42879)
(2.28711 -1.45294 3.36153)
(3.43348 20.1492 -2.51226)
(3.80178 61.208 -4.52274)
(6.98865 121.883 1.05378)
(-2.33648 -6.7569 5.79192)
(-6.20325 1.43946 2.18784)
(-8.29333 18.2921 -2.46563)
(-10.0393 49.5628 -4.55217)
(-7.99006 100.434 1.57578)
(-6.90831 -1.49275 6.28681)
(-12.3075 5.10188 3.76069)
(-16.8937 16.8701 0.940187)
(-19.4372 37.9552 -0.585068)
(-18.1319 72.9204 6.76376)
(-9.57979 4.48474 8.29624)
(-16.1391 10.049 6.86833)
(-22.1499 17.9515 5.8633)
(-24.9676 30.304 5.77082)
(-25.7797 49.2105 11.7731)
(-9.61134 10.9913 11.3835)
(-16.5529 15.9916 11.4751)
(-22.6065 21.1546 12.5674)
(-26.3675 27.4179 14.1528)
(-28.0358 35.4072 18.3864)
(-8.03774 17.9622 14.8148)
(-15.395 23.1745 16.6898)
(-22.4101 27.811 19.5606)
(-29.7152 30.8588 21.9831)
(-36.2655 33.7895 24.2302)
(5.10101 5.67498 12.2244)
(6.10946 5.33336 11.9966)
(6.87259 5.43545 11.6306)
(7.56692 4.99793 11.4)
(7.92878 4.52276 10.8232)
(8.10169 3.86771 10.2591)
(7.9466 3.11542 9.69063)
(7.52942 2.25578 9.22408)
(6.93641 1.33927 8.84278)
(6.04864 0.506536 8.53983)
(4.97122 -0.392779 8.48178)
(3.69449 -1.32433 8.60312)
(2.35164 -2.39657 8.84625)
(0.703234 -3.39327 9.08077)
(5.56226 3.58099 12.0734)
(6.26756 3.50851 11.5939)
(6.80707 3.65488 11.1959)
(7.31298 3.41831 10.8491)
(7.50547 3.13151 10.2903)
(7.52922 2.68633 9.73974)
(7.27464 2.14274 9.22966)
(6.81616 1.47547 8.82612)
(6.17672 0.763189 8.52854)
(5.29526 0.0731752 8.38777)
(4.29119 -0.690647 8.44005)
(3.10397 -1.48309 8.59586)
(1.78837 -2.35767 8.88169)
(0.216502 -2.87163 9.27717)
(5.94197 1.74547 11.3334)
(6.50555 1.95669 10.8769)
(6.84258 2.15462 10.5076)
(7.14605 2.07233 10.1501)
(7.16473 1.9292 9.68537)
(7.04343 1.6482 9.20987)
(6.70136 1.27373 8.78319)
(6.18318 0.777037 8.46797)
(5.52215 0.22992 8.24645)
(4.6515 -0.292178 8.15809)
(3.66658 -0.849397 8.24768)
(2.52869 -1.41368 8.48265)
(1.24067 -2.04524 8.84785)
(-0.289676 -2.4381 9.28493)
(6.47192 -0.0630227 10.9893)
(6.82296 0.378522 10.5726)
(6.99345 0.669631 10.1842)
(7.10043 0.740449 9.75712)
(6.98463 0.733615 9.31799)
(6.73355 0.59512 8.88666)
(6.32318 0.358781 8.4966)
(5.75612 0.0153357 8.22225)
(5.04779 -0.374227 8.03243)
(4.17682 -0.759355 7.99527)
(3.19705 -1.17193 8.1372)
(2.09267 -1.57174 8.39413)
(0.834284 -1.93346 8.72298)
(-0.542128 -2.08641 9.19287)
(7.24817 -1.55071 10.7745)
(7.34709 -1.0004 10.3181)
(7.33801 -0.637756 9.88327)
(7.20789 -0.454529 9.43757)
(6.95554 -0.362591 9.00131)
(6.57487 -0.381667 8.59732)
(6.07853 -0.508959 8.23543)
(5.44892 -0.714061 8.00382)
(4.70228 -0.977304 7.85423)
(3.83646 -1.23279 7.83835)
(2.87784 -1.50516 7.98696)
(1.80994 -1.71938 8.25402)
(0.638583 -1.93194 8.65396)
(-0.633308 -1.91842 9.12321)
(7.98975 -2.87669 10.7884)
(7.90017 -2.24722 10.271)
(7.71504 -1.82059 9.76696)
(7.40176 -1.5464 9.30496)
(7.01472 -1.38367 8.85658)
(6.52186 -1.31565 8.46917)
(5.94572 -1.35905 8.12753)
(5.26289 -1.45705 7.9309)
(4.49597 -1.62282 7.80315)
(3.63593 -1.7707 7.80754)
(2.70677 -1.93684 7.96135)
(1.69946 -2.02613 8.22225)
(0.627136 -2.06616 8.63823)
(-0.559661 -1.87837 9.0687)
(8.78233 -3.98244 10.9852)
(8.48117 -3.33232 10.3622)
(8.13176 -2.849 9.78411)
(7.66213 -2.51896 9.29148)
(7.15856 -2.30579 8.82567)
(6.55583 -2.18648 8.4666)
(5.91165 -2.17034 8.1329)
(5.17564 -2.18971 7.96499)
(4.39552 -2.28094 7.84732)
(3.54628 -2.33816 7.85206)
(2.65166 -2.41132 8.00789)
(1.68957 -2.38805 8.24149)
(0.685949 -2.29947 8.65309)
(-0.410219 -2.01485 9.02882)
(9.60275 -4.8404 11.3638)
(9.07204 -4.22756 10.6232)
(8.56089 -3.71923 9.95947)
(7.93562 -3.37342 9.43253)
(7.31665 -3.13653 8.9466)
(6.62123 -2.99188 8.58336)
(5.9088 -2.9409 8.25651)
(5.13792 -2.91225 8.09006)
(4.34938 -2.95031 7.98302)
(3.52297 -2.94153 7.9889)
(2.67541 -2.93897 8.14354)
(1.78527 -2.81831 8.36589)
(0.882126 -2.61564 8.75963)
(-0.120984 -2.27474 9.03166)
(10.381 -5.47446 11.8705)
(9.6131 -4.92532 11.0419)
(8.98571 -4.41126 10.282)
(8.21977 -4.08644 9.72342)
(7.50481 -3.85913 9.19757)
(6.72818 -3.72253 8.81395)
(5.95753 -3.66309 8.48579)
(5.16109 -3.61931 8.3084)
(4.36978 -3.62831 8.20539)
(3.57348 -3.5765 8.20999)
(2.78076 -3.52131 8.36295)
(1.96909 -3.32328 8.57009)
(1.18325 -3.02718 8.94657)
(0.272825 -2.68113 9.11841)
(11.1345 -5.77169 12.473)
(10.1123 -5.38643 11.5797)
(9.3575 -4.93053 10.726)
(8.44536 -4.66852 10.1336)
(7.62577 -4.48766 9.5621)
(6.77238 -4.38287 9.15601)
(5.9579 -4.34217 8.81188)
(5.14995 -4.3045 8.63087)
(4.37447 -4.3106 8.52979)
(3.62321 -4.24593 8.52553)
(2.90199 -4.15677 8.69609)
(2.17798 -3.9105 8.88068)
(1.53248 -3.54753 9.23209)
(0.730141 -3.22531 9.32417)
(11.7199 -5.87988 13.1078)
(10.4406 -5.63437 12.2438)
(9.60194 -5.26794 11.2849)