/*--------------------------------*- C++ -*----------------------------------*\
| =========                 |                                                 |
| \\      /  F ield         | OpenFOAM: The Open Source CFD Toolbox           |
|  \\    /   O peration     | Version:  v2106                                 |
|   \\  /    A nd           | Website:  www.openfoam.com                      |
|    \\/     M anipulation  |                                                 |
\*---------------------------------------------------------------------------*/
FoamFile
{
    version     2.0;
    format      ascii;
    arch        "LSB;label=32;scalar=64";
    class       volScalarField;
    location    "0.000181";
    object      epsilon;
}
// * * * * * * * * * * * * * * * * * * * * * * * * * * * * * * * * * * * * * //

dimensions      [0 2 -3 0 0 0 0];

internalField   nonuniform List<scalar> 
18109
(
245.562
127.914
75.6532
51.5908
43.2115
43.3484
50.374
98.4919
35.6405
17.3358
11.3308
9.64846
9.86682
11.7916
45.3747
10.7096
3.54787
2.06446
1.7683
1.85913
2.41134
26.0175
4.76659
0.946425
0.354073
0.271954
0.308777
0.526093
19.1036
3.53501
0.599809
0.11301
0.0447923
0.0617208
0.187823
17.8283
3.5623
0.6211
0.0932295
0.0177708
0.0294157
0.134397
20.933
4.28313
0.727352
0.103589
0.0211512
0.0367345
0.159145
28.2632
5.61622
0.921349
0.153673
0.0654659
0.0993054
0.286937
166.262
84.3304
47.1047
29.0838
21.3948
18.8202
19.9348
24.6328
37.2842
68.9374
148.668
339.009
761.579
1660.33
62.6812
21.2605
9.4615
5.42703
3.98401
3.56253
3.95615
5.4896
10.5689
26.5562
73.964
200.649
505.579
1184.88
27.6576
6.01718
1.71821
0.821678
0.590936
0.548475
0.708132
1.38981
4.02943
13.3065
42.6712
125.703
337.953
843.171
16.0831
2.89685
0.516009
0.135501
0.0747128
0.0779631
0.159597
0.533751
2.06478
7.67139
26.1493
81.3605
233.16
626.867
12.8319
2.46222
0.421916
0.0676346
0.0147295
0.0170278
0.0663311
0.303471
1.30984
5.13441
18.2847
59.6916
180.976
516.812
13.3155
2.71677
0.474984
0.0691165
0.00971301
0.00986799
0.0476277
0.233426
1.03905
4.18186
15.3247
51.6261
161.469
472.616
17.0194
3.45207
0.575065
0.0798385
0.0137242
0.0147797
0.0548006
0.248463
1.08651
4.36215
15.9939
53.7535
166.62
479.171
24.1021
4.66674
0.740751
0.119588
0.0477927
0.0576715
0.121123
0.39431
1.5164
5.74427
20.235
65.3717
193.961
531.372
35.1731
6.72424
1.19724
0.337655
0.251723
0.302043
0.45816
0.976807
2.84051
9.31232
30.0296
90.2426
250.204
641.686
54.1552
11.8808
3.12836
1.4569
1.25011
1.4511
1.96753
3.25122
6.92987
18.0317
50.1532
135.812
345.435
821.606
95.0691
28.7299
11.2798
6.41442
5.41129
6.03031
7.83127
11.6054
20.1111
41.3228
95.048
225.286
518.468
1136.7
197.062
82.2153
40.6706
25.061
20.4875
21.8769
27.5911
38.9013
60.3282
104.294
199.439
406.665
836.556
1687.2
433.455
225.768
127.997
84.1301
68.3424
70.602
86.5452
118.182
172.687
268.896
446.461
787.467
1438.01
2666.57
932.09
554.924
344.846
243.308
202.517
206.321
246.268
325.857
456.594
665.461
998.917
1550.09
2499.31
4255.18
663.062
1552.61
3485.16
7454.53
15966.2
36027.4
477.715
1176.71
2752.82
6030.27
12943.5
28774.6
302.031
883.575
2328.67
5592.74
12990.6
30827.2
190.942
641.559
1885.4
5003.03
12640.2
31990.3
124.891
466.535
1511.03
4393.59
11932
31680
92.7566
367.339
1266.94
3921.57
11210.8
30901.5
80.7847
324.379
1144.04
3644.25
10691.2
29970.4
83.6008
329.189
1148.83
3641.94
10642.9
29615.4
99.6182
376.053
1259.03
3828.6
10776
29025.7
138.766
491.353
1534.57
4348.12
11464.3
28896.7
218.335
708.775
2015.91
5191.96
12484.7
28865.6
376.581
1093.38
2791.11
6471.71
14109
29903.4
682.746
1746.08
3991.05
8414.06
16984.7
33831
1243.67
2794.64
5801.53
11482
22368.1
43335
2189.41
4377.69
8493.8
16324.2
31396.1
59531.7
3674.16
6533.29
11818
21803.4
40870.5
76123.3
2659.95
5380.63
10922.9
22237.1
44935.5
88385.3
2024.9
4620.37
10372.3
22805.8
48678.5
99137.4
1627.12
4105.23
9915.15
22826.5
49993.4
103035
1409.36
3767.19
9438.4
22161
48975
101182
1300.55
3541.78
8931.79
20929
46080.4
94991.7
1283.12
3433.7
8488.09
19502.1
42296.4
87486.2
1351.82
3454.2
8206.06
18274.8
38822.7
81078.2
1532.49
3669.79
8257.39
17678.9
36882.5
77592
1838.37
4089.84
8657.98
17766.2
36626.8
78263.9
2374.67
4888.39
9736.15
19266.1
39444.4
85236.2
3298.86
6293.63
11884.1
22922.7
46631.4
99365
4897.91
8717.88
15790.4
29887.7
59577
120961
7529.95
12635
22022.7
40334
76674.7
146575
5441.65
10515.9
20572.9
40807.8
80970.4
155574
4163.92
8489.84
17350.1
35897.1
74419.6
150790
3115.07
6611.01
13963.5
30055.7
65017.6
139784
2258.39
5021.98
11118.3
24911
55709.8
125284
1615.47
3786.21
8843
20646.6
47686.3
112169
1160.25
2866.07
7039.45
17065.8
40514.1
96550.3
855.059
2215.25
5670.03
14081.8
33927
81621.6
660.935
1773.11
4664.54
11739.4
28177.6
67920.3
557.179
1514.85
3997.5
10057
23891.5
58380.7
535.63
1426.13
3672.43
8989.21
20931.6
51291.4
608.772
1514.19
3683.76
8572.31
19220
47175.2
801.819
1803.53
3999.4
8717.95
18534.5
46907.8
1197.16
2445.39
4921
9903.79
21062.8
54663.2
1871.91
3532.35
6646.34
12776.1
26639.8
64254.6
119.18
420.3
1326.22
3739.02
9572.68
25458.1
153.661
477.364
1386.14
3647.46
9142.03
25015.4
210.542
552.685
1490.76
3859.67
10042.6
27204.5
339.117
765.056
1891.76
4933.6
12492.5
32005.1
1349.88
2735.06
6199.62
13361
28540.4
66815.5
838.517
2108.31
5295.83
11858.1
26234
63819.8
532.054
1616.5
4258.51
9843.2
22904.4
58597.5
355.7
1192.96
3246.24
7899.75
19629.5
52716.3
245.033
844.776
2379.81
6202.45
16558.8
46778
168.061
582.541
1707.35
4823.16
13857.1
40875.6
113.183
401.086
1251.54
3842.39
11646.1
34934.4
78.2759
290.824
984.71
3233.09
9984.08
29535.5
62.6724
244.231
872.99
2912.27
8794.92
25084
63.2864
246.133
866.821
2765.4
7863.01
21346.1
76.9433
280.355
919.733
2703.81
7133.41
18621.3
102.47
332.874
999.773
2704.63
6754.33
17961.2
143.837
399.477
1115
2914.43
7470.52
20036
235.015
561.484
1448.27
3870.43
9775.83
24628.6
67848.9
273426
1.13779e+06
886288
546440
76019
314393
1.10705e+06
857865
530502
82967.9
350030
1.06193e+06
820914
534238
87312.9
364713
1.02087e+06
822893
565316
89020.3
356856
962958
822717
592522
86031
319307
849178
805763
610443
80046.5
271980
716514
778926
624813
71581.2
228200
612993
765279
635225
841150
66144.5
196705
540805
746334
640490
921480
62065.5
182417
499503
689652
600871
950455
60491.8
181158
491503
608263
522236
901032
1.5324e+06
65442
200364
514128
535400
427640
755634
1.73148e+06
2.36699e+06
80939.6
245741
573168
494298
376336
569972
1.59941e+06
5.40042e+06
106519
312200
653569
493138
387299
505867
829810
3.19248e+06
135067
374642
717659
511354
412568
521145
782713
3.45838e+06
161076
409145
740789
529765
432422
563532
838044
2.66606e+06
183099
428411
761556
567392
471106
620256
865995
3.2152e+06
190419
424813
783273
635070
532393
692617
809629
1.21261e+06
187511
407892
792563
695689
585311
768813
865452
714482
176313
383724
793102
732629
619312
845618
967287
603130
162792
365193
814643
751281
645083
938119
1.11907e+06
1.00776e+06
154269
369839
898037
766750
675498
1.04986e+06
1.33198e+06
790996
154943
400897
995005
745692
697740
1.16798e+06
164107
456669
1.0382e+06
661078
676119
1.21584e+06
179470
510624
973922
539323
591992
1.19188e+06
200787
558159
885008
451116
478093
1.02797e+06
229878
607149
812272
412170
393484
769685
261847
666265
801734
438989
377402
280534
725473
816161
510739
423527
283108
746148
810124
571771
457808
288271
703565
800558
639593
508057
281425
611427
809618
740833
574463
265673
526140
820345
843222
628923
233094
444197
832790
921860
645114
197495
384231
887401
963448
625217
166303
349361
1.03055e+06
1.00874e+06
616911
143435
336636
1.25784e+06
1.02033e+06
589008
124511
342576
1.47514e+06
942545
521663
113047
382214
1.54158e+06
817740
467685
115444
460831
1.4724e+06
769676
441328
132408
560256
1.33549e+06
774021
465052
149743
649370
1.27115e+06
830923
517008
160477
706157
1.26267e+06
879806
549505
170129
719696
1.20213e+06
860635
551890
178623
680406
1.10785e+06
848707
576464
177130
590845
1.01713e+06
881564
626772
167927
494561
924203
925438
668179
148350
395276
794946
944122
680251
125032
311138
665674
938166
659048
102033
245718
577746
951381
641483
82028.4
195614
544210
981418
618108
65203.9
158261
564602
979887
565755
52445.2
138907
638046
926588
510187
46910.6
147583
761254
861276
479358
49232.9
180402
921662
827683
492791
58044.1
227533
1.07121e+06
855219
528972
131.677
69.3794
39.0244
23.1896
15.6016
11.9596
11.019
12.4288
18.8595
37.6707
88.6552
217.97
519.209
1178.51
46.2332
16.1756
7.32456
3.98503
2.61022
1.98836
1.91518
2.52709
5.28939
14.9553
45.3323
130.61
344.425
834.179
19.4831
4.25673
1.22682
0.545582
0.33889
0.262575
0.308096
0.659515
2.19417
7.89063
26.6411
81.6951
227.368
582.948
11.6184
2.11379
0.374733
0.0875319
0.0375998
0.0328136
0.0728683
0.281763
1.18059
4.59121
16.1915
51.9602
153.291
422.468
10.0063
1.94825
0.335324
0.0519843
0.00882133
0.00763801
0.0328353
0.160969
0.727286
2.96417
10.9311
36.8585
115.156
338.003
11.1664
2.26768
0.392001
0.0562453
0.00719321
0.00478505
0.0224342
0.114175
0.531501
2.23978
8.57338
30.0799
97.8105
297.262
14.9834
2.97956
0.485842
0.0662563
0.0107791
0.00867764
0.0257375
0.112341
0.508167
2.14778
8.30891
29.4213
95.9048
289.298
21.8575
4.12575
0.636225
0.0999636
0.0393309
0.0437792
0.0729359
0.192563
0.701579
2.73264
10.1313
34.6034
108.46
312.892
32.6711
6.04339
1.02462
0.278328
0.209646
0.249776
0.343484
0.604346
1.50707
4.73866
15.63
49.1194
143.019
384.574
50.9991
10.5727
2.59296
1.18062
1.03555
1.22091
1.60437
2.40643
4.47526
10.6017
28.8415
79.6799
209.583
516.608
88.3073
24.6664
9.13024
5.14606
4.44048
5.06737
6.55127
9.32967
14.9937
28.4081
62.3704
146.977
343.314
769.483
177.444
68.8033
32.6043
19.9571
16.6635
18.2875
23.2399
32.3469
48.522
80.0401
146.744
293.463
603.745
1231.82
380.551
187.208
102.289
66.7276
55.2809
58.7799
73.1803
100.034
144.599
220.541
356.925
617.77
1120.36
2092.73
816.479
462.585
276.304
192.834
163.261
171.293
209.162
279.954
393.175
570.374
847.553
1298.17
2067.03
3511.24
65.0996
40.7732
25.9678
16.211
10.6356
7.40704
5.81678
5.24352
6.21524
10.9221
27.006
75.603
208.084
533.898
17.4818
7.76688
4.36773
2.56504
1.61394
1.09064
0.86538
0.854521
1.40663
4.00207
13.9068
46.7525
142.075
386.534
6.2784
1.5759
0.597809
0.306197
0.182751
0.122295
0.106979
0.16504
0.53967
2.24278
8.8543
31.2815
98.5341
280.231
4.64861
0.883054
0.166955
0.0412949
0.0166027
0.0110005
0.0165991
0.0631548
0.311284
1.4306
5.83431
21.1924
69.4622
209.273
5.34836
1.03654
0.173834
0.02574
0.00372138
0.00159779
0.00632238
0.0372511
0.201509
0.960996
4.05793
15.3691
53.0185
169.502
7.13526
1.37053
0.220893
0.0295208
0.00335437
0.00100235
0.00433619
0.0263723
0.145328
0.709765
3.09542
12.2091
44.0944
147.295
10.5473
1.93989
0.289529
0.0358905
0.00507863
0.00281728
0.00579257
0.0240837
0.12331
0.604222
2.69546
10.9257
40.4427
137.128
16.2102
2.81222
0.388623
0.0528466
0.0185347
0.0192451
0.0258924
0.049288
0.159596
0.676079
2.89665
11.5329
41.9247
138.68
24.9437
4.16282
0.596685
0.136884
0.102518
0.122497
0.157016
0.223918
0.426821
1.2071
4.26389
15.3638
51.8674
160.382
38.9533
6.80694
1.32772
0.566024
0.528824
0.640667
0.826897
1.12636
1.73298
3.37775
8.63484
25.4728
75.3291
210.631
63.5869
13.9324
4.30501
2.49696
2.3675
2.82237
3.66384
4.9913
7.22988
11.742
22.8268
52.9252
131.459
324.183
116.145
35.9994
15.2727
9.93198
9.24969
10.7813
13.9438
19.0113
26.9785
40.4838
66.7941
126.495
262.661
567.072
233.392
98.4421
49.5343
34.3899
31.8556
36.5412
46.8302
63.4541
88.8207
128.316
193.935
318.208
565.136
1080.15
505.199
257.421
141.585
104.031
97.8927
111.965
142.328
190.795
263.108
370.334
529.812
780.412
1194.82
1981.7
21.0053
12.6314
8.1108
4.99265
3.16827
2.06817
1.54519
1.31215
1.41847
2.32135
5.97056
18.7082
58.7825
172.079
4.81252
2.00744
1.16625
0.68545
0.4191
0.262275
0.192074
0.168243
0.242076
0.710084
2.84271
11.1094
38.8519
119.799
1.96297
0.424573
0.141036
0.0676968
0.0385196
0.0233751
0.0179673
0.0236801
0.0817059
0.402831
1.87672
7.66133
27.2767
85.3766
2.05751
0.373354
0.0618715
0.0111957
0.00309099
0.00151028
0.00190681
0.00815333
0.0491828
0.270558
1.28817
5.32171
19.276
62.1881
2.82179
0.517808
0.0820632
0.0109866
0.00130355
0.000228282
0.000700631
0.00513858
0.0336066
0.18841
0.911717
3.85391
14.4524
49.1006
4.13036
0.734668
0.111116
0.0135914
0.00142941
0.000229625
0.000550696
0.00372058
0.0241971
0.13732
0.679742
2.97481
11.7175
42.4006
6.46721
1.09374
0.152719
0.01711
0.0021601
0.00101955
0.00140752
0.00398121
0.0201139
0.110833
0.560808
2.55498
10.5831
40.3703
10.2852
1.64076
0.209463
0.0245848
0.00763631
0.00802577
0.0100988
0.0141633
0.0309214
0.118923
0.560432
2.57252
10.8965
42.3116
16.1329
2.46372
0.310767
0.0585782
0.0437396
0.0547447
0.0701526
0.0904898
0.131083
0.271524
0.883381
3.52475
14.0042
51.8321
25.2883
3.91278
0.622659
0.238051
0.238674
0.304546
0.397813
0.520461
0.704756
1.09737
2.31456
6.75709
22.4663
73.9719
40.4081
7.46242
1.90124
1.09624
1.13081
1.41781
1.86287
2.4758
3.34418
4.79851
8.01745
17.2974
45.1552
125.735
72.1853
18.6493
6.97295
4.66808
4.69918
5.73101
7.48246
9.99765
13.5293
18.884
28.3068
49.7407
103.601
241.85
142.633
52.7444
24.4878
17.6121
17.4259
20.7198
26.6484
35.3598
47.5674
65.4056
92.9951
144.161
250.893
499.067
302.798
147.696
77.5352
58.9424
58.3165
68.3918
86.6927
113.619
150.825
203.796
279.642
398.66
596.705
989.429
3.94486
2.02525
1.27189
0.806833
0.518066
0.345863
0.25587
0.207725
0.195979
0.262271
0.64655
2.30135
8.60854
29.9073
1.1003
0.29995
0.144158
0.0860056
0.0533608
0.0348907
0.025519
0.0207013
0.0236836
0.0633769
0.295226
1.38981
5.7781
20.8555
0.744112
0.124311
0.0225147
0.00706854
0.00348976
0.00216268
0.00162025
0.00182327
0.00620245
0.0369383
0.209657
1.02339
4.27772
15.4332
0.98075
0.170051
0.0242361
0.00330036
0.000457603
0.000106542
0.00010022
0.000515586
0.00397424
0.0270577
0.155555
0.759561
3.18173
11.5778
1.44427
0.251704
0.0355115
0.00449185
0.000476421
4.79014e-05
4.07216e-05
0.00035824
0.00294507
0.0202166
0.116808
0.574981
2.4443
9.13046
2.1816
0.368021
0.0487681
0.00558459
0.000545698
7.52052e-05
6.61413e-05
0.000308213
0.00225812
0.0153422
0.0893612
0.44773
1.96141
7.68049
3.42564
0.553702
0.0673872
0.00694633
0.000830546
0.000422449
0.000499047
0.000761954
0.00234853
0.0127868
0.0730661
0.37656
1.73468
7.26885
5.39915
0.827696
0.0922102
0.00971501
0.00298168
0.0033681
0.00429953
0.00537271
0.00760508
0.0179817
0.0758241
0.377074
1.79826
7.92609
8.4161
1.23084
0.133855
0.0220475
0.0170255
0.0225816
0.0295737
0.0372984
0.0470567
0.0684489
0.154137
0.566829
2.47173
10.5808
12.9373
1.91291
0.251868
0.0883266
0.0935981
0.125007
0.165432
0.213074
0.270256
0.356966
0.569569
1.36135
4.55856
16.9525
19.8015
3.45709
0.731043
0.42005
0.456228
0.591158
0.779726
1.0164
1.30719
1.70723
2.42505
4.38373
10.8346
32.5705
32.5916
8.21936
2.74429
1.90735
1.99326
2.46871
3.19764
4.1604
5.38141
7.03761
9.58369
14.9245
28.9714
69.937
59.8318
23.0041
10.3857
7.87677
7.95777
9.3959
11.7931
15.0629
19.3236
25.2002
33.6922
48.4785
79.4386
158.238
129.565
67.2417
36.4435
29.4068
29.3289
33.3901
40.4554
50.079
62.6816
80.4047
105.622
145.028
210.972
350.66
0.548951
0.185633
0.0994253
0.0625386
0.0404174
0.0276967
0.0216332
0.0177582
0.0153481
0.0165086
0.0370759
0.153343
0.69524
2.89859
0.247622
0.0409171
0.00948078
0.00430492
0.00261571
0.00180134
0.00145562
0.00123367
0.00127898
0.0031764
0.0174021
0.0993859
0.493848
2.10414
0.244983
0.040691
0.00570468
0.000778208
0.000152468
6.15421e-05
4.80121e-05
6.08876e-05
0.000257516
0.0019313
0.0133927
0.0785353
0.389745
1.65053
0.354646
0.0634246
0.00932696
0.00117114
0.000137814
1.36919e-05
2.91398e-06
1.75694e-05
0.000177666
0.00150553
0.0105506
0.0618622
0.306898
1.30187
0.530166
0.0955888
0.0138726
0.0016697
0.000184778
1.69034e-05
2.94783e-06
1.4118e-05
0.000140713
0.00119754
0.00843709
0.0497147
0.248038
1.06125
0.797759
0.141103
0.0192727
0.00210718
0.000215834
2.59503e-05
1.33349e-05
2.29998e-05
0.000122679
0.000956968
0.0067224
0.0399699
0.202292
0.884197
1.21992
0.211257
0.0266346
0.00262779
0.000299146
0.000116034
0.000126342
0.000151041
0.000242385
0.000920458
0.00561365
0.033246
0.172729
0.788204
1.83245
0.311099
0.0362001
0.00349906
0.000828542
0.00083428
0.00104215
0.00123714
0.0014642
0.00219412
0.00651064
0.0321146
0.167014
0.800969
2.67343
0.447523
0.0506505
0.00663845
0.00417006
0.00543484
0.00698672
0.00849262
0.0099819
0.012105
0.0187311
0.052492
0.22736
1.06382
3.84072
0.658076
0.0861145
0.0226925
0.0224517
0.0300861
0.0390257
0.0484326
0.0581049
0.0695376
0.089942
0.160866
0.476308
1.87553
5.5766
1.09371
0.218382
0.103724
0.110604
0.144221
0.186451
0.234373
0.286309
0.347064
0.433332
0.639747
1.36126
4.15848
8.91326
2.40244
0.776222
0.481227
0.4957
0.614882
0.780672
0.982352
1.21252
1.49019
1.85566
2.52627
4.31631
10.3022
16.8264
6.67315
2.98949
2.09082
2.05731
2.40098
2.94228
3.64626
4.49386
5.56953
6.97775
9.18422
13.6634
26.3602
38.9359
20.1654
11.0969
8.38628
8.02211
8.83137
10.2973
12.3234
14.9071
18.4213
23.1839
30.1927
41.399
66.9924
0.0868084
0.0167874
0.00517563
0.00278192
0.00183735
0.00138596
0.00124988
0.00114137
0.00100725
0.000955943
0.00198624
0.0098975
0.0543016
0.264206
0.0508553
0.00801597
0.00107657
0.000169068
5.72308e-05
4.11871e-05
4.30856e-05
4.59981e-05
5.53521e-05
0.000159569
0.00105852
0.00714835
0.0412627
0.20216
0.05904
0.0108912
0.00165467
0.000215955
2.61885e-05
3.1952e-06
1.0951e-06
1.9571e-06
1.14403e-05
0.000103983
0.000854682
0.00587224
0.0338212
0.164904
0.0865897
0.0170898
0.00273301
0.000367552
4.37552e-05
4.41998e-06
4.52002e-07
7.13359e-07
8.02502e-06
8.16637e-05
0.000682458
0.00471895
0.0273269
0.133904
0.12739
0.0252977
0.00397448
0.000514553
5.79259e-05
5.5857e-06
6.37093e-07
7.01128e-07
6.41626e-06
6.50051e-05
0.000549335
0.0038403
0.0224597
0.111118
0.186465
0.0363362
0.0054026
0.000642701
6.67666e-05
7.37833e-06
2.63186e-06
2.82583e-06
7.33795e-06
5.34112e-05
0.000439757
0.00310391
0.0184151
0.0925983
0.275018
0.0522
0.00726799
0.000785583
8.32017e-05
2.2768e-05
2.22497e-05
2.51817e-05
3.04438e-05
6.83187e-05
0.000381916
0.00257609
0.0154642
0.0797717
0.398087
0.0732254
0.00959365
0.000984775
0.000171703
0.000142584
0.00017604
0.000205226
0.000229433
0.000277509
0.000562424
0.00251347
0.014223
0.0751025
0.5573
0.0995238
0.0126747
0.00152991
0.000718276
0.000913013
0.00117284
0.00139874
0.00158859
0.00179
0.00225824
0.00472264
0.0188416
0.0931948
0.764712
0.136094
0.0189588
0.00409212
0.00374272
0.00512356
0.00664066
0.00806511
0.00935559
0.0106533
0.0124343
0.0180203
0.04394
0.170499
1.05782
0.207112
0.0404114
0.016952
0.0185733
0.0251097
0.0324898
0.0399685
0.0472094
0.0547604
0.0637822
0.0828135
0.148102
0.426711
1.63636
0.426194
0.131882
0.0778593
0.0842884
0.109221
0.139544
0.172595
0.206591
0.243916
0.287657
0.360244
0.542074
1.21013
3.14288
1.18543
0.509192
0.344959
0.353402
0.430916
0.535719
0.65906
0.794106
0.951538
1.14046
1.41642
1.92846
3.49241
7.66952
3.72156
1.96263
1.43238
1.39186
1.58078
1.87848
2.26241
2.71562
3.28389
3.99813
4.99977
6.46756
9.99226
0.0182217
0.00311198
0.000604421
0.000220268
0.000135085
0.000112791
0.000116597
0.000118614
0.000111567
0.000101705
0.000182886
0.000975784
0.00597092
0.0316642
0.0114625
0.001964
0.000280665
3.73253e-05
6.92915e-06
3.94578e-06
4.95679e-06
6.36376e-06
7.89364e-06
1.67911e-05
0.000101475
0.000741276
0.00467576
0.0248783
0.0141505
0.0028024
0.000464912
6.62303e-05
8.56104e-06
1.05106e-06
2.92497e-07
3.75209e-07
1.17461e-06
9.16028e-06
8.10671e-05
0.000614327
0.00388324
0.0206471
0.0208672
0.00433801
0.000749627
0.000109244
1.39619e-05
1.50891e-06
1.57502e-07
8.46611e-08
6.41778e-07
6.95697e-06
6.44797e-05
0.000494575
0.00315722
0.0169789
0.0302533
0.00626364
0.001062
0.000149409
1.81991e-05
1.87614e-06
2.0886e-07
1.03652e-07
5.28079e-07
5.50716e-06
5.1694e-05
0.000402676
0.00261034
0.0142494
0.0431403
0.00868907
0.00139408
0.000181808
2.06185e-05
2.27825e-06
6.44838e-07
5.85605e-07
9.28664e-07
4.81053e-06
4.14926e-05
0.000325514
0.0021478
0.011953
0.0615936
0.0119809
0.00179742
0.000215133
2.42258e-05
5.38165e-06
4.66424e-06
5.16369e-06
5.75527e-06
8.98045e-06
3.86014e-05
0.000271112
0.00179426
0.0101947
0.0863684
0.0161668
0.00227501
0.000258849
4.1822e-05
2.90079e-05
3.51377e-05
4.05876e-05
4.46288e-05
4.97701e-05
7.70014e-05
0.000280213
0.00162641
0.00925065
0.117531
0.0212344
0.00287554
0.000367843
0.000147738
0.000179373
0.000229928
0.000271568
0.000304549
0.000333627
0.000384509
0.000637892
0.00219045
0.0109442
0.157258
0.0280846
0.00402762
0.000851816
0.000730423
0.00100228
0.00129885
0.00156062
0.00178549
0.00199048
0.00222292
0.00284006
0.0056903
0.0203702
0.212043
0.0409817
0.0078371
0.00322435
0.00358365
0.00493834
0.00640102
0.007794
0.00907259
0.0103138
0.0116184
0.0139984
0.0215969
0.0555898
0.321868
0.0809902
0.0240891
0.0143318
0.0161881
0.0216383
0.0278274
0.0341527
0.0402983
0.0466269
0.053357
0.0634882
0.086286
0.173795
0.627162
0.223627
0.0920066
0.0626481
0.0672932
0.0855605
0.108052
0.132757
0.158128
0.185828
0.216356
0.258224
0.327439
0.545869
1.58343
0.714353
0.358218
0.258925
0.261398
0.311276
0.380202
0.462197
0.551948
0.656488
0.777555
0.939468
1.15453
1.68203
0.00360248
0.000633693
0.000120514
3.90924e-05
2.34151e-05
2.11033e-05
2.35507e-05
2.54726e-05
2.49984e-05
2.15607e-05
2.42174e-05
9.58574e-05
0.000607466
0.00343574
0.00242304
0.000441355
6.91098e-05
9.95282e-06
1.82762e-06
9.83888e-07
1.26649e-06
1.68298e-06
2.00583e-06
2.67457e-06
9.96845e-06
7.21984e-05
0.000487749
0.00277865
0.00319017
0.000661361
0.000117655
1.80091e-05
2.48326e-06
3.2816e-07
9.88331e-08
1.12614e-07
1.97176e-07
8.77279e-07
7.4537e-06
6.05578e-05
0.000412921
0.002359
0.00479448
0.00103167
0.000189744
2.95083e-05
4.0171e-06
4.65581e-07
5.89903e-08
2.66924e-08
6.96056e-08
6.04249e-07
5.90684e-06
4.91423e-05
0.000340001
0.0019747
0.00693207
0.00147796
0.000266635
4.00977e-05
5.2247e-06
5.74753e-07
7.04594e-08
2.94608e-08
5.99683e-08
4.79976e-07
4.74227e-06
4.01753e-05
0.000283388
0.00167892
0.0097328
0.00200846
0.000343496
4.82137e-05
5.8724e-06
6.53122e-07
1.45257e-07
1.12483e-07
1.37292e-07
4.61296e-07
3.84073e-06
3.25505e-05
0.000234239
0.0014197
0.0135968
0.00269673
0.000432182
5.60883e-05
6.60296e-06
1.16801e-06
8.20894e-07
8.74908e-07
9.3434e-07
1.19159e-06
3.89765e-06
2.72979e-05
0.000195269
0.00120604
0.0186458
0.00354799
0.000534255
6.57436e-05
9.6468e-06
5.12479e-06
5.92515e-06
6.72109e-06
7.23114e-06
7.6461e-06
1.00524e-05
3.00563e-05
0.000175125
0.00106387
0.0248315
0.00454912
0.000656564
8.63146e-05
2.75803e-05
3.05581e-05
3.87632e-05
4.50087e-05
4.93989e-05
5.23574e-05
5.68907e-05
8.07242e-05
0.00024
0.00119949
0.03249
0.00583739
0.0008668
0.000169182
0.000126969
0.000171979
0.000221693
0.000261692
0.000292655
0.000316581
0.000340215
0.000399384
0.000684001
0.00223227
0.0425095
0.00806431
0.00149821
0.000564854
0.000619226
0.000861862
0.00111326
0.00133194
0.00151461
0.00167256
0.00182101
0.0020727
0.00285446
0.00653313
0.0620814
0.0147556
0.00414704
0.00240801
0.00281417
0.00384752
0.00494704
0.00597494
0.00688876
0.00774688
0.00857742
0.00976251
0.0122439
0.0222325
0.118248
0.0389764
0.0152853
0.0103916
0.0117226
0.015433
0.019621
0.0238273
0.0277866
0.0317674
0.0357928
0.0411114
0.0491405
0.075343
0.300998
0.124468
0.0594222
0.0427091
0.0452615
0.0564254
0.070148
0.0849472
0.0997397
0.115622
0.132576
0.154507
0.181354
0.247946
0.000639587
0.000117088
2.31986e-05
7.53681e-06
4.69366e-06
4.53209e-06
5.30956e-06
5.96557e-06
6.04691e-06
5.19312e-06
4.23662e-06
9.26054e-06
5.53308e-05
0.000332013
0.000461345
8.87113e-05
1.49105e-05
2.31268e-06
4.52241e-07
2.54233e-07
3.31304e-07
4.46578e-07
5.31786e-07
5.70351e-07
1.06069e-06
6.36456e-06
4.53469e-05
0.000276501
0.000646422
0.000139718
2.61761e-05
4.2417e-06
6.23082e-07
9.59834e-08
3.79787e-08
4.16696e-08
5.43865e-08
1.07676e-07
6.38917e-07
5.34121e-06
3.91773e-05
0.000240474
0.000991821
0.000221133
4.25885e-05
6.97528e-06
1.0048e-06
1.31421e-07
2.67914e-08
1.75963e-08
2.05265e-08
6.09757e-08
4.95249e-07
4.35848e-06
3.26144e-05
0.000204526
0.00143554
0.000316424
5.97148e-05
9.47623e-06
1.30815e-06
1.60171e-07
2.90795e-08
1.74163e-08
1.88604e-08
5.03022e-08
3.99183e-07
3.56879e-06
2.73026e-05
0.000175534
0.00199037
0.000423433
7.58146e-05
1.13057e-05
1.46203e-06
1.73933e-07
3.92414e-08
2.8674e-08
2.96929e-08
5.3366e-08
3.28305e-07
2.88823e-06
2.25708e-05
0.000149108
0.00272797
0.000555975
9.33768e-05
1.2967e-05
1.59142e-06
2.42391e-07
1.31411e-07
1.3192e-07
1.36197e-07
1.52269e-07
3.68405e-07
2.43996e-06
1.87526e-05
0.000126301
0.00366788
0.000715804
0.000113069
1.4859e-05
2.03458e-06
7.90494e-07
8.39298e-07
9.30932e-07
9.81039e-07
9.9858e-07
1.17297e-06
2.89694e-06
1.6709e-05
0.000109069
0.00478735
0.00089837
0.00013565
1.82795e-05
4.59273e-06
4.3992e-06
5.48128e-06
6.25651e-06
6.73122e-06
6.93766e-06
7.21794e-06
9.10601e-06
2.3502e-05
0.000117762
0.00613134
0.00112099
0.000170365
3.05508e-05
1.89947e-05
2.49735e-05
3.19781e-05
3.71219e-05
4.06718e-05
4.2836e-05
4.45655e-05
4.9012e-05
7.33554e-05
0.000217556
0.00777217
0.00146418
0.000261894
8.73617e-05
9.17262e-05
0.000128113
0.000164843
0.000194023
0.000216073
0.00023234
0.000245286
0.000265873
0.000332645
0.000677816
0.0107929
0.00243236
0.000633679
0.000351853
0.000422059
0.00058727
0.000754244
0.000897052
0.00101269
0.00110856
0.00118966
0.00129833
0.00151811
0.00249408
0.0195269
0.0059567
0.00219667
0.00149654
0.00177815
0.00241344
0.00308067
0.0036936
0.00422057
0.00469595
0.00512369
0.00566191
0.00641226
0.00907364
0.0490581
0.0186513
0.00842891
0.00611517
0.00689079
0.00898286
0.0113117
0.0135928
0.0156691
0.0176802
0.0196142
0.0220118
0.0247107
0.0317203
0.000102062
1.92797e-05
4.02153e-06
1.37272e-06
9.23985e-07
9.56549e-07
1.16234e-06
1.34249e-06
1.39639e-06
1.21878e-06
8.81959e-07
1.00919e-06
4.64389e-06
2.9187e-05
7.89733e-05
1.58045e-05
2.80997e-06
4.72694e-07
1.07876e-07
6.98336e-08
8.94813e-08
1.18241e-07
1.40133e-07
1.41761e-07
1.54144e-07
5.39714e-07
3.81438e-06
2.49241e-05
0.000117267
2.61058e-05
5.08276e-06
8.71364e-07
1.42865e-07
3.28991e-08
2.05873e-08
2.17068e-08
2.43405e-08
2.85931e-08
6.58093e-08
4.35657e-07
3.34587e-06
2.21199e-05
0.000183941
4.20586e-05
8.3745e-06
1.44124e-06
2.25151e-07
4.06593e-08
1.7689e-08
1.55774e-08
1.57777e-08
1.85674e-08
5.01916e-08
3.57472e-07
2.81077e-06
1.90617e-05
0.000267415
6.03243e-05
1.1756e-05
1.96184e-06
2.91438e-07
4.72628e-08
1.81261e-08
1.53888e-08
1.53294e-08
1.7426e-08
4.28578e-08
2.95228e-07
2.36239e-06
1.64831e-05
0.000367397
7.98026e-05
1.47693e-05
2.32621e-06
3.23632e-07
4.963e-08
1.9291e-08
1.66701e-08
1.65678e-08
1.80786e-08
3.80105e-08
2.41411e-07
1.95592e-06
1.40606e-05
0.00049538
0.000102817
1.7879e-05
2.6324e-06
3.43981e-07
5.7102e-08
2.99558e-08
2.86214e-08
2.87076e-08
2.9309e-08
4.44826e-08
2.08105e-07
1.62477e-06
1.19011e-05
0.000654848
0.000129905
2.12951e-05
2.9565e-06
3.99695e-07
1.22094e-07
1.14419e-07
1.22782e-07
1.26371e-07
1.24832e-07
1.34003e-07
2.65591e-07
1.44614e-06
1.01235e-05
0.000840102
0.000160091
2.50786e-05
3.46197e-06
7.15983e-07
5.65514e-07
6.82763e-07
7.65187e-07
8.05983e-07
8.08483e-07
8.09293e-07
9.30752e-07
2.09305e-06
1.05186e-05
0.00105569
0.000195274
3.03357e-05
5.0681e-06
2.53687e-06
3.17128e-06
4.02238e-06
4.59461e-06
4.92883e-06
5.05264e-06
5.09038e-06
5.30816e-06
7.08818e-06
1.91651e-05
0.00129987
0.000243454
4.21596e-05
1.22503e-05
1.19621e-05
1.66479e-05
2.13115e-05
2.46866e-05
2.69104e-05
2.81571e-05
2.88124e-05
2.9915e-05
3.45106e-05
6.30938e-05
0.00171097
0.000367207
8.79806e-05
4.58511e-05
5.58446e-05
7.86268e-05
0.000100686
0.000117874
0.000130218
0.000138655
0.00014417
0.000151275
0.000166306
0.000249313
0.00288459
0.000813663
0.000280347
0.000192027
0.000239652
0.00033293
0.000425083
0.000502166
0.000561608
0.000607547
0.00064176
0.000682874
0.000735825
0.000967952
0.00697549
0.00244978
0.0010511
0.000782182
0.000940686
0.00127204
0.0016118
0.00191381
0.00216134
0.00237043
0.00254342
0.00274802
0.00295403
0.00357585
1.4674e-05
2.85243e-06
6.3618e-07
2.4115e-07
1.81671e-07
1.99612e-07
2.46817e-07
2.88957e-07
3.05385e-07
2.71987e-07
1.94412e-07
1.48499e-07
3.90442e-07
2.39461e-06
1.22177e-05
2.52442e-06
4.75734e-07
9.40895e-08
3.23901e-08
2.64773e-08
3.10553e-08
3.74765e-08
4.24816e-08
4.26081e-08
3.86012e-08
6.02742e-08
3.11582e-07
2.09118e-06
1.91696e-05
4.35452e-06
8.77828e-07
1.65441e-07
3.80629e-08
1.83717e-08
1.61784e-08
1.64942e-08
1.70781e-08
1.75162e-08
1.96944e-08
4.61693e-08
2.76668e-07
1.8916e-06
3.07716e-05
7.15094e-06
1.46289e-06
2.69498e-07
5.34379e-08
1.98092e-08
1.54942e-08
1.50904e-08
1.51161e-08
1.53118e-08
1.74186e-08
3.98786e-08
2.35783e-07
1.64989e-06
4.50103e-05
1.02966e-05
2.05851e-06
3.6477e-07
6.6044e-08
2.11266e-08
1.55745e-08
1.50329e-08
1.50046e-08
1.51361e-08
1.68342e-08
3.52499e-08
2.00345e-07
1.4352e-06
6.13621e-05
1.34881e-05
2.56422e-06
4.28566e-07
7.19618e-08
2.15305e-08
1.56926e-08
1.51587e-08
1.51243e-08
1.52116e-08
1.65292e-08
3.1285e-08
1.6779e-07
1.22785e-06
8.14578e-05
1.70727e-05
3.05635e-06
4.77512e-07
7.47795e-08
2.21739e-08
1.67447e-08
1.63513e-08
1.63146e-08
1.62959e-08
1.72411e-08
2.899e-08
1.41123e-07
1.03867e-06
0.000105885
2.11815e-05
3.57956e-06
5.25386e-07
8.07591e-08
2.8803e-08
2.54992e-08
2.60011e-08
2.61138e-08
2.56338e-08
2.57979e-08
3.47812e-08
1.26574e-07
8.72946e-07
0.000133448
2.56595e-05
4.1382e-06
5.91031e-07
1.14813e-07
7.64555e-08
8.63624e-08
9.37726e-08
9.62586e-08
9.42848e-08
9.15191e-08
9.72132e-08
1.81753e-07
8.73848e-07
0.000164612
3.07025e-05
4.85232e-06
7.77566e-07
3.17481e-07
3.66555e-07
4.55915e-07
5.10875e-07
5.35481e-07
5.34041e-07
5.21287e-07
5.19981e-07
6.29014e-07
1.54813e-06
0.000197848
3.68197e-05
6.21679e-06
1.58389e-06
1.39822e-06
1.91944e-06
2.43694e-06
2.77601e-06
2.95906e-06
3.01126e-06
2.98587e-06
2.98311e-06
3.20997e-06
5.31416e-06
0.000247925
5.08074e-05
1.12265e-05
5.40238e-06
6.58344e-06
9.32036e-06
1.18728e-05
1.36737e-05
1.47729e-05
1.52964e-05
1.5409e-05
1.55859e-05
1.62148e-05
2.23853e-05
0.000384476
0.000100523
3.22946e-05
2.22276e-05
2.89062e-05
4.07956e-05
5.19213e-05
6.03514e-05
6.60064e-05
6.94066e-05
7.09795e-05
7.28207e-05
7.48985e-05