/*--------------------------------*- C++ -*----------------------------------*\
| =========                 |                                                 |
| \\      /  F ield         | OpenFOAM: The Open Source CFD Toolbox           |
|  \\    /   O peration     | Version:  v2106                                 |
|   \\  /    A nd           | Website:  www.openfoam.com                      |
|    \\/     M anipulation  |                                                 |
\*---------------------------------------------------------------------------*/
FoamFile
{
    version     2.0;
    format      ascii;
    arch        "LSB;label=32;scalar=64";
    class       volScalarField;
    location    "0.000181";
    object      Ttot;
}
// * * * * * * * * * * * * * * * * * * * * * * * * * * * * * * * * * * * * * //

dimensions      [0 0 0 1 0 0 0];

internalField   nonuniform List<scalar> 
18109
(
300.162
300.192
300.209
300.203
300.18
300.145
300.108
300.143
300.13
300.11
300.066
300.015
299.962
299.913
300.124
300.076
300.035
299.962
299.89
299.819
299.756
300.051
299.996
299.938
299.86
299.785
299.707
299.629
299.963
299.903
299.837
299.765
299.693
299.614
299.525
299.847
299.776
299.71
299.652
299.592
299.512
299.413
299.697
299.626
299.567
299.517
299.467
299.382
299.276
299.512
299.448
299.397
299.346
299.299
299.208
299.1
300.36
300.382
300.391
300.369
300.326
300.272
300.222
300.156
300.097
300.023
299.936
299.825
299.744
299.67
300.316
300.294
300.282
300.231
300.168
300.098
300.032
299.963
299.904
299.836
299.767
299.682
299.625
299.569
300.284
300.239
300.206
300.13
300.05
299.966
299.888
299.813
299.749
299.688
299.636
299.576
299.542
299.511
300.186
300.145
300.097
300.022
299.946
299.863
299.778
299.687
299.603
299.525
299.464
299.413
299.4
299.382
300.085
300.045
299.994
299.927
299.857
299.778
299.689
299.586
299.486
299.393
299.32
299.267
299.256
299.239
299.962
299.912
299.871
299.821
299.767
299.691
299.597
299.479
299.361
299.253
299.163
299.097
299.068
299.043
299.814
299.769
299.738
299.703
299.66
299.583
299.486
299.36
299.234
299.117
299.014
298.936
298.89
298.852
299.638
299.608
299.59
299.557
299.519
299.436
299.339
299.211
299.083
298.961
298.847
298.761
298.696
298.649
299.446
299.423
299.417
299.382
299.343
299.258
299.165
299.047
298.923
298.805
298.688
298.598
298.512
298.469
299.237
299.223
299.236
299.191
299.146
299.054
298.967
298.863
298.749
298.637
298.514
298.419
298.291
298.239
299.012
298.996
299.03
298.977
298.93
298.848
298.757
298.669
298.56
298.453
298.322
298.219
298.049
297.982
298.738
298.771
298.837
298.768
298.717
298.643
298.547
298.467
298.362
298.261
298.128
298.001
297.773
297.632
298.415
298.455
298.567
298.541
298.513
298.471
298.381
298.301
298.183
298.062
297.899
297.716
297.435
297.247
298.064
298.184
298.325
298.34
298.331
298.331
298.254
298.171
298.033
297.885
297.69
297.473
297.155
296.86
300.104
300.095
300.082
299.998
299.734
299.063
300.312
300.328
300.312
300.281
300.083
299.621
300.421
300.434
300.455
300.352
300.038
299.23
300.477
300.55
300.597
300.481
299.997
298.963
300.508
300.627
300.68
300.516
299.936
298.761
300.499
300.648
300.698
300.531
299.869
298.688
300.465
300.618
300.645
300.423
299.734
298.705
300.41
300.55
300.554
300.303
299.671
298.869
300.325
300.432
300.403
300.146
299.653
299.17
300.239
300.298
300.24
300.034
299.739
299.553
300.122
300.144
300.074
299.947
299.815
299.779
299.986
300.002
299.945
299.909
299.903
299.918
299.831
299.852
299.822
299.88
299.945
300.006
299.723
299.764
299.751
299.822
299.834
299.814
299.637
299.673
299.619
299.63
299.495
299.156
299.626
299.704
299.668
299.578
299.051
298.159
299.57
299.599
299.495
299.209
298.291
296.918
299.526
299.564
299.409
298.845
297.546
295.79
299.394
299.425
299.176
298.376
296.834
294.927
299.224
299.208
298.862
297.927
296.361
294.499
299.002
298.92
298.468
297.499
296.044
294.424
298.781
298.61
298.083
297.16
295.907
294.731
298.533
298.251
297.702
296.89
295.923
295.192
298.286
297.915
297.373
296.729
296.076
295.62
297.965
297.55
297.053
296.578
296.134
295.844
297.62
297.223
296.775
296.408
296.094
295.779
297.22
296.83
296.42
296.107
295.797
295.33
296.887
296.542
296.192
295.872
295.415
294.512
296.51
296.158
295.76
295.249
294.503
293.303
296.597
296.337
295.948
295.271
294.063
292.466
296.837
296.471
295.992
295.136
293.625
291.626
297.144
296.779
296.232
295.228
293.541
291.304
297.411
297.054
296.5
295.439
293.661
291.395
297.684
297.374
296.818
295.731
293.995
291.953
297.882
297.616
297.091
296.002
294.38
292.712
298.045
297.799
297.272
296.266
294.864
293.578
298.115
297.858
297.299
296.438
295.325
294.421
298.148
297.852
297.301
296.534
295.712
295.108
298.08
297.749
297.208
296.596
296.03
295.552
298.032
297.664
297.161
296.675
296.249
295.749
297.921
297.532
297.078
296.633
296.279
295.745
297.796
297.429
297.022
296.637
296.28
295.576
297.685
297.323
296.951
296.553
296.042
295.138
300.064
300.093
300.011
299.917
299.777
299.776
300.09
300.126
300.043
299.976
299.875
299.866
300.098
300.144
300.046
299.981
299.928
299.819
300.162
300.185
300.107
300.062
299.913
299.525
297.752
297.458
297.169
296.739
296.047
294.892
298.185
297.874
297.605
297.07
296.18
294.775
298.549
298.314
298.083
297.554
296.518
295.075
298.923
298.764
298.548
297.997
296.962
295.561
299.213
299.123
298.981
298.461
297.53
296.275
299.473
299.434
299.313
298.905
298.106
297.047
299.686
299.676
299.599
299.288
298.613
297.871
299.863
299.886
299.818
299.536
299.016
298.611
300.019
300.061
299.972
299.734
299.357
299.23
300.134
300.173
300.087
299.918
299.674
299.718
300.209
300.248
300.183
300.092
299.949
300.018
300.263
300.311
300.249
300.212
300.118
300.148
300.281
300.341
300.274
300.21
300.162
300.179
300.349
300.397
300.315
300.297
300.212
300.054
297.781
295.012
295.48
303.229
312.853
297.114
294.497
296.302
305.268
314.784
296.669
294.64
297.669
306.505
314.656
296.677
295.532
299.402
308.089
314.154
297.074
296.823
301.453
309.648
314.036
297.614
298.249
302.999
309.966
313.547
298.354
299.729
304.063
309.162
311.309
299.141
300.827
304.388
308.064
309.861
308.685
299.847
301.435
304.186
306.274
307.806
308.37
300.228
301.505
303.054
304.317
306.932
308.945
300.339
300.819
300.985
302.048
306.016
309.547
309.674
300.008
299.208
298.346
300.403
306.003
309.821
310.367
307.74
299.032
296.836
295.734
299.561
306.512
309.133
309.665
313.308
297.485
294.335
294.012
299.687
308.703
313.111
313.197
309.94
295.655
292.36
293.79
301.596
310.077
313.527
312.211
306.542
294.016
291.418
294.253
302.845
311.204
313.839
311.639
308.701
292.837
291.384
295.418
303.414
310.499
311.965
311.155
306.895
292.268
291.885
296.72
303.854
309.309
309.909
307.613
302.73
292.357
292.993
298.437
304.751
308.699
307.907
306.082
299.738
293.002
294.447
299.602
304.925
308.355
307.783
304.571
300.331
294.062
295.984
300.121
303.597
305.798
304.831
303.686
299.758
294.964
296.815
299.494
301.746
303.917
303.82
301.245
298.75
295.556
296.821
297.998
300.249
303.326
303.955
295.527
295.709
295.889
299.268
304.324
306.28
295.038
293.646
293.537
298.12
304.237
306.768
293.826
291.269
291.566
298.25
305.787
307.787
292.237
289.29
290.329
297.25
304.631
305.848
290.581
287.771
289.937
297.138
305.371
289.334
286.807
290.104
298.197
305.557
288.485
286.415
290.198
298.892
306.46
288.17
286.691
290.929
298.88
304.828
288.556
287.895
292.65
299.837
305.056
289.675
289.971
295.087
300.787
304.08
291.177
292.434
296.94
300.779
303.099
292.689
294.328
297.741
299.504
300.631
293.965
295.273
297.099
297.331
298.676
294.853
295.48
295.698
296.395
299.12
295.216
294.917
293.652
295.83
301.526
295.069
293.843
291.896
295.397
302.803
294.608
292.322
290.57
295.807
305.102
293.778
290.781
289.96
295.888
304.82
292.806
289.58
290.148
297.253
306.856
292.183
289.114
290.993
300.092
310.298
292.03
289.301
291.843
301.804
311.137
292.351
290.111
293.357
302.801
310.351
293.172
291.708
295.565
303.714
309.992
294.419
293.877
298.135
305.197
309.515
295.795
296.161
300.216
305.368
308.39
297.14
298.166
301.506
304.31
305.751
298.402
299.635
301.904
302.985
303.385
299.33
300.444
301.98
301.785
301.624
299.914
300.686
301.102
300.884
301.854
300.061
300.245
299.456
299.971
302.814
299.868
299.24
297.556
299.472
305.178
299.419
297.818
295.857
299.428
307.044
298.581
296.249
295.122
300.853
309.83
300.852
300.866
300.877
300.84
300.795
300.739
300.689
300.626
300.572
300.506
300.443
300.359
300.293
300.192
300.77
300.747
300.739
300.693
300.635
300.562
300.498
300.427
300.365
300.297
300.233
300.155
300.11
300.041
300.697
300.664
300.648
300.588
300.512
300.426
300.348
300.273
300.209
300.146
300.096
300.04
300.017
299.972
300.554
300.528
300.502
300.451
300.381
300.303
300.223
300.142
300.07
300.001
299.951
299.903
299.891
299.873
300.418
300.385
300.37
300.335
300.273
300.204
300.125
300.043
299.967
299.895
299.843
299.802
299.793
299.776
300.249
300.218
300.222
300.207
300.162
300.105
300.031
299.948
299.866
299.786
299.725
299.68
299.665
299.643
300.061
300.052
300.068
300.069
300.045
300.002
299.938
299.859
299.775
299.689
299.616
299.561
299.529
299.494
299.875
299.889
299.916
299.922
299.913
299.878
299.822
299.747
299.66
299.569
299.481
299.413
299.358
299.324
299.698
299.714
299.751
299.754
299.756
299.729
299.68
299.61
299.526
299.438
299.343
299.268
299.183
299.152
299.534
299.55
299.597
299.576
299.582
299.56
299.511
299.445
299.365
299.282
299.177
299.094
298.97
298.932
299.349
299.363
299.429
299.387
299.387
299.366
299.317
299.256
299.176
299.094
298.98
298.897
298.738
298.696
299.146
299.2
299.278
299.211
299.191
299.167
299.109
299.046
298.965
298.887
298.772
298.674
298.468
298.385
298.882
298.948
299.063
299.026
298.997
298.973
298.909
298.842
298.748
298.653
298.522
298.384
298.147
298.045
298.632
298.759
298.866
298.854
298.829
298.81
298.739
298.662
298.55
298.437
298.297
298.129
297.888
297.674
301.903
301.914
301.939
301.904
301.887
301.837
301.775
301.703
301.642
301.59
301.561
301.505
301.487
301.434
301.806
301.816
301.787
301.749
301.702
301.651
301.586
301.515
301.45
301.386
301.336
301.276
301.261
301.199
301.665
301.664
301.642
301.623
301.585
301.529
301.453
301.372
301.297
301.228
301.175
301.118
301.115
301.08
301.507
301.509
301.495
301.488
301.453
301.396
301.317
301.234
301.156
301.083
301.027
300.971
300.963
300.947
301.33
301.333
301.335
301.339
301.315
301.267
301.197
301.12
301.048
300.98
300.928
300.88
300.869
300.865
301.143
301.168
301.182
301.194
301.183
301.144
301.086
301.018
300.951
300.884
300.829
300.785
300.772
300.773
300.952
300.993
301.025
301.044
301.049
301.022
300.979
300.924
300.864
300.799
300.742
300.7
300.682
300.68
300.784
300.822
300.876
300.891
300.909
300.894
300.864
300.819
300.764
300.703
300.641
300.596
300.567
300.56
300.617
300.64
300.713
300.726
300.75
300.748
300.731
300.695
300.648
300.595
300.532
300.484
300.434
300.408
300.467
300.469
300.555
300.556
300.578
300.584
300.573
300.543
300.503
300.454
300.389
300.338
300.245
300.2
300.309
300.286
300.375
300.375
300.384
300.39
300.383
300.359
300.321
300.282
300.218
300.175
300.038
300.002
300.14
300.141
300.215
300.21
300.193
300.194
300.18
300.156
300.116
300.076
300.002
299.939
299.768
299.715
299.905
299.942
300.01
300.029
299.998
299.994
299.972
299.935
299.884
299.828
299.743
299.661
299.499
299.428
299.668
299.785
299.848
299.868
299.831
299.823
299.784
299.73
299.667
299.605
299.522
299.405
299.242
299.075
303.082
303.091
303.132
303.124
303.135
303.125
303.11
303.084
303.059
303.04
303.032
303.017
303.018
302.989
302.943
302.971
302.976
302.973
302.971
302.96
302.937
302.898
302.86
302.825
302.8
302.771
302.77
302.747
302.767
302.806
302.817
302.832
302.834
302.826
302.801
302.756
302.711
302.669
302.637
302.609
302.611
302.61
302.585
302.635
302.652
302.678
302.685
302.682
302.657
302.612
302.565
302.518
302.479
302.447
302.444
302.453
302.404
302.458
302.487
302.522
302.537
302.539
302.519
302.48
302.437
302.392
302.353
302.323
302.32
302.339
302.234
302.29
302.33
302.367
302.39
302.396
302.383
302.352
302.317
302.277
302.239
302.211
302.209
302.232
302.071
302.122
302.176
302.214
302.244
302.256
302.252
302.235
302.208
302.175
302.141
302.117
302.118
302.149
301.923
301.96
302.027
302.063
302.097
302.115
302.122
302.117
302.098
302.073
302.043
302.024
302.023
302.059
301.777
301.794
301.87
301.907
301.943
301.969
301.984
301.991
301.984
301.968
301.946
301.934
301.925
301.958
301.645
301.643
301.716
301.75
301.781
301.811
301.832
301.849
301.853
301.844
301.831
301.828
301.804
301.825
301.5
301.49
301.547
301.579
301.601
301.632
301.657
301.681
301.695
301.699
301.697
301.715
301.667
301.68
301.365
301.373
301.399
301.425
301.428
301.452
301.473
301.499
301.517
301.524
301.517
301.532
301.458
301.473
301.172
301.217
301.223
301.252
301.245
301.263
301.274
301.295
301.311
301.322
301.316
301.323
301.251
301.253
300.994
301.089
301.092
301.113
301.093
301.103
301.1
301.11
301.119
301.128
301.108
301.074
300.994
300.911
304.477
304.481
304.507
304.528
304.554
304.572
304.585
304.597
304.612
304.631
304.66
304.693
304.743
304.776
304.293
304.332
304.358
304.39
304.419
304.44
304.452
304.459
304.466
304.473
304.49
304.507
304.543
304.572
304.116
304.17
304.202
304.246
304.283
304.31
304.326
304.334
304.339
304.34
304.346
304.356
304.383
304.406
303.939
303.998
304.041
304.095
304.139
304.171
304.191
304.201
304.205
304.201
304.198
304.197
304.213
304.231
303.772
303.833
303.885
303.942
303.991
304.029
304.054
304.067
304.072
304.066
304.058
304.052
304.061
304.082
303.614
303.672
303.731
303.789
303.842
303.884
303.914
303.932
303.939
303.934
303.923
303.914
303.921
303.95
303.462
303.513
303.579
303.639
303.695
303.742
303.778
303.801
303.813
303.811
303.801
303.794
303.801
303.839
303.319
303.36
303.429
303.489
303.548
303.6
303.643
303.673
303.691
303.694
303.687
303.685
303.694
303.74
303.175
303.208
303.278
303.34
303.399
303.457
303.507
303.546
303.57
303.58
303.581
303.589
303.602
303.655
303.047
303.07
303.132
303.191
303.248
303.309
303.365
303.412
303.445
303.465
303.474
303.493
303.51
303.567
302.903
302.931
302.979
303.037
303.09
303.153
303.214
303.267
303.307
303.34
303.364
303.393
303.409
303.471
302.795
302.826
302.851
302.898
302.94
302.999
303.06
303.117
303.162
303.204
303.236
303.269
303.274
303.342
302.637
302.692
302.7
302.748
302.786
302.841
302.901
302.957
303.004
303.053
303.094
303.132
303.14
303.202
302.526
302.598
302.6
302.641
302.667
302.714
302.766
302.821
302.867
302.916
302.943
302.966
302.955
302.971
305.758
305.772
305.798
305.835
305.874
305.913
305.951
305.989
306.029
306.073
306.126
306.185
306.261
306.332
305.593
305.626
305.66
305.705
305.752
305.796
305.838
305.877
305.916
305.956
306.002
306.053
306.117
306.184
305.442
305.482
305.522
305.576
305.629
305.68
305.727
305.769
305.809
305.847
305.888
305.933
305.99
306.052
305.294
305.337
305.386
305.444
305.502
305.557
305.608
305.653
305.693
305.728
305.763
305.801
305.848
305.906
305.15
305.197
305.252
305.312
305.373
305.432
305.486
305.533
305.573
305.606
305.636
305.669
305.711
305.768
305.014
305.06
305.118
305.18
305.244
305.304
305.36
305.409
305.449
305.481
305.508
305.538
305.575
305.635
304.885
304.928
304.987
305.05
305.115
305.178
305.236
305.286
305.327
305.359
305.384
305.414
305.451
305.518
304.763
304.8
304.859
304.921
304.986
305.051
305.112
305.165
305.207
305.24
305.267
305.299
305.337
305.414
304.648
304.679
304.734
304.794
304.859
304.926
304.989
305.046
305.091
305.128
305.157
305.194
305.238
305.327
304.544
304.567
304.614
304.67
304.732
304.801
304.868
304.929
304.979
305.022
305.055
305.099
305.148
305.248
304.445
304.464
304.5
304.551
304.61
304.678
304.747
304.814
304.87
304.919
304.96
305.011
305.065
305.174
304.366
304.379
304.401
304.443
304.494
304.56
304.631
304.702
304.764
304.821
304.87
304.928
304.982
305.096
304.271
304.292
304.304
304.343
304.389
304.453
304.523
304.595
304.662
304.727
304.784
304.85
304.908
305.019
304.232
304.24
304.242
304.272
304.309
304.367
304.436
304.511
304.581
304.652
304.709
304.772
304.821
304.92
306.857
306.885
306.922
306.964
307.008
307.051
307.094
307.14
307.187
307.24
307.301
307.369
307.453
307.535
306.721
306.759
306.802
306.851
306.901
306.95
306.999
307.049
307.101
307.156
307.216
307.283
307.361
307.445
306.6
306.642
306.689
306.742
306.797
306.85
306.904
306.959
307.014
307.07
307.131
307.197
307.274
307.354
306.475
306.523
306.576
306.632
306.691
306.749
306.808
306.866
306.924
306.982
307.041
307.107
307.179
307.26
306.356
306.408
306.464
306.523
306.585
306.647
306.709
306.771
306.831
306.89
306.95
307.014
307.085
307.167
306.244
306.296
306.355
306.416
306.481
306.545
306.61
306.674
306.735
306.796
306.855
306.92
306.989
307.075
306.142
306.192
306.251
306.313
306.378
306.445
306.511
306.576
306.638
306.701
306.76
306.828
306.898
306.991
306.052
306.095
306.153
306.213
306.278
306.345
306.412
306.478
306.541
306.605
306.665
306.737
306.808
306.912
305.973
306.009
306.061
306.118
306.182
306.248
306.315
306.382
306.446
306.511
306.573
306.648
306.723
306.839
305.906
305.933
305.977
306.03
306.09
306.155
306.223
306.291
306.355
306.422
306.485
306.564
306.643
306.771
305.85
305.868
305.903
305.949
306.005
306.069
306.136
306.205
306.271
306.34
306.404
306.488
306.568
306.707
305.804
305.816
305.84
305.88
305.931
305.992
306.059
306.129
306.197
306.269
306.336
306.422
306.503
306.645
305.76
305.771
305.789
305.825
305.871
305.929
305.994
306.065
306.135
306.21
306.28
306.37
306.451
306.592
305.748
305.75
305.758
305.787
305.828
305.884
305.95
306.022
306.094
306.173
306.245
306.333
306.404
306.543
307.722
307.772
307.819
307.863
307.904
307.943
307.981
308.021
308.063
308.111
308.165
308.227
308.302
308.377
307.608
307.668
307.719
307.768
307.814
307.859
307.903
307.95
307.997
308.051
308.108
308.173
308.247
308.326
307.515
307.576
307.628
307.68
307.729
307.777
307.825
307.876
307.928
307.984
308.045
308.111
308.189
308.268
307.417
307.481
307.535
307.59
307.643
307.697
307.75
307.807
307.863
307.925
307.989
308.059
308.136
308.218
307.33
307.392
307.448
307.505
307.561
307.618
307.676
307.737
307.798
307.864
307.932
308.006
308.085
308.17
307.25
307.309
307.366
307.424
307.483
307.544
307.605
307.67
307.735
307.806
307.877
307.955
308.036
308.124
307.182
307.237
307.292
307.35
307.41
307.472
307.536
307.604
307.673
307.747
307.823
307.905
307.989
308.082
307.126
307.174
307.227
307.283
307.342
307.404
307.469
307.539
307.611
307.689
307.767
307.854
307.941
308.041
307.082
307.123
307.17
307.222
307.279
307.34
307.406
307.476
307.549
307.629
307.71
307.802
307.892
308.001
307.049
307.081
307.122
307.17
307.223
307.283
307.347
307.417
307.489
307.57
307.652
307.748
307.839
307.959
307.028
307.051
307.085
307.127
307.176
307.232
307.294
307.362
307.433
307.514
307.595
307.694
307.785
307.914
307.014
307.031
307.056
307.094
307.139
307.191
307.249
307.315
307.385
307.464
307.543
307.642
307.732
307.865
307.003
307.018
307.038
307.072
307.114
307.163
307.218
307.281
307.348
307.426
307.502
307.599
307.687
307.819
307.005
307.021
307.034
307.064
307.101
307.148
307.201
307.261
307.324
307.396
307.469
307.558
307.64
307.769
308.252
308.312
308.362
308.41
308.452
308.493
308.531
308.572
308.613
308.663
308.715
308.774
308.838
308.903
308.168
308.238
308.291
308.343
308.391
308.437
308.48
308.528
308.574
308.628
308.684
308.747
308.812
308.881
308.108
308.177
308.232
308.286
308.336
308.384
308.431
308.481
308.53
308.585
308.643
308.707
308.776
308.847
308.047
308.114
308.171
308.227
308.28
308.333
308.384
308.438
308.493
308.553
308.614
308.681
308.752
308.825
307.995
308.059
308.116
308.173
308.229
308.284
308.339
308.397
308.455
308.519
308.585
308.655
308.729
308.803
307.95
308.011
308.067
308.124
308.181
308.239
308.297
308.359
308.422
308.489
308.559
308.633
308.708
308.784
307.913
307.97
308.024
308.081
308.138
308.197
308.258
308.322
308.389
308.46
308.534
308.611
308.689
308.767
307.886
307.938
307.989
308.044
308.1
308.16
308.222
308.288
308.358
308.432
308.509
308.589
308.669
308.75
307.868
307.915
307.962
308.014
308.068
308.127
308.189
308.257
308.328
308.405
308.483
308.566
308.648
308.734
307.86
307.901
307.944
307.992
308.043
308.099
308.16
308.227
308.298
308.375
308.455
308.541
308.624
308.714
307.858
307.894
307.932
307.976
308.025
308.078
308.136
308.201
308.27
308.347
308.426
308.514
308.595
308.691
307.863
307.896
307.928
307.969
308.014
308.063
308.117
308.177
308.242
308.316
308.393
308.48
308.56
308.66
307.869
307.899
307.928
307.967
308.009
308.055
308.105
308.161
308.222
308.292
308.363
308.447
308.525
308.624
307.885
307.919
307.944
307.979
308.015
308.056
308.101
308.15
308.202
308.263
308.327
308.403
308.476
308.569
308.493
308.555
308.609
308.663
308.713
308.764
308.811
308.862
308.909
308.962
309.012
309.067
309.117
309.17
308.446
308.515
308.573
308.631
308.686
308.742
308.794
308.85
308.903
308.961
309.015
309.074
309.126
309.18
308.418
308.487
308.547
308.607
308.665
308.723
308.778
308.835
308.891
308.95
309.006
309.065
309.12
309.176
308.391
308.459
308.521
308.584
308.644
308.705
308.762
308.822
308.88
308.941
309
309.061
309.118
309.175
308.372
308.438
308.501
308.565
308.627
308.688
308.748
308.809
308.869
308.931
308.992
309.054
309.113
309.17
308.36
308.424
308.486
308.55
308.612
308.675
308.736
308.798
308.86
308.922
308.984
309.046
309.106
309.164
308.355
308.416
308.476
308.539
308.601
308.664
308.726
308.789
308.852
308.915
308.978
309.04
309.1
309.158
308.358
308.416
308.473
308.534
308.594
308.655
308.718
308.78
308.844
308.906
308.97
309.032
309.093
309.15
308.364
308.42
308.474
308.532
308.59
308.649
308.711
308.772
308.836
308.899
308.963
309.025
309.085
309.144
308.378
308.431
308.481
308.535
308.59
308.646
308.705
308.764
308.826
308.889
308.952
309.015
309.075
309.135
308.395
308.445
308.491
308.541
308.593
308.645
308.7
308.757
308.818
308.879
308.941
309.004
309.063
309.126
308.419
308.468
308.508
308.554
308.6
308.647
308.698
308.749
308.805
308.863
308.924
308.986
309.044
309.108
308.441
308.485
308.523
308.565
308.608
308.651
308.697
308.745
308.795
308.85
308.906
308.966
309.021
309.087
308.473
308.518
308.55
308.588
308.624
308.661
308.699
308.738
308.781
308.827
308.876
308.928
308.982
309.042
308.625
308.686
308.74
308.794
308.844
308.894
308.94
308.988
309.031
309.078
309.121
309.166
309.205
309.25
308.61
308.676
308.735
308.793
308.848
308.903
308.954
309.005
309.051
309.1
309.145
309.193
309.234
309.277
308.606
308.673
308.735
308.796
308.855
308.913
308.967
309.021
309.069
309.119
309.165
309.213
309.254
309.297
308.609
308.676
308.74
308.803
308.865
308.925
308.981
309.036
309.086
309.137
309.183
309.23
309.273
309.316
308.617
308.682
308.747
308.812
308.875
308.936
308.994
309.05
309.102
309.153
309.2
309.246
309.289
309.331
308.632
308.696
308.761
308.825
308.887
308.948
309.006
309.062
309.115
309.165
309.213
309.259
309.301
309.343
308.651
308.712
308.775
308.838
308.899
308.959
309.017
309.072
309.125
309.175
309.223
309.269
309.311
309.352
308.675
308.734
308.793
308.853
308.911
308.969
309.025
309.078
309.131
309.181
309.228
309.273
309.316
309.356
308.7
308.757
308.812
308.867
308.923
308.977
309.031
309.082
309.134
309.182
309.23
309.273
309.316
309.356
308.731
308.784
308.834
308.884
308.935
308.984
309.035
309.082
309.131
309.177
309.224
309.267
309.311
309.352
308.761
308.81
308.854
308.899
308.945
308.99
309.036
309.081
309.127
309.171
309.217
309.26
309.302
309.346
308.795
308.841
308.878
308.918
308.957
308.996
309.037
309.076
309.118
309.159
309.203
309.245
309.288
309.334
308.827
308.867
308.899
308.934
308.968
309.001
309.037
309.073
309.111
309.15
309.191
309.233
309.273
309.319
308.862
308.902
308.927
308.955
308.983
309.01
309.039
309.068
309.101
309.134
309.169
309.207
309.247
309.29
308.699
308.752
308.797
308.842
308.886
308.931
308.973
309.016
309.055
309.096
309.132
309.172
309.204
309.241
308.714
308.767
308.817
308.865
308.911
308.957
309.001
309.045
309.085
309.128
309.166
309.207
309.24
309.278
308.736
308.788
308.839
308.888
308.936
308.983
309.029
309.074
309.116
309.158
309.196
309.237
309.27
309.308
308.762
308.813
308.865
308.915
308.962
309.01
309.056
309.102
309.144
309.186
309.224
309.264
309.298
309.335
308.79
308.84
308.891
308.94
308.988
309.036
309.082
309.128
309.171
309.212
309.25
309.289
309.323
309.359
308.822
308.87
308.919
308.967
309.014
309.061
309.107
309.152
309.194
309.235
309.273
309.31
309.345
309.379
308.854
308.9
308.946
308.993
309.038
309.083
309.128
309.172
309.215
309.255
309.293
309.329
309.363
309.397
308.888
308.931
308.975
309.018
309.061
309.104
309.147
309.19
309.231
309.27
309.307
309.342
309.377
309.41
308.92
308.961
309.002
309.042
309.082
309.123
309.164
309.204
309.244
309.282
309.319
309.353
309.388
309.421
308.955
308.993
309.03
309.065
309.103
309.14
309.178
309.215
309.253
309.289
309.326
309.359
309.395
309.428
308.987
309.023
309.054
309.087
309.121
309.154
309.19
309.224
309.261
309.295
309.331
309.364
309.4
309.434
309.02
309.054
309.08
309.108
309.138
309.167
309.199
309.229
309.263
309.295
309.329
309.362
309.398
309.434
309.05
309.08
309.101
309.126
309.151
309.177
309.206
309.233
309.264
309.295
309.328
309.361
309.397
309.433
309.085
309.109
309.125
309.145
309.165
309.187
309.21
309.234
309.26
309.287
309.318
309.35
309.386
309.426
308.716
308.763
308.804
308.846
308.887
308.927
308.966
309.004
309.039
309.073
309.103
309.134
309.158
309.187
308.752
308.793
308.834
308.876
308.918
308.959
308.998
309.038
309.073
309.109
309.14
309.172
309.197
309.227
308.787
308.827
308.868
308.909
308.95
308.991
309.03
309.07
309.106
309.142
309.173
309.205
309.231
309.26
308.824
308.862
308.901
308.941
308.981
309.022
309.061
309.1
309.136
309.172
309.204
309.236
309.262
309.292
308.86
308.896
308.934
308.972
309.011
309.051
309.09
309.128
309.164
309.199
309.231
309.263
309.291
309.32
308.896
308.93
308.966
309.002
309.039
309.078
309.115
309.153
309.188
309.223
309.255
309.286
309.315
309.344
308.931
308.962
308.996
309.03
309.065
309.102
309.138
309.174
309.209
309.243
309.275
309.306
309.335
309.365
308.965
308.994
309.025
309.057
309.09
309.123
309.158
309.192
309.226
309.259
309.291
309.322
309.353
309.383
308.997
309.023
309.052
309.081
309.111
309.142
309.175
309.208
309.241
309.273
309.305
309.336
309.369
309.399
309.028
309.053
309.078
309.104
309.132
309.16
309.19
309.22
309.252
309.283
309.316
309.348
309.382
309.414
309.056
309.081
309.102
309.125
309.15
309.175
309.203
309.232
309.263
309.294
309.327
309.36
309.396
309.429
309.086
309.108
309.125
309.145
309.167
309.19
309.216
309.242
309.272
309.302
309.336
309.37
309.407
309.442
309.113
309.132
309.146
309.164
309.182
309.204
309.227
309.253
309.282
309.313
309.347
309.383
309.421
309.459
309.144
309.157
309.167
309.181
309.197
309.216
309.238
309.262
309.29
309.321
309.354
309.391
309.43
309.472
308.643
308.681
308.716
308.75
308.784
308.818
308.852
308.886
308.918
308.95
308.979
309.008
309.034
309.062
308.687
308.718
308.751
308.785
308.818
308.852
308.885
308.919
308.951
308.983
309.013
309.044
309.07
309.1
308.729
308.759
308.791
308.822
308.854
308.886
308.918
308.951
308.983
309.015
309.045
309.076
309.102
309.132
308.772
308.799
308.828
308.858
308.888
308.919
308.95
308.982
309.014
309.046
309.076
309.107
309.135
309.165
308.812
308.837
308.864
308.892
308.921
308.951
308.981
309.012
309.043
309.074
309.105
309.136
309.165
309.195
308.852
308.874
308.899
308.925
308.952
308.98
309.009
309.039
309.07
309.101
309.132
309.163
309.194
309.224
308.889
308.909
308.932
308.956
308.982
309.008
309.036
309.065
309.095
309.126
309.158
309.189
309.221
309.252
308.924
308.942
308.964
308.986
309.01
309.035
309.062
309.09
309.12
309.15
309.182
309.214
309.247
309.279
308.956
308.974
308.993
309.014
309.037
309.061
309.087
309.114
309.143
309.174
309.206
309.239
309.274
309.306
308.987
309.005
309.022
309.041
309.063
309.085
309.11
309.137
309.166
309.197
309.23
309.264
309.3
309.334
309.017
309.034
309.049
309.067
309.087
309.109
309.133
309.16
309.189
309.221
309.255
309.29
309.328
309.363
309.046
309.062
309.074
309.091
309.11
309.131
309.156
309.182
309.212
309.244
309.28
309.316
309.356
309.393
309.072
309.088
309.098
309.115
309.132
309.153
309.177
309.205
309.236
309.27
309.307
309.345
309.385
309.425
309.1
309.11
309.119
309.134
309.151
309.173
309.197
309.226
309.258
309.293
309.331
309.371
309.412
309.455
308.5
308.528
308.555
308.582
308.609
308.637
308.665
308.695
308.724
308.753
308.782
308.812
308.839
308.869
308.545
308.567
308.593
308.618
308.644
308.67
308.698
308.726
308.755
308.785
308.814
308.844
308.872
308.904
308.591
308.611
308.634
308.656
308.68
308.705
308.73
308.757
308.785
308.815
308.844
308.875
308.903
308.935
308.636
308.652
308.672
308.693
308.715
308.738
308.762
308.789
308.816
308.846
308.875
308.906
308.936
308.968
308.678
308.693
308.71
308.729
308.749
308.771
308.794
308.82
308.847
308.876
308.906
308.938
308.969
309.001
308.719
308.732
308.747
308.764
308.783
308.803
308.826
308.851
308.879
308.908
308.938
308.97
309.002
309.035
308.758
308.769
308.783
308.798
308.816
308.836
308.858
308.883
308.911
308.94
308.971
309.004
309.037
309.07
308.796
308.805
308.818
308.832
308.85
308.869
308.892
308.916
308.944
308.974
309.006
309.039
309.074
309.107
308.83
308.84
308.852
308.866
308.883
308.902
308.925
308.95
308.979
309.01
309.043
309.077
309.113
309.146
308.864
308.875
308.886
308.9
308.917
308.937
308.96
308.986
309.015
309.047
309.081
309.117
309.154
309.188
308.896
308.908
308.918
308.933
308.95
308.971
308.995
309.022
309.053
309.086
309.122
309.159
309.198
309.231
308.926
308.939
308.949
308.965
308.983
309.005
309.031
309.06
309.092
309.126
309.164
309.202
309.241
309.276
308.952
308.967
308.978
308.995
309.014
309.038
309.066
309.097
309.131
309.168
309.207
309.247
309.286
309.323
308.975
308.989
309.001
309.021
309.043
309.07
309.1
309.133
309.169
309.208
309.247
309.288
309.329
309.369
308.26
308.279
308.3