/*--------------------------------*- C++ -*----------------------------------*\
| =========                 |                                                 |
| \\      /  F ield         | OpenFOAM: The Open Source CFD Toolbox           |
|  \\    /   O peration     | Version:  v2106                                 |
|   \\  /    A nd           | Website:  www.openfoam.com                      |
|    \\/     M anipulation  |                                                 |
\*---------------------------------------------------------------------------*/
FoamFile
{
    version     2.0;
    format      ascii;
    arch        "LSB;label=32;scalar=64";
    class       volScalarField;
    location    "0.000142";
    object      nut;
}
// * * * * * * * * * * * * * * * * * * * * * * * * * * * * * * * * * * * * * //

dimensions      [0 2 -1 0 0 0 0];

internalField   nonuniform List<scalar> 
18109
(
5.56366e-07
1.87274e-07
7.21787e-08
3.05248e-08
1.52511e-08
9.82352e-09
7.96592e-09
1.54937e-07
4.23174e-08
1.22098e-08
3.63058e-09
1.38145e-09
8.90398e-10
8.56651e-10
7.58512e-08
2.30917e-08
6.8333e-09
1.99758e-09
5.51117e-10
1.57862e-10
8.31906e-11
8.7924e-08
3.24416e-08
1.12811e-08
3.48537e-09
8.97341e-10
1.86051e-10
3.21347e-11
1.09809e-07
4.32288e-08
1.5019e-08
4.45718e-09
1.09057e-09
2.14816e-10
3.25021e-11
1.33699e-07
5.07809e-08
1.67139e-08
4.68002e-09
1.08622e-09
2.04188e-10
2.97485e-11
1.69294e-07
6.0009e-08
1.83565e-08
4.77889e-09
1.03788e-09
1.83909e-10
2.68575e-11
2.24865e-07
7.43221e-08
2.11537e-08
5.15049e-09
1.05585e-09
1.86728e-10
3.89384e-11
1.09397e-07
2.90512e-08
8.89314e-09
3.33629e-09
1.8542e-09
1.4864e-09
1.39971e-09
1.33832e-09
1.23694e-09
1.0175e-09
6.70507e-10
3.81163e-10
5.00726e-10
3.06438e-09
2.98438e-08
7.1775e-09
1.70961e-09
4.34419e-10
1.59277e-10
1.15529e-10
1.25432e-10
1.43663e-10
1.55881e-10
1.48116e-10
1.08504e-10
7.55647e-11
2.84675e-10
2.57218e-09
2.24194e-08
6.5619e-09
1.84513e-09
4.9239e-10
1.16991e-10
2.65475e-11
1.11785e-11
1.1933e-11
1.48952e-11
1.62341e-11
1.33992e-11
1.93995e-11
1.87792e-10
1.93351e-09
2.97066e-08
1.00314e-08
3.0854e-09
8.25038e-10
1.83035e-10
3.28175e-11
4.8538e-12
1.13791e-12
1.09695e-12
1.36239e-12
1.4069e-12
6.42379e-12
9.50484e-11
1.1088e-09
3.64232e-08
1.27251e-08
3.87174e-09
1.00142e-09
2.13577e-10
3.67839e-11
4.90721e-12
5.05068e-13
8.61055e-14
8.6833e-14
1.56502e-13
2.3895e-12
4.27837e-11
5.27911e-10
4.3916e-08
1.4662e-08
4.22115e-09
1.02851e-09
2.07443e-10
3.39276e-11
4.33693e-12
4.28976e-13
4.43589e-14
1.54513e-14
3.03602e-14
8.1648e-13
1.79982e-11
2.43146e-10
5.5326e-08
1.71912e-08
4.59652e-09
1.04198e-09
1.96932e-10
3.03967e-11
3.88543e-12
5.76202e-13
2.21253e-13
1.39889e-13
9.4979e-14
3.61923e-13
7.80259e-12
1.16483e-10
7.28493e-08
2.09969e-08
5.21231e-09
1.10432e-09
1.9678e-10
3.02838e-11
5.61057e-12
2.58279e-12
1.94219e-12
1.45254e-12
1.01742e-12
8.76297e-13
4.34388e-12
6.25976e-11
9.7517e-08
2.63831e-08
6.14151e-09
1.22575e-09
2.12716e-10
4.26655e-11
2.05224e-11
1.75249e-11
1.51062e-11
1.22876e-11
9.3353e-12
7.61078e-12
8.05429e-12
4.23096e-11
1.3266e-07
3.44552e-08
7.73393e-09
1.50955e-09
3.01084e-10
1.22899e-10
1.0881e-10
1.07531e-10
9.82059e-11
8.54703e-11
7.02523e-11
6.13336e-11
5.21241e-11
6.89756e-11
1.74742e-07
4.38466e-08
9.67281e-09
2.00315e-09
6.29041e-10
4.98034e-10
5.3537e-10
5.60144e-10
5.37531e-10
4.97816e-10
4.4268e-10
4.1026e-10
3.54089e-10
3.43409e-10
2.2987e-07
5.69315e-08
1.30101e-08
3.391e-09
1.90685e-09
2.00276e-09
2.2854e-09
2.49084e-09
2.50976e-09
2.4725e-09
2.3745e-09
2.30817e-09
2.06049e-09
1.92846e-09
3.13364e-07
7.99326e-08
2.01308e-08
7.57654e-09
6.33376e-09
7.25668e-09
8.49358e-09
9.57287e-09
1.01271e-08
1.06255e-08
1.09656e-08
1.11452e-08
1.03473e-08
9.6069e-09
5.13836e-07
1.45519e-07
4.14375e-08
2.0701e-08
2.00785e-08
2.34053e-08
2.77313e-08
3.21423e-08
3.576e-08
3.99819e-08
4.40696e-08
4.70226e-08
4.57445e-08
4.26278e-08
1.1908e-06
3.41219e-06
7.31774e-06
1.23831e-05
1.7698e-05
2.21822e-05
2.75571e-07
1.05474e-06
2.93041e-06
6.20904e-06
1.06422e-05
1.53874e-05
1.81703e-07
8.36596e-07
2.5694e-06
5.75832e-06
1.01097e-05
1.47629e-05
1.00377e-07
5.65873e-07
1.96187e-06
4.75437e-06
8.77465e-06
1.32365e-05
5.02583e-08
3.39906e-07
1.33811e-06
3.56038e-06
7.0543e-06
1.12053e-05
2.7492e-08
2.03481e-07
8.86797e-07
2.55331e-06
5.39525e-06
9.04033e-06
1.7975e-08
1.29418e-07
5.87969e-07
1.78164e-06
3.95595e-06
6.90354e-06
1.36639e-08
8.93086e-08
3.98114e-07
1.22577e-06
2.78832e-06
5.0032e-06
1.06506e-08
6.14637e-08
2.59985e-07
7.9739e-07
1.85456e-06
3.43191e-06
7.96104e-09
4.04754e-08
1.61605e-07
4.91819e-07
1.17297e-06
2.25487e-06
5.26334e-09
2.43764e-08
9.48546e-08
2.92793e-07
7.25366e-07
1.45231e-06
3.12086e-09
1.43842e-08
5.73252e-08
1.82398e-07
4.66059e-07
9.63684e-07
1.86987e-09
9.5859e-09
4.05341e-08
1.35112e-07
3.68833e-07
8.64911e-07
1.81663e-09
1.08289e-08
5.13048e-08
1.9354e-07
5.97211e-07
1.53446e-06
5.80731e-09
3.19346e-08
1.4199e-07
4.97674e-07
1.38695e-06
3.11525e-06
2.32435e-08
9.85369e-08
3.56685e-07
1.05784e-06
2.55932e-06
5.05734e-06
2.08562e-08
1.03047e-07
4.10016e-07
1.28264e-06
3.1358e-06
6.09661e-06
1.61957e-08
9.05629e-08
3.88588e-07
1.27261e-06
3.1805e-06
6.23799e-06
9.93696e-09
6.4216e-08
3.0346e-07
1.06162e-06
2.78526e-06
5.68476e-06
4.92878e-09
3.69998e-08
1.97015e-07
7.5776e-07
2.15129e-06
4.69035e-06
2.2989e-09
1.8299e-08
1.09259e-07
4.94383e-07
1.55605e-06
3.60404e-06
1.16515e-09
9.62226e-09
6.41932e-08
3.22819e-07
1.08357e-06
2.61754e-06
6.9683e-10
6.08491e-09
4.14915e-08
2.03495e-07
7.03169e-07
1.76006e-06
4.73723e-10
4.14992e-09
2.6461e-08
1.23445e-07
4.21685e-07
1.0774e-06
3.78689e-10
3.05258e-09
1.78898e-08
7.79965e-08
2.58276e-07
6.53888e-07
6.67866e-10
3.79094e-09
1.81492e-08
6.92985e-08
2.1123e-07
5.21093e-07
2.76446e-09
1.15208e-08
4.32851e-08
1.39788e-07
3.86369e-07
9.29827e-07
1.28906e-08
4.64457e-08
1.494e-07
4.19164e-07
1.021e-06
2.1787e-06
5.32653e-08
1.65736e-07
4.61899e-07
1.12444e-06
2.36492e-06
4.32506e-06
1.74026e-07
4.41535e-07
1.03183e-06
2.16142e-06
4.01849e-06
6.60029e-06
1.80899e-07
4.96782e-07
1.22011e-06
2.62321e-06
4.88256e-06
7.88492e-06
1.75673e-07
5.06495e-07
1.27351e-06
2.76118e-06
5.1377e-06
8.26543e-06
1.55167e-07
4.60785e-07
1.18063e-06
2.59385e-06
4.88044e-06
7.91459e-06
1.31757e-07
3.93067e-07
1.01396e-06
2.24745e-06
4.27497e-06
7.00074e-06
1.10978e-07
3.24931e-07
8.30337e-07
1.83697e-06
3.51245e-06
5.80977e-06
9.49958e-08
2.68074e-07
6.64491e-07
1.44356e-06
2.74839e-06
4.56772e-06
8.03739e-08
2.20579e-07
5.31313e-07
1.1259e-06
2.09899e-06
3.42717e-06
6.79502e-08
1.81421e-07
4.22451e-07
8.6342e-07
1.55025e-06
2.45441e-06
5.83971e-08
1.50493e-07
3.39527e-07
6.81676e-07
1.24457e-06
2.13662e-06
5.65011e-08
1.4817e-07
3.59586e-07
8.12725e-07
1.71745e-06
3.35094e-06
9.63414e-08
2.75987e-07
7.2529e-07
1.70666e-06
3.54997e-06
6.48647e-06
3.26786e-07
8.35012e-07
1.91148e-06
3.85017e-06
6.87214e-06
1.09021e-05
1.13998e-06
2.36052e-06
4.43726e-06
7.44724e-06
1.12116e-05
1.52953e-05
2.32819e-07
5.35823e-07
1.15706e-06
2.33952e-06
4.38056e-06
7.48219e-06
2.31811e-07
6.23258e-07
1.58446e-06
3.62187e-06
7.10888e-06
1.18296e-05
5.1872e-07
1.41656e-06
3.38647e-06
6.79531e-06
1.15933e-05
1.70446e-05
1.6407e-06
3.58801e-06
6.91782e-06
1.14461e-05
1.6592e-05
2.1399e-05
1.20627e-06
2.79264e-06
5.41903e-06
8.98668e-06
1.30864e-05
1.71632e-05
1.07282e-06
2.59493e-06
5.17185e-06
8.70464e-06
1.2757e-05
1.67416e-05
8.47273e-07
2.14987e-06
4.45475e-06
7.73071e-06
1.15731e-05
1.54121e-05
6.24533e-07
1.65049e-06
3.56277e-06
6.41985e-06
9.92073e-06
1.3565e-05
4.47136e-07
1.21294e-06
2.71019e-06
5.07358e-06
8.14686e-06
1.15178e-05
3.09212e-07
8.47145e-07
1.94304e-06
3.78144e-06
6.374e-06
9.25054e-06
2.1625e-07
5.85491e-07
1.35496e-06
2.69758e-06
4.81293e-06
7.24608e-06
1.54145e-07
4.04737e-07
9.35359e-07
1.95558e-06
3.56076e-06
5.54272e-06
1.17053e-07
3.00128e-07
7.04428e-07
1.48768e-06
2.70561e-06
4.17686e-06
9.78961e-08
2.48311e-07
5.73388e-07
1.17481e-06
2.07067e-06
3.15793e-06
8.54132e-08
2.11662e-07
4.74988e-07
9.68469e-07
1.83054e-06
3.32857e-06
7.15181e-08
1.87422e-07
4.77478e-07
1.17552e-06
2.6927e-06
5.46823e-06
1.13475e-07
3.50368e-07
9.96258e-07
2.46159e-06
5.1732e-06
9.2657e-06
4.16317e-07
1.10111e-06
2.58634e-06
5.20392e-06
9.03001e-06
1.35571e-05
1.97071e-05
2.80012e-05
3.34555e-05
3.49678e-05
2.99876e-05
1.9071e-05
2.68312e-05
3.26319e-05
3.45822e-05
2.77618e-05
1.74291e-05
2.47505e-05
3.07882e-05
3.31003e-05
2.65187e-05
1.52422e-05
2.17018e-05
2.72942e-05
2.97474e-05
2.48653e-05
1.28751e-05
1.79491e-05
2.25948e-05
2.51216e-05
2.22919e-05
1.02988e-05
1.40153e-05
1.7725e-05
2.03919e-05
1.95587e-05
7.78311e-06
1.05076e-05
1.33409e-05
1.59883e-05
1.74633e-05
5.61373e-06
7.65869e-06
9.80131e-06
1.24744e-05
1.65536e-05
1.95196e-05
3.88731e-06
5.43424e-06
7.20885e-06
1.01816e-05
1.6603e-05
2.21239e-05
2.55463e-06
3.8005e-06
5.60788e-06
9.43429e-06
1.74974e-05
2.55894e-05
1.69301e-06
3.24831e-06
6.16051e-06
1.11797e-05
1.98058e-05
3.06073e-05
3.59893e-05
1.83499e-06
4.80092e-06
9.70848e-06
1.59874e-05
2.40526e-05
3.65799e-05
5.24867e-05
3.41639e-05
3.30173e-06
8.48678e-06
1.557e-05
2.27127e-05
2.91456e-05
3.973e-05
7.96957e-05
0.000101265
5.76603e-06
1.30034e-05
2.12971e-05
2.80186e-05
3.17243e-05
3.39401e-05
5.27313e-05
0.000178848
8.29371e-06
1.64192e-05
2.43182e-05
2.98918e-05
3.12571e-05
2.85101e-05
3.45589e-05
0.000150296
9.74764e-06
1.77372e-05
2.52266e-05
3.07445e-05
3.11104e-05
2.41547e-05
2.60931e-05
0.00012625
1.0026e-05
1.76868e-05
2.53637e-05
3.15611e-05
3.20269e-05
2.26491e-05
2.06717e-05
5.95044e-05
9.32837e-06
1.63592e-05
2.39107e-05
3.03604e-05
3.10474e-05
2.21606e-05
1.94685e-05
7.25077e-05
8.02896e-06
1.41437e-05
2.08062e-05
2.6701e-05
2.74662e-05
2.02824e-05
1.84103e-05
8.40718e-05
6.49446e-06
1.14545e-05
1.68993e-05
2.18243e-05
2.29181e-05
1.79812e-05
1.77527e-05
6.99181e-05
4.96571e-06
8.70086e-06
1.28279e-05
1.68102e-05
1.84675e-05
1.66852e-05
1.77867e-05
2.76427e-05
3.4904e-06
6.18659e-06
9.23593e-06
1.25466e-05
1.52861e-05
1.6961e-05
1.96263e-05
2.67113e-05
2.20325e-06
4.11182e-06
6.46089e-06
9.42748e-06
1.35529e-05
1.87963e-05
1.3124e-06
2.71542e-06
4.85003e-06
7.98126e-06
1.3596e-05
2.20438e-05
1.09073e-06
2.79241e-06
5.70656e-06
9.7965e-06
1.62015e-05
2.68621e-05
1.95838e-06
5.0861e-06
9.83186e-06
1.53214e-05
2.17595e-05
3.29893e-05
4.04528e-06
9.27789e-06
1.59805e-05
2.23492e-05
2.78357e-05
3.72912e-05
6.94527e-06
1.3904e-05
2.13955e-05
2.7091e-05
2.99305e-05
9.62872e-06
1.714e-05
2.41306e-05
2.8735e-05
2.8932e-05
1.12668e-05
1.85069e-05
2.51482e-05
2.9634e-05
2.80564e-05
1.17576e-05
1.864e-05
2.54127e-05
3.03986e-05
2.80996e-05
1.12115e-05
1.74608e-05
2.40026e-05
2.93121e-05
2.69304e-05
9.87974e-06
1.53336e-05
2.1176e-05
2.62e-05
2.40608e-05
8.19687e-06
1.27666e-05
1.76155e-05
2.21272e-05
2.08791e-05
6.3803e-06
1.00275e-05
1.39482e-05
1.78572e-05
1.90495e-05
4.70379e-06
7.58871e-06
1.09598e-05
1.48484e-05
1.97532e-05
3.46528e-06
6.11637e-06
9.74063e-06
1.48741e-05
2.31898e-05
3.53828e-06
7.23768e-06
1.23337e-05
1.88139e-05
2.86451e-05
5.89054e-06
1.19408e-05
1.89809e-05
2.584e-05
3.46851e-05
1.0364e-05
1.87712e-05
2.68581e-05
3.30349e-05
3.95828e-05
1.54647e-05
2.48634e-05
3.22236e-05
3.63638e-05
3.95803e-05
1.93205e-05
2.77879e-05
3.32638e-05
3.5155e-05
3.38019e-05
2.07539e-05
2.7979e-05
3.2642e-05
3.37418e-05
2.87196e-05
2.03929e-05
2.71005e-05
3.19707e-05
3.32204e-05
2.60709e-05
1.89854e-05
2.51226e-05
3.00337e-05
3.19002e-05
2.47305e-05
1.67932e-05
2.20793e-05
2.6693e-05
2.89604e-05
2.38956e-05
1.42886e-05
1.84746e-05
2.23834e-05
2.52502e-05
2.27859e-05
1.16403e-05
1.48231e-05
1.81589e-05
2.15821e-05
2.20317e-05
9.20783e-06
1.16346e-05
1.45623e-05
1.84402e-05
2.24035e-05
7.11967e-06
9.13424e-06
1.19532e-05
1.71118e-05
2.47111e-05
5.4236e-06
7.53879e-06
1.12765e-05
1.84186e-05
2.86925e-05
4.52409e-06
8.13358e-06
1.39667e-05
2.24212e-05
3.35978e-05
5.8552e-06
1.21245e-05
2.00426e-05
2.85427e-05
3.88478e-05
9.51896e-06
1.84163e-05
2.7416e-05
3.46746e-05
4.24817e-05
1.42162e-05
2.45098e-05
3.29648e-05
3.78185e-05
4.1468e-05
1.8164e-05
2.77637e-05
3.42547e-05
3.6477e-05
3.51012e-05
6.7356e-09
1.76008e-09
5.02172e-10
1.93913e-10
1.41297e-10
1.43347e-10
1.56026e-10
1.64931e-10
1.6378e-10
1.42729e-10
9.72778e-11
5.09623e-11
2.94834e-11
1.23657e-10
2.79999e-09
6.92631e-10
1.64083e-10
4.04633e-11
1.39008e-11
1.06717e-11
1.30426e-11
1.63533e-11
1.88936e-11
1.88417e-11
1.4389e-11
7.98343e-12
1.13295e-11
1.18286e-10
3.63827e-09
1.04458e-09
2.81725e-10
6.89436e-11
1.46183e-11
2.91979e-12
1.14182e-12
1.2806e-12
1.67753e-12
1.90591e-12
1.61825e-12
1.17049e-12
7.54645e-12
1.04974e-10
5.37942e-09
1.69601e-09
4.74017e-10
1.14229e-10
2.29518e-11
3.76966e-12
5.19969e-13
1.18778e-13
1.17167e-13
1.49446e-13
1.43555e-13
2.52064e-13
4.35523e-12
6.99612e-11
6.99076e-09
2.20669e-09
6.05059e-10
1.41105e-10
2.7323e-11
4.31306e-12
5.37685e-13
5.35306e-14
9.19379e-15
9.07823e-15
1.0604e-14
8.52596e-14
2.2128e-12
3.83329e-11
8.60216e-09
2.57414e-09
6.63884e-10
1.45413e-10
2.65488e-11
3.96292e-12
4.70374e-13
4.37903e-14
3.91735e-15
1.0861e-15
1.20721e-15
3.05838e-14
1.01618e-12
1.95634e-11
1.09281e-08
3.01999e-09
7.19004e-10
1.45822e-10
2.47591e-11
3.45547e-12
3.98967e-13
4.8669e-14
1.43832e-14
8.06439e-15
4.76569e-15
1.54692e-14
4.89722e-13
1.01781e-11
1.41569e-08
3.60381e-09
7.91656e-10
1.48761e-10
2.35253e-11
3.19689e-12
4.99283e-13
1.92693e-13
1.34503e-13
9.25791e-14
5.78363e-14
4.22841e-14
2.6601e-13
5.41307e-12
1.83181e-08
4.34486e-09
8.87161e-10
1.54703e-10
2.34218e-11
4.0734e-12
1.80022e-12
1.44835e-12
1.18948e-12
8.88064e-13
5.99891e-13
4.20604e-13
4.16169e-13
3.39535e-12
2.34395e-08
5.2566e-09
1.01925e-09
1.71554e-10
2.99729e-11
1.20304e-11
1.0848e-11
1.02218e-11
8.90937e-12
7.10692e-12
5.18439e-12
3.90972e-12
2.85565e-12
3.96115e-12
2.87974e-08
6.12429e-09
1.14584e-09
2.04747e-10
6.43003e-11
5.62431e-11
6.18124e-11
6.17029e-11
5.65925e-11
4.80103e-11
3.78704e-11
3.04763e-11
2.26458e-11
1.86931e-11
3.43092e-08
7.05393e-09
1.35512e-09
3.33687e-10
2.26351e-10
2.62193e-10
3.0542e-10
3.18773e-10
3.07819e-10
2.77752e-10
2.36866e-10
2.01123e-10
1.55496e-10
1.22371e-10
4.05677e-08
8.39556e-09
1.87214e-09
8.35984e-10
8.81053e-10
1.09398e-09
1.31054e-09
1.42356e-09
1.4479e-09
1.39316e-09
1.28148e-09
1.14316e-09
9.2459e-10
7.27466e-10
5.78013e-08
1.32593e-08
3.84352e-09
2.70138e-09
3.21199e-09
4.04227e-09
4.92679e-09
5.54735e-09
5.95313e-09
6.12997e-09
6.05089e-09
5.68233e-09
4.81142e-09
3.8533e-09
4.50637e-10
1.23361e-10
4.0309e-11
2.02779e-11
2.00094e-11
2.33718e-11
2.77626e-11
3.14067e-11
3.28351e-11
3.00307e-11
2.15968e-11
1.1411e-11
4.87129e-12
6.98374e-12
3.99369e-10
9.83155e-11
2.32278e-11
5.53e-12
1.94348e-12
1.71392e-12
2.30066e-12
3.03897e-12
3.64419e-12
3.77041e-12
2.99005e-12
1.66587e-12
9.19692e-13
6.10963e-12
6.94e-10
1.90057e-10
4.71869e-11
1.04831e-11
2.03844e-12
3.97257e-13
1.85321e-13
2.32891e-13
3.15881e-13
3.68042e-13
3.18942e-13
1.94644e-13
4.19931e-13
6.46315e-12
1.1243e-09
3.23584e-10
8.18521e-11
1.78979e-11
3.30466e-12
5.08845e-13
6.93426e-14
1.93217e-14
2.17385e-14
2.82278e-14
2.69593e-14
2.36819e-14
2.74845e-13
5.34022e-12
1.52796e-09
4.3531e-10
1.07598e-10
2.27196e-11
4.03047e-12
5.92324e-13
7.04511e-14
7.11157e-15
1.57679e-15
1.72387e-15
1.8342e-15
5.82449e-15
1.75846e-13
3.76423e-12
1.89403e-09
5.09458e-10
1.18533e-10
2.35822e-11
3.955e-12
5.50679e-13
6.22307e-14
5.66117e-15
5.15332e-16
1.687e-16
1.65791e-16
2.35315e-15
9.8326e-14
2.34757e-12
2.32972e-09
5.79167e-10
1.24481e-10
2.29462e-11
3.57639e-12
4.64858e-13
5.04764e-14
5.49441e-15
1.29677e-15
6.54727e-16
3.69909e-16
1.35659e-15
5.57758e-14
1.42364e-12
2.87075e-09
6.58524e-10
1.30547e-10
2.22808e-11
3.22814e-12
4.04417e-13
5.60248e-14
1.83958e-14
1.17718e-14
7.48863e-15
4.28758e-15
2.98186e-15
3.28479e-14
8.54278e-13
3.47859e-09
7.4107e-10
1.3626e-10
2.15656e-11
2.98889e-12
4.72887e-13
1.91341e-13
1.44838e-13
1.12194e-13
7.71259e-14
4.72431e-14
2.90661e-14
3.52145e-14
5.24517e-13
4.11186e-09
8.24298e-10
1.431e-10
2.16602e-11
3.50093e-12
1.41306e-12
1.25943e-12
1.12737e-12
9.25083e-13
6.7759e-13
4.44621e-13
2.92962e-13
1.93032e-13
4.06092e-13
4.62042e-09
8.79644e-10
1.47317e-10
2.39304e-11
7.90096e-12
7.45116e-12
8.05947e-12
7.60466e-12
6.54276e-12
5.08764e-12
3.57958e-12
2.52221e-12
1.65423e-12
1.27826e-12
4.92748e-09
9.04759e-10
1.56417e-10
3.92372e-11
3.22418e-11
3.94762e-11
4.51201e-11
4.43639e-11
4.0007e-11
3.29593e-11
2.48836e-11
1.85497e-11
1.26036e-11
8.80256e-12
4.97805e-09
9.26006e-10
2.00752e-10
1.14584e-10
1.44007e-10
1.86815e-10
2.20187e-10
2.25083e-10
2.1272e-10
1.85372e-10
1.50095e-10
1.17622e-10
8.30932e-11
5.80717e-11
5.87852e-09
1.25958e-09
4.36068e-10
4.32422e-10
5.93863e-10
7.8345e-10
9.43839e-10
1.00152e-09
9.92569e-10
9.16515e-10
7.93765e-10
6.51541e-10
4.79032e-10
3.38172e-10
4.07985e-11
1.0456e-11
3.6869e-12
2.69088e-12
3.23187e-12
4.18984e-12
5.35265e-12
6.39117e-12
6.93352e-12
6.52786e-12
4.82341e-12
2.62745e-12
1.07891e-12
6.4419e-13
6.50743e-11
1.57197e-11
3.55068e-12
8.0478e-13
2.98303e-13
3.05137e-13
4.43933e-13
6.13368e-13
7.56022e-13
7.97863e-13
6.44269e-13
3.68396e-13
1.5338e-13
3.52576e-13
1.27955e-10
3.2971e-11
7.63235e-12
1.57954e-12
2.89612e-13
5.76185e-14
3.35744e-14
4.66224e-14
6.49833e-14
7.66638e-14
6.71268e-14
4.06085e-14
3.27865e-14
4.0084e-13
2.1737e-10
5.81086e-11
1.36367e-11
2.77885e-12
4.8333e-13
7.1287e-14
9.89771e-15
3.5461e-15
4.47224e-15
5.86117e-15
5.60142e-15
3.8676e-15
1.84157e-14
3.9221e-13
3.04127e-10
7.98397e-11
1.82391e-11
3.58453e-12
5.98642e-13
8.38486e-14
9.70738e-15
1.03917e-15
3.26639e-16
3.85507e-16
4.00425e-16
5.50682e-16
1.33946e-14
3.31289e-13
3.76943e-10
9.33875e-11
2.01118e-11
3.72982e-12
5.89341e-13
7.81941e-14
8.57127e-15
7.9571e-16
1.02931e-16
5.91508e-17
5.86041e-17
2.19735e-16
8.9197e-15
2.45949e-13
4.46716e-10
1.02608e-10
2.04773e-11
3.52657e-12
5.18301e-13
6.42506e-14
6.73432e-15
7.11105e-16
1.66151e-16
9.27507e-17
6.47951e-17
1.54893e-16
6.0272e-15
1.77259e-13
5.20268e-10
1.10473e-10
2.03889e-11
3.25879e-12
4.45687e-13
5.29907e-14
6.78131e-15
1.97865e-15
1.18541e-15
7.21205e-16
4.02484e-16
2.81215e-16
3.89388e-15
1.17569e-13
5.87832e-10
1.16013e-10
1.98862e-11
2.95427e-12
3.85957e-13
5.70262e-14
2.12898e-14
1.53966e-14
1.13556e-14
7.31229e-15
4.1898e-15
2.34919e-15
3.73894e-15
7.78716e-14
6.37962e-10
1.18423e-10
1.91499e-11
2.71602e-12
4.168e-13
1.66806e-13
1.45222e-13
1.25627e-13
9.78621e-14
6.66095e-14
4.04325e-14
2.3869e-14
1.48644e-14
5.30186e-14
6.50798e-10
1.14443e-10
1.77858e-11
2.74236e-12
9.60673e-13
9.4475e-13
9.94329e-13
9.03462e-13
7.34472e-13
5.27693e-13
3.40315e-13
2.13936e-13
1.2615e-13
9.93595e-14
6.17499e-10
1.04878e-10
1.69803e-11
4.56802e-12
4.36173e-12
5.45636e-12
6.03083e-12
5.68461e-12
4.81759e-12
3.64901e-12
2.50172e-12
1.65971e-12
1.00917e-12
6.33003e-13
5.41367e-10
9.4153e-11
2.09814e-11
1.53967e-11
2.15244e-11
2.8302e-11
3.2203e-11
3.14171e-11
2.77373e-11
2.21087e-11
1.61002e-11
1.11959e-11
7.02926e-12
4.38171e-12
5.47958e-10
1.15276e-10
5.11429e-11
6.55061e-11
9.76656e-11
1.30779e-10
1.52201e-10
1.53371e-10
1.40967e-10
1.18135e-10
9.11677e-11
6.60864e-11
4.28771e-11
2.70256e-11
4.59776e-12
1.08842e-12
3.86419e-13
3.35201e-13
4.59108e-13
6.52669e-13
8.9377e-13
1.12594e-12
1.26832e-12
1.22839e-12
9.3037e-13
5.2443e-13
2.17698e-13
8.83523e-14
9.84215e-12
2.27776e-12
4.86714e-13
1.04798e-13
4.09277e-14
4.76662e-14
7.44622e-14
1.07643e-13
1.36707e-13
1.47353e-13
1.21048e-13
7.12246e-14
2.9139e-14
2.2573e-14
2.03336e-11
4.94603e-12
1.07497e-12
2.08966e-13
3.64779e-14
7.5692e-15
5.45225e-15
8.19363e-15
1.17279e-14
1.4042e-14
1.24314e-14
7.65006e-15
3.69005e-15
2.17671e-14
3.55244e-11
8.87344e-12
1.94541e-12
3.72539e-13
6.16257e-14
8.81325e-15
1.29782e-15
6.13508e-16
8.33658e-16
1.09626e-15
1.05341e-15
7.02903e-16
1.14794e-15
2.38338e-14
5.01015e-11
1.22545e-11
2.61663e-12
4.8432e-13
7.70583e-14
1.04391e-14
1.2177e-15
1.66459e-16
8.63776e-17
1.00518e-16
1.02901e-16
9.26167e-17
8.35117e-16
2.32436e-14
6.09532e-11
1.40925e-11
2.84572e-12
4.98675e-13
7.52188e-14
9.66777e-15
1.06848e-15
1.28532e-16
4.55363e-17
4.06499e-17
4.06397e-17
4.81162e-17
6.45832e-16
2.0045e-14
6.88971e-11
1.48116e-11
2.78323e-12
4.54833e-13
6.40518e-14
7.72218e-15
8.20729e-16
1.11628e-16
4.86369e-17
4.13156e-17
3.9069e-17
4.43576e-17
5.07774e-16
1.6555e-14
7.51549e-11
1.49732e-11
2.61187e-12
3.97371e-13
5.22258e-14
6.02842e-15
7.51616e-16
2.15044e-16
1.32402e-16
8.99468e-17
6.29302e-17
5.34376e-17
3.8477e-16
1.23679e-14
7.87822e-11
1.46006e-11
2.36959e-12
3.36112e-13
4.22189e-14
5.95354e-15
2.06838e-15
1.43065e-15
1.0138e-15
6.30129e-16
3.53865e-16
1.98863e-16
3.80094e-16
9.04165e-15
7.88094e-11
1.37437e-11
2.10446e-12
2.85373e-13
4.24721e-14
1.68827e-14
1.42931e-14
1.19344e-14
8.84187e-15
5.67287e-15
3.2362e-15
1.76171e-15
1.1048e-15
6.39277e-15
7.31165e-11
1.20951e-11
1.78206e-12
2.68149e-13
1.0085e-13
1.0154e-13
1.03581e-13
9.05102e-14
6.96058e-14
4.67616e-14
2.80555e-14
1.60514e-14
8.70501e-15
7.93004e-15
6.24822e-11
1.00285e-11
1.56462e-12
4.71118e-13
5.05019e-13
6.31773e-13
6.72644e-13
6.06988e-13
4.8399e-13
3.40483e-13
2.15314e-13
1.29352e-13
7.15891e-14
4.1664e-14
4.8693e-11
8.14152e-12
1.97415e-12
1.83719e-12
2.72193e-12
3.54867e-12
3.87577e-12
3.603e-12
2.97653e-12
2.19006e-12
1.45771e-12
9.13496e-13
5.192e-13
2.94809e-13
4.41815e-11
9.55048e-12
5.68622e-12
8.66632e-12
1.3454e-11
1.78377e-11
1.9878e-11
1.8985e-11
1.62253e-11
1.24624e-11
8.70334e-12
5.65453e-12
3.3024e-12
1.89108e-12
5.41724e-13
1.18996e-13
3.90316e-14
3.6815e-14
5.61405e-14
8.69473e-14
1.27333e-13
1.69062e-13
1.97842e-13
1.96772e-13
1.52162e-13
8.8304e-14
3.75783e-14
1.3646e-14
1.29898e-12
2.86178e-13
5.78629e-14
1.18687e-14
4.91036e-15
6.42782e-15
1.0704e-14
1.61641e-14
2.11735e-14
2.33183e-14
1.94475e-14
1.17292e-14
4.93998e-15
2.06875e-15
2.76393e-12
6.35238e-13
1.30224e-13
2.39437e-14
4.02818e-15
9.07085e-16
7.96171e-16
1.26133e-15
1.84218e-15
2.23672e-15
2.00305e-15
1.26463e-15
5.64356e-16
1.12122e-15
4.91367e-12
1.15277e-12
2.37632e-13
4.3049e-14
6.83108e-15
9.76188e-16
1.79205e-16
1.19781e-16
1.59935e-16
2.0287e-16
1.96884e-16
1.41427e-16
1.11396e-16
1.2534e-15
6.92571e-12
1.59192e-12
3.20436e-13
5.63117e-14
8.61494e-15
1.16016e-15
1.62824e-16
5.18091e-17
4.43338e-17
4.69439e-17
4.73049e-17
4.43685e-17
7.46233e-17
1.36434e-15
8.21231e-12
1.78995e-12
3.42307e-13
5.72262e-14
8.32819e-15
1.06958e-15
1.45727e-16
4.66444e-17
3.79732e-17
3.75104e-17
3.75259e-17
3.77131e-17
6.85638e-17
1.33869e-15
8.84794e-12
1.80096e-12
3.2215e-13
5.04875e-14
6.89796e-15
8.4072e-16
1.17224e-16
4.42762e-17
3.79379e-17
3.72871e-17
3.71268e-17
3.73585e-17
6.53678e-17
1.25721e-15
9.03065e-12
1.71025e-12
2.85354e-13
4.1814e-14
5.36155e-15
6.32104e-16
1.03292e-16
5.07813e-17
4.34395e-17
4.03059e-17
3.85169e-17
3.79421e-17
6.21328e-17
1.06663e-15
8.78702e-12
1.55205e-12
2.41824e-13
3.31748e-14
4.07616e-15
5.74327e-16
2.0248e-16
1.42944e-16
1.07069e-16
7.67804e-17
5.64698e-17
4.60186e-17
6.51745e-17
8.96363e-16
8.09347e-12
1.34753e-12
1.9838e-13
2.61022e-14
3.80505e-15
1.48421e-15
1.21767e-15
9.86427e-16
7.06408e-16
4.42639e-16
2.53139e-16
1.44024e-16
1.07828e-16
7.20397e-16
6.852e-12
1.08558e-12
1.54205e-13
2.29333e-14
9.09075e-15
9.18954e-15
9.07769e-15
7.63576e-15
5.58773e-15
3.55614e-15
2.01971e-15
1.08514e-15
5.69253e-16
6.95455e-16
5.31032e-12
8.20454e-13
1.25868e-13
4.26391e-14
4.92893e-14
6.09115e-14
6.24522e-14
5.39771e-14
4.06993e-14
2.6873e-14
1.58764e-14
8.81057e-15
4.53282e-15
2.55647e-15
3.73826e-12
6.12794e-13
1.67622e-13
1.88886e-13
2.87386e-13
3.67382e-13
3.84595e-13
3.40682e-13
2.64735e-13
1.81575e-13
1.11896e-13
6.43747e-14
3.37406e-14
1.78043e-14
3.11698e-12
7.21066e-13
5.73948e-13
9.7576e-13
1.53662e-12
1.99124e-12
2.11761e-12
1.91643e-12
1.5319e-12
1.08912e-12
6.97871e-13
4.14006e-13
2.21784e-13
1.17314e-13
5.86299e-14
1.20633e-14
3.59725e-15
3.53509e-15
5.90997e-15
9.90542e-15
1.54519e-14
2.15782e-14
2.62193e-14
2.67679e-14
2.10543e-14
1.25004e-14
5.46869e-15
1.95868e-15
1.48714e-13
3.11383e-14
5.99806e-15
1.19842e-15
5.39208e-16
7.69732e-16
1.33835e-15
2.09308e-15
2.81926e-15
3.16972e-15
2.68153e-15
1.65767e-15
7.34365e-16
2.81196e-16
3.23517e-13
7.04721e-14
1.37254e-14
2.42568e-15
4.20595e-16
1.25602e-16
1.28194e-16
1.93355e-16
2.74507e-16
3.31905e-16
3.0292e-16
2.04951e-16
1.09232e-16
9.37763e-17
5.81662e-13
1.29016e-13
2.52205e-14
4.37581e-15
6.94456e-16
1.25322e-16
5.11849e-17
4.72307e-17
5.31419e-17
5.91666e-17
5.84377e-17
5.10075e-17
4.40036e-17
9.13894e-17
8.16139e-13
1.77751e-13
3.40224e-14
5.73827e-15
8.73229e-16
1.43231e-16
4.86898e-17
3.84494e-17
3.78908e-17
3.82814e-17
3.83318e-17
3.79021e-17
3.87023e-17
1.03306e-16
9.40475e-13
1.94956e-13
3.56128e-14
5.73749e-15
8.34632e-16
1.3337e-16
4.69015e-17
3.78344e-17
3.70442e-17
3.70113e-17
3.70173e-17
3.70131e-17
3.84396e-17
1.11619e-16
9.66967e-13
1.87983e-13
3.22669e-14
4.89955e-15
6.77661e-16
1.09781e-16
4.40457e-17
3.75763e-17
3.70135e-17
3.69632e-17
3.69552e-17
3.69681e-17
3.85332e-17
1.16441e-16
9.25601e-13
1.68192e-13
2.70539e-14
3.86335e-15
5.10383e-16
8.78867e-17
4.22657e-17
3.7894e-17
3.73361e-17
3.7137e-17
3.70319e-17
3.70041e-17
3.8691e-17
1.14068e-16
8.3839e-13
1.42512e-13
2.14921e-14
2.89137e-15
3.74132e-16
7.87368e-17
4.82803e-17
4.35978e-17
4.10669e-17
3.91491e-17
3.79719e-17
3.74204e-17
3.92389e-17
1.12356e-16
7.13268e-13
1.14608e-13
1.63771e-14
2.1244e-15
3.27277e-16
1.42444e-16
1.19416e-16
1.00468e-16
7.92783e-17
6.08202e-17
4.85574e-17
4.21399e-17
4.1487e-17
1.06332e-16
5.54407e-13
8.50208e-14
1.17596e-14
1.75008e-15
7.31375e-16
7.34605e-16
7.06019e-16
5.78795e-16
4.14397e-16
2.63348e-16
1.56185e-16
9.4571e-17
6.42421e-17
9.63708e-17
3.93006e-13
5.90559e-14
8.99561e-15
3.38062e-15
4.0904e-15
4.96851e-15
4.92651e-15
4.09707e-15
2.94948e-15
1.85514e-15
1.04545e-15
5.56359e-16
2.84253e-16
1.77384e-16
2.52489e-13
4.10198e-14
1.27885e-14
1.65505e-14
2.54343e-14
3.17868e-14
3.20297e-14
2.71454e-14
1.99876e-14
1.29109e-14
7.45399e-15
4.00033e-15
1.97287e-15
9.97012e-16
1.96192e-13
4.99872e-14
5.09913e-14
9.25988e-14
1.45984e-13
1.84192e-13
1.87682e-13
1.61691e-13
1.2178e-13
8.09664e-14
4.81945e-14
2.64759e-14
1.32058e-14
6.55455e-15
5.62127e-15
1.1179e-15
3.24446e-16
3.21953e-16
5.61031e-16
9.90006e-16
1.62117e-15
2.36367e-15
2.97187e-15
3.11213e-15
2.49142e-15
1.51318e-15
6.92809e-16
2.69529e-16
1.47406e-14
2.96588e-15
5.71711e-16
1.36321e-16
8.09414e-17
1.0761e-16
1.70938e-16
2.5876e-16
3.47353e-16
3.94627e-16
3.42491e-16
2.26178e-16
1.19812e-16
6.5421e-17
3.26765e-14
6.79826e-15
1.28916e-15
2.45563e-16
6.92609e-17
4.4817e-17
4.62113e-17
5.37792e-17
6.33977e-17
7.05244e-17
6.74814e-17
5.63234e-17
4.53707e-17
4.08148e-17
5.92408e-14
1.25212e-14
2.35984e-15
4.19674e-16
9.27363e-17
4.42277e-17
3.81871e-17
3.80283e-17
3.87441e-17
3.94613e-17
3.93887e-17
3.85439e-17
3.76811e-17
3.91652e-17
8.26526e-14
1.71884e-14
3.1708e-15
5.41124e-16
1.08197e-16
4.57236e-17
3.78848e-17
3.70608e-17
3.70319e-17
3.70818e-17
3.70899e-17
3.70424e-17
3.70481e-17
3.99608e-17
9.26266e-14
1.84008e-14
3.25228e-15
5.32518e-16
1.03763e-16
4.47674e-17
3.77265e-17
3.69974e-17
3.69363e-17
3.69365e-17
3.69395e-17
3.69408e-17
3.70198e-17
4.09879e-17
9.11272e-14
1.70507e-14
2.84783e-15
4.46102e-16
8.88176e-17
4.26507e-17
3.74827e-17
3.69747e-17
3.69322e-17
3.69306e-17
3.69323e-17
3.69358e-17
3.70367e-17
4.19544e-17
8.22874e-14
1.44617e-14
2.27787e-15
3.43698e-16
7.32608e-17
4.07152e-17
3.73126e-17
3.69862e-17
3.69496e-17
3.69401e-17
3.69367e-17
3.69385e-17
3.70677e-17
4.26531e-17
6.97602e-14
1.15144e-14
1.71363e-15
2.52587e-16
6.10432e-17
3.97534e-17
3.76121e-17
3.72986e-17
3.71496e-17
3.70451e-17
3.69846e-17
3.69604e-17
3.71318e-17
4.34729e-17
5.51868e-14
8.64343e-15
1.23005e-15
1.83635e-16
5.59474e-17
4.34081e-17
4.17329e-17
4.04432e-17
3.91453e-17
3.8118e-17
3.74876e-17
3.71792e-17
3.72721e-17
4.37285e-17
3.9701e-14
5.9587e-15
8.31153e-16
1.48815e-16
8.21789e-17
8.16221e-17
7.83063e-17
6.88869e-17
5.78451e-17
4.8535e-17
4.25144e-17
3.9401e-17
3.817e-17
4.26298e-17
2.60019e-14
3.84666e-15
6.06512e-16
2.63926e-16
3.19578e-16
3.74426e-16
3.60917e-16
2.95339e-16
2.13258e-16
1.405e-16
9.00727e-17
6.16196e-17
4.74407e-17
4.41224e-17
1.54011e-14
2.51357e-15
9.01225e-16
1.26777e-15
1.9335e-15
2.35238e-15
2.28852e-15
1.86639e-15
1.31815e-15
8.18717e-16
4.59591e-16
2.46704e-16
1.31414e-16
8.03704e-17
1.12443e-14
3.21857e-15
3.97452e-15
7.485e-15
1.17144e-14
1.4362e-14
1.40592e-14
1.15733e-14
8.27128e-15
5.1949e-15
2.91284e-15
1.51088e-15
7.23565e-16
3.56206e-16
4.95966e-16
1.21399e-16
5.70088e-17
5.58417e-17
7.55726e-17
1.14041e-16
1.74213e-16
2.49356e-16
3.15403e-16
3.36677e-16
2.79878e-16
1.84568e-16
1.03317e-16
6.06115e-17
1.28314e-15
2.74454e-16
7.84056e-17
4.43021e-17
4.019e-17
4.25886e-17
4.84203e-17
5.70071e-17
6.61707e-17
7.15534e-17
6.68914e-17
5.55999e-17
4.51876e-17
3.97768e-17
2.85935e-15
5.96151e-16
1.36155e-16
5.27874e-17
3.92944e-17
3.75265e-17
3.77256e-17
3.84595e-17
3.94185e-17
4.0164e-17
3.98973e-17
3.88182e-17
3.77576e-17
3.72471e-17
5.20719e-15
1.0799e-15
2.22971e-16
6.64037e-17
4.10686e-17
3.74425e-17
3.70109e-17
3.70146e-17
3.70881e-17
3.71619e-17
3.71582e-17
3.70785e-17
3.69953e-17
3.70368e-17
7.21825e-15
1.4667e-15
2.87877e-16
7.57943e-17
4.22394e-17
3.75543e-17
3.6982e-17
3.6925e-17
3.69259e-17
3.69329e-17
3.69359e-17
3.69336e-17
3.69337e-17
3.7078e-17
7.8825e-15
1.53419e-15
2.89311e-16
7.43387e-17
4.18126e-17
3.74793e-17
3.6971e-17
3.69205e-17
3.69179e-17
3.692e-17
3.69225e-17
3.6925e-17
3.6932e-17
3.71561e-17
7.44959e-15
1.37429e-15
2.50093e-16
6.66773e-17
4.05873e-17
3.7318e-17
3.69541e-17
3.69201e-17
3.69188e-17
3.69208e-17
3.69232e-17
3.69259e-17
3.69352e-17
3.72468e-17
6.38805e-15
1.11673e-15
1.98812e-16
5.80365e-17
3.93646e-17
3.71727e-17
3.69421e-17
3.69217e-17
3.69211e-17
3.69227e-17
3.69248e-17
3.69276e-17
3.69399e-17
3.73421e-17
5.10932e-15
8.48515e-16
1.51115e-16
5.0789e-17
3.84521e-17
3.70938e-17
3.69555e-17
3.69382e-17
3.69321e-17
3.6929e-17
3.69285e-17
3.69302e-17
3.69477e-17
3.74655e-17
3.79606e-15
6.07863e-16
1.12655e-16
4.56163e-17
3.8033e-17
3.72701e-17
3.71667e-17
3.7096e-17
3.70298e-17