/*--------------------------------*- C++ -*----------------------------------*\
| =========                 |                                                 |
| \\      /  F ield         | OpenFOAM: The Open Source CFD Toolbox           |
|  \\    /   O peration     | Version:  v2106                                 |
|   \\  /    A nd           | Website:  www.openfoam.com                      |
|    \\/     M anipulation  |                                                 |
\*---------------------------------------------------------------------------*/
FoamFile
{
    version     2.0;
    format      ascii;
    arch        "LSB;label=32;scalar=64";
    class       volScalarField;
    location    "0.000142";
    object      T;
}
// * * * * * * * * * * * * * * * * * * * * * * * * * * * * * * * * * * * * * //

dimensions      [0 0 0 1 0 0 0];

internalField   nonuniform List<scalar> 
18109
(
302.65
302.853
303.07
303.249
303.428
303.568
303.706
302.976
302.975
303.148
303.266
303.413
303.534
303.629
303.248
303.182
303.315
303.335
303.437
303.508
303.608
303.409
303.327
303.424
303.402
303.487
303.541
303.62
303.499
303.447
303.498
303.474
303.54
303.57
303.633
303.514
303.488
303.506
303.501
303.551
303.582
303.639
303.428
303.433
303.455
303.477
303.526
303.567
303.626
303.32
303.337
303.371
303.401
303.454
303.511
303.579
303.474
303.593
303.755
303.893
304.026
304.146
304.268
304.369
304.448
304.537
304.603
304.663
304.665
304.613
303.722
303.698
303.833
303.911
304.02
304.111
304.199
304.29
304.344
304.415
304.443
304.466
304.474
304.472
303.934
303.868
303.97
303.979
304.057
304.11
304.185
304.255
304.289
304.353
304.388
304.43
304.452
304.464
304.055
303.99
304.059
304.042
304.105
304.14
304.198
304.248
304.273
304.321
304.346
304.389
304.432
304.487
304.119
304.086
304.12
304.104
304.152
304.171
304.216
304.254
304.276
304.322
304.361
304.418
304.479
304.564
304.119
304.11
304.127
304.129
304.164
304.184
304.225
304.258
304.287
304.336
304.383
304.451
304.526
304.63
304.055
304.06
304.08
304.107
304.148
304.178
304.222
304.26
304.296
304.35
304.407
304.486
304.575
304.693
303.949
303.971
304.008
304.048
304.096
304.144
304.196
304.244
304.288
304.35
304.414
304.501
304.606
304.739
303.8
303.838
303.884
303.947
304.016
304.083
304.146
304.202
304.254
304.324
304.395
304.501
304.62
304.778
303.633
303.696
303.773
303.86
303.948
304.025
304.093
304.153
304.207
304.278
304.347
304.466
304.586
304.774
303.423
303.525
303.636
303.741
303.846
303.936
304.016
304.083
304.14
304.21
304.277
304.399
304.502
304.724
303.233
303.392
303.563
303.701
303.819
303.904
303.974
304.031
304.078
304.134
304.194
304.31
304.393
304.639
303.053
303.25
303.447
303.61
303.75
303.856
303.937
303.992
304.026
304.064
304.114
304.205
304.281
304.51
302.948
303.256
303.508
303.683
303.797
303.884
303.952
303.992
304.003
304.004
304.03
304.084
304.148
304.334
302.137
301.522
300.284
298.364
296.039
293.669
303.144
302.891
302.368
301.446
300.051
298.3
303.4
302.991
302.41
301.442
299.968
298.18
303.592
303.293
302.779
301.912
300.543
298.881
303.815
303.612
303.256
302.604
301.553
300.281
304.036
303.965
303.808
303.434
302.783
302.007
304.213
304.258
304.283
304.194
303.943
303.637
304.388
304.55
304.725
304.866
304.946
305.041
304.532
304.773
305.056
305.363
305.681
306.058
304.635
304.925
305.271
305.684
306.153
306.697
304.715
305.021
305.388
305.851
306.379
307.002
304.752
305.037
305.373
305.832
306.342
306.975
304.741
304.998
305.277
305.67
306.092
306.606
304.69
304.925
305.151
305.427
305.678
305.889
304.679
304.844
304.941
305.061
305.087
305.044
304.51
304.613
304.628
304.633
304.473
304.104
304.454
304.44
304.392
304.277
304.007
303.4
304.45
304.427
304.353
304.198
303.901
303.24
304.515
304.501
304.44
304.306
303.981
303.411
304.646
304.683
304.68
304.604
304.347
303.938
304.748
304.855
304.925
304.936
304.846
304.677
304.852
305.009
305.156
305.28
305.354
305.397
304.911
305.119
305.342
305.584
305.817
306.069
304.967
305.216
305.484
305.806
306.157
306.558
304.964
305.23
305.525
305.89
306.3
306.786
304.886
305.14
305.425
305.797
306.196
306.699
304.746
304.963
305.2
305.515
305.832
306.227
304.563
304.76
304.92
305.107
305.255
305.379
304.436
304.522
304.548
304.573
304.499
304.306
304.151
304.203
304.147
304.045
303.747
303.216
304.067
303.98
303.853
303.633
303.23
302.513
303.992
303.909
303.76
303.516
303.088
302.415
303.961
303.881
303.746
303.527
303.121
302.546
303.969
303.918
303.839
303.711
303.458
303.102
304
304.009
304.022
304.02
303.954
303.838
304
304.057
304.166
304.294
304.419
304.561
303.986
304.083
304.269
304.508
304.798
305.146
303.939
304.087
304.316
304.634
305.023
305.458
303.824
303.971
304.204
304.531
304.923
305.36
303.666
303.778
303.957
304.186
304.404
304.568
303.424
303.458
303.478
303.459
303.297
302.92
303.198
303.113
302.843
302.426
301.73
300.665
302.76
302.42
301.866
301.012
299.822
298.264
303.331
303.381
303.518
303.635
303.604
303.41
303.08
302.997
302.873
302.557
301.823
300.682
302.826
302.588
302.002
301.004
299.4
297.336
302.3
301.706
300.659
299.094
296.995
294.589
302.544
302.125
301.375
300.22
298.72
297.019
302.741
302.165
301.378
300.15
298.619
296.888
302.949
302.446
301.683
300.554
299.118
297.577
303.22
302.796
302.188
301.295
300.183
299.037
303.517
303.239
302.843
302.251
301.524
300.851
303.734
303.583
303.38
303.106
302.811
302.63
303.927
303.882
303.87
303.875
303.917
304.105
304.048
304.081
304.219
304.403
304.707
305.143
304.128
304.216
304.408
304.715
305.144
305.674
304.107
304.209
304.411
304.755
305.195
305.729
303.997
304.082
304.267
304.56
304.879
305.161
303.813
303.843
303.909
303.979
303.964
303.769
303.639
303.647
303.508
303.243
302.726
301.814
303.345
303.145
302.747
302.08
301.052
299.589
294.867
290.233
287.106
285.403
284.325
294.944
290.902
288.563
287.63
286.533
296.197
293.22
291.881
291.597
290.691
298.484
296.616
295.918
295.671
293.62
301.056
300.122
299.816
299.269
295.754
303.354
303.12
303.149
302.319
297.751
305.279
305.614
305.85
304.958
300.231
306.676
307.38
307.741
306.991
302.287
291.413
307.541
308.477
308.938
308.323
303.847
292.562
307.906
308.885
309.35
308.928
305.165
294.988
307.864
308.792
309.155
308.637
305.926
298.34
287.052
307.21
307.623
307.538
306.751
304.699
300.424
293.135
281.146
305.864
305.185
303.818
301.602
299.095
297.36
297.571
299.574
304.141
302.015
298.845
295.346
291.386
288.19
289.243
290.425
302.539
299.504
295.436
291.251
286.827
281.731
275.039
272.522
301.684
298.58
294.756
290.797
286.409
281.593
274.266
270.205
301.648
298.763
295.605
292.623
289.584
286.114
281.405
274.677
301.994
299.84
297.533
295.331
292.542
287.972
283.75
280.103
302.962
301.57
300.189
298.779
295.949
289.59
280.517
271.322
304.204
303.517
302.957
302.21
299.136
291.758
280.247
270.742
305.364
305.325
305.394
304.992
302.182
294.876
284.378
271.971
306.438
306.903
307.21
307.034
304.31
296.447
284.953
276.494
307.184
307.969
308.451
308.351
305.584
297.184
307.529
308.418
308.902
308.858
306.424
298.61
307.443
308.312
308.702
308.423
306.594
300.454
306.673
306.99
306.9
306.237
304.703
301.783
305.144
304.361
303.03
301.136
299.293
298.256
303.238
301.021
298.216
295.227
292.07
301.607
298.619
295.188
291.673
287.907
300.849
297.873
294.681
291.36
287.406
300.785
298.128
295.457
292.87
289.652
301.261
299.314
297.282
295.13
291.774
302.329
301.123
299.858
298.277
294.487
303.557
303.063
302.526
301.486
297.219
304.723
304.832
304.775
303.831
299.657
305.63
306.088
306.155
305.224
301.077
306.035
306.555
306.637
305.704
301.422
305.825
306.046
305.764
304.45
300.605
304.384
303.738
302.485
300.551
297.798
301.535
299.268
296.734
294.564
293.121
298.019
294.111
291.093
288.949
288.206
295.02
290.616
287.682
286.133
285.5
293.932
290.078
287.799
286.762
285.783
294.109
290.928
289.52
289.248
288.146
295.454
293.291
292.741
292.965
291.732
297.763
296.621
296.512
296.531
293.717
300.324
300.019
300.181
299.498
294.886
302.631
302.916
303.243
301.939
296.013
304.585
305.224
305.488
303.966
297.751
305.857
306.575
306.738
305.134
299.045
306.388
307.087
307.178
305.587
299.639
306.293
306.639
306.304
304.546
299.729
305.058
304.502
303.243
301.117
297.84
302.417
300.199
297.589
295.174
293.295
299.11
295.005
291.545
289.094
288.057
296.136
291.142
287.505
285.511
284.577
304.665
304.672
304.753
304.823
304.9
304.971
305.06
305.141
305.207
305.297
305.355
305.44
305.474
305.489
304.789
304.741
304.813
304.832
304.893
304.938
305.009
305.072
305.119
305.189
305.221
305.269
305.296
305.334
304.908
304.845
304.895
304.884
304.929
304.952
304.997
305.036
305.067
305.124
305.159
305.217
305.249
305.293
304.944
304.9
304.932
304.914
304.95
304.959
304.996
305.022
305.042
305.085
305.113
305.157
305.195
305.255
304.95
304.931
304.949
304.942
304.968
304.974
305
305.019
305.037
305.074
305.103
305.15
305.197
305.267
304.915
304.913
304.921
304.931
304.957
304.969
304.995
305.016
305.036
305.071
305.104
305.159
305.223
305.306
304.85
304.861
304.884
304.911
304.942
304.961
304.988
305.013
305.037
305.077
305.117
305.179
305.253
305.345
304.757
304.78
304.819
304.861
304.903
304.934
304.968
304.998
305.027
305.071
305.116
305.187
305.269
305.375
304.64
304.671
304.732
304.791
304.848
304.892
304.932
304.967
305.001
305.049
305.101
305.185
305.278
305.402
304.518
304.582
304.658
304.73
304.801
304.853
304.896
304.93
304.964
305.015
305.07
305.165
305.264
305.412
304.388
304.477
304.569
304.651
304.731
304.79
304.839
304.876
304.913
304.965
305.022
305.125
305.217
305.392
304.287
304.41
304.535
304.629
304.709
304.764
304.805
304.835
304.865
304.911
304.965
305.072
305.157
305.358
304.197
304.34
304.48
304.582
304.669
304.731
304.772
304.798
304.822
304.86
304.912
305.011
305.093
305.291
304.194
304.385
304.547
304.64
304.701
304.746
304.777
304.793
304.798
304.815
304.855
304.933
305.017
305.194
305.913
305.876
305.907
305.919
305.955
305.98
306.022
306.053
306.089
306.139
306.169
306.228
306.262
306.304
305.952
305.904
305.933
305.93
305.958
305.965
305.993
306.01
306.026
306.056
306.068
306.1
306.123
306.163
305.98
305.945
305.971
305.96
305.976
305.969
305.978
305.979
305.983
306
306.007
306.036
306.068
306.107
305.951
305.938
305.959
305.95
305.963
305.955
305.957
305.953
305.951
305.957
305.955
305.972
306
306.042
305.92
305.925
305.942
305.944
305.956
305.95
305.945
305.934
305.927
305.928
305.926
305.944
305.972
306.016
305.853
305.867
305.889
305.903
305.919
305.918
305.915
305.905
305.898
305.897
305.897
305.919
305.952
306.001
305.783
305.81
305.843
305.867
305.885
305.888
305.883
305.873
305.867
305.868
305.876
305.906
305.947
306.009
305.695
305.733
305.777
305.81
305.833
305.84
305.838
305.831
305.826
305.833
305.849
305.89
305.942
306.013
305.594
305.644
305.699
305.738
305.768
305.779
305.781
305.776
305.776
305.79
305.814
305.866
305.93
306.017
305.513
305.569
305.633
305.675
305.708
305.72
305.723
305.717
305.72
305.739
305.768
305.832
305.904
306.011
305.427
305.489
305.557
305.599
305.634
305.649
305.654
305.65
305.656
305.681
305.716
305.79
305.867
305.992
305.373
305.447
305.522
305.566
305.597
305.605
305.603
305.596
305.598
305.621
305.658
305.74
305.821
305.97
305.33
305.41
305.48
305.521
305.551
305.554
305.552
305.544
305.543
305.567
305.609
305.695
305.775
305.931
305.361
305.44
305.509
305.536
305.55
305.54
305.535
305.52
305.51
305.527
305.565
305.645
305.733
305.889
306.725
306.717
306.737
306.746
306.773
306.786
306.809
306.819
306.832
306.84
306.844
306.857
306.871
306.89
306.714
306.702
306.729
306.738
306.762
306.769
306.783
306.782
306.781
306.774
306.764
306.762
306.765
306.775
306.71
306.713
306.743
306.75
306.768
306.77
306.769
306.754
306.738
306.72
306.703
306.697
306.699
306.707
306.679
306.696
306.723
306.736
306.749
306.748
306.74
306.718
306.694
306.668
306.644
306.631
306.628
306.635
306.658
306.683
306.707
306.722
306.73
306.723
306.707
306.678
306.649
306.621
306.596
306.584
306.582
306.593
306.608
306.638
306.664
306.681
306.688
306.68
306.66
306.631
306.601
306.573
306.55
306.54
306.542
306.555
306.552
306.587
306.616
306.632
306.638
306.628
306.607
306.578
306.55
306.527
306.508
306.507
306.516
306.537
306.488
306.524
306.556
306.573
306.579
306.569
306.549
306.521
306.496
306.477
306.466
306.474
306.49
306.52
306.413
306.452
306.487
306.505
306.511
306.501
306.483
306.46
306.44
306.428
306.426
306.443
306.467
306.508
306.348
306.386
306.424
306.442
306.449
306.438
306.421
306.399
306.383
306.376
306.38
306.406
306.438
306.49
306.282
306.316
306.354
306.37
306.378
306.369
306.355
306.336
306.324
306.323
306.332
306.367
306.407
306.472
306.235
306.273
306.311
306.325
306.33
306.318
306.301
306.281
306.267
306.269
306.281
306.322
306.37
306.447
306.191
306.221
306.253
306.266
306.272
306.261
306.244
306.225
306.213
306.218
306.236
306.285
306.339
306.428
306.194
306.211
306.236
306.241
306.239
306.221
306.202
306.181
306.168
306.175
306.195
306.247
306.303
306.404
307.067
307.073
307.093
307.111
307.137
307.156
307.178
307.195
307.214
307.226
307.238
307.254
307.269
307.294
307.036
307.039
307.06
307.083
307.107
307.127
307.146
307.159
307.172
307.18
307.186
307.195
307.205
307.222
307.014
307.024
307.045
307.068
307.087
307.104
307.116
307.123
307.129
307.131
307.133
307.139
307.148
307.162
306.979
306.995
307.015
307.039
307.056
307.071
307.08
307.084
307.086
307.085
307.083
307.087
307.092
307.103
306.951
306.97
306.988
307.01
307.025
307.036
307.042
307.042
307.042
307.039
307.037
307.039
307.044
307.054
306.914
306.936
306.954
306.974
306.987
306.997
307
306.999
306.997
306.995
306.992
306.994
306.999
307.007
306.875
306.897
306.916
306.934
306.946
306.953
306.956
306.955
306.953
306.952
306.951
306.955
306.961
306.972
306.835
306.858
306.878
306.894
306.905
306.911
306.913
306.912
306.91
306.91
306.91
306.917
306.925
306.937
306.789
306.811
306.833
306.849
306.861
306.867
306.87
306.87
306.871
306.872
306.875
306.886
306.895
306.911
306.748
306.771
306.795
306.812
306.824
306.83
306.833
306.833
306.833
306.836
306.84
306.853
306.863
306.88
306.703
306.726
306.752
306.77
306.785
306.792
306.796
306.798
306.799
306.805
306.81
306.825
306.838
306.857
306.671
306.697
306.724
306.743
306.757
306.763
306.766
306.766
306.766
306.771
306.777
306.793
306.807
306.826
306.638
306.659
306.686
306.705
306.721
306.728
306.733
306.734
306.735
306.741
306.749
306.767
306.784
306.809
306.625
306.644
306.665
306.682
306.695
306.701
306.704
306.703
306.703
306.709
306.717
306.737
306.755
306.785
307.201
307.205
307.207
307.218
307.233
307.25
307.27
307.289
307.31
307.33
307.35
307.375
307.395
307.427
307.151
307.154
307.157
307.171
307.187
307.207
307.23
307.252
307.278
307.301
307.325
307.351
307.374
307.401
307.108
307.113
307.117
307.132
307.147
307.168
307.191
307.215
307.242
307.267
307.293
307.322
307.347
307.374
307.063
307.068
307.074
307.092
307.107
307.13
307.153
307.179
307.207
307.234
307.262
307.291
307.318
307.346
307.024
307.028
307.036
307.055
307.071
307.094
307.118
307.144
307.173
307.202
307.231
307.261
307.289
307.316
306.987
306.992
307.002
307.021
307.039
307.063
307.086
307.113
307.141
307.171
307.199
307.229
307.257
307.283
306.953
306.959
306.972
306.991
307.009
307.033
307.057
307.084
307.112
307.142
307.17
307.199
307.224
307.249
306.926
306.934
306.948
306.965
306.984
307.008
307.032
307.059
307.086
307.114
307.139
307.166
307.188
307.211
306.899
306.91
306.924
306.942
306.962
306.986
307.011
307.038
307.064
307.09
307.113
307.137
307.155
307.175
306.879
306.893
306.908
306.928
306.948
306.972
306.995
307.021
307.044
307.068
307.087
307.108
307.121
307.137
306.86
306.877
306.895
306.916
306.937
306.96
306.983
307.007
307.029
307.05
307.067
307.085
307.095
307.105
306.848
306.867
306.886
306.909
306.929
306.952
306.973
306.994
307.013
307.032
307.045
307.06
307.065
307.07
306.834
306.85
306.871
306.894
306.917
306.94
306.961
306.981
306.998
307.015
307.027
307.038
307.042
307.044
306.826
306.847
306.866
306.89
306.912
306.931
306.949
306.966
306.98
306.994
307.002
307.01
307.01
307.007
307.227
307.228
307.224
307.227
307.234
307.244
307.258
307.274
307.293
307.312
307.332
307.355
307.373
307.403
307.18
307.182
307.181
307.188
307.198
307.212
307.23
307.25
307.272
307.296
307.32
307.347
307.37
307.399
307.138
307.142
307.144
307.154
307.167
307.184
307.204
307.228
307.254
307.281
307.309
307.338
307.365
307.394
307.1
307.104
307.11
307.125
307.139
307.16
307.183
307.209
307.237
307.267
307.297
307.328
307.358
307.388
307.067
307.072
307.08
307.097
307.114
307.137
307.163
307.193
307.224
307.255
307.287
307.32
307.35
307.382
307.038
307.046
307.056
307.074
307.093
307.119
307.146
307.177
307.21
307.243
307.276
307.309
307.341
307.373
307.015
307.024
307.036
307.055
307.076
307.103
307.132
307.165
307.199
307.233
307.266
307.3
307.331
307.362
306.998
307.008
307.022
307.041
307.064
307.091
307.121
307.154
307.187
307.222
307.254
307.287
307.317
307.348
306.983
306.996
307.012
307.033
307.056
307.084
307.113
307.146
307.178
307.212
307.242
307.274
307.301
307.331
306.976
306.991
307.008
307.03
307.053
307.08
307.108
307.139
307.169
307.2
307.228
307.257
307.28
307.308
306.971
306.988
307.006
307.028
307.051
307.077
307.103
307.133
307.16
307.188
307.213
307.239
307.257
307.282
306.97
306.989
307.007
307.03
307.051
307.075
307.099
307.125
307.149
307.173
307.194
307.215
307.23
307.248
306.966
306.984
307.004
307.026
307.047
307.071
307.093
307.117
307.137
307.158
307.174
307.191
307.202
307.214
306.965
306.988
307.006
307.028
307.048
307.068
307.086
307.105
307.122
307.137
307.15
307.161
307.167
307.169
307.147
307.155
307.163
307.172
307.183
307.194
307.206
307.219
307.234
307.25
307.267
307.287
307.304
307.326
307.115
307.127
307.137
307.149
307.162
307.175
307.19
307.205
307.223
307.243
307.264
307.288
307.309
307.334
307.089
307.103
307.114
307.128
307.142
307.158
307.175
307.194
307.216
307.238
307.263
307.29
307.314
307.341
307.066
307.081
307.095
307.111
307.127
307.145
307.165
307.186
307.21
307.235
307.262
307.291
307.318
307.347
307.047
307.062
307.078
307.096
307.115
307.135
307.157
307.181
307.207
307.235
307.263
307.293
307.322
307.352
307.032
307.049
307.067
307.086
307.107
307.129
307.153
307.178
307.206
307.234
307.263
307.294
307.324
307.356
307.022
307.04
307.06
307.081
307.103
307.127
307.151
307.178
307.205
307.234
307.264
307.294
307.325
307.357
307.018
307.037
307.057
307.079
307.102
307.126
307.151
307.178
307.205
307.234
307.263
307.293
307.324
307.355
307.016
307.036
307.057
307.079
307.103
307.127
307.153
307.179
307.206
307.234
307.262
307.291
307.322
307.353
307.017
307.039
307.06
307.083
307.107
307.131
307.155
307.18
307.205
307.232
307.259
307.287
307.316
307.347
307.02
307.043
307.065
307.089
307.111
307.135
307.157
307.181
307.204
307.228
307.253
307.279
307.306
307.336
307.027
307.051
307.073
307.096
307.117
307.139
307.158
307.18
307.2
307.222
307.244
307.268
307.29
307.319
307.031
307.055
307.078
307.101
307.12
307.14
307.157
307.177
307.195
307.214
307.232
307.253
307.273
307.299
307.039
307.066
307.087
307.107
307.124
307.14
307.156
307.171
307.186
307.201
307.216
307.233
307.251
307.271
306.987
306.999
307.008
307.019
307.03
307.042
307.055
307.07
307.085
307.101
307.118
307.135
307.15
307.17
306.973
306.987
307
307.012
307.025
307.04
307.055
307.072
307.089
307.107
307.125
307.145
307.162
307.184
306.967
306.981
306.994
307.008
307.023
307.039
307.056
307.075
307.094
307.114
307.134
307.156
307.176
307.199
306.961
306.976
306.991
307.007
307.024
307.042
307.061
307.08
307.102
307.123
307.146
307.169
307.192
307.216
306.958
306.974
306.991
307.009
307.027
307.047
307.067
307.088
307.11
307.134
307.158
307.183
307.208
307.234
306.957
306.975
306.994
307.013
307.033
307.054
307.075
307.097
307.12
307.145
307.17
307.197
307.223
307.251
306.959
306.978
306.999
307.02
307.04
307.062
307.084
307.107
307.13
307.156
307.182
307.209
307.237
307.266
306.964
306.985
307.006
307.028
307.049
307.071
307.093
307.116
307.14
307.165
307.191
307.219
307.248
307.278
306.971
306.993
307.015
307.037
307.059
307.08
307.102
307.125
307.148
307.173
307.2
307.227
307.257
307.287
306.981
307.004
307.026
307.048
307.069
307.09
307.111
307.133
307.156
307.179
307.205
307.232
307.262
307.292
306.992
307.015
307.038
307.06
307.08
307.1
307.12
307.14
307.162
307.184
307.209
307.234
307.264
307.294
307.006
307.03
307.053
307.073
307.092
307.11
307.128
307.147
307.166
307.187
307.209
307.234
307.262
307.292
307.019
307.043
307.065
307.085
307.103
307.119
307.135
307.152
307.169
307.187
307.207
307.231
307.258
307.29
307.036
307.061
307.082
307.099
307.114
307.128
307.142
307.155
307.17
307.186
307.204
307.227
307.25
307.279
306.784
306.803
306.821
306.84
306.857
306.876
306.894
306.912
306.929
306.946
306.962
306.977
306.991
307.006
306.793
306.81
306.829
306.848
306.866
306.885
306.903
306.922
306.939
306.957
306.973
306.99
307.004
307.021
306.802
306.82
306.84
306.858
306.877
306.895
306.914
306.932
306.95
306.968
306.986
307.003
307.019
307.037
306.81
306.83
306.85
306.869
306.888
306.907
306.926
306.945
306.963
306.982
307.001
307.019
307.037
307.056
306.821
306.841
306.861
306.881
306.9
306.919
306.938
306.957
306.977
306.996
307.016
307.036
307.055
307.076
306.832
306.853
306.874
306.894
306.913
306.932
306.951
306.971
306.991
307.012
307.033
307.054
307.075
307.098
306.844
306.866
306.887
306.907
306.927
306.946
306.965
306.985
307.005
307.027
307.049
307.071
307.095
307.118
306.858
306.881
306.902
306.922
306.942
306.961
306.98
306.999
307.02
307.042
307.065
307.088
307.114
307.139
306.874
306.896
306.918
306.938
306.957
306.976
306.994
307.014
307.034
307.056
307.079
307.104
307.131
307.157
306.891
306.914
306.935
306.955
306.974
306.992
307.009
307.028
307.048
307.069
307.093
307.118
307.145
307.173
306.909
306.933
306.954
306.973
306.991
307.007
307.024
307.042
307.061
307.082
307.105
307.13
307.159
307.186
306.932
306.954
306.975
306.992
307.009
307.024
307.04
307.056
307.074
307.093
307.116
307.141
307.169
307.198
306.953
306.975
306.995
307.012
307.027
307.041
307.055
307.07
307.086
307.104
307.125
307.149
307.177
307.208
306.981
307.002
307.019
307.033
307.046
307.058
307.07
307.082
307.096
307.112
307.132
307.155
307.183
307.216
306.525
306.546
306.569
306.59
306.611
306.631
306.651
306.67
306.688
306.706
306.722
306.738
306.752
306.767
306.545
306.564
306.587
306.608
306.629
306.649
306.668
306.687
306.706
306.723
306.739
306.756
306.77
306.786
306.567
306.587
306.609
306.629
306.649
306.668
306.687
306.705
306.723
306.74
306.756
306.773
306.787
306.804
306.588
306.608
306.629
306.649
306.669
306.688
306.706
306.725
306.742
306.76
306.776
306.793
306.808
306.825
306.609
306.63
306.651
306.671
306.69
306.708
306.726
306.744
306.762
306.779
306.796
306.813
306.829
306.847
306.631
306.652
306.673
306.692
306.711
306.729
306.747
306.765
306.782
306.8
306.818
306.835
306.853
306.871
306.654
306.675
306.695
306.714
306.732
306.75
306.768
306.785
306.803
306.821
306.84
306.858
306.876
306.895
306.677
306.698
306.718
306.736
306.754
306.772
306.789
306.807
306.825
306.843
306.862
306.881
306.902
306.921
306.7
306.721
306.74
306.759
306.776
306.793
306.81
306.828
306.846
306.865
306.885
306.905
306.926
306.946
306.725
306.746
306.764
306.782
306.799
306.815
306.832
306.849
306.867
306.886
306.907
306.928
306.951
306.972
306.75
306.77
306.788
306.804
306.821
306.837
306.853
306.87
306.888
306.907
306.928
306.95
306.975
306.997
306.777
306.796
306.813
306.829
306.844
306.859
306.874
306.89
306.908
306.927
306.948
306.971
306.997
307.021
306.803
306.822
306.837
306.852
306.866
306.88
306.894
306.91
306.928
306.947
306.969
306.993
307.019
307.044
306.835
306.851
306.864
306.877
306.889
306.901
306.915
306.929
306.946
306.964
306.985
307.009
307.036
307.067
306.212
306.231
306.253
306.274
306.294
306.313
306.333
306.351
306.369
306.386
306.403
306.418
306.433
306.448
306.239
306.256
306.277
306.298
306.318
306.337
306.357
306.375
306.393
306.41
306.426
306.442
306.456
306.472
306.267
306.285
306.306
306.325
306.344
306.363
306.381
306.399
306.416
306.433
306.448
306.464
306.477
306.493
306.295
306.312
306.332
306.351
306.37
306.388
306.406
306.424
306.441
306.457
306.472
306.488
306.501
306.516
306.323
306.341
306.36
306.378
306.397
306.414
306.432
306.449
306.465
306.481
306.496
306.511
306.525
306.539
306.352
306.369
306.388
306.406
306.423
306.441
306.458
306.474
306.491
306.507
306.522
306.537
306.55
306.565
306.38
306.398
306.415
306.433
306.45
306.467
306.483
306.5
306.516
306.532
306.547
306.562
306.576
306.59
306.409
306.426
306.443
306.46
306.477
306.493
306.509
306.526
306.542
306.558
306.574
306.589
306.604
306.617
306.438
306.454
306.47
306.487
306.503
306.519
306.535
306.552
306.568
306.584
306.601
306.616
306.632
306.645
306.467
306.483
306.498
306.514
306.529
306.545
306.561
306.578
306.594
306.611
306.628
306.644
306.661
306.675
306.495
306.511
306.525
306.54
306.555
306.571
306.587
306.603
306.62
306.638
306.655
306.672
306.691
306.705
306.525
306.54
306.553
306.567
306.582
306.597
306.613
306.629
306.646
306.664
306.682
306.7
306.72
306.736
306.552
306.567
306.579
306.593
306.607
306.621
306.637
306.654
306.672
306.691
306.71
306.73
306.75
306.767
306.585
306.596
306.608
306.62
306.633
306.647
306.662
306.678
306.696
306.715
306.734
306.755
306.776
306.798
305.885
305.898
305.914
305.929
305.945
305.96
305.975
305.99
306.004
306.018
306.032
306.045
306.058
306.072
305.911
305.923
305.939
305.954
305.97
305.986
306.001
306.016
306.03
306.044
306.058
306.071
306.083
306.097
305.94
305.952
305.968
305.982
305.998
306.013
306.027
306.041
306.055
306.069
306.082
306.095
306.106
306.119
305.969
305.98
305.996
306.01
306.025
306.04
306.054
306.068
306.082
306.095
306.108
306.12
306.131
306.144
305.998
306.01
306.024
306.038
306.053
306.067
306.081
306.095
306.108
306.121
306.133
306.145
306.156
306.167
306.027
306.039
306.053
306.066
306.08
306.094
306.108
306.122
306.135
306.148
306.16
306.171
306.182
306.193
306.056
306.068
306.081
306.094
306.108
306.122
306.135
306.149
306.162
306.175
306.187
306.197
306.208
306.217
306.085
306.097
306.109
306.123
306.136
306.149
306.163
306.176
306.19
306.202
306.214
306.224
306.235
306.244
306.114
306.126
306.137
306.15
306.163
306.176
306.19
306.204
306.217
306.229
306.242
306.252
306.263
306.27
306.143
306.154
306.165
306.178
306.19
306.204
306.217
306.231
306.245
306.258
306.27
306.28
306.292
306.299
306.171
306.182
306.192
306.204
306.217
306.23
306.245
306.259
306.273
306.286
306.298
306.309
306.321
306.328
306.199
306.211
306.219
306.231
306.244
306.257
306.272
306.286
306.3
306.314
306.327
306.339
306.351
306.359
306.226
306.236
306.245
306.256
306.269
306.283
306.298
306.313
306.328
306.343
306.356
306.369
306.382
306.39
306.255
306.263
306.272
306.283
306.296
306.309
306.324
306.339
306.355
306.37
306.384
306.399
306.412
306.424
305.579
305.584
305.593
305.601
305.609
305.618
305.627
305.636
305.645
305.653
305.662
305.671
305.68
305.689
305.602
305.606
305.615
305.623
305.631
305.64
305.649
305.658
305.667
305.676
305.685
305.693
305.702
305.712
305.626
305.63
305.639
305.646
305.654
305.663
305.672
305.681
305.689
305.698
305.706
305.715
305.723
305.732
305.65
305.655
305.662
305.67
305.678
305.687
305.696
305.704
305.713
305.721
305.729
305.737
305.745
305.754
305.673
305.679
305.687
305.694
305.702
305.711
305.719
305.728
305.736
305.744
305.752
305.76
305.767
305.775
305.699
305.704
305.711
305.718
305.726
305.735
305.744
305.752
305.76
305.768
305.776
305.783
305.79
305.797
305.723
305.729
305.735
305.743
305.751
305.759
305.768
305.776
305.784
305.792
305.799
305.806
305.813
305.819
305.748
305.754
305.76
305.767
305.775
305.784
305.792
305.801
305.809
305.816
305.824
305.83
305.836
305.842
305.772
305.779
305.784
305.792
305.8
305.808
305.817
305.825
305.834
305.841
305.848
305.854
305.86
305.865
305.797
305.803
305.808
305.816
305.824
305.833
305.842
305.85
305.859
305.866
305.873
305.879
305.885
305.889
305.821
305.827
305.832
305.84
305.848
305.857
305.866
305.875
305.884
305.891
305.899
305.904
305.911
305.913
305.844
305.851
305.856
305.864
305.873
305.882
305.891
305.9
305.909
305.917
305.924
305.931
305.937
305.939
305.867
305.873
305.879
305.887
305.896
305.905
305.915
305.925
305.934
305.943
305.95
305.957
305.963
305.965
305.891
305.897
305.902
305.91
305.919
305.929
305.939
305.949
305.959
305.968
305.976
305.983
305.99
305.995
305.305
305.304
305.305
305.308
305.31
305.312
305.315
305.318
305.322
305.325
305.329
305.333
305.338
305.343
305.323
305.32
305.322
305.324
305.326
305.328
305.331
305.334
305.338
305.341
305.345
305.349
305.354
305.359
305.339
305.337
305.338
305.34
305.342
305.345
305.348
305.35
305.354
305.357
305.36
305.364
305.369
305.374
305.356
305.354
305.356
305.357
305.36
305.362
305.365
305.367
305.37
305.373
305.377
305.381
305.385
305.39
305.372
305.372
305.373
305.375
305.377
305.379
305.382
305.385
305.387
305.39
305.394
305.397
305.401
305.406
305.39
305.39
305.391
305.393
305.395
305.397
305.4
305.402
305.405
305.408
305.411
305.414
305.418
305.423
305.408
305.408
305.409
305.411
305.413
305.415
305.418
305.421
305.423
305.426
305.429
305.432
305.436
305.439
305.426
305.427
305.428
305.429
305.432
305.434
305.437
305.44
305.442
305.445
305.448
305.45
305.453
305.457
305.444
305.445
305.446
305.448
305.451
305.453
305.456
305.459
305.461
305.464
305.466
305.469
305.472
305.474
305.462
305.464
305.465
305.467
305.47
305.472
305.475
305.478
305.481
305.483
305.486
305.488
305.491
305.493
305.48
305.482
305.483
305.486
305.489
305.492
305.495
305.497
305.5
305.503
305.505
305.507
305.51
305.51
305.498
305.5
305.501
305.504
305.507
305.511
305.514
305.517
305.52
305.522
305.525
305.527
305.529
305.529
305.515
305.517
305.519
305.522
305.526
305.529
305.533
305.536
305.539
305.542
305.544
305.546
305.548
305.548
305.534
305.536
305.538
305.54
305.544
305.548
305.552
305.556
305.559
305.562
305.564
305.566
305.568
305.57
305.049
305.044
305.041
305.039
305.037
305.035
305.034
305.033
305.032