/*--------------------------------*- C++ -*----------------------------------*\
| =========                 |                                                 |
| \\      /  F ield         | OpenFOAM: The Open Source CFD Toolbox           |
|  \\    /   O peration     | Version:  v2106                                 |
|   \\  /    A nd           | Website:  www.openfoam.com                      |
|    \\/     M anipulation  |                                                 |
\*---------------------------------------------------------------------------*/
FoamFile
{
    version     2.0;
    format      ascii;
    arch        "LSB;label=32;scalar=64";
    class       volVectorField;
    location    "0.000165";
    object      U;
}
// * * * * * * * * * * * * * * * * * * * * * * * * * * * * * * * * * * * * * //

dimensions      [0 1 -1 0 0 0 0];

internalField   nonuniform List<vector> 
18259
(
(0.00132627 0.00244355 -0.311441)
(0.000949061 0.00242622 -0.311429)
(0.00057954 0.00241336 -0.311428)
(0.000206629 0.0024109 -0.311434)
(-0.000169502 0.00242066 -0.311441)
(-0.000549516 0.00244443 -0.311448)
(-0.000937227 0.00247625 -0.311461)
(-0.00133657 0.00250414 -0.31148)
(-0.00174221 0.00254511 -0.311517)
(-0.00215845 0.00250425 -0.311543)
(-0.00257677 0.00256323 -0.311529)
(0.00205837 0.00204411 -0.311473)
(0.00167761 0.00206358 -0.311438)
(0.00130921 0.00203105 -0.311399)
(0.000946094 0.00201451 -0.311384)
(0.000583603 0.00200356 -0.311372)
(0.000216334 0.00200249 -0.311376)
(-0.000156566 0.00201085 -0.311386)
(-0.0005362 0.00203136 -0.3114)
(-0.000921885 0.00206241 -0.311424)
(-0.00131638 0.0020933 -0.311448)
(-0.00171304 0.00213167 -0.311489)
(-0.00211708 0.00211109 -0.31152)
(-0.00252574 0.00215315 -0.311531)
(0.00248765 0.00168706 -0.311448)
(0.00207671 0.00165715 -0.311423)
(0.00168891 0.00166888 -0.311371)
(0.00131497 0.001641 -0.311337)
(0.000951384 0.00162669 -0.311322)
(0.000589256 0.001617 -0.311313)
(0.000225753 0.0016172 -0.311318)
(-0.000143874 0.00162469 -0.311326)
(-0.000522757 0.00164069 -0.311339)
(-0.000911502 0.00166555 -0.311363)
(-0.0013108 0.00169431 -0.311389)
(-0.00172016 0.00172995 -0.311425)
(-0.00213774 0.00171969 -0.311475)
(-0.00256528 0.00174663 -0.31149)
(0.00244768 0.00130433 -0.311394)
(0.00204339 0.00128858 -0.311368)
(0.00166158 0.00129394 -0.311319)
(0.00129492 0.0012719 -0.311292)
(0.000937368 0.00125995 -0.311279)
(0.000582923 0.0012511 -0.311271)
(0.000228162 0.00125087 -0.311275)
(-0.000131854 0.00125569 -0.311282)
(-0.000501668 0.00126761 -0.311293)
(-0.000884214 0.00128624 -0.311313)
(-0.00128003 0.00130966 -0.311335)
(-0.0016863 0.0013407 -0.311371)
(-0.00210291 0.0013397 -0.311416)
(-0.0025282 0.00135173 -0.311438)
(0.0024279 0.000931057 -0.311368)
(0.00202533 0.000926828 -0.311335)
(0.00164657 0.000931205 -0.311285)
(0.00128263 0.00091713 -0.31126)
(0.000928583 0.000908502 -0.311244)
(0.000579424 0.000901318 -0.311236)
(0.000229766 0.000900475 -0.311239)
(-0.000124472 0.000901573 -0.311244)
(-0.000488956 0.000907729 -0.311254)
(-0.000867548 0.000919506 -0.311273)
(-0.00126091 0.000933477 -0.311294)
(-0.00166502 0.000955762 -0.311327)
(-0.00208083 0.000957752 -0.311376)
(-0.00250728 0.000960235 -0.311406)
(0.00241641 0.000566236 -0.31136)
(0.00201482 0.00057232 -0.311315)
(0.00163609 0.000578025 -0.311269)
(0.00127211 0.000570809 -0.311245)
(0.000918565 0.000565592 -0.311228)
(0.000571437 0.000560893 -0.311217)
(0.00022573 0.000559442 -0.311215)
(-0.000123601 0.00055706 -0.311216)
(-0.00048391 0.000556837 -0.311222)
(-0.000858989 0.000560228 -0.31124)
(-0.00124873 0.000564428 -0.31126)
(-0.00164952 0.000575042 -0.31129)
(-0.00206197 0.000575765 -0.311341)
(-0.00248584 0.000573424 -0.311384)
(0.00241449 0.000213809 -0.311365)
(0.0020139 0.000223322 -0.311313)
(0.00163514 0.000230787 -0.311268)
(0.00127007 0.00023162 -0.311243)
(0.000915245 0.000229286 -0.311223)
(0.00056651 0.000224271 -0.31121)
(0.000221544 0.000219413 -0.311206)
(-0.00012714 0.000212236 -0.311205)
(-0.000486882 0.000206172 -0.311209)
(-0.000860447 0.00020094 -0.311225)
(-0.00124735 0.000196103 -0.311244)
(-0.00164493 0.000192417 -0.311273)
(-0.00205478 0.000187025 -0.311326)
(-0.00247677 0.000181922 -0.311377)
(0.00242603 -0.000150396 -0.311377)
(0.0020234 -0.000137695 -0.311328)
(0.00164239 -0.000128333 -0.311282)
(0.00127443 -0.000119835 -0.311257)
(0.000916589 -0.000116815 -0.311234)
(0.000565287 -0.000117567 -0.311218)
(0.000217445 -0.000122355 -0.311211)
(-0.000133899 -0.000132299 -0.311208)
(-0.000495503 -0.000145511 -0.311209)
(-0.000869174 -0.000160149 -0.311222)
(-0.00125502 -0.000173515 -0.31124)
(-0.00165201 -0.000187341 -0.31127)
(-0.00206109 -0.000193231 -0.311323)
(-0.00248116 -0.000195977 -0.311378)
(0.00244884 -0.000520847 -0.311394)
(0.00204197 -0.000506702 -0.311357)
(0.00165541 -0.000497423 -0.311309)
(0.00128168 -0.000481761 -0.311282)
(0.000917553 -0.000474606 -0.311258)
(0.000560854 -0.000473745 -0.311239)
(0.000207698 -0.000480242 -0.311228)
(-0.000148012 -0.000491909 -0.311222)
(-0.000513016 -0.000508316 -0.311219)
(-0.000888932 -0.000528655 -0.311231)
(-0.00127442 -0.000550578 -0.311249)
(-0.00167113 -0.000577065 -0.311282)
(-0.00207833 -0.000587382 -0.311335)
(-0.00249535 -0.000593706 -0.311385)
(0.00247934 -0.000903603 -0.311423)
(0.00206777 -0.000887493 -0.311398)
(0.00167491 -0.000880825 -0.31135)
(0.00129471 -0.000858898 -0.31132)
(0.000923332 -0.000848151 -0.311296)
(0.000559244 -0.000845801 -0.311274)
(0.000198767 -0.000853649 -0.311262)
(-0.000163826 -0.000867307 -0.311254)
(-0.000535231 -0.00088752 -0.31125)
(-0.000915232 -0.000913227 -0.311261)
(-0.00130047 -0.000942711 -0.31128)
(-0.00169801 -0.000975102 -0.311314)
(-0.0021026 -0.000981952 -0.311369)
(-0.00251873 -0.000990713 -0.311406)
(0.00251299 -0.00130222 -0.31146)
(0.00209883 -0.00128243 -0.31144)
(0.00169815 -0.00128195 -0.311396)
(0.00130964 -0.00125601 -0.311362)
(0.000929387 -0.00124283 -0.311337)
(0.000556653 -0.00123817 -0.311315)
(0.000186929 -0.001246 -0.311301)
(-0.000184717 -0.00126026 -0.311292)
(-0.000562905 -0.00128157 -0.311288)
(-0.000943443 -0.00131126 -0.311299)
(-0.00133004 -0.00134214 -0.311319)
(-0.00172583 -0.00137695 -0.311355)
(-0.00212745 -0.00137744 -0.311408)
(-0.00254146 -0.00139099 -0.311437)
(0.00255399 -0.00171398 -0.311514)
(0.00213491 -0.00168383 -0.311501)
(0.00172766 -0.00169594 -0.311455)
(0.00133183 -0.0016692 -0.311417)
(0.000941714 -0.00165635 -0.31139)
(0.00055795 -0.00164942 -0.311365)
(0.00017674 -0.0016554 -0.31135)
(-0.000204631 -0.00166749 -0.31134)
(-0.000590136 -0.00168752 -0.311337)
(-0.000970733 -0.00171798 -0.311347)
(-0.00136362 -0.00174516 -0.311368)
(-0.00175944 -0.00177924 -0.311408)
(-0.0021612 -0.00176443 -0.311465)
(-0.00257779 -0.00178832 -0.31149)
(0.00251449 -0.0021421 -0.31155)
(0.00211 -0.00210042 -0.311539)
(0.00171173 -0.00212671 -0.311511)
(0.00132368 -0.0020978 -0.311472)
(0.000935185 -0.00208332 -0.311447)
(0.000549889 -0.00207293 -0.31142)
(0.000166018 -0.00207569 -0.311405)
(-0.000216352 -0.00208503 -0.311394)
(-0.000597726 -0.00210199 -0.311393)
(-0.000978177 -0.00212771 -0.31141)
(-0.00136301 -0.002151 -0.31143)
(-0.00174518 -0.00218367 -0.311474)
(-0.00213229 -0.00215184 -0.311512)
(-0.00252853 -0.00218878 -0.311532)
(0.00256842 -0.00256984 -0.311543)
(0.00215195 -0.00251536 -0.311558)
(0.00173626 -0.00256342 -0.311535)
(0.00133213 -0.00253294 -0.311497)
(0.000934773 -0.0025194 -0.311477)
(0.000545505 -0.00250544 -0.311463)
(0.000160217 -0.00250363 -0.311455)
(-0.000222527 -0.00250889 -0.311447)
(-0.000601486 -0.0025211 -0.311441)
(-0.000986297 -0.00254177 -0.311444)
(-0.00137696 -0.00255949 -0.311459)
(-0.00177035 -0.00259236 -0.3115)
(-0.00216945 -0.00253938 -0.311534)
(-0.00257517 -0.00259212 -0.311529)
(0.00273087 0.00274166 -0.339503)
(0.00228403 0.00268259 -0.339503)
(0.00184851 0.00272351 -0.339455)
(0.00142729 0.00268224 -0.339401)
(0.00101061 0.00266088 -0.339375)
(0.000601056 0.00264224 -0.339363)
(0.000198639 0.00263221 -0.339365)
(-0.000208766 0.00263628 -0.339372)
(-0.000613908 0.00265112 -0.339382)
(-0.00102192 0.0026737 -0.339402)
(-0.00143831 0.00269363 -0.339428)
(-0.00186 0.00272695 -0.339472)
(-0.00229113 0.00268081 -0.339502)
(-0.00272079 0.00272553 -0.339482)
(0.00268125 0.00230137 -0.339497)
(0.00224185 0.00225933 -0.339459)
(0.00181908 0.00228599 -0.339404)
(0.00140919 0.00225445 -0.339342)
(0.00100102 0.0022376 -0.339309)
(0.000600696 0.00222449 -0.339282)
(0.000200533 0.00221938 -0.339281)
(-0.000203998 0.00222354 -0.339294)
(-0.000608578 0.00223697 -0.339315)
(-0.00101344 0.0022588 -0.339352)
(-0.00142322 0.00228077 -0.339389)
(-0.00183376 0.0023108 -0.339442)
(-0.0022551 0.00227882 -0.33948)
(-0.00268354 0.00231511 -0.339494)
(0.00272136 0.0018677 -0.339444)
(0.00226731 0.00184303 -0.3394)
(0.00183654 0.00186176 -0.339322)
(0.00141865 0.00183716 -0.33926)
(0.00100785 0.0018252 -0.339222)
(0.000606953 0.00181655 -0.339197)
(0.00020808 0.00181668 -0.339198)
(-0.000196026 0.00182256 -0.339211)
(-0.000602805 0.00183488 -0.339236)
(-0.00101294 0.00185376 -0.339278)
(-0.00143015 0.00187322 -0.339324)
(-0.00185355 0.00189932 -0.339378)
(-0.00228763 0.00187632 -0.339439)
(-0.00273236 0.00189664 -0.339459)
(0.00268197 0.001445 -0.339382)
(0.00223691 0.00143381 -0.33933)
(0.00181266 0.00144466 -0.339251)
(0.00140065 0.00142635 -0.339192)
(0.000997143 0.00141816 -0.339154)
(0.000602576 0.00141419 -0.339129)
(0.000212818 0.00141815 -0.33913)
(-0.000184094 0.00142517 -0.339145)
(-0.000584741 0.00143672 -0.339171)
(-0.000991381 0.00145309 -0.339215)
(-0.0014067 0.00147063 -0.339263)
(-0.00182921 0.0014922 -0.339322)
(-0.00226246 0.00147808 -0.339382)
(-0.00270552 0.00148121 -0.339413)
(0.00266038 0.00102314 -0.339347)
(0.00222048 0.00102003 -0.339286)
(0.00180099 0.00102781 -0.339202)
(0.00139311 0.00101678 -0.339143)
(0.000994993 0.00101332 -0.339101)
(0.000603065 0.00101344 -0.339075)
(0.000220455 0.0010198 -0.339076)
(-0.000173376 0.00102666 -0.339091)
(-0.000571459 0.00103614 -0.33912)
(-0.000977518 0.00104881 -0.339167)
(-0.00139377 0.00106187 -0.339219)
(-0.00181766 0.00107695 -0.339279)
(-0.00225045 0.00106717 -0.339348)
(-0.00269506 0.00106057 -0.339388)
(0.00264491 0.000603108 -0.339332)
(0.00220947 0.000604578 -0.339256)
(0.00179243 0.000610884 -0.339174)
(0.00138745 0.000605883 -0.339116)
(0.000992207 0.000606686 -0.339072)
(0.000601555 0.000611137 -0.339045)
(0.000224438 0.000619136 -0.339042)
(-0.000166917 0.000625458 -0.339054)
(-0.00056281 0.000632121 -0.339082)
(-0.000967622 0.000640362 -0.33913)
(-0.00138419 0.000647388 -0.339184)
(-0.00180885 0.000654525 -0.339245)
(-0.00224081 0.000647178 -0.339317)
(-0.00268349 0.000637066 -0.339372)
(0.00263558 0.000201603 -0.339333)
(0.00220518 0.000205291 -0.339249)
(0.00179176 0.00021094 -0.339169)
(0.00139013 0.000214495 -0.339111)
(0.00099693 0.000218954 -0.339065)
(0.000607928 0.000221245 -0.339036)
(0.000226491 0.000223936 -0.339031)
(-0.000162116 0.000224187 -0.339043)
(-0.000559109 0.000224142 -0.33907)
(-0.000964636 0.000224663 -0.339117)
(-0.00138162 0.000222809 -0.33917)
(-0.00180678 0.00022009 -0.339231)
(-0.00223869 0.000213263 -0.339305)
(-0.00268105 0.000204096 -0.339369)
(0.00263972 -0.000215108 -0.339344)
(0.00220991 -0.000211805 -0.339267)
(0.00179804 -0.000207244 -0.339188)
(0.00139797 -0.000198185 -0.339131)
(0.00100561 -0.000190458 -0.339084)
(0.000616418 -0.000184478 -0.339054)
(0.000230007 -0.000180861 -0.339047)
(-0.000157772 -0.000179971 -0.339056)
(-0.000557801 -0.000181445 -0.339079)
(-0.000966704 -0.000185985 -0.339122)
(-0.00138678 -0.000195324 -0.339173)
(-0.00181453 -0.00020715 -0.339233)
(-0.00224848 -0.000213667 -0.339304)
(-0.00269148 -0.000220606 -0.33937)
(0.0026522 -0.00062675 -0.339363)
(0.00222042 -0.000624209 -0.3393)
(0.0018077 -0.000623082 -0.339224)
(0.00140607 -0.000609421 -0.339168)
(0.00101114 -0.000600386 -0.339123)
(0.000619155 -0.000594717 -0.339091)
(0.000227673 -0.000594264 -0.339081)
(-0.000161917 -0.000597117 -0.339085)
(-0.000565426 -0.000603793 -0.339104)
(-0.000978338 -0.000615304 -0.339144)
(-0.0014012 -0.000631069 -0.339192)
(-0.0018306 -0.000649625 -0.339249)
(-0.00226478 -0.000653632 -0.339317)
(-0.00270612 -0.000657226 -0.339374)
(0.00267018 -0.00103875 -0.339393)
(0.00223642 -0.00103483 -0.33935)
(0.00182163 -0.00103989 -0.339278)
(0.00141752 -0.00102289 -0.339223)
(0.0010193 -0.00101342 -0.33918)
(0.000623407 -0.00100822 -0.339149)
(0.000225351 -0.00101007 -0.339137)
(-0.000170228 -0.00101553 -0.339138)
(-0.000578635 -0.00102592 -0.339154)
(-0.000995493 -0.00104325 -0.339187)
(-0.00141985 -0.00106321 -0.33923)
(-0.00184976 -0.00108654 -0.339282)
(-0.00228371 -0.00108478 -0.339348)
(-0.00272536 -0.0010875 -0.339388)
(0.00268937 -0.00145386 -0.339433)
(0.00225567 -0.00144425 -0.339399)
(0.00183643 -0.00145739 -0.339337)
(0.00142867 -0.00143846 -0.339284)
(0.00102526 -0.00142928 -0.339244)
(0.000624161 -0.00142428 -0.339213)
(0.000220609 -0.00142761 -0.3392)
(-0.000184614 -0.00143462 -0.339197)
(-0.000594946 -0.00144796 -0.339208)
(-0.00101451 -0.00146975 -0.339237)
(-0.00144032 -0.00149129 -0.339272)
(-0.00186923 -0.00151751 -0.339322)
(-0.0023023 -0.00150686 -0.339381)
(-0.00274189 -0.0015139 -0.339409)
(0.00271794 -0.00187058 -0.33949)
(0.00228088 -0.00184674 -0.339468)
(0.00185695 -0.00187149 -0.339409)
(0.0014448 -0.0018515 -0.339356)
(0.00103504 -0.00184354 -0.339317)
(0.000627007 -0.00183865 -0.339284)
(0.000215904 -0.0018429 -0.339269)
(-0.000199142 -0.00185077 -0.339263)
(-0.000613283 -0.00186654 -0.339269)
(-0.00103715 -0.00189069 -0.339293)
(-0.00146578 -0.00191083 -0.339325)
(-0.00189521 -0.00193776 -0.339372)
(-0.00232892 -0.00191248 -0.339431)
(-0.00277054 -0.00193207 -0.339451)
(0.00266898 -0.0022966 -0.339526)
(0.00224502 -0.00226026 -0.339509)
(0.00183041 -0.00229604 -0.339473)
(0.00142753 -0.00227272 -0.339421)
(0.00102242 -0.00226255 -0.339387)
(0.000617037 -0.00225549 -0.339355)
(0.000207482 -0.00225865 -0.339339)
(-0.000206337 -0.00226716 -0.339331)
(-0.000618101 -0.00228399 -0.339335)
(-0.00103598 -0.00230734 -0.339359)
(-0.00145603 -0.00232646 -0.339385)
(-0.00187184 -0.00235381 -0.339432)
(-0.00229033 -0.00231383 -0.339468)
(-0.00271239 -0.0023476 -0.339482)
(0.00270492 -0.00271353 -0.339513)
(0.00228288 -0.00267415 -0.339531)
(0.00185555 -0.00272392 -0.3395)
(0.00143688 -0.00269749 -0.339455)
(0.00102155 -0.0026882 -0.339429)
(0.000610727 -0.00267857 -0.339411)
(0.000199645 -0.00267877 -0.339401)
(-0.000214221 -0.00268627 -0.339394)
(-0.000625505 -0.00270193 -0.339389)
(-0.00104382 -0.00272261 -0.339395)
(-0.00146787 -0.00273895 -0.339411)
(-0.00189418 -0.00276883 -0.339451)
(-0.00232297 -0.00271308 -0.339481)
(-0.00275165 -0.00275865 -0.339466)
(0.00298869 0.00298891 -0.369514)
(0.00251181 0.00293913 -0.369503)
(0.00204443 0.00299988 -0.369434)
(0.00158222 0.00296772 -0.36936)
(0.00111957 0.00295293 -0.369314)
(0.000659976 0.0029357 -0.369287)
(0.00020558 0.00292015 -0.369275)
(-0.000241397 0.00291502 -0.369274)
(-0.000687339 0.00291732 -0.369282)
(-0.00112836 0.00292498 -0.369304)
(-0.00156922 0.00292873 -0.369341)
(-0.0020097 0.00294843 -0.369402)
(-0.00245444 0.0028894 -0.369455)
(-0.00291106 0.00292347 -0.369455)
(0.00294574 0.00252437 -0.369509)
(0.00248306 0.00249351 -0.369458)
(0.00202951 0.00253973 -0.369381)
(0.00157694 0.00251992 -0.369295)
(0.00111761 0.00251242 -0.369238)
(0.000657383 0.00250354 -0.369191)
(0.000202317 0.00249513 -0.369173)
(-0.000249609 0.00249104 -0.369176)
(-0.000697628 0.00249012 -0.369197)
(-0.00113719 0.00249364 -0.369238)
(-0.0015712 0.00249495 -0.369287)
(-0.00199867 0.00250595 -0.369359)
(-0.0024312 0.002455 -0.36942)
(-0.00287983 0.00247886 -0.369457)
(0.00300831 0.00206474 -0.36945)
(0.00252784 0.00205295 -0.369392)
(0.00206364 0.00208877 -0.369289)
(0.00159843 0.00207524 -0.369203)
(0.00113165 0.00207245 -0.369142)
(0.000664278 0.00206791 -0.369096)
(0.000205754 0.00206552 -0.36908)
(-0.000253095 0.00206398 -0.369085)
(-0.000708373 0.00206359 -0.369108)
(-0.00115712 0.00206619 -0.369154)
(-0.00160049 0.00206598 -0.369211)
(-0.00203967 0.00207334 -0.369284)
(-0.00248167 0.00203044 -0.369368)
(-0.00294016 0.00203836 -0.369412)
(0.00297785 0.00160578 -0.369383)
(0.00250855 0.00160628 -0.369315)
(0.00205083 0.00162921 -0.369211)
(0.00158982 0.00161996 -0.369129)
(0.00112684 0.00161949 -0.369068)
(0.000661414 0.00161952 -0.369023)
(0.000207255 0.0016227 -0.369009)
(-0.000250569 0.00162391 -0.369017)
(-0.000704461 0.00162497 -0.369043)
(-0.00115248 0.00162816 -0.369092)
(-0.00159496 0.00162892 -0.369151)
(-0.00203223 0.00163407 -0.369226)
(-0.00247143 0.001602 -0.36931)
(-0.00292212 0.00159476 -0.369362)
(0.00296231 0.00114001 -0.369342)
(0.00250005 0.00114369 -0.369263)
(0.00204759 0.00115806 -0.369155)
(0.00159012 0.00115274 -0.369073)
(0.00112976 0.00115447 -0.369009)
(0.000664793 0.001157 -0.368965)
(0.000212967 0.00116397 -0.368954)
(-0.000245978 0.00116825 -0.368965)
(-0.000701607 0.00117097 -0.368996)
(-0.00115218 0.00117501 -0.369049)
(-0.00159666 0.00117642 -0.369114)
(-0.00203477 0.00117977 -0.36919)
(-0.00247217 0.00115708 -0.369278)
(-0.00292043 0.00114288 -0.369339)
(0.00294781 0.000670249 -0.36932)
(0.00249274 0.000670259 -0.369224)
(0.00204234 0.000675947 -0.369119)
(0.00158727 0.000672492 -0.369039)
(0.00112853 0.000675072 -0.368975)
(0.000664949 0.00067851 -0.368932)
(0.000215845 0.000688508 -0.36892)
(-0.00024249 0.000696787 -0.368932)
(-0.000698415 0.00070189 -0.368964)
(-0.00114994 0.00070796 -0.369021)
(-0.00159557 0.000710628 -0.369087)
(-0.00203377 0.000712741 -0.369164)
(-0.0024701 0.000699069 -0.369253)
(-0.00291434 0.000685072 -0.369328)
(0.00293188 0.000202753 -0.36931)
(0.00248499 0.00020043 -0.369204)
(0.00203996 0.000202345 -0.369102)
(0.00159006 0.000203144 -0.369024)
(0.00113471 0.000207544 -0.368961)
(0.000673455 0.000212343 -0.368921)
(0.000223534 0.000220989 -0.368911)
(-0.000234798 0.000227994 -0.368925)
(-0.000693149 0.000232298 -0.368958)
(-0.00114681 0.000236697 -0.369016)
(-0.00159423 0.000237197 -0.369083)
(-0.00203368 0.000236165 -0.369159)
(-0.00247084 0.000229243 -0.369247)
(-0.00291465 0.000219658 -0.369329)
(0.00292328 -0.00026008 -0.369308)
(0.00247936 -0.000271449 -0.369208)
(0.0020392 -0.000278797 -0.369109)
(0.00159416 -0.000278146 -0.369033)
(0.00114271 -0.000274953 -0.368974)
(0.000684923 -0.000270965 -0.368936)
(0.000233829 -0.000263617 -0.368927)
(-0.000223795 -0.000255808 -0.368941)
(-0.000684878 -0.000250804 -0.368973)
(-0.00114134 -0.000246337 -0.369029)
(-0.00159223 -0.000244791 -0.369093)
(-0.00203599 -0.000245203 -0.369166)
(-0.00247706 -0.000242339 -0.369251)
(-0.00292368 -0.000242545 -0.369331)
(0.00292122 -0.000717454 -0.369314)
(0.00247513 -0.000733027 -0.369229)
(0.00203666 -0.000748865 -0.369133)
(0.00159348 -0.000747573 -0.369061)
(0.00114382 -0.000746015 -0.369005)
(0.000688359 -0.000743247 -0.368968)
(0.000236529 -0.000739423 -0.368958)
(-0.000220189 -0.000732956 -0.36897)
(-0.000682264 -0.000727738 -0.369)
(-0.00113951 -0.000724615 -0.369053)
(-0.00159204 -0.00072285 -0.369115)
(-0.00203872 -0.000724345 -0.369183)
(-0.00248186 -0.000712835 -0.369264)
(-0.00293023 -0.000706056 -0.369332)
(0.00292228 -0.00116469 -0.369333)
(0.00247303 -0.00117989 -0.369268)
(0.00203565 -0.0012053 -0.369175)
(0.00159424 -0.00120294 -0.369106)
(0.00114656 -0.00120284 -0.369054)
(0.000693266 -0.00120088 -0.36902)
(0.000239395 -0.00119994 -0.36901)
(-0.00021636 -0.00119431 -0.36902)
(-0.000679753 -0.00118934 -0.369048)
(-0.00113798 -0.00118884 -0.369095)
(-0.0015921 -0.00118757 -0.369151)
(-0.00204133 -0.00119148 -0.369214)
(-0.00248738 -0.00117109 -0.369292)
(-0.00293991 -0.00116243 -0.369341)
(0.00292212 -0.00160419 -0.369368)
(0.00247104 -0.00161197 -0.369313)
(0.00203179 -0.00164613 -0.36923)
(0.0015916 -0.00164225 -0.369161)
(0.00114541 -0.00164304 -0.369113)
(0.000694005 -0.00164127 -0.369081)
(0.000238879 -0.00164254 -0.369071)
(-0.000214774 -0.00163878 -0.369078)
(-0.000678013 -0.00163635 -0.369102)
(-0.00113638 -0.00163986 -0.369143)
(-0.00159157 -0.00163997 -0.369191)
(-0.00204186 -0.0016465 -0.369252)
(-0.00249116 -0.00161631 -0.369323)
(-0.00294603 -0.00161293 -0.369359)
(0.00293629 -0.00203607 -0.369428)
(0.00247843 -0.00202726 -0.369385)
(0.00203681 -0.00207119 -0.369304)
(0.00159594 -0.00206473 -0.369235)
(0.00114937 -0.0020661 -0.369188)
(0.00069735 -0.00206424 -0.369153)
(0.000239031 -0.00206682 -0.369141)
(-0.000215344 -0.00206579 -0.369144)
(-0.000679691 -0.00206745 -0.369164)
(-0.00114014 -0.00207437 -0.3692)
(-0.00159776 -0.0020761 -0.369244)
(-0.00205095 -0.00208601 -0.369303)
(-0.00250407 -0.00204402 -0.369372)
(-0.00296576 -0.00205545 -0.369402)
(0.0028718 -0.00246767 -0.369478)
(0.00242466 -0.00244313 -0.369439)
(0.00199321 -0.00249446 -0.36938)
(0.00156454 -0.00248343 -0.369312)
(0.00112817 -0.00248246 -0.369269)
(0.000685695 -0.00247903 -0.369235)
(0.000235555 -0.00248099 -0.369223)
(-0.000213821 -0.00248298 -0.369222)
(-0.00066831 -0.00248904 -0.369238)
(-0.0011207 -0.00249807 -0.369272)
(-0.00156954 -0.00250309 -0.369309)
(-0.00201096 -0.00251763 -0.369367)
(-0.00245205 -0.00246556 -0.369414)
(-0.00290023 -0.00249335 -0.369437)
(0.00289991 -0.0029046 -0.369479)
(0.0024506 -0.0028725 -0.369478)
(0.00200802 -0.00292977 -0.369425)
(0.00156719 -0.0029091 -0.369364)
(0.00112358 -0.00290471 -0.36933)
(0.000678836 -0.00289708 -0.36931)
(0.000231579 -0.00289681 -0.369304)
(-0.000217537 -0.0029007 -0.369302)
(-0.000665511 -0.00291111 -0.369305)
(-0.00111771 -0.00292346 -0.369318)
(-0.00157096 -0.00293167 -0.369344)
(-0.00202418 -0.00295487 -0.369393)
(-0.00247763 -0.00289402 -0.369435)
(-0.00293835 -0.00293549 -0.369426)
(0.00330196 0.00328149 -0.401649)
(0.00278724 0.00323305 -0.401626)
(0.00228785 0.00331447 -0.401545)
(0.00178384 0.00329305 -0.401459)
(0.00127329 0.00328735 -0.401404)
(0.000761701 0.00327658 -0.401368)
(0.000248236 0.00326342 -0.401348)
(-0.000255963 0.00325246 -0.401336)
(-0.000756522 0.00325079 -0.40134)
(-0.00125005 0.00325194 -0.401363)
(-0.00173951 0.00324878 -0.401409)
(-0.00222412 0.00326247 -0.401491)
(-0.00270946 0.00318839 -0.401576)
(-0.00322654 0.00323162 -0.401608)
(0.00325418 0.00277147 -0.401633)
(0.00276741 0.00274782 -0.401577)
(0.0022869 0.00281091 -0.40149)
(0.00179557 0.00280047 -0.401394)
(0.00128571 0.00280042 -0.401327)
(0.000767728 0.00279719 -0.401269)
(0.000242483 0.00278863 -0.401237)
(-0.000270068 0.00277803 -0.401228)
(-0.000778108 0.00277021 -0.401242)
(-0.00127329 0.0027638 -0.401283)
(-0.0017569 0.00275422 -0.401338)
(-0.00222674 0.00275564 -0.401428)
(-0.00269255 0.00269306 -0.401518)
(-0.00318023 0.00271076 -0.401583)
(0.00333614 0.00227733 -0.401563)
(0.0028293 0.00227392 -0.401502)
(0.00233458 0.00232246 -0.401391)
(0.00182606 0.00231487 -0.401299)
(0.00130432 0.0023159 -0.401231)
(0.000774954 0.00231276 -0.401177)
(0.000239571 0.00230617 -0.401148)
(-0.000280139 0.00229697 -0.401138)
(-0.000798368 0.00228826 -0.40115)
(-0.00130384 0.00228117 -0.401189)
(-0.0017971 0.00227056 -0.401246)
(-0.00227918 0.00226947 -0.40133)
(-0.0027539 0.00221745 -0.40144)
(-0.00325245 0.00221703 -0.40151)
(0.00331335 0.00177823 -0.40149)
(0.0028173 0.0017884 -0.401422)
(0.00232696 0.00181883 -0.401313)
(0.00182054 0.00181221 -0.40123)
(0.00130034 0.00181204 -0.401165)
(0.000770296 0.00180949 -0.401115)
(0.000233147 0.00180583 -0.401088)
(-0.000285737 0.00179842 -0.40108)
(-0.000805405 0.00178972 -0.401093)
(-0.00130974 0.00178339 -0.40113)
(-0.00180014 0.00177454 -0.401183)
(-0.00227778 0.00177303 -0.401261)
(-0.00274777 0.00173579 -0.401364)
(-0.00323253 0.00172366 -0.401441)
(0.00330352 0.00127096 -0.401445)
(0.00281349 0.00128216 -0.401367)
(0.00232599 0.00129894 -0.401258)
(0.00182023 0.00129321 -0.401179)
(0.00130021 0.00129182 -0.401115)
(0.000768593 0.00128896 -0.401068)
(0.000230216 0.00128786 -0.401046)
(-0.000290593 0.00128313 -0.401041)
(-0.000812837 0.00127632 -0.401056)
(-0.0013183 0.0012724 -0.401094)
(-0.00180813 0.00126672 -0.401148)
(-0.00228375 0.00126638 -0.401221)
(-0.00274981 0.00124223 -0.401324)
(-0.00322736 0.00122749 -0.401407)
(0.00328999 0.000759987 -0.401421)
(0.00280719 0.000763651 -0.401323)
(0.0023198 0.00076746 -0.401221)
(0.00181442 0.000760568 -0.401146)
(0.00129409 0.000756611 -0.401086)
(0.00076178 0.00075168 -0.401042)
(0.00022652 0.000750785 -0.401021)
(-0.000296748 0.000751715 -0.401018)
(-0.000817659 0.000750359 -0.401034)
(-0.00132232 0.000751475 -0.401072)
(-0.00181071 0.000750251 -0.401125)
(-0.0022834 0.000751278 -0.401195)
(-0.00274657 0.000739614 -0.401293)
(-0.00321613 0.000730366 -0.40139)
(0.00327226 0.000245047 -0.401404)
(0.00279558 0.000236568 -0.401294)
(0.00231131 0.000229422 -0.401194)
(0.00180963 0.000221228 -0.401122)
(0.00129186 0.000217904 -0.401065)
(0.000760412 0.000215955 -0.401026)
(0.000229423 0.000220117 -0.401011)
(-0.000296649 0.000221995 -0.401014)
(-0.000816382 0.00022274 -0.401031)
(-0.00132037 0.000226681 -0.401071)
(-0.00180771 0.00023005 -0.401123)
(-0.00227917 0.000235229 -0.401192)
(-0.00274186 0.000235116 -0.401285)
(-0.00320953 0.00023155 -0.401389)
(0.00325628 -0.000266474 -0.401388)
(0.00278167 -0.000283872 -0.401282)
(0.00230117 -0.000299253 -0.401183)
(0.00180365 -0.000307923 -0.401114)
(0.00129015 -0.000315507 -0.401061)
(0.000762433 -0.000321236 -0.401027)
(0.000237008 -0.000319802 -0.401016)
(-0.000289307 -0.000313614 -0.401023)
(-0.00080772 -0.000308019 -0.401041)
(-0.00131151 -0.000300359 -0.401081)
(-0.00179973 -0.000292332 -0.401133)
(-0.00227347 -0.000284135 -0.401199)
(-0.00273893 -0.000271679 -0.40129)
(-0.00320959 -0.000260724 -0.401389)
(0.0032493 -0.000769084 -0.401384)
(0.00276974 -0.000794738 -0.401289)
(0.00228938 -0.000820951 -0.401189)
(0.0017931 -0.000830251 -0.401121)
(0.00128269 -0.000838301 -0.40107)
(0.00075918 -0.000843172 -0.401037)
(0.000238832 -0.000841852 -0.401027)
(-0.000285266 -0.000833268 -0.401034)
(-0.000801173 -0.000824134 -0.401054)
(-0.00130311 -0.000814197 -0.401095)
(-0.0017908 -0.000802264 -0.401148)
(-0.00226595 -0.00079262 -0.401212)
(-0.00273283 -0.000769581 -0.401304)
(-0.00320756 -0.000751732 -0.40139)
(0.0032449 -0.00126443 -0.401395)
(0.00275864 -0.00129099 -0.401317)
(0.00227893 -0.00132668 -0.401215)
(0.00178461 -0.00133377 -0.401145)
(0.00127779 -0.00134161 -0.401096)
(0.000759228 -0.00134543 -0.401064)
(0.000242879 -0.0013443 -0.401055)
(-0.000277998 -0.00133419 -0.401064)
(-0.000791293 -0.00132324 -0.401085)
(-0.00129158 -0.00131289 -0.401125)
(-0.00177946 -0.00129862 -0.401177)
(-0.00225676 -0.00128976 -0.401242)
(-0.00272697 -0.00125676 -0.401334)
(-0.00320911 -0.00123778 -0.401403)
(0.00323862 -0.00175199 -0.401429)
(0.00274677 -0.00177114 -0.401357)
(0.00226576 -0.00181486 -0.401258)
(0.00177359 -0.00181837 -0.401184)
(0.00127061 -0.00182486 -0.401136)
(0.000758168 -0.00182656 -0.401104)
(0.000245922 -0.00182543 -0.401095)
(-0.000269439 -0.00181523 -0.401103)
(-0.000778977 -0.00180446 -0.401125)
(-0.001277 -0.00179556 -0.401164)
(-0.00176577 -0.0017818 -0.401214)
(-0.00224527 -0.00177571 -0.401284)
(-0.00272099 -0.0017338 -0.401372)
(-0.00321025 -0.00172226 -0.40143)
(0.00324978 -0.00223195 -0.401501)
(0.00274704 -0.00223369 -0.401437)
(0.00226488 -0.00228728 -0.401332)
(0.00177276 -0.00228587 -0.401252)
(0.00127129 -0.00229022 -0.401199)
(0.000762275 -0.00228889 -0.401164)
(0.000250594 -0.00228764 -0.401151)
(-0.000260575 -0.00227862 -0.401158)
(-0.000768902 -0.00226967 -0.40118)
(-0.00126751 -0.00226341 -0.401221)
(-0.00175962 -0.00225259 -0.401271)
(-0.00224437 -0.00225191 -0.401344)
(-0.00272661 -0.00219988 -0.401437)
(-0.00322843 -0.00220511 -0.401491)
(0.00317188 -0.00270936 -0.401576)
(0.00268234 -0.00269005 -0.401512)
(0.00221255 -0.00275078 -0.401428)
(0.00173626 -0.00274354 -0.401343)
(0.00124808 -0.00274431 -0.40129)
(0.000752623 -0.00273985 -0.401252)
(0.000250517 -0.00273805 -0.401239)
(-0.000246869 -0.00273116 -0.401242)
(-0.000746016 -0.0027255 -0.401263)
(-0.00123541 -0.00272258 -0.401304)
(-0.00171903 -0.0027171 -0.401354)
(-0.0021929 -0.00272378 -0.401431)
(-0.00266628 -0.00266474 -0.401503)
(-0.00315783 -0.00269084 -0.401553)
(0.00321535 -0.00321482 -0.401604)
(0.0027025 -0.00316898 -0.401574)
(0.00221708 -0.0032383 -0.401493)
(0.00173067 -0.00321636 -0.401413)
(0.00123954 -0.0032095 -0.40137)
(0.000747021 -0.00319749 -0.401346)
(0.000250198 -0.00319286 -0.401339)
(-0.000236783 -0.00318806 -0.401341)
(-0.000731165 -0.00318933 -0.401351)
(-0.00121983 -0.00319436 -0.401372)
(-0.00170937 -0.00319706 -0.401411)
(-0.00219808 -0.00321779 -0.401482)
(-0.00269045 -0.003151 -0.40155)
(-0.00320982 -0.00320282 -0.401566)
(0.00365348 0.00363901 -0.436095)
(0.00308389 0.0035752 -0.436073)
(0.00253938 0.00367048 -0.435998)
(0.00198876 0.00364837 -0.43592)
(0.00143207 0.00364512 -0.435875)
(0.000872236 0.00363636 -0.435848)
(0.000307155 0.00362884 -0.435835)
(-0.000261023 0.00362236 -0.435825)
(-0.000821417 0.00362716 -0.435827)
(-0.001382 0.00363698 -0.435849)
(-0.00194064 0.00364196 -0.435897)
(-0.00249701 0.00366653 -0.435987)
(-0.00305524 0.00357984 -0.436085)
(-0.00365463 0.00365086 -0.436129)
(0.00358815 0.00305923 -0.436064)
(0.00305792 0.00303084 -0.436019)
(0.0025376 0.00309998 -0.435942)
(0.00200492 0.00308502 -0.435859)
(0.00145159 0.00308221 -0.435805)
(0.000886155 0.00307593 -0.435756)
(0.000309044 0.00306934 -0.43573)
(-0.000273386 0.00306141 -0.435719)
(-0.000840906 0.00305877 -0.435731)
(-0.00140535 0.003061 -0.435769)
(-0.00195829 0.00306042 -0.435823)
(-0.00249659 0.00307288 -0.435917)
(-0.00302767 0.00300974 -0.436017)
(-0.00357904 0.00303786 -0.436087)
(0.00367892 0.00250893 -0.435984)
(0.00312605 0.00250221 -0.435938)
(0.00258691 0.00255101 -0.435836)
(0.00203322 0.00253599 -0.435764)
(0.00146576 0.00253051 -0.435712)
(0.000890064 0.00252044 -0.435672)
(0.000306277 0.00251125 -0.435649)
(-0.000281845 0.00250182 -0.435636)
(-0.000854222 0.00249661 -0.435639)
(-0.0014262 0.00249785 -0.435669)
(-0.00198943 0.0024972 -0.435717)
(-0.00254393 0.002508 -0.435797)
(-0.00308923 0.00246224 -0.435918)
(-0.00366133 0.00246734 -0.435991)
(0.00365267 0.00195746 -0.435906)
(0.00310824 0.00196699 -0.435856)