/*--------------------------------*- C++ -*----------------------------------*\
| =========                 |                                                 |
| \\      /  F ield         | OpenFOAM: The Open Source CFD Toolbox           |
|  \\    /   O peration     | Version:  v2106                                 |
|   \\  /    A nd           | Website:  www.openfoam.com                      |
|    \\/     M anipulation  |                                                 |
\*---------------------------------------------------------------------------*/
FoamFile
{
    version     2.0;
    format      ascii;
    arch        "LSB;label=32;scalar=64";
    class       volScalarField;
    location    "0.000178";
    object      epsilon;
}
// * * * * * * * * * * * * * * * * * * * * * * * * * * * * * * * * * * * * * //

dimensions      [0 2 -3 0 0 0 0];

internalField   nonuniform List<scalar> 
144746
(
512748
372446
262811
170060
99524.7
60434.9
49783.4
55969
80351.4
128136
208542
316544
390558
378258
366307
252240
160153
93964.9
54123.9
33670.8
27280.6
31529.1
48428.5
85394.9
150944
244581
316350
309577
210924
133997
77644
42412.9
24905.2
15912.1
12828
15690.8
27839
55479.3
105056
177525
242758
250121
106841
60273.3
31698.2
16016.3
9278.59
6121.81
5414.16
7748.87
15669.4
33475.8
66207.2
116252
169213
191372
51448.5
24626.9
11307.9
5034.23
2759.06
1978.33
2277.23
4375.25
10278.7
23026.7
44998.4
76987.7
112212
138388
26654.3
10855.8
4087.74
1543.17
794.605
714.727
1280.2
3164.01
7838.97
17209.4
32318.9
53082.3
78042.4
105463
18734.3
6950.13
2312.73
900.116
509.209
588.581
1257.67
3079.54
7098.8
14515.1
25929
41841.9
65462.1
99249.4
20365
7272.54
2678.36
1350.4
909.762
1006.83
1780.01
3657.46
7355.49
13694
23494.8
40364.3
72877.9
118327
30746.7
10481.2
4442.23
2712.9
2022.85
2025.37
2854.15
4806.09
8386.76
14459.5
25398
53075
102074
169338
62422.1
19311.8
8296.61
5651.81
4536.48
4275.22
5053.99
7179.69
11290.3
19308.4
40134.4
90428.8
163804
256622
145256
54364.3
17905.7
11502
9982.57
9491.6
10386.2
13407.1
20036.8
38168
81364.7
163874
264821
366574
263322
152066
67576.9
30901.9
21654
20242.1
22077.7
28434.9
44067.2
84100.1
158651
270149
368878
428696
370698
285048
166846
83859.9
48125
38566.9
41113.3
54011.7
84623.9
148377
239360
331875
378663
378147
446224
417233
305103
183379
108101
74103.5
67470.5
81929.7
120113
185422
251118
291004
298406
290732
498002
350102
237149
145537
83805.8
52296.5
44030.3
51378.7
78066.2
128197
207009
310506
393380
399277
346427
231814
142234
82583.1
48821.6
31348.4
24724.4
27858.3
44877.9
82552.4
144789
229852
303749
316146
198482
123062
70484.4
39666.5
24078.9
15704.7
12204.2
14214.7
25922.4
52850.1
98137.3
159484
220898
247173
97321.3
53270.9
28604.3
15437.7
9394.25
6285.36
5270.33
7193.42
14960.9
32476.1
61477
102030
146565
178041
42865.8
19818
9549.04
4751.92
2833.49
2048.51
2205.14
4138.27
9926.83
22278.5
41995.9
67680.1
95622.2
122286
19655.7
7651.79
2990.31
1271.5
732.752
671.854
1177.22
2964.75
7489.46
16442.7
30084.1
46917.8
65812.5
88928
12898.6
4582.69
1461.84
550.96
324.242
433.752
1039.41
2712.36
6458.63
13308.8
23450.5
36345.3
53613.1
82398.5
14014.3
4895.06
1638.82
748.074
501.776
644.275
1319.89
2958.97
6243.31
11862.5
20299.4
33207.5
57784.2
99688.3
21161.7
7222.69
2758.77
1558.93
1152.17
1261.41
1990.93
3642.06
6709.67
11933.1
21030.6
40744.7
81329.2
146114
41488.2
13229.5
5281.09
3411.01
2722.95
2718.61
3500.08
5350.06
8874.44
15682.7
30908.2
68727.8
130922
220092
100246
33511
10830.5
7327.55
6288.85
6240.78
7372.81
10240.4
16148.6
28972.9
58915.5
121696
211151
316693
205548
107722
45051.1
19146
13873.5
13588.5
15760.7
21149.8
32306.7
58698.5
110059
199517
306106
405020
337352
230073
126037
57218.7
31293.8
26145.9
29006.3
38438.1
58645.4
101413
173766
274615
362494
418078
475831
378128
250294
139676
77769.9
51704.9
47674
58896
87257.4
143613
221753
296120
339962
361052
374189
249786
162955
101304
62123.4
41545.7
34458
39734.6
62332.3
106038
169411
247376
327729
379537
248193
163922
100590
60752.8
38124.9
25695.8
19973.5
21297.7
34995
66964
117210
179637
236960
270211
142311
89489.1
52217
30867.2
19653.6
13280.4
10182.5
11247.1
20621.1
43379.1
79804.6
124136
168777
202855
70111
38822
21367.3
12410
7945.11
5473.01
4469.94
5835.63
12321.2
27573.7
52216
82128.9
113098
143588
29662.4
13651.6
6839.52
3810.12
2462.03
1812.3
1856.27
3390.79
8264.33
18888.9
35883.4
56501.9
77248.1
100055
12744.3
4736.05
1910.27
932.995
606.637
561.8
948.392
2418.2
6240.74
13953.6
25989.5
40622.5
55210.3
72302.1
8223.48
2676.75
802.108
299.191
192.376
293.164
768.237
2127.67
5253.87
11125.1
20089.4
31400.1
44018.8
62120.6
9073.19
2910.29
860.847
343.776
231.889
363.692
878.619
2165.49
4845
9596.11
16856.6
26953.6
41896.2
69110.7
13532
4371.84
1482.53
758.975
552.345
678.238
1231.23
2496.35
4950.46
9254.42
16445
29196
53226.6
100519
25174.5
8017.12
2960.48
1812.16
1436.18
1521.91
2150.39
3576.2
6363.26
11741.3
22571.7
45551.1
85634.5
152571
59073.3
18279.4
6370.55
4267.47
3651.51
3779.08
4781.43
7108.9
11872.2
21585.4
41887.9
80179.4
139799
216721
126090
62711.8
24619.7
10175
8567.52
8944.2
11033.5
15661.4
24648.7
41742
73632.2
127584
205746
287294
231838
144536
72912.9
29934.6
17930.9
17930.5
21455
29143
43312.8
68671.3
111576
177356
262106
348421
355862
246099
151984
80787.8
44479.9
33179.1
35042
44943
63689.7
98931.5
156239
225550
299248
389077
319375
341288
393248
502716
725124
1.31939e+06
253192
266678
314894
424155
657306
1.23332e+06
212382
218471
256694
362049
631716
1.17691e+06
176135
180588
207620
299235
602400
1.13537e+06
146706
152914
174330
248842
567759
1.09758e+06
126629
138668
161832
224684
541695
1.06045e+06
129433
146570
172625
230340
537465
1.0338e+06
158209
181129
207663
259064
555271
1.01502e+06
220819
246867
265683
305399
583031
1.01709e+06
306953
323698
323867
349890
592852
1.0312e+06
378295
362969
342103
361740
563208
1.06131e+06
383209
342251
320581
349228
522264
1.13594e+06
325426
295681
293277
342400
514801
1.30792e+06
265704
262074
284207
359525
562995
1.6459e+06
337205
341888
369172
451892
700698
1.68695e+06
264069
268961
296987
371725
592920
1.47169e+06
220123
222957
246656
313848
526881
1.28975e+06
176171
183939
206805
265790
472838
1.13812e+06
137833
152580
179295
233450
435776
1.01417e+06
112905
134305
168305
223847
427186
919244
113229
138631
176886
231477
443766
873398
140080
169234
209135
258760
472970
858461
198090
231716
268824
303911
507120
883745
278987
314915
339321
351449
524413
948999
360938
380672
377856
368351
505846
1.04804e+06
405710
391508
365451
352683
470769
1.19364e+06
384917
354693
327636
332439
471819
1.41993e+06
328766
306399
295042
331991
520570
1.77041e+06
368052
384928
387827
426134
640153
1.72364e+06
264521
288006
308919
347656
504126
1.36464e+06
211850
235623
261925
298884
413158
1.09184e+06
162918
192063
226107
268934
359799
890322
122538
156627
199337
251161
336998
756456
94645.3
130316
182306
243583
341301
678387
87488.9
124315
181516
245524
359458
651508
102341
138664
197198
257616
386135
662012
139308
177800
237636
288338
409199
700310
193644
237606
296654
334741
430816
776127
252350
303953
356683
368556
433952
891543
310701
359315
393233
381250
424680
1.04625e+06
357109
392793
402328
381482
441485
1.25591e+06
383946
407284
397839
384520
495049
1.54031e+06
237481
253859
299368
403875
672132
1.85199e+06
221387
223599
256743
342350
584104
1.66061e+06
212651
202483
219713
290734
514945
1.508e+06
194765
182828
192299
250180
461300
1.38116e+06
165585
161365
173126
226015
428649
1.27528e+06
130116
142191
167256
223400
424916
1.19014e+06
108079
135544
176221
240431
453705
1.13269e+06
106248
149938
204298
275471
505019
1.11296e+06
133328
194995
258849
328815
564557
1.11854e+06
193782
274570
339296
392313
603246
1.12492e+06
286373
371745
412272
427558
576207
1.13481e+06
387864
439315
433225
411174
507690
1.17549e+06
442521
441843
401323
370864
463413
1.28981e+06
423956
393463
346335
342571
477553
1.53646e+06
271657
264387
279913
355482
613764
1.92175e+06
252932
237666
248760
303560
503336
1.60831e+06
237116
220393
227962
271299
428463
1.36762e+06
202864
196226
211343
254416
384801
1.18247e+06
153421
164306
194445
248538
373763
1.04188e+06
107539
133477
181579
251422
390186
948404
82617.7
118267
180590
263503
428798
909110
79184
125997
199037
290590
490606
914978
102098
164960
249113
341702
557481
938755
155602
240855
337624
414616
602297
986278
239052
344035
439422
472163
583657
1.05271e+06
345835
444248
501427
474191
510847
1.14592e+06
442722
501722
496222
430571
460867
1.30272e+06
485172
497262
441529
383375
468298
1.56147e+06
376514
384309
372643
398422
576079
1.57919e+06
289000
311935
327786
361962
486214
1.26711e+06
239902
273012
304797
344614
430745
1.04531e+06
185634
226842
278704
339399
410883
887729
130281
175926
246872
333313
413442
780540
87754
129751
210580
321486
425227
719300
64066.6
103440
186998
309566
443053
700755
55270.9
96583.4
181010
306754
476270
709898
63495.7
113839
201821
327773
522554
739895
93719.6
157797
257357
385277
555224
788189
143976
224019
345739
457451
559893
864947
210815
305595
441355
507233
529532
974623
295741
400064
517473
520322
500644
1.1334e+06
389610
490235
552274
505209
515119
1.36648e+06
1.45435e+06
817222
576474
543158
542809
521523
1.38449e+06
1.01906e+06
618689
540896
483753
421878
1.34029e+06
1.13521e+06
568119
438398
348864
278386
1.25668e+06
1.02091e+06
437792
299024
217909
163123
1.15189e+06
778631
306311
190722
131182
92315.8
1.06391e+06
552895
219824
131637
86867.9
55767.8
992883
408925
176852
108263
71082.8
42555.8
984445
339199
165019
110571
78408.6
47362.6
1.02051e+06
317471
175079
134691
109614
71191.9
1.08809e+06
329131
198548
172864
166153
127095
1.18244e+06
364532
230998
211793
225989
210794
1.30225e+06
415205
265394
242029
268402
282056
1.4527e+06
476689
301263
265700
289792
319627
1.6648e+06
555569
342817
293274
317158
354144
1.6528e+06
747604
560164
564719
559031
514032
1.45582e+06
900128
605360
551008
478490
403468
1.30077e+06
1.00309e+06
552810
434737
334327
262513
1.14455e+06
904730
424983
292974
205793
151026
1.00209e+06
695610
296958
184381
121686
81301.9
895214
505541
215052
123366
75424.9
44819.1
823937
382039
177983
99257.4
57097.9
31238.3
794309
322502
172167
102067
60708.5
33338.8
813066
304790
188144
129342
86925.3
49679.2
884905
309420
216162
179252
144788
90481.9
1.00573e+06
330771
247131
234890
226035
172934
1.16887e+06
373368
276798
280202
299620
266074
1.37932e+06
435670
307692
311409
349233
344807
1.66606e+06
520862
346755
351316
419812
450578
1.68278e+06
678282
556744
550963
482038
395210
1.43929e+06
739563
552081
471930
364144
285203
1.21279e+06
752774
471991
345304
238318
179684
1.00942e+06
659713
360351
230903
146409
103180
849988
527952
259986
147584
89062.3
55712
743403
429227
199804
101406
56165.1
30392.6
671447
365521
178945
84572.1
43038.8
21328.3
631058
337359
184299
89934.9
45752.4
22828.9
630169
335397
208372
115880
63357.1
32662.1
678413
350269
248472
168472
105203
56830.6
777186
372508
293813
239156
178747
115581
918962
410901
342096
315940
266047
192851
1.11247e+06
470174
391836
389074
358350
289592
1.3874e+06
546520
454975
497853
513283
451203
1.29805e+06
762934
504489
415136
379383
372063
1.2092e+06
887351
526241
441639
409339
400494
1.18084e+06
999604
515368
420915
376675
353212
1.13516e+06
968626
438900
338221
286367
256330
1.06033e+06
810623
328577
235955
192960
168796
996460
644184
241128
162360
130061
112049
966691
524560
196063
128075
99632.2
81957.9
964740
462194
187363
126001
97827.9
76202.2
1.00118e+06
454225
205819
150838
123515
93950.5
1.05313e+06
483409
249148
197745
176762
143690
1.11191e+06
522601
305046
252552
241008
217658
1.18019e+06
558173
360714
307778
308152
299641
1.27466e+06
599916
417309
369340
381399
384594
1.41746e+06
705323
512373
471382
503688
526213
1.60571e+06
695066
460361
404403
386915
386416
1.35713e+06
767353
485347
435975
412990
404460
1.1886e+06
843061
479344
415756
373494
347494
1.04683e+06
811084
415163
335901
282674
251535
923750
683586
317143
237328
192471
167294
836650
546683
236185
163627
128867
109513
794874
447564
193676
126126
94091.7
75906.5
798926
391000
184778
120094
86918.2
66023.7
841980
373447
200684
142952
108035
78908.4
935873
389272
234637
191410
162179
123057
1.06265e+06
430970
281656
250656
235696
198310
1.22363e+06
483767
333626
311431
314377
288340
1.42042e+06
550600
390575
377253
397047
382084
1.66777e+06
675516
483926
486305
539324
543204
1.72684e+06
597718
441201
416722
397329
375829
1.43892e+06
597999
452078
413277
372973
341368
1.18478e+06
601898
425301
365078
306819
270309
966209
555242
365294
290543
228920
195485
803035
481807
287961
211695
161516
133620
697698
416214
224782
150591
110438
88310.2
639622
372249
192271
117037
80049.8
60580.8
614710
339816
187340
110561
72189.7
51767.6
627534
329485
201684
128321
85690.7
59922.1
695997
337235
232885
173411
127336
90099.5
822946
368591
276064
234408
191177
143527
1.01795e+06
426352
329326
306344
272349
216888
1.28431e+06
514956
398042
390415
367928
307647
1.63683e+06
644977
500700
529316
536954
472117
156052
107037
71681.8
48628
34683.2
26151.9
21565.8
21255.6
29164.8
48878.4
80415.4
123100
179829
252254
91819.9
63327.1
41421
27800.4
19826
14749.7
11761.2
11316.5
16472.9
31256.3
57224.8
91875.6
132905
179499
49911.7
32082
20081.6
13311.2
9439.13
6938.54
5493.48
5606.97
9413.94
20151.1
39591.2
65770.4
96136.1
131177
23447.7
12889.7
7568.33
4951.35
3534.1
2620.31
2195.58
2749.27
5728.07
13441.2
27478.3
46911.2
69953.3
97126.7
9747.77
4220.56
2181.83
1384.44
1004.71
792.844
837.219
1559.5
3983.15
9714.9
20029.9
34684
52405.7
73764.4
4604.28
1491.47
565.901
305.669
223.429
227.022
418.71
1149.23
3178.94
7638.42
15493
26772.9
40789.6
58028.9
3495.53
955
247.597
86.1027
60.9604
113.122
340.004
1036.67
2786.2
6409.41
12632
21692
33463.5
48867
4013.32
1085.14
273.619
89.3936
62.4908
127.409
370.238
1041.58
2599.6
5666.12
10833.1
18523.8
29172.7
44463.9
5682.79
1603.2
485.679
218.483
159.236
229.677
495.265
1166.7
2618.5
5368.88
10032
17417.4
29015.7
48064
9329.31
2821.96
1063.37
629.829
500.94
565.836
876.168
1613.07
3136.05
6046.73
11351.4
20842.7
37090
62562.2
18019.6
6008.21
2523.5
1741.01
1511.2
1607.79
2094.81
3201.51
5467.47
9930.44
18504.6
33707.9
56946.6
88259
38184.7
15944
6194.41
4354.65
4061.86
4392.98
5451.38
7634.89
11859.2
19724.5
33777.1
55985.2
87275.6
123801
79841.3
38251
16590.7
9800.27
9425.23
10300.2
12497.9
16572.5
23766.5
36008.2
55494.1
85213.1
127831
174321
128576
72950.5
42318.9
25099.6
19775.4
20730.1
24255.4
30746.1
41569.7
58765.3
84799.7
123620
180997
256831
66498.5
50098
36897.7
27059.7
21250.1
17315.6
14770
13584.1
15580.9
23456.2
39303.7
63119
95583.2
143471
37277.3
26871.6
19034
13921.9
10920.9
8802.88
7383.11
6808.17
8420.49
14592.5
27878
48897.6
76728.2
112970
18972.3
12049.6
8075.13
5864.2
4625.97
3714.41
3125.66
3088.56
4557.45
9332.9
19628.1
36366.1
58908.3
87830.9
8588.99
4417.77
2696.29
1934.77
1539.87
1256.03
1129.61
1386.28
2707.61
6412.88
14221.3
27136.1
45174.9
68462.3
3864.56
1476.13
734.521
498.256
396.023
345.93
400.42
756.415
1930.61
4908.17
10996
21158.9
35623.1
54884.5
2255.29
639.407
211.252
110.144
84.5642
97.8034
201.667
571.682
1628.69
4134.09
9074.53
17282.5
29176.5
45386.5
1919.87
482.908
116.089
36.5336
25.7509
53.6989
171.339
540.469
1517.69
3710.11
7888.78
14773.9
24916
39287.3
2149.17
546.948
134.388
41.9591
29.8759
63.8238
192.445
566.58
1495.36
3476.2
7134.45
13115.6
22093.5
35321
2825.04
764.76
236.295
105.675
79.6611
118.106
263.824
656.551
1569.77
3428.23
6771.31
12258.8
20760
33944.7
4241.03
1274.09
537.362
327.456
265.439
301.304
472.258
905.79
1851.51
3706.81
7039.3
12657.7
21799.5
36616.5
7251.19
2532.66
1338.3
980.877
852.514
887.345
1125.81
1702.69
2902
5216.53
9450.03
16789
28749.1
46489.1
14591.7
5561.87
3218.93
2637.17
2452.19
2559.67
3031.59
4063.18
6086.74
9849.23
16553.8
27606.9
43383.3
63221.7
30181.9
12964.9
7211.13
6214.26
6105.56
6533.74
7632.67
9707.21
13434
19885.8
30658.1
46588.7
67961.4
88840.4
51031
27759.1
17167.4
13337.7
13248
14378.2
16699.1
20617.3
27077
37523.1
53335.6
76295.5
107824
138071
22982.6
18006.1
14631.3
11961.3
10510
9382.94
8513.54
7817.14
7825.14
9605.88
14854.6
25049.9
41581
67995.4
11653.3
8261.85
6392.03
5178.01
4608.63
4134.13
3751.85
3489.52
3781.12
5465.81
10040.6
19233.1
34557.9
57879.6
5486.37
3222.84
2295.64
1838.79
1648.3
1487
1374.41
1378.43
1814.74
3333.63
7151.83
14889.2
28122
48500.3
2616.88
1138.36
679.894
524.903
467.285
427.595
427.691
539.695
996.831
2314.93
5470.77
11866.9
23005.2
40410.4
1475.74
448.919
185.302
123.282
105.839
103.932
137.545
276.744
716.509
1891.29
4606.48
10049.9
19569
34491
1074.1
260.918
68.6723
28.9108
21.8014
29.6159
71.4161
215.854
641.705
1734.53
4179.73
8963.32
17218.4
30127.1
957.186
223.794
50.1792
13.3063
8.345
19.2088
65.7378
217.759
647.794
1709.47
3997.86
8338.22
15693.1
27146.8
1025.17
251.325
60.4465
17.8446
12.2461
25.9329
79.8879
246.599
696.141
1757
3950.3
7971.09
14652
24982.2
1256.2
336.779
104.752
46.5847
35.8372
52.7053
118.644
309.131
792.529
1873.94
4009.85
7802.65
13993.8
23574
1724.48
548.37
249.835
155.155
126.914
143.387
225.791
450.132
977.403
2085.77
4178.97
7791.44
13591.4
22621.4
2679.33
1102.84
676.658
507.119
434.304
439.407
545.661
827.805
1439.68
2648.49
4853.54
8581.93
14563.5
23989.5
4825.64
2422.57
1760.38
1484.19
1339.96
1330
1492.18
1910.11
2751.42
4314.4
7061.39
11605.7
18775.8
29403
9209.6
5211.81
4113.58
3773.97
3616.37
3673.08
4032.3
4823.8
6281.54
8826.12
13084.6
19800
29251
41007.6
17147.4
10813.1
8684.48
8319
8444.98
8928.75
9914.53
11654
14517.7
19210.2
26688.5
37437.9
51443.7
66264.1
6904.69
5274.41
4525.79
4134.34
4145.05
4182.75
4153.52
4020.04
3915.46
4161.8
5507.72
8958.18
15852.6
28492.9
3303.58
2126.75
1695.21
1523.3
1543.26
1576.83
1590.94
1575.39
1633.88
2029.39
3356.37
6552.61
12976.8
24660.4
1614.01
777.687
533.873
464.01
467.945
480.063
498.569
533.22
662.168
1095.01
2305.03
5144.12
10993.3
21960.9
919.324
298.438
146.566
115.152
113.086
117.022
132.141
177.065
317.469
727.429
1805.35
4325.35
9616.64
19717.9
635.634
151.646
44.4476
24.9562
22.2945
24.8711
37.9426
82.5233
221.753
618.316
1641.5
4013.16
8957.45
18318.3
503.562
108.208
23.3489
7.03319
4.58215
7.27775
20.4378
66.7451
211.839
620.006
1651.17
3982.17
8690.72
17312.3
448.59
99.0882
20.9674
4.73053
2.42958
5.79392
21.1373
74.4702
238.42
687.013
1777.48
4134.34
8679.27
16654.3
471.973
112.121
25.7903
7.01979
4.49659
9.19782
28.9786
94.6415
287.924
792.783
1956.16
4332.54
8692.09
16030.3
565.798
149.132
44.576
19.1599
14.7729
21.3921
48.5217
132.659
364.608
932.667
2161.32
4531.14
8689.82
15469
749.87
247.363
113.012
69.1068
56.1984
63.304
101.055
210.05
484.931
1108.01
2373.31
4693.32
8613.92
14842.8
1142.36
533.448
337.398
248.283
206.657
204.181
253.213
394.32
717.55
1392.69
2688.69
4968.56
8695.88
14558.8
2067.79
1265.98
962.521
794.175
688.403
652.819
708.312
893.852
1290.41
2056.26
3448.75
5813.97
9625.44
15640.1
3954.95
2857.59
2419.22
2180.14
2004.18
1933.7
2016.19
2299.76
2871.55
3907.88
5676.03
8549.38
13056.9
19844.8
7437.29
5865.9
5267.19
5102.81
5034.22
5092.07
5375.09
5976.71
7028.03
8818.79
11696.1
16167.5
22407.8
30539.9
2354.1
1623.9
1356.33
1300.04
1416.59
1581.46
1729.88
1809.16
1839.14
1918.65
2356.94
3650.96
6578.11
12587.4
1142.59
608.763
449.62
418.475
456.245
513.505
571.836
613.599
659.4
795.922
1255.56
2458.19
5137.88
10643.2
613.798
223.39
127.909
111.838
120.14
134.987
154.163
177.852
227.551
373.542
794.64
1860.86
4310.15
9580.11
394.767
97.694
34.2571
24.6506
25.3399
28.6928
35.588
51.394
96.6564
231.103
607.924
1576.35
3878.91
8987.22
288.964
58.7347
12.6789
5.27872
4.50039
5.5266
9.49309
22.7226
65.9239
198.294
573.139
1546.59
3862.98
8941.54
228.893
45.5961
8.76503
1.99521
0.994295
1.71778
5.46343
19.4539
66.8566
212.992
623.111
1668.07
4074.29
9110.75
204.962
43.514
8.66567
1.70367
0.703641
1.63916
6.33486
23.9308
82.8232
259.833
737.651
1895.13
4410.72
9365.58
219.841
50.1388
10.6325
2.57524
1.52615
3.01903
9.73033
33.6828
110.248
329.192
886.744
2150.81
4721.06
9490.81
269.061
67.2612
18.239
7.24461
5.5383
7.92873
18.0818
51.6513
151.761
419.493
1055.96
2403.38
4979.64
9533.21
363.75
115.603
49.2655
28.6027
22.9372
25.7615
41.3336
88.5941
216.722
532.719
1232.85
2626.83
5161.29
9463.5
576.468
269.58
162.705
113.908
91.8832
89.609
111.829
178.854
341.489
706.404
1459.53
2878.39
5347.66
9397.42
1110.33
698.112
510.246
400.614
333.46
307.425
331.116
424.042
631.699
1054.85
1869.46
3335.52
5803.78
9802.26
2255.98
1687.44
1386.45
1191.02
1048.52
976.181
994.344
1123.94
1407.11
1945.05
2908.47
4556.71
7258.22
11664.3
4394.48
3612.44
3198.46
2984.63
2823.96
2753.51
2821.86
3061.58
3527.04
4352.26
5710.11
7854.55
11165.1
16409.6
995.149
593.056
443
402.171
436.37
505.443
587.849
658.641
720.491
806.264
1049.25
1694.14
3166.16
6273.56
484.26
206.731
128.782
112.358
121.465
140.339
164.001
187.395
218.765
291.359
504.722
1058.05
2329.03
5065.91
269.946
75.9582
32.7556
25.835
27.28
31.1577
36.9166
45.6083
66.0155
125.703
298.67
752.414
1851.94
4394.08
178.52
36.5039
8.87843
5.00324
4.87557
5.57975
7.28618
11.9614
27.0404
74.9844
217.373
609.071
1619.84
4093.53
130.443
24.1429
4.25311
1.16956
0.769371
0.949365
1.88947
5.50789
18.6997
62.9997
199.707
589.24
1619.04
4152.7
103.712
19.9927
3.60563
0.653013
0.201738
0.326253
1.22612
5.01234
19.3113
68.1331
219.452
648.076
1758.07
4388.42
97.1366
20.2813
3.80776
0.648724
0.188785
0.376227
1.56242
6.51382
24.9449
86.5399
271.523
772.841
1999.35
4723.62
110.809
24.2746
4.6922
0.97329
0.481184
0.836978
2.67438
9.88423
35.3558
116.257
346.384
932.087
2269.81
5039.12
141.55
32.97
7.93882
2.81522
2.04387
2.72565
5.83892
16.8897
52.9894
160.05
444.6
1118.14
2550.57
5330.59
197.7
58.083
22.3352
12.0703
9.4317
10.3841
15.9558
33.463
84.5948
223.409
564.726
1315.63
2811.33
5566.98
328.332
143.488
79.8354
52.2996
40.8273
39.7883
49.5595
78.7021
152.603
331.028
731.995
1553.79
3096.04
5799.1
667.36
397.206
269.757
198.031
157.803
144.575
158.207
207.123
317.071
549.137
1020.77
1925.12
3542.43
6287.78
1423.98
1015.8
781.219
627.846
525.23
479.097
491.298
570.699
742.307
1066.89
1657.7
2712.12
4524.55
7597.25
2859.12
2264.77
1897.88
1665.36
1496.23
1417.87
1440.43
1576.51
1861.42
2367.04
3196.85
4538.44
6698.88
10380.4
489.469
254.461
165.328
132.448
132.211
149.373
179.653
215.393
259.089
321.755
466.288
829.623
1666.1
3444.42
229.139
80.4896
40.9012
31.1377
31.2705
35.4635
43.0786
53.1306
69.6425
107.041
212.862
493.239
1159.19
2624.35
124.289
28.5308
9.02215
5.90267
5.83378
6.62319
8.29142
11.4409
19.7213
44.7894
120.218
327.653
852.799
2114.87
79.9044
14.4061
2.61067
1.00423
0.857078
0.991878
1.45408
2.92742
8.13004
25.8124
81.6859
244.978
692.758
1863.34
58.0266
10.334
1.67483
0.316704
0.127494
0.15484
0.39449
1.42304
5.51162
20.3721
69.9018
222.519
661.001
1843.07
48.4791
9.38707
1.65182
0.259639
0.0497757
0.065428
0.286804
1.31171
5.53372
21.2499
74.5005
240.085
713.791
1961.26
49.817
10.352
1.8488
0.281719
0.0597879
0.0914025
0.386834
1.73571
7.22055
27.2915
93.6482
292.796
835.521
2180.75
61.5868
12.9602
2.31016
0.422063
0.178779
0.259154
0.749905
2.8355
10.8728
38.8218
126.376
373.368
1001.21
2448.51
82.6603
17.9348
3.86663
1.23929
0.868265
1.06632
2.01204
5.54632
18.0033
58.2733
175.782
482.866
1204.34
2747.61
119.764
32.0861
11.0058
5.57086
4.30336
4.64171
6.66814
13.0936
32.8143
90.4744
244.974
617.04
1426.74
3042.46
205.937
81.3192
41.0063
25.2079
19.3149
18.9374
23.3964
36.1751
68.9335
152.047
352.284
795.843
1694.04
3380.83
431.229
233.934
145.154
99.2948
76.5396
70.6197
79.1525
105.621
163.451
287.358
550.231
1085.95
2106.07
3939.64
946.994
622.682
439.158
327.884
262.424
237.922
250.777
303.892
411.842
612.353
982.373
1668.64
2903.29
5077.56
1952.38
1439.31
1112.47
909.049
778.332
723.507
744.864
846.987
1051.56
1402.23
1973.11
2906.32
4446.54
7142.87
273.931
128.697
73.5921
50.5692
43.5505
44.3213
51.4025
62.6139
81.5673
116.991
205.377
431.813
959.103
2087.33
120.531
36.9409
15.7446
10.0775
8.78036
9.02625
10.6186
13.4793
20.1354
38.7252
95.4837
253.506
641.708
1506.85
61.408
12.4841
3.14688
1.61951
1.38368
1.44005
1.79166
2.74733
6.01648
17.3122
53.9482
160.454
439.444
1117.05
38.1643
6.60423
1.06736
0.27924
0.177286
0.189338
0.307705
0.792101
2.74868
10.0018
34.506
110.02
324.972
901.616
28.7452
5.27022
0.871576
0.139793
0.0319082
0.0309445
0.0985073
0.425587
1.83718
7.33867
26.8659
90.5608
283.557
832.719
26.6789
5.35155
0.944567
0.140417
0.0197371
0.0161594
0.0755241
0.37623
1.71111
7.04709
26.4398
91.079
289.736
854.586
30.9097
6.412
1.1069
0.158056
0.0262728
0.0263571
0.102119
0.478905
2.1404
8.72557
32.2964
108.925
335.825
950.126
41.2702
8.36607
1.3969
0.229117
0.0836444
0.0993819
0.2302
0.821479
3.29426
12.652
44.5092
142.197
412.914
1096.04
57.8045
11.7573
2.26025
0.638618
0.433738
0.501277
0.793501
1.87827
5.93448
20.1404
65.2383
193.731
523.743
1296.29
86.0172
20.8039
6.14264
2.85345
2.22403
2.40839
3.21537
5.55937
12.7605
34.9956
99.2894
267.75
667.54
1537.59
149.342
51.817
22.8793
13.11
10.1202
10.2478
12.6113
18.5273
32.8727
69.6936
163.378
387.208
878.298
1875.66
312.923
150.317
83.0466
52.7709
40.3551
38.6599
44.9086
60.5305
92.1294
158.23
301.545
610.162
1236.95
2437.01
691.833
409.386
258.97
178.967
139.764
130.211
144.468
183.419
255.787
385.255
622.952
1075.1
1921.42
3475.72
1453.95
976.856
680.572
513.438
423.161
396.805
427.682
515.987
675.974
938.447
1356.44
2036.86
3172.35
5198.66
170.051
74.339
38.6999
23.4691
17.566
15.7814
16.8768
20.1744
28.2399
48.0176
101.372
242.033
578.897
1313.38
71.4912
19.4797
7.0918
3.84394
2.87138
2.61133
2.88478
3.74888
6.60728
16.2736
47.9081
140.208
375.656
909.922
35.0306
6.4948
1.32512
0.506238
0.354077
0.329203
0.410755
0.755895
2.20878
7.80735
27.1089
85.7336
243.467
628.579
22.0483
3.8421
0.598867
0.10882
0.039523
0.0359975
0.073128
0.260756
1.10462
4.47391
16.4503
54.6144
165.177
463.394
18.0519
3.49064
0.601667
0.0916049
0.0132451
0.00724706
0.0291016
0.148741
0.707033
3.01918
11.5991
40.502
130.309
392.536
18.7666
3.88139
0.689878
0.101076
0.0123421
0.00515899
0.0225671
0.120437
0.586152
2.56285
10.1267
36.5551
121.834
378.428
23.8809
4.92764
0.833656
0.116191
0.0176023
0.0114755
0.0320345
0.142431
0.663036
2.87019
11.3182
40.7308
134.466
409.589
33.5284
6.62043
1.06742
0.168679
0.05887
0.0604795
0.100011
0.273622
1.03286
4.10817
15.4138
53.0434
166.824
481.289
48.2837
9.45817
1.71547
0.458527
0.308683
0.344648
0.466093
0.844433
2.2167
7.2288
24.2922
77.0396
224.908
603.243
73.3061
16.6752
4.48589
1.97309
1.55264
1.69777
2.15954
3.24821
6.22991
15.3335
42.8846
120.236
318.322
784.096
127.328
40.3731
16.1465
8.78581
6.85346
7.16638
8.84474
12.3958
19.9828
38.409
85.823
205.018
482.963
1084
261.659
114.591
57.7451
34.6416
26.4946
26.4384
31.6765
42.8307
63.3795
103.867
190.16
380.943
785.107
1595.74
568.992
309.986
179.518
116.594
89.893
86.8721
100.796
132.146
186.377
279.437
446.043
763.361
1369.04
2515.88
1197.92
746.278
475.85
335.757
269.486
258.952
292.359
370.015
501.322
710.501
1036.76
1560.32
2432.17
4003.43
247623
346051
435589
488462
518350
581122
163524
238782
326315
404394
479241
577367
112084
169987
246097
332257
441953
553370
76522.3
118298
180172
270251
406244
518631
54098.7
84498.4
135906
227713
374352
485168
40934.5
64294.2
107958
200769
352617
458079
34800.4
55765.1
97414.3
189966
344272
432429
34913.8
56601.5
100724
192346
346098
408030
44312.3
70007.5
122089
213907
351634
391414
64159.5
96589.9
159838
250654
360799
382667
92837.2
134197
208011
295841
372572
378029
129959
180912
259688
337226
389011
383630
181216
240090
313150
373566
411045
400971
249199
313619
369463
403200
428280
425257
109680
162161
233605
318618
404213
485261
82687.4
127484
193583
283154
394859
518047
61775.8
99096.8
156550
245113
380090
516891
46111.6
75725.3
123542
206401
357208
485493
36185.6
60034.6
101206
180230
332671
446305
29692
49771.2
86133.1
163161
305641
402832
25856.7
44368.2
79401.6
156892
280703
363063
24179.2
42811.5
79663.5
156121
260297
327558
26415.5
47513.9
90372.2
164634
248854
302425
34820.5
61071.9
111495
180342
246592
288873
50708.4
84517
140429
202888
254235
283437
72557
113981
172738
230940
270592
287171
101119
149736
209883
266090
299926
307888
142729
199743
259946
312308
343517
347198
41533.3
63460
97569.1
149784
227485
330568
33822.4
55718.3
90583.7
148072
239829
371454
28223.4
48832.5
83025.5
141916
242254
401466
23475.9
42170
73551.5
130053
234101
418885
20491
37530.2
66340.5
120912
229000
412964
18243.6
33696.8
60010.2
111899
221335
375631
16613.7
30798.9
55556.1
105219
208493
325062
15327.7
28567.3
52580.1
101079
190948
275570
14911.5
28034
53124.6
101986
176345
237914
16487.9
30956.8
59073
107223
166743
215057
21845
39793.5
72146.9
117797
166955
207782
32005
54738.5
90749.9
135050
179441
214857
47425.8
75447.6
115240
162669
207803
239628
70321
105175
150936
204981
253382
282264
14002.6
23618.6
39505.3
66201.8
113689
200411
11636.3
21539.3
38489.5
68714.4
125679
234242
10365.4
20561.3
38545.6
71842.8
137773
270226
9570.57
19828.3
38335.9
73500.1
146163
300893
9426.55
19779.5
38696.6
75104.1
151411
320783
9341.56
19565.7
38040.9
73500.7
147685
315793
9168.88
19004.9
36458.4
69730.6
139545
283594
8825.68
17963.3
34003.5
64632.3
129334
237711
8460.43
16900.3
31970.9
60965.5
118995
196996
8401.14
16505.7
31451.6
59573.9
108546
167100
9512.27
18357.3
34670.7
62891.7
104483
152008
12823.7
23746.1
42667.4
71692.6
109966
152278
19437.2
33632.6
56100
88027.3
128209
171138
30574.3
49237.3
76829
115013
162425
209596
5053.54
9416.93
17446.4
32597.5
63524.6
130300
3983.35
8325.2
16842
33936.4
70094.7
150824
3547.14
8046.91
17241
36357.2
77679.6
172683
3457.58
8245.96
18290.3
39415.2
85566
196699
3722.31
9018.92
20135.4
43347
94406.2
218366
4072.3
9802.16
21565.6
45378.4
97328
221650
4370.22
10301.6
22015
45093.8
95242.9
211918
4522.79
10353.5
21423.5
42718.9
88208.7
189248
4548.39
10091.4
20366
39903.9
80781.7
161321
4530.94
9731.58
19253.6
37143.4
72992.9
134523
4837.32
10039
19545.6
37040.7
69047.1
118326
6011.15
11945.2
22653.1
41432.2
72109.1