/*--------------------------------*- C++ -*----------------------------------*\
| =========                 |                                                 |
| \\      /  F ield         | OpenFOAM: The Open Source CFD Toolbox           |
|  \\    /   O peration     | Version:  v2106                                 |
|   \\  /    A nd           | Website:  www.openfoam.com                      |
|    \\/     M anipulation  |                                                 |
\*---------------------------------------------------------------------------*/
FoamFile
{
    version     2.0;
    format      ascii;
    arch        "LSB;label=32;scalar=64";
    class       volScalarField;
    location    "0.000128";
    object      rho;
}
// * * * * * * * * * * * * * * * * * * * * * * * * * * * * * * * * * * * * * //

dimensions      [1 -3 0 0 0 0 0];

internalField   nonuniform List<scalar> 
18109
(
2.67393
2.67106
2.6706
2.67036
2.6707
2.67145
2.67299
2.67656
2.67527
2.67472
2.67475
2.67544
2.67648
2.67808
2.67721
2.67722
2.67763
2.67851
2.67973
2.68109
2.68261
2.67885
2.67963
2.68064
2.68185
2.68326
2.68471
2.6862
2.67884
2.68068
2.68242
2.68412
2.68592
2.68765
2.68923
2.67856
2.68139
2.68382
2.68613
2.68823
2.69013
2.69172
2.67817
2.68176
2.68477
2.68753
2.68985
2.69192
2.69355
2.67818
2.68229
2.68574
2.6888
2.69124
2.69339
2.69501
2.67898
2.67675
2.67645
2.67629
2.67663
2.67731
2.67862
2.68012
2.68228
2.68469
2.68716
2.6893
2.69196
2.69358
2.68102
2.68015
2.67988
2.68006
2.68074
2.68167
2.68308
2.68455
2.68643
2.68819
2.68994
2.69125
2.69257
2.6932
2.68153
2.68176
2.68234
2.68328
2.68447
2.68569
2.68707
2.68831
2.68964
2.69079
2.69194
2.69284
2.69313
2.69306
2.68281
2.68375
2.6849
2.6862
2.68759
2.68895
2.69034
2.69151
2.69264
2.6935
2.69398
2.6942
2.69382
2.69308
2.68289
2.68467
2.68645
2.68822
2.68998
2.69162
2.69312
2.69428
2.69519
2.69569
2.69588
2.69556
2.69448
2.69307
2.68293
2.68552
2.68783
2.69007
2.6921
2.69394
2.69547
2.6966
2.69736
2.69768
2.69757
2.69679
2.69511
2.69318
2.68305
2.68616
2.68888
2.69147
2.69367
2.69568
2.69727
2.69842
2.69911
2.69937
2.69901
2.69793
2.69597
2.6937
2.68361
2.68709
2.69006
2.69284
2.6951
2.69718
2.69875
2.6999
2.70056
2.70079
2.7003
2.69909
2.69716
2.69465
2.68427
2.68793
2.69097
2.69381
2.69607
2.69815
2.69973
2.70091
2.7016
2.70186
2.70139
2.70024
2.69854
2.69598
2.68582
2.68934
2.69221
2.69496
2.69707
2.69907
2.70059
2.70172
2.70241
2.70269
2.70237
2.70141
2.70002
2.69754
2.68728
2.69069
2.69322
2.6958
2.69769
2.69948
2.70086
2.70193
2.70269
2.70307
2.70309
2.70254
2.70148
2.69933
2.68977
2.69271
2.69465
2.69694
2.6985
2.70005
2.70126
2.70228
2.70309
2.70348
2.70379
2.70369
2.70285
2.70096
2.69152
2.6946
2.69598
2.69797
2.6991
2.70026
2.70117
2.70202
2.70279
2.70333
2.70406
2.70447
2.70419
2.70331
2.69533
2.69731
2.69783
2.69931
2.69976
2.70042
2.70108
2.70184
2.70269
2.70357
2.70457
2.70513
2.70542
2.70497
2.67296
2.67567
2.67578
2.67657
2.67694
2.67881
2.67811
2.68008
2.6801
2.68042
2.68032
2.68138
2.67209
2.67125
2.66934
2.66858
2.66813
2.66811
2.67128
2.66844
2.66459
2.66082
2.65718
2.65464
2.67027
2.66494
2.65846
2.65173
2.64484
2.63869
2.67013
2.66327
2.65515
2.64595
2.63614
2.62631
2.67068
2.6627
2.65332
2.64264
2.63147
2.61919
2.6723
2.66397
2.65439
2.64337
2.63206
2.61985
2.67466
2.66753
2.65922
2.64927
2.63858
2.62665
2.67758
2.67173
2.66495
2.65708
2.64881
2.63983
2.68103
2.67693
2.67242
2.66729
2.66183
2.6559
2.68497
2.68239
2.68025
2.67776
2.67563
2.67357
2.68816
2.68722
2.68707
2.68698
2.68764
2.68809
2.69191
2.69191
2.69351
2.69485
2.6971
2.69975
2.69262
2.69453
2.69617
2.69876
2.70162
2.70554
2.69596
2.69849
2.69984
2.70182
2.70394
2.70722
2.69245
2.69383
2.69484
2.69689
2.69915
2.70209
2.69163
2.6922
2.69184
2.69167
2.69162
2.69174
2.69053
2.68939
2.68756
2.68553
2.68321
2.68042
2.68994
2.68724
2.68383
2.67956
2.6745
2.66842
2.68987
2.686
2.68137
2.6751
2.66761
2.65861
2.69031
2.68563
2.67993
2.67235
2.66343
2.65288
2.69121
2.68625
2.68029
2.67263
2.66333
2.65323
2.69292
2.68868
2.68352
2.6764
2.66776
2.65829
2.6948
2.69131
2.68738
2.68227
2.67651
2.66947
2.69747
2.69496
2.69234
2.68895
2.68561
2.68134
2.69981
2.69835
2.69741
2.69621
2.6955
2.69436
2.70303
2.7025
2.7031
2.70323
2.70438
2.70534
2.70403
2.70501
2.70614
2.70781
2.71006
2.71297
2.70767
2.70922
2.71094
2.7129
2.71517
2.71821
2.70561
2.70721
2.70887
2.71121
2.71371
2.71699
2.7052
2.70643
2.70744
2.70876
2.7101
2.7119
2.70414
2.70429
2.70416
2.70424
2.70447
2.70485
2.70291
2.7025
2.70161
2.70063
2.69959
2.69815
2.70193
2.70083
2.69943
2.69779
2.69575
2.6926
2.70112
2.6999
2.69843
2.69663
2.69397
2.68938
2.70059
2.69966
2.69845
2.69675
2.69378
2.68929
2.70031
2.6999
2.6991
2.69772
2.69505
2.6915
2.70009
2.70042
2.70062
2.70079
2.69998
2.69809
2.70011
2.70087
2.70194
2.70273
2.70353
2.70377
2.69901
2.70037
2.70209
2.70396
2.70598
2.70776
2.69878
2.70003
2.70193
2.70406
2.70652
2.7097
2.69519
2.6966
2.69807
2.70046
2.70299
2.70678
2.67755
2.67666
2.67663
2.67683
2.67818
2.67961
2.67644
2.67695
2.67843
2.68064
2.68417
2.68811
2.67686
2.67738
2.67962
2.68236
2.68631
2.69171
2.67204
2.67342
2.67487
2.67839
2.68227
2.68812
2.69487
2.6978
2.69849
2.69946
2.69975
2.70091
2.68819
2.68872
2.68762
2.68779
2.68807
2.68887
2.68583
2.6843
2.68182
2.67982
2.67787
2.67685
2.68277
2.67939
2.67512
2.67089
2.66638
2.66268
2.6811
2.67627
2.67049
2.66435
2.65777
2.65157
2.67964
2.67414
2.66762
2.66041
2.6527
2.64451
2.67929
2.67379
2.66734
2.65988
2.65222
2.64289
2.67931
2.67451
2.66889
2.66201
2.65462
2.64692
2.67987
2.67638
2.67268
2.66827
2.66364
2.65834
2.6807
2.6785
2.67648
2.67417
2.67221
2.67017
2.68159
2.68069
2.6806
2.68052
2.68126
2.68201
2.68073
2.6809
2.68191
2.68343
2.68609
2.68904
2.68109
2.68147
2.68318
2.68519
2.68825
2.69251
2.67746
2.67855
2.67964
2.68225
2.68514
2.68971
2.687
2.7025
2.72649
2.75964
2.79834
2.67197
2.68668
2.71411
2.75833
2.81455
2.6544
2.66494
2.68995
2.7413
2.81273
2.63446
2.63462
2.64766
2.68628
2.76048
2.61706
2.60722
2.60834
2.63552
2.70199
2.60572
2.58674
2.58041
2.6014
2.66238
2.60457
2.58376
2.57384
2.5919
2.65564
2.61225
2.59496
2.58539
2.59932
2.65526
2.76743
2.629
2.61747
2.61209
2.62323
2.67223
2.77788
2.64931
2.64514
2.64488
2.65639
2.69657
2.78224
2.67244
2.67436
2.67925
2.6938
2.72308
2.79194
2.96228
2.69131
2.69892
2.70796
2.72335
2.74655
2.79141
2.92731
3.19644
2.7065
2.71905
2.73383
2.75108
2.77442
2.80783
2.85388
3.14685
2.71411
2.72997
2.74726
2.76496
2.7811
2.79204
2.79987
2.7889
2.71541
2.73109
2.74911
2.76992
2.79311
2.81943
2.82218
2.82161
2.70866
2.72136
2.7395
2.76723
2.79888
2.837
2.86079
2.86879
2.69432
2.70279
2.72209
2.75122
2.79583
2.85117
2.90803
2.91847
2.67781
2.67872
2.68583
2.71298
2.75816
2.82631
2.90892
2.96193
2.66
2.65357
2.65172
2.67059
2.71086
2.78733
2.87687
2.92267
2.64601
2.63182
2.62286
2.63388
2.67601
2.75546
2.88047
2.99447
2.63792
2.61931
2.60763
2.61615
2.66085
2.76063
2.91062
3.01717
2.63657
2.61877
2.60732
2.61309
2.65946
2.75658
2.91413
3.15378
2.64365
2.62909
2.62074
2.6257
2.67133
2.76559
2.65939
2.64885
2.64475
2.65022
2.68786
2.77175
2.6765
2.6729
2.67302
2.68222
2.70993
2.76847
2.69424
2.69632
2.70141
2.71417
2.73715
2.77661
2.70954
2.71815
2.73022
2.74814
2.77071
2.80431
2.71976
2.73283
2.7495
2.76839
2.78721
2.72549
2.73959
2.75857
2.78196
2.80922
2.72401
2.73666
2.75718
2.78856
2.82543
2.71671
2.72761
2.74997
2.78257
2.83025
2.7069
2.71283
2.72506
2.75663
2.80566
2.69655
2.6958
2.69914
2.72061
2.76566
2.68873
2.68072
2.6765
2.69055
2.73416
2.68316
2.67121
2.66402
2.67399
2.71799
2.68117
2.6708
2.6616
2.66799
2.71218
2.68526
2.67617
2.66809
2.67141
2.71429
2.69368
2.68784
2.68302
2.68506
2.72174
2.70307
2.7025
2.70125
2.70636
2.73226
2.71055
2.71522
2.71996
2.7289
2.74976
2.71535
2.72555
2.7372
2.75391
2.77442
2.71362
2.72639
2.74296
2.7652
2.78842
2.706
2.7205
2.74395
2.77793
2.81725
2.69366
2.70947
2.73643
2.78225
2.84186
2.67918
2.69141
2.71917
2.77334
2.84756
2.66081
2.66428
2.67958
2.72246
2.80284
2.64507
2.6393
2.64464
2.67733
2.7504
2.63403
2.62209
2.62083
2.64755
2.7127
2.63236
2.61991
2.61571
2.64
2.70738
2.63883
2.62944
2.6265
2.64565
2.70388
2.65281
2.64844
2.64865
2.6635
2.71309
2.66872
2.66894
2.67328
2.68793
2.72846
2.6847
2.69036
2.69825
2.71521
2.74657
2.69513
2.70559
2.71699
2.7339
2.76082
2.70077
2.71476
2.73034
2.74873
2.77384
2.698
2.71311
2.73067
2.75173
2.77318
2.68153
2.68018
2.68018
2.68034
2.68084
2.68166
2.68292
2.68447
2.6864
2.68861
2.69081
2.69283
2.69524
2.69682
2.68327
2.68286
2.68299
2.68343
2.68417
2.68513
2.6865
2.68799
2.68977
2.69152
2.69321
2.69474
2.69619
2.69718
2.68386
2.68431
2.68502
2.686
2.68714
2.68833
2.68969
2.69099
2.69239
2.69368
2.6949
2.69624
2.69694
2.69751
2.68513
2.68615
2.68728
2.68857
2.68986
2.69113
2.69247
2.69369
2.69495
2.69606
2.69695
2.69753
2.69773
2.69784
2.68568
2.68727
2.68883
2.69052
2.69205
2.69351
2.69488
2.69607
2.69716
2.69803
2.69861
2.69887
2.69863
2.6982
2.68643
2.68852
2.69043
2.69242
2.69411
2.6957
2.69708
2.69826
2.69923
2.69993
2.70023
2.70024
2.6996
2.69869
2.68723
2.68964
2.69186
2.69403
2.69586
2.69758
2.69898
2.70018
2.70107
2.70163
2.70175
2.70154
2.70058
2.69934
2.68852
2.69115
2.69346
2.69573
2.69757
2.69934
2.70074
2.70192
2.70275
2.70322
2.70325
2.70285
2.70178
2.70033
2.68983
2.69258
2.69488
2.69718
2.69901
2.70079
2.7022
2.70339
2.7042
2.70463
2.70466
2.70419
2.70319
2.70163
2.69171
2.69437
2.69655
2.69877
2.7005
2.70221
2.70357
2.70471
2.70554
2.70594
2.70605
2.70562
2.70478
2.70316
2.69337
2.69598
2.69793
2.70005
2.70164
2.70326
2.70459
2.70572
2.7066
2.70703
2.70733
2.70704
2.7064
2.70492
2.6956
2.69792
2.6995
2.70145
2.70287
2.70437
2.70563
2.70674
2.70771
2.70813
2.70864
2.70861
2.70801
2.70674
2.69718
2.69964
2.70083
2.70263
2.70383
2.70516
2.70633
2.70739
2.70841
2.70901
2.70967
2.71001
2.70968
2.70905
2.70011
2.70186
2.70244
2.70401
2.70484
2.70594
2.70699
2.70803
2.70914
2.71004
2.71094
2.71134
2.71139
2.71092
2.68033
2.67975
2.68005
2.68044
2.68112
2.68206
2.68338
2.68492
2.68668
2.68865
2.69069
2.69258
2.69461
2.69621
2.6823
2.68205
2.68237
2.68289
2.68368
2.68469
2.68606
2.68761
2.68934
2.69112
2.69277
2.69436
2.69582
2.69702
2.68327
2.68364
2.68423
2.68503
2.68605
2.68721
2.68859
2.69002
2.69154
2.69303
2.69437
2.69573
2.69673
2.69776
2.68504
2.68568
2.68645
2.68743
2.68853
2.68972
2.69105
2.6924
2.6938
2.69514
2.69627
2.69725
2.69781
2.6985
2.68633
2.68731
2.68835
2.68954
2.69075
2.69201
2.69331
2.69458
2.69584
2.69698
2.69788
2.69867
2.69897
2.6994
2.68789
2.68912
2.69035
2.69169
2.69296
2.69427
2.69553
2.69675
2.6979
2.69891
2.69965
2.70023
2.70035
2.70047
2.68948
2.69091
2.69227
2.69372
2.69505
2.69641
2.69766
2.69886
2.69992
2.70082
2.7014
2.70181
2.70179
2.70162
2.69134
2.69293
2.69431
2.69582
2.69714
2.69853
2.69975
2.70095
2.70196
2.70276
2.70323
2.70351
2.70335
2.70289
2.69311
2.6948
2.69622
2.69778
2.6991
2.70053
2.70176
2.70296
2.70394
2.70468
2.70508
2.70523
2.705
2.7044
2.69513
2.69683
2.69824
2.69982
2.70112
2.70253
2.70375
2.70494
2.70591
2.70659
2.70699
2.70703
2.7068
2.70605
2.69687
2.69859
2.69997
2.70156
2.70286
2.7043
2.70555
2.70675
2.70775
2.70838
2.70886
2.70884
2.70869
2.70785
2.69882
2.70049
2.70176
2.70334
2.70462
2.70604
2.70729
2.70848
2.70953
2.71008
2.71071
2.71075
2.71063
2.70979
2.70024
2.70207
2.70319
2.70475
2.706
2.70743
2.70875
2.70995
2.71106
2.71166
2.71239
2.71265
2.71246
2.71196
2.70223
2.70396
2.70474
2.70629
2.70745
2.70885
2.71017
2.71135
2.71252
2.71327
2.71409
2.71457
2.71452
2.71412
2.67956
2.67923
2.67954
2.67988
2.68047
2.68121
2.68222
2.6834
2.68475
2.6862
2.68773
2.68932
2.69089
2.69245
2.68156
2.6813
2.68154
2.68189
2.68248
2.68325
2.6843
2.68551
2.68685
2.68829
2.68966
2.69109
2.69236
2.69362
2.68273
2.68286
2.6832
2.68367
2.68438
2.68524
2.68632
2.68749
2.68876
2.69006
2.69126
2.69252
2.69357
2.69473
2.68454
2.68478
2.6852
2.68575
2.68651
2.6874
2.68847
2.6896
2.69081
2.69202
2.69311
2.69419
2.69498
2.69584
2.68611
2.68654
2.68711
2.68777
2.68859
2.68952
2.69056
2.69165
2.69278
2.69387
2.69484
2.69575
2.69636
2.697
2.68785
2.68842
2.68909
2.68985
2.69072
2.69169
2.6927
2.69377
2.69483
2.69583
2.6967
2.69747
2.69788
2.69821
2.68961
2.69031
2.69106
2.69195
2.69285
2.69388
2.69487
2.69592
2.6969
2.69783
2.69857
2.69918
2.69942
2.69955
2.69146
2.69229
2.69309
2.69409
2.69502
2.69609
2.69707
2.69809
2.69903
2.69988
2.70052
2.70098
2.70109
2.70098
2.69325
2.6942
2.69509
2.69617
2.69717
2.69828
2.69927
2.70029
2.70119
2.70197
2.70251
2.70282
2.70286
2.70251
2.69514
2.69617
2.69711
2.69827
2.6993
2.70045
2.70146
2.70249
2.70335
2.70406
2.70453
2.70474
2.70469
2.70415
2.69681
2.69794
2.69896
2.70019
2.70129
2.7025
2.70356
2.7046
2.70546
2.70611
2.70654
2.70663
2.70656
2.70588
2.69857
2.69978
2.70083
2.70212
2.70326
2.70449
2.70557
2.70661
2.70748
2.70805
2.70853
2.70856
2.70847
2.70779
2.69993
2.70134
2.7024
2.70374
2.70493
2.70623
2.70738
2.70845
2.70934
2.7099
2.7104
2.71042
2.71033
2.70979
2.70168
2.70316
2.70407
2.70544
2.70662
2.70792
2.70908
2.71017
2.71109
2.71164
2.71226
2.71241
2.71232
2.71185
2.67834
2.67808
2.67823
2.67842
2.67876
2.6792
2.67977
2.68044
2.68121
2.68207
2.68297
2.68403
2.68507
2.68622
2.68015
2.67982
2.67989
2.68006
2.68039
2.68082
2.6814
2.68207
2.68284
2.68369
2.68456
2.68554
2.68645
2.68743
2.68135
2.68124
2.68137
2.68159
2.68196
2.68242
2.68302
2.68367
2.68441
2.6852
2.68599
2.68686
2.68765
2.68858
2.6829
2.68288
2.68304
2.68328
2.68367
2.68414
2.68474
2.68538
2.68611
2.68684
2.68757
2.68833
2.68898
2.68975
2.68437
2.68447
2.6847
2.68499
2.6854
2.68589
2.68648
2.68711
2.68778
2.68845
2.68911
2.68976
2.6903
2.69094
2.68592
2.68611
2.68639
2.68672
2.68716
2.68767
2.68825
2.68887
2.68951
2.69013
2.69072
2.69127
2.69169
2.69215
2.68746
2.68775
2.68809
2.68849
2.68895
2.68949
2.69005
2.69066
2.69125
2.69181
2.69232
2.69277
2.69309
2.6934
2.68903
2.68943
2.6898
2.69027
2.69075
2.69132
2.69187
2.69247
2.69302
2.69354
2.69398
2.69434
2.69457
2.69469
2.69056
2.69106
2.69148
2.69203
2.69254
2.69315
2.69369
2.69428
2.6948
2.69528
2.69565
2.69592
2.69608
2.69602
2.6921
2.69269
2.69316
2.69377
2.69432
2.69495
2.69551
2.6961
2.6966
2.69703
2.69735
2.69752
2.69765
2.69745
2.69354
2.69423
2.69477
2.69545
2.69606
2.69673
2.69732
2.69791
2.69839
2.69878
2.69906
2.69915
2.69926
2.69892
2.69502
2.6958
2.69638
2.69712
2.69777
2.69848
2.69909
2.69969
2.70016
2.70052
2.70079
2.70084
2.70094
2.70053
2.69636
2.69722
2.69784
2.69864
2.69937
2.70013
2.70079
2.70142
2.70191
2.70225
2.70251
2.70254
2.70259
2.70229
2.69788
2.69877
2.69942
2.70023
2.70098
2.70175
2.70243
2.70308
2.7036
2.70397
2.70428
2.70437
2.70433
2.70423
2.67543
2.67521
2.67523
2.67525
2.67536
2.67552
2.67575
2.67604
2.6764
2.67684
2.67733
2.67795
2.67859
2.67937
2.67684
2.67654
2.67653
2.67653
2.67662
2.67678
2.67702
2.6773
2.67765
2.67808
2.67857
2.67917
2.67978
2.68048
2.67793
2.67775
2.67776
2.67779
2.6779
2.67806
2.67829
2.67856
2.67889
2.67928
2.67973
2.68028
2.68082
2.68151
2.6792
2.67906
2.67907
2.67911
2.67922
2.67938
2.67962
2.67988
2.6802
2.68057
2.68099
2.68148
2.68197
2.68259
2.68042
2.68035
2.68038
2.68045
2.68057
2.68074
2.68096
2.68122
2.68151
2.68185
2.68222
2.68266
2.6831
2.68366
2.68169
2.68166
2.68172
2.68181
2.68195
2.68212
2.68233
2.68258
2.68286
2.68317
2.68351
2.68389
2.68427
2.68475
2.68296
2.68299
2.68307
2.68319
2.68333
2.68352
2.68372
2.68396
2.68422
2.68449
2.6848
2.68512
2.68546
2.68585
2.68426
2.68434
2.68443
2.68458
2.68473
2.68493
2.68513
2.68536
2.6856
2.68585
2.68612
2.68641
2.6867
2.687
2.68554
2.68568
2.68578
2.68596
2.68613
2.68635
2.68654
2.68678
2.687
2.68723
2.68746
2.68771
2.68796
2.68815
2.68682
2.68704
2.68714
2.68736
2.68753
2.68777
2.68798
2.68821
2.68842
2.68864
2.68885
2.68906
2.6893
2.68936
2.68809
2.68838
2.68851
2.68875
2.68895
2.68921
2.68943
2.68967
2.68987
2.69008
2.69026
2.69042
2.69066
2.6906
2.68941
2.68976
2.6899
2.69017
2.69039
2.69067
2.6909
2.69114
2.69134
2.69154
2.69172
2.69183
2.69207
2.69194
2.69074
2.69111
2.69129
2.69158
2.69184
2.69214
2.69239
2.69264
2.69285
2.69304
2.69321
2.69329
2.69349
2.69337
2.69221
2.69257
2.69278
2.69306
2.69334
2.69364
2.6939
2.69415
2.69436
2.69455
2.69472
2.69484
2.69498
2.695
2.67244
2.67223
2.67213
2.67202
2.67198
2.67195
2.67195
2.67198
2.67207
2.67223
2.67241
2.67269
2.673
2.67341
2.67348
2.67318
2.67308
2.67296
2.67292
2.67289
2.67289
2.67292
2.67301
2.67316
2.67336
2.67364
2.67396
2.67436
2.67433
2.67409
2.67399
2.6739
2.67386
2.67383
2.67384
2.67386
2.67395
2.67408
2.67427
2.67452
2.67481
2.67522
2.67527
2.67504
2.67495
2.67487
2.67483
2.67481
2.67482
2.67484
2.67492
2.67505
2.67523
2.67546
2.67576
2.67614
2.67618
2.67599
2.67592
2.67585
2.67582
2.6758
2.67581
2.67583
2.6759
2.67602
2.67618
2.6764
2.67668
2.67703
2.67713
2.67698
2.67692
2.67685
2.67683
2.67681
2.67682
2.67684
2.67691
2.67702
2.67718
2.67738
2.67764
2.67796
2.67809
2.67799
2.67793
2.67788
2.67785
2.67784
2.67785
2.67787
2.67793
2.67803
2.67817
2.67836
2.67859
2.67889
2.67909
2.67903
2.67896
2.67892
2.6789
2.67889
2.6789
2.67892
2.67897
2.67907
2.6792
2.67938
2.67959
2.67985
2.6801
2.68008
2.68001
2.67999
2.67997
2.67997
2.67997
2.67999
2.68004
2.68013
2.68024
2.68041
2.6806
2.6808
2.68115
2.68118
2.68109
2.68109
2.68106
2.68107
2.68107
2.6811
2.68114
2.68123
2.68133
2.68149
2.68167
2.6818
2.68223
2.68229
2.68221
2.68222
2.6822
2.68221
2.68221
2.68224
2.68228
2.68236
2.68245
2.68258
2.68275
2.68277
2.68339
2.68346
2.68337
2.68339
2.68336
2.68338
2.68339
2.68341
2.68346
2.68354
2.68363
2.68373
2.68391
2.68386
2.68458
2.68465
2.68458
2.6846
2.68458
2.6846
2.68461
2.68463
2.68468
2.68475
2.68483
2.6849
2.68506
2.68498
2.68591
2.68592
2.68584
2.68585
2.68584
2.68585
2.68587
2.6859
2.68593
2.68601
2.68608
2.68616
2.68627
2.6863
2.66895
2.66867
2.6685
2.66832
2.66818
2.66805
2.66795
2.66788
2.66784
2.66784
2.66786
2.66792
2.668
2.6681
2.66968
2.66937
2.6692
2.66903
2.66889
2.66876
2.66866
2.66859
2.66856
2.66856
2.66859
2.66865
2.66875
2.66886
2.67031
2.67005
2.66989
2.66973
2.6696
2.66948
2.66939
2.66932
2.66928
2.66927
2.66929
2.66935
2.66943
2.66955
2.67101
2.67077
2.67061
2.67046
2.67034
2.67022
2.67012
2.67005
2.67001
2.67001
2.67003
2.67009
2.67017
2.67029
2.6717
2.67149
2.67135
2.6712
2.67108
2.67096
2.67087
2.6708
2.67076
2.67075
2.67077
2.67082
2.6709
2.67103
2.67243
2.67224
2.6721
2.67196
2.67184
2.67173
2.67164
2.67156
2.67152
2.67151
2.67153
2.67158
2.67166
2.67179
2.67318
2.67301
2.67288
2.67274
2.67263
2.67252
2.67242
2.67235
2.6723
2.67229
2.6723
2.67235
2.67242
2.67254
2.67395
2.67381
2.67367
2.67355
2.67343
2.67332
2.67323
2.67315
2.67311
2.67309
2.6731
2.67314
2.67321
2.6733
2.67475
2.67464
2.67449
2.67437
2.67425
2.67415
2.67406
2.67398
2.67393
2.67391
2.67392
2.67396
2.67401
2.67406
2.67558
2.67549
2.67533
2.67522
2.6751
2.675
2.67491
2.67483
2.67478
2.67475
2.67477
2.6748
2.67484
2.67484
2.67643
2.67636
2.6762
2.67609
2.67597
2.67587
2.67578
2.6757
2.67565
2.67562
2.67562
2.67564
2.67567
2.67562
2.67733
2.67726
2.6771
2.67699
2.67687
2.67676
2.67667
2.67659
2.67654
2.67651
2.67651
2.67652
2.67655
2.67645
2.67826
2.67817
2.67802
2.67792
2.6778
2.67769
2.6776
2.67751
2.67745
2.67741
2.67739
2.67738
2.6774
2.67729
2.67928
2.67912
2.67896
2.67885
2.67873
2.67863
2.67854
2.67845
2.67839
2.67834
2.67832
2.6783
2.67831
2.67825
2.66514
2.66485
2.66465
2.66444
2.66426
2.66408
2.66393
2.6638
2.66368
2.66358
2.66348
2.66342
2.66333
2.6633
2.66563
2.66536
2.66517
2.66497
2.66479
2.66462
2.66447
2.66434
2.66422
2.66412
2.66402
2.66396
2.66387
2.66387
2.66611
2.66586
2.66568
2.66549
2.66532
2.66516
2.66501
2.66489
2.66477
2.66467
2.66457
2.6645
2.66441
2.66441
2.66661
2.66639
2.66621
2.66603
2.66587
2.66571
2.66557
2.66544
2.66532
2.66522
2.66512
2.66505
2.66497
2.66495
2.66712
2.66692
2.66675
2.66658
2.66642
2.66627
2.66613
2.666
2.66588
2.66578
2.66568
2.66561
2.66553
2.66549
2.66766
2.66747
2.66731
2.66714
2.66699
2.66684
2.6667
2.66657
2.66645
2.66635
2.66625
2.66618
2.6661
2.66605
2.6682
2.66803
2.66787
2.66771
2.66756
2.66742
2.66728
2.66715
2.66704
2.66693
2.66683
2.66675
2.66667
2.6666
2.66876
2.66861
2.66845
2.6683
2.66815
2.66801
2.66787
2.66774
2.66762
2.66751
2.66742
2.66733
2.66724
2.66716
2.66933
2.6692
2.66904
2.66889
2.66875
2.66861
2.66847
2.66834
2.66822
2.66811
2.66801
2.66791
2.66782
2.66772
2.66991
2.66979
2.66964
2.6695
2.66935
2.66921
2.66907
2.66894
2.66882
2.6687
2.6686
2.66848
2.6684
2.66827
2.6705
2.6704
2.67024
2.6701
2.66996
2.66982
2.66968
2.66955
2.66942
2.66929
2.66919
2.66906
2.66896
2.66882
2.67111
2.671
2.67085
2.67071
2.67056
2.67042
2.67029
2.67015
2.67002
2.66989
2.66978
2.66964
2.66953
2.66936
2.67171
2.6716
2.67146
2.67132
2.67118
2.67103
2.67089
2.67075
2.67062
2.67047
2.67035
2.67019
2.67008
2.66988
2.67236
2.6722
2.67205
2.67191
2.67177
2.67162
2.67149
2.67134
2.67121
2.67106
2.67093
2.67077
2.67065
2.67045
2.6605
2.66024
2.66004
2.65983
2.65963
2.65944
2.65926
2.65909
2.65892
2.65876
2.65859
2.65844
2.65825
2.65812
2.66082
2.66058
2.66039
2.66019
2.66
2.65981
2.65964
2.65946
2.65929
2.65913
2.65895
2.6588
2.65861
2.65849
2.66113
2.66092
2.66073
2.66054
2.66036
2.66019
2.66001
2.65985
2.65968
2.65952
2.65934
2.65919
2.659
2.65887
2.66147
2.66127
2.6611
2.66092
2.66074
2.66057
2.6604
2.66023
2.66007
2.6599
2.65973
2.65957
2.65938
2.65924
2.66181
2.66163
2.66146
2.66129
2.66112
2.66095
2.66079
2.66063
2.66046
2.6603
2.66012
2.65996
2.65977
2.65961
2.66216
2.66199
2.66184
2.66167
2.66151
2.66135
2.66118
2.66102
2.66085
2.66069
2.66051
2.66034
2.66015
2.65998
2.66251
2.66236
2.66221
2.66205
2.6619
2.66174
2.66158
2.66141
2.66125
2.66108
2.6609
2.66073
2.66054
2.66035
2.66285
2.66272
2.66258
2.66243
2.66228
2.66212
2.66197
2.6618
2.66164
2.66146
2.66129
2.6611
2.66091
2.66071
2.6632
2.66308
2.66295
2.6628
2.66266
2.6625
2.66235
2.66218
2.66202
2.66184
2.66166
2.66146
2.66127
2.66105
2.66354
2.66343
2.6633
2.66317
2.66302
2.66287
2.66272
2.66255
2.66238
2.66219
2.66201
2.6618
2.66161
2.66137
2.66387
2.66377
2.66365
2.66352
2.66338
2.66322
2.66307
2.6629
2.66273
2.66254
2.66235
2.66213
2.66192
2.66167
2.6642
2.6641
2.66398
2.66386
2.66372
2.66356
2.66341
2.66323
2.66306
2.66286
2.66266
2.66243
2.66221
2.66195
2.66452
2.66442
2.66431
2.66418
2.66404
2.66388
2.66372
2.66355
2.66337
2.66316
2.66295
2.66271
2.66248
2.66219
2.66484
2.66473
2.6646
2.66447
2.66433
2.66418
2.66402
2.66384
2.66365
2.66344
2.66323
2.66298
2.66275
2.66247
2.6548
2.6546
2.65443
2.65424
2.65406
2.65387
2.65369
2.6535
2.65331
2.65312
2.65292
2.65272
2.6525
2.65232
2.65498
2.65479
2.65463
2.65445
2.65427
2.65409
2.65391
2.65372
2.65352
2.65333
2.65312
2.65292
2.65269
2.6525
2.65514
2.65497
2.65482
2.65464
2.65448
2.6543
2.65412
2.65394
2.65375
2.65356
2.65335
2.65315
2.65292
2.65272
2.65532
2.65517
2.65502
2.65485
2.65469
2.65452
2.65434
2.65416
2.65397
2.65378
2.65357
2.65336
2.65314
2.65293
2.6555
2.65536
2.65521
2.65506
2.6549
2.65473
2.65456
2.65438
2.6542
2.654
2.6538
2.65359
2.65336
2.65315
2.65567
2.65554
2.65541
2.65526
2.65511
2.65495
2.65478
2.6546
2.65442
2.65422
2.65402
2.65381
2.65358
2.65336
2.65584
2.65572
2.6556
2.65546
2.65531
2.65515
2.65499
2.65481
2.65463
2.65444
2.65423
2.65401
2.65379
2.65356
2.656
2.65589
2.65578
2.65565
2.65551
2.65535
2.65519
2.65501
2.65483
2.65463
2.65442
2.6542
2.65398
2.65374
2.65615
2.65606
2.65595
2.65582
2.65568
2.65553
2.65537
2.65519
2.65501
2.65481
2.6546
2.65438
2.65414
2.6539
2.6563
2.65621
2.6561
2.65598
2.65585
2.6557
2.65553
2.65536
2.65517
2.65497
2.65475
2.65452
2.65429
2.65403
2.65643
2.65634
2.65624
2.65612
2.65599
2.65584
2.65568
2.6555
2.65531
2.6551
2.65488
2.65464
2.6544
2.65414
2.65656
2.65647
2.65637
2.65625
2.65612
2.65597
2.6558
2.65562
2.65543
2.65521
2.65499
2.65474
2.6545
2.65423
2.65667
2.65658
2.65648
2.65636
2.65623
2.65607
2.65591
2.65572
2.65552
2.6553
2.65506
2.65481
2.65456
2.65429
2.65678
2.65668
2.65657
2.65644
2.65631
2.65615
2.65598
2.65579
2.65559
2.65537
2.65514
2.65489
2.65465
2.65437
2.64814
2.64801
2.64789
2.64775
2.6476
2.64744
2.64728
2.64711
2.64694
2.64676
2.64657
2.64638
2.64618
2.64598
2.64822
2.6481
2.64798
2.64784
2.64769
2.64754
2.64738
2.6472
2.64703
2.64684
2.64665
2.64644
2.64624
2.64604
2.64827
2.64816
2.64804
2.64791
2.64777
2.64762
2.64746
2.64729
2.64712
2.64694
2.64675
2.64655
2.64635
2.64614
2.64833
2.64823
2.64811
2.64799
2.64785
2.6477
2.64755
2.64738
2.64721
2.64703
2.64684
2.64664
2.64644
2.64624
2.64839
2.64829
2.64818
2.64806
2.64792
2.64778
2.64763
2.64747
2.6473
2.64712
2.64693
2.64674
2.64653
2.64633
2.64843
2.64834
2.64824
2.64812
2.64799
2.64785
2.6477
2.64754
2.64738
2.6472
2.64701
2.64682
2.64662
2.64641
2.64848
2.64839
2.64829
2.64817
2.64805
2.64791
2.64777
2.64761
2.64745
2.64727
2.64709
2.64689
2.64669
2.64649
2.64851
2.64843
2.64833
2.64822
2.6481
2.64797
2.64782
2.64767
2.6475
2.64733
2.64714
2.64695
2.64675
2.64655
2.64855
2.64846
2.64837
2.64826
2.64814
2.64801
2.64786
2.64771
2.64754
2.64737
2.64719
2.64699
2.64679
2.64659
2.64857
2.64849
2.6484
2.64829
2.64817
2.64804
2.64789
2.64774
2.64757
2.64739
2.64721
2.64701
2.64682
2.64661
2.6486
2.64851
2.64842
2.64831
2.64819
2.64805
2.64791
2.64775
2.64758
2.6474
2.64721
2.64702
2.64681
2.64661
2.64861
2.64853
2.64843
2.64831
2.64819
2.64805
2.64791
2.64775
2.64758
2.6474
2.64721
2.64701
2.64681
2.6466
2.64862
2.64853
2.64843
2.64832
2.64819
2.64805
2.6479
2.64773
2.64756
2.64737
2.64718
2.64698
2.64678
2.64658
2.64863
2.64852
2.64842
2.6483
2.64817
2.64802
2.64787
2.6477
2.64753
2.64735
2.64716
2.64697
2.64678
2.64657
2.64113
2.64106
2.64099
2.6409
2.6408
2.64069
2.64057
2.64045
2.64032
2.64018
2.64004
2.63989
2.63973
2.63957
2.64115
2.64108
2.64101
2.64092
2.64082
2.64071
2.64059
2.64047
2.64033
2.64019
2.64004
2.63988
2.63973
2.63957
2.64116
2.64109
2.64101
2.64092
2.64083
2.64072
2.6406
2.64048
2.64035
2.64021
2.64007
2.63991
2.63976
2.6396
2.64116
2.64109
2.64102
2.64093
2.64083
2.64072
2.64061
2.64049
2.64036
2.64022
2.64008
2.63993
2.63978
2.63963
2.64115
2.64109
2.64101
2.64092
2.64083
2.64072
2.64061
2.64049
2.64037
2.64023
2.64009
2.63995
2.6398
2.63965
2.64115
2.64108
2.641
2.64091
2.64082
2.64072
2.64061
2.64049
2.64036
2.64023
2.6401
2.63996
2.63981
2.63966
2.64113
2.64107
2.64099
2.6409
2.64081
2.6407
2.64059
2.64048
2.64036
2.64023
2.6401
2.63996
2.63981
2.63967
2.64112
2.64105
2.64097
2.64088
2.64079
2.64068
2.64058
2.64046
2.64034
2.64021
2.64009
2.63995
2.63981
2.63967
2.64111
2.64103
2.64095
2.64086
2.64077
2.64066
2.64055
2.64044
2.64032
2.64019
2.64007
2.63993
2.63979
2.63965
2.64109
2.64102
2.64093
2.64084
2.64074
2.64064
2.64053
2.64041
2.64029
2.64017
2.64004
2.63991
2.63977
2.63964
2.64108
2.641
2.64091
2.64081
2.64071
2.64061
2.6405
2.64038
2.64026
2.64013
2.64001
2.63988
2.63974
2.63961
2.64106
2.64097
2.64088
2.64078
2.64068
2.64057
2.64046
2.64034
2.64022
2.6401
2.63997
2.63984
2.63971
2.63958
2.64103
2.64094
2.64085
2.64075
2.64065
2.64053
2.64042
2.6403
2.64018
2.64005
2.63992
2.63979
2.63966
2.63954
2.641
2.6409
2.64081
2.6407
2.6406
2.64048
2.64037
2.64025
2.64013
2.64001
2.63988
2.63976
2.63964
2.63952
2.63445
2.63442
2.63438
2.63433
2.63427
2.63421
2.63414
2.63406
2.63398
2.63389
2.63379
2.6337
2.6336
2.63349
2.63447
2.63443
2.63438
2.63433
2.63427
2.6342
2.63413
2.63405
2.63397
2.63388
2.63378
2.63368
2.63359
2.63348
2.63446
2.63442
2.63437
2.63432
2.63426
2.63419
2.63412
2.63404
2.63396
2.63387
2.63378
2.63368
2.63359
2.63348
2.63445
2.63441
2.63436
2.6343
2.63424
2.63417
2.6341
2.63402
2.63394
2.63386
2.63377
2.63367
2.63358
2.63348
2.63444
2.63439
2.63434
2.63428
2.63422
2.63415
2.63408
2.634
2.63392
2.63384
2.63375
2.63366
2.63357
2.63347
2.63443
2.63438
2.63432
2.63426
2.63419
2.63412
2.63405
2.63398
2.6339
2.63382
2.63373
2.63364
2.63355
2.63345
2.63441
2.63436
2.6343
2.63423
2.63417
2.6341
2.63402
2.63395
2.63387
2.63379
2.63371
2.63362
2.63353
2.63343
2.63439
2.63434
2.63427
2.63421
2.63414
2.63407
2.63399
2.63392
2.63384
2.63376
2.63368
2.6336
2.63351
2.63341
2.63438
2.63432
2.63425
2.63418
2.63411
2.63404
2.63397
2.63389
2.63382
2.63374
2.63366
2.63357
2.63349
2.63339
2.63436
2.63429
2.63423
2.63416
2.63408
2.63401
2.63394
2.63386
2.63379
2.63371
2.63363
2.63355
2.63346
2.63337
2.63434
2.63427
2.6342
2.63413
2.63406
2.63398
2.63391
2.63383
2.63376
2.63368
2.6336
2.63352
2.63344
2.63336
2.63431
2.63424
2.63417
2.6341
2.63403
2.63395
2.63388
2.6338
2.63373
2.63365
2.63358
2.6335
2.63342
2.63334
2.63428
2.63421
2.63414
2.63407
2.63399
2.63392
2.63384
2.63377
2.6337
2.63362
2.63355
2.63347
2.6334
2.63332
2.63425
2.63417
2.6341
2.63403
2.63396
2.63388
2.63381
2.63374
2.63366
2.63359
2.63352
2.63345
2.63338
2.63331
2.62847
2.62844
2.62841
2.62838
2.62834
2.62831
2.62827
2.62822
2.62818
2.62813
2.62807
2.62802
2.62797
2.62791
2.62848
2.62845
2.62842
2.62838
2.62835
2.62831
2.62827
2.62822
2.62817
2.62812
2.62807
2.62801
2.62796
2.6279
2.62848
2.62845
2.62842
2.62838
2.62834
2.6283
2.62826
2.62821
2.62816
2.62811
2.62806
2.628
2.62795
2.62789
2.62848
2.62845
2.62841
2.62837
2.62833
2.62829
2.62824
2.6282
2.62815
2.6281
2.62805
2.62799
2.62794
2.62788
2.62848
2.62845
2.62841
2.62836
2.62832
2.62828
2.62823
2.62818
2.62813
2.62808
2.62803
2.62798
2.62792
2.62786
2.62848
2.62844
2.6284
2.62835
2.62831
2.62826
2.62821
2.62817
2.62812
2.62807
2.62802
2.62796
2.62791
2.62785
2.62847
2.62843
2.62839
2.62834
2.62829
2.62825
2.6282
2.62815
2.6281
2.62805
2.628
2.62795
2.62789
2.62783
2.62847
2.62842
2.62838
2.62833
2.62828
2.62823
2.62818
2.62814
2.62809
2.62804
2.62799
2.62793
2.62788
2.62782
2.62845
2.62841
2.62836
2.62831
2.62827
2.62822
2.62817
2.62812
2.62807
2.62802
2.62797
2.62792
2.62786
2.62781
2.62844
2.62839
2.62835
2.6283
2.62825
2.6282
2.62816
2.62811
2.62806
2.62801
2.62796
2.62791
2.62785
2.6278
2.62842
2.62838
2.62833
2.62828
2.62823
2.62819
2.62814
2.6281
2.62805
2.628
2.62795
2.6279
2.62785
2.62779
2.6284
2.62835
2.62831
2.62826
2.62821
2.62817
2.62812
2.62808
2.62804
2.62799
2.62794
2.62789
2.62784
2.62779
2.62838
2.62833
2.62829
2.62824
2.6282
2.62815
2.62811
2.62806
2.62802
2.62798
2.62793
2.62788
2.62784
2.62779
2.62835
2.6283
2.62826
2.62822
2.62817
2.62813
2.62809
2.62805
2.62801
2.62797
2.62792
2.62788
2.62783
2.62778