/*--------------------------------*- C++ -*----------------------------------*\
| =========                 |                                                 |
| \\      /  F ield         | OpenFOAM: The Open Source CFD Toolbox           |
|  \\    /   O peration     | Version:  v2106                                 |
|   \\  /    A nd           | Website:  www.openfoam.com                      |
|    \\/     M anipulation  |                                                 |
\*---------------------------------------------------------------------------*/
FoamFile
{
    version     2.0;
    format      ascii;
    arch        "LSB;label=32;scalar=64";
    class       volScalarField;
    location    "0.000128";
    object      T;
}
// * * * * * * * * * * * * * * * * * * * * * * * * * * * * * * * * * * * * * //

dimensions      [0 0 0 1 0 0 0];

internalField   nonuniform List<scalar> 
18109
(
305.852
305.722
305.719
305.714
305.728
305.759
305.823
305.968
305.902
305.876
305.877
305.908
305.953
306.023
305.992
305.985
305.998
306.035
306.09
306.151
306.22
306.064
306.089
306.131
306.186
306.251
306.318
306.387
306.067
306.137
306.213
306.291
306.375
306.456
306.531
306.062
306.172
306.277
306.383
306.482
306.573
306.648
306.056
306.194
306.321
306.447
306.556
306.656
306.734
306.069
306.225
306.368
306.504
306.619
306.723
306.801
306.069
305.967
305.965
305.961
305.973
306
306.055
306.118
306.212
306.319
306.431
306.529
306.654
306.733
306.161
306.118
306.105
306.114
306.144
306.185
306.246
306.311
306.396
306.477
306.559
306.621
306.685
306.717
306.18
306.187
306.213
306.257
306.311
306.367
306.429
306.484
306.546
306.599
306.653
306.695
306.711
306.71
306.234
306.275
306.329
306.391
306.456
306.518
306.583
306.636
306.688
306.727
306.748
306.758
306.741
306.707
306.24
306.317
306.4
306.483
306.567
306.644
306.713
306.767
306.808
306.829
306.836
306.82
306.77
306.705
306.247
306.357
306.463
306.568
306.664
306.751
306.823
306.875
306.909
306.922
306.914
306.876
306.797
306.709
306.259
306.39
306.511
306.631
306.735
306.83
306.905
306.959
306.99
307
306.981
306.927
306.835
306.731
306.293
306.436
306.566
306.694
306.8
306.898
306.973
307.027
307.057
307.065
307.04
306.981
306.888
306.772
306.331
306.478
306.609
306.738
306.843
306.941
307.017
307.072
307.103
307.113
307.09
307.033
306.951
306.831
306.405
306.544
306.667
306.79
306.888
306.981
307.052
307.105
307.138
307.15
307.133
307.087
307.019
306.901
306.469
306.607
306.713
306.828
306.912
306.994
307.057
307.108
307.145
307.163
307.163
307.137
307.085
306.983
306.581
306.699
306.777
306.874
306.942
307.012
307.069
307.118
307.158
307.178
307.193
307.188
307.148
307.058
306.666
306.787
306.832
306.913
306.962
307.017
307.063
307.106
307.144
307.171
307.205
307.223
307.21
307.168
306.845
306.917
306.913
306.968
306.995
307.032
307.067
307.106
307.148
307.19
307.236
307.261
307.274
307.252
305.809
305.959
306.014
306.044
306.033
305.987
306.026
306.131
306.17
306.209
306.246
306.286
305.766
305.768
305.709
305.69
305.655
305.539
305.769
305.681
305.543
305.38
305.128
304.669
305.729
305.543
305.302
305.005
304.556
303.795
305.718
305.473
305.174
304.774
304.182
303.231
305.739
305.445
305.098
304.647
304.036
303.084
305.805
305.496
305.143
304.689
304.114
303.281
305.902
305.641
305.346
304.966
304.5
303.858
306.023
305.806
305.572
305.303
305.011
304.645
306.167
306.014
305.868
305.723
305.591
305.437
306.334
306.237
306.18
306.139
306.148
306.166
306.473
306.441
306.458
306.492
306.58
306.682
306.648
306.652
306.736
306.819
306.952
307.117
306.69
306.78
306.863
306.995
307.141
307.335
306.846
306.964
307.033
307.136
307.248
307.401
306.686
306.757
306.819
306.931
307.052
307.187
306.65
306.694
306.705
306.725
306.739
306.737
306.599
306.571
306.52
306.468
306.401
306.245
306.571
306.47
306.351
306.21
306.033
305.723
306.565
306.408
306.236
306.008
305.728
305.302
306.583
306.387
306.163
305.874
305.533
305.076
306.619
306.411
306.173
305.877
305.517
305.107
306.693
306.513
306.306
306.025
305.696
305.348
306.776
306.625
306.467
306.268
306.062
305.837
306.895
306.786
306.68
306.55
306.443
306.338
307.002
306.937
306.902
306.868
306.879
306.879
307.153
307.129
307.163
307.181
307.256
307.334
307.207
307.254
307.312
307.397
307.513
307.658
307.387
307.468
307.558
307.66
307.77
307.896
307.296
307.385
307.481
307.608
307.73
307.856
307.282
307.363
307.439
307.524
307.593
307.634
307.237
307.272
307.3
307.327
307.341
307.302
307.185
307.194
307.185
307.168
307.131
306.993
307.136
307.119
307.087
307.042
306.97
306.77
307.095
307.069
307.034
306.988
306.905
306.688
307.063
307.047
307.024
306.991
306.905
306.729
307.044
307.047
307.045
307.028
306.966
306.862
307.023
307.061
307.104
307.155
307.175
307.163
307.013
307.071
307.153
307.231
307.319
307.396
306.972
307.052
307.16
307.282
307.409
307.526
306.989
307.059
307.162
307.285
307.425
307.595
306.838
306.911
306.992
307.121
307.258
307.44
306.035
306.027
306.073
306.148
306.268
306.383
305.975
306.02
306.129
306.273
306.468
306.672
305.992
306.037
306.176
306.339
306.541
306.791
305.771
305.857
305.963
306.158
306.352
306.595
306.829
306.967
307.008
307.059
307.08
307.084
306.535
306.569
306.521
306.52
306.48
306.348
306.431
306.401
306.301
306.173
305.936
305.516
306.301
306.2
306.032
305.797
305.384
304.687
306.233
306.073
305.852
305.545
305.049
304.254
306.163
305.975
305.738
305.418
304.949
304.207
306.133
305.946
305.723
305.421
305.021
304.375
306.121
305.96
305.78
305.541
305.243
304.824
306.133
306.023
305.927
305.819
305.705
305.511
306.159
306.102
306.073
306.051
306.06
306.055
306.199
306.185
306.222
306.277
306.38
306.492
306.154
306.176
306.252
306.365
306.53
306.707
306.17
306.198
306.3
306.43
306.601
306.82
306.002
306.065
306.142
306.297
306.464
306.688
306.259
306.29
306.175
305.995
305.8
305.022
304.1
302.618
300.695
298.412
303.436
301.382
298.514
295.164
291.197
301.955
299.035
295.624
291.857
287.499
301.301
298.228
295.018
291.64
287.248
301.311
298.377
295.404
292.388
288.089
301.799
299.433
297.079
294.762
291.129
302.822
301.29
299.698
298.063
294.829
287.083
304.087
303.307
302.5
301.533
298.78
290.618
305.237
305.046
304.863
304.609
302.875
295.514
306.258
306.516
306.887
307.256
306.679
301.996
290.405
306.985
307.578
308.292
309.126
309.59
308.038
299.99
280.543
307.518
308.262
309.177
310.234
311.323
311.974
309.743
302.823
307.73
308.457
309.296
310.221
311.136
311.846
312.578
310.888
307.732
308.34
308.973
309.665
310.532
311.84
312.608
312.808
307.363
307.586
307.71
307.865
307.926
308.487
310.177
310.794
306.582
306.228
305.651
304.601
303.511
302.797
302.938
306.445
305.671
304.559
302.893
300.992
298.773
296.782
294.849
296.726
304.823
303.231
301.112
298.875
296.07
292.931
288.501
285.593
304.329
302.701
300.595
298.3
295.203
290.496
284.376
279.562
304.207
302.748
300.821
298.671
295.501
289.988
282.327
273.332
304.294
303.19
301.691
299.875
296.84
289.88
280.15
271.37
304.78
304.111
303.188
301.823
299.069
291.538
305.565
305.254
304.882
304.152
302.158
295.562
306.318
306.383
306.458
306.471
305.657
301.301
307.029
307.351
307.815
308.436
308.812
307.537
307.615
308.176
308.956
310.019
311.125
311.932
307.964
308.529
309.291
310.27
311.435
308.143
308.59
309.152
309.895
311.071
308.018
308.226
308.433
308.698
308.922
307.574
307.35
306.959
306.123
305.172
306.975
306.175
304.809
303.129
301.037
306.434
305.264
303.532
301.422
298.711
306.218
304.973
303.283
301.221
298.147
306.201
305.071
303.575
301.687
298.481
306.278
305.504
304.267
302.623
299.453
306.608
306.155
305.307
304.004
301.071
307.074
306.92
306.543
305.788
303.606
307.494
307.628
307.65
307.621
306.728
307.74
308.123
308.544
309.003
309.329
307.881
308.371
308.956
309.779
310.591
307.69
308.082
308.459
309.013
309.792
307.012
306.948
306.792
306.637
306.547
305.806
304.895
303.459
301.715
299.582
304.34
302.358
299.71
296.635
292.936
303.032
300.392
297.234
293.775
289.659
302.56
299.916
297.053
293.912
289.651
302.665
300.196
297.663
294.961
290.564
303.181
301.29
299.38
297.363
293.499
304.099
302.941
301.781
300.428
296.872
305.172
304.687
304.238
303.556
300.456
306.055
306.12
306.254
306.218
304.177
306.748
307.249
307.853
308.319
307.562
307.085
307.783
308.615
309.446
309.875
307.244
307.986
308.867
309.833
310.719
307.032
307.608
308.165
308.734
309.348
306.177
306.116
306.122
306.131
306.151
306.184
306.238
306.307
306.394
306.495
306.598
306.692
306.804
306.88
306.258
306.237
306.244
306.266
306.299
306.341
306.401
306.468
306.549
306.631
306.711
306.784
306.852
306.899
306.28
306.302
306.336
306.383
306.436
306.489
306.551
306.61
306.674
306.734
306.791
306.854
306.887
306.914
306.335
306.384
306.439
306.501
306.562
306.621
306.682
306.738
306.795
306.846
306.887
306.913
306.922
306.926
306.361
306.435
306.51
306.59
306.663
306.731
306.795
306.85
306.9
306.938
306.963
306.974
306.961
306.941
306.398
306.492
306.583
306.677
306.757
306.832
306.897
306.951
306.996
307.026
307.037
307.035
307.004
306.961
306.439
306.545
306.648
306.75
306.837
306.918
306.984
307.04
307.08
307.104
307.107
307.094
307.048
306.99
306.502
306.615
306.721
306.827
306.914
306.997
307.063
307.119
307.157
307.176
307.175
307.154
307.102
307.033
306.565
306.683
306.787
306.894
306.979
307.063
307.129
307.185
307.223
307.24
307.239
307.215
307.166
307.091
306.654
306.767
306.865
306.967
307.047
307.126
307.19
307.244
307.282
307.299
307.302
307.281
307.239
307.161
306.73
306.843
306.929
307.025
307.097
307.171
307.233
307.285
307.327
307.346
307.36
307.345
307.313
307.242
306.832
306.931
306.999
307.085
307.148
307.216
307.274
307.326
307.372
307.394
307.418
307.416
307.388
307.325
306.906
307.009
307.055
307.132
307.184
307.244
307.299
307.35
307.399
307.431
307.463
307.48
307.464
307.431
307.037
307.107
307.123
307.188
307.226
307.279
307.33
307.381
307.434
307.479
307.523
307.542
307.544
307.519
306.115
306.089
306.104
306.123
306.153
306.194
306.252
306.322
306.403
306.494
306.59
306.679
306.774
306.847
306.206
306.195
306.211
306.237
306.273
306.318
306.379
306.449
306.529
306.611
306.69
306.766
306.835
306.888
306.247
306.268
306.297
306.336
306.384
306.437
306.499
306.564
306.633
306.703
306.766
306.829
306.877
306.922
306.327
306.361
306.4
306.447
306.499
306.554
306.615
306.676
306.74
306.801
306.854
306.899
306.924
306.954
306.387
306.435
306.487
306.544
306.601
306.66
306.72
306.778
306.835
306.887
306.928
306.963
306.975
306.993
306.46
306.518
306.577
306.641
306.702
306.763
306.822
306.878
306.93
306.976
307.009
307.034
307.036
307.04
306.534
306.6
306.664
306.734
306.797
306.861
306.919
306.974
307.023
307.064
307.089
307.105
307.102
307.091
306.62
306.692
306.758
306.829
306.892
306.957
307.014
307.069
307.115
307.152
307.172
307.183
307.173
307.149
306.703
306.779
306.845
306.919
306.981
307.048
307.105
307.16
307.206
307.239
307.256
307.261
307.249
307.217
306.797
306.873
306.939
307.012
307.073
307.139
307.195
307.25
307.294
307.325
307.342
307.344
307.331
307.293
306.879
306.956
307.019
307.092
307.152
307.218
307.276
307.331
307.377
307.406
307.428
307.426
307.418
307.375
306.969
307.044
307.101
307.172
307.23
307.295
307.352
307.407
307.456
307.482
307.511
307.512
307.507
307.464
307.033
307.113
307.162
307.232
307.288
307.353
307.413
307.469
307.522
307.551
307.586
307.598
307.59
307.563
307.115
307.192
307.225
307.295
307.347
307.411
307.472
307.528
307.583
307.62
307.661
307.684
307.681
307.661
306.074
306.06
306.075
306.093
306.12
306.153
306.197
306.251
306.313
306.379
306.451
306.526
306.599
306.67
306.166
306.155
306.168
306.186
306.215
306.249
306.296
306.351
306.412
306.479
306.543
306.611
306.671
306.727
306.219
306.228
306.246
306.27
306.304
306.343
306.392
306.444
306.502
306.562
306.619
306.678
306.727
306.778
306.301
306.316
306.339
306.366
306.402
306.443
306.491
306.542
306.597
306.653
306.704
306.754
306.79
306.827
306.374
306.398
306.426
306.459
306.497
306.54
306.587
306.636
306.688
306.738
306.783
306.825
306.852
306.878
306.454
306.483
306.517
306.553
306.594
306.638
306.684
306.733
306.781
306.827
306.868
306.903
306.92
306.933
306.534
306.569
306.606
306.648
306.69
306.737
306.783
306.83
306.875
306.918
306.953
306.981
306.99
306.993
306.619
306.66
306.699
306.746
306.789
306.838
306.882
306.929
306.972
307.012
307.042
307.062
307.066
307.059
306.702
306.747
306.789
306.841
306.887
306.938
306.983
307.029
307.07
307.107
307.132
307.146
307.147
307.129
306.79
306.838
306.883
306.937
306.985
307.037
307.083
307.13
307.169
307.202
307.224
307.234
307.231
307.204
306.868
306.92
306.968
307.025
307.076
307.131
307.179
307.226
307.265
307.295
307.315
307.32
307.316
307.283
306.949
307.005
307.053
307.113
307.165
307.222
307.271
307.318
307.357
307.384
307.406
307.407
307.403
307.369
307.01
307.074
307.123
307.185
307.239
307.299
307.351
307.4
307.44
307.466
307.49
307.491
307.488
307.46
307.084
307.151
307.193
307.256
307.311
307.37
307.423
307.473
307.516
307.542
307.572
307.58
307.576
307.554
306.016
306.005
306.013
306.023
306.039
306.057
306.083
306.113
306.148
306.188
306.23
306.28
306.328
306.382
306.098
306.084
306.089
306.099
306.115
306.134
306.16
306.19
306.226
306.265
306.306
306.352
306.394
306.438
306.154
306.15
306.157
306.17
306.187
306.208
306.235
306.264
306.298
306.335
306.372
306.413
306.449
306.491
306.225
306.225
306.234
306.247
306.266
306.287
306.314
306.343
306.376
306.41
306.444
306.479
306.509
306.543
306.291
306.299
306.311
306.325
306.344
306.366
306.393
306.421
306.452
306.483
306.514
306.544
306.569
306.597
306.361
306.373
306.389
306.405
306.424
306.447
306.473
306.501
306.531
306.559
306.587
306.613
306.633
306.652
306.431
306.448
306.466
306.485
306.506
306.53
306.555
306.583
306.61
306.636
306.66
306.682
306.697
306.71
306.502
306.524
306.543
306.566
306.588
306.613
306.638
306.665
306.69
306.715
306.736
306.754
306.765
306.769
306.572
306.599
306.62
306.646
306.67
306.697
306.721
306.748
306.772
306.794
306.812
306.825
306.834
306.83
306.643
306.673
306.697
306.726
306.751
306.779
306.805
306.831
306.854
306.874
306.889
306.899
306.905
306.896
306.71
306.745
306.771
306.803
306.83
306.861
306.888
306.914
306.936
306.954
306.967
306.973
306.979
306.963
306.779
306.817
306.844
306.879
306.909
306.942
306.969
306.996
307.017
307.033
307.046
307.05
307.055
307.036
306.84
306.881
306.911
306.948
306.982
307.017
307.047
307.075
307.097
307.112
307.124
307.127
307.13
307.116
306.908
306.949
306.98
307.018
307.053
307.089
307.12
307.149
307.172
307.189
307.204
307.209
307.208
307.204
305.881
305.872
305.874
305.875
305.88
305.887
305.897
305.911
305.927
305.948
305.97
305.999
306.029
306.065
305.945
305.933
305.934
305.934
305.938
305.945
305.956
305.969
305.985
306.005
306.028
306.056
306.084
306.116
305.996
305.989
305.99
305.992
305.997
306.004
306.014
306.027
306.042
306.06
306.081
306.106
306.131
306.163
306.054
306.049
306.05
306.052
306.057
306.064
306.075
306.087
306.102
306.119
306.138
306.161
306.184
306.212
306.11
306.108
306.11
306.114
306.119
306.126
306.136
306.148
306.161
306.177
306.195
306.215
306.235
306.261
306.167
306.168
306.172
306.176
306.182
306.189
306.199
306.21
306.223
306.237
306.253
306.271
306.289
306.311
306.225
306.229
306.234
306.239
306.245
306.253
306.262
306.273
306.285
306.298
306.312
306.328
306.344
306.362
306.284
306.29
306.295
306.302
306.309
306.317
306.326
306.337
306.348
306.36
306.373
306.387
306.401
306.415
306.343
306.352
306.357
306.366
306.373
306.382
306.391
306.402
306.412
306.423
306.434
306.446
306.459
306.469
306.402
306.413
306.419
306.429
306.437
306.448
306.457
306.468
306.477
306.488
306.497
306.507
306.52
306.526
306.461
306.475
306.482
306.493
306.502
306.514
306.524
306.535
306.544
306.553
306.562
306.57
306.582
306.582
306.522
306.539
306.546
306.558
306.568
306.581
306.591
306.602
306.611
306.62
306.628
306.635
306.647
306.643
306.583
306.601
306.609
306.623
306.635
306.649
306.66
306.671
306.68
306.689
306.697
306.701
306.712
306.707
306.651
306.667
306.677
306.691
306.704
306.717
306.729
306.74
306.749
306.758
306.766
306.772
306.779
306.781
305.746
305.736
305.731
305.726
305.724
305.723
305.723
305.725
305.729
305.736
305.744
305.758
305.772
305.791
305.794
305.78
305.775
305.769
305.767
305.766
305.766
305.767
305.772
305.779
305.788
305.8
305.815
305.834
305.832
305.821
305.817
305.812
305.81
305.809
305.809
305.81
305.814
305.82
305.829
305.84
305.854
305.873
305.875
305.865
305.861
305.856
305.854
305.853
305.854
305.855
305.859
305.865
305.873
305.884
305.897
305.915
305.917
305.909
305.905
305.901
305.9
305.899
305.899
305.9
305.903
305.909
305.916
305.927
305.94
305.956
305.961
305.954
305.951
305.947
305.946
305.945
305.945
305.946
305.949
305.955
305.962
305.972
305.984
305.999
306.005
306
305.997
305.994
305.993
305.992
305.993
305.994
305.996
306.001
306.008
306.016
306.028
306.042
306.05
306.048
306.044
306.042
306.041
306.04
306.041
306.042
306.044
306.049
306.055
306.063
306.074
306.086
306.096
306.096
306.092
306.091
306.09
306.09
306.09
306.091
306.093
306.098
306.103
306.111
306.12
306.13
306.145
306.146
306.142
306.141
306.14
306.14
306.141
306.142
306.144
306.148
306.153
306.16
306.169
306.176
306.194
306.197
306.193
306.193
306.192
306.193
306.193
306.194
306.196
306.2
306.204
306.21
306.219
306.221
306.247
306.25
306.246
306.247
306.246
306.246
306.247
306.248
306.25
306.254
306.258
306.263
306.272
306.27
306.302
306.305
306.302
306.303
306.302
306.303
306.303
306.304
306.306
306.309
306.313
306.317
306.324
306.321
306.363
306.363
306.36
306.361
306.36
306.361
306.361
306.362
306.364
306.367
306.37
306.374
306.38
306.382
305.586
305.573
305.564
305.556
305.549
305.544
305.539
305.536
305.535
305.535
305.535
305.538
305.542
305.547
305.62
305.605
305.597
305.588
305.582
305.576
305.572
305.569
305.567
305.567
305.568
305.571
305.576
305.581
305.649
305.636
305.628
305.62
305.615
305.609
305.605
305.602
305.6
305.6
305.6
305.603
305.607
305.612
305.681
305.669
305.661
305.654
305.648
305.643
305.639
305.635
305.633
305.633
305.634
305.637
305.641
305.646
305.713
305.702
305.695
305.688
305.682
305.677
305.673
305.67
305.668
305.667
305.668
305.67
305.674
305.68
305.746
305.737
305.73
305.723
305.717
305.712
305.708
305.705
305.703
305.702
305.703
305.705
305.709
305.715
305.78
305.772
305.765
305.759
305.753
305.748
305.744
305.741
305.739
305.738
305.739
305.741
305.745
305.75
305.816
305.809
305.802
305.796
305.79
305.785
305.781
305.778
305.776
305.775
305.775
305.778
305.781
305.785
305.852
305.846
305.839
305.834
305.828
305.824
305.819
305.816
305.814
305.813
305.813
305.815
305.817
305.82
305.89
305.885
305.878
305.872
305.867
305.862
305.858
305.855
305.853
305.851
305.852
305.853
305.856
305.856
305.928
305.925
305.918
305.913
305.907
305.903
305.898
305.895
305.892
305.891
305.891
305.892
305.894
305.891
305.97
305.966
305.959
305.954
305.948
305.944
305.939
305.936
305.933
305.932
305.932
305.932
305.934
305.93
306.012
306.008
306.001
305.997
305.991
305.986
305.982
305.978
305.975
305.973
305.972
305.972
305.973
305.968
306.06
306.052
306.045
306.04
306.034
306.029
306.025
306.021
306.018
306.016
306.015
306.014
306.015
306.013
305.411
305.397
305.388
305.378
305.37
305.362
305.355
305.349
305.343
305.339
305.334
305.331
305.327
305.326
305.434
305.42
305.411
305.402
305.394
305.386
305.38
305.373
305.368
305.363
305.359
305.356
305.352
305.352
305.456
305.444
305.435
305.426
305.418
305.411
305.404
305.399
305.393
305.388
305.384
305.38
305.376
305.376
305.479
305.468
305.459
305.451
305.444
305.436
305.43
305.424
305.418
305.414
305.409
305.406
305.402
305.402
305.502
305.492
305.484
305.476
305.469
305.462
305.456
305.45
305.444
305.44
305.435
305.432
305.428
305.426
305.527
305.517
305.51
305.502
305.495
305.488
305.482
305.476
305.471
305.466
305.462
305.458
305.454
305.452
305.551
305.543
305.536
305.528
305.522
305.515
305.509
305.503
305.498
305.493
305.488
305.484
305.481
305.478
305.577
305.57
305.562
305.555
305.549
305.542
305.536
305.53
305.525
305.52
305.515
305.511
305.507
305.503
305.603
305.597
305.59
305.583
305.576
305.57
305.564
305.558
305.552
305.547
305.542
305.537
305.534
305.529
305.63
305.624
305.617
305.61
305.604
305.597
305.591
305.585
305.58
305.574
305.569
305.564
305.56
305.554
305.657
305.652
305.645
305.638
305.632
305.625
305.619
305.613
305.607
305.601
305.596
305.59
305.586
305.579
305.684
305.679
305.672
305.666
305.659
305.653
305.647
305.64
305.635
305.629
305.623
305.617
305.612
305.605
305.712
305.707
305.7
305.694
305.688
305.681
305.675
305.668
305.662
305.655
305.65
305.642
305.637
305.628
305.742
305.735
305.728
305.721
305.715
305.708
305.702
305.695
305.689
305.682
305.676
305.669
305.663
305.654
305.197
305.185
305.176
305.166
305.157
305.148
305.14
305.132
305.124
305.117
305.109
305.102
305.094
305.088
305.212
305.201
305.192
305.183
305.174
305.166
305.157
305.149
305.142
305.134
305.126
305.119
305.11
305.105
305.226
305.216
305.208
305.199
305.191
305.183
305.175
305.167
305.159
305.152
305.144
305.137
305.128
305.122
305.242
305.233
305.225
305.216
305.208
305.2
305.193
305.185
305.177
305.17
305.162
305.154
305.145
305.139
305.257
305.249
305.241
305.233
305.226
305.218
305.211
305.203
305.196
305.188
305.18
305.172
305.163
305.156
305.273
305.266
305.259
305.251
305.244
305.236
305.229
305.221
305.214
305.206
305.198
305.19
305.181
305.173
305.289
305.283
305.276
305.269
305.262
305.254
305.247
305.239
305.232
305.224
305.216
305.208
305.199
305.19
305.306
305.299
305.293
305.286
305.279
305.272
305.265
305.257
305.25
305.242
305.234
305.225
305.216
305.207
305.321
305.316
305.31
305.303
305.297
305.289
305.282
305.275
305.267
305.259
305.251
305.242
305.233
305.222
305.337
305.332
305.326
305.32
305.313
305.306
305.299
305.292
305.284
305.275
305.267
305.257
305.248
305.237
305.352
305.348
305.342
305.336
305.33
305.323
305.315
305.308
305.3
305.291
305.282
305.272
305.263
305.251
305.367
305.363
305.357
305.352
305.345
305.338
305.331
305.323
305.315
305.306
305.297
305.286
305.276
305.264
305.382
305.378
305.372
305.366
305.36
305.353
305.346
305.337
305.329
305.32
305.31
305.299
305.288
305.275
305.397
305.392
305.386
305.38
305.373
305.366
305.359
305.351
305.342
305.332
305.323
305.311
305.301
305.288
304.935
304.926
304.918
304.909
304.901
304.892
304.884
304.875
304.866
304.857
304.848
304.839
304.829
304.82
304.943
304.935
304.927
304.919
304.911
304.902
304.894
304.885
304.876
304.867
304.857
304.848
304.838
304.829
304.951
304.943
304.936
304.928
304.92
304.912
304.904
304.895
304.887
304.878
304.868
304.859
304.848
304.839
304.959
304.952
304.945
304.937
304.93
304.922
304.914
304.906
304.897
304.888
304.878
304.869
304.858
304.849
304.967
304.96
304.954
304.947
304.94
304.932
304.924
304.916
304.907
304.898
304.889
304.879
304.869
304.859
304.975
304.969
304.963
304.956
304.949
304.942
304.934
304.926
304.917
304.908
304.899
304.889
304.879
304.868
304.983
304.977
304.972
304.965
304.959
304.951
304.944
304.936
304.927
304.918
304.909
304.899
304.888
304.878
304.99
304.985
304.98
304.974
304.967
304.96
304.953
304.945
304.936
304.927
304.918
304.908
304.897
304.886
304.997
304.993
304.988
304.982
304.976
304.969
304.961
304.953
304.945
304.935
304.926
304.915
304.905
304.893
305.004
305
304.995
304.989
304.983
304.976
304.969
304.961
304.952
304.943
304.933
304.922
304.911
304.899
305.01
305.006
305.001
304.996
304.99
304.983
304.975
304.967
304.959
304.949
304.939
304.928
304.916
304.904
305.016
305.012
305.007
305.002
304.996
304.989
304.981
304.973
304.964
304.954
304.944
304.932
304.921
304.908
305.021
305.017
305.012
305.007
305.001
304.994
304.986
304.977
304.968
304.958
304.947
304.935
304.924
304.911
305.026
305.021
305.016
305.01
305.004
304.997
304.989
304.981
304.971
304.961
304.951
304.939
304.928
304.915
304.628
304.622
304.616
304.61
304.603
304.596
304.588
304.581
304.572
304.564
304.555
304.546
304.537
304.528
304.631
304.626
304.62
304.614
304.607
304.6
304.593
304.585
304.577
304.568
304.559
304.55
304.54
304.531
304.634
304.629
304.623
304.617
304.611
304.604
304.597
304.589
304.581
304.572
304.564
304.555
304.545
304.536
304.637
304.632
304.627
304.621
304.615
304.608
304.601
304.593
304.585
304.577
304.568
304.559
304.549
304.54
304.639
304.635
304.63
304.624
304.618
304.611
304.604
304.597
304.589
304.581
304.572
304.563
304.554
304.544
304.641
304.637
304.632
304.627
304.621
304.615
304.608
304.6
304.593
304.585
304.576
304.567
304.558
304.548
304.643
304.639
304.635
304.63
304.624
304.617
304.611
304.603
304.596
304.588
304.579
304.57
304.561
304.552
304.645
304.641
304.637
304.632
304.626
304.62
304.613
304.606
304.598
304.59
304.582
304.573
304.564
304.554
304.647
304.643
304.639
304.633
304.628
304.622
304.615
304.608
304.6
304.592
304.584
304.575
304.566
304.556
304.648
304.644
304.64
304.635
304.629
304.623
304.617
304.609
304.602
304.593
304.585
304.576
304.567
304.557
304.649
304.645
304.641
304.636
304.63
304.624
304.617
304.61
304.602
304.594
304.585
304.576
304.567
304.557
304.65
304.646
304.641
304.636
304.63
304.624
304.617
304.61
304.602
304.594
304.585
304.576
304.566
304.557
304.65
304.646
304.641
304.636
304.63
304.624
304.617
304.609
304.601
304.592
304.583
304.574
304.565
304.556
304.65
304.646
304.641
304.635
304.629
304.622
304.615
304.608
304.6
304.591
304.583
304.574
304.565
304.556
304.304
304.301
304.298
304.293
304.289
304.284
304.278
304.273
304.267
304.26
304.254
304.247
304.24
304.232
304.305
304.302
304.299
304.294
304.29
304.285
304.279
304.274
304.267
304.261
304.254
304.247
304.24
304.232
304.305
304.302
304.299
304.295
304.29
304.285
304.28
304.274
304.268
304.262
304.255
304.248
304.241
304.234
304.305
304.302
304.299
304.295
304.29
304.285
304.28
304.275
304.269
304.262
304.256
304.249
304.242
304.235
304.305
304.302
304.299
304.295
304.29
304.285
304.28
304.275
304.269
304.263
304.256
304.25
304.243
304.236
304.305
304.302
304.298
304.294
304.29
304.285
304.28
304.275
304.269
304.263
304.257
304.25
304.243
304.236
304.304
304.301
304.298
304.294
304.289
304.284
304.279
304.274
304.268
304.263
304.256
304.25
304.243
304.237
304.304
304.301
304.297
304.293
304.288
304.284
304.279
304.273
304.268
304.262
304.256
304.25
304.243
304.237
304.303
304.3
304.296
304.292
304.287
304.283
304.278
304.272
304.267
304.261
304.255
304.249
304.242
304.236
304.303
304.299
304.295
304.291
304.286
304.281
304.276
304.271
304.265
304.26
304.254
304.248
304.241
304.235
304.302
304.298
304.294
304.29
304.285
304.28
304.275
304.27
304.264
304.258
304.252
304.246
304.24
304.234
304.301
304.297
304.293
304.288
304.283
304.278
304.273
304.268
304.262
304.256
304.251
304.245
304.239
304.232
304.3
304.296
304.291
304.287
304.282
304.277
304.271
304.266
304.26
304.254
304.248
304.242
304.236
304.231
304.298
304.294
304.289
304.285
304.28
304.274
304.269
304.263
304.258
304.252
304.247
304.241
304.235
304.23
303.995
303.994
303.992
303.99
303.987
303.984
303.981
303.977
303.973
303.969
303.965
303.96
303.956
303.951
303.996
303.994
303.992
303.99
303.987
303.984
303.981
303.977
303.973
303.969
303.964
303.96
303.955
303.951
303.996
303.994
303.992
303.989
303.986
303.983
303.98
303.976
303.973
303.968
303.964
303.96
303.955
303.951
303.995
303.993
303.991
303.989
303.986
303.983
303.979
303.976
303.972
303.968
303.964
303.959
303.955
303.95
303.995
303.993
303.99
303.988
303.985
303.981
303.978
303.975
303.971
303.967
303.963
303.959
303.954
303.95
303.994
303.992
303.989
303.986
303.983
303.98
303.977
303.973
303.97
303.966
303.962
303.958
303.954
303.949
303.993
303.991
303.988
303.985
303.982
303.979
303.975
303.972
303.968
303.965
303.961
303.957
303.953
303.948
303.993
303.99
303.987
303.984
303.981
303.977
303.974
303.971
303.967
303.964
303.96
303.956
303.952
303.947
303.992
303.989
303.986
303.983
303.98
303.976
303.973
303.969
303.966
303.962
303.959
303.955
303.951
303.946
303.991
303.988
303.985
303.982
303.978
303.975
303.971
303.968
303.965
303.961
303.957
303.954
303.95
303.945
303.99
303.987
303.984
303.98
303.977
303.974
303.97
303.967
303.963
303.96
303.956
303.952
303.949
303.945
303.989
303.986
303.982
303.979
303.976
303.972
303.969
303.965
303.962
303.958
303.955
303.951
303.948
303.944
303.988
303.984
303.981
303.978
303.974
303.971
303.967
303.964
303.96
303.957
303.953
303.95
303.946
303.943
303.986
303.982
303.979
303.976
303.972
303.969
303.966
303.962
303.959
303.956
303.952
303.949
303.946
303.942
303.718
303.717
303.716
303.714
303.712
303.711
303.709
303.707
303.705
303.702
303.7
303.697
303.695
303.692
303.719
303.717
303.716
303.714
303.713
303.711
303.709
303.707
303.704
303.702
303.7
303.697
303.695
303.692
303.719
303.717
303.716
303.714
303.712
303.71
303.708
303.706
303.704
303.702
303.699
303.697
303.694
303.691
303.719
303.717
303.716
303.714
303.712
303.71
303.708
303.706
303.703
303.701
303.699
303.696
303.694
303.691
303.719
303.717
303.715
303.713
303.711
303.709
303.707
303.705
303.703
303.7
303.698
303.695
303.693
303.69
303.719
303.717
303.715
303.713
303.711
303.709
303.706
303.704
303.702
303.7
303.697
303.695
303.692
303.689
303.718
303.716
303.714
303.712
303.71
303.708
303.706
303.704
303.701
303.699
303.697
303.694
303.691
303.689
303.718
303.716
303.714
303.712
303.71
303.707
303.705
303.703
303.701
303.698
303.696
303.693
303.691
303.688
303.718
303.715
303.713
303.711
303.709
303.707
303.704
303.702
303.7
303.698
303.695
303.693
303.69
303.688
303.717
303.715
303.713
303.71
303.708
303.706
303.704
303.702
303.699
303.697
303.695
303.692
303.69
303.687
303.716
303.714
303.712
303.71
303.707
303.705
303.703
303.701
303.699
303.697
303.694
303.692
303.689
303.687
303.715
303.713
303.711
303.709
303.706
303.704
303.702
303.7
303.698
303.696
303.694
303.691
303.689
303.687
303.714
303.712
303.71
303.708
303.706
303.704
303.702
303.699
303.697
303.695
303.693
303.691
303.689
303.687
303.713
303.711
303.709
303.707
303.705
303.703
303.701
303.699
303.697
303.695
303.693
303.691
303.689
303.687
303.471
303.47
303.469
303.468