/*--------------------------------*- C++ -*----------------------------------*\
| =========                 |                                                 |
| \\      /  F ield         | OpenFOAM: The Open Source CFD Toolbox           |
|  \\    /   O peration     | Version:  v2106                                 |
|   \\  /    A nd           | Website:  www.openfoam.com                      |
|    \\/     M anipulation  |                                                 |
\*---------------------------------------------------------------------------*/
FoamFile
{
    version     2.0;
    format      ascii;
    arch        "LSB;label=32;scalar=64";
    class       volScalarField;
    location    "0.000165";
    object      rho;
}
// * * * * * * * * * * * * * * * * * * * * * * * * * * * * * * * * * * * * * //

dimensions      [1 -3 0 0 0 0 0];

internalField   nonuniform List<scalar> 
18273
(
2.37083
2.37146
2.36627
2.36589
2.36343
2.36154
2.35874
2.35605
2.35398
2.35263
2.35145
2.35067
2.35222
2.35682
2.36512
2.3655
2.36124
2.36002
2.35821
2.35716
2.35579
2.35442
2.35321
2.35196
2.35068
2.35048
2.35333
2.35748
2.36333
2.36217
2.3587
2.35667
2.35487
2.35382
2.3528
2.35185
2.35083
2.34993
2.34869
2.34829
2.34943
2.35333
2.36185
2.35958
2.35619
2.35378
2.35196
2.35126
2.35046
2.35
2.34918
2.34836
2.34736
2.34729
2.34895
2.35287
2.36049
2.35754
2.3537
2.35113
2.34952
2.34882
2.34827
2.34757
2.34691
2.34594
2.34515
2.345
2.34631
2.34941
2.3591
2.3548
2.35024
2.34763
2.34644
2.34597
2.3457
2.34514
2.34452
2.34356
2.34283
2.34255
2.34338
2.34535
2.3585
2.35322
2.34813
2.34489
2.3437
2.34318
2.34275
2.34231
2.34177
2.3408
2.33996
2.33945
2.33959
2.34051
2.35881
2.35216
2.34615
2.34202
2.34052
2.33992
2.33957
2.3391
2.33858
2.33767
2.33697
2.33666
2.33669
2.33737
2.36026
2.35191
2.34513
2.34023
2.33803
2.33686
2.33633
2.3358
2.33545
2.33457
2.33407
2.33407
2.33437
2.33594
2.36297
2.35265
2.34489
2.3389
2.3362
2.33451
2.33382
2.33321
2.33295
2.33243
2.33225
2.3325
2.33386
2.33688
2.36722
2.3547
2.34577
2.33893
2.33568
2.33341
2.33272
2.33215
2.33226
2.33226
2.33289
2.334
2.33625
2.33981
2.37066
2.35717
2.34736
2.33999
2.33602
2.33355
2.33319
2.333
2.33391
2.33484
2.33662
2.33903
2.34365
2.34674
2.37835
2.36351
2.35084
2.34178
2.33662
2.33433
2.33415
2.33452
2.33642
2.33919
2.34339
2.3479
2.35574
2.35753
2.38324
2.36412
2.35372
2.34484
2.33865
2.33533
2.3343
2.33546
2.33888
2.34411
2.35062
2.35691
2.36655
2.37048
2.36981
2.37116
2.36892
2.36984
2.36864
2.36669
2.36458
2.36343
2.36304
2.3618
2.35951
2.35667
2.35545
2.35641
2.36879
2.36969
2.36685
2.36583
2.36474
2.36366
2.36263
2.36207
2.36191
2.3612
2.35988
2.358
2.35826
2.35827
2.37089
2.3695
2.36693
2.36467
2.36317
2.36195
2.36104
2.36018
2.36001
2.35954
2.35867
2.35691
2.35571
2.35647
2.37368
2.37051
2.36703
2.36422
2.3625
2.36162
2.36059
2.36037
2.35951
2.35889
2.35771
2.35669
2.35642
2.35779
2.37611
2.37115
2.36671
2.36384
2.36233
2.3615
2.36064
2.35999
2.35911
2.35804
2.35693
2.35607
2.35576
2.35615
2.37731
2.37049
2.36543
2.36264
2.36161
2.361
2.36037
2.35968
2.35886
2.35772
2.35654
2.35543
2.35471
2.35421
2.37876
2.37045
2.36488
2.36172
2.36097
2.36041
2.35975
2.3591
2.3582
2.35691
2.35577
2.35455
2.35384
2.35277
2.38054
2.37103
2.36489
2.36115
2.36025
2.35961
2.35905
2.3582
2.3574
2.35615
2.35524
2.35419
2.35359
2.35214
2.38308
2.37254
2.36549
2.36132
2.35994
2.35905
2.35842
2.35741
2.35657
2.35546
2.35467
2.35431
2.35375
2.35263
2.38646
2.37464
2.36717
2.36266
2.36079
2.3593
2.35824
2.35703
2.35636
2.35549
2.35484
2.35455
2.35494
2.35471
2.39108
2.37815
2.37025
2.3655
2.36338
2.36162
2.36052
2.35912
2.35811
2.35717
2.35671
2.35677
2.358
2.35852
2.39459
2.38144
2.3736
2.36903
2.36672
2.36513
2.36411
2.363
2.36253
2.36214
2.36209
2.36229
2.36511
2.36478
2.40153
2.38715
2.37786
2.37283
2.37049
2.3694
2.36872
2.36806
2.36836
2.3691
2.37076
2.37197
2.37714
2.37545
2.40547
2.38754
2.38071
2.37606
2.37316
2.37195
2.37131
2.37118
2.37286
2.37561
2.37964
2.38277
2.38882
2.38866
2.38321
2.3828
2.37819
2.37672
2.37393
2.37112
2.36906
2.36895
2.36925
2.36808
2.36691
2.36457
2.36201
2.35895
2.38676
2.38524
2.37931
2.37505
2.37215
2.37024
2.369
2.36845
2.36983
2.36939
2.36902
2.36721
2.3651
2.36188
2.39039
2.38736
2.38167
2.37637
2.37292
2.3702
2.36894
2.36882
2.36897
2.36851
2.36675
2.36384
2.36052
2.3588
2.39268
2.38804
2.38253
2.37782
2.37502
2.37286
2.37159
2.37079
2.36988
2.36812
2.36529
2.36197
2.35932
2.35882
2.39366
2.38717
2.38199
2.37831
2.37627
2.37454
2.3731
2.3721
2.37029
2.36791
2.36443
2.36073
2.35806
2.35675
2.39324
2.38627
2.38103
2.37842
2.377
2.3754
2.37436
2.37302
2.37104
2.36826
2.36416
2.36022
2.35677
2.3539
2.39261
2.38477
2.37965
2.37798
2.3769
2.37577
2.3748
2.37304
2.37046
2.36747
2.36352
2.35999
2.35612
2.35243
2.39328
2.38474
2.3792
2.37732
2.37644
2.37537
2.37438
2.3727
2.37061
2.36772
2.36449
2.3604
2.35714
2.3539
2.39512
2.38533
2.37984
2.37804
2.37679
2.37504
2.37368
2.37196
2.37004
2.36772
2.36501
2.36269
2.35956
2.35644
2.39804
2.38675
2.38113
2.37824
2.37641
2.37441
2.37265
2.37096
2.36936
2.36758
2.36588
2.36414
2.36247
2.35919
2.4028
2.39035
2.38457
2.38118
2.37844
2.37493
2.37264
2.3708
2.36932
2.36806
2.36713
2.36654
2.36681
2.36375
2.4061
2.39429
2.38883
2.3846
2.3809
2.37753
2.37515
2.37326
2.37176
2.37083
2.37043
2.37016
2.37222
2.36974
2.41336
2.40071
2.39378
2.38901
2.38528
2.3817
2.37905
2.37714
2.37623
2.37619
2.37677
2.37674
2.38179
2.37807
2.41609
2.40105
2.39618
2.39198
2.38865
2.38573
2.38328
2.38129
2.38134
2.38322
2.38599
2.38729
2.39366
2.39264
2.36774
2.37449
2.37614
2.38005
2.37812
2.38174
2.35977
2.3668
2.37091
2.37767
2.38103
2.38728
2.36093
2.37072
2.37496
2.38221
2.38342
2.39067
2.35832
2.36677
2.37041
2.37969
2.38177
2.39043
2.35434
2.36298
2.36739
2.37802
2.38017
2.39071
2.34846
2.35513
2.3591
2.3708
2.37571
2.38856
2.34251
2.34947
2.35464
2.36654
2.37122
2.38556
2.33862
2.34486
2.35038
2.36294
2.36947
2.3831
2.33878
2.34555
2.35308
2.36491
2.37221
2.38337
2.34176
2.34966
2.35911
2.37005
2.37776
2.38656
2.34801
2.35758
2.36869
2.37939
2.38659
2.39473
2.35737
2.368
2.37931
2.38999
2.3967
2.40388
2.36982
2.38014
2.38974
2.39947
2.40509
2.41177
2.37908
2.38906
2.39603
2.40436
2.40901
2.41446
2.36206
2.36696
2.3693
2.37307
2.37302
2.37673
2.35609
2.36056
2.36582
2.37361
2.37867
2.38708
2.35879
2.36486
2.36989
2.37923
2.38283
2.39759
2.35722
2.36101
2.3652
2.37722
2.38164
2.40107
2.35474
2.3587
2.36303
2.37444
2.37601
2.3984
2.35179
2.35428
2.35691
2.36717
2.36615
2.3973
2.35069
2.35257
2.35406
2.36221
2.3607
2.38817
2.35079
2.35169
2.3533
2.36156
2.36073
2.38571
2.35218
2.35475
2.35869
2.36619
2.36651
2.38662
2.35648
2.3601
2.36616
2.3737
2.37545
2.39095
2.36342
2.36854
2.37623
2.38483
2.38841
2.40057
2.37179
2.3782
2.38634
2.39658
2.40271
2.41195
2.38409
2.39052
2.39882
2.40932
2.41544
2.42315
2.39346
2.39999
2.40782
2.41784
2.42389
2.43061
2.36963
2.3685
2.36504
2.35902
2.35383
2.34147
2.35767
2.36124
2.36375
2.36209
2.3646
2.35274
2.3615
2.36605
2.36995
2.36981
2.37551
2.36722
2.35898
2.35989
2.36193
2.36551
2.37379
2.3789
2.35511
2.35466
2.35545
2.36404
2.37208
2.38929
2.35007
2.34749
2.34795
2.36001
2.36601
2.39522
2.34816
2.34544
2.34593
2.35743
2.35824
2.39534
2.34926
2.34645
2.34747
2.35789
2.35835
2.39349
2.35243
2.35072
2.35262
2.36097
2.3633
2.39361
2.3576
2.35805
2.362
2.36835
2.37027
2.39213
2.36565
2.36797
2.37471
2.38064
2.38218
2.39622
2.37429
2.37867
2.38681
2.394
2.3979
2.40704
2.386
2.39218
2.40042
2.40869
2.41468
2.41945
2.39551
2.40185
2.41172
2.42153
2.42806
2.4318
2.38433
2.39582
2.39833
2.40429
2.40687
2.41356
2.3712
2.38387
2.3894
2.39744
2.40097
2.41256
2.36646
2.37962
2.38514
2.3925
2.39545
2.40954
2.35734
2.36889
2.37628
2.38291
2.38911
2.41346
2.35003
2.36209
2.37152
2.38055
2.38744
2.40865
2.34231
2.35223
2.36199
2.37451
2.38024
2.40986
2.33901
2.34783
2.35669
2.36945
2.37494
2.41379
2.33711
2.34607
2.35723
2.3731
2.38087
2.40504
2.33931
2.34978
2.36221
2.37776
2.38438
2.40307
2.34444
2.35688
2.3703
2.38625
2.39348
2.4097
2.35347
2.36709
2.38142
2.39685
2.40515
2.41584
2.36419
2.37817
2.39161
2.40673
2.41551
2.426
2.37724
2.39164
2.40198
2.41421
2.41842
2.42611
2.38804
2.39925
2.40758
2.41743
2.41992
2.42624
2.40165
2.41051
2.41379
2.42274
2.42546
2.43515
2.39182
2.40109
2.40619
2.41681
2.41742
2.43293
2.39034
2.39898
2.40197
2.40799
2.40358
2.42768
2.38356
2.38908
2.39086
2.39534
2.39486
2.41256
2.37841
2.38398
2.38476
2.38814
2.38193
2.40455
2.37329
2.3768
2.37732
2.38372
2.37501
2.40515
2.3716
2.37468
2.37484
2.38162
2.37129
2.40504
2.37112
2.374
2.37586
2.38278
2.37189
2.41037
2.37252
2.37669
2.38018
2.38893
2.37987
2.40817
2.37531
2.38125
2.38686
2.39793
2.39364
2.41885
2.38079
2.38867
2.39727
2.41032
2.41291
2.42648
2.38774
2.39748
2.40753
2.42257
2.43135
2.44564
2.39818
2.41024
2.42036
2.43448
2.44111
2.45179
2.40761
2.41863
2.42916
2.44275
2.44709
2.45731
2.40823
2.42038
2.4252
2.43346
2.43692
2.4417
2.39684
2.40996
2.41821
2.42926
2.43477
2.4479
2.39525
2.40607
2.41289
2.42269
2.43009
2.44848
2.38965
2.3955
2.39961
2.40818
2.41251
2.43898
2.38477
2.38822
2.3912
2.3988
2.3972
2.4315
2.38176
2.38176
2.38286
2.39049
2.38716
2.42507
2.38189
2.38104
2.38215
2.38905
2.38266
2.41919
2.38436
2.38369
2.38602
2.39408
2.38756
2.42224
2.3877
2.38916
2.39343
2.4015
2.39627
2.4268
2.39089
2.39471
2.40071
2.40783
2.40636
2.43535
2.39585
2.40203
2.41004
2.41976
2.42096
2.44379
2.40241
2.41012
2.41805
2.43076
2.43906
2.45457
2.4106
2.42107
2.43036
2.44777
2.45641
2.46751
2.41461
2.42745
2.44166
2.46337
2.4727
2.48174
2.39743
2.39243
2.38861
2.38255
2.37725
2.37131
2.39704
2.38977
2.38608
2.382
2.37632
2.37193
2.39384
2.38681
2.38484
2.37979
2.37369
2.36819
2.39717
2.38475
2.38537
2.37867
2.37288
2.36617
2.39997
2.38388
2.38534
2.37717
2.3712
2.36418
2.40599
2.38346
2.38519
2.37606
2.37013
2.36322
2.41584
2.38667
2.38745
2.37562
2.36926
2.36226
2.41906
2.39377
2.39207
2.37835
2.3712
2.36306
2.42487
2.40138
2.39594
2.38164
2.37317
2.36474
2.43057
2.41004
2.40127
2.38918
2.37948
2.36908
2.43396
2.41213
2.40165
2.39234
2.38451
2.37404
2.42614
2.41356
2.40924
2.40047
2.39287
2.37964
2.42431
2.41256
2.41176
2.40271
2.39592
2.38272
2.42568
2.41702
2.41776
2.41258
2.40954
2.39627
2.39443
2.38822
2.38342
2.37687
2.37113
2.36785
2.38966
2.38199
2.37925
2.37743
2.37287
2.37296
2.38698
2.37753
2.38035
2.3792
2.37531
2.37379
2.39531
2.3768
2.38449
2.38211
2.37942
2.37693
2.40757
2.37761
2.38942
2.38575
2.38378
2.38016
2.41561
2.38139
2.39387
2.38894
2.38663
2.38291
2.41867
2.38531
2.39787
2.39093
2.38821
2.38449
2.4231
2.38886
2.40227
2.39373
2.39076
2.38627
2.42661
2.3945
2.40565
2.3963
2.39354
2.38856
2.43032
2.40349
2.41165
2.40403
2.40015
2.39258
2.43712
2.41487
2.4184
2.41019
2.406
2.39755
2.44267
2.42704
2.43112
2.42246
2.41543
2.40327
2.45132
2.43613
2.43813
2.42678
2.41892
2.40609
2.45686
2.44414
2.44607
2.43747
2.43335
2.41915
2.37299
2.37565
2.37617
2.37821
2.37646
2.37782
2.37791
2.37905
2.38373
2.39085
2.38982
2.3921
2.39533
2.38684
2.39396
2.39665
2.39532
2.39537
2.41927
2.3946
2.40236
2.40343
2.40001
2.39784
2.43416
2.40405
2.41408
2.41019
2.40512
2.40045
2.4499
2.4114
2.42119
2.41343
2.40865
2.4021
2.45952
2.41444
2.42337
2.41303
2.4092
2.40242
2.46528
2.41637
2.42407
2.41306
2.40975
2.40305
2.47306
2.42293
2.42733
2.41545
2.41223
2.40471
2.48077
2.43662
2.43886
2.42475
2.41874
2.40761
2.48981
2.45166
2.44869
2.43363
2.42647
2.4121
2.49851
2.47146
2.46355
2.44627
2.43566
2.41639
2.50151
2.47963
2.46894
2.45078
2.43993
2.41873
2.49283
2.48284
2.47634
2.46049
2.45268
2.43398
2.38021
2.37515
2.37236
2.36887
2.36377
2.35966
2.37628
2.37029
2.36751
2.36543
2.36059
2.3583
2.37468
2.36892
2.36569
2.36255
2.35811
2.3554
2.37424
2.36738
2.36464
2.36074
2.35711
2.35444
2.37859
2.36967
2.36664
2.36037
2.35668
2.35387
2.38312
2.37168
2.36954
2.3616
2.35802
2.355
2.38805
2.3744
2.37317
2.3641
2.36068
2.35709
2.39188
2.37879
2.37921
2.36915
2.36557
2.36079
2.3951
2.38149
2.38327
2.37394
2.37082
2.36488
2.39775
2.38684
2.38872
2.37997
2.37647
2.36854
2.39812
2.38962
2.39057
2.38303
2.37931
2.37119
2.4011
2.39392
2.39419
2.38691
2.38209
2.37224
2.40026
2.39327
2.39092
2.38377
2.37925
2.37184
2.39969
2.39694
2.39759
2.3927
2.39023
2.38225
2.37096
2.36636
2.36377
2.36139
2.3581
2.35753
2.37105
2.36349
2.36186
2.36245
2.35961
2.36067
2.37273
2.36474
2.36527
2.36437
2.36054
2.3605
2.37917
2.36651
2.36731
2.36483
2.36207
2.36208
2.38686
2.3672
2.36934
2.36523
2.36317
2.36236
2.3924
2.36753
2.37168
2.36585
2.3639
2.36377
2.39931
2.36607
2.37221
2.36557
2.36389
2.36385
2.40234
2.36804
2.37441
2.36728
2.36616
2.36521
2.39991
2.37195
2.37617
2.36924
2.37002
2.36811
2.40097
2.37831
2.3811
2.37553
2.37478
2.37074
2.4056
2.38399
2.38694
2.38016
2.37774
2.372
2.41056
2.39602
2.39462
2.38573
2.38068
2.37204
2.40644
2.39716
2.39139
2.3818
2.37612
2.36873
2.40481
2.3983
2.3955
2.3887
2.38559
2.37974
2.33288
2.34183
2.34673
2.3526
2.3522
2.35671
2.3423
2.34545
2.35262
2.36128
2.36291
2.36696
2.35551
2.35187
2.35909
2.36452
2.36477
2.3679
2.37817
2.36021
2.36354
2.36689
2.36542
2.36783
2.39433
2.3667
2.36917
2.36847
2.3672
2.36894
2.40807
2.37169
2.37651
2.36995
2.36932
2.37049
2.42079
2.37825
2.38214
2.3708
2.37089
2.37134
2.43348
2.38863
2.38894
2.37468
2.37306
2.37113
2.44208
2.39935
2.39432
2.37923
2.37642
2.37296
2.44104
2.40978
2.40037
2.38668
2.38303
2.37702
2.42953
2.40922
2.40183
2.39132
2.38755
2.38009
2.41122
2.4114
2.40292
2.39771
2.39053
2.38145
2.39819
2.39884
2.39262
2.38963
2.38401
2.37869
2.38776
2.39149
2.39234
2.3939
2.39524
2.39389
2.40481
2.40107
2.39375
2.38938
2.38557
2.38333
2.38186
2.38127
2.38293
2.38419
2.38567
2.38628
2.38752
2.38936
2.40389
2.39961
2.39212
2.38611
2.38222
2.37965
2.37868
2.37971
2.3805
2.38302
2.38533
2.38708
2.3883
2.38941
2.40442
2.3988
2.39229
2.38644
2.38306
2.38066
2.37988
2.37922
2.38036
2.38128
2.38243
2.38297
2.38267
2.38409
2.40342
2.39685
2.39142
2.38683
2.38419
2.38196
2.38128
2.38102
2.38084
2.38057
2.38014
2.37912
2.37872
2.38107
2.40137
2.39407
2.38955
2.38682
2.38507
2.38321
2.38296
2.38242
2.38184
2.3808
2.37907
2.37664
2.37573
2.37745
2.39981
2.39141
2.38778
2.38632
2.38498
2.38435
2.38389
2.38306
2.38175
2.3801
2.37805
2.3749
2.37387
2.37413
2.39824
2.39009
2.38634
2.3856
2.38514
2.38464
2.38429
2.38324
2.38183
2.37948
2.37681
2.37407
2.37308
2.37159
2.39785
2.38878
2.38579
2.38496
2.38478
2.38425
2.38395
2.38293
2.38177
2.37993
2.37754
2.37546
2.37376
2.37159
2.39855
2.3892
2.38584
2.38489
2.38456
2.38388
2.38346
2.38252
2.38159
2.38021
2.37882
2.37739
2.37653
2.37456
2.4003
2.39073
2.38713
2.38589
2.38478
2.38363
2.38282
2.382
2.38155
2.38124
2.38066
2.38044
2.37976
2.37757
2.40495
2.39465
2.39052
2.38798
2.38609
2.38417
2.38286
2.38195
2.38197
2.38195
2.38249
2.38362
2.38436
2.38216
2.41005
2.40082
2.39638
2.39274
2.38965
2.38679
2.38469
2.38341
2.38319
2.38369
2.38496
2.38747
2.39072
2.38844
2.41891
2.40943
2.40357
2.39937
2.39585
2.39238
2.38997
2.38811
2.38749
2.38809
2.38936
2.39164
2.39833
2.39572
2.42197
2.41133
2.40827
2.40537
2.40259
2.39942
2.39655
2.39481
2.39485
2.39678
2.39975
2.40128
2.40823
2.4093
2.41854
2.41432
2.40569
2.39983
2.39519
2.39196
2.39047
2.39009
2.39244
2.39519
2.3992
2.40242
2.40534
2.40975
2.41549
2.41076
2.40272
2.39649
2.3924
2.38983
2.38885
2.38879
2.39011
2.39318
2.39721
2.40141
2.40537
2.40944
2.41317
2.40742
2.40102
2.39597
2.39246
2.3901
2.38898
2.38867
2.38924
2.39117
2.39343
2.39616
2.39881
2.40241
2.40921
2.40355
2.39914
2.3957
2.39311
2.39119
2.39046
2.39
2.39007
2.39061
2.39123
2.392
2.39337
2.39771
2.40497
2.39963
2.39666
2.39508
2.39276
2.39249
2.39185
2.39117
2.39055
2.39006
2.38953
2.38902
2.38949
2.39383
2.4015
2.39642
2.39462
2.39407
2.39296
2.39291
2.39233
2.39156
2.39055
2.389
2.38763
2.38647
2.38671
2.3909
2.39943
2.39421
2.39278
2.39288
2.39271
2.39269
2.39233
2.39165
2.39049
2.38907
2.38698
2.3856
2.38609
2.38967
2.39742
2.39282
2.39167
2.39207
2.3923
2.39214
2.39197
2.39142
2.39059
2.38942
2.38791
2.38699
2.38716
2.38928
2.39777
2.39284
2.39162
2.39191
2.39203
2.39177
2.39154
2.39119
2.39067
2.39011
2.38935
2.3892
2.39021
2.39102
2.39993
2.39446
2.39273
2.39224
2.3918
2.39113
2.39073
2.39058
2.39062
2.39104
2.39159
2.39313
2.3948
2.3959
2.40529
2.39876
2.3961
2.39425
2.3922
2.39064
2.38987
2.38984
2.39048
2.39222
2.394
2.39728
2.39996
2.39987
2.41253
2.40624
2.40228
2.39826
2.39479
2.39163
2.39015
2.38966
2.39056
2.39289
2.39606
2.40107
2.40613
2.40515
2.42254
2.41615
2.41081
2.40556
2.40059
2.39634
2.39362
2.39233
2.39288
2.39536
2.3993
2.40506
2.41233
2.41116
2.42642
2.41981
2.41743
2.41356
2.40959
2.40486
2.40169
2.40033
2.40097
2.40338
2.40778
2.41237
2.42095
2.42076
2.43519
2.42913
2.41984
2.41251
2.40745
2.40439
2.40339
2.4036
2.40478
2.40917
2.41496
2.42161
2.42886
2.43576
2.42975
2.42429
2.41701
2.41109
2.40681
2.40416
2.40287
2.40281
2.40491
2.40833
2.41353
2.41947
2.4258
2.43246
2.42326
2.41909
2.41437
2.41059
2.40726
2.40512
2.40415
2.40386
2.40518
2.40714
2.4109
2.41507
2.4199
2.42476
2.41735
2.41429
2.41161
2.40974
2.40756
2.40655
2.40578
2.4054
2.40614
2.40709
2.40924
2.41142
2.41391
2.41774
2.41214
2.41009
2.40893
2.40845
2.40719
2.40731
2.40682
2.40648
2.40652
2.40659
2.40725
2.40814
2.4094
2.41265
2.4074
2.40639
2.40675
2.40715
2.40706
2.40731
2.40708
2.40687
2.40654
2.40604
2.40537
2.40554
2.40576
2.40856
2.40429
2.4033
2.40445
2.40563
2.40627
2.40685
2.40693
2.40692
2.40661
2.40591
2.40493
2.40391
2.4042
2.40685
2.40128
2.4013
2.40282
2.4044
2.40548
2.40623
2.40661
2.40682
2.4066
2.406
2.40515
2.40437
2.40493
2.40699
2.40094
2.40108
2.40229
2.40382
2.40485
2.40558
2.40609
2.40662
2.40669
2.40657
2.40631
2.40617
2.40724
2.40945
2.4027
2.40242
2.40275
2.40357
2.40402
2.40456
2.40514
2.40603
2.40671
2.40733
2.40799
2.40887
2.41098
2.41307
2.40713
2.40565
2.40516
2.4042
2.4037
2.4036
2.40403
2.40507
2.40629
2.408
2.41019
2.41293
2.4162
2.41796
2.41483
2.41231
2.40947
2.40688
2.40436
2.40302
2.40274
2.4036
2.40528
2.40851
2.412
2.41677
2.42193
2.42248
2.42437
2.42095
2.41652
2.41173
2.4079
2.40489
2.40344
2.40326
2.40475
2.40809
2.41278
2.41963
2.42677
2.42706
2.42928
2.42573
2.42319
2.41894
2.41475
2.41074
2.40812
2.40679
2.40748
2.4104
2.41531
2.42212
2.43138
2.43255
2.44533
2.4396
2.43212
2.42591
2.42139
2.4181
2.41669
2.4164
2.41834
2.42172
2.42738
2.43411
2.44364
2.45217
2.43929
2.43505
2.42987
2.4256
2.42213
2.41949
2.41808
2.4178
2.41949
2.42273
2.42795
2.43381
2.44041
2.44715
2.43142
2.4298
2.42707
2.42487
2.4225
2.42074
2.41977
2.4195
2.42083
2.42295
2.42642
2.43102
2.43574
2.44023
2.42542
2.42512
2.4241
2.42347
2.42191
2.42148
2.42084
2.42063
2.42149
2.42282
2.42513
2.428
2.43079
2.4335
2.42033
2.42088
2.42117
2.42152
2.42136
2.42145
2.42112
2.4211
2.42153
2.42222
2.42342
2.42501
2.42674
2.42836
2.41527
2.41716
2.4187
2.41982
2.42049
2.42096
2.42102
2.42124
2.42155
2.42197
2.42211
2.42255
2.42287
2.42336
2.41153
2.41366
2.41607
2.41801
2.41931
2.42026
2.42082
2.42132
2.42162
2.42182
2.42164
2.42116
2.42064
2.4208
2.40905
2.41145
2.41428
2.41663
2.41837
2.41969
2.42067
2.42144
2.42184
2.42198
2.42163
2.42076
2.42009
2.42039
2.40849
2.41075
2.4136
2.41589
2.41766
2.41915
2.42041
2.4215
2.42217
2.42253
2.42231
2.42169
2.42168
2.42209
2.4101
2.412
2.41363
2.41539
2.41678
2.41826
2.41977
2.42122
2.42232
2.42322
2.42375
2.42393
2.42461
2.42465
2.41342
2.41415
2.41522
2.41569
2.41642
2.41753
2.41874
2.42042
2.42203
2.42356
2.42531
2.42646
2.42878
2.42928
2.41988
2.41867
2.41754
2.41667
2.41609
2.41647
2.41729
2.41892
2.42092
2.42345
2.4269
2.42989
2.43377
2.43476
2.42761
2.42512
2.42218
2.41937
2.41709
2.41595
2.41562
2.41681
2.41909
2.42302
2.42708
2.43235
2.43817
2.4399
2.43316
2.43036
2.42734
2.42362
2.42064
2.41786
2.41599
2.41584
2.41732
2.42142
2.42689
2.43409
2.44191
2.4451
2.4548
2.45078
2.44605
2.44159
2.43815
2.43536
2.43356
2.43315
2.43503
2.43769
2.44254
2.44891
2.45737
2.46648
2.44862
2.44625
2.44369
2.44121
2.43906
2.43695
2.4357
2.43533
2.43683
2.43917
2.44371
2.4492
2.45547
2.46237
2.44146
2.44169
2.44087
2.4401
2.43867
2.43777
2.43697
2.43673
2.43783
2.43972
2.44304
2.44733
2.45253
2.45765
2.43642
2.43758
2.43788
2.43846
2.43801
2.43786
2.43742
2.43747
2.43832
2.43996
2.4425
2.44583
2.44934
2.45239
2.43121
2.4337
2.43526
2.43667
2.43712
2.43732
2.43727
2.43761
2.43839
2.43978
2.44148
2.44378
2.44612
2.4481
2.42708
2.43044
2.43297
2.43483
2.43591
2.43658
2.43697
2.43757
2.43833
2.43944
2.44065
2.44189
2.44282
2.44367
2.42361
2.42742
2.43075
2.43312
2.43482
2.436
2.43685
2.43767
2.43846
2.43932
2.44002
2.44048
2.44067
2.4409
2.42145
2.42565
2.42934
2.43206
2.43414
2.43571
2.43694
2.438
2.43888
2.43951
2.43977
2.43977
2.43962
2.43946
2.42106
2.42517
2.42881
2.43152
2.43375
2.43559
2.43707
2.43838
2.43937
2.43995
2.4401
2.44009
2.43994
2.4398
2.42281
2.42586
2.42857
2.43101
2.43322
2.43519
2.43696
2.43855
2.43973
2.44061
2.44121
2.44158
2.44188
2.44195
2.42542
2.42791
2.42958
2.43112
2.43275
2.43444
2.43626
2.43817
2.43981
2.44123
2.44248
2.44334
2.4447
2.44459
2.43033
2.43023
2.43072
2.43125
2.43211
2.43334
2.43489
2.43691
2.43909
2.44121
2.44373
2.44569
2.44844
2.44884
2.43507
2.43386
2.43275
2.43185
2.43137
2.43172
2.43269
2.43461
2.43719
2.44065
2.44447
2.44776
2.45163
2.45346
2.43897
2.4374
2.43523
2.43294
2.43161
2.43067
2.43066
2.43207
2.4349
2.43936
2.44431
2.45
2.45512
2.45841
2.46412
2.4616
2.4591
2.45629
2.4543
2.4523
2.45109
2.45082
2.45219
2.45443
2.45829
2.46314
2.47012
2.47813
2.45832
2.45756
2.45667
2.45567
2.45484
2.45336
2.4528
2.45272
2.45376
2.45595
2.45947
2.46426
2.46967
2.47543
2.45296
2.45391
2.45408
2.45447
2.45405
2.45363
2.45346
2.45366
2.45466
2.45653
2.45938
2.4633
2.46801
2.47327
2.44829
2.45042
2.45163
2.4529
2.45304
2.45329
2.45336
2.45386
2.45493
2.45681
2.45946
2.46292
2.46661
2.46989
2.44378
2.44721
2.44956
2.45123
2.45203
2.45255
2.45296
2.45372
2.45488
2.45672
2.45901
2.46183
2.46474
2.46715
2.44063
2.44464
2.44758
2.44957
2.45092
2.45185
2.45265
2.45363
2.45484
2.45655
2.45852
2.46072
2.46258
2.46374
2.43758
2.44222
2.44586
2.44833
2.45023
2.45159
2.45269
2.45381
2.45502
2.45655
2.45811
2.45961
2.46075
2.46131
2.43627
2.44104
2.44495
2.44773
2.44994
2.45159
2.45295
2.45422
2.45546
2.45676
2.4579
2.45886
2.45944
2.4597
2.43615
2.44071
2.44466
2.44756
2.44994
2.45183
2.45343
2.45482
2.45603
2.45708
2.4579
2.45849
2.45897
2.45917
2.43744
2.4411
2.44437
2.44729
2.44975
2.45194
2.45379
2.45536
2.45665
2.45761
2.45832
2.45881
2.45938
2.4596
2.43911
2.44222
2.44482
2.44713
2.44945
2.45166
2.45364
2.45547
2.45701
2.45814
2.45915
2.45997
2.461
2.46107
2.442
2.4435
2.44528
2.44685
2.44858
2.45054
2.45259
2.45475
2.45675
2.45839
2.46015
2.46153
2.46326
2.46337
2.44428
2.44496
2.44572
2.44641
2.44729
2.44874
2.45053
2.45284
2.45538
2.45787
2.46065
2.46308
2.4652
2.46634
2.44669
2.44669
2.44573
2.44537
2.44512
2.44609
2.44761
2.44997
2.4531
2.45704
2.46096
2.46487
2.46786
2.47057
2.47601
2.47489
2.47396
2.47263
2.47185
2.4705
2.4701
2.47028
2.47108
2.47288
2.47578
2.47978
2.48542
2.49236
2.47101
2.47132
2.47153
2.47162
2.47148
2.471
2.47112
2.47157
2.47262
2.47456
2.47728
2.48125
2.48592
2.49086
2.46672
2.4685
2.46941
2.47038
2.47058
2.47088
2.47126
2.47199
2.47316
2.47507
2.47746
2.48083
2.48506
2.48996
2.46259
2.46562
2.46738
2.46886
2.46963
2.47032
2.47094
2.47193
2.47327
2.47529
2.47778
2.48103
2.48477
2.4885
2.45915
2.46312
2.46568
2.46747
2.4686
2.46957
2.47048
2.47172
2.4732
2.47524
2.47765
2.48057
2.48386
2.48696
2.45632
2.4608
2.46395
2.46608
2.46768
2.46902
2.4702
2.47159
2.47316
2.47517
2.47748
2.48011
2.48276
2.48483
2.45415
2.45906
2.46268
2.46523
2.46727
2.46886
2.47022
2.47168
2.47327
2.47519
2.47732
2.47951
2.48154
2.48283
2.45343
2.4583
2.46215
2.46494
2.46721
2.46896
2.47048
2.47199
2.47357
2.47535
2.4772
2.47898
2.48041
2.4811
2.45345
2.45816
2.46203
2.46493
2.46737
2.46933
2.47101
2.47253
2.47401
2.47556
2.47709
2.47844
2.47953
2.48001
2.45455
2.45835
2.46185
2.4649
2.46757
2.46972
2.47153
2.4731
2.4745
2.47582
2.47707
2.47817
2.47917
2.47968
2.45554
2.45912
2.46209
2.46491
2.46753
2.46977
2.47174
2.47342
2.47486
2.47609
2.47719
2.47816
2.47942
2.48028
2.45743
2.45979
2.46207
2.46438
2.46673
2.46896
2.47109
2.47303
2.47478
2.47622
2.47763
2.47871
2.4805
2.48122
2.45863
2.46027
2.46192
2.46358
2.46523
2.4672
2.46929
2.47159
2.47389
2.47588
2.4779
2.47956
2.48153
2.48312
2.45999
2.46046
2.46112
2.4617
2.46258
2.4641
2.46622
2.46904
2.47207
2.47519
2.4782
2.48104
2.4834
2.48567
2.48892
2.49002
2.49183
2.49422
2.49755
2.50233
2.50818
2.48986
2.4912
2.49325
2.49578
2.49928
2.50345
2.50785
2.49012
2.49163
2.49373
2.49615
2.49923
2.503
2.50743
2.49009
2.4918
2.49403
2.49659
2.49974
2.50334
2.50703
2.48997
2.49182
2.49409
2.49665
2.49959
2.50289
2.50611
2.48987
2.49181
2.49411
2.49669
2.49955
2.50252
2.50507
2.48993
2.4919
2.49417
2.49667
2.4993
2.50183
2.50372
2.49018
2.49212
2.49431
2.49665
2.49897
2.50107
2.50234
2.47163
2.47627
2.4799
2.48275
2.48508
2.48711
2.48892
2.49068
2.49249
2.49447
2.49654
2.49849
2.50014
2.5011
2.47267
2.47655
2.48004
2.48295
2.48548
2.48765
2.48954
2.49128
2.49297
2.49468
2.4964
2.49801
2.49945
2.50019
2.47343
2.47712
2.48018
2.48305
2.48565
2.48791
2.4899
2.49168
2.49331
2.49484
2.4963
2.49765
2.49909
2.49976
2.47488
2.47753
2.48001
2.48263
2.48513
2.48746
2.4896
2.49158
2.49335
2.49489
2.49634
2.49752
2.49919
2.49992
2.47535
2.47753
2.47964
2.4817
2.48374
2.48595
2.48829
2.49066
2.49285
2.49467
2.49631
2.49761
2.4993
2.50102
2.47598
2.47721
2.47842
2.47953
2.48101
2.483
2.48553
2.48851
2.4914
2.49398
2.49621
2.49826
2.49986
2.50219
2.41921
2.43122
2.43896
2.45383
2.47771
2.50723
2.39904
2.41029
2.42451
2.44396
2.47263
2.51382
2.39993
2.41607
2.43173
2.4505
2.47599
2.51347
2.39578
2.41002
2.42244
2.43811
2.45417
2.47418
2.39186
2.40386
2.41293
2.42199
2.43025
2.43566
2.38757
2.39472
2.3985
2.40187
2.40416
2.39779
2.385
2.38846
2.38773
2.3866
2.38314
2.37025
2.38498
2.38574
2.38247
2.37902
2.37627
2.35997
2.3878
2.38658
2.38422
2.38128
2.38239
2.36586
2.39003
2.38816
2.3889
2.38763
2.39081
2.38066
2.39109
2.38948
2.39429
2.39458
2.40135
2.39914
2.3911
2.39174
2.39936
2.40167
2.41436
2.41947
2.39541
2.39717
2.40619
2.41118
2.4271
2.44373
2.38753
2.39238
2.40468
2.41821
2.44198
2.46892
2.43455
2.44689
2.45646
2.46695
2.48243
2.50603
2.41355
2.42421
2.44026
2.46156
2.48894
2.52107
2.41195
2.42847
2.44711
2.46972
2.49668
2.52665
2.40771
2.42512
2.44275
2.46306
2.48129
2.5003
2.40395
2.41942
2.4346
2.44738
2.45582
2.4655
2.40022
2.41122
2.42079
2.42528
2.42762
2.43303
2.39786
2.40482
2.40828
2.40563
2.40396
2.4052
2.39741
2.40207
2.4012
2.39494
2.39236
2.38945
2.39961
2.4038
2.40142
2.3961
2.39395
2.38826
2.40377
2.40616
2.4057
2.40274
2.40111
2.39598
2.40689
2.40847
2.41139
2.41242
2.41321
2.41259
2.4096
2.41153
2.41813
2.42198
2.42745
2.43434
2.41558
2.41834
2.42702
2.43371
2.44527
2.45883
2.4065
2.41134
2.42434
2.44105
2.46219
2.47985
2.44956
2.46213
2.47203
2.48281
2.49359
2.50763
2.42997
2.43916
2.45236
2.47224
2.4956
2.52052
2.42364
2.43572
2.45319
2.47569
2.50081
2.52963
2.41593
2.42875
2.44817
2.47026
2.49366
2.51593
2.4108
2.42465
2.44195
2.46075
2.47668
2.48751
2.40768
2.42155
2.43477
2.44832
2.45499
2.45692
2.40699
2.41945
2.42788
2.43502
2.43295
2.43141
2.40846
2.41814
2.42438
2.42658
2.42114
2.42
2.41313
2.42006
2.42758
2.42637
2.4225
2.42054
2.41905
2.42633
2.43428
2.43311
2.43304
2.43058
2.42544
2.43218
2.44061
2.44357
2.44756
2.44631
2.43154
2.43847
2.44756
2.45338
2.45983
2.46229
2.43956
2.44525
2.45535
2.46416
2.47361
2.48266
2.43393
2.43833
2.44896
2.46373
2.48097
2.49686
2.45617
2.46464
2.47104
2.47755
2.48302
2.49179
2.44131
2.44825
2.45607
2.46574
2.4778
2.4949
2.43389
2.43987
2.44727
2.45956
2.47763
2.50242
2.42588
2.43033
2.43846
2.4554
2.47878
2.50523
2.4207
2.42415
2.43458
2.45411
2.47606
2.49959
2.41693
2.42037
2.43351
2.45192
2.47114
2.48215
2.41649
2.42016
2.43537
2.4499
2.46088
2.46229
2.41786
2.42315
2.43742
2.44731
2.45214
2.44879
2.42163
2.4289
2.44127
2.45074
2.45147
2.44553
2.42817
2.43625
2.45099
2.45889
2.45785
2.4526
2.43579
2.44575
2.46026
2.46747
2.46914
2.46744
2.44408
2.45433
2.46786
2.47491
2.4791
2.48051
2.45295
2.46178
2.4732
2.48117
2.48938
2.49376
2.45306
2.4588
2.46725
2.47769
2.48823
2.4992
2.4634
2.47033
2.47611
2.48133
2.48535
2.49101
2.45343
2.45913
2.46484
2.47042
2.47664
2.48545
2.44776
2.45171
2.45518
2.46015
2.46756
2.48052
2.44109
2.44247
2.44443
2.44988
2.46183
2.48337
2.4365
2.43609
2.43782
2.44582
2.46376
2.48747
2.43269
2.43114
2.4336
2.4469
2.46627
2.49008
2.43109
2.43033
2.43523
2.45288
2.47191
2.486
2.43125
2.43234
2.44163
2.45862
2.47232
2.4784
2.43454
2.43745
2.44982
2.46417
2.47487
2.47565
2.43918
2.44528
2.4585
2.47393
2.48132
2.4793
2.44719
2.45469
2.47033
2.48432
2.49029
2.4898
2.45543
2.46491
2.48018
2.49207
2.49893
2.50074
2.46415
2.47373
2.48698
2.49727
2.50462
2.50968
2.46902
2.47653
2.48556
2.49433
2.50285
2.5092
2.47079
2.47688
2.48289
2.48861
2.493
2.49669
2.46454
2.46946
2.47407
2.47892
2.48377
2.48988
2.4611
2.46447
2.4666
2.46939
2.47293
2.47993
2.45619
2.45697
2.45717
2.45834
2.46165
2.47302
2.45292
2.4515
2.44987
2.45027
2.45704
2.47268
2.45011
2.44694
2.44405
2.44657
2.45912
2.47778
2.44822
2.44486
2.44295
2.44896
2.4655
2.48656
2.44796
2.44524
2.44597
2.45759
2.47399
2.48989
2.45016
2.44936
2.45284
2.46693
2.48121
2.49257
2.4534
2.45466
2.46177
2.47687
2.49205
2.49896
2.45936
2.46255
2.47254
2.48905
2.5024
2.50653
2.46639
2.4719
2.48387
2.49971
2.5106
2.51465
2.47401
2.48156
2.4938
2.50731
2.51667
2.52166
2.4814
2.48904
2.499
2.50823
2.51634
2.52355
2.48151
2.48649
2.49247
2.49821
2.50285
2.50654
2.47782
2.48222
2.48656
2.49109
2.49451
2.49965
2.4763
2.47953
2.48184
2.48423
2.48633
2.48946
2.47337
2.47431
2.47436
2.47437
2.47471
2.47851
2.47141
2.47006
2.46774
2.46567
2.46595
2.47456
2.46907
2.46614
2.46204
2.45856
2.46145
2.47201
2.46763
2.46358
2.45911
2.4568
2.46473
2.47878
2.4675
2.4635
2.45959
2.46046
2.47373
2.48806
2.46888
2.46585
2.46442
2.46938
2.4843
2.49816
2.47141
2.46962
2.47096
2.4797
2.49531
2.50861
2.4758
2.47558
2.48005
2.49134
2.50779
2.51787
2.48129
2.48345
2.49065
2.50372
2.51837
2.52599
2.48748
2.49212
2.50122
2.51387