/*--------------------------------*- C++ -*----------------------------------*\
| =========                 |                                                 |
| \\      /  F ield         | OpenFOAM: The Open Source CFD Toolbox           |
|  \\    /   O peration     | Version:  v2106                                 |
|   \\  /    A nd           | Website:  www.openfoam.com                      |
|    \\/     M anipulation  |                                                 |
\*---------------------------------------------------------------------------*/
FoamFile
{
    version     2.0;
    format      ascii;
    arch        "LSB;label=32;scalar=64";
    class       volScalarField;
    location    "0.000194";
    object      k;
}
// * * * * * * * * * * * * * * * * * * * * * * * * * * * * * * * * * * * * * //

dimensions      [0 2 -2 0 0 0 0];

internalField   nonuniform List<scalar> 
144746
(
8.46404
6.40442
4.75726
3.35113
2.78045
3.06624
4.4786
7.18021
10.8899
14.2299
15.2615
13.6345
11.611
10.398
9.23746
6.53157
4.24197
2.55019
1.77791
1.65582
2.24198
3.67015
5.94564
8.59988
10.6728
11.0262
9.71001
8.8286
9.2682
5.93464
3.37042
1.80338
1.1219
0.901277
1.09261
1.79417
3.06855
4.75334
6.42928
7.75312
7.71116
7.68169
7.86864
4.38386
2.22703
1.12665
0.660553
0.485977
0.534708
0.872399
1.58104
2.60471
3.70411
4.67897
5.3016
6.06414
5.44371
2.68703
1.26931
0.612145
0.3452
0.246373
0.264397
0.441834
0.853843
1.50194
2.25329
2.94083
3.69607
4.99505
3.1777
1.41826
0.61621
0.282435
0.155884
0.114197
0.133049
0.243903
0.506115
0.946936
1.5025
2.06806
2.78582
4.47919
1.64007
0.656617
0.26099
0.113766
0.0628892
0.0517101
0.0750289
0.158362
0.346095
0.669469
1.10529
1.61491
2.47307
5.01227
0.825316
0.298941
0.110265
0.0470718
0.027945
0.0297889
0.0562257
0.128519
0.280002
0.538259
0.905757
1.42423
2.68391
6.53336
0.527066
0.186897
0.0712287
0.0346456
0.0246823
0.031012
0.0596405
0.128272
0.263298
0.4912
0.843309
1.52308
3.60698
8.96837
0.574154
0.218951
0.0965708
0.0581115
0.0461445
0.0523719
0.0827213
0.152575
0.286614
0.522152
0.960756
2.08684
5.39487
11.5009
1.06586
0.459271
0.203376
0.129915
0.106612
0.108971
0.141953
0.221863
0.380931
0.693967
1.38681
3.37074
7.59557
12.8977
2.38246
1.4644
0.739503
0.372533
0.259271
0.241088
0.278665
0.384882
0.607139
1.08979
2.25965
5.18686
9.21091
12.8617
4.35048
3.50394
2.28117
1.24211
0.717415
0.547705
0.556077
0.697697
1.0155
1.71856
3.3035
6.36561
9.3919
11.8553
6.4291
6.07013
4.93991
3.40601
2.1378
1.42117
1.17061
1.25535
1.63656
2.50306
4.16827
6.70191
8.79058
10.7029
7.18982
5.08245
3.59257
2.5043
2.04075
2.11129
2.86281
4.33144
6.39534
8.6164
10.4473
11.3866
11.4174
11.2338
6.81661
4.55474
2.93545
1.84384
1.33547
1.22161
1.55497
2.40688
3.7651
5.39783
6.92252
8.10229
8.5042
8.67498
5.96414
3.74306
2.20987
1.29157
0.857183
0.701865
0.820915
1.28125
2.13325
3.26314
4.43271
5.4341
6.22466
6.85411
4.55264
2.65177
1.48047
0.821781
0.51255
0.389511
0.42307
0.663452
1.18416
1.94557
2.78266
3.52872
4.16269
5.03576
3.01956
1.64448
0.85718
0.452564
0.271009
0.199561
0.212919
0.345759
0.662831
1.17249
1.77977
2.37078
2.93837
3.92585
1.75375
0.873874
0.422119
0.212486
0.124267
0.0927835
0.106232
0.190118
0.393757
0.742659
1.19628
1.688
2.22685
3.24674
0.900309
0.400092
0.178121
0.0858472
0.0500863
0.0409271
0.0572899
0.119445
0.26344
0.516903
0.870652
1.2992
1.86407
3.14278
0.45462
0.176492
0.0709868
0.0326877
0.0199658
0.0208189
0.039314
0.0923477
0.207011
0.408311
0.704411
1.10828
1.79144
3.58267
0.301754
0.106895
0.0399243
0.01864
0.0131619
0.0177825
0.0378635
0.0879894
0.190293
0.368557
0.647725
1.09827
2.07544
4.62321
0.347768
0.126711
0.051182
0.0283013
0.0222426
0.0275883
0.0494622
0.101233
0.204306
0.388493
0.708799
1.32843
2.85452
6.05919
0.64504
0.258997
0.109794
0.0673105
0.0544713
0.0583284
0.0835801
0.144475
0.267643
0.50027
0.945427
1.92997
4.0503
7.5306
1.48249
0.812491
0.380364
0.189743
0.138016
0.134472
0.166263
0.24878
0.417543
0.748768
1.43007
2.88802
5.42977
8.87294
2.9293
2.04962
1.19551
0.610018
0.361864
0.304934
0.337614
0.452399
0.688253
1.15116
2.08439
3.94712
6.68567
9.82823
4.72259
3.82797
2.73625
1.70038
1.02004
0.722394
0.67621
0.803986
1.106
1.68906
2.80687
4.92179
7.65348
10.4973
5.16328
3.52641
2.51347
1.82938
1.52743
1.47288
1.73472
2.30397
3.17009
4.23545
5.48821
7.04649
9.22379
11.6391
3.89501
2.62494
1.7879
1.23121
0.954302
0.856754
0.969758
1.32937
1.95906
2.80805
3.84375
5.05418
6.47021
8.04114
2.80313
1.8784
1.23187
0.806244
0.585125
0.491695
0.531444
0.742202
1.181
1.82426
2.6232
3.54289
4.55634
5.80224
1.90255
1.24504
0.778325
0.485445
0.334189
0.267282
0.279559
0.401093
0.689798
1.15479
1.75261
2.43839
3.18792
4.16118
1.21002
0.743315
0.435759
0.258577
0.170667
0.132943
0.139445
0.212152
0.398059
0.721448
1.16135
1.68713
2.28947
3.14772
0.715921
0.394056
0.212354
0.119479
0.0764901
0.0598154
0.067161
0.11478
0.237094
0.461865
0.789185
1.20587
1.72063
2.49994
0.401506
0.189227
0.0908909
0.0479692
0.0301421
0.0250957
0.0339648
0.0694984
0.1566
0.320828
0.574899
0.92308
1.39424
2.15248
0.240321
0.0932019
0.0376465
0.0178534
0.0111951
0.0113977
0.0213191
0.0517426
0.121807
0.253837
0.46645
0.778763
1.24349
2.05174
0.188262
0.0631232
0.0213675
0.00892489
0.00591074
0.00815581
0.0189949
0.0482793
0.112436
0.232049
0.430186
0.741945
1.25156
2.1855
0.220539
0.0749231
0.0260485
0.0120392
0.00882635
0.0117076
0.0238766
0.0550643
0.121658
0.246032
0.45928
0.815212
1.42994
2.55821
0.367374
0.141256
0.0553852
0.0298226
0.0229694
0.025601
0.04038
0.0780374
0.158091
0.309627
0.575773
1.02894
1.79231
3.17723
0.752475
0.370323
0.166959
0.0851509
0.062569
0.0631819
0.0833006
0.135222
0.243903
0.4483
0.805788
1.39681
2.38679
4.27954
1.46446
0.877304
0.474419
0.248089
0.162921
0.151582
0.179546
0.254161
0.404046
0.680919
1.16196
1.96456
3.42547
5.74877
2.50778
1.69458
1.07425
0.63976
0.41301
0.344658
0.371209
0.472358
0.671375
1.02919
1.65484
2.84247
5.09707
7.74246
10.1792
11.4811
13.2448
16.3034
24.0001
54.237
8.9808
10.5983
12.6672
15.3721
21.9883
50.6196
8.27573
10.4065
12.9905
15.3612
20.8511
47.8509
7.62268
10.8282
14.0771
15.8362
20.1136
45.776
7.61225
12.143
15.8621
16.6079
19.5682
44.3878
8.48735
14.5471
17.9202
17.1791
19.0666
43.7754
10.5852
17.3024
19.1172
17.0203
18.4564
44.0463
13.2754
19.0442
18.7821
16.1914
17.8706
45.0651
15.3744
18.8628
17.2767
15.272
17.628
46.4295
15.8057
17.1415
15.6565
14.8132
17.7173
48.136
14.6892
15.0945
14.6112
14.6821
17.9857
50.045
13.1825
13.5412
13.833
14.6652
18.6153
51.9454
11.8291
12.4045
13.2219
14.7378
19.5956
53.7665
10.8488
11.6705
12.819
15.0804
21.1821
55.6958
11.4793
13.0925
14.467
16.3254
21.605
46.9846
9.20968
11.1679
13.4481
15.6679
20.1699
44.0405
7.76387
10.0831
13.2445
15.9275
19.6802
41.8888
6.39661
9.34432
13.6221
16.6878
19.6849
40.2738
5.66258
9.3739
14.8188
17.8899
19.9286
38.9808
5.50384
10.3858
16.7726
19.0964
19.715
38.4724
6.18852
12.1467
18.7023
19.6915
19.1578
38.704
7.46623
13.9993
19.7044
19.4374
18.3944
39.473
8.96246
15.1424
19.3344
18.5626
17.945
40.5374
10.1354
15.1059
18.1136
17.8151
18.1138
41.943
10.6389
14.2787
16.922
17.5725
18.7811
43.6679
10.7866
13.5513
16.2345
17.6861
19.7358
45.436
11.0953
13.3459
15.9182
17.7772
20.704
47.1091
11.4468
13.6127
15.7303
17.6079
21.6676
48.8036
14.0888
17.0117
18.7573
19.2068
21.605
37.0597
9.95257
12.8884
15.7813
17.7521
20.7339
35.379
7.64167
10.5613
14.0891
17.1317
20.6024
34.519
5.77127
8.68281
12.8381
17.0511
20.9306
34.0126
4.6564
7.59982
12.3506
17.5101
21.3041
33.5222
3.90612
6.9945
12.6628
18.5523
21.3702
32.9935
3.61215
7.0221
13.7188
19.5815
21.4546
33.0175
3.66377
7.62723
14.968
20.556
21.5505
33.7705
4.0245
8.47936
15.9524
21.091
21.6394
35.1276
4.64747
9.16648
16.3026
21.245
22.0645
36.8437
5.30779
9.55849
16.2827
21.5975
23.2538
38.9251
6.00153
10.0015
16.5138
22.3697
24.868
40.9886
7.30012
11.1929
17.4121
23.0462
26.0936
42.5246
9.12399
13.4122
18.9276
22.966
26.2462
43.4621
9.95321
11.1792
12.8975
16.1575
23.9394
57.7527
8.14486
9.33423
11.443
14.6432
21.4867
53.8342
6.62041
7.84923
10.4635
13.9743
19.9901
50.4786
4.83352
6.48383
9.84477
13.7458
19.1925
47.6958
3.52454
5.5848
9.65379
14.0063
18.8012
45.4338
2.80948
5.42861
10.1925
14.6875
18.6352
43.6295
2.67599
5.99634
11.4194
15.4951
18.3628
42.4743
3.07463
7.24404
12.9472
16.0408
17.8209
42.2212
4.00899
8.73685
13.8593
15.8051
17.1043
42.7435
5.28171
9.77989
13.7109
14.9586
16.5608
44.2154
6.4623
9.96458
12.7341
13.9347
16.3753
46.3889
7.17932
9.56518
11.5318
12.9095
16.5199
48.9578
7.33514
8.83374
10.2955
11.9672
16.9389
51.7941
7.0794
8.16819
9.38908
11.4456
17.5944
53.7993
11.0576
13.243
15.2215
17.5834
23.0853
50.718
7.8972
9.90672
12.5848
15.6427
21.0291
47.3608
5.61562
7.47321
10.5927
14.3941
19.7148
44.3788
3.67109
5.385
8.90333
13.5598
19.1246
41.6539
2.52727
4.16592
7.75994
13.0207
18.8732
39.3166
1.87361
3.54345
7.34964
12.9952
18.6829
37.6176
1.58481
3.45124
7.70848
13.431
18.3243
36.4439
1.60515
3.87846
8.671
14.0462
17.7893
35.9671
1.96847
4.71019
9.69073
14.2709
17.0365
36.1999
2.66084
5.60183
10.1407
13.8551
16.4084
37.278
3.52996
6.2128
9.90426
13.1027
16.367
39.2565
4.36915
6.53605
9.39258
12.3207
16.8837
41.7448
5.02825
6.67834
8.91636
11.7536
17.6061
44.0438
5.42084
6.83858
8.79377
11.6674
18.2886
45.9831
10.7899
14.6903
18.6617
21.7331
25.9581
43.9384
6.60485
9.53963
13.5782
17.9732
23.4095
41.1901
4.03315
6.34879
10.1595
15.1837
21.3157
38.6101
2.46395
4.06009
7.54544
13.0451
19.9209
36.1562
1.66378
2.90205
5.81346
11.2652
18.9468
33.9211
1.19557
2.25092
4.79368
10.0491
17.9892
31.7708
0.929327
1.89616
4.30869
9.41664
16.9576
29.9167
0.812004
1.7889
4.28729
9.24573
16.0829
28.6184
0.83415
1.90842
4.6043
9.33147
15.2804
28.1633
1.01463
2.19964
4.94346
9.30029
14.8438
28.9523
1.35298
2.56447
5.13351
9.1761
15.2841
31.1066
1.81282
2.97431
5.28942
9.21277
16.6243
34.0297
2.35439
3.47885
5.69026
9.75928
18.3577
36.662
2.94051
4.17772
6.59249
11.0322
19.9431
38.2755
53.9784
20.0883
13.2674
10.8395
9.60701
8.77227
52.7589
19.2405
13.5331
11.6923
10.5924
9.74216
50.7194
19.1751
14.5259
13.1128
11.8484
10.448
49.1991
19.8624
16.0062
14.6944
12.6355
10.1509
48.2181
21.1292
17.67
15.7076
12.0396
8.37304
47.6243
22.9
18.5771
14.9597
9.74056
5.7596
47.3555
24.1531
17.5386
12.1592
6.75808
3.48683
47.5622
23.9284
14.7814
8.79042
4.35023
2.03221
48.2404
22.3672
11.9528
6.3351
3.00072
1.37016
48.9025
20.4341
10.1017
5.2236
2.64091
1.32121
49.7459
18.5175
9.33169
5.19085
3.06215
1.87101
51.2124
17.6924
9.40931
5.93002
4.13413
3.07474
53.4415
18.4245
10.3421
7.21944
5.61967
4.60581
56.6421
19.8624
11.8841
9.00731
7.55162
6.45369
46.0106
20.2275
13.7949
11.0597
9.12384
7.68234
45.0146
19.4718
13.722
11.0648
8.99485
7.52732
44.3092
19.3601
14.1328
11.4803
8.92703
7.00578
43.25
19.7946
14.9983
11.9656
8.46464
5.97494
42.3521
20.8991
15.8683
11.7684
7.23589
4.48451
42.1274
22.6398
15.7655
10.3015
5.45794
2.9988
42.3008
23.7428
14.2519
7.98077
3.73475
1.81207
42.5522
23.5972
11.9943
5.81983
2.50302
1.08749
42.8196
22.3969
10.0517
4.43814
1.8751
0.790178
43.1806
20.5806
8.98254
4.00049
1.81796
0.833389
43.5542
18.9015
8.7958
4.32282
2.28566
1.25068
44.3622
17.9643
9.32479
5.32778
3.32514
2.18923
45.7883
18.0967
10.4767
6.84209
4.82858
3.56545
48.1277
19.6634
12.2387
8.92392
6.91687
5.43823
36.8094
20.9322
15.4126
10.7757
7.48437
5.34969
36.726
20.4278
14.1721
9.15504
5.97987
4.18746
36.3144
19.8612
13.0774
8.09353
4.91087
3.26055
35.5104
19.8038
12.2745
7.34957
4.09832
2.48449
34.9638
20.0737
11.7573
6.56755
3.3229
1.80333
35.2241
20.454
11.1531
5.6306
2.58371
1.24398
36.1539
20.7306
10.3187
4.64885
1.95225
0.836159
37.2641
20.7928
9.47268
3.90635
1.53496
0.598626
37.9991
20.3822
8.83679
3.50909
1.34953
0.512326
38.0944
19.3989
8.58201
3.50263
1.41105
0.56957
37.7533
18.5707
8.6637
3.82801
1.73556
0.807003
37.4656
18.3384
9.38237
4.70562
2.46946
1.34955
37.7121
19.2425
10.718
6.03316
3.57812
2.22657
38.9303
21.643
12.8896
8.02473
5.22115
3.52376
52.7927
21.1482
14.7814
12.4174
11.2258
10.5044
51.4587
19.7213
14.3008
12.4919
11.7322
11.4125
50.2391
19.214
14.5185
13.2061
12.8958
12.9476
49.1068
19.4443
15.2687
14.5502
14.8483
15.0267
48.178
20.4121
16.706
16.8257
17.3356
16.5346
47.4839
21.8848
18.869
19.4236
18.6473
15.4368
46.7763
23.7739
20.8091
20.2963
16.9032
11.8593
46.1903
25.3446
20.7462
17.8839
12.8277
8.00075
46.4889
25.8506
18.3575
13.8125
8.97404
5.40283
47.4377
24.9934
15.5226
10.588
6.74572
4.31064
48.5807
23.5196
13.7109
9.04365
6.04358
4.31582
50.1699
22.0713
12.8969
8.78991
6.42581
5.17655
52.5144
21.7708
13.0807
9.42883
7.45878
6.345
55.7928
22.7438
14.2255
10.8467
9.1422
8.05382
45.8797
19.8758
15.5716
14.2446
13.0773
11.7503
45.0489
18.9881
15.5586
14.3754
13.0866
11.9249
44.6361
18.6719
15.855
14.9292
13.5311
12.0845
44.3075
18.8598
16.6429
16.1708
14.5391
12.3391
44.0271
19.6642
18.1493
17.9951
15.3196
11.5871
43.5662
21.375
20.1379
19.2357
14.4388
9.74247
42.674
23.6389
21.2001
18.1041
11.8864
7.21253
42.1629
25.5441
19.7938
14.6925
8.76591
4.98986
42.0355
26.2492
16.8725
11.0414
6.3407
3.60776
42.251
25.4517
14.4067
8.81032
5.17887
3.16651
42.5949
23.887
13.2479
8.09477
5.08125
3.40435
43.3099
22.4556
13.0157
8.49776
5.87146
4.34951
44.7174
21.2552
13.4169
9.56601
7.19586
5.6726
47.0816
21.9468
14.6125
11.3485
9.28624
7.67907
37.0477
21.078
19.6907
18.7503
15.9074
12.3492
37.4195
20.9616
19.9271
17.4138
13.5423
10.2145
37.9117
20.7843
19.6821
16.5805
11.8923
8.41947
38.0113
20.8342
19.6349
16.1843
11.0541
7.38683
37.5835
21.1811
19.6624
15.7636
10.1659
6.2947
36.9279
22.0008
19.4763
14.5811
8.82926
5.0983
36.446
23.0617
18.2004
12.4265
7.14934
3.92912
36.396
23.2746
16.1402
10.1111
5.67338
3.05868
36.2416
23.2713
14.3601
8.4203
4.68737
2.56366
35.8752
22.7502
13.3944
7.7343
4.38843
2.51259
35.4253
21.9489
13.1603
7.78152
4.61252
2.80459
35.2378
21.363
13.6369
8.65377
5.51742
3.61789
35.5043
21.3671
14.6501
10.0222
6.87505
4.81198
36.6075
22.4226
16.5189
12.3485
9.16952
6.77646
2.33704
1.63897
1.22573
0.97234
0.89185
0.870823
0.920941
1.02963
1.24123
1.56578
2.02794
2.67599
3.97141
6.69741
1.24651
0.902976
0.672277
0.525524
0.471482
0.455099
0.477792
0.535571
0.662298
0.88369
1.23761
1.79481
2.85515
4.78864
0.68489
0.487696
0.356661
0.274324
0.242051
0.231031
0.24078
0.2729
0.353467
0.512133
0.787135
1.24367
2.03983
3.39186
0.391869
0.254437
0.17731
0.133511
0.116445
0.110348
0.115159
0.134973
0.189847
0.307319
0.522897
0.884283
1.48321
2.45458
0.233775
0.127403
0.0809113
0.0590716
0.0510645
0.0483821
0.051699
0.0656222
0.105266
0.19366
0.361818
0.647603
1.10941
1.85618
0.147556
0.0626756
0.0339091
0.023483
0.0201016
0.0193589
0.0223011
0.0331891
0.0634181
0.131649
0.264354
0.494418
0.869484
1.47738
0.101854
0.0327626
0.0136934
0.00847369
0.00713308
0.00732796
0.0102054
0.0196035
0.0445891
0.100673
0.210697
0.404614
0.726342
1.25665
0.0819195
0.0211446
0.00627514
0.00300098
0.00244261
0.00306878
0.00605218
0.0150369
0.0379255
0.0883139
0.186484
0.360198
0.651199
1.13562
0.0773737
0.018496
0.00441985
0.00153628
0.00120381
0.00207497
0.00536724
0.0147773
0.037866
0.087339
0.18193
0.347784
0.625009
1.08719
0.0867364
0.0219081
0.005742
0.00225388
0.0018231
0.00291065
0.00679161
0.0173769
0.0423516
0.0941732
0.190605
0.356393
0.630239
1.08476
0.115074
0.0338271
0.0117565
0.00631536
0.00529862
0.00659556
0.0115047
0.0242232
0.0527767
0.109789
0.212337
0.384249
0.664491
1.12642
0.192086
0.0682457
0.0297666
0.0190775
0.0163382
0.0177556
0.0245243
0.0411341
0.0760045
0.142224
0.256602
0.441973
0.736108
1.21069
0.352721
0.151388
0.0767935
0.0534869
0.0467004
0.0480538
0.0582381
0.0820541
0.128578
0.212602
0.353329
0.574773
0.917171
1.45159
0.638281
0.316939
0.180586
0.133036
0.118993
0.12112
0.138431
0.17684
0.248137
0.372235
0.574652
0.890701
1.41621
2.29318
1.08261
0.79822
0.64013
0.544069
0.530353
0.540062
0.574464
0.62898
0.731436
0.903908
1.1778
1.56234
2.22033
3.68634
0.542977
0.406005
0.324881
0.274672
0.265497
0.269887
0.286972
0.315781
0.374369
0.483494
0.672687
0.971613
1.52581
2.68471
0.286196
0.202137
0.158328
0.133109
0.128253
0.130085
0.138176
0.153585
0.18896
0.262495
0.402636
0.64745
1.10325
1.97857
0.160388
0.0981233
0.0725026
0.0602488
0.0579961
0.0588206
0.0628385
0.0718843
0.0952391
0.148298
0.256809
0.458367
0.826704
1.49028
0.0968315
0.0470657
0.0309229
0.0249933
0.0239871
0.0244454
0.0267788
0.0329561
0.0499206
0.0903669
0.176351
0.341398
0.639794
1.16032
0.0644761
0.0234612
0.0124819
0.00944991
0.00897896
0.00932274
0.010986
0.015843
0.0292839
0.0618174
0.131995
0.268663
0.515089
0.940601
0.0481504
0.0133358
0.00511266
0.00330881
0.00306771
0.00340261
0.00484273
0.00918703
0.0209954
0.0493493
0.110155
0.228335
0.44078
0.806183
0.0410965
0.00957748
0.00254474
0.00118039
0.00103811
0.00141391
0.00287124
0.00724136
0.0187997
0.0458779
0.102614
0.21092
0.403167
0.730667
0.0395517
0.00885624
0.0019656
0.000649842
0.000539927
0.000997201
0.00265362
0.00748704
0.0198477
0.0478152
0.104474
0.20957
0.392181
0.698896
0.0429893
0.0103271
0.00261687
0.00103436
0.000884292
0.00146889
0.00351145
0.00921279
0.0231901
0.0535602
0.112808
0.219134
0.399407
0.697764
0.0523099
0.0149702
0.00540012
0.00305472
0.00267112
0.00341323
0.00609297
0.0131404
0.029487
0.0634141
0.127085
0.237758
0.421611
0.721954
0.0770602
0.028127
0.0140101
0.00970237
0.00853817
0.00939926
0.0131578
0.0223962
0.0422845
0.0813052
0.151451
0.26911
0.460384
0.768406
0.129868
0.0601367
0.0367029
0.0282985
0.0252962
0.0261945
0.0318909
0.0450098
0.070921
0.118614
0.20044
0.332862
0.540868
0.865571
0.229595
0.127701
0.0876362
0.0725143
0.0669033
0.0685217
0.0784438
0.0996973
0.138491
0.205538
0.31457
0.483876
0.741806
1.11886
0.438207
0.340997
0.291851
0.268478
0.276168
0.293678
0.321204
0.358588
0.417723
0.512495
0.669462
0.909465
1.29731
2.03909
0.217366
0.166151
0.140904
0.129028
0.132488
0.140899
0.154264
0.173148
0.205555
0.262773
0.365342
0.535957
0.836192
1.43358
0.111374
0.0782118
0.0644488
0.0588439
0.0606029
0.0645855
0.0709075
0.0803939
0.0988412
0.135719
0.208332
0.341125
0.588091
1.07267
0.060868
0.0358171
0.0275865
0.0249519
0.0257818
0.0275988
0.0306186
0.0357467
0.0472403
0.0730414
0.128065
0.236094
0.442176
0.833446
0.0367815
0.0164994
0.011058
0.00971046
0.0100271
0.0108339
0.0123797
0.0155699
0.0235918
0.0430406
0.08667
0.17611
0.348764
0.670216
0.0252548
0.00824041
0.00427068
0.00346382
0.00354506
0.0039231
0.00484717
0.00718557
0.0134765
0.0292751
0.0654897
0.141142
0.287682
0.557717
0.0197851
0.00495195
0.00174753
0.00115988
0.0011561
0.0013803
0.00208358
0.00412187
0.00974511
0.0239047
0.0562062
0.123384
0.252439
0.487203
0.0175604
0.00383312
0.000929589
0.000411257
0.000385687
0.000578875
0.00126388
0.00334336
0.00903821
0.0230711
0.0542381
0.117473
0.236376
0.448101
0.017394
0.00374588
0.000788887
0.000250078
0.000221581
0.000444619
0.00124054
0.00362727
0.00997527
0.0250432
0.057196
0.120061
0.234784
0.433874
0.0191049
0.00447331
0.0011239
0.000460274
0.000418353
0.00071642
0.00174495
0.00469018
0.0121785
0.0291587
0.0638309
0.128929
0.244039
0.438815
0.0229682
0.00663024
0.00250354
0.00148332
0.00134512
0.00175618
0.00317829
0.00697723
0.0160704
0.0356659
0.074017
0.143398
0.262647
0.460046
0.0323336
0.0128659
0.00698906
0.00499813
0.00448014
0.00501548
0.00712537
0.0123145
0.0237566
0.0469335
0.0902661
0.165908
0.292544
0.497879
0.0533883
0.02867
0.0193442
0.0152529
0.013747
0.0143905
0.017755
0.025404
0.0407094
0.0694867
0.120452
0.206194
0.345347
0.566855
0.0974444
0.0636637
0.0481978
0.0407304
0.0376849
0.0387883
0.0448177
0.0574811
0.080434
0.120003
0.185295
0.289401
0.451909
0.702412
0.192874
0.150145
0.12855
0.121534
0.128435
0.142948
0.165739
0.196439
0.240267
0.304696
0.403432
0.556786
0.807547
1.24956
0.0925008
0.0697107
0.0586371
0.0550228
0.058279
0.0649345
0.0753132
0.0897977
0.112149
0.148709
0.210659
0.31488
0.497049
0.836868
0.0455198
0.0309668
0.0251123
0.0234679
0.0250474
0.0280659
0.0326983
0.0394654
0.0511134
0.0729235
0.114649
0.192079
0.336763
0.615828
0.0241421
0.013383
0.0100355
0.00928928
0.00999406
0.0112962
0.0133352
0.0166285
0.0232135
0.0373943
0.067627
0.128484
0.247609
0.47948
0.014437
0.00590865
0.00377357
0.00338419
0.00365472
0.00418889
0.00511483
0.00690619
0.0111133
0.0212191
0.0444089
0.0937599
0.193321
0.387838
0.00991656
0.00292161
0.00139346
0.001139
0.00122249
0.00144463
0.0019244
0.00308843
0.00618363
0.0141068
0.0329925
0.0744242
0.159318
0.32497
0.00781366
0.00181099
0.000573234
0.000366584
0.000382389
0.000495468
0.000822068
0.00176966
0.00444864
0.0114472
0.0282264
0.0651773
0.140688
0.286307
0.00707611
0.00148019
0.000329744
0.000132221
0.000128705
0.000216621
0.000522889
0.00147839
0.00419717
0.0112039
0.0276411
0.0630566
0.133883
0.26723
0.00727135
0.00151514
0.000306251
9.36886e-05
8.79458e-05
0.000188959
0.000550721
0.00167223
0.00478135
0.0125251
0.0299987
0.0662442
0.136354
0.26431
0.00834613
0.00188689
0.000474872
0.000206923
0.000200185
0.000343834
0.000834512
0.00228096
0.00611021
0.0152201
0.0348497
0.073814
0.14649
0.274906
0.0105996
0.0030273
0.00118189
0.000734163
0.000694097
0.000918071
0.00165207
0.00363992
0.00855969
0.0196374
0.0424111
0.0857403
0.163815
0.297587
0.0160235
0.00652377
0.00361568
0.00261969
0.00240905
0.0027644
0.00397518
0.00691937
0.0135386
0.0274267
0.0545373
0.104064
0.190476
0.334277
0.0288444
0.0159051
0.0106709
0.00834526
0.00761875
0.00818061
0.0103455
0.0150998
0.0246273
0.0429369
0.0765637
0.135503
0.234911
0.395985
0.0568009
0.0375586
0.0279401
0.0231871
0.0215004
0.0225561
0.0267441
0.0351883
0.050316
0.0765139
0.120826
0.194046
0.312755
0.500073
0.103353
0.0771266
0.0620231
0.0561817
0.0584884
0.066811
0.0820709
0.104708
0.138287
0.187481
0.260334
0.372431
0.552109
0.851803
0.0473729
0.0338855
0.0266265
0.0239082
0.0249164
0.0284432
0.0348477
0.0446874
0.0605662
0.0866406
0.129946
0.202549
0.326449
0.54683
0.022128
0.0140755
0.0106051
0.00948238
0.00996861
0.0114512
0.014106
0.0183749
0.0260402
0.0404717
0.0678063
0.118517
0.211983
0.388392
0.0111167
0.00566397
0.00391538
0.00346792
0.00368553
0.00428214
0.0053704
0.0072977
0.0112902
0.0199618
0.0384732
0.0760456
0.149811
0.293997
0.006328
0.00235132
0.00136354
0.00116547
0.00124763
0.00147834
0.00193969
0.00290642
0.00525031
0.0109812
0.0243347
0.0533403
0.113052
0.232371
0.00421702
0.00113501
0.000478069
0.000364241
0.000388243
0.00048026
0.000704131
0.0012833
0.00287915
0.00708753
0.0174168
0.0408476
0.0905927
0.191246
0.00334892
0.000731484
0.000201503
0.000112028
0.000115136
0.000161207
0.000305689
0.000747498
0.0020494
0.00558901
0.0144344
0.0348123
0.0784975
0.16685
0.00318378
0.000644345
0.000130032
4.27291e-05
4.01388e-05
7.63634e-05
0.000208852
0.000641245
0.0019278
0.00540051
0.0139668
0.0334421
0.0746359
0.156586
0.00350977
0.000706428
0.000135156
3.88575e-05
3.66824e-05
8.01859e-05
0.000239345
0.000751519
0.00223601
0.00611967
0.0153794
0.0357466
0.0775676
0.158427
0.00430259
0.000932585
0.000230133
0.000105381
0.000105656
0.000173697
0.000402462
0.00109289
0.00299624
0.00775298
0.0185975
0.0414411
0.0866292
0.171008
0.00585162
0.00161858
0.000628178
0.000403886
0.000396362
0.000521498
0.000902041
0.00193058
0.00455164
0.0107212
0.0240981
0.0510156
0.102214
0.194231
0.00958732
0.00379359
0.00204851
0.00149403
0.00141999
0.00167196
0.00240129
0.00411395
0.00799973
0.0164206
0.0336195
0.0666234
0.12695
0.231212
0.0185861
0.0098407
0.00631449
0.00488292
0.00456721
0.00508941
0.00661723
0.00977887
0.0160398
0.0282648
0.0514852
0.0937783
0.167796
0.290729
0.0385801
0.0242785
0.0171531
0.0139141
0.0130675
0.0142019
0.0175086
0.0237582
0.0346941
0.0536442
0.0863772
0.142108
0.235052
0.38394
0.0676417
0.0481483
0.0357445
0.0295617
0.0286016
0.0319233
0.0401857
0.0544144
0.0780841
0.115529
0.172567
0.259905
0.396842
0.615115
0.0293616
0.0199553
0.0144067
0.0117544
0.0113488
0.0126678
0.0159497
0.0218137
0.032372
0.0510118
0.0829763
0.136891
0.227566
0.38318
0.0127994
0.00770844
0.00531213
0.00429766
0.00418348
0.00471657
0.00601495
0.00845279
0.0133005
0.0230209
0.0419992
0.0776203
0.142832
0.263611
0.00593902
0.00285692
0.00179921
0.00143679
0.00141798
0.00162897
0.00214212
0.00320395
0.00561095
0.0111179
0.0232089
0.0481561
0.0972624
0.192867
0.00314301
0.00109776
0.000574841
0.000440285
0.000440086
0.00052245
0.000735892
0.00125143
0.00259497
0.00602391
0.0142379
0.0324545
0.0704333
0.147134
0.00203235
0.000516181
0.00019104
0.00012651
0.00012639
0.000160833
0.000264095
0.000561573
0.00142701
0.00379899
0.00980113
0.0237887
0.0542192
0.117388
0.00167577
0.000353728
8.48511e-05
3.75348e-05
3.56056e-05
5.41627e-05
0.000120343
0.000336879
0.00100418
0.00289359
0.00779711
0.0195155
0.0455904
0.100427
0.00172894
0.000342369
6.30088e-05
1.62455e-05
1.36912e-05
2.91195e-05
8.89996e-05
0.000293434
0.000928557
0.0027224
0.00735576
0.0183901
0.0428628
0.0939681
0.0020676
0.00040288
7.28966e-05
2.01304e-05
1.85663e-05
3.81777e-05
0.000110941
0.000352869
0.0010838
0.00308843
0.00811737
0.0197813
0.0450546
0.0966017
0.00270049
0.000560329
0.000134051
6.45211e-05
6.61497e-05
0.000100929
0.000212678
0.000553582
0.00152586
0.00406854
0.0101707
0.0237536
0.052154
0.108105
0.00390572
0.0010291
0.000388343
0.000258332
0.000263047
0.000341282
0.000553416
0.00111139
0.00255463
0.00608342
0.0141128
0.0311607
0.0653387
0.129778
0.00677872
0.00253207
0.00131131
0.000967919
0.00095699
0.00115344
0.00163319
0.0026966
0.00508632
0.0103914
0.021669
0.0443449
0.0877064
0.165428
0.0137457
0.00680719
0.00414214
0.00318975
0.00308751
0.00357927
0.00474545
0.00700765
0.0113806
0.0199871
0.0367666
0.0683714
0.125558
0.222823
0.029442
0.0172955
0.0115195
0.00918808
0.00884028
0.010024
0.0128106
0.0177869
0.0262693
0.0409137
0.0664955
0.110986
0.186885
0.310078
0.0522234
0.0363895
0.0255446
0.0193273
0.0168013
0.0172231
0.0209144
0.0289473
0.0442872
0.0712151
0.115203
0.183992
0.290901
0.45741
0.021619
0.0143997
0.00979598
0.00726099
0.0062562
0.00639968
0.00780522
0.0110233
0.0176642
0.0305325
0.0540373
0.0949471
0.163913
0.280509
0.00881097
0.00523856
0.00339259
0.00247
0.00213
0.00220048
0.00274476
0.00406324
0.0070637
0.013589
0.0270141
0.0530235
0.10107
0.189516
0.00374471
0.0018017
0.00106773
0.000759141
0.000659312
0.000697369
0.000915542
0.00149253
0.00297022
0.00658139
0.0148405
0.03236
0.0673079
0.135485
0.00183149
0.000641961
0.000315763
0.000212312
0.000185865
0.000206227
0.000302177
0.00058711
0.00140327
0.00359258
0.00900858
0.0213162
0.0474014
0.10057
0.00116903
0.000295314
0.000100276
5.60946e-05
4.86968e-05
6.01398e-05
0.00010988
0.000274684
0.000786419
0.00224554
0.00604823
0.0151327
0.0353216
0.077984
0.00102839
0.000216381
4.73408e-05
1.63596e-05
1.30035e-05
2.06386e-05
5.34203e-05
0.000169538
0.000545295
0.00165098
0.00461831
0.0119297
0.0286864
0.0649473
0.0011572
0.000227409
3.95451e-05
8.43227e-06
5.86918e-06
1.27978e-05
4.17982e-05
0.000145803
0.000483951
0.00148161
0.00416854
0.01083
0.026211
0.0596468
0.00148205
0.000282826
4.93028e-05
1.35097e-05
1.19355e-05
2.14411e-05
5.66115e-05
0.000176942
0.000555865
0.00164408
0.00450928
0.011489
0.027379
0.0614146
0.00203505
0.000408702
9.50816e-05
4.76815e-05
4.94559e-05
6.96067e-05
0.000128385
0.000305607
0.000824335
0.00223865
0.00580138
0.0141572
0.0325703
0.07077
0.00307741
0.000773587
0.000282923
0.000194094
0.000203704
0.000260113
0.000391931
0.000718462
0.00155951
0.00367554
0.00869908
0.0199011
0.0434692
0.0899818
0.00550841
0.0019375
0.000965927
0.000725783
0.000744165
0.000911618
0.00126307
0.00198652
0.00356577
0.00710918
0.0148762
0.0311357
0.0634906
0.123504
0.0113678
0.0052815
0.0030755
0.00238252
0.00238854
0.00285676
0.00381713
0.00556987
0.00884755
0.0152759
0.0280086
0.0526782
0.0986696
0.178481
0.0246879
0.0136414
0.00864369
0.00685473
0.00678848
0.00798429
0.0104476
0.0146494
0.0216155
0.0335455
0.0544716
0.0913748
0.155637
0.261319
0.0451967
0.0314908
0.0215072
0.0153087
0.0120433
0.0109766
0.0121098
0.0161675
0.0253016
0.0431866
0.0751802
0.12869
0.213614
0.34591
0.018078
0.0120791
0.00797924
0.00552965
0.00427964
0.00387474
0.00431268
0.00595739
0.00993878
0.0184308
0.0351617
0.066158
0.120209
0.212995
0.00697502
0.00421134
0.00264861
0.00178713
0.00137064
0.00124793
0.00143505
0.00213318
0.00397507
0.00833055
0.0178565
0.0372991
0.0745265
0.144382
0.00274027
0.00136795
0.000791226
0.000516231
0.000394205
0.000367167
0.000455426
0.00077992
0.00171655
0.00416011
0.0100157
0.0229618
0.0496355
0.102666
0.00124439
0.000456487
0.000220582
0.000134536
0.000102325
0.000101017
0.000147353
0.000317694
0.000847268
0.00233515
0.00614838
0.015111
0.0346622
0.0752831
0.000787593
0.000203697
6.70896e-05
3.32125e-05
2.46434e-05
2.80973e-05
5.52543e-05
0.000156431
0.000487657
0.00146635
0.00409691
0.0105776
0.0253872
0.0573594
0.000736118
0.000155586
3.25594e-05
9.56476e-06
6.24801e-06
9.81977e-06
2.83406e-05
9.81573e-05
0.000333565
0.00105104
0.00304208
0.0081122
0.0200935
0.0467076
0.000887256
0.000173049
2.91089e-05
5.63696e-06
3.34143e-06
6.89215e-06
2.27739e-05
8.20867e-05
0.000283026
0.000900858
0.00263478
0.00710659
0.0178168
0.0418545
0.0011979
0.000224511
3.81144e-05
1.05655e-05
9.17041e-06
1.45495e-05
3.37755e-05
0.000100669
0.000319376
0.000975858
0.00278529
0.00739106
0.0183099
0.0425634
0.00171323
0.00033417
7.58532e-05
3.92856e-05
4.13502e-05
5.53595e-05
9.11475e-05
0.000195083
0.000503613
0.00137492
0.0036627
0.00926182
0.022098
0.049709
0.00267291
0.00064204
0.000228561
0.000161081
0.000173338
0.000219884
0.00031462
0.000532027
0.00108024
0.00248101
0.00590579
0.0138166
0.0310447
0.066201
0.00485329
0.00161407
0.000782695
0.00060022
0.000633475
0.000785225
0.00107026
0.00161744
0.00276755
0.00534272
0.0110822
0.0234268
0.048722
0.0969821
0.0100478
0.00442454
0.00250047
0.00196153
0.00202372
0.00247027
0.00330588
0.00475792
0.00738509
0.012489
0.0226686
0.0427603
0.0811164
0.149038
0.0218815
0.0115457
0.00706922
0.00562843
0.00571875
0.00689233
0.00912341
0.0128043
0.0187697
0.0288855
0.0466234
0.078203
0.134247
0.227698
0.0409324
0.0287846
0.0194478
0.0133418
0.00975973
0.00802516
0.0079723
0.00996509
0.015414
0.0271351
0.0499259
0.0911291
0.159931
0.269859
0.0160148