/*--------------------------------*- C++ -*----------------------------------*\
| =========                 |                                                 |
| \\      /  F ield         | OpenFOAM: The Open Source CFD Toolbox           |
|  \\    /   O peration     | Version:  v2106                                 |
|   \\  /    A nd           | Website:  www.openfoam.com                      |
|    \\/     M anipulation  |                                                 |
\*---------------------------------------------------------------------------*/
FoamFile
{
    version     2.0;
    format      ascii;
    arch        "LSB;label=32;scalar=64";
    class       volScalarField;
    location    "0.000124";
    object      rho;
}
// * * * * * * * * * * * * * * * * * * * * * * * * * * * * * * * * * * * * * //

dimensions      [1 -3 0 0 0 0 0];

internalField   nonuniform List<scalar> 
18273
(
2.41646
2.42069
2.42397
2.42755
2.43054
2.43349
2.43604
2.43813
2.43975
2.44069
2.44113
2.44064
2.43947
2.43687
2.42054
2.42608
2.43018
2.43397
2.43701
2.44
2.44256
2.44455
2.44602
2.44685
2.44704
2.44617
2.44438
2.44089
2.42387
2.4301
2.43455
2.43846
2.44163
2.44463
2.44719
2.44914
2.45056
2.4513
2.45131
2.45032
2.44837
2.44452
2.42666
2.43311
2.4376
2.44157
2.44487
2.44801
2.45069
2.45278
2.45428
2.45506
2.45501
2.45391
2.45188
2.44781
2.4282
2.43463
2.43912
2.44326
2.44674
2.45007
2.45287
2.45509
2.45671
2.45764
2.45776
2.45666
2.45469
2.45057
2.42877
2.43534
2.44001
2.44439
2.44809
2.45154
2.45446
2.45681
2.45857
2.45965
2.45992
2.45891
2.45699
2.45285
2.42886
2.43558
2.4405
2.44514
2.44901
2.45256
2.45554
2.45803
2.45986
2.46107
2.46136
2.46041
2.45856
2.45439
2.42864
2.43561
2.44083
2.44569
2.44963
2.45317
2.45622
2.45879
2.46065
2.46182
2.46213
2.46125
2.45934
2.45522
2.42818
2.4354
2.44079
2.44576
2.44975
2.45325
2.45635
2.45887
2.46074
2.46181
2.46212
2.46135
2.45948
2.45547
2.42723
2.43461
2.44023
2.44529
2.44931
2.45278
2.45581
2.45825
2.46014
2.46124
2.46165
2.46074
2.45878
2.45484
2.42614
2.4336
2.4392
2.44418
2.4481
2.45152
2.45441
2.45668
2.45831
2.4594
2.4597
2.45875
2.45685
2.45303
2.42453
2.43195
2.43752
2.44238
2.44614
2.44935
2.45196
2.45403
2.45557
2.45653
2.45684
2.45573
2.45389
2.45021
2.42303
2.42985
2.43525
2.44
2.44374
2.44692
2.44931
2.45113
2.45231
2.45289
2.45275
2.45152
2.44984
2.44671
2.42029
2.42623
2.43105
2.43581
2.43945
2.44248
2.44463
2.44621
2.44699
2.44716
2.44672
2.44538
2.4442
2.44183
2.40181
2.40778
2.41252
2.41776
2.42193
2.42575
2.42928
2.43224
2.43466
2.43628
2.43697
2.43617
2.43318
2.42747
2.41177
2.41855
2.42383
2.42909
2.43304
2.43631
2.43923
2.4415
2.44318
2.44395
2.44398
2.44261
2.43911
2.4324
2.41916
2.42598
2.4317
2.43707
2.44113
2.44422
2.4468
2.4486
2.44971
2.44991
2.44927
2.44742
2.44365
2.43695
2.42417
2.43164
2.438
2.44357
2.44779
2.45077
2.45302
2.45441
2.45509
2.45505
2.45404
2.45171
2.4477
2.44082
2.42641
2.43514
2.44224
2.4482
2.4527
2.4559
2.45808
2.45926
2.45973
2.45911
2.45769
2.45515
2.45102
2.44424
2.42727
2.43713
2.44507
2.45153
2.45635
2.45976
2.46184
2.46279
2.4631
2.46234
2.4606
2.45763
2.4536
2.44696
2.42728
2.43789
2.44664
2.45312
2.45815
2.46179
2.46403
2.46509
2.4655
2.4645
2.46266
2.45951
2.45538
2.44881
2.42659
2.43771
2.44731
2.45399
2.4595
2.46321
2.46549
2.46648
2.46681
2.46573
2.46379
2.46049
2.45636
2.44984
2.42499
2.43684
2.44711
2.45379
2.45969
2.46355
2.46595
2.46705
2.46732
2.4662
2.46421
2.46083
2.4567
2.45024
2.42262
2.43488
2.44575
2.45282
2.45892
2.46287
2.46523
2.46632
2.46649
2.46539
2.46342
2.46011
2.45604
2.4498
2.41934
2.43237
2.44395
2.45129
2.45733
2.46116
2.46336
2.46438
2.46444
2.46327
2.46127
2.45803
2.45399
2.44802
2.41463
2.42795
2.43976
2.44777
2.4541
2.45809
2.46036
2.46128
2.46099
2.45954
2.45735
2.45425
2.45021
2.44454
2.40979
2.42283
2.4342
2.44228
2.44854
2.45246
2.45471
2.45574
2.45561
2.45423
2.45186
2.44832
2.44409
2.43856
2.40432
2.41651
2.42722
2.43521
2.4411
2.44458
2.44636
2.44685
2.44636
2.4446
2.44203
2.43831
2.43427
2.42961
2.42944
2.4388
2.44793
2.45595
2.46301
2.46942
2.47536
2.48085
2.48583
2.48944
2.4907
2.48914
2.48452
2.4731
2.45072
2.46033
2.46926
2.47682
2.48322
2.48893
2.49397
2.49838
2.50224
2.50472
2.50608
2.50362
2.49725
2.48471
2.46576
2.47699
2.48634
2.49411
2.5002
2.50548
2.50995
2.51359
2.51627
2.51742
2.5163
2.51327
2.50593
2.49347
2.47535
2.48824
2.49818
2.50655
2.5129
2.51801
2.52202
2.52501
2.52693
2.52746
2.52584
2.52138
2.51366
2.50113
2.47994
2.49456
2.50548
2.51488
2.52189
2.52727
2.53119
2.53385
2.53526
2.53527
2.53275
2.52763
2.51892
2.5055
2.48196
2.49755
2.51025
2.52069
2.52841
2.53392
2.53775
2.54016
2.54137
2.54102
2.53826
2.53282
2.52409
2.51054
2.4818
2.49799
2.51273
2.52392
2.53241
2.53833
2.54229
2.54468
2.54576
2.54516
2.54221
2.53653
2.52773
2.51416
2.4801
2.49764
2.51386
2.52581
2.53481
2.54095
2.54494
2.5473
2.54835
2.54761
2.54464
2.53889
2.53023
2.51681
2.47675
2.49593
2.51333
2.52623
2.53586
2.54249
2.54663
2.54903
2.5499
2.54895
2.54589
2.54004
2.53156
2.51834
2.47242
2.49323
2.51176
2.52551
2.53551
2.54238
2.54651
2.5489
2.54959
2.54844
2.54527
2.53943
2.53128
2.51838
2.4661
2.48877
2.50838
2.52278
2.53309
2.54013
2.54423
2.54652
2.54691
2.54545
2.54201
2.53615
2.52819
2.51654
2.45919
2.48352
2.50359
2.51831
2.52855
2.53519
2.53908
2.54108
2.54114
2.53936
2.53561
2.52987
2.52159
2.51136
2.4494
2.47589
2.49591
2.51019
2.52009
2.52664
2.5305
2.53206
2.53172
2.52948
2.52533
2.51946
2.51111
2.50136
2.43914
2.46723
2.48679
2.50109
2.51043
2.51518
2.51737
2.51805
2.51708
2.5143
2.50987
2.50378
2.4956
2.484
2.43434
2.42985
2.42831
2.42499
2.42573
2.42389
2.43693
2.43123
2.42902
2.42502
2.42443
2.42308
2.44008
2.43345
2.43025
2.42512
2.42468
2.42324
2.44309
2.43554
2.43144
2.42539
2.42475
2.42282
2.4457
2.43767
2.43305
2.42655
2.42565
2.42431
2.44785
2.43959
2.43469
2.4281
2.42743
2.42561
2.44943
2.44121
2.43636
2.43009
2.42944
2.42714
2.45034
2.44251
2.4379
2.43195
2.43132
2.42897
2.4507
2.44313
2.43918
2.43369
2.4333
2.43094
2.45041
2.44353
2.44003
2.43479
2.43437
2.43157
2.44872
2.4425
2.43981
2.43491
2.43502
2.43246
2.44631
2.44066
2.43843
2.43427
2.43362
2.43113
2.44319
2.43828
2.43619
2.4321
2.43265
2.4304
2.43976
2.43525
2.43328
2.42902
2.42812
2.42599
2.42172
2.41201
2.40932
2.4006
2.40085
2.39517
2.42493
2.4142
2.40947
2.40019
2.39908
2.39068
2.42788
2.41623
2.41005
2.39971
2.39848
2.38827
2.43133
2.4184
2.4111
2.39997
2.39882
2.38689
2.43457
2.42104
2.41305
2.40213
2.40152
2.38946
2.43737
2.42358
2.41537
2.40493
2.40513
2.39276
2.43959
2.42618
2.41836
2.40894
2.40977
2.39709
2.4411
2.42869
2.42157
2.41327
2.41466
2.40266
2.44194
2.43064
2.42454
2.41714
2.41864
2.4074
2.44233
2.43248
2.42671
2.41948
2.42054
2.41008
2.44129
2.43206
2.42679
2.41965
2.42057
2.4119
2.4384
2.42929
2.42503
2.41839
2.41848
2.41079
2.43298
2.42401
2.42005
2.41328
2.41452
2.40606
2.42576
2.41695
2.41355
2.40614
2.40583
2.39911
2.46171
2.43985
2.41628
2.38195
2.36431
2.31402
2.46931
2.44497
2.41973
2.38293
2.35763
2.29038
2.47632
2.4501
2.4217
2.38023
2.35291
2.27176
2.48324
2.45581
2.42515
2.38119
2.35262
2.26229
2.48741
2.46008
2.42926
2.38457
2.35617
2.26264
2.49236
2.4648
2.43411
2.39025
2.36364
2.27292
2.49651
2.46943
2.43987
2.39808
2.37403
2.29098
2.50008
2.47372
2.44584
2.40664
2.38488
2.31307
2.5028
2.47714
2.45132
2.41513
2.39464
2.33341
2.50392
2.47946
2.45499
2.4211
2.40197
2.34904
2.50291
2.47924
2.45676
2.42512
2.40762
2.35811
2.49733
2.47462
2.45313
2.42166
2.40451
2.35774
2.48822
2.46436
2.44311
2.41156
2.39514
2.34636
2.46825
2.44408
2.42276
2.39027
2.37303
2.32306
2.43728
2.43293
2.43017
2.4264
2.42605
2.42415
2.4392
2.43316
2.42972
2.42444
2.42357
2.42108
2.43963
2.43256
2.42861
2.42274
2.4213
2.41841
2.4406
2.43232
2.42755
2.4209
2.41944
2.41608
2.44104
2.43218
2.42695
2.42002
2.41865
2.41498
2.44101
2.43199
2.42663
2.41992
2.41854
2.41593
2.44055
2.4316
2.42638
2.41977
2.41904
2.41543
2.43933
2.4306
2.42582
2.41961
2.41919
2.41523
2.43749
2.42916
2.4251
2.41917
2.4193
2.41573
2.43476
2.42698
2.42353
2.41849
2.41852
2.41553
2.43138
2.42421
2.42128
2.41654
2.41813
2.41469
2.42693
2.42053
2.41819
2.41438
2.41439
2.41177
2.42235
2.41671
2.41516
2.4121
2.41214
2.40983
2.41722
2.41272
2.41159
2.40768
2.40763
2.40581
2.42078
2.41088
2.40765
2.40005
2.40065
2.3933
2.42556
2.41416
2.40847
2.3986
2.39724
2.3873
2.42777
2.41431
2.40718
2.39612
2.39432
2.38203
2.43068
2.41563
2.40697
2.39553
2.39353
2.37935
2.43299
2.41736
2.40803
2.39642
2.39472
2.38075
2.43478
2.41919
2.40984
2.39845
2.39704
2.38251
2.43567
2.4208
2.41183
2.40121
2.4
2.38493
2.43583
2.42198
2.41357
2.40347
2.40227
2.38808
2.43488
2.42222
2.41465
2.4051
2.4036
2.39038
2.43221
2.42039
2.41366
2.40342
2.40134
2.38891
2.42727
2.41583
2.40953
2.39974
2.39904
2.38729
2.41944
2.40735
2.40128
2.39032
2.38877
2.37885
2.40981
2.39728
2.39175
2.38102
2.38023
2.37087
2.39892
2.38658
2.38159
2.37017
2.36959
2.3606
2.46851
2.43802
2.41266
2.37546
2.35636
2.29714
2.47849
2.4493
2.42069
2.37942
2.35299
2.27658
2.4851
2.45518
2.42344
2.37772
2.34805
2.25748
2.491
2.46045
2.42726
2.37941
2.34839
2.24929
2.49535
2.46492
2.43167
2.38378
2.35273
2.25157
2.49855
2.46865
2.43622
2.38989
2.36048
2.26392
2.50036
2.47127
2.44042
2.39659
2.36947
2.28247
2.50089
2.4729
2.44356
2.4023
2.37714
2.30192
2.49877
2.47253
2.44499
2.40677
2.3833
2.31554
2.49414
2.46842
2.44197
2.40608
2.38447
2.32262
2.48461
2.45889
2.43324
2.39796
2.37744
2.31613
2.46935
2.44329
2.41831
2.38252
2.36178
2.30125
2.45122
2.42154
2.39468
2.35687
2.33599
2.27142
2.41811
2.38719
2.3616
2.32608
2.30635
2.23626
2.40525
2.40678
2.40605
2.40799
2.40887
2.41299
2.40462
2.40604
2.40545
2.40798
2.40981
2.41558
2.40626
2.40788
2.40639
2.4093
2.41157
2.41844
2.40446
2.40621
2.40591
2.41011
2.41273
2.42059
2.40472
2.40653
2.40615
2.4105
2.41365
2.42181
2.4035
2.40568
2.40543
2.40973
2.41359
2.42247
2.40289
2.40516
2.40502
2.40914
2.41338
2.42235
2.40076
2.40377
2.40402
2.4082
2.41258
2.4218
2.39978
2.40303
2.40333
2.40763
2.41188
2.42105
2.40004
2.40261
2.40263
2.40704
2.41095
2.42006
2.39874
2.4018
2.4019
2.40673
2.41056
2.41911
2.39906
2.40145
2.40159
2.40678
2.41036
2.41792
2.40026
2.4024
2.40266
2.40795
2.41067
2.41696
2.40271
2.40486
2.4051
2.40923
2.41161
2.41554
2.36361
2.37141
2.3716
2.38203
2.38598
2.39726
2.36835
2.37668
2.37853
2.38948
2.39439
2.40579
2.37656
2.38691
2.38763
2.39691
2.40215
2.41266
2.3845
2.39386
2.39445
2.40309
2.40796
2.4173
2.38693
2.39674
2.3965
2.40457
2.4088
2.41851
2.38556
2.39543
2.39519
2.40359
2.40775
2.4182
2.38207
2.39252
2.39182
2.40019
2.40487
2.41693
2.3744
2.38676
2.38595
2.39521
2.40097
2.41486
2.36711
2.38046
2.37957
2.39006
2.39678
2.41211
2.35998
2.37412
2.37339
2.38518
2.3927
2.40903
2.35352
2.36774
2.36827
2.3812
2.38935
2.40554
2.34913
2.36279
2.36452
2.37754
2.38578
2.40151
2.34963
2.3626
2.36445
2.37791
2.38574
2.39916
2.35319
2.36358
2.36423
2.37523
2.38092
2.39269
2.25349
2.31219
2.33176
2.36338
2.38428
2.40961
2.28495
2.337
2.35616
2.38942
2.41118
2.436
2.31587
2.36268
2.3795
2.40797
2.42767
2.45015
2.3303
2.37459
2.38939
2.4177
2.43758
2.4607
2.33696
2.37964
2.39352
2.42031
2.43971
2.4641
2.32788
2.37503
2.38891
2.41739
2.43805
2.46294
2.31346
2.3677
2.38068
2.41108
2.4333
2.45956
2.2895
2.35579
2.36893
2.40246
2.42732
2.4554
2.26207
2.34118
2.35662
2.39342
2.42078
2.45075
2.23451
2.32625
2.34502
2.38435
2.41369
2.44527
2.21317
2.31358
2.33508
2.37617
2.40667
2.439
2.20047
2.30307
2.32631
2.36708
2.39835
2.43153
2.19963
2.29674
2.32134
2.36191
2.39159
2.42433
2.20888
2.29136
2.31524
2.35299
2.38035
2.4131
2.42288
2.42433
2.42411
2.42694
2.42901
2.43332
2.4234
2.42506
2.42453
2.42779
2.42977
2.43481
2.42266
2.42402
2.42344
2.42718
2.42975
2.43552
2.42175
2.42334
2.42271
2.42644
2.42904
2.43564
2.4195
2.42103
2.42052
2.42442
2.4274
2.4348
2.4175
2.41905
2.41876
2.42242
2.42585
2.43353
2.41427
2.41642
2.41618
2.41981
2.42338
2.4316
2.41089
2.41363
2.4136
2.41728
2.42081
2.42931
2.40864
2.41118
2.41101
2.41493
2.41827
2.42676
2.40744
2.40945
2.40887
2.41288
2.4158
2.42394
2.40514
2.40746
2.4068
2.41086
2.41335
2.42117
2.40326
2.40542
2.40494
2.40909
2.41118
2.41803
2.40361
2.40543
2.40478
2.40853
2.40972
2.41555
2.40334
2.40526
2.40511
2.40806
2.40918
2.41259
2.39784
2.40531
2.4053
2.41166
2.41585
2.4233
2.40329
2.41008
2.41081
2.417
2.42087
2.42836
2.4042
2.41139
2.41137
2.41839
2.42249
2.43053
2.40445
2.41183
2.41166
2.41866
2.42324
2.43112
2.40211
2.40953
2.40922
2.41592
2.42012
2.42935
2.39769
2.40587
2.40468
2.41136
2.41603
2.4264
2.39098
2.40042
2.39839
2.40556
2.41081
2.42255
2.3825
2.39358
2.39127
2.39938
2.4053
2.41839
2.3734
2.38576
2.38394
2.3934
2.39988
2.41412
2.36614
2.37898
2.37751
2.38805
2.39488
2.40988
2.36024
2.37309
2.37233
2.384
2.39098
2.40616
2.35549
2.36804
2.36818
2.38005
2.38748
2.40152
2.35523
2.36672
2.3678
2.38031
2.38697
2.39937
2.35609
2.36565
2.36598
2.3769
2.38168
2.39294
2.34117
2.38195
2.39596
2.42293
2.4399
2.45856
2.36361
2.39939
2.41276
2.43676
2.45287
2.4727
2.37341
2.40612
2.41745
2.4408
2.45701
2.47599
2.37124
2.40337
2.41464
2.43775
2.45501
2.47578
2.36217
2.39715
2.40733
2.43113
2.44896
2.47138
2.3446
2.38591
2.3951
2.42118
2.44057
2.46517
2.32072
2.37171
2.38083
2.40983
2.43125
2.45841
2.29289
2.35617
2.3663
2.39835
2.42233
2.45173
2.2649
2.3402
2.35311
2.38814
2.41436
2.44513
2.24012
2.32541
2.34175
2.37914
2.40681
2.43837
2.22103
2.3127
2.33294
2.37216
2.39998
2.43112
2.21082
2.30248
2.3259
2.36563
2.39323
2.42374
2.21201
2.29769
2.32348
2.36222
2.38722
2.41663
2.22332
2.29431
2.31908
2.35471
2.3778
2.40653
2.50645
2.50732
2.51357
2.51627
2.52009
2.52235
2.52538
2.5287
2.53303
2.53782
2.54259
2.54528
2.54865
2.54545
2.52375
2.52626
2.53056
2.53359
2.53653
2.53886
2.5418
2.54482
2.54865
2.55235
2.55524
2.55656
2.5566
2.55081
2.52985
2.53716
2.5426
2.54666
2.5498
2.55241
2.55521
2.5578
2.56065
2.56305
2.56433
2.5644
2.56235
2.55649
2.53501
2.54442
2.55107
2.55622
2.55996
2.56305
2.56579
2.56807
2.5702
2.57168
2.57198
2.57103
2.56716
2.56024
2.53713
2.54776
2.55596
2.5624
2.5671
2.57071
2.57359
2.57577
2.57743
2.57827
2.57775
2.57581
2.5709
2.56358
2.53706
2.54952
2.55925
2.56679
2.57236
2.57648
2.57953
2.58166
2.58303
2.58345
2.58241
2.57978
2.57426
2.56627
2.53644
2.55025
2.56127
2.56984
2.57618
2.58075
2.58396
2.58608
2.58725
2.58742
2.58602
2.58299
2.57728
2.56912
2.53589
2.55092
2.56304
2.57243
2.57934
2.58426
2.5876
2.5897
2.59068
2.59059
2.58894
2.5856
2.57982
2.57153
2.53522
2.55093
2.56402
2.57416
2.58151
2.58664
2.59005
2.59209
2.593
2.59274
2.59093
2.58748
2.58193
2.57384
2.53522
2.55154
2.56505
2.57549
2.58299
2.58817
2.59161
2.59357
2.5944
2.59398
2.59206
2.58858
2.58337
2.57576
2.53329
2.551
2.56498
2.57567
2.58314
2.58816
2.59153
2.59342
2.59421
2.59373
2.59186
2.58853
2.5838
2.57706
2.53253
2.55116
2.56486
2.5751
2.58209
2.58663
2.58971
2.5914
2.59207
2.59161
2.58988
2.58687
2.58246
2.57661
2.52707
2.54899
2.56211
2.57225
2.579
2.58318
2.58588
2.58721
2.58756
2.58708
2.58557
2.58315
2.57935
2.57561
2.52836
2.54899
2.56072
2.56948
2.57496
2.57794
2.57979
2.58055
2.58052
2.57986
2.57825
2.57598
2.57177
2.56918
2.56795
2.56542
2.56782
2.56707
2.56776
2.5674
2.56833
2.57062
2.57467
2.57971
2.58558
2.59114
2.59772
2.59885
2.57861
2.57794
2.57883
2.57936
2.57998
2.58042
2.58197
2.58437
2.58818
2.59267
2.59737
2.60143
2.60428
2.60375
2.57934
2.58426
2.58704
2.58886
2.59032
2.59168
2.59373
2.596
2.59905
2.60236
2.60539
2.60804
2.60876
2.6084
2.58197
2.58879
2.59264
2.59602
2.59859
2.60086
2.60309
2.60526
2.60775
2.61021
2.61213
2.61358
2.61266
2.6103
2.58245
2.5904
2.59646
2.60112
2.60468
2.60766
2.61026
2.61252
2.61468
2.61647
2.61742
2.61765
2.61568
2.61227
2.58149
2.59141
2.599
2.60491
2.60953
2.61318
2.61607
2.6184
2.62029
2.62158
2.62191
2.62126
2.61848
2.61414
2.58132
2.59236
2.60128
2.60821
2.61358
2.61768
2.6208
2.62318
2.62487
2.62578
2.62564
2.62433
2.62117
2.61632
2.58235
2.59409
2.60392
2.61153
2.61733
2.6217
2.62494
2.62731
2.62883
2.62945
2.62895
2.62722
2.62374
2.6184
2.58401
2.59591
2.60636
2.61448
2.62058
2.62513
2.62844
2.63078
2.63217
2.6326
2.63189
2.62994
2.62639
2.62093
2.58736
2.59901
2.60929
2.61735
2.62339
2.62784
2.6311
2.63335
2.63467
2.63504
2.63428
2.63229
2.62891
2.62358
2.58899
2.6012
2.61155
2.61953
2.6254
2.62962
2.63276
2.63494
2.63623
2.63667
2.63599
2.63415
2.63121
2.62639
2.593
2.60487
2.61414
2.62137
2.62666
2.63033
2.63317
2.63523
2.63651
2.63711
2.63667
2.63521
2.63279
2.6287
2.59188
2.60675
2.61493
2.62189
2.62662
2.6297
2.63219
2.63395
2.63507
2.63576
2.63579
2.635
2.63335
2.63128
2.5976
2.61062
2.6169
2.6223
2.62595
2.62789
2.62984
2.63132
2.63227
2.63295
2.63331
2.63302
2.63135
2.62986
2.61509
2.61202
2.6112
2.60914
2.60763
2.60616
2.60608
2.60732
2.61074
2.61525
2.62065
2.62598
2.63422
2.63873
2.62033
2.61932
2.61771
2.61649
2.61549
2.61489
2.61538
2.61713
2.6202
2.62441
2.62928
2.63477
2.63965
2.64283
2.6189
2.62147
2.62197
2.62155
2.62191
2.62252
2.62368
2.62542
2.628
2.63135
2.6348
2.63885
2.64214
2.64528
2.61976
2.6231
2.62468
2.62639
2.62765
2.62886
2.63028
2.63203
2.63437
2.63722
2.63999
2.64326
2.6452
2.64606
2.61928
2.62425
2.6273
2.6298
2.63191
2.6338
2.63565
2.63756
2.63973
2.6421
2.64419
2.6464
2.64736
2.6477
2.61896
2.625
2.62953
2.6331
2.63599
2.63834
2.64041
2.64236
2.64436
2.64633
2.64795
2.64938
2.64975
2.64942
2.61996
2.62671
2.63221
2.63646
2.63982
2.6425
2.64476
2.64674
2.64857
2.65019
2.65139
2.6522
2.65213
2.65128
2.62226
2.62952
2.63562
2.64025
2.64384
2.64669
2.64905
2.65103
2.65272
2.65405
2.65489
2.65524
2.65474
2.65328
2.62545
2.63272
2.63911
2.64399
2.64776
2.65076
2.65322
2.65522
2.65681
2.65794
2.6585
2.65852
2.65773
2.65588
2.63044
2.63735
2.64342
2.64811
2.65178
2.65475
2.65725
2.65924
2.66077
2.66176
2.66215
2.66198
2.66106
2.65889
2.63452
2.64148
2.64738
2.65193
2.65552
2.6584
2.6609
2.66292
2.66444
2.66544
2.6658
2.6656
2.66484
2.66255
2.64071
2.64719
2.65195
2.65587
2.65909
2.66162
2.664
2.666
2.66754
2.66867
2.66915
2.66917
2.66887
2.66642
2.6427
2.65129
2.65542
2.65927
2.66204
2.66411
2.66624
2.66814
2.66966
2.67103
2.67188
2.67243
2.67287
2.67104
2.65022
2.65772
2.6595
2.66195
2.66422
2.66574
2.6677
2.66956
2.67106
2.67262
2.67377
2.6749
2.67499
2.67438
2.64077
2.63712
2.63528
2.63266
2.63056
2.62903
2.62891
2.63006
2.63307
2.63711
2.64234
2.64903
2.65647
2.66147
2.6435
2.64162
2.63985
2.63805
2.63686
2.63616
2.63659
2.63825
2.64116
2.64517
2.65006
2.6555
2.66072
2.66453
2.64177
2.6425
2.64266
2.64192
2.64199
2.64237
2.64344
2.64513
2.64763
2.65089
2.65445
2.65873
2.66275
2.66725
2.6424
2.64426
2.64496
2.64586
2.64669
2.64763
2.64899
2.65075
2.65312
2.65604
2.65911
2.66267
2.66539
2.66764
2.64213
2.64544
2.64737
2.6491
2.65066
2.65216
2.65383
2.6557
2.65793
2.66046
2.66292
2.6656
2.66746
2.66911
2.6423
2.64679
2.64998
2.6525
2.65463
2.6565
2.65834
2.66024
2.6623
2.66449
2.66654
2.66856
2.66974
2.67053
2.64386
2.64896
2.65295
2.65604
2.65855
2.6607
2.6627
2.66461
2.66652
2.66838
2.67004
2.67148
2.67218
2.67257
2.64664
2.65214
2.6566
2.66002
2.66274
2.66505
2.66714
2.66904
2.6708
2.67238
2.67367
2.67463
2.67491
2.67471
2.65002
2.65567
2.66038
2.66405
2.66695
2.66941
2.6716
2.6735
2.67515
2.6765
2.67751
2.67813
2.67819
2.67751
2.65526
2.66053
2.66495
2.66852
2.67139
2.67387
2.67609
2.67797
2.67953
2.68072
2.68152
2.68187
2.6818
2.68063
2.65999
2.66525
2.66943
2.67297
2.6758
2.67824
2.68046
2.68231
2.68382
2.68494
2.68565
2.68589
2.68592
2.68431
2.66682
2.67123
2.67448
2.67758
2.68021
2.68245
2.68457
2.68637
2.68785
2.68902
2.68977
2.69005
2.69048
2.68841
2.67112
2.67663
2.67902
2.68199
2.68421
2.68606
2.68799
2.68971
2.69118
2.69253
2.6935
2.69408
2.69515
2.69375
2.67874
2.68335
2.68457
2.68588
2.68762
2.68899
2.69075
2.69242
2.69389
2.69552
2.69673
2.69791
2.69873
2.69921
2.65411
2.65044
2.64884
2.6463
2.64448
2.6431
2.64304
2.64413
2.64688
2.65047
2.65555
2.66146
2.66798
2.67309
2.65662
2.65428
2.6528
2.65105
2.65004
2.64943
2.64984
2.65138
2.65399
2.65758
2.66193
2.66677
2.67166
2.67558
2.65549
2.65514
2.65524
2.65462
2.65462
2.65481
2.65576
2.65729
2.65956
2.66254
2.66591
2.66994
2.6741
2.67827
2.65673
2.65734
2.65795
2.65824
2.65882
2.65946
2.66065
2.66223
2.66442
2.66717
2.67016
2.67351
2.67636
2.67917
2.65674
2.65882
2.66029
2.66145
2.66257
2.66364
2.66503
2.66667
2.66875
2.67118
2.67365
2.67627
2.67844
2.68041
2.65726
2.66072
2.66309
2.66485
2.66637
2.66773
2.66925
2.67091
2.67286
2.67501
2.67713
2.67927
2.68084
2.68201
2.65894
2.66308
2.66612
2.66838
2.67021
2.67183
2.67347
2.67515
2.67697
2.67883
2.68059
2.68222
2.68323
2.68394
2.66171
2.66629
2.66975
2.67234
2.67436
2.67615
2.67787
2.67955
2.68122
2.68281
2.68423
2.6854
2.68602
2.68627
2.66505
2.66985
2.67353
2.67644
2.67866
2.68062
2.68242
2.68409
2.68564
2.68698
2.68813
2.68893
2.68935
2.68907
2.67
2.67459
2.67809
2.68101
2.68326
2.68527
2.68709
2.68872
2.69016
2.69132
2.69226
2.69278
2.69309
2.69222
2.6747
2.67936
2.68259
2.6856
2.68789
2.68992
2.69175
2.69334
2.6947
2.69575
2.6966
2.69694
2.69736
2.69595
2.68113
2.68514
2.68778
2.69042
2.69263
2.69454
2.6963
2.69782
2.69912
2.70017
2.70102
2.70129
2.70197
2.70022
2.68576
2.69038
2.69218
2.69487
2.69686
2.69852
2.7002
2.7017
2.70301
2.70417
2.70516
2.70558
2.70661
2.70571
2.69325
2.69673
2.69785
2.69948
2.70083
2.70213
2.70364
2.70507
2.70642
2.70787
2.70906
2.71012
2.71084
2.71162
2.6603
2.65704
2.65573
2.65351
2.65223
2.65131
2.65154
2.65292
2.65538
2.65876
2.66323
2.66831
2.67389
2.67863
2.66266
2.6605
2.65935
2.65787
2.65721
2.65693
2.65757
2.65922
2.66165
2.66503
2.6688
2.6731
2.67738
2.68106
2.66231
2.66168
2.66179
2.66127
2.66137
2.66174
2.66281
2.66438
2.6666
2.66943
2.67251
2.67622
2.67994
2.68373
2.66408
2.66411
2.66471
2.66472
2.66535
2.66602
2.66729
2.66891
2.6711
2.67377
2.67657
2.67963
2.68224
2.68514
2.66453
2.666
2.66723
2.66808
2.66905
2.67008
2.67149
2.67315
2.67523
2.67759
2.67997
2.68242
2.68454
2.6865
2.66568
2.66832
2.67018
2.67157
2.67286
2.67413
2.67564
2.67732
2.67931
2.68146
2.68357
2.68564
2.68718
2.68842
2.66756
2.67093
2.67334
2.67521
2.67677
2.67827
2.67987
2.68158
2.68345
2.68536
2.68714
2.68874
2.6898
2.69046
2.67039
2.67426
2.67702
2.67923
2.68098
2.68264
2.6843
2.68601
2.68776
2.68942
2.69089
2.69207
2.69277
2.69299
2.67369
2.67786
2.68086
2.68337
2.68533
2.68716
2.6889
2.69059
2.69221
2.69363
2.69483
2.69562
2.69615
2.69589
2.67832
2.68242
2.68535
2.68794
2.68994
2.69182
2.69359
2.69522
2.69672
2.69792
2.69892
2.69942
2.69987
2.69906
2.68277
2.68698
2.68973
2.69243
2.69446
2.69638
2.69816
2.69976
2.70118
2.70224
2.70315
2.70344
2.70396
2.70265
2.68856
2.69235
2.69468
2.69716
2.6991
2.70093
2.70263
2.70415
2.7055
2.7065
2.70742
2.7076
2.70827
2.70684
2.6931
2.69727
2.69897
2.70134
2.70318
2.7048
2.70643
2.70794
2.70931
2.7104
2.71146
2.71173
2.71245
2.71187
2.70006
2.70299
2.70399
2.70586
2.70708
2.70837
2.70984
2.71126
2.71266
2.714
2.71529
2.71616
2.71651
2.71732
2.66391
2.66105
2.66007
2.6584
2.65756
2.65697
2.65736
2.65872
2.6609
2.66395
2.66771
2.672
2.67666
2.68089
2.66611
2.66427
2.66334
2.66222
2.66181
2.66173
2.66248
2.66404
2.66626
2.66924
2.67245
2.67612
2.67987
2.68336
2.66634
2.66572
2.66577
2.66541
2.66558
2.66603
2.66711
2.66861
2.67064
2.67316
2.67588
2.67908
2.6824
2.68592
2.66838
2.66823
2.66865
2.66871
2.66935
2.67
2.67125
2.67279
2.67481
2.67721
2.6797
2.68236
2.68476
2.68756
2.66928
2.6703
2.67129
2.67201
2.67292
2.6739
2.67526
2.67684
2.67876
2.68089
2.68302
2.6852
2.68724
2.68921
2.67086
2.67279
2.67429
2.67546
2.67663
2.67783
2.67929
2.68091
2.68277
2.68473
2.68664
2.6885
2.69001
2.69137
2.67293
2.67554
2.67749
2.67907
2.68046
2.68188
2.68342
2.68509
2.68688
2.68865
2.69028
2.69172
2.6928
2.69358
2.67593
2.67897
2.68117
2.68305
2.68458
2.68614
2.68774
2.68942
2.69113
2.6927
2.69407
2.69513
2.69587
2.69615
2.67926
2.68262
2.68499
2.68714
2.68882
2.69052
2.69218
2.69385
2.69547
2.69684
2.69798
2.6987
2.69926
2.69906
2.68371
2.68705
2.68934
2.69154
2.69325
2.69499
2.69666
2.69829
2.6998
2.701
2.70201
2.70249
2.70295
2.70224
2.68792
2.69142
2.6936
2.69586
2.69759
2.69934
2.70102
2.70262
2.70406
2.70515
2.70608
2.70638
2.70687
2.70571
2.69315
2.69641
2.69823
2.70033
2.70196
2.70363
2.70525
2.7068
2.70819
2.70919
2.7101
2.71029
2.71089
2.70963
2.69738
2.70099
2.70238
2.70435
2.70589
2.7074
2.70898
2.71054
2.71194
2.71297
2.71392
2.71413
2.7147
2.71419
2.70377
2.70617
2.70684
2.70854
2.70968
2.71091
2.7124
2.71392
2.71533
2.71654
2.71763
2.71841
2.71858
2.71927
2.6621
2.66402
2.66658
2.66971
2.67335
2.67737
2.68135
2.66661
2.6686
2.67112
2.67388
2.67711
2.68045
2.68379
2.67066
2.67249
2.67466
2.67709
2.67998
2.68298
2.68643
2.67463
2.67644
2.67854
2.68076
2.68313
2.68562
2.68829
2.67855
2.68026
2.68211
2.68402
2.68604
2.68797
2.69023
2.68253
2.68419
2.68592
2.68766
2.68941
2.69097
2.69248
2.68659
2.68822
2.6898
2.69133
2.69273
2.69393
2.6949
2.69078
2.69239
2.69385
2.69516
2.69621
2.69707
2.69743
2.68255
2.68518
2.68702
2.68884
2.69028
2.69185
2.69344
2.69508
2.69664
2.69795
2.69907
2.6998
2.70044
2.7003
2.68667
2.6893
2.69107
2.69293
2.69441
2.69608
2.69773
2.69936
2.70083
2.70196
2.70291
2.7034
2.70394
2.70338
2.6906
2.69338
2.69506
2.69701
2.69855
2.70026
2.70192
2.7035
2.70486
2.70585
2.70672
2.70704
2.7076
2.70665
2.69531
2.69793
2.69935
2.70123
2.70272
2.70436
2.70595
2.70743
2.70872
2.70963
2.71047
2.71068
2.7113
2.71033
2.69925
2.70222
2.70336
2.70515
2.70655
2.70807
2.70958
2.71103
2.7123
2.71323
2.71407
2.71426
2.71483
2.7145
2.70497
2.70699
2.70757
2.70917
2.71031
2.71155
2.71294
2.71435
2.7156
2.71666
2.7176
2.7183
2.71852
2.71918
2.49508
2.48842
2.48338
2.48587
2.50991
2.54173
2.48897
2.47665
2.46979
2.47208
2.49678
2.53623
2.49477
2.47914
2.4703
2.4689
2.49126
2.53664
2.49631
2.47847
2.46642
2.46154
2.48089
2.52665
2.50028
2.47929
2.46413
2.45575
2.46984
2.50948
2.50292
2.4807
2.4636
2.45285
2.46202
2.4946
2.50681
2.48387
2.46649
2.45513
2.46156
2.48689
2.51203
2.48984
2.47431
2.46345
2.4677
2.48538
2.51829
2.49782
2.48524
2.47572
2.47975
2.49429
2.52504
2.50756
2.49823
2.48989
2.49431
2.50897
2.53153
2.51872
2.51188
2.5049
2.51108
2.52564
2.53503
2.5271
2.52281
2.51695
2.52577
2.542
2.54179
2.53548
2.53127
2.52617
2.53825
2.55572
2.53484
2.53169
2.52644
2.52443
2.54126
2.56503
2.56535
2.56922
2.56988
2.57926
2.59774
2.61509
2.55298
2.55281
2.55741
2.56881
2.59132
2.61617
2.55616
2.55142
2.55384
2.56562
2.58986
2.61913
2.55338
2.54665
2.54626
2.55385
2.57578
2.60567
2.55338
2.54242
2.53766
2.53935
2.55541
2.57787
2.55237
2.5388
2.53041
2.5268
2.53641
2.55093
2.55296
2.53758
2.52673
2.52046
2.52547
2.53292
2.5561
2.53981
2.52825
2.52067
2.52248
2.5245
2.56181
2.54613
2.53549
2.52758
2.52878
2.52817
2.56926
2.55473
2.54687
2.54009
2.54216
2.53966
2.57739
2.56585
2.56117
2.55606
2.55954
2.5567
2.58496
2.57773
2.57532
2.57276
2.57825
2.57614
2.59413
2.59026
2.59057
2.58972
2.59687
2.59695
2.59027
2.59102
2.59224
2.59628
2.60779
2.61542
2.61849
2.62494
2.62479
2.62848
2.63776
2.64977
2.60391
2.60631
2.61183
2.62119
2.63387
2.64991
2.60441
2.60348
2.60652
2.61461
2.63105
2.6507
2.60035
2.59696
2.59836
2.60487
2.61872
2.63713
2.59793
2.5919
2.59013
2.59164
2.5988
2.60945
2.59541
2.58628
2.5811
2.57797
2.5789
2.58254
2.59498
2.58375
2.57581
2.56875
2.56558
2.56389
2.59658
2.58451
2.57562
2.56609
2.5602
2.55419
2.60101
2.58959
2.57983
2.56969
2.56379
2.55723
2.60775
2.59753
2.58913
2.58084
2.57618
2.57091
2.6164
2.60667
2.6019
2.59594
2.59348
2.59131
2.62514
2.61809
2.61674
2.61398
2.6141
2.61395
2.63553
2.63121
2.63294
2.63265
2.6355
2.63758
2.63418
2.63586
2.63823
2.64267
2.64919
2.65638
2.64578
2.65296
2.65486
2.6563
2.65954
2.66583
2.63213
2.63503
2.63938
2.64637
2.65564
2.66587
2.63068
2.6314
2.63344
2.63943
2.65055
2.66383
2.62546
2.62275
2.62312
2.628
2.63827
2.65227
2.62208
2.61647
2.61426
2.61586
2.62105
2.6275
2.6195
2.61082
2.60533
2.60209
2.60133
2.60056
2.61897
2.608
2.59965
2.59213
2.58626
2.57952
2.62051
2.60836
2.59936
2.58892
2.58005
2.56949
2.6247
2.61292
2.60322
2.59141
2.58252
2.57138
2.63083
2.62074
2.61208
2.60197
2.59477
2.5848
2.63841
2.63023
2.62399
2.61685
2.61179
2.60508
2.64562
2.64084
2.63829
2.63463
2.63243
2.62924
2.65601
2.65345
2.65428
2.65344
2.65413
2.65349
2.65823
2.66003
2.66161
2.66471
2.66872
2.67274
2.65781
2.66288
2.6646
2.66582
2.66776
2.67213
2.64649
2.64844
2.65052
2.65454
2.66055
2.66877
2.6446
2.64473
2.64403
2.6457
2.65147
2.66256
2.63941
2.63585
2.63317
2.63353
2.63855
2.64909
2.63626
2.62953
2.62397
2.62156
2.62294
2.62815
2.63403
2.62471
2.61619
2.61014
2.60635
2.60546
2.63357
2.62247
2.61153
2.60216
2.59324
2.58638
2.63486
2.6232
2.61176
2.60094
2.58903
2.5784
2.63868
2.6279
2.61676
2.60473
2.59283
2.58157
2.64415
2.63489
2.62543
2.61477
2.60591
2.59584
2.6507
2.64339
2.63675
2.62948
2.62319
2.61607
2.65768
2.6533
2.64983
2.64615
2.64352
2.6403
2.66667
2.66463
2.6647
2.66405
2.66404
2.66386
2.67041
2.67201
2.67286
2.67519
2.67812
2.68183
2.66337
2.66721
2.66855
2.67017
2.67213
2.67561
2.65365
2.65497
2.65601
2.65874
2.66298
2.66854
2.65198
2.65161
2.65023
2.65021
2.65236
2.65881
2.6474
2.64376
2.64003
2.63837
2.63979
2.64596
2.64495
2.63842
2.63179
2.62676
2.62503
2.62693
2.64329
2.63457
2.6254
2.61697
2.61109
2.60743
2.64317
2.63288
2.62195
2.61081
2.60083
2.59093
2.64455
2.63371
2.6224
2.61069
2.59845
2.58507
2.64808
2.63828
2.62724
2.61569
2.6023
2.58986
2.65306
2.64441
2.63516
2.6247
2.61517
2.60502
2.65859
2.65195
2.64581
2.63831
2.63171
2.62432
2.66482
2.66081
2.6576
2.65359
2.65087
2.64779
2.67247
2.67043
2.67054
2.66975
2.66969
2.66958
2.67634
2.67768
2.67854
2.68048
2.68296
2.68614
2.6661
2.66912
2.67035
2.67194
2.67375
2.6769
2.65811
2.65896
2.65948
2.66134
2.6643
2.66817
2.65675
2.65615
2.65465
2.65396
2.6541
2.65636
2.65307
2.6497
2.64586
2.6431
2.6416
2.64303
2.65134
2.64551
2.63898
2.63296
2.62814
2.62701
2.65021
2.64256
2.63378
2.62485
2.61634
2.61083
2.65029
2.6414
2.63111
2.62024
2.60873
2.59834
2.65167
2.6424
2.63168
2.62026
2.60809
2.59452
2.65466
2.64639
2.6364
2.62552
2.61224
2.599
2.65887
2.65182
2.64347
2.63382
2.62373
2.61376
2.66351
2.65818
2.65258
2.64576
2.63903
2.63175
2.66889
2.66564
2.66264
2.65896
2.65619
2.65301
2.67531
2.67364
2.67363
2.67284
2.67286