/*--------------------------------*- C++ -*----------------------------------*\
| =========                 |                                                 |
| \\      /  F ield         | OpenFOAM: The Open Source CFD Toolbox           |
|  \\    /   O peration     | Version:  v2106                                 |
|   \\  /    A nd           | Website:  www.openfoam.com                      |
|    \\/     M anipulation  |                                                 |
\*---------------------------------------------------------------------------*/
FoamFile
{
    version     2.0;
    format      ascii;
    arch        "LSB;label=32;scalar=64";
    class       volScalarField;
    location    "0.00013";
    object      p;
}
// * * * * * * * * * * * * * * * * * * * * * * * * * * * * * * * * * * * * * //

dimensions      [1 -1 -2 0 0 0 0];

internalField   nonuniform List<scalar> 
144746
(
205668
205843
205878
205942
205915
205892
205819
205748
205676
205621
205589
205575
205575
205510
205468
205617
205674
205775
205775
205783
205736
205680
205616
205549
205495
205458
205460
205358
205182
205378
205411
205522
205528
205554
205531
205495
205439
205370
205307
205274
205293
205229
205025
205198
205233
205338
205336
205358
205345
205309
205253
205191
205127
205090
205119
205061
204852
205066
205104
205191
205183
205188
205167
205126
205058
204988
204921
204890
204918
204885
204757
204932
204971
205055
205066
205062
205036
204982
204905
204851
204795
204775
204792
204760
204638
204787
204834
204914
204941
204924
204884
204824
204760
204722
204670
204642
204643
204619
204550
204662
204692
204773
204804
204784
204750
204695
204627
204564
204520
204505
204505
204491
204464
204541
204560
204647
204669
204658
204623
204554
204480
204413
204366
204355
204358
204338
204385
204430
204431
204526
204551
204550
204513
204430
204330
204231
204190
204186
204198
204189
204313
204333
204311
204404
204430
204427
204376
204269
204170
204103
204065
204055
204072
204060
204210
204216
204173
204246
204275
204271
204223
204122
204024
203955
203918
203910
203939
203937
204164
204138
204104
204142
204162
204147
204099
203997
203901
203837
203817
203807
203840
203843
204066
204026
203933
203949
203967
203948
203915
203827
203746
203673
203649
203637
203709
203753
203984
204463
204878
205386
205832
206165
206449
206576
206686
206690
206513
206152
205648
204956
204693
205284
205667
206069
206432
206656
206849
206909
206972
206917
206762
206410
205943
205268
205220
205759
206084
206448
206749
206943
207096
207169
207194
207097
206924
206594
206146
205486
205664
206171
206436
206776
207030
207204
207320
207374
207379
207276
207084
206755
206329
205707
205881
206345
206564
206916
207137
207341
207468
207533
207531
207379
207198
206873
206457
205874
205813
206316
206586
206994
207241
207450
207574
207619
207584
207429
207197
206865
206494
205959
205607
206166
206516
206950
207166
207397
207535
207594
207558
207407
207178
206845
206493
205998
205398
205990
206428
206808
207086
207309
207452
207510
207461
207304
207072
206745
206427
205960
205056
205693
206243
206582
206924
207143
207284
207333
207277
207129
206915
206619
206296
205872
204679
205355
205960
206329
206678
206898
207037
207077
207011
206854
206650
206376
206065
205691
204239
204957
205625
206021
206369
206574
206683
206683
206601
206442
206279
206000
205713
205366
203708
204458
205115
205557
205915
206147
206284
206308
206208
205993
205812
205507
205253
204917
203237
204096
204756
205205
205509
205686
205734
205688
205567
205445
205229
204919
204641
204265
202564
203308
203967
204510
204841
205024
205052
204984
204871
204690
204423
204065
203784
203426
206917
208103
209121
209876
210657
211206
211824
212213
212616
212853
212753
212185
211127
209477
209000
209865
210847
211475
212146
212677
213203
213543
213798
213767
213557
212857
211613
209978
210374
211319
212219
212882
213430
213853
214184
214365
214476
214418
214026
213305
212167
210567
211266
212351
213150
213818
214318
214665
214900
215024
215045
214847
214454
213692
212572
211005
211634
212813
213663
214341
214802
215114
215301
215389
215349
215093
214637
213894
212852
211364
211494
212742
213749
214494
215001
215329
215506
215567
215476
215181
214705
213958
212980
211565
210912
212370
213516
214337
214918
215293
215484
215548
215431
215143
214650
213923
213010
211723
210268
211992
213174
214138
214748
215150
215344
215397
215249
214963
214477
213797
212926
211740
209432
211299
212618
213720
214402
214841
215056
215106
214946
214670
214203
213581
212757
211775
208764
210663
212089
213247
213982
214436
214662
214693
214509
214223
213747
213144
212348
211466
207793
209792
211372
212628
213425
213884
214099
214104
213903
213614
213140
212564
211806
210920
206921
208972
210555
211859
212697
213190
213382
213342
213084
212749
212221
211613
210832
210021
205636
207796
209491
210906
211768
212277
212367
212249
211934
211541
210901
210268
209352
208602
204065
206546
208278
209732
210551
211094
211174
210972
210533
210005
209312
208625
207546
206566
205588
205664
205777
205691
205825
205682
205510
205444
205663
205479
205668
205463
205358
205325
205543
205437
205648
205387
205188
205146
205392
205306
205536
205375
205016
204974
205210
205106
205364
205079
204876
204802
205044
204929
205180
204910
204730
204635
204856
204719
204952
204738
204605
204487
204700
204567
204808
204620
204434
204332
204553
204386
204613
204421
204321
204248
204445
204276
204492
204335
204186
204111
204367
204187
204367
204233
204084
204044
204260
204162
204497
204316
203966
203914
204123
204010
204219
204086
203889
203859
204039
203945
204151
204002
204256
203481
203479
202796
203117
202162
204795
203935
203846
202983
203249
202051
204827
203945
203819
202931
203315
202040
205054
204120
203963
203179
203634
202233
205229
204328
204178
203404
203839
202491
205398
204588
204482
203773
204202
202882
205505
204821
204751
204113
204491
203349
205555
204988
204971
204404
204723
203743
205569
205097
205073
204521
204789
203880
205440
204947
204890
204333
204595
203637
205139
204559
204503
203963
204252
203360
204698
203991
203890
203188
203400
202367
204073
203248
203173
202431
202575
201747
203324
202468
202532
201686
201922
201010
207191
204526
202046
198159
195730
187717
208416
205672
203051
198673
195942
186343
208741
205922
203124
198578
196011
185976
209235
206375
203783
199330
196972
187233
209741
206905
204391
200179
198195
189479
210062
207386
205153
201305
199605
192280
210383
207890
205868
202470
201004
195021
210535
208308
206520
203606
202323
197324
210586
208642
207045
204432
203213
198821
210433
208526
207096
204605
203264
198842
209910
208005
206608
203972
202485
197724
208837
206909
205394
202468
200945
195315
207550
205218
203317
199876
197771
191352
204770
202180
200220
196740
194733
187361
203725
203760
203871
203792
203932
203694
203737
203675
203839
203719
203929
203668
203658
203548
203704
203550
203758
203406
203640
203480
203618
203473
203652
203396
203646
203435
203539
203326
203520
203095
203706
203454
203536
203306
203461
203075
203776
203511
203564
203293
203425
203084
203849
203566
203640
203393
203510
203203
203899
203668
203779
203453
203599
203355
203931
203705
203840
203655
203887
203587
203941
203750
203877
203666
203882
203752
203956
203813
203978
203896
204205
203999
204035
203944
204121
204039
204255
204015
204060
204056
204209
204088
204315
204130
202650
201716
201697
200929
201210
200116
203240
202260
202059
201076
201307
199892
203352
202232
201939
200944
201193
199738
203647
202505
202197
201194
201541
199923
203859
202763
202437
201471
201826
200111
204123
203115
202819
201926
202259
200619
204287
203381
203136
202336
202651
201152
204510
203737
203537
202797
203090
201686
204566
203826
203631
202838
203101
201713
204420
203675
203509
202696
202940
201473
204143
203188
202910
201885
201993
200573
203627
202598
202409
201409
201539
200215
203161
202035
201937
200903
201059
199822
202246
201137
201239
200349
200724
199568
204372
201207
198798
194779
192443
183698
205769
202768
200009
195547
192882
182194
206517
203312
200326
195696
193043
181626
207285
204204
201160
196476
193936
182784
207938
204939
201992
197498
195150
185069
208530
205719
202936
198718
196518
187806
209010
206362
203768
199874
197793
190277
209378
206894
204538
200933
199028
192343
209524
207060
204943
201471
199479
192962
209177
206601
204539
201057
199097
192215
208320
205796
203742
199955
197704
190521
206852
204124
201871
198056
195835
187805
205543
202387
200138
196347
194374
185388
202032
198741
196844
193519
191942
182576
205649
205777
205644
205784
205651
205637
205552
205711
205555
205605
205440
205491
205123
205216
205040
205214
205081
205204
205094
205223
204959
205042
204893
205041
204510
204631
204500
204758
204635
204839
204407
204545
204399
204597
204529
204748
204310
204391
204283
204507
204468
204695
204298
204331
204248
204476
204437
204655
204297
204349
204275
204508
204437
204604
204204
204340
204283
204518
204439
204554
204194
204356
204306
204522
204430
204495
204322
204484
204367
204528
204403
204429
204304
204514
204355
204463
204313
204317
204271
204558
204445
204507
204415
204304
201430
202366
202002
202814
202695
203617
201752
202718
202508
203422
203478
204482
202025
202987
202851
203716
203893
204872
202760
203771
203588
204381
204586
205340
203709
204445
204203
204787
204903
205615
204133
204857
204533
205068
205148
205681
204321
204912
204515
205046
205012
205404
204078
204578
204128
204681
204551
205078
203448
204037
203575
204131
203948
204644
202612
203331
202915
203473
203331
204163
201732
202662
202261
202847
202756
203713
201035
202063
201635
202180
202095
203128
200528
201636
201269
201862
201826
202734
199960
201117
200812
201412
201295
202139
187420
195446
197167
200326
202190
204828
190187
197855
199811
203214
205180
207677
192593
199278
201445
204787
206813
208913
195564
201475
203373
206443
208056
210109
198045
202740
204419
207062
208630
210541
199289
203446
204747
206990
208260
210178
199472
203250
204071
206057
207285
209389
198146
202249
202873
204893
206213
208485
195843
200809
201330
203554
205066
207474
192814
199136
199734
202263
204025
206604
189724
197392
198142
200967
202930
205629
186559
195553
196592
199816
201994
204765
183804
193849
195196
198579
200747
203699
182160
192063
193777
197332
199565
202487
205745
205754
205616
205776
205586
205720
205683
205979
205726
205862
205673
205731
206223
206160
205911
205949
205760
205793
206127
206148
205930
205977
205722
205755
206202
206194
205962
206034
205796
205842
206320
206229
206033
206109
205883
205911
206430
206311
206131
206214
205979
206006
206547
206428
206250
206345
206097
206107
206539
206486
206340
206462
206216
206213
206455
206475
206370
206523
206286
206266
206416
206440
206374
206525
206324
206296
206480
206557
206434
206528
206296
206244
206290
206451
206305
206398
206172
206142
206149
206363
206247
206338
206174
206097
202923
203585
203381
204107
204077
204782
203291
203960
203884
204587
204707
205435
204509
205072
204876
205341
205407
205972
205100
205751
205481
205906
205900
206412
205839
206364
206051
206411
206310
206668
206166
206497
206164
206526
206414
206639
206089
206325
205933
206348
206242
206507
205734
205980
205562
206001
205875
206271
205167
205483
205078
205527
205410
205939
204492
204952
204555
204989
204877
205506
203676
204398
204002
204465
204353
205062
203042
203916
203465
203913
203736
204536
202486
203454
203019
203557
203426
204216
201908
202924
202584
203106
202964
203647
191680
198252
200355
203634
205601
207657
195303
201078
203117
206182
208027
209989
199387
203955
205763
208406
209634
211253
201911
205749
207094
209293
210501
212039
203508
206688
207630
209471
210578
212023
203996
206691
207211
208771
209795
211492
203320
205964
206294
207868
208944
210815
201507
204715
204998
206767
207968
210080
198942
203183
203499
205603
206996
209258
196207
201658
202078
204524
206134
208560
193439
200078
200710
203452
205258
207777
190732
198489
199424
202487
204416
206955
188291
196986
198303
201549
203627
206309
186786
195314
197156
200469
202586
205070
215519
215361
216007
215911
216279
216467
216985
217413
217962
218395
218821
218869
218793
217591
217345
217196
217613
217580
217817
217934
218279
218526
218991
219272
219391
219155
218598
217250
218458
218540
218858
218944
219082
219168
219361
219468
219694
219776
219756
219363
218737
217614
218792
219240
219544
219756
219878
219946
220029
220063
220166
220131
219951
219509
218732
217560
218430
219244
219766
220130
220284
220377
220432
220443
220448
220312
220036
219550
218775
217712
217927
218971
219723
220193
220462
220602
220671
220669
220606
220413
220071
219538
218734
217665
217108
218483
219351
220021
220425
220640
220739
220741
220655
220448
220090
219565
218803
217820
216568
218039
219143
219921
220393
220642
220751
220751
220643
220432
220068
219561
218838
217937
215903
217375
218725
219624
220199
220509
220645
220659
220549
220360
220025
219588
218943
218195
215561
217120
218561
219498
220084
220383
220503
220508
220380
220202
219871
219498
218913
218306
214866
216622
218172
219194
219822
220133
220231
220234
220095
219951
219641
219348
218816
218298
214802
216522
218035
218990
219566
219836
219864
219824
219617
219471
219113
218866
218330
217981
213831
215977
217536
218554
219088
219286
219223
219125
218874
218735
218345
218156
217607
217451
213613
215977
217345
218152
218508
218605
218448
218219
217889
217678
217177
216970
216053
215886
221889
221209
221363
220834
220814
220824
221251
221804
222547
223244
223856
224314
224669
224024
223430
222835
222793
222449
222395
222369
222662
222950
223453
223959
224357
224426
224301
223447
224031
223792
223763
223604
223538
223495
223650
223794
224101
224330
224521
224416
224133
223455
224058
224213
224243
224256
224224
224201
224275
224334
224499
224583
224557
224340
223878
223078
223397
223983
224321
224488
224541
224575
224642
224664
224722
224693
224524
224223
223682
222917
222651
223549
224121
224448
224651
224770
224845
224853
224836
224736
224482
224088
223478
222657
221787
222923
223702
224243
224599
224793
224890
224907
224859
224723
224450
224040
223421
222626
221063
222364
223409
224091
224533
224773
224885
224909
224838
224683
224404
224010
223433
222689
220320
221746
222996
223820
224364
224665
224804
224845
224772
224633
224381
224046
223568
222955
220022
221557
222878
223748
224302
224591
224714
224744
224657
224527
224286
224002
223598
223130
219683
221356
222721
223605
224161
224451
224555
224574
224481
224393
224193
223996
223662
223373
220096
221615
222860
223651
224121
224314
224340
224307
224156
224083
223871
223783
223493
223311
219680
221502
222705
223532
223940
224024
223941
223842
223645
223607
223412
223448
223198
223343
220184
222044
223012
223520
223708
223644
223417
223202
222963
222922
222701
222796
222315
222495
227457
226643
226435
225745
225536
225339
225515
225931
226501
227246
227875
228355
228989
228729
228547
227786
227425
226909
226663
226490
226596
226867
227267
227679
228180
228372
228597
228116
228641
228329
228003
227683
227440
227288
227302
227416
227636
227864
228089
228221
228217
227877
228512
228463
228266
228069
227874
227750
227730
227759
227878
228002
228059
228034
227882
227450
227899
228190
228248
228149
228060
227993
227980
227961
227993
228025
227971
227818
227560
227163
227232
227791
227962
228078
228119
228117
228103
228064
228047
228013
227890
227672
227329
226864
226544
227208
227684
227956
228093
228135
228129
228092
228048
227978
227825
227597
227220
226747
225825
226817
227452
227839
228060
228148
228161
228131
228065
227972
227802
227579
227222
226762
225266
226398
227204
227721
228027
228152
228181
228164
228094
228010
227853
227664
227384
226981
225190
226341
227212
227752
228075
228205
228231
228215
228128
228048
227893
227724
227522
227178
225073
226320
227237
227796
228111
228250
228267
228251
228158
228120
228016
227908
227765
227523
225601
226718
227529
227998
228232
228314
228286
228248
228112
228073
227958
227950
227908
227773
225571
226912
227679
228184
228334
228311
228202
228120
227947
227940
227878
228007
228031
228158
226216
227625
228123
228393
228450
228249
228026
227862
227667
227670
227602
227793
227654
227816
230807
229888
229565
229015
228782
228636
228795
229109
229565
230033
230644
231013
231625
231598
231458
230770
230317
229856
229580
229417
229498
229703
230067
230463
230830
230982
231261
230990
231405
231066
230687
230399
230181
230053
230074
230149
230344
230522
230727
230819
230849
230642
231281
231156
230902
230704
230501
230386
230370
230379
230493
230594
230639
230641
230552
230271
230789
230895
230843
230710
230607
230540
230531
230513
230552
230591
230565
230444
230252
229980
230176
230590
230589
230626
230641
230614
230589
230556
230555
230549
230479
230319
230062
229734
229633
230082
230383
230525
230589
230595
230579
230552
230536
230506
230411
230250
229966
229619
229032
229729
230171
230415
230559
230603
230599
230578
230547
230497
230387
230232
229965
229630
228629
229413
230011
230368
230567
230630
230636
230623
230586
230537
230440
230313
230111
229810
228594
229419
230063
230447
230661
230726
230727
230705
230643
230584
230489
230374
230244
230004
228608
229503
230163
230558
230771
230839
230827
230795
230719
230679
230621
230548
230463
230422
229061
229901
230467
230809
230977
230999
230945
230881
230755
230705
230655
230631
230650
230584
229199
230211
230740
231074
231131
231078
230973
230874
230712
230697
230694
230769
230891
231046
229875
230909
231195
231436
231417
231187
230974
230813
230616
230625
230593
230752
230794
231014
232849
231928
231633
231224
231021
230901
231040
231228
231647
232018
232502
232797
233321
233341
233336
232714
232281
231886
231650
231529
231635
231764
232056
232360
232657
232755
232999
232793
233218
232897
232573
232324
232148
232048
232079
232111
232262
232401
232561
232620
232646
232478
233141
232991
232771
232569
232396
232297
232289
232288
232371
232450
232489
232475
232402
232193
232698
232739
232689
232550
232460
232399
232394
232381
232413
232442
232424
232325
232165
231942
232202
232490
232503
232480
232471
232439
232424
232407
232414
232412
232356
232225
232007
231737
231751
232083
232287
232374
232418
232418
232414
232406
232408
232388
232309
232170
231927
231631
231334
231790
232141
232312
232408
232436
232441
232439
232430
232393
232299
232160
231934
231648
231019
231557
232040
232301
232432
232478
232490
232491
232474
232432
232347
232225
232049
231792
230991
231596
232108
232402
232547
232594
232594
232582
232540
232485
232403
232291
232161
231986
231038
231718
232215
232532
232672
232710
232694
232666
232611
232565
232512
232440
232375
232312
231396
232088
232503
232790
232901
232896
232838
232770
232664
232605
232561
232521
232524
232476
231526
232381
232742
233012
233048
232970
232881
232784
232650
232622
232628
232677
232798
232922
232242
233016
233215
233409
233357
233141
232931
232780
232623
232620
232616
232708
232780
232995
234159
233369
233132
232807
232650
232561
232677
232821
233118
233416
233765
233999
234399
234455
234512
233990
233636
233319
233139
233057
233144
233241
233446
233668
233893
233964
234154
233988
234339
234082
233843
233655
233533
233472
233498
233521
233621
233715
233833
233870
233881
233749
234288
234146
233981
233829
233714
233652
233650
233655
233717
233780
233797
233776
233701
233545
233887
233913
233881
233802
233749
233718
233724
233729
233763
233784
233757
233677
233530
233347
233530
233716
233737
233746
233742
233740
233747
233752
233771
233767
233711
233600
233408
233177
233142
233434
233583
233662
233703
233724
233743
233757
233771
233750
233678
233554
233345
233086
232843
233214
233479
233620
233700
233743
233771
233788
233790
233752
233667
233538
233343
233093
232623
233057
233426
233626
233725
233780
233807
233823
233814
233771
233689
233573
233425
233209
232633
233106
233501
233725
233826
233876
233887
233885
233853
233795
233713
233602
233487
233343
232705
233223
233597
233844
233931
233959
233950
233931
233886
233830
233773
233696
233645
233584
233017
233553
233838
234062
234116
234107
234060
234001
233918
233851
233804
233747
233752
233712
233130
233800
234028
234241
234246
234173
234089
234001
233894
233857
233851
233870
233975
234058
233837
234368
234435
234570
234488
234313
234133
234009
233884
233874
233872
233913
234004
234204
235178
234505
234339
234078
233972
233925
233993
234105
234304
234522
234778
234939
235226
235300
235420
234970
234707
234462
234351
234316
234377
234449
234580
234735
234878
234907
235036
234912
235240
235028
234863
234741
234679
234651
234665
234671
234723
234767
234839
234842
234824
234720
235188
235086
234975
234883
234822
234788
234787
234785
234817
234846
234824
234777
234683
234557
234855
234895
234888
234862
234844
234843
234855
234856
234867
234854
234798
234708
234554
234395
234606
234754
234793
234824
234844
234865
234878
234881
234875
234839
234762
234644
234460
234256
234305
234548
234681
234769
234815
234850
234872
234882
234870
234818
234728
234602
234410
234184
234104
234412
234620
234742
234815
234865
234891
234900
234875
234808
234705
234575
234403
234190
233941
234293
234577
234739
234826
234879
234900
234905
234869
234798
234702
234583
234459
234289
233963
234329
234630
234808
234888
234933
234942
234925
234868
234790
234698
234586
234493
234386
234030
234414
234698
234886
234946
234968
234958
234922
234857
234782
234716
234629
234603
234566
234298
234677
234876
235042
235067
235055
235014
234952
234869
234790
234733
234668
234684
234666
234390
234866
235010
235173
235160
235098
235020
234939
234844
234790
234768
234764
234862
234937
235010
235353
235342
235437
235351
235207
235060
234950
234845
234823
234816
234842
234937
235116
235824
235289
235159
234966
234904
234893
234963
235061
235207
235357
235552
235672
235896
235995
235972
235627
235439
235270
235218
235213
235277
235339
235438
235544
235627
235658
235755
235670
235845
235686
235587
235528
235511
235499
235522
235525
235555
235571
235633
235616
235594
235516
235825
235762
235701
235666
235644
235629
235632
235627
235643
235643
235617
235582
235489
235386
235583
235639
235663
235675
235683
235693
235701
235695
235685
235658
235602
235535
235396
235254
235417
235548
235623
235672
235705
235726
235731
235721
235694
235648
235571
235479
235319
235141
235206
235418
235553
235644
235687
235717
235724
235717
235685
235626
235536
235429
235270
235079
235071
235334
235516
235626
235689
235729
235738
235724
235677
235603
235503
235389
235250
235073
234935
235230
235466
235609
235683
235725
235730
235709
235651
235571
235478
235371
235276
235142
234942
235242
235489
235642
235709
235748
235745
235708
235635
235546
235457
235356
235291
235202
234995
235298
235528
235685
235735
235759
235740
235689
235609
235524
235454
235373
235370
235342
235223
235497
235655
235793
235811
235810
235771
235706
235618
235532
235460
235412
235427
235425
235308
235647
235760
235896
235887
235848
235777
235698
235602
235532
235488
235478
235561
235641
235828
236050
236028
236111
236040
235936
235820
235720
235624
235578
235559
235572
235661
235835
236354
235954
235869
235762
235763
235782
235878
235979
236106
236206
236330
236386
236520
236591
236492
236242
236120
236030
236040
236064
236150
236216
236300
236364
236391
236379
236415
236331
236452
236345
236302
236285
236306
236325
236367
236382
236403
236391
236404
236353
236296
236214
236498
236466
236448
236449
236455
236463
236481
236484
236486
236457
236406
236343
236228
236121
236355
236426
236465
236504
236526
236546
236556
236550
236523
236470
236397
236321
236172
236024
236261
236392
236474
236542
236575
236594
236594
236575
236531
236466
236378
236286
236122
235945
236112
236308
236436
236530
236569
236592
236589
236569
236516
236444
236348
236243
236087
235904
236001
236235
236400
236510
236564
236593
236586
236557
236492
236411
236312
236200
236065
235895
235868
236131
236336
236469
236531
236561
236551
236516
236445
236361
236270
236166
236072
235943
235846
236109
236321
236459
236517
236548
236531
236484
236406
236316
236228
236135
236066
235975
235868
236129
236325
236462
236504
236524
236496
236437
236353
236268
236188
236131
236103
236075
236037
236261
236401
236519
236537
236540
236495
236422
236332
236249
236170
236136
236136
236139
236099
236369
236474
236591
236585
236555
236483
236395
236298
236221
236168
236160
236219
236299
236523
236692
236689
236763
236702
236617
236510
236405
236311
236248
236222
236231
236303
236466
214398
214022
213387
213796
215446
218065
213223
211850
210997
211129
212678
215429
213763
212010
210595
209943
210799
213062
213629
211609
209938
209105
209728
211634
214086
211913
210206
209144
209495
210961
214422
212278
210834
209887
210150
211435
215107
213169
212118
211464
211896
213252
215814
214332
213694
213434
214160
215754
216713
215741
215365
215306
216364
218148
217589
217084
217086
217297
218709
220492
218265
217954
217932
217910
219585
221817
218355
218263
218236
218505
220281
222676
218096
217720
217429
217661
219773
222494
216086
216072
216054
216598
218895
221683
221208
221793
221616
221996
222958
224147
219053
218370
217901
218094
219183
220632
219041
217631
216431
215812
216080
216842
218399
216505
214792
213835
213889
214307
218498
216323
214276
212982
212749
212901
218669
216344
214334
213049
212874
213133
219326
217030
215341
214215
214344
214715
220260
218379
217178
216352
216911
217282
221317
220047
219401
218975
219942
220267
222457
221865
221647
221760
223087
223424
223479
223238
223395
223785
225271
225813
224064
224282
224665
225281
226854
227863
224303
224430
224801
225526
227120
228377
222800
223346
223884
224891
226496
227913
227119
227735
227390
227315
227250
227540
224789
224327
223684
223230
223185
223573
224446
223240
221908
220751
219880
219528
223663
221963
220075
218469
217317
216778
223573
221546
219266
217360
215943
215163
223580
221488
219119
217223
215907
215249
224056
222038
219897
218196
217164
216729
224888
223097
221502
220221
219652
219636
225819
224522
223704
222924
222816
223194
226741
226125
225814
225666
226102
226906
227804
227678
227787
228142
228867
229772
228394
228799
229285
229988
231001
232231
229040
229363
229800
230518
231517
232802
227944
228594
229178
230130
231054
232237
230610
231388
231130
230884
230616
230529
228451
228243
227730
227208
226582
226187
227947
226994
225765
224500
223257
222070
227283
225852
224134
222264
220509
218933
227104
225309
223174
220849
218681
216847
227096
225291
223020
220646
218509
216699
227442
225771
223614
221502
219703
218161
228096
226667
224943
223388
222138
221043
228892
227830
226937
225913
225271
224660
229700
229164
228816
228407
228354
228330
230655
230520
230657
230772
231165
231423
231087
231440
231957
232517
233305
233975
231856
232164
232703
233354
234122
234934
231152
231796
232328
233216
233976
234758
232534
233142
232935
232699
232337
232288
230765
230562
229980
229413
228648
228085
230270
229439
228192
226841
225380
224100
229759
228484
226809
224922
222934
221149
229608
228020
226043
223648
221139
218824
229639
227990
226030
223461
220963
218542
230001
228358
226607
224289
222184
220064
230481
229119
227675
226053
224536
222984
231036
230116
229298
228250
227379
226518
231726
231238
230880
230427
230199
229978
232494
232378
232475
232516
232774
232993
232832
233104
233557
234006
234639
235240
233547
233774
234288
234827
235511
236327
233064
233631
234047
234754
235440
236295
233869
234420
234302
234137
233870
233721
232409
232300
231777
231382
230821
230361
232033
231448
230340
229152
227726
226371
231655
230698
229147
227460
225436
223560
231535
230330
228503
226475
223879
221437
231549
230281
228419
226369
223648
221103
231822
230580
229020
226970
224718
222493
232175
231133
229813
228363
226836
225187
232620
231897
231084
230160
229228
228300
233162
232756
232389
231971
231712
231458
233761
233655
233728
233746
233948
234141
234037
234245
234616
234992
235548
236108
234601
234805
235267
235745
236397
237180
234262
234764
235140
235767
236409
237238
234896
235404
235335
235269
235107
234928
233697
233712
233232
232927
232513
232041
233448
233009
232129
231144
229935
228674
233152
232395
231165
229699
227913
226075
233086
232074
230670
228850
226790
224318
233130
232028
230628
228698
226640
223987
233338
232343
231034
229337
227340
225130
233608
232791
231704
230368
229010
227460
233922
233339
232662
231835
231009
230080
234310
233986
233685
233310
233070
232838
234763
234681
234751
234772
234956
235131
234973
235142
235462
235792
236301
236829
235410
235591
236018
236444
237050
237783
235183
235598
235945
236528
237111
237877
235588
236020
236008
236034
235987
235959
234649
234678
234325
234129
233856
233483
234461
234114
233468
232750
231831
230783
234237
233624
232690
231563
230106
228554
234203
233391
232272
230924
229139
227324
234258
233385
232220
230851
228931
227007
234433
233671
232610
231298
229588
227672
234660
234049
233197
232112
230841
229496
234906
234454
233901
233227
232479
231669
235202
234946
234703
234413
234162
233952
235539
235465
235530
235579
235734
235898
235705
235834
236104
236405
236860
237337
236043
236198
236585
236968
237507
238161
235911
236290
236591
237103
237609
238281
236130
236440
236452
236504
236509
236585
235424
235389
235129
234986
234801
234569
235287
234976
234482
233941
233266
232447
235161
234625
233884
232990
231868
230512
235178
234498
233602
232494
231146
229459
235262
234537
233607
232438
231037
229310
235444
234805
233966
232886
231571
229961
235648
235156
234502
233627
232560
231369
235849
235479
235033
234484
233855
233162
236072
235863
235665
235425
235204
234992
236307
236237
236294
236342
236485
236622
236402
236488
236712
236974
237375
237792
236636
236755
237083
237425
237905
238489
236526
236836
237107
237556
238008
238610
216571
216387
215822
216187
218392
220661
215768
214748
213824
213732
215845
218143
215984
214502
213196
212409
213682
215785
215868
214069
212472
211173
211901
213791
216073
214084
212323
210732
211030
212720
216125
214188
212430
210761
210739
212332
216398
214583
212975
211461