/*--------------------------------*- C++ -*----------------------------------*\
| =========                 |                                                 |
| \\      /  F ield         | OpenFOAM: The Open Source CFD Toolbox           |
|  \\    /   O peration     | Version:  v2106                                 |
|   \\  /    A nd           | Website:  www.openfoam.com                      |
|    \\/     M anipulation  |                                                 |
\*---------------------------------------------------------------------------*/
FoamFile
{
    version     2.0;
    format      ascii;
    arch        "LSB;label=32;scalar=64";
    class       volScalarField;
    location    "0.000213";
    object      epsilon;
}
// * * * * * * * * * * * * * * * * * * * * * * * * * * * * * * * * * * * * * //

dimensions      [0 2 -3 0 0 0 0];

internalField   nonuniform List<scalar> 
17920
(
1.05438e-08
1.05445e-08
1.05468e-08
1.05477e-08
1.05496e-08
1.05506e-08
1.05526e-08
1.05537e-08
1.05555e-08
1.05565e-08
1.05585e-08
1.05595e-08
1.05614e-08
1.05624e-08
1.05643e-08
1.05653e-08
1.05671e-08
1.05681e-08
1.05699e-08
1.05709e-08
1.05727e-08
1.05737e-08
1.05754e-08
1.05765e-08
1.0578e-08
1.05792e-08
1.05803e-08
1.05815e-08
1.05302e-08
1.053e-08
1.05301e-08
1.05303e-08
1.05305e-08
1.05308e-08
1.0531e-08
1.05314e-08
1.05317e-08
1.0532e-08
1.05324e-08
1.05328e-08
1.05331e-08
1.05336e-08
1.05322e-08
1.05319e-08
1.05321e-08
1.05322e-08
1.05323e-08
1.05326e-08
1.05329e-08
1.05333e-08
1.05336e-08
1.0534e-08
1.05344e-08
1.05349e-08
1.05352e-08
1.05359e-08
1.0534e-08
1.05338e-08
1.0534e-08
1.05341e-08
1.05343e-08
1.05346e-08
1.05349e-08
1.05353e-08
1.05357e-08
1.05361e-08
1.05365e-08
1.0537e-08
1.05374e-08
1.0538e-08
1.0536e-08
1.05358e-08
1.0536e-08
1.05362e-08
1.05364e-08
1.05367e-08
1.05371e-08
1.05375e-08
1.05379e-08
1.05383e-08
1.05388e-08
1.05393e-08
1.05398e-08
1.05404e-08
1.0538e-08
1.05379e-08
1.05381e-08
1.05383e-08
1.05386e-08
1.05389e-08
1.05393e-08
1.05397e-08
1.05401e-08
1.05406e-08
1.05411e-08
1.05416e-08
1.05421e-08
1.05428e-08
1.05401e-08
1.05401e-08
1.05403e-08
1.05406e-08
1.05408e-08
1.05412e-08
1.05416e-08
1.0542e-08
1.05425e-08
1.0543e-08
1.05436e-08
1.05441e-08
1.05447e-08
1.05452e-08
1.05422e-08
1.05423e-08
1.05426e-08
1.05428e-08
1.05431e-08
1.05435e-08
1.05439e-08
1.05444e-08
1.05449e-08
1.05455e-08
1.0546e-08
1.05466e-08
1.05472e-08
1.05478e-08
1.05444e-08
1.05446e-08
1.05448e-08
1.05451e-08
1.05455e-08
1.05459e-08
1.05463e-08
1.05468e-08
1.05474e-08
1.0548e-08
1.05486e-08
1.05492e-08
1.05499e-08
1.05504e-08
1.05465e-08
1.05468e-08
1.05471e-08
1.05475e-08
1.05478e-08
1.05483e-08
1.05488e-08
1.05493e-08
1.05499e-08
1.05506e-08
1.05512e-08
1.05518e-08
1.05525e-08
1.05531e-08
1.05487e-08
1.05491e-08
1.05494e-08
1.05498e-08
1.05502e-08
1.05507e-08
1.05513e-08
1.05519e-08
1.05525e-08
1.05532e-08
1.05538e-08
1.05545e-08
1.05553e-08
1.05558e-08
1.05509e-08
1.05513e-08
1.05517e-08
1.05522e-08
1.05526e-08
1.05532e-08
1.05538e-08
1.05544e-08
1.05551e-08
1.05558e-08
1.05565e-08
1.05572e-08
1.0558e-08
1.05585e-08
1.05531e-08
1.05536e-08
1.0554e-08
1.05545e-08
1.05551e-08
1.05556e-08
1.05563e-08
1.0557e-08
1.05577e-08
1.05584e-08
1.05592e-08
1.05599e-08
1.05608e-08
1.05613e-08
1.05553e-08
1.05558e-08
1.05563e-08
1.05568e-08
1.05574e-08
1.05581e-08
1.05588e-08
1.05595e-08
1.05603e-08
1.05611e-08
1.05618e-08
1.05626e-08
1.05635e-08
1.05641e-08
1.05575e-08
1.05581e-08
1.05586e-08
1.05592e-08
1.05598e-08
1.05605e-08
1.05612e-08
1.0562e-08
1.05628e-08
1.05636e-08
1.05644e-08
1.05652e-08
1.05661e-08
1.05668e-08
1.05292e-08
1.05287e-08
1.05283e-08
1.05279e-08
1.05277e-08
1.05275e-08
1.05273e-08
1.05272e-08
1.05271e-08
1.0527e-08
1.0527e-08
1.0527e-08
1.0527e-08
1.05272e-08
1.05307e-08
1.053e-08
1.05296e-08
1.05292e-08
1.05289e-08
1.05286e-08
1.05285e-08
1.05283e-08
1.05282e-08
1.05282e-08
1.05282e-08
1.05282e-08
1.05281e-08
1.05284e-08
1.05319e-08
1.05312e-08
1.05309e-08
1.05304e-08
1.05301e-08
1.05299e-08
1.05297e-08
1.05296e-08
1.05295e-08
1.05295e-08
1.05294e-08
1.05295e-08
1.05294e-08
1.05296e-08
1.05333e-08
1.05327e-08
1.05323e-08
1.05319e-08
1.05315e-08
1.05313e-08
1.05311e-08
1.0531e-08
1.05309e-08
1.05308e-08
1.05308e-08
1.05309e-08
1.05309e-08
1.0531e-08
1.05347e-08
1.05341e-08
1.05337e-08
1.05333e-08
1.0533e-08
1.05328e-08
1.05326e-08
1.05325e-08
1.05324e-08
1.05323e-08
1.05323e-08
1.05324e-08
1.05324e-08
1.05325e-08
1.05362e-08
1.05357e-08
1.05353e-08
1.05349e-08
1.05346e-08
1.05343e-08
1.05342e-08
1.0534e-08
1.0534e-08
1.0534e-08
1.0534e-08
1.0534e-08
1.05341e-08
1.05341e-08
1.05377e-08
1.05373e-08
1.05369e-08
1.05365e-08
1.05362e-08
1.0536e-08
1.05358e-08
1.05357e-08
1.05357e-08
1.05357e-08
1.05357e-08
1.05357e-08
1.05358e-08
1.05359e-08
1.05393e-08
1.05389e-08
1.05386e-08
1.05382e-08
1.0538e-08
1.05377e-08
1.05376e-08
1.05375e-08
1.05375e-08
1.05375e-08
1.05375e-08
1.05376e-08
1.05377e-08
1.05377e-08
1.05409e-08
1.05406e-08
1.05403e-08
1.054e-08
1.05398e-08
1.05396e-08
1.05394e-08
1.05394e-08
1.05393e-08
1.05394e-08
1.05394e-08
1.05395e-08
1.05397e-08
1.05396e-08
1.05425e-08
1.05423e-08
1.0542e-08
1.05418e-08
1.05416e-08
1.05414e-08
1.05413e-08
1.05413e-08
1.05413e-08
1.05413e-08
1.05414e-08
1.05415e-08
1.05417e-08
1.05417e-08
1.05442e-08
1.05441e-08
1.05438e-08
1.05437e-08
1.05435e-08
1.05434e-08
1.05433e-08
1.05433e-08
1.05434e-08
1.05434e-08
1.05435e-08
1.05437e-08
1.05439e-08
1.05438e-08
1.05459e-08
1.05459e-08
1.05457e-08
1.05456e-08
1.05454e-08
1.05454e-08
1.05454e-08
1.05454e-08
1.05455e-08
1.05456e-08
1.05457e-08
1.05459e-08
1.05461e-08
1.0546e-08
1.05477e-08
1.05477e-08
1.05476e-08
1.05475e-08
1.05474e-08
1.05474e-08
1.05474e-08
1.05475e-08
1.05476e-08
1.05477e-08
1.05479e-08
1.05481e-08
1.05483e-08
1.05483e-08
1.05496e-08
1.05496e-08
1.05495e-08
1.05494e-08
1.05494e-08
1.05494e-08
1.05495e-08
1.05496e-08
1.05498e-08
1.05499e-08
1.05501e-08
1.05504e-08
1.05506e-08
1.05507e-08
1.05299e-08
1.0529e-08
1.05284e-08
1.05278e-08
1.05272e-08
1.05267e-08
1.05263e-08
1.05259e-08
1.05255e-08
1.05251e-08
1.05248e-08
1.05245e-08
1.05243e-08
1.05241e-08
1.05307e-08
1.05299e-08
1.05291e-08
1.05284e-08
1.05278e-08
1.05273e-08
1.05268e-08
1.05264e-08
1.0526e-08
1.05256e-08
1.05253e-08
1.0525e-08
1.05246e-08
1.05245e-08
1.05314e-08
1.05305e-08
1.05298e-08
1.05291e-08
1.05285e-08
1.05279e-08
1.05274e-08
1.0527e-08
1.05265e-08
1.05261e-08
1.05258e-08
1.05255e-08
1.05251e-08
1.05249e-08
1.05322e-08
1.05313e-08
1.05306e-08
1.05299e-08
1.05292e-08
1.05286e-08
1.05281e-08
1.05276e-08
1.05272e-08
1.05268e-08
1.05264e-08
1.05261e-08
1.05257e-08
1.05255e-08
1.0533e-08
1.05321e-08
1.05314e-08
1.05307e-08
1.053e-08
1.05294e-08
1.05289e-08
1.05284e-08
1.05279e-08
1.05275e-08
1.05271e-08
1.05267e-08
1.05264e-08
1.05261e-08
1.05338e-08
1.0533e-08
1.05323e-08
1.05315e-08
1.05309e-08
1.05303e-08
1.05297e-08
1.05292e-08
1.05287e-08
1.05283e-08
1.05279e-08
1.05275e-08
1.05271e-08
1.05268e-08
1.05347e-08
1.05339e-08
1.05332e-08
1.05325e-08
1.05318e-08
1.05312e-08
1.05306e-08
1.05301e-08
1.05296e-08
1.05292e-08
1.05288e-08
1.05284e-08
1.0528e-08
1.05276e-08
1.05356e-08
1.05349e-08
1.05342e-08
1.05335e-08
1.05328e-08
1.05322e-08
1.05316e-08
1.05311e-08
1.05306e-08
1.05301e-08
1.05297e-08
1.05293e-08
1.0529e-08
1.05286e-08
1.05365e-08
1.05359e-08
1.05352e-08
1.05345e-08
1.05338e-08
1.05332e-08
1.05326e-08
1.05321e-08
1.05316e-08
1.05312e-08
1.05308e-08
1.05304e-08
1.053e-08
1.05296e-08
1.05375e-08
1.05369e-08
1.05362e-08
1.05356e-08
1.05349e-08
1.05343e-08
1.05337e-08
1.05332e-08
1.05327e-08
1.05323e-08
1.05319e-08
1.05315e-08
1.05311e-08
1.05307e-08
1.05385e-08
1.0538e-08
1.05373e-08
1.05367e-08
1.05361e-08
1.05355e-08
1.05349e-08
1.05344e-08
1.05339e-08
1.05335e-08
1.05331e-08
1.05326e-08
1.05323e-08
1.05318e-08
1.05396e-08
1.05391e-08
1.05384e-08
1.05379e-08
1.05373e-08
1.05367e-08
1.05362e-08
1.05357e-08
1.05352e-08
1.05347e-08
1.05343e-08
1.05339e-08
1.05336e-08
1.05331e-08
1.05407e-08
1.05402e-08
1.05397e-08
1.05391e-08
1.05385e-08
1.0538e-08
1.05375e-08
1.0537e-08
1.05365e-08
1.05361e-08
1.05356e-08
1.05352e-08
1.05349e-08
1.05345e-08
1.05419e-08
1.05414e-08
1.05408e-08
1.05403e-08
1.05398e-08
1.05393e-08
1.05388e-08
1.05383e-08
1.05379e-08
1.05375e-08
1.05371e-08
1.05366e-08
1.05363e-08
1.05359e-08
1.05305e-08
1.05295e-08
1.05287e-08
1.0528e-08
1.05273e-08
1.05266e-08
1.0526e-08
1.05254e-08
1.05248e-08
1.05242e-08
1.05237e-08
1.05232e-08
1.05228e-08
1.05223e-08
1.05308e-08
1.05298e-08
1.0529e-08
1.05282e-08
1.05274e-08
1.05267e-08
1.05261e-08
1.05254e-08
1.05248e-08
1.05242e-08
1.05237e-08
1.05231e-08
1.05226e-08
1.05222e-08
1.05309e-08
1.053e-08
1.05291e-08
1.05283e-08
1.05276e-08
1.05269e-08
1.05262e-08
1.05255e-08
1.05249e-08
1.05242e-08
1.05237e-08
1.05231e-08
1.05225e-08
1.0522e-08
1.05311e-08
1.05302e-08
1.05293e-08
1.05285e-08
1.05277e-08
1.0527e-08
1.05263e-08
1.05256e-08
1.05249e-08
1.05243e-08
1.05237e-08
1.05231e-08
1.05225e-08
1.05219e-08
1.05313e-08
1.05304e-08
1.05295e-08
1.05287e-08
1.05279e-08
1.05271e-08
1.05264e-08
1.05257e-08
1.0525e-08
1.05243e-08
1.05237e-08
1.05231e-08
1.05224e-08
1.05219e-08
1.05315e-08
1.05306e-08
1.05298e-08
1.05289e-08
1.05281e-08
1.05273e-08
1.05266e-08
1.05258e-08
1.05251e-08
1.05244e-08
1.05238e-08
1.05231e-08
1.05225e-08
1.05218e-08
1.05318e-08
1.05309e-08
1.053e-08
1.05292e-08
1.05283e-08
1.05275e-08
1.05268e-08
1.0526e-08
1.05253e-08
1.05246e-08
1.05239e-08
1.05232e-08
1.05226e-08
1.05219e-08
1.0532e-08
1.05312e-08
1.05303e-08
1.05294e-08
1.05286e-08
1.05278e-08
1.0527e-08
1.05262e-08
1.05255e-08
1.05248e-08
1.05241e-08
1.05234e-08
1.05227e-08
1.0522e-08
1.05323e-08
1.05314e-08
1.05306e-08
1.05297e-08
1.05289e-08
1.05281e-08
1.05273e-08
1.05265e-08
1.05257e-08
1.0525e-08
1.05243e-08
1.05235e-08
1.05228e-08
1.05221e-08
1.05325e-08
1.05317e-08
1.05309e-08
1.053e-08
1.05292e-08
1.05284e-08
1.05276e-08
1.05268e-08
1.0526e-08
1.05252e-08
1.05245e-08
1.05237e-08
1.0523e-08
1.05223e-08
1.05328e-08
1.05321e-08
1.05312e-08
1.05304e-08
1.05295e-08
1.05287e-08
1.05279e-08
1.05271e-08
1.05263e-08
1.05255e-08
1.05248e-08
1.0524e-08
1.05233e-08
1.05225e-08
1.05332e-08
1.05324e-08
1.05316e-08
1.05307e-08
1.05299e-08
1.05291e-08
1.05282e-08
1.05274e-08
1.05266e-08
1.05259e-08
1.05251e-08
1.05243e-08
1.05236e-08
1.05228e-08
1.05335e-08
1.05327e-08
1.05319e-08
1.05311e-08
1.05303e-08
1.05294e-08
1.05286e-08
1.05278e-08
1.0527e-08
1.05262e-08
1.05255e-08
1.05247e-08
1.05239e-08
1.0523e-08
1.05338e-08
1.0533e-08
1.05323e-08
1.05315e-08
1.05307e-08
1.05298e-08
1.0529e-08
1.05282e-08
1.05275e-08
1.05267e-08
1.05259e-08
1.05251e-08
1.05243e-08
1.05234e-08
1.05292e-08
1.05283e-08
1.05275e-08
1.05267e-08
1.05259e-08
1.05252e-08
1.05244e-08
1.05237e-08
1.0523e-08
1.05222e-08
1.05216e-08
1.05209e-08
1.05203e-08
1.05196e-08
1.05289e-08
1.0528e-08
1.05272e-08
1.05264e-08
1.05256e-08
1.05248e-08
1.05241e-08
1.05233e-08
1.05226e-08
1.05218e-08
1.05211e-08
1.05204e-08
1.05197e-08
1.05191e-08
1.05285e-08
1.05276e-08
1.05268e-08
1.0526e-08
1.05253e-08
1.05245e-08
1.05237e-08
1.05229e-08
1.05222e-08
1.05214e-08
1.05207e-08
1.05199e-08
1.05192e-08
1.05185e-08
1.05282e-08
1.05273e-08
1.05265e-08
1.05257e-08
1.05249e-08
1.05241e-08
1.05233e-08
1.05225e-08
1.05217e-08
1.05209e-08
1.05202e-08
1.05194e-08
1.05187e-08
1.0518e-08
1.05278e-08
1.0527e-08
1.05261e-08
1.05253e-08
1.05245e-08
1.05237e-08
1.05229e-08
1.05221e-08
1.05213e-08
1.05205e-08
1.05197e-08
1.05189e-08
1.05182e-08
1.05174e-08
1.05274e-08
1.05266e-08
1.05258e-08
1.0525e-08
1.05241e-08
1.05233e-08
1.05225e-08
1.05217e-08
1.05209e-08
1.052e-08
1.05192e-08
1.05184e-08
1.05176e-08
1.05168e-08
1.05271e-08
1.05262e-08
1.05254e-08
1.05246e-08
1.05238e-08
1.05229e-08
1.05221e-08
1.05213e-08
1.05204e-08
1.05196e-08
1.05187e-08
1.05179e-08
1.05171e-08
1.05162e-08
1.05267e-08
1.05259e-08
1.0525e-08
1.05242e-08
1.05233e-08
1.05225e-08
1.05217e-08
1.05208e-08
1.052e-08
1.05191e-08
1.05183e-08
1.05174e-08
1.05165e-08
1.05157e-08
1.05263e-08
1.05255e-08
1.05246e-08
1.05238e-08
1.05229e-08
1.05221e-08
1.05212e-08
1.05204e-08
1.05195e-08
1.05186e-08
1.05177e-08
1.05169e-08
1.0516e-08
1.05151e-08
1.05259e-08
1.05251e-08
1.05242e-08
1.05234e-08
1.05225e-08
1.05217e-08
1.05208e-08
1.05199e-08
1.0519e-08
1.05181e-08
1.05172e-08
1.05163e-08
1.05154e-08
1.05146e-08
1.05255e-08
1.05247e-08
1.05238e-08
1.0523e-08
1.05221e-08
1.05212e-08
1.05203e-08
1.05195e-08
1.05185e-08
1.05176e-08
1.05167e-08
1.05158e-08
1.05149e-08
1.0514e-08
1.05251e-08
1.05243e-08
1.05234e-08
1.05225e-08
1.05217e-08
1.05208e-08
1.05199e-08
1.0519e-08
1.05181e-08
1.05172e-08
1.05162e-08
1.05153e-08
1.05144e-08
1.05135e-08
1.05246e-08
1.05238e-08
1.0523e-08
1.05221e-08
1.05212e-08
1.05203e-08
1.05194e-08
1.05185e-08
1.05176e-08
1.05166e-08
1.05157e-08
1.05147e-08
1.05138e-08
1.05129e-08
1.05242e-08
1.05234e-08
1.05226e-08
1.05217e-08
1.05208e-08
1.05199e-08
1.0519e-08
1.05181e-08
1.05172e-08
1.05162e-08
1.05153e-08
1.05143e-08
1.05134e-08
1.05125e-08
1.05236e-08
1.05228e-08
1.05221e-08
1.05214e-08
1.05207e-08
1.05199e-08
1.05192e-08
1.05184e-08
1.05176e-08
1.05169e-08
1.05161e-08
1.05153e-08
1.05146e-08
1.05138e-08
1.05228e-08
1.05221e-08
1.05214e-08
1.05207e-08
1.05199e-08
1.05192e-08
1.05184e-08
1.05177e-08
1.05169e-08
1.05161e-08
1.05153e-08
1.05145e-08
1.05138e-08
1.05129e-08
1.05219e-08
1.05213e-08
1.05206e-08
1.05199e-08
1.05192e-08
1.05184e-08
1.05177e-08
1.05169e-08
1.05161e-08
1.05153e-08
1.05145e-08
1.05137e-08
1.05129e-08
1.05121e-08
1.05211e-08
1.05204e-08
1.05198e-08
1.05191e-08
1.05184e-08
1.05176e-08
1.05169e-08
1.05161e-08
1.05153e-08
1.05145e-08
1.05137e-08
1.05128e-08
1.05121e-08
1.05112e-08
1.05202e-08
1.05196e-08
1.05189e-08
1.05183e-08
1.05175e-08
1.05168e-08
1.0516e-08
1.05153e-08
1.05145e-08
1.05136e-08
1.05128e-08
1.0512e-08
1.05112e-08
1.05103e-08
1.05194e-08
1.05187e-08
1.05181e-08
1.05174e-08
1.05167e-08
1.05159e-08
1.05152e-08
1.05144e-08
1.05136e-08
1.05127e-08
1.05119e-08
1.0511e-08
1.05102e-08
1.05094e-08
1.05185e-08
1.05179e-08
1.05172e-08
1.05165e-08
1.05158e-08
1.0515e-08
1.05142e-08
1.05134e-08
1.05126e-08
1.05118e-08
1.0511e-08
1.05101e-08
1.05093e-08
1.05084e-08
1.05176e-08
1.05169e-08
1.05162e-08
1.05155e-08
1.05148e-08
1.05141e-08
1.05133e-08
1.05125e-08
1.05117e-08
1.05108e-08
1.051e-08
1.05091e-08
1.05082e-08
1.05074e-08
1.05167e-08
1.0516e-08
1.05153e-08
1.05146e-08
1.05139e-08
1.05131e-08
1.05123e-08
1.05115e-08
1.05107e-08
1.05098e-08
1.05089e-08
1.05081e-08
1.05072e-08
1.05064e-08
1.05157e-08
1.0515e-08
1.05143e-08
1.05136e-08
1.05128e-08
1.05121e-08
1.05113e-08
1.05105e-08
1.05096e-08
1.05088e-08
1.05079e-08
1.0507e-08
1.05061e-08
1.05053e-08
1.05148e-08
1.05141e-08
1.05133e-08
1.05126e-08
1.05119e-08
1.05111e-08
1.05103e-08
1.05094e-08
1.05086e-08
1.05077e-08
1.05068e-08
1.05059e-08
1.0505e-08
1.05042e-08
1.05138e-08
1.0513e-08
1.05123e-08
1.05115e-08
1.05108e-08
1.051e-08
1.05092e-08
1.05084e-08
1.05075e-08
1.05066e-08
1.05057e-08
1.05049e-08
1.05039e-08
1.05032e-08
1.05128e-08
1.0512e-08
1.05113e-08
1.05105e-08
1.05098e-08
1.0509e-08
1.05081e-08
1.05073e-08
1.05064e-08
1.05055e-08
1.05046e-08
1.05037e-08
1.05028e-08
1.0502e-08
1.05118e-08
1.0511e-08
1.05102e-08
1.05094e-08
1.05086e-08
1.05078e-08
1.0507e-08
1.05062e-08
1.05053e-08
1.05044e-08
1.05035e-08
1.05027e-08
1.05018e-08
1.0501e-08
1.05113e-08
1.05108e-08
1.05103e-08
1.05098e-08
1.05093e-08
1.05087e-08
1.05081e-08
1.05075e-08
1.05068e-08
1.05061e-08
1.05054e-08
1.05046e-08
1.0504e-08
1.05032e-08
1.05102e-08
1.05098e-08
1.05093e-08
1.05088e-08
1.05083e-08
1.05077e-08
1.05071e-08
1.05065e-08
1.05058e-08
1.05051e-08
1.05044e-08
1.05036e-08
1.05029e-08
1.05022e-08
1.05091e-08
1.05087e-08
1.05083e-08
1.05078e-08
1.05073e-08
1.05067e-08
1.05061e-08
1.05054e-08
1.05048e-08
1.05041e-08
1.05034e-08
1.05027e-08
1.0502e-08
1.05012e-08
1.0508e-08
1.05076e-08
1.05072e-08
1.05067e-08
1.05062e-08
1.05056e-08
1.0505e-08
1.05044e-08
1.05037e-08
1.0503e-08
1.05023e-08
1.05016e-08
1.05009e-08
1.05001e-08
1.05068e-08
1.05065e-08
1.0506e-08
1.05056e-08
1.05051e-08
1.05045e-08
1.05039e-08
1.05032e-08
1.05026e-08
1.05019e-08
1.05012e-08
1.05005e-08
1.04998e-08
1.04991e-08
1.05057e-08
1.05053e-08
1.05049e-08
1.05044e-08
1.05039e-08
1.05033e-08
1.05027e-08
1.05021e-08
1.05014e-08
1.05008e-08
1.05001e-08
1.04994e-08
1.04987e-08
1.04979e-08
1.05045e-08
1.05041e-08
1.05037e-08
1.05032e-08
1.05027e-08
1.05021e-08
1.05015e-08
1.05009e-08
1.05002e-08
1.04996e-08
1.04989e-08
1.04982e-08
1.04975e-08
1.04968e-08
1.05033e-08
1.05029e-08
1.05024e-08
1.0502e-08
1.05014e-08
1.05009e-08
1.05003e-08
1.04997e-08
1.0499e-08
1.04983e-08
1.04976e-08
1.04969e-08
1.04962e-08
1.04956e-08
1.05021e-08
1.05017e-08
1.05012e-08
1.05007e-08
1.05002e-08
1.04996e-08
1.0499e-08
1.04984e-08
1.04977e-08
1.04971e-08
1.04964e-08
1.04957e-08
1.0495e-08
1.04943e-08
1.05008e-08
1.05004e-08
1.04999e-08
1.04994e-08
1.04989e-08
1.04983e-08
1.04977e-08
1.04971e-08
1.04964e-08
1.04958e-08
1.04951e-08
1.04944e-08
1.04937e-08
1.04931e-08
1.04996e-08
1.04991e-08
1.04986e-08
1.04981e-08
1.04976e-08
1.0497e-08
1.04964e-08
1.04958e-08
1.04951e-08
1.04944e-08
1.04937e-08
1.04931e-08
1.04923e-08
1.04918e-08
1.04983e-08
1.04977e-08
1.04973e-08
1.04967e-08
1.04962e-08
1.04956e-08
1.0495e-08
1.04944e-08
1.04938e-08
1.04931e-08
1.04924e-08
1.04917e-08
1.0491e-08
1.04905e-08
1.04971e-08
1.04965e-08
1.0496e-08
1.04954e-08
1.04949e-08
1.04943e-08
1.04937e-08
1.0493e-08
1.04924e-08
1.04917e-08
1.0491e-08
1.04903e-08
1.04897e-08
1.04892e-08
1.04957e-08
1.04951e-08
1.04946e-08
1.0494e-08
1.04935e-08
1.04929e-08
1.04923e-08
1.04917e-08
1.04911e-08
1.04904e-08
1.04897e-08
1.0489e-08
1.04884e-08
1.04879e-08
1.04917e-08
1.04915e-08
1.04913e-08
1.04911e-08
1.04909e-08
1.04906e-08
1.04903e-08
1.04899e-08
1.04895e-08
1.0489e-08
1.04886e-08
1.0488e-08
1.04876e-08
1.0487e-08
1.04906e-08
1.04905e-08
1.04904e-08
1.04901e-08
1.04899e-08
1.04896e-08
1.04892e-08
1.04889e-08
1.04885e-08
1.0488e-08
1.04875e-08
1.0487e-08
1.04866e-08
1.0486e-08
1.04895e-08
1.04895e-08
1.04893e-08
1.04891e-08
1.04888e-08
1.04885e-08
1.04882e-08
1.04878e-08
1.04874e-08
1.0487e-08
1.04866e-08
1.04861e-08
1.04857e-08
1.04851e-08
1.04884e-08
1.04884e-08
1.04882e-08
1.0488e-08
1.04877e-08
1.04874e-08
1.04871e-08
1.04868e-08
1.04864e-08
1.0486e-08
1.04855e-08
1.04851e-08
1.04846e-08
1.04841e-08
1.04873e-08
1.04873e-08
1.04871e-08
1.04869e-08
1.04866e-08
1.04863e-08
1.0486e-08
1.04856e-08
1.04853e-08
1.04849e-08
1.04845e-08
1.0484e-08
1.04836e-08
1.04831e-08
1.04862e-08
1.04861e-08
1.04859e-08
1.04857e-08
1.04854e-08
1.04852e-08
1.04848e-08
1.04845e-08
1.04841e-08
1.04837e-08
1.04833e-08
1.04829e-08
1.04825e-08
1.0482e-08
1.04851e-08
1.04849e-08
1.04847e-08
1.04845e-08
1.04843e-08
1.0484e-08
1.04837e-08
1.04833e-08
1.0483e-08
1.04826e-08
1.04822e-08
1.04818e-08
1.04814e-08
1.0481e-08
1.04839e-08
1.04837e-08
1.04835e-08
1.04833e-08
1.04831e-08
1.04828e-08
1.04825e-08
1.04821e-08
1.04818e-08
1.04814e-08
1.0481e-08
1.04806e-08
1.04802e-08
1.04798e-08
1.04827e-08
1.04825e-08
1.04823e-08
1.04821e-08
1.04818e-08
1.04816e-08
1.04812e-08
1.04809e-08
1.04806e-08
1.04802e-08
1.04798e-08
1.04794e-08
1.0479e-08
1.04787e-08
1.04815e-08
1.04813e-08
1.04811e-08
1.04808e-08
1.04806e-08
1.04803e-08
1.048e-08
1.04797e-08
1.04793e-08
1.0479e-08
1.04786e-08
1.04782e-08
1.04778e-08
1.04775e-08
1.04803e-08
1.048e-08
1.04798e-08
1.04796e-08
1.04793e-08
1.04791e-08
1.04788e-08
1.04784e-08
1.04781e-08
1.04777e-08
1.04774e-08
1.0477e-08
1.04766e-08
1.04764e-08
1.04791e-08
1.04788e-08
1.04786e-08
1.04783e-08
1.04781e-08
1.04778e-08
1.04775e-08
1.04772e-08
1.04768e-08
1.04765e-08
1.04761e-08
1.04758e-08
1.04754e-08
1.04752e-08
1.04779e-08
1.04776e-08
1.04773e-08
1.04771e-08
1.04768e-08
1.04766e-08
1.04762e-08
1.04759e-08
1.04756e-08
1.04752e-08
1.04749e-08
1.04746e-08
1.04742e-08
1.04741e-08
1.04767e-08
1.04763e-08
1.0476e-08
1.04758e-08
1.04756e-08
1.04753e-08
1.0475e-08
1.04747e-08
1.04744e-08
1.0474e-08
1.04737e-08
1.04733e-08
1.0473e-08
1.04729e-08
1.04662e-08
1.04664e-08
1.04664e-08
1.04665e-08
1.04666e-08
1.04667e-08
1.04667e-08
1.04666e-08
1.04665e-08
1.04664e-08
1.04663e-08
1.04661e-08
1.0466e-08
1.04658e-08
1.04655e-08
1.04656e-08
1.04657e-08
1.04658e-08
1.04659e-08
1.04659e-08
1.04659e-08
1.04659e-08
1.04658e-08
1.04657e-08
1.04656e-08
1.04654e-08
1.04653e-08
1.0465e-08
1.04647e-08
1.04649e-08
1.0465e-08
1.04651e-08
1.04651e-08
1.04652e-08
1.04652e-08
1.04651e-08
1.04651e-08
1.0465e-08
1.04649e-08
1.04647e-08
1.04646e-08
1.04644e-08
1.04639e-08
1.04641e-08
1.04642e-08
1.04643e-08
1.04643e-08
1.04644e-08
1.04644e-08
1.04643e-08
1.04643e-08
1.04642e-08
1.04641e-08
1.0464e-08
1.04639e-08
1.04637e-08
1.04632e-08
1.04633e-08
1.04634e-08
1.04635e-08
1.04635e-08
1.04636e-08
1.04636e-08
1.04635e-08
1.04635e-08
1.04634e-08
1.04633e-08
1.04632e-08
1.04631e-08
1.0463e-08
1.04624e-08
1.04625e-08
1.04626e-08
1.04627e-08
1.04627e-08
1.04627e-08
1.04627e-08
1.04627e-08
1.04627e-08
1.04626e-08
1.04625e-08
1.04625e-08
1.04624e-08
1.04622e-08
1.04615e-08
1.04617e-08
1.04618e-08
1.04618e-08
1.04619e-08
1.04619e-08
1.04619e-08
1.04619e-08
1.04618e-08
1.04618e-08
1.04617e-08
1.04617e-08
1.04616e-08
1.04615e-08
1.04607e-08
1.04608e-08
1.04609e-08
1.0461e-08
1.0461e-08
1.0461e-08
1.0461e-08
1.0461e-08
1.0461e-08
1.0461e-08
1.04609e-08
1.04609e-08
1.04608e-08
1.04607e-08
1.04599e-08
1.04599e-08
1.046e-08
1.04601e-08
1.04601e-08
1.04602e-08
1.04602e-08
1.04602e-08
1.04601e-08
1.04601e-08
1.04601e-08
1.046e-08
1.04599e-08
1.04599e-08
1.0459e-08
1.04591e-08
1.04592e-08
1.04592e-08
1.04593e-08
1.04593e-08
1.04593e-08
1.04593e-08
1.04593e-08
1.04593e-08
1.04592e-08
1.04592e-08
1.04591e-08
1.04591e-08
1.04582e-08
1.04582e-08
1.04583e-08
1.04583e-08
1.04584e-08
1.04584e-08
1.04584e-08
1.04584e-08
1.04584e-08
1.04584e-08
1.04584e-08
1.04583e-08
1.04583e-08
1.04583e-08
1.04574e-08
1.04573e-08
1.04574e-08
1.04574e-08
1.04575e-08
1.04575e-08
1.04575e-08
1.04575e-08
1.04575e-08
1.04575e-08
1.04575e-08
1.04575e-08
1.04574e-08
1.04575e-08
1.04565e-08
1.04565e-08
1.04565e-08
1.04566e-08
1.04566e-08
1.04566e-08
1.04567e-08
1.04567e-08
1.04567e-08
1.04567e-08
1.04566e-08
1.04566e-08
1.04566e-08
1.04567e-08
1.04557e-08
1.04556e-08
1.04556e-08
1.04557e-08
1.04557e-08
1.04558e-08
1.04558e-08
1.04558e-08
1.04558e-08
1.04558e-08
1.04558e-08
1.04558e-08
1.04558e-08
1.04558e-08
1.0438e-08
1.04383e-08
1.04386e-08
1.04389e-08
1.04392e-08
1.04395e-08
1.04397e-08
1.04399e-08
1.04401e-08
1.04403e-08
1.04405e-08
1.04406e-08
1.04408e-08
1.04408e-08
1.04377e-08
1.0438e-08
1.04383e-08
1.04386e-08
1.04389e-08
1.04392e-08
1.04394e-08
1.04397e-08
1.04399e-08
1.04401e-08
1.04402e-08
1.04404e-08
1.04405e-08
1.04405e-08
1.04374e-08
1.04378e-08
1.0438e-08
1.04383e-08
1.04386e-08
1.04389e-08
1.04391e-08
1.04394e-08
1.04396e-08
1.04398e-08
1.044e-08
1.04401e-08
1.04402e-08
1.04403e-08
1.04371e-08
1.04374e-08
1.04377e-08
1.0438e-08
1.04383e-08
1.04386e-08
1.04388e-08
1.04391e-08
1.04393e-08
1.04395e-08
1.04397e-08
1.04398e-08
1.044e-08
1.044e-08
1.04368e-08
1.04371e-08
1.04374e-08
1.04377e-08
1.0438e-08
1.04383e-08
1.04385e-08
1.04387e-08
1.0439e-08
1.04392e-08
1.04393e-08
1.04395e-08
1.04397e-08
1.04397e-08
1.04365e-08
1.04368e-08
1.04371e-08
1.04374e-08
1.04377e-08
1.04379e-08
1.04382e-08
1.04384e-08
1.04386e-08
1.04388e-08
1.0439e-08
1.04392e-08
1.04393e-08
1.04395e-08
1.04362e-08
1.04365e-08
1.04367e-08
1.0437e-08
1.04373e-08
1.04376e-08
1.04378e-08
1.04381e-08
1.04383e-08
1.04385e-08
1.04387e-08
1.04389e-08
1.0439e-08
1.04392e-08
1.04358e-08
1.04361e-08
1.04364e-08
1.04367e-08
1.04369e-08
1.04372e-08
1.04375e-08
1.04377e-08
1.04379e-08
1.04381e-08
1.04383e-08
1.04385e-08
1.04387e-08
1.04388e-08
1.04354e-08
1.04357e-08
1.0436e-08
1.04363e-08
1.04366e-08
1.04368e-08
1.04371e-08
1.04373e-08
1.04376e-08
1.04378e-08
1.0438e-08
1.04382e-08
1.04383e-08
1.04385e-08
1.04351e-08
1.04353e-08
1.04356e-08
1.04359e-08
1.04362e-08
1.04365e-08
1.04367e-08
1.0437e-08
1.04372e-08
1.04374e-08
1.04376e-08
1.04378e-08
1.0438e-08
1.04382e-08
1.04347e-08
1.0435e-08
1.04353e-08
1.04355e-08
1.04358e-08
1.04361e-08
1.04363e-08
1.04366e-08
1.04368e-08
1.0437e-08
1.04372e-08
1.04374e-08
1.04376e-08
1.04379e-08
1.04343e-08
1.04346e-08
1.04349e-08
1.04352e-08
1.04354e-08
1.04357e-08
1.04359e-08
1.04362e-08
1.04364e-08
1.04366e-08
1.04369e-08
1.04371e-08
1.04373e-08
1.04375e-08
1.04339e-08
1.04342e-08
1.04345e-08
1.04348e-08
1.0435e-08
1.04353e-08
1.04355e-08
1.04358e-08
1.0436e-08
1.04362e-08
1.04365e-08
1.04367e-08
1.04369e-08
1.04371e-08
1.04336e-08
1.04338e-08
1.04341e-08
1.04344e-08
1.04346e-08
1.04349e-08
1.04351e-08
1.04354e-08
1.04356e-08
1.04358e-08
1.04361e-08
1.04363e-08
1.04365e-08
1.04367e-08
1.04098e-08
1.04101e-08
1.04105e-08
1.04109e-08
1.04112e-08
1.04116e-08
1.04119e-08
1.04123e-08
1.04126e-08
1.04129e-08
1.04132e-08
1.04135e-08
1.04138e-08
1.04141e-08
1.04099e-08
1.04102e-08
1.04106e-08
1.0411e-08
1.04114e-08
1.04117e-08
1.04121e-08
1.04124e-08
1.04128e-08
1.04131e-08
1.04134e-08
1.04137e-08
1.04139e-08
1.04142e-08
1.041e-08
1.04104e-08
1.04108e-08
1.04111e-08
1.04115e-08
1.04119e-08
1.04122e-08
1.04126e-08
1.04129e-08
1.04132e-08
1.04135e-08
1.04138e-08
1.04141e-08
1.04143e-08
1.04101e-08
1.04105e-08
1.04109e-08
1.04113e-08
1.04117e-08
1.0412e-08
1.04124e-08
1.04127e-08
1.04131e-08
1.04134e-08
1.04137e-08
1.04139e-08
1.04142e-08
1.04144e-08
1.04103e-08
1.04106e-08
1.0411e-08
1.04114e-08
1.04118e-08
1.04122e-08
1.04125e-08
1.04129e-08
1.04132e-08
1.04135e-08
1.04138e-08
1.04141e-08
1.04143e-08
1.04145e-08
1.04104e-08
1.04107e-08
1.04111e-08
1.04115e-08
1.04119e-08
1.04123e-08
1.04126e-08
1.0413e-08
1.04133e-08
1.04136e-08
1.04139e-08
1.04142e-08
1.04144e-08
1.04146e-08
1.04104e-08
1.04108e-08
1.04112e-08
1.04116e-08
1.0412e-08
1.04124e-08
1.04127e-08
1.04131e-08
1.04134e-08
1.04137e-08
1.0414e-08
1.04143e-08
1.04145e-08
1.04147e-08
1.04105e-08
1.04109e-08
1.04113e-08
1.04117e-08
1.04121e-08
1.04124e-08
1.04128e-08
1.04131e-08
1.04135e-08
1.04138e-08
1.04141e-08
1.04144e-08
1.04146e-08
1.04148e-08
1.04106e-08
1.0411e-08
1.04114e-08
1.04118e-08
1.04121e-08
1.04125e-08
1.04129e-08
1.04132e-08
1.04135e-08
1.04138e-08
1.04141e-08
1.04144e-08
1.04147e-08
1.04149e-08
1.04106e-08
1.0411e-08
1.04114e-08
1.04118e-08
1.04122e-08
1.04126e-08
1.04129e-08
1.04133e-08
1.04136e-08
1.04139e-08
1.04142e-08
1.04145e-08
1.04147e-08
1.0415e-08
1.04106e-08
1.0411e-08
1.04114e-08
1.04118e-08
1.04122e-08
1.04126e-08
1.04129e-08
1.04133e-08
1.04136e-08
1.04139e-08
1.04142e-08
1.04145e-08
1.04148e-08
1.0415e-08
1.04107e-08
1.04111e-08
1.04115e-08
1.04119e-08
1.04122e-08
1.04126e-08
1.0413e-08
1.04133e-08
1.04136e-08
1.04139e-08
1.04142e-08
1.04145e-08
1.04148e-08
1.04151e-08
1.04107e-08
1.04111e-08
1.04115e-08
1.04119e-08
1.04122e-08
1.04126e-08
1.04129e-08
1.04133e-08
1.04136e-08
1.04139e-08
1.04143e-08
1.04145e-08
1.04148e-08
1.04151e-08
1.04107e-08
1.04111e-08
1.04115e-08
1.04119e-08
1.04122e-08
1.04126e-08
1.04129e-08
1.04133e-08
1.04136e-08
1.04139e-08
1.04142e-08
1.04145e-08
1.04148e-08
1.04151e-08
1.03832e-08
1.03835e-08
1.03838e-08
1.03841e-08
1.03844e-08
1.03847e-08
1.03851e-08
1.03854e-08
1.03857e-08
1.0386e-08
1.03863e-08
1.03865e-08
1.03868e-08
1.03871e-08
1.03836e-08
1.03838e-08
1.03842e-08
1.03845e-08
1.03848e-08
1.03851e-08
1.03855e-08
1.03858e-08
1.03861e-08
1.03864e-08
1.03867e-08
1.03869e-08
1.03872e-08
1.03874e-08
1.03839e-08
1.03842e-08
1.03845e-08
1.03849e-08
1.03852e-08
1.03855e-08
1.03859e-08
1.03862e-08
1.03865e-08
1.03868e-08
1.0387e-08
1.03873e-08
1.03875e-08
1.03878e-08
1.03843e-08
1.03846e-08
1.03849e-08
1.03852e-08
1.03856e-08
1.03859e-08
1.03862e-08
1.03866e-08
1.03869e-08
1.03871e-08
1.03874e-08
1.03877e-08
1.03879e-08
1.03881e-08
1.03846e-08
1.03849e-08
1.03853e-08
1.03856e-08
1.0386e-08
1.03863e-08
1.03866e-08
1.03869e-08
1.03872e-08
1.03875e-08
1.03878e-08
1.0388e-08
1.03882e-08
1.03884e-08
1.03849e-08
1.03853e-08
1.03856e-08
1.0386e-08
1.03863e-08
1.03867e-08
1.0387e-08
1.03873e-08
1.03876e-08
1.03879e-08
1.03881e-08
1.03884e-08
1.03886e-08
1.03888e-08
1.03853e-08
1.03856e-08
1.0386e-08
1.03863e-08
1.03867e-08
1.0387e-08
1.03873e-08
1.03876e-08
1.03879e-08
1.03882e-08
1.03885e-08
1.03887e-08
1.03889e-08
1.03891e-08
1.03856e-08
1.03859e-08
1.03863e-08
1.03867e-08
1.0387e-08
1.03873e-08
1.03877e-08
1.0388e-08
1.03883e-08
1.03885e-08
1.03888e-08
1.0389e-08
1.03892e-08
1.03894e-08
1.03859e-08
1.03862e-08
1.03866e-08
1.0387e-08
1.03873e-08
1.03876e-08
1.0388e-08
1.03883e-08
1.03886e-08
1.03888e-08
1.03891e-08
1.03893e-08
1.03896e-08
1.03897e-08
1.03861e-08
1.03865e-08
1.03869e-08
1.03872e-08
1.03876e-08
1.03879e-08
1.03883e-08
1.03886e-08
1.03889e-08
1.03891e-08
1.03894e-08
1.03896e-08
1.03898e-08
1.039e-08
1.03864e-08
1.03868e-08
1.03871e-08
1.03875e-08
1.03879e-08
1.03882e-08
1.03885e-08
1.03888e-08
1.03891e-08
1.03894e-08
1.03897e-08
1.03899e-08
1.03901e-08
1.03903e-08
1.03866e-08
1.0387e-08
1.03874e-08
1.03878e-08
1.03881e-08
1.03885e-08
1.03888e-08
1.03891e-08
1.03894e-08
1.03897e-08
1.03899e-08
1.03902e-08
1.03904e-08
1.03906e-08
1.03869e-08
1.03873e-08
1.03876e-08
1.0388e-08
1.03883e-08
1.03887e-08
1.0389e-08
1.03893e-08
1.03896e-08
1.03899e-08
1.03902e-08
1.03904e-08
1.03906e-08
1.03909e-08
1.03871e-08
1.03875e-08
1.03879e-08
1.03882e-08
1.03886e-08
1.03889e-08
1.03892e-08
1.03895e-08
1.03898e-08
1.03901e-08
1.03904e-08
1.03906e-08
1.03909e-08
1.03911e-08
1.03589e-08
1.03591e-08
1.03593e-08
1.03594e-08
1.03596e-08
1.03598e-08
1.036e-08
1.03602e-08
1.03604e-08
1.03606e-08
1.03607e-08
1.03609e-08
1.03611e-08
1.03613e-08
1.03593e-08
1.03594e-08
1.03596e-08
1.03598e-08
1.036e-08
1.03602e-08
1.03604e-08
1.03606e-08
1.03608e-08
1.0361e-08
1.03611e-08
1.03613e-08
1.03615e-08
1.03617e-08
1.03596e-08
1.03598e-08
1.036e-08
1.03602e-08
1.03604e-08
1.03606e-08
1.03608e-08
1.0361e-08
1.03612e-08
1.03614e-08
1.03615e-08
1.03617e-08
1.03618e-08
1.0362e-08
1.036e-08
1.03602e-08
1.03604e-08
1.03606e-08
1.03608e-08
1.0361e-08
1.03612e-08
1.03614e-08
1.03616e-08
1.03618e-08
1.03619e-08
1.03621e-08
1.03622e-08
1.03624e-08
1.03604e-08
1.03605e-08
1.03608e-08
1.0361e-08
1.03612e-08
1.03614e-08
1.03616e-08
1.03618e-08
1.0362e-08