/*--------------------------------*- C++ -*----------------------------------*\
| =========                 |                                                 |
| \\      /  F ield         | OpenFOAM: The Open Source CFD Toolbox           |
|  \\    /   O peration     | Version:  v2106                                 |
|   \\  /    A nd           | Website:  www.openfoam.com                      |
|    \\/     M anipulation  |                                                 |
\*---------------------------------------------------------------------------*/
FoamFile
{
    version     2.0;
    format      ascii;
    arch        "LSB;label=32;scalar=64";
    class       volScalarField;
    location    "0.000213";
    object      nut;
}
// * * * * * * * * * * * * * * * * * * * * * * * * * * * * * * * * * * * * * //

dimensions      [0 2 -1 0 0 0 0];

internalField   nonuniform List<scalar> 
17920
(
3.5591e-17
3.55919e-17
3.5595e-17
3.55962e-17
3.55987e-17
3.56e-17
3.56026e-17
3.5604e-17
3.56065e-17
3.56078e-17
3.56104e-17
3.56117e-17
3.56142e-17
3.56155e-17
3.5618e-17
3.56193e-17
3.56217e-17
3.5623e-17
3.56254e-17
3.56268e-17
3.56291e-17
3.56305e-17
3.56327e-17
3.56341e-17
3.56361e-17
3.56376e-17
3.56391e-17
3.56407e-17
3.55683e-17
3.55681e-17
3.55682e-17
3.55684e-17
3.55687e-17
3.5569e-17
3.55693e-17
3.55697e-17
3.55701e-17
3.55706e-17
3.5571e-17
3.55715e-17
3.55719e-17
3.55725e-17
3.5571e-17
3.55706e-17
3.55708e-17
3.55709e-17
3.55711e-17
3.55714e-17
3.55718e-17
3.55722e-17
3.55727e-17
3.55732e-17
3.55737e-17
3.55743e-17
3.55747e-17
3.55755e-17
3.55733e-17
3.5573e-17
3.55733e-17
3.55734e-17
3.55737e-17
3.5574e-17
3.55745e-17
3.55749e-17
3.55754e-17
3.55759e-17
3.55765e-17
3.55771e-17
3.55776e-17
3.55784e-17
3.5576e-17
3.55757e-17
3.5576e-17
3.55762e-17
3.55764e-17
3.55768e-17
3.55772e-17
3.55777e-17
3.55783e-17
3.55788e-17
3.55794e-17
3.558e-17
3.55806e-17
3.55815e-17
3.55785e-17
3.55784e-17
3.55787e-17
3.5579e-17
3.55793e-17
3.55797e-17
3.55801e-17
3.55807e-17
3.55812e-17
3.55818e-17
3.55825e-17
3.55831e-17
3.55838e-17
3.55845e-17
3.55813e-17
3.55813e-17
3.55816e-17
3.55819e-17
3.55822e-17
3.55826e-17
3.55831e-17
3.55837e-17
3.55843e-17
3.5585e-17
3.55857e-17
3.55864e-17
3.55871e-17
3.55878e-17
3.55841e-17
3.55842e-17
3.55845e-17
3.55848e-17
3.55852e-17
3.55857e-17
3.55862e-17
3.55868e-17
3.55875e-17
3.55882e-17
3.55889e-17
3.55897e-17
3.55904e-17
3.55911e-17
3.55869e-17
3.55872e-17
3.55875e-17
3.55879e-17
3.55883e-17
3.55888e-17
3.55894e-17
3.559e-17
3.55908e-17
3.55915e-17
3.55923e-17
3.55931e-17
3.55939e-17
3.55946e-17
3.55897e-17
3.55901e-17
3.55905e-17
3.55909e-17
3.55914e-17
3.5592e-17
3.55926e-17
3.55933e-17
3.55941e-17
3.55949e-17
3.55957e-17
3.55965e-17
3.55974e-17
3.5598e-17
3.55926e-17
3.55931e-17
3.55935e-17
3.5594e-17
3.55945e-17
3.55952e-17
3.55959e-17
3.55966e-17
3.55975e-17
3.55983e-17
3.55992e-17
3.56e-17
3.5601e-17
3.56016e-17
3.55955e-17
3.5596e-17
3.55965e-17
3.55971e-17
3.55977e-17
3.55984e-17
3.55992e-17
3.56e-17
3.56009e-17
3.56017e-17
3.56026e-17
3.56035e-17
3.56045e-17
3.56052e-17
3.55984e-17
3.5599e-17
3.55995e-17
3.56002e-17
3.56008e-17
3.56016e-17
3.56024e-17
3.56033e-17
3.56042e-17
3.56052e-17
3.56061e-17
3.5607e-17
3.56082e-17
3.56089e-17
3.56012e-17
3.56019e-17
3.56025e-17
3.56032e-17
3.56039e-17
3.56048e-17
3.56057e-17
3.56066e-17
3.56076e-17
3.56086e-17
3.56096e-17
3.56106e-17
3.56117e-17
3.56125e-17
3.56041e-17
3.56048e-17
3.56055e-17
3.56062e-17
3.56071e-17
3.56079e-17
3.56089e-17
3.56099e-17
3.56109e-17
3.5612e-17
3.5613e-17
3.5614e-17
3.56151e-17
3.56161e-17
3.55621e-17
3.55613e-17
3.55608e-17
3.55604e-17
3.556e-17
3.55597e-17
3.55595e-17
3.55593e-17
3.55592e-17
3.55591e-17
3.5559e-17
3.5559e-17
3.55589e-17
3.55592e-17
3.5564e-17
3.55631e-17
3.55625e-17
3.55619e-17
3.55615e-17
3.55612e-17
3.5561e-17
3.55608e-17
3.55607e-17
3.55606e-17
3.55605e-17
3.55605e-17
3.55604e-17
3.55607e-17
3.55656e-17
3.55647e-17
3.55642e-17
3.55636e-17
3.55632e-17
3.55629e-17
3.55626e-17
3.55624e-17
3.55623e-17
3.55622e-17
3.55622e-17
3.55622e-17
3.55621e-17
3.55624e-17
3.55674e-17
3.55666e-17
3.5566e-17
3.55655e-17
3.5565e-17
3.55647e-17
3.55644e-17
3.55642e-17
3.55641e-17
3.5564e-17
3.5564e-17
3.5564e-17
3.55639e-17
3.55641e-17
3.55693e-17
3.55684e-17
3.55679e-17
3.55674e-17
3.5567e-17
3.55666e-17
3.55663e-17
3.55662e-17
3.5566e-17
3.5566e-17
3.55659e-17
3.55659e-17
3.5566e-17
3.55661e-17
3.55712e-17
3.55705e-17
3.557e-17
3.55694e-17
3.5569e-17
3.55687e-17
3.55684e-17
3.55682e-17
3.55681e-17
3.55681e-17
3.55681e-17
3.55681e-17
3.55681e-17
3.55682e-17
3.55732e-17
3.55725e-17
3.5572e-17
3.55716e-17
3.55712e-17
3.55708e-17
3.55706e-17
3.55704e-17
3.55703e-17
3.55703e-17
3.55703e-17
3.55703e-17
3.55704e-17
3.55705e-17
3.55752e-17
3.55747e-17
3.55742e-17
3.55738e-17
3.55734e-17
3.55731e-17
3.55729e-17
3.55727e-17
3.55727e-17
3.55726e-17
3.55727e-17
3.55727e-17
3.55729e-17
3.55729e-17
3.55773e-17
3.55769e-17
3.55765e-17
3.55761e-17
3.55757e-17
3.55755e-17
3.55753e-17
3.55752e-17
3.55751e-17
3.55751e-17
3.55752e-17
3.55752e-17
3.55754e-17
3.55754e-17
3.55794e-17
3.55791e-17
3.55787e-17
3.55784e-17
3.55781e-17
3.55779e-17
3.55778e-17
3.55777e-17
3.55777e-17
3.55777e-17
3.55778e-17
3.55779e-17
3.55781e-17
3.5578e-17
3.55815e-17
3.55814e-17
3.55811e-17
3.55808e-17
3.55806e-17
3.55804e-17
3.55803e-17
3.55803e-17
3.55803e-17
3.55804e-17
3.55805e-17
3.55806e-17
3.55809e-17
3.55808e-17
3.55838e-17
3.55838e-17
3.55835e-17
3.55833e-17
3.55831e-17
3.5583e-17
3.5583e-17
3.5583e-17
3.55831e-17
3.55832e-17
3.55833e-17
3.55835e-17
3.55838e-17
3.55837e-17
3.55861e-17
3.55861e-17
3.55859e-17
3.55858e-17
3.55857e-17
3.55856e-17
3.55857e-17
3.55857e-17
3.55858e-17
3.5586e-17
3.55862e-17
3.55864e-17
3.55867e-17
3.55866e-17
3.55887e-17
3.55886e-17
3.55884e-17
3.55883e-17
3.55883e-17
3.55883e-17
3.55884e-17
3.55885e-17
3.55887e-17
3.55889e-17
3.55891e-17
3.55894e-17
3.55897e-17
3.55898e-17
3.55581e-17
3.55569e-17
3.55561e-17
3.55552e-17
3.55545e-17
3.55538e-17
3.55532e-17
3.55527e-17
3.55522e-17
3.55517e-17
3.55513e-17
3.55509e-17
3.55505e-17
3.55502e-17
3.55591e-17
3.5558e-17
3.55571e-17
3.55561e-17
3.55553e-17
3.55546e-17
3.55539e-17
3.55533e-17
3.55528e-17
3.55523e-17
3.55518e-17
3.55514e-17
3.55509e-17
3.55507e-17
3.556e-17
3.55588e-17
3.55579e-17
3.5557e-17
3.55562e-17
3.55554e-17
3.55547e-17
3.55541e-17
3.55535e-17
3.5553e-17
3.55525e-17
3.5552e-17
3.55516e-17
3.55513e-17
3.5561e-17
3.55599e-17
3.55589e-17
3.55579e-17
3.55571e-17
3.55563e-17
3.55556e-17
3.55549e-17
3.55544e-17
3.55538e-17
3.55533e-17
3.55528e-17
3.55523e-17
3.5552e-17
3.5562e-17
3.55609e-17
3.55599e-17
3.5559e-17
3.55581e-17
3.55573e-17
3.55566e-17
3.55559e-17
3.55553e-17
3.55547e-17
3.55542e-17
3.55537e-17
3.55532e-17
3.55528e-17
3.55631e-17
3.5562e-17
3.55611e-17
3.55601e-17
3.55592e-17
3.55584e-17
3.55576e-17
3.55569e-17
3.55563e-17
3.55557e-17
3.55552e-17
3.55546e-17
3.55541e-17
3.55537e-17
3.55643e-17
3.55632e-17
3.55622e-17
3.55613e-17
3.55604e-17
3.55596e-17
3.55588e-17
3.55581e-17
3.55574e-17
3.55568e-17
3.55563e-17
3.55557e-17
3.55552e-17
3.55547e-17
3.55654e-17
3.55645e-17
3.55635e-17
3.55626e-17
3.55617e-17
3.55608e-17
3.556e-17
3.55593e-17
3.55587e-17
3.55581e-17
3.55575e-17
3.5557e-17
3.55565e-17
3.55559e-17
3.55666e-17
3.55657e-17
3.55648e-17
3.55639e-17
3.5563e-17
3.55622e-17
3.55614e-17
3.55607e-17
3.556e-17
3.55594e-17
3.55589e-17
3.55583e-17
3.55578e-17
3.55572e-17
3.55679e-17
3.55671e-17
3.55662e-17
3.55653e-17
3.55644e-17
3.55636e-17
3.55628e-17
3.55621e-17
3.55615e-17
3.55609e-17
3.55603e-17
3.55597e-17
3.55592e-17
3.55586e-17
3.55691e-17
3.55684e-17
3.55675e-17
3.55667e-17
3.55659e-17
3.55651e-17
3.55644e-17
3.55637e-17
3.5563e-17
3.55624e-17
3.55618e-17
3.55612e-17
3.55608e-17
3.55601e-17
3.55705e-17
3.55698e-17
3.5569e-17
3.55682e-17
3.55674e-17
3.55667e-17
3.55659e-17
3.55653e-17
3.55646e-17
3.5564e-17
3.55635e-17
3.55628e-17
3.55624e-17
3.55618e-17
3.55719e-17
3.55713e-17
3.55705e-17
3.55698e-17
3.5569e-17
3.55683e-17
3.55676e-17
3.5567e-17
3.55663e-17
3.55657e-17
3.55651e-17
3.55645e-17
3.55641e-17
3.55635e-17
3.55735e-17
3.55728e-17
3.5572e-17
3.55713e-17
3.55707e-17
3.557e-17
3.55693e-17
3.55687e-17
3.55681e-17
3.55675e-17
3.5567e-17
3.55664e-17
3.55659e-17
3.55654e-17
3.55541e-17
3.55528e-17
3.55517e-17
3.55507e-17
3.55498e-17
3.55489e-17
3.55481e-17
3.55473e-17
3.55465e-17
3.55457e-17
3.55451e-17
3.55444e-17
3.55438e-17
3.55432e-17
3.55544e-17
3.55531e-17
3.5552e-17
3.5551e-17
3.555e-17
3.55491e-17
3.55482e-17
3.55473e-17
3.55465e-17
3.55457e-17
3.55449e-17
3.55442e-17
3.55435e-17
3.55429e-17
3.55545e-17
3.55533e-17
3.55522e-17
3.55511e-17
3.55501e-17
3.55492e-17
3.55483e-17
3.55474e-17
3.55465e-17
3.55457e-17
3.55449e-17
3.55441e-17
3.55434e-17
3.55427e-17
3.55548e-17
3.55535e-17
3.55524e-17
3.55513e-17
3.55503e-17
3.55493e-17
3.55484e-17
3.55475e-17
3.55466e-17
3.55457e-17
3.55449e-17
3.55441e-17
3.55433e-17
3.55426e-17
3.5555e-17
3.55538e-17
3.55527e-17
3.55516e-17
3.55505e-17
3.55495e-17
3.55485e-17
3.55476e-17
3.55467e-17
3.55458e-17
3.55449e-17
3.5544e-17
3.55432e-17
3.55424e-17
3.55553e-17
3.55541e-17
3.55529e-17
3.55518e-17
3.55508e-17
3.55497e-17
3.55487e-17
3.55477e-17
3.55468e-17
3.55459e-17
3.5545e-17
3.55441e-17
3.55432e-17
3.55424e-17
3.55556e-17
3.55544e-17
3.55533e-17
3.55521e-17
3.5551e-17
3.555e-17
3.5549e-17
3.5548e-17
3.5547e-17
3.5546e-17
3.55451e-17
3.55442e-17
3.55433e-17
3.55424e-17
3.55558e-17
3.55547e-17
3.55536e-17
3.55524e-17
3.55513e-17
3.55503e-17
3.55492e-17
3.55482e-17
3.55472e-17
3.55462e-17
3.55453e-17
3.55443e-17
3.55434e-17
3.55425e-17
3.55561e-17
3.55551e-17
3.55539e-17
3.55528e-17
3.55517e-17
3.55506e-17
3.55495e-17
3.55485e-17
3.55475e-17
3.55465e-17
3.55455e-17
3.55445e-17
3.55436e-17
3.55426e-17
3.55565e-17
3.55554e-17
3.55543e-17
3.55532e-17
3.5552e-17
3.55509e-17
3.55499e-17
3.55488e-17
3.55478e-17
3.55468e-17
3.55458e-17
3.55448e-17
3.55438e-17
3.55429e-17
3.55568e-17
3.55558e-17
3.55547e-17
3.55536e-17
3.55524e-17
3.55513e-17
3.55503e-17
3.55492e-17
3.55482e-17
3.55472e-17
3.55461e-17
3.55451e-17
3.55441e-17
3.55431e-17
3.55572e-17
3.55563e-17
3.55551e-17
3.5554e-17
3.55529e-17
3.55518e-17
3.55507e-17
3.55496e-17
3.55486e-17
3.55475e-17
3.55465e-17
3.55455e-17
3.55445e-17
3.55434e-17
3.55576e-17
3.55566e-17
3.55556e-17
3.55544e-17
3.55533e-17
3.55522e-17
3.55512e-17
3.55501e-17
3.55491e-17
3.5548e-17
3.55469e-17
3.55459e-17
3.55449e-17
3.55437e-17
3.55579e-17
3.5557e-17
3.55559e-17
3.55549e-17
3.55538e-17
3.55527e-17
3.55517e-17
3.55506e-17
3.55496e-17
3.55485e-17
3.55474e-17
3.55464e-17
3.55453e-17
3.55442e-17
3.55475e-17
3.55463e-17
3.55453e-17
3.55443e-17
3.55433e-17
3.55423e-17
3.55413e-17
3.55403e-17
3.55394e-17
3.55384e-17
3.55375e-17
3.55366e-17
3.55358e-17
3.55349e-17
3.55472e-17
3.5546e-17
3.55449e-17
3.55439e-17
3.55429e-17
3.55418e-17
3.55408e-17
3.55398e-17
3.55388e-17
3.55378e-17
3.55369e-17
3.55359e-17
3.5535e-17
3.55341e-17
3.55466e-17
3.55455e-17
3.55444e-17
3.55434e-17
3.55424e-17
3.55413e-17
3.55403e-17
3.55393e-17
3.55383e-17
3.55372e-17
3.55363e-17
3.55353e-17
3.55344e-17
3.55334e-17
3.55462e-17
3.5545e-17
3.5544e-17
3.55429e-17
3.55419e-17
3.55408e-17
3.55398e-17
3.55387e-17
3.55377e-17
3.55366e-17
3.55356e-17
3.55346e-17
3.55336e-17
3.55326e-17
3.55456e-17
3.55445e-17
3.55435e-17
3.55424e-17
3.55414e-17
3.55403e-17
3.55393e-17
3.55382e-17
3.55371e-17
3.5536e-17
3.5535e-17
3.55339e-17
3.55329e-17
3.55319e-17
3.55451e-17
3.5544e-17
3.5543e-17
3.55419e-17
3.55408e-17
3.55398e-17
3.55387e-17
3.55376e-17
3.55365e-17
3.55354e-17
3.55343e-17
3.55332e-17
3.55322e-17
3.55311e-17
3.55446e-17
3.55435e-17
3.55425e-17
3.55414e-17
3.55403e-17
3.55392e-17
3.55381e-17
3.5537e-17
3.55359e-17
3.55348e-17
3.55337e-17
3.55325e-17
3.55315e-17
3.55303e-17
3.55441e-17
3.5543e-17
3.55419e-17
3.55408e-17
3.55397e-17
3.55386e-17
3.55375e-17
3.55364e-17
3.55353e-17
3.55341e-17
3.5533e-17
3.55318e-17
3.55307e-17
3.55296e-17
3.55436e-17
3.55425e-17
3.55414e-17
3.55403e-17
3.55392e-17
3.5538e-17
3.55369e-17
3.55358e-17
3.55346e-17
3.55335e-17
3.55323e-17
3.55311e-17
3.55299e-17
3.55288e-17
3.5543e-17
3.55419e-17
3.55408e-17
3.55397e-17
3.55386e-17
3.55374e-17
3.55363e-17
3.55351e-17
3.5534e-17
3.55328e-17
3.55316e-17
3.55304e-17
3.55292e-17
3.55281e-17
3.55425e-17
3.55414e-17
3.55403e-17
3.55391e-17
3.5538e-17
3.55368e-17
3.55357e-17
3.55345e-17
3.55333e-17
3.55321e-17
3.55308e-17
3.55297e-17
3.55284e-17
3.55273e-17
3.55418e-17
3.55408e-17
3.55397e-17
3.55385e-17
3.55374e-17
3.55362e-17
3.5535e-17
3.55339e-17
3.55326e-17
3.55314e-17
3.55302e-17
3.5529e-17
3.55277e-17
3.55266e-17
3.55413e-17
3.55402e-17
3.55391e-17
3.55379e-17
3.55368e-17
3.55356e-17
3.55344e-17
3.55332e-17
3.55319e-17
3.55307e-17
3.55294e-17
3.55282e-17
3.55269e-17
3.55257e-17
3.55407e-17
3.55396e-17
3.55385e-17
3.55373e-17
3.55361e-17
3.5535e-17
3.55338e-17
3.55326e-17
3.55314e-17
3.55301e-17
3.55289e-17
3.55276e-17
3.55263e-17
3.55252e-17
3.55355e-17
3.55345e-17
3.55336e-17
3.55326e-17
3.55317e-17
3.55308e-17
3.55298e-17
3.55288e-17
3.55278e-17
3.55267e-17
3.55257e-17
3.55247e-17
3.55237e-17
3.55227e-17
3.55345e-17
3.55335e-17
3.55326e-17
3.55317e-17
3.55308e-17
3.55298e-17
3.55288e-17
3.55278e-17
3.55267e-17
3.55257e-17
3.55247e-17
3.55236e-17
3.55226e-17
3.55215e-17
3.55333e-17
3.55325e-17
3.55316e-17
3.55307e-17
3.55297e-17
3.55288e-17
3.55278e-17
3.55268e-17
3.55257e-17
3.55247e-17
3.55236e-17
3.55225e-17
3.55215e-17
3.55204e-17
3.55322e-17
3.55314e-17
3.55305e-17
3.55296e-17
3.55287e-17
3.55277e-17
3.55267e-17
3.55257e-17
3.55246e-17
3.55236e-17
3.55225e-17
3.55214e-17
3.55204e-17
3.55193e-17
3.55311e-17
3.55303e-17
3.55294e-17
3.55285e-17
3.55276e-17
3.55266e-17
3.55256e-17
3.55246e-17
3.55235e-17
3.55224e-17
3.55213e-17
3.55202e-17
3.55192e-17
3.5518e-17
3.55299e-17
3.55291e-17
3.55282e-17
3.55273e-17
3.55264e-17
3.55254e-17
3.55244e-17
3.55234e-17
3.55223e-17
3.55212e-17
3.55201e-17
3.5519e-17
3.55179e-17
3.55168e-17
3.55287e-17
3.55279e-17
3.5527e-17
3.55261e-17
3.55252e-17
3.55242e-17
3.55232e-17
3.55222e-17
3.55211e-17
3.552e-17
3.55189e-17
3.55177e-17
3.55166e-17
3.55155e-17
3.55275e-17
3.55267e-17
3.55258e-17
3.55249e-17
3.55239e-17
3.55229e-17
3.55219e-17
3.55209e-17
3.55198e-17
3.55187e-17
3.55175e-17
3.55164e-17
3.55153e-17
3.55141e-17
3.55263e-17
3.55255e-17
3.55245e-17
3.55236e-17
3.55226e-17
3.55217e-17
3.55206e-17
3.55196e-17
3.55184e-17
3.55173e-17
3.55162e-17
3.5515e-17
3.55138e-17
3.55127e-17
3.5525e-17
3.55241e-17
3.55232e-17
3.55223e-17
3.55213e-17
3.55203e-17
3.55193e-17
3.55182e-17
3.55171e-17
3.55159e-17
3.55148e-17
3.55136e-17
3.55124e-17
3.55113e-17
3.55238e-17
3.55228e-17
3.55219e-17
3.55209e-17
3.552e-17
3.55189e-17
3.55179e-17
3.55168e-17
3.55156e-17
3.55145e-17
3.55133e-17
3.55121e-17
3.55109e-17
3.55099e-17
3.55224e-17
3.55214e-17
3.55205e-17
3.55195e-17
3.55185e-17
3.55175e-17
3.55164e-17
3.55154e-17
3.55142e-17
3.55131e-17
3.55119e-17
3.55107e-17
3.55095e-17
3.55085e-17
3.55211e-17
3.55201e-17
3.55192e-17
3.55182e-17
3.55172e-17
3.55161e-17
3.5515e-17
3.55139e-17
3.55127e-17
3.55115e-17
3.55103e-17
3.55091e-17
3.55079e-17
3.55069e-17
3.55197e-17
3.55187e-17
3.55177e-17
3.55167e-17
3.55157e-17
3.55146e-17
3.55135e-17
3.55124e-17
3.55113e-17
3.55101e-17
3.55089e-17
3.55078e-17
3.55066e-17
3.55056e-17
3.5515e-17
3.55142e-17
3.55136e-17
3.5513e-17
3.55123e-17
3.55115e-17
3.55107e-17
3.55099e-17
3.5509e-17
3.55081e-17
3.55072e-17
3.55062e-17
3.55053e-17
3.55043e-17
3.55135e-17
3.55129e-17
3.55123e-17
3.55117e-17
3.5511e-17
3.55102e-17
3.55094e-17
3.55086e-17
3.55077e-17
3.55068e-17
3.55058e-17
3.55049e-17
3.5504e-17
3.55029e-17
3.5512e-17
3.55115e-17
3.55109e-17
3.55103e-17
3.55096e-17
3.55089e-17
3.55081e-17
3.55072e-17
3.55064e-17
3.55055e-17
3.55046e-17
3.55036e-17
3.55027e-17
3.55017e-17
3.55105e-17
3.55101e-17
3.55095e-17
3.55088e-17
3.55082e-17
3.55074e-17
3.55067e-17
3.55058e-17
3.55049e-17
3.5504e-17
3.55031e-17
3.55022e-17
3.55013e-17
3.55003e-17
3.5509e-17
3.55086e-17
3.5508e-17
3.55074e-17
3.55067e-17
3.5506e-17
3.55052e-17
3.55043e-17
3.55035e-17
3.55026e-17
3.55017e-17
3.55007e-17
3.54998e-17
3.54988e-17
3.55075e-17
3.5507e-17
3.55064e-17
3.55058e-17
3.55051e-17
3.55044e-17
3.55036e-17
3.55028e-17
3.55019e-17
3.55011e-17
3.55002e-17
3.54992e-17
3.54983e-17
3.54973e-17
3.55059e-17
3.55054e-17
3.55048e-17
3.55042e-17
3.55036e-17
3.55028e-17
3.5502e-17
3.55012e-17
3.55004e-17
3.54995e-17
3.54986e-17
3.54977e-17
3.54967e-17
3.54958e-17
3.55043e-17
3.55038e-17
3.55032e-17
3.55026e-17
3.55019e-17
3.55012e-17
3.55004e-17
3.54996e-17
3.54987e-17
3.54978e-17
3.54969e-17
3.5496e-17
3.54951e-17
3.54942e-17
3.55027e-17
3.55022e-17
3.55015e-17
3.55009e-17
3.55002e-17
3.54995e-17
3.54987e-17
3.54979e-17
3.5497e-17
3.54962e-17
3.54952e-17
3.54943e-17
3.54934e-17
3.54926e-17
3.5501e-17
3.55004e-17
3.54998e-17
3.54992e-17
3.54985e-17
3.54978e-17
3.5497e-17
3.54962e-17
3.54953e-17
3.54944e-17
3.54935e-17
3.54926e-17
3.54917e-17
3.54909e-17
3.54994e-17
3.54988e-17
3.54981e-17
3.54975e-17
3.54968e-17
3.5496e-17
3.54952e-17
3.54944e-17
3.54935e-17
3.54927e-17
3.54917e-17
3.54909e-17
3.54899e-17
3.54892e-17
3.54977e-17
3.5497e-17
3.54963e-17
3.54957e-17
3.5495e-17
3.54942e-17
3.54934e-17
3.54926e-17
3.54918e-17
3.54909e-17
3.549e-17
3.54891e-17
3.54882e-17
3.54875e-17
3.5496e-17
3.54953e-17
3.54946e-17
3.54939e-17
3.54932e-17
3.54924e-17
3.54916e-17
3.54908e-17
3.54899e-17
3.5489e-17
3.54881e-17
3.54873e-17
3.54864e-17
3.54857e-17
3.54942e-17
3.54934e-17
3.54927e-17
3.54921e-17
3.54913e-17
3.54906e-17
3.54898e-17
3.5489e-17
3.54882e-17
3.54873e-17
3.54864e-17
3.54855e-17
3.54847e-17
3.5484e-17
3.54848e-17
3.54846e-17
3.54844e-17
3.54841e-17
3.54838e-17
3.54834e-17
3.5483e-17
3.54825e-17
3.5482e-17
3.54814e-17
3.54808e-17
3.54801e-17
3.54795e-17
3.54787e-17
3.54833e-17
3.54833e-17
3.54831e-17
3.54828e-17
3.54825e-17
3.54821e-17
3.54817e-17
3.54812e-17
3.54806e-17
3.54801e-17
3.54794e-17
3.54788e-17
3.54782e-17
3.54774e-17
3.54819e-17
3.54819e-17
3.54817e-17
3.54814e-17
3.54811e-17
3.54807e-17
3.54803e-17
3.54798e-17
3.54793e-17
3.54787e-17
3.54782e-17
3.54775e-17
3.5477e-17
3.54762e-17
3.54805e-17
3.54805e-17
3.54802e-17
3.548e-17
3.54796e-17
3.54793e-17
3.54789e-17
3.54784e-17
3.54779e-17
3.54773e-17
3.54768e-17
3.54762e-17
3.54756e-17
3.54749e-17
3.5479e-17
3.5479e-17
3.54788e-17
3.54785e-17
3.54782e-17
3.54778e-17
3.54774e-17
3.54769e-17
3.54764e-17
3.54759e-17
3.54754e-17
3.54748e-17
3.54743e-17
3.54736e-17
3.54776e-17
3.54775e-17
3.54772e-17
3.5477e-17
3.54766e-17
3.54763e-17
3.54759e-17
3.54754e-17
3.54749e-17
3.54744e-17
3.54739e-17
3.54734e-17
3.54728e-17
3.54722e-17
3.54761e-17
3.54759e-17
3.54757e-17
3.54754e-17
3.54751e-17
3.54747e-17
3.54743e-17
3.54739e-17
3.54734e-17
3.54729e-17
3.54724e-17
3.54719e-17
3.54713e-17
3.54708e-17
3.54745e-17
3.54743e-17
3.54741e-17
3.54738e-17
3.54735e-17
3.54731e-17
3.54727e-17
3.54723e-17
3.54718e-17
3.54714e-17
3.54709e-17
3.54703e-17
3.54698e-17
3.54693e-17
3.5473e-17
3.54727e-17
3.54725e-17
3.54722e-17
3.54719e-17
3.54715e-17
3.54711e-17
3.54707e-17
3.54702e-17
3.54698e-17
3.54693e-17
3.54688e-17
3.54683e-17
3.54678e-17
3.54714e-17
3.54711e-17
3.54708e-17
3.54706e-17
3.54702e-17
3.54699e-17
3.54695e-17
3.54691e-17
3.54686e-17
3.54682e-17
3.54677e-17
3.54672e-17
3.54667e-17
3.54663e-17
3.54698e-17
3.54695e-17
3.54692e-17
3.54689e-17
3.54686e-17
3.54682e-17
3.54678e-17
3.54674e-17
3.5467e-17
3.54665e-17
3.5466e-17
3.54656e-17
3.54651e-17
3.54648e-17
3.54682e-17
3.54678e-17
3.54675e-17
3.54672e-17
3.54669e-17
3.54666e-17
3.54662e-17
3.54658e-17
3.54653e-17
3.54649e-17
3.54644e-17
3.5464e-17
3.54635e-17
3.54632e-17
3.54667e-17
3.54662e-17
3.54659e-17
3.54656e-17
3.54653e-17
3.54649e-17
3.54645e-17
3.54641e-17
3.54637e-17
3.54632e-17
3.54627e-17
3.54623e-17
3.54619e-17
3.54617e-17
3.5465e-17
3.54645e-17
3.54642e-17
3.54639e-17
3.54636e-17
3.54632e-17
3.54629e-17
3.54625e-17
3.5462e-17
3.54616e-17
3.54611e-17
3.54607e-17
3.54603e-17
3.54601e-17
3.54472e-17
3.54474e-17
3.54475e-17
3.54477e-17
3.54478e-17
3.54479e-17
3.54479e-17
3.54478e-17
3.54477e-17
3.54476e-17
3.54474e-17
3.54472e-17
3.5447e-17
3.54468e-17
3.54463e-17
3.54465e-17
3.54466e-17
3.54468e-17
3.54468e-17
3.54469e-17
3.54469e-17
3.54469e-17
3.54468e-17
3.54466e-17
3.54465e-17
3.54463e-17
3.54461e-17
3.54458e-17
3.54453e-17
3.54455e-17
3.54456e-17
3.54458e-17
3.54459e-17
3.54459e-17
3.54459e-17
3.54459e-17
3.54458e-17
3.54457e-17
3.54455e-17
3.54454e-17
3.54452e-17
3.54449e-17
3.54442e-17
3.54445e-17
3.54446e-17
3.54448e-17
3.54448e-17
3.54449e-17
3.54449e-17
3.54448e-17
3.54448e-17
3.54447e-17
3.54446e-17
3.54444e-17
3.54443e-17
3.5444e-17
3.54432e-17
3.54435e-17
3.54436e-17
3.54437e-17
3.54438e-17
3.54438e-17
3.54438e-17
3.54438e-17
3.54437e-17
3.54437e-17
3.54436e-17
3.54434e-17
3.54433e-17
3.54431e-17
3.54422e-17
3.54424e-17
3.54425e-17
3.54426e-17
3.54427e-17
3.54427e-17
3.54427e-17
3.54427e-17
3.54427e-17
3.54426e-17
3.54425e-17
3.54424e-17
3.54423e-17
3.54421e-17
3.54411e-17
3.54413e-17
3.54414e-17
3.54415e-17
3.54416e-17
3.54416e-17
3.54416e-17
3.54416e-17
3.54416e-17
3.54415e-17
3.54415e-17
3.54414e-17
3.54413e-17
3.54411e-17
3.544e-17
3.54402e-17
3.54403e-17
3.54404e-17
3.54405e-17
3.54405e-17
3.54405e-17
3.54405e-17
3.54405e-17
3.54404e-17
3.54404e-17
3.54403e-17
3.54402e-17
3.54401e-17
3.54389e-17
3.5439e-17
3.54392e-17
3.54392e-17
3.54393e-17
3.54394e-17
3.54394e-17
3.54394e-17
3.54393e-17
3.54393e-17
3.54393e-17
3.54392e-17
3.54391e-17
3.54391e-17
3.54378e-17
3.54379e-17
3.5438e-17
3.54381e-17
3.54382e-17
3.54382e-17
3.54382e-17
3.54382e-17
3.54382e-17
3.54382e-17
3.54381e-17
3.54381e-17
3.5438e-17
3.54381e-17
3.54367e-17
3.54367e-17
3.54368e-17
3.54369e-17
3.5437e-17
3.5437e-17
3.54371e-17
3.54371e-17
3.54371e-17
3.54371e-17
3.5437e-17
3.5437e-17
3.54369e-17
3.5437e-17
3.54356e-17
3.54355e-17
3.54357e-17
3.54358e-17
3.54358e-17
3.54359e-17
3.54359e-17
3.54359e-17
3.54359e-17
3.54359e-17
3.54359e-17
3.54359e-17
3.54358e-17
3.54359e-17
3.54345e-17
3.54344e-17
3.54345e-17
3.54346e-17
3.54347e-17
3.54347e-17
3.54348e-17
3.54348e-17
3.54348e-17
3.54348e-17
3.54347e-17
3.54347e-17
3.54347e-17
3.54349e-17
3.54334e-17
3.54333e-17
3.54334e-17
3.54335e-17
3.54335e-17
3.54336e-17
3.54336e-17
3.54336e-17
3.54336e-17
3.54336e-17
3.54336e-17
3.54336e-17
3.54336e-17
3.54337e-17
3.54062e-17
3.54066e-17
3.5407e-17
3.54075e-17
3.54078e-17
3.54082e-17
3.54086e-17
3.54089e-17
3.54092e-17
3.54094e-17
3.54096e-17
3.54098e-17
3.541e-17
3.54101e-17
3.54058e-17
3.54063e-17
3.54067e-17
3.54071e-17
3.54075e-17
3.54079e-17
3.54082e-17
3.54085e-17
3.54088e-17
3.54091e-17
3.54093e-17
3.54095e-17
3.54096e-17
3.54097e-17
3.54055e-17
3.5406e-17
3.54063e-17
3.54068e-17
3.54071e-17
3.54075e-17
3.54078e-17
3.54082e-17
3.54084e-17
3.54087e-17
3.54089e-17
3.54091e-17
3.54093e-17
3.54094e-17
3.54051e-17
3.54056e-17
3.5406e-17
3.54064e-17
3.54068e-17
3.54071e-17
3.54075e-17
3.54078e-17
3.54081e-17
3.54083e-17
3.54085e-17
3.54088e-17
3.54089e-17
3.5409e-17
3.54047e-17
3.54052e-17
3.54056e-17
3.5406e-17
3.54063e-17
3.54067e-17
3.5407e-17
3.54074e-17
3.54076e-17
3.54079e-17
3.54082e-17
3.54084e-17
3.54086e-17
3.54087e-17
3.54043e-17
3.54047e-17
3.54051e-17
3.54055e-17
3.54059e-17
3.54063e-17
3.54066e-17
3.54069e-17
3.54072e-17
3.54075e-17
3.54077e-17
3.5408e-17
3.54082e-17
3.54083e-17
3.54039e-17
3.54043e-17
3.54047e-17
3.54051e-17
3.54055e-17
3.54058e-17
3.54061e-17
3.54065e-17
3.54068e-17
3.5407e-17
3.54073e-17
3.54075e-17
3.54077e-17
3.54079e-17
3.54034e-17
3.54038e-17
3.54042e-17
3.54046e-17
3.5405e-17
3.54053e-17
3.54057e-17
3.5406e-17
3.54063e-17
3.54066e-17
3.54069e-17
3.54071e-17
3.54073e-17
3.54075e-17
3.5403e-17
3.54033e-17
3.54038e-17
3.54041e-17
3.54045e-17
3.54049e-17
3.54052e-17
3.54055e-17
3.54058e-17
3.54061e-17
3.54064e-17
3.54067e-17
3.54069e-17
3.54071e-17
3.54025e-17
3.54028e-17
3.54033e-17
3.54036e-17
3.5404e-17
3.54044e-17
3.54047e-17
3.5405e-17
3.54053e-17
3.54056e-17
3.54059e-17
3.54062e-17
3.54064e-17
3.54067e-17
3.5402e-17
3.54024e-17
3.54028e-17
3.54031e-17
3.54035e-17
3.54039e-17
3.54042e-17
3.54045e-17
3.54048e-17
3.54051e-17
3.54054e-17
3.54057e-17
3.54059e-17
3.54062e-17
3.54015e-17
3.54018e-17
3.54023e-17
3.54026e-17
3.5403e-17
3.54033e-17
3.54037e-17
3.5404e-17
3.54043e-17
3.54046e-17
3.54049e-17
3.54052e-17
3.54055e-17
3.54058e-17
3.5401e-17
3.54014e-17
3.54017e-17
3.54021e-17
3.54025e-17
3.54028e-17
3.54032e-17
3.54035e-17
3.54038e-17
3.54041e-17
3.54044e-17
3.54047e-17
3.5405e-17
3.54053e-17
3.54005e-17
3.54008e-17
3.54012e-17
3.54016e-17
3.54019e-17
3.54023e-17
3.54026e-17
3.5403e-17
3.54033e-17
3.54036e-17
3.54039e-17
3.54042e-17
3.54045e-17
3.54047e-17
3.53655e-17
3.5366e-17
3.53665e-17
3.53669e-17
3.53674e-17
3.53679e-17
3.53684e-17
3.53688e-17
3.53693e-17
3.53697e-17
3.53701e-17
3.53705e-17
3.53709e-17
3.53712e-17
3.53656e-17
3.53661e-17
3.53666e-17
3.53671e-17
3.53676e-17
3.53681e-17
3.53686e-17
3.53691e-17
3.53695e-17
3.537e-17
3.53704e-17
3.53707e-17
3.53711e-17
3.53714e-17
3.53658e-17
3.53663e-17
3.53668e-17
3.53674e-17
3.53679e-17
3.53684e-17
3.53688e-17
3.53693e-17
3.53697e-17
3.53702e-17
3.53706e-17
3.53709e-17
3.53713e-17
3.53715e-17
3.5366e-17
3.53665e-17
3.5367e-17
3.53675e-17
3.53681e-17
3.53685e-17
3.5369e-17
3.53695e-17
3.53699e-17
3.53704e-17
3.53707e-17
3.53711e-17
3.53714e-17
3.53717e-17
3.53662e-17
3.53667e-17
3.53672e-17
3.53677e-17
3.53682e-17
3.53687e-17
3.53692e-17
3.53697e-17
3.53701e-17
3.53705e-17
3.53709e-17
3.53713e-17
3.53716e-17
3.53719e-17
3.53663e-17
3.53668e-17
3.53674e-17
3.53679e-17
3.53684e-17
3.53689e-17
3.53694e-17
3.53698e-17
3.53703e-17
3.53707e-17
3.53711e-17
3.53714e-17
3.53718e-17
3.53721e-17
3.53665e-17
3.5367e-17
3.53675e-17
3.5368e-17
3.53685e-17
3.5369e-17
3.53695e-17
3.537e-17
3.53704e-17
3.53708e-17
3.53712e-17
3.53716e-17
3.53719e-17
3.53722e-17
3.53666e-17
3.53671e-17
3.53676e-17
3.53681e-17
3.53686e-17
3.53691e-17
3.53696e-17
3.53701e-17
3.53705e-17
3.53709e-17
3.53713e-17
3.53717e-17
3.5372e-17
3.53723e-17
3.53666e-17
3.53672e-17
3.53677e-17
3.53682e-17
3.53687e-17
3.53692e-17
3.53697e-17
3.53702e-17
3.53706e-17
3.5371e-17
3.53714e-17
3.53718e-17
3.53721e-17
3.53724e-17
3.53667e-17
3.53672e-17
3.53678e-17
3.53683e-17
3.53688e-17
3.53693e-17
3.53698e-17
3.53702e-17
3.53707e-17
3.53711e-17
3.53715e-17
3.53719e-17
3.53722e-17
3.53725e-17
3.53667e-17
3.53673e-17
3.53678e-17
3.53683e-17
3.53688e-17
3.53693e-17
3.53698e-17
3.53703e-17
3.53707e-17
3.53711e-17
3.53715e-17
3.53719e-17
3.53722e-17
3.53726e-17
3.53668e-17
3.53673e-17
3.53678e-17
3.53684e-17
3.53689e-17
3.53694e-17
3.53698e-17
3.53703e-17
3.53707e-17
3.53712e-17
3.53716e-17
3.5372e-17
3.53723e-17
3.53727e-17
3.53668e-17
3.53673e-17
3.53678e-17
3.53684e-17
3.53689e-17
3.53694e-17
3.53698e-17
3.53703e-17
3.53708e-17
3.53712e-17
3.53716e-17
3.5372e-17
3.53723e-17
3.53727e-17
3.53668e-17
3.53674e-17
3.53679e-17
3.53684e-17
3.53689e-17
3.53694e-17
3.53698e-17
3.53703e-17
3.53707e-17
3.53712e-17
3.53716e-17
3.53719e-17
3.53723e-17
3.53727e-17
3.53272e-17
3.53275e-17
3.5328e-17
3.53284e-17
3.53288e-17
3.53292e-17
3.53296e-17
3.533e-17
3.53305e-17
3.53308e-17
3.53312e-17
3.53316e-17
3.53319e-17
3.53323e-17
3.53276e-17
3.5328e-17
3.53284e-17
3.53289e-17
3.53293e-17
3.53297e-17
3.53302e-17
3.53306e-17
3.5331e-17
3.53314e-17
3.53318e-17
3.53321e-17
3.53324e-17
3.53328e-17
3.53281e-17
3.53285e-17
3.5329e-17
3.53294e-17
3.53299e-17
3.53303e-17
3.53307e-17
3.53311e-17
3.53315e-17
3.53319e-17
3.53323e-17
3.53326e-17
3.53329e-17
3.53332e-17
3.53286e-17
3.5329e-17
3.53295e-17
3.53299e-17
3.53304e-17
3.53308e-17
3.53312e-17
3.53317e-17
3.5332e-17
3.53324e-17
3.53328e-17
3.53331e-17
3.53334e-17
3.53337e-17
3.53291e-17
3.53295e-17
3.533e-17
3.53304e-17
3.53309e-17
3.53313e-17
3.53317e-17
3.53322e-17
3.53325e-17
3.53329e-17
3.53333e-17
3.53336e-17
3.53339e-17
3.53342e-17
3.53295e-17
3.533e-17
3.53304e-17
3.53309e-17
3.53314e-17
3.53318e-17
3.53322e-17
3.53326e-17
3.5333e-17
3.53334e-17
3.53337e-17
3.53341e-17
3.53344e-17
3.53346e-17
3.53299e-17
3.53304e-17
3.53309e-17
3.53314e-17
3.53318e-17
3.53323e-17
3.53327e-17
3.53331e-17
3.53335e-17
3.53339e-17
3.53342e-17
3.53345e-17
3.53348e-17
3.53351e-17
3.53303e-17
3.53308e-17
3.53313e-17
3.53318e-17
3.53323e-17
3.53327e-17
3.53331e-17
3.53336e-17
3.53339e-17
3.53343e-17
3.53346e-17
3.5335e-17
3.53352e-17
3.53355e-17
3.53307e-17
3.53312e-17
3.53317e-17
3.53322e-17
3.53327e-17
3.53331e-17
3.53336e-17
3.5334e-17
3.53344e-17
3.53347e-17
3.53351e-17
3.53354e-17
3.53356e-17
3.53359e-17
3.53311e-17
3.53316e-17
3.53321e-17
3.53326e-17
3.53331e-17
3.53335e-17
3.53339e-17
3.53344e-17
3.53347e-17
3.53351e-17
3.53354e-17
3.53358e-17
3.5336e-17
3.53363e-17
3.53314e-17
3.5332e-17
3.53324e-17
3.53329e-17
3.53334e-17
3.53339e-17
3.53343e-17
3.53347e-17
3.53351e-17
3.53355e-17
3.53358e-17
3.53361e-17
3.53364e-17
3.53367e-17
3.53318e-17
3.53323e-17
3.53328e-17
3.53333e-17
3.53338e-17
3.53342e-17
3.53346e-17
3.53351e-17
3.53355e-17
3.53358e-17
3.53362e-17
3.53365e-17
3.53368e-17
3.5337e-17
3.53321e-17
3.53326e-17
3.53331e-17
3.53336e-17
3.53341e-17
3.53345e-17
3.5335e-17
3.53354e-17
3.53358e-17
3.53361e-17
3.53365e-17
3.53368e-17
3.53371e-17
3.53374e-17
3.53324e-17
3.53329e-17
3.53334e-17
3.53339e-17
3.53344e-17
3.53348e-17
3.53352e-17
3.53357e-17
3.5336e-17
3.53364e-17
3.53368e-17
3.53371e-17
3.53374e-17
3.53378e-17
3.52921e-17
3.52923e-17
3.52925e-17
3.52927e-17
3.5293e-17
3.52933e-17
3.52935e-17
3.52938e-17
3.5294e-17
3.52942e-17
3.52945e-17
3.52947e-17
3.52949e-17
3.52952e-17
3.52925e-17
3.52927e-17
3.5293e-17
3.52932e-17
3.52935e-17
3.52938e-17
3.5294e-17
3.52943e-17
3.52945e-17
3.52948e-17
3.5295e-17
3.52952e-17
3.52954e-17
3.52957e-17
3.5293e-17
3.52932e-17
3.52935e-17
3.52938e-17
3.52941e-17
3.52943e-17
3.52946e-17
3.52948e-17
3.52951e-17
3.52953e-17
3.52955e-17
3.52957e-17
3.52959e-17
3.52962e-17
3.52935e-17
3.52937e-17
3.5294e-17
3.52943e-17
3.52946e-17
3.52948e-17
3.52951e-17
3.52954e-17
3.52956e-17
3.52958e-17
3.5296e-17
3.52963e-17
3.52964e-17
3.52967e-17
3.5294e-17
3.52942e-17
3.52945e-17
3.52948e-17
3.52951e-17
3.52954e-17
3.52956e-17
3.52959e-17
3.52961e-17