/*--------------------------------*- C++ -*----------------------------------*\
| =========                 |                                                 |
| \\      /  F ield         | OpenFOAM: The Open Source CFD Toolbox           |
|  \\    /   O peration     | Version:  v2106                                 |
|   \\  /    A nd           | Website:  www.openfoam.com                      |
|    \\/     M anipulation  |                                                 |
\*---------------------------------------------------------------------------*/
FoamFile
{
    version     2.0;
    format      ascii;
    arch        "LSB;label=32;scalar=64";
    class       volScalarField;
    location    "0.000213";
    object      Ttot;
}
// * * * * * * * * * * * * * * * * * * * * * * * * * * * * * * * * * * * * * //

dimensions      [0 0 0 1 0 0 0];

internalField   nonuniform List<scalar> 
17920
(
306.736
306.746
306.773
306.785
306.808
306.82
306.845
306.858
306.881
306.893
306.917
306.93
306.953
306.965
306.989
307.001
307.024
307.036
307.059
307.071
307.093
307.104
307.126
307.138
307.159
307.172
307.188
307.204
306.518
306.516
306.517
306.518
306.521
306.524
306.527
306.531
306.535
306.539
306.543
306.548
306.552
306.558
306.542
306.539
306.54
306.542
306.544
306.547
306.551
306.555
306.559
306.564
306.569
306.574
306.578
306.586
306.565
306.562
306.564
306.566
306.569
306.572
306.576
306.58
306.585
306.589
306.594
306.6
306.605
306.613
306.59
306.588
306.59
306.592
306.595
306.598
306.602
306.606
306.611
306.617
306.622
306.628
306.634
306.642
306.615
306.614
306.616
306.619
306.621
306.625
306.629
306.634
306.639
306.645
306.651
306.657
306.663
306.671
306.641
306.642
306.644
306.646
306.649
306.653
306.657
306.663
306.668
306.674
306.681
306.687
306.694
306.701
306.668
306.669
306.671
306.674
306.678
306.682
306.687
306.692
306.698
306.705
306.711
306.718
306.726
306.732
306.695
306.697
306.699
306.703
306.707
306.711
306.716
306.722
306.729
306.736
306.743
306.75
306.758
306.764
306.722
306.725
306.728
306.732
306.736
306.741
306.747
306.753
306.76
306.767
306.775
306.782
306.791
306.797
306.749
306.753
306.756
306.761
306.765
306.771
306.777
306.784
306.792
306.8
306.807
306.815
306.824
306.83
306.776
306.781
306.785
306.79
306.795
306.801
306.808
306.816
306.824
306.832
306.84
306.848
306.857
306.863
306.804
306.809
306.813
306.819
306.825
306.832
306.839
306.847
306.855
306.864
306.873
306.881
306.891
306.897
306.831
306.836
306.841
306.848
306.854
306.862
306.87
306.878
306.887
306.896
306.905
306.914
306.925
306.931
306.86
306.865
306.87
306.876
306.884
306.891
306.9
306.909
306.918
306.928
306.937
306.947
306.957
306.966
306.454
306.447
306.441
306.437
306.433
306.43
306.428
306.427
306.426
306.425
306.425
306.424
306.424
306.427
306.47
306.462
306.457
306.452
306.448
306.445
306.443
306.441
306.44
306.439
306.439
306.439
306.438
306.441
306.486
306.478
306.473
306.468
306.464
306.461
306.459
306.457
306.456
306.455
306.454
306.454
306.454
306.457
306.504
306.496
306.491
306.486
306.482
306.478
306.476
306.474
306.473
306.472
306.471
306.472
306.471
306.473
306.522
306.514
306.509
306.504
306.5
306.497
306.494
306.492
306.491
306.49
306.49
306.49
306.49
306.492
306.54
306.534
306.528
306.523
306.519
306.516
306.513
306.512
306.511
306.51
306.51
306.51
306.511
306.512
306.559
306.553
306.548
306.544
306.54
306.536
306.534
306.532
306.531
306.531
306.531
306.531
306.532
306.533
306.579
306.574
306.569
306.565
306.561
306.558
306.556
306.554
306.553
306.553
306.553
306.554
306.555
306.556
306.598
306.594
306.59
306.586
306.583
306.58
306.578
306.577
306.576
306.576
306.577
306.577
306.579
306.579
306.619
306.616
306.612
306.608
306.606
306.603
306.602
306.601
306.6
306.6
306.601
306.602
306.604
306.604
306.639
306.638
306.634
306.631
306.629
306.627
306.626
306.625
306.625
306.626
306.627
306.628
306.63
306.629
306.661
306.66
306.657
306.654
306.653
306.651
306.651
306.651
306.651
306.652
306.653
306.655
306.658
306.656
306.683
306.682
306.68
306.678
306.677
306.676
306.676
306.676
306.677
306.678
306.68
306.682
306.685
306.683
306.708
306.706
306.703
306.702
306.701
306.701
306.702
306.702
306.704
306.705
306.707
306.71
306.713
306.714
306.409
306.399
306.39
306.382
306.375
306.369
306.363
306.358
306.353
306.349
306.345
306.342
306.339
306.336
306.418
306.408
306.399
306.391
306.383
306.377
306.37
306.365
306.36
306.355
306.35
306.347
306.343
306.34
306.427
306.417
306.408
306.399
306.391
306.384
306.378
306.372
306.367
306.362
306.357
306.353
306.349
306.346
306.437
306.426
306.417
306.408
306.4
306.393
306.386
306.38
306.375
306.369
306.364
306.36
306.356
306.352
306.447
306.437
306.427
306.418
306.41
306.403
306.396
306.389
306.384
306.378
306.373
306.368
306.364
306.36
306.458
306.447
306.438
306.429
306.421
306.413
306.406
306.399
306.393
306.388
306.382
306.378
306.373
306.369
306.469
306.459
306.449
306.44
306.432
306.424
306.417
306.41
306.404
306.398
306.393
306.388
306.383
306.379
306.48
306.471
306.461
306.453
306.444
306.436
306.429
306.422
306.416
306.41
306.405
306.4
306.395
306.39
306.491
306.483
306.474
306.465
306.457
306.449
306.442
306.435
306.429
306.423
306.418
306.412
306.408
306.402
306.503
306.495
306.487
306.478
306.47
306.462
306.455
306.448
306.442
306.436
306.431
306.425
306.421
306.415
306.516
306.508
306.5
306.492
306.484
306.476
306.469
306.463
306.457
306.451
306.445
306.44
306.435
306.429
306.528
306.522
306.514
306.506
306.498
306.491
306.484
306.478
306.472
306.466
306.461
306.455
306.45
306.445
306.543
306.536
306.529
306.521
306.514
306.507
306.5
306.494
306.488
306.482
306.476
306.47
306.466
306.461
306.558
306.55
306.543
306.536
306.529
306.522
306.516
306.51
306.505
306.499
306.494
306.488
306.484
306.479
306.364
306.352
306.342
306.333
306.324
306.316
306.308
306.3
306.293
306.286
306.28
306.274
306.268
306.262
306.366
306.355
306.345
306.335
306.326
306.317
306.309
306.301
306.293
306.286
306.279
306.272
306.266
306.26
306.368
306.357
306.347
306.337
306.328
306.319
306.31
306.302
306.294
306.286
306.279
306.271
306.265
306.258
306.371
306.36
306.349
306.339
306.33
306.32
306.312
306.303
306.295
306.286
306.279
306.271
306.264
306.257
306.374
306.363
306.352
306.342
306.332
306.322
306.313
306.304
306.296
306.287
306.279
306.271
306.264
306.256
306.376
306.366
306.355
306.344
306.334
306.325
306.315
306.306
306.297
306.288
306.28
306.272
306.264
306.256
306.379
306.369
306.358
306.347
306.337
306.327
306.318
306.308
306.299
306.29
306.281
306.273
306.264
306.256
306.382
306.372
306.361
306.35
306.34
306.33
306.32
306.311
306.301
306.292
306.283
306.274
306.266
306.257
306.386
306.375
306.364
306.354
306.343
306.333
306.323
306.313
306.304
306.295
306.285
306.276
306.267
306.259
306.389
306.379
306.368
306.357
306.347
306.337
306.326
306.317
306.307
306.297
306.288
306.279
306.269
306.261
306.393
306.383
306.372
306.361
306.351
306.34
306.33
306.32
306.31
306.301
306.291
306.281
306.272
306.263
306.396
306.387
306.376
306.366
306.355
306.345
306.334
306.324
306.314
306.304
306.295
306.285
306.275
306.266
306.401
306.391
306.381
306.37
306.359
306.349
306.339
306.329
306.319
306.309
306.299
306.289
306.279
306.269
306.404
306.394
306.384
306.374
306.364
306.354
306.343
306.334
306.324
306.314
306.304
306.294
306.284
306.273
306.295
306.284
306.274
306.265
306.255
306.246
306.237
306.228
306.219
306.21
306.202
306.193
306.186
306.177
306.291
306.281
306.271
306.261
306.252
306.242
306.233
306.223
306.214
306.205
306.196
306.187
306.179
306.171
306.286
306.277
306.267
306.257
306.247
306.238
306.228
306.219
306.209
306.2
306.191
306.181
306.173
306.164
306.282
306.273
306.262
306.253
306.243
306.233
306.224
306.214
306.204
306.194
306.185
306.175
306.166
306.157
306.278
306.268
306.258
306.248
306.238
306.229
306.219
306.209
306.199
306.189
306.179
306.169
306.16
306.15
306.273
306.264
306.254
306.244
306.234
306.224
306.214
306.204
306.193
306.183
306.173
306.163
306.153
306.143
306.269
306.259
306.249
306.239
306.229
306.219
306.209
306.198
306.188
306.177
306.167
306.157
306.146
306.136
306.264
306.254
306.244
306.234
306.224
306.213
306.203
306.193
306.182
306.171
306.161
306.15
306.139
306.129
306.26
306.25
306.239
306.229
306.219
306.208
306.198
306.187
306.176
306.165
306.154
306.143
306.132
306.122
306.255
306.244
306.234
306.224
306.213
306.202
306.192
306.181
306.17
306.159
306.148
306.137
306.125
306.115
306.25
306.24
306.229
306.219
306.208
306.197
306.186
306.175
306.164
306.153
306.141
306.13
306.118
306.108
306.245
306.234
306.224
306.213
306.202
306.191
306.18
306.169
306.158
306.147
306.135
306.124
306.111
306.101
306.24
306.229
306.219
306.208
306.197
306.186
306.175
306.163
306.151
306.14
306.128
306.116
306.104
306.094
306.234
306.223
306.213
306.202
306.191
306.18
306.169
306.157
306.146
306.135
306.123
306.111
306.099
306.088
306.174
306.165
306.157
306.148
306.139
306.13
306.121
306.112
306.103
306.093
306.084
306.074
306.065
306.055
306.164
306.156
306.148
306.14
306.131
306.122
306.113
306.103
306.094
306.084
306.074
306.064
306.056
306.045
306.154
306.147
306.138
306.13
306.122
306.113
306.103
306.094
306.084
306.074
306.065
306.055
306.046
306.035
306.144
306.137
306.129
306.12
306.112
306.103
306.094
306.084
306.074
306.064
306.055
306.044
306.035
306.025
306.134
306.127
306.119
306.11
306.102
306.093
306.084
306.074
306.064
306.054
306.044
306.034
306.024
306.014
306.123
306.116
306.108
306.1
306.091
306.082
306.073
306.063
306.053
306.043
306.033
306.022
306.012
306.002
306.113
306.105
306.097
306.089
306.08
306.071
306.062
306.052
306.042
306.032
306.021
306.011
306.001
305.99
306.102
306.094
306.086
306.077
306.068
306.059
306.05
306.04
306.03
306.02
306.009
305.999
305.988
305.978
306.091
306.083
306.074
306.066
306.057
306.048
306.038
306.028
306.018
306.007
305.997
305.986
305.975
305.965
306.079
306.07
306.062
306.053
306.044
306.035
306.025
306.016
306.005
305.995
305.984
305.973
305.962
305.952
306.068
306.059
306.05
306.041
306.032
306.023
306.013
306.003
305.992
305.981
305.97
305.959
305.948
305.939
306.055
306.046
306.037
306.028
306.019
306.009
305.999
305.989
305.979
305.968
305.957
305.946
305.935
305.926
306.044
306.034
306.025
306.016
306.006
305.997
305.986
305.976
305.965
305.954
305.943
305.932
305.92
305.911
306.031
306.021
306.012
306.002
305.992
305.983
305.973
305.962
305.952
305.941
305.93
305.919
305.908
305.899
305.974
305.969
305.963
305.957
305.95
305.943
305.936
305.928
305.92
305.912
305.903
305.894
305.886
305.876
305.961
305.956
305.951
305.945
305.939
305.932
305.924
305.917
305.908
305.9
305.891
305.882
305.874
305.865
305.948
305.944
305.938
305.932
305.926
305.919
305.912
305.904
305.896
305.888
305.88
305.871
305.863
305.853
305.934
305.93
305.925
305.919
305.913
305.906
305.899
305.892
305.884
305.875
305.867
305.858
305.85
305.84
305.921
305.917
305.911
305.906
305.9
305.893
305.886
305.878
305.87
305.862
305.854
305.845
305.837
305.828
305.907
305.903
305.897
305.892
305.886
305.879
305.872
305.864
305.856
305.848
305.84
305.831
305.823
305.814
305.893
305.888
305.883
305.877
305.871
305.864
305.857
305.85
305.842
305.834
305.825
305.817
305.808
305.8
305.878
305.873
305.868
305.862
305.856
305.849
305.842
305.835
305.827
305.819
305.81
305.802
305.793
305.785
305.864
305.858
305.853
305.847
305.841
305.834
305.827
305.819
305.811
305.803
305.795
305.787
305.778
305.77
305.848
305.843
305.837
305.831
305.825
305.818
305.811
305.804
305.796
305.788
305.779
305.771
305.762
305.755
305.834
305.827
305.822
305.815
305.809
305.802
305.795
305.787
305.779
305.771
305.763
305.755
305.746
305.739
305.818
305.811
305.805
305.799
305.793
305.786
305.779
305.771
305.763
305.755
305.746
305.739
305.73
305.724
305.803
305.795
305.79
305.783
305.777
305.769
305.762
305.754
305.746
305.738
305.73
305.722
305.713
305.707
305.786
305.779
305.773
305.766
305.759
305.752
305.745
305.738
305.73
305.722
305.714
305.706
305.697
305.692
305.687
305.686
305.684
305.682
305.679
305.675
305.671
305.667
305.662
305.657
305.651
305.645
305.639
305.632
305.674
305.674
305.672
305.67
305.667
305.663
305.66
305.655
305.65
305.645
305.64
305.633
305.628
305.621
305.662
305.662
305.66
305.657
305.654
305.651
305.647
305.643
305.638
305.633
305.628
305.622
305.617
305.61
305.649
305.649
305.647
305.645
305.641
305.638
305.634
305.63
305.626
305.621
305.616
305.61
305.605
305.599
305.636
305.636
305.634
305.631
305.628
305.625
305.621
305.617
305.613
305.608
305.603
305.597
305.593
305.587
305.623
305.622
305.62
305.617
305.614
305.611
305.607
305.603
305.599
305.594
305.59
305.584
305.58
305.574
305.609
305.608
305.606
305.603
305.6
305.597
305.593
305.589
305.585
305.581
305.576
305.571
305.566
305.561
305.595
305.593
305.591
305.589
305.586
305.583
305.579
305.575
305.571
305.566
305.562
305.557
305.552
305.547
305.581
305.579
305.577
305.574
305.571
305.568
305.564
305.561
305.556
305.552
305.547
305.543
305.538
305.534
305.567
305.564
305.562
305.559
305.556
305.553
305.55
305.546
305.542
305.537
305.533
305.528
305.524
305.52
305.553
305.549
305.547
305.544
305.541
305.538
305.535
305.531
305.527
305.522
305.518
305.514
305.509
305.506
305.538
305.534
305.532
305.529
305.526
305.523
305.519
305.516
305.512
305.507
305.503
305.499
305.494
305.492
305.524
305.52
305.517
305.514
305.511
305.508
305.504
305.5
305.496
305.492
305.488
305.484
305.48
305.478
305.509
305.504
305.501
305.499
305.496
305.493
305.489
305.485
305.481
305.477
305.473
305.469
305.465
305.463
305.335
305.337
305.338
305.34
305.34
305.341
305.341
305.341
305.34
305.339
305.337
305.335
305.333
305.331
305.326
305.329
305.33
305.331
305.332
305.332
305.332
305.332
305.331
305.33
305.329
305.327
305.325
305.323
305.318
305.32
305.321
305.322
305.323
305.324
305.324
305.323
305.323
305.322
305.32
305.319
305.317
305.315
305.309
305.311
305.312
305.313
305.314
305.314
305.315
305.314
305.314
305.313
305.312
305.31
305.309
305.306
305.299
305.302
305.303
305.304
305.305
305.305
305.305
305.305
305.304
305.304
305.303
305.301
305.3
305.298
305.29
305.292
305.293
305.294
305.295
305.295
305.295
305.295
305.295
305.294
305.293
305.292
305.291
305.289
305.281
305.282
305.283
305.284
305.285
305.285
305.285
305.285
305.285
305.285
305.284
305.283
305.282
305.281
305.271
305.272
305.273
305.274
305.275
305.275
305.275
305.275
305.275
305.275
305.274
305.273
305.272
305.271
305.261
305.262
305.263
305.264
305.265
305.265
305.265
305.265
305.265
305.265
305.264
305.263
305.263
305.262
305.251
305.251
305.253
305.254
305.254
305.255
305.255
305.255
305.255
305.254
305.254
305.253
305.253
305.253
305.241
305.241
305.242
305.243
305.244
305.244
305.244
305.244
305.244
305.244
305.244
305.243
305.243
305.243
305.231
305.231
305.232
305.233
305.233
305.234
305.234
305.234
305.234
305.234
305.234
305.233
305.232
305.234
305.221
305.22
305.221
305.222
305.223
305.223
305.223
305.224
305.224
305.223
305.223
305.223
305.223
305.224
305.211
305.21
305.211
305.212
305.212
305.213
305.213
305.213
305.213
305.213
305.213
305.213
305.212
305.213
304.953
304.957
304.961
304.965
304.968
304.972
304.975
304.977
304.98
304.982
304.984
304.986
304.987
304.988
304.95
304.955
304.958
304.962
304.965
304.969
304.972
304.975
304.977
304.979
304.981
304.983
304.984
304.985
304.947
304.951
304.955
304.959
304.962
304.965
304.969
304.971
304.974
304.976
304.978
304.98
304.982
304.982
304.944
304.948
304.952
304.955
304.959
304.962
304.965
304.968
304.971
304.973
304.975
304.977
304.978
304.979
304.941
304.945
304.948
304.952
304.955
304.958
304.961
304.964
304.967
304.969
304.971
304.973
304.975
304.976
304.937
304.941
304.944
304.948
304.951
304.955
304.958
304.961
304.963
304.966
304.968
304.97
304.972
304.973
304.933
304.937
304.94
304.944
304.947
304.951
304.954
304.957
304.959
304.962
304.964
304.966
304.968
304.969
304.929
304.933
304.936
304.94
304.943
304.946
304.95
304.952
304.955
304.958
304.96
304.962
304.964
304.966
304.925
304.929
304.932
304.936
304.939
304.942
304.945
304.948
304.951
304.953
304.956
304.958
304.96
304.962
304.921
304.924
304.928
304.931
304.934
304.938
304.941
304.944
304.946
304.949
304.952
304.954
304.956
304.958
304.916
304.92
304.923
304.927
304.93
304.933
304.936
304.939
304.942
304.945
304.947
304.95
304.952
304.954
304.912
304.915
304.919
304.922
304.925
304.929
304.932
304.934
304.937
304.94
304.943
304.945
304.947
304.95
304.907
304.911
304.914
304.917
304.921
304.924
304.927
304.93
304.933
304.935
304.938
304.941
304.943
304.946
304.903
304.906
304.91
304.913
304.916
304.919
304.922
304.925
304.928
304.93
304.933
304.936
304.938
304.941
304.576
304.581
304.585
304.59
304.594
304.598
304.602
304.607
304.611
304.614
304.618
304.622
304.625
304.627
304.578
304.582
304.587
304.591
304.596
304.6
304.605
304.609
304.613
304.617
304.62
304.624
304.627
304.629
304.58
304.584
304.589
304.593
304.598
304.602
304.607
304.611
304.615
304.618
304.622
304.625
304.628
304.631
304.582
304.586
304.591
304.595
304.6
304.604
304.609
304.613
304.617
304.62
304.624
304.627
304.63
304.633
304.583
304.588
304.592
304.597
304.602
304.606
304.61
304.614
304.618
304.622
304.625
304.629
304.631
304.634
304.584
304.589
304.594
304.598
304.603
304.607
304.612
304.616
304.62
304.623
304.627
304.63
304.633
304.636
304.586
304.59
304.595
304.6
304.604
304.609
304.613
304.617
304.621
304.625
304.628
304.631
304.634
304.637
304.586
304.591
304.596
304.601
304.605
304.61
304.614
304.618
304.622
304.626
304.629
304.632
304.635
304.638
304.587
304.592
304.597
304.602
304.606
304.611
304.615
304.619
304.623
304.627
304.63
304.633
304.636
304.639
304.588
304.593
304.598
304.602
304.607
304.611
304.616
304.62
304.624
304.627
304.631
304.634
304.637
304.64
304.588
304.593
304.598
304.603
304.607
304.612
304.616
304.62
304.624
304.628
304.631
304.634
304.638
304.64
304.588
304.594
304.598
304.603
304.607
304.612
304.616
304.62
304.624
304.628
304.631
304.635
304.638
304.641
304.589
304.594
304.598
304.603
304.607
304.612
304.616
304.62
304.624
304.628
304.632
304.635
304.638
304.642
304.589
304.594
304.599
304.603
304.608
304.612
304.616
304.62
304.624
304.628
304.631
304.635
304.638
304.641
304.223
304.226
304.23
304.233
304.237
304.241
304.245
304.248
304.252
304.255
304.259
304.262
304.265
304.268
304.227
304.23
304.234
304.238
304.242
304.246
304.249
304.253
304.257
304.26
304.264
304.267
304.269
304.273
304.231
304.235
304.239
304.243
304.247
304.251
304.254
304.258
304.261
304.265
304.268
304.271
304.274
304.277
304.235
304.239
304.243
304.247
304.251
304.255
304.259
304.263
304.266
304.27
304.273
304.276
304.278
304.281
304.24
304.243
304.248
304.252
304.256
304.26
304.264
304.267
304.271
304.274
304.277
304.28
304.282
304.285
304.244
304.248
304.252
304.256
304.26
304.264
304.268
304.272
304.275
304.278
304.281
304.284
304.287
304.289
304.247
304.252
304.256
304.26
304.264
304.268
304.272
304.276
304.279
304.283
304.286
304.288
304.291
304.293
304.251
304.256
304.26
304.264
304.268
304.272
304.276
304.28
304.283
304.286
304.289
304.292
304.295
304.297
304.255
304.259
304.263
304.268
304.272
304.276
304.28
304.284
304.287
304.29
304.293
304.296
304.298
304.3
304.258
304.263
304.267
304.271
304.276
304.28
304.283
304.287
304.291
304.294
304.297
304.299
304.302
304.304
304.261
304.266
304.27
304.274
304.279
304.283
304.287
304.29
304.294
304.297
304.3
304.303
304.305
304.307
304.264
304.269
304.273
304.278
304.282
304.286
304.29
304.293
304.297
304.3
304.303
304.306
304.308
304.311
304.267
304.271
304.276
304.28
304.284
304.289
304.292
304.296
304.3
304.303
304.306
304.309
304.311
304.314
304.27
304.275
304.279
304.283
304.287
304.291
304.295
304.299
304.302
304.305
304.308
304.311
304.314
304.317
303.898
303.9
303.902
303.904
303.907
303.909
303.911
303.913
303.916
303.918
303.92
303.922
303.924
303.926
303.903
303.904
303.907
303.909
303.911
303.914
303.916
303.918
303.92
303.923
303.925
303.926
303.928
303.93
303.907
303.909
303.911
303.914
303.916
303.918
303.921
303.923
303.925
303.927
303.929
303.931
303.933
303.935
303.911
303.913
303.916
303.918
303.921
303.923
303.925
303.928
303.93
303.932
303.934
303.936
303.937
303.939
303.915
303.918
303.92
303.923
303.925
303.928
303.93
303.932
303.935
303.936
303.938
303.94
303.942
303.943
303.92
303.922
303.925
303.927
303.93
303.932
303.935
303.937
303.939
303.941
303.943
303.945
303.946
303.948
303.924
303.927
303.929
303.932
303.934
303.937
303.939
303.942
303.944
303.946
303.947
303.949
303.951
303.952
303.928
303.931
303.933
303.936
303.939
303.941
303.944
303.946
303.948
303.95
303.952
303.953
303.955
303.956
303.932
303.935
303.938
303.94
303.943
303.946
303.948
303.95
303.952
303.954
303.956
303.958
303.959
303.96
303.936
303.939
303.942
303.944
303.947
303.95
303.952
303.954
303.956
303.958
303.96
303.962
303.963
303.964
303.939
303.943
303.945
303.948
303.951
303.953
303.956
303.958
303.96
303.962
303.964
303.966
303.967
303.968
303.943
303.946
303.949
303.952
303.955
303.957
303.96
303.962
303.964
303.966
303.968
303.969
303.971
303.972
303.947
303.95
303.953
303.955
303.958
303.961
303.963
303.966
303.968
303.97
303.971
303.973
303.974
303.976
303.95
303.954
303.956
303.959
303.962
303.964
303.967
303.969
303.971
303.973
303.975
303.977
303.978
303.98
303.603
303.604
303.604
303.605
303.606
303.606
303.607
303.608
303.608
303.609
303.61
303.61
303.611
303.612
303.606
303.607
303.607
303.608
303.608
303.609
303.61
303.61
303.611
303.612
303.613
303.613
303.614
303.616
303.609
303.609
303.61
303.611
303.611
303.612
303.613
303.613
303.614
303.615
303.616
303.616
303.617
303.618
303.612
303.612
303.613
303.614
303.614
303.615
303.616
303.616
303.617
303.618
303.619
303.619
303.62
303.621
303.615
303.615
303.616
303.616
303.617
303.618
303.619
303.619
303.62
303.621
303.622
303.622
303.623
303.624
303.617
303.618
303.619
303.619
303.62
303.621
303.622
303.622
303.623
303.624
303.625
303.625
303.626
303.627
303.62
303.621
303.622
303.623
303.623
303.624
303.625
303.625
303.626
303.627
303.628
303.629
303.629
303.63
303.623
303.624
303.625
303.626
303.626
303.627
303.628
303.629
303.629
303.63
303.631
303.632
303.632
303.633
303.626
303.627
303.628
303.629
303.629
303.63
303.631
303.632
303.633
303.633
303.634
303.635
303.636
303.636
303.629
303.63
303.631
303.632
303.633
303.633
303.634
303.635
303.636
303.636
303.637
303.638
303.639
303.639
303.632
303.633
303.634
303.635
303.636
303.637
303.637
303.638
303.639
303.64
303.64
303.641
303.642
303.642
303.635
303.636
303.637
303.638
303.639
303.64
303.64
303.641
303.642
303.643
303.643
303.644
303.645
303.645
303.638
303.639
303.64
303.641
303.642
303.643
303.644
303.644
303.645
303.646
303.646
303.647
303.648
303.648
303.641
303.642
303.643
303.644
303.645
303.646
303.647
303.647
303.648
303.649
303.649
303.65
303.651
303.651
303.337
303.336
303.336
303.335
303.335
303.334
303.334
303.333
303.333
303.333
303.333
303.333
303.333
303.333
303.338
303.337
303.336
303.336
303.335
303.335
303.334
303.334
303.334
303.334
303.334
303.334
303.334
303.335
303.338
303.338
303.337
303.336
303.336
303.335
303.335
303.335
303.334
303.334
303.334
303.335
303.335
303.336
303.339
303.338
303.338
303.337
303.337
303.336
303.336
303.336
303.335
303.335
303.335
303.336
303.336
303.337
303.34
303.34
303.339
303.338
303.338
303.337
303.337
303.337
303.336
303.336
303.337
303.337
303.337
303.338
303.341
303.341
303.34
303.339
303.339
303.338
303.338
303.338
303.338
303.338
303.338
303.338
303.338
303.339
303.343
303.342
303.341
303.341
303.34
303.34
303.339
303.339
303.339
303.339
303.339
303.339
303.34
303.34
303.344
303.343
303.343
303.342
303.341
303.341
303.341
303.34
303.34
303.34
303.34
303.341
303.341
303.341
303.346
303.345
303.344
303.344
303.343
303.343
303.342
303.342
303.342
303.342
303.342
303.342
303.343
303.343
303.347
303.347
303.346
303.345
303.345
303.344
303.344
303.344
303.344
303.344
303.344
303.344
303.344
303.344
303.349
303.349
303.348
303.347
303.347
303.346
303.346
303.346
303.345
303.345
303.345
303.345
303.346
303.346
303.351
303.35
303.35
303.349
303.348
303.348
303.348
303.347
303.347
303.347
303.347
303.347
303.347
303.347
303.353
303.352
303.352
303.351
303.35
303.35
303.35
303.349
303.349
303.349
303.349
303.349
303.349
303.349
303.355
303.354
303.353
303.353
303.352
303.352
303.352
303.352
303.351
303.351
303.351
303.351
303.351
303.351
303.096
303.095
303.094
303.093
303.093
303.092
303.091
303.09
303.09
303.089
303.089
303.089
303.089
303.089
303.096
303.095
303.094
303.093
303.092
303.091
303.09
303.09
303.089
303.089
303.088
303.088
303.088
303.088
303.095
303.094
303.093
303.092
303.091
303.09
303.09
303.089
303.088
303.088
303.088
303.088
303.088
303.088
303.095
303.094
303.093
303.092
303.091
303.09
303.089
303.089
303.088
303.088
303.088
303.088
303.088
303.088
303.095
303.094
303.093
303.091
303.09
303.09
303.089
303.088
303.088
303.088
303.087
303.087
303.088
303.088
303.095
303.094
303.092
303.091
303.09
303.089
303.089
303.088
303.088
303.087
303.087
303.087
303.087
303.088
303.095
303.094
303.093
303.091
303.09
303.089
303.089
303.088
303.088
303.087
303.087
303.087
303.087
303.088
303.095
303.094
303.093
303.092
303.091
303.09
303.089
303.088
303.088
303.088
303.087
303.087
303.088
303.088
303.096
303.094
303.093
303.092
303.091
303.09
303.089
303.089
303.088
303.088
303.088
303.088
303.088
303.088
303.096
303.095
303.094
303.092
303.091
303.09
303.09
303.089
303.089
303.088
303.088
303.088
303.088
303.088
303.097
303.096
303.094
303.093
303.092
303.091
303.09
303.09
303.089
303.089
303.089
303.089
303.089
303.089
303.097
303.096
303.095
303.094
303.093
303.092
303.091
303.09
303.09
303.09
303.089
303.089
303.089
303.089
303.098
303.097
303.096
303.095
303.094
303.093
303.092
303.091
303.091
303.09
303.09
303.09
303.09
303.09
303.099
303.098
303.096
303.095
303.094
303.094
303.093
303.092
303.092
303.091
303.091
303.091
303.091
303.09
302.88
302.88
302.879
302.878
302.878
302.877
302.877
302.876
302.875
302.875
302.875
302.874
302.874
302.874
302.88
302.879
302.878
302.878
302.877
302.876
302.876
302.875
302.875
302.874
302.874
302.874
302.873
302.873
302.879
302.878
302.877
302.877
302.876
302.875
302.875
302.874
302.874
302.873
302.873
302.873
302.873
302.872
302.878
302.878
302.877
302.876
302.875
302.875
302.874
302.874
302.873
302.873
302.873
302.872
302.872
302.872
302.878
302.877
302.876
302.875
302.875
302.874
302.873
302.873
302.873
302.872
302.872
302.872
302.872
302.871
302.877
302.877
302.876
302.875
302.874
302.874
302.873
302.872
302.872
302.872
302.871
302.871
302.871
302.871
302.877
302.876
302.875
302.874
302.874
302.873
302.872
302.872
302.871
302.871
302.871
302.871
302.871
302.87
302.877
302.876
302.875
302.874
302.873
302.873
302.872
302.871
302.871
302.871
302.87
302.87
302.87
302.87
302.876
302.876
302.875
302.874
302.873
302.872
302.872
302.871
302.871
302.87
302.87
302.87
302.87
302.87
302.876
302.875
302.874
302.874
302.873
302.872
302.871
302.871
302.87
302.87
302.87
302.87
302.869
302.869
302.876
302.875
302.874
302.873
302.873
302.872
302.871
302.871
302.87
302.87
302.87
302.869
302.869
302.869
302.876
302.875
302.874
302.873
302.872
302.872
302.871
302.871
302.87
302.87
302.869
302.869
302.869
302.869
302.876
302.875
302.874
302.873
302.872
302.872
302.871
302.871
302.87
302.87
302.869
302.869
302.869
302.869
302.876
302.875
302.874
302.873
302.872
302.872
302.871
302.871
302.87
302.87
302.869
302.869
302.869
302.869
302.686
302.687
302.686
302.686
302.686
302.686
302.686
302.686
302.685
302.685
302.685
302.684
302.684
302.683
302.686
302.686
302.686
302.686
302.686
302.686
302.686
302.686
302.685
302.685
302.684
302.684
302.684
302.683
302.686
302.686
302.686
302.686
302.686
302.686
302.686
302.685
302.685
302.685
302.684
302.684
302.683
302.683
302.686
302.686
302.686
302.686
302.686
302.685
302.685
302.685
302.685
302.684
302.684
302.683
302.683
302.682
302.686
302.686
302.686
302.685
302.685
302.685
302.685
302.685
302.684
302.684
302.684
302.683
302.683
302.682
302.685
302.685
302.685
302.685
302.685
302.685
302.685
302.684
302.684
302.684
302.683
302.683
302.682
302.682
302.685
302.685
302.685
302.685
302.685
302.684
302.684
302.684
302.684
302.683
302.683
302.682
302.682
302.681
302.685
302.685
302.684
302.684
302.684
302.684
302.684
302.683
302.683
302.683
302.682
302.682
302.682
302.681
302.684
302.684
302.684
302.684
302.684
302.683
302.683
302.683
302.683
302.682
302.682
302.681
302.681
302.681
302.684
302.684
302.683
302.683
302.683
302.683
302.683
302.682
302.682
302.682
302.681
302.681
302.681
302.68
302.683
302.683
302.683
302.683
302.683
302.682
302.682
302.682
302.681
302.681
302.681
302.68
302.68
302.68
302.683
302.682
302.682
302.682
302.682
302.682
302.682
302.681
302.681
302.681
302.68
302.68
302.679
302.679
302.682
302.682
302.682
302.682
302.681
302.681
302.681
302.681
302.68
302.68
302.68
302.679
302.679
302.679
302.681
302.681
302.681
302.681
302.681
302.681
302.68
302.68
302.68
302.679
302.679
302.679
302.678
302.678
306.707
306.682
306.656
306.63
306.605
306.581
306.715
306.698
306.677
306.657
306.638
306.619
306.497
306.48
306.464
306.451
306.438
306.425
306.497
306.477
306.458
306.439
306.423
306.407
306.494
306.472
306.45
306.43
306.411
306.393
306.494
306.469
306.446
306.424
306.404
306.385
306.495
306.468
306.444
306.421
306.4
306.381
306.497
306.469
306.444
306.421
306.4
306.381
306.5
306.472
306.446
306.423
306.403
306.384
306.504
306.476
306.451
306.428
306.408
306.391
306.508
306.481
306.456
306.434
306.415
306.398
306.513
306.487
306.464
306.442
306.424
306.408
306.519
306.495
306.472
306.452
306.435
306.419
306.524
306.503
306.483
306.465
306.448
306.434
306.532
306.513
306.496
306.48
306.465
306.451
306.537
306.524
306.509
306.496
306.483
306.472
306.442
306.435
306.428
306.422
306.416
306.411
306.435
306.425
306.415
306.406
306.398
306.39
306.428
306.416
306.404
306.393
306.383
306.372
306.422
306.408
306.395
306.382
306.371
306.36
306.418
306.403
306.388
306.375
306.363
306.351
306.415
306.399