/*--------------------------------*- C++ -*----------------------------------*\
| =========                 |                                                 |
| \\      /  F ield         | OpenFOAM: The Open Source CFD Toolbox           |
|  \\    /   O peration     | Version:  v2106                                 |
|   \\  /    A nd           | Website:  www.openfoam.com                      |
|    \\/     M anipulation  |                                                 |
\*---------------------------------------------------------------------------*/
FoamFile
{
    version     2.0;
    format      ascii;
    arch        "LSB;label=32;scalar=64";
    class       volScalarField;
    location    "0.000141";
    object      T;
}
// * * * * * * * * * * * * * * * * * * * * * * * * * * * * * * * * * * * * * //

dimensions      [0 0 0 1 0 0 0];

internalField   nonuniform List<scalar> 
144746
(
294.606
294.602
294.476
294.338
294.226
294.154
294.1
294.051
294.016
294.053
294.154
294.439
294.905
295.374
294.617
294.564
294.409
294.295
294.16
294.044
293.977
293.904
293.879
293.889
293.981
294.244
294.713
295.272
294.459
294.42
294.275
294.166
294.042
293.902
293.825
293.75
293.752
293.761
293.857
294.108
294.584
295.109
294.343
294.235
294.094
293.969
293.863
293.759
293.696
293.652
293.664
293.688
293.793
294.028
294.473
294.954
294.217
294.088
293.963
293.841
293.74
293.646
293.604
293.57
293.594
293.638
293.746
293.951
294.335
294.761
294.138
294.004
293.889
293.765
293.661
293.571
293.549
293.523
293.549
293.604
293.706
293.886
294.209
294.592
294.092
293.955
293.832
293.728
293.632
293.547
293.52
293.51
293.535
293.595
293.693
293.862
294.132
294.479
294.069
293.978
293.873
293.776
293.681
293.591
293.545
293.535
293.556
293.615
293.712
293.851
294.11
294.437
294.088
294.072
293.988
293.888
293.797
293.695
293.628
293.61
293.624
293.677
293.768
293.889
294.149
294.461
294.225
294.265
294.206
294.097
293.969
293.849
293.767
293.741
293.75
293.806
293.901
294.027
294.287
294.578
294.444
294.549
294.51
294.392
294.216
294.076
293.994
293.963
293.992
294.064
294.184
294.352
294.635
294.946
294.771
294.872
294.829
294.715
294.51
294.331
294.24
294.232
294.28
294.408
294.592
294.831
295.135
295.452
295.14
295.298
295.253
295.143
294.921
294.722
294.61
294.6
294.679
294.86
295.131
295.44
295.759
296.106
295.393
295.579
295.498
295.422
295.233
295.074
294.965
294.973
295.06
295.269
295.565
295.909
296.206
296.457
292.003
292.383
292.607
292.804
293.169
293.498
293.773
293.893
293.996
294.083
294.187
294.399
294.599
294.72
292.035
292.414
292.619
292.967
293.318
293.554
293.8
293.892
294.01
294.087
294.166
294.36
294.642
294.839
292.353
292.767
293.069
293.344
293.589
293.674
293.809
293.859
293.997
294.077
294.174
294.367
294.682
294.908
292.914
293.202
293.415
293.53
293.645
293.706
293.823
293.9
294.008
294.083
294.182
294.337
294.626
294.847
293.323
293.465
293.55
293.607
293.682
293.75
293.833
293.875
294.007
294.087
294.195
294.34
294.595
294.769
293.433
293.518
293.535
293.596
293.659
293.758
293.821
293.908
294.016
294.096
294.185
294.282
294.482
294.675
293.443
293.459
293.478
293.553
293.639
293.76
293.823
293.93
294.034
294.118
294.202
294.316
294.473
294.647
293.227
293.287
293.414
293.508
293.641
293.745
293.834
293.938
294.033
294.114
294.199
294.305
294.468
294.609
292.965
293.01
293.211
293.437
293.666
293.738
293.831
293.954
294.049
294.121
294.2
294.298
294.463
294.585
292.821
292.796
293.051
293.445
293.705
293.788
293.858
293.983
294.081
294.165
294.247
294.358
294.53
294.634
292.693
292.665
292.941
293.412
293.768
293.88
293.932
294.036
294.145
294.251
294.367
294.528
294.749
294.883
292.751
292.607
292.871
293.401
293.855
294.03
294.08
294.138
294.217
294.384
294.556
294.775
295.028
295.139
292.863
292.753
292.972
293.499
294.003
294.267
294.329
294.368
294.411
294.567
294.763
294.976
295.223
295.345
292.713
292.662
292.836
293.433
294.028
294.435
294.525
294.624
294.662
294.78
294.923
295.129
295.267
295.282
287.98
289.026
289.953
291.021
292.139
293.004
293.907
294.513
294.905
294.997
294.957
294.788
294.385
293.907
288.661
289.857
290.706
291.634
292.537
293.298
294.096
294.628
295.04
295.176
295.143
295.001
294.742
294.48
290.135
291.225
292.095
292.78
293.422
293.918
294.414
294.783
295.152
295.325
295.382
295.343
295.194
294.884
291.609
292.358
293.065
293.552
294.014
294.343
294.718
294.973
295.284
295.453
295.514
295.48
295.374
295.048
292.63
293.208
293.746
294.131
294.45
294.676
294.901
295.086
295.373
295.552
295.641
295.649
295.607
295.288
293.16
293.585
293.984
294.287
294.573
294.79
295.029
295.213
295.455
295.621
295.688
295.664
295.615
295.401
293.188
293.521
293.918
294.266
294.616
294.861
295.112
295.301
295.506
295.689
295.789
295.824
295.791
295.704
292.953
293.176
293.57
294.044
294.543
294.846
295.131
295.344
295.51
295.686
295.793
295.837
295.847
295.829
292.324
292.475
292.909
293.628
294.331
294.769
295.073
295.337
295.493
295.662
295.755
295.786
295.808
295.805
291.529
291.708
292.267
293.231
294.079
294.687
295.004
295.305
295.462
295.605
295.66
295.691
295.689
295.72
290.588
290.849
291.621
292.752
293.735
294.503
294.89
295.205
295.333
295.432
295.432
295.477
295.424
295.509
289.738
290.004
290.972
292.286
293.415
294.269
294.696
294.972
295.069
295.174
295.147
295.222
295.146
295.111
289.093
289.429
290.437
291.822
293.076
294.033
294.525
294.725
294.691
294.743
294.693
294.754
294.727
294.655
288.415
288.789
289.812
291.426
292.869
293.891
294.396
294.564
294.521
294.526
294.437
294.465
294.386
294.123
295.806
295.99
296.142
296.147
296.204
296.153
295.709
295.861
295.97
295.888
295.932
295.926
295.565
295.717
295.815
295.718
295.731
295.716
295.406
295.555
295.644
295.565
295.592
295.608
295.232
295.448
295.579
295.533
295.591
295.64
295.082
295.392
295.625
295.633
295.732
295.775
294.975
295.354
295.72
295.852
295.998
296.016
294.932
295.364
295.838
296.079
296.272
296.239
294.966
295.44
296.017
296.321
296.513
296.486
295.091
295.594
296.215
296.526
296.774
296.744
295.457
295.971
296.567
296.881
297.113
297.068
295.948
296.41
296.886
297.097
297.253
297.183
296.501
296.795
297.088
297.188
297.307
297.225
296.676
296.827
297.005
296.991
297.102
297.037
294.996
294.964
295.161
294.988
295.095
294.83
294.999
294.941
295.136
294.945
295.019
294.87
295.007
294.964
295.124
294.997
295.119
295.124
295.052
295.086
295.282
295.231
295.505
295.605
295.063
295.219
295.509
295.657
296.096
296.241
295.051
295.325
295.767
296.046
296.585
296.7
295.018
295.354
295.948
296.333
296.906
296.983
294.994
295.33
296.031
296.508
297.15
297.25
295.004
295.37
296.161
296.695
297.418
297.344
295.075
295.388
296.232
296.819
297.578
297.429
295.325
295.551
296.364
296.907
297.617
297.331
295.496
295.522
296.251
296.661
297.299
296.99
295.696
295.65
296.208
296.465
297.028
296.802
295.51
295.506
295.946
296.116
296.586
296.447
293.697
293.004
292.43
290.982
289.788
286.902
293.998
293.255
292.837
291.69
290.742
288.507
294.289
293.603
293.186
292.441
291.962
290.599
294.557
294.081
293.958
293.592
293.565
292.813
294.899
294.589
294.763
294.765
295.115
294.729
295.248
295.118
295.421
295.69
296.213
295.71
295.636
295.645
295.987
296.215
296.727
295.912
295.826
295.861
296.179
296.328
296.832
295.744
295.849
295.772
296.124
296.154
296.73
294.893
295.775
295.699
295.999
295.828
296.257
293.88
295.597
295.412
295.712
295.372
295.694
292.622
295.196
294.789
294.902
294.283
294.45
290.981
294.863
294.196
294.107
293.3
293.269
289.879
293.838
293.035
293.053
292.386
292.103
289.214
296.739
296.9
296.954
296.89
296.86
296.792
296.488
296.506
296.548
296.447
296.471
296.436
296.228
296.302
296.371
296.287
296.3
296.288
295.916
296.074
296.218
296.203
296.262
296.296
295.717
295.974
296.21
296.267
296.359
296.376
295.589
295.941
296.295
296.449
296.592
296.564
295.551
295.949
296.381
296.568
296.726
296.692
295.559
296.007
296.488
296.658
296.824
296.799
295.666
296.104
296.568
296.732
296.845
296.781
295.785
296.185
296.595
296.746
296.873
296.808
295.904
296.188
296.519
296.648
296.786
296.752
295.89
296.061
296.327
296.404
296.531
296.513
295.947
295.939
296.13
296.138
296.244
296.262
295.586
295.515
295.633
295.601
295.659
295.739
295.604
295.804
296.189
296.187
296.444
296.277
295.456
295.691
296.107
296.131
296.372
296.346
295.318
295.594
296.018
296.159
296.496
296.604
295.213
295.559
296.079
296.337
296.829
296.964
295.13
295.486
296.129
296.566
297.168
297.264
295.062
295.445
296.199
296.772
297.442
297.489
295.063
295.428
296.245
296.891
297.613
297.586
294.958
295.341
296.192
296.783
297.563
297.526
294.847
294.945
295.714
296.257
297.017
296.902
294.363
294.327
294.973
295.352
296.041
295.87
293.772
293.665
294.211
294.483
295.013
294.931
293.225
293.196
293.636
293.765
294.095
294.045
293.162
293.219
293.565
293.533
293.778
293.746
292.896
292.977
293.367
293.334
293.516
293.614
294.028
293.658
293.349
292.486
292.056
289.712
293.972
293.607
293.662
293.126
292.88
291.3
294.066
293.791
293.915
293.773
293.896
293.057
294.263
294.193
294.571
294.722
295.148
294.668
294.474
294.614
295.165
295.453
295.985
295.419
294.579
294.808
295.463
295.76
296.333
295.516
294.637
294.812
295.407
295.688
296.342
295.106
294.465
294.592
295.065
295.045
295.576
293.772
293.866
293.673
293.832
293.516
293.868
291.424
292.74
292.159
291.893
291.15
291.316
288.468
291.325
290.441
289.998
288.983
288.828
286.049
289.848
289.017
288.743
287.819
287.297
284.934
289.133
288.575
288.478
287.789
287.236
285.559
288.424
288.085
288.24
288.033
288.022
287.114
294.568
294.523
294.488
294.575
294.556
294.628
294.777
294.788
294.728
294.787
294.752
294.761
294.835
294.875
294.812
294.818
294.715
294.63
295.047
295.109
295.057
295.033
294.822
294.605
295.157
295.265
295.219
295.112
294.774
294.526
295.303
295.358
295.317
295.183
294.791
294.474
295.45
295.475
295.354
295.137
294.73
294.415
295.411
295.433
295.27
295.006
294.614
294.34
295.279
295.274
295.083
294.791
294.468
294.276
295.083
294.994
294.833
294.62
294.402
294.316
294.875
294.735
294.646
294.535
294.456
294.436
294.73
294.586
294.608
294.634
294.662
294.764
294.779
294.728
294.798
294.942
294.969
295.07
295.12
295.123
295.219
295.398
295.534
295.599
291.84
291.765
291.678
291.788
291.685
291.798
291.753
291.926
291.848
292.032
291.951
292.124
291.819
292.051
292.007
292.148
292.029
292.286
292.619
292.841
292.661
292.719
292.495
292.776
293.773
293.957
293.517
293.366
293.02
293.24
295.057
295.074
294.415
293.968
293.474
293.512
296.074
295.934
295.146
294.462
293.774
293.556
296.472
296.273
295.474
294.651
293.801
293.417
296.674
296.376
295.571
294.707
293.764
293.221
296.575
296.26
295.521
294.675
293.655
293.083
296.297
295.935
295.249
294.433
293.478
292.935
295.728
295.305
294.782
294.165
293.431
293.021
294.958
294.561
294.218
293.899
293.425
293.015
294.086
293.853
293.694
293.672
293.542
293.342
284.312
285.579
285.782
286.324
286.499
287.251
282.577
284.702
285.544
286.593
287.114
288.21
281.763
284.527
285.522
286.932
287.755
289.23
282.582
285.646
286.503
288.052
289.111
290.654
284.887
287.874
288.431
289.753
290.732
291.867
288.174
290.635
290.73
291.46
291.95
292.666
291.231
292.936
292.609
292.78
292.768
292.955
293.354
294.352
293.697
293.294
292.827
292.872
294.653
294.954
294.094
293.351
292.599
292.388
295.185
294.995
294.016
293.045
292.021
291.644
295.172
294.624
293.46
292.25
291.084
290.612
294.465
293.676
292.575
291.336
290.189
289.661
292.712
292.074
291.202
290.233
289.303
288.742
290.069
290.067
289.811
289.57
289.471
289.057
296.247
296.309
296.143
296.095
295.867
295.623
296.299
296.382
296.211
296.016
295.632
295.28
296.289
296.335
296.115
295.783
295.257
294.824
296.134
296.143
295.867
295.482
294.908
294.503
296.004
295.938
295.654
295.261
294.736
294.353
295.774
295.711
295.42
295.058
294.604
294.277
295.517
295.448
295.168
294.841
294.491
294.282
295.234
295.088
294.842
294.586
294.353
294.255
294.924
294.711
294.506
294.307
294.199
294.216
294.584
294.348
294.225
294.13
294.103
294.194
294.28
294.09
294.076
294.095
294.127
294.223
294.117
293.978
294.073
294.195
294.274
294.39
294.179
294.117
294.227
294.349
294.375
294.505
294.288
294.356
294.52
294.704
294.744
294.73
294.935
295.203
294.921
295.01
294.735
294.79
295.401
295.7
295.278
295.196
294.778
294.884
295.854
296.178
295.572
295.191
294.632
294.662
296.411
296.605
295.837
295.215
294.54
294.44
296.674
296.625
295.806
295.134
294.488
294.268
296.692
296.576
295.79
295.104
294.441
294.154
296.822
296.518
295.726
295.009
294.341
294.032
296.762
296.431
295.653
294.888
294.139
293.815
296.582
296.202
295.429
294.583
293.789
293.485
296.233
295.716
294.978
294.153
293.419
293.151
295.557
295.008
294.361
293.606
293.014
292.748
294.611
294.088
293.634
293.141
292.771
292.593
293.667
293.142
292.885
292.641
292.364
292.24
292.469
292.327
292.333
292.444
292.427
292.352
286.458
289.876
290.844
292.021
292.361
293.349
287.418
291.145
291.754
292.982
293.448
294.328
289.008
292.617
292.72
293.563
293.888
294.499
290.979
294.027
293.872
294.366
294.435
294.718
292.502
294.865
294.557
294.716
294.62
294.8
293.845
295.575
295.156
295.115
294.868
294.853
295.093
296.041
295.415
295.001
294.624
294.546
295.799
296.16
295.368
294.639
293.96
293.876
296.009
295.907
294.902
293.867
292.988
292.857
295.83
295.165
293.95
292.833
292.044
291.886
294.799
293.901
292.63
291.45
290.777
290.64
292.972
292.092
291.083
290.152
289.58
289.488
290.502
290.076
289.322
288.697
288.272
288.307
287.294
287.788
287.734
287.923
288.077
288.142
286.785
287.862
289.31
290.971
292.724
294.173
295.603
296.575
297.283
297.548
297.494
297.082
296.237
295.256
287.822
289.319
290.783
292.176
293.539
294.658
295.794
296.581
297.168
297.421
297.404
297.152
296.399
295.464
290.087
291.614
292.85
293.838
294.749
295.454
296.155
296.663
297.115
297.396
297.487
297.412
296.815
296.097
292.332
293.494
294.471
295.088
295.642
295.992
296.415
296.739
297.078
297.314
297.404
297.407
296.99
296.416
294.132
294.88
295.454
295.796
296.113
296.324
296.598
296.818
297.097
297.347
297.497
297.555
297.339
296.911
294.947
295.387
295.77
296.024
296.256
296.44
296.665
296.839
297.07
297.293
297.429
297.485
297.426
297.199
295
295.289
295.631
295.949
296.253
296.484
296.717
296.898
297.107
297.347
297.521
297.662
297.716
297.717
294.363
294.556
295.017
295.616
296.143
296.476
296.727
296.925
297.086
297.333
297.519
297.729
297.871
297.996
293.307
293.434
294.022
295.017
295.819
296.371
296.678
296.911
297.059
297.32
297.509
297.748
297.927
298.142
291.977
292.172
293.072
294.458
295.55
296.314
296.686
296.927
297.04
297.28
297.427
297.668
297.803
298.068
290.28
290.736
292.053
293.759
295.119
296.112
296.599
296.867
296.928
297.117
297.2
297.433
297.499
297.744
288.841
289.482
291.085
293.058
294.74
295.904
296.458
296.708
296.696
296.793
296.726
296.871
296.828
296.962
287.692
288.426
290.132
292.347
294.248
295.628
296.266
296.459
296.272
296.233
296.014
296.062
295.939
296.099
287.061
287.674
289.329
291.761
293.875
295.411
296.137
296.29
296.009
295.764
295.323
295.276
294.976
295.036
285.88
287.249
289.07
291.105
293.371
295.228
296.88
297.891
298.556
298.917
298.939
298.476
297.36
295.84
287.6
289.508
291.366
293.064
294.719
295.966
297.123
297.846
298.329
298.604
298.624
298.325
297.411
295.896
290.449
292.354
293.894
295.044
296.065
296.761
297.428
297.864
298.207
298.46
298.547
298.425
297.739
296.543
293.346
294.746
295.801
296.427
296.955
297.244
297.6
297.901
298.171
298.371
298.453
298.442
298.01
297.212
295.505
296.231
296.743
297.005
297.291
297.473
297.727
297.942
298.182
298.394
298.538
298.611
298.383
297.958
296.414
296.761
297.028
297.199
297.406
297.571
297.779
297.951
298.155
298.344
298.478
298.563
298.511
298.328
296.433
296.658
296.902
297.152
297.402
297.611
297.811
297.978
298.166
298.361
298.52
298.658
298.766
298.818
295.663
295.886
296.328
296.868
297.286
297.587
297.798
297.971
298.129
298.334
298.512
298.729
298.915
299.105
294.113
294.475
295.317
296.328
297.014
297.463
297.721
297.913
298.06
298.277
298.463
298.734
298.965
299.289
292.129
292.778
294.219
295.745
296.789
297.389
297.697
297.881
297.982
298.183
298.353
298.636
298.832
299.231
289.809
290.863
292.911
294.917
296.366
297.17
297.563
297.757
297.813
297.992
298.127
298.383
298.506
298.877
288.012
289.272
291.653
294.034
295.933
296.999
297.458
297.626
297.593
297.643
297.643
297.774
297.758
297.953
286.589
287.91
290.387
293.078
295.387
296.762
297.318
297.435
297.213
297.046
296.737
296.652
296.506
296.648
285.732
286.813
289.123
292.105
294.857
296.569
297.224
297.288
296.883
296.338
295.679
295.336
294.906
295.026
288.551
290.207
292.007
293.77
295.683
297.261
298.624
299.465
300.004
300.37
300.503
300.213
299.34
297.988
290.949
292.783
294.396
295.735
297.079
298.023
298.866
299.398
299.795
300.036
300.113
299.94
299.277
297.984
293.707
295.345
296.579
297.399
298.142
298.618
299.088
299.393
299.663
299.874
299.978
299.922
299.434
298.527
296.234
297.225
297.95
298.329
298.716
298.933
299.201
299.418
299.62
299.787
299.874
299.89
299.604
299.017
297.787
298.224
298.573
298.732
298.959
299.085
299.279
299.446
299.639
299.803
299.932
300.021
299.925
299.641
298.352
298.561
298.738
298.851
299.024
299.151
299.325
299.466
299.633
299.783
299.904
300.009
300.023
300.021
298.226
298.415
298.617
298.824
299.024
299.185
299.352
299.493
299.647
299.797
299.925
300.072
300.205
300.358
297.468
297.785
298.221
298.645
298.934
299.156
299.329
299.476
299.612
299.768
299.918
300.124
300.328
300.573
295.892
296.562
297.477
298.273
298.748
299.048
299.249
299.405
299.535
299.703
299.86
300.108
300.348
300.697
293.892
295.116
296.649
297.849
298.587
298.969
299.188
299.335
299.433
299.594
299.744
300.012
300.24
300.661
291.649
293.499
295.594
297.201
298.243
298.781
299.059
299.215
299.29
299.435
299.563
299.82
299.987
300.402
289.938
292.118
294.576
296.538
297.922
298.656
298.983
299.11
299.095
299.171
299.23
299.397
299.448
299.714
288.454
290.773
293.436
295.756
297.538
298.509
298.891
298.99
298.85
298.725
298.536
298.5
298.399
298.556
287.307
289.429
292.143
294.936
297.197
298.44
298.85
298.871
298.536
298.148
297.648
297.261
296.85
296.942
292.658
294.094
295.562
296.872
298.222
299.224
300.099
300.665
301.06
301.329
301.488
301.364
300.908
300.076
295.083
296.427
297.585
298.362
299.203
299.747
300.263
300.604
300.877
301.035
301.098
301.04
300.71
299.988
297.204
298.188
298.975
299.386
299.82
300.084
300.368
300.574
300.763
300.902
300.988
301.006
300.781
300.389
298.759
299.218
299.656
299.821
300.088
300.236
300.435
300.584
300.725
300.834
300.905
300.954
300.823
300.7
299.562
299.745
299.986
300.065
300.249
300.346
300.493
300.607
300.745
300.859
300.953
301.05
301.026
301.064
299.81
299.925
300.07
300.155
300.304
300.399
300.536
300.636
300.76
300.868
300.956
301.071
301.134
301.245
299.618
299.798
299.985
300.15
300.304
300.422
300.555
300.662
300.781
300.895
300.994
301.122
301.26
301.447
299.003
299.374
299.742
300.034
300.227
300.387
300.525
300.642
300.752
300.872
300.987
301.158
301.348
301.596
297.817
298.577
299.299
299.8
300.082
300.284
300.437
300.563
300.673
300.811
300.941
301.149
301.368
301.683
296.341
297.655
298.811
299.541
299.967
300.208
300.366
300.485
300.569
300.705
300.828
301.061
301.275
301.669
294.621
296.563
298.146
299.135
299.719
300.046
300.237
300.362
300.432
300.562
300.675
300.905
301.08
301.515
293.254
295.589
297.523
298.756
299.527
299.963
300.184
300.292
300.296
300.371
300.45
300.632
300.751
301.103
291.912
294.517
296.76
298.289
299.294
299.851
300.091
300.183
300.139
300.103
300.054
300.108
300.122
300.352
290.653
293.348
295.834
297.88
299.206
299.875
300.086
300.111
299.935
299.769
299.526
299.325
299.076
299.186
296.697
297.686
298.79
299.559
300.398
300.93
301.411
301.747
302.002
302.171
302.286
302.245
302.027
301.581
298.414
299.219
299.939
300.369
300.881
301.179
301.486
301.677
301.843
301.936
301.953
301.892
301.713
301.453
299.825
300.241
300.738
300.917
301.176
301.324
301.491
301.639
301.759
301.836
301.864
301.876
301.759
301.64
300.604
300.698
300.992
301.068
301.287
301.405
301.559
301.655
301.74
301.789
301.799
301.831
301.791
301.8
300.944
300.992
301.188
301.241
301.413
301.493
301.612
301.683
301.762
301.819
301.859
301.933
301.964
302.046
301.028
301.098
301.241
301.323
301.466
301.54
301.652
301.72
301.791
301.853
301.901
301.986
302.069
302.187
300.856
301.022
301.2
301.335
301.466
301.558
301.666
301.746
301.819
301.89
301.953
302.053
302.17
302.357
300.473
300.792
301.064
301.254
301.399
301.522
301.637
301.729
301.803
301.88
301.954
302.078
302.23
302.453
299.766
300.355
300.825
301.093
301.282
301.424
301.549
301.651
301.733
301.828
301.919
302.08
302.267
302.527
298.914
299.856
300.549
300.939
301.182
301.341
301.464
301.559
301.627
301.724
301.813
301.997
302.183
302.525
297.778
299.188
300.135
300.661
300.98
301.182
301.323
301.427
301.491
301.589
301.674
301.86
302.013
302.423
296.825
298.616
299.815
300.459
300.869
301.122
301.262
301.344
301.363
301.437
301.516
301.664
301.758
302.145
295.796
297.822
299.297
300.152
300.674
301.004
301.173
301.252
301.26
301.281
301.257
301.339
301.399
301.7
294.832
297.072
298.821
300.085
300.709
301.044
301.175
301.201
301.143
301.092
301.012
300.97
300.83
300.95
299.638
300.285
300.97
301.395
301.873
302.148
302.397
302.597
302.754
302.853
302.922
302.922
302.795
302.56
300.707
300.98
301.434
301.688
302.004
302.207
302.415
302.523
302.616
302.662
302.647
302.589
302.475
302.381
301.451
301.51
301.837
301.935
302.135
302.253
302.377
302.485
302.549
302.58
302.57
302.562
302.491
302.432
301.819
301.764
301.991
302.041
302.221
302.319
302.442
302.501
302.538
302.547
302.518
302.52
302.503
302.529
301.949
301.956
302.128
302.179
302.327
302.391
302.484
302.528
302.563
302.576
302.57
302.609
302.641
302.704
301.968
302.036
302.173
302.256
302.377
302.437
302.522
302.567
302.601
302.624
302.63
302.677
302.738
302.843
301.841
301.994
302.152
302.27
302.379
302.454
302.537
302.592
302.629
302.664
302.69
302.754
302.838
303.002
301.637
301.873
302.073
302.212
302.326
302.426
302.516
302.583
302.624
302.669
302.707
302.788
302.9
303.082
301.268
301.638
301.924
302.082
302.224
302.34
302.442
302.521
302.573
302.633
302.689
302.806
302.957
303.166
300.848
301.375
301.757
301.976
302.141
302.264
302.363
302.436
302.482
302.547
302.607
302.746
302.902
303.177
300.202
300.976
301.485
301.77
301.977
302.119
302.229
302.308
302.359
302.431
302.493
302.641
302.771
303.115
299.65
300.643
301.314
301.66
301.921
302.067
302.158
302.214
302.233
302.294
302.358
302.491
302.577
302.944
298.953
300.171
300.983
301.44
301.768
301.963
302.076
302.133
302.154
302.174
302.19
302.266
302.312
302.656
298.402
299.858
300.89
301.49
301.818
301.988
302.073
302.084
302.063
302.051
302.017
302.026
302.019
302.19
301.534
301.851
302.236
302.514
302.81
302.998
303.182
303.326
303.427
303.5
303.549
303.552
303.477
303.339
302.081
302.12
302.42
302.609
302.846
303.014
303.173
303.252
303.301
303.337
303.312
303.254
303.17
303.116
302.486
302.439
302.674
302.752
302.923
303.022
303.124
303.21
303.241
303.262
303.235
303.209
303.153
303.118
302.676
302.623
302.812
302.854
303.009
303.092
303.187
303.227
303.236
303.232
303.184
303.157
303.134
303.151
302.754
302.772
302.918
302.973
303.102
303.154
303.226
303.257
303.262
303.253
303.22
303.22
303.23
303.283
302.765
302.835
302.956
303.04
303.146
303.197
303.263
303.295
303.3
303.299
303.283
303.299
303.33
303.412
302.687
302.81
302.946
303.053
303.151
303.213
303.276
303.316
303.333
303.346
303.346
303.377
303.432
303.564
302.569
302.731
302.883
303.004
303.11
303.195
303.266
303.317
303.341
303.365
303.375
303.425
303.509
303.652
302.365
302.588
302.756
302.893
303.023
303.127
303.211
303.273
303.306
303.346
303.378
303.461
303.577
303.748
302.156
302.42
302.639
302.804
302.948
303.062
303.147
303.205
303.236
303.284
303.329
303.437
303.561
303.776
301.781
302.163
302.448
302.649
302.817
302.942
303.035
303.098
303.133
303.187
303.237
303.366
303.488
303.762
301.471
301.966
302.353
302.592
302.781
302.89
302.962
303.005
303.018
303.066
303.12
303.249
303.346
303.668
301.069
301.685
302.155
302.446
302.666
302.804
302.884
302.922
302.933
302.95
302.982
303.079
303.151
303.47
300.829
301.652
302.191
302.528
302.713
302.818
302.866
302.86
302.842
302.817
302.825
302.877
302.933
303.159
302.677
302.809
303.037
303.246
303.461
303.621
303.793
303.92
303.994
304.07
304.113
304.126
304.079
303.978
302.974
302.949
303.161
303.302
303.494
303.638
303.766
303.841
303.877
303.923
303.905
303.862
303.799
303.755
303.221
303.165
303.346
303.411
303.561
303.641
303.726
303.8
303.818
303.847
303.823
303.8
303.759
303.725
303.341
303.308
303.458
303.501
303.634
303.701
303.774
303.809
303.812
303.819
303.775
303.739
303.712
303.713
303.394
303.42
303.538
303.597
303.708
303.755
303.812
303.836
303.833
303.829
303.791
303.769
303.765
303.797
303.391
303.459
303.56
303.642
303.739
303.79
303.845
303.87
303.868
303.864
303.841
303.838
303.855
303.919
303.339
303.433
303.545
303.649
303.745
303.807
303.861
303.892
303.899
303.909
303.9
303.916
303.951
304.054
303.25
303.37
303.493
303.611
303.716
303.796
303.857
303.899
303.915
303.932
303.935
303.971
304.036
304.152
303.109
303.262
303.383
303.524
303.649
303.748
303.821
303.873
303.896
303.928
303.951
304.013
304.104
304.248
302.965
303.141
303.304
303.457
303.594
303.7
303.776
303.825
303.848
303.889
303.929
304.022
304.128
304.301
302.75
302.98
303.179
303.346
303.497
303.61
303.691
303.742
303.766
303.812
303.858
303.977
304.094
304.327
302.574
302.874
303.135
303.324
303.475
303.567
303.628
303.661
303.669
303.709
303.758
303.885
303.993
304.274
302.386
302.72
303.016
303.225
303.394
303.499
303.556
303.578
303.576
303.598
303.637
303.745
303.843
304.136
302.306
302.76
303.098
303.313
303.431
303.501
303.525
303.513
303.487
303.469
303.495
303.567
303.66
303.91
303.511
303.551
303.705
303.852
304.016
304.155
304.314
304.429
304.493
304.584
304.627
304.674
304.665
304.602
303.706
303.658
303.807
303.903
304.05
304.167
304.27
304.346
304.382
304.445
304.443
304.438
304.41
304.384
303.871
303.812
303.941
303.991
304.111
304.176
304.248
304.306
304.322
304.363
304.356
304.362
304.347
304.327
303.935
303.91
304.015
304.054
304.16
304.213
304.271
304.305
304.309
304.333
304.309
304.295
304.281
304.282
303.955
303.976
304.062
304.116
304.209
304.252
304.299
304.32
304.319
304.333
304.309
304.297
304.295
304.312
303.937
303.991
304.067
304.139
304.225
304.276
304.323
304.344
304.342
304.349
304.334
304.336
304.354
304.407
303.885
303.956
304.044
304.138
304.228
304.291
304.339
304.365
304.368
304.381
304.38
304.401
304.437
304.513
303.814
303.907
304.005
304.113
304.21
304.285
304.339
304.373
304.384
304.403
304.412
304.45
304.51
304.605
303.709
303.829
303.926
304.058
304.169
304.256
304.317
304.357
304.376
304.406
304.429
304.488
304.57
304.695
303.608
303.756
303.881
304.018
304.138
304.227
304.288
304.327
304.346
304.385
304.425
304.514
304.615
304.768
303.489
303.659
303.814
303.952
304.078
304.168
304.231
304.269
304.289
304.33
304.377
304.49
304.604
304.806
303.394
303.608
303.803
303.949
304.067
304.14
304.186
304.208
304.217
304.254
304.304
304.432
304.55
304.795
303.293
303.525
303.738
303.894
304.019
304.094
304.129
304.139
304.137
304.164
304.212
304.332
304.449
304.716
303.295
303.598
303.831
303.972
304.051
304.097
304.103
304.088
304.065
304.065
304.102
304.192
304.307
304.551
286.759
286.927
287.106
287.577
288
287.988
286.646
286.866
287.824
289.314
290.654
291.401
288.337
288.612
289.679
291.431
293.321
294.924
290.318
290.595
291.69
293.514
295.778
297.83
292.418
292.709
293.797
295.561
297.891
300.105
294.05
294.422
295.627
297.336
299.641
301.765
295.613
296.092
297.228
298.743
300.888
302.738
296.705
297.227
298.179
299.562
301.545
303.103
297.454
297.824
298.384
299.398
301.056
302.323
297.586
297.818
298.09
298.788
299.897
300.486
297.355
297.311
297.142
297.26
297.759
297.548
296.68
296.119
295.529
295.152
295.021
294.026
295.762
294.807
294.058
293.365
292.698
291.14
294.376
293.464
292.957
292.306
291.451
289.836
285.309
284.922
284.615
284.821
285.301
285.667
285.562
285.212
285.542
286.591
287.902
289.132
287.501
287.31
287.762
289.051
290.819
292.585
289.888
289.76
290.356
291.789
293.899
295.986
292.642
292.445
293.111
294.604
296.889
298.992
294.89
294.901
295.689
297.167
299.412
301.323
296.819
297.085
298.063
299.347
301.309
302.825
298.098
298.645
299.541
300.611
302.125
303.344
298.879
299.364
299.955
300.77
301.99
302.807
299.13
299.471
299.73
300.058
300.596
300.859
298.929
298.881
298.465
298.016
297.758
297.475
298.074
297.345
296.244
295.141
294.32
293.579
296.634
295.367
293.885
292.494
291.313
290.202
294.804
293.46
292.143
290.892
289.696
288.516
286.781
285.251
283.994
283.509
283.583
283.945
287.467
285.81
285.146
285.214
285.833
286.844
289.47
287.943
287.49
287.819
288.738
290.219
291.776
290.567
290.311
290.929
292.182
294.03
294.434
293.599
293.538
294.322
295.759
297.736
296.645
296.206
296.436
297.414
298.919
300.836
298.5
298.486
299.013
300.001
301.377
303.04
299.649
300.049
300.71
301.629
302.718
304.02
300.344
300.872
301.393
302.034
302.848
303.924
300.675
301.108
301.358
301.644
301.939
302.474
300.611
300.753
300.428
299.942
299.452
299.289
299.962
299.456
298.369
297.114
295.995
295.243
298.751
297.547
295.807
294.035
292.513
291.378
296.944
295.446
293.553
291.817
290.332
289.211
290.107
287.612
284.917
283.284
282.76
282.702
290.845
288.098
285.85
284.841
284.751
285.137
292.721
289.959
288.07
287.441
287.603
288.33
294.696
292.445
291.028
290.719
291.097
292.142
296.864
295.355
294.509
294.407
294.956
296.149
298.547
297.769
297.468
297.642
298.456
299.729
299.947
299.782
299.924
300.389
301.312
302.539
300.814
301.092
301.55
302.217
303.139
304.184
301.358
301.85
302.386
303.022
303.75
304.604
301.659
302.164
302.594
303.112
303.602
304.143
301.714
302.118
302.267
302.351
302.205
302.063
301.338
301.412
301.017
300.383