/*--------------------------------*- C++ -*----------------------------------*\
| =========                 |                                                 |
| \\      /  F ield         | OpenFOAM: The Open Source CFD Toolbox           |
|  \\    /   O peration     | Version:  v2106                                 |
|   \\  /    A nd           | Website:  www.openfoam.com                      |
|    \\/     M anipulation  |                                                 |
\*---------------------------------------------------------------------------*/
FoamFile
{
    version     2.0;
    format      ascii;
    arch        "LSB;label=32;scalar=64";
    class       volScalarField;
    location    "0.000173";
    object      alphat;
}
// * * * * * * * * * * * * * * * * * * * * * * * * * * * * * * * * * * * * * //

dimensions      [1 -1 -1 0 0 0 0];

internalField   nonuniform List<scalar> 
17924
(
9.8371e-17
9.836e-17
9.83511e-17
9.83392e-17
9.83635e-17
9.83567e-17
9.83484e-17
9.83367e-17
9.83239e-17
9.83092e-17
9.82936e-17
9.83576e-17
9.83518e-17
9.83431e-17
9.8332e-17
9.83194e-17
9.83055e-17
9.82905e-17
9.83539e-17
9.83479e-17
9.83381e-17
9.83271e-17
9.83147e-17
9.83015e-17
9.82875e-17
9.83526e-17
9.83449e-17
9.83346e-17
9.8324e-17
9.8312e-17
9.82996e-17
9.82861e-17
9.83527e-17
9.83432e-17
9.83326e-17
9.83221e-17
9.83104e-17
9.82982e-17
9.82853e-17
9.83536e-17
9.83432e-17
9.83324e-17
9.83219e-17
9.83101e-17
9.82981e-17
9.82852e-17
9.83558e-17
9.83444e-17
9.83335e-17
9.83226e-17
9.83107e-17
9.82985e-17
9.82857e-17
9.83595e-17
9.83473e-17
9.8336e-17
9.83246e-17
9.83123e-17
9.82998e-17
9.82866e-17
9.83644e-17
9.83514e-17
9.83393e-17
9.83274e-17
9.83144e-17
9.83014e-17
9.82878e-17
9.83701e-17
9.83564e-17
9.83434e-17
9.83306e-17
9.83171e-17
9.83035e-17
9.82892e-17
9.83769e-17
9.83625e-17
9.83484e-17
9.83345e-17
9.832e-17
9.83056e-17
9.82905e-17
9.83835e-17
9.83687e-17
9.83539e-17
9.8339e-17
9.83234e-17
9.8308e-17
9.82921e-17
9.83891e-17
9.83737e-17
9.83586e-17
9.83428e-17
9.83263e-17
9.83099e-17
9.82933e-17
9.83945e-17
9.83771e-17
9.83619e-17
9.83461e-17
9.83297e-17
9.83126e-17
9.82947e-17
9.83342e-17
9.83278e-17
9.83188e-17
9.83077e-17
9.82945e-17
9.82796e-17
9.82629e-17
9.82447e-17
9.82251e-17
9.82039e-17
9.8182e-17
9.81576e-17
9.81348e-17
9.8107e-17
9.83198e-17
9.83149e-17
9.83056e-17
9.82947e-17
9.82816e-17
9.82671e-17
9.82506e-17
9.82325e-17
9.8213e-17
9.81921e-17
9.81706e-17
9.81475e-17
9.8125e-17
9.81004e-17
9.83079e-17
9.83028e-17
9.82924e-17
9.82813e-17
9.82682e-17
9.82541e-17
9.82382e-17
9.82209e-17
9.82022e-17
9.81821e-17
9.81614e-17
9.81394e-17
9.81179e-17
9.80946e-17
9.82968e-17
9.82904e-17
9.82798e-17
9.82687e-17
9.82557e-17
9.82418e-17
9.82262e-17
9.82093e-17
9.8191e-17
9.81715e-17
9.81514e-17
9.81302e-17
9.81094e-17
9.80876e-17
9.82866e-17
9.8279e-17
9.82681e-17
9.82569e-17
9.82439e-17
9.823e-17
9.82147e-17
9.81981e-17
9.81803e-17
9.81613e-17
9.81416e-17
9.81209e-17
9.81004e-17
9.8079e-17
9.82771e-17
9.82683e-17
9.82571e-17
9.82455e-17
9.82324e-17
9.82183e-17
9.8203e-17
9.81864e-17
9.81688e-17
9.815e-17
9.81307e-17
9.81104e-17
9.809e-17
9.8069e-17
9.82687e-17
9.82587e-17
9.82471e-17
9.82349e-17
9.82214e-17
9.8207e-17
9.81914e-17
9.81748e-17
9.81571e-17
9.81385e-17
9.81192e-17
9.80992e-17
9.80788e-17
9.80579e-17
9.82607e-17
9.82493e-17
9.82371e-17
9.82242e-17
9.82101e-17
9.81952e-17
9.81793e-17
9.81624e-17
9.81445e-17
9.81258e-17
9.81063e-17
9.80862e-17
9.80655e-17
9.80448e-17
9.82538e-17
9.82412e-17
9.8228e-17
9.82142e-17
9.81993e-17
9.81837e-17
9.81671e-17
9.81497e-17
9.81312e-17
9.81121e-17
9.8092e-17
9.80717e-17
9.80504e-17
9.80302e-17
9.82461e-17
9.82321e-17
9.8218e-17
9.82032e-17
9.81875e-17
9.81712e-17
9.8154e-17
9.81361e-17
9.8117e-17
9.80975e-17
9.80767e-17
9.80561e-17
9.80337e-17
9.80137e-17
9.82397e-17
9.82241e-17
9.82089e-17
9.81929e-17
9.81762e-17
9.81589e-17
9.81407e-17
9.81218e-17
9.81016e-17
9.80812e-17
9.80595e-17
9.80383e-17
9.80148e-17
9.79952e-17
9.82311e-17
9.82142e-17
9.8198e-17
9.8181e-17
9.81633e-17
9.81452e-17
9.81261e-17
9.81065e-17
9.80857e-17
9.80646e-17
9.80421e-17
9.80201e-17
9.79953e-17
9.79751e-17
9.82219e-17
9.82042e-17
9.81874e-17
9.81695e-17
9.81507e-17
9.81314e-17
9.81111e-17
9.809e-17
9.80678e-17
9.80453e-17
9.80215e-17
9.79983e-17
9.79721e-17
9.79507e-17
9.821e-17
9.81918e-17
9.81742e-17
9.81554e-17
9.81357e-17
9.81155e-17
9.80944e-17
9.80729e-17
9.80503e-17
9.80274e-17
9.80031e-17
9.7979e-17
9.79524e-17
9.79273e-17
9.82496e-17
9.82425e-17
9.82324e-17
9.82214e-17
9.82086e-17
9.81943e-17
9.81782e-17
9.81605e-17
9.81408e-17
9.81195e-17
9.80968e-17
9.80717e-17
9.80466e-17
9.80171e-17
9.82305e-17
9.82236e-17
9.82131e-17
9.82018e-17
9.81886e-17
9.81741e-17
9.81575e-17
9.81392e-17
9.8119e-17
9.80972e-17
9.8074e-17
9.8049e-17
9.80239e-17
9.7997e-17
9.8212e-17
9.8205e-17
9.81932e-17
9.81814e-17
9.81677e-17
9.81531e-17
9.81366e-17
9.81186e-17
9.80986e-17
9.80771e-17
9.80543e-17
9.80299e-17
9.80055e-17
9.79796e-17
9.81937e-17
9.81855e-17
9.81733e-17
9.81611e-17
9.81471e-17
9.81322e-17
9.81154e-17
9.80971e-17
9.80771e-17
9.80555e-17
9.80328e-17
9.80088e-17
9.79849e-17
9.79597e-17
9.81753e-17
9.81658e-17
9.81532e-17
9.81405e-17
9.81262e-17
9.81109e-17
9.8094e-17
9.80756e-17
9.80557e-17
9.80343e-17
9.8012e-17
9.79883e-17
9.79648e-17
9.794e-17
9.81566e-17
9.81457e-17
9.81328e-17
9.81195e-17
9.81047e-17
9.8089e-17
9.80717e-17
9.80531e-17
9.80331e-17
9.80118e-17
9.79896e-17
9.79663e-17
9.79429e-17
9.79186e-17
9.81382e-17
9.81259e-17
9.81124e-17
9.80983e-17
9.8083e-17
9.80666e-17
9.8049e-17
9.80301e-17
9.801e-17
9.79888e-17
9.79668e-17
9.79439e-17
9.79208e-17
9.78971e-17
9.81183e-17
9.81048e-17
9.80907e-17
9.80758e-17
9.80599e-17
9.8043e-17
9.8025e-17
9.80059e-17
9.79856e-17
9.79644e-17
9.79422e-17
9.79197e-17
9.78965e-17
9.78737e-17
9.8099e-17
9.80842e-17
9.80693e-17
9.80534e-17
9.80367e-17
9.8019e-17
9.80004e-17
9.79808e-17
9.79601e-17
9.79388e-17
9.79165e-17
9.78942e-17
9.78711e-17
9.78495e-17
9.80778e-17
9.80615e-17
9.80459e-17
9.8029e-17
9.80116e-17
9.79933e-17
9.79743e-17
9.79544e-17
9.79335e-17
9.7912e-17
9.78895e-17
9.78674e-17
9.78439e-17
9.78234e-17
9.80573e-17
9.80395e-17
9.8023e-17
9.8005e-17
9.79867e-17
9.79675e-17
9.79476e-17
9.79269e-17
9.79053e-17
9.78834e-17
9.78605e-17
9.78385e-17
9.78149e-17
9.7796e-17
9.80336e-17
9.80146e-17
9.79973e-17
9.79785e-17
9.79594e-17
9.79396e-17
9.79192e-17
9.78983e-17
9.78764e-17
9.78543e-17
9.78313e-17
9.78092e-17
9.77852e-17
9.77669e-17
9.80111e-17
9.79909e-17
9.79726e-17
9.79529e-17
9.79327e-17
9.79119e-17
9.78903e-17
9.78681e-17
9.78452e-17
9.78222e-17
9.77986e-17
9.77761e-17
9.77519e-17
9.77342e-17
9.79823e-17
9.79622e-17
9.79432e-17
9.79232e-17
9.79024e-17
9.78814e-17
9.78596e-17
9.78375e-17
9.78148e-17
9.7792e-17
9.77686e-17
9.77458e-17
9.77217e-17
9.77014e-17
9.80944e-17
9.80849e-17
9.80728e-17
9.80613e-17
9.80489e-17
9.80362e-17
9.80223e-17
9.80074e-17
9.79912e-17
9.7974e-17
9.79552e-17
9.79352e-17
9.79142e-17
9.78904e-17
9.80703e-17
9.80614e-17
9.80487e-17
9.80366e-17
9.80235e-17
9.80098e-17
9.79948e-17
9.79788e-17
9.79615e-17
9.79432e-17
9.79235e-17
9.79026e-17
9.78812e-17
9.78579e-17
9.80463e-17
9.80368e-17
9.8023e-17
9.80102e-17
9.79963e-17
9.79822e-17
9.79668e-17
9.79505e-17
9.79331e-17
9.79145e-17
9.78948e-17
9.78739e-17
9.78529e-17
9.78305e-17
9.80219e-17
9.80114e-17
9.79971e-17
9.79837e-17
9.79692e-17
9.79544e-17
9.79384e-17
9.79214e-17
9.79033e-17
9.78842e-17
9.78642e-17
9.7843e-17
9.7822e-17
9.77999e-17
9.79967e-17
9.79849e-17
9.79702e-17
9.79562e-17
9.79411e-17
9.79257e-17
9.79092e-17
9.78919e-17
9.78736e-17
9.78544e-17
9.78344e-17
9.78134e-17
9.77925e-17
9.77708e-17
9.79705e-17
9.79573e-17
9.79424e-17
9.79278e-17
9.79122e-17
9.78962e-17
9.78792e-17
9.78615e-17
9.78429e-17
9.78235e-17
9.78035e-17
9.77827e-17
9.77619e-17
9.77407e-17
9.79436e-17
9.79292e-17
9.79138e-17
9.78984e-17
9.78823e-17
9.78657e-17
9.78484e-17
9.78304e-17
9.78116e-17
9.77922e-17
9.77724e-17
9.77521e-17
9.77319e-17
9.77115e-17
9.79146e-17
9.7899e-17
9.78835e-17
9.78675e-17
9.78511e-17
9.7834e-17
9.78164e-17
9.77982e-17
9.77793e-17
9.776e-17
9.77402e-17
9.77204e-17
9.77005e-17
9.76813e-17
9.78852e-17
9.78686e-17
9.78527e-17
9.7836e-17
9.78191e-17
9.78015e-17
9.77836e-17
9.77652e-17
9.77462e-17
9.7727e-17
9.77075e-17
9.76884e-17
9.76692e-17
9.76515e-17
9.78536e-17
9.7836e-17
9.78199e-17
9.78026e-17
9.77855e-17
9.77676e-17
9.77496e-17
9.77311e-17
9.77122e-17
9.76932e-17
9.76739e-17
9.76555e-17
9.76367e-17
9.76207e-17
9.78226e-17
9.78039e-17
9.77874e-17
9.77694e-17
9.77518e-17
9.77334e-17
9.7715e-17
9.76962e-17
9.76773e-17
9.76585e-17
9.76395e-17
9.7622e-17
9.7604e-17
9.75901e-17
9.77887e-17
9.77691e-17
9.77524e-17
9.77341e-17
9.77161e-17
9.76976e-17
9.76792e-17
9.76606e-17
9.76419e-17
9.76235e-17
9.7605e-17
9.7588e-17
9.75705e-17
9.75584e-17
9.77568e-17
9.77364e-17
9.77189e-17
9.77001e-17
9.76814e-17
9.76624e-17
9.76432e-17
9.76242e-17
9.76053e-17
9.7587e-17
9.75688e-17
9.75523e-17
9.75357e-17
9.75253e-17
9.77171e-17
9.76986e-17
9.76806e-17
9.76623e-17
9.76437e-17
9.7625e-17
9.76063e-17
9.75877e-17
9.75695e-17
9.75518e-17
9.75343e-17
9.75182e-17
9.75021e-17
9.7491e-17
9.78716e-17
9.78599e-17
9.78466e-17
9.78352e-17
9.78243e-17
9.7814e-17
9.78039e-17
9.77938e-17
9.77836e-17
9.7773e-17
9.77616e-17
9.77504e-17
9.77381e-17
9.77265e-17
9.78427e-17
9.78328e-17
9.7819e-17
9.7807e-17
9.7795e-17
9.77837e-17
9.77723e-17
9.77611e-17
9.77497e-17
9.77379e-17
9.77257e-17
9.77134e-17
9.77005e-17
9.76866e-17
9.78142e-17
9.78036e-17
9.77891e-17
9.77766e-17
9.77641e-17
9.77522e-17
9.77403e-17
9.77285e-17
9.77166e-17
9.77044e-17
9.7692e-17
9.76793e-17
9.76668e-17
9.76525e-17
9.77851e-17
9.77738e-17
9.77591e-17
9.77462e-17
9.7733e-17
9.77205e-17
9.77079e-17
9.76954e-17
9.76829e-17
9.76702e-17
9.76573e-17
9.76443e-17
9.76317e-17
9.76171e-17
9.77555e-17
9.7743e-17
9.77281e-17
9.77147e-17
9.77011e-17
9.7688e-17
9.7675e-17
9.76621e-17
9.76493e-17
9.76364e-17
9.76234e-17
9.76104e-17
9.75978e-17
9.75839e-17
9.77245e-17
9.7711e-17
9.76962e-17
9.76824e-17
9.76684e-17
9.7655e-17
9.76416e-17
9.76285e-17
9.76154e-17
9.76024e-17
9.75894e-17
9.75764e-17
9.75637e-17
9.75504e-17
9.76929e-17
9.76784e-17
9.76636e-17
9.76493e-17
9.76351e-17
9.76213e-17
9.76078e-17
9.75945e-17
9.75814e-17
9.75684e-17
9.75556e-17
9.75431e-17
9.75309e-17
9.75186e-17
9.76595e-17
9.76443e-17
9.76298e-17
9.76152e-17
9.7601e-17
9.75871e-17
9.75735e-17
9.75603e-17
9.75472e-17
9.75344e-17
9.75218e-17
9.75098e-17
9.7498e-17
9.74869e-17
9.76258e-17
9.761e-17
9.75956e-17
9.75808e-17
9.75666e-17
9.75526e-17
9.75391e-17
9.75258e-17
9.7513e-17
9.75005e-17
9.74885e-17
9.74771e-17
9.74661e-17
9.74566e-17
9.75906e-17
9.75744e-17
9.75603e-17
9.75455e-17
9.75315e-17
9.75176e-17
9.75043e-17
9.74913e-17
9.74787e-17
9.74666e-17
9.74553e-17
9.74445e-17
9.7434e-17
9.74263e-17
9.75563e-17
9.75394e-17
9.75256e-17
9.75107e-17
9.74968e-17
9.74829e-17
9.74697e-17
9.74569e-17
9.74446e-17
9.74331e-17
9.74225e-17
9.74128e-17
9.74033e-17
9.73976e-17
9.75202e-17
9.7503e-17
9.74896e-17
9.7475e-17
9.74613e-17
9.74478e-17
9.7435e-17
9.74227e-17
9.74109e-17
9.73998e-17
9.73897e-17
9.73811e-17
9.73724e-17
9.73689e-17
9.74862e-17
9.74695e-17
9.74556e-17
9.7441e-17
9.7427e-17
9.74136e-17
9.74009e-17
9.73887e-17
9.73773e-17
9.73668e-17
9.73573e-17
9.73495e-17
9.73424e-17
9.73417e-17
9.74462e-17
9.74321e-17
9.74182e-17
9.74046e-17
9.73913e-17
9.73787e-17
9.73667e-17
9.73554e-17
9.73448e-17
9.7335e-17
9.73261e-17
9.73186e-17
9.73125e-17
9.73125e-17
9.75971e-17
9.75862e-17
9.75747e-17
9.7566e-17
9.75583e-17
9.7552e-17
9.75466e-17
9.7542e-17
9.75382e-17
9.75352e-17
9.75328e-17
9.75307e-17
9.75289e-17
9.75272e-17
9.75661e-17
9.75578e-17
9.75463e-17
9.7537e-17
9.75286e-17
9.75217e-17
9.75157e-17
9.75105e-17
9.75061e-17
9.75023e-17
9.7499e-17
9.74955e-17
9.74937e-17
9.74887e-17
9.75362e-17
9.75279e-17
9.7516e-17
9.75066e-17
9.74979e-17
9.74907e-17
9.74843e-17
9.74787e-17
9.74739e-17
9.74697e-17
9.74659e-17
9.74621e-17
9.74606e-17
9.74552e-17
9.75061e-17
9.74973e-17
9.74856e-17
9.74759e-17
9.74671e-17
9.74596e-17
9.74529e-17
9.74471e-17
9.74419e-17
9.74374e-17
9.74333e-17
9.74293e-17
9.7427e-17
9.74215e-17
9.74763e-17
9.74666e-17
9.74549e-17
9.74451e-17
9.7436e-17
9.74283e-17
9.74213e-17
9.74153e-17
9.741e-17
9.74054e-17
9.74014e-17
9.73975e-17
9.73948e-17
9.73901e-17
9.74455e-17
9.74352e-17
9.74239e-17
9.7414e-17
9.74049e-17
9.7397e-17
9.73899e-17
9.73838e-17
9.73786e-17
9.73741e-17
9.73701e-17
9.73664e-17
9.73633e-17
9.73594e-17
9.74149e-17
9.74039e-17
9.73929e-17
9.7383e-17
9.73739e-17
9.73659e-17
9.73588e-17
9.73527e-17
9.73476e-17
9.73433e-17
9.73397e-17
9.73364e-17
9.73334e-17
9.73304e-17
9.73838e-17
9.73722e-17
9.73617e-17
9.73519e-17
9.7343e-17
9.73351e-17
9.73282e-17
9.73222e-17
9.73173e-17
9.73133e-17
9.73099e-17
9.73071e-17
9.73043e-17
9.73024e-17
9.73529e-17
9.73409e-17
9.73308e-17
9.73212e-17
9.73126e-17
9.73049e-17
9.72983e-17
9.72926e-17
9.7288e-17
9.72843e-17
9.72813e-17
9.7279e-17
9.72766e-17
9.72763e-17
9.73217e-17
9.73096e-17
9.73001e-17
9.72909e-17
9.72828e-17
9.72754e-17
9.72691e-17
9.72637e-17
9.72594e-17
9.72561e-17
9.72536e-17
9.72518e-17
9.72499e-17
9.72508e-17
9.72917e-17
9.72793e-17
9.72705e-17
9.72616e-17
9.72539e-17
9.72469e-17
9.72409e-17
9.7236e-17
9.72321e-17
9.72293e-17
9.72274e-17
9.72264e-17
9.72253e-17
9.72274e-17
9.72612e-17
9.72491e-17
9.7241e-17
9.72327e-17
9.72255e-17
9.7219e-17
9.72136e-17
9.72091e-17
9.72057e-17
9.72034e-17
9.72021e-17
9.72019e-17
9.72013e-17
9.72041e-17
9.72324e-17
9.72214e-17
9.72134e-17
9.72055e-17
9.71985e-17
9.71922e-17
9.71872e-17
9.71831e-17
9.71803e-17
9.71787e-17
9.71781e-17
9.71787e-17
9.71795e-17
9.71831e-17
9.72005e-17
9.7192e-17
9.71843e-17
9.71774e-17
9.71712e-17
9.71657e-17
9.71615e-17
9.71582e-17
9.71561e-17
9.7155e-17
9.71549e-17
9.71558e-17
9.71573e-17
9.71605e-17
9.72892e-17
9.72838e-17
9.72778e-17
9.72741e-17
9.72714e-17
9.727e-17
9.72698e-17
9.72706e-17
9.72726e-17
9.72759e-17
9.72801e-17
9.72852e-17
9.72924e-17
9.72987e-17
9.72603e-17
9.72579e-17
9.72527e-17
9.72492e-17
9.72463e-17
9.72448e-17
9.72445e-17
9.72454e-17
9.72474e-17
9.72506e-17
9.72546e-17
9.72589e-17
9.72652e-17
9.72687e-17
9.72351e-17
9.72326e-17
9.72273e-17
9.72239e-17
9.72209e-17
9.72193e-17
9.72189e-17
9.72197e-17
9.72217e-17
9.72247e-17
9.72286e-17
9.72325e-17
9.72388e-17
9.72418e-17
9.72096e-17
9.72065e-17
9.72018e-17
9.71983e-17
9.71955e-17
9.71941e-17
9.71937e-17
9.71946e-17
9.71966e-17
9.71996e-17
9.72033e-17
9.72072e-17
9.72128e-17
9.72154e-17
9.71852e-17
9.71815e-17
9.71767e-17
9.71732e-17
9.71703e-17
9.7169e-17
9.71688e-17
9.71697e-17
9.71717e-17
9.71747e-17
9.71786e-17
9.71826e-17
9.71879e-17
9.71912e-17
9.7161e-17
9.71566e-17
9.7152e-17
9.71485e-17
9.71459e-17
9.71448e-17
9.71446e-17
9.71456e-17
9.71477e-17
9.71507e-17
9.71546e-17
9.71588e-17
9.71637e-17
9.71678e-17
9.71374e-17
9.71325e-17
9.7128e-17
9.71246e-17
9.71222e-17
9.71211e-17
9.71211e-17
9.71222e-17
9.71245e-17
9.71277e-17
9.71316e-17
9.71362e-17
9.7141e-17
9.71458e-17
9.71139e-17
9.71088e-17
9.71047e-17
9.71015e-17
9.70994e-17
9.70985e-17
9.70986e-17
9.70998e-17
9.71022e-17
9.71056e-17
9.71097e-17
9.71145e-17
9.71192e-17
9.71247e-17
9.70913e-17
9.7086e-17
9.70823e-17
9.70793e-17
9.70775e-17
9.70768e-17
9.70771e-17
9.70786e-17
9.70812e-17
9.70848e-17
9.70891e-17
9.70941e-17
9.7099e-17
9.71052e-17
9.70691e-17
9.70639e-17
9.70607e-17
9.70581e-17
9.70567e-17
9.70562e-17
9.70568e-17
9.70586e-17
9.70615e-17
9.70652e-17
9.70697e-17
9.70749e-17
9.70799e-17
9.70865e-17
9.70479e-17
9.70428e-17
9.704e-17
9.7038e-17
9.7037e-17
9.70369e-17
9.7038e-17
9.70401e-17
9.70432e-17
9.70472e-17
9.70519e-17
9.70574e-17
9.70627e-17
9.70697e-17
9.70277e-17
9.70221e-17
9.702e-17
9.70187e-17
9.70183e-17
9.70187e-17
9.70202e-17
9.70227e-17
9.70261e-17
9.70304e-17
9.70353e-17
9.70409e-17
9.70464e-17
9.70538e-17
9.70084e-17
9.70031e-17
9.70015e-17
9.70006e-17
9.70006e-17
9.70016e-17
9.70036e-17
9.70066e-17
9.70105e-17
9.70151e-17
9.70203e-17
9.70265e-17
9.70326e-17
9.70404e-17
9.69881e-17
9.69842e-17
9.69831e-17
9.69828e-17
9.69835e-17
9.69851e-17
9.69878e-17
9.69912e-17
9.69955e-17
9.70005e-17
9.70061e-17
9.70125e-17
9.70188e-17
9.70267e-17
9.69606e-17
9.69627e-17
9.6964e-17
9.69668e-17
9.697e-17
9.6974e-17
9.69787e-17
9.69842e-17
9.69906e-17
9.69979e-17
9.70059e-17
9.70153e-17
9.70258e-17
9.70373e-17
9.69432e-17
9.69456e-17
9.69473e-17
9.69505e-17
9.69541e-17
9.69585e-17
9.69635e-17
9.69693e-17
9.6976e-17
9.69836e-17
9.69919e-17
9.70011e-17
9.70107e-17
9.70199e-17
9.69277e-17
9.69299e-17
9.69315e-17
9.69349e-17
9.69383e-17
9.69427e-17
9.69478e-17
9.69539e-17
9.69608e-17
9.69686e-17
9.69769e-17
9.69859e-17
9.69956e-17
9.70044e-17
9.69116e-17
9.69142e-17
9.69161e-17
9.69196e-17
9.69231e-17
9.69275e-17
9.69327e-17
9.69388e-17
9.69459e-17
9.69538e-17
9.69623e-17
9.69713e-17
9.69808e-17
9.69894e-17
9.68966e-17
9.68991e-17
9.69011e-17
9.69044e-17
9.69079e-17
9.69123e-17
9.69176e-17
9.69239e-17
9.69311e-17
9.69392e-17
9.69479e-17
9.6957e-17
9.69665e-17
9.69754e-17
9.68821e-17
9.68845e-17
9.68867e-17
9.68899e-17
9.68935e-17
9.68981e-17
9.69034e-17
9.69097e-17
9.69169e-17
9.69249e-17
9.69336e-17
9.69428e-17
9.69522e-17
9.69614e-17
9.68682e-17
9.68702e-17
9.68725e-17
9.68757e-17
9.68796e-17
9.68843e-17
9.68899e-17
9.68963e-17
9.69035e-17
9.69114e-17
9.69201e-17
9.69292e-17
9.69386e-17
9.69481e-17
9.68547e-17
9.68566e-17
9.68593e-17
9.68626e-17
9.68667e-17
9.68716e-17
9.68773e-17
9.68837e-17
9.68909e-17
9.68988e-17
9.69073e-17
9.69164e-17
9.69255e-17
9.69351e-17
9.68421e-17
9.6844e-17
9.68471e-17
9.68505e-17
9.68548e-17
9.68599e-17
9.68657e-17
9.68722e-17
9.68795e-17
9.68873e-17
9.68957e-17
9.69046e-17
9.69136e-17
9.69232e-17
9.68302e-17
9.68322e-17
9.68357e-17
9.68394e-17
9.6844e-17
9.68492e-17
9.68551e-17
9.68618e-17
9.6869e-17
9.68769e-17
9.68852e-17
9.68939e-17
9.69026e-17
9.69121e-17
9.6819e-17
9.68212e-17
9.6825e-17
9.68291e-17
9.6834e-17
9.68395e-17
9.68456e-17
9.68524e-17
9.68597e-17
9.68676e-17
9.68758e-17
9.68844e-17
9.68928e-17
9.69022e-17
9.68084e-17
9.68106e-17
9.68148e-17
9.68192e-17
9.68245e-17
9.68304e-17
9.68368e-17
9.68438e-17
9.68513e-17
9.68592e-17
9.68674e-17
9.68759e-17
9.68841e-17
9.68932e-17
9.67982e-17
9.68009e-17
9.68052e-17
9.681e-17
9.68157e-17
9.68221e-17
9.6829e-17
9.68364e-17
9.68441e-17
9.68521e-17
9.68603e-17
9.68689e-17
9.68772e-17
9.68861e-17
9.6789e-17
9.67919e-17
9.67966e-17
9.68018e-17
9.68077e-17
9.68144e-17
9.68214e-17
9.6829e-17
9.68368e-17
9.68448e-17
9.6853e-17
9.68616e-17
9.687e-17
9.68791e-17
9.66183e-17
9.66264e-17
9.66342e-17
9.6642e-17
9.665e-17
9.66579e-17
9.6666e-17
9.66743e-17
9.66831e-17
9.66923e-17
9.67018e-17
9.67118e-17
9.67217e-17
9.67329e-17
9.66128e-17
9.66216e-17
9.66293e-17
9.66374e-17
9.66455e-17
9.66538e-17
9.66623e-17
9.6671e-17
9.668e-17
9.66895e-17
9.66994e-17
9.67098e-17
9.67202e-17
9.6731e-17
9.66087e-17
9.66172e-17
9.66248e-17
9.66328e-17
9.6641e-17
9.66493e-17
9.6658e-17
9.6667e-17
9.66762e-17
9.66858e-17
9.66958e-17
9.67063e-17
9.67171e-17
9.67277e-17
9.66044e-17
9.66126e-17
9.66204e-17
9.66285e-17
9.66368e-17
9.66453e-17
9.66541e-17
9.66631e-17
9.66725e-17
9.66822e-17
9.66922e-17
9.67028e-17
9.67135e-17
9.67241e-17
9.66007e-17
9.66085e-17
9.66162e-17
9.66243e-17
9.66326e-17
9.66412e-17
9.665e-17
9.66591e-17
9.66686e-17
9.66783e-17
9.66884e-17
9.66989e-17
9.67095e-17
9.67202e-17
9.65966e-17
9.66044e-17
9.66123e-17
9.66205e-17
9.66289e-17
9.66375e-17
9.66463e-17
9.66555e-17
9.66649e-17
9.66747e-17
9.66848e-17
9.66952e-17
9.67058e-17
9.67165e-17
9.6593e-17
9.66008e-17
9.66087e-17
9.6617e-17
9.66254e-17
9.6634e-17
9.66429e-17
9.6652e-17
9.66614e-17
9.66711e-17
9.66811e-17
9.66913e-17
9.67017e-17
9.67123e-17
9.65896e-17
9.65974e-17
9.66055e-17
9.66138e-17
9.66223e-17
9.66311e-17
9.66399e-17
9.6649e-17
9.66583e-17
9.66678e-17
9.66777e-17
9.66877e-17
9.66979e-17
9.67083e-17
9.65866e-17
9.65944e-17
9.66026e-17
9.6611e-17
9.66196e-17
9.66284e-17
9.66373e-17
9.66464e-17
9.66556e-17
9.66649e-17
9.66745e-17
9.66843e-17
9.66942e-17
9.67042e-17
9.65839e-17
9.65917e-17
9.66001e-17
9.66086e-17
9.66173e-17
9.66262e-17
9.66351e-17
9.66442e-17
9.66533e-17
9.66624e-17
9.66718e-17
9.66812e-17
9.66908e-17
9.67005e-17
9.65815e-17
9.65892e-17
9.65976e-17
9.66063e-17
9.66151e-17
9.66242e-17
9.66332e-17
9.66423e-17
9.66513e-17
9.66603e-17
9.66695e-17
9.66786e-17
9.66878e-17
9.66972e-17
9.65791e-17
9.65869e-17
9.65954e-17
9.66042e-17
9.66132e-17
9.66225e-17
9.66316e-17
9.66407e-17
9.66497e-17
9.66586e-17
9.66675e-17
9.66764e-17
9.66853e-17
9.66943e-17
9.65773e-17
9.65853e-17
9.65936e-17
9.66026e-17
9.66115e-17
9.6621e-17
9.66303e-17
9.66396e-17
9.66486e-17
9.66576e-17
9.66664e-17
9.66751e-17
9.66835e-17
9.66924e-17
9.65773e-17
9.65852e-17
9.65936e-17
9.66025e-17
9.66111e-17
9.66202e-17
9.66292e-17
9.66385e-17
9.66475e-17
9.66563e-17
9.66648e-17
9.66733e-17
9.66818e-17
9.66907e-17
9.62634e-17
9.62733e-17
9.62838e-17
9.62937e-17
9.63035e-17
9.6313e-17
9.63223e-17
9.63315e-17
9.63404e-17
9.63492e-17
9.63578e-17
9.63663e-17
9.63745e-17
9.63837e-17
9.62674e-17
9.62775e-17
9.62881e-17
9.62983e-17
9.63087e-17
9.63186e-17
9.63284e-17
9.63379e-17
9.63473e-17
9.63563e-17
9.63651e-17
9.63739e-17
9.63823e-17
9.63913e-17
9.62733e-17
9.62832e-17
9.6294e-17
9.63042e-17
9.63147e-17
9.63245e-17
9.63344e-17
9.63438e-17
9.6353e-17
9.63621e-17
9.6371e-17
9.63799e-17
9.63886e-17
9.63976e-17
9.62781e-17
9.62882e-17
9.6299e-17
9.63093e-17
9.63199e-17
9.63299e-17
9.63399e-17
9.63495e-17
9.63589e-17
9.63682e-17
9.63772e-17
9.63863e-17
9.63951e-17
9.64042e-17
9.62832e-17
9.62936e-17
9.63045e-17
9.63148e-17
9.63254e-17
9.63354e-17
9.63453e-17
9.63548e-17
9.63642e-17
9.63733e-17
9.63823e-17
9.63914e-17
9.64003e-17
9.64093e-17
9.62878e-17
9.62985e-17
9.63093e-17
9.63198e-17
9.63304e-17
9.63405e-17
9.63504e-17
9.636e-17
9.63694e-17
9.63785e-17
9.63875e-17
9.63966e-17
9.64055e-17
9.64145e-17
9.62925e-17
9.63033e-17
9.63142e-17
9.63248e-17
9.63353e-17
9.63455e-17
9.63553e-17
9.63648e-17
9.63741e-17
9.63831e-17
9.6392e-17
9.64009e-17
9.64097e-17
9.64185e-17
9.62969e-17
9.63079e-17
9.63187e-17
9.63295e-17
9.63399e-17
9.63501e-17
9.63599e-17
9.63694e-17
9.63786e-17
9.63875e-17
9.63963e-17
9.6405e-17
9.64137e-17
9.64223e-17
9.63013e-17
9.63123e-17
9.63231e-17
9.63339e-17
9.63443e-17
9.63544e-17
9.63642e-17
9.63736e-17
9.63827e-17
9.63915e-17
9.64001e-17
9.64086e-17
9.64171e-17
9.64254e-17
9.63056e-17
9.63166e-17
9.63273e-17
9.63381e-17
9.63484e-17
9.63585e-17
9.63682e-17
9.63776e-17
9.63866e-17
9.63952e-17
9.64037e-17
9.64119e-17
9.64202e-17
9.64282e-17
9.63099e-17
9.63207e-17
9.63313e-17
9.6342e-17
9.63522e-17
9.63624e-17
9.6372e-17
9.63813e-17
9.63901e-17
9.63986e-17
9.64069e-17
9.64149e-17
9.64231e-17
9.64308e-17
9.63143e-17
9.6325e-17
9.63354e-17
9.6346e-17
9.63561e-17
9.63661e-17
9.63756e-17
9.63848e-17
9.63935e-17
9.64019e-17
9.641e-17
9.64178e-17
9.64257e-17
9.64333e-17
9.63186e-17
9.63292e-17
9.63393e-17
9.63499e-17
9.63598e-17
9.63698e-17
9.63791e-17
9.63883e-17
9.63969e-17
9.64052e-17
9.64131e-17
9.64207e-17
9.64283e-17
9.6436e-17
9.63239e-17
9.63347e-17
9.63443e-17
9.63546e-17
9.63641e-17
9.63738e-17
9.63828e-17
9.63916e-17
9.64e-17
9.6408e-17
9.64157e-17
9.64232e-17
9.64309e-17
9.64387e-17
9.59006e-17
9.59087e-17
9.59185e-17
9.59274e-17
9.59365e-17
9.5945e-17
9.59533e-17
9.5961e-17
9.59683e-17
9.59752e-17
9.59815e-17
9.59874e-17
9.59928e-17
9.59995e-17
9.59101e-17
9.59186e-17
9.59285e-17
9.59378e-17
9.59473e-17
9.59562e-17
9.59649e-17
9.59729e-17
9.59805e-17
9.59875e-17
9.5994e-17
9.60001e-17
9.60055e-17
9.6012e-17
9.59209e-17
9.59297e-17
9.594e-17
9.59494e-17
9.5959e-17
9.59679e-17
9.59765e-17
9.59844e-17
9.59919e-17
9.59988e-17
9.60052e-17
9.60114e-17
9.60169e-17
9.60231e-17
9.59308e-17
9.59401e-17
9.59504e-17
9.59601e-17
9.59698e-17
9.59789e-17
9.59876e-17
9.59957e-17
9.60033e-17
9.60103e-17
9.60168e-17
9.6023e-17
9.60288e-17
9.60347e-17
9.59408e-17
9.59506e-17
9.59611e-17
9.59709e-17
9.59807e-17
9.59898e-17
9.59985e-17
9.60065e-17
9.6014e-17
9.60209e-17
9.60274e-17
9.60336e-17
9.60395e-17
9.60452e-17
9.59504e-17
9.59607e-17
9.59712e-17
9.59811e-17
9.59909e-17
9.6e-17
9.60087e-17
9.60168e-17
9.60244e-17
9.60314e-17
9.60379e-17
9.60441e-17
9.605e-17
9.60556e-17
9.59597e-17
9.59704e-17
9.59809e-17
9.59909e-17
9.60007e-17
9.60098e-17
9.60184e-17
9.60265e-17
9.6034e-17
9.6041e-17
9.60475e-17
9.60536e-17
9.60595e-17
9.6065e-17
9.59688e-17
9.59797e-17
9.59901e-17
9.60002e-17
9.60098e-17
9.6019e-17
9.60275e-17
9.60356e-17
9.60431e-17
9.60501e-17
9.60566e-17
9.60627e-17
9.60686e-17
9.6074e-17
9.59775e-17
9.59885e-17
9.59988e-17
9.60089e-17
9.60184e-17
9.60275e-17
9.6036e-17
9.6044e-17
9.60515e-17
9.60584e-17
9.60648e-17
9.60709e-17
9.60768e-17
9.60821e-17
9.59861e-17
9.5997e-17
9.60071e-17
9.60171e-17
9.60265e-17
9.60355e-17
9.60439e-17
9.60518e-17
9.60592e-17
9.6066e-17
9.60725e-17
9.60785e-17
9.60844e-17
9.60897e-17
9.59943e-17
9.6005e-17
9.60149e-17
9.60249e-17
9.60341e-17
9.6043e-17
9.60512e-17
9.6059e-17
9.60663e-17
9.6073e-17
9.60794e-17
9.60853e-17
9.60913e-17
9.60965e-17
9.60025e-17
9.60131e-17
9.60227e-17
9.60325e-17
9.60415e-17
9.60501e-17
9.60582e-17
9.60658e-17
9.60729e-17
9.60795e-17
9.60858e-17
9.60916e-17
9.60976e-17
9.61028e-17
9.60102e-17
9.60206e-17
9.603e-17
9.60396e-17
9.60484e-17
9.60568e-17
9.60647e-17
9.60721e-17
9.60791e-17
9.60856e-17
9.60917e-17
9.60975e-17
9.61032e-17
9.61087e-17
9.60189e-17
9.60292e-17
9.60381e-17
9.60473e-17
9.60556e-17
9.60637e-17
9.60711e-17
9.60782e-17
9.60848e-17
9.6091e-17
9.60969e-17
9.61026e-17
9.61085e-17
9.61143e-17
9.55457e-17
9.55506e-17
9.55572e-17
9.55633e-17
9.55694e-17
9.55752e-17
9.55807e-17
9.55857e-17
9.55903e-17
9.55945e-17
9.55981e-17
9.56014e-17
9.56042e-17
9.56084e-17
9.5556e-17
9.55613e-17
9.55681e-17
9.55745e-17
9.5581e-17
9.5587e-17
9.55927e-17
9.55979e-17
9.56026e-17
9.56068e-17
9.56105e-17
9.56138e-17
9.56164e-17
9.56205e-17
9.55669e-17
9.55726e-17
9.55798e-17
9.55864e-17
9.5593e-17
9.5599e-17
9.56047e-17
9.56099e-17
9.56145e-17
9.56186e-17
9.56223e-17
9.56255e-17
9.56281e-17
9.56317e-17
9.55775e-17
9.55837e-17
9.5591e-17
9.55978e-17
9.56045e-17
9.56107e-17
9.56164e-17
9.56217e-17
9.56264e-17
9.56306e-17
9.56343e-17
9.56375e-17
9.56402e-17
9.56434e-17
9.55879e-17
9.55947e-17
9.56022e-17
9.56091e-17
9.56158e-17
9.56221e-17
9.56279e-17
9.56332e-17
9.56379e-17
9.56421e-17
9.56458e-17
9.5649e-17
9.56517e-17
9.56545e-17
9.55983e-17
9.56056e-17
9.5613e-17
9.562e-17
9.56268e-17
9.56331e-17
9.56389e-17
9.56443e-17
9.5649e-17
9.56533e-17
9.56571e-17
9.56603e-17
9.56631e-17
9.56656e-17
9.56084e-17
9.5616e-17
9.56235e-17
9.56306e-17
9.56374e-17
9.56436e-17
9.56495e-17
9.56548e-17
9.56597e-17
9.5664e-17
9.56677e-17
9.56709e-17
9.56738e-17
9.56762e-17
9.56183e-17
9.56263e-17
9.56336e-17
9.56408e-17
9.56474e-17
9.56537e-17
9.56595e-17
9.56649e-17
9.56698e-17
9.56741e-17
9.56779e-17
9.56811e-17
9.56841e-17
9.56864e-17
9.56279e-17
9.5636e-17
9.56433e-17
9.56504e-17
9.5657e-17
9.56633e-17
9.5669e-17
9.56744e-17
9.56792e-17
9.56835e-17
9.56873e-17
9.56906e-17
9.56937e-17
9.56959e-17
9.56374e-17
9.56455e-17
9.56526e-17
9.56597e-17
9.56662e-17
9.56723e-17
9.5678e-17
9.56833e-17
9.5688e-17
9.56923e-17
9.56961e-17
9.56996e-17
9.57027e-17
9.5705e-17
9.56464e-17
9.56545e-17
9.56615e-17
9.56685e-17
9.56748e-17
9.56809e-17
9.56864e-17
9.56916e-17
9.56963e-17
9.57005e-17
9.57043e-17
9.57078e-17
9.57109e-17
9.57133e-17
9.56556e-17
9.56635e-17
9.56702e-17
9.5677e-17
9.56832e-17
9.5689e-17
9.56944e-17
9.56994e-17
9.57039e-17
9.57081e-17
9.57119e-17
9.57154e-17
9.57186e-17
9.57211e-17
9.5664e-17
9.56717e-17
9.56783e-17
9.56849e-17
9.56909e-17
9.56966e-17
9.57018e-17
9.57066e-17
9.5711e-17
9.57151e-17
9.57188e-17
9.57223e-17
9.57255e-17
9.57283e-17
9.56733e-17
9.56806e-17
9.56869e-17
9.56931e-17
9.56987e-17
9.5704e-17
9.57088e-17
9.57133e-17
9.57175e-17
9.57214e-17
9.5725e-17
9.57284e-17
9.57319e-17
9.57355e-17
9.52123e-17
9.52143e-17
9.52173e-17
9.52202e-17
9.52229e-17
9.52255e-17
9.52279e-17
9.52301e-17
9.52319e-17
9.52336e-17
9.52348e-17
9.52359e-17
9.52367e-17
9.52385e-17
9.52204e-17
9.52226e-17
9.52258e-17
9.52288e-17
9.52316e-17
9.52343e-17
9.52368e-17
9.5239e-17
9.52409e-17
9.52425e-17
9.52438e-17
9.52448e-17
9.52454e-17
9.52471e-17
9.52285e-17
9.52309e-17
9.52344e-17
9.52375e-17
9.52405e-17
9.52432e-17
9.52456e-17
9.52478e-17
9.52497e-17
9.52513e-17
9.52525e-17
9.52534e-17
9.52539e-17
9.52554e-17
9.52367e-17
9.52394e-17
9.5243e-17
9.52462e-17
9.52492e-17
9.52519e-17
9.52544e-17
9.52566e-17
9.52585e-17
9.52601e-17
9.52614e-17
9.52622e-17
9.52628e-17
9.52639e-17
9.52447e-17
9.52478e-17
9.52515e-17
9.52547e-17
9.52578e-17
9.52606e-17
9.52631e-17
9.52653e-17
9.52672e-17
9.52688e-17
9.52701e-17
9.52709e-17
9.52715e-17
9.52722e-17
9.52528e-17
9.52562e-17
9.52598e-17
9.52631e-17
9.52662e-17
9.5269e-17
9.52716e-17
9.52739e-17
9.52758e-17
9.52774e-17
9.52786e-17
9.52795e-17
9.52801e-17
9.52805e-17
9.52606e-17
9.52643e-17
9.5268e-17
9.52714e-17
9.52745e-17
9.52773e-17
9.52799e-17
9.52822e-17
9.52841e-17
9.52857e-17
9.5287e-17
9.52879e-17
9.52885e-17
9.52887e-17
9.52685e-17
9.52724e-17
9.5276e-17
9.52794e-17
9.52825e-17
9.52853e-17
9.52879e-17
9.52902e-17
9.52922e-17
9.52938e-17
9.52951e-17
9.5296e-17
9.52966e-17
9.52967e-17
9.52761e-17
9.52803e-17
9.52838e-17
9.52872e-17
9.52903e-17
9.52931e-17
9.52957e-17
9.5298e-17
9.52999e-17
9.53015e-17
9.53029e-17
9.53038e-17
9.53046e-17
9.53045e-17
9.52836e-17
9.5288e-17
9.52913e-17
9.52947e-17
9.52977e-17
9.53006e-17
9.53031e-17
9.53053e-17
9.53072e-17
9.53089e-17
9.53102e-17
9.53113e-17
9.53121e-17
9.5312e-17
9.52909e-17
9.52953e-17
9.52986e-17
9.5302e-17
9.53049e-17
9.53077e-17
9.53101e-17
9.53123e-17
9.53142e-17
9.53158e-17
9.53172e-17
9.53183e-17
9.53192e-17
9.53189e-17
9.52982e-17
9.53025e-17
9.53056e-17
9.53089e-17
9.53117e-17
9.53144e-17
9.53168e-17
9.53189e-17
9.53207e-17
9.53223e-17
9.53237e-17
9.53248e-17
9.53257e-17
9.53256e-17
9.53049e-17
9.53091e-17
9.53122e-17
9.53153e-17
9.53181e-17
9.53207e-17
9.53229e-17
9.53249e-17
9.53267e-17
9.53283e-17
9.53297e-17
9.53308e-17
9.53316e-17
9.53317e-17
9.53122e-17
9.5316e-17
9.53188e-17
9.53216e-17
9.53242e-17
9.53265e-17