/*--------------------------------*- C++ -*----------------------------------*\
| =========                 |                                                 |
| \\      /  F ield         | OpenFOAM: The Open Source CFD Toolbox           |
|  \\    /   O peration     | Version:  v2106                                 |
|   \\  /    A nd           | Website:  www.openfoam.com                      |
|    \\/     M anipulation  |                                                 |
\*---------------------------------------------------------------------------*/
FoamFile
{
    version     2.0;
    format      ascii;
    arch        "LSB;label=32;scalar=64";
    class       volScalarField;
    location    "0.000173";
    object      nut;
}
// * * * * * * * * * * * * * * * * * * * * * * * * * * * * * * * * * * * * * //

dimensions      [0 2 -1 0 0 0 0];

internalField   nonuniform List<scalar> 
17924
(
3.63257e-17
3.63241e-17
3.63233e-17
3.63221e-17
3.63244e-17
3.6324e-17
3.63234e-17
3.63222e-17
3.63208e-17
3.63193e-17
3.63176e-17
3.63245e-17
3.63239e-17
3.63231e-17
3.63219e-17
3.63205e-17
3.6319e-17
3.63174e-17
3.63247e-17
3.63238e-17
3.63227e-17
3.63215e-17
3.63201e-17
3.63187e-17
3.63172e-17
3.63251e-17
3.63237e-17
3.63225e-17
3.63212e-17
3.63199e-17
3.63186e-17
3.63172e-17
3.63254e-17
3.63236e-17
3.63223e-17
3.63211e-17
3.63199e-17
3.63186e-17
3.63173e-17
3.63256e-17
3.63237e-17
3.63224e-17
3.63212e-17
3.632e-17
3.63187e-17
3.63174e-17
3.63259e-17
3.63239e-17
3.63226e-17
3.63215e-17
3.63202e-17
3.63189e-17
3.63176e-17
3.63263e-17
3.63243e-17
3.6323e-17
3.63218e-17
3.63205e-17
3.63192e-17
3.63178e-17
3.63268e-17
3.63249e-17
3.63235e-17
3.63223e-17
3.63209e-17
3.63195e-17
3.63181e-17
3.63275e-17
3.63256e-17
3.63241e-17
3.63228e-17
3.63213e-17
3.63198e-17
3.63183e-17
3.63282e-17
3.63263e-17
3.63248e-17
3.63233e-17
3.63217e-17
3.63202e-17
3.63186e-17
3.63289e-17
3.6327e-17
3.63255e-17
3.63239e-17
3.63222e-17
3.63206e-17
3.63189e-17
3.63291e-17
3.63275e-17
3.6326e-17
3.63244e-17
3.63226e-17
3.63209e-17
3.63192e-17
3.63294e-17
3.63278e-17
3.63264e-17
3.63249e-17
3.63233e-17
3.63215e-17
3.63197e-17
3.63219e-17
3.63215e-17
3.63208e-17
3.63197e-17
3.63183e-17
3.63167e-17
3.6315e-17
3.63131e-17
3.63111e-17
3.63089e-17
3.63067e-17
3.63042e-17
3.63017e-17
3.62986e-17
3.63209e-17
3.63206e-17
3.63197e-17
3.63185e-17
3.63171e-17
3.63155e-17
3.63138e-17
3.63119e-17
3.631e-17
3.63078e-17
3.63057e-17
3.63033e-17
3.6301e-17
3.62984e-17
3.63201e-17
3.63195e-17
3.63184e-17
3.63172e-17
3.63158e-17
3.63143e-17
3.63127e-17
3.63109e-17
3.6309e-17
3.6307e-17
3.63049e-17
3.63027e-17
3.63005e-17
3.62981e-17
3.63192e-17
3.63184e-17
3.63172e-17
3.6316e-17
3.63146e-17
3.63131e-17
3.63115e-17
3.63098e-17
3.63079e-17
3.6306e-17
3.63039e-17
3.63018e-17
3.62997e-17
3.62975e-17
3.63181e-17
3.63172e-17
3.63161e-17
3.63149e-17
3.63135e-17
3.6312e-17
3.63105e-17
3.63088e-17
3.63069e-17
3.6305e-17
3.6303e-17
3.63009e-17
3.62988e-17
3.62966e-17
3.63172e-17
3.63162e-17
3.6315e-17
3.63138e-17
3.63124e-17
3.6311e-17
3.63094e-17
3.63077e-17
3.63059e-17
3.63039e-17
3.6302e-17
3.62999e-17
3.62978e-17
3.62956e-17
3.63164e-17
3.63153e-17
3.63141e-17
3.63128e-17
3.63114e-17
3.63099e-17
3.63083e-17
3.63066e-17
3.63048e-17
3.63029e-17
3.63009e-17
3.62988e-17
3.62967e-17
3.62945e-17
3.63157e-17
3.63145e-17
3.63132e-17
3.63119e-17
3.63104e-17
3.63088e-17
3.63072e-17
3.63054e-17
3.63036e-17
3.63017e-17
3.62996e-17
3.62976e-17
3.62954e-17
3.62933e-17
3.63151e-17
3.63138e-17
3.63124e-17
3.6311e-17
3.63094e-17
3.63078e-17
3.6306e-17
3.63042e-17
3.63023e-17
3.63003e-17
3.62983e-17
3.62962e-17
3.6294e-17
3.62919e-17
3.63145e-17
3.6313e-17
3.63115e-17
3.631e-17
3.63083e-17
3.63066e-17
3.63048e-17
3.6303e-17
3.6301e-17
3.6299e-17
3.62968e-17
3.62947e-17
3.62924e-17
3.62904e-17
3.6314e-17
3.63123e-17
3.63107e-17
3.6309e-17
3.63073e-17
3.63055e-17
3.63035e-17
3.63016e-17
3.62995e-17
3.62974e-17
3.62952e-17
3.6293e-17
3.62906e-17
3.62886e-17
3.63131e-17
3.63114e-17
3.63097e-17
3.63079e-17
3.63061e-17
3.63041e-17
3.63022e-17
3.63001e-17
3.6298e-17
3.62958e-17
3.62935e-17
3.62913e-17
3.62888e-17
3.62867e-17
3.6312e-17
3.63103e-17
3.63086e-17
3.63068e-17
3.63048e-17
3.63028e-17
3.63007e-17
3.62985e-17
3.62962e-17
3.62939e-17
3.62915e-17
3.62891e-17
3.62864e-17
3.6284e-17
3.63105e-17
3.6309e-17
3.63073e-17
3.63054e-17
3.63034e-17
3.63013e-17
3.62991e-17
3.62969e-17
3.62946e-17
3.62922e-17
3.62897e-17
3.62872e-17
3.62842e-17
3.62816e-17
3.63138e-17
3.63134e-17
3.63125e-17
3.63113e-17
3.631e-17
3.63085e-17
3.63068e-17
3.6305e-17
3.6303e-17
3.63008e-17
3.62985e-17
3.62959e-17
3.62932e-17
3.62899e-17
3.63123e-17
3.63117e-17
3.63107e-17
3.63094e-17
3.6308e-17
3.63065e-17
3.63048e-17
3.63029e-17
3.63008e-17
3.62986e-17
3.62963e-17
3.62937e-17
3.62911e-17
3.62883e-17
3.63107e-17
3.63099e-17
3.63087e-17
3.63074e-17
3.63059e-17
3.63044e-17
3.63027e-17
3.63009e-17
3.62989e-17
3.62967e-17
3.62944e-17
3.62919e-17
3.62894e-17
3.62868e-17
3.6309e-17
3.6308e-17
3.63067e-17
3.63054e-17
3.63039e-17
3.63024e-17
3.63006e-17
3.62988e-17
3.62967e-17
3.62945e-17
3.62922e-17
3.62898e-17
3.62874e-17
3.62849e-17
3.6307e-17
3.6306e-17
3.63047e-17
3.63033e-17
3.63019e-17
3.63003e-17
3.62985e-17
3.62967e-17
3.62946e-17
3.62924e-17
3.62901e-17
3.62877e-17
3.62853e-17
3.62828e-17
3.63052e-17
3.6304e-17
3.63027e-17
3.63013e-17
3.62997e-17
3.62981e-17
3.62963e-17
3.62944e-17
3.62924e-17
3.62902e-17
3.62879e-17
3.62855e-17
3.62831e-17
3.62806e-17
3.63033e-17
3.63021e-17
3.63007e-17
3.62992e-17
3.62976e-17
3.62959e-17
3.62941e-17
3.62921e-17
3.62901e-17
3.62879e-17
3.62856e-17
3.62833e-17
3.62809e-17
3.62785e-17
3.63014e-17
3.63e-17
3.62985e-17
3.6297e-17
3.62953e-17
3.62936e-17
3.62917e-17
3.62897e-17
3.62876e-17
3.62855e-17
3.62832e-17
3.62809e-17
3.62784e-17
3.62761e-17
3.62995e-17
3.6298e-17
3.62964e-17
3.62948e-17
3.6293e-17
3.62912e-17
3.62893e-17
3.62872e-17
3.62851e-17
3.62829e-17
3.62806e-17
3.62783e-17
3.62759e-17
3.62737e-17
3.62974e-17
3.62958e-17
3.62941e-17
3.62924e-17
3.62906e-17
3.62886e-17
3.62867e-17
3.62846e-17
3.62824e-17
3.62802e-17
3.62779e-17
3.62756e-17
3.62732e-17
3.62711e-17
3.62955e-17
3.62936e-17
3.62919e-17
3.629e-17
3.62881e-17
3.62861e-17
3.6284e-17
3.62819e-17
3.62796e-17
3.62774e-17
3.6275e-17
3.62727e-17
3.62703e-17
3.62684e-17
3.62931e-17
3.62911e-17
3.62893e-17
3.62874e-17
3.62854e-17
3.62833e-17
3.62812e-17
3.6279e-17
3.62767e-17
3.62744e-17
3.62721e-17
3.62698e-17
3.62674e-17
3.62655e-17
3.62906e-17
3.62887e-17
3.62868e-17
3.62848e-17
3.62827e-17
3.62805e-17
3.62782e-17
3.62759e-17
3.62735e-17
3.62712e-17
3.62688e-17
3.62665e-17
3.62639e-17
3.6262e-17
3.62874e-17
3.62856e-17
3.62838e-17
3.62817e-17
3.62796e-17
3.62774e-17
3.62752e-17
3.62729e-17
3.62705e-17
3.62682e-17
3.62657e-17
3.62634e-17
3.62608e-17
3.62586e-17
3.62985e-17
3.62977e-17
3.62966e-17
3.62954e-17
3.62941e-17
3.62928e-17
3.62913e-17
3.62898e-17
3.62881e-17
3.62864e-17
3.62844e-17
3.62824e-17
3.62802e-17
3.62774e-17
3.62964e-17
3.62955e-17
3.62943e-17
3.62929e-17
3.62915e-17
3.62901e-17
3.62886e-17
3.62869e-17
3.62851e-17
3.62833e-17
3.62813e-17
3.62791e-17
3.62769e-17
3.62745e-17
3.62941e-17
3.62931e-17
3.62916e-17
3.62902e-17
3.62888e-17
3.62873e-17
3.62858e-17
3.62841e-17
3.62823e-17
3.62804e-17
3.62784e-17
3.62763e-17
3.62741e-17
3.62718e-17
3.62917e-17
3.62905e-17
3.6289e-17
3.62876e-17
3.62861e-17
3.62845e-17
3.62829e-17
3.62812e-17
3.62793e-17
3.62773e-17
3.62753e-17
3.62731e-17
3.6271e-17
3.62688e-17
3.62891e-17
3.62878e-17
3.62863e-17
3.62848e-17
3.62833e-17
3.62817e-17
3.628e-17
3.62782e-17
3.62763e-17
3.62743e-17
3.62723e-17
3.62701e-17
3.6268e-17
3.62658e-17
3.62864e-17
3.6285e-17
3.62835e-17
3.6282e-17
3.62803e-17
3.62787e-17
3.62769e-17
3.62751e-17
3.62732e-17
3.62712e-17
3.62691e-17
3.6267e-17
3.62648e-17
3.62627e-17
3.62837e-17
3.62822e-17
3.62806e-17
3.6279e-17
3.62773e-17
3.62756e-17
3.62738e-17
3.6272e-17
3.627e-17
3.6268e-17
3.6266e-17
3.62639e-17
3.62618e-17
3.62597e-17
3.62808e-17
3.62791e-17
3.62776e-17
3.62759e-17
3.62742e-17
3.62724e-17
3.62706e-17
3.62687e-17
3.62668e-17
3.62648e-17
3.62627e-17
3.62607e-17
3.62586e-17
3.62566e-17
3.62778e-17
3.62761e-17
3.62745e-17
3.62727e-17
3.6271e-17
3.62691e-17
3.62673e-17
3.62654e-17
3.62634e-17
3.62614e-17
3.62594e-17
3.62574e-17
3.62554e-17
3.62536e-17
3.62746e-17
3.62728e-17
3.62711e-17
3.62693e-17
3.62675e-17
3.62657e-17
3.62638e-17
3.62619e-17
3.62599e-17
3.6258e-17
3.6256e-17
3.62541e-17
3.62521e-17
3.62505e-17
3.62715e-17
3.62696e-17
3.62679e-17
3.6266e-17
3.62641e-17
3.62622e-17
3.62603e-17
3.62584e-17
3.62564e-17
3.62544e-17
3.62525e-17
3.62507e-17
3.62488e-17
3.62474e-17
3.6268e-17
3.62661e-17
3.62643e-17
3.62624e-17
3.62605e-17
3.62586e-17
3.62567e-17
3.62547e-17
3.62528e-17
3.62509e-17
3.6249e-17
3.62473e-17
3.62454e-17
3.62442e-17
3.62647e-17
3.62627e-17
3.62609e-17
3.62589e-17
3.6257e-17
3.6255e-17
3.6253e-17
3.6251e-17
3.6249e-17
3.62471e-17
3.62453e-17
3.62436e-17
3.62419e-17
3.62407e-17
3.62604e-17
3.62587e-17
3.62569e-17
3.6255e-17
3.62531e-17
3.62512e-17
3.62492e-17
3.62473e-17
3.62454e-17
3.62436e-17
3.62417e-17
3.62401e-17
3.62383e-17
3.62371e-17
3.62762e-17
3.62751e-17
3.62738e-17
3.62726e-17
3.62714e-17
3.62704e-17
3.62693e-17
3.62683e-17
3.62672e-17
3.62661e-17
3.6265e-17
3.62638e-17
3.62625e-17
3.62611e-17
3.62735e-17
3.62724e-17
3.6271e-17
3.62697e-17
3.62685e-17
3.62673e-17
3.62661e-17
3.62649e-17
3.62638e-17
3.62625e-17
3.62613e-17
3.626e-17
3.62587e-17
3.62573e-17
3.62706e-17
3.62694e-17
3.62679e-17
3.62666e-17
3.62653e-17
3.62641e-17
3.62629e-17
3.62616e-17
3.62604e-17
3.62592e-17
3.62579e-17
3.62566e-17
3.62553e-17
3.62538e-17
3.62677e-17
3.62664e-17
3.62649e-17
3.62635e-17
3.62622e-17
3.62609e-17
3.62596e-17
3.62583e-17
3.6257e-17
3.62557e-17
3.62543e-17
3.6253e-17
3.62517e-17
3.62503e-17
3.62646e-17
3.62632e-17
3.62617e-17
3.62603e-17
3.62589e-17
3.62576e-17
3.62562e-17
3.62549e-17
3.62536e-17
3.62522e-17
3.62509e-17
3.62496e-17
3.62482e-17
3.62469e-17
3.62614e-17
3.626e-17
3.62585e-17
3.6257e-17
3.62556e-17
3.62542e-17
3.62528e-17
3.62515e-17
3.62501e-17
3.62488e-17
3.62474e-17
3.62461e-17
3.62447e-17
3.62434e-17
3.62582e-17
3.62567e-17
3.62551e-17
3.62537e-17
3.62522e-17
3.62508e-17
3.62494e-17
3.6248e-17
3.62466e-17
3.62453e-17
3.6244e-17
3.62427e-17
3.62414e-17
3.62402e-17
3.62547e-17
3.62532e-17
3.62517e-17
3.62502e-17
3.62487e-17
3.62473e-17
3.62459e-17
3.62445e-17
3.62431e-17
3.62418e-17
3.62405e-17
3.62393e-17
3.6238e-17
3.62369e-17
3.62513e-17
3.62497e-17
3.62482e-17
3.62467e-17
3.62452e-17
3.62437e-17
3.62423e-17
3.6241e-17
3.62396e-17
3.62383e-17
3.62371e-17
3.62359e-17
3.62348e-17
3.62338e-17
3.62477e-17
3.62461e-17
3.62446e-17
3.62431e-17
3.62416e-17
3.62402e-17
3.62388e-17
3.62374e-17
3.62361e-17
3.62349e-17
3.62337e-17
3.62326e-17
3.62315e-17
3.62307e-17
3.62442e-17
3.62425e-17
3.62411e-17
3.62395e-17
3.6238e-17
3.62366e-17
3.62352e-17
3.62339e-17
3.62326e-17
3.62314e-17
3.62303e-17
3.62294e-17
3.62284e-17
3.62278e-17
3.62405e-17
3.62388e-17
3.62374e-17
3.62358e-17
3.62344e-17
3.6233e-17
3.62317e-17
3.62304e-17
3.62292e-17
3.6228e-17
3.6227e-17
3.62261e-17
3.62252e-17
3.62248e-17
3.6237e-17
3.62353e-17
3.62339e-17
3.62324e-17
3.62309e-17
3.62295e-17
3.62282e-17
3.62269e-17
3.62257e-17
3.62246e-17
3.62236e-17
3.62229e-17
3.62222e-17
3.6222e-17
3.62327e-17
3.62314e-17
3.623e-17
3.62286e-17
3.62272e-17
3.62259e-17
3.62247e-17
3.62235e-17
3.62224e-17
3.62214e-17
3.62205e-17
3.62197e-17
3.6219e-17
3.6219e-17
3.62484e-17
3.62473e-17
3.62461e-17
3.62452e-17
3.62444e-17
3.62438e-17
3.62432e-17
3.62427e-17
3.62423e-17
3.6242e-17
3.62418e-17
3.62416e-17
3.62414e-17
3.6241e-17
3.62453e-17
3.62444e-17
3.62432e-17
3.62422e-17
3.62414e-17
3.62407e-17
3.624e-17
3.62395e-17
3.6239e-17
3.62386e-17
3.62383e-17
3.62379e-17
3.62378e-17
3.62372e-17
3.62422e-17
3.62413e-17
3.62401e-17
3.62391e-17
3.62382e-17
3.62375e-17
3.62368e-17
3.62363e-17
3.62358e-17
3.62353e-17
3.62349e-17
3.62346e-17
3.62344e-17
3.62338e-17
3.62391e-17
3.62382e-17
3.6237e-17
3.6236e-17
3.62351e-17
3.62343e-17
3.62336e-17
3.6233e-17
3.62325e-17
3.6232e-17
3.62316e-17
3.62312e-17
3.62309e-17
3.62304e-17
3.6236e-17
3.6235e-17
3.62338e-17
3.62328e-17
3.62319e-17
3.62311e-17
3.62304e-17
3.62298e-17
3.62292e-17
3.62287e-17
3.62283e-17
3.62279e-17
3.62276e-17
3.62272e-17
3.62329e-17
3.62318e-17
3.62306e-17
3.62296e-17
3.62287e-17
3.62279e-17
3.62272e-17
3.62265e-17
3.6226e-17
3.62255e-17
3.62251e-17
3.62248e-17
3.62244e-17
3.6224e-17
3.62297e-17
3.62286e-17
3.62275e-17
3.62265e-17
3.62255e-17
3.62247e-17
3.6224e-17
3.62233e-17
3.62228e-17
3.62224e-17
3.6222e-17
3.62217e-17
3.62214e-17
3.62211e-17
3.62265e-17
3.62254e-17
3.62243e-17
3.62233e-17
3.62224e-17
3.62215e-17
3.62208e-17
3.62202e-17
3.62197e-17
3.62193e-17
3.6219e-17
3.62187e-17
3.62184e-17
3.62182e-17
3.62234e-17
3.62222e-17
3.62211e-17
3.62201e-17
3.62192e-17
3.62184e-17
3.62178e-17
3.62172e-17
3.62167e-17
3.62163e-17
3.6216e-17
3.62158e-17
3.62155e-17
3.62155e-17
3.62202e-17
3.62189e-17
3.62179e-17
3.6217e-17
3.62162e-17
3.62154e-17
3.62148e-17
3.62142e-17
3.62138e-17
3.62134e-17
3.62132e-17
3.6213e-17
3.62128e-17
3.62129e-17
3.62171e-17
3.62158e-17
3.62149e-17
3.6214e-17
3.62132e-17
3.62125e-17
3.62119e-17
3.62114e-17
3.6211e-17
3.62107e-17
3.62105e-17
3.62104e-17
3.62103e-17
3.62105e-17
3.62139e-17
3.62127e-17
3.62119e-17
3.6211e-17
3.62103e-17
3.62096e-17
3.62091e-17
3.62086e-17
3.62083e-17
3.6208e-17
3.62079e-17
3.62079e-17
3.62079e-17
3.62081e-17
3.6211e-17
3.62099e-17
3.62091e-17
3.62083e-17
3.62075e-17
3.62069e-17
3.62063e-17
3.62059e-17
3.62056e-17
3.62055e-17
3.62054e-17
3.62055e-17
3.62056e-17
3.6206e-17
3.62076e-17
3.62068e-17
3.6206e-17
3.62053e-17
3.62047e-17
3.62041e-17
3.62037e-17
3.62034e-17
3.62032e-17
3.62031e-17
3.6203e-17
3.62031e-17
3.62033e-17
3.62036e-17
3.62169e-17
3.62164e-17
3.62157e-17
3.62154e-17
3.62151e-17
3.6215e-17
3.6215e-17
3.62151e-17
3.62153e-17
3.62156e-17
3.62161e-17
3.62166e-17
3.62174e-17
3.62179e-17
3.6214e-17
3.62137e-17
3.62132e-17
3.62128e-17
3.62126e-17
3.62124e-17
3.62124e-17
3.62125e-17
3.62127e-17
3.6213e-17
3.62134e-17
3.62138e-17
3.62145e-17
3.62148e-17
3.62113e-17
3.62111e-17
3.62105e-17
3.62102e-17
3.62099e-17
3.62098e-17
3.62098e-17
3.62098e-17
3.62101e-17
3.62104e-17
3.62108e-17
3.62112e-17
3.62118e-17
3.62121e-17
3.62087e-17
3.62084e-17
3.6208e-17
3.62076e-17
3.62073e-17
3.62072e-17
3.62072e-17
3.62073e-17
3.62075e-17
3.62078e-17
3.62082e-17
3.62086e-17
3.62091e-17
3.62094e-17
3.62062e-17
3.62059e-17
3.62054e-17
3.6205e-17
3.62048e-17
3.62046e-17
3.62046e-17
3.62047e-17
3.62049e-17
3.62052e-17
3.62057e-17
3.62061e-17
3.62066e-17
3.6207e-17
3.62038e-17
3.62033e-17
3.62028e-17
3.62025e-17
3.62023e-17
3.62021e-17
3.62021e-17
3.62022e-17
3.62025e-17
3.62028e-17
3.62032e-17
3.62037e-17
3.62041e-17
3.62046e-17
3.62013e-17
3.62008e-17
3.62004e-17
3.62001e-17
3.61998e-17
3.61997e-17
3.61997e-17
3.61998e-17
3.62001e-17
3.62004e-17
3.62008e-17
3.62013e-17
3.62018e-17
3.62023e-17
3.61989e-17
3.61984e-17
3.6198e-17
3.61977e-17
3.61975e-17
3.61974e-17
3.61974e-17
3.61975e-17
3.61978e-17
3.61982e-17
3.61986e-17
3.61991e-17
3.61996e-17
3.62002e-17
3.61966e-17
3.61961e-17
3.61957e-17
3.61954e-17
3.61952e-17
3.61952e-17
3.61952e-17
3.61954e-17
3.61956e-17
3.6196e-17
3.61965e-17
3.6197e-17
3.61975e-17
3.61982e-17
3.61943e-17
3.61938e-17
3.61935e-17
3.61932e-17
3.61931e-17
3.6193e-17
3.61931e-17
3.61933e-17
3.61936e-17
3.6194e-17
3.61945e-17
3.6195e-17
3.61956e-17
3.61963e-17
3.61922e-17
3.61916e-17
3.61914e-17
3.61912e-17
3.61911e-17
3.61911e-17
3.61912e-17
3.61914e-17
3.61917e-17
3.61922e-17
3.61927e-17
3.61933e-17
3.61938e-17
3.61946e-17
3.61901e-17
3.61895e-17
3.61893e-17
3.61892e-17
3.61891e-17
3.61892e-17
3.61894e-17
3.61896e-17
3.619e-17
3.61904e-17
3.6191e-17
3.61916e-17
3.61922e-17
3.61929e-17
3.61881e-17
3.61876e-17
3.61874e-17
3.61873e-17
3.61873e-17
3.61874e-17
3.61877e-17
3.6188e-17
3.61884e-17
3.61889e-17
3.61894e-17
3.61901e-17
3.61908e-17
3.61915e-17
3.6186e-17
3.61855e-17
3.61855e-17
3.61855e-17
3.61856e-17
3.61857e-17
3.6186e-17
3.61864e-17
3.61869e-17
3.61874e-17
3.6188e-17
3.61886e-17
3.61893e-17
3.61901e-17
3.61832e-17
3.61834e-17
3.61835e-17
3.61838e-17
3.61842e-17
3.61846e-17
3.61851e-17
3.61857e-17
3.61864e-17
3.61872e-17
3.6188e-17
3.6189e-17
3.61902e-17
3.61913e-17
3.61814e-17
3.61817e-17
3.61819e-17
3.61822e-17
3.61826e-17
3.61831e-17
3.61836e-17
3.61842e-17
3.61849e-17
3.61857e-17
3.61865e-17
3.61875e-17
3.61885e-17
3.61894e-17
3.61798e-17
3.61801e-17
3.61802e-17
3.61806e-17
3.6181e-17
3.61815e-17
3.6182e-17
3.61826e-17
3.61834e-17
3.61842e-17
3.61851e-17
3.6186e-17
3.6187e-17
3.61879e-17
3.61781e-17
3.61784e-17
3.61787e-17
3.61791e-17
3.61794e-17
3.61799e-17
3.61805e-17
3.61811e-17
3.61818e-17
3.61827e-17
3.61836e-17
3.61845e-17
3.61855e-17
3.61863e-17
3.61766e-17
3.61769e-17
3.61771e-17
3.61775e-17
3.61779e-17
3.61784e-17
3.61789e-17
3.61796e-17
3.61803e-17
3.61812e-17
3.61821e-17
3.61831e-17
3.61841e-17
3.6185e-17
3.61752e-17
3.61754e-17
3.61757e-17
3.6176e-17
3.61764e-17
3.61769e-17
3.61775e-17
3.61781e-17
3.61789e-17
3.61797e-17
3.61806e-17
3.61816e-17
3.61826e-17
3.61835e-17
3.61737e-17
3.6174e-17
3.61742e-17
3.61746e-17
3.6175e-17
3.61755e-17
3.61761e-17
3.61768e-17
3.61775e-17
3.61784e-17
3.61793e-17
3.61802e-17
3.61812e-17
3.61822e-17
3.61724e-17
3.61726e-17
3.61729e-17
3.61732e-17
3.61737e-17
3.61742e-17
3.61748e-17
3.61755e-17
3.61762e-17
3.61771e-17
3.6178e-17
3.61789e-17
3.61799e-17
3.61809e-17
3.61711e-17
3.61713e-17
3.61716e-17
3.6172e-17
3.61725e-17
3.6173e-17
3.61736e-17
3.61743e-17
3.61751e-17
3.61759e-17
3.61768e-17
3.61777e-17
3.61787e-17
3.61797e-17
3.61699e-17
3.61701e-17
3.61705e-17
3.61709e-17
3.61714e-17
3.61719e-17
3.61725e-17
3.61732e-17
3.6174e-17
3.61748e-17
3.61757e-17
3.61766e-17
3.61775e-17
3.61786e-17
3.61688e-17
3.6169e-17
3.61694e-17
3.61698e-17
3.61704e-17
3.61709e-17
3.61716e-17
3.61723e-17
3.61731e-17
3.61739e-17
3.61748e-17
3.61757e-17
3.61766e-17
3.61776e-17
3.61677e-17
3.61679e-17
3.61683e-17
3.61688e-17
3.61694e-17
3.617e-17
3.61707e-17
3.61714e-17
3.61722e-17
3.6173e-17
3.61739e-17
3.61748e-17
3.61757e-17
3.61767e-17
3.61667e-17
3.61669e-17
3.61674e-17
3.61679e-17
3.61685e-17
3.61692e-17
3.61699e-17
3.61707e-17
3.61715e-17
3.61723e-17
3.61732e-17
3.61741e-17
3.6175e-17
3.61759e-17
3.61657e-17
3.61659e-17
3.61665e-17
3.6167e-17
3.61677e-17
3.61684e-17
3.61691e-17
3.61699e-17
3.61708e-17
3.61716e-17
3.61725e-17
3.61733e-17
3.61742e-17
3.61752e-17
3.61479e-17
3.61488e-17
3.61495e-17
3.61504e-17
3.61513e-17
3.61521e-17
3.6153e-17
3.61538e-17
3.61548e-17
3.61557e-17
3.61568e-17
3.61578e-17
3.61589e-17
3.616e-17
3.61473e-17
3.61483e-17
3.61491e-17
3.615e-17
3.61508e-17
3.61517e-17
3.61526e-17
3.61535e-17
3.61545e-17
3.61555e-17
3.61565e-17
3.61576e-17
3.61587e-17
3.61597e-17
3.61469e-17
3.61479e-17
3.61486e-17
3.61495e-17
3.61504e-17
3.61513e-17
3.61522e-17
3.61531e-17
3.61541e-17
3.61551e-17
3.61562e-17
3.61573e-17
3.61584e-17
3.61595e-17
3.61465e-17
3.61474e-17
3.61482e-17
3.61491e-17
3.615e-17
3.61509e-17
3.61518e-17
3.61528e-17
3.61537e-17
3.61548e-17
3.61558e-17
3.61569e-17
3.61581e-17
3.61591e-17
3.61462e-17
3.6147e-17
3.61478e-17
3.61487e-17
3.61496e-17
3.61505e-17
3.61514e-17
3.61524e-17
3.61534e-17
3.61544e-17
3.61555e-17
3.61566e-17
3.61577e-17
3.61588e-17
3.61458e-17
3.61466e-17
3.61474e-17
3.61483e-17
3.61492e-17
3.61501e-17
3.61511e-17
3.6152e-17
3.6153e-17
3.6154e-17
3.61551e-17
3.61562e-17
3.61573e-17
3.61584e-17
3.61454e-17
3.61463e-17
3.61471e-17
3.6148e-17
3.61489e-17
3.61498e-17
3.61507e-17
3.61517e-17
3.61527e-17
3.61537e-17
3.61548e-17
3.61559e-17
3.61569e-17
3.61581e-17
3.61451e-17
3.61459e-17
3.61468e-17
3.61477e-17
3.61486e-17
3.61495e-17
3.61504e-17
3.61514e-17
3.61524e-17
3.61534e-17
3.61544e-17
3.61555e-17
3.61565e-17
3.61577e-17
3.61448e-17
3.61456e-17
3.61465e-17
3.61474e-17
3.61483e-17
3.61493e-17
3.61502e-17
3.61512e-17
3.61521e-17
3.61531e-17
3.61541e-17
3.61552e-17
3.61562e-17
3.61573e-17
3.61446e-17
3.61454e-17
3.61463e-17
3.61472e-17
3.61481e-17
3.6149e-17
3.615e-17
3.61509e-17
3.61519e-17
3.61529e-17
3.61539e-17
3.61549e-17
3.61559e-17
3.61569e-17
3.61444e-17
3.61452e-17
3.61461e-17
3.6147e-17
3.61479e-17
3.61489e-17
3.61498e-17
3.61508e-17
3.61517e-17
3.61527e-17
3.61536e-17
3.61546e-17
3.61556e-17
3.61566e-17
3.61441e-17
3.61449e-17
3.61458e-17
3.61468e-17
3.61477e-17
3.61487e-17
3.61497e-17
3.61506e-17
3.61516e-17
3.61525e-17
3.61535e-17
3.61544e-17
3.61554e-17
3.61563e-17
3.6144e-17
3.61448e-17
3.61457e-17
3.61467e-17
3.61476e-17
3.61486e-17
3.61496e-17
3.61505e-17
3.61515e-17
3.61524e-17
3.61534e-17
3.61543e-17
3.61552e-17
3.61562e-17
3.6144e-17
3.61448e-17
3.61457e-17
3.61466e-17
3.61475e-17
3.61485e-17
3.61495e-17
3.61505e-17
3.61514e-17
3.61523e-17
3.61532e-17
3.61541e-17
3.6155e-17
3.6156e-17
3.61111e-17
3.61122e-17
3.61133e-17
3.61143e-17
3.61154e-17
3.61164e-17
3.61174e-17
3.61183e-17
3.61193e-17
3.61202e-17
3.61211e-17
3.6122e-17
3.61229e-17
3.61238e-17
3.61115e-17
3.61126e-17
3.61137e-17
3.61148e-17
3.61159e-17
3.6117e-17
3.6118e-17
3.6119e-17
3.612e-17
3.6121e-17
3.61219e-17
3.61228e-17
3.61237e-17
3.61246e-17
3.61122e-17
3.61132e-17
3.61144e-17
3.61155e-17
3.61166e-17
3.61176e-17
3.61187e-17
3.61197e-17
3.61207e-17
3.61216e-17
3.61226e-17
3.61235e-17
3.61245e-17
3.61253e-17
3.61127e-17
3.61138e-17
3.6115e-17
3.61161e-17
3.61172e-17
3.61182e-17
3.61193e-17
3.61203e-17
3.61213e-17
3.61223e-17
3.61232e-17
3.61242e-17
3.61252e-17
3.61261e-17
3.61133e-17
3.61144e-17
3.61156e-17
3.61167e-17
3.61178e-17
3.61188e-17
3.61199e-17
3.61209e-17
3.61219e-17
3.61228e-17
3.61238e-17
3.61248e-17
3.61257e-17
3.61267e-17
3.61138e-17
3.6115e-17
3.61161e-17
3.61172e-17
3.61183e-17
3.61194e-17
3.61204e-17
3.61215e-17
3.61224e-17
3.61234e-17
3.61244e-17
3.61253e-17
3.61263e-17
3.61272e-17
3.61143e-17
3.61155e-17
3.61166e-17
3.61178e-17
3.61189e-17
3.61199e-17
3.6121e-17
3.6122e-17
3.6123e-17
3.61239e-17
3.61249e-17
3.61258e-17
3.61268e-17
3.61277e-17
3.61148e-17
3.6116e-17
3.61171e-17
3.61183e-17
3.61194e-17
3.61204e-17
3.61215e-17
3.61225e-17
3.61235e-17
3.61244e-17
3.61254e-17
3.61263e-17
3.61272e-17
3.61281e-17
3.61153e-17
3.61165e-17
3.61176e-17
3.61188e-17
3.61199e-17
3.61209e-17
3.6122e-17
3.6123e-17
3.61239e-17
3.61249e-17
3.61258e-17
3.61267e-17
3.61276e-17
3.61285e-17
3.61158e-17
3.61169e-17
3.61181e-17
3.61192e-17
3.61203e-17
3.61214e-17
3.61224e-17
3.61234e-17
3.61244e-17
3.61253e-17
3.61262e-17
3.61271e-17
3.61279e-17
3.61288e-17
3.61163e-17
3.61174e-17
3.61185e-17
3.61197e-17
3.61208e-17
3.61218e-17
3.61228e-17
3.61238e-17
3.61248e-17
3.61257e-17
3.61265e-17
3.61274e-17
3.61283e-17
3.61291e-17
3.61168e-17
3.61179e-17
3.6119e-17
3.61201e-17
3.61212e-17
3.61222e-17
3.61233e-17
3.61242e-17
3.61252e-17
3.6126e-17
3.61269e-17
3.61277e-17
3.61286e-17
3.61294e-17
3.61173e-17
3.61184e-17
3.61195e-17
3.61206e-17
3.61216e-17
3.61227e-17
3.61237e-17
3.61246e-17
3.61255e-17
3.61264e-17
3.61272e-17
3.61281e-17
3.61289e-17
3.61298e-17
3.61178e-17
3.61189e-17
3.612e-17
3.61211e-17
3.61221e-17
3.61231e-17
3.61241e-17
3.6125e-17
3.61259e-17
3.61268e-17
3.61276e-17
3.61284e-17
3.61292e-17
3.613e-17
3.60733e-17
3.60742e-17
3.60752e-17
3.60762e-17
3.60771e-17
3.6078e-17
3.60789e-17
3.60797e-17
3.60805e-17
3.60812e-17
3.60819e-17
3.60825e-17
3.60831e-17
3.60838e-17
3.60743e-17
3.60752e-17
3.60763e-17
3.60773e-17
3.60783e-17
3.60792e-17
3.60801e-17
3.6081e-17
3.60818e-17
3.60825e-17
3.60832e-17
3.60839e-17
3.60845e-17
3.60851e-17
3.60755e-17
3.60764e-17
3.60775e-17
3.60785e-17
3.60795e-17
3.60805e-17
3.60814e-17
3.60822e-17
3.6083e-17
3.60838e-17
3.60845e-17
3.60851e-17
3.60857e-17
3.60863e-17
3.60766e-17
3.60775e-17
3.60786e-17
3.60797e-17
3.60807e-17
3.60817e-17
3.60826e-17
3.60834e-17
3.60842e-17
3.6085e-17
3.60857e-17
3.60864e-17
3.6087e-17
3.60876e-17
3.60776e-17
3.60787e-17
3.60798e-17
3.60808e-17
3.60819e-17
3.60828e-17
3.60837e-17
3.60846e-17
3.60854e-17
3.60861e-17
3.60868e-17
3.60875e-17
3.60881e-17
3.60887e-17
3.60787e-17
3.60798e-17
3.60809e-17
3.60819e-17
3.6083e-17
3.60839e-17
3.60849e-17
3.60857e-17
3.60865e-17
3.60873e-17
3.6088e-17
3.60886e-17
3.60893e-17
3.60899e-17
3.60797e-17
3.60808e-17
3.60819e-17
3.6083e-17
3.6084e-17
3.6085e-17
3.60859e-17
3.60868e-17
3.60876e-17
3.60883e-17
3.6089e-17
3.60897e-17
3.60903e-17
3.60909e-17
3.60807e-17
3.60818e-17
3.60829e-17
3.6084e-17
3.6085e-17
3.6086e-17
3.60869e-17
3.60877e-17
3.60885e-17
3.60893e-17
3.609e-17
3.60907e-17
3.60913e-17
3.60919e-17
3.60816e-17
3.60828e-17
3.60839e-17
3.60849e-17
3.60859e-17
3.60869e-17
3.60878e-17
3.60887e-17
3.60895e-17
3.60902e-17
3.60909e-17
3.60915e-17
3.60922e-17
3.60928e-17
3.60826e-17
3.60837e-17
3.60848e-17
3.60858e-17
3.60868e-17
3.60878e-17
3.60887e-17
3.60895e-17
3.60903e-17
3.6091e-17
3.60917e-17
3.60924e-17
3.6093e-17
3.60936e-17
3.60835e-17
3.60846e-17
3.60856e-17
3.60867e-17
3.60877e-17
3.60886e-17
3.60895e-17
3.60903e-17
3.60911e-17
3.60918e-17
3.60925e-17
3.60931e-17
3.60937e-17
3.60944e-17
3.60843e-17
3.60855e-17
3.60865e-17
3.60875e-17
3.60885e-17
3.60894e-17
3.60902e-17
3.60911e-17
3.60918e-17
3.60925e-17
3.60932e-17
3.60938e-17
3.60944e-17
3.6095e-17
3.60852e-17
3.60863e-17
3.60873e-17
3.60883e-17
3.60892e-17
3.60901e-17
3.6091e-17
3.60917e-17
3.60925e-17
3.60932e-17
3.60938e-17
3.60945e-17
3.60951e-17
3.60957e-17
3.60861e-17
3.60872e-17
3.60881e-17
3.60891e-17
3.609e-17
3.60909e-17
3.60917e-17
3.60924e-17
3.60931e-17
3.60938e-17
3.60944e-17
3.6095e-17
3.60957e-17
3.60963e-17
3.60362e-17
3.60367e-17
3.60374e-17
3.60381e-17
3.60387e-17
3.60393e-17
3.60399e-17
3.60405e-17
3.60409e-17
3.60414e-17
3.60418e-17
3.60421e-17
3.60424e-17
3.60429e-17
3.60373e-17
3.60379e-17
3.60386e-17
3.60393e-17
3.604e-17
3.60406e-17
3.60412e-17
3.60417e-17
3.60422e-17
3.60427e-17
3.60431e-17
3.60435e-17
3.60437e-17
3.60441e-17
3.60385e-17
3.60391e-17
3.60399e-17
3.60405e-17
3.60412e-17
3.60419e-17
3.60425e-17
3.6043e-17
3.60435e-17
3.6044e-17
3.60444e-17
3.60447e-17
3.6045e-17
3.60454e-17
3.60396e-17
3.60403e-17
3.60411e-17
3.60418e-17
3.60425e-17
3.60431e-17
3.60437e-17
3.60443e-17
3.60448e-17
3.60453e-17
3.60457e-17
3.6046e-17
3.60463e-17
3.60466e-17
3.60407e-17
3.60415e-17
3.60423e-17
3.6043e-17
3.60437e-17
3.60444e-17
3.6045e-17
3.60455e-17
3.6046e-17
3.60465e-17
3.60469e-17
3.60472e-17
3.60475e-17
3.60478e-17
3.60419e-17
3.60426e-17
3.60434e-17
3.60442e-17
3.60449e-17
3.60455e-17
3.60462e-17
3.60467e-17
3.60472e-17
3.60477e-17
3.60481e-17
3.60485e-17
3.60488e-17
3.6049e-17
3.6043e-17
3.60438e-17
3.60446e-17
3.60453e-17
3.6046e-17
3.60467e-17
3.60473e-17
3.60479e-17
3.60484e-17
3.60488e-17
3.60493e-17
3.60496e-17
3.60499e-17
3.60502e-17
3.6044e-17
3.60449e-17
3.60456e-17
3.60464e-17
3.60471e-17
3.60478e-17
3.60484e-17
3.6049e-17
3.60495e-17
3.60499e-17
3.60504e-17
3.60507e-17
3.6051e-17
3.60513e-17
3.60451e-17
3.60459e-17
3.60467e-17
3.60474e-17
3.60481e-17
3.60488e-17
3.60494e-17
3.605e-17
3.60505e-17
3.6051e-17
3.60514e-17
3.60517e-17
3.60521e-17
3.60523e-17
3.60461e-17
3.60469e-17
3.60477e-17
3.60484e-17
3.60491e-17
3.60498e-17
3.60504e-17
3.6051e-17
3.60515e-17
3.60519e-17
3.60523e-17
3.60527e-17
3.6053e-17
3.60533e-17
3.60471e-17
3.60479e-17
3.60487e-17
3.60494e-17
3.60501e-17
3.60507e-17
3.60513e-17
3.60519e-17
3.60524e-17
3.60528e-17
3.60532e-17
3.60536e-17
3.60539e-17
3.60542e-17
3.60481e-17
3.60489e-17
3.60496e-17
3.60503e-17
3.6051e-17
3.60516e-17
3.60522e-17
3.60527e-17
3.60532e-17
3.60536e-17
3.60541e-17
3.60544e-17
3.60548e-17
3.60551e-17
3.6049e-17
3.60498e-17
3.60505e-17
3.60512e-17
3.60518e-17
3.60524e-17
3.6053e-17
3.60535e-17
3.6054e-17
3.60544e-17
3.60548e-17
3.60552e-17
3.60555e-17
3.60559e-17
3.605e-17
3.60507e-17
3.60514e-17
3.60521e-17
3.60527e-17
3.60532e-17
3.60538e-17
3.60542e-17
3.60547e-17
3.60551e-17
3.60555e-17
3.60559e-17
3.60562e-17
3.60567e-17
3.60013e-17
3.60015e-17
3.60018e-17
3.60021e-17
3.60024e-17
3.60027e-17
3.60029e-17
3.60032e-17
3.60034e-17
3.60035e-17
3.60037e-17
3.60038e-17
3.60039e-17
3.60041e-17
3.60022e-17
3.60024e-17
3.60027e-17
3.6003e-17
3.60033e-17
3.60036e-17
3.60039e-17
3.60041e-17
3.60043e-17
3.60045e-17
3.60046e-17
3.60047e-17
3.60048e-17
3.6005e-17
3.6003e-17
3.60033e-17
3.60037e-17
3.6004e-17
3.60043e-17
3.60046e-17
3.60048e-17
3.60051e-17
3.60053e-17
3.60054e-17
3.60056e-17
3.60057e-17
3.60057e-17
3.60059e-17
3.60039e-17
3.60042e-17
3.60046e-17
3.60049e-17
3.60052e-17
3.60055e-17
3.60058e-17
3.6006e-17
3.60062e-17
3.60064e-17
3.60065e-17
3.60066e-17
3.60067e-17
3.60068e-17
3.60048e-17
3.60051e-17
3.60055e-17
3.60058e-17
3.60062e-17
3.60064e-17
3.60067e-17
3.6007e-17
3.60072e-17
3.60073e-17
3.60075e-17
3.60076e-17
3.60076e-17
3.60077e-17
3.60057e-17
3.6006e-17
3.60064e-17
3.60067e-17
3.60071e-17
3.60074e-17
3.60076e-17
3.60079e-17
3.60081e-17
3.60082e-17
3.60084e-17
3.60085e-17
3.60085e-17
3.60086e-17
3.60065e-17
3.60069e-17
3.60073e-17
3.60076e-17
3.6008e-17
3.60083e-17
3.60085e-17
3.60088e-17
3.6009e-17
3.60091e-17
3.60093e-17
3.60094e-17
3.60094e-17
3.60095e-17
3.60073e-17
3.60078e-17
3.60081e-17
3.60085e-17
3.60088e-17
3.60091e-17
3.60094e-17
3.60096e-17
3.60098e-17
3.601e-17
3.60102e-17
3.60103e-17
3.60103e-17
3.60104e-17
3.60082e-17
3.60086e-17
3.6009e-17
3.60093e-17
3.60097e-17
3.601e-17
3.60102e-17
3.60105e-17
3.60107e-17
3.60109e-17
3.6011e-17
3.60111e-17
3.60112e-17
3.60112e-17
3.6009e-17
3.60094e-17
3.60098e-17
3.60102e-17
3.60105e-17
3.60108e-17
3.6011e-17
3.60113e-17
3.60115e-17
3.60117e-17
3.60118e-17
3.60119e-17
3.6012e-17
3.6012e-17
3.60098e-17
3.60102e-17
3.60106e-17
3.60109e-17
3.60113e-17
3.60115e-17
3.60118e-17
3.6012e-17
3.60122e-17
3.60124e-17
3.60126e-17
3.60127e-17
3.60128e-17
3.60128e-17
3.60106e-17
3.6011e-17
3.60114e-17
3.60117e-17
3.6012e-17
3.60123e-17
3.60125e-17
3.60128e-17
3.6013e-17
3.60131e-17
3.60133e-17
3.60134e-17
3.60135e-17
3.60135e-17
3.60113e-17
3.60118e-17
3.60121e-17
3.60124e-17
3.60127e-17
3.6013e-17
3.60132e-17
3.60134e-17
3.60136e-17
3.60138e-17
3.60139e-17
3.60141e-17
3.60141e-17
3.60142e-17
3.60121e-17
3.60125e-17
3.60128e-17
3.60131e-17
3.60134e-17
3.60136e-17
3.60138e-17
3.6014e-17