/*--------------------------------*- C++ -*----------------------------------*\
| =========                 |                                                 |
| \\      /  F ield         | OpenFOAM: The Open Source CFD Toolbox           |
|  \\    /   O peration     | Version:  v2106                                 |
|   \\  /    A nd           | Website:  www.openfoam.com                      |
|    \\/     M anipulation  |                                                 |
\*---------------------------------------------------------------------------*/
FoamFile
{
    version     2.0;
    format      ascii;
    arch        "LSB;label=32;scalar=64";
    class       volScalarField;
    location    "0.000173";
    object      Ttot;
}
// * * * * * * * * * * * * * * * * * * * * * * * * * * * * * * * * * * * * * //

dimensions      [0 0 0 1 0 0 0];

internalField   nonuniform List<scalar> 
17924
(
307.645
307.637
307.629
307.617
307.636
307.629
307.62
307.609
307.597
307.583
307.568
307.629
307.623
307.614
307.604
307.592
307.579
307.565
307.623
307.618
307.609
307.599
307.588
307.575
307.562
307.62
307.615
307.606
307.596
307.585
307.573
307.56
307.619
307.613
307.603
307.594
307.583
307.571
307.559
307.619
307.612
307.603
307.593
307.582
307.57
307.558
307.621
307.613
307.603
307.593
307.582
307.57
307.558
307.625
307.616
307.605
307.595
307.583
307.571
307.558
307.629
307.619
307.608
307.597
307.584
307.572
307.559
307.634
307.623
307.611
307.599
307.586
307.574
307.56
307.64
307.629
307.616
307.603
307.589
307.575
307.561
307.646
307.634
307.62
307.606
307.591
307.577
307.562
307.653
307.639
307.625
307.609
307.594
307.578
307.562
307.659
307.643
307.628
307.612
307.596
307.579
307.562
307.602
307.595
307.586
307.575
307.563
307.548
307.533
307.515
307.496
307.476
307.455
307.432
307.41
307.385
307.587
307.582
307.573
307.562
307.55
307.536
307.52
307.503
307.485
307.465
307.444
307.422
307.401
307.378
307.574
307.57
307.56
307.549
307.537
307.523
307.508
307.492
307.474
307.455
307.435
307.414
307.393
307.371
307.563
307.557
307.547
307.537
307.525
307.511
307.496
307.48
307.463
307.444
307.425
307.405
307.385
307.364
307.553
307.546
307.536
307.525
307.513
307.5
307.485
307.469
307.452
307.434
307.415
307.395
307.376
307.355
307.544
307.535
307.525
307.514
307.501
307.488
307.473
307.458
307.441
307.423
307.404
307.385
307.365
307.345
307.535
307.526
307.515
307.503
307.491
307.477
307.462
307.446
307.429
307.411
307.393
307.374
307.354
307.334
307.527
307.517
307.505
307.493
307.479
307.465
307.45
307.434
307.417
307.399
307.38
307.361
307.341
307.322
307.52
307.509
307.496
307.483
307.468
307.454
307.438
307.421
307.404
307.385
307.366
307.347
307.326
307.307
307.512
307.499
307.486
307.472
307.457
307.441
307.425
307.408
307.39
307.371
307.351
307.331
307.31
307.291
307.505
307.491
307.476
307.461
307.445
307.429
307.412
307.394
307.374
307.355
307.334
307.314
307.291
307.272
307.496
307.481
307.465
307.449
307.433
307.415
307.397
307.379
307.359
307.339
307.317
307.295
307.271
307.252
307.488
307.471
307.455
307.438
307.42
307.402
307.383
307.363
307.341
307.32
307.297
307.274
307.249
307.23
307.478
307.46
307.443
307.424
307.405
307.386
307.366
307.346
307.324
307.302
307.279
307.256
307.231
307.208
307.515
307.507
307.497
307.487
307.474
307.461
307.445
307.428
307.41
307.389
307.368
307.344
307.32
307.293
307.496
307.488
307.478
307.467
307.455
307.441
307.425
307.408
307.389
307.368
307.346
307.322
307.298
307.273
307.477
307.47
307.459
307.448
307.435
307.421
307.405
307.388
307.369
307.348
307.326
307.303
307.28
307.255
307.459
307.451
307.44
307.428
307.415
307.4
307.384
307.367
307.348
307.327
307.306
307.283
307.26
307.236
307.441
307.432
307.42
307.408
307.394
307.38
307.364
307.346
307.327
307.307
307.285
307.263
307.24
307.216
307.423
307.413
307.4
307.387
307.373
307.358
307.342
307.324
307.305
307.285
307.264
307.241
307.219
307.196
307.405
307.393
307.38
307.367
307.352
307.337
307.32
307.302
307.283
307.263
307.242
307.22
307.198
307.175
307.386
307.373
307.359
307.345
307.33
307.314
307.297
307.278
307.259
307.239
307.218
307.196
307.174
307.153
307.367
307.353
307.338
307.323
307.307
307.291
307.273
307.254
307.235
307.214
307.193
307.172
307.15
307.129
307.346
307.331
307.316
307.3
307.283
307.266
307.248
307.229
307.209
307.188
307.167
307.146
307.123
307.104
307.325
307.309
307.293
307.276
307.259
307.241
307.222
307.202
307.181
307.161
307.139
307.118
307.095
307.077
307.302
307.285
307.268
307.251
307.232
307.214
307.194
307.174
307.154
307.133
307.111
307.089
307.066
307.049
307.281
307.262
307.245
307.226
307.207
307.187
307.166
307.145
307.124
307.102
307.079
307.057
307.034
307.018
307.255
307.235
307.217
307.198
307.178
307.158
307.137
307.116
307.094
307.072
307.05
307.028
307.006
306.987
307.36
307.35
307.339
307.328
307.316
307.304
307.29
307.276
307.261
307.244
307.226
307.207
307.188
307.166
307.336
307.327
307.315
307.304
307.291
307.278
307.264
307.249
307.232
307.215
307.196
307.176
307.156
307.134
307.313
307.304
307.29
307.278
307.265
307.252
307.237
307.221
307.205
307.187
307.168
307.148
307.129
307.107
307.289
307.279
307.265
307.253
307.239
307.225
307.21
307.193
307.176
307.158
307.139
307.119
307.099
307.078
307.265
307.253
307.239
307.226
307.212
307.197
307.181
307.165
307.148
307.129
307.11
307.09
307.07
307.049
307.239
307.227
307.213
307.199
307.184
307.169
307.153
307.136
307.118
307.1
307.08
307.061
307.041
307.021
307.213
307.2
307.185
307.17
307.155
307.139
307.123
307.106
307.088
307.07
307.051
307.031
307.012
306.993
307.185
307.171
307.156
307.141
307.125
307.109
307.092
307.075
307.057
307.039
307.02
307.001
306.982
306.964
307.157
307.141
307.126
307.11
307.094
307.078
307.061
307.043
307.025
307.007
306.988
306.97
306.952
306.935
307.127
307.11
307.095
307.078
307.062
307.045
307.028
307.01
306.992
306.974
306.956
306.939
306.921
306.905
307.096
307.079
307.063
307.046
307.03
307.012
306.995
306.977
306.959
306.941
306.923
306.906
306.889
306.876
307.064
307.045
307.03
307.012
306.995
306.978
306.96
306.943
306.925
306.907
306.89
306.874
306.857
306.845
307.033
307.014
306.997
306.98
306.962
306.944
306.926
306.908
306.89
306.873
306.855
306.84
306.824
306.814
306.996
306.979
306.961
306.944
306.926
306.908
306.89
306.873
306.855
306.839
306.822
306.807
306.792
306.781
307.141
307.129
307.117
307.106
307.095
307.086
307.076
307.067
307.057
307.047
307.036
307.025
307.014
307.004
307.113
307.103
307.09
307.079
307.067
307.057
307.046
307.035
307.025
307.013
307.002
306.99
306.978
306.965
307.085
307.075
307.061
307.05
307.038
307.026
307.015
307.004
306.993
306.981
306.969
306.957
306.945
306.932
307.057
307.047
307.033
307.02
307.008
306.996
306.984
306.972
306.96
306.948
306.936
306.924
306.912
306.898
307.029
307.017
307.003
306.99
306.977
306.965
306.953
306.94
306.928
306.916
306.904
306.891
306.879
306.866
306.999
306.986
306.972
306.959
306.946
306.933
306.921
306.908
306.896
306.883
306.871
306.859
306.847
306.834
306.969
306.955
306.941
306.927
306.914
306.901
306.888
306.876
306.863
306.851
306.839
306.827
306.815
306.804
306.937
306.922
306.909
306.895
306.881
306.868
306.855
306.843
306.83
306.818
306.806
306.795
306.784
306.773
306.905
306.89
306.876
306.862
306.848
306.835
306.822
306.81
306.798
306.786
306.774
306.764
306.753
306.744
306.871
306.856
306.842
306.828
306.815
306.802
306.789
306.777
306.765
306.753
306.743
306.733
306.723
306.715
306.838
306.822
306.809
306.795
306.781
306.768
306.756
306.744
306.732
306.721
306.711
306.702
306.693
306.688
306.803
306.787
306.774
306.761
306.748
306.735
306.723
306.711
306.7
306.689
306.68
306.672
306.663
306.66
306.77
306.755
306.742
306.728
306.715
306.702
306.69
306.679
306.668
306.658
306.649
306.642
306.635
306.634
306.733
306.72
306.706
306.693
306.681
306.669
306.657
306.647
306.637
306.627
306.619
306.612
306.606
306.606
306.873
306.862
306.851
306.843
306.836
306.83
306.825
306.821
306.817
306.814
306.812
306.81
306.808
306.807
306.843
306.835
306.824
306.815
306.807
306.801
306.795
306.791
306.786
306.783
306.78
306.777
306.775
306.771
306.815
306.807
306.795
306.786
306.778
306.771
306.765
306.76
306.756
306.752
306.748
306.745
306.743
306.739
306.786
306.777
306.766
306.757
306.749
306.742
306.735
306.73
306.725
306.721
306.717
306.713
306.711
306.706
306.757
306.748
306.737
306.728
306.719
306.712
306.705
306.7
306.695
306.69
306.686
306.683
306.68
306.676
306.728
306.718
306.707
306.698
306.689
306.682
306.675
306.67
306.665
306.66
306.657
306.653
306.65
306.647
306.699
306.688
306.678
306.668
306.66
306.652
306.645
306.64
306.635
306.631
306.628
306.625
306.622
306.619
306.669
306.658
306.648
306.639
306.63
306.623
306.616
306.611
306.606
306.602
306.599
306.596
306.594
306.592
306.639
306.628
306.618
306.609
306.601
306.594
306.588
306.582
306.578
306.575
306.572
306.57
306.568
306.567
306.609
306.598
306.589
306.58
306.573
306.566
306.56
306.555
306.551
306.548
306.545
306.544
306.542
306.543
306.581
306.569
306.561
306.552
306.545
306.538
306.533
306.528
306.525
306.522
306.52
306.519
306.518
306.52
306.552
306.54
306.532
306.525
306.518
306.512
306.507
306.503
306.499
306.497
306.496
306.496
306.496
306.498
306.524
306.514
306.506
306.499
306.492
306.486
306.482
306.478
306.475
306.474
306.473
306.474
306.475
306.478
306.494
306.486
306.478
306.472
306.466
306.461
306.457
306.454
306.452
306.451
306.451
306.452
306.453
306.456
306.573
306.568
306.563
306.559
306.557
306.555
306.555
306.556
306.558
306.561
306.565
306.57
306.577
306.583
306.546
306.543
306.538
306.535
306.533
306.531
306.531
306.532
306.534
306.537
306.541
306.545
306.551
306.555
306.522
306.519
306.514
306.511
306.508
306.507
306.507
306.508
306.51
306.512
306.516
306.52
306.526
306.529
306.497
306.494
306.49
306.487
306.484
306.483
306.483
306.484
306.486
306.489
306.492
306.496
306.501
306.504
306.474
306.471
306.466
306.463
306.46
306.459
306.459
306.46
306.462
306.465
306.468
306.472
306.477
306.481
306.451
306.447
306.443
306.439
306.437
306.436
306.436
306.437
306.439
306.442
306.446
306.45
306.454
306.458
306.429
306.424
306.42
306.417
306.414
306.413
306.414
306.415
306.417
306.42
306.424
306.428
306.433
306.437
306.406
306.401
306.398
306.395
306.393
306.392
306.392
306.393
306.396
306.399
306.403
306.407
306.412
306.417
306.385
306.38
306.376
306.373
306.372
306.371
306.372
306.373
306.376
306.379
306.383
306.388
306.393
306.398
306.363
306.359
306.356
306.353
306.352
306.352
306.352
306.354
306.357
306.36
306.365
306.37
306.375
306.381
306.343
306.338
306.336
306.334
306.333
306.333
306.334
306.336
306.339
306.343
306.348
306.353
306.358
306.365
306.324
306.319
306.317
306.316
306.315
306.316
306.317
306.32
306.323
306.327
306.332
306.337
306.343
306.349
306.305
306.3
306.299
306.298
306.298
306.299
306.301
306.304
306.308
306.313
306.318
306.323
306.329
306.337
306.286
306.283
306.281
306.281
306.282
306.284
306.286
306.29
306.294
306.299
306.304
306.31
306.316
306.324
306.254
306.256
306.258
306.26
306.263
306.267
306.272
306.277
306.283
306.29
306.298
306.307
306.317
306.328
306.238
306.24
306.242
306.245
306.248
306.252
306.257
306.263
306.269
306.277
306.285
306.294
306.303
306.312
306.223
306.225
306.227
306.23
306.233
306.238
306.243
306.248
306.255
306.262
306.27
306.279
306.288
306.297
306.208
306.21
306.212
306.215
306.219
306.223
306.228
306.234
306.241
306.248
306.257
306.265
306.274
306.283
306.193
306.196
306.198
306.201
306.204
306.209
306.214
306.22
306.227
306.234
306.243
306.251
306.261
306.269
306.18
306.182
306.184
306.187
306.191
306.195
306.2
306.206
306.213
306.221
306.229
306.238
306.247
306.256
306.166
306.168
306.171
306.174
306.177
306.182
306.187
306.194
306.2
306.208
306.216
306.225
306.234
306.243
306.153
306.155
306.158
306.161
306.165
306.17
306.175
306.182
306.189
306.196
306.204
306.213
306.222
306.231
306.141
306.143
306.146
306.15
306.154
306.159
306.164
306.171
306.178
306.185
306.193
306.202
306.21
306.219
306.13
306.132
306.136
306.139
306.144
306.149
306.154
306.161
306.168
306.175
306.183
306.192
306.2
306.209
306.119
306.122
306.125
306.129
306.134
306.139
306.145
306.152
306.159
306.166
306.174
306.182
306.191
306.199
306.109
306.112
306.116
306.12
306.125
306.131
306.137
306.144
306.151
306.158
306.166
306.174
306.182
306.191
306.1
306.102
306.106
306.111
306.117
306.123
306.129
306.137
306.144
306.152
306.159
306.168
306.176
306.184
306.091
306.094
306.098
306.103
306.109
306.116
306.122
306.129
306.137
306.145
306.153
306.161
306.169
306.177
305.922
305.93
305.937
305.945
305.953
305.96
305.968
305.976
305.984
305.993
306.002
306.012
306.021
306.032
305.917
305.925
305.933
305.94
305.948
305.956
305.964
305.973
305.981
305.99
306
306.01
306.02
306.03
305.913
305.921
305.929
305.936
305.944
305.952
305.96
305.969
305.978
305.987
305.996
306.006
306.017
306.027
305.909
305.917
305.924
305.932
305.94
305.948
305.957
305.965
305.974
305.984
305.993
306.003
306.013
306.024
305.906
305.913
305.92
305.928
305.936
305.944
305.953
305.962
305.971
305.98
305.99
306
306.01
306.02
305.902
305.909
305.917
305.925
305.933
305.941
305.949
305.958
305.967
305.976
305.986
305.996
306.006
306.016
305.898
305.906
305.913
305.921
305.929
305.938
305.946
305.955
305.964
305.973
305.983
305.992
306.002
306.012
305.895
305.903
305.91
305.918
305.927
305.935
305.943
305.952
305.961
305.97
305.979
305.989
305.999
306.009
305.892
305.9
305.908
305.916
305.924
305.932
305.941
305.95
305.958
305.967
305.977
305.986
305.995
306.005
305.89
305.897
305.905
305.913
305.922
305.93
305.939
305.948
305.956
305.965
305.974
305.983
305.992
306.001
305.887
305.895
305.903
305.911
305.92
305.929
305.937
305.946
305.954
305.963
305.972
305.98
305.989
305.998
305.885
305.893
305.901
305.909
305.918
305.927
305.936
305.944
305.953
305.961
305.97
305.978
305.987
305.996
305.883
305.891
305.899
305.908
305.916
305.926
305.934
305.943
305.952
305.96
305.969
305.977
305.985
305.994
305.883
305.891
305.899
305.908
305.916
305.925
305.933
305.942
305.951
305.959
305.967
305.976
305.984
305.992
305.578
305.588
305.598
305.607
305.617
305.626
305.635
305.643
305.652
305.66
305.668
305.677
305.684
305.693
305.582
305.592
305.602
305.612
305.622
305.631
305.641
305.65
305.659
305.667
305.676
305.684
305.692
305.701
305.588
305.597
305.608
305.617
305.627
305.637
305.646
305.655
305.664
305.673
305.681
305.69
305.698
305.706
305.593
305.602
305.613
305.622
305.632
305.642
305.652
305.661
305.67
305.679
305.687
305.696
305.704
305.713
305.597
305.607
305.618
305.628
305.638
305.647
305.657
305.666
305.675
305.683
305.692
305.701
305.709
305.718
305.602
305.612
305.622
305.632
305.643
305.652
305.662
305.671
305.68
305.688
305.697
305.706
305.714
305.723
305.606
305.617
305.627
305.637
305.647
305.657
305.666
305.675
305.684
305.693
305.701
305.71
305.718
305.727
305.611
305.621
305.631
305.642
305.652
305.661
305.671
305.68
305.689
305.697
305.706
305.714
305.722
305.73
305.615
305.625
305.636
305.646
305.656
305.666
305.675
305.684
305.693
305.701
305.709
305.717
305.725
305.733
305.619
305.63
305.64
305.65
305.66
305.67
305.679
305.688
305.696
305.705
305.713
305.72
305.728
305.736
305.623
305.634
305.643
305.654
305.664
305.673
305.682
305.691
305.7
305.708
305.716
305.723
305.731
305.738
305.627
305.638
305.647
305.658
305.667
305.677
305.686
305.695
305.703
305.711
305.719
305.726
305.734
305.741
305.631
305.642
305.651
305.661
305.671
305.68
305.689
305.698
305.706
305.714
305.722
305.729
305.736
305.743
305.636
305.647
305.656
305.666
305.675
305.684
305.693
305.701
305.709
305.717
305.724
305.731
305.739
305.746
305.227
305.235
305.245
305.253
305.262
305.27
305.278
305.285
305.292
305.299
305.305
305.31
305.315
305.322
305.237
305.245
305.254
305.263
305.272
305.281
305.289
305.297
305.304
305.31
305.317
305.322
305.327
305.334
305.247
305.255
305.265
305.274
305.283
305.292
305.3
305.307
305.315
305.321
305.327
305.333
305.338
305.344
305.256
305.265
305.275
305.284
305.294
305.302
305.311
305.318
305.325
305.332
305.338
305.344
305.35
305.355
305.266
305.275
305.285
305.295
305.304
305.313
305.321
305.329
305.336
305.342
305.348
305.354
305.36
305.365
305.275
305.285
305.295
305.304
305.314
305.322
305.331
305.338
305.346
305.352
305.358
305.364
305.37
305.375
305.284
305.294
305.304
305.314
305.323
305.332
305.34
305.348
305.355
305.361
305.368
305.373
305.379
305.384
305.293
305.303
305.313
305.323
305.332
305.341
305.349
305.356
305.364
305.37
305.376
305.382
305.388
305.393
305.301
305.312
305.321
305.331
305.34
305.349
305.357
305.364
305.371
305.378
305.384
305.39
305.396
305.401
305.309
305.32
305.329
305.339
305.348
305.356
305.364
305.372
305.379
305.385
305.391
305.397
305.403
305.408
305.317
305.327
305.337
305.346
305.355
305.363
305.371
305.379
305.386
305.392
305.398
305.404
305.409
305.414
305.325
305.335
305.344
305.353
305.362
305.37
305.378
305.385
305.392
305.398
305.404
305.41
305.415
305.42
305.332
305.342
305.351
305.36
305.369
305.377
305.384
305.391
305.398
305.404
305.41
305.415
305.421
305.426
305.34
305.35
305.359
305.368
305.376
305.383
305.39
305.397
305.403
305.409
305.415
305.42
305.426
305.431
304.884
304.889
304.895
304.901
304.907
304.913
304.918
304.923
304.927
304.931
304.934
304.938
304.94
304.944
304.894
304.899
304.906
304.912
304.918
304.924
304.929
304.934
304.939
304.943
304.946
304.949
304.952
304.956
304.905
304.91
304.917
304.923
304.93
304.935
304.941
304.946
304.95
304.954
304.957
304.96
304.963
304.966
304.915
304.921
304.928
304.934
304.941
304.946
304.952
304.957
304.961
304.965
304.969
304.972
304.975
304.978
304.925
304.931
304.938
304.945
304.951
304.957
304.963
304.968
304.972
304.976
304.98
304.983
304.985
304.988
304.935
304.942
304.949
304.955
304.962
304.968
304.973
304.978
304.983
304.987
304.991
304.994
304.996
304.999
304.944
304.952
304.959
304.966
304.972
304.978
304.983
304.989
304.993
304.997
305.001
305.004
305.007
305.009
304.954
304.961
304.968
304.975
304.982
304.988
304.993
304.998
305.003
305.007
305.01
305.014
305.016
305.018
304.963
304.971
304.978
304.984
304.991
304.997
305.002
305.007
305.012
305.016
305.019
305.023
305.025
305.028
304.972
304.98
304.986
304.993
304.999
305.005
305.011
305.016
305.02
305.024
305.028
305.031
305.034
305.036
304.981
304.988
304.995
305.002
305.008
305.013
305.019
305.024
305.028
305.032
305.036
305.039
305.042
305.044
304.989
304.997
305.003
305.01
305.016
305.021
305.026
305.031
305.035
305.039
305.043
305.046
305.049
305.052
304.997
305.005
305.011
305.017
305.023
305.028
305.033
305.038
305.042
305.046
305.049
305.053
305.056
305.058
305.006
305.013
305.019
305.025
305.03
305.035
305.04
305.044
305.048
305.052
305.055
305.059
305.062
305.065
304.562
304.564
304.567
304.57
304.572
304.575
304.577
304.579
304.581
304.583
304.584
304.585
304.585
304.587
304.57
304.572
304.575
304.578
304.581
304.583
304.586
304.588
304.59
304.591
304.592
304.593
304.594
304.595
304.578
304.58
304.583
304.586
304.589
304.592
304.594
304.596
304.598
304.599
304.601
304.601
304.602
304.603
304.586
304.588
304.592
304.595
304.597
304.6
304.602
304.605
304.606
304.608
304.609
304.61
304.61
304.611
304.593
304.596
304.6
304.603
304.606
304.608
304.611
304.613
304.615
304.616
304.617
304.618
304.619
304.619
304.601
304.604
304.608
304.611
304.614
304.616
304.619
304.621
304.623
304.624
304.625
304.626
304.627
304.627
304.608
304.612
304.615
304.619
304.622
304.624
304.627
304.629
304.631
304.632
304.633
304.634
304.635
304.635
304.616
304.62
304.623
304.626
304.629
304.632
304.634
304.636
304.638
304.64
304.641
304.642
304.643
304.643
304.623
304.627
304.63
304.634
304.637
304.639
304.642
304.644
304.646
304.647
304.648
304.649
304.65
304.65
304.63
304.634
304.638
304.641
304.644
304.646
304.649
304.651
304.653
304.654
304.655
304.656
304.657
304.657
304.637
304.641
304.644
304.648
304.65
304.653
304.655
304.657
304.659
304.661
304.662
304.663
304.664
304.664
304.644
304.648
304.651
304.654
304.657
304.659
304.662
304.664
304.665
304.667
304.668
304.669
304.67
304.67
304.65
304.654
304.657
304.66
304.663
304.665
304.668
304.669
304.671
304.673
304.674
304.675
304.676
304.676
304.657
304.661
304.664
304.666
304.669
304.671
304.673
304.675
304.676
304.678
304.679
304.68
304.681
304.682
304.263
304.263
304.264
304.264
304.264
304.264
304.264
304.264
304.264
304.264
304.264
304.263
304.263
304.262
304.268
304.268
304.268
304.269
304.269
304.269
304.269
304.269
304.269
304.269
304.268
304.268
304.267
304.267
304.272
304.272
304.273
304.273
304.274
304.274
304.274
304.274
304.274
304.273
304.273
304.272
304.271
304.271
304.277
304.277
304.278
304.278
304.278
304.278
304.278
304.278
304.278
304.278
304.277
304.277
304.276
304.275
304.281
304.282
304.282
304.283
304.283
304.283
304.283
304.283
304.283
304.282
304.282
304.281
304.28
304.28
304.286
304.286
304.287
304.287
304.287
304.288
304.288
304.288
304.287
304.287
304.286
304.286
304.285
304.284
304.29
304.291
304.291
304.292
304.292
304.292
304.292
304.292
304.292
304.291
304.291
304.29
304.289
304.288
304.294
304.295
304.296
304.296
304.296
304.297
304.297
304.297
304.296
304.296
304.295
304.295
304.294
304.293
304.298
304.299
304.3
304.3
304.301
304.301
304.301
304.301
304.301
304.3
304.3
304.299
304.298
304.297
304.303
304.304
304.304
304.305
304.305
304.305
304.305
304.305
304.305
304.304
304.304
304.303
304.302
304.301
304.306
304.308
304.308
304.309
304.309
304.309
304.309
304.309
304.309
304.308
304.308
304.307
304.306
304.305
304.31
304.311
304.312
304.312
304.313
304.313
304.313
304.313
304.312
304.312
304.311
304.311
304.31
304.308
304.314
304.315
304.315
304.316
304.316
304.316
304.316
304.316
304.316
304.315
304.315
304.314
304.313
304.312
304.317
304.318
304.318
304.319
304.319
304.319
304.319
304.319
304.319
304.318
304.318
304.317
304.317
304.315
303.98
303.979
303.979
303.978
303.977
303.976
303.975
303.974
303.973
303.972
303.971
303.969
303.968
303.967
303.982
303.982
303.981
303.98
303.979
303.978
303.977
303.976
303.975
303.974
303.973
303.971
303.97
303.968
303.984
303.983
303.983
303.982
303.981
303.98
303.979
303.978
303.977
303.976
303.974
303.973
303.971
303.97
303.986
303.985
303.985
303.984
303.983
303.982
303.981
303.98
303.979
303.977
303.976
303.975
303.973
303.971
303.988
303.987
303.987
303.986
303.985
303.984
303.983
303.981
303.98
303.979
303.978
303.976
303.975
303.973
303.99
303.989
303.988
303.987
303.986
303.985
303.984
303.983
303.982
303.981
303.979
303.978
303.976
303.974
303.991
303.991
303.99
303.989
303.988
303.987
303.986
303.985
303.983
303.982
303.981
303.979
303.978
303.976
303.993
303.992
303.992
303.991
303.99
303.989
303.988
303.986
303.985
303.984
303.982
303.981
303.979
303.977
303.994
303.994
303.993
303.992
303.991
303.99
303.989
303.988
303.986
303.985
303.984
303.982
303.98
303.978
303.995
303.995
303.994
303.993
303.992
303.991
303.99
303.989
303.988
303.986
303.985
303.983
303.982
303.98
303.996
303.996
303.995
303.994
303.994
303.993
303.992
303.99
303.989
303.988
303.986
303.985
303.983
303.981
303.997
303.997
303.996
303.995
303.995
303.994
303.993
303.991
303.99
303.989
303.987
303.986
303.984
303.982
303.998
303.997
303.997
303.996
303.995
303.994
303.993
303.992
303.991
303.99
303.988
303.987
303.985
303.983
303.998
303.997
303.997
303.996
303.996
303.995
303.994
303.993
303.992
303.99
303.989
303.987
303.986
303.983
303.706
303.706
303.705
303.705
303.704
303.703
303.702
303.701
303.699
303.698
303.696
303.695
303.693
303.691
303.707
303.707
303.706
303.706
303.705
303.704
303.703
303.701
303.7
303.698
303.697
303.695
303.693
303.691
303.708
303.708
303.707
303.706
303.705
303.704
303.703
303.702
303.7
303.699
303.697
303.696
303.694
303.692
303.708
303.708
303.707
303.707
303.706
303.705
303.704
303.702
303.701
303.699
303.698
303.696
303.694
303.692
303.709
303.708
303.708
303.707
303.706
303.705
303.704
303.702
303.701
303.7
303.698
303.696
303.694
303.692
303.709
303.709
303.708
303.707
303.706
303.705
303.704
303.703
303.701
303.7
303.698
303.696
303.694
303.692
303.709
303.708
303.708
303.707
303.706
303.705
303.704
303.702
303.701
303.699
303.698
303.696
303.694
303.692
303.709
303.708
303.708
303.707
303.706
303.705
303.704
303.702
303.701
303.699
303.697
303.696
303.694
303.691
303.708
303.708
303.707
303.706
303.705
303.704
303.703
303.702
303.7
303.699
303.697
303.695
303.693
303.691
303.708
303.707
303.707
303.706
303.705
303.704
303.703
303.701
303.7
303.698
303.697
303.695
303.693
303.69
303.707
303.706
303.706
303.705
303.704
303.703
303.702
303.701
303.699
303.698
303.696
303.694
303.692
303.69
303.706
303.705
303.705
303.704
303.703
303.702
303.701
303.7
303.699
303.697
303.695
303.693
303.691
303.689
303.704
303.704
303.703
303.703
303.702
303.701
303.7
303.699
303.698
303.696
303.694
303.692
303.69
303.688
303.703
303.702
303.702
303.701
303.7
303.7
303.699
303.698
303.697
303.695
303.694
303.692
303.69
303.687
303.442
303.442
303.442
303.442
303.442
303.441
303.44
303.439
303.438
303.437
303.436
303.434
303.432
303.43
303.442
303.442
303.443
303.443
303.442
303.442
303.441
303.44
303.439
303.437
303.436
303.434
303.433
303.431
303.443
303.443
303.443
303.443
303.443
303.442
303.441
303.44
303.439
303.438
303.436
303.435
303.433
303.431
303.443
303.443
303.443
303.443
303.443
303.442
303.441
303.44
303.439
303.438
303.436
303.435
303.433
303.431
303.443
303.443
303.443
303.443
303.442
303.442
303.441
303.44
303.439
303.438
303.436
303.434
303.433
303.431
303.442
303.442
303.443
303.442
303.442
303.442
303.441
303.44
303.439
303.437
303.436
303.434
303.432
303.43
303.442
303.442
303.442
303.442
303.441
303.441
303.44
303.439
303.438
303.437
303.435
303.433
303.431
303.429
303.441
303.441
303.441
303.441
303.441
303.44
303.439
303.438
303.437
303.436
303.434
303.432
303.431
303.428
303.44
303.44
303.44
303.44
303.439
303.439
303.438
303.437
303.436
303.435
303.433
303.431
303.429
303.427
303.438
303.438
303.438
303.438
303.438
303.438
303.437
303.436
303.435
303.434
303.432
303.43
303.428
303.426
303.437
303.437
303.437
303.437
303.437
303.436
303.435
303.435
303.433
303.432
303.431
303.429
303.427
303.425
303.435
303.435
303.435
303.435
303.435
303.434
303.434
303.433
303.432
303.431
303.429
303.427
303.425
303.423
303.433
303.433
303.433
303.433
303.433
303.433
303.432
303.431
303.43
303.429
303.427
303.426
303.424
303.421
303.43
303.43
303.431
303.431
303.431
303.43
303.43
303.429
303.428
303.427
303.426
303.424
303.422
303.42
303.19
303.191
303.192
303.192
303.192
303.192
303.192
303.192
303.191
303.19
303.189
303.187
303.186
303.184
303.191
303.192
303.192
303.193
303.193
303.193
303.193
303.192
303.191
303.19
303.189
303.188
303.186
303.185
303.191
303.192
303.193
303.193
303.193
303.193
303.193
303.193
303.192
303.191
303.19
303.188
303.187
303.185
303.192
303.192
303.193
303.193
303.194
303.194
303.193
303.193
303.192
303.191
303.19
303.189
303.187
303.186
303.192
303.192
303.193
303.193
303.194
303.194
303.193
303.193
303.192
303.191
303.19
303.189
303.187
303.185
303.191
303.192
303.193
303.193
303.193
303.193
303.193
303.193
303.192
303.191
303.19
303.188
303.187
303.185
303.191
303.191
303.192
303.192
303.193
303.193
303.192
303.192
303.191
303.19
303.189
303.188
303.186
303.185
303.19
303.191
303.191
303.192
303.192
303.192
303.192
303.191
303.191
303.19
303.188
303.187
303.186
303.184
303.189
303.19
303.19
303.191
303.191
303.191
303.191
303.19
303.19
303.189
303.187
303.186
303.185
303.183
303.188
303.188
303.189
303.189
303.19
303.19
303.19
303.189
303.188
303.187
303.186
303.185
303.183
303.182
303.186
303.187
303.187
303.188
303.188
303.188
303.188
303.188
303.187
303.186
303.185
303.184
303.182
303.18
303.185
303.185
303.186
303.186
303.187
303.187
303.187
303.186
303.185
303.185
303.183
303.182
303.18
303.179
303.183
303.183
303.184
303.184
303.185
303.185
303.185
303.184
303.184
303.183
303.182
303.18
303.179
303.177
303.181
303.181
303.182
303.183
303.183
303.183
303.183
303.183
303.182
303.181
303.18
303.179
303.177
303.176
302.958
302.959
302.96
302.96
302.961
302.961
302.961
302.96
302.96
302.96
302.959
302.958
302.959
302.959
302.96
302.961
302.961
302.961
302.961
302.961
302.961
302.96
302.959
302.959
302.959
302.96
302.96
302.961
302.961
302.961
302.961
302.961
302.961
302.96
302.96
302.959
302.959
302.96
302.961
302.961
302.961
302.962
302.962
302.961
302.961
302.961
302.96
302.959
302.959
302.96
302.961
302.961
302.961
302.962
302.962
302.962
302.961
302.961
302.96
302.959
302.959
302.96
302.96
302.961
302.961
302.962
302.962
302.961
302.961
302.961
302.96
302.959
302.959
302.96
302.96
302.961
302.961
302.961
302.961
302.961
302.961
302.96
302.96
302.959
302.958
302.959
302.96
302.96
302.961
302.961
302.961
302.961
302.96
302.96
302.959
302.959
302.958
302.959
302.959
302.96
302.96
302.96
302.96
302.96
302.96
302.959
302.959
302.958
302.957
302.958
302.958
302.959
302.959
302.96
302.96
302.959
302.959
302.959
302.958
302.957
302.956
302.957
302.958
302.958
302.958
302.959
302.959
302.958
302.958
302.958
302.957
302.956
302.955
302.956
302.957
302.957
302.957
302.958
302.958
302.957
302.957
302.957
302.956
302.955
302.954
302.955
302.955
302.956
302.956
302.957
302.957
302.956
302.956
302.956
302.955
302.954
302.953
302.954
302.954
302.955
302.955
302.955
302.955
302.955
302.955
302.954
302.954
302.953
307.647
307.65
307.652
307.656
307.66
307.665
307.638
307.643
307.648
307.655
307.663
307.671
307.629
307.633
307.64
307.648
307.659
307.669
307.617
307.62
307.626
307.634
307.645
307.656
307.644
307.652
307.66
307.668
307.676
307.684
307.638
307.649
307.661
307.674
307.686
307.699
307.631
307.644
307.659
307.674
307.69
307.707
307.62
307.634
307.65
307.668
307.686
307.705
307.607
307.621
307.636
307.653
307.671
307.69
307.592
307.603
307.617
307.631
307.647
307.663
307.575
307.583
307.593
307.604
307.615
307.627
307.613
307.624
307.634
307.644
307.653
307.662
307.608
307.623
307.637
307.652
307.666
307.68
307.602
307.619
307.638
307.656
307.675
307.692