/*--------------------------------*- C++ -*----------------------------------*\
| =========                 |                                                 |
| \\      /  F ield         | OpenFOAM: The Open Source CFD Toolbox           |
|  \\    /   O peration     | Version:  v2106                                 |
|   \\  /    A nd           | Website:  www.openfoam.com                      |
|    \\/     M anipulation  |                                                 |
\*---------------------------------------------------------------------------*/
FoamFile
{
    version     2.0;
    format      ascii;
    arch        "LSB;label=32;scalar=64";
    class       volScalarField;
    location    "0.00015";
    object      p;
}
// * * * * * * * * * * * * * * * * * * * * * * * * * * * * * * * * * * * * * //

dimensions      [1 -1 -2 0 0 0 0];

internalField   nonuniform List<scalar> 
144746
(
200420
200138
199973
199842
199996
200261
200556
200925
201040
201302
201391
201251
201043
200668
200099
199801
199769
199885
200093
200374
200668
200964
201141
201278
201360
201178
200918
200590
200278
199989
199980
200092
200299
200542
200825
201037
201172
201253
201263
201078
200774
200491
200220
200012
200025
200191
200430
200644
200907
201089
201227
201284
201264
201100
200757
200384
200222
200076
200079
200224
200469
200739
201007
201166
201263
201283
201305
201085
200838
200489
200062
199874
199914
200123
200368
200651
200893
201096
201235
201288
201261
201119
200931
200588
199870
199818
199814
199965
200220
200548
200853
201075
201223
201293
201283
201190
201085
200778
199493
199356
199402
199650
199967
200359
200724
200980
201170
201267
201295
201228
201221
200914
198997
198942
199036
199329
199783
200232
200618
200885
201084
201170
201226
201194
201321
201091
198655
198494
198650
198972
199520
200010
200459
200730
200944
201051
201190
201171
201382
201173
198424
198183
198419
198786
199429
199942
200435
200654
200834
200851
200993
200953
201211
201115
198477
198116
198356
198765
199439
199930
200413
200553
200693
200652
200751
200697
200936
200839
198874
198515
198732
199081
199723
200202
200611
200647
200634
200432
200364
200303
200537
200556
199282
199013
199198
199525
200072
200439
200676
200692
200496
200288
200176
200158
200269
200186
202060
202083
201486
201007
200819
200930
200931
200607
200240
199885
199496
199523
199531
200215
200696
200946
200722
200689
200753
200980
201006
200838
200514
200279
199986
199904
199869
200403
200366
200476
200395
200557
200780
200947
201001
200897
200705
200467
200248
200001
199951
200300
199738
199987
200214
200484
200720
200852
200951
200931
200804
200610
200412
200188
200106
200017
199570
199857
200117
200309
200569
200723
200851
200864
200772
200641
200496
200342
200224
200101
199302
199571
199848
200100
200350
200511
200663
200724
200712
200616
200513
200375
200279
200171
199039
199382
199689
199877
200130
200323
200485
200570
200581
200524
200458
200313
200147
199866
198823
199039
199338
199658
199850
200057
200216
200334
200392
200369
200326
200180
199992
199704
198628
198723
198933
199272
199539
199815
199984
200139
200185
200134
200043
199871
199693
199224
198569
198429
198499
198859
199149
199456
199690
199856
199913
199847
199761
199550
199426
198876
198855
198481
198409
198521
198827
199141
199430
199617
199660
199522
199383
199101
199132
198658
199357
198500
198314
198149
198472
198787
199097
199330
199406
199306
199256
199093
199307
198959
200199
199161
198758
198282
198410
198677
198876
199125
199254
199264
199219
199165
199404
199115
200616
199449
198806
198344
198366
198514
198683
198954
199096
199268
199348
199609
199842
199692
200469
201296
201463
202162
202693
202809
202532
202062
201321
200339
199133
198370
197542
198112
198875
200121
200898
202003
202655
202826
202839
202460
201862
201251
200373
199841
199086
199386
198853
200093
200974
201937
202491
202764
202863
202655
202322
201799
201228
200709
200198
200283
198523
199805
200854
201732
202213
202595
202797
202757
202566
202253
201896
201515
201198
201047
198581
199744
200700
201510
202015
202434
202699
202754
202680
202493
202270
202042
201859
201724
198716
199752
200655
201291
201764
202194
202460
202587
202641
202589
202478
202325
202069
201772
199104
199948
200599
201146
201602
201976
202275
202425
202487
202461
202366
202201
201967
201555
199401
199979
200421
200896
201280
201640
201957
202137
202220
202203
202067
201828
201478
200941
199549
199902
200162
200558
200962
201302
201587
201783
201841
201765
201510
201146
200683
200172
199364
199351
199719
200090
200439
200820
201129
201393
201454
201352
201086
200625
199988
199032
199043
198730
198978
199397
199780
200237
200590
200932
201013
200799
200370
199684
199050
197854
198676
197853
198019
198357
198872
199442
199985
200426
200653
200479
200019
199249
198721
197283
198914
197734
197667
197629
198028
198550
199244
199802
200247
200128
199654
198829
198243
196954
198275
196971
196663
196565
196977
197615
198460
199209
199671
199959
199652
199222
198782
197821
200788
201064
200880
200943
201097
201568
200015
199996
200163
200294
200434
201004
200025
199880
199903
200028
200158
200657
199921
199700
199675
199754
199933
200282
200104
199796
199769
199781
199904
200089
200315
199957
199944
199858
199984
200228
200661
200299
200348
200256
200456
200719
200943
200628
200842
200795
201043
201220
201289
201120
201401
201324
201537
201633
201456
201308
201619
201520
201703
201776
201458
201330
201633
201540
201710
201823
201235
201046
201337
201298
201547
201829
201029
200881
201128
201120
201369
201669
200556
200378
200819
200896
201133
201550
201183
201717
202049
202702
203128
203980
199973
200656
201420
202183
202942
203834
200228
200640
201333
202012
202814
203614
199858
200132
200756
201295
202068
202738
200015
200047
200422
200635
201215
201455
200077
199790
199919
199791
200321
200218
199696
199139
199236
198799
199363
199053
199532
198680
198802
198119
198683
198162
199079
198275
198470
197904
198518
198285
198903
198253
198699
198452
199083
199151
198993
198767
199408
199369
200134
200370
199509
199369
200082
200352
201225
201641
200055
200180
201036
201402
202205
202625
200371
200532
201434
201986
202780
203416
199275
199638
199848
200405
201161
202681
198657
198967
199531
200296
201270
202575
200013
199884
200277
200439
201053
201710
200779
200380
200441
199901
199873
199244
201513
200870
200474
199159
198518
196216
201300
200589
199814
197964
196869
192647
201006
199902
198920
196701
195379
189818
200265
198970
197885
195509
194475
187838
199344
197648
196655
194329
193816
187363
198226
196439
195769
193827
193718
188506
197355
195846
195539
194249
194514
191216
197022
195825
195909
195528
196330
194983
197666
197039
197510
197697
198716
198775
197829
197565
198550
199330
200553
201366
200368
200446
200468
200727
200854
201280
199923
200151
200282
200434
200592
201035
199959
200012
200201
200367
200566
200899
200096
200131
200382
200535
200792
201045
200397
200434
200767
200936
201288
201601
200674
200764
201276
201574
201960
202398
201016
201275
201882
202186
202558
203100
201086
201475
202185
202636
203024
203562
201001
201560
202329
202901
203353
203858
200711
201373
202173
202902
203490
204039
200274
201006
201869
202718
203393
204040
200208
200884
201670
202476
203249
203911
200049
200688
201394
202205
202923
203548
200340
200996
201598
202342
202941
203645
200754
201278
201838
202505
202939
203552
199829
200642
201418
202085
202802
203451
199777
200329
201153
201729
202493
203122
199451
199876
200607
201047
201857
202179
199420
199531
200120
200382
201306
201639
199038
199065
199699
200015
200944
201418
198908
198916
199462
199896
200683
201629
198702
198947
199572
200361
200979
202489
198710
199226
199882
201106
201885
203589
198827
199589
200398
201977
203139
204619
199140
200090
201212
202922
204240
205824
199896
200905
202223
203979
205428
206811
200821
201836
203150
204797
206177
207423
201797
202997
204268
205836
207019
208291
199311
199773
200207
200813
201479
202606
198637
199264
199964
200471
201227
202016
199400
199572
200079
200082
200562
200749
199618
199455
199681
199334
199625
198478
199839
199320
199331
198857
199013
197064
199274
198753
198685
198024
198342
196133
198722
198009
197929
197405
197992
196237
197736
196952
197022
197017
197951
197241
196797
196124
196465
197341
198390
199885
196302
196209
197029
198598
199910
202769
196296
196760
197894
199915
201417
205816
196777
197501
199054
201639
203454
207189
198023
198892
200597
203241
205198
208638
198725
199975
202123
204929
206857
209956
203644
202951
202366
201545
201042
200647
203670
203067
202486
201772
201246
200725
203827
203134
202602
201818
201322
200673
203953
203223
202732
201877
201339
200595
203790
203115
202667
201839
201279
200557
203634
202972
202571
201753
201129
200410
203342
202609
202216
201433
200769
200123
203089
202381
201930
201098
200351
199870
202539
201865
201309
200555
199815
199295
202123
201507
200963
200259
199532
198924
201882
201340
200814
200078
199330
198583
202042
201479
201016
200239
199560
198659
202382
201733
201298
200568
199885
198791
202692
202170
201942
201144
200790
199891
208209
206762
205859
204044
203110
202234
207334
205831
204823
203194
202258
201367
206203
204539
203591
201935
201278
200617
205140
203330
202520
200919
200434
199825
204114
202205
201495
200081
199801
199418
203170
201173
200745
199576
199306
199087
202230
200449
200023
199158
198905
198911
201726
200517
199930
199234
198791
198832
201660
200920
200092
199441
198880
198772
202541
201919
200964
200255
199481
198879
203724
202968
201992
201030
200039
199103
205008
204287
203480
202323
201198
199857
206537
205393
204440
203073
201874
200174
206862
206038
205563
204330
203592
202151
209912
206560
204970
202095
200632
199742
209180
204491
203011
200842
199774
199196
206506
202308
201067
199094
198378
198188
204012
200364
199396
197931
197518
197660
201210
198723
197843
196855
196790
197541
198745
197527
196855
196410
196648
197730
196779
197243
196538
196811
197162
198299
196546
197577
197095
197759
198017
198861
197106
198309
197897
198560
198575
199202
198593
199622
199166
199529
199288
199359
200714
201017
200271
199999
199340
199013
203687
202931
201873
200947
199802
198826
206465
204647
203182
201416
199874
198376
208358
206258
205251
203552
202521
200719
201984
201444
201203
200905
200435
200541
202288
201902
201689
201583
201339
201351
202470
202106
201924
201816
201549
201477
202607
202337
202156
202019
201722
201596
202636
202375
202140
201997
201652
201505
202592
202350
202008
201747
201301
201165
202548
202087
201664
201351
201015
201017
202330
201854
201416
201015
200687
200554
202062
201478
201067
200646
200335
200197
202165
201588
201195
200606
200208
199898
202375
201564
201062
200410
200024
199550
202672
201834
201417
200699
200354
199715
202935
202059
201590
200864
200451
199480
203272
202581
202397
201671
201506
200802
203191
202433
201605
200863
200076
199860
202432
201891
201173
200719
200099
200027
201535
200908
200147
199971
199567
199664
200669
200168
199559
199482
199108
199414
199798
199598
198955
199110
198876
199586
199232
199439
198781
199211
199170
200015
199372
199793
199175
199645
199627
200458
200696
200794
200168
200450
200488
200789
202047
201899
201296
201165
200897
200888
203954
203465
202756
202144
201461
200968
205395
204523
203667
202706
201869
201061
207144
205979
204991
203683
202770
201622
207802
206471
205487
204026
203009
201494
208449
207177
206628
205323
204705
203389
200204
199315
197991
197109
196414
196880
197392
197382
196454
196471
196433
197444
193183
194839
194295
195124
195557
197289
189685
193515
193472
195189
196043
198103
187539
193028
193375
195740
196922
199140
186939
193395
194320
197033
198460
200389
188041
194428
195886
198597
199966
201371
190667
196004
197475
199752
200907
202040
194056
198120
199271
201130
201922
202633
198614
200675
201108
202113
202222
202600
202701
202915
202487
202410
201896
201917
206373
205198
203962
202811
201852
201229
208502
206380
204745
202799
201560
200278
210981
207718
206542
204749
203801
202294
201912
204058
205000
206170
207142
207533
207556
207004
206137
204819
203205
201872
200686
201015
199955
202401
203793
205397
206300
207050
207237
206933
206334
205520
204445
203617
202697
202974
199965
202032
203442
204861
205867
206528
206839
206796
206499
205948
205226
204608
204267
204463
199863
201644
203230
204518
205408
206067
206437
206559
206496
206241
205964
205648
205466
205406
200412
201765
202969
204145
205049
205696
206136
206352
206438
206475
206383
206357
206333
206456
201111
202235
203265
204008
204728
205292
205724
205993
206186
206420
206537
206708
206900
207058
202051
202830
203479
204038
204534
205009
205446
205714
205983
206236
206375
206557
206715
206811
202718
203118
203491
203886
204256
204665
205125
205403
205710
205927
206003
206106
206117
206098
202936
203041
203237
203567
203940
204316
204777
205049
205338
205464
205452
205315
205028
204884
202841
202695
202727
203043
203385
203825
204324
204684
204972
205070
205004
204693
204339
203762
202599
202110
202089
202337
202685
203258
203775
204278
204555
204552
204306
203627
202967
201992
201949
200943
200912
201093
201605
202392
203068
203746
204157
204149
203835
202998
202337
200839
201903
200355
200029
199861
200430
201327
202496
203116
203710
203829
203348
202365
201589
199932
200308
198390
198003
198109
199133
200336
201809
202683
203228
203655
203153
202619
201938
200618
202698
205424
206924
208417
209575
210166
210419
210078
209276
208288
206513
204936
203654
203322
201283
204056
205972
207459
208689
209367
209712
209557
209069
208462
207381
206554
205749
205674
201606
203905
205536
207005
208054
208699
209072
209154
208979
208630
208023
207451
207168
207357
201948
203830
205232
206577
207486
208144
208526
208727
208757
208617
208483
208323
208356
208483
202740
204082
205160
206290
207123
207739
208172
208442
208609
208728
208855
208969
209242
209668
203897
204776
205579
206219
206864
207359
207784
208104
208377
208670
208918
209256
209718
210288
204979
205408
205818
206288
206731
207121
207531
207857
208190
208518
208796
209189
209618
210184
205807
205878
205971
206236
206550
206886
207307
207623
207987
208291
208519
208825
209077
209524
206026
205864
205865
206046
206303
206634
207067
207373
207731
207971
208124
208241
208290
208493
205786
205473
205462
205625
205896
206281
206777
207129
207490
207683
207727
207608
207413
207235
205251
204646
204760
204917
205244
205744
206327
206802
207190
207333
207232
206824
206348
205576
204291
203391
203500
203799
204334
205099
205805
206493
206960
207074
206823
206148
205400
203951
203592
202217
202182
202332
203110
204250
205330
206196
206830
206928
206614
205744
204648
202904
201125
199536
199846
200474
201763
203395
205086
205930
206749
207007
206585
205821
204659
202809
205506
208353
210080
211533
212791
213501
213940
213875
213464
212810
211716
210361
209378
208759
204623
207425
209155
210754
211869
212667
213088
213170
212982
212569
212017
211305
210912
210560
205167
207409
208858
210214
211198
211969
212430
212687
212714
212588
212413
212034
211984
212030
205920
207453
208637
209774
210694
211426
211917
212232
212404
212479
212502
212573
212732
213038
206923
207923
208850
209690
210441
211092
211598
211963
212235
212474
212703
212992
213368
213956
208181
208697
209269
209712
210303
210823
211291
211688
212046
212411
212732
213180
213681
214375
209008
209135
209443
209780
210238
210647
211082
211478
211873
212276
212632
213136
213621
214346
209733
209579
209613
209786
210121
210468
210902
211289
211699
212094
212439
212886
213244
213883
210026
209716
209601
209662
209937
210271
210714
211097
211509
211870
212175
212502
212723
213202
209762
209410
209341
209309
209584
209989
210482
210907
211343
211663
211853
211975
211964
212073
209233
208813
208782
208793
209095
209566
210169
210647
211112
211411
211548
211547
211399
211162
208173
207582
207665
207853
208379
209059
209830
210456
210991
211274
211273
211053
210692
209770
207024
206053
206327
206794
207610
208563
209516
210334
210997
211318
211136
210758
210074
208748
204276
203321
204128
205273
206662
208149
209260
210344
211130
211540
211113
210748
209746
208193
208515
210770
212736
214129
215267
216073
216512
216703
216563
216118
215547
214412
213607
212744
207976
210415
212109
213443
214486
215276
215704
215948
215969
215782
215596
215044
214711
214518
208509
210362
211758
212918
213868
214614
215117
215449
215624
215675
215682
215447
215397
215553
209431
210619
211741
212667
213469
214150
214662
215037
215307
215485
215698
215763
215988
216351
210426
211157
212019
212681
213305
213896
214385
214790
215111
215419
215730
216072
216483
217056
211587
211823
212355
212731
213202
213697
214135
214554
214937
215345
215743
216207
216704
217355
212316
212305
212574
212799
213200
213588
213983
214389
214796
215244
215678
216202
216712
217428
212952
212758
212764
212854
213138
213453
213843
214242
214664
215115
215548
216050
216486
217169
213242
212948
212784
212795
213022
213311
213710
214102
214528
214956
215363
215782
216114
216671
213100
212757
212558
212532
212775
213115
213568
213986
214435
214829
215135
215393
215610
216014
212550
212213
212080
212082
212404
212820
213344
213825
214281
214660
214942
215113
215075
215197
211546
211093
211150
211359
211893
212529
213146
213753
214249
214600
214752
214735
214503
214124
210142
209799
210135
210523
211222
212107
212859
213638
214258
214668
214712
214516
213995
213203
207725
207305
208177
209325
210531
211849
212815
213724
214424
214850
214769
214479
213592
212564
211597
213931
215494
216820
217803
218592
219060
219370
219419
219133
218736
217910
217368
216623
211756
213685
215055
216265
217201
217935
218420
218726
218883
218886
218744
218481
218265
218265
212361
213857
214967
215953
216761
217434
217957
218336
218579
218726
218771
218738
218704
218941
213325
214315
215129
215869
216527
217127
217619
218022
218324
218593
218777
218959
219136
219546
214141
214760
215354
215913
216437
216966
217425
217836
218179
218519
218811
219145
219487
220015
215012
215235
215612
215942
216382
216836
217251
217664
218047
218450
218826
219258
219671
220223
215705
215663
215856
216077
216397
216762
217134
217536
217936
218363
218780
219254
219710
220332
216264
216052
216028
216122
216354
216657
217016
217414
217826
218262
218687
219150
219553
220179
216510
216224
216047
216071
216265
216538
216898
217290
217705
218129
218534
218940
219295
219832
216371
216056
215831
215870
216100
216398
216799
217206
217637
218040
218374
218678
218946
219313
215885
215604
215414
215512
215817
216185
216654
217094
217519
217895
218206
218419
218556
218712
214976
214748
214735
214998
215442
215970
216513
217052
217514
217872
218100
218181
218072
217790
213459
213509
213776
214232
214888
215635
216312
216972
217513
217911
218064
218009
217756
217161
211666
211592
212384
213384
214438
215519
216349
217106
217703
218096
218173
217986
217544
216476
214393
216834
218063
219260
220164
220875
221345
221672
221811
221708
221390
220887
220417
219802
215122
216804
217883
218889
219732
220404
220897
221210
221413
221509
221417
221305
221188
221165
215758
217089
218004
218815
219491
220074
220559
220929
221190
221378
221470
221519
221553
221641
216771
217560
218197
218822
219380
219895
220343
220721
221028
221300
221506
221697
221885
222191
217553
218005
218472
218927
219364
219811
220221
220602
220939
221257
221535
221814
222102
222516
218258
218387
218695
218968
219341
219740
220114
220487
220845
221204
221537
221891
222243
222670
218855
218775
218943
219119
219391
219703
220039
220398
220758
221129
221486
221873
222257
222747
219278
219079
219099
219176
219381
219635
219955
220307
220673
221050
221410
221800
222147
222648
219440
219208
219125
219165
219325
219557
219874
220218
220577
220940
221284
221645
221959
222395
219249
219015
218942
219033
219213
219477
219815
220171
220540
220888
221186
221458
221698
221987
218784
218599
218581
218734
218991
219323
219722
220094
220453
220777
221045
221241
221437
221517
217966
217874
218048
218333
218718
219166
219636
220079
220461
220773
220988
221100
221079
220853
216846
216866
217280
217754
218348
218946
219517
220027
220450
220780
220932
220925
220795
220354
214720
215208
216017
216932
217908
218812
219569
220174
220609
220892
220983
220890
220674
219732
217540
219747
220800
221870
222680
223316
223777
224082
224259
224229
223983
223648
223196
222746
218438
219841
220793
221660
222388
222984
223452
223749
223953
224039
224021
223942
223846
223751
219045
220140
220967
221681
222269
222771
223207
223552
223808
223981
224083
224109
224151
224186
220036
220632
221186
221735
222220
222669
223067
223413
223702
223943
224134
224288
224442
224665
220763
221105
221512
221849
222248
222638
222999
223342
223649
223927
224161
224384
224611
224930
221345
221464
221709
221955
222266
222609
222937
223265
223578
223886
224165
224453
224744
225087
221862
221828
221964
222104
222332
222602
222891
223201
223508
223821
224115
224431
224740
225137
222199
222084
222121
222188
222360
222574
222843
223138
223443
223753
224044
224359
224641
225050
222322
222185
222161
222197
222336
222526
222793
223080
223373
223666
223938
224229
224482
224854
222114
222006
222025
222106
222259
222476
222758
223055
223349
223625
223862
224075
224275
224548
221678
221630
221722
221862
222088
222370
222693
222998
223282
223538
223747
223894
224061
224162
220935
221020
221253
221520
221864
222238
222638
222996
223295
223532
223702
223783
223808
223656
220057
220199
220550
221032
221544
222060
222540
222959
223290
223553
223688
223678
223598
223186
217911
218785
219478
220403
221197
221954
222596
223078
223409
223608
223691
223628
223480
222714
220657
222530
223405
224325
225033
225610
226048
226330
226498
226487
226319
226070
225673
225311
221432
222668
223510
224257
224878
225384
225800
226085
226270
226345
226349
226258
226177
226065
222146
223010
223699
224303
224814
225255
225635
225941
226175
226327
226401
226399
226432
226440
222973
223456
223930
224397
224813
225203
225544
225842
226094
226296
226444
226555
226673
226857
223632
223910
224250
224519
224862
225195
225502
225794
226055
226285
226468
226646
226822
227084
224172
224255
224457
224653
224913
225193
225464
225739
225997
226250
226473
226710
226950
227242
224611
224584
224702
224808
224992
225206
225441
225694
225941
226193
226430
226690
226948
227286
224861
224798
224848
224900
225039
225204
225418
225648
225885
226130
226361
226620
226861
227213
224925
224869
224878
224913
225036
225183
225391
225612
225833
226057
226270
226505
226716
227048
224721
224726
224756
224847
224985
225161
225379
225605
225820
226020
226197
226370
226532
226794
224323
224413
224496
224661
224859
225093
225338
225567
225773
225953
226096
226206
226322
226478
223662
223870
224080
224370
224677
224999
225315
225586
225796
225948
226058
226093
226137
226074
222896
223152
223491
223977
224430
224867
225251
225577
225813
225981
226060
226018
225994
225685
221079
221976
222645
223496
224168
224795
225302
225673
225915
226027
226073
225987
225795
225262
223650
225188
225944
226745
227354
227864
228249
228496
228638
228645
228550
228327
227982
227685
224286
225343
226086
226734
227271
227709
228069
228319
228473
228541
228532
228455
228355
228237
224995
225710
226293
226811
227258
227641
227962
228221
228416
228537
228577
228569
228555
228559
225694
226113
226533
226931
227293
227624
227909
228154
228356
228511
228613
228700
228766
228902
226282
226519
226796
227055
227354
227636
227890
228126
228332
228509
228643
228782
228905
229101
226765
226844
227048
227219
227437
227659
227874
228094
228295
228488
228656
228840
229024
229260
227145
227145
227270
227362
227518
227687
227873
228069
228257
228450
228629
228835
229046
229325
227358
227343
227411
227460
227578
227705
227869
228042
228217
228401
228576
228786
228993
229294
227388
227392
227432
227482
227592
227704
227858
228022
228180
228346
228507
228700
228885
229174
227193
227253
227316
227426
227555
227695
227858
228024
228173
228316
228450
228593
228739
228978
226836
226981
227095
227278
227455
227647
227832
228002
228144
228269
228373
228465
228560
228721
226262
226514
226747
227039
227306
227582
227825
228026
228171
228272
228342
228379
228405
228402
225609
225925
226263
226712
227109
227476
227783
228031
228198
228305
228349
228299
228274
228046
224124
224962
225613
226329
226904
227421
227826
228116
228292
228351
228340
228255
228129
227743
204536
205559
206351
207381
208557
209749
203383
204469
206098
208009
210240
211898
205567
206349
207722
209322
211929
213805
206836
207497
208564
209812
212566
214889
207909
208567
209480
210388
212943
215398
208069
208418
208943
209484
211689
214381
207807
207694
207596
207721
209782
213259
206800
206408
206053
205977
207952
211939
205575
204512
203702
203638
205704
210302
203764
202166
201450
201479
203694
208472
202147
200291
199806
199788
201756
205470
200829
198970
198773
199090
201156
203759
200679
199173
199316
199975
201989
204327
199435
198318
199194
200518
202783
205121
205124
205255
205663
205912
207087
208656
205130
205325
206363
207673
209838
211952
207491
207870
209000
210427
212845
214919
209419
210029
211416
212924
215473
217280
210688
211709
213359
214997
217611
218999
211303
212205
213628
215003
217629
219190
211336
212073
213258
214704
217332
219175
210529
210889
211676
212910
215401
217663
209254
209388
209752
210632
212732
215224
207644
206789
206546
207131
208877
211294
205627
204234
203766
203880
205152
206843
204058
201979
201454
201433
202867
204530
203327
201195
200736
200897
202370
203878
201484
199391
199461
200195
201794
203586
207234
206691
206558
206291
206738
207985
208211
207952
208384
208974
210243
212230
210727
210998
211790
212877
214283
216353
212250
212905
214290
215870
217637
219726
214068
215145
216747
218349
220082
222211
214834
216109
217794
219442
221362
223337
215179
216342
217818
219324
221179
223201
214711
215624
216681
217931
219624
221619
213713
214213
214924
215837
217128
219036
212757
212471
212225
212566
213327
214870
211207
210323
209604
209272
209359
210015
209668
208162
207195
206490
206531
207026
208994
206907
205973
205181
205485
206039
207124
204697
204013
203579
204248
205334
209300
208289
207823
206633
206535
206805
210793
210123
210150
210040
210442
211355
213431
213284
213788
214250
215022
216303
215036
215440
216491
217524
218809
220391
216463
217471
218981
220355
221916
223489
217300
218583
220298
221903
223680
225327
217772
219109
220758
222446
224254
225837
217677
218782
220170
221702
223308
224838
217082
217769
218725
220032
221259
222554
216338
216668
216872
217268
217678
218535
215352
214861
214396
213915
213502
213501
213860
212826
211841
210851
210106
209613
213164
211631
210544
209207
208312
207674
211841
209597
208598
207384
206920
206751
211796
210478
210153
208773
207919
207691
213879
212858
212686
212086
211935
212254
215974
215578
215920
215961
216304
217075
217552
217756
218565
219152
220108
221176
218745
219509
220763
221906
223248
224577
219607
220684
222162
223590
225181
226700
220105
221317
222839
224365
226041
227628
220233
221254
222552
223925
225438
227009
219941
220568
221409
222388
223557
225010
219334
219645
219986
220380
220972
221853
218745
218471
218022
217691
217222
217093
217525
216728
215844
214931
213888
213017
216966
215951
214919
213600
212240
210914
216144
214556
213486
211871
210769
209862
214133
212673
212270
211060
209908
208969
216759
215487
215119
214202
213678
213397
218352
217773
217866
217676
217748
218082
219811
219814
220380
220732
221367
222263
220849
221380
222358
223220
224401
225587
221654
222476
223714
224907
226407
227847
222118
223079
224421
225815
227449
229082
222358
223202
224403
225761
227267
228885
222261
222858
223714
224725
225903
227333
221845
222156
222630
223139
223750
224576
221452
221373
221293
221005
220777
220614
220664
220038
219375
218565
217665
216652
220129
219333
218429
217329
215979
214501
219561
218450
217375
216024
214566
213275
216952
215538
214739
213583
212572
211197
219780
218533
217813
216774
216055
215313
220950
220336
220172
219755
219630
219537
222219
222100
222406
222553
222953
223392
223153
223475
224190
224798
225674
226686
223885
224483
225433
226386
227615
228917
224333
225050
226129
227282
228705
230198
224622
225279
226255
227407
228785
230339
224597
225119
225852
226756
227849
229277
224309
224594
224995
225504
226181
227072
223995
224004
223990
223969
224002
224054
223485
223088
222575
221965
221313
220495
222975
222403
221681
220738
219674
218320
222685
221863
220943
219773
218521
217197
219884
218595
217654
216540
215438
214188
222425
221341
220557
219507
218609
217725
223428
222800
222510
222038
221753
221433
224542
224309
224416
224433
224687
224926
225366
225537
225994
226438
227096
227843
226008
226428
227121
227873
228875
230004
226450
226971
227794
228733
229953
231294
226730
227256
228035
229021
230249
231692
226742
227184
227824
228679
229711
231086
226547
226786
227194
227734
228391
229368
226271
226328
226425
226562
226797
227141
225948
225714
225421
225059
224683
224198
225463
225085
224616
223913
223111
221965
225312
224780
224102
223121
222065
220809
222819
221681
220786
219707
218692
217512
225030
224107
223365
222399
221437
220530
225885
225341
224962
224505
224100
223631
226832
226600
226572
226549
226629
226747
227570
227659
227968
228290
228791
229319
228137
228434
228963
229558
230370
231300
228552
228949
229596
230360
231378
232529
228793
229218
229871
230695
231773
233042
228832
229192
229753
230513
231462
232712
228709
228936
229310
229845
230487
231418
228486
228582
228725
228941
229251
229777
228279
228187
228038
227892
227746
227593
227850
227615
227301
226884
226366
225576
227757
227400
226911
226165
225384
224238
202542
202801
203262
203894
205645
207047
202206
202434
203741
205266
207762
209394
204279
204354
205591
207160
209784
211638
205633
205947
207071
208484
211174
213368
206674
207011
207948
209111
211768
214347
207324
207523
208003
208578
210674
213906
206888
206895
207043
207469