/*--------------------------------*- C++ -*----------------------------------*\
| =========                 |                                                 |
| \\      /  F ield         | OpenFOAM: The Open Source CFD Toolbox           |
|  \\    /   O peration     | Version:  v2106                                 |
|   \\  /    A nd           | Website:  www.openfoam.com                      |
|    \\/     M anipulation  |                                                 |
\*---------------------------------------------------------------------------*/
FoamFile
{
    version     2.0;
    format      ascii;
    arch        "LSB;label=32;scalar=64";
    class       volVectorField;
    location    "0.000152";
    object      U;
}
// * * * * * * * * * * * * * * * * * * * * * * * * * * * * * * * * * * * * * //

dimensions      [0 1 -1 0 0 0 0];

internalField   nonuniform List<vector> 
18273
(
(-33.3423 34.3371 -89.4601)
(-31.3993 21.3527 -94.1755)
(-27.5595 11.2502 -104.325)
(-24.4847 0.591473 -111.943)
(-22.0203 -5.85998 -118.93)
(-20.0823 -9.77584 -123.09)
(-19.2501 -10.9581 -125.778)
(-18.7482 -10.8668 -126.758)
(-18.9897 -10.557 -126.78)
(-19.803 -10.2379 -125.503)
(-21.3872 -11.054 -121.354)
(-23.5813 -13.765 -114.446)
(-26.8469 -18.2851 -107.073)
(-29.7686 -26.2397 -102.544)
(-24.4995 32.346 -88.211)
(-22.4126 20.473 -96.191)
(-17.6805 9.92252 -105.162)
(-15.7184 0.115201 -112.731)
(-14.0438 -6.22613 -118.614)
(-13.4381 -9.94599 -122.34)
(-13.3609 -11.2382 -125.107)
(-13.4597 -11.0542 -126.969)
(-13.9419 -10.5441 -127.822)
(-14.7535 -9.95614 -127.583)
(-15.9719 -10.5151 -125.478)
(-17.2105 -12.9811 -120.484)
(-19.6091 -17.4254 -113.308)
(-20.7142 -24.1011 -105.865)
(-17.6991 28.3173 -92.2388)
(-15.5008 16.7214 -101.979)
(-11.4586 6.6945 -109.82)
(-10.0586 -1.27625 -116.067)
(-8.89267 -6.54954 -120.004)
(-9.01479 -9.56759 -122.365)
(-9.37734 -10.495 -124.505)
(-9.89593 -10.1927 -126.167)
(-10.3302 -9.4584 -127.189)
(-10.9268 -8.84999 -127.363)
(-11.5758 -8.85527 -126.384)
(-11.8993 -10.5505 -123.607)
(-13.5085 -14.7734 -119.195)
(-14.179 -22.2271 -114.511)
(-11.5525 26.0993 -98.791)
(-10.0843 15.1203 -108.9)
(-7.68319 5.49231 -115.111)
(-6.98225 -1.69645 -119.061)
(-6.50131 -6.38601 -121.326)
(-6.90712 -9.06611 -122.605)
(-7.31736 -9.94577 -124.238)
(-7.78491 -9.70307 -125.693)
(-7.89741 -9.09962 -126.719)
(-8.07504 -8.85049 -127.078)
(-8.02953 -9.05119 -126.973)
(-7.57595 -10.5834 -125.957)
(-7.60626 -14.5543 -123.746)
(-6.96889 -21.1373 -121.152)
(-7.98865 24.0453 -106.327)
(-7.31836 13.4311 -114.579)
(-6.24668 4.45749 -118.55)
(-6.0169 -1.97398 -120.747)
(-6.05696 -6.11698 -122.139)
(-6.41774 -8.50943 -122.912)
(-6.68825 -9.38482 -124.184)
(-6.87893 -9.35007 -125.422)
(-6.70126 -8.91823 -126.409)
(-6.38821 -8.73757 -127.156)
(-5.6177 -9.07098 -127.536)
(-4.64593 -10.8707 -127.491)
(-3.67719 -14.9672 -127.087)
(-2.77732 -21.3548 -126.227)
(-5.50996 23.6691 -112.452)
(-6.15356 12.9803 -117.825)
(-6.23527 4.2699 -119.823)
(-6.17673 -1.88713 -121.325)
(-6.30931 -5.91874 -122.348)
(-6.52013 -8.28408 -122.964)
(-6.59819 -9.26078 -124.028)
(-6.61582 -9.44535 -125.119)
(-6.25834 -9.33415 -126.153)
(-5.59045 -9.43645 -127.18)
(-4.40685 -10.1214 -127.983)
(-2.96786 -12.1666 -128.472)
(-1.3555 -16.0022 -128.936)
(-0.449881 -21.5663 -128.531)
(-4.6716 24.2052 -116.437)
(-5.83478 13.6584 -119.218)
(-6.30637 4.69838 -120.046)
(-6.61042 -1.81172 -121.242)
(-6.70997 -6.00873 -122.214)
(-6.73705 -8.3657 -122.937)
(-6.63191 -9.39338 -123.993)
(-6.52633 -9.73086 -125.084)
(-6.16572 -9.86969 -126.168)
(-5.41514 -10.3425 -127.334)
(-4.1798 -11.4478 -128.52)
(-2.47865 -13.7873 -129.365)
(-0.583072 -17.5148 -130.147)
(0.541935 -22.493 -129.071)
(-3.15073 26.1107 -118.108)
(-5.38218 15.1682 -119.072)
(-6.42223 5.43787 -119.344)
(-7.04457 -1.70947 -120.221)
(-6.85376 -6.26076 -121.545)
(-6.72329 -8.76216 -122.725)
(-6.40588 -9.76983 -123.916)
(-6.16467 -9.95421 -125.042)
(-5.99962 -10.3405 -126.16)
(-5.45035 -11.1888 -127.384)
(-4.44882 -12.8098 -128.715)
(-2.83601 -15.644 -129.521)
(-0.837662 -19.4214 -130.286)
(0.345673 -24.0804 -128.359)
(-1.00926 28.7858 -117.315)
(-3.72616 17.1974 -117.191)
(-5.27105 6.51159 -117.098)
(-6.19448 -1.60384 -118.128)
(-5.8272 -6.74018 -120.404)
(-5.64042 -9.29533 -122.682)
(-5.35607 -10.1955 -124.317)
(-5.27167 -10.1597 -125.529)
(-5.22017 -10.6363 -126.566)
(-4.8522 -11.9288 -127.458)
(-4.14667 -14.1112 -128.402)
(-3.12606 -17.4446 -128.516)
(-1.08003 -21.4261 -128.596)
(0.0655248 -25.624 -125.183)
(3.32879 32.2107 -115.163)
(0.611878 19.9175 -113.2)
(-1.70409 8.0914 -112.735)
(-2.82588 -1.26562 -114.642)
(-2.88338 -7.13925 -118.181)
(-2.79539 -9.68875 -121.921)
(-2.71646 -10.4053 -124.392)
(-2.91797 -10.145 -125.721)
(-3.00233 -10.7028 -126.626)
(-2.98825 -12.2284 -126.968)
(-2.34374 -14.9282 -127.166)
(-1.79648 -18.7138 -125.764)
(0.49797 -23.2859 -124.427)
(1.39561 -27.7554 -119.229)
(9.84378 35.1815 -110.235)
(8.02831 23.0273 -106.955)
(5.21876 10.5793 -106.374)
(3.84004 0.0979749 -109.176)
(2.75708 -6.77806 -114.414)
(2.3765 -9.71832 -120.046)
(2.06762 -10.2294 -123.883)
(1.61543 -9.83323 -125.584)
(1.40283 -10.4947 -126.223)
(1.16704 -11.9981 -125.587)
(1.66754 -15.3221 -124.373)
(1.89136 -19.868 -121.176)
(4.64518 -25.42 -118.065)
(5.20539 -30.1884 -111.365)
(19.6521 38.2274 -104.91)
(18.4959 25.8194 -99.6278)
(15.1163 12.7464 -97.9468)
(12.9841 1.44779 -100.764)
(10.8344 -5.63401 -107.808)
(9.68265 -9.38049 -115.297)
(9.0874 -9.91803 -121.029)
(8.57603 -9.76466 -123.741)
(8.36415 -10.6846 -124.551)
(8.46529 -12.4102 -123.665)
(9.1655 -16.1662 -121.377)
(9.35772 -21.3805 -116.775)
(12.4001 -27.4698 -111.841)
(12.0926 -32.719 -104.293)
(29.2907 40.307 -96.8184)
(29.4999 29.7094 -92.0403)
(27.0631 17.1565 -90.1448)
(24.6026 5.24897 -92.2)
(21.6124 -3.00302 -99.5092)
(19.7581 -7.95407 -108.509)
(18.5472 -9.1746 -116.583)
(17.8496 -9.11365 -121.189)
(17.848 -10.25 -122.832)
(18.4062 -12.2519 -122.167)
(19.2887 -16.2412 -118.958)
(19.5144 -22.519 -113.407)
(21.5918 -28.8444 -106.429)
(20.7512 -34.8961 -99.4535)
(40.2756 40.2094 -92.5845)
(40.2696 30.1897 -85.4002)
(38.1387 18.6882 -81.0503)
(35.5163 7.60467 -81.6701)
(32.1582 -0.635241 -88.3469)
(30.0954 -6.40955 -98.1539)
(28.3055 -8.76905 -108.205)
(27.7765 -9.54421 -115.572)
(27.9295 -10.8894 -119.138)
(28.8157 -13.5265 -119.618)
(29.9558 -17.125 -117.104)
(30.6414 -22.8852 -112.107)
(31.5693 -28.479 -104.283)
(30.9514 -36.3087 -99.1172)
(-40.1209 39.4314 -97.1247)
(-37.977 23.2693 -102.257)
(-32.2039 11.8294 -112.355)
(-28.901 1.61443 -119.414)
(-25.849 -4.05972 -124.919)
(-24.0447 -6.63153 -127.978)
(-22.9787 -6.58678 -129.127)
(-22.6074 -6.51053 -128.984)
(-23.3944 -6.47071 -127.712)
(-24.8678 -7.99757 -123.782)
(-27.7386 -10.9739 -117.597)
(-30.3989 -16.4308 -110.369)
(-35.3974 -22.2914 -103.748)
(-39.5818 -32.9326 -102.952)
(-29.753 35.706 -92.6573)
(-27.89 22.3863 -102.175)
(-21.2969 10.7291 -110.575)
(-19.4282 0.868811 -117.743)
(-17.5206 -4.87724 -122.51)
(-16.9661 -7.10392 -125.698)
(-16.6205 -6.93845 -127.578)
(-16.6827 -6.45513 -128.199)
(-17.4057 -6.17256 -128.088)
(-18.6243 -7.27625 -126.729)
(-20.82 -10.482 -123.644)
(-22.8703 -15.6741 -118.568)
(-26.7564 -21.7445 -112.136)
(-27.4051 -31.0215 -107.788)
(-22.3227 30.087 -94.8366)
(-20.3806 17.5021 -105.824)
(-14.8176 6.86556 -112.768)
(-13.2199 -0.78014 -118.618)
(-12.2374 -5.21156 -121.936)
(-12.4879 -6.95382 -123.907)
(-12.841 -6.79262 -125.378)
(-13.0932 -6.12046 -126.227)
(-13.6845 -5.70431 -126.585)
(-14.5475 -6.15456 -126.494)
(-15.6699 -8.1327 -125.335)
(-16.8802 -12.1515 -122.852)
(-19.384 -18.2896 -119.17)
(-19.9818 -28.3784 -117.892)
(-15.0074 27.2481 -99.4473)
(-13.6011 15.4574 -110.34)
(-10.5974 5.22689 -116.132)
(-10.0832 -1.54228 -119.712)
(-9.87634 -5.21475 -121.355)
(-10.4853 -6.69008 -122.249)
(-11.1702 -6.72832 -123.205)
(-11.4794 -6.10896 -124.051)
(-11.7062 -5.74274 -124.84)
(-11.9836 -6.1799 -125.679)
(-12.1262 -8.02558 -126.053)
(-12.2094 -11.8915 -125.861)
(-12.6468 -18.1738 -124.558)
(-12.2442 -27.2117 -124.65)
(-10.522 24.7402 -106.023)
(-9.78687 13.2178 -114.899)
(-8.64164 4.07038 -118.77)
(-8.98399 -1.89897 -119.953)
(-9.24827 -5.19255 -120.53)
(-10.0114 -6.64245 -120.776)
(-10.615 -7.03299 -121.528)
(-10.9592 -6.87064 -122.411)
(-10.8459 -6.64702 -123.501)
(-10.6211 -7.0302 -124.944)
(-10.2418 -8.69946 -126.48)
(-9.64235 -12.2101 -127.661)
(-9.02014 -18.3268 -128.23)
(-8.52856 -26.795 -129.362)
(-7.3415 24.1591 -112.158)
(-7.91898 12.6247 -118.333)
(-7.98258 3.7502 -120.201)
(-8.85269 -2.12621 -119.986)
(-9.31521 -5.5126 -120.057)
(-9.99967 -7.05144 -119.923)
(-10.5675 -7.62912 -120.535)
(-10.9493 -7.75235 -121.422)
(-10.9648 -7.90958 -122.687)
(-10.4674 -8.51796 -124.358)
(-9.72854 -10.2548 -126.37)
(-8.64113 -13.6937 -128.311)
(-7.64202 -19.2841 -129.978)
(-7.32034 -26.7728 -131.025)
(-5.49761 24.5515 -116.961)
(-7.31669 13.2057 -120.493)
(-7.71534 4.24089 -120.872)
(-8.84737 -2.08936 -120.153)
(-9.58032 -5.85663 -119.946)
(-10.2823 -7.69004 -119.721)
(-10.7392 -8.50687 -120.315)
(-10.8829 -8.77752 -121.24)
(-11.153 -9.11192 -122.403)
(-10.7833 -10.0147 -124.037)
(-10.1731 -11.9641 -126.288)
(-8.9529 -15.4972 -128.606)
(-7.59057 -20.8352 -130.411)
(-6.83555 -27.7065 -130.916)
(-3.62986 26.5657 -119.954)
(-6.35834 14.9082 -121.188)
(-7.56916 5.28796 -120.815)
(-8.75727 -1.71497 -120.14)
(-9.51539 -6.12906 -119.689)
(-10.0825 -8.43229 -119.493)
(-10.4301 -9.46372 -120.128)
(-10.5738 -9.73735 -121.129)
(-11.1166 -10.2096 -122.294)
(-11.0969 -11.4216 -123.966)
(-10.8173 -13.6921 -126.197)
(-9.75122 -17.484 -128.25)
(-8.20992 -22.8279 -129.394)
(-7.21411 -29.6058 -128.472)
(-0.8362 29.7357 -120.732)
(-4.24247 17.4109 -120.507)
(-6.22389 6.87729 -119.744)
(-7.60087 -1.09918 -119.549)
(-8.45362 -6.32988 -119.538)
(-8.91636 -9.26555 -119.812)
(-9.35221 -10.5107 -120.772)
(-9.66499 -10.6708 -121.986)
(-10.2274 -11.2399 -123.15)
(-10.1782 -12.7846 -124.491)
(-9.90726 -15.6128 -125.846)
(-8.99703 -19.8515 -126.718)
(-6.76113 -25.2767 -126.277)
(-5.70302 -31.8901 -122.499)
(4.01147 33.8435 -120.594)
(0.340611 20.4875 -117.876)
(-2.77537 8.57688 -116.561)
(-4.19648 -0.480106 -117.256)
(-5.28236 -6.37369 -118.516)
(-5.78941 -9.72207 -119.706)
(-6.33735 -11.0167 -121.368)
(-6.75059 -11.1291 -122.859)
(-7.11163 -11.9259 -123.955)
(-6.89494 -13.7294 -124.734)
(-6.2078 -17.0066 -124.988)
(-5.21971 -21.97 -124.028)
(-1.96079 -28.1899 -121.797)
(-0.911777 -35.0197 -114.999)
(10.5177 39.114 -117.868)
(7.93379 25.422 -114.12)
(4.27833 12.3974 -112.583)
(2.74564 1.74474 -113.175)
(1.13681 -5.28133 -116.059)
(0.237606 -9.73833 -118.5)
(-0.568687 -11.5057 -121.258)
(-0.955656 -11.8077 -123.388)
(-0.882621 -12.8654 -124.554)
(-0.413031 -14.9453 -124.499)
(0.682509 -18.8161 -123.524)
(1.43794 -24.4713 -120.326)
(5.43128 -31.3199 -116.264)
(6.20096 -38.149 -107.43)
(21.2241 43.0738 -113.776)
(19.1731 28.9917 -107.536)
(15.1217 15.0197 -105.054)
(13.0118 3.44148 -105.579)
(10.6494 -4.18991 -109.939)
(9.38568 -9.02085 -115.054)
(8.31985 -11.4787 -119.794)
(7.85873 -12.4849 -123.276)
(8.29797 -13.7085 -124.856)
(9.06515 -15.7135 -124.293)
(10.4842 -19.582 -121.92)
(11.303 -25.8407 -116.953)
(15.6683 -33.6914 -111.215)
(15.5914 -41.1594 -101.616)
(32.3167 48.0513 -106.272)
(31.6842 35.815 -100.938)
(28.5223 21.9263 -97.8057)
(25.926 8.83823 -97.1477)
(22.7089 -0.997565 -101.382)
(20.8488 -7.17281 -108.311)
(19.5135 -10.646 -115.277)
(19.0015 -12.2649 -120.762)
(19.3937 -13.7749 -123.63)
(20.6035 -16.5074 -123.458)
(22.4966 -21.0255 -120.379)
(23.5659 -28.5962 -114.798)
(27.3047 -36.5714 -107.321)
(26.7957 -44.5984 -99.2154)
(46.0488 48.9877 -103.035)
(44.3465 36.93 -93.705)
(41.2236 23.9014 -86.8652)
(37.9778 11.3575 -84.6079)
(34.3485 1.36108 -88.8178)
(32.5007 -5.90943 -96.7186)
(30.9685 -10.2795 -105.679)
(30.9281 -12.9161 -113.784)
(31.2901 -14.943 -119.442)
(32.8909 -18.4002 -121.49)
(35.3039 -22.6591 -119.926)
(37.1648 -29.3679 -116.081)
(39.6402 -36.249 -108.294)
(39.7466 -46.7607 -103.251)
(-47.5793 37.2591 -102.21)
(-44.847 20.3809 -106.659)
(-39.3702 10.0702 -114.247)
(-36.4639 3.65874 -118.707)
(-33.8407 2.07164 -121.426)
(-31.9561 3.09434 -122.816)
(-31.0674 5.34477 -123.121)
(-30.3503 7.1285 -123.097)
(-29.4612 7.0705 -121.278)
(-29.6075 4.18389 -117.35)
(-31.3936 -2.64938 -111.96)
(-33.3518 -13.084 -107.373)
(-38.5086 -23.9172 -103.924)
(-41.4945 -38.3904 -105.547)
(-35.1907 31.9895 -96.119)
(-32.9332 18.9977 -104.965)
(-27.0733 8.32298 -111.076)
(-25.0392 1.90513 -115.679)
(-23.5667 -0.23397 -117.621)
(-22.8725 0.503068 -119.066)
(-22.5466 2.78244 -119.737)
(-22.2326 4.58403 -120.176)
(-21.6777 4.71081 -120.209)
(-21.5115 2.6824 -119.12)
(-23.2833 -3.39603 -116.995)
(-24.7028 -13.3924 -114.187)
(-29.1308 -24.4275 -111.443)
(-28.2434 -36.3419 -110.339)
(-27.1673 24.5028 -97.4045)
(-24.7025 12.7181 -107.228)
(-19.2243 4.11781 -111.671)
(-17.6112 -0.667686 -114.36)
(-16.9632 -1.79949 -115.236)
(-17.1739 -1.48593 -115.871)
(-17.2444 0.27948 -116.632)
(-17.1377 1.9956 -117.508)
(-16.8615 2.42877 -118.146)
(-16.8076 1.16615 -118.317)
(-17.9576 -2.74553 -117.97)
(-19.1238 -10.4184 -117.058)
(-22.0227 -20.8159 -116.723)
(-21.5888 -33.9121 -118.244)
(-18.2812 22.0085 -100.631)
(-16.6697 10.1676 -109.018)
(-13.8106 1.81521 -112.13)
(-13.3458 -2.40195 -113.196)
(-13.7683 -3.5248 -113.287)
(-14.4404 -3.2094 -113.514)
(-14.9269 -1.83641 -114.003)
(-14.9904 -0.433687 -114.808)
(-14.8951 0.00117321 -115.649)
(-14.8734 -0.97963 -116.531)
(-15.2961 -4.21974 -117.499)
(-15.9626 -10.7316 -118.47)
(-17.2674 -20.6134 -119.545)
(-17.1543 -32.9191 -122.177)
(-10.8076 19.241 -104.417)
(-10.8945 7.53229 -110.741)
(-10.497 0.0983945 -112.571)
(-11.3962 -3.62306 -112.566)
(-12.4705 -4.92809 -112.053)
(-13.6174 -4.62089 -111.913)
(-14.3263 -3.78297 -112.39)
(-14.6874 -2.93112 -113.118)
(-14.7403 -2.71975 -114.149)
(-14.5319 -3.65618 -115.469)
(-14.5805 -6.6251 -117.078)
(-14.9119 -12.4794 -118.934)
(-15.8996 -21.429 -121.279)
(-16.6493 -32.8632 -124.395)
(-4.39839 19.4273 -108.539)
(-6.71892 7.26151 -112.873)
(-8.55738 -0.325864 -113.477)
(-10.6732 -4.17707 -112.406)
(-12.1256 -5.82945 -111.469)
(-13.4861 -5.72944 -111.027)
(-14.3382 -5.30813 -111.406)
(-15.0044 -4.80273 -111.965)
(-15.5378 -5.03879 -112.984)
(-15.4876 -6.2833 -114.499)
(-15.7155 -9.24026 -116.498)
(-15.9825 -14.7435 -118.904)
(-16.6148 -23.1247 -121.712)
(-17.7087 -33.4896 -125.104)
(0.0646327 21.2802 -113.032)
(-4.02093 8.94045 -115.083)
(-7.6153 0.732439 -114.297)
(-10.3353 -4.07223 -112.616)
(-12.1634 -6.45211 -111.509)
(-13.7357 -6.84484 -110.967)
(-14.6451 -6.82563 -111.457)
(-15.4344 -6.58222 -111.97)
(-16.3258 -7.0453 -112.703)
(-16.867 -8.38259 -114.165)
(-17.6653 -11.2332 -116.166)
(-18.3271 -16.3359 -118.865)
(-19.1818 -24.144 -121.689)
(-20.2123 -34.1598 -124.601)
(2.57103 25.22 -116.878)
(-2.78965 12.116 -116.864)
(-7.24622 2.54535 -115.027)
(-10.2718 -3.50806 -112.915)
(-12.2518 -6.79833 -111.622)
(-13.786 -7.88708 -110.866)
(-14.8079 -8.1337 -111.293)
(-15.7517 -8.02353 -111.856)
(-16.9265 -8.55041 -112.672)
(-17.9814 -9.88369 -114.257)
(-19.1446 -12.8258 -116.171)
(-20.0793 -17.8033 -118.876)
(-21.1663 -25.4472 -121.034)
(-22.2641 -35.3624 -122.401)
(3.70219 30.5582 -119.597)
(-1.7975 16.2084 -118.188)
(-6.66673 5.01469 -115.582)
(-9.81156 -2.77882 -113.599)
(-11.957 -7.13742 -112.196)
(-13.3055 -9.06166 -111.525)
(-14.3574 -9.60936 -111.895)
(-15.2596 -9.5836 -112.539)
(-16.4311 -10.0754 -113.457)
(-17.5841 -11.5422 -114.944)
(-18.7487 -14.7032 -116.466)
(-19.6976 -19.6935 -118.555)
(-20.2067 -27.1615 -119.097)
(-20.3868 -37.0826 -117.588)
(6.81826 36.3274 -120.697)
(0.733313 21.3372 -117.718)
(-4.17776 8.28046 -115.743)
(-7.69304 -1.34751 -113.817)
(-10.2336 -7.12215 -112.766)
(-11.4428 -10.0521 -112.496)
(-12.2785 -11.086 -112.916)
(-12.8553 -11.1094 -113.731)
(-13.6536 -11.4289 -114.759)
(-14.4515 -12.8624 -116.027)
(-15.0369 -15.9898 -117.033)
(-15.3142 -21.116 -117.752)
(-13.8019 -28.6221 -116.227)
(-13.3371 -38.3707 -110.648)
(11.0019 43.3329 -119.635)
(6.424 27.4906 -115.824)
(0.653323 13.1954 -113.804)
(-2.81449 1.47638 -112.848)
(-5.76533 -6.43094 -112.779)
(-7.10746 -10.9145 -113.037)
(-7.55952 -12.7822 -113.643)
(-7.41764 -13.0763 -114.723)
(-7.24773 -13.3491 -115.799)
(-7.11252 -14.7389 -116.625)
(-6.43634 -17.9298 -116.679)
(-5.89842 -23.7791 -115.222)
(-2.09706 -32.0825 -112.075)
(-1.61986 -41.7122 -104.246)
(20.2727 48.4806 -116.676)
(16.7829 31.7044 -110.673)
(9.836 16.996 -108.44)
(5.96451 4.18318 -108.421)
(2.40257 -5.20133 -110.337)
(0.837767 -11.5036 -112.302)
(0.517828 -14.8953 -114.131)
(1.58163 -16.1057 -115.912)
(3.03725 -16.2922 -117.201)
(4.56005 -17.7224 -117.736)
(6.81921 -20.6545 -116.972)
(8.38916 -26.6161 -113.959)
(13.6987 -34.9187 -109.752)
(13.5816 -44.6591 -101.759)
(31.4703 55.3669 -110.69)
(29.1595 40.2318 -105.474)
(22.0755 25.6194 -103.676)
(18.1954 11.057 -102.671)
(14.1512 -1.16994 -104.898)
(12.6175 -10.7485 -108.051)
(12.4039 -16.49 -112.109)
(14.2328 -18.9735 -115.672)
(16.6106 -19.7831 -118.057)
(19.2697 -21.5783 -118.837)
(22.4969 -24.6179 -117.718)
(24.8403 -30.684 -114.306)
(29.9938 -38.7823 -108.982)
(29.7217 -48.0548 -101.588)
(47.3906 57.2108 -107.566)
(42.341 42.6031 -97.7313)
(35.2792 28.5045 -92.4706)
(31.4485 14.1633 -90.3853)
(28.0582 1.48064 -93.69)
(27.4494 -9.85158 -99.1263)
(27.4226 -18.0995 -106.059)
(29.2523 -22.4317 -112.641)
(31.9692 -23.3187 -117.451)
(34.971 -24.8463 -119.983)
(38.6344 -26.9189 -119.452)
(41.6609 -32.5549 -117.283)
(45.345 -39.7418 -111.243)
(46.0798 -51.9861 -107.282)
(-29.7131 -30.6443 -94.8619)
(-33.2611 -35.6214 -89.7519)
(-33.2421 -39.2374 -81.1807)
(-35.1255 -40.721 -70.163)
(-37.2441 -45.0985 -55.5119)
(-30.0235 -32.9825 -27.065)
(-22.5306 -29.4176 -100.24)
(-27.0528 -34.4967 -96.8629)
(-27.8353 -40.2067 -91.5929)
(-29.24 -41.4201 -81.3621)
(-30.1244 -46.3664 -65.3905)
(-27.2167 -34.0967 -32.1356)
(-15.8947 -30.5287 -110.91)
(-20.213 -37.2071 -107.777)
(-21.4243 -43.4084 -103.037)
(-23.6403 -44.2317 -92.6891)
(-23.078 -48.1291 -74.0954)
(-24.0136 -34.6063 -36.3399)
(-7.82263 -29.3673 -119.248)
(-11.8516 -36.517 -116.062)
(-13.7488 -43.1431 -111.034)
(-16.9515 -43.8831 -99.972)
(-15.8461 -47.1197 -79.2594)
(-20.3076 -34.8324 -38.6798)
(-2.78535 -29.1536 -125.392)
(-5.78463 -35.9325 -121.405)
(-7.52438 -42.6528 -115.564)
(-11.2807 -43.2757 -103.687)
(-9.46191 -45.7803 -81.6085)
(-16.0143 -35.4936 -39.4543)
(0.241284 -28.3971 -127.924)
(-1.63396 -34.3684 -123.175)
(-2.50208 -40.759 -116.36)
(-6.32233 -41.3416 -103.567)
(-3.86347 -43.5461 -80.6469)
(-11.9722 -36.0554 -38.4948)
(1.84382 -28.6348 -128.056)
(1.13338 -33.6725 -122.197)
(1.51009 -40.0257 -114.259)
(-2.05149 -40.7223 -100.384)
(0.945301 -42.6191 -77.0896)
(-7.71926 -37.2633 -36.3467)
(2.52096 -30.0147 -126.372)
(2.81802 -34.2427 -118.743)
(4.12381 -40.0391 -108.826)
(1.01128 -40.8915 -93.6591)
(4.90507 -42.5813 -70.6422)
(-3.46526 -38.63 -32.4759)
(2.80451 -31.7617 -121.562)
(4.11192 -35.93 -112.212)
(6.81262 -41.0472 -100.507)
(4.58521 -42.0748 -84.2918)
(9.01475 -43.8024 -62.0081)
(2.3185 -41.0517 -27.0186)
(4.73025 -34.351 -113.906)
(7.12158 -38.2929 -103.294)
(10.695 -42.9304 -90.762)
(9.45079 -44.0929 -74.4786)
(14.373 -45.7124 -53.8025)
(9.30066 -42.5375 -22.0989)
(9.17974 -37.0127 -105.188)
(12.63 -40.935 -94.6714)
(16.2776 -44.4801 -82.397)
(15.85 -45.7171 -67.147)
(21.1958 -47.1919 -48.9388)
(15.8467 -42.3871 -19.5866)
(16.3555 -38.9407 -98.1698)
(20.2464 -42.3141 -89.0835)
(23.1105 -44.9349 -78.1252)
(23.5879 -46.6522 -64.5972)
(27.9261 -47.8084 -47.5896)
(21.4015 -40.1015 -18.6677)
(24.4784 -39.2467 -93.8945)
(28.5658 -41.4481 -87.5853)
(30.5219 -43.1194 -78.6956)
(31.128 -44.4737 -66.5871)
(33.9126 -46.0606 -49.4433)
(26.0464 -36.976 -19.5451)
(32.1866 -38.1143 -92.6779)
(35.6727 -40.0259 -88.321)
(36.5764 -39.1531 -81.0065)
(36.7209 -40.1362 -69.8737)
(38.6545 -41.5399 -52.7937)
(28.5514 -31.5652 -22.3699)
(-41.0353 -42.8768 -99.2403)
(-45.9474 -49.3191 -95.0033)
(-47.7519 -55.9017 -88.6726)
(-51.6614 -59.6749 -79.326)
(-54.0061 -63.99 -64.3805)
(-42.8047 -51.2771 -31.493)
(-30.3009 -39.4622 -105.431)
(-36.2435 -46.4811 -104.953)
(-38.4905 -54.0548 -102.279)
(-41.6903 -57.8758 -93.1669)
(-44.0772 -64.1969 -77.4324)
(-37.3681 -51.5509 -39.7173)
(-22.0954 -40.0984 -117.793)
(-27.1888 -49.333 -116.915)
(-29.547 -57.0514 -114.35)
(-32.9253 -59.3816 -104.859)
(-33.8746 -64.6711 -86.906)
(-32.3245 -49.2916 -45.5489)
(-13.4175 -37.6633 -125.639)
(-17.9186 -46.9222 -124.285)
(-20.3039 -54.8533 -120.933)
(-24.2417 -56.8232 -110.612)
(-23.2022 -61.8738 -90.9722)
(-28.0409 -46.9058 -48.0058)
(-8.82666 -36.577 -130.622)
(-11.9652 -45.6542 -128.362)
(-13.3107 -53.4405 -123.801)
(-17.4017 -54.6626 -112.496)
(-14.0536 -59.0887 -91.6394)
(-23.4976 -45.7151 -48.2417)
(-6.54488 -35.3396 -131.838)
(-7.95885 -43.6259 -128.199)
(-7.6717 -51.2726 -121.503)
(-11.8465 -52.5272 -108.185)
(-7.08244 -56.4974 -86.0929)
(-18.087 -45.773 -43.5866)
(-4.78086 -35.6616 -130.325)
(-5.44445 -43.396 -123.681)
(-3.92771 -51.6295 -113.909)
(-7.66012 -53.2497 -97.9579)
(-1.90992 -56.4287 -75.0019)
(-13.0785 -47.9855 -35.3356)
(-3.96288 -37.845 -125.389)
(-3.31427 -45.064 -114.925)
(-0.563307 -53.4406 -101.794)
(-3.47137 -55.5063 -83.4513)
(2.69993 -58.2877 -60.3936)
(-5.35068 -52.8282 -24.0802)
(-1.61897 -40.8168 -116.703)
(0.456885 -48.1378 -103.459)
(4.41598 -56.7566 -88.4061)
(2.84449 -59.7652 -69.1943)
(8.55443 -62.1947 -46.8195)
(5.67101 -59.0624 -14.9009)
(3.84187 -44.8277 -107.293)
(7.39193 -52.2455 -92.9742)
(11.7691 -60.6618 -77.6396)
(11.6136 -64.1028 -59.0779)
(17.6609 -67.3591 -39.2227)
(16.9019 -62.9117 -11.0711)
(11.4412 -47.9423 -99.0689)
(16.489 -55.1256 -85.9488)
(20.96 -63.1496 -72.0197)
(22.4136 -68.084 -55.7891)
(29.3979 -71.3154 -39.2181)
(25.652 -64.6399 -11.5113)
(21.508 -51.0099 -94.8875)
(27.5739 -57.2817 -84.7935)
(31.8339 -64.3021 -73.8191)
(34.6064 -69.3118 -60.3381)
(40.5703 -71.6897 -44.1315)
(33.3381 -63.4287 -14.2531)
(33.0976 -51.2121 -94.5251)
(38.9197 -55.4739 -88.1364)
(42.7725 -60.7154 -80.1961)
(45.5474 -65.5134 -69.282)
(49.2709 -67.9891 -52.4807)
(41.1315 -58.1065 -19.5283)
(43.912 -50.2219 -96.916)
(48.4246 -53.7858 -93.3077)
(51.6331 -55.3283 -86.8742)
(53.0383 -58.331 -76.9268)
(55.3751 -60.425 -60.1137)
(45.1884 -47.4515 -25.8001)
(-46.6339 -51.3219 -104.716)
(-52.6812 -61.6754 -100.116)
(-58.5799 -73.1724 -96.8875)
(-66.4455 -81.1236 -89.9894)
(-74.2027 -86.147 -77.4579)
(-69.9096 -81.4646 -43.9854)
(-33.9242 -47.3457 -109.216)
(-40.4335 -58.8551 -109.356)
(-45.826 -71.156 -109.409)
(-53.3304 -80.2327 -102.888)
(-59.66 -89.0904 -90.8479)
(-62.3793 -80.9457 -56.3926)
(-25.6969 -48.742 -119.451)
(-30.9662 -62.8108 -119.462)
(-35.8427 -75.7761 -118.948)
(-42.883 -83.7864 -111.053)
(-46.6209 -92.372 -98.1072)
(-56.3895 -78.1027 -66.1707)
(-19.8005 -47.1117 -124.716)
(-23.8022 -61.5278 -124.385)
(-27.8038 -74.3994 -122.815)
(-33.9309 -82.1868 -113.747)
(-35.1186 -90.9166 -100.667)
(-50.785 -75.1523 -71.7195)
(-18.46 -46.5915 -126.767)
(-21.4422 -60.8662 -125.932)
(-23.3304 -73.5897 -123.257)
(-27.4801 -81.0549 -113.116)
(-26.4659 -89.5853 -100.588)
(-45.2412 -74.7388 -73.7156)
(-18.5773 -46.3001 -126.779)
(-20.7801 -60.2071 -124.559)
(-21.0426 -73.1954 -118.464)
(-23.4729 -80.9967 -106.446)
(-20.1858 -89.2159 -94.9812)
(-38.9863 -77.0799 -69.7223)
(-20.7212 -47.0371 -124.983)
(-22.2588 -61.1838 -119.041)
(-20.9704 -74.7989 -108.757)
(-21.5403 -83.4675 -94.8639)
(-15.9836 -91.2371 -85.2067)
(-32.4737 -82.0458 -61.6159)
(-21.9422 -48.1608 -119.212)
(-21.9565 -61.7793 -108.533)
(-18.1813 -76.4804 -95.7305)
(-17.4656 -86.4334 -80.7465)
(-9.67781 -94.0739 -71.7272)
(-21.4598 -89.729 -48.0158)
(-18.4125 -50.185 -110.913)
(-15.6108 -63.5187 -96.8991)
(-9.42811 -79.2197 -83.6589)
(-7.22414 -89.5653 -67.8025)
(2.65418 -97.1237 -57.7276)
(-4.43644 -98.3165 -34.5685)
(-8.83003 -52.5696 -103.11)
(-2.62518 -66.05 -88.8512)
(4.65665 -81.226 -76.0351)
(8.67046 -90.9056 -59.6545)
(19.174 -98.1121 -47.5709)
(16.6663 -101.883 -26.9862)
(5.71622 -55.2393 -98.6188)
(14.0997 -65.7962 -85.9601)
(20.9004 -79.7703 -73.6256)
(26.5076 -90.5491 -58.3272)
(36.5007 -97.805 -45.0281)
(35.3896 -100.797 -24.7825)
(22.3839 -56.1727 -96.7955)
(31.6144 -65.2786 -86.6325)
(37.5637 -77.8616 -76.6143)
(44.0548 -89.0032 -65.1783)
(52.3774 -95.8733 -51.3755)
(50.5047 -96.9906 -25.9818)
(38.5608 -56.2516 -98.4853)
(46.9328 -62.3499 -91.2256)
(52.9351 -72.37 -84.4931)
(59.8406 -82.7215 -76.4384)
(64.961 -90.746 -61.8548)
(63.4535 -89.2347 -30.7462)
(53.0674 -56.9213 -100.963)
(60.1724 -62.3631 -96.5085)
(67.1966 -69.0617 -92.7644)
(72.5692 -76.4976 -85.4573)
(75.5323 -82.8195 -71.1497)
(72.1239 -78.342 -36.8391)
(38.4725 -34.7844 -95.4311)
(41.044 -36.9587 -89.9883)
(42.4702 -35.1117 -82.1134)
(41.0344 -35.2574 -70.9113)
(43.4401 -35.203 -53.7971)
(28.8436 -27.0208 -24.1304)
(38.4084 -28.6852 -101.848)
(41.706 -32.0832 -97.3861)
(44.8528 -31.131 -90.1273)
(43.0288 -31.1038 -78.6481)
(45.3322 -29.6508 -60.1778)
(30.3792 -25.1539 -27.0182)
(39.5549 -23.4308 -109.967)
(44.1744 -26.6091 -104.406)
(47.9082 -26.0458 -96.5031)
(45.7374 -26.7592 -84.4046)
(47.4406 -23.8448 -64.5382)
(32.2066 -22.8984 -28.9207)
(39.1476 -17.7197 -114.502)
(44.4455 -21.0756 -108.083)
(49.018 -20.7521 -99.557)
(47.1991 -21.9583 -86.7554)
(48.6299 -18.3034 -66.4102)
(34.673 -19.9518 -30.0524)
(38.6637 -13.9255 -116.173)
(44.9592 -16.4436 -108.303)
(50.7565 -15.9988 -99.0843)
(49.8482 -17.3387 -85.646)
(50.6496 -13.1134 -65.4529)
(38.2854 -16.17 -29.82)
(38.2297 -10.8853 -113.928)
(45.553 -12.8497 -104.373)
(52.3473 -12.0087 -94.3472)
(52.6577 -13.1 -80.5172)
(53.118 -8.85764 -60.819)
(42.1523 -11.2022 -26.6463)
(38.6524 -9.27282 -107.994)
(46.9213 -9.96837 -96.7393)
(54.3283 -8.48721 -86.0943)
(55.8107 -8.49653 -72.2862)
(56.5038 -4.91379 -53.5053)
(46.2759 -4.46954 -21.7071)
(39.5926 -7.73573 -98.5719)
(48.658 -6.3391 -86.6132)
(56.6784 -4.22948 -76.1059)
(59.3134 -2.47912 -63.172)
(60.8273 0.44265 -46.1428)
(49.8026 4.20337 -18.0242)
(42.1028 -4.23906 -88.0539)
(51.6546 -0.298643 -77.166)
(59.6892 2.19483 -67.6069)
(62.863 5.50435 -56.3086)
(65.5008 8.07122 -41.7425)
(51.4938 12.7609 -17.1434)
(44.4177 2.35403 -79.3948)
(53.5528 8.67813 -71.2709)
(61.3736 10.6915 -62.8906)
(65.1763 15.155 -53.7525)
(67.8926 16.9605 -40.9738)
(51.3342 19.8259 -18.452)
(47.4263 11.71 -75.4674)
(54.5195 19.0852 -70.3939)
(61.2567 20.9161 -63.7001)
(65.1682 25.3177 -56.2241)
(67.5874 25.7507 -43.9473)
(49.9705 25.7564 -20.785)
(48.276 22.8285 -76.8892)
(53.2821 29.2943 -74.5887)
(58.3152 30.9991 -69.6441)
(61.7365 34.3473 -62.8384)
(64.0402 33.3617 -50.2763)
(46.7686 31.1963 -24.1102)
(47.8577 33.7599 -81.2978)
(51.0977 38.4452 -80.7301)
(54.3823 40.0292 -77.2647)
(56.8334 41.9586 -70.5417)
(58.823 40.1447 -57.1272)
(41.7322 35.5426 -27.9075)
(44.6481 41.8428 -87.931)
(46.6581 44.2371 -87.7188)
(47.7383 45.45 -84.3014)
(49.4264 46.4495 -76.8588)
(50.3977 45.0608 -61.783)
(33.1015 35.6966 -30.5984)
(50.8474 -46.5632 -102.78)
(54.7184 -49.9492 -97.7095)
(58.5682 -49.6607 -90.8167)
(57.9961 -50.7562 -80.2322)
(61.2583 -51.0351 -63.0661)
(44.7008 -38.4456 -29.1833)
(48.5116 -37.4515 -107.438)
(53.3382 -42.411 -104.562)
(58.4141 -42.7846 -98.9177)
(58.2118 -43.7973 -88.2564)
(62.2613 -43.1683 -70.4183)
(45.4974 -35.4185 -33.0152)
(48.8744 -30.9496 -115.134)
(55.4869 -35.5803 -110.268)
(61.007 -35.9467 -103.453)
(59.8773 -37.4006 -92.1727)
(63.7096 -34.4767 -73.6719)
(45.9161 -31.6454 -35.2292)
(46.6183 -24.197 -117.648)
(54.2073 -28.6893 -111.491)
(60.6212 -28.8512 -103.089)
(60.4563 -30.8757 -90.2766)
(64.5308 -26.6296 -71.6621)
(47.7841 -27.2936 -34.2489)
(45.1878 -19.0412 -117.027)
(54.3535 -22.4991 -107.64)
(62.3325 -22.9987 -96.9554)
(63.5904 -25.6323 -82.8211)
(67.0926 -20.9309 -64.1001)
(52.1679 -22.642 -28.755)
(43.9297 -15.6587 -111.212)
(54.2621 -18.5633 -98.5219)
(63.4154 -18.6086 -85.6716)
(67.0364 -20.588 -70.353)
(70.1815 -16.4164 -51.6869)
(59.0795 -15.476 -18.7875)
(43.9688 -12.9032 -102.37)
(55.7664 -13.5779 -87.4585)
(66.5174 -13.2825 -73.2844)
(72.8232 -12.8019 -57.6702)
(75.3531 -10.5505 -39.0435)
(67.8919 -4.90386 -10.6761)
(44.7072 -9.09498 -92.7284)
(57.8992 -7.15719 -77.0162)
(70.5048 -6.21035 -62.5195)
(79.1178 -2.90102 -47.8468)
(82.1549 -2.44641 -30.6772)
(74.7835 7.28176 -8.59879)
(46.7929 -3.1099 -84.0561)
(60.7721 1.71637 -69.6078)
(74.8101 3.73504 -56.3061)
(84.9401 8.6287 -43.8641)
(89.345 8.60746 -29.3786)
(77.9376 19.1525 -10.1006)
(49.2794 5.40367 -77.7035)
(63.1133 13.5877 -67.0599)
(77.2676 16.2169 -56.1081)
(87.6333 22.2096 -46.9772)
(92.0176 21.602 -33.8235)
(78.893 29.3122 -13.4948)
(52.9794 17.3605 -77.3755)
(64.2423 27.0501 -70.3057)
(76.9815 29.9456 -62.5262)
(86.5079 35.77 -55.9884)
(90.6966 33.9861 -43.1479)
(76.4893 39.0933 -18.9833)
(54.2662 31.1213 -82.5861)
(63.0726 39.859 -78.9221)
(73.399 42.6345 -74.068)
(81.3022 47.3901 -67.9874)
(85.3469 44.939 -54.3588)
(69.5472 48.1056 -25.4521)
(53.7595 43.8891 -90.9134)
(59.9607 50.3785 -89.4529)
(67.4095 53.0151 -86.0224)
(73.4377 56.6136 -78.9483)
(77.6094 53.8082 -64.6519)
(60.158 54.0587 -33.1613)
(50.746 53.9691 -98.4128)
(55.3261 57.1926 -98.3826)
(59.3044 59.9575 -94.4228)
(63.4879 61.771 -86.3639)
(66.1572 59.7976 -70.8059)
(45.2448 52.5383 -37.3928)
(60.6576 -54.4289 -107.911)
(69.0151 -59.6929 -102.752)
(77.6928 -63.1754 -98.0303)
(80.8276 -69.0364 -89.227)
(85.3579 -73.0744 -75.4383)
(74.2468 -67.5766 -41.9966)
(57.3467 -44.2143 -109.876)
(67.0592 -50.78 -107.749)
(76.8534 -53.8297 -104.331)
(81.5943 -59.0335 -95.1247)
(88.7944 -61.7007 -82.3332)
(74.9336 -63.4332 -49.9118)
(57.3936 -36.9363 -116.118)
(69.6512 -43.1813 -111.934)
(80.4179 -46.1666 -107.075)
(84.698 -50.5515 -96.6406)
(91.913 -50.8997 -84.0171)
(76.2558 -57.5145 -54.6979)
(54.1943 -31.1037 -117.608)
(67.5921 -36.7648 -112.094)
(79.6158 -38.8282 -104.678)
(85.787 -42.7992 -92.809)
(93.9246 -42.0597 -81.2886)
(80.151 -49.9871 -54.4638)
(51.3969 -27.7649 -116.671)
(66.4053 -32.1453 -107.574)
(80.1242 -33.4588 -96.6432)
(88.069 -37.345 -83.1761)
(97.1516 -34.8623 -72.1485)