/*--------------------------------*- C++ -*----------------------------------*\
| =========                 |                                                 |
| \\      /  F ield         | OpenFOAM: The Open Source CFD Toolbox           |
|  \\    /   O peration     | Version:  v2106                                 |
|   \\  /    A nd           | Website:  www.openfoam.com                      |
|    \\/     M anipulation  |                                                 |
\*---------------------------------------------------------------------------*/
FoamFile
{
    version     2.0;
    format      ascii;
    arch        "LSB;label=32;scalar=64";
    class       volScalarField;
    location    "0.000169";
    object      alphat;
}
// * * * * * * * * * * * * * * * * * * * * * * * * * * * * * * * * * * * * * //

dimensions      [1 -1 -1 0 0 0 0];

internalField   nonuniform List<scalar> 
17927
(
9.10526e-17
9.10525e-17
9.10523e-17
9.10522e-17
9.10521e-17
9.10521e-17
9.1052e-17
9.10525e-17
9.10523e-17
9.10522e-17
9.1052e-17
9.10519e-17
9.10518e-17
9.10517e-17
9.10523e-17
9.10521e-17
9.10519e-17
9.10518e-17
9.10516e-17
9.10515e-17
9.10514e-17
9.10522e-17
9.1052e-17
9.10518e-17
9.10515e-17
9.10513e-17
9.10511e-17
9.1051e-17
9.10521e-17
9.10519e-17
9.10516e-17
9.10513e-17
9.1051e-17
9.10508e-17
9.10507e-17
9.1052e-17
9.10518e-17
9.10515e-17
9.10511e-17
9.10508e-17
9.10506e-17
9.10504e-17
9.1052e-17
9.10517e-17
9.10514e-17
9.1051e-17
9.10507e-17
9.10504e-17
9.10503e-17
9.1052e-17
9.10517e-17
9.10514e-17
9.1051e-17
9.10507e-17
9.10504e-17
9.10503e-17
9.1052e-17
9.10518e-17
9.10515e-17
9.10511e-17
9.10508e-17
9.10506e-17
9.10504e-17
9.10614e-17
9.10613e-17
9.10611e-17
9.1061e-17
9.10609e-17
9.10609e-17
9.10608e-17
9.10608e-17
9.10609e-17
9.10609e-17
9.1061e-17
9.10611e-17
9.10613e-17
9.10614e-17
9.10613e-17
9.10611e-17
9.10609e-17
9.10608e-17
9.10607e-17
9.10606e-17
9.10605e-17
9.10605e-17
9.10606e-17
9.10607e-17
9.10608e-17
9.1061e-17
9.10611e-17
9.10613e-17
9.10611e-17
9.10609e-17
9.10607e-17
9.10605e-17
9.10604e-17
9.10602e-17
9.10601e-17
9.10601e-17
9.10602e-17
9.10604e-17
9.10605e-17
9.10607e-17
9.1061e-17
9.10611e-17
9.1061e-17
9.10608e-17
9.10605e-17
9.10603e-17
9.106e-17
9.10599e-17
9.10597e-17
9.10597e-17
9.10599e-17
9.106e-17
9.10603e-17
9.10605e-17
9.10608e-17
9.1061e-17
9.10609e-17
9.10607e-17
9.10604e-17
9.106e-17
9.10597e-17
9.10595e-17
9.10593e-17
9.10593e-17
9.10595e-17
9.10597e-17
9.106e-17
9.10604e-17
9.10607e-17
9.10609e-17
9.10609e-17
9.10606e-17
9.10602e-17
9.10599e-17
9.10595e-17
9.10592e-17
9.1059e-17
9.1059e-17
9.10592e-17
9.10595e-17
9.10598e-17
9.10602e-17
9.10606e-17
9.10609e-17
9.10608e-17
9.10605e-17
9.10601e-17
9.10597e-17
9.10593e-17
9.1059e-17
9.10588e-17
9.10588e-17
9.1059e-17
9.10593e-17
9.10597e-17
9.10601e-17
9.10605e-17
9.10608e-17
9.10608e-17
9.10605e-17
9.10601e-17
9.10597e-17
9.10593e-17
9.1059e-17
9.10588e-17
9.10588e-17
9.1059e-17
9.10593e-17
9.10597e-17
9.10601e-17
9.10605e-17
9.10608e-17
9.10609e-17
9.10606e-17
9.10602e-17
9.10598e-17
9.10595e-17
9.10592e-17
9.1059e-17
9.1059e-17
9.10592e-17
9.10595e-17
9.10598e-17
9.10602e-17
9.10606e-17
9.10609e-17
9.10609e-17
9.10607e-17
9.10604e-17
9.106e-17
9.10597e-17
9.10595e-17
9.10593e-17
9.10593e-17
9.10595e-17
9.10597e-17
9.106e-17
9.10603e-17
9.10607e-17
9.10609e-17
9.1061e-17
9.10608e-17
9.10605e-17
9.10603e-17
9.106e-17
9.10598e-17
9.10597e-17
9.10597e-17
9.10598e-17
9.106e-17
9.10603e-17
9.10605e-17
9.10608e-17
9.1061e-17
9.10611e-17
9.1061e-17
9.10607e-17
9.10605e-17
9.10604e-17
9.10602e-17
9.10601e-17
9.10601e-17
9.10602e-17
9.10604e-17
9.10605e-17
9.10607e-17
9.10609e-17
9.10611e-17
9.10613e-17
9.10611e-17
9.1061e-17
9.10608e-17
9.10607e-17
9.10606e-17
9.10605e-17
9.10605e-17
9.10606e-17
9.10607e-17
9.10608e-17
9.1061e-17
9.10611e-17
9.10613e-17
9.10614e-17
9.10613e-17
9.10611e-17
9.1061e-17
9.10609e-17
9.10609e-17
9.10608e-17
9.10608e-17
9.10609e-17
9.10609e-17
9.1061e-17
9.10611e-17
9.10613e-17
9.10614e-17
9.10701e-17
9.107e-17
9.10699e-17
9.10698e-17
9.10698e-17
9.10697e-17
9.10697e-17
9.10697e-17
9.10697e-17
9.10698e-17
9.10699e-17
9.10699e-17
9.107e-17
9.10701e-17
9.107e-17
9.10699e-17
9.10698e-17
9.10697e-17
9.10696e-17
9.10695e-17
9.10695e-17
9.10695e-17
9.10695e-17
9.10696e-17
9.10697e-17
9.10698e-17
9.10699e-17
9.107e-17
9.10699e-17
9.10698e-17
9.10696e-17
9.10695e-17
9.10693e-17
9.10692e-17
9.10691e-17
9.10691e-17
9.10692e-17
9.10693e-17
9.10695e-17
9.10696e-17
9.10698e-17
9.10699e-17
9.10698e-17
9.10697e-17
9.10695e-17
9.10693e-17
9.10691e-17
9.10689e-17
9.10688e-17
9.10688e-17
9.10689e-17
9.10691e-17
9.10693e-17
9.10695e-17
9.10697e-17
9.10699e-17
9.10698e-17
9.10696e-17
9.10693e-17
9.10691e-17
9.10688e-17
9.10687e-17
9.10685e-17
9.10685e-17
9.10687e-17
9.10688e-17
9.10691e-17
9.10693e-17
9.10696e-17
9.10698e-17
9.10697e-17
9.10695e-17
9.10692e-17
9.10689e-17
9.10687e-17
9.10684e-17
9.10683e-17
9.10683e-17
9.10684e-17
9.10686e-17
9.10689e-17
9.10692e-17
9.10695e-17
9.10697e-17
9.10697e-17
9.10695e-17
9.10691e-17
9.10688e-17
9.10685e-17
9.10683e-17
9.10681e-17
9.10681e-17
9.10683e-17
9.10685e-17
9.10688e-17
9.10691e-17
9.10695e-17
9.10697e-17
9.10697e-17
9.10695e-17
9.10691e-17
9.10688e-17
9.10685e-17
9.10683e-17
9.10681e-17
9.10681e-17
9.10683e-17
9.10685e-17
9.10688e-17
9.10691e-17
9.10695e-17
9.10697e-17
9.10697e-17
9.10695e-17
9.10692e-17
9.10689e-17
9.10687e-17
9.10684e-17
9.10683e-17
9.10683e-17
9.10684e-17
9.10686e-17
9.10689e-17
9.10692e-17
9.10695e-17
9.10697e-17
9.10698e-17
9.10696e-17
9.10693e-17
9.10691e-17
9.10688e-17
9.10686e-17
9.10685e-17
9.10685e-17
9.10686e-17
9.10688e-17
9.10691e-17
9.10693e-17
9.10696e-17
9.10698e-17
9.10699e-17
9.10697e-17
9.10695e-17
9.10693e-17
9.10691e-17
9.10689e-17
9.10688e-17
9.10688e-17
9.10689e-17
9.10691e-17
9.10693e-17
9.10695e-17
9.10697e-17
9.10699e-17
9.10699e-17
9.10698e-17
9.10696e-17
9.10695e-17
9.10693e-17
9.10692e-17
9.10691e-17
9.10691e-17
9.10692e-17
9.10693e-17
9.10695e-17
9.10696e-17
9.10698e-17
9.10699e-17
9.107e-17
9.10699e-17
9.10698e-17
9.10697e-17
9.10696e-17
9.10695e-17
9.10695e-17
9.10695e-17
9.10695e-17
9.10696e-17
9.10697e-17
9.10698e-17
9.10699e-17
9.107e-17
9.10701e-17
9.107e-17
9.10699e-17
9.10699e-17
9.10698e-17
9.10697e-17
9.10697e-17
9.10697e-17
9.10697e-17
9.10698e-17
9.10699e-17
9.10699e-17
9.107e-17
9.10701e-17
9.10792e-17
9.10792e-17
9.10792e-17
9.10791e-17
9.10791e-17
9.10791e-17
9.1079e-17
9.1079e-17
9.10791e-17
9.10791e-17
9.10792e-17
9.10792e-17
9.10792e-17
9.10792e-17
9.10792e-17
9.10792e-17
9.10791e-17
9.10791e-17
9.1079e-17
9.1079e-17
9.1079e-17
9.1079e-17
9.1079e-17
9.1079e-17
9.10791e-17
9.10791e-17
9.10792e-17
9.10792e-17
9.10792e-17
9.10791e-17
9.1079e-17
9.1079e-17
9.10789e-17
9.10789e-17
9.10789e-17
9.10789e-17
9.10789e-17
9.10789e-17
9.1079e-17
9.10791e-17
9.10791e-17
9.10792e-17
9.10791e-17
9.10791e-17
9.1079e-17
9.10789e-17
9.10789e-17
9.10788e-17
9.10788e-17
9.10788e-17
9.10789e-17
9.10789e-17
9.1079e-17
9.1079e-17
9.10791e-17
9.10791e-17
9.10791e-17
9.1079e-17
9.10789e-17
9.10789e-17
9.10788e-17
9.10788e-17
9.10788e-17
9.10788e-17
9.10788e-17
9.10788e-17
9.10789e-17
9.10789e-17
9.1079e-17
9.10791e-17
9.10791e-17
9.1079e-17
9.10789e-17
9.10789e-17
9.10788e-17
9.10789e-17
9.10788e-17
9.10788e-17
9.10789e-17
9.10788e-17
9.10789e-17
9.10789e-17
9.1079e-17
9.10791e-17
9.1079e-17
9.1079e-17
9.10789e-17
9.10788e-17
9.10788e-17
9.10788e-17
9.10788e-17
9.10788e-17
9.10788e-17
9.10788e-17
9.10788e-17
9.10789e-17
9.1079e-17
9.1079e-17
9.1079e-17
9.1079e-17
9.10789e-17
9.10788e-17
9.10788e-17
9.10788e-17
9.10788e-17
9.10788e-17
9.10788e-17
9.10788e-17
9.10788e-17
9.10789e-17
9.1079e-17
9.10791e-17
9.10791e-17
9.1079e-17
9.10789e-17
9.10789e-17
9.10788e-17
9.10789e-17
9.10788e-17
9.10788e-17
9.10789e-17
9.10788e-17
9.10789e-17
9.10789e-17
9.1079e-17
9.10791e-17
9.10791e-17
9.1079e-17
9.10789e-17
9.10789e-17
9.10788e-17
9.10788e-17
9.10788e-17
9.10788e-17
9.10788e-17
9.10788e-17
9.10789e-17
9.1079e-17
9.1079e-17
9.10791e-17
9.10791e-17
9.10791e-17
9.1079e-17
9.1079e-17
9.10789e-17
9.10789e-17
9.10788e-17
9.10788e-17
9.10789e-17
9.10789e-17
9.1079e-17
9.1079e-17
9.10791e-17
9.10792e-17
9.10792e-17
9.10791e-17
9.10791e-17
9.1079e-17
9.10789e-17
9.10789e-17
9.10789e-17
9.10789e-17
9.10789e-17
9.10789e-17
9.1079e-17
9.10791e-17
9.10791e-17
9.10792e-17
9.10792e-17
9.10792e-17
9.10791e-17
9.10791e-17
9.1079e-17
9.1079e-17
9.1079e-17
9.1079e-17
9.1079e-17
9.1079e-17
9.10791e-17
9.10791e-17
9.10792e-17
9.10792e-17
9.10792e-17
9.10792e-17
9.10792e-17
9.10792e-17
9.10791e-17
9.10791e-17
9.1079e-17
9.1079e-17
9.10791e-17
9.10791e-17
9.10792e-17
9.10792e-17
9.10792e-17
9.10792e-17
9.10884e-17
9.10884e-17
9.10884e-17
9.10884e-17
9.10884e-17
9.10884e-17
9.10884e-17
9.10884e-17
9.10884e-17
9.10884e-17
9.10884e-17
9.10884e-17
9.10884e-17
9.10883e-17
9.10884e-17
9.10884e-17
9.10885e-17
9.10885e-17
9.10885e-17
9.10886e-17
9.10886e-17
9.10886e-17
9.10886e-17
9.10885e-17
9.10885e-17
9.10885e-17
9.10884e-17
9.10884e-17
9.10884e-17
9.10885e-17
9.10885e-17
9.10886e-17
9.10887e-17
9.10888e-17
9.10889e-17
9.10889e-17
9.10889e-17
9.10887e-17
9.10886e-17
9.10885e-17
9.10885e-17
9.10884e-17
9.10884e-17
9.10885e-17
9.10886e-17
9.10888e-17
9.10891e-17
9.10893e-17
9.10894e-17
9.10894e-17
9.10893e-17
9.10891e-17
9.10889e-17
9.10886e-17
9.10885e-17
9.10884e-17
9.10884e-17
9.10885e-17
9.10887e-17
9.10891e-17
9.10894e-17
9.10897e-17
9.10898e-17
9.10898e-17
9.10897e-17
9.10894e-17
9.10891e-17
9.10887e-17
9.10885e-17
9.10884e-17
9.10884e-17
9.10886e-17
9.10888e-17
9.10893e-17
9.10897e-17
9.109e-17
9.10902e-17
9.10902e-17
9.109e-17
9.10897e-17
9.10893e-17
9.10889e-17
9.10886e-17
9.10884e-17
9.10884e-17
9.10886e-17
9.10889e-17
9.10894e-17
9.10898e-17
9.10902e-17
9.10905e-17
9.10905e-17
9.10902e-17
9.10899e-17
9.10894e-17
9.10889e-17
9.10886e-17
9.10884e-17
9.10884e-17
9.10886e-17
9.10889e-17
9.10894e-17
9.10898e-17
9.10902e-17
9.10905e-17
9.10905e-17
9.10902e-17
9.10899e-17
9.10894e-17
9.10889e-17
9.10886e-17
9.10884e-17
9.10884e-17
9.10886e-17
9.10888e-17
9.10893e-17
9.10897e-17
9.109e-17
9.10902e-17
9.10902e-17
9.10901e-17
9.10897e-17
9.10893e-17
9.10889e-17
9.10886e-17
9.10884e-17
9.10884e-17
9.10885e-17
9.10887e-17
9.10891e-17
9.10894e-17
9.10897e-17
9.10898e-17
9.10899e-17
9.10897e-17
9.10894e-17
9.10891e-17
9.10888e-17
9.10885e-17
9.10884e-17
9.10884e-17
9.10885e-17
9.10886e-17
9.10889e-17
9.10891e-17
9.10893e-17
9.10894e-17
9.10894e-17
9.10893e-17
9.10891e-17
9.10889e-17
9.10887e-17
9.10885e-17
9.10884e-17
9.10884e-17
9.10885e-17
9.10885e-17
9.10886e-17
9.10887e-17
9.10889e-17
9.10889e-17
9.10889e-17
9.10889e-17
9.10888e-17
9.10887e-17
9.10885e-17
9.10885e-17
9.10884e-17
9.10884e-17
9.10884e-17
9.10885e-17
9.10885e-17
9.10885e-17
9.10886e-17
9.10886e-17
9.10886e-17
9.10886e-17
9.10885e-17
9.10885e-17
9.10885e-17
9.10884e-17
9.10884e-17
9.10883e-17
9.10884e-17
9.10884e-17
9.10884e-17
9.10884e-17
9.10884e-17
9.10884e-17
9.10884e-17
9.10884e-17
9.10884e-17
9.10884e-17
9.10884e-17
9.10884e-17
9.10883e-17
9.10972e-17
9.10974e-17
9.10975e-17
9.10976e-17
9.10976e-17
9.10977e-17
9.10977e-17
9.10977e-17
9.10977e-17
9.10976e-17
9.10976e-17
9.10974e-17
9.10973e-17
9.10972e-17
9.10974e-17
9.10976e-17
9.10977e-17
9.1098e-17
9.10982e-17
9.10984e-17
9.10985e-17
9.10985e-17
9.10984e-17
9.10982e-17
9.1098e-17
9.10977e-17
9.10975e-17
9.10973e-17
9.10975e-17
9.10977e-17
9.10981e-17
9.10985e-17
9.10989e-17
9.10993e-17
9.10995e-17
9.10995e-17
9.10993e-17
9.10989e-17
9.10985e-17
9.1098e-17
9.10977e-17
9.10974e-17
9.10976e-17
9.1098e-17
9.10985e-17
9.10992e-17
9.10999e-17
9.11005e-17
9.11008e-17
9.11008e-17
9.11005e-17
9.10999e-17
9.10992e-17
9.10985e-17
9.1098e-17
9.10975e-17
9.10976e-17
9.10982e-17
9.10989e-17
9.10999e-17
9.11008e-17
9.11016e-17
9.11021e-17
9.11021e-17
9.11016e-17
9.11008e-17
9.10999e-17
9.10989e-17
9.10982e-17
9.10976e-17
9.10977e-17
9.10984e-17
9.10993e-17
9.11005e-17
9.11016e-17
9.11025e-17
9.11031e-17
9.11031e-17
9.11025e-17
9.11016e-17
9.11005e-17
9.10993e-17
9.10984e-17
9.10977e-17
9.10977e-17
9.10985e-17
9.10995e-17
9.11008e-17
9.1102e-17
9.11031e-17
9.11037e-17
9.11037e-17
9.11031e-17
9.11021e-17
9.11008e-17
9.10995e-17
9.10985e-17
9.10977e-17
9.10977e-17
9.10985e-17
9.10995e-17
9.11008e-17
9.11021e-17
9.11031e-17
9.11037e-17
9.11037e-17
9.11031e-17
9.11021e-17
9.11008e-17
9.10995e-17
9.10985e-17
9.10977e-17
9.10977e-17
9.10984e-17
9.10993e-17
9.11005e-17
9.11016e-17
9.11025e-17
9.11031e-17
9.11031e-17
9.11025e-17
9.11016e-17
9.11005e-17
9.10993e-17
9.10984e-17
9.10976e-17
9.10976e-17
9.10982e-17
9.10989e-17
9.10999e-17
9.11008e-17
9.11016e-17
9.11021e-17
9.11021e-17
9.11016e-17
9.11009e-17
9.10999e-17
9.10989e-17
9.10982e-17
9.10976e-17
9.10975e-17
9.1098e-17
9.10985e-17
9.10992e-17
9.10999e-17
9.11005e-17
9.11008e-17
9.11008e-17
9.11005e-17
9.10999e-17
9.10992e-17
9.10985e-17
9.1098e-17
9.10975e-17
9.10974e-17
9.10977e-17
9.1098e-17
9.10985e-17
9.10989e-17
9.10993e-17
9.10995e-17
9.10995e-17
9.10993e-17
9.10989e-17
9.10985e-17
9.1098e-17
9.10977e-17
9.10974e-17
9.10973e-17
9.10975e-17
9.10977e-17
9.10979e-17
9.10982e-17
9.10984e-17
9.10985e-17
9.10985e-17
9.10984e-17
9.10982e-17
9.1098e-17
9.10977e-17
9.10975e-17
9.10973e-17
9.10972e-17
9.10973e-17
9.10974e-17
9.10975e-17
9.10976e-17
9.10976e-17
9.10977e-17
9.10977e-17
9.10977e-17
9.10976e-17
9.10975e-17
9.10974e-17
9.10973e-17
9.10971e-17
9.1105e-17
9.11054e-17
9.11057e-17
9.1106e-17
9.11062e-17
9.11064e-17
9.11066e-17
9.11065e-17
9.11064e-17
9.11062e-17
9.1106e-17
9.11056e-17
9.11053e-17
9.11049e-17
9.11054e-17
9.11059e-17
9.11064e-17
9.11069e-17
9.11074e-17
9.11078e-17
9.1108e-17
9.1108e-17
9.11077e-17
9.11073e-17
9.11068e-17
9.11063e-17
9.11058e-17
9.11053e-17
9.11057e-17
9.11064e-17
9.1107e-17
9.11078e-17
9.11086e-17
9.11091e-17
9.11095e-17
9.11095e-17
9.11091e-17
9.11085e-17
9.11078e-17
9.11069e-17
9.11063e-17
9.11056e-17
9.1106e-17
9.11069e-17
9.11078e-17
9.1109e-17
9.111e-17
9.11107e-17
9.11112e-17
9.11112e-17
9.11107e-17
9.11099e-17
9.11089e-17
9.11077e-17
9.11068e-17
9.11059e-17
9.11062e-17
9.11074e-17
9.11085e-17
9.111e-17
9.11112e-17
9.11122e-17
9.11128e-17
9.11128e-17
9.11121e-17
9.11112e-17
9.11099e-17
9.11085e-17
9.11073e-17
9.11061e-17
9.11064e-17
9.11077e-17
9.11091e-17
9.11107e-17
9.11122e-17
9.11133e-17
9.1114e-17
9.11139e-17
9.11132e-17
9.11121e-17
9.11107e-17
9.11091e-17
9.11077e-17
9.11063e-17
9.11065e-17
9.1108e-17
9.11094e-17
9.11112e-17
9.11128e-17
9.11139e-17
9.11147e-17
9.11147e-17
9.11139e-17
9.11127e-17
9.11112e-17
9.11094e-17
9.11079e-17
9.11064e-17
9.11065e-17
9.11079e-17
9.11094e-17
9.11112e-17
9.11127e-17
9.11139e-17
9.11147e-17
9.11147e-17
9.11139e-17
9.11127e-17
9.11112e-17
9.11094e-17
9.11079e-17
9.11064e-17
9.11064e-17
9.11077e-17
9.11091e-17
9.11107e-17
9.11121e-17
9.11132e-17
9.11139e-17
9.11139e-17
9.11132e-17
9.11121e-17
9.11106e-17
9.1109e-17
9.11077e-17
9.11063e-17
9.11062e-17
9.11073e-17
9.11085e-17
9.11099e-17
9.11111e-17
9.11121e-17
9.11127e-17
9.11127e-17
9.11121e-17
9.11111e-17
9.11099e-17
9.11084e-17
9.11073e-17
9.11061e-17
9.11059e-17
9.11068e-17
9.11077e-17
9.11088e-17
9.11099e-17
9.11106e-17
9.11111e-17
9.11111e-17
9.11106e-17
9.11099e-17
9.11088e-17
9.11077e-17
9.11068e-17
9.11059e-17
9.11056e-17
9.11063e-17
9.11069e-17
9.11077e-17
9.11084e-17
9.1109e-17
9.11094e-17
9.11094e-17
9.1109e-17
9.11084e-17
9.11077e-17
9.11069e-17
9.11062e-17
9.11055e-17
9.11053e-17
9.11058e-17
9.11063e-17
9.11068e-17
9.11073e-17
9.11077e-17
9.11079e-17
9.11079e-17
9.11077e-17
9.11073e-17
9.11068e-17
9.11062e-17
9.11058e-17
9.11053e-17
9.11049e-17
9.11053e-17
9.11056e-17
9.11059e-17
9.11061e-17
9.11063e-17
9.11064e-17
9.11064e-17
9.11063e-17
9.11061e-17
9.11059e-17
9.11056e-17
9.11053e-17
9.11049e-17
9.11109e-17
9.11122e-17
9.11131e-17
9.11141e-17
9.11147e-17
9.11153e-17
9.11155e-17
9.11155e-17
9.11152e-17
9.11146e-17
9.1114e-17
9.1113e-17
9.11121e-17
9.11109e-17
9.11121e-17
9.11135e-17
9.11146e-17
9.11158e-17
9.11167e-17
9.11173e-17
9.11177e-17
9.11176e-17
9.11172e-17
9.11165e-17
9.11156e-17
9.11145e-17
9.11134e-17
9.11121e-17
9.11131e-17
9.11146e-17
9.11159e-17
9.11173e-17
9.11183e-17
9.1119e-17
9.11195e-17
9.11194e-17
9.1119e-17
9.11182e-17
9.11171e-17
9.11158e-17
9.11145e-17
9.1113e-17
9.1114e-17
9.11157e-17
9.11172e-17
9.11187e-17
9.11199e-17
9.11207e-17
9.11211e-17
9.11211e-17
9.11206e-17
9.11197e-17
9.11185e-17
9.11171e-17
9.11156e-17
9.1114e-17
9.11147e-17
9.11166e-17
9.11183e-17
9.11198e-17
9.11211e-17
9.11219e-17
9.11224e-17
9.11223e-17
9.11218e-17
9.11209e-17
9.11197e-17
9.11181e-17
9.11165e-17
9.11146e-17
9.11152e-17
9.11173e-17
9.1119e-17
9.11206e-17
9.11219e-17
9.11227e-17
9.11232e-17
9.11231e-17
9.11226e-17
9.11217e-17
9.11205e-17
9.11188e-17
9.11171e-17
9.11151e-17
9.11155e-17
9.11176e-17
9.11194e-17
9.11211e-17
9.11224e-17
9.11232e-17
9.11237e-17
9.11236e-17
9.11231e-17
9.11222e-17
9.1121e-17
9.11193e-17
9.11175e-17
9.11154e-17
9.11155e-17
9.11176e-17
9.11194e-17
9.11211e-17
9.11223e-17
9.11231e-17
9.11236e-17
9.11236e-17
9.1123e-17
9.11222e-17
9.11209e-17
9.11193e-17
9.11175e-17
9.11154e-17
9.11152e-17
9.11172e-17
9.11189e-17
9.11205e-17
9.11218e-17
9.11226e-17
9.11231e-17
9.1123e-17
9.11225e-17
9.11217e-17
9.11204e-17
9.11188e-17
9.11171e-17
9.11151e-17
9.11146e-17
9.11165e-17
9.11182e-17
9.11197e-17
9.11209e-17
9.11217e-17
9.11222e-17
9.11222e-17
9.11217e-17
9.11208e-17
9.11196e-17
9.11181e-17
9.11164e-17
9.11146e-17
9.1114e-17
9.11156e-17
9.11171e-17
9.11185e-17
9.11197e-17
9.11205e-17
9.11209e-17
9.11209e-17
9.11204e-17
9.11196e-17
9.11184e-17
9.1117e-17
9.11156e-17
9.11139e-17
9.11131e-17
9.11145e-17
9.11158e-17
9.11171e-17
9.11181e-17
9.11188e-17
9.11193e-17
9.11193e-17
9.11188e-17
9.11181e-17
9.1117e-17
9.11157e-17
9.11145e-17
9.1113e-17
9.11121e-17
9.11134e-17
9.11145e-17
9.11156e-17
9.11165e-17
9.11171e-17
9.11175e-17
9.11175e-17
9.11171e-17
9.11165e-17
9.11156e-17
9.11145e-17
9.11133e-17
9.11121e-17
9.11109e-17
9.11121e-17
9.1113e-17
9.1114e-17
9.11146e-17
9.11151e-17
9.11154e-17
9.11154e-17
9.11151e-17
9.11146e-17
9.11139e-17
9.1113e-17
9.11121e-17
9.11108e-17
9.11142e-17
9.11166e-17
9.11188e-17
9.11208e-17
9.11223e-17
9.11233e-17
9.11239e-17
9.11238e-17
9.11233e-17
9.11222e-17
9.11208e-17
9.11188e-17
9.11167e-17
9.11143e-17
9.11166e-17
9.11192e-17
9.11216e-17
9.11237e-17
9.11253e-17
9.11264e-17
9.1127e-17
9.1127e-17
9.11264e-17
9.11253e-17
9.11237e-17
9.11216e-17
9.11193e-17
9.11167e-17
9.11188e-17
9.11216e-17
9.11242e-17
9.11262e-17
9.11277e-17
9.11287e-17
9.11292e-17
9.11292e-17
9.11286e-17
9.11277e-17
9.11262e-17
9.11241e-17
9.11217e-17
9.11189e-17
9.11208e-17
9.11237e-17
9.11262e-17
9.11282e-17
9.11295e-17
9.11303e-17
9.11308e-17
9.11308e-17
9.11302e-17
9.11294e-17
9.11281e-17
9.11262e-17
9.11237e-17
9.11208e-17
9.11222e-17
9.11253e-17
9.11277e-17
9.11295e-17
9.11307e-17
9.11313e-17
9.11317e-17
9.11317e-17
9.11312e-17
9.11305e-17
9.11294e-17
9.11276e-17
9.11253e-17
9.11223e-17
9.11233e-17
9.11264e-17
9.11287e-17
9.11303e-17
9.11313e-17
9.11318e-17
9.11321e-17
9.11321e-17
9.11317e-17
9.11312e-17
9.11302e-17
9.11286e-17
9.11263e-17
9.11233e-17
9.11239e-17
9.1127e-17
9.11292e-17
9.11308e-17
9.11317e-17
9.11321e-17
9.11324e-17
9.11323e-17
9.1132e-17
9.11315e-17
9.11306e-17
9.11291e-17
9.11269e-17
9.11239e-17
9.11239e-17
9.1127e-17
9.11292e-17
9.11308e-17
9.11317e-17
9.11321e-17
9.11323e-17
9.11323e-17
9.1132e-17
9.11315e-17
9.11306e-17
9.11291e-17
9.11269e-17
9.11239e-17
9.11233e-17
9.11264e-17
9.11287e-17
9.11303e-17
9.11313e-17
9.11318e-17
9.1132e-17
9.1132e-17
9.11317e-17
9.11311e-17
9.11301e-17
9.11285e-17
9.11263e-17
9.11233e-17
9.11223e-17
9.11253e-17
9.11277e-17
9.11294e-17
9.11306e-17
9.11312e-17
9.11316e-17
9.11315e-17
9.11311e-17
9.11304e-17
9.11293e-17
9.11276e-17
9.11252e-17
9.11223e-17
9.11208e-17
9.11237e-17
9.11262e-17
9.11281e-17
9.11294e-17
9.11302e-17
9.11306e-17
9.11306e-17
9.11301e-17
9.11293e-17
9.1128e-17
9.11261e-17
9.11237e-17
9.11208e-17
9.11188e-17
9.11217e-17
9.11242e-17
9.11262e-17
9.11277e-17
9.11286e-17
9.11291e-17
9.11291e-17
9.11285e-17
9.11276e-17
9.11261e-17
9.11241e-17
9.11216e-17
9.11189e-17
9.11167e-17
9.11193e-17
9.11217e-17
9.11237e-17
9.11253e-17
9.11263e-17
9.11269e-17
9.11269e-17
9.11263e-17
9.11252e-17
9.11237e-17
9.11216e-17
9.11193e-17
9.11167e-17
9.11142e-17
9.11167e-17
9.11189e-17
9.11208e-17
9.11223e-17
9.11233e-17
9.11238e-17
9.11238e-17
9.11233e-17
9.11222e-17
9.11208e-17
9.11188e-17
9.11167e-17
9.11143e-17
9.11157e-17
9.1119e-17
9.11222e-17
9.11251e-17
9.11274e-17
9.1129e-17
9.11299e-17
9.11299e-17
9.11291e-17
9.11275e-17
9.11253e-17
9.11224e-17
9.11192e-17
9.11159e-17
9.1119e-17
9.11226e-17
9.11262e-17
9.11293e-17
9.11317e-17
9.11333e-17
9.11342e-17
9.11342e-17
9.11334e-17
9.11319e-17
9.11295e-17
9.11264e-17
9.11228e-17
9.11192e-17
9.11222e-17
9.11262e-17
9.11301e-17
9.11331e-17
9.11353e-17
9.11366e-17
9.11374e-17
9.11374e-17
9.11367e-17
9.11354e-17
9.11333e-17
9.11302e-17
9.11264e-17
9.11224e-17
9.11251e-17
9.11293e-17
9.11331e-17
9.11359e-17
9.11377e-17
9.11388e-17
9.11394e-17
9.11394e-17
9.11388e-17
9.11378e-17
9.1136e-17
9.11333e-17
9.11295e-17
9.11253e-17
9.11274e-17
9.11318e-17
9.11353e-17
9.11377e-17
9.11393e-17
9.11401e-17
9.11406e-17
9.11406e-17
9.11402e-17
9.11393e-17
9.11378e-17
9.11354e-17
9.11319e-17
9.11276e-17
9.1129e-17
9.11333e-17
9.11367e-17
9.11388e-17
9.11401e-17
9.11408e-17
9.11412e-17
9.11412e-17
9.11409e-17
9.11402e-17
9.11389e-17
9.11367e-17
9.11334e-17
9.11291e-17
9.11299e-17
9.11342e-17
9.11374e-17
9.11394e-17
9.11406e-17
9.11412e-17
9.11415e-17
9.11415e-17
9.11413e-17
9.11406e-17
9.11395e-17
9.11375e-17
9.11343e-17
9.113e-17
9.11299e-17
9.11343e-17
9.11374e-17
9.11395e-17
9.11406e-17
9.11413e-17
9.11416e-17
9.11416e-17
9.11413e-17
9.11406e-17
9.11395e-17
9.11375e-17
9.11343e-17
9.113e-17
9.11291e-17
9.11334e-17
9.11367e-17
9.11389e-17
9.11402e-17
9.11409e-17
9.11413e-17
9.11413e-17
9.11409e-17
9.11402e-17
9.11389e-17
9.11367e-17
9.11334e-17
9.11291e-17
9.11275e-17
9.11319e-17
9.11354e-17
9.11379e-17
9.11394e-17
9.11402e-17
9.11407e-17
9.11406e-17
9.11402e-17
9.11393e-17
9.11378e-17
9.11354e-17
9.11319e-17
9.11276e-17
9.11253e-17
9.11295e-17
9.11333e-17
9.1136e-17
9.11379e-17
9.11389e-17
9.11395e-17
9.11395e-17
9.11389e-17
9.11378e-17
9.1136e-17
9.11332e-17
9.11295e-17
9.11253e-17
9.11223e-17
9.11264e-17
9.11302e-17
9.11333e-17
9.11355e-17
9.11368e-17
9.11375e-17
9.11374e-17
9.11367e-17
9.11354e-17
9.11332e-17
9.11302e-17
9.11264e-17
9.11224e-17
9.11191e-17
9.11228e-17
9.11264e-17
9.11295e-17
9.11319e-17
9.11334e-17
9.11343e-17
9.11343e-17
9.11334e-17
9.11318e-17
9.11294e-17
9.11263e-17
9.11228e-17
9.11192e-17
9.11158e-17
9.11191e-17
9.11223e-17
9.11253e-17
9.11276e-17
9.11291e-17
9.113e-17
9.11299e-17
9.1129e-17
9.11275e-17
9.11252e-17
9.11223e-17
9.11191e-17
9.11159e-17
9.11171e-17
9.11206e-17
9.11242e-17
9.11277e-17
9.11304e-17
9.11323e-17
9.11334e-17
9.11335e-17
9.11324e-17
9.11306e-17
9.11279e-17
9.11244e-17
9.11207e-17
9.11171e-17
9.11206e-17
9.11247e-17
9.11289e-17
9.11326e-17
9.11356e-17
9.11375e-17
9.11387e-17
9.11387e-17
9.11377e-17
9.11358e-17
9.11329e-17
9.11291e-17
9.11248e-17
9.11206e-17
9.11243e-17
9.11289e-17
9.11336e-17
9.11374e-17
9.11402e-17
9.1142e-17
9.1143e-17
9.1143e-17
9.11422e-17
9.11405e-17
9.11377e-17
9.11338e-17
9.11291e-17
9.11244e-17
9.11277e-17
9.11327e-17
9.11374e-17
9.1141e-17
9.11436e-17
9.11451e-17
9.11459e-17
9.1146e-17
9.11453e-17
9.11439e-17
9.11414e-17
9.11377e-17
9.11328e-17
9.11278e-17
9.11305e-17
9.11356e-17
9.11403e-17
9.11436e-17
9.11459e-17
9.11472e-17
9.11479e-17
9.1148e-17
9.11474e-17
9.11462e-17
9.11439e-17
9.11405e-17
9.11358e-17
9.11306e-17
9.11324e-17
9.11376e-17
9.1142e-17
9.11451e-17
9.11472e-17
9.11484e-17
9.11491e-17
9.11492e-17
9.11486e-17
9.11475e-17
9.11454e-17
9.11423e-17
9.11378e-17
9.11324e-17
9.11335e-17
9.11387e-17
9.1143e-17
9.11459e-17
9.11479e-17
9.11491e-17
9.11498e-17
9.11499e-17
9.11493e-17
9.11482e-17
9.11462e-17
9.11432e-17
9.11389e-17
9.11335e-17
9.11335e-17
9.11388e-17
9.1143e-17
9.1146e-17
9.1148e-17
9.11492e-17
9.11499e-17
9.115e-17
9.11494e-17
9.11482e-17
9.11463e-17
9.11433e-17
9.11389e-17
9.11335e-17
9.11324e-17
9.11377e-17
9.11422e-17
9.11453e-17
9.11474e-17
9.11486e-17
9.11493e-17
9.11494e-17
9.11488e-17
9.11476e-17
9.11455e-17
9.11423e-17
9.11378e-17
9.11324e-17
9.11305e-17
9.11358e-17
9.11405e-17
9.11439e-17
9.11461e-17
9.11475e-17
9.11482e-17
9.11482e-17
9.11476e-17
9.11463e-17
9.1144e-17
9.11406e-17
9.11358e-17
9.11305e-17
9.11278e-17
9.11328e-17
9.11376e-17
9.11413e-17
9.11439e-17
9.11454e-17
9.11462e-17
9.11462e-17
9.11455e-17
9.1144e-17
9.11414e-17
9.11377e-17
9.11328e-17
9.11278e-17
9.11243e-17
9.1129e-17
9.11338e-17
9.11377e-17
9.11405e-17
9.11423e-17
9.11432e-17
9.11432e-17
9.11423e-17
9.11405e-17
9.11377e-17
9.11338e-17
9.1129e-17
9.11243e-17
9.11206e-17
9.11247e-17
9.1129e-17
9.11328e-17
9.11358e-17
9.11378e-17
9.11389e-17
9.11388e-17
9.11377e-17
9.11358e-17
9.11328e-17
9.1129e-17
9.11248e-17
9.11206e-17
9.11171e-17
9.11206e-17
9.11243e-17
9.11278e-17
9.11305e-17
9.11324e-17
9.11335e-17
9.11335e-17
9.11324e-17
9.11305e-17
9.11277e-17
9.11243e-17
9.11206e-17
9.11171e-17
9.1053e-17
9.10534e-17
9.10539e-17
9.10545e-17
9.1055e-17
9.10556e-17
9.10528e-17
9.10533e-17
9.10537e-17
9.10543e-17
9.10549e-17
9.10555e-17
9.10527e-17
9.10531e-17
9.10536e-17
9.10542e-17
9.10549e-17
9.10555e-17
9.10526e-17
9.1053e-17
9.10535e-17
9.10542e-17
9.10548e-17
9.10555e-17
9.10525e-17
9.10529e-17
9.10535e-17
9.10541e-17
9.10548e-17
9.10555e-17
9.10524e-17
9.10529e-17
9.10534e-17
9.1054e-17
9.10548e-17
9.10555e-17
9.10524e-17
9.10528e-17
9.10534e-17
9.1054e-17
9.10548e-17
9.10555e-17
9.10617e-17
9.10622e-17
9.10628e-17
9.10635e-17
9.10642e-17
9.10649e-17
9.10615e-17
9.1062e-17
9.10626e-17
9.10633e-17
9.10641e-17
9.10649e-17
9.10614e-17
9.10619e-17
9.10624e-17
9.10632e-17
9.1064e-17
9.10649e-17
9.10613e-17
9.10618e-17
9.10623e-17
9.1063e-17
9.10639e-17
9.10649e-17
9.10613e-17
9.10617e-17
9.10622e-17
9.1063e-17
9.10639e-17
9.10648e-17
9.10612e-17
9.10616e-17
9.10622e-17
9.10629e-17
9.10638e-17
9.10648e-17
9.10612e-17
9.10616e-17
9.10621e-17
9.10629e-17
9.10638e-17
9.10648e-17
9.10612e-17
9.10616e-17
9.10621e-17
9.10629e-17
9.10638e-17
9.10648e-17
9.10612e-17
9.10616e-17
9.10622e-17
9.10629e-17
9.10638e-17
9.10648e-17
9.10613e-17
9.10617e-17
9.10622e-17
9.1063e-17
9.10639e-17
9.10648e-17
9.10613e-17
9.10618e-17
9.10623e-17
9.1063e-17
9.10639e-17
9.10649e-17
9.10615e-17
9.10619e-17
9.10624e-17
9.10632e-17
9.1064e-17
9.10649e-17
9.10615e-17
9.1062e-17
9.10626e-17
9.10633e-17
9.10641e-17
9.10649e-17
9.10617e-17
9.10622e-17
9.10628e-17
9.10635e-17
9.10642e-17
9.10649e-17
9.10703e-17
9.10707e-17
9.10713e-17
9.1072e-17
9.10727e-17
9.10735e-17
9.10702e-17
9.10706e-17
9.1071e-17
9.10718e-17
9.10726e-17
9.10735e-17
9.10701e-17
9.10704e-17
9.10709e-17
9.10716e-17
9.10725e-17
9.10735e-17
9.10701e-17
9.10704e-17
9.10708e-17
9.10715e-17
9.10724e-17
9.10734e-17
9.107e-17
9.10703e-17
9.10707e-17
9.10714e-17
9.10724e-17
9.10734e-17
9.107e-17
9.10703e-17
9.10707e-17
9.10714e-17
9.10723e-17
9.10734e-17
9.107e-17
9.10702e-17
9.10706e-17
9.10713e-17
9.10723e-17
9.10734e-17
9.107e-17
9.10703e-17
9.10706e-17
9.10713e-17
9.10723e-17
9.10734e-17
9.107e-17
9.10703e-17
9.10707e-17
9.10714e-17
9.10723e-17
9.10734e-17
9.107e-17
9.10703e-17
9.10707e-17
9.10714e-17
9.10724e-17
9.10734e-17
9.10701e-17
9.10704e-17
9.10708e-17
9.10715e-17
9.10724e-17
9.10734e-17
9.10702e-17
9.10705e-17
9.10709e-17
9.10716e-17
9.10725e-17
9.10735e-17
9.10702e-17
9.10706e-17
9.1071e-17
9.10718e-17
9.10726e-17
9.10735e-17
9.10704e-17
9.10707e-17
9.10713e-17
9.1072e-17
9.10727e-17
9.10735e-17
9.10794e-17
9.10796e-17
9.108e-17
9.10804e-17
9.1081e-17
9.10815e-17
9.10793e-17
9.10795e-17
9.10798e-17
9.10803e-17
9.10809e-17
9.10815e-17
9.10793e-17
9.10795e-17
9.10797e-17
9.10802e-17
9.10808e-17
9.10815e-17
9.10793e-17
9.10794e-17
9.10797e-17
9.10801e-17
9.10807e-17
9.10814e-17
9.10792e-17
9.10794e-17
9.10796e-17
9.108e-17
9.10807e-17
9.10814e-17
9.10792e-17
9.10794e-17
9.10796e-17
9.108e-17
9.10806e-17
9.10814e-17
9.10792e-17
9.10793e-17
9.10795e-17
9.108e-17
9.10806e-17
9.10814e-17
9.10792e-17
9.10794e-17
9.10796e-17
9.108e-17
9.10806e-17
9.10814e-17
9.10792e-17
9.10794e-17
9.10796e-17
9.108e-17
9.10806e-17
9.10814e-17
9.10793e-17
9.10794e-17
9.10796e-17
9.108e-17
9.10807e-17
9.10814e-17
9.10793e-17
9.10794e-17
9.10797e-17
9.10801e-17
9.10807e-17
9.10814e-17
9.10793e-17
9.10795e-17
9.10797e-17
9.10802e-17
9.10808e-17
9.10814e-17
9.10793e-17
9.10795e-17
9.10798e-17
9.10803e-17
9.10808e-17
9.10814e-17
9.10794e-17
9.10796e-17
9.108e-17
9.10804e-17
9.10809e-17
9.10815e-17
9.10884e-17
9.10883e-17
9.10882e-17
9.1088e-17
9.10879e-17
9.1088e-17
9.10884e-17
9.10883e-17
9.10882e-17
9.1088e-17
9.10879e-17
9.10879e-17
9.10884e-17
9.10884e-17
9.10882e-17
9.1088e-17
9.10879e-17
9.10879e-17
9.10884e-17
9.10884e-17
9.10882e-17
9.10881e-17
9.10879e-17
9.10879e-17
9.10884e-17
9.10884e-17
9.10882e-17
9.10881e-17
9.10879e-17
9.1088e-17
9.10884e-17
9.10884e-17
9.10882e-17
9.10881e-17
9.10879e-17
9.1088e-17
9.10884e-17
9.10884e-17
9.10882e-17
9.10881e-17
9.10879e-17
9.1088e-17
9.10884e-17
9.10884e-17
9.10883e-17
9.10881e-17
9.10879e-17
9.1088e-17
9.10884e-17
9.10884e-17
9.10882e-17
9.10881e-17
9.10879e-17
9.1088e-17
9.10884e-17
9.10884e-17
9.10882e-17
9.10881e-17
9.10879e-17
9.10879e-17
9.10884e-17
9.10884e-17
9.10882e-17
9.1088e-17
9.10879e-17
9.10879e-17
9.10884e-17
9.10884e-17
9.10882e-17
9.1088e-17
9.10879e-17
9.10879e-17
9.10884e-17
9.10883e-17
9.10882e-17
9.1088e-17
9.10879e-17
9.10879e-17
9.10884e-17
9.10882e-17
9.10881e-17
9.1088e-17
9.10879e-17
9.10879e-17
9.10971e-17
9.10966e-17
9.1096e-17
9.10953e-17
9.10946e-17
9.10941e-17
9.10973e-17
9.10969e-17
9.10963e-17
9.10955e-17
9.10947e-17
9.10941e-17
9.10973e-17
9.1097e-17
9.10964e-17
9.10956e-17
9.10947e-17
9.10942e-17
9.10974e-17
9.10971e-17
9.10966e-17
9.10958e-17
9.10948e-17
9.10942e-17
9.10974e-17
9.10971e-17
9.10966e-17
9.10959e-17
9.10949e-17
9.10942e-17
9.10974e-17
9.10971e-17
9.10967e-17
9.10959e-17
9.10949e-17
9.10943e-17
9.10974e-17
9.10971e-17
9.10967e-17
9.1096e-17
9.1095e-17
9.10943e-17
9.10974e-17
9.10971e-17
9.10967e-17