/*--------------------------------*- C++ -*----------------------------------*\
| =========                 |                                                 |
| \\      /  F ield         | OpenFOAM: The Open Source CFD Toolbox           |
|  \\    /   O peration     | Version:  v2106                                 |
|   \\  /    A nd           | Website:  www.openfoam.com                      |
|    \\/     M anipulation  |                                                 |
\*---------------------------------------------------------------------------*/
FoamFile
{
    version     2.0;
    format      ascii;
    arch        "LSB;label=32;scalar=64";
    class       surfaceScalarField;
    location    "0.000136";
    object      phi;
}
// * * * * * * * * * * * * * * * * * * * * * * * * * * * * * * * * * * * * * //

dimensions      [1 0 -1 0 0 0 0];

internalField   nonuniform List<scalar> 
52246
(
-5.92245e-09
8.31714e-09
2.8281e-07
-9.12993e-09
8.19733e-09
2.82763e-07
-8.97513e-09
-6.96889e-09
-5.88259e-09
7.37234e-09
2.8283e-07
7.3098e-09
2.82849e-07
-6.90184e-09
-6.01836e-09
6.3922e-09
2.82922e-07
6.28003e-09
2.82918e-07
-6.96178e-09
-6.15702e-09
5.36615e-09
2.82993e-07
5.22027e-09
2.82977e-07
-7.14056e-09
-6.27599e-09
4.27614e-09
2.83061e-07
4.13637e-09
2.83022e-07
-7.2955e-09
-6.30492e-09
3.11172e-09
2.83112e-07
3.02576e-09
2.83059e-07
-7.33973e-09
-6.29028e-09
1.89415e-09
2.83152e-07
1.89527e-09
2.83089e-07
-7.32472e-09
-6.25854e-09
6.54193e-10
2.8318e-07
7.53848e-10
2.83115e-07
-7.28263e-09
-6.18472e-09
-5.85212e-10
2.83183e-07
-4.08509e-10
2.83132e-07
-7.19345e-09
-6.07535e-09
-1.78869e-09
2.83182e-07
-1.58866e-09
2.83141e-07
-7.05093e-09
-5.9336e-09
-2.93168e-09
2.83155e-07
-2.78913e-09
2.83134e-07
-6.83483e-09
-5.81581e-09
-4.03223e-09
2.8313e-07
-4.01697e-09
2.83122e-07
-6.62353e-09
-5.73036e-09
-5.07996e-09
2.83099e-07
-5.10145e-09
2.83104e-07
-6.59872e-09
-5.64545e-09
2.83128e-07
-6.09231e-09
2.83067e-07
-6.47885e-09
-6.15184e-09
7.39703e-09
8.99547e-09
2.57781e-07
-9.97213e-09
-8.10167e-09
6.37696e-09
8.94271e-09
2.57765e-07
-9.72558e-09
5.35421e-09
9.08799e-09
2.57703e-07
-9.94734e-09
4.34025e-09
9.19641e-09
2.57649e-07
-1.01401e-08
3.31776e-09
9.34143e-09
2.57608e-07
-1.03254e-08
2.26624e-09
9.37702e-09
2.57572e-07
-1.03635e-08
1.17969e-09
9.38579e-09
2.5755e-07
-1.03599e-08
7.18274e-11
9.32144e-09
2.5754e-07
-1.02817e-08
-1.03844e-09
9.20626e-09
2.57552e-07
-1.01553e-08
-2.16485e-09
9.07861e-09
2.57578e-07
-9.99274e-09
-3.3238e-09
8.89082e-09
2.57612e-07
-9.73888e-09
-4.54729e-09
8.73953e-09
2.57664e-07
-9.46951e-09
-5.78687e-09
8.57313e-09
2.57738e-07
-9.21209e-09
8.5624e-09
2.57779e-07
-9.25255e-09
-6.79335e-09
7.36927e-09
7.77451e-09
2.57769e-07
-7.99336e-09
6.49493e-09
7.92239e-09
2.57642e-07
5.56291e-09
8.02612e-09
2.57594e-07
4.5522e-09
8.13377e-09
2.57548e-07
3.48589e-09
8.27325e-09
2.57529e-07
2.35521e-09
8.33509e-09
2.57511e-07
1.16697e-09
8.36984e-09
2.57507e-07
-5.26196e-11
8.32942e-09
2.57503e-07
-1.26563e-09
8.22611e-09
2.57506e-07
-2.45276e-09
8.10136e-09
2.57517e-07
-3.60249e-09
7.92491e-09
2.57532e-07
-4.6913e-09
7.77791e-09
2.57568e-07
-5.73282e-09
7.66004e-09
2.57625e-07
7.50493e-09
2.57759e-07
-6.54002e-09
7.51822e-09
6.57176e-09
2.57704e-07
-8.22727e-09
6.582e-09
6.85593e-09
2.57589e-07
5.58359e-09
6.91145e-09
2.57575e-07
4.51309e-09
7.01955e-09
2.57524e-07
3.41427e-09
7.12968e-09
2.575e-07
2.28437e-09
7.19078e-09
2.57471e-07
1.12246e-09
7.2265e-09
2.57454e-07
-6.08097e-11
7.20058e-09
2.57451e-07
-1.24823e-09
7.12248e-09
2.57466e-07
-2.43804e-09
7.02478e-09
2.57495e-07
-3.62777e-09
6.89509e-09
2.57519e-07
-4.77738e-09
6.76842e-09
2.57569e-07
-5.89139e-09
6.71617e-09
2.57598e-07
6.46746e-09
2.5771e-07
-6.79477e-09
7.67595e-09
5.42639e-09
2.57653e-07
-8.50766e-09
6.70648e-09
5.74281e-09
2.57555e-07
5.68612e-09
5.75233e-09
2.57529e-07
4.59442e-09
5.86e-09
2.57474e-07
3.46362e-09
5.94707e-09
2.5745e-07
2.29817e-09
6.00664e-09
2.57426e-07
1.09631e-09
6.04294e-09
2.57414e-07
-1.24327e-10
6.02799e-09
2.57413e-07
-1.34e-09
5.9699e-09
2.57426e-07
-2.54607e-09
5.89361e-09
2.5745e-07
-3.74236e-09
5.80476e-09
2.57476e-07
-4.90486e-09
5.703e-09
2.57533e-07
-6.0318e-09
5.71035e-09
2.57573e-07
5.45687e-09
2.57672e-07
-7.03463e-09
7.88634e-09
4.29939e-09
2.57619e-07
-8.78425e-09
6.89096e-09
4.59526e-09
2.57546e-07
5.81729e-09
4.58747e-09
2.57514e-07
4.68039e-09
4.68114e-09
2.57459e-07
3.50633e-09
4.74149e-09
2.57429e-07
2.30862e-09
4.78841e-09
2.57404e-07
1.08166e-09
4.81755e-09
2.57389e-07
-1.61698e-10
4.81013e-09
2.57389e-07
-1.40204e-09
4.77396e-09
2.57405e-07
-2.63749e-09
4.72499e-09
2.57431e-07
-3.85926e-09
4.67617e-09
2.57463e-07
-5.05399e-09
4.61018e-09
2.57521e-07
-6.18572e-09
4.65312e-09
2.57561e-07
4.43692e-09
2.57638e-07
-7.23167e-09
8.00774e-09
3.1607e-09
2.57596e-07
-8.9409e-09
7.0126e-09
3.39343e-09
2.57538e-07
5.91397e-09
3.39866e-09
2.57491e-07
4.75594e-09
3.4705e-09
2.5744e-07
3.55303e-09
3.51039e-09
2.57408e-07
2.32729e-09
3.54229e-09
2.57385e-07
1.07274e-09
3.56265e-09
2.5737e-07
-1.95507e-10
3.55927e-09
2.5737e-07
-1.45536e-09
3.54013e-09
2.57387e-07
-2.70685e-09
3.51627e-09
2.57412e-07
-3.93249e-09
3.49695e-09
2.57447e-07
-5.12676e-09
3.46798e-09
2.57501e-07
-6.23086e-09
3.51671e-09
2.57553e-07
3.37787e-09
2.57614e-07
-7.28077e-09
8.11403e-09
2.01932e-09
2.5759e-07
-9.07274e-09
7.11551e-09
2.16032e-09
2.57545e-07
5.99486e-09
2.19752e-09
2.57487e-07
4.81718e-09
2.24297e-09
2.57439e-07
3.59089e-09
2.26584e-09
2.57405e-07
2.34536e-09
2.27814e-09
2.57383e-07
1.07412e-09
2.28694e-09
2.57367e-07
-2.08098e-10
2.28519e-09
2.57368e-07
-1.47865e-09
2.28008e-09
2.57385e-07
-2.74041e-09
2.28091e-09
2.57409e-07
-3.96881e-09
2.28291e-09
2.57444e-07
-5.15631e-09
2.28603e-09
2.57495e-07
-6.23152e-09
2.31045e-09
2.57554e-07
2.27685e-09
2.57603e-07
-7.2761e-09
8.18162e-09
9.01296e-10
2.57606e-07
-9.16368e-09
7.17165e-09
9.33729e-10
2.5756e-07
6.03303e-09
1.00508e-09
2.57502e-07
4.83985e-09
1.02055e-09
2.57454e-07
3.60115e-09
1.02323e-09
2.5742e-07
2.34606e-09
1.0128e-09
2.57398e-07
1.06836e-09
1.00753e-09
2.57383e-07
-2.17587e-10
1.00524e-09
2.57383e-07
-1.48868e-09
1.01098e-09
2.574e-07
-2.7502e-09
1.03489e-09
2.57424e-07
-3.97755e-09
1.05666e-09
2.57458e-07
-5.15511e-09
1.0854e-09
2.57508e-07
-6.20552e-09
1.06732e-09
2.57562e-07
1.15284e-09
2.5761e-07
-7.23998e-09
8.21465e-09
-1.88688e-10
2.57631e-07
-9.21463e-09
7.18376e-09
-2.60417e-10
2.57568e-07
6.03716e-09
-1.70474e-10
2.57523e-07
4.83479e-09
-1.81238e-10
2.57472e-07
3.59518e-09
-2.07044e-10
2.57439e-07
2.34041e-09
-2.41397e-10
2.57417e-07
1.06761e-09
-2.64988e-10
2.57402e-07
-2.09765e-10
-2.71081e-10
2.57403e-07
-1.46811e-09
-2.58387e-10
2.57419e-07
-2.71274e-09
-2.161e-10
2.57443e-07
-3.92664e-09
-1.71345e-10
2.57474e-07
-5.0854e-09
-1.22697e-10
2.57527e-07
-6.13373e-09
-1.67241e-10
2.57568e-07
2.38391e-11
2.57628e-07
-7.15727e-09
8.19934e-09
-1.25213e-09
2.57667e-07
-9.20629e-09
7.13478e-09
-1.39334e-09
2.57589e-07
5.98209e-09
-1.31716e-09
2.57561e-07
4.77852e-09
-1.35383e-09
2.57506e-07
3.55072e-09
-1.42117e-09
2.57476e-07
2.31142e-09
-1.48268e-09
2.57452e-07
1.0603e-09
-1.53016e-09
2.57438e-07
-1.92225e-10
-1.54308e-09
2.57439e-07
-1.42504e-09
-1.52381e-09
2.57456e-07
-2.643e-09
-1.46438e-09
2.5748e-07
-3.8359e-09
-1.39105e-09
2.57508e-07
-4.97307e-09
-1.32698e-09
2.57564e-07
-6.03001e-09
-1.36501e-09
2.57588e-07
-1.11344e-09
2.57658e-07
-7.03152e-09
8.10825e-09
-2.30794e-09
2.57711e-07
-9.08766e-09
7.03153e-09
-2.46819e-09
2.57616e-07
5.89706e-09
-2.43823e-09
2.57592e-07
4.71065e-09
-2.49646e-09
2.57538e-07
3.50557e-09
-2.60974e-09
2.57516e-07
2.28297e-09
-2.6922e-09
2.57495e-07
1.0461e-09
-2.75946e-09
2.57482e-07
-1.8761e-10
-2.78296e-09
2.57483e-07
-1.39321e-09
-2.76529e-09
2.57497e-07
-2.57272e-09
-2.69955e-09
2.57518e-07
-3.72475e-09
-2.60095e-09
2.57539e-07
-4.81749e-09
-2.52869e-09
2.5759e-07
-5.86444e-09
-2.52638e-09
2.57608e-07
-2.27951e-09
2.57692e-07
-6.80764e-09
8.05524e-09
-3.37728e-09
2.57759e-07
-8.96994e-09
6.96072e-09
-3.47278e-09
2.57659e-07
5.81714e-09
-3.50384e-09
2.57644e-07
4.6291e-09
-3.5889e-09
2.57599e-07
3.43551e-09
-3.75582e-09
2.5758e-07
2.23011e-09
-3.85862e-09
2.57556e-07
1.0146e-09
-3.94523e-09
2.57541e-07
-1.92297e-10
-3.98473e-09
2.57543e-07
-1.37134e-09
-3.97213e-09
2.57562e-07
-2.51888e-09
-3.90927e-09
2.57585e-07
-3.64418e-09
-3.78254e-09
2.57603e-07
-4.71839e-09
-3.69973e-09
2.57644e-07
-5.75935e-09
-3.63729e-09
2.57649e-07
-3.51006e-09
2.57745e-07
-6.58526e-09
7.95477e-09
-4.45149e-09
2.57835e-07
-8.80368e-09
6.88776e-09
-4.43391e-09
2.57719e-07
5.78341e-09
-4.52713e-09
2.57666e-07
4.63632e-09
-4.64843e-09
2.57633e-07
3.45896e-09
-4.84046e-09
2.5762e-07
2.23584e-09
-4.93336e-09
2.57609e-07
9.78758e-10
-5.01491e-09
2.57605e-07
-2.63932e-10
-5.07334e-09
2.57607e-07
-1.45473e-09
-5.08894e-09
2.57613e-07
-2.57372e-09
-5.06407e-09
2.57626e-07
-3.64235e-09
-4.93827e-09
2.57642e-07
-4.65118e-09
-4.85259e-09
2.57675e-07
-5.62368e-09
-4.7299e-09
2.57709e-07
-4.77474e-09
2.57826e-07
-6.35349e-09
8.00438e-09
2.57862e-07
-5.21887e-09
-9.03507e-09
6.74811e-09
2.5785e-07
-5.11943e-09
5.52962e-09
2.5778e-07
-5.32344e-09
4.35777e-09
2.57734e-07
-5.57863e-09
3.20403e-09
2.577e-07
-5.83474e-09
2.05376e-09
2.57676e-07
-5.96589e-09
8.99513e-10
2.57661e-07
-6.06832e-09
-2.28839e-10
2.57667e-07
-6.14867e-09
-1.32495e-09
2.5769e-07
-6.18228e-09
-2.38911e-09
2.57715e-07
-6.16365e-09
-3.44881e-09
2.57747e-07
-6.00182e-09
-4.53375e-09
2.57788e-07
-5.82251e-09
-5.64262e-09
2.57848e-07
-5.59528e-09
2.57877e-07
-6.44098e-09
-5.83025e-09
5.82912e-09
7.34226e-09
2.34395e-07
-8.09217e-09
-6.39888e-09
4.93818e-09
7.26428e-09
2.34288e-07
-7.74405e-09
4.14442e-09
7.39879e-09
2.34169e-07
-8.02029e-09
3.4016e-09
7.49826e-09
2.34071e-07
-8.20888e-09
2.66508e-09
7.61295e-09
2.33999e-07
-8.36304e-09
1.90229e-09
7.65812e-09
2.33938e-07
-8.40473e-09
1.11163e-09
7.68025e-09
2.33902e-07
-8.41636e-09
3.05439e-10
7.64132e-09
2.33885e-07
-8.37251e-09
-5.02066e-10
7.56931e-09
2.33895e-07
-8.29705e-09
-1.31084e-09
7.4694e-09
2.33928e-07
-8.18179e-09
-2.13586e-09
7.33822e-09
2.33976e-07
-8.01179e-09
-3.01132e-09
7.21634e-09
2.3405e-07
-7.80437e-09
-4.0009e-09
7.07854e-09
2.3417e-07
-7.52126e-09
7.11531e-09
2.34293e-07
-7.70968e-09
-4.80584e-09
5.71677e-09
6.34971e-09
2.34281e-07
-6.12724e-09
5.03828e-09
6.51796e-09
2.34075e-07
4.36176e-09
6.58713e-09
2.3398e-07
3.62233e-09
6.70297e-09
2.33894e-07
2.83565e-09
6.82381e-09
2.33843e-07
1.99675e-09
6.89278e-09
2.338e-07
1.12595e-09
6.92946e-09
2.33779e-07
2.35706e-10
6.90176e-09
2.33766e-07
-6.59392e-10
6.83523e-09
2.33772e-07
-1.53875e-09
6.73488e-09
2.33794e-07
-2.38993e-09
6.60169e-09
2.33829e-07
-3.18257e-09
6.46245e-09
2.33893e-07
-3.96353e-09
6.37059e-09
2.33985e-07
6.20222e-09
2.34175e-07
-4.49948e-09
5.85886e-09
5.4591e-09
2.34137e-07
-6.41085e-09
5.11236e-09
5.76633e-09
2.33962e-07
4.36184e-09
5.78022e-09
2.3389e-07
3.56956e-09
5.89182e-09
2.33794e-07
2.76533e-09
5.98584e-09
2.33734e-07
1.93984e-09
6.04733e-09
2.33677e-07
1.09873e-09
6.07932e-09
2.33645e-07
2.40982e-10
6.06138e-09
2.33634e-07
-6.284e-10
6.0122e-09
2.3365e-07
-1.49998e-09
5.93229e-09
2.3369e-07
-2.37684e-09
5.83215e-09
2.33738e-07
-3.23072e-09
5.71166e-09
2.33819e-07
-4.09999e-09
5.69214e-09
2.33892e-07
5.41424e-09
2.34057e-07
-4.80678e-09
5.97893e-09
4.63743e-09
2.34033e-07
-6.64894e-09
5.23235e-09
4.95841e-09
2.33873e-07
4.46637e-09
4.93364e-09
2.33785e-07
3.65613e-09
5.03925e-09
2.33682e-07
2.82421e-09
5.11404e-09
2.3362e-07
1.9655e-09
5.17202e-09
2.33566e-07
1.08641e-09
5.20355e-09
2.33537e-07
1.93129e-10
5.19336e-09
2.33528e-07
-7.04486e-10
5.15612e-09
2.33543e-07
-1.59655e-09
5.09061e-09
2.33582e-07
-2.48687e-09
5.01983e-09
2.33633e-07
-3.35412e-09
4.92208e-09
2.33723e-07
-4.22238e-09
4.96064e-09
2.33811e-07
4.6772e-09
2.33966e-07
-5.02668e-09
6.15031e-09
3.82826e-09
2.33958e-07
-6.87402e-09
5.39185e-09
4.11177e-09
2.33819e-07
4.58096e-09
4.08346e-09
2.33719e-07
3.73344e-09
4.17297e-09
2.33614e-07
2.86518e-09
4.22584e-09
2.33545e-07
1.97993e-09
4.2708e-09
2.33489e-07
1.07937e-09
4.29551e-09
2.33458e-07
1.66463e-10
4.29086e-09
2.33448e-07
-7.51764e-10
4.26813e-09
2.33466e-07
-1.67078e-09
4.22441e-09
2.33508e-07
-2.58569e-09
4.18372e-09
2.33566e-07
-3.48238e-09
4.11486e-09
2.33659e-07
-4.34499e-09
4.17276e-09
2.33755e-07
3.92889e-09
2.33888e-07
-5.18021e-09
6.2523e-09
3.00324e-09
2.339e-07
-6.99064e-09
5.50031e-09
3.21914e-09
2.33775e-07
4.66744e-09
3.21319e-09
2.33659e-07
3.80232e-09
3.27932e-09
2.33555e-07
2.90915e-09
3.31656e-09
2.33482e-07
2.0001e-09
3.34804e-09
2.33426e-07
1.07504e-09
3.36609e-09
2.33394e-07
1.39653e-10
3.36456e-09
2.33386e-07
-7.96561e-10
3.35243e-09
2.33404e-07
-1.73169e-09
3.32843e-09
2.33447e-07
-2.65226e-09
3.30866e-09
2.33507e-07
-3.55504e-09
3.27079e-09
2.336e-07
-4.38966e-09
3.31564e-09
2.33709e-07
3.14645e-09
2.33824e-07
-5.22305e-09
6.33494e-09
2.1702e-09
2.33864e-07
-7.07837e-09
5.58572e-09
2.31129e-09
2.3375e-07
4.73483e-09
2.34495e-09
2.33623e-07
3.85464e-09
2.38342e-09
2.33521e-07
2.94247e-09
2.40788e-09
2.33446e-07
2.01776e-09
2.42302e-09
2.3339e-07
1.07824e-09
2.43303e-09
2.33357e-07
1.30667e-10
2.43266e-09
2.33348e-07
-8.15541e-10
2.42907e-09
2.33367e-07
-1.76094e-09
2.42438e-09
2.3341e-07
-2.68593e-09
2.41926e-09
2.33472e-07
-3.59201e-09
2.40873e-09
2.33563e-07
-4.40751e-09
2.4144e-09
2.33678e-07
2.33811e-09
2.33783e-07
-5.23633e-09
6.38621e-09
1.34518e-09
2.3386e-07
-7.14536e-09
5.63027e-09
1.39849e-09
2.33744e-07
4.77012e-09
1.47261e-09
2.33617e-07
3.87936e-09
1.48345e-09
2.33513e-07
2.95643e-09
1.49324e-09
2.33438e-07
2.02237e-09
1.48967e-09
2.33382e-07
1.07515e-09
1.48999e-09
2.33349e-07
1.22502e-10
1.48883e-09
2.3334e-07
-8.26794e-10
1.49184e-09
2.33359e-07
-1.77501e-09
1.50553e-09
2.33401e-07
-2.70226e-09
1.51417e-09
2.33462e-07
-3.60721e-09
1.52637e-09
2.33553e-07
-4.41461e-09
1.48581e-09
2.33663e-07
1.5089e-09
2.33768e-07
-5.24194e-09
6.42576e-09
5.35004e-10
2.33877e-07
-7.20167e-09
5.64767e-09
4.93894e-10
2.33748e-07
4.78131e-09
5.94461e-10
2.33629e-07
3.88245e-09
5.79719e-10
2.33522e-07
2.95765e-09
5.68076e-10
2.33447e-07
2.02183e-09
5.44646e-10
2.33391e-07
1.07509e-09
5.3306e-10
2.33358e-07
1.25857e-10
5.28703e-10
2.3335e-07
-8.17382e-10
5.35998e-10
2.33369e-07
-1.75683e-09
5.6594e-10
2.33411e-07
-2.6781e-09
5.91535e-10
2.33468e-07
-3.57284e-09
6.23927e-10
2.33561e-07
-4.38523e-09
5.53683e-10
2.3366e-07
6.72597e-10
2.33774e-07
-5.2125e-09
6.41318e-09
-2.54925e-10
2.3391e-07
-7.20086e-09
5.60735e-09
-3.69261e-10
2.33768e-07
4.7415e-09
-2.6833e-10
2.33666e-07
3.84182e-09
-3.04319e-10
2.33555e-07
2.92727e-09
-3.47833e-10
2.33484e-07
2.0029e-09
-3.92896e-10
2.33428e-07
1.07133e-09
-4.2033e-10
2.33396e-07
1.39306e-10
-4.30162e-10
2.33388e-07
-7.85871e-10
-4.18993e-10
2.33407e-07
-1.70554e-09
-3.73037e-10
2.33448e-07
-2.61283e-09
-3.2419e-10
2.33502e-07
-3.49241e-09
-2.74901e-10
2.33596e-07
-4.31663e-09
-3.52035e-10
2.33678e-07
-1.59012e-10
2.33802e-07
-5.13777e-09
6.36587e-09
-1.04993e-09
2.33958e-07
-7.12505e-09
5.54252e-09
-1.18885e-09
2.33802e-07
4.69048e-09
-1.12063e-09
2.33708e-07
3.80027e-09
-1.17263e-09
2.33601e-07
2.90115e-09
-1.25193e-09
2.33536e-07
1.98689e-09
-1.31335e-09
2.33484e-07
1.06367e-09
-1.35366e-09
2.33453e-07
1.42318e-10
-1.37073e-09
2.33446e-07
-7.65193e-10
-1.3633e-09
2.33462e-07
-1.65821e-09
-1.30961e-09
2.33499e-07
-2.53876e-09
-1.24028e-09
2.33545e-07
-3.38995e-09
-1.17853e-09
2.33634e-07
-4.21696e-09
-1.23248e-09
2.33708e-07
-1.00852e-09
2.33839e-07
-5.00154e-09
6.3253e-09
-1.88452e-09
2.34024e-07
-7.01717e-09
5.47323e-09
-1.94499e-09
2.3386e-07
4.62074e-09
-1.93999e-09
2.3378e-07
3.73156e-09
-2.00637e-09
2.33682e-07
2.84313e-09
-2.13062e-09
2.33622e-07
1.9444e-09
-2.21279e-09
2.3357e-07
1.0436e-09
-2.26978e-09
2.33538e-07
1.4594e-10
-2.29527e-09
2.33533e-07
-7.40942e-10
-2.29147e-09
2.33553e-07
-1.61178e-09
-2.23239e-09
2.33591e-07
-2.47163e-09
-2.14042e-09
2.33632e-07
-3.3054e-09
-2.06547e-09
2.3371e-07
-4.14636e-09
-2.06303e-09
2.33766e-07
-1.9176e-09
2.33902e-07
-4.84046e-09
6.26573e-09
-2.8072e-09
2.34132e-07
-6.83371e-09
5.45294e-09
-2.68923e-09
2.33942e-07
4.64462e-09
-2.76093e-09
2.33837e-07
3.78851e-09
-2.83371e-09
2.33754e-07
2.90017e-09
-2.9726e-09
2.33705e-07
1.96899e-09
-3.04237e-09
2.33668e-07
1.01732e-09
-3.0944e-09
2.33646e-07
7.25084e-11
-3.12993e-09
2.3364e-07
-8.42096e-10
-3.14962e-09
2.33651e-07
-1.70083e-09
-3.12433e-09
2.33676e-07
-2.51326e-09
-3.04236e-09
2.33711e-07
-3.27604e-09
-2.97559e-09
2.33775e-07
-4.05969e-09
-2.89682e-09
2.33847e-07
-2.94689e-09
2.34015e-07
-4.60407e-09
6.35669e-09
2.34236e-07
-3.44579e-09
-7.17474e-09
5.30389e-09
2.34122e-07
-3.17395e-09
4.36903e-09
2.3398e-07
-3.40734e-09
3.511e-09
2.3389e-07
-3.60988e-09
2.66806e-09
2.33825e-07
-3.8032e-09
1.81494e-09
2.33773e-07
-3.88375e-09
9.52892e-10
2.33742e-07
-3.94185e-09
1.0625e-10
2.33741e-07
-3.99453e-09
-7.1909e-10
2.33768e-07
-4.02398e-09
-1.51604e-09
2.33809e-07
-4.01319e-09
-2.30834e-09
2.33857e-07
-3.90532e-09
-3.14971e-09
2.33926e-07
-3.75489e-09
-4.12079e-09
2.34027e-07
-3.50525e-09
2.34148e-07
-4.82584e-09
-3.78781e-09
3.44804e-09
4.64968e-09
2.12692e-07
-5.02438e-09
-3.82653e-09
2.84987e-09
4.58054e-09
2.12532e-07
-4.67859e-09
2.42962e-09
4.62261e-09
2.12438e-07
-4.92709e-09
2.05355e-09
4.68705e-09
2.12359e-07
-5.05611e-09
1.68763e-09
4.74822e-09
2.12296e-07
-5.14077e-09
1.30614e-09
4.79328e-09
2.12237e-07
-5.17707e-09
9.11987e-10
4.82261e-09
2.122e-07
-5.19857e-09
5.16506e-10
4.82044e-09
2.12178e-07
-5.20101e-09
1.23466e-10
4.79641e-09
2.12179e-07
-5.18362e-09
-2.61041e-10
4.74784e-09
2.122e-07
-5.14399e-09
-6.50451e-10
4.69967e-09
2.12229e-07
-5.0891e-09
-1.06994e-09
4.63646e-09
2.12271e-07
-4.98265e-09
-1.63109e-09
4.63241e-09
2.1235e-07
-4.81687e-09
4.7093e-09
2.12492e-07
-5.10918e-09
-2.00994e-09
3.30549e-09
4.06801e-09
2.12511e-07
-3.43137e-09
2.93393e-09
4.22738e-09
2.12321e-07
2.58754e-09
4.21528e-09
2.12247e-07
2.20255e-09
4.29883e-09
2.12173e-07
1.79939e-09
4.37055e-09
2.12123e-07
1.37931e-09
4.4278e-09
2.12078e-07
9.5271e-10
4.46084e-09
2.12052e-07
5.21531e-10
4.45687e-09
2.12032e-07
8.26372e-11
4.43375e-09
2.12029e-07
-3.53519e-10
4.37917e-09
2.12043e-07
-7.83348e-10
4.32103e-09
2.12069e-07
-1.18708e-09
4.23835e-09
2.12115e-07
-1.58774e-09
4.24444e-09
2.12176e-07
4.08851e-09
2.12325e-07
-1.72654e-09
3.35328e-09
3.64719e-09
2.12385e-07
-3.67911e-09
2.93263e-09
3.88147e-09
2.12222e-07
2.53791e-09
3.82748e-09
2.12155e-07
2.13422e-09
3.90157e-09
2.12067e-07
1.73876e-09
3.95701e-09
2.12007e-07
1.34476e-09
4.00481e-09
2.11949e-07
9.5235e-10
4.03055e-09
2.11915e-07
5.53527e-10
4.02726e-09
2.11896e-07
1.41932e-10
4.01113e-09
2.11901e-07
-2.77765e-10
3.96537e-09
2.11931e-07
-7.09473e-10
3.91916e-09
2.11967e-07
-1.14014e-09
3.84509e-09
2.12029e-07
-1.6049e-09
3.89158e-09
2.12082e-07
3.66238e-09
2.12223e-07
-1.9845e-09
3.41302e-09
3.26629e-09
2.12289e-07
-3.81238e-09
3.01221e-09
3.48552e-09
2.1213e-07
2.6076e-09
3.4193e-09
2.12047e-07
2.19216e-09
3.48487e-09
2.1195e-07
1.78063e-09
3.52866e-09
2.11886e-07
1.36796e-09
3.57089e-09
2.11829e-07
9.53561e-10
3.59364e-09
2.11798e-07
5.33289e-10
3.59185e-09
2.1178e-07
1.0484e-10
3.57859e-09
2.11784e-07
-3.2984e-10
3.53787e-09
2.11813e-07
-7.76362e-10
3.50244e-09
2.11853e-07
-1.22226e-09
3.43902e-09
2.11924e-07
-1.68177e-09
3.50884e-09
2.11993e-07
3.2837e-09
2.12135e-07
-2.13905e-09
3.49448e-09
2.88287e-09
2.12211e-07
-3.91672e-09
3.0986e-09
3.06378e-09
2.12065e-07
2.67158e-09
3.01241e-09
2.11969e-07
2.23898e-09
3.06542e-09
2.11869e-07
1.80939e-09
3.09677e-09
2.11799e-07
1.38258e-09
3.12944e-09
2.11738e-07
9.55901e-10
3.14712e-09
2.11704e-07
5.23657e-10
3.14708e-09
2.11687e-07
8.26177e-11
3.13838e-09
2.11694e-07
-3.68817e-10
3.10751e-09
2.11726e-07
-8.31769e-10
3.0837e-09
2.11771e-07
-1.29741e-09
3.03381e-09
2.11847e-07
-1.7437e-09
3.09441e-09
2.11925e-07
2.90329e-09
2.1205e-07
-2.2194e-09
3.54938e-09
2.47889e-09
2.12143e-07
-3.96498e-09
3.16305e-09
2.61865e-09
2.12007e-07
2.725e-09
2.59841e-09
2.11897e-07
2.28421e-09
2.63723e-09
2.11795e-07
1.84118e-09
2.66052e-09
2.11722e-07
1.39993e-09
2.68446e-09
2.1166e-07
9.56639e-10
2.69835e-09
2.11626e-07
5.0796e-10
2.69953e-09
2.11609e-07
5.30327e-11
2.69381e-09
2.11617e-07
-4.10383e-10
2.67246e-09
2.1165e-07
-8.7928e-10
2.65589e-09
2.11698e-07
-1.35182e-09
2.6198e-09
2.11775e-07
-1.77847e-09
2.64803e-09
2.11865e-07
2.50261e-09
2.11977e-07
-2.24521e-09
3.59285e-09
2.06027e-09
2.12098e-07
-4.00354e-09
3.21018e-09
2.16066e-09
2.11968e-07
2.76364e-09
2.17957e-09
2.11849e-07
2.31665e-09
2.20286e-09
2.11748e-07
1.86468e-09
2.22013e-09
2.11672e-07
1.41507e-09
2.23358e-09
2.11609e-07
9.62124e-10
2.24291e-09
2.11574e-07
5.03891e-10
2.24421e-09
2.11558e-07
4.04344e-11
2.24124e-09
2.11566e-07
-4.31453e-10
2.23113e-09
2.11599e-07
-9.05662e-10
2.21997e-09
2.11648e-07
-1.38463e-09
2.19713e-09
2.11724e-07
-1.80344e-09
2.18122e-09
2.11819e-07
2.08784e-09
2.11924e-07
-2.26614e-09
3.62001e-09
1.63744e-09
2.12074e-07
-4.02808e-09
3.23729e-09
1.70038e-09
2.11941e-07
2.78675e-09
1.76141e-09
2.11822e-07
2.33426e-09
1.77124e-09
2.11719e-07
1.87678e-09
1.7822e-09
2.11643e-07
1.4214e-09
1.78405e-09
2.1158e-07
9.61736e-10
1.78818e-09
2.11544e-07
4.96833e-10
1.78898e-09
2.11528e-07
2.69659e-11
1.7892e-09
2.11536e-07
-4.51352e-10
1.79203e-09
2.11569e-07
-9.31814e-10
1.78785e-09
2.11618e-07
-1.41467e-09
1.7768e-09
2.11695e-07
-1.83453e-09
1.71409e-09
2.11786e-07
1.66412e-09
2.11896e-07
-2.29871e-09
3.63647e-09
1.22024e-09
2.12068e-07
-4.05996e-09
3.24717e-09
1.2355e-09
2.11923e-07
2.79742e-09
1.33153e-09
2.11811e-07
2.34171e-09
1.33155e-09
2.11704e-07
1.88304e-09
1.33343e-09
2.11628e-07
1.42569e-09
1.32363e-09
2.11566e-07
9.6397e-10
1.32199e-09
2.1153e-07
4.97791e-10
1.32133e-09
2.11513e-07
2.71367e-11
1.32437e-09
2.11521e-07
-4.51771e-10
1.33946e-09
2.11554e-07
-9.35011e-10
1.34428e-09
2.116e-07
-1.41831e-09
1.34218e-09
2.1168e-07
-1.84796e-09
1.24236e-09
2.11761e-07
1.24052e-09
2.11883e-07
-2.32836e-09
3.62733e-09
8.08434e-10
2.12081e-07
-4.06766e-09
3.22258e-09
7.71014e-10
2.11925e-07
2.77459e-09
8.84572e-10
2.11826e-07
2.31996e-09
8.73209e-10
2.11717e-07
1.86776e-09
8.6091e-10
2.11644e-07
1.41693e-09
8.39891e-10
2.11582e-07
9.63022e-10
8.31844e-10
2.11546e-07
5.05894e-10
8.28586e-10
2.1153e-07
4.44074e-11
8.33955e-10
2.11538e-07
-4.25532e-10
8.60048e-10
2.1157e-07
-9.03342e-10
8.76057e-10
2.11612e-07
-1.3836e-09
8.85483e-10
2.11692e-07
-1.8304e-09
7.68375e-10
2.11758e-07
8.32165e-10
2.11888e-07
-2.33322e-09
3.6196e-09
3.87929e-10
2.12101e-07
-4.0472e-09
3.20226e-09
3.16232e-10
2.11939e-07
2.76007e-09
4.29326e-10
2.11847e-07
2.30973e-09
4.05828e-10
2.11741e-07
1.86369e-09
3.78092e-10
2.11673e-07
1.41608e-09
3.4988e-10
2.11614e-07
9.64179e-10
3.37987e-10
2.1158e-07
5.0971e-10
3.31797e-10
2.11564e-07
5.27644e-11
3.37164e-10
2.11569e-07
-4.09891e-10
3.71075e-10
2.11597e-07
-8.81099e-10
3.99016e-10
2.11634e-07
-1.35416e-09
4.23084e-10
2.11709e-07
-1.81185e-09
3.05074e-10
2.11769e-07
4.21941e-10
2.119e-07
-2.30885e-09
3.59751e-09
-6.35444e-11
2.12128e-07
-3.97795e-09
3.16245e-09
-1.08972e-10
2.11969e-07
2.72398e-09
-1.88391e-11
2.11892e-07
2.27641e-09
-5.37175e-11
2.11794e-07
1.83675e-09
-1.03519e-10
2.11731e-07
1.39735e-09
-1.42941e-10
2.11673e-07
9.55974e-10
-1.6211e-10
2.11639e-07
5.1057e-10
-1.70356e-10
2.11624e-07
6.13092e-11
-1.63289e-10
2.11632e-07
-3.92307e-10
-1.21563e-10
2.11661e-07
-8.5287e-10
-8.14174e-11
2.11691e-07
-1.31584e-09
-4.24527e-11
2.11757e-07
-1.78523e-09
-1.42126e-10
2.118e-07
-2.02251e-11
2.11922e-07
-2.2413e-09
3.6582e-09
-6.65067e-10
2.12191e-07
-3.86744e-09
3.23547e-09
-5.30466e-10
2.12012e-07
2.81848e-09
-4.85489e-10
2.11924e-07
2.37544e-09
-5.12921e-10
2.1184e-07
1.91782e-09
-5.61759e-10
2.11786e-07
1.44016e-09
-5.90167e-10
2.11741e-07
9.50645e-10
-6.05109e-10
2.11714e-07
4.53409e-10
-6.11173e-10
2.11698e-07
-3.65157e-11
-6.14876e-10
2.11698e-07
-5.03756e-10
-5.93047e-10
2.11715e-07
-9.5438e-10
-5.65611e-10
2.11741e-07
-1.39048e-09
-5.2998e-10
2.11792e-07
-1.84578e-09
-5.90699e-10
2.11843e-07
-6.13531e-10
2.11983e-07
-2.13022e-09
3.72878e-09
2.12319e-07
-1.0699e-09
-4.20059e-09
3.07495e-09
2.12139e-07
-7.01943e-10
2.61046e-09
2.12031e-07
-8.9655e-10
2.19807e-09
2.11957e-07
-1.00372e-09
1.78913e-09
2.11895e-07
-1.07305e-09
1.3637e-09
2.11836e-07
-1.09159e-09
9.21664e-10
2.11801e-07
-1.09814e-09
4.6862e-10
2.11791e-07
-1.10181e-09
2.71096e-11
2.11807e-07
-1.12187e-09
-3.93637e-10
2.11841e-07
-1.12043e-09
-8.13241e-10
2.11875e-07
-1.08642e-09
-1.27108e-09
2.11917e-07
-9.93419e-10
-1.90776e-09
2.11981e-07
-8.40261e-10
2.12126e-07
-2.38593e-09
-1.06502e-09
1.15702e-09
1.96361e-09
1.92515e-07
-2.00026e-09
-1.27471e-09
9.06694e-10
1.92913e-09
1.92408e-07
-1.79355e-09
8.26663e-10
1.83766e-09
1.92363e-07
-1.86e-09
7.82832e-10
1.86919e-09
1.92328e-07
-1.92141e-09
7.46387e-10
1.88699e-09
1.92295e-07
-1.93839e-09
6.97885e-10
1.9233e-09
1.92257e-07
-1.95969e-09
6.44032e-10
1.95725e-09
1.92229e-07
-1.98799e-09
5.93885e-10
1.96946e-09
1.9221e-07
-2.00588e-09
5.58946e-10
1.98733e-09
1.92201e-07
-2.04283e-09
5.52026e-10
1.9893e-09
1.92198e-07
-2.08063e-09
5.52333e-10
2.01101e-09
1.92194e-07
-2.1183e-09
5.33195e-10
1.99791e-09
1.92186e-07
-2.1027e-09
3.9368e-10
2.13499e-09
1.92203e-07
-2.14387e-09
2.19708e-09
1.92265e-07
-2.39196e-09
4.04303e-10
1.0444e-09
1.79095e-09
1.92374e-07
-9.7632e-10
9.5041e-10
1.89395e-09
1.92277e-07
8.8466e-10
1.79629e-09
1.92241e-07
8.27307e-10
1.83383e-09
1.92203e-07
7.78512e-10
1.85898e-09
1.92178e-07
7.34856e-10
1.8975e-09
1.9215e-07
6.9766e-10
1.92717e-09
1.92131e-07
6.62031e-10
1.93581e-09
1.92112e-07
6.24473e-10
1.94942e-09
1.92096e-07
5.89823e-10
1.94048e-09
1.92085e-07
5.56151e-10
1.94739e-09
1.9208e-07
5.06915e-10
1.92114e-09
1.9208e-07
4.43589e-10
2.03399e-09
1.92093e-07
1.91718e-09
1.92138e-07
5.65539e-10
9.60481e-10
1.78557e-09
1.92305e-07
-1.06424e-09
8.57361e-10
1.88028e-09
1.92215e-07
7.90834e-10
1.7794e-09
1.92182e-07
7.47559e-10
1.80839e-09
1.92133e-07
7.24663e-10
1.82651e-09
1.92101e-07
7.148e-10
1.85598e-09
1.92063e-07
7.14033e-10
1.87585e-09
1.92037e-07
7.16e-10
1.88188e-09
1.92018e-07
7.11992e-10
1.893e-09
1.92008e-07
7.00567e-10
1.88188e-09
1.92009e-07
6.83476e-10
1.88408e-09
1.92009e-07
6.42839e-10
1.85589e-09
1.92022e-07
5.66726e-10
1.95937e-09
1.92026e-07
1.83615e-09
1.9208e-07
4.88788e-10
9.75963e-10
1.7988e-09
1.92248e-07
-1.10004e-09
8.83953e-10
1.86406e-09
1.92153e-07
8.15279e-10
1.77151e-09
1.92108e-07
7.70232e-10
1.79256e-09
1.92052e-07
7.44785e-10
1.80452e-09
1.92016e-07
7.3038e-10
1.82682e-09
1.91978e-07
7.22499e-10
1.84038e-09
1.91954e-07
7.22365e-10
1.84333e-09
1.91935e-07
7.17049e-10
1.84963e-09
1.91924e-07
6.95936e-10
1.83669e-09
1.91924e-07
6.65056e-10
1.83674e-09
1.91927e-07
6.10905e-10
1.81081e-09
1.91947e-07
5.31025e-10
1.89989e-09
1.91962e-07
1.79464e-09
1.92026e-07
4.13766e-10
9.78668e-10
1.80057e-09
1.9219e-07
-1.0888e-09
8.99951e-10
1.84672e-09
1.92103e-07
8.31248e-10
1.77348e-09
1.9205e-07
7.85731e-10
1.7874e-09
1.9199e-07
7.57463e-10
1.79374e-09
1.9195e-07
7.40258e-10
1.80863e-09
1.91908e-07
7.304e-10
1.817e-09
1.91883e-07
7.28985e-10
1.81822e-09
1.91864e-07
7.20987e-10
1.82096e-09
1.91854e-07
6.92203e-10
1.80781e-09
1.91856e-07
6.51457e-10
1.80534e-09
1.91864e-07
5.90103e-10
1.78045e-09
1.91888e-07
5.20594e-10
1.84068e-09
1.91911e-07
1.75115e-09
1.91963e-07
4.09966e-10
9.80813e-10
1.77398e-09
1.92132e-07
-1.06238e-09
9.15661e-10
1.82082e-09
1.92052e-07
8.48866e-10
1.77539e-09
1.91989e-07
8.03376e-10
1.78432e-09
1.91927e-07
7.71376e-10
1.78806e-09
1.91884e-07
7.49004e-10
1.79774e-09
1.91842e-07
7.3301e-10
1.80366e-09
1.91816e-07
7.25194e-10
1.80409e-09
1.91797e-07
7.1097e-10
1.80374e-09
1.91787e-07
6.7524e-10
1.79073e-09
1.91791e-07
6.27603e-10
1.78387e-09
1.91801e-07
5.62111e-10
1.75698e-09
1.91827e-07
5.00745e-10
1.77948e-09
1.91859e-07
1.69092e-09
1.91901e-07
4.11397e-10
9.80159e-10
1.71706e-09
1.92084e-07
-1.04219e-09
9.26084e-10
1.77561e-09
1.9201e-07
8.60114e-10
1.76684e-09
1.9194e-07
8.14808e-10
1.77275e-09
1.91878e-07
7.81211e-10
1.77653e-09
1.91833e-07
7.56905e-10
1.78157e-09
1.9179e-07
7.37885e-10
1.78607e-09
1.91764e-07
7.26154e-10
1.78618e-09
1.91744e-07
7.0746e-10
1.78449e-09
1.91735e-07
6.66027e-10
1.77471e-09
1.91739e-07
6.11132e-10
1.76504e-09
1.9175e-07
5.38061e-10
1.73666e-09
1.91776e-07
4.76409e-10
1.71694e-09
1.91812e-07
1.61928e-09
1.9185e-07
3.95641e-10
9.73368e-10
1.63395e-09
1.92052e-07
-1.03143e-09
9.29026e-10
1.70267e-09
1.91974e-07
8.64485e-10
1.73765e-09
1.91904e-07
8.18487e-10
1.74378e-09
1.91842e-07
7.84083e-10
1.74909e-09
1.91796e-07
7.58669e-10
1.75009e-09
1.91753e-07
7.37128e-10
1.75371e-09
1.91726e-07
7.21645e-10
1.75399e-09
1.91706e-07
6.9789e-10
1.75247e-09
1.91697e-07
6.49524e-10
1.74861e-09
1.91701e-07
5.8591e-10
1.73831e-09
1.91711e-07
5.03831e-10
1.71028e-09
1.91739e-07
4.39401e-10
1.64408e-09
1.91772e-07
1.54188e-09
1.91818e-07
3.5129e-10
9.71436e-10
1.55715e-09
1.92028e-07
-1.04196e-09
9.29826e-10
1.62355e-09
1.91936e-07
8.69123e-10
1.70272e-09
1.91872e-07
8.23406e-10
1.71264e-09
1.91806e-07
7.89488e-10
1.72028e-09
1.9176e-07
7.63369e-10
1.71917e-09
1.91717e-07
7.39789e-10
1.72319e-09
1.9169e-07
7.213e-10
1.72439e-09
1.9167e-07
6.93192e-10
1.72369e-09
1.91661e-07
6.38858e-10
1.72601e-09
1.91665e-07
5.67579e-10
1.71545e-09
1.91674e-07
4.76856e-10
1.68557e-09
1.91705e-07
4.02234e-10
1.57498e-09
1.91729e-07
1.47853e-09
1.91794e-07
2.86659e-10
9.51714e-10
1.49805e-09
1.9201e-07
-1.04946e-09
9.08579e-10
1.53905e-09
1.91905e-07
8.53285e-10
1.65299e-09
1.91852e-07
8.1246e-10
1.66337e-09
1.91784e-07
7.83463e-10
1.67252e-09
1.9174e-07
7.60916e-10
1.67116e-09
1.91696e-07
7.4011e-10
1.67672e-09
1.91669e-07
7.24211e-10
1.67949e-09
1.91649e-07
6.97852e-10
1.67951e-09
1.9164e-07
6.44198e-10
1.68808e-09
1.91645e-07
5.72817e-10
1.67914e-09
1.9165e-07
4.76165e-10
1.65541e-09
1.91682e-07
3.86043e-10
1.51329e-09
1.91695e-07
1.45251e-09
1.91774e-07
2.28311e-10
9.67066e-10
1.43253e-09
1.91989e-07
-1.07303e-09
9.19402e-10
1.43944e-09
1.91882e-07
8.64843e-10
1.58069e-09
1.91831e-07
8.26224e-10
1.58528e-09
1.91765e-07
7.97318e-10
1.59481e-09
1.91724e-07
7.72523e-10
1.59387e-09