/*--------------------------------*- C++ -*----------------------------------*\
| =========                 |                                                 |
| \\      /  F ield         | OpenFOAM: The Open Source CFD Toolbox           |
|  \\    /   O peration     | Version:  v2106                                 |
|   \\  /    A nd           | Website:  www.openfoam.com                      |
|    \\/     M anipulation  |                                                 |
\*---------------------------------------------------------------------------*/
FoamFile
{
    version     2.0;
    format      ascii;
    arch        "LSB;label=32;scalar=64";
    class       volScalarField;
    location    "0.000154";
    object      T;
}
// * * * * * * * * * * * * * * * * * * * * * * * * * * * * * * * * * * * * * //

dimensions      [0 0 0 1 0 0 0];

internalField   nonuniform List<scalar> 
17924
(
306.049
306.065
306.082
306.099
305.703
305.714
305.727
305.739
305.752
305.765
305.777
305.719
305.73
305.743
305.756
305.77
305.783
305.796
305.737
305.748
305.762
305.775
305.789
305.802
305.815
305.755
305.767
305.781
305.794
305.808
305.821
305.834
305.773
305.786
305.8
305.814
305.828
305.841
305.854
305.792
305.806
305.82
305.834
305.848
305.861
305.875
305.811
305.825
305.84
305.854
305.868
305.882
305.895
305.831
305.846
305.86
305.875
305.889
305.902
305.916
305.85
305.865
305.88
305.895
305.909
305.923
305.936
305.87
305.885
305.9
305.914
305.928
305.942
305.956
305.888
305.904
305.918
305.933
305.947
305.961
305.974
305.907
305.922
305.937
305.951
305.965
305.979
305.992
305.923
305.939
305.953
305.968
305.981
305.995
306.008
305.942
305.957
305.971
305.984
305.998
306.01
306.022
305.368
305.374
305.382
305.39
305.398
305.407
305.415
305.423
305.431
305.439
305.447
305.454
305.462
305.47
305.383
305.389
305.398
305.406
305.414
305.422
305.431
305.439
305.447
305.455
305.463
305.471
305.478
305.487
305.399
305.406
305.414
305.422
305.431
305.439
305.447
305.455
305.463
305.471
305.478
305.486
305.493
305.502
305.416
305.423
305.431
305.439
305.447
305.455
305.463
305.471
305.479
305.487
305.495
305.503
305.51
305.519
305.433
305.44
305.448
305.456
305.465
305.473
305.481
305.488
305.496
305.504
305.512
305.52
305.527
305.535
305.451
305.458
305.466
305.474
305.483
305.49
305.498
305.506
305.514
305.522
305.53
305.538
305.546
305.553
305.469
305.477
305.485
305.493
305.501
305.509
305.517
305.525
305.533
305.541
305.549
305.556
305.564
305.571
305.487
305.496
305.504
305.512
305.52
305.528
305.536
305.544
305.552
305.56
305.568
305.575
305.583
305.59
305.506
305.515
305.523
305.531
305.539
305.547
305.555
305.563
305.571
305.579
305.586
305.594
305.602
305.609
305.525
305.534
305.541
305.55
305.558
305.566
305.574
305.581
305.589
305.597
305.605
305.613
305.621
305.627
305.543
305.552
305.56
305.568
305.576
305.584
305.592
305.6
305.608
305.616
305.624
305.631
305.639
305.645
305.561
305.571
305.578
305.586
305.594
305.602
305.61
305.618
305.626
305.633
305.641
305.649
305.657
305.663
305.578
305.587
305.595
305.603
305.611
305.619
305.627
305.635
305.643
305.651
305.658
305.666
305.674
305.68
305.598
305.606
305.613
305.621
305.629
305.636
305.644
305.652
305.659
305.667
305.674
305.682
305.69
305.698
305.06
305.062
305.066
305.069
305.073
305.077
305.081
305.085
305.089
305.093
305.097
305.101
305.105
305.109
305.072
305.074
305.078
305.081
305.085
305.089
305.093
305.097
305.101
305.105
305.109
305.113
305.116
305.121
305.084
305.086
305.091
305.094
305.097
305.101
305.105
305.108
305.112
305.116
305.12
305.123
305.126
305.131
305.097
305.1
305.103
305.107
305.11
305.113
305.117
305.12
305.124
305.128
305.131
305.135
305.138
305.142
305.11
305.113
305.116
305.119
305.123
305.126
305.129
305.133
305.136
305.14
305.143
305.147
305.15
305.153
305.123
305.126
305.13
305.133
305.136
305.139
305.142
305.146
305.149
305.153
305.156
305.159
305.162
305.166
305.137
305.14
305.143
305.146
305.149
305.152
305.155
305.159
305.162
305.166
305.169
305.172
305.175
305.178
305.15
305.154
305.156
305.16
305.163
305.166
305.169
305.172
305.175
305.179
305.182
305.186
305.189
305.191
305.164
305.167
305.17
305.173
305.176
305.179
305.182
305.186
305.189
305.192
305.196
305.199
305.202
305.205
305.177
305.181
305.183
305.186
305.19
305.193
305.196
305.199
305.203
305.206
305.209
305.213
305.216
305.218
305.191
305.194
305.197
305.2
305.203
305.206
305.209
305.213
305.216
305.22
305.223
305.226
305.23
305.232
305.204
305.208
305.21
305.213
305.216
305.22
305.223
305.226
305.23
305.233
305.237
305.24
305.244
305.246
305.217
305.221
305.223
305.227
305.23
305.233
305.236
305.24
305.243
305.247
305.251
305.254
305.257
305.26
305.232
305.234
305.237
305.24
305.243
305.246
305.25
305.253
305.257
305.261
305.264
305.268
305.272
305.276
304.773
304.773
304.773
304.774
304.775
304.775
304.776
304.777
304.778
304.778
304.779
304.779
304.78
304.781
304.782
304.781
304.782
304.782
304.783
304.784
304.784
304.785
304.785
304.786
304.786
304.787
304.787
304.788
304.79
304.79
304.79
304.791
304.791
304.792
304.792
304.793
304.793
304.793
304.793
304.794
304.793
304.794
304.799
304.798
304.799
304.799
304.8
304.8
304.8
304.801
304.801
304.801
304.801
304.801
304.801
304.801
304.807
304.807
304.807
304.807
304.808
304.808
304.808
304.809
304.809
304.809
304.808
304.808
304.808
304.808
304.815
304.815
304.815
304.816
304.816
304.816
304.816
304.816
304.816
304.816
304.816
304.816
304.815
304.815
304.823
304.823
304.823
304.824
304.824
304.824
304.824
304.824
304.824
304.824
304.824
304.823
304.822
304.822
304.831
304.831
304.831
304.831
304.831
304.831
304.832
304.832
304.832
304.831
304.831
304.83
304.83
304.829
304.838
304.839
304.839
304.839
304.839
304.839
304.839
304.839
304.839
304.839
304.838
304.838
304.837
304.836
304.846
304.846
304.846
304.846
304.846
304.846
304.846
304.846
304.846
304.846
304.846
304.845
304.845
304.844
304.853
304.854
304.854
304.854
304.854
304.854
304.854
304.854
304.854
304.854
304.854
304.853
304.853
304.852
304.861
304.861
304.861
304.861
304.861
304.861
304.861
304.861
304.862
304.861
304.861
304.861
304.861
304.86
304.868
304.868
304.868
304.868
304.868
304.869
304.869
304.869
304.869
304.869
304.869
304.869
304.869
304.868
304.875
304.875
304.875
304.875
304.876
304.876
304.877
304.877
304.877
304.878
304.878
304.878
304.878
304.878
304.493
304.492
304.492
304.49
304.489
304.488
304.487
304.486
304.484
304.482
304.481
304.479
304.477
304.475
304.499
304.497
304.497
304.495
304.494
304.493
304.492
304.49
304.489
304.487
304.485
304.483
304.481
304.479
304.504
304.502
304.501
304.5
304.499
304.498
304.497
304.495
304.493
304.491
304.489
304.487
304.485
304.483
304.508
304.507
304.506
304.505
304.504
304.503
304.501
304.5
304.498
304.496
304.493
304.491
304.489
304.487
304.512
304.511
304.51
304.509
304.508
304.507
304.505
304.504
304.502
304.5
304.498
304.495
304.492
304.49
304.516
304.515
304.514
304.513
304.512
304.511
304.509
304.508
304.506
304.504
304.501
304.499
304.496
304.493
304.52
304.519
304.518
304.517
304.516
304.514
304.513
304.511
304.509
304.507
304.505
304.502
304.499
304.497
304.523
304.522
304.521
304.52
304.519
304.518
304.516
304.514
304.512
304.51
304.508
304.505
304.502
304.5
304.526
304.525
304.524
304.523
304.522
304.52
304.519
304.517
304.515
304.513
304.511
304.508
304.505
304.502
304.529
304.528
304.527
304.526
304.525
304.523
304.522
304.52
304.518
304.516
304.514
304.511
304.508
304.505
304.532
304.531
304.53
304.528
304.527
304.526
304.524
304.523
304.521
304.519
304.516
304.514
304.511
304.508
304.534
304.533
304.532
304.531
304.53
304.528
304.527
304.525
304.524
304.521
304.519
304.517
304.514
304.511
304.536
304.535
304.534
304.533
304.532
304.531
304.53
304.528
304.526
304.524
304.522
304.52
304.517
304.514
304.538
304.537
304.536
304.535
304.534
304.533
304.532
304.531
304.529
304.527
304.525
304.523
304.521
304.517
304.21
304.209
304.207
304.205
304.204
304.202
304.2
304.197
304.195
304.192
304.19
304.187
304.184
304.181
304.212
304.211
304.209
304.208
304.206
304.204
304.202
304.2
304.197
304.194
304.191
304.189
304.186
304.183
304.214
304.213
304.211
304.21
304.208
304.206
304.204
304.202
304.199
304.196
304.194
304.191
304.188
304.185
304.216
304.214
304.213
304.211
304.21
304.208
304.206
304.203
304.201
304.198
304.195
304.192
304.189
304.186
304.217
304.216
304.214
304.213
304.211
304.209
304.207
304.205
304.202
304.2
304.197
304.194
304.191
304.188
304.218
304.217
304.215
304.214
304.212
304.211
304.208
304.206
304.204
304.201
304.198
304.195
304.192
304.189
304.219
304.217
304.216
304.215
304.213
304.211
304.209
304.207
304.205
304.202
304.199
304.196
304.193
304.19
304.219
304.218
304.217
304.215
304.214
304.212
304.21
304.208
304.205
304.202
304.199
304.196
304.193
304.19
304.219
304.218
304.217
304.215
304.214
304.212
304.21
304.208
304.205
304.203
304.2
304.197
304.194
304.19
304.219
304.218
304.217
304.215
304.214
304.212
304.21
304.208
304.206
304.203
304.2
304.197
304.194
304.19
304.219
304.218
304.217
304.215
304.214
304.212
304.21
304.208
304.206
304.203
304.2
304.197
304.194
304.19
304.219
304.217
304.216
304.215
304.214
304.212
304.21
304.208
304.205
304.203
304.2
304.197
304.193
304.19
304.218
304.217
304.216
304.215
304.213
304.212
304.21
304.208
304.205
304.202
304.2
304.196
304.193
304.19
304.217
304.216
304.215
304.214
304.213
304.211
304.209
304.207
304.205
304.202
304.2
304.197
304.193
304.19
303.922
303.92
303.918
303.916
303.914
303.912
303.91
303.908
303.906
303.904
303.902
303.9
303.898
303.895
303.922
303.92
303.918
303.916
303.915
303.913
303.911
303.908
303.906
303.904
303.902
303.899
303.897
303.895
303.921
303.92
303.918
303.916
303.914
303.913
303.911
303.908
303.906
303.904
303.902
303.9
303.897
303.895
303.921
303.919
303.918
303.916
303.914
303.912
303.91
303.908
303.906
303.904
303.902
303.9
303.897
303.895
303.92
303.919
303.917
303.916
303.914
303.912
303.91
303.908
303.906
303.904
303.902
303.899
303.897
303.895
303.92
303.918
303.917
303.915
303.914
303.912
303.91
303.908
303.906
303.904
303.901
303.899
303.897
303.895
303.919
303.918
303.916
303.915
303.913
303.911
303.909
303.907
303.905
303.903
303.901
303.899
303.897
303.894
303.918
303.917
303.915
303.914
303.912
303.911
303.909
303.907
303.905
303.903
303.9
303.898
303.896
303.894
303.917
303.916
303.915
303.913
303.912
303.91
303.908
303.906
303.904
303.902
303.9
303.897
303.895
303.893
303.916
303.915
303.914
303.912
303.911
303.909
303.907
303.905
303.903
303.901
303.899
303.897
303.894
303.892
303.915
303.914
303.913
303.911
303.91
303.908
303.906
303.904
303.902
303.9
303.898
303.896
303.893
303.891
303.914
303.913
303.911
303.91
303.909
303.907
303.905
303.903
303.901
303.899
303.897
303.895
303.892
303.89
303.913
303.911
303.91
303.909
303.908
303.906
303.904
303.902
303.9
303.898
303.896
303.893
303.891
303.889
303.912
303.91
303.909
303.908
303.906
303.905
303.903
303.901
303.899
303.897
303.895
303.892
303.89
303.888
303.639
303.637
303.635
303.633
303.631
303.629
303.628
303.626
303.625
303.624
303.623
303.622
303.622
303.621
303.637
303.635
303.633
303.631
303.63
303.628
303.626
303.625
303.624
303.623
303.622
303.621
303.62
303.619
303.635
303.633
303.632
303.63
303.628
303.626
303.625
303.624
303.622
303.621
303.62
303.62
303.619
303.618
303.634
303.632
303.63
303.628
303.627
303.625
303.624
303.622
303.621
303.62
303.619
303.618
303.618
303.617
303.633
303.631
303.629
303.627
303.626
303.624
303.623
303.621
303.62
303.619
303.618
303.617
303.617
303.616
303.631
303.63
303.628
303.626
303.624
303.623
303.622
303.62
303.619
303.618
303.617
303.616
303.616
303.615
303.63
303.629
303.627
303.625
303.623
303.622
303.621
303.619
303.618
303.617
303.616
303.616
303.615
303.614
303.629
303.628
303.626
303.624
303.623
303.621
303.62
303.619
303.617
303.616
303.615
303.615
303.614
303.614
303.628
303.627
303.625
303.624
303.622
303.621
303.619
303.618
303.617
303.616
303.615
303.614
303.613
303.613
303.628
303.626
303.624
303.623
303.621
303.62
303.619
303.617
303.616
303.615
303.614
303.613
303.613
303.612
303.627
303.625
303.624
303.622
303.621
303.619
303.618
303.617
303.616
303.614
303.613
303.613
303.612
303.612
303.627
303.625
303.624
303.622
303.62
303.619
303.618
303.616
303.615
303.614
303.613
303.612
303.612
303.611
303.627
303.625
303.623
303.622
303.62
303.619
303.617
303.616
303.615
303.614
303.613
303.612
303.611
303.611
303.627
303.625
303.623
303.621
303.62
303.618
303.617
303.616
303.614
303.613
303.612
303.611
303.611
303.61
303.376
303.373
303.371
303.369
303.368
303.367
303.366
303.365
303.365
303.365
303.365
303.365
303.366
303.367
303.373
303.371
303.369
303.367
303.366
303.364
303.363
303.363
303.362
303.362
303.363
303.363
303.364
303.364
303.371
303.369
303.367
303.365
303.363
303.362
303.361
303.36
303.36
303.36
303.361
303.361
303.362
303.362
303.369
303.367
303.365
303.363
303.361
303.36
303.359
303.359
303.358
303.358
303.359
303.359
303.36
303.361
303.368
303.366
303.363
303.362
303.36
303.359
303.358
303.357
303.357
303.357
303.357
303.358
303.359
303.36
303.367
303.364
303.362
303.36
303.359
303.357
303.356
303.356
303.355
303.356
303.356
303.357
303.358
303.359
303.366
303.364
303.361
303.359
303.358
303.356
303.355
303.355
303.355
303.355
303.355
303.356
303.357
303.358
303.365
303.363
303.361
303.359
303.357
303.356
303.355
303.354
303.354
303.354
303.355
303.355
303.356
303.357
303.365
303.363
303.361
303.359
303.357
303.356
303.355
303.354
303.354
303.354
303.354
303.355
303.356
303.357
303.365
303.363
303.361
303.359
303.357
303.356
303.355
303.354
303.354
303.354
303.354
303.355
303.356
303.357
303.365
303.363
303.361
303.359
303.358
303.356
303.355
303.355
303.354
303.354
303.355
303.355
303.356
303.357
303.366
303.364
303.362
303.36
303.358
303.357
303.356
303.355
303.355
303.355
303.355
303.356
303.357
303.358
303.367
303.365
303.363
303.361
303.359
303.358
303.357
303.356
303.356
303.356
303.356
303.357
303.357
303.358
303.368
303.366
303.364
303.362
303.361
303.359
303.358
303.357
303.357
303.357
303.357
303.357
303.358
303.359
303.142
303.139
303.137
303.136
303.135
303.134
303.133
303.133
303.133
303.133
303.134
303.135
303.136
303.138
303.139
303.137
303.135
303.134
303.132
303.131
303.131
303.131
303.131
303.131
303.132
303.133
303.134
303.135
303.138
303.135
303.133
303.132
303.13
303.129
303.129
303.128
303.129
303.129
303.13
303.131
303.132
303.133
303.136
303.134
303.132
303.13
303.128
303.127
303.127
303.127
303.127
303.127
303.128
303.129
303.131
303.132
303.135
303.132
303.13
303.128
303.127
303.126
303.125
303.125
303.125
303.126
303.127
303.128
303.129
303.131
303.134
303.131
303.129
303.127
303.126
303.125
303.124
303.124
303.124
303.125
303.126
303.127
303.128
303.13
303.133
303.131
303.129
303.127
303.125
303.124
303.124
303.123
303.123
303.124
303.125
303.126
303.128
303.13
303.133
303.131
303.128
303.127
303.125
303.124
303.123
303.123
303.123
303.124
303.125
303.126
303.128
303.13
303.133
303.131
303.129
303.127
303.125
303.124
303.124
303.123
303.123
303.124
303.125
303.126
303.128
303.13
303.133
303.131
303.129
303.127
303.126
303.125
303.124
303.124
303.124
303.125
303.126
303.127
303.129
303.13
303.134
303.132
303.13
303.128
303.127
303.126
303.125
303.125
303.125
303.126
303.127
303.128
303.129
303.131
303.135
303.134
303.132
303.13
303.128
303.127
303.127
303.126
303.126
303.127
303.128
303.129
303.13
303.132
303.137
303.135
303.133
303.132
303.13
303.129
303.128
303.128
303.128
303.128
303.129
303.13
303.132
303.133
303.139
303.137
303.135
303.133
303.132
303.131
303.13
303.13
303.13
303.13
303.131
303.132
303.133
303.135
302.936
302.935
302.934
302.932
302.932
302.931
302.931
302.931
302.931
302.931
302.931
302.932
302.933
302.934
302.935
302.934
302.932
302.931
302.93
302.93
302.929
302.929
302.929
302.93
302.93
302.931
302.932
302.932
302.934
302.932
302.931
302.93
302.929
302.929
302.928
302.928
302.928
302.928
302.929
302.93
302.93
302.931
302.933
302.931
302.93
302.929
302.928
302.927
302.927
302.927
302.927
302.927
302.928
302.928
302.929
302.93
302.932
302.931
302.929
302.928
302.927
302.927
302.926
302.926
302.926
302.926
302.927
302.928
302.929
302.93
302.932
302.93
302.929
302.928
302.927
302.926
302.926
302.925
302.926
302.926
302.926
302.927
302.928
302.929
302.931
302.93
302.928
302.927
302.926
302.926
302.925
302.925
302.925
302.926
302.926
302.927
302.928
302.929
302.931
302.93
302.928
302.927
302.926
302.926
302.925
302.925
302.925
302.926
302.926
302.927
302.928
302.929
302.931
302.93
302.929
302.928
302.927
302.926
302.925
302.925
302.925
302.926
302.926
302.927
302.928
302.93
302.932
302.931
302.929
302.928
302.927
302.926
302.926
302.926
302.926
302.926
302.927
302.928
302.929
302.93
302.933
302.931
302.93
302.929
302.928
302.927
302.927
302.927
302.927
302.927
302.928
302.929
302.93
302.931
302.934
302.932
302.931
302.93
302.929
302.928
302.928
302.928
302.928
302.928
302.929
302.929
302.931
302.932
302.935
302.933
302.932
302.931
302.93
302.929
302.929
302.929
302.929
302.929
302.93
302.931
302.932
302.933
302.936
302.935
302.933
302.932
302.931
302.931
302.93
302.93
302.93
302.93
302.931
302.932
302.932
302.934
302.754
302.754
302.754
302.753
302.753
302.753
302.753
302.753
302.752
302.752
302.752
302.752
302.752
302.752
302.754
302.754
302.754
302.753
302.753
302.753
302.753
302.752
302.752
302.752
302.752
302.752
302.752
302.752
302.754
302.754
302.753
302.753
302.753
302.753
302.753
302.752
302.752
302.752
302.752
302.752
302.752
302.752
302.754
302.754
302.753
302.753
302.753
302.753
302.753
302.752
302.752
302.752
302.752
302.752
302.752
302.751
302.754
302.753
302.753
302.753
302.753
302.753
302.752
302.752
302.752
302.752
302.752
302.752
302.751
302.751
302.754
302.753
302.753
302.753
302.753
302.753
302.752
302.752
302.752
302.752
302.752
302.751
302.751
302.751
302.754
302.753
302.753
302.753
302.753
302.753
302.752
302.752
302.752
302.752
302.752
302.751
302.751
302.751
302.754
302.753
302.753
302.753
302.753
302.753
302.752
302.752
302.752
302.752
302.752
302.751
302.751
302.751
302.754
302.753
302.753
302.753
302.753
302.753
302.752
302.752
302.752
302.752
302.752
302.752
302.751
302.751
302.754
302.754
302.753
302.753
302.753
302.753
302.752
302.752
302.752
302.752
302.752
302.752
302.752
302.751
302.754
302.754
302.753
302.753
302.753
302.753
302.752
302.752
302.752
302.752
302.752
302.752
302.752
302.752
302.754
302.754
302.753
302.753
302.753
302.753
302.753
302.752
302.752
302.752
302.752
302.752
302.752
302.752
302.754
302.754
302.754
302.753
302.753
302.753
302.753
302.752
302.752
302.752
302.752
302.752
302.752
302.752
302.754
302.754
302.754
302.753
302.753
302.753
302.753
302.752
302.752
302.752
302.752
302.752
302.752
302.752
302.589
302.59
302.59
302.591
302.591
302.591
302.591
302.591
302.59
302.59
302.589
302.589
302.588
302.587
302.59
302.591
302.591
302.592
302.592
302.592
302.592
302.592
302.591
302.591
302.59
302.589
302.589
302.588
302.59
302.591
302.592
302.592
302.593
302.593
302.593
302.593
302.592
302.592
302.591
302.59
302.589
302.588
302.591
302.592
302.592
302.593
302.593
302.594
302.594
302.593
302.593
302.592
302.592
302.591
302.59
302.589
302.591
302.592
302.593
302.594
302.594
302.594
302.594
302.594
302.593
302.593
302.592
302.591
302.59
302.589
302.592
302.592
302.593
302.594
302.594
302.594
302.594
302.594
302.594
302.593
302.592
302.591
302.59
302.589
302.592
302.593
302.593
302.594
302.594
302.595
302.595
302.594
302.594
302.593
302.592
302.591
302.59
302.589
302.592
302.593
302.593
302.594
302.594
302.595
302.595
302.594
302.594
302.593
302.592
302.591
302.59
302.589
302.592
302.592
302.593
302.594
302.594
302.594
302.594
302.594
302.594
302.593
302.592
302.591
302.59
302.589
302.591
302.592
302.593
302.593
302.594
302.594
302.594
302.594
302.593
302.592
302.592
302.591
302.59
302.588
302.591
302.591
302.592
302.593
302.593
302.593
302.593
302.593
302.592
302.592
302.591
302.59
302.589
302.588
302.59
302.591
302.591
302.592
302.592
302.592
302.592
302.592
302.592
302.591
302.59
302.589
302.588
302.587
302.589
302.59
302.59
302.591
302.591
302.591
302.591
302.591
302.591
302.59
302.59
302.589
302.588
302.587
302.588
302.589
302.589
302.59
302.59
302.59
302.59
302.59
302.59
302.589
302.589
302.588
302.587
302.586
302.434
302.436
302.437
302.438
302.438
302.439
302.439
302.438
302.438
302.437
302.436
302.435
302.434
302.433
302.436
302.437
302.438
302.439
302.44
302.44
302.44
302.44
302.439
302.439
302.438
302.437
302.435
302.434
302.437
302.438
302.439
302.44
302.441
302.441
302.441
302.441
302.441
302.44
302.439
302.438
302.436
302.435
302.438
302.439
302.44
302.441
302.442
302.442
302.442
302.442
302.442
302.441
302.44
302.439
302.437
302.436
302.438
302.44
302.441
302.442
302.443
302.443
302.443
302.443
302.443
302.442
302.441
302.439
302.438
302.436
302.439
302.44
302.441
302.442
302.443
302.444
302.444
302.444
302.443
302.442
302.441
302.44
302.438
302.437
302.439
302.44
302.442
302.443
302.443
302.444
302.444
302.444
302.443
302.442
302.441
302.44
302.438
302.437
302.439
302.44
302.442
302.443
302.443
302.444
302.444
302.444
302.443
302.442
302.441
302.44
302.438
302.436
302.439
302.44
302.441
302.442
302.443
302.443
302.443
302.443
302.443
302.442
302.441
302.439
302.438
302.436
302.438
302.439
302.44
302.441
302.442
302.442
302.443
302.442
302.442
302.441
302.44
302.439
302.437
302.435
302.437
302.438
302.439
302.44
302.441
302.441
302.442
302.441
302.441
302.44
302.439
302.438
302.436
302.434
302.436
302.437
302.438
302.439
302.44
302.44
302.44
302.44
302.44
302.439
302.438
302.436
302.435
302.433
302.435
302.436
302.437
302.437
302.438
302.438
302.439
302.438
302.438
302.437
302.436
302.435
302.434
302.432
302.433
302.434
302.435
302.436
302.436
302.437
302.437
302.437
302.436
302.436
302.435
302.434
302.432
302.431
302.286
302.288
302.289
302.29
302.291
302.291
302.291
302.291
302.291
302.29
302.289
302.288
302.286
302.285
302.288
302.289
302.29
302.291
302.292
302.293
302.293
302.293
302.292
302.291
302.29
302.289
302.288
302.286
302.289
302.29
302.292
302.293
302.293
302.294
302.294
302.294
302.294
302.293
302.292
302.29
302.289
302.287
302.29
302.291
302.293
302.294
302.294
302.295
302.295
302.295
302.295
302.294
302.293
302.291
302.29
302.288
302.29
302.292
302.293
302.294
302.295
302.296
302.296
302.296
302.295
302.295
302.294
302.292
302.291
302.289
302.291
302.292
302.294
302.295
302.296
302.296
302.296
302.296
302.296
302.295
302.294
302.293
302.291
302.289
302.291
302.293
302.294
302.295
302.296
302.296
302.296
302.296
302.296
302.295
302.294
302.293
302.291
302.289
302.291
302.293
302.294
302.295
302.296
302.296
302.296
302.296
302.296
302.295
302.294
302.292
302.291
302.289
302.291
302.292
302.293
302.294
302.295
302.296
302.296
302.296
302.295
302.294
302.293
302.292
302.29
302.289
302.29
302.291
302.293
302.294
302.294
302.295
302.295
302.295
302.294
302.294
302.293
302.291
302.289
302.288
302.289
302.29
302.291
302.292
302.293
302.294
302.294
302.294
302.293
302.292
302.291
302.29
302.288
302.287
302.288
302.289
302.29
302.291
302.292
302.292
302.292
302.292
302.292
302.291
302.29
302.289
302.287
302.285
302.286
302.287
302.288
302.289
302.29
302.291
302.291
302.291
302.29
302.29
302.289
302.287
302.286
302.284
302.284
302.285
302.286
302.287
302.288
302.289
302.289
302.289
302.289
302.288
302.287
302.286
302.284
302.282
302.142
302.144
302.145
302.146
302.146
302.147
302.147
302.147
302.146
302.146
302.145
302.144
302.143
302.141
302.143
302.145
302.146
302.147
302.148
302.148
302.148
302.148
302.148
302.147
302.146
302.145
302.144
302.142
302.144
302.146
302.147
302.148
302.149
302.149
302.149
302.149
302.149
302.148
302.147
302.146
302.145
302.143
302.145
302.147
302.148
302.149
302.149
302.15
302.15
302.15
302.15
302.149
302.148
302.147
302.146
302.144
302.146
302.147
302.148
302.149
302.15
302.15
302.151
302.15
302.15
302.15
302.149
302.148
302.146
302.145
302.146
302.148
302.149
302.15
302.15
302.151
302.151
302.151
302.15
302.15
302.149
302.148
302.147
302.145
302.146
302.148
302.149
302.15
302.15
302.151
302.151
302.151
302.151
302.15
302.149
302.148
302.147
302.145
302.146
302.147
302.149
302.149
302.15
302.151
302.151
302.151
302.15
302.15
302.149
302.148
302.146
302.145
302.146
302.147
302.148
302.149
302.15
302.15
302.15
302.15
302.15
302.149
302.148
302.147
302.146
302.144
302.145
302.146
302.147
302.148
302.149
302.149
302.15
302.149
302.149
302.149
302.148
302.147
302.145
302.144
302.144
302.145
302.146
302.147
302.148
302.148
302.149
302.149
302.148
302.148
302.147
302.146
302.144
302.143
302.143
302.144
302.145
302.146
302.147
302.147
302.147
302.147
302.147
302.146
302.146
302.144
302.143
302.142
302.141
302.143
302.144
302.145
302.145
302.146
302.146
302.146
302.146
302.145
302.144
302.143
302.142
302.14
302.14
302.141
302.142
302.143
302.144
302.144
302.144
302.144
302.144
302.144
302.143
302.142
302.14
302.139
302.001
302.002
302.003
302.003
302.004
302.004
302.004
302.004
302.004
302.004
302.003
302.002
302.001
302
302.002
302.003
302.004
302.004
302.005
302.005
302.005
302.005
302.005
302.005
302.004
302.003
302.002
302.001
302.002
302.003
302.004
302.005
302.006
302.006
302.006
302.006
302.006
302.005
302.005
302.004
302.003
302.002
302.003
302.004
302.005
302.006
302.006
302.007
302.007
302.007
302.006
302.006
302.005
302.005
302.004
302.002
302.004
302.005
302.005
302.006
302.007
302.007
302.007
302.007
302.007
302.006
302.006
302.005
302.004
302.003
302.004
302.005
302.006
302.006
302.007
302.007
302.007
302.007
302.007
302.007
302.006
302.005
302.004
302.003
302.004
302.005
302.006
302.006
302.007
302.007
302.007
302.007
302.007
302.007
302.006
302.005
302.004
302.003
302.004
302.005
302.005
302.006
302.007
302.007
302.007
302.007
302.007
302.006
302.006
302.005
302.004
302.003
302.003
302.004
302.005
302.006
302.006
302.007
302.007
302.007
302.006
302.006
302.005
302.005
302.004
302.003
302.003
302.004
302.005
302.005
302.006
302.006
302.006
302.006
302.006
302.006
302.005
302.004
302.003
302.002
302.002
302.003
302.004
302.005
302.005
302.005
302.006
302.005
302.005
302.005
302.004
302.003
302.002
302.001
302.001
302.002
302.003
302.004
302.004
302.005
302.005
302.005
302.004
302.004
302.003
302.003
302.002
302.001
302
302.001
302.002
302.003
302.003
302.003
302.004
302.004
302.003
302.003
302.002
302.001
302.001
301.999
301.999
302
302.001
302.001
302.002
302.002
302.002
302.002
302.002
302.002
302.001
302
301.999
301.998
301.862
301.862
301.863
301.863
301.864
301.864
301.864
301.864
301.864
301.864
301.863
301.863
301.862
301.861
301.862
301.863
301.864
301.864
301.864
301.865
301.865
301.865
301.865
301.864
301.864
301.863
301.863
301.862
301.863
301.864
301.864
301.865
301.865
301.865
301.865
301.865
301.865
301.865
301.864
301.864
301.863
301.862
301.863
301.864
301.864
301.865
301.865
301.865
301.866
301.866
301.865
301.865
301.865
301.864
301.863
301.863
301.864
301.864
301.865
301.865
301.865
301.866
301.866
301.866
301.866
301.865
301.865
301.864
301.864
301.863
301.864
301.864
301.865
301.865
301.866
301.866
301.866
301.866
301.866
301.865
301.865
301.865
301.864
301.863
301.864
301.864
301.865
301.865
301.866
301.866
301.866
301.866
301.866
301.865
301.865
301.865
301.864
301.863
301.864
301.864
301.865
301.865
301.865
301.866
301.866
301.866
301.866
301.865
301.865
301.864
301.864
301.863
301.863
301.864
301.865
301.865
301.865
301.865
301.866
301.866
301.865
301.865
301.865
301.864
301.864
301.863
301.863
301.864
301.864
301.865
301.865
301.865
301.865
301.865
301.865
301.865
301.864
301.864
301.863
301.863
301.862
301.863
301.864
301.864
301.864
301.865
301.865
301.865
301.865
301.864
301.864
301.864
301.863
301.862
301.862
301.862
301.863
301.864
301.864
301.864
301.864
301.864
301.864
301.864
301.863
301.863
301.862
301.862
301.861
301.862
301.862
301.863
301.863
301.864
301.864
301.864
301.863
301.863
301.863
301.862
301.862
301.861
301.86
301.861
301.862
301.862
301.863
301.863
301.863
301.863
301.863
301.862
301.862
301.861
301.861
301.86
301.726
301.726
301.726
301.727
301.727
301.727
301.727
301.727
301.727
301.727
301.727
301.726
301.727
301.727
301.727
301.727
301.727
301.727
301.727
301.727
301.727
301.727
301.727
301.727
301.727
301.727
301.727
301.727
301.727
301.727
301.727
301.727
301.727
301.727
301.727
301.727
301.727
301.727
301.727
301.727
301.727
301.728
301.728
301.728
301.727
301.727
301.727
301.727
301.727
301.727
301.727
301.727
301.728
301.728
301.728
301.728
301.728
301.727
301.727
301.727
301.727
301.727
301.727
301.728
301.728
301.728
301.728
301.728
301.728
301.728
301.727
301.727
301.727
301.727
301.727
301.728
301.728
301.728
301.728
301.728
301.728
301.728
301.727
301.727
301.727
301.727
301.727
301.728
301.728
301.728
301.728
301.728
301.728
301.728
301.727
301.727
301.727
301.727
301.727
301.727
301.728
301.728
301.728
301.728
301.728
301.727
301.727
301.727
301.726
301.727
301.727
301.727
301.727
301.728
301.728
301.727
301.727
301.727
301.727
301.727
301.726
301.727
301.727
301.727
301.727
301.727
301.727
301.727
301.727
301.727
301.727
301.727
301.726
301.726
301.727
301.727
301.727
301.727
301.727
301.727
301.727
301.727
301.727
301.727
301.726
301.726
301.726
301.727
301.727
301.727
301.727
301.727
301.727
301.727
301.726
301.726
301.726
301.726
301.726
301.726
301.727
301.727
301.727
301.727
301.726
301.726
301.726
301.726
306.031
306.01
305.992
305.974
305.956
305.939
306.048
306.025
306.006
305.986
305.967
305.949
306.063
306.039
306.02
305.999
305.98
305.961
306.079
306.055
306.035
306.015
305.995
305.976
305.684
305.664
305.646
305.628
305.611
305.594
305.696
305.673
305.654
305.634
305.615
305.596
305.706
305.682
305.662
305.64
305.62
305.6
305.719
305.694
305.672
305.65
305.629
305.609
305.731
305.706
305.684
305.662
305.641
305.62
305.744
305.719
305.697
305.675
305.655
305.635
305.756
305.733
305.711
305.69
305.671
305.652
305.352
305.335
305.32
305.305
305.291
305.277
305.359
305.34
305.324
305.307
305.291
305.275
305.365