/*--------------------------------*- C++ -*----------------------------------*\
| =========                 |                                                 |
| \\      /  F ield         | OpenFOAM: The Open Source CFD Toolbox           |
|  \\    /   O peration     | Version:  v2106                                 |
|   \\  /    A nd           | Website:  www.openfoam.com                      |
|    \\/     M anipulation  |                                                 |
\*---------------------------------------------------------------------------*/
FoamFile
{
    version     2.0;
    format      ascii;
    arch        "LSB;label=32;scalar=64";
    class       volScalarField;
    location    "0.000133";
    object      k;
}
// * * * * * * * * * * * * * * * * * * * * * * * * * * * * * * * * * * * * * //

dimensions      [0 2 -2 0 0 0 0];

internalField   nonuniform List<scalar> 
18109
(
0.00332907
0.00299576
0.00313086
0.0026639
0.00204369
0.00175274
0.00155446
0.0011384
0.000487758
0.000303408
0.00019265
0.000162044
0.000163766
0.000172273
0.00166263
0.000526688
0.000164241
4.89711e-05
1.78177e-05
1.24564e-05
1.42365e-05
0.00409631
0.00135343
0.0003956
0.000100994
2.22936e-05
4.49633e-06
1.41038e-06
0.00703946
0.00228791
0.000650063
0.000159832
3.35006e-05
5.87374e-06
8.63142e-07
0.00989374
0.00305373
0.000821987
0.000191168
3.78804e-05
6.24657e-06
8.32261e-07
0.0129706
0.00371194
0.00092589
0.000199122
3.63995e-05
5.53126e-06
6.8229e-07
0.0165745
0.00438388
0.0010074
0.000199073
3.32999e-05
4.65319e-06
5.64596e-07
0.000459942
0.000361796
0.000364752
0.000291675
0.000273146
0.000261021
0.00024916
0.000229949
0.000200132
0.000156047
9.80416e-05
4.68337e-05
1.74964e-05
1.23302e-05
0.000275454
8.36866e-05
3.16142e-05
1.79562e-05
1.72946e-05
1.95829e-05
2.24578e-05
2.44602e-05
2.44827e-05
2.15484e-05
1.49132e-05
7.39343e-06
2.85454e-06
6.98968e-06
0.000522533
0.000150598
4.02144e-05
9.84436e-06
2.59515e-06
1.37143e-06
1.56387e-06
2.00228e-06
2.31876e-06
2.30812e-06
1.75107e-06
9.21366e-07
7.96808e-07
1.01768e-05
0.00123418
0.0003584
9.13779e-05
2.0288e-05
3.87532e-06
6.56775e-07
1.57126e-07
1.3164e-07
1.68794e-07
1.92901e-07
1.6387e-07
1.04118e-07
6.36895e-07
1.31957e-05
0.00198382
0.000568365
0.000141104
3.01408e-05
5.47102e-06
8.30131e-07
1.05113e-07
1.54278e-08
9.71209e-09
1.21264e-08
1.16287e-08
1.83469e-08
5.82488e-07
1.33844e-05
0.00275131
0.000742139
0.000173395
3.48267e-05
5.94139e-06
8.44995e-07
9.79754e-08
9.14456e-09
9.93646e-10
6.24848e-10
6.62762e-10
5.78763e-09
4.2692e-07
1.09679e-05
0.00356574
0.000886831
0.000191324
3.54791e-05
5.58548e-06
7.342e-07
7.91834e-08
7.04397e-09
6.46018e-10
1.38282e-10
7.3942e-11
2.96422e-09
2.41702e-07
7.08113e-06
0.0045014
0.00102863
0.000204129
3.48309e-05
5.03516e-06
6.11606e-07
6.50553e-08
8.90831e-09
3.04701e-09
1.45766e-09
6.3614e-10
1.75055e-09
1.43834e-07
4.30065e-06
0.0054631
0.00114934
0.000209411
3.28089e-05
4.39134e-06
5.37369e-07
1.00851e-07
5.07326e-08
3.34656e-08
1.90282e-08
9.16903e-09
4.8549e-09
8.39863e-08
2.40914e-06
0.00636263
0.00125023
0.000211617
3.06906e-05
4.07133e-06
8.65404e-07
5.49237e-07
4.5612e-07
3.38961e-07
2.11474e-07
1.12543e-07
5.42751e-08
7.00077e-08
1.20647e-06
0.00673501
0.00125532
0.000200965
2.84786e-05
5.67813e-06
3.86826e-06
3.97094e-06
3.66589e-06
2.91893e-06
1.98173e-06
1.16081e-06
6.13409e-07
3.20456e-07
6.64647e-07
0.00632458
0.00114003
0.000181151
3.25032e-05
1.85138e-05
2.24361e-05
2.56336e-05
2.51966e-05
2.14167e-05
1.57358e-05
1.00977e-05
5.85223e-06
3.08655e-06
1.82195e-06
0.0051408
0.000922528
0.000165772
6.7652e-05
8.52782e-05
0.000118549
0.00014267
0.000148393
0.00013447
0.000106455
7.43391e-05
4.67339e-05
2.62471e-05
1.44178e-05
0.00431831
0.00085831
0.000247126
0.000240597
0.000378314
0.000547075
0.000686663
0.000752906
0.000727584
0.000620943
0.000469456
0.000315922
0.000186788
0.000103982
0.0215934
0.0768904
0.220011
0.504867
0.986732
1.67139
0.00329117
0.0146992
0.052482
0.149362
0.357652
0.732825
0.00397585
0.0219935
0.0893086
0.273047
0.661063
1.29605
0.00484661
0.0301103
0.127251
0.388026
0.912066
1.72299
0.00464666
0.0323016
0.141684
0.433299
1.0057
1.87113
0.0035347
0.0272361
0.127282
0.401456
0.942728
1.76314
0.00282575
0.0202629
0.0970624
0.319225
0.775372
1.48648
0.00228014
0.0151618
0.0714169
0.237736
0.588984
1.15282
0.00179122
0.0109042
0.049529
0.16456
0.412987
0.825027
0.00133394
0.0073457
0.0318004
0.104595
0.264232
0.534226
0.000878171
0.00432297
0.0176854
0.0570735
0.144451
0.29815
0.000468526
0.00206478
0.00807082
0.0258835
0.0669466
0.141788
0.000196289
0.000795831
0.00304762
0.00979148
0.026387
0.0572411
6.50661e-05
0.000251858
0.00098137
0.00322769
0.00953719
0.0227202
2.37734e-05
9.70979e-05
0.000452404
0.00191923
0.0073507
0.0243478
6.16075e-05
0.000306431
0.00150278
0.00656763
0.0247946
0.0798205
7.82684e-05
0.000582503
0.00355527
0.017257
0.067038
0.209415
0.00013641
0.00117958
0.00766489
0.0376466
0.141623
0.412348
0.000186525
0.00177671
0.0121894
0.0606972
0.220842
0.602474
0.000196031
0.0020226
0.0144184
0.0723885
0.257703
0.676628
0.000167612
0.00185201
0.0136554
0.0690069
0.243126
0.626647
0.000115845
0.0013423
0.0103773
0.0537645
0.192581
0.50429
7.45549e-05
0.000866593
0.00671306
0.0360398
0.13347
0.360322
4.27855e-05
0.000491974
0.00379237
0.0203627
0.0774423
0.215335
2.00555e-05
0.00022119
0.0016886
0.00911871
0.035915
0.104269
7.815e-06
8.14221e-05
0.000601661
0.00323329
0.0132821
0.040169
3.93249e-06
3.1662e-05
0.000215981
0.00112931
0.00469723
0.0147111
1.38557e-05
6.1916e-05
0.000283098
0.00113913
0.00398867
0.0119011
9.86547e-05
0.000376564
0.00140687
0.00479064
0.0146852
0.0402634
0.000645334
0.002207
0.00711884
0.0210125
0.056316
0.136124
0.00111239
0.00434384
0.0153373
0.0479181
0.131731
0.315841
0.00179253
0.0076083
0.028195
0.0895483
0.24291
0.55926
0.00251911
0.0110878
0.0418129
0.132895
0.35182
0.770725
0.00311527
0.0137643
0.051561
0.159843
0.405777
0.850127
0.00340248
0.0146384
0.0531396
0.158998
0.390969
0.799002
0.0033
0.0135542
0.0471735
0.137005
0.330913
0.669178
0.00286808
0.0111971
0.0371733
0.104887
0.249627
0.501635
0.00221193
0.00812558
0.0256073
0.0695459
0.16193
0.321868
0.00151274
0.0051945
0.0153176
0.0392562
0.0874794
0.169502
0.000934217
0.0030059
0.00836068
0.0203504
0.0434283
0.080585
0.000666073
0.00206743
0.00565857
0.0137636
0.0300292
0.059676
0.00123195
0.00391713
0.0113694
0.0295528
0.0692135
0.147005
0.00523257
0.0156062
0.0426063
0.103418
0.223881
0.434189
0.0117712
0.0274545
0.0600181
0.123276
0.231592
0.367125
0.00528304
0.0129994
0.0302169
0.0648537
0.128688
0.22164
0.00347081
0.00960805
0.0265701
0.0695376
0.165429
0.347961
0.00590438
0.0210598
0.0687321
0.190264
0.439492
0.852497
0.0204379
0.0556647
0.134231
0.285136
0.549266
0.959263
0.0258713
0.0803394
0.212949
0.479536
0.931092
1.5706
0.0307799
0.102033
0.278645
0.629073
1.20334
1.99136
0.0312269
0.107484
0.29818
0.674264
1.28107
2.1043
0.0278714
0.0976729
0.274395
0.625254
1.19303
1.96685
0.0224045
0.0785252
0.223049
0.516648
1.00289
1.67771
0.0169845
0.0580564
0.165107
0.388973
0.772637
1.32628
0.0123348
0.0401445
0.112653
0.272878
0.558542
0.98411
0.00879979
0.0267525
0.0737412
0.18163
0.377931
0.669964
0.00606424
0.0172232
0.0450528
0.11042
0.229491
0.40375
0.00386687
0.01033
0.0252438
0.057175
0.119892
0.210587
0.00185804
0.00477612
0.0118129
0.0266519
0.0565464
0.101544
0.00101355
0.0027942
0.00743712
0.019065
0.0469475
0.108821
0.00111064
0.00401765
0.0141748
0.0450736
0.125734
0.299223
1.30674
2.94223
5.09571
7.3971
9.54646
2.16524
4.2438
6.74491
9.11351
10.5609
2.78953
5.02373
7.69822
10.2273
10.8723
2.99512
5.31809
8.32947
11.2473
11.2321
2.84716
5.17835
8.4826
11.4302
10.8549
2.45031
4.55912
7.61591
10.1387
9.64149
1.93849
3.48461
5.94552
8.18432
8.18577
1.41257
2.40233
4.07873
6.22356
7.10278
5.90114
0.930023
1.50577
2.46759
4.21557
5.96736
5.53541
0.54734
0.858512
1.31337
2.40809
4.52674
4.9251
0.270799
0.424883
0.612722
1.08296
2.81631
4.13486
4.21138
0.109122
0.176063
0.277485
0.478086
1.29164
2.96081
4.18551
3.46768
0.0474693
0.119134
0.288577
0.57595
1.00241
1.85182
3.52431
8.31882
0.0713531
0.281232
0.754204
1.49916
2.40229
3.44683
4.24843
7.67247
0.218588
0.765129
1.81543
3.30907
5.02543
7.1291
12.1183
26.458
0.530484
1.55567
3.22629
5.31503
7.36655
9.58052
16.4961
47.7584
0.941623
2.36703
4.41368
6.69994
8.54031
9.3838
11.2729
45.6436
1.27257
2.86834
5.05503
7.56721
9.46677
9.34579
8.67924
26.1097
1.37738
2.97312
5.27204
8.18694
10.2677
9.31606
8.18472
14.2424
1.26752
2.73056
5.05298
8.21601
10.279
8.76816
7.39986
12.2514
1.03303
2.25127
4.36539
7.40177
9.38011
8.06854
6.84041
10.7295
0.75753
1.65172
3.2838
5.98949
8.08134
7.46741
6.72444
8.36972
0.477037
1.0579
2.09558
4.1174
6.43797
6.60818
0.242804
0.551154
1.09344
2.25398
4.43388
5.46676
0.0978256
0.22801
0.448332
0.927496
2.28053
4.01193
0.0358339
0.093704
0.199433
0.378861
0.898628
2.36369
0.0302834
0.107544
0.283955
0.572849
0.959557
1.61251
0.0974282
0.331786
0.821477
1.57038
2.46406
0.295227
0.872336
1.91526
3.35565
4.98286
0.657465
1.68155
3.27755
5.21447
7.06775
1.09002
2.45824
4.34377
6.38752
7.95114
1.41359
2.89465
4.8689
7.08213
8.55807
1.50853
2.95669
5.02205
7.53303
8.98052
1.3905
2.71384
4.79044
7.44657
8.77393
1.14521
2.26295
4.17021
6.73121
7.99339
0.840753
1.6747
3.20066
5.51023
6.9565
0.525167
1.05452
2.02801
3.87884
5.60855
0.269939
0.559694
1.04918
2.20329
4.03401
0.126531
0.278161
0.5408
1.12236
2.54258
0.111119
0.291959
0.610279
1.08864
1.99198
0.285016
0.7404
1.4591
2.33797
3.30465
0.758584
1.74962
3.16443
4.80052
6.48169
1.52942
3.12947
5.18514
7.33993
9.31309
2.37619
4.35775
6.65264
8.79111
10.0487
2.96769
5.02154
7.43046
9.65404
10.0851
3.11625
5.24016
7.93505
10.4363
10.1619
2.94035
5.07155
7.9759
10.5416
9.71069
2.54063
4.47141
7.17222
9.55255
8.75037
2.01416
3.4796
5.7021
7.9213
7.67013
1.47143
2.41331
4.00414
6.23096
6.82407
0.990712
1.52636
2.44436
4.41178
5.9101
0.576443
0.857291
1.32363
2.70962
4.78263
0.289805
0.438848
0.709816
1.54733
3.49892
0.159251
0.341449
0.679448
1.28588
2.59314
0.235946
0.672803
1.39137
2.2888
3.37525
0.609601
1.58002
3.00795
4.68202
6.46422
3.01346e-05
1.75357e-05
1.71734e-05
1.83559e-05
2.06582e-05
2.25688e-05
2.39879e-05
2.41373e-05
2.24538e-05
1.84788e-05
1.23664e-05
6.17213e-06
2.3609e-06
1.06671e-06
3.78053e-05
9.57079e-06
2.68592e-06
1.24976e-06
1.22765e-06
1.57167e-06
2.02023e-06
2.39521e-06
2.55172e-06
2.35824e-06
1.7291e-06
8.99483e-07
3.33912e-07
2.96976e-07
9.02443e-05
2.32023e-05
5.42078e-06
1.14779e-06
2.49451e-07
1.12699e-07
1.34604e-07
1.847e-07
2.25895e-07
2.34724e-07
1.87001e-07
1.02306e-07
4.88479e-08
3.60735e-07
0.000199256
5.21142e-05
1.1905e-05
2.36564e-06
4.05195e-07
6.15878e-08
1.34133e-08
1.15756e-08
1.55836e-08
1.83868e-08
1.61267e-08
9.60443e-09
2.00714e-08
5.13512e-07
0.000318899
8.18643e-05
1.81889e-05
3.48378e-06
5.69254e-07
7.83848e-08
9.13067e-09
1.29622e-09
8.68032e-10
1.11057e-09
1.07628e-09
8.47975e-10
1.71833e-08
5.73616e-07
0.000433765
0.000104498
2.18365e-05
3.93508e-06
6.05231e-07
7.83169e-08
8.38495e-09
7.45812e-10
8.57541e-11
5.82343e-11
6.04961e-11
1.73085e-10
1.2948e-08
5.06223e-07
0.000542565
0.000119959
2.31016e-05
3.84075e-06
5.45776e-07
6.54653e-08
6.53262e-09
5.47295e-10
4.72595e-11
1.1087e-11
7.61949e-12
8.93505e-11
9.8758e-09
3.81581e-07
0.000651108
0.000131687
2.32566e-05
3.55126e-06
4.63507e-07
5.13925e-08
4.97707e-09
5.73665e-10
1.60064e-10
7.10001e-11
3.10632e-11
6.8988e-11
6.39059e-09
2.55644e-07
0.000740569
0.000137314
2.2238e-05
3.1182e-06
3.76059e-07
4.14639e-08
6.72472e-09
2.98739e-09
1.83511e-09
9.70487e-10
4.35401e-10
2.21645e-10
4.35169e-09
1.53683e-07
0.000791169
0.000136446
2.0485e-05
2.66199e-06
3.18676e-07
6.28956e-08
3.82936e-08
2.99911e-08
2.08889e-08
1.20195e-08
5.85941e-09
2.56343e-09
4.12892e-09
8.73202e-08
0.000754309
0.000122589
1.73572e-05
2.22022e-06
4.38494e-07
3.1685e-07
3.16421e-07
2.7481e-07
2.04194e-07
1.26993e-07
6.74592e-08
3.17751e-08
1.5575e-08
5.09302e-08
0.000628846
9.87658e-05
1.39491e-05
2.49526e-06
1.7125e-06
2.13567e-06
2.34906e-06
2.16634e-06
1.71087e-06
1.14411e-06
6.59801e-07
3.37942e-07
1.57145e-07
9.2151e-08
0.000445011
7.04373e-05
1.21731e-05
6.52851e-06
9.36523e-06
1.30139e-05
1.5059e-05
1.46688e-05
1.2282e-05
8.7919e-06
5.47764e-06
3.02444e-06
1.48726e-06
7.28899e-07
0.000331577
6.14374e-05
2.21838e-05
2.89616e-05
4.80744e-05
6.92358e-05
8.36531e-05
8.58879e-05
7.63103e-05
5.85209e-05
3.92522e-05
2.31341e-05
1.19416e-05
5.85979e-06
2.88006e-06
1.07638e-06
1.08598e-06
1.49322e-06
2.05163e-06
2.63912e-06
3.19357e-06
3.55108e-06
3.53267e-06
3.03532e-06
2.08646e-06
1.07291e-06
4.11885e-07
1.46227e-07
6.37983e-06
1.44783e-06
3.37894e-07
1.25361e-07
1.25295e-07
1.83536e-07
2.64881e-07
3.42133e-07
3.86319e-07
3.70889e-07
2.7641e-07
1.48795e-07
5.51311e-08
2.35529e-08
1.60127e-05
3.7546e-06
7.96111e-07
1.52835e-07
2.99355e-08
1.32288e-08
1.74439e-08
2.58331e-08
3.32932e-08
3.56511e-08
2.8652e-08
1.61286e-08
6.27191e-09
1.53799e-08
3.45691e-05
8.27861e-06
1.73652e-06
3.18523e-07
5.07909e-08
7.28882e-09
1.6323e-09
1.59005e-09
2.25729e-09
2.71968e-09
2.3836e-09
1.42165e-09
1.14551e-09
2.34961e-08
5.56541e-05
1.30855e-05
2.67347e-06
4.73282e-07
7.20863e-08
9.35699e-09
1.04833e-09
1.60726e-10
1.26304e-10
1.64608e-10
1.58037e-10
1.077e-10
7.53257e-10
3.05009e-08
7.34622e-05
1.62603e-05
3.13671e-06
5.24462e-07
7.54194e-08
9.22718e-09
9.49185e-10
8.55583e-11
1.36208e-11
1.12635e-11
1.14724e-11
1.51427e-11
7.08743e-10
3.12225e-08
8.65975e-05
1.76654e-05
3.15252e-06
4.88816e-07
6.52684e-08
7.43681e-09
7.15595e-10
6.08381e-11
7.78364e-12
4.18726e-12
3.92781e-12
8.33105e-12
6.16632e-10
2.81301e-08
9.51299e-05
1.78222e-05
2.92793e-06
4.19024e-07
5.1646e-08
5.45833e-09
5.04333e-10
5.31272e-11
1.39799e-11
7.48157e-12
5.01919e-12
7.86157e-12
4.58337e-10
2.0755e-08
9.75905e-05
1.67895e-05
2.53726e-06
3.34941e-07
3.82955e-08
3.97877e-09
5.61347e-10
2.1422e-10
1.22659e-10
6.19927e-11
2.75737e-11
1.66475e-11
3.7127e-10
1.41481e-08
9.24125e-05
1.47754e-05
2.07438e-06
2.54737e-07
2.88936e-08
5.28062e-09
2.99978e-09
2.2171e-09
1.44567e-09
7.67725e-10
3.42494e-10
1.39891e-10
3.74747e-10
9.30182e-09
7.71714e-05
1.16041e-05
1.53484e-06
1.86625e-07
3.74595e-08
2.79087e-08
2.69433e-08
2.20118e-08
1.5179e-08
8.60356e-09
4.11803e-09
1.73244e-09
8.86347e-10
5.68965e-09
5.60343e-05
8.17085e-06
1.08643e-06
2.06714e-07
1.68054e-07
2.10459e-07
2.21058e-07
1.90066e-07
1.38081e-07
8.34063e-08
4.2906e-08
1.94007e-08
7.98749e-09
5.68062e-09
3.43692e-05
5.1243e-06
9.29017e-07
6.78462e-07
1.0599e-06
1.44239e-06
1.57977e-06
1.42351e-06
1.087e-06
6.97014e-07
3.83495e-07
1.85554e-07
7.99212e-08
3.56619e-08
2.27468e-05
4.28947e-06
2.1871e-06
3.60171e-06
6.18637e-06
8.67356e-06
9.8442e-06
9.27563e-06
7.44531e-06
5.06203e-06
2.97125e-06
1.52601e-06
6.87327e-07
3.01428e-07
3.33618e-07
8.90734e-08
7.21407e-08
1.1483e-07
1.87325e-07
2.78922e-07
3.79516e-07
4.62694e-07
4.92254e-07
4.43029e-07
3.12435e-07
1.67796e-07
6.59541e-08
2.15045e-08
9.14181e-07
1.89636e-07
3.87804e-08
1.18628e-08
1.18938e-08
1.96472e-08
3.14207e-08
4.39345e-08
5.25764e-08
5.25347e-08
3.99597e-08
2.22531e-08
8.55357e-09
2.79408e-09
2.32726e-06
5.02072e-07
9.77175e-08
1.72431e-08
3.11766e-09
1.41144e-09
2.07167e-09
3.29673e-09
4.47268e-09
4.95242e-09
4.03733e-09
2.32741e-09
9.02588e-10
7.38793e-10
4.969e-06
1.09444e-06
2.11963e-07
3.61243e-08
5.40396e-09
7.42734e-10
1.81639e-10
2.04149e-10
3.04039e-10
3.74724e-10
3.30771e-10
2.00467e-10
1.00149e-10
9.61803e-10
7.94825e-06
1.72283e-06
3.26149e-07
5.38025e-08
7.70474e-09
9.52536e-10
1.06202e-10
2.07863e-11
1.96941e-11
2.53521e-11
2.44107e-11
1.6942e-11
3.95957e-11
1.41889e-09
1.01201e-05
2.07518e-06
3.72823e-07
5.83643e-08
7.91992e-09
9.25604e-10
9.45529e-11
1.12599e-11
4.59305e-12
4.4872e-12
4.51057e-12
4.44663e-12
3.98216e-11
1.7956e-09
1.12091e-05
2.13237e-06
3.56327e-07
5.20435e-08
6.59308e-09
7.21643e-10
6.99196e-11
8.65952e-12
3.82458e-12
3.51297e-12
3.49471e-12
3.72741e-12
3.95485e-11
1.88189e-09
1.13028e-05
1.98779e-06
3.07404e-07
4.16605e-08
4.89594e-09
4.99639e-10
4.71015e-11
7.29778e-12
4.06648e-12
3.64962e-12
3.51985e-12
3.74861e-12
3.55448e-11
1.58897e-09
1.05021e-05
1.70541e-06
2.43989e-07
3.06836e-08
3.3611e-09
3.34754e-10
4.37871e-11
1.60203e-11
9.95254e-12
6.44737e-12
4.60092e-12
4.25831e-12
3.57061e-11
1.28715e-09
8.89322e-06
1.34802e-06
1.80046e-07
2.11702e-08
2.29285e-09
3.81928e-10
1.97763e-10
1.38843e-10
8.63853e-11
4.44781e-11
2.02556e-11
9.97837e-12
3.96392e-11
1.00889e-09
6.57871e-06
9.41093e-07
1.18812e-07
1.39093e-08
2.75713e-09
2.03152e-09
1.88028e-09
1.45275e-09
9.35644e-10
4.91701e-10
2.16919e-10
8.49386e-11
5.80001e-11
6.7227e-10
4.23244e-06
5.89974e-07
7.55279e-08
1.52571e-08
1.37315e-08
1.69102e-08
1.68774e-08
1.35966e-08
9.12919e-09
5.04958e-09
2.35409e-09
9.58694e-10
3.63367e-10
4.35855e-10
2.30039e-06
3.32327e-07
6.54145e-08
6.07693e-08
9.82197e-08
1.29133e-07
1.33145e-07
1.11428e-07
7.79503e-08
4.53424e-08
2.23841e-08
9.67252e-09
3.71349e-09
1.58503e-09
1.38186e-06
2.78848e-07
1.99315e-07
3.75366e-07
6.47331e-07
8.6978e-07
9.21229e-07
7.98774e-07
5.81656e-07
3.55077e-07
1.85193e-07
8.43875e-08
3.37042e-08
1.34688e-08
3.61659e-08
7.81234e-09
4.63904e-09
7.94295e-09
1.50439e-08
2.55725e-08
3.8765e-08
5.15271e-08
5.85108e-08
5.51183e-08
3.9913e-08
2.20759e-08
9.02311e-09
2.90827e-09
1.07766e-07
2.08002e-08
3.86708e-09
1.00899e-09
9.97928e-10
1.83322e-09
3.21703e-09
4.84725e-09
6.14047e-09
6.38481e-09
4.9628e-09
2.83021e-09
1.13961e-09
3.58816e-10
2.76896e-07
5.57107e-08
1.01107e-08
1.66725e-09
2.84793e-10
1.34497e-10
2.1605e-10
3.65804e-10
5.2019e-10
5.9543e-10
4.93983e-10
2.91082e-10
1.18549e-10
5.21238e-11
5.86478e-07
1.20361e-07
2.18017e-08
3.49416e-09
4.97845e-10
6.86329e-11
2.06075e-11
2.5476e-11
3.80595e-11
4.73162e-11
4.25125e-11
2.72039e-11
1.36041e-11
3.91977e-11
9.26363e-07
1.87623e-07
3.333e-08
5.1876e-09
7.08937e-10
8.68713e-11
1.22822e-11
5.13109e-12
5.28728e-12
6.00044e-12
5.8969e-12
4.99642e-12
5.26203e-12
6.34987e-11
1.13382e-06
2.18346e-07
3.69926e-08
5.48953e-09
7.13697e-10
8.30918e-11
1.10884e-11
4.0782e-12
3.53622e-12
3.54035e-12
3.54305e-12
3.51327e-12
5.08964e-12
9.29369e-11
1.17873e-06
2.11942e-07
3.36008e-08
4.68226e-09
5.72183e-10
6.34226e-11
8.8486e-12
3.83947e-12
3.4495e-12
3.42509e-12
3.42377e-12
3.43487e-12
5.32692e-12
1.1271e-10
1.09308e-06
1.82793e-07
2.69666e-08
3.50796e-09
4.00783e-10
4.26106e-11
6.7762e-12
3.69147e-12
3.45221e-12
3.4279e-12
3.422e-12
3.43929e-12
5.52506e-12
1.1234e-10
9.23898e-07
1.43566e-07
1.97196e-08
2.39655e-09
2.57573e-10
2.75993e-11
5.99253e-12
4.04473e-12
3.70846e-12
3.54557e-12
3.4655e-12
3.47142e-12
6.09052e-12
1.10914e-10
7.05194e-07
1.02915e-07
1.32727e-08
1.51717e-09
1.61244e-10
2.65118e-11
1.36454e-11
1.00908e-11
7.2845e-12
5.22663e-12
4.11246e-12
3.70742e-12
6.80928e-12
1.03682e-10
4.68257e-07
6.48778e-08
7.95008e-09
9.0773e-10
1.73907e-10
1.22144e-10
1.08169e-10
8.01404e-11
4.98167e-11
2.6192e-11
1.2649e-11
6.70059e-12
7.29049e-12
7.64812e-11
2.71899e-07
3.68821e-08
4.61489e-09
9.68998e-10
9.09849e-10
1.08707e-09
1.03118e-09
7.82716e-10
4.91146e-10
2.53999e-10
1.10745e-10
4.33232e-11
1.8103e-11
4.27275e-11
1.34091e-07
1.90568e-08
4.10397e-09
4.47856e-09
7.26426e-09
9.16622e-09
8.90389e-09
6.95371e-09
4.49826e-09
2.41156e-09
1.08821e-09
4.29243e-10
1.51943e-10
7.04621e-11
7.48219e-08
1.66136e-08
1.56838e-08
3.15902e-08
5.36266e-08
6.85915e-08
6.78359e-08
5.43826e-08
3.62865e-08
2.02102e-08
9.53835e-09
3.92633e-09
1.4186e-09
5.32629e-10
3.32999e-09
6.32058e-10
2.79962e-10
4.87981e-10
1.05013e-09
2.01052e-09
3.36347e-09
4.84056e-09
5.84265e-09
5.74235e-09
4.26398e-09
2.40619e-09
1.01195e-09
3.37498e-10
1.03472e-08
1.87736e-09
3.25603e-10
7.6997e-11
7.51292e-11
1.49229e-10
2.82502e-10
4.54556e-10
6.06741e-10
6.54759e-10
5.20216e-10
3.02897e-10
1.27347e-10
4.30808e-11
2.69865e-08
5.10209e-09
8.72274e-10
1.37954e-10
2.49148e-11
1.3853e-11
2.20103e-11
3.71618e-11
5.38113e-11
6.30325e-11
5.3651e-11
3.32521e-11
1.56819e-11
7.61768e-12
5.68669e-08
1.09617e-08
1.87256e-09
2.86617e-10
4.16112e-11
8.28875e-12
4.83207e-12
5.46458e-12
6.77772e-12
7.78638e-12
7.35097e-12
5.82709e-12
4.4227e-12
4.76923e-12
8.85461e-08
1.68906e-08
2.8378e-09
4.2218e-10
5.79059e-11
9.62403e-12
4.05927e-12
3.55455e-12
3.59007e-12
3.66525e-12
3.6564e-12
3.56643e-12
3.51582e-12
5.66213e-12
1.0417e-07
1.89886e-08
3.05805e-09
4.35754e-10
5.71743e-11
9.24567e-12
3.95819e-12
3.45643e-12
3.41926e-12
3.42094e-12
3.42136e-12
3.41783e-12
3.47771e-12
7.28121e-12
1.0196e-07
1.74626e-08
2.64913e-09
3.57176e-10
4.49549e-11
7.67307e-12
3.78797e-12
3.43835e-12
3.41143e-12
3.40985e-12
3.40984e-12
3.41047e-12
3.49974e-12
8.93502e-12
8.74418e-08
1.40186e-08
1.99183e-09
2.53086e-10
3.09227e-11
6.06347e-12
3.63294e-12
3.42703e-12
3.41149e-12
3.41021e-12
3.41001e-12
3.41133e-12
3.5367e-12
1.00791e-11
6.77361e-08
1.01666e-08
1.3552e-09
1.62955e-10
1.99665e-11
4.94253e-12
3.55633e-12
3.43718e-12
3.42107e-12
3.41491e-12
3.41214e-12
3.41411e-12
3.611e-12
1.14918e-11
4.70619e-08
6.68129e-09
8.42638e-10
9.70068e-11
1.28772e-11
4.62409e-12
3.85188e-12
3.67722e-12
3.55765e-12
3.4765e-12
3.43512e-12
3.42411e-12
3.69732e-12
1.22368e-11
2.84156e-08
3.85704e-09
4.66129e-10
5.47989e-11
1.2294e-11
9.01457e-12
8.11031e-12
6.68992e-12
5.29051e-12
4.28315e-12
3.74341e-12
3.52591e-12
3.70836e-12
1.04108e-11
1.51079e-08
2.01685e-09
2.50981e-10
5.49961e-11
5.14542e-11
5.88889e-11
5.35885e-11
3.9426e-11
2.46195e-11
1.36283e-11
7.48681e-12
4.81959e-12
3.98813e-12
7.03945e-12
6.87395e-09
9.69302e-10
2.25976e-10
2.6967e-10
4.30741e-10
5.20718e-10
4.78813e-10
3.51977e-10
2.13864e-10
1.0836e-10
4.71357e-11
1.9222e-11
8.52811e-12
6.39076e-12
3.60935e-09
8.8656e-10
1.02818e-09
2.13133e-09
3.52652e-09
4.28975e-09
3.97786e-09
2.96929e-09
1.83536e-09
9.45378e-10
4.11242e-10
1.57056e-10
5.43329e-11
2.18965e-11
2.62714e-10
4.79974e-11
1.8447e-11
2.92373e-11
6.5942e-11
1.36976e-10
2.481e-10
3.82394e-10
4.87733e-10
4.9856e-10
3.79681e-10
2.18658e-10
9.53714e-11
3.47048e-11
8.30727e-10
1.44742e-10
2.6093e-11
8.02471e-12
7.8123e-12
1.32243e-11
2.37417e-11
3.84759e-11
5.27604e-11
5.86165e-11
4.81075e-11
2.96396e-11
1.44704e-11
7.03682e-12
2.19173e-09
3.93272e-10
6.60396e-11
1.25611e-11
4.7897e-12
4.1048e-12
4.76646e-12
6.02521e-12
7.49332e-12
8.39396e-12
7.6812e-12
5.97036e-12
4.47885e-12
3.75677e-12
4.58563e-09
8.36207e-10
1.37704e-10
2.27245e-11
5.88947e-12
3.70987e-12
3.50154e-12
3.56193e-12
3.67483e-12
3.76568e-12
3.73384e-12
3.60753e-12
3.48945e-12
3.46032e-12
7.00973e-09
1.26719e-09
2.046e-10
3.17373e-11
6.93615e-12
3.79116e-12
3.44248e-12
3.41301e-12
3.41731e-12
3.42408e-12
3.42375e-12
3.41655e-12
3.41046e-12
3.47784e-12
7.91165e-09
1.37315e-09
2.13455e-10
3.18727e-11
6.81181e-12
3.76147e-12
3.43595e-12
3.40601e-12
3.40407e-12
3.40448e-12
3.40472e-12
3.40463e-12
3.40668e-12
3.5489e-12
7.29954e-09
1.1977e-09
1.76973e-10
2.5751e-11
5.94416e-12
3.65748e-12
3.42583e-12
3.40553e-12
3.40413e-12
3.40421e-12
3.40438e-12
3.40461e-12
3.40854e-12
3.64827e-12
5.8161e-09
8.99379e-10
1.26077e-10
1.83227e-11
5.00493e-12
3.55552e-12
3.41702e-12
3.40559e-12
3.40487e-12
3.40497e-12
3.40511e-12
3.40537e-12
3.41234e-12
3.76802e-12
4.15784e-09
6.07167e-10
8.14143e-11
1.23753e-11
4.3161e-12
3.48761e-12
3.41261e-12
3.40651e-12
3.40597e-12
3.40593e-12
3.40599e-12
3.40634e-12
3.41955e-12
3.94162e-12
2.65459e-09
3.70239e-10
4.84611e-11
8.32592e-12
3.89037e-12
3.46115e-12
3.42214e-12
3.41511e-12
3.41111e-12
3.40867e-12
3.40756e-12
3.40764e-12
3.42826e-12
4.07792e-12
1.47538e-09
1.99328e-10
2.65224e-11
5.91201e-12
3.79725e-12
3.62324e-12
3.57889e-12
3.52178e-12
3.46997e-12
3.43521e-12
3.41777e-12
3.41153e-12
3.43007e-12
3.98269e-12
7.28502e-10
9.85723e-11
1.49072e-11
5.71748e-12
5.47753e-12
5.71182e-12
5.40117e-12
4.76808e-12
4.16648e-12
3.75321e-12
3.53782e-12
3.4509e-12
3.43321e-12
3.71255e-12
3.11669e-10
4.61892e-11
1.36702e-11
1.63093e-11
2.37554e-11
2.70485e-11
2.40367e-11
1.76769e-11
1.15052e-11
7.19368e-12
4.88004e-12
3.90443e-12
3.56169e-12
3.56051e-12
1.56884e-10
4.43615e-11
5.87145e-11
1.19684e-10
1.90347e-10
2.19722e-10
1.92138e-10
1.35164e-10
7.92713e-11
3.97027e-11
1.79684e-11
8.48245e-12
4.97215e-12
3.98969e-12
2.0307e-11
6.09825e-12
4.12787e-12
4.60017e-12
6.6236e-12
1.09955e-11
1.85031e-11
2.84077e-11
3.70802e-11
3.91044e-11
3.11004e-11
1.94012e-11
1.0309e-11
5.79447e-12
5.84651e-11
1.2288e-11
4.73423e-12
3.64156e-12
3.62677e-12
3.95827e-12
4.64933e-12
5.6904e-12
6.78233e-12
7.3123e-12
6.62667e-12
5.30936e-12
4.21318e-12
3.66966e-12
1.50594e-10
2.81677e-11
7.15397e-12
3.91471e-12
3.46983e-12
3.43518e-12
3.47985e-12
3.56687e-12
3.67409e-12
3.74572e-12
3.70099e-12
3.58091e-12
3.47519e-12
3.42309e-12
3.0981e-10
5.60064e-11
1.14255e-11
4.49294e-12
3.53035e-12
3.41194e-12
3.40186e-12
3.40662e-12
3.4149e-12
3.42192e-12
3.42028e-12
3.4118e-12
3.40381e-12
3.40072e-12
4.62217e-10
8.17786e-11
1.52396e-11
4.98596e-12
3.58614e-12
3.41662e-12
3.39874e-12
3.39753e-12
3.3981e-12
3.39881e-12
3.39905e-12
3.39884e-12
3.39863e-12
3.40069e-12
4.99661e-10
8.51721e-11
1.53529e-11
4.94843e-12
3.57579e-12
3.41547e-12
3.3991e-12
3.3978e-12
3.3979e-12
3.39814e-12
3.39838e-12
3.39862e-12
3.39889e-12
3.40382e-12
4.35261e-10
7.10191e-11
1.28218e-11
4.56548e-12
3.5263e-12
3.41059e-12
3.39935e-12
3.39855e-12
3.39865e-12
3.39885e-12
3.39905e-12
3.39929e-12
3.39963e-12
3.40923e-12
3.2417e-10
5.09567e-11
9.68167e-12
4.1381e-12
3.47598e-12
3.40612e-12
3.39974e-12
3.39937e-12
3.3995e-12
3.3997e-12
3.39988e-12
3.40009e-12
3.4006e-12
3.41803e-12
2.16094e-10
3.33205e-11
7.15314e-12
3.81963e-12
3.44146e-12
3.4036e-12
3.40037e-12
3.40027e-12
3.40041e-12
3.4006e-12
3.40077e-12
3.40098e-12
3.40189e-12
3.43228e-12
1.29024e-10
2.03266e-11
5.43015e-12
3.6173e-12
3.42154e-12
3.40302e-12
3.4015e-12
3.40142e-12
3.40148e-12
3.40161e-12
3.40174e-12
3.40194e-12
3.40341e-12
3.44583e-12
6.81483e-11
1.18404e-11
4.37809e-12
3.50476e-12
3.41619e-12
3.40873e-12
3.40714e-12
3.40545e-12
3.40407e-12
3.40328e-12
3.40299e-12
3.40301e-12
3.40453e-12
3.44324e-12
3.32508e-11
7.24893e-12
3.85757e-12
3.48884e-12
3.47553e-12
3.48085e-12
3.4677e-12
3.44528e-12
3.4257e-12
3.41322e-12
3.40718e-12
3.405e-12
3.40524e-12
3.42609e-12
1.53806e-11
5.03586e-12
3.80002e-12
3.91318e-12
4.19105e-12
4.28256e-12
4.13439e-12
3.88267e-12
3.66085e-12
3.51761e-12
3.44605e-12
3.41799e-12
3.40903e-12
3.41356e-12
9.11608e-12
5.03032e-12
5.85573e-12
8.57139e-12
1.1457e-11
1.22714e-11
1.0707e-11
8.19352e-12
5.98935e-12
4.56251e-12
3.83894e-12
3.5466e-12
3.44658e-12
3.42278e-12
4.32402e-12
3.52921e-12
3.42053e-12
3.43821e-12
3.53398e-12
3.76207e-12
4.18752e-12
4.79369e-12
5.37361e-12
5.56473e-12
5.10919e-12
4.39012e-12
3.8248e-12
3.54295e-12
6.4891e-12
3.86352e-12
3.45655e-12
3.40062e-12
3.39986e-12
3.41717e-12
3.45556e-12
3.51725e-12
3.58654e-12
3.62467e-12
3.58717e-12
3.50787e-12
3.44121e-12
3.40806e-12
1.1733e-11
4.71891e-12
3.58073e-12
3.41489e-12
3.39335e-12
3.39193e-12
3.39453e-12
3.39969e-12
3.40638e-12
3.41124e-12
3.4091e-12
3.40218e-12
3.39609e-12
3.3932e-12
2.0634e-11
6.19226e-12
3.7958e-12
3.4432e-12
3.39674e-12
3.39134e-12
3.39101e-12
3.3914e-12
3.39205e-12
3.39266e-12
3.39281e-12
3.39253e-12
3.39231e-12
3.39236e-12
2.86093e-11
7.47615e-12
3.97746e-12
3.46624e-12
3.39982e-12
3.39218e-12
3.39147e-12
3.39152e-12
3.39168e-12
3.39188e-12
3.3921e-12
3.3923e-12
3.39252e-12
3.39283e-12
2.95014e-11
7.48787e-12
3.963e-12
3.46286e-12
3.39981e-12
3.39278e-12
3.39215e-12
3.39218e-12
3.39231e-12
3.39247e-12
3.39266e-12
3.39288e-12
3.3931e-12
3.39349e-12
2.4836e-11
6.60491e-12
3.82179e-12
3.4438e-12
3.39813e-12
3.39326e-12
3.39286e-12
3.39291e-12
3.39303e-12
3.39317e-12
3.39334e-12
3.39354e-12
3.39373e-12
3.39429e-12
1.82824e-11
5.51576e-12
3.66375e-12
3.4242e-12
3.3966e-12
3.39381e-12
3.39362e-12
3.39369e-12
3.3938e-12
3.39394e-12
3.39408e-12
3.39426e-12
3.39443e-12
3.39538e-12
1.25902e-11
4.6447e-12
3.54633e-12
3.41079e-12
3.39589e-12
3.39447e-12
3.39442e-12
3.3945e-12
3.39461e-12
3.39474e-12
3.39487e-12
3.39503e-12
3.3952e-12
3.39688e-12
8.44774e-12
4.05637e-12
3.47234e-12
3.40316e-12
3.39589e-12
3.39526e-12
3.39527e-12
3.39536e-12
3.39546e-12
3.39559e-12
3.39571e-12
3.39585e-12
3.39604e-12
3.3985e-12
5.82792e-12
3.70526e-12
3.43097e-12
3.39958e-12
3.39647e-12
3.39624e-12
3.39626e-12
3.39632e-12
3.39639e-12
3.3965e-12
3.3966e-12
3.39671e-12
3.3969e-12
3.39924e-12
4.452e-12
3.52982e-12
3.4122e-12
3.39959e-12
3.39904e-12
3.39915e-12
3.39878e-12
3.39822e-12
3.3978e-12
3.39761e-12
3.39757e-12
3.39761e-12
3.39775e-12
3.39906e-12
3.79969e-12
3.45116e-12
3.41058e-12
3.41435e-12
3.42287e-12
3.42475e-12
3.41926e-12
3.41132e-12
3.40492e-12
3.40112e-12
3.39939e-12
3.39879e-12
3.39866e-12
3.39902e-12
3.5833e-12
3.45339e-12
3.48841e-12
3.58752e-12
3.68369e-12
3.69745e-12
3.63137e-12
3.54253e-12
3.47192e-12
3.42985e-12
3.41008e-12
3.40268e-12
3.4003e-12
3.3999e-12
3.42942e-12
3.39124e-12
3.38607e-12
3.38658e-12
3.39045e-12
3.40063e-12
3.42114e-12
3.45245e-12
3.48477e-12
3.49797e-12
3.47588e-12
3.43816e-12
3.40825e-12
3.3934e-12
3.53505e-12
3.40717e-12
3.38827e-12
3.38573e-12
3.38562e-12
3.38635e-12
3.38815e-12
3.39126e-12
3.39499e-12
3.3973e-12
3.39563e-12
3.39163e-12
3.38826e-12
3.38665e-12
3.79001e-12
3.44703e-12
3.39419e-12
3.38682e-12
3.38585e-12
3.38575e-12
3.38585e-12
3.38611e-12
3.38649e-12
3.38682e-12
3.38682e-12
3.38656e-12
3.38636e-12
3.38634e-12
4.2137e-12
3.51397e-12
3.40391e-12
3.38848e-12
3.38648e-12
3.38621e-12
3.38617e-12
3.3862e-12
3.38627e-12
3.38637e-12
3.38647e-12
3.38656e-12
3.38666e-12
3.38678e-12
4.56585e-12
3.5684e-12
3.41169e-12
3.38986e-12
3.3871e-12
3.38675e-12
3.3867e-12
3.3867e-12
3.38674e-12
3.38681e-12
3.38691e-12
3.38702e-12
3.38714e-12
3.38728e-12
4.55514e-12
3.56219e-12
3.41072e-12
3.39016e-12
3.38762e-12
3.38731e-12
3.38725e-12
3.38726e-12
3.38729e-12
3.38735e-12
3.38744e-12
3.38755e-12
3.38767e-12
3.3878e-12
4.29424e-12
3.51811e-12
3.4047e-12
3.38988e-12
3.3881e-12
3.38788e-12
3.38784e-12
3.38784e-12
3.38787e-12
3.38792e-12
3.388e-12
3.3881e-12
3.3882e-12
3.38833e-12
3.97854e-12
3.46959e-12
3.39858e-12
3.38967e-12
3.38862e-12
3.38848e-12
3.38845e-12
3.38845e-12