/*--------------------------------*- C++ -*----------------------------------*\
| =========                 |                                                 |
| \\      /  F ield         | OpenFOAM: The Open Source CFD Toolbox           |
|  \\    /   O peration     | Version:  v2106                                 |
|   \\  /    A nd           | Website:  www.openfoam.com                      |
|    \\/     M anipulation  |                                                 |
\*---------------------------------------------------------------------------*/
FoamFile
{
    version     2.0;
    format      ascii;
    arch        "LSB;label=32;scalar=64";
    class       volScalarField;
    location    "0.000133";
    object      p;
}
// * * * * * * * * * * * * * * * * * * * * * * * * * * * * * * * * * * * * * //

dimensions      [1 -1 -2 0 0 0 0];

internalField   nonuniform List<scalar> 
18109
(
234460
233646
233328
232865
232654
232490
232481
234423
233778
233415
233007
232783
232592
232513
234238
233783
233426
233083
232835
232619
232479
234052
233703
233375
233063
232806
232582
232412
233754
233467
233212
232944
232732
232533
232374
233439
233275
233110
232875
232696
232505
232347
233066
232998
232914
232722
232600
232446
232309
232774
232804
232769
232640
232535
232413
232287
235536
234870
234558
234121
233899
233722
233668
233639
233699
233776
233964
234100
234310
234613
235402
234856
234522
234153
233928
233725
233619
233550
233570
233577
233678
233764
233916
234043
235175
234781
234444
234125
233884
233667
233516
233396
233333
233340
233411
233473
233562
233710
234980
234661
234350
234048
233788
233563
233400
233280
233218
233175
233202
233248
233291
233399
234701
234434
234174
233912
233688
233485
233322
233190
233113
233056
233050
233081
233116
233227
234443
234259
234057
233820
233614
233421
233261
233129
233043
232982
232958
232987
233027
233117
234128
234016
233876
233678
233516
233355
233216
233098
233009
232953
232925
232961
233027
233120
233920
233868
233766
233605
233463
233321
233197
233099
233022
232979
232971
233031
233143
233280
233666
233684
233622
233499
233391
233289
233188
233117
233065
233049
233081
233167
233306
233485
233534
233589
233562
233469
233374
233296
233206
233152
233117
233129
233194
233303
233492
233728
233461
233534
233539
233473
233373
233303
233214
233165
233141
233187
233304
233462
233727
234010
233589
233620
233601
233536
233418
233345
233256
233212
233198
233261
233395
233581
233877
234208
233626
233671
233663
233614
233467
233373
233265
233205
233184
233252
233409
233655
234030
234441
234009
234012
233875
233768
233581
233426
233276
233182
233140
233232
233409
233714
234048
234629
234163
234785
234839
235035
235034
235000
235351
235900
236006
236249
236337
236414
234642
234895
234790
234741
234473
234059
234247
234238
233906
233516
232826
231869
233897
233721
233289
232694
231745
230447
233748
233483
232979
232263
231221
229862
233627
233374
232909
232250
231314
230033
233655
233546
233238
232708
231936
231040
233705
233699
233590
233371
233025
232600
233860
234007
234113
234170
234217
234257
234020
234311
234636
234972
235358
235751
234292
234705
235183
235714
236333
236990
234472
234959
235496
236133
236866
237662
234700
235176
235746
236383
237052
237855
234804
235346
235791
236372
236883
237526
234753
235373
235630
236009
236298
236668
234034
234401
234608
234929
235159
235373
233696
233950
234067
234174
234139
233978
233407
233525
233550
233476
233221
232741
233265
233312
233265
233074
232717
232079
233185
233223
233181
232997
232659
231967
233234
233325
233379
233315
233077
232563
233492
233689
233839
233867
233762
233501
233730
234040
234335
234571
234748
234819
234060
234485
234933
235376
235822
236189
234407
234897
235474
236059
236726
237338
234618
235148
235742
236430
237191
237952
234864
235367
235953
236588
237270
238062
234891
235372
235831
236392
236897
237531
234739
235300
235553
235863
236079
236338
233948
234174
234266
234442
234563
234650
233571
233617
233548
233447
233240
232928
233247
233126
232910
232579
232120
231454
233074
232852
232528
232061
231494
230658
232983
232740
232420
231974
231414
230729
233069
232893
232663
232349
231926
231417
233235
233221
233141
233088
232973
232822
233450
233574
233684
233891
234066
234244
233698
233995
234285
234750
235238
235784
233935
234291
234681
235277
235947
236725
234086
234509
234971
235641
236357
237262
234161
234555
234950
235559
236151
236990
234005
234349
234548
234895
235206
235685
234441
235006
235649
236457
237311
238265
234710
235406
236108
237039
237942
239056
234777
235434
236066
236937
237711
238729
234593
235184
235486
235956
236370
236964
233778
234138
234111
234181
234143
234123
233281
233317
233043
232845
232433
231896
233202
232983
232459
231854
230957
229955
233134
232747
232095
231320
230155
228968
233260
232811
232119
231284
230029
228663
233489
233133
232522
231682
230504
229259
233838
233608
233173
232577
231812
230985
234161
234126
233974
233717
233379
232970
234571
234733
234853
234959
235088
235180
234965
235349
235740
236179
236654
237126
235327
235805
236326
236968
237654
238432
235581
236170
236775
237566
238346
239281
235730
236294
236833
237574
238264
239177
235720
236276
236562
236997
237357
237901
236537
237410
238764
241596
245544
233271
232218
232197
234445
238772
230098
227519
225598
226402
231028
228139
224600
221813
222162
225852
227282
223607
220964
221095
223895
227951
225169
223299
223678
226185
229772
228089
227208
228349
231523
232001
231417
231479
232860
235534
239272
234387
234841
235860
237413
239409
241717
236486
237813
239330
241247
242975
244225
238160
240056
241990
244403
246528
248922
254197
239070
241250
243494
245945
248672
250987
257106
262478
239293
241617
244104
246790
249664
254169
257420
277664
238680
240667
242905
245370
248168
251014
253263
253340
237287
238523
240326
243034
246583
250953
253601
252593
235555
236049
237018
239058
242094
246145
252016
256850
233399
232567
231683
232385
234820
240330
247889
254126
231613
229837
227729
226957
228156
233092
240615
251106
230818
228277
225569
224233
225389
229812
233806
237089
230783
228104
225311
223577
224659
228608
233641
238829
231416
229503
227275
226188
228133
233335
239669
242340
232953
231851
230288
229650
231557
234770
240473
253970
234753
234534
233858
233666
235695
238825
236686
237293
237536
238138
240544
243662
238325
239682
240887
242458
245090
248132
239267
241225
243126
245309
248384
251922
239464
241751
244081
246996
250313
255101
238665
240604
242825
245570
248771
236896
238072
239915
242749
246339
234787
235356
236405
238575
241573
232310
231541
231117
232210
234886
230412
228834
227510
227479
229396
229563
227439
225760
225803
227598
229497
227682
226231
226189
227677
230640
229657
228821
229282
231045
232615
232331
232206
232765
234113
234575
235211
235931
236481
237564
236691
238029
239274
240472
241616
238084
240125
242042
243896
245681
238823
241284
243668
246182
248884
238364
240699
243352
246498
249577
236565
238430
241003
244139
248012
234191
235138
236670
239690
243650
230917
229977
230365
232899
237316
227961
225635
224068
225502
230514
226351
223320
221146
222358
226504
226000
222812
220791
221891
225171
227316
224903
223794
225120
227900
229823
228417
228164
229984
233326
232524
232222
232720
234428
237193
235396
236024
237258
238886
240696
237928
239288
240872
242627
243630
239711
241688
243479
245534
246687
240785
243036
245080
247143
249347
240563
242655
244950
247383
249693
238859
240584
242920
245730
249504
236881
236421
236196
235880
235689
235519
235440
235385
235387
235407
235505
235574
235712
235897
236697
236346
236089
235806
235614
235433
235321
235234
235207
235201
235244
235291
235394
235475
236480
236208
235962
235715
235513
235321
235176
235057
234982
234953
234990
235031
235098
235219
236316
236076
235832
235589
235370
235173
235014
234889
234822
234776
234781
234813
234862
234977
236083
235869
235647
235428
235227
235044
234888
234759
234680
234632
234619
234649
234703
234835
235894
235722
235523
235316
235121
234944
234789
234664
234581
234536
234517
234554
234618
234743
235661
235534
235368
235188
235013
234854
234710
234600
234520
234483
234467
234516
234603
234733
235515
235421
235281
235118
234956
234808
234673
234575
234505
234479
234484
234557
234684
234842
235356
235301
235190
235048
234900
234772
234653
234576
234527
234518
234564
234668
234829
235001
235299
235261
235159
235031
234893
234778
234671
234612
234580
234596
234671
234795
234987
235207
235279
235247
235160
235046
234905
234797
234692
234639
234620
234669
234787
234943
235187
235446
235388
235315
235212
235098
234948
234845
234746
234698
234693
234763
234906
235087
235357
235644
235429
235367
235272
235167
235000
234886
234779
234722
234720
234800
234966
235193
235519
235866
235704
235598
235415
235284
235094
234951
234830
234758
234762
234858
235037
235305
235620
236066
237929
237731
237650
237517
237436
237352
237305
237257
237244
237220
237224
237194
237201
237201
237821
237680
237570
237438
237342
237242
237178
237115
237062
237030
237001
236953
236944
236889
237668
237552
237447
237336
237239
237135
237052
236962
236897
236821
236781
236736
236713
236713
237563
237452
237337
237221
237112
237003
236905
236807
236730
236657
236598
236558
236531
236550
237405
237306
237194
237085
236978
236873
236772
236672
236586
236513
236451
236423
236402
236444
237293
237208
237101
236993
236883
236776
236669
236568
236479
236412
236355
236342
236337
236384
237171
237100
237004
236901
236793
236687
236580
236485
236402
236346
236304
236303
236319
236383
237096
237039
236953
236853
236746
236641
236535
236446
236369
236325
236296
236307
236359
236451
237025
236986
236907
236813
236706
236605
236503
236423
236360
236331
236326
236361
236451
236553
237008
236970
236895
236803
236695
236597
236499
236429
236382
236365
236386
236446
236565
236695
237010
236968
236888
236796
236684
236590
236498
236440
236407
236408
236458
236546
236703
236869
237071
236999
236901
236806
236688
236598
236512
236462
236440
236466
236545
236655
236842
237035
237103
237032
236920
236824
236694
236600
236515
236467
236456
236503
236604
236751
236970
237205
237248
237125
236969
236863
236715
236614
236528
236480
236488
236553
236672
236849
237094
237391
238101
238063
238077
238056
238067
238057
238078
238091
238119
238147
238177
238184
238203
238190
238108
238077
238074
238047
238046
238033
238045
238051
238077
238083
238090
238082
238081
238034
238080
238050
238043
238022
238021
238007
238010
238001
238005
238000
237992
237980
237958
237944
238089
238062
238045
238020
238004
237982
237971
237953
237947
237935
237916
237898
237864
237857
238068
238047
238025
237998
237974
237947
237926
237901
237884
237867
237841
237824
237791
237792
238069
238053
238027
237996
237964
237930
237899
237869
237843
237821
237791
237777
237751
237752
238069
238054
238025
237989
237952
237914
237877
237843
237812
237789
237759
237750
237738
237751
238085
238073
238043
238004
237961
237918
237875
237838
237803
237780
237753
237750
237757
237779
238096
238088
238058
238018
237970
237925
237879
237841
237806
237787
237769
237775
237803
237840
238125
238118
238086
238046
237995
237948
237899
237863
237829
237815
237809
237826
237878
237932
238151
238143
238108
238068
238015
237969
237922
237888
237861
237855
237868
237900
237976
238050
238210
238190
238143
238102
238045
238000
237953
237925
237906
237910
237938
237998
238090
238183
238251
238231
238173
238131
238068
238023
237978
237954
237947
237965
238009
238094
238211
238336
238341
238301
238219
238170
238099
238052
238007
237989
237995
238026
238092
238193
238333
238511
237817
237847
237916
237957
238018
238062
238122
238171
238228
238283
238338
238386
238438
238488
237912
237930
237985
238015
238064
238103
238158
238206
238263
238311
238357
238397
238434
238471
237965
237980
238027
238058
238105
238145
238194
238236
238283
238324
238363
238400
238425
238471
238031
238052
238091
238121
238160
238193
238233
238269
238312
238350
238383
238420
238437
238479
238079
238108
238143
238171
238204
238233
238267
238300
238336
238371
238399
238436
238452
238495
238141
238174
238205
238230
238256
238281
238309
238338
238369
238403
238428
238467
238484
238521
238202
238235
238263
238285
238307
238329
238353
238378
238405
238436
238460
238500
238523
238559
238274
238307
238331
238351
238369
238387
238407
238429
238453
238483
238506
238544
238574
238607
238342
238375
238396
238415
238431
238448
238465
238486
238507
238536
238563
238598
238640
238674
238422
238455
238473
238490
238504
238519
238534
238553
238574
238601
238634
238669
238723
238758
238496
238528
238544
238561
238574
238590
238606
238627
238649
238677
238717
238757
238817
238860
238588
238618
238627
238643
238654
238670
238687
238709
238733
238764
238809
238861
238925
238984
238668
238699
238702
238718
238728
238748
238767
238794
238823
238861
238915
238975
239045
239116
238779
238803
238795
238807
238813
238834
238855
238885
238918
238962
239020
239092
239170
239290
237209
237288
237384
237473
237572
237665
237762
237848
237932
238008
238080
238146
238209
238271
237373
237428
237522
237604
237697
237782
237870
237950
238029
238098
238163
238222
238269
238322
237503
237557
237649
237727
237813
237890
237970
238040
238110
238173
238230
238284
238320
238374
237623
237686
237769
237841
237919
237990
238062
238127
238192
238251
238303
238354
238383
238431
237731
237798
237873
237943
238015
238081
238147
238207
238266
238321
238369
238418
238447
238492
237838
237904
237973
238039
238106
238167
238228
238285
238340
238393
238439
238488
238518
238560
237933
237997
238063
238126
238190
238248
238306
238359
238412
238463
238508
238558
238592
238633
238028
238092
238154
238215
238275
238332
238386
238438
238488
238540
238585
238635
238675
238713
238120
238182
238241
238301
238359
238414
238467
238518
238568
238619
238667
238715
238763
238800
238220
238280
238335
238394
238450
238504
238556
238607
238657
238707
238758
238806
238864
238900
238315
238375
238427
238485
238540
238594
238648
238700
238753
238804
238859
238908
238970
239008
238421
238481
238529
238585
238639
238694
238747
238802
238856
238911
238967
239023
239087
239134
238517
238578
238623
238680
238733
238790
238847
238907
238965
239028
239087
239151
239215
239267
238632
238692
238732
238785
238837
238895
238953
239016
239077
239145
239209
239280
239349
239430
236579
236638
236709
236784
236865
236946
237031
237114
237197
237278
237356
237433
237504
237584
236738
236778
236850
236921
237002
237080
237163
237241
237321
237396
237469
237539
237598
237664
236875
236917
236990
237061
237139
237213
237291
237363
237436
237504
237571
237634
237684
237744
237007
237057
237127
237196
237271
237342
237416
237485
237554
237618
237679
237737
237780
237830
237135
237190
237258
237326
237397
237466
237535
237601
237666
237726
237783
237836
237875
237919
237264
237321
237386
237452
237520
237586
237653
237716
237779
237838
237892
237942
237976
238013
237387
237444
237507
237571
237637
237702
237766
237828
237889
237947
237998
238045
238079
238110
237509
237567
237627
237690
237754
237817
237880
237942
238002
238058
238109
238155
238189
238215
237624
237684
237741
237804
237867
237930
237993
238054
238113
238170
238220
238264
238303
238323
237743
237805
237859
237922
237983
238046
238108
238169
238229
238285
238337
238380
238426
238442
237857
237921
237973
238035
238097
238161
238224
238286
238346
238403
238458
238500
238550
238566
237976
238044
238095
238157
238218
238281
238343
238405
238466
238525
238582
238629
238681
238701
238092
238158
238208
238271
238333
238397
238461
238527
238590
238654
238712
238767
238815
238842
238223
238283
238335
238398
238458
238522
238585
238651
238715
238781
238840
238901
238955
239002
235915
235945
235980
236022
236069
236122
236181
236243
236309
236376
236445
236513
236578
236654
236051
236069
236106
236144
236193
236245
236305
236365
236430
236494
236559
236623
236681
236746
236176
236194
236232
236271
236319
236371
236428
236485
236545
236604
236663
236722
236773
236833
236300
236322
236360
236399
236447
236497
236553
236608
236666
236721
236776
236830
236875
236928
236421
236447
236485
236526
236573
236623
236677
236730
236784
236836
236886
236935
236975
237021
236545
236574
236612
236653
236700
236750
236802
236854
236906
236955
237003
237047
237083
237122
236666
236699
236736
236778
236825
236875
236926
236976
237026
237074
237119
237160
237192
237225
236790
236824
236861
236904
236951
237000
237051
237101
237150
237197
237240
237278
237309
237336
236910
236947
236983
237028
237074
237124
237175
237225
237274
237320
237362
237398
237429
237447
237032
237073
237108
237153
237200
237250
237300
237351
237400
237446
237489
237523
237557
237567
237150
237194
237228
237275
237323
237374
237426
237478
237527
237574
237617
237650
237685
237690
237272
237318
237353
237401
237450
237502
237554
237606
237656
237703
237748
237783
237821
237823
237388
237432
237470
237520
237571
237626
237681
237735
237787
237836
237881
237918
237953
237960
237513
237554
237597
237647
237700
237755
237810
237865
237917
237967
238011
238053
238088
238113
235298
235294
235300
235313
235330
235353
235381
235414
235452
235493
235539
235586
235631
235686
235404
235393
235400
235412
235428
235450
235478
235510
235548
235588
235632
235677
235722
235773
235502
235490
235499
235511
235528
235550
235577
235607
235642
235679
235720
235760
235802
235850
235603
235594
235602
235614
235631
235652
235679
235708
235742
235776
235815
235853
235892
235935
235701
235696
235705
235718
235736
235757
235783
235811
235842
235875
235910
235945
235979
236018
235803
235803
235811
235825
235843
235864
235890
235917
235947
235978
236011
236043
236074
236107
235905
235909
235919
235933
235952
235974
235999
236025
236054
236083
236113
236143
236170
236199
236010
236017
236028
236043
236062
236085
236110
236137
236165
236193
236221
236248
236272
236296
236114
236125
236137
236154
236174
236198
236223
236250
236277
236305
236330
236355
236377
236394
236220
236235
236247
236266
236287
236312
236338
236365
236393
236420
236445
236467
236490
236499
236323
236342
236356
236377
236401
236426
236454
236481
236509
236536
236560
236581
236602
236605
236432
236452
236468
236491
236516
236542
236571
236599
236627
236654
236679
236700
236723
236721
236536
236556
236577
236601
236629
236658
236688
236717
236746
236773
236799
236818
236840
236837
236653
236671
236694
236718
236747
236776
236807
236837
236865
236893
236918
236941
236960
236973
234706
234685
234675
234669
234667
234669
234674
234684
234698
234715
234735
234757
234782
234811
234784
234760
234751
234743
234740
234741
234746
234755
234769
234786
234806
234828
234852
234879
234856
234833
234824
234816
234814
234815
234819
234828
234840
234856
234874
234895
234916
234943
234931
234910
234901
234893
234891
234891
234895
234903
234915
234930
234948
234967
234987
235012
235004
234987
234977
234971
234969
234969
234973
234981
234992
235005
235022
235040
235058
235081
235081
235067
235058
235052
235050
235051
235054
235062
235072
235085
235100
235116
235133
235153
235158
235147
235139
235134
235133
235134
235138
235145
235155
235166
235180
235194
235209
235227
235238
235231
235223
235220
235219
235221
235225
235232
235241
235251
235263
235276
235289
235304
235319
235315
235308
235307
235307
235309
235314
235321
235329
235338
235348
235359
235371
235382
235401
235401
235396
235395
235396
235400
235405
235412
235420
235428
235437
235446
235458
235464
235484
235487
235483
235485
235488
235492
235498
235504
235512
235519
235528
235535
235545
235545
235571
235576
235573
235576
235580
235585
235592
235598
235607
235614
235622
235629
235639
235635
235657
235662
235664
235668
235674
235680
235687
235694
235702
235709
235716
235722
235731
235725
235757
235757
235759
235763
235770
235776
235784
235792
235799
235806
235813
235820
235828
235831
234130
234104
234088
234073
234061
234050
234042
234037
234034
234035
234036
234040
234045
234054
234186
234158
234142
234126
234114
234103
234094
234089
234086
234086
234088
234092
234096
234108
234235
234210
234194
234179
234166
234156
234148
234142
234139
234139
234140
234143
234147
234158
234288
234265
234249
234234
234222
234211
234203
234197
234193
234193
234193
234197
234200
234210
234340
234319
234304
234289
234278
234268
234260
234254
234250
234249
234249
234252
234255
234262
234395
234376
234361
234347
234336
234326
234318
234312
234308
234306
234306
234308
234311
234316
234449
234434
234419
234407
234396
234386
234379
234373
234368
234366
234364
234365
234367
234372
234506
234493
234479
234468
234457
234448
234441
234434
234430
234426
234424
234423
234425
234427
234564
234553
234540
234529
234520
234511
234504
234497
234492
234487
234485
234483
234484
234484
234623
234614
234602
234592
234583
234575
234568
234561
234555
234550
234546
234543
234544
234541
234683
234676
234665
234656
234648
234640
234633
234625
234620
234613
234609
234605
234604
234600
234746
234740
234729
234721
234713
234706
234699
234692
234686
234679
234674
234669
234668
234662
234810
234804
234795
234788
234781
234773
234767
234759
234752
234745
234739
234733
234730
234722
234883
234872
234862
234855
234848
234841
234835
234828
234821
234814
234808
234802
234798
234795
233524
233499
233483
233464
233448
233433
233418
233404
233391
233380
233369
233361
233351
233350
233559
233535
233519
233501
233486
233470
233455
233442
233428
233417
233406
233397
233388
233388
233592
233571
233555
233538
233523
233508
233494
233480
233467
233456
233445
233436
233426
233425
233628
233608
233593
233576
233562
233547
233533
233520
233507
233495
233484
233475
233465
233462
233664
233646
233631
233615
233601
233587
233573
233560
233547
233536
233525
233516
233506
233501
233701
233684
233670
233655
233641
233628
233614
233601
233588
233577
233565
233556
233546
233539
233738
233723
233709
233695
233682
233668
233655
233642
233630
233618
233606
233596
233586
233577
233775
233763
233749
233736
233723
233709
233696
233683
233670
233658
233646
233635
233625
233614
233813
233802
233789
233776
233763
233750
233736
233723
233710
233697
233686
233673
233663
233651
233851
233841
233828
233816
233803
233790
233777
233763
233750
233736
233724
233711
233700
233686
233889
233880
233868
233856
233843
233830
233817
233803
233789
233775
233762
233748
233737
233722
233929
233920
233908
233896
233883
233870
233857
233842
233829
233814
233801
233786
233774
233759
233969
233959
233948
233936
233924
233911
233897
233882
233868
233853
233839
233823
233810
233794
234012
233999
233987
233975
233963
233950
233937
233922
233908
233893
233879
233863
233850
233835
232842
232824
232809
232792
232776
232759
232743
232725
232708
232691
232674
232658
232641
232630
232863
232846
232831
232816
232800
232784
232768
232751
232733
232716
232698
232683
232666
232654
232884
232868
232855
232840
232825
232810
232794
232778
232761
232744
232726
232710
232693
232681
232907
232892
232879
232865
232851
232836
232820
232804
232788
232771
232753
232737
232719
232706
232929
232916
232904
232891
232877
232862
232847
232831
232815
232798
232781
232764
232746
232732
232952
232940
232929
232916
232902
232888
232873
232857
232841
232824
232807
232790
232772
232756
232975
232964
232953
232940
232927
232913
232898
232882
232866
232850
232832
232815
232797
232779
232997
232987
232976
232964
232951
232936
232922
232906
232890
232873
232856
232838
232820
232801
233018
233009
232998
232986
232973
232959
232944
232928
232912
232895
232878
232859
232841
232821
233039
233030
233019
233007
232994
232980
232965
232949
232933
232916
232898
232879
232861
232840
233059
233050
233040
233028
233015
233000
232985
232969
232952
232935
232917
232898
232880
232858
233078
233069
233059
233047
233034
233019
233004
232987
232970
232952
232934
232915
232897
232875
233096
233087
233077
233065
233051
233037
233022
233005
232988
232969
232951
232931
232912
232890
233114
233104
233093
233080
233067
233053
233038
233021
233005
232987
232968
232948
232929
232907
232075
232062
232051
232038
232025
232010
231995
231978
231962
231944
231926
231908
231889
231872
232087
232076
232065
232053
232040
232026
232011
231995
231978
231960
231941
231922
231903
231886
232098
232088
232078
232067
232055
232041
232027
232011
231995
231977
231959
231940
231920
231903
232111
232102
232093
232082
232070
232057
232043
232027
232011
231993
231975
231956
231936
231918
232124
232115
232107
232096
232084
232072
232058
232042
232026
232009
231990
231971
231951
231932
232136
232128
232119
232109
232098
232085
232071
232056
232040
232022
232004
231985
231965
231945
232147
232140
232131
232121
232110
232097
232083
232068
232052
232035
232016
231997
231977
231956
232157
232150
232141
232131
232120
232107
232094
232078
232062
232045
232027
232007
231987
231966
232166
232159
232150
232140
232129
232116
232103
232087
232071
232054
232036
232016
231996
231975
232173
232166
232158
232148
232137
232124
232110
232095
232079
232062
232043
232024
232004
231982
232180
232173
232164
232154
232143
232130
232116
232101
232085
232068
232049
232030
232010
231988
232185
232177
232169
232159
232148
232135
232121
232106
232089
232072
232054
232034
232014
231992
232188
232180
232172
232161
232150
232137
232123
232108
232092
232074
232056
232036
232016
231994
232189
232181
232172
232162
232150
232137
232124
232109
232093
232076
232058
232039
232019
231998
231258
231252
231245
231237
231227
231217
231205
231192
231179
231164
231149
231133
231116
231099
231266
231260
231254
231246
231236
231226
231214
231202
231188
231173
231157
231140
231123
231106
231272
231267
231260
231253
231244
231234
231223
231210
231196
231182
231166
231150
231132
231115
231278
231273
231267
231260
231251
231241
231230
231218
231204
231189
231174
231157
231140
231122
231283
231279
231273
231266
231257
231247
231236
231224
231210
231196
231180
231163
231146
231128
231287
231283
231277
231270
231262
231252
231241
231229
231215
231200
231185
231168
231151
231133
231291
231287
231281
231274
231266
231256
231245
231232
231219
231204
231188
231172
231154
231136
231293
231289
231283
231276
231268
231258
231247
231235
231221
231206
231191
231174
231157
231139
231294
231290
231284
231277
231269
231259
231248
231236
231222
231207
231192
231175
231158
231140
231294
231290
231284
231277
231268
231259
231248
231235
231222
231207
231192
231175
231158
231140
231293
231288
231282
231275
231267
231257
231246
231234
231221
231206
231190
231174
231157
231139
231290
231285
231279
231272
231264
231254
231243
231231
231218
231203
231188
231172
231155
231137
231286
231281
231275
231267
231259
231249
231239
231227
231213
231199
231183
231167
231150
231133
231280
231274
231268
231261
231252
231243
231232
231221
231208
231194
231179
231164
231147
231131
230458
230456
230452
230448
230443
230436
230429
230421
230411
230401
230390
230378
230365
230351
230462
230460
230457
230453
230448
230441
230434
230425
230415
230405
230393
230381
230368
230354
230465
230463
230460
230456
230451
230445
230437
230429
230419
230408
230397
230385
230372
230358
230468
230466
230463
230459
230454
230447
230440
230431
230422
230411
230400
230387
230374
230361
230469
230468
230465
230461
230456
230449
230442
230433
230423
230413
230401
230389
230376
230362
230470
230468
230466
230462
230457
230450
230443
230434
230424
230413
230402
230390
230377
230363
230470
230468
230465
230461
230456
230450
230442
230434
230424
230413
230402
230389
230377
230364
230469
230467
230464
230460
230455
230449
230441
230432
230423
230412
230401
230388
230376
230363
230467
230465
230462
230458
230453
230447
230439
230430
230421
230410
230398
230386
230374
230361
230464
230462
230459
230455
230450
230443
230436
230427
230417
230407
230395
230384
230371
230359
230461
230458
230455
230450
230445
230439
230431
230423
230413
230403
230391
230379
230367
230355
230455
230452
230449
230445
230439
230433
230426
230417
230408
230397
230386
230375
230363
230351
230450
230447
230443
230438
230433
230427
230420
230411
230402
230391
230380
230369
230357
230346
230443
230439
230435
230431
230426
230419
230412
230404
230395
230385
230375
230364
230352
230341
229720
229720
229719
229718
229716
229713
229709
229704
229698
229692
229685
229677
229668
229658
229724
229724
229723
229721
229719
229716
229712
229706
229701
229694
229686
229678
229669
229659
229726
229726
229725
229723
229721
229718
229713
229708
229702
229695
229688
229679
229671
229661
229728
229727
229727
229725
229722
229719
229715
229710
229703
229697
229689
229681
229672
229662
229729
229728
229727
229726
229723
229720
229716
229710
229704
229697
229689
229681
229672
229663
229729
229728
229728
229726
229723
229720
229715
229710
229704
229697
229689
229681
229672
229663
229728
229728
229727
229725
229722
229719
229714
229709
229703
229696
229688
229680
229671
229662
229727
229726
229725
229723
229721
229717
229713
229707
229701
229694
229686
229678
229670
229661
229724
229724
229723
229721
229718
229714
229710
229704
229698
229691
229684
229676
229667
229659
229721
229720
229719
229717
229715
229711
229706
229701
229695
229688
229680
229672
229664
229656
229718
229717
229715
229713
229710
229707
229702
229696
229690
229683
229676
229668
229660
229652
229713
229712
229710
229708
229705
229702
229697
229692
229685
229679
229671
229664
229656
229648
229709
229707
229706
229703
229700
229696
229692
229686
229680
229674
229666
229659
229652
229644
229703
229701
229700
229697
229694
229691
229686
229681
229675
229669
229662
229655
229648
229640
229060
229059
229057
229055
229051
229048
229043
229038
229032
229025
229064
229065
229064
229064
229063
229062
229059
229057
229053
229049
229044
229039
229033
229026
229066
229067
229066
229066
229065
229063
229061
229058
229055
229051
229046
229040
229034
229027
229068
229068
229068
229067
229066
229065
229062
229059
229056
229051
229047
229041
229035
229028
229069
229069
229069
229068
229067
229065
229063
229060
229056
229052
229047
229041
229035
229029
229069
229069
229069
229068
229067
229065
229063
229059
229056
229051
229047
229041
229035