/*--------------------------------*- C++ -*----------------------------------*\
| =========                 |                                                 |
| \\      /  F ield         | OpenFOAM: The Open Source CFD Toolbox           |
|  \\    /   O peration     | Version:  v2106                                 |
|   \\  /    A nd           | Website:  www.openfoam.com                      |
|    \\/     M anipulation  |                                                 |
\*---------------------------------------------------------------------------*/
FoamFile
{
    version     2.0;
    format      ascii;
    arch        "LSB;label=32;scalar=64";
    class       volScalarField;
    location    "0.000202";
    object      k;
}
// * * * * * * * * * * * * * * * * * * * * * * * * * * * * * * * * * * * * * //

dimensions      [0 2 -2 0 0 0 0];

internalField   nonuniform List<scalar> 
18109
(
0.106602
0.0792127
0.0578545
0.0431579
0.0341064
0.030177
0.0314888
0.0495818
0.0369302
0.0265299
0.0192154
0.0146438
0.0124292
0.0125021
0.0224269
0.0161543
0.0113174
0.00795418
0.00587632
0.00483581
0.00476133
0.0100015
0.0066575
0.00448013
0.00304405
0.00218702
0.00176064
0.00172429
0.00450232
0.00261601
0.00164828
0.00107557
0.000752457
0.0005971
0.000593958
0.00219759
0.0010266
0.000572748
0.000351986
0.000239136
0.000188974
0.000197864
0.00134623
0.000462578
0.000201279
0.000108947
7.0601e-05
5.65864e-05
6.6986e-05
0.00117379
0.000304494
8.85301e-05
3.50584e-05
2.0182e-05
1.71795e-05
2.622e-05
0.0949228
0.0710425
0.0518768
0.0382363
0.0292874
0.0245054
0.0237889
0.0280148
0.0397166
0.0630441
0.102835
0.163912
0.254733
0.388521
0.0432267
0.0325449
0.0233875
0.0167693
0.0124273
0.0100264
0.00944117
0.0110078
0.0159702
0.0267942
0.0471789
0.0819144
0.138058
0.22714
0.0189452
0.0139542
0.00980055
0.006826
0.00490938
0.00384646
0.00356112
0.00418571
0.0063415
0.0114309
0.0219617
0.0419876
0.0776573
0.139869
0.00805939
0.00560803
0.00380773
0.00256776
0.0017963
0.00137588
0.00127126
0.00154797
0.002541
0.00507447
0.0108333
0.0229754
0.0468236
0.0922786
0.00339931
0.00212854
0.00137064
0.000890826
0.000607129
0.000457907
0.00043149
0.00057041
0.00107057
0.00244474
0.00585042
0.0136745
0.0303539
0.0643809
0.00153751
0.000792691
0.000462446
0.000285666
0.000189469
0.000142286
0.000142407
0.00022048
0.000499021
0.00131364
0.00347778
0.00878531
0.0208287
0.0466531
0.000891748
0.000330721
0.00015447
8.59829e-05
5.48644e-05
4.19555e-05
4.84668e-05
9.67353e-05
0.000268081
0.000793563
0.00226377
0.00604876
0.0150503
0.035096
0.000778579
0.000202531
6.20233e-05
2.62056e-05
1.53053e-05
1.2669e-05
1.95287e-05
5.25765e-05
0.000170122
0.0005428
0.00162381
0.00450324
0.0115855
0.027801
0.000935993
0.000201075
4.1943e-05
1.1518e-05
6.17573e-06
6.60429e-06
1.33727e-05
4.0436e-05
0.000135774
0.000441932
0.00134392
0.00378384
0.00988427
0.0240548
0.00129253
0.000262131
5.09627e-05
1.56045e-05
1.23021e-05
1.56409e-05
2.57149e-05
5.7263e-05
0.000159605
0.000477184
0.00139321
0.00383846
0.00990568
0.0239231
0.00188212
0.000398993
9.82863e-05
5.0018e-05
5.07569e-05
6.44363e-05
9.09997e-05
0.000151268
0.000311088
0.000755797
0.00195319
0.00499822
0.0122838
0.0285882
0.00293096
0.000747452
0.000268323
0.000185252
0.000198339
0.000249336
0.000337375
0.000498946
0.000840134
0.00164696
0.00360129
0.00821336
0.0186311
0.0406972
0.00504842
0.00171663
0.00082204
0.000636464
0.000681227
0.000848173
0.00113245
0.00160582
0.00245355
0.00415701
0.00780021
0.0156505
0.0321677
0.0647109
0.00985564
0.00441154
0.00244796
0.00195984
0.00207127
0.00255703
0.00339488
0.00472665
0.00687029
0.0106125
0.0175717
0.0310046
0.057115
0.105115
0.221392
0.366382
0.601144
0.980127
1.60386
2.66185
0.200217
0.336792
0.561365
0.926078
1.51866
2.48876
0.145485
0.263399
0.46546
0.8071
1.39117
2.42657
0.107668
0.208806
0.391091
0.715736
1.30831
2.45521
0.0816095
0.169286
0.337882
0.660652
1.30022
2.65245
0.0647938
0.14397
0.308567
0.652544
1.40178
3.13158
0.0567097
0.134909
0.312574
0.721415
1.69543
4.07294
0.0575198
0.145357
0.360339
0.887901
2.20546
5.43699
0.069285
0.180447
0.46052
1.15806
2.87524
6.94303
0.0965967
0.246832
0.616507
1.5096
3.61688
8.31683
0.145359
0.347711
0.814521
1.87457
4.21931
9.03101
0.219971
0.48013
1.03465
2.20489
4.60436
9.08093
0.324449
0.640133
1.25712
2.45648
4.71845
8.57699
0.468006
0.830771
1.47835
2.6374
4.65319
7.80812
0.670281
1.07612
1.73826
2.81445
4.49599
6.89599
0.437038
0.760535
1.3759
2.34577
3.80275
5.80475
0.310025
0.582143
1.08032
1.86104
3.04416
4.79601
0.233215
0.455911
0.849859
1.48742
2.50286
4.16637
0.177415
0.354435
0.669064
1.19783
2.09331
3.72093
0.134265
0.274859
0.532393
0.985324
1.80105
3.47978
0.10168
0.214153
0.428068
0.821415
1.56937
3.27005
0.0784856
0.170015
0.35097
0.699033
1.40357
3.15538
0.0631496
0.139971
0.297325
0.612963
1.29125
3.16034
0.0548874
0.123152
0.266548
0.56516
1.2472
3.3178
0.0538157
0.119955
0.259626
0.556644
1.26158
3.46853
0.0616944
0.132724
0.279263
0.588579
1.32287
3.53801
0.0818485
0.164524
0.326691
0.655522
1.40223
3.44996
0.118809
0.218626
0.401481
0.748726
1.48108
3.26781
0.175612
0.29435
0.496839
0.853665
1.53936
2.99364
0.154628
0.238794
0.396293
0.695058
1.27392
2.43304
0.107463
0.183305
0.324957
0.597315
1.11308
2.11712
0.0703249
0.137751
0.2665
0.510833
0.964921
1.84667
0.0466606
0.103016
0.212171
0.418875
0.808515
1.59278
0.0317883
0.0758049
0.163249
0.333807
0.66764
1.37207
0.0218949
0.05446
0.121837
0.259278
0.540172
1.1632
0.0151844
0.0386261
0.0895617
0.199063
0.434469
0.983431
0.0106011
0.0273063
0.0655162
0.152383
0.348704
0.829968
0.00766366
0.0199054
0.0492616
0.119624
0.287039
0.721589
0.00611944
0.0160185
0.0404467
0.101016
0.251004
0.661451
0.0061014
0.0159861
0.0399755
0.0992181
0.247699
0.664763
0.00813702
0.0209761
0.0503696
0.11934
0.284654
0.733963
0.012657
0.0315315
0.0735576
0.164546
0.361679
0.842297
0.0182481
0.0426779
0.098395
0.212407
0.435961
0.924538
0.0187589
0.0582759
0.175972
0.493311
1.28473
3.09196
0.0347391
0.0938628
0.248924
0.616514
1.41796
3.01427
0.0650514
0.150041
0.342508
0.742847
1.51564
2.89046
0.121748
0.237959
0.460796
0.87047
1.59281
2.79456
0.0228467
0.0580455
0.131119
0.269605
0.524128
1.03546
0.0159393
0.0465525
0.113887
0.243881
0.494486
1.02008
0.0111128
0.0348609
0.0905702
0.202871
0.433283
0.948526
0.00768708
0.0250626
0.0672465
0.159541
0.363996
0.860978
0.00530469
0.0176734
0.0489548
0.122224
0.301787
0.788495
0.00375091
0.0127032
0.036829
0.0992231
0.27121
0.808153
0.00292022
0.0100921
0.031231
0.0934483
0.289264
0.962961
0.0028388
0.0100276
0.0335667
0.110802
0.370405
1.25306
0.00379886
0.0133899
0.046731
0.158516
0.523941
1.66757
0.0066344
0.0222884
0.0753271
0.241459
0.733301
2.08702
0.0131249
0.0401864
0.123594
0.35611
0.958628
2.391
0.0265625
0.0717597
0.194362
0.493765
1.16594
2.54383
0.0533559
0.124467
0.290674
0.645487
1.34444
2.60343
0.105192
0.208883
0.413432
0.797045
1.4804
2.60742
3.9606
14.8838
41.643
41.5065
30.9534
4.18939
15.9917
45.6393
41.3867
30.2235
4.65843
17.8906
50.8327
41.0528
30.1699
5.55272
20.8
55.3644
40.9443
30.9117
7.17655
25.0622
58.2096
40.4056
31.3568
9.65479
30.4697
57.4672
38.4349
31.1225
12.6434
35.8403
53.7552
35.8476
31.041
15.2803
38.6133
50.0863
35.0101
31.7379
34.6092
17.0994
38.8146
47.3691
34.8947
32.2089
35.9925
17.1436
35.945
44.7811
34.3819
31.8123
37.0732
15.8985
31.8125
43.0635
34.2888
30.8762
37.4993
47.0481
13.9329
27.1545
42.1415
35.4159
29.9853
35.65
53.4704
67.4631
11.7318
22.6337
41.7716
37.9235
30.2123
32.0353
51.6402
126.751
9.76654
19.3983
42.9819
42.0413
32.6652
30.8501
36.9687
96.3189
8.31656
18.4046
46.2906
46.2595
35.4397
31.72
35.4228
93.8988
7.50569
18.8429
51.6234
49.2271
36.4714
32.7937
36.8848
81.5324
7.49343
20.4627
59.7727
51.492
37.5333
34.6369
38.0636
71.4522
7.6432
23.7129
69.4832
54.2362
39.8662
37.0436
37.4717
57.0951
7.88527
28.7658
77.7249
55.7879
40.4155
37.8525
37.361
49.1595
8.18643
34.5778
78.7504
53.7007
38.4533
37.5437
37.3037
43.7155
8.80031
40.2562
75.056
50.1856
36.8358
38.1102
39.2092
40.4907
9.83167
44.2453
71.7896
49.5732
37.5237
39.7004
43.1852
39.3114
10.9334
45.0633
68.4308
49.6141
37.8432
40.4917
11.2352
41.558
62.3765
48.5762
37.1402
40.0586
10.4844
34.8003
53.4567
47.1241
36.1529
39.1048
9.27808
27.6036
44.1755
46.6233
35.7516
36.4164
8.12027
21.5863
36.0987
46.1309
37.1241
33.1365
7.06199
17.3737
31.5266
47.3075
41.0628
6.17672
14.5535
29.9869
51.3174
45.7526
5.49668
12.6222
30.4858
56.6603
48.1984
4.93975
11.3458
33.5182
63.3311
49.6657
4.42164
10.7208
40.3485
73.2491
53.2736
3.96513
10.6479
51.0457
83.1151
53.8773
3.54646
10.7882
62.3128
86.1941
49.7407
3.17464
11.4509
70.7041
83.5465
45.7686
2.88383
12.7757
74.4181
80.2337
44.8393
2.72874
14.2147
72.3378
75.2906
43.4296
2.71069
14.764
61.7498
66.7457
41.5855
2.83822
14.2867
48.1163
57.3074
40.217
3.08332
13.195
36.6581
48.8469
39.1741
3.33971
12.0006
29.2269
42.9418
37.9583
3.50138
10.9467
25.7056
41.4382
38.0646
3.5177
10.0636
24.8507
43.0638
38.7825
3.39089
9.45866
26.2387
45.7122
37.7111
3.20808
9.27308
30.6497
49.5932
36.7117
3.03049
9.63835
38.7506
54.3578
36.65
2.89633
10.507
49.476
57.2076
34.9016
2.90974
11.8137
59.8875
55.6243
31.5201
3.3238
13.7526
66.4311
51.5112
29.1339
4.04778
16.9946
65.9688
48.3162
28.5189
4.90738
19.4798
62.0751
45.5986
27.9946
5.37583
19.407
55.6632
42.6282
27.5878
5.29878
17.3674
49.4462
40.7904
27.3931
4.87031
14.8574
43.811
39.7675
27.9584
4.41373
13.6318
39.8761
39.4214
29.2783
4.07599
14.0989
39.2713
40.36
30.5343
0.0845048
0.0635849
0.0465732
0.0341868
0.0258366
0.021
0.0195355
0.0219528
0.0302089
0.0479617
0.0802353
0.132511
0.213247
0.334453
0.0375402
0.0283761
0.020446
0.0146289
0.0107279
0.00844511
0.00766963
0.00857394
0.0121228
0.0203695
0.0367669
0.0661977
0.115573
0.196003
0.0159358
0.0118249
0.00833114
0.00579886
0.00413715
0.00317023
0.00284334
0.00322151
0.00479608
0.00872592
0.0172568
0.0342508
0.0657051
0.122432
0.00649572
0.00460116
0.00314374
0.00212313
0.00147688
0.00110788
0.000994603
0.00117605
0.00192255
0.00392528
0.0086794
0.0191079
0.0403515
0.0822657
0.00259136
0.00168067
0.00109736
0.000716582
0.00048682
0.000360061
0.00033096
0.000430017
0.000819285
0.00193673
0.00481355
0.0116464
0.0266848
0.0583342
0.00109606
0.000595559
0.000357394
0.000223295
0.000148161
0.000109361
0.000107587
0.000167185
0.000391589
0.00107213
0.00293947
0.00765004
0.0186356
0.0428312
0.000603242
0.000232488
0.000113713
6.50317e-05
4.18375e-05
3.16265e-05
3.65393e-05
7.51891e-05
0.000217418
0.000666784
0.00195928
0.00536912
0.0136755
0.0326032
0.000525305
0.000133713
4.21924e-05
1.88555e-05
1.13814e-05
9.48485e-06
1.50365e-05
4.22687e-05
0.000141878
0.000465867
0.00142913
0.00405265
0.0106481
0.026057
0.000644922
0.000129328
2.61773e-05
7.76081e-06
4.67865e-06
5.23928e-06
1.08002e-05
3.33653e-05
0.000114865
0.000383084
0.00119243
0.00343042
0.00914426
0.0226681
0.000907898
0.000168473
3.1713e-05
1.13923e-05
1.03973e-05
1.35183e-05
2.19547e-05
4.83602e-05
0.000135712
0.00041353
0.00123486
0.00347928
0.00916812
0.0225613
0.00135507
0.000264613
6.74435e-05
4.06465e-05
4.45417e-05
5.72431e-05
8.03358e-05
0.000131742
0.000268748
0.0006577
0.0017306
0.00452654
0.0113629
0.0269538
0.00220213
0.000533834
0.000204078
0.000157107
0.000176464
0.000224656
0.000303656
0.000445477
0.000742733
0.00145338
0.00321057
0.00745714
0.0172592
0.0384177
0.00404624
0.00134367
0.000667051
0.000551369
0.000611926
0.000772355
0.00103296
0.00145858
0.00221219
0.00373237
0.00703512
0.0143143
0.0299652
0.061378
0.0084006
0.00369489
0.00206368
0.00172615
0.00187962
0.00235436
0.0031365
0.00435709
0.00629949
0.00968942
0.0160515
0.0285806
0.0534591
0.100103
0.069581
0.05255
0.0387774
0.0283651
0.0211658
0.0166655
0.014654
0.0149867
0.0188591
0.0284456
0.0481913
0.0843996
0.145549
0.24234
0.0286794
0.0215068
0.015602
0.0111506
0.00811912
0.00622967
0.00538545
0.00550883
0.00718979
0.0116296
0.0214548
0.0410013
0.0770173
0.140177
0.0112209
0.00817114
0.00579173
0.00403745
0.00287647
0.00215847
0.00184744
0.00191989
0.00267246
0.00479884
0.00992981
0.0211235
0.0439778
0.0893385
0.00413531
0.00286925
0.00197569
0.00134166
0.000937901
0.000691438
0.000591926
0.000643364
0.0010068
0.00210953
0.00502912
0.0120131
0.0276738
0.0617838
0.00145972
0.000934184
0.000617684
0.000407604
0.000280439
0.00020454
0.000178751
0.00021583
0.000412591
0.00104978
0.00287388
0.00758177
0.0189174
0.0450848
0.000549977
0.000292695
0.000178268
0.000113176
7.67373e-05
5.60908e-05
5.25481e-05
7.90143e-05
0.000198525
0.00060414
0.0018317
0.00518238
0.0136792
0.0340395
0.000302821
0.00010513
5.0094e-05
2.90481e-05
1.92826e-05
1.45413e-05
1.64281e-05
3.55696e-05
0.000115851
0.000396926
0.00128094
0.00379618
0.0104263
0.0267507
0.000303482
6.43087e-05
1.72375e-05
7.41212e-06
4.67615e-06
3.9959e-06
6.66781e-06
2.1092e-05
7.99955e-05
0.00029082
0.000973048
0.00297683
0.00841282
0.0220668
0.000421721
7.0503e-05
1.13512e-05
3.14219e-06
2.22063e-06
2.67031e-06
5.48692e-06
1.78689e-05
6.74286e-05
0.000246962
0.000837555
0.00260498
0.0074675
0.0197917
0.000645345
0.000100349
1.58758e-05
6.62549e-06
7.12199e-06
9.30297e-06
1.40878e-05
2.91292e-05
8.30272e-05
0.000271877
0.000883285
0.00269984
0.00765741
0.0201134
0.00103646
0.00017136
3.99711e-05
2.80131e-05
3.33548e-05
4.32775e-05
5.88997e-05
9.14717e-05
0.000180021
0.000452012
0.00127124
0.00359182
0.00967863
0.0244095
0.00182509
0.00038271
0.000137784
0.000115676
0.000137533
0.00017819
0.000238373
0.00033958
0.000547285
0.00106677
0.00244683
0.00604841
0.014927
0.0351508
0.00354963
0.0010538
0.000493417
0.000427129
0.000493583
0.000634598
0.000846721
0.0011771
0.0017463
0.00291842
0.00559602
0.011909
0.0263526
0.0568068
0.00750908
0.00314104
0.00165156
0.00140971
0.00157331
0.0020038
0.00267274
0.00368186
0.00525022
0.00800911
0.0133184
0.0243335
0.0474877
0.093132
0.0526938
0.0394972
0.0292552
0.0215378
0.0163779
0.013003
0.0114011
0.011192
0.0132141
0.0186757
0.0308526
0.0545538
0.0980396
0.170482
0.0196764
0.0144529
0.0105092
0.00754493
0.00560726
0.00435494
0.00378214
0.00374768
0.00463344
0.00708378
0.0128956
0.0251437
0.0498467
0.0978385
0.00699753
0.00492122
0.00348955
0.00242991
0.00176438
0.00133757
0.00115283
0.00116569
0.0015535
0.0026906
0.00563882
0.0125379
0.0281769
0.0635229
0.00233902
0.00155102
0.00106616
0.000716947
0.000508442
0.000375994
0.000323631
0.000343018
0.000524056
0.00110161
0.0027572
0.00706725
0.0178789
0.0446439
0.00075279
0.000454277
0.000298723
0.000193174
0.000133618
9.64578e-05
8.44933e-05
0.000101059
0.000198588
0.000536096
0.00158667
0.00456002
0.012571
0.0334518
0.000276795
0.000130825
7.73739e-05
4.75283e-05
3.19601e-05
2.2701e-05
2.14287e-05
3.38266e-05
9.40876e-05
0.00031545
0.00104599
0.00324111
0.00945378
0.0261319
0.000180164
4.89837e-05
2.00703e-05
1.08335e-05
6.97412e-06
5.0354e-06
6.01837e-06
1.51452e-05
5.6813e-05
0.00021664
0.000768494
0.00250641
0.00761035
0.0216035
0.000223886
3.80113e-05
7.4585e-06
2.57132e-06
1.5174e-06
1.28525e-06
2.47666e-06
9.34001e-06
4.05756e-05
0.000165168
0.000613354
0.002081
0.0065086
0.018811
0.00035072
5.02106e-05
6.34159e-06
1.45384e-06
1.13719e-06
1.44937e-06
2.75935e-06
8.83999e-06
3.63178e-05
0.000149107
0.000566337
0.00196185
0.00619942
0.0179293
0.000582149
8.01466e-05
1.06456e-05
4.51668e-06
5.30661e-06
7.10163e-06
1.00933e-05
1.86101e-05
5.1261e-05
0.000180061
0.00064774
0.00218743
0.0067608
0.0190982
0.000998813
0.000149259
3.00828e-05
2.13378e-05
2.66146e-05
3.55735e-05
4.79779e-05
7.10137e-05
0.000132705
0.000338258
0.00101944
0.00312262
0.00902025
0.0240647
0.00188319
0.000356202
0.000113334
9.41109e-05
0.000114371
0.000151894
0.000204056
0.000286038
0.000447961
0.000870019
0.00207283
0.00544673
0.0142649
0.0352434
0.00379771
0.00103019
0.000438422
0.000370583
0.000427716
0.000557558
0.000747356
0.00103366
0.00151284
0.00251639
0.0049132
0.0109151
0.0254393
0.057357
0.00787804
0.00324663
0.00158929
0.00130819
0.00142749
0.00182231
0.00243345
0.00334788
0.00475159
0.0072398
0.0120957
0.0225352
0.0455453
0.0931445
0.0316534
0.0233319
0.0175357
0.0131859
0.0104014
0.00840364
0.00740215
0.00712316
0.00797101
0.0105945
0.0170425
0.0301924
0.0577563
0.1078
0.0105675
0.00748757
0.00550532
0.00402384
0.00311267
0.00246761
0.00216665
0.00210751
0.00245587
0.0035519
0.00644094
0.0130176
0.0282638
0.0623628
0.00333045
0.00221667
0.00158349
0.00111926
0.000846978
0.000656395
0.000573443
0.000567162
0.000708769
0.00118499
0.00258534
0.00627529
0.0160186
0.0416598
0.000978844
0.000599805
0.000413167
0.000281596
0.000208301
0.000157594
0.000137245
0.000141092
0.000204075
0.000439075
0.00121798
0.00356241
0.0104165
0.0300613
0.000292693
0.000151301
9.73044e-05
6.36267e-05
4.59754e-05
3.39983e-05
2.99373e-05
3.46883e-05
6.90912e-05
0.00021004
0.000721295
0.00240623
0.00767739
0.0235428
0.000134707
4.3101e-05
2.14341e-05
1.2909e-05
9.04853e-06
6.59492e-06
6.24302e-06
1.0189e-05
3.27219e-05
0.000130571
0.000506799
0.00182197
0.00612522
0.0194027
0.000138126
2.46212e-05
5.7861e-06
2.472e-06
1.59627e-06
1.18752e-06
1.50912e-06
4.6376e-06
2.14983e-05
9.77521e-05
0.000404341
0.00152355
0.00529485
0.0170496
0.000213521
2.99851e-05
3.61624e-06
6.57657e-07
3.3901e-07
3.21656e-07
7.07031e-07
3.26522e-06
1.71169e-05
8.2205e-05
0.000354074
0.00137665
0.00486699
0.015687
0.000357603
4.63005e-05
4.58723e-06
7.94532e-07
6.79266e-07
8.87728e-07
1.4317e-06
4.04384e-06
1.77824e-05
8.35333e-05
0.000362729
0.0014181
0.00497789
0.0157555
0.000623996
8.18129e-05
8.85482e-06
3.33152e-06
4.01066e-06
5.35105e-06
7.20321e-06
1.18069e-05
3.03935e-05
0.000112945
0.000450215
0.00168121
0.00566459
0.0171972
0.00111453
0.000162279
2.64966e-05
1.68719e-05
2.09825e-05
2.80581e-05
3.71985e-05
5.27006e-05
9.31886e-05
0.000237111
0.000760045
0.00251821
0.00780623
0.0221547
0.00218087
0.000392346
0.000103927
7.90645e-05
9.38682e-05
0.000124147
0.000164861
0.000226334
0.000343354
0.000653994
0.00159866
0.00446064
0.0124771
0.0327643
0.00433093
0.00110373
0.000422789
0.000334319
0.000370009
0.000475838
0.000628725
0.000857732
0.00123293
0.0020158
0.00394803
0.0091111
0.0225075
0.0540032
0.00832592
0.00345964
0.00164305
0.00127585
0.00131546
0.00164116
0.00214716
0.00291158
0.00408427
0.0061533
0.0101994
0.0192158
0.0402238
0.0873387
0.0100291
0.00683762
0.00498598
0.0037455
0.00310485
0.00271168
0.00260953
0.0026759
0.00307357
0.00402209
0.00633684
0.0112047
0.022725
0.0470045
0.00298479
0.00191363
0.00135743
0.000978672
0.000784271
0.000667448
0.000637492
0.000662312
0.000795295
0.00114332
0.00208152
0.00443391
0.0107385
0.0272656
0.00084502
0.000487035
0.000334846
0.000232208
0.000179787
0.000148165
0.000139546
0.000147162
0.000190542
0.000327206
0.000765078
0.00210592
0.00624023
0.0187688
0.000243183
0.00011354
7.36578e-05
4.91832e-05
3.68991e-05
2.94297e-05
2.73427e-05
3.0031e-05
4.67463e-05
0.000113351
0.000365893
0.00125591
0.00425659
0.0140335
0.000100144
2.87052e-05
1.4746e-05
9.19961e-06
6.68243e-06
5.17754e-06
4.84861e-06
6.3104e-06
1.54631e-05
5.83572e-05
0.000238318
0.000926092
0.00339443
0.0118661
9.29033e-05
1.51621e-05
3.50126e-06
1.56944e-06
1.05778e-06
8.05208e-07
8.52692e-07
1.90853e-06
8.40511e-06
4.10951e-05
0.000186149
0.000770809
0.00296341
0.0106838
0.000137165
1.8711e-05
2.07942e-06
3.37834e-07
1.55702e-07
1.22364e-07
2.21346e-07
1.07633e-06
6.39679e-06
3.44321e-05
0.000164865
0.000713958
0.00283249
0.0103309
0.000236386
3.07967e-05
2.72499e-06
2.28267e-07
7.53059e-08
8.40277e-08
1.85977e-07
9.33741e-07
5.72388e-06
3.21345e-05
0.000160137
0.000713691
0.00286074
0.0103292
0.000418706
5.47738e-05
4.5211e-06
5.08529e-07
4.07205e-07
5.26731e-07
7.27789e-07
1.60263e-06
6.86892e-06
3.62739e-05
0.000180382
0.000801322
0.0031579
0.0110729
0.000762677
0.000107873
9.85036e-06
2.26975e-06
2.58742e-06
3.42905e-06
4.40272e-06
6.37831e-06
1.44202e-05
5.46854e-05
0.000241667
0.00100874
0.00376409
0.0125053
0.00138523
0.000219657
2.8073e-05
1.18985e-05
1.4079e-05
1.8656e-05
2.40538e-05
3.21744e-05
5.20476e-05
0.000127191
0.000431055
0.00156669
0.00533159
0.0164711
0.0025557
0.000496447
0.000102663
5.96561e-05
6.65505e-05
8.63722e-05
0.00011176
0.000147855
0.000212304
0.000383791
0.000943494
0.00280215
0.00848818
0.0241404
0.00462048
0.00122283
0.000409034
0.000275073
0.000283066
0.000352627
0.000451634
0.000597383
0.000829449
0.00130571
0.00251339
0.00595744
0.0156217
0.0405254
0.00831423
0.00345811
0.00165898
0.00116037
0.00110034
0.00131331
0.00165102
0.00216929
0.00296784
0.0043718
0.0071
0.0132905
0.0284915
0.0661956
0.00139403
0.000894684
0.000633846
0.000464893
0.000382427
0.000337857
0.000338392
0.000365429
0.000441158
0.00059804
0.000985119
0.00191133
0.00434808
0.0104611
0.000372517
0.000216567
0.000149628
0.00010588
8.35495e-05
7.09141e-05
6.90172e-05
7.40738e-05
9.22917e-05
0.000139822
0.000282108
0.00071008
0.00204626
0.00609683
0.000104568
4.74002e-05
3.09501e-05
2.12181e-05
1.62056e-05
1.32731e-05
1.25491e-05
1.34588e-05
1.82911e-05
3.62025e-05
0.000105666
0.000363824
0.00128397
0.00440179
4.4049e-05
1.13072e-05
5.70135e-06
3.67051e-06
2.72355e-06
2.16938e-06
2.01543e-06
2.29656e-06
4.28693e-06
1.42428e-05
5.9518e-05
0.000244984
0.000944887
0.00343812
3.96007e-05
6.0227e-06
1.27506e-06
5.66954e-07
3.89715e-07
3.03758e-07
2.93718e-07
4.80704e-07
1.8158e-06
9.26756e-06
4.52211e-05
0.000199778
0.000812712
0.00312291
5.56742e-05
7.70378e-06
8.26463e-07
1.1888e-07
4.98096e-08
3.70945e-08
5.01243e-08
2.02798e-07
1.27779e-06
7.49848e-06
3.86564e-05
0.00017873
0.000761586
0.00304711
8.83777e-05
1.24037e-05
1.12537e-06
8.02924e-08
1.13351e-08
7.89183e-09
2.22872e-08
1.54697e-07
1.10443e-06
6.81377e-06
3.67672e-05
0.000178215
0.000791142
0.00324217
0.000148074
2.12664e-05
1.82804e-06
1.14223e-07
2.90655e-08
3.25361e-08
5.0546e-08
1.76901e-07
1.09889e-06
6.89985e-06
3.87728e-05
0.000194691
0.000880169
0.0035923
0.000248928
3.68639e-05
3.21575e-06
2.77601e-07
1.99561e-07
2.56899e-07
3.22691e-07
5.09036e-07
1.64509e-06
8.77911e-06
4.83961e-05
0.00024195
0.00107664
0.00426555
0.000424626
6.61631e-05
6.66172e-06
1.21276e-06
1.31589e-06
1.73463e-06
2.15885e-06
2.78713e-06
4.90679e-06
1.60509e-05
7.36394e-05
0.000339577
0.00142012
0.00530244
0.000733103
0.00012467
1.75131e-05
6.50597e-06
7.5253e-06
9.86069e-06
1.24127e-05
1.57257e-05
2.23655e-05
4.62377e-05
0.000149309
0.000576616
0.00216587
0.0074562
0.00133187
0.000275402
6.39659e-05
3.49639e-05
3.79497e-05
4.82377e-05
6.07481e-05
7.74993e-05
0.000104078
0.000168655
0.00037958
0.00112957
0.00363988
0.011323
0.00248468
0.00070487
0.000265846
0.000176447
0.000175844
0.000212131
0.000261435
0.0003341
0.00044393
0.000656122
0.00117243
0.00268325
0.00719322
0.0199918
0.00518829
0.0023289
0.00121643
0.000851536
0.000768432
0.000875616
0.0010404
0.00131713
0.0017385
0.00247905
0.00386823
0.00695556
0.0144993
0.0345191
9.99158e-05
6.17812e-05
4.37695e-05
3.20054e-05
2.53993e-05
2.14905e-05
2.06014e-05
2.18763e-05
2.67782e-05
3.84315e-05
7.04856e-05
0.00015892
0.000420008
0.00117527
2.46226e-05
1.2663e-05
8.66851e-06
6.20871e-06
4.81596e-06
3.96611e-06
3.68541e-06
3.81469e-06
4.7415e-06
7.9045e-06
1.95896e-05
6.20115e-05
0.000213164
0.000722133
8.83221e-06
2.64292e-06
1.46853e-06
1.00346e-06
7.64299e-07
6.18996e-07
5.65108e-07
5.89227e-07
8.62729e-07
2.27476e-06
8.99691e-06
3.78554e-05
0.000150716
0.000556709
7.50167e-06
1.2283e-06
2.92024e-07
1.40639e-07
9.99325e-08
7.97239e-08
7.36323e-08
9.24343e-08
2.55303e-07
1.2406e-06
6.31581e-06
2.90708e-05
0.000120204
0.000455687
1.02318e-05
1.4904e-06
1.81367e-07
2.87993e-08
1.16831e-08
8.48276e-09
9.31054e-09
2.65839e-08
1.60372e-07
9.90957e-07
5.3554e-06
2.53527e-05
0.000107887
0.000425638
1.56722e-05
2.24586e-06
2.32814e-07
2.05735e-08
2.60168e-09
1.05662e-09
2.42709e-09
1.75011e-08
1.33334e-07
8.64348e-07
4.79635e-06
2.34252e-05
0.000103793
0.000429125
2.47928e-05
3.52486e-06
3.3291e-07
2.43813e-08
2.9745e-09
1.79558e-09
3.26184e-09
1.68842e-08
1.22816e-07
8.10688e-07
4.65632e-06
2.37731e-05
0.000110616
0.000477792
3.9874e-05
5.65162e-06
5.01253e-07
3.67921e-08
1.29774e-08
1.48312e-08
1.85649e-08
3.33519e-08
1.39932e-07
8.53654e-07
5.03123e-06
2.67919e-05
0.000129319
0.000570041
6.37943e-05
9.12277e-06
8.18116e-07
1.00028e-07
8.9915e-08
1.16373e-07
1.41646e-07
1.78e-07
3.28139e-07
1.25706e-06
6.70976e-06
3.53531e-05
0.000169946
0.000738175
0.00010303
1.54225e-05
1.69416e-06
4.88048e-07
5.84187e-07
7.68236e-07
9.47447e-07
1.14891e-06
1.5495e-06
3.24169e-06
1.20068e-05
5.51479e-05
0.000246545
0.00100989
0.000171541
2.93947e-05
5.24796e-06
2.78828e-06
3.35546e-06
4.34956e-06
5.40991e-06
6.62594e-06
8.38121e-06
1.29319e-05
3.07545e-05
0.000107154
0.000413613
0.00153736
0.000312605
7.32723e-05
2.33962e-05
1.58912e-05
1.76361e-05
2.1972e-05
2.71309e-05
3.35875e-05
4.22597e-05
5.85957e-05
0.000102671
0.000255825
0.000789408
0.00255236
0.000620617
0.000221261
0.000107537
8.13484e-05
8.41387e-05
9.99577e-05
0.000121148
0.000149835
0.00018924
0.000254304
0.000385045
0.000734137
0.00176279
0.00484261
0.00149329
0.000766841
0.000465787
0.000371302
0.000364195
0.000412824
0.000485105
0.00059147
0.000743928
0.000988797
0.0014017
0.00223755
0.00412202
0.00918563
6.54572e-06
3.92763e-06
2.79872e-06
2.07748e-06
1.6426e-06
1.37626e-06
1.27955e-06
1.29093e-06
1.47681e-06
2.09775e-06
4.211e-06
1.12588e-05
3.48937e-05
0.000112556
1.67463e-06
6.90127e-07
4.43789e-07
3.19812e-07
2.50067e-07
2.08304e-07
1.92479e-07
1.92728e-07
2.30645e-07
4.25118e-07
1.33083e-06
5.18784e-06
2.0361e-05
7.55096e-05
1.07253e-06
2.17147e-07
7.15545e-08
4.07959e-08
3.04173e-08
2.52007e-08
2.3466e-08
2.51601e-08
4.40927e-08
1.63618e-07
8.01623e-07
3.76283e-06
1.59835e-05
6.16343e-05
1.4357e-06
2.34527e-07
3.55236e-08
7.28133e-09
3.26606e-09
2.44237e-09
2.42178e-09
4.22939e-09
1.90285e-08
1.14961e-07
6.39544e-07
3.11291e-06
1.34066e-05
5.20584e-05
2.1727e-06
3.41771e-07
4.45597e-08
5.30091e-09
7.6995e-10
2.46173e-10
3.48306e-10
1.95441e-09
1.47835e-08
9.8764e-08
5.63123e-07
2.78018e-06
1.2158e-05
4.82168e-05
3.31413e-06
4.96543e-07
5.90793e-08
6.09379e-09
6.72174e-10
1.29946e-10
2.22993e-10
1.60713e-09
1.27922e-08
8.72384e-08
5.0698e-07
2.56099e-06
1.15281e-05
4.74066e-05
5.08595e-06
7.25522e-07
7.82349e-08
7.23853e-09
1.06566e-09
6.25987e-10
7.89393e-10
2.06017e-09
1.21977e-08
8.1215e-08
4.82354e-07
2.52336e-06
1.18655e-05
5.12408e-05
7.80371e-06
1.06796e-06
1.0633e-07
1.05817e-08
4.41791e-09
5.04873e-09
6.0478e-09
7.8378e-09
1.81292e-08
8.78058e-08
5.07291e-07
2.74218e-06
1.34768e-05
6.06965e-05
1.18386e-05
1.58694e-06
1.58993e-07
2.89489e-08
2.84706e-08
3.6929e-08
4.46644e-08
5.22683e-08
6.9875e-08
1.62504e-07
7.03979e-07
3.61803e-06
1.77936e-05
8.0555e-05
1.80761e-05
2.53713e-06
3.32929e-07
1.41938e-07
1.77557e-07
2.3306e-07
2.84798e-07
3.3468e-07
4.02338e-07
6.0268e-07
1.53954e-06
6.18109e-06
2.75484e-05
0.000117797
2.88646e-05
5.02279e-06
1.18782e-06
8.10036e-07
1.00798e-06
1.30415e-06
1.60344e-06
1.91748e-06
2.29422e-06
3.00943e-06
5.24677e-06
1.44019e-05
5.1717e-05
0.000195605
5.19606e-05
1.36125e-05
5.39442e-06
4.21544e-06
4.93774e-06
6.22132e-06
7.65314e-06
9.27559e-06
1.12253e-05
1.42521e-05
2.08216e-05
4.13572e-05
0.000112358
0.000356444
0.000109296
4.46034e-05
2.40932e-05
1.97004e-05
2.15134e-05
2.59464e-05
3.14371e-05
3.82162e-05
4.67379e-05
5.92857e-05
8.09706e-05
0.000132151
0.000277188
0.000726203
0.000282105
0.00015525
9.97447e-05
8.43222e-05
8.70919e-05
9.99968e-05
0.000117756
0.000141886
0.00017406
0.00022199
0.000296371
0.00043387
0.00072567
0.00151299
7.18588e-07
3.87824e-07
2.67706e-07
1.96796e-07
1.54771e-07
1.29898e-07
1.20324e-07
1.18737e-07
1.28972e-07
1.80151e-07
3.95578e-07
1.22784e-06
4.27927e-06
1.49982e-05
2.37009e-07
7.11806e-08
3.66953e-08
2.47329e-08
1.90787e-08
1.60386e-08
1.49599e-08
1.49639e-08
1.81416e-08
3.89698e-08
1.49244e-07
6.582e-07
2.7655e-06
1.06938e-05
2.38961e-07
4.50105e-08
9.31386e-09
3.13917e-09
1.90246e-09
1.54192e-09
1.47183e-09
1.72707e-09
4.01311e-09
1.9244e-08
1.04526e-07
5.15531e-07
2.26658e-06
8.95301e-06
3.52333e-07
6.32008e-08
9.96724e-09
1.53028e-09
3.03493e-10
1.33279e-10
1.35815e-10
3.66831e-10
2.23255e-09
1.46807e-08
8.52409e-08
4.29662e-07
1.91086e-06
7.59665e-06
5.18202e-07
8.96335e-08
1.34119e-08
1.8141e-09
2.29533e-10
3.35718e-11
3.29826e-11
2.26076e-10
1.80606e-09
1.24936e-08
7.39676e-08
3.78925e-07
1.71229e-06
6.92611e-06
7.4488e-07
1.21033e-07
1.67652e-08
2.08935e-09
2.51761e-10
4.48545e-11
4.35861e-11
2.04881e-10
1.54074e-09
1.07432e-08
6.47341e-08
3.39047e-07
1.57275e-06
6.56339e-06
1.07245e-06
1.62636e-07
2.06013e-08
2.39001e-09
3.82038e-10
2.12508e-10
2.40008e-10
3.95013e-10
1.57423e-09
9.82572e-09
5.95411e-08
3.20792e-07
1.54437e-06
6.7489e-06
1.53687e-06
2.18104e-07
2.57084e-08
3.31128e-09
1.40812e-09
1.57092e-09
1.86264e-09
2.19202e-09
3.45025e-09
1.15805e-08
6.1461e-08
3.33663e-07
1.66648e-06
7.62987e-06
2.17746e-06
2.94804e-07
3.55734e-08
8.44893e-09
8.32108e-09
1.07289e-08
1.29424e-08
1.48672e-08
1.77717e-08
2.92563e-08
9.30484e-08
4.39525e-07
2.15491e-06
9.95787e-06
3.14003e-06
4.42893e-07
7.31751e-08
3.87874e-08
4.88628e-08
6.40216e-08
7.80063e-08
9.0867e-08
1.05365e-07
1.36092e-07
2.55198e-07
8.28864e-07
3.48644e-06
1.50488e-05
4.84503e-06
8.82801e-07
2.58123e-07
2.02139e-07
2.58336e-07
3.36383e-07
4.13448e-07
4.90473e-07
5.74525e-07
7.04429e-07
1.02703e-06
2.24296e-06
7.12826e-06
2.63843e-05
8.95973e-06
2.54422e-06
1.13091e-06
9.65226e-07
1.17801e-06
1.50368e-06
1.85178e-06
2.22346e-06
2.63755e-06
3.21014e-06
4.25508e-06
7.2054e-06
1.70986e-05
5.18768e-05
2.03291e-05
8.67966e-06
4.85755e-06
4.20496e-06
4.82589e-06
5.95405e-06
7.27041e-06
8.77799e-06
1.05314e-05
1.29095e-05
1.65678e-05
2.44137e-05
4.5591e-05
0.000112571
5.4938e-05
3.00793e-05
1.93527e-05
1.69228e-05
1.83287e-05
2.16352e-05
2.58661e-05
3.10982e-05
3.75673e-05
4.65834e-05
5.95438e-05
8.20242e-05
0.000127269
0.000250873
1.02229e-07
4.51206e-08
2.88961e-08
2.07776e-08
1.62867e-08
1.38859e-08
1.30595e-08
1.2855e-08
1.34708e-08
1.84027e-08
4.34518e-08
1.51784e-07
5.75259e-07
2.12301e-06
5.05574e-08
1.19002e-08
4.17087e-09
2.3123e-09
1.70744e-09
1.46009e-09
1.39786e-09
1.4277e-09
1.81069e-09
4.52167e-09
1.9797e-08
9.34586e-08
4.07388e-07
1.60993e-06