/*--------------------------------*- C++ -*----------------------------------*\
| =========                 |                                                 |
| \\      /  F ield         | OpenFOAM: The Open Source CFD Toolbox           |
|  \\    /   O peration     | Version:  v2106                                 |
|   \\  /    A nd           | Website:  www.openfoam.com                      |
|    \\/     M anipulation  |                                                 |
\*---------------------------------------------------------------------------*/
FoamFile
{
    version     2.0;
    format      ascii;
    arch        "LSB;label=32;scalar=64";
    class       volScalarField;
    location    "0.000202";
    object      nut;
}
// * * * * * * * * * * * * * * * * * * * * * * * * * * * * * * * * * * * * * //

dimensions      [0 2 -1 0 0 0 0];

internalField   nonuniform List<scalar> 
18109
(
7.47425e-07
5.61063e-07
4.09762e-07
3.03671e-07
2.371e-07
2.05564e-07
2.08238e-07
3.67418e-07
2.75738e-07
1.97704e-07
1.4206e-07
1.06937e-07
8.9168e-08
8.76112e-08
1.73599e-07
1.26021e-07
8.80885e-08
6.14185e-08
4.4828e-08
3.6287e-08
3.5022e-08
8.01431e-08
5.38562e-08
3.61751e-08
2.4409e-08
1.73427e-08
1.37483e-08
1.32324e-08
3.73226e-08
2.18715e-08
1.37396e-08
8.91116e-09
6.17413e-09
4.83224e-09
4.741e-09
1.91231e-08
8.93816e-09
4.93027e-09
3.00351e-09
2.02248e-09
1.58033e-09
1.64339e-09
1.26153e-08
4.31239e-09
1.81626e-09
9.59985e-10
6.14304e-10
4.88659e-10
5.81422e-10
1.17671e-08
3.09318e-09
8.68043e-10
3.25584e-10
1.81915e-10
1.54228e-10
2.38521e-10
6.58356e-07
4.96797e-07
3.62798e-07
2.66317e-07
2.02776e-07
1.68252e-07
1.61374e-07
1.87065e-07
2.60803e-07
4.08426e-07
6.59229e-07
1.03892e-06
1.58336e-06
2.34399e-06
3.17254e-07
2.39976e-07
1.71991e-07
1.2247e-07
8.99848e-08
7.19042e-08
6.70011e-08
7.7358e-08
1.11465e-07
1.8625e-07
3.26403e-07
5.61411e-07
9.2672e-07
1.474e-06
1.45668e-07
1.07638e-07
7.53253e-08
5.20489e-08
3.70655e-08
2.87298e-08
2.63276e-08
3.07725e-08
4.67337e-08
8.47465e-08
1.6313e-07
3.09497e-07
5.59756e-07
9.69417e-07
6.44396e-08
4.49296e-08
3.03943e-08
2.03426e-08
1.40905e-08
1.06741e-08
9.76832e-09
1.18882e-08
1.9755e-08
4.00207e-08
8.58377e-08
1.80122e-07
3.56718e-07
6.69649e-07
2.82754e-08
1.76503e-08
1.13068e-08
7.29813e-09
4.92918e-09
3.67999e-09
3.44452e-09
4.5908e-09
8.80357e-09
2.04169e-08
4.87862e-08
1.11735e-07
2.38534e-07
4.77424e-07
1.35249e-08
6.85062e-09
3.93994e-09
2.41189e-09
1.5865e-09
1.1822e-09
1.18407e-09
1.87096e-09
4.33276e-09
1.14587e-08
2.98717e-08
7.30166e-08
1.64921e-07
3.46964e-07
8.53707e-09
3.06775e-09
1.37643e-09
7.49065e-10
4.72865e-10
3.60462e-10
4.22238e-10
8.6512e-10
2.41745e-09
7.05628e-09
1.95314e-08
5.00056e-08
1.17991e-07
2.58834e-07
7.9934e-09
2.06625e-09
5.99854e-10
2.39624e-10
1.36632e-10
1.13486e-10
1.78614e-10
4.84368e-10
1.54276e-09
4.77786e-09
1.37471e-08
3.64126e-08
8.9011e-08
2.02369e-07
9.69918e-09
2.13192e-09
4.41096e-10
1.16145e-10
6.10465e-11
6.49993e-11
1.27236e-10
3.69772e-10
1.19772e-09
3.75803e-09
1.09889e-08
2.96747e-08
7.42335e-08
1.73002e-07
1.30254e-08
2.70913e-09
5.34654e-10
1.68268e-10
1.36394e-10
1.68412e-10
2.56691e-10
5.24898e-10
1.37355e-09
3.92814e-09
1.10522e-08
2.94066e-08
7.33425e-08
1.71363e-07
1.82142e-08
3.91201e-09
9.73741e-10
5.23829e-10
5.55716e-10
6.97299e-10
9.36309e-10
1.44199e-09
2.73889e-09
6.25851e-09
1.54846e-08
3.82965e-08
9.13243e-08
2.06629e-07
2.71374e-08
6.90161e-09
2.50667e-09
1.84831e-09
2.08896e-09
2.63963e-09
3.47065e-09
4.87671e-09
7.69422e-09
1.41483e-08
2.93823e-08
6.44085e-08
1.41342e-07
2.99508e-07
4.48653e-08
1.50891e-08
7.32874e-09
6.02209e-09
6.81627e-09
8.63898e-09
1.13919e-08
1.56491e-08
2.28609e-08
3.67836e-08
6.56583e-08
1.26083e-07
2.49195e-07
4.83114e-07
8.4541e-08
3.73606e-08
2.09307e-08
1.75218e-08
1.94685e-08
2.46335e-08
3.27035e-08
4.47791e-08
6.33107e-08
9.43557e-08
1.49997e-07
2.53474e-07
4.46589e-07
7.85701e-07
1.45281e-06
2.27679e-06
3.51763e-06
5.36821e-06
8.15918e-06
1.24124e-05
1.30074e-06
2.077e-06
3.27302e-06
5.08761e-06
7.82949e-06
1.19558e-05
9.58432e-07
1.64653e-06
2.75157e-06
4.49389e-06
7.24337e-06
1.166e-05
7.1267e-07
1.31295e-06
2.32832e-06
4.01031e-06
6.81276e-06
1.16101e-05
5.40354e-07
1.06588e-06
2.01351e-06
3.68708e-06
6.65136e-06
1.2012e-05
4.27782e-07
9.03309e-07
1.82362e-06
3.5644e-06
6.84903e-06
1.31527e-05
3.71252e-07
8.34492e-07
1.79721e-06
3.74701e-06
7.66941e-06
1.56198e-05
3.70172e-07
8.73088e-07
1.97344e-06
4.30367e-06
9.21049e-06
1.93989e-05
4.34674e-07
1.04158e-06
2.38812e-06
5.27419e-06
1.13545e-05
2.38292e-05
5.89587e-07
1.37272e-06
3.06382e-06
6.60923e-06
1.38908e-05
2.82265e-05
8.68837e-07
1.89073e-06
3.9733e-06
8.1358e-06
1.62842e-05
3.12498e-05
1.29713e-06
2.5867e-06
5.04277e-06
9.67609e-06
1.82096e-05
3.25764e-05
1.89238e-06
3.44129e-06
6.18681e-06
1.10324e-05
1.93508e-05
3.22628e-05
2.68883e-06
4.45532e-06
7.36126e-06
1.21511e-05
1.98122e-05
3.07919e-05
3.76291e-06
5.71804e-06
8.70465e-06
1.32436e-05
1.98655e-05
2.85977e-05
2.63808e-06
4.32462e-06
7.28006e-06
1.16035e-05
1.76496e-05
2.52749e-05
1.98916e-06
3.47615e-06
5.98115e-06
9.64712e-06
1.48272e-05
2.18302e-05
1.55552e-06
2.81059e-06
4.87156e-06
8.01046e-06
1.26733e-05
1.95703e-05
1.20803e-06
2.23284e-06
3.94147e-06
6.66182e-06
1.09552e-05
1.78825e-05
9.23141e-07
1.75785e-06
3.20521e-06
5.62638e-06
9.67595e-06
1.68766e-05
7.01558e-07
1.38527e-06
2.62582e-06
4.80213e-06
8.62711e-06
1.59302e-05
5.41544e-07
1.11008e-06
2.18932e-06
4.17236e-06
7.84838e-06
1.52778e-05
4.35333e-07
9.22155e-07
1.88445e-06
3.72674e-06
7.30174e-06
1.49799e-05
3.78723e-07
8.19795e-07
1.71684e-06
3.49042e-06
7.06214e-06
1.52117e-05
3.73756e-07
8.09631e-07
1.70019e-06
3.47601e-06
7.09038e-06
1.5579e-05
4.34421e-07
9.10734e-07
1.85395e-06
3.68737e-06
7.35746e-06
1.58946e-05
5.85548e-07
1.14385e-06
2.18077e-06
4.08645e-06
7.74248e-06
1.57697e-05
8.56793e-07
1.52369e-06
2.66565e-06
4.61918e-06
8.15669e-06
1.53146e-05
1.25932e-06
2.03045e-06
3.25133e-06
5.19704e-06
8.48526e-06
1.44681e-05
1.13294e-06
1.69251e-06
2.66057e-06
4.32263e-06
7.18884e-06
1.22225e-05
8.16862e-07
1.34658e-06
2.24558e-06
3.79413e-06
6.42954e-06
1.0999e-05
5.58508e-07
1.04919e-06
1.88673e-06
3.3018e-06
5.68521e-06
9.86044e-06
3.86051e-07
8.0702e-07
1.529e-06
2.7491e-06
4.85516e-06
8.69975e-06
2.71411e-07
6.05277e-07
1.19059e-06
2.21645e-06
4.07626e-06
7.6333e-06
1.91353e-07
4.40663e-07
8.96625e-07
1.7411e-06
3.35657e-06
6.59745e-06
1.34823e-07
3.15148e-07
6.63734e-07
1.35203e-06
2.74774e-06
5.68722e-06
9.47845e-08
2.23492e-07
4.88435e-07
1.04791e-06
2.24807e-06
4.90163e-06
6.80112e-08
1.62095e-07
3.68624e-07
8.33871e-07
1.8882e-06
4.34553e-06
5.28987e-08
1.2867e-07
3.03537e-07
7.16036e-07
1.68997e-06
4.05679e-06
5.09528e-08
1.26715e-07
3.01968e-07
7.17479e-07
1.70296e-06
4.10027e-06
6.69934e-08
1.66672e-07
3.85743e-07
8.77279e-07
1.96832e-06
4.44787e-06
1.05172e-07
2.53722e-07
5.68632e-07
1.20557e-06
2.4437e-06
4.94322e-06
1.54179e-07
3.47626e-07
7.59525e-07
1.52406e-06
2.84527e-06
5.28535e-06
1.41929e-07
3.99349e-07
1.07519e-06
2.65554e-06
6.06386e-06
1.27892e-05
2.57009e-07
6.35413e-07
1.52156e-06
3.37011e-06
6.90664e-06
1.307e-05
4.68434e-07
1.00018e-06
2.08893e-06
4.1122e-06
7.58568e-06
1.30379e-05
8.43339e-07
1.54379e-06
2.77284e-06
4.82207e-06
8.077e-06
1.28851e-05
1.95095e-07
4.74857e-07
1.00187e-06
1.8825e-06
3.30136e-06
5.78895e-06
1.40304e-07
3.90894e-07
8.84319e-07
1.708e-06
3.09766e-06
5.68541e-06
1.00971e-07
3.00728e-07
7.1523e-07
1.42841e-06
2.71928e-06
5.31317e-06
7.22884e-08
2.22286e-07
5.41681e-07
1.13373e-06
2.30284e-06
4.86789e-06
5.15478e-08
1.60775e-07
4.00712e-07
8.77879e-07
1.93164e-06
4.49355e-06
3.72902e-08
1.17148e-07
3.02497e-07
7.12559e-07
1.72918e-06
4.49241e-06
2.88671e-08
9.15814e-08
2.50554e-07
6.53807e-07
1.76557e-06
4.97379e-06
2.66033e-08
8.57587e-08
2.53557e-07
7.27977e-07
2.08754e-06
5.90815e-06
3.28417e-08
1.0571e-07
3.27496e-07
9.66879e-07
2.73461e-06
7.33156e-06
5.36678e-08
1.64816e-07
4.97539e-07
1.39787e-06
3.67259e-06
8.97078e-06
1.01491e-07
2.84765e-07
7.88411e-07
2.01405e-06
4.76619e-06
1.04163e-05
1.98349e-07
4.93912e-07
1.21566e-06
2.77538e-06
5.86272e-06
1.14351e-05
3.84165e-07
8.33038e-07
1.78713e-06
3.61743e-06
6.8505e-06
1.20598e-05
7.24012e-07
1.35007e-06
2.48663e-06
4.435e-06
7.59769e-06
1.23243e-05
1.76729e-05
5.18001e-05
0.000113396
0.000124227
0.00010523
1.83938e-05
5.34825e-05
0.000121844
0.000125246
0.000103412
1.95142e-05
5.67997e-05
0.000133633
0.000126006
0.000102642
2.14792e-05
6.24538e-05
0.000144423
0.000126968
0.000103079
2.52637e-05
7.14287e-05
0.000151686
0.000127057
0.00010262
3.1391e-05
8.37086e-05
0.000152381
0.000124365
0.000100593
3.91524e-05
9.70602e-05
0.00014765
0.00012016
9.90592e-05
4.6536e-05
0.000105561
0.000142262
0.000118346
9.99898e-05
9.1682e-05
5.23409e-05
0.000108612
0.000138021
0.000117852
0.000101001
9.39938e-05
5.425e-05
0.00010504
0.000133735
0.000117186
0.000101769
9.72177e-05
5.27087e-05
9.7552e-05
0.000130538
0.00011799
0.000103672
0.000101197
0.00010389
4.88079e-05
8.76323e-05
0.000128028
0.000120853
0.00010701
0.000103189
0.000119217
0.000124186
4.34639e-05
7.68395e-05
0.000125533
0.00012566
0.000111265
0.000103389
0.000121272
0.000227835
3.81752e-05
6.8564e-05
0.000125454
0.000133459
0.000116935
0.000103048
0.000102293
0.000214339
3.38908e-05
6.52789e-05
0.000129759
0.000141552
0.000122342
0.000103459
9.6851e-05
0.000187669
3.14041e-05
6.46774e-05
0.000139016
0.000147862
0.000124445
0.000104064
9.64674e-05
0.000174959
3.11866e-05
6.645e-05
0.000154711
0.000153394
0.000126481
0.000106277
9.80331e-05
0.000104846
3.11707e-05
7.22779e-05
0.000173984
0.00015994
0.000130833
0.000109253
9.76265e-05
0.000151818
3.12047e-05
8.25904e-05
0.000190681
0.000164388
0.000131371
0.000107807
9.25499e-05
0.000156811
3.13633e-05
9.52992e-05
0.000194641
0.000162016
0.000126791
0.000104334
8.80028e-05
0.000129866
3.246e-05
0.00010851
0.000190018
0.00015616
0.000122511
0.000103403
8.98352e-05
6.30489e-05
3.49669e-05
0.00011866
0.000184585
0.000154346
0.000122772
0.000105608
9.64158e-05
8.07149e-05
3.81413e-05
0.000122336
0.000178179
0.000153278
0.000121911
0.000105162
3.96586e-05
0.000117137
0.000166932
0.000149702
0.000119758
0.000104371
3.8583e-05
0.000104539
0.000150074
0.000145068
0.00011997
0.000105328
3.59847e-05
8.93567e-05
0.000130829
0.000142103
0.000122666
0.000106296
3.31092e-05
7.52189e-05
0.000112411
0.000138489
0.000126593
0.000108173
3.01897e-05
6.40285e-05
9.94099e-05
0.000137869
0.000132923
2.7417e-05
5.56931e-05
9.24629e-05
0.000143117
0.000140974
2.51517e-05
4.94255e-05
9.0414e-05
0.000152064
0.000145454
2.3068e-05
4.47328e-05
9.44753e-05
0.000164543
0.000148455
2.09656e-05
4.166e-05
0.000107057
0.000182998
0.000155346
1.89874e-05
4.01883e-05
0.000128125
0.000201428
0.000156968
1.71202e-05
3.97339e-05
0.000151343
0.000208138
0.000150327
1.54689e-05
4.10566e-05
0.000170075
0.000204433
0.000143275
1.41549e-05
4.44071e-05
0.000179355
0.000197906
0.000140737
1.33963e-05
4.84917e-05
0.000176196
0.00018797
0.000137407
1.32241e-05
5.08386e-05
0.000156791
0.000172022
0.000133044
1.36818e-05
5.06865e-05
0.000130711
0.000154059
0.000129591
1.46674e-05
4.85322e-05
0.000106958
0.000136879
0.000126007
1.57599e-05
4.55004e-05
8.97819e-05
0.000123713
0.000121269
1.64886e-05
4.24002e-05
7.99131e-05
0.000118836
0.000119564
1.66445e-05
3.95581e-05
7.57323e-05
0.000121034
0.000119829
1.61758e-05
3.72779e-05
7.66647e-05
0.000126524
0.000117327
1.53968e-05
3.59644e-05
8.45506e-05
0.000135204
0.000115088
1.45823e-05
3.60232e-05
0.000100911
0.000145748
0.000114498
1.38845e-05
3.73772e-05
0.000123483
0.000152587
0.000110922
1.34868e-05
3.97949e-05
0.000146291
0.000151204
0.00010458
1.40515e-05
4.37548e-05
0.000162145
0.000144711
0.000100068
1.56258e-05
5.12443e-05
0.000163706
0.000138721
9.88778e-05
1.80083e-05
5.80288e-05
0.000158121
0.000133326
9.8099e-05
1.98272e-05
5.95691e-05
0.000147618
0.000127485
9.81099e-05
2.03399e-05
5.6231e-05
0.000136091
0.000123853
9.93986e-05
1.97504e-05
5.13135e-05
0.000123918
0.000121463
0.000101276
1.87784e-05
4.90938e-05
0.000113575
0.000120106
0.00010308
1.79077e-05
5.038e-05
0.000109753
0.000121559
0.000104801
5.7951e-07
4.38755e-07
3.2118e-07
2.34939e-07
1.76845e-07
1.43214e-07
1.328e-07
1.48696e-07
2.03394e-07
3.19965e-07
5.28725e-07
8.59475e-07
1.34947e-06
2.0454e-06
2.72797e-07
2.06699e-07
1.48367e-07
1.054e-07
7.66958e-08
5.9963e-08
5.42025e-08
6.0544e-08
8.58172e-08
1.44436e-07
2.59635e-07
4.61725e-07
7.86553e-07
1.2851e-06
1.21586e-07
9.02581e-08
6.32752e-08
4.36589e-08
3.08393e-08
2.34144e-08
2.08687e-08
2.36736e-08
3.56089e-08
6.55467e-08
1.30034e-07
2.55487e-07
4.775e-07
8.52055e-07
5.16649e-08
3.65373e-08
2.48392e-08
1.66296e-08
1.14459e-08
8.49783e-09
7.57868e-09
9.00893e-09
1.50126e-08
3.12281e-08
6.93637e-08
1.50607e-07
3.07718e-07
5.9483e-07
2.14941e-08
1.38294e-08
8.97305e-09
5.81211e-09
3.909e-09
2.86262e-09
2.62077e-09
3.45368e-09
6.76216e-09
1.62569e-08
4.02453e-08
9.50214e-08
2.08462e-07
4.28376e-07
9.6568e-09
5.10896e-09
3.01969e-09
1.86849e-09
1.22837e-09
8.99865e-10
8.88896e-10
1.41877e-09
3.40939e-09
9.35932e-09
2.51712e-08
6.31322e-08
1.45986e-07
3.14384e-07
5.84246e-09
2.1433e-09
1.00328e-09
5.61457e-10
3.57362e-10
2.69545e-10
3.17285e-10
6.73098e-10
1.95957e-09
5.90507e-09
1.67758e-08
4.39095e-08
1.05803e-07
2.37013e-07
5.48189e-09
1.36625e-09
4.03222e-10
1.7035e-10
1.00753e-10
8.45534e-11
1.37404e-10
3.88749e-10
1.28049e-09
4.06885e-09
1.1974e-08
3.23608e-08
8.06801e-08
1.87e-07
6.75474e-09
1.38024e-09
2.74348e-10
7.75413e-11
4.62706e-11
5.17405e-11
1.02721e-10
3.03779e-10
1.00599e-09
3.22684e-09
9.64075e-09
2.65646e-08
6.77677e-08
1.60894e-07
9.19743e-09
1.74839e-09
3.33111e-10
1.23419e-10
1.15517e-10
1.45652e-10
2.19299e-10
4.42157e-10
1.16037e-09
3.3733e-09
9.69204e-09
2.63463e-08
6.70739e-08
1.59728e-07
1.31265e-08
2.58828e-09
6.66256e-10
4.27086e-10
4.87176e-10
6.17775e-10
8.25333e-10
1.2544e-09
2.35704e-09
5.40714e-09
1.35928e-08
3.43263e-08
8.35868e-08
1.928e-07
2.03269e-08
4.88815e-09
1.89774e-09
1.5676e-09
1.85263e-09
2.36625e-09
3.11016e-09
4.34078e-09
6.78001e-09
1.24182e-08
2.5994e-08
5.79532e-08
1.29687e-07
2.80014e-07
3.5756e-08
1.16945e-08
5.90644e-09
5.19333e-09
6.08379e-09
7.80558e-09
1.03171e-08
1.41319e-08
2.05088e-08
3.28421e-08
5.87982e-08
1.14347e-07
2.29981e-07
4.5376e-07
7.15768e-08
3.09693e-08
1.74734e-08
1.52897e-08
1.74837e-08
2.24219e-08
2.98899e-08
4.0894e-08
5.75893e-08
8.55116e-08
1.35962e-07
2.31656e-07
4.14032e-07
7.40553e-07
4.58034e-07
3.47495e-07
2.56114e-07
1.86763e-07
1.38932e-07
1.09305e-07
9.6455e-08
9.96285e-08
1.27075e-07
1.93674e-07
3.27327e-07
5.63158e-07
9.41641e-07
1.50493e-06
2.0069e-07
1.50645e-07
1.08717e-07
7.70648e-08
5.56251e-08
4.2403e-08
3.66128e-08
3.77623e-08
5.01564e-08
8.27188e-08
1.53727e-07
2.90674e-07
5.31057e-07
9.26508e-07
8.27836e-08
6.0255e-08
4.24182e-08
2.92437e-08
2.05713e-08
1.52646e-08
1.29942e-08
1.36032e-08
1.93784e-08
3.57928e-08
7.50624e-08
1.58322e-07
3.19808e-07
6.17535e-07
3.19304e-08
2.21136e-08
1.5122e-08
1.01472e-08
6.98947e-09
5.07971e-09
4.31432e-09
4.73661e-09
7.65934e-09
1.66033e-08
3.9995e-08
9.40247e-08
2.08101e-07
4.36646e-07
1.18097e-08
7.49097e-09
4.91291e-09
3.20424e-09
2.17132e-09
1.55949e-09
1.35381e-09
1.66876e-09
3.33234e-09
8.71242e-09
2.37305e-08
6.07111e-08
1.43835e-07
3.19907e-07
4.79401e-09
2.46148e-09
1.47041e-09
9.20871e-10
6.15123e-10
4.43414e-10
4.16342e-10
6.51194e-10
1.70195e-09
5.19807e-09
1.53627e-08
4.15612e-08
1.03381e-07
2.40007e-07
2.98176e-09
9.66874e-10
4.33821e-10
2.44493e-10
1.59617e-10
1.19401e-10
1.37976e-10
3.12626e-10
1.0276e-09
3.43949e-09
1.06519e-08
2.99445e-08
7.74336e-08
1.86419e-07
3.19887e-09
6.65436e-10
1.64128e-10
6.55987e-11
4.03296e-11
3.46693e-11
5.9751e-11
1.90656e-10
7.05721e-10
2.46621e-09
7.86891e-09
2.28365e-08
6.11144e-08
1.51957e-07
4.37564e-09
7.49316e-10
1.19123e-10
3.15896e-11
2.23794e-11
2.67146e-11
5.19563e-11
1.59523e-10
5.73969e-10
2.01e-09
6.51724e-09
1.9371e-08
5.31474e-08
1.35193e-07
6.42356e-09
1.0244e-09
1.64135e-10
7.1627e-11
7.90182e-11
1.00321e-10
1.413e-10
2.64234e-10
6.92862e-10
2.14577e-09
6.68437e-09
1.96954e-08
5.40269e-08
1.37641e-07
9.83317e-09
1.63804e-09
3.85043e-10
2.89901e-10
3.59701e-10
4.61874e-10
6.02264e-10
8.68716e-10
1.55912e-09
3.62469e-09
9.67999e-09
2.63675e-08
6.89698e-08
1.69405e-07
1.64654e-08
3.41364e-09
1.24422e-09
1.12589e-09
1.41162e-09
1.84053e-09
2.40699e-09
3.27741e-09
4.94414e-09
8.95463e-09
1.93251e-08
4.57097e-08
1.09009e-07
2.49099e-07
3.06457e-08
8.92823e-09
4.22237e-09
3.88348e-09
4.74878e-09
6.231e-09
8.2618e-09
1.11973e-08
1.59343e-08
2.52265e-08
4.57364e-08
9.27108e-08
1.96785e-07
4.08325e-07
6.25386e-08
2.56084e-08
1.34655e-08
1.1954e-08
1.40215e-08
1.83449e-08
2.46147e-08
3.35746e-08
4.68328e-08
6.90883e-08
1.10194e-07
1.92296e-07
3.5788e-07
6.69421e-07
3.36511e-07
2.52414e-07
1.86075e-07
1.36262e-07
1.03198e-07
8.20206e-08
7.24509e-08
7.22132e-08
8.70077e-08
1.2552e-07
2.09197e-07
3.66607e-07
6.40935e-07
1.06917e-06
1.34005e-07
9.82099e-08
7.07486e-08
5.01921e-08
3.68684e-08
2.84545e-08
2.47525e-08
2.4847e-08
3.14435e-08
4.946e-08
9.1604e-08
1.78141e-07
3.44447e-07
6.45933e-07
5.04173e-08
3.53678e-08
2.48053e-08
1.69986e-08
1.21268e-08
9.07352e-09
7.78844e-09
7.96667e-09
1.09321e-08
1.96688e-08
4.21291e-08
9.32629e-08
2.02896e-07
4.30977e-07
1.76977e-08
1.17027e-08
7.95999e-09
5.26083e-09
3.65183e-09
2.65083e-09
2.26261e-09
2.43303e-09
3.87599e-09
8.5235e-09
2.16431e-08
5.44593e-08
1.31345e-07
3.05266e-07
6.00804e-09
3.58394e-09
2.32883e-09
1.48052e-09
1.00074e-09
7.06818e-10
6.14096e-10
7.56065e-10
1.57329e-09
4.38974e-09
1.28694e-08
3.55545e-08
9.21556e-08
2.27272e-07
2.43411e-09
1.09484e-09
6.28962e-10
3.78858e-10
2.48827e-10
1.72948e-10
1.63748e-10
2.73307e-10
7.96927e-10
2.66598e-09
8.52915e-09
2.50076e-08
6.82005e-08
1.75447e-07
1.81503e-09
4.6113e-10
1.73529e-10
8.98539e-11
5.63165e-11
4.00645e-11
4.94429e-11
1.31673e-10
4.94441e-10
1.82074e-09
6.13327e-09
1.88213e-08
5.36151e-08
1.43083e-07
2.33427e-09
3.98713e-10
7.27307e-11
2.28106e-11
1.29708e-11
1.10753e-11
2.20312e-11
8.26885e-11
3.46129e-10
1.34106e-09
4.71566e-09
1.51246e-08
4.4841e-08
1.23442e-07
3.53712e-09
5.23404e-10
6.65128e-11
1.50389e-11
1.20076e-11
1.506e-11
2.63752e-11
7.69493e-11
2.96147e-10
1.15389e-09
4.17916e-09
1.38486e-08
4.20497e-08
1.17371e-07
5.60456e-09
7.92993e-10
1.06418e-10
4.76348e-11
5.81212e-11
7.63206e-11
1.01993e-10
1.68563e-10
4.15921e-10
1.36286e-09
4.68798e-09
1.5288e-08
4.58645e-08
1.26181e-07
9.15887e-09
1.37907e-09
2.76852e-10
2.11988e-10
2.79451e-10
3.7336e-10
4.86881e-10
6.73435e-10
1.13802e-09
2.64565e-09
7.51845e-09
2.21811e-08
6.22787e-08
1.62118e-07
1.6448e-08
3.07599e-09
9.74925e-10
8.70914e-10
1.13036e-09
1.52757e-09
2.02309e-09
2.72789e-09
4.00353e-09
7.17864e-09
1.59799e-08
4.00576e-08
1.01319e-07
2.42934e-07
3.18388e-08
8.46998e-09
3.57819e-09
3.18449e-09
3.91813e-09
5.26845e-09
7.08461e-09
9.61998e-09
1.35574e-08
2.1349e-08
3.9264e-08
8.28251e-08
1.84858e-07
4.00752e-07
6.39434e-08
2.57436e-08
1.24046e-08
1.04763e-08
1.20165e-08
1.58688e-08
2.15072e-08
2.9523e-08
4.12163e-08
6.09058e-08
9.76656e-08
1.73636e-07
3.34116e-07
6.50428e-07
2.01704e-07
1.47799e-07
1.09677e-07
8.15091e-08
6.3711e-08
5.14175e-08
4.56038e-08
4.45759e-08
5.10171e-08
6.96618e-08
1.14302e-07
2.0331e-07
3.80698e-07
6.82593e-07
7.18979e-08
5.06617e-08
3.66569e-08
2.6297e-08
1.9968e-08
1.56692e-08
1.37537e-08
1.35341e-08
1.61504e-08
2.41757e-08
4.50862e-08
9.18722e-08
1.95044e-07
4.08897e-07
2.39759e-08
1.59202e-08
1.1199e-08
7.74252e-09
5.70798e-09
4.3401e-09
3.76059e-09
3.74825e-09
4.82013e-09
8.44159e-09
1.90327e-08
4.6228e-08
1.13652e-07
2.75691e-07
7.41427e-09
4.53618e-09
3.08457e-09
2.0565e-09
1.47523e-09
1.08708e-09
9.32368e-10
9.66263e-10
1.4608e-09
3.33211e-09
9.43388e-09
2.6966e-08
7.43945e-08
1.98081e-07
2.38261e-09
1.20712e-09
7.6231e-10
4.88094e-10
3.41434e-10
2.44752e-10
2.11629e-10
2.51097e-10
5.36416e-10
1.69886e-09
5.7423e-09
1.82057e-08
5.40395e-08
1.52804e-07
1.26158e-09
3.80434e-10
1.77537e-10
1.03617e-10
7.02128e-11
4.95493e-11
4.65377e-11
8.08574e-11
2.74551e-10
1.08344e-09
4.00647e-09
1.34785e-08
4.20855e-08
1.24012e-07
1.40934e-09
2.51753e-10
5.36398e-11
2.098e-11
1.29293e-11
9.3684e-12
1.22604e-11
3.9989e-11
1.832e-10
7.93727e-10
3.08591e-09
1.08747e-08
3.54188e-08
1.07582e-07
2.14134e-09
3.13963e-10
3.78025e-11
6.31501e-12
3.06329e-12
2.91142e-12
6.34521e-12
2.81871e-11
1.40188e-10
6.35672e-10
2.58285e-09
9.49596e-09
3.19283e-08
9.85253e-08
3.44226e-09
4.65412e-10
4.73365e-11
8.44906e-12
7.46225e-12
9.51149e-12
1.39989e-11
3.45151e-11
1.38537e-10
6.1414e-10
2.54559e-09
9.55486e-09
3.23698e-08
9.93094e-08
5.73245e-09
7.76532e-10
8.47941e-11
3.38858e-11
4.30797e-11
5.69593e-11
7.30128e-11
1.07509e-10
2.41616e-10
8.24123e-10
3.13457e-09
1.13274e-08
3.7145e-08
1.10074e-07
9.77622e-09
1.44595e-09
2.33129e-10
1.60036e-10
2.13773e-10
2.88787e-10
3.73366e-10
4.98036e-10
7.9377e-10
1.81626e-09
5.45005e-09
1.73722e-08
5.23717e-08
1.45074e-07
1.83017e-08
3.29562e-09
8.57514e-10
6.94718e-10
8.90517e-10
1.21236e-09
1.60138e-09
2.1289e-09
3.03694e-09
5.31683e-09
1.20569e-08
3.19771e-08
8.62838e-08
2.1975e-07
3.50591e-08
8.85591e-09
3.3236e-09
2.72539e-09
3.22266e-09
4.31496e-09
5.77616e-09
7.79492e-09
1.08453e-08
1.68062e-08
3.09099e-08
6.7461e-08
1.59219e-07
3.66821e-07
6.5594e-08
2.67905e-08
1.24122e-08
9.73019e-09
1.04828e-08
1.35764e-08
1.81709e-08
2.47831e-08
3.4423e-08
5.05131e-08
8.04906e-08
1.44558e-07
2.87547e-07
5.9277e-07
6.85465e-08
4.64585e-08
3.31791e-08
2.42534e-08
1.95083e-08
1.67252e-08
1.60074e-08
1.65664e-08
1.94247e-08
2.62204e-08
4.25554e-08
7.67331e-08
1.54421e-07
3.09444e-07
2.15916e-08
1.38719e-08
9.68974e-09
6.79484e-09
5.23908e-09
4.32534e-09
4.06246e-09
4.2262e-09
5.1702e-09
7.71248e-09
1.45926e-08
3.1748e-08
7.57164e-08
1.82935e-07
6.38733e-09
3.72165e-09
2.54054e-09
1.72216e-09
1.2794e-09
1.0135e-09
9.28017e-10
9.72148e-10
1.2857e-09
2.32333e-09
5.67424e-09
1.56949e-08
4.46881e-08
1.25071e-07
1.92266e-09
9.09213e-10
5.87709e-10
3.86365e-10
2.78898e-10
2.12798e-10
1.90498e-10
2.07388e-10
3.36168e-10
8.7015e-10
2.86511e-09
9.53924e-09
3.02999e-08
9.18856e-08
8.69063e-10
2.49636e-10
1.23786e-10
7.58809e-11
5.32996e-11
3.95042e-11
3.55864e-11
4.69208e-11
1.2335e-10
4.78912e-10
1.89691e-09
6.92508e-09
2.34472e-08
7.54083e-08
8.81638e-10
1.52318e-10
3.26387e-11
1.36418e-11
8.84555e-12
6.46648e-12
6.71793e-12
1.59212e-11
7.195e-11
3.39894e-10
1.44671e-09
5.55638e-09
1.97597e-08
6.63041e-08
1.31562e-09
1.94211e-10
2.19893e-11
3.27267e-12
1.38035e-12
1.04999e-12
1.93422e-12
9.48162e-12
5.40039e-11
2.73141e-10
1.2191e-09
4.91821e-09
1.82859e-08
6.3099e-08
2.20462e-09
3.08254e-10
2.85574e-11
2.44954e-12
8.07911e-13
8.79999e-13
1.7609e-12
7.97662e-12
4.55417e-11
2.39816e-10
1.12474e-09
4.74426e-09
1.81369e-08
6.29267e-08
3.76357e-09
5.22938e-10
4.48936e-11
5.31694e-12
4.49465e-12
5.71397e-12
7.35773e-12
1.38787e-11
5.22616e-11
2.57882e-10
1.22381e-09
5.23129e-09
1.99505e-08
6.79727e-08
6.57653e-09
9.77743e-10
9.1036e-11
2.22488e-11
2.73605e-11
3.63125e-11
4.49793e-11
5.94948e-11
1.15291e-10
3.91799e-10
1.64273e-09
6.63712e-09
2.41329e-08
7.83278e-08
1.1482e-08
1.89232e-09
2.4093e-10
1.0811e-10
1.39799e-10
1.8948e-10
2.40515e-10
3.06394e-10
4.48708e-10
9.70841e-10
3.04435e-09
1.06133e-08
3.51118e-08
1.05857e-07
2.04311e-08
4.08087e-09
8.28814e-10
5.00645e-10
6.081e-10
8.23056e-10
1.07041e-09
1.38363e-09
1.88263e-09
3.12345e-09
7.05785e-09
1.9814e-08
5.7809e-08
1.59403e-07
3.58402e-08
9.64146e-09
3.1483e-09
2.14681e-09
2.35354e-09
3.07827e-09
4.03693e-09
5.33164e-09
7.2219e-09
1.08219e-08
1.95281e-08
4.35961e-08
1.08996e-07
2.71359e-07
6.31556e-08
2.62849e-08
1.22883e-08
8.52545e-09
8.35565e-09
1.03538e-08
1.34055e-08
1.78676e-08
2.44076e-08
3.52526e-08
5.52877e-08
9.8829e-08
2.01342e-07
4.43659e-07
1.06651e-08
6.9109e-09
4.85765e-09
3.47555e-09
2.73087e-09
2.30566e-09
2.22943e-09
2.37153e-09
2.87221e-09
3.99251e-09
6.8166e-09
1.36636e-08
3.13369e-08
7.40982e-08
2.94381e-09
1.74731e-09
1.21377e-09
8.48847e-10
6.44172e-10
5.20488e-10
4.83171e-10
5.03608e-10
6.2405e-10
9.73246e-10
2.05719e-09
5.3459e-09
1.53229e-08
4.39553e-08
8.46366e-10
3.95585e-10
2.61872e-10
1.79719e-10
1.3363e-10
1.04579e-10
9.36857e-11
9.64926e-11
1.30516e-10
2.71225e-10
8.30162e-10
2.86953e-09
9.76612e-09
3.1416e-08
3.76111e-10
1.00425e-10
5.02181e-11
3.24232e-11
2.37095e-11
1.82054e-11
1.60333e-11
1.75854e-11
3.36884e-11
1.18088e-10
4.95485e-10
1.96759e-09
7.13011e-09
2.39434e-08
3.6545e-10
6.08952e-11
1.241e-11
5.23982e-12
3.54223e-12
2.68742e-12
2.49014e-12
4.07259e-12
1.59768e-11
8.10335e-11
3.79091e-10
1.57001e-09
5.89338e-09
2.07644e-08
5.26778e-10
8.07262e-11
9.06206e-12
1.22757e-12
4.75252e-13
3.44e-13
4.59157e-13
1.88414e-12
1.16215e-11
6.49923e-11
3.1367e-10
1.34074e-09
5.25825e-09
1.94652e-08
8.29679e-10
1.26914e-10
1.21751e-11
8.99382e-13
1.22577e-13
8.16656e-14
2.18247e-13
1.43582e-12
9.69134e-12
5.59592e-11
2.80367e-10
1.25951e-09
5.21083e-09
2.01076e-08
1.35498e-09
2.0959e-10
1.88918e-11
1.24165e-12
3.33677e-13
3.65056e-13
5.21443e-13
1.58708e-12
8.98077e-12
5.25674e-11
2.76914e-10
1.31117e-09
5.6355e-09
2.20508e-08
2.21067e-09
3.4882e-10
3.15556e-11
2.87997e-12
2.2282e-12
2.83907e-12
3.40846e-12
4.77462e-12
1.30381e-11
6.33888e-11
3.31366e-10
1.59028e-09
6.838e-09
2.62972e-08
3.64492e-09
5.98707e-10
6.14309e-11
1.17971e-11
1.39876e-11
1.85918e-11
2.25393e-11
2.7312e-11
4.18188e-11
1.18468e-10
5.06512e-10
2.24978e-09
9.15198e-09
3.33538e-08
6.08393e-09
1.0762e-09
1.50436e-10
5.84489e-11
7.44652e-11
1.00648e-10
1.25661e-10
1.53563e-10
2.01916e-10
3.68234e-10
1.07685e-09
3.94856e-09
1.4367e-08
4.82082e-08
1.06806e-08
2.26638e-09
5.15267e-10
2.88926e-10
3.4192e-10
4.56952e-10
5.83308e-10
7.33272e-10
9.44683e-10
1.41879e-09
2.91567e-09
8.11803e-09
2.5075e-08
7.55288e-08
1.93013e-08
5.53713e-09
2.03215e-09
1.35363e-09
1.42935e-09
1.81653e-09
2.31157e-09
2.97402e-09
3.89071e-09
5.52561e-09
9.29646e-09
1.9982e-08
5.09163e-08
1.35766e-07
3.91568e-08
1.75018e-08
8.89147e-09
6.13742e-09
5.67571e-09
6.69381e-09
8.23045e-09
1.06331e-08
1.41256e-08
1.98998e-08
3.02125e-08
5.21854e-08
1.03891e-07
2.354e-07
8.3974e-10
5.35828e-10
3.88296e-10
2.8671e-10
2.23795e-10
1.81834e-10
1.64353e-10
1.64792e-10
1.93246e-10
2.75533e-10
5.1894e-10
1.21529e-09
3.27483e-09
9.12846e-09
2.10692e-10
1.11998e-10
7.8923e-11
5.77726e-11
4.48433e-11
3.60303e-11
3.17886e-11
3.08442e-11
3.62568e-11
6.01558e-11
1.54997e-10
5.06486e-10
1.74301e-09
5.7708e-09
8.02786e-11
2.45526e-11
1.37153e-11
9.58509e-12
7.39596e-12
5.93469e-12
5.20445e-12
5.09451e-12
7.11272e-12
1.9144e-11
7.77582e-11
3.26309e-10
1.26516e-09
4.46363e-09
7.6037e-11
1.33117e-11
3.00125e-12
1.38943e-12
9.94918e-13
7.94997e-13
7.13964e-13
8.53212e-13
2.32876e-12
1.14105e-11
5.7402e-11
2.56476e-10
1.01179e-09
3.59366e-09
1.08494e-10
1.71611e-11
2.15046e-12
3.20942e-13
1.21403e-13
8.7256e-14
9.39052e-14
2.61489e-13
1.55767e-12
9.41785e-12
4.91363e-11
2.2113e-10
8.79379e-10
3.19536e-09
1.65022e-10
2.52976e-11
2.73976e-12
2.48295e-13
3.0395e-14
1.15049e-14
2.52976e-14
1.77156e-13
1.31028e-12
8.1608e-12
4.29132e-11
1.95691e-10
7.99996e-10
3.03906e-09
2.54827e-10
3.82701e-11
3.75592e-12
2.85494e-13
3.58348e-14
2.10728e-14
3.53881e-14
1.69319e-13
1.16748e-12
7.27648e-12
3.90643e-11
1.84977e-10
7.97061e-10
3.20685e-09
3.96885e-10
5.89152e-11
5.39674e-12
4.13124e-13
1.53476e-13
1.72393e-13
2.06024e-13
3.34885e-13
1.24866e-12
7.04282e-12
3.88239e-11
1.94018e-10
8.83764e-10
3.70583e-09
6.13277e-10
9.10697e-11
8.33991e-12
1.07082e-12
1.0308e-12
1.32455e-12
1.55988e-12
1.84011e-12
2.95351e-12
9.84342e-12
4.88163e-11
2.45055e-10
1.1325e-09
4.75672e-09
9.5357e-10
1.46526e-10
1.60353e-11
4.87419e-12
6.36345e-12
8.46368e-12
1.02205e-11
1.18895e-11
1.47441e-11
2.66442e-11
8.81224e-11
3.83052e-10
1.65553e-09
6.60291e-09
1.52484e-09
2.63414e-10
4.56138e-11
2.55793e-11
3.38934e-11
4.54832e-11
5.63561e-11
6.72261e-11
8.08717e-11
1.13618e-10
2.40117e-10
7.74049e-10
2.86334e-09
1.03397e-08
2.66089e-09
6.17042e-10
1.89775e-10
1.33261e-10
1.60967e-10
2.11502e-10
2.6612e-10
3.26994e-10
4.00054e-10
5.25978e-10
8.4987e-10
1.95453e-09
5.71225e-09
1.78116e-08
5.06558e-09
1.76724e-09
8.29726e-10
6.32227e-10
6.89754e-10
8.62457e-10
1.08186e-09
1.35587e-09
1.70227e-09
2.22889e-09
3.22512e-09
5.79636e-09
1.31798e-08
3.47043e-08
1.17172e-08
5.87882e-09
3.45436e-09
2.71985e-09
2.7227e-09
3.18456e-09
3.86408e-09
4.82447e-09
6.14611e-09
8.14464e-09
1.13508e-08
1.75537e-08
3.11276e-08
6.65288e-08
5.84128e-11
3.62847e-11
2.68069e-11
2.05581e-11
1.65823e-11
1.38857e-11
1.25158e-11
1.18804e-11
1.25234e-11
1.67628e-11
3.35588e-11
9.24719e-11
2.92235e-10
9.42833e-10
1.57371e-11
6.55785e-12
4.31517e-12
3.21815e-12
2.59002e-12
2.18652e-12
1.98961e-12
1.89137e-12
2.08128e-12
3.64456e-12
1.15498e-11
4.57873e-11
1.79551e-10
6.56266e-10
1.17862e-11
2.42861e-12
7.48515e-13
4.20321e-13
3.21051e-13
2.71833e-13
2.5219e-13
2.58228e-13
4.20587e-13
1.52939e-12
7.49863e-12
3.49325e-11
1.45768e-10
5.4615e-10
1.71499e-11
2.96262e-12
4.49194e-13
8.50729e-14
3.5875e-14
2.69391e-14
2.6622e-14
4.40245e-14
1.90141e-13
1.13514e-12
6.23395e-12
2.97464e-11
1.24336e-10
4.62221e-10
2.59106e-11
4.26108e-12
5.71891e-13
6.89035e-14
9.68883e-15
2.8613e-15
3.8197e-15
2.05596e-14
1.52907e-13
1.00461e-12
5.59626e-12
2.67257e-11
1.11512e-10
4.1509e-10
3.83896e-11
5.95802e-12
7.2909e-13
7.70979e-14
8.64893e-15
1.62518e-15
2.50582e-15
1.729e-14
1.34536e-13
8.92664e-13
4.9974e-12
2.40054e-11
1.01267e-10
3.85246e-10
5.68325e-11
8.34901e-12
9.24429e-13
8.79305e-14
1.3297e-14
7.67691e-15
9.19832e-15
2.23752e-14
1.25892e-13
8.0166e-13
4.51416e-12
2.21438e-11
9.67747e-11
3.8704e-10
8.39046e-11
1.17746e-11
1.20038e-12
1.23668e-13
5.41522e-14
6.09263e-14
7.03156e-14
8.59771e-14
1.80242e-13
8.01392e-13
4.33782e-12
2.201e-11
1.01581e-10
4.31238e-10
1.22273e-10
1.67057e-11
1.69433e-12
3.24067e-13
3.39608e-13
4.37057e-13
5.12578e-13
5.73711e-13
7.06758e-13
1.43289e-12
5.60575e-12
2.71403e-11
1.27446e-10
5.54407e-10
1.78772e-10
2.5229e-11
3.25473e-12
1.48861e-12
2.02212e-12
2.6787e-12
3.20474e-12
3.63368e-12
4.1341e-12