/*--------------------------------*- C++ -*----------------------------------*\
| =========                 |                                                 |
| \\      /  F ield         | OpenFOAM: The Open Source CFD Toolbox           |
|  \\    /   O peration     | Version:  v2106                                 |
|   \\  /    A nd           | Website:  www.openfoam.com                      |
|    \\/     M anipulation  |                                                 |
\*---------------------------------------------------------------------------*/
FoamFile
{
    version     2.0;
    format      ascii;
    arch        "LSB;label=32;scalar=64";
    class       surfaceScalarField;
    location    "0.000202";
    object      phi;
}
// * * * * * * * * * * * * * * * * * * * * * * * * * * * * * * * * * * * * * //

dimensions      [1 0 -1 0 0 0 0];

internalField   nonuniform List<scalar> 
52765
(
1.03326e-06
2.38324e-06
-5.05946e-06
-2.36112e-06
-1.04032e-06
9.88527e-07
2.45207e-06
-5.09376e-06
9.53081e-07
2.51088e-06
-5.12582e-06
9.23194e-07
2.56374e-06
-5.15799e-06
9.03798e-07
2.59773e-06
-5.19292e-06
8.97517e-07
2.62757e-06
-5.22849e-06
2.65004e-06
-5.2656e-06
1.09183e-06
2.41954e-06
-5.0918e-06
-1.12209e-06
1.03698e-06
2.50577e-06
-5.12803e-06
9.87872e-07
2.55313e-06
-5.16059e-06
9.51083e-07
2.58946e-06
-5.18753e-06
9.27452e-07
2.60886e-06
-5.21692e-06
9.16889e-07
2.62362e-06
-5.24687e-06
2.63446e-06
-5.27833e-06
1.11836e-06
2.47355e-06
-5.09719e-06
-1.18385e-06
1.05325e-06
2.55317e-06
-5.13746e-06
9.97087e-07
2.58441e-06
-5.17259e-06
9.58078e-07
2.5984e-06
-5.20159e-06
9.29779e-07
2.60623e-06
-5.23111e-06
9.10565e-07
2.61179e-06
-5.25974e-06
2.61229e-06
-5.28795e-06
1.13044e-06
2.52695e-06
-5.10635e-06
-1.212e-06
1.06309e-06
2.58715e-06
-5.14903e-06
1.00544e-06
2.60345e-06
-5.18728e-06
9.61841e-07
2.60065e-06
-5.21818e-06
9.29248e-07
2.59665e-06
-5.24626e-06
9.06712e-07
2.59192e-06
-5.27208e-06
2.58535e-06
-5.29846e-06
1.11938e-06
2.56592e-06
-5.10591e-06
1.0605e-06
2.60077e-06
-5.14967e-06
1.01182e-06
2.60399e-06
-5.19173e-06
9.68294e-07
2.5936e-06
-5.22717e-06
9.31124e-07
2.58144e-06
-5.25787e-06
9.03086e-07
2.56791e-06
-5.2848e-06
2.55366e-06
-5.30998e-06
1.10675e-06
2.57929e-06
-5.10256e-06
1.05958e-06
2.60011e-06
-5.14785e-06
1.01458e-06
2.59567e-06
-5.19137e-06
9.7155e-07
2.57904e-06
-5.22893e-06
9.34982e-07
2.55932e-06
-5.26333e-06
9.06776e-07
2.53779e-06
-5.2928e-06
2.51665e-06
-5.31866e-06
1.09898e-06
2.57617e-06
-5.09614e-06
1.05912e-06
2.58734e-06
-5.1413e-06
1.01826e-06
2.57814e-06
-5.18528e-06
9.78658e-07
2.55559e-06
-5.22566e-06
9.43688e-07
2.52986e-06
-5.264e-06
9.16086e-07
2.50209e-06
-5.29682e-06
2.47485e-06
-5.32456e-06
1.09301e-06
-5.0844e-06
1.06105e-06
-5.13088e-06
1.02392e-06
-5.17656e-06
9.85797e-07
-5.21856e-06
9.53023e-07
-5.25868e-06
9.28222e-07
-5.29402e-06
-5.32383e-06
8.68289e-07
2.36354e-06
-2.31744e-06
-8.76247e-07
-5.04124e-06
8.2484e-07
2.44379e-06
-2.36477e-06
-5.0746e-06
7.92846e-07
2.51079e-06
-2.44541e-06
-5.10615e-06
7.66845e-07
2.57091e-06
-2.51636e-06
-5.13443e-06
7.51422e-07
2.60272e-06
-2.5639e-06
-5.1667e-06
7.50091e-07
2.62553e-06
-2.60676e-06
-5.19988e-06
7.5895e-07
2.64297e-06
-2.64194e-06
-5.23364e-06
7.80882e-07
2.68246e-06
-2.70094e-06
-5.26282e-06
8.23723e-07
2.74061e-06
-2.78771e-06
-5.28694e-06
8.81661e-07
2.80663e-06
-2.87338e-06
-5.31182e-06
9.34281e-07
2.851e-06
-2.91555e-06
-5.32638e-06
9.62647e-07
2.83828e-06
-2.87929e-06
-5.33435e-06
9.62769e-07
2.79586e-06
-2.81173e-06
-5.34588e-06
2.74181e-06
-2.72616e-06
9.30959e-07
-5.34858e-06
9.21518e-07
2.41535e-06
-9.45809e-07
-5.07078e-06
8.71923e-07
2.51454e-06
-5.10466e-06
8.28542e-07
2.57096e-06
-5.13628e-06
7.97004e-07
2.61481e-06
-5.15992e-06
7.77245e-07
2.63222e-06
-5.188e-06
7.7108e-07
2.63826e-06
-5.21717e-06
7.70429e-07
2.6433e-06
-5.2459e-06
7.78825e-07
2.66521e-06
-5.27177e-06
8.04972e-07
2.69909e-06
-5.29617e-06
8.46655e-07
2.74388e-06
-5.31684e-06
8.93414e-07
2.77969e-06
-5.33124e-06
9.20531e-07
2.78543e-06
-5.34082e-06
9.24819e-07
2.76467e-06
-5.34702e-06
2.73324e-06
9.06546e-07
-5.34928e-06
9.43279e-07
2.49232e-06
-1.00559e-06
-5.07066e-06
8.85499e-07
2.58096e-06
-5.10834e-06
8.35618e-07
2.62351e-06
-5.14138e-06
8.03791e-07
2.64292e-06
-5.16676e-06
7.82697e-07
2.64651e-06
-5.19535e-06
7.70256e-07
2.64152e-06
-5.22425e-06
7.62433e-07
2.63843e-06
-5.25285e-06
7.6638e-07
2.64331e-06
-5.27784e-06
7.83451e-07
2.65855e-06
-5.30033e-06
8.12961e-07
2.68497e-06
-5.31973e-06
8.48121e-07
2.71091e-06
-5.33492e-06
8.71849e-07
2.7269e-06
-5.34585e-06
8.78709e-07
2.72428e-06
-5.35262e-06
2.70731e-06
8.73657e-07
-5.35768e-06
9.60347e-07
2.56828e-06
-1.03646e-06
-5.07264e-06
9.01339e-07
2.63342e-06
-5.11156e-06
8.51356e-07
2.65989e-06
-5.14648e-06
8.14756e-07
2.66068e-06
-5.17565e-06
7.87063e-07
2.65318e-06
-5.20467e-06
7.68761e-07
2.63725e-06
-5.23203e-06
7.57041e-07
2.6252e-06
-5.25895e-06
7.54629e-07
2.61859e-06
-5.28408e-06
7.62635e-07
2.61998e-06
-5.30605e-06
7.80969e-07
2.63204e-06
-5.32489e-06
8.03227e-07
2.6507e-06
-5.34014e-06
8.21369e-07
2.66992e-06
-5.35159e-06
8.29269e-07
2.67906e-06
-5.35947e-06
2.6708e-06
8.31473e-07
-5.36737e-06
9.50057e-07
2.62501e-06
-1.0165e-06
-5.06802e-06
9.01669e-07
2.66638e-06
-5.10776e-06
8.62841e-07
2.67593e-06
-5.14566e-06
8.27309e-07
2.66759e-06
-5.17917e-06
7.94845e-07
2.65322e-06
-5.21033e-06
7.68645e-07
2.62866e-06
-5.23857e-06
7.52124e-07
2.60655e-06
-5.26564e-06
7.47036e-07
2.58862e-06
-5.29091e-06
7.51317e-07
2.58007e-06
-5.31327e-06
7.638e-07
2.58263e-06
-5.33314e-06
7.79345e-07
2.59653e-06
-5.3493e-06
7.94439e-07
2.61573e-06
-5.36138e-06
8.05984e-07
2.62983e-06
-5.3702e-06
2.6286e-06
8.12459e-07
-5.37873e-06
9.37237e-07
2.65407e-06
-9.8099e-07
-5.06146e-06
9.0558e-07
2.67782e-06
-5.10295e-06
8.73661e-07
2.68011e-06
-5.14291e-06
8.37313e-07
2.6675e-06
-5.17796e-06
8.01527e-07
2.6468e-06
-5.21202e-06
7.71999e-07
2.61325e-06
-5.24217e-06
7.53623e-07
2.58119e-06
-5.2705e-06
7.47563e-07
2.55343e-06
-5.29633e-06
7.51275e-07
2.53776e-06
-5.31938e-06
7.62836e-07
2.5341e-06
-5.34005e-06
7.77804e-07
2.54459e-06
-5.3568e-06
7.93652e-07
2.56268e-06
-5.36957e-06
8.07803e-07
2.57918e-06
-5.37921e-06
2.5848e-06
8.15871e-07
-5.38812e-06
9.30023e-07
2.66136e-06
-9.51544e-07
-5.05511e-06
9.07073e-07
2.67741e-06
-5.09593e-06
8.7711e-07
2.67446e-06
-5.13608e-06
8.42885e-07
2.65536e-06
-5.17327e-06
8.09859e-07
2.62656e-06
-5.20991e-06
7.79971e-07
2.58751e-06
-5.2428e-06
7.60257e-07
2.54843e-06
-5.27315e-06
7.53434e-07
2.51331e-06
-5.29995e-06
7.57695e-07
2.49314e-06
-5.32402e-06
7.70272e-07
2.48594e-06
-5.34509e-06
7.86871e-07
2.49416e-06
-5.36186e-06
8.05069e-07
2.5107e-06
-5.37491e-06
8.2225e-07
2.52769e-06
-5.38516e-06
2.53843e-06
8.34271e-07
-5.39449e-06
9.14131e-07
2.64817e-06
-9.20354e-07
-5.04543e-06
9.01038e-07
2.65933e-06
-5.08751e-06
8.77104e-07
2.65367e-06
-5.12836e-06
8.46537e-07
2.62893e-06
-5.16613e-06
8.15965e-07
2.59223e-06
-5.20336e-06
7.88184e-07
2.54846e-06
-5.23786e-06
7.69647e-07
2.505e-06
-5.26959e-06
7.63881e-07
2.46598e-06
-5.29744e-06
7.70298e-07
2.44416e-06
-5.323e-06
7.85378e-07
2.43611e-06
-5.34499e-06
8.04702e-07
2.44367e-06
-5.36257e-06
8.25269e-07
2.45961e-06
-5.37656e-06
8.44854e-07
2.47658e-06
-5.38735e-06
2.49157e-06
8.59084e-07
-5.39673e-06
8.89918e-07
2.61359e-06
-8.8306e-07
-5.03502e-06
8.8581e-07
2.62148e-06
-5.07635e-06
8.67758e-07
2.61517e-06
-5.11717e-06
8.41449e-07
2.58632e-06
-5.15551e-06
8.136e-07
2.54331e-06
-5.19276e-06
7.88382e-07
2.49622e-06
-5.22759e-06
7.72505e-07
2.45056e-06
-5.26e-06
7.69163e-07
2.41115e-06
-5.28898e-06
7.78753e-07
2.38991e-06
-5.31585e-06
7.97108e-07
2.38313e-06
-5.33864e-06
8.19992e-07
2.3912e-06
-5.35716e-06
8.42661e-07
2.40873e-06
-5.37214e-06
8.61009e-07
2.42897e-06
-5.38489e-06
2.45175e-06
8.68779e-07
-5.39576e-06
8.57584e-07
2.55971e-06
-8.4367e-07
-5.02605e-06
8.60802e-07
2.56279e-06
-5.06617e-06
8.49941e-07
2.55562e-06
-5.10607e-06
8.28955e-07
2.52684e-06
-5.14461e-06
8.05089e-07
2.48135e-06
-5.18113e-06
7.82498e-07
2.43511e-06
-5.21602e-06
7.68663e-07
2.3905e-06
-5.24887e-06
7.67019e-07
2.35341e-06
-5.27891e-06
7.7905e-07
2.33349e-06
-5.30688e-06
7.99963e-07
2.32884e-06
-5.3308e-06
8.24893e-07
2.33849e-06
-5.35112e-06
8.45954e-07
2.36142e-06
-5.36754e-06
8.56517e-07
2.39026e-06
-5.38196e-06
2.42211e-06
8.55088e-07
-5.39364e-06
8.04274e-07
2.49055e-06
-7.86968e-07
-5.02881e-06
8.1642e-07
2.4849e-06
-5.06696e-06
8.17854e-07
2.47443e-06
-5.1024e-06
8.08274e-07
2.45003e-06
-5.13961e-06
7.94861e-07
2.40717e-06
-5.17449e-06
7.80087e-07
2.36792e-06
-5.20895e-06
7.70867e-07
2.32925e-06
-5.2408e-06
7.70512e-07
2.29797e-06
-5.27003e-06
7.81345e-07
2.28111e-06
-5.29748e-06
8.00385e-07
2.27853e-06
-5.32197e-06
8.22556e-07
2.29018e-06
-5.34359e-06
8.3735e-07
2.32154e-06
-5.36114e-06
8.38743e-07
2.36144e-06
-5.37542e-06
2.40063e-06
8.30966e-07
-5.38443e-06
7.45813e-07
2.41335e-06
-7.25026e-07
-5.02873e-06
7.61315e-07
2.4025e-06
-5.06521e-06
7.73863e-07
2.38438e-06
-5.09972e-06
7.7673e-07
2.36521e-06
-5.13779e-06
7.75304e-07
2.32757e-06
-5.17086e-06
7.71832e-07
2.29831e-06
-5.20387e-06
7.71749e-07
2.26919e-06
-5.23301e-06
7.7629e-07
2.247e-06
-5.2592e-06
7.87336e-07
2.23542e-06
-5.28428e-06
8.0444e-07
2.2346e-06
-5.30796e-06
8.21766e-07
2.24953e-06
-5.32994e-06
8.3057e-07
2.28986e-06
-5.34763e-06
8.29031e-07
2.33713e-06
-5.35959e-06
2.37906e-06
8.23557e-07
-5.36346e-06
6.6043e-07
2.34321e-06
-6.43459e-07
-5.03112e-06
6.75229e-07
2.32669e-06
-5.07007e-06
7.03613e-07
2.28856e-06
-5.10107e-06
7.28024e-07
2.27346e-06
-5.13697e-06
7.49062e-07
2.24445e-06
-5.16894e-06
7.65973e-07
2.22628e-06
-5.19662e-06
7.79112e-07
2.20999e-06
-5.22233e-06
7.88748e-07
2.20091e-06
-5.24529e-06
7.99045e-07
2.19754e-06
-5.26802e-06
8.12679e-07
2.19894e-06
-5.28939e-06
8.25154e-07
2.21669e-06
-5.30898e-06
8.33922e-07
2.25987e-06
-5.32371e-06
8.37581e-07
2.30865e-06
-5.33353e-06
2.35166e-06
8.36569e-07
-5.33243e-06
6.24015e-07
2.28531e-06
-6.14557e-07
-5.01756e-06
6.31052e-07
2.26764e-06
-5.05706e-06
6.56853e-07
2.2069e-06
-5.09101e-06
6.90825e-07
2.18296e-06
-5.12482e-06
7.19103e-07
2.16748e-06
-5.15836e-06
7.42312e-07
2.16187e-06
-5.18623e-06
7.63148e-07
2.15635e-06
-5.20988e-06
7.82553e-07
2.15652e-06
-5.22981e-06
8.00677e-07
2.15966e-06
-5.24739e-06
8.19007e-07
2.16294e-06
-5.26529e-06
8.35513e-07
2.18204e-06
-5.28271e-06
8.51997e-07
2.22234e-06
-5.29603e-06
8.71463e-07
2.26414e-06
-5.3051e-06
8.90902e-07
2.30416e-06
-5.30712e-06
-2.5423e-06
-3.23312e-06
6.55576e-07
-2.66668e-06
-3.72383e-06
6.88131e-07
-2.69303e-06
-4.19774e-06
6.90159e-07
-2.58877e-06
-4.67014e-06
7.56488e-07
-2.34931e-06
-5.07406e-06
9.7033e-07
-5.50039e-06
1.51506e-06
-2.45435e-06
-5.45243e-07
7.11411e-07
-3.2246e-06
-2.5344e-06
-6.10253e-07
7.35302e-07
-3.72147e-06
-2.51188e-06
-6.86891e-07
7.32332e-07
-4.21088e-06
-2.36517e-06
-8.42941e-07
7.7978e-07
-4.69494e-06
-2.06829e-06
-1.16248e-06
9.8361e-07
-5.13204e-06
-1.81001e-06
1.48747e-06
-1.59214e-06
-5.59526e-06
-2.51539e-06
-3.57909e-07
-4.08236e-06
-2.6174e-06
-4.54336e-07
-4.58445e-06
-2.62684e-06
-5.95533e-07
-5.06854e-06
-2.50886e-06
-8.46142e-07
-5.54001e-06
-2.21842e-06
-1.29421e-06
-5.95282e-06
-2.15188e-06
-1.67559e-06
-6.4105e-06
-2.60895e-06
-1.49261e-07
-4.82548e-06
-2.73053e-06
-2.69962e-07
-5.33547e-06
-2.76641e-06
-4.64285e-07
-5.81919e-06
-2.67646e-06
-8.02108e-07
-6.30368e-06
-2.41234e-06
-1.37015e-06
-6.70042e-06
-2.44099e-06
-1.86718e-06
-7.12983e-06
-2.70077e-06
8.17892e-08
-5.44289e-06
-2.84881e-06
-5.49918e-08
-5.96422e-06
-2.92144e-06
-2.91125e-07
-6.45693e-06
-2.87952e-06
-7.00343e-07
-6.94377e-06
-2.66165e-06
-1.38079e-06
-7.35137e-06
-2.65781e-06
-2.15783e-06
-7.76096e-06
-2.76691e-06
3.29315e-07
-5.92908e-06
-2.94524e-06
1.87771e-07
-6.46276e-06
-3.06539e-06
-7.4527e-08
-6.96964e-06
-3.0946e-06
-5.29075e-07
-7.45747e-06
-2.95467e-06
-1.32645e-06
-7.86245e-06
-2.82539e-06
-2.51642e-06
-8.24629e-06
-2.8367e-06
5.9702e-07
-6.26871e-06
-3.0584e-06
4.68102e-07
-6.81318e-06
-3.24801e-06
2.02556e-07
-7.33805e-06
-3.38334e-06
-2.64857e-07
-7.82843e-06
-3.37046e-06
-1.1649e-06
-8.22986e-06
-2.90575e-06
-3.05724e-06
-8.55594e-06
-2.90358e-06
8.89025e-07
-6.46489e-06
-3.17498e-06
7.909e-07
-7.02377e-06
-3.44395e-06
5.50449e-07
-7.56495e-06
-3.67677e-06
8.68854e-08
-8.05002e-06
-3.78167e-06
-9.06507e-07
-8.43954e-06
-2.84839e-06
-3.61669e-06
-8.69573e-06
-2.98784e-06
1.19762e-06
-6.50496e-06
-3.29681e-06
1.14248e-06
-7.07184e-06
-3.60915e-06
9.37686e-07
-7.62863e-06
-3.8828e-06
4.68795e-07
-8.10439e-06
-4.05558e-06
-5.83099e-07
-8.47211e-06
-2.62676e-06
-4.03436e-06
-8.68417e-06
-3.0729e-06
1.49705e-06
-6.38459e-06
-3.37578e-06
1.48312e-06
-6.95324e-06
-3.67772e-06
1.31025e-06
-7.51036e-06
-3.93872e-06
8.31196e-07
-7.98286e-06
-4.13269e-06
-2.40065e-07
-8.33271e-06
-2.21254e-06
-4.26127e-06
-8.53329e-06
-3.12717e-06
1.75926e-06
-6.09806e-06
-3.36998e-06
1.75693e-06
-6.65564e-06
-3.60408e-06
1.60262e-06
-7.20706e-06
-3.80855e-06
1.12811e-06
-7.68689e-06
-4.00378e-06
1.00112e-07
-8.03792e-06
-1.71912e-06
-4.24136e-06
-8.19329e-06
-3.08692e-06
1.93363e-06
-5.64591e-06
-3.24427e-06
1.93604e-06
-6.19703e-06
-3.39156e-06
1.79083e-06
-6.73995e-06
-3.52196e-06
1.33398e-06
-7.22408e-06
-3.69281e-06
3.8782e-07
-7.57529e-06
-1.20622e-06
-3.99209e-06
-7.76332e-06
-2.95636e-06
2.00977e-06
-5.03838e-06
-3.00593e-06
1.99707e-06
-5.58396e-06
-3.04148e-06
1.85247e-06
-6.10726e-06
-3.06457e-06
1.42143e-06
-6.59547e-06
-3.18777e-06
6.04227e-07
-6.9724e-06
-6.8833e-07
-3.53157e-06
-7.25076e-06
-2.77187e-06
1.96449e-06
-4.29677e-06
-2.6994e-06
1.92763e-06
-4.83884e-06
-2.60793e-06
1.77864e-06
-5.3566e-06
-2.54038e-06
1.40528e-06
-5.85599e-06
-2.60358e-06
7.38731e-07
-6.27886e-06
-2.93155e-07
-2.84174e-06
-6.61775e-06
-2.58495e-06
1.81839e-06
-3.41377e-06
-2.41733e-06
1.76165e-06
-3.945e-06
-2.21592e-06
1.59166e-06
-4.45421e-06
-2.02167e-06
1.24955e-06
-4.95207e-06
-1.91626e-06
6.90056e-07
-5.40943e-06
-9.67235e-08
-1.97771e-06
-5.91075e-06
4.75029e-07
2.26604e-06
-3.41985e-06
1.87109e-08
2.21743e-06
-3.96005e-06
-4.01781e-07
2.0234e-06
-4.49402e-06
-7.60943e-07
1.64354e-06
-5.00406e-06
-1.01438e-06
1.00113e-06
-5.49123e-06
5.30945e-08
-1.03947e-06
-6.06297e-06
5.45283e-07
2.60988e-06
-4.31123e-06
2.00564e-07
2.55426e-06
-4.85951e-06
-1.01061e-07
2.33539e-06
-5.41466e-06
-3.25624e-07
1.90794e-06
-5.94257e-06
-4.30929e-07
1.18649e-06
-6.45019e-06
6.36364e-08
-2.93475e-07
-7.04213e-06
5.90558e-07
2.87021e-06
-5.07851e-06
3.38192e-07
2.79541e-06
-5.64408e-06
1.32626e-07
2.55342e-06
-6.21909e-06
2.80741e-09
2.0858e-06
-6.78945e-06
-4.0768e-09
1.29117e-06
-7.31966e-06
-6.11752e-09
2.27623e-07
-7.91166e-06
6.38823e-07
3.03438e-06
-5.71197e-06
4.7341e-07
2.94425e-06
-6.30392e-06
3.42425e-07
2.69256e-06
-6.89495e-06
2.74872e-07
2.20374e-06
-7.49667e-06
3.0781e-07
1.35742e-06
-8.03944e-06
-7.55939e-08
5.38131e-07
-8.64057e-06
7.02213e-07
3.11121e-06
-6.20002e-06
6.0764e-07
3.0155e-06
-6.8148e-06
5.2555e-07
2.7723e-06
-7.41593e-06
4.76677e-07
2.28846e-06
-8.04248e-06
4.69601e-07
1.43355e-06
-8.61225e-06
-8.59e-08
6.12048e-07
-9.24053e-06
7.86866e-07
3.10279e-06
-6.53493e-06
7.56856e-07
3.01471e-06
-7.16716e-06
7.0626e-07
2.80601e-06
-7.77955e-06
6.48756e-07
2.36142e-06
-8.42607e-06
5.80782e-07
1.53347e-06
-9.01945e-06
-5.29532e-08
6.25025e-07
-9.61127e-06
8.86126e-07
3.01106e-06
-6.70924e-06
9.2058e-07
2.94338e-06
-7.35148e-06
9.03712e-07
2.78856e-06
-7.97453e-06
8.35856e-07
2.41641e-06
-8.63402e-06
7.22042e-07
1.64282e-06
-9.24667e-06
4.60808e-08
6.54132e-07
-9.78982e-06
9.80346e-07
2.84808e-06
-6.71333e-06
1.06384e-06
2.81759e-06
-7.3577e-06
1.09293e-06
2.71572e-06
-7.99072e-06
1.04904e-06
2.42956e-06
-8.64803e-06
9.36577e-07
1.73512e-06
-9.27754e-06
2.02391e-07
7.90546e-07
-9.78467e-06
1.04709e-06
2.62905e-06
-6.54889e-06
1.18842e-06
2.63178e-06
-7.18689e-06
1.2817e-06
2.57811e-06
-7.8154e-06
1.31334e-06
2.36121e-06
-8.46561e-06
1.25526e-06
1.76249e-06
-9.09188e-06
3.73877e-07
1.07769e-06
-9.56567e-06
1.08732e-06
2.35847e-06
-6.21941e-06
1.30201e-06
2.37858e-06
-6.8395e-06
1.48914e-06
2.35167e-06
-7.45815e-06
1.61538e-06
2.19087e-06
-8.08384e-06
1.64323e-06
1.70265e-06
-8.69997e-06
5.20097e-07
1.49027e-06
-9.15598e-06
1.12475e-06
2.03191e-06
-5.72597e-06
1.41959e-06
2.04986e-06
-6.32318e-06
1.69273e-06
2.03921e-06
-6.92344e-06
1.91972e-06
1.92379e-06
-7.53238e-06
2.05729e-06
1.53684e-06
-8.13102e-06
5.76365e-07
1.99024e-06
-8.58384e-06
1.18628e-06
1.64136e-06
-5.07944e-06
1.55105e-06
1.65369e-06
-5.65566e-06
1.91045e-06
1.64303e-06
-6.23277e-06
2.23979e-06
1.55711e-06
-6.81169e-06
2.49631e-06
1.25725e-06
-7.37898e-06
5.15e-07
2.55531e-06
-7.85242e-06
1.26739e-06
1.18865e-06
-4.29403e-06
1.69327e-06
1.2e-06
-4.8488e-06
2.12032e-06
1.18585e-06
-5.40315e-06
2.53681e-06
1.11578e-06
-5.95982e-06
2.89055e-06
8.91886e-07
-6.52206e-06
3.37644e-07
3.07911e-06
-7.02761e-06
1.34857e-06
7.11509e-07
-3.39594e-06
1.80764e-06
7.15546e-07
-3.93718e-06
2.28354e-06
6.85425e-07
-4.47611e-06
2.75664e-06
6.24359e-07
-5.00572e-06
3.19843e-06
4.43524e-07
-5.54177e-06
3.01871e-08
3.52935e-06
-6.04859e-06
2.52557e-06
4.6938e-07
-3.38347e-06
2.74722e-06
4.68367e-07
-3.92087e-06
2.97926e-06
4.26373e-07
-4.4519e-06
3.23079e-06
3.54971e-07
-4.96158e-06
3.52533e-06
1.49296e-07
-5.48497e-06
-3.0156e-07
3.89525e-06
-6.03544e-06
2.48959e-06
2.2189e-07
-4.26072e-06
2.72773e-06
2.04963e-07
-4.7941e-06
2.98417e-06
1.49187e-07
-5.31775e-06
3.26625e-06
6.42013e-08
-5.82051e-06
3.58751e-06
-1.58887e-07
-6.34092e-06
-6.69085e-07
4.00116e-06
-6.88727e-06
2.44867e-06
-2.64626e-08
-5.00082e-06
2.6839e-06
-5.37554e-08
-5.53826e-06
2.92867e-06
-1.15797e-07
-6.06668e-06
3.21198e-06
-2.22307e-07
-6.5811e-06
3.54809e-06
-4.71615e-07
-7.12065e-06
-1.02446e-06
3.95705e-06
-7.67042e-06
2.40349e-06
-2.69029e-07
-5.59783e-06
2.63047e-06
-2.99248e-07
-6.14388e-06
2.85426e-06
-3.57555e-07
-6.68175e-06
3.11343e-06
-4.79667e-07
-7.21373e-06
3.40622e-06
-7.34831e-07
-7.76442e-06
-1.30959e-06
3.7364e-06
-8.33407e-06
2.37031e-06
-4.96021e-07
-6.04224e-06
2.57447e-06
-5.18128e-07
-6.59794e-06
2.76844e-06
-5.59879e-07
-7.15724e-06
2.97842e-06
-6.84498e-07
-7.7154e-06
3.17972e-06
-9.11892e-07
-8.25742e-06
-1.45463e-06
3.35382e-06
-8.84349e-06
2.34512e-06
-7.00998e-07
-6.33143e-06
2.51972e-06
-7.05528e-07
-6.89356e-06
2.68196e-06
-7.24848e-07
-7.46658e-06
2.84047e-06
-8.36761e-07
-8.04294e-06
2.94324e-06
-1.00236e-06
-8.55858e-06
-1.46379e-06
2.96337e-06
-9.17046e-06
2.31351e-06
-8.77886e-07
-6.46618e-06
2.45494e-06
-8.56287e-07
-7.0392e-06
2.58969e-06
-8.55528e-07
-7.61611e-06
2.69834e-06
-9.32438e-07
-8.19603e-06
2.72466e-06
-1.02397e-06
-8.70478e-06
-1.40111e-06
2.66181e-06
-9.31847e-06
2.28721e-06
-1.03122e-06
-6.44258e-06
2.40614e-06
-9.86297e-07
-7.01688e-06
2.51208e-06
-9.53822e-07
-7.58648e-06
2.57712e-06
-9.76086e-07
-8.15133e-06
2.58348e-06
-1.02058e-06
-8.65882e-06
-1.32656e-06
2.51537e-06
-9.27864e-06
2.26321e-06
-1.15863e-06
-6.25992e-06
2.36014e-06
-1.09024e-06
-6.83399e-06
2.44272e-06
-1.02087e-06
-7.39524e-06
2.48345e-06
-9.84264e-07
-7.93635e-06
2.50086e-06
-1.00819e-06
-8.45577e-06
-1.25716e-06
2.4682e-06
-9.07984e-06
2.23535e-06
-1.25888e-06
-5.91804e-06
2.30418e-06
-1.16645e-06
-6.48266e-06
2.36736e-06
-1.06961e-06
-7.02567e-06
2.42784e-06
-1.00758e-06
-7.56111e-06
2.49113e-06
-1.02399e-06
-8.08628e-06
-1.22464e-06
2.5185e-06
-8.67061e-06
2.22084e-06
-1.33138e-06
-5.42397e-06
2.27329e-06
-1.22802e-06
-5.9697e-06
2.34975e-06
-1.13157e-06
-6.49622e-06
2.45433e-06
-1.07053e-06
-7.02738e-06
2.56677e-06
-1.07765e-06
-7.54756e-06
-1.25447e-06
2.67134e-06
-8.08509e-06
2.241e-06
-1.39513e-06
-4.80056e-06
2.30054e-06
-1.29979e-06
-5.32541e-06
2.40129e-06
-1.22223e-06
-5.83653e-06
2.53071e-06
-1.16584e-06
-6.3499e-06
2.68018e-06
-1.16756e-06
-6.85649e-06
-1.33264e-06
2.84576e-06
-7.3526e-06
2.27627e-06
-1.43283e-06
-4.05148e-06
2.3289e-06
-1.37064e-06
-4.55651e-06
2.43804e-06
-1.32819e-06
-5.05374e-06
2.58847e-06
-1.28662e-06
-5.54456e-06
2.76571e-06
-1.28297e-06
-6.03937e-06
-1.44123e-06
2.96983e-06
-6.50103e-06
2.27199e-06
-1.44233e-06
-3.21043e-06
2.31488e-06
-1.42917e-06
-3.70007e-06
2.4037e-06
-1.41611e-06
-4.1774e-06
2.54706e-06
-1.40437e-06
-4.64783e-06
2.72704e-06
-1.40218e-06
-5.12386e-06
-1.55695e-06
2.93604e-06
-5.55897e-06
-1.63109e-06
-1.83589e-06
-5.37768e-06
-2.03283e-06
-1.71989e-06
-5.87579e-06
-2.41543e-06
-1.61664e-06
-6.36541e-06
-2.75711e-06
-1.568e-06
-6.84953e-06
-3.04063e-06
-1.70207e-06
-7.27718e-06
-2.33771e-06
-7.61205e-06
-1.59092e-06
-1.43149e-06
-4.78565e-06
-1.95839e-06
-1.33947e-06
-5.28151e-06
-2.29258e-06
-1.24781e-06
-5.77338e-06
-2.57865e-06
-1.22144e-06
-6.24164e-06
-2.80835e-06
-1.39236e-06
-6.65968e-06
-2.01672e-06
-6.99658e-06
-1.50513e-06
-1.0382e-06
-4.06543e-06
-1.82324e-06
-9.95592e-07
-4.56765e-06
-2.08949e-06
-9.40477e-07
-5.04746e-06
-2.29891e-06
-9.51155e-07
-5.51172e-06
-2.45996e-06
-1.15379e-06
-5.93188e-06
-1.73678e-06
-6.29002e-06
-1.40921e-06
-3.22813e-06
-1.69161e-06
-3.72347e-06
-1.90507e-06
-4.19728e-06
-2.04891e-06
-4.6587e-06
-2.15836e-06
-5.07501e-06
-5.48264e-06
-1.81249e-07
-1.90135e-06
-3.20239e-06
2.89345e-07
-1.92079e-06
-3.69125e-06
7.82673e-07
-1.91858e-06
-4.16494e-06
1.33483e-06
-1.94716e-06
-4.62444e-06
1.97044e-06
-1.99706e-06
-5.07598e-06
-2.21664e-06
2.71197e-06
-5.501e-06
-2.84169e-07
-2.28945e-06
-4.02325e-06
9.70264e-08
-2.32431e-06
-4.50844e-06
5.23465e-07
-2.35035e-06
-4.98461e-06
1.01705e-06
-2.42417e-06
-5.44831e-06
1.58663e-06
-2.51919e-06
-5.86539e-06
-2.84065e-06
2.30041e-06
-6.28336e-06
-4.20597e-07
-2.63311e-06
-4.73241e-06
-1.1044e-07
-2.66809e-06
-5.21711e-06
2.44041e-07
-2.72059e-06
-5.68806e-06
6.59094e-07
-2.83513e-06
-6.15094e-06
1.12983e-06
-2.95864e-06
-6.54943e-06
-3.36992e-06
1.73324e-06
-6.97331e-06
-5.59676e-07
-2.9003e-06
-5.30647e-06
-3.26271e-07
-2.93421e-06
-5.79817e-06
-6.53824e-08
-2.99555e-06
-6.26979e-06
2.37299e-07
-3.13014e-06
-6.73599e-06
5.63772e-07
-3.25512e-06
-7.12316e-06
-3.73336e-06
9.9274e-07
-7.56477e-06
-6.98493e-07
-3.07733e-06
-5.74104e-06
-5.52204e-07
-3.09896e-06
-6.24561e-06
-4.04536e-07
-3.15003e-06
-6.71425e-06
-2.42985e-07
-3.27792e-06
-7.17386e-06
-9.19243e-08
-3.38457e-06
-7.55292e-06
-3.89519e-06
1.12435e-07
-8.01847e-06
-8.31399e-07
-3.14951e-06
-6.04538e-06
-7.92705e-07
-3.14496e-06
-6.55476e-06
-7.75691e-07
-3.16704e-06
-7.03438e-06
-7.8308e-07
-3.25867e-06
-7.49567e-06
-8.25755e-07
-3.33423e-06
-7.89384e-06
-3.84293e-06
-8.58038e-07
-8.3727e-06
-9.72879e-07
-3.10933e-06
-6.20601e-06
-1.04896e-06
-3.07368e-06
-6.71375e-06
-1.16482e-06
-3.0584e-06
-7.19921e-06
-1.34639e-06
-3.09011e-06
-7.65339e-06
-1.56111e-06
-3.14636e-06
-8.07538e-06
-3.65029e-06
-1.74583e-06
-8.58018e-06
-1.11774e-06
-2.95446e-06
-6.21882e-06
-1.31573e-06
-2.88658e-06
-6.72434e-06
-1.55923e-06
-2.83331e-06
-7.20888e-06
-1.87415e-06
-2.80397e-06
-7.66614e-06
-2.1902e-06
-2.86859e-06
-8.11181e-06
-3.37944e-06
-2.43881e-06
-8.61252e-06
-1.25717e-06
-2.68998e-06
-6.07687e-06
-1.56135e-06
-2.59003e-06
-6.58313e-06
-1.90167e-06
-2.50455e-06
-7.06796e-06
-2.28302e-06
-2.44129e-06
-7.54423e-06
-2.63798e-06
-2.52577e-06
-8.00152e-06
-3.04838e-06
-2.91451e-06
-8.46583e-06
-1.38019e-06
-2.33093e-06
-5.78412e-06
-1.7553e-06
-2.21222e-06
-6.28772e-06
-2.13766e-06
-2.11492e-06
-6.77494e-06
-2.50439e-06
-2.05797e-06
-7.26976e-06
-2.83648e-06
-2.14197e-06
-7.73283e-06
-2.68005e-06
-3.09095e-06
-8.13139e-06
-1.44122e-06
-1.91999e-06
-5.34496e-06
-1.82788e-06
-1.80668e-06
-5.84566e-06
-2.1972e-06
-1.70926e-06
-6.34035e-06
-2.53139e-06
-1.66055e-06
-6.83701e-06
-2.80398e-06
-1.75937e-06
-7.29093e-06
-2.31544e-06
-3.00366e-06
-7.66194e-06
-1.40208e-06
-1.50448e-06
-4.76118e-06
-1.76136e-06
-1.41202e-06
-5.25981e-06
-2.08792e-06
-1.32236e-06
-5.7585e-06
-2.36581e-06
-1.28612e-06
-6.24363e-06
-2.57413e-06
-1.41533e-06
-6.68586e-06
-1.96832e-06
-2.73434e-06
-7.0632e-06
-1.32295e-06
-1.10017e-06
-4.05062e-06
-1.63815e-06
-1.05242e-06
-4.55528e-06
-1.89879e-06
-9.93904e-07
-5.04479e-06
-2.09913e-06
-9.87974e-07
-5.52674e-06
-2.22609e-06
-1.15812e-06
-5.97264e-06
-1.68394e-06
-2.33366e-06
-6.3751e-06
-1.23658e-06
-3.21903e-06
-1.51072e-06
-3.71742e-06
-1.71278e-06
-4.20097e-06
-1.84013e-06
-4.67694e-06
-1.90307e-06
-5.12244e-06
-1.94835e-06
-5.56968e-06
-2.59183e-07
-1.08519e-05
1.02656e-05
-1.60529e-05
2.24559e-06
-2.0387e-05
1.92082e-05
-1.13164e-05
5.43165e-06
-3.40373e-05
3.17791e-05
-1.5355e-06
9.1166e-06
-5.16647e-05
4.83091e-05
1.29348e-05
-7.32446e-05
6.91141e-05
2.67237e-05
-1.75789e-07
-1.14863e-05
-1.57199e-05
2.34209e-06
-2.17419e-05
-1.07725e-05
5.24177e-06
-3.58734e-05
-9.83293e-07
7.7764e-06
-5.39127e-05
1.3866e-05
-7.48489e-05
2.77016e-05
-3.45111e-07
-1.20324e-05
-1.54235e-05
2.16881e-06
-2.32122e-05
-1.04998e-05
5.07543e-06
-3.75123e-05
1.84251e-07
7.35532e-06
-5.59146e-05
1.52987e-05
-7.59348e-05
2.87887e-05
-6.77538e-07
-1.26016e-05
-1.51471e-05
1.87162e-06
-2.46815e-05
-1.0067e-05
5.31628e-06
-3.95894e-05
1.49343e-06
8.58198e-06
-5.899e-05
1.60025e-05
-7.95771e-05
2.75839e-05
-1.17855e-06
-1.3212e-05
-1.48539e-05
1.30566e-06
-2.585e-05
-9.11544e-06
4.87714e-06
-4.15304e-05
3.80688e-06
8.16325e-06
-6.22782e-05
1.91965e-05
-8.34924e-05
3.05997e-05
-1.85211e-06
-1.36998e-05
-1.47102e-05
5.65125e-07
-2.65448e-05
-7.93295e-06
3.55046e-06
-4.26075e-05
6.42498e-06
5.13122e-06
-6.37427e-05
2.15821e-05
-8.4471e-05
3.236e-05
-2.71704e-06
-1.37578e-05
-1.43136e-05
-8.44275e-07
-2.62751e-05
-6.15505e-06
1.11009e-06
-4.2669e-05
9.14359e-06
9.55428e-07
-6.33937e-05
2.4618e-05
-8.32101e-05
3.67669e-05
-3.33444e-06
-1.33813e-05
-1.39681e-05
-1.68841e-06
-2.55013e-05
-4.96823e-06
-1.2391e-07
-4.22573e-05
9.58253e-06
-6.01131e-07
-6.26004e-05
2.4398e-05
-3.53263e-06
-8.24375e-05
3.6003e-05
-9.49361e-05
4.32249e-05
-3.92391e-06
-1.25002e-05
-1.36404e-05
-2.78193e-06
-2.41803e-05
-4.09377e-06
-2.08307e-06
-4.08164e-05
9.86472e-06
-3.69385e-06
-6.05234e-05
2.51123e-05
-7.98307e-06
-8.02096e-05
3.74035e-05
-9.33537e-05
4.60396e-05
-4.32395e-06
-1.11887e-05
-1.3717e-05
-3.92476e-06
-2.21344e-05
-4.64264e-06
-4.47745e-06
-3.79277e-05
8.47379e-06
-7.63397e-06
-5.6514e-05
2.44593e-05
-1.36229e-05
-7.58546e-05
3.87797e-05
-8.96629e-05
5.0665e-05
-4.28533e-06
-9.71304e-06
-1.42157e-05
-4.13016e-06
-1.99279e-05
-6.08108e-06
-5.08375e-06
-3.47234e-05
5.70131e-06
-8.47844e-06
-5.17719e-05
2.15428e-05
-1.47723e-05
-7.07386e-05
3.66398e-05
-2.28822e-05
-8.50827e-05
5.0052e-05
-8.99638e-05
6.11246e-05
-3.93667e-06
-8.2134e-06
-1.48134e-05
-3.64467e-06
-1.80384e-05
-7.85179e-06
-4.32891e-06
-3.20141e-05
2.33202e-06
-6.92097e-06
-4.73994e-05
1.82303e-05
-1.176e-05
-6.60494e-05
3.39612e-05
-1.75816e-05
-8.17934e-05
4.74384e-05
-2.28873e-05
-8.89363e-05
6.12884e-05
-2.22578e-05
7.22496e-05
-2.02038e-05
-2.17479e-05
-1.97386e-05
-2.92316e-06
-7.09861e-06
-1.53889e-05
-2.17529e-06
-1.69285e-05
-9.60564e-06
-2.08843e-06
-3.04562e-05
-1.34009e-06
-3.17031e-06
-4.47959e-05
1.33373e-05
-5.07842e-06
-6.35398e-05
2.83519e-05
-4.3036e-06
-8.28627e-05
4.11851e-05
-2.90545e-06
-2.3623e-05
5.52694e-05
1.54825e-06
-2.19395e-06
1.33082e-06
-2.33874e-05
-2.31246e-05
-2.28201e-05
-4.93282e-06
-2.081e-05
1.8377e-05
-1.67332e-06
-6.49773e-06
-1.61138e-05
-4.95801e-07
-1.66502e-05
-1.13328e-05
6.8275e-07
-3.03299e-05
-3.85292e-06
2.02841e-06
-4.51378e-05
1.03355e-05
3.93325e-06
-6.55214e-05
2.47126e-05
1.48758e-06
-8.90767e-05
3.40586e-05
3.43893e-06
1.69439e-06
3.13805e-06
3.40221e-06
-2.55248e-05
1.04335e-05
1.3619e-05
-3.07188e-05
1.50665e-05
2.30252e-05
-6.22426e-06
-3.72488e-07
-6.37597e-06
-1.67535e-05
1.01905e-06
-1.7059e-05
-1.27641e-05
2.49569e-06
-3.08265e-05
-5.30223e-06
4.408e-06
-4.62856e-05
8.99812e-06
6.41426e-06
-6.78057e-05
2.26067e-05
1.74926e-06
-9.25932e-05
3.23114e-05
1.69135e-06
2.41766e-06
2.4732e-06
2.70046e-05
2.14378e-06
9.82264e-06
-2.79557e-05
2.55079e-05
1.01332e-05
-2.5015e-05
-1.85323e-06
6.5822e-07
-6.5608e-06
-1.73076e-05
2.07964e-06
-1.77337e-05
-1.40039e-05
3.16027e-06
-3.11178e-05
-5.73587e-06
3.93602e-06
-4.66928e-05
9.72836e-06
3.6672e-06
-6.80925e-05
2.5155e-05
-7.67852e-08
-9.14402e-05
3.70585e-05
5.54125e-10
2.59092e-07
5.91145e-07
2.80616e-05
-8.68036e-07
-2.78378e-05
1.06263e-05
2.42234e-05
-2.75687e-05
1.15884e-05
1.61642e-06
1.2644e-06
-6.87231e-06
-1.7496e-05
2.7014e-06
-1.85974e-05
-1.48149e-05
3.81378e-06
-3.12724e-05
-5.31792e-06
4.85188e-06
-4.72386e-05
1.11515e-05
4.69459e-06
-6.86859e-05
2.59921e-05
-1.40761e-06
-9.01049e-05
3.58501e-05
1.92217e-06
-6.33843e-07
2.28086e-06
2.71618e-05
-3.02005e-06
-2.60798e-05
1.20292e-05
3.14343e-05
-1.57426e-05
-2.54004e-05
1.85226e-05
6.36055e-06
1.43329e-06
-7.29256e-06
-1.75962e-05
2.87493e-06
-1.94325e-05
-1.51022e-05
4.72567e-06
-3.18556e-05
-3.79501e-06
7.56826e-06
-4.95562e-05
1.28693e-05
1.09824e-05
-7.2853e-05
2.64254e-05
2.67972e-06
-9.51435e-05
3.42523e-05
5.12748e-06
2.4211e-06
4.42192e-06
2.61312e-05
3.49153e-06
-2.69315e-05
8.68986e-06
2.54428e-05
2.89742e-06
-2.53377e-05
9.0891e-06
-3.37913e-06
1.18823e-06
-7.58685e-06
-1.78498e-05
2.36487e-06
-1.98663e-05
-1.43488e-05
4.42622e-06
-3.27447e-05
-5.64786e-07
7.75596e-06
-5.25373e-05
1.66694e-05
1.1009e-05
-7.71001e-05
2.98573e-05
3.21076e-06
-9.97159e-05
3.61196e-05
3.73883e-06
2.55825e-06
3.31846e-06
2.81355e-05
3.92183e-06
-2.92734e-05
8.80697e-06
3.26524e-05
-2.88854e-05
8.44633e-06
-4.75934e-06
9.86428e-07
-7.79256e-06
-1.78844e-05
1.88568e-06
-1.97924e-05
-1.31482e-05
3.47854e-06
-3.29759e-05
2.01262e-06
4.77405e-06
-5.32503e-05
2.02018e-05
4.39883e-06
-7.75037e-05
3.47452e-05
2.46983e-07
-9.81789e-05
4.27437e-05
-1.56488e-07
2.54115e-07
2.0024e-07
2.93956e-05
-4.07639e-07
-2.91488e-05
1.04577e-05
2.58917e-05
-2.86881e-05
9.76973e-06
1.51525e-06
7.60304e-07
-7.7233e-06
-1.77461e-05
1.48166e-06
-1.94102e-05
-1.15635e-05
2.72017e-06
-3.295e-05
4.18039e-06
2.59869e-06
-5.27541e-05
2.22834e-05
-3.45979e-07
-7.53851e-05
3.78722e-05
-2.71508e-06
-9.45502e-05
4.75837e-05
-9.32471e-07
-1.88027e-06
-1.82381e-08
2.81223e-05
-4.25375e-06
-2.70215e-05
1.25352e-05
3.23176e-05
-1.52283e-05
-2.60593e-05
1.60409e-05
6.9784e-06
7.12525e-07
-7.40903e-06
-1.74495e-05
1.44039e-06
-1.88772e-05
-1.03626e-05
2.8969e-06