/*--------------------------------*- C++ -*----------------------------------*\
| =========                 |                                                 |
| \\      /  F ield         | OpenFOAM: The Open Source CFD Toolbox           |
|  \\    /   O peration     | Version:  v2106                                 |
|   \\  /    A nd           | Website:  www.openfoam.com                      |
|    \\/     M anipulation  |                                                 |
\*---------------------------------------------------------------------------*/
FoamFile
{
    version     2.0;
    format      ascii;
    arch        "LSB;label=32;scalar=64";
    class       volScalarField;
    location    "0.000171";
    object      alphat;
}
// * * * * * * * * * * * * * * * * * * * * * * * * * * * * * * * * * * * * * //

dimensions      [1 -1 -1 0 0 0 0];

internalField   nonuniform List<scalar> 
144746
(
0.000123408
0.000111542
9.91081e-05
8.62702e-05
7.13416e-05
5.58194e-05
4.53224e-05
4.08278e-05
4.03875e-05
4.42869e-05
5.51488e-05
7.62283e-05
0.00010917
0.000150803
8.04442e-05
6.68938e-05
5.4193e-05
4.31195e-05
3.48229e-05
2.73364e-05
2.35327e-05
2.35507e-05
2.61069e-05
3.20602e-05
4.44418e-05
6.71089e-05
0.000101979
0.000143732
5.26722e-05
3.89762e-05
2.75292e-05
1.8651e-05
1.36318e-05
1.06172e-05
9.73427e-06
1.14639e-05
1.52872e-05
2.23696e-05
3.56761e-05
5.93618e-05
9.51195e-05
0.00013611
3.72258e-05
2.38617e-05
1.37557e-05
7.08771e-06
4.18292e-06
3.19329e-06
3.41277e-06
4.97732e-06
8.48912e-06
1.53168e-05
2.84709e-05
5.17091e-05
8.58383e-05
0.000123487
2.98851e-05
1.6136e-05
7.13298e-06
2.66006e-06
1.19603e-06
8.88296e-07
1.24504e-06
2.45506e-06
5.39232e-06
1.19123e-05
2.48256e-05
4.65653e-05
7.60442e-05
0.000106212
2.67457e-05
1.22567e-05
4.54742e-06
1.69073e-06
7.38597e-07
5.05623e-07
8.16245e-07
1.92338e-06
4.71404e-06
1.0912e-05
2.27127e-05
4.12459e-05
6.48411e-05
8.83236e-05
2.73084e-05
1.13953e-05
4.5839e-06
2.20043e-06
1.15418e-06
8.62575e-07
1.25517e-06
2.60229e-06
5.71276e-06
1.19207e-05
2.25557e-05
3.78821e-05
5.64202e-05
7.48272e-05
3.20616e-05
1.33188e-05
6.55578e-06
3.801e-06
2.37583e-06
1.94828e-06
2.51542e-06
4.29331e-06
7.87863e-06
1.41377e-05
2.37151e-05
3.66795e-05
5.24983e-05
6.85178e-05
4.22151e-05
1.79428e-05
1.0409e-05
6.94945e-06
4.92793e-06
4.16463e-06
4.80518e-06
6.96011e-06
1.08931e-05
1.7118e-05
2.60389e-05
3.89616e-05
5.443e-05
6.89181e-05
6.61794e-05
2.73549e-05
1.67584e-05
1.25963e-05
9.85816e-06
8.38221e-06
8.63096e-06
1.07981e-05
1.49763e-05
2.18857e-05
3.21779e-05
4.77929e-05
6.31166e-05
7.88309e-05
9.80538e-05
4.80071e-05
2.67835e-05
2.15822e-05
1.88786e-05
1.67848e-05
1.63058e-05
1.83351e-05
2.35334e-05
3.47448e-05
4.87929e-05
6.67224e-05
8.38158e-05
0.000100967
0.000127716
7.62165e-05
4.55457e-05
3.48086e-05
3.27528e-05
3.18952e-05
3.21629e-05
3.61137e-05
4.6308e-05
6.30183e-05
8.07683e-05
0.000100849
0.000118443
0.000134604
0.000155778
0.000106563
6.94727e-05
5.09964e-05
4.69795e-05
4.91725e-05
5.46523e-05
6.45666e-05
8.07669e-05
0.000101737
0.000122771
0.000141519
0.000156478
0.000170028
0.000182814
0.000135623
9.53719e-05
7.09519e-05
6.2331e-05
6.41879e-05
7.29669e-05
8.84735e-05
0.000108277
0.00012884
0.000148694
0.000164056
0.000177598
0.000190191
0.000140538
0.000126155
0.000110911
9.44027e-05
7.51226e-05
5.64915e-05
4.37578e-05
3.72351e-05
3.59613e-05
4.13005e-05
5.60541e-05
8.23203e-05
0.000121301
0.00016953
8.80553e-05
7.34378e-05
6.00158e-05
4.83376e-05
3.88153e-05
2.98657e-05
2.41782e-05
2.20743e-05
2.3297e-05
2.97648e-05
4.50733e-05
7.21867e-05
0.000112205
0.000158779
5.25696e-05
3.87749e-05
2.83707e-05
2.05368e-05
1.58712e-05
1.23694e-05
1.04784e-05
1.08335e-05
1.37654e-05
2.1273e-05
3.6832e-05
6.3668e-05
0.000102567
0.000146266
3.17179e-05
1.97597e-05
1.19699e-05
7.07093e-06
4.8843e-06
3.86947e-06
3.71684e-06
4.72736e-06
7.81387e-06
1.5001e-05
2.95661e-05
5.43893e-05
8.92615e-05
0.000127293
2.21261e-05
1.14184e-05
5.20027e-06
2.21362e-06
1.21615e-06
9.89791e-07
1.26552e-06
2.33318e-06
5.21677e-06
1.20466e-05
2.55835e-05
4.73275e-05
7.55327e-05
0.000104502
1.90905e-05
8.48768e-06
3.11784e-06
1.13117e-06
4.88762e-07
3.80808e-07
6.93901e-07
1.75248e-06
4.53019e-06
1.0804e-05
2.25007e-05
4.00152e-05
6.13131e-05
8.25536e-05
2.00278e-05
8.28186e-06
3.15486e-06
1.35784e-06
6.5905e-07
5.30536e-07
9.185e-07
2.14618e-06
5.06338e-06
1.096e-05
2.08829e-05
3.4615e-05
5.06179e-05
6.6733e-05
2.46027e-05
1.01351e-05
4.5255e-06
2.36158e-06
1.40773e-06
1.21848e-06
1.75868e-06
3.28634e-06
6.42846e-06
1.19945e-05
2.04664e-05
3.16053e-05
4.49735e-05
5.95073e-05
3.3751e-05
1.40549e-05
7.20289e-06
4.43226e-06
3.08173e-06
2.73709e-06
3.41372e-06
5.24331e-06
8.54676e-06
1.38272e-05
2.14212e-05
3.21375e-05
4.58892e-05
6.05849e-05
5.33397e-05
2.15314e-05
1.1726e-05
8.24029e-06
6.4041e-06
5.72036e-06
6.32716e-06
8.33236e-06
1.1877e-05
1.7543e-05
2.57607e-05
3.96905e-05
5.47081e-05
7.15982e-05
8.39802e-05
3.8304e-05
1.88104e-05
1.45088e-05
1.25185e-05
1.15726e-05
1.20423e-05
1.43778e-05
1.91486e-05
2.74268e-05
3.96316e-05
5.6873e-05
7.47444e-05
9.36264e-05
0.00011485
6.5747e-05
3.60966e-05
2.50543e-05
2.2569e-05
2.19999e-05
2.31664e-05
2.70388e-05
3.55888e-05
4.98992e-05
6.603e-05
8.69419e-05
0.000106778
0.000125692
0.000146327
9.70901e-05
5.97923e-05
4.00674e-05
3.48071e-05
3.55149e-05
3.95273e-05
4.75122e-05
6.10092e-05
8.1142e-05
0.000103017
0.000125133
0.000144324
0.000162015
0.000177403
0.000127771
8.69264e-05
6.13389e-05
5.06752e-05
4.99235e-05
5.58855e-05
6.84927e-05
8.71557e-05
0.0001107
0.000135217
0.000155503
0.000172386
0.000189064
0.000132409
0.000117703
0.000101916
8.52518e-05
6.66785e-05
4.98198e-05
3.77387e-05
3.13994e-05
3.00844e-05
3.62012e-05
5.24702e-05
7.91877e-05
0.000115532
0.000159347
8.38564e-05
6.99177e-05
5.73186e-05
4.65006e-05
3.70562e-05
2.84162e-05
2.19247e-05
1.8594e-05
1.8827e-05
2.51589e-05
4.12867e-05
6.86005e-05
0.000105396
0.000146711
4.82926e-05
3.53913e-05
2.66228e-05
2.02983e-05
1.61952e-05
1.26866e-05
1.01311e-05
9.00579e-06
1.08851e-05
1.80009e-05
3.38901e-05
6.01414e-05
9.47993e-05
0.000132109
2.61457e-05
1.5765e-05
1.0069e-05
6.80853e-06
5.27091e-06
4.2453e-06
3.69826e-06
4.00906e-06
6.29187e-06
1.29158e-05
2.70555e-05
5.04107e-05
8.05245e-05
0.000112249
1.60191e-05
7.70195e-06
3.6436e-06
1.86637e-06
1.26426e-06
1.07514e-06
1.20285e-06
1.9835e-06
4.43902e-06
1.06338e-05
2.30983e-05
4.26178e-05
6.64904e-05
9.04722e-05
1.33104e-05
5.49208e-06
1.95645e-06
7.07171e-07
3.30929e-07
2.94481e-07
5.46932e-07
1.42047e-06
3.83179e-06
9.40489e-06
1.98027e-05
3.51289e-05
5.29117e-05
7.02412e-05
1.419e-05
5.555e-06
1.93639e-06
7.13439e-07
3.08884e-07
2.76314e-07
5.8658e-07
1.55763e-06
3.96568e-06
8.9752e-06
1.75606e-05
2.94254e-05
4.26236e-05
5.55309e-05
1.7804e-05
7.01935e-06
2.74432e-06
1.22502e-06
6.67593e-07
6.16719e-07
1.02905e-06
2.16418e-06
4.60289e-06
9.1233e-06
1.6245e-05
2.56102e-05
3.62851e-05
4.78497e-05
2.48318e-05
9.91442e-06
4.34953e-06
2.39179e-06
1.59307e-06
1.4882e-06
2.02082e-06
3.3416e-06
5.80316e-06
9.91711e-06
1.61211e-05
2.44873e-05
3.48555e-05
4.8981e-05
3.88722e-05
1.52501e-05
7.17594e-06
4.66675e-06
3.57723e-06
3.36092e-06
3.98827e-06
5.52895e-06
8.16754e-06
1.23567e-05
1.88027e-05
2.85291e-05
4.1862e-05
5.9043e-05
6.25524e-05
2.62903e-05
1.19125e-05
8.78351e-06
7.48059e-06
7.20359e-06
7.99765e-06
1.00317e-05
1.36028e-05
1.94441e-05
2.8065e-05
4.19974e-05
5.91118e-05
7.79172e-05
8.77677e-05
4.98157e-05
2.50992e-05
1.60522e-05
1.4431e-05
1.4394e-05
1.59581e-05
1.94459e-05
2.56971e-05
3.50711e-05
4.7215e-05
6.58439e-05
8.47087e-05
0.000102832
0.000116412
7.72522e-05
4.51995e-05
2.81035e-05
2.44022e-05
2.50401e-05
2.81475e-05
3.40327e-05
4.38425e-05
5.81298e-05
7.52869e-05
9.4738e-05
0.000113636
0.000131132
0.000141976
0.000102939
7.03186e-05
4.81314e-05
3.90871e-05
3.79054e-05
4.18316e-05
5.06544e-05
6.46861e-05
8.3987e-05
0.000104842
0.000123196
0.00014079
0.00015893
0.000190907
0.000214473
0.000237717
0.000267262
0.000305603
0.000147659
0.000180036
0.00020436
0.000224807
0.000252638
0.000283131
0.000165993
0.000167732
0.000189294
0.000208314
0.000238301
0.000275572
0.000187916
0.000149263
0.000167759
0.00018656
0.000221452
0.000275396
0.000212695
0.000126475
0.000143246
0.000163207
0.000202673
0.000277561
0.000238076
0.00010471
0.000119736
0.000139932
0.000181461
0.000273143
0.000260539
8.83111e-05
0.000101245
0.00012009
0.000160246
0.000260573
0.000277839
8.04408e-05
9.15035e-05
0.000108886
0.000146039
0.000246712
0.000287572
8.20162e-05
9.3073e-05
0.000109889
0.000144732
0.000242738
0.000289261
9.4433e-05
0.000106755
0.000123729
0.000156385
0.000248961
0.000282036
0.000118545
0.000131983
0.000148809
0.000178322
0.000260562
0.000265411
0.000150003
0.000162375
0.000177624
0.000203052
0.000270015
0.000238676
0.000178993
0.000187017
0.00019905
0.000220108
0.000267313
0.000203222
0.000192336
0.000197049
0.000207298
0.000225526
0.000251296
0.000165753
0.000213429
0.000235938
0.000252118
0.000264651
0.000278619
0.00016728
0.000196958
0.000222244
0.000239666
0.000254323
0.00026407
0.00019359
0.000179125
0.00020203
0.000218858
0.000237697
0.000259469
0.000219071
0.000153984
0.000173261
0.000189213
0.000214758
0.000255995
0.000244031
0.000125032
0.00014144
0.000157704
0.000188301
0.000248445
0.000265035
9.86726e-05
0.000112542
0.000128598
0.000160748
0.000233235
0.000279763
7.99032e-05
9.15159e-05
0.000107198
0.000138758
0.000214812
0.000285748
7.12033e-05
8.15322e-05
9.71399e-05
0.00012753
0.000201816
0.000285404
7.36303e-05
8.41589e-05
0.000100007
0.000129759
0.000202298
0.000279819
8.7077e-05
9.88046e-05
0.000115216
0.000144003
0.000213781
0.000270158
0.000111121
0.000124465
0.00014128
0.000167508
0.000230285
0.000255245
0.00014193
0.000155455
0.000171298
0.000192932
0.000244521
0.000234893
0.000172809
0.000182479
0.000194123
0.000209516
0.000245659
0.000209247
0.000191183
0.000195503
0.000201917
0.000212105
0.000231821
0.000181078
0.000203052
0.000229446
0.000247259
0.000250979
0.000237766
0.000187427
0.000183699
0.000212981
0.000234113
0.000243001
0.000239883
0.000216764
0.000163378
0.000189555
0.00020857
0.000221629
0.000235918
0.000241276
0.000137311
0.000158687
0.000174457
0.000190641
0.000220574
0.000259056
0.000109512
0.00012651
0.000140312
0.000158967
0.000200334
0.000268304
8.47654e-05
9.84755e-05
0.000111824
0.000132243
0.00017931
0.000269593
6.69237e-05
7.84035e-05
9.24834e-05
0.000115042
0.000165459
0.000265043
5.84534e-05
6.86979e-05
8.36908e-05
0.000108175
0.000161166
0.00025896
6.01066e-05
6.9979e-05
8.55256e-05
0.000110901
0.000167638
0.000251797
7.14786e-05
8.13507e-05
9.69315e-05
0.000122606
0.000180767
0.000243262
9.05505e-05
0.00010147
0.000117423
0.000142347
0.000196888
0.000233477
0.00011391
0.000126461
0.000143358
0.000165761
0.000210655
0.000221632
0.000139862
0.000152337
0.000167761
0.000183807
0.000211937
0.000206101
0.000162486
0.000172794
0.000183014
0.000189694
0.000198664
0.00018521
0.000190085
0.000195937
0.000206431
0.000223494
0.000231905
0.000159812
0.000174346
0.000176819
0.000188066
0.000212208
0.000235531
0.000188805
0.000159542
0.000159477
0.000169907
0.000198672
0.000239298
0.000218925
0.000144443
0.000142457
0.000151074
0.000181
0.000237372
0.000248334
0.000128345
0.00012688
0.000133139
0.000161547
0.000228616
0.000274061
0.000111695
0.000111891
0.000117227
0.000143976
0.000215415
0.000293661
9.56557e-05
9.88549e-05
0.000106038
0.000132616
0.0002036
0.000305694
8.24702e-05
8.94514e-05
0.000101116
0.000129483
0.000200862
0.000311142
7.61967e-05
8.73108e-05
0.00010405
0.000135714
0.000210309
0.000308813
7.88619e-05
9.50373e-05
0.000116558
0.000151518
0.000228798
0.000299598
9.33735e-05
0.000114875
0.00014009
0.000176227
0.000250866
0.000281003
0.000120955
0.000145833
0.000172018
0.00020464
0.000266624
0.000252432
0.000158051
0.000180912
0.000202216
0.000225195
0.000265113
0.000214735
0.000192729
0.000208434
0.000219135
0.000229956
0.000246293
0.000174658
0.000193653
0.000194659
0.000196751
0.000204623
0.000213321
0.000182328
0.000174269
0.000174718
0.000177209
0.000191163
0.000214472
0.000211931
0.000158797
0.000156905
0.000157734
0.000174627
0.000213011
0.000239565
0.000141287
0.000138494
0.000138672
0.000155782
0.000203768
0.000263047
0.000120742
0.000120612
0.000122075
0.000138808
0.000189758
0.000280089
9.99537e-05
0.000103269
0.00010833
0.000126568
0.00017635
0.000289453
8.10991e-05
8.84461e-05
9.84589e-05
0.000119975
0.000169593
0.000292892
6.81563e-05
7.88263e-05
9.38167e-05
0.000119757
0.000172592
0.000292881
6.396e-05
7.78519e-05
9.70289e-05
0.000127299
0.000186033
0.000289493
6.93949e-05
8.70058e-05
0.000109833
0.000143762
0.000207461
0.000281275
8.56961e-05
0.00010795
0.000134211
0.000169721
0.000233255
0.000267387
0.00011343
0.000139642
0.000168291
0.000200271
0.00025204
0.000246066
0.000151213
0.000177474
0.000202423
0.00022293
0.000251768
0.000217566
0.000189226
0.00021061
0.000223426
0.000227462
0.000231642
0.000185635
0.000176536
0.000185094
0.000185756
0.000182403
0.000182415
0.000189314
0.00015574
0.000165697
0.000168118
0.000169916
0.000182193
0.000216186
0.000140151
0.000149811
0.000151468
0.000155598
0.00017711
0.000238331
0.000122834
0.000132487
0.000134856
0.0001408
0.000167343
0.000253837
0.000101958
0.000114169
0.000120042
0.000128906
0.000156543
0.000262074
8.23053e-05
9.58918e-05
0.000106633
0.000120546
0.000150144
0.000264473
6.58902e-05
8.01851e-05
9.57212e-05
0.000115746
0.000149019
0.000264674
5.47783e-05
6.94328e-05
8.83638e-05
0.0001136
0.000153213
0.000264064
5.11933e-05
6.6491e-05
8.75366e-05
0.000116208
0.000163899
0.00026222
5.63191e-05
7.27525e-05
9.47668e-05
0.000125948
0.00018194
0.000255808
6.99967e-05
8.88487e-05
0.000112353
0.000144724
0.000202594
0.000245252
9.08977e-05
0.000112409
0.000139463
0.000171278
0.000221238
0.000230663
0.000118883
0.000142841
0.000171954
0.000196994
0.00022557
0.000211784
0.000150901
0.00017666
0.000200968
0.000210343
0.000210138
0.000188206
0.000183346
0.000336856
0.00025024
0.000202458
0.00016431
0.000134606
0.000223899
0.000303631
0.000198219
0.000149345
0.000117631
9.62402e-05
0.000250738
0.000247403
0.000151534
0.000109557
8.51486e-05
6.85254e-05
0.000268275
0.000199834
0.000120437
8.61136e-05
6.67006e-05
5.2509e-05
0.000280102
0.000171084
0.000105135
7.67043e-05
5.99652e-05
4.58188e-05
0.000288848
0.000159604
0.000102506
7.85672e-05
6.28081e-05
4.60707e-05
0.000291431
0.000161369
0.000109795
8.9547e-05
7.38515e-05
5.24524e-05
0.000289515
0.000171659
0.000123619
0.000107262
9.30419e-05
6.55435e-05
0.00028094
0.000186805
0.000140575
0.000127578
0.000118267
8.65327e-05
0.000265549
0.000202321
0.000158767
0.000147582
0.000144061
0.00011564
0.000244212
0.000213809
0.000176087
0.000165684
0.000166021
0.000144379
0.000219294
0.000220357
0.000192331
0.000183348
0.000184879
0.000167689
0.000193259
0.000222845
0.000206968
0.000200058
0.00020094
0.000187501
0.000167027
0.000223956
0.000221018
0.000218765
0.000220883
0.000211826
0.000185632
0.000311397
0.000264276
0.000226917
0.000186201
0.000152449
0.000217496
0.000286081
0.00021165
0.000165308
0.000129987
0.000105686
0.000238975
0.000236049
0.00015857
0.000116088
8.90231e-05
7.03859e-05
0.000252615
0.000188861
0.000120478
8.48209e-05
6.37965e-05
4.82451e-05
0.000262857
0.000158737
0.000100047
6.98643e-05
5.16296e-05
3.71922e-05
0.000270635
0.000142684
9.3856e-05
6.79071e-05
5.03216e-05
3.48403e-05
0.000275097
0.000139905
9.90687e-05
7.68931e-05
5.84841e-05
3.93691e-05
0.000277046
0.000145993
0.000111981
9.52038e-05
7.61321e-05
5.04014e-05
0.000275217
0.000157664
0.000128592
0.000119314
0.000102696
6.90322e-05
0.000268416
0.00017282
0.000145975
0.000144441
0.000134567
9.81616e-05
0.000254371
0.000187882
0.00016396
0.000166634
0.000163472
0.000131481
0.000234013
0.000199021
0.000182187
0.000186761
0.000187478
0.000159745
0.00020961
0.000204368
0.000198624
0.000204665
0.000206397
0.000184343
0.000183443
0.000206547
0.00021387
0.000224857
0.000230387
0.000215105
0.000192243
0.000277269
0.000250053
0.000213215
0.000172433
0.000141235
0.00021236
0.000259497
0.000200527
0.000155265
0.000120337
9.78944e-05
0.000226587
0.000219339
0.000149251
0.000108423
8.16738e-05
6.40673e-05
0.000238549
0.000180016
0.000112562
7.76989e-05
5.68495e-05
4.15715e-05
0.000247854
0.000151421
9.34995e-05
6.24754e-05
4.38025e-05
2.96994e-05
0.000253663
0.000135483
8.85942e-05
6.02129e-05
4.12612e-05
2.65203e-05
0.000256295
0.000130883
9.43757e-05
6.82077e-05
4.72495e-05
2.9472e-05
0.000257948
0.000134371
0.000107867
8.54941e-05
6.10082e-05
3.73761e-05
0.000258614
0.000142531
0.000125175
0.000110169
8.29663e-05
5.11052e-05
0.000257679
0.000153149
0.000143218
0.000137468
0.000112267
7.45462e-05
0.000251388
0.000167457
0.00016054
0.000161552
0.000141463
0.000104274
0.000237586
0.00018034
0.000177391
0.000181529
0.000165227
0.000128676
0.000216666
0.000187513
0.000191787
0.000198044
0.000184502
0.000152485
0.000191221
0.00019052
0.000205682
0.000217226
0.000208641
0.000181703
0.000171659
0.000319494
0.000239714
0.000200974
0.000175933
0.000158217
0.000212557
0.000297573
0.000198479
0.000158738
0.000136087
0.000121316
0.000241537
0.000258817
0.000157829
0.000121544
0.00010225
8.95225e-05
0.000261174
0.000223929
0.000129486
9.6258e-05
7.94305e-05
6.80412e-05
0.000274581
0.000205737
0.000117121
8.50129e-05
6.86163e-05
5.7206e-05
0.000282422
0.000205316
0.000120042
8.74458e-05
6.92217e-05
5.53647e-05
0.000284191
0.00021859
0.0001372
0.000103121
8.06575e-05
6.07907e-05
0.000278632
0.000238203
0.000164281
0.000129934
0.000102627
7.30763e-05
0.000265336
0.000253469
0.000191869
0.00016084
0.000131692
9.26731e-05
0.00024614
0.000261245
0.000215406
0.000190669
0.000162441
0.000116927
0.00022376
0.000265349
0.000235231
0.000217218
0.000189947
0.00014008
0.000200395
0.000274306
0.000254334
0.000238036
0.000208679
0.000156196
0.00017882
0.000290019
0.000271249
0.000250996
0.000218966
0.000168353
0.000159594
0.000322239
0.000287569
0.00025897
0.000224377
0.000179633
0.00017427
0.000290395
0.00024396
0.000218704
0.000195844
0.000177076
0.000204671
0.000269652
0.00020597
0.00017415
0.000151016
0.000134559
0.000227486
0.000233074
0.00016268
0.000130571
0.000110459
9.67219e-05
0.000244415
0.000197567
0.000127842
9.78419e-05
8.11698e-05
6.97442e-05
0.000257595
0.00017475
0.000108263
7.98388e-05
6.46668e-05
5.41303e-05
0.000269494
0.00016779
0.00010446
7.6639e-05
6.07669e-05
4.9046e-05
0.000278525
0.000176032
0.000116151
8.85057e-05
6.95918e-05
5.33525e-05
0.000282731
0.000195463
0.000141215
0.000115268
9.18465e-05
6.66717e-05
0.000279313
0.000218916
0.000173647
0.000151782
0.000125131
8.88721e-05
0.000268051
0.000238097
0.000206869
0.000191403
0.000163812
0.000118549
0.000249369
0.00025023
0.000236425
0.000228456
0.000200389
0.000148999
0.00022673
0.000259199
0.000262018
0.000258845
0.000228077
0.000172313
0.000202014
0.000267181
0.000281909
0.000277914
0.00024471
0.000189313
0.00017659
0.000290472
0.000294776
0.000286484
0.000254619
0.000205775
0.000182158
0.000250453
0.00023505
0.000211604
0.000186063
0.000165475
0.000199914
0.000242477
0.00020038
0.000166697
0.000141881
0.000125414
0.000212761
0.000215353
0.000156718
0.000123746
0.000103409
9.02707e-05
0.000223999
0.000182268
0.000120226
9.11425e-05
7.5101e-05
6.44431e-05
0.000234804
0.000157752
9.87662e-05
7.19935e-05
5.7627e-05
4.80398e-05
0.000244835
0.000142619
9.15979e-05
6.62569e-05
5.15724e-05
4.14723e-05
0.000253181
0.000140237
9.7448e-05
7.34971e-05
5.68755e-05
4.395e-05
0.000262246
0.00015083
0.000115257
9.4467e-05
7.43151e-05
5.48026e-05
0.000270244
0.00017225
0.000143054
0.000126644
0.000102594
7.40854e-05
0.000272848
0.000199771
0.000178051
0.000165638
0.000138139
0.000100592
0.000266035
0.000226282
0.000215578
0.000205434
0.000174053
0.000129285
0.000249403
0.000247647
0.000249247
0.000239358
0.000203537
0.000153313
0.000225549
0.000256518
0.000271623
0.000262141
0.000223562
0.000172363
0.000196338
0.000262685
0.000281087
0.000271803
0.000237152
0.000191308
7.80231e-05
6.74202e-05
5.71777e-05
4.84971e-05
3.99975e-05
3.24961e-05
2.63356e-05
2.17488e-05
2.00764e-05
2.2947e-05
3.29908e-05
5.02533e-05
7.38827e-05
0.000105053
4.89976e-05
3.93825e-05
3.18524e-05
2.64615e-05
2.20669e-05
1.81246e-05
1.47773e-05
1.20887e-05
1.10961e-05
1.40338e-05
2.35468e-05
4.09062e-05
6.50672e-05
9.48027e-05
2.76318e-05
1.89911e-05
1.41453e-05
1.13272e-05
9.55465e-06
7.9731e-06
6.56419e-06
5.5734e-06
5.84809e-06
9.2393e-06
1.8393e-05
3.47301e-05
5.73627e-05
8.43028e-05
1.44391e-05
7.74332e-06
4.8248e-06
3.56098e-06
2.99515e-06
2.57632e-06
2.25149e-06
2.24189e-06
3.24992e-06
6.7504e-06
1.49273e-05
2.92413e-05
4.90126e-05
7.24969e-05
8.88687e-06
3.59607e-06
1.54139e-06
8.66199e-07
6.64495e-07
6.00958e-07
6.46779e-07
9.98852e-07
2.26318e-06
5.70836e-06
1.3091e-05
2.54677e-05
4.20343e-05
6.08215e-05
7.80511e-06
2.7471e-06
8.58816e-07
2.88561e-07
1.3934e-07
1.33729e-07
2.52571e-07
6.90617e-07
2.00597e-06
5.27226e-06
1.18031e-05
2.22232e-05
3.56505e-05
5.0138e-05
8.57936e-06
2.95635e-06
8.98547e-07
2.67094e-07
9.71435e-08
9.42061e-08
2.41969e-07
7.37773e-07
2.09135e-06
5.17188e-06
1.09031e-05
1.96019e-05
3.04397e-05
4.1779e-05
1.0703e-05
3.80448e-06
1.24838e-06
4.38767e-07
2.06545e-07
2.01858e-07
3.93051e-07
9.66317e-07
2.35885e-06
5.24376e-06
1.02616e-05
1.75698e-05
2.65042e-05
3.60858e-05
1.43426e-05
5.24927e-06
1.94493e-06
9.27315e-07
5.77255e-07
5.63835e-07
8.2308e-07
1.49511e-06
2.91477e-06
5.58844e-06
1.00104e-05
1.63357e-05
2.42804e-05
3.3661e-05
2.04313e-05
7.69362e-06
3.28498e-06
2.01869e-06
1.55949e-06
1.52611e-06
1.89342e-06
2.73383e-06
4.26594e-06
6.87928e-06
1.10492e-05
1.71932e-05
2.54375e-05
3.6619e-05
3.07053e-05
1.24626e-05
5.85471e-06
4.26398e-06
3.73444e-06
3.76639e-06
4.35486e-06
5.5432e-06
7.53597e-06
1.07087e-05
1.56942e-05
2.32894e-05
3.32685e-05
4.72396e-05
4.45644e-05
2.36222e-05
1.14013e-05
8.48122e-06
8.00331e-06
8.3568e-06
9.52709e-06
1.15612e-05
1.47533e-05
1.94907e-05
2.63625e-05
3.63487e-05
4.83885e-05
6.32739e-05
6.33636e-05
3.94466e-05
2.21413e-05
1.58103e-05
1.53522e-05
1.62254e-05
1.84521e-05
2.19086e-05
2.69182e-05
3.37424e-05
4.25127e-05
5.41226e-05
6.79335e-05
8.17484e-05
7.92325e-05
5.74295e-05
3.9931e-05
2.92561e-05
2.64306e-05
2.75377e-05
3.05839e-05
3.57625e-05
4.28298e-05
5.20273e-05
6.2896e-05
7.46505e-05
8.91222e-05
0.000102886
4.36503e-05
3.75797e-05
3.24497e-05
2.84256e-05
2.4935e-05
2.17367e-05
1.88695e-05
1.62501e-05
1.44435e-05
1.49338e-05
1.98542e-05
2.99515e-05
4.43013e-05
6.21114e-05
2.65975e-05
2.04907e-05
1.67086e-05
1.43604e-05
1.27286e-05
1.12026e-05
9.74896e-06
8.36904e-06
7.55851e-06
8.43169e-06
1.29997e-05
2.28258e-05
3.78373e-05
5.66004e-05
1.46946e-05
9.23379e-06
6.74287e-06
5.58126e-06
4.9828e-06
4.46774e-06
3.9673e-06
3.52605e-06
3.58763e-06
5.10474e-06
9.81581e-06
1.93498e-05
3.37662e-05
5.16401e-05
8.11854e-06
3.80106e-06
2.16597e-06
1.61767e-06
1.42114e-06
1.30482e-06
1.23023e-06
1.27857e-06
1.7933e-06
3.56732e-06
8.03644e-06
1.6715e-05
2.9893e-05
4.63892e-05
5.71826e-06
2.0455e-06
7.569e-07
3.92054e-07
2.97815e-07
2.80707e-07
3.24341e-07
5.22873e-07
1.1844e-06
3.03935e-06
7.32864e-06
1.52738e-05
2.70423e-05
4.15394e-05
5.28622e-06
1.72008e-06
5.05004e-07
1.54679e-07
6.65901e-08
6.27162e-08
1.26479e-07
3.59443e-07
1.07147e-06
2.94203e-06
7.0113e-06
1.4173e-05
2.4444e-05
3.68677e-05
5.68928e-06
1.85151e-06
5.39658e-07
1.4966e-07
5.05141e-08
4.72813e-08
1.2472e-07
3.94632e-07
1.17013e-06
3.06265e-06
6.89621e-06
1.32957e-05
2.21945e-05
3.28188e-05
6.80671e-06
2.30498e-06
7.20938e-07
2.35987e-07
1.07147e-07
1.04627e-07
2.06134e-07
5.29163e-07
1.37411e-06
3.26679e-06
6.84035e-06
1.25422e-05
2.03022e-05
2.95086e-05
8.68584e-06
3.07179e-06
1.11389e-06
5.11836e-07
3.18523e-07
3.12097e-07
4.55411e-07
8.51024e-07
1.75962e-06
3.61298e-06
6.92197e-06
1.20443e-05
1.89622e-05
2.72808e-05
1.1712e-05
4.34597e-06
1.95579e-06
1.20319e-06
9.33768e-07
9.14282e-07
1.115e-06
1.61064e-06
2.60184e-06
4.43221e-06
7.54616e-06
1.23236e-05
1.88953e-05
2.7237e-05
1.65823e-05
6.72889e-06
3.68279e-06
2.75996e-06
2.42048e-06
2.40715e-06
2.71488e-06
3.39102e-06
4.60737e-06
6.66131e-06
9.9989e-06
1.5099e-05
2.21024e-05
3.14365e-05
2.53659e-05
1.19595e-05
6.99836e-06
5.87766e-06
5.57622e-06
5.71137e-06
6.30341e-06
7.39097e-06
9.20074e-06
1.20316e-05
1.63292e-05
2.26311e-05
3.06828e-05
4.09705e-05
3.77104e-05
2.12065e-05
1.29604e-05
1.13432e-05
1.12818e-05
1.18893e-05
1.31303e-05
1.50334e-05
1.79205e-05
2.20257e-05
2.76311e-05
3.51637e-05
4.42101e-05
5.41298e-05
5.03376e-05
3.50638e-05
2.49766e-05
2.05972e-05
2.01631e-05
2.14325e-05
2.37261e-05
2.68497e-05
3.11058e-05
3.65488e-05
4.31279e-05
5.09639e-05
6.05564e-05
6.96337e-05
2.08427e-05
1.69796e-05
1.48779e-05
1.35297e-05
1.28316e-05
1.21352e-05
1.14165e-05
1.04905e-05
9.61506e-06
9.24728e-06
1.06745e-05
1.5233e-05
2.30756e-05
3.39991e-05
1.19836e-05
8.29551e-06
6.66118e-06
5.89611e-06
5.61032e-06
5.37205e-06
5.12569e-06
4.74087e-06
4.43669e-06
4.6486e-06
6.34891e-06
1.06952e-05
1.84356e-05
2.96913e-05
6.71332e-06
3.56877e-06
2.39962e-06
2.01183e-06
1.8973e-06
1.83174e-06
1.77553e-06
1.7119e-06
1.80562e-06
2.43686e-06
4.39647e-06
8.74275e-06
1.64078e-05
2.76686e-05
4.31301e-06
1.65313e-06
7.66681e-07
5.3689e-07
4.81279e-07
4.66081e-07
4.74028e-07
5.37102e-07
7.9115e-07
1.55823e-06
3.50115e-06
7.61088e-06
1.4911e-05
2.58097e-05
3.4937e-06
1.0985e-06
3.39402e-07
1.42607e-07
9.69336e-08
9.22957e-08
1.16113e-07
2.0795e-07
4.97039e-07
1.3018e-06
3.25688e-06
7.2952e-06
1.43154e-05
2.46172e-05
3.26524e-06
9.86949e-07
2.75818e-07
7.62712e-08
2.64664e-08
2.20729e-08
4.83225e-08
1.47385e-07
4.56925e-07
1.30323e-06
3.29408e-06
7.25762e-06
1.3917e-05
2.34211e-05
3.35492e-06
1.04203e-06
2.94784e-07
7.69136e-08
2.36064e-08
1.94622e-08
5.07109e-08
1.66261e-07
5.17015e-07
1.43552e-06
3.48768e-06
7.37635e-06
1.36513e-05
2.23459e-05
3.83648e-06
1.25479e-06
3.73057e-07
1.1483e-07
5.06899e-08
4.78047e-08
8.98209e-08
2.32945e-07
6.38191e-07
1.63451e-06
3.73432e-06
7.52281e-06
1.34111e-05
2.1388e-05
4.69354e-06
1.61611e-06
5.6381e-07
2.49512e-07
1.57715e-07
1.54302e-07
2.15801e-07
4.00103e-07
8.7029e-07
1.9395e-06
4.06581e-06
7.74162e-06
1.32928e-05
2.06982e-05
6.01543e-06
2.23975e-06
1.03342e-06
6.3405e-07
4.94427e-07
4.82267e-07
5.71727e-07
8.16813e-07
1.36368e-06
2.49344e-06
4.61173e-06
8.15227e-06
1.3411e-05
2.03792e-05
8.00583e-06
3.49532e-06
2.11422e-06
1.6004e-06
1.38564e-06
1.35017e-06
1.48022e-06
1.82345e-06
2.4996e-06
3.74737e-06
5.93092e-06
9.45106e-06
1.4564e-05
2.13496e-05
1.19154e-05
6.06396e-06
4.347e-06
3.7384e-06
3.45746e-06
3.41409e-06
3.6185e-06
4.12052e-06
5.03571e-06
6.56282e-06
9.01073e-06
1.27648e-05
1.79628e-05
2.48965e-05
1.88899e-05
1.07747e-05
8.42175e-06
7.79607e-06
7.60787e-06
7.69659e-06
8.11839e-06
8.92106e-06
1.02812e-05
1.23912e-05
1.54715e-05
1.98555e-05
2.54125e-05
3.24034e-05
2.84638e-05
1.97313e-05
1.54422e-05
1.44887e-05
1.4644e-05
1.52684e-05
1.62718e-05
1.76898e-05
1.9753e-05
2.2553e-05
2.61967e-05
3.11222e-05
3.73154e-05
4.42123e-05
9.10742e-06
6.69349e-06
5.71824e-06
5.27998e-06
5.31735e-06
5.45207e-06
5.64068e-06
5.67097e-06
5.55477e-06
5.41084e-06
5.73995e-06
7.40016e-06
1.11549e-05
1.72256e-05
5.1904e-06
3.02369e-06
2.23693e-06
1.97513e-06
1.9639e-06
2.01445e-06
2.10039e-06
2.14841e-06
2.17944e-06
2.30122e-06
2.93172e-06
4.69444e-06
8.28044e-06
1.41646e-05
3.17583e-06
1.32223e-06
7.27131e-07
5.78953e-07
5.57104e-07
5.66169e-07
5.91397e-07
6.30207e-07
7.27441e-07
1.00456e-06
1.77721e-06
3.54819e-06
7.01057e-06
1.29069e-05
2.39814e-06
7.41353e-07
2.49788e-07
1.40563e-07
1.1951e-07
1.18573e-07
1.29342e-07
1.64663e-07
2.72762e-07
5.70103e-07
1.31605e-06
2.98322e-06
6.30571e-06
1.21625e-05
2.07179e-06
5.80786e-07
1.52706e-07
4.74622e-08
2.33544e-08
2.02186e-08
2.84144e-08
6.06418e-08
1.62653e-07
4.52311e-07
1.19413e-06
2.88744e-06
6.28916e-06
1.22631e-05
1.8977e-06
5.38808e-07
1.43484e-07
3.57938e-08
9.49501e-09
5.60554e-09
1.3149e-08
4.4739e-08
1.49273e-07
4.55589e-07
1.24786e-06
3.04235e-06
6.57553e-06
1.2622e-05
1.88682e-06
5.65286e-07
1.52676e-07
3.69761e-08
1.01139e-08
6.56308e-09
1.54716e-08
5.24103e-08
1.74582e-07
5.28725e-07
1.42329e-06
3.38007e-06
7.07543e-06
1.31319e-05
2.11758e-06
6.6642e-07
1.85549e-07
5.30798e-08
2.24932e-08
1.97209e-08
3.26271e-08
8.15143e-08
2.34604e-07
6.57684e-07
1.67746e-06
3.80239e-06
7.62476e-06
1.35871e-05
2.54073e-06
8.3298e-07
2.72638e-07
1.15867e-07
7.42033e-08
7.20317e-08
9.34013e-08
1.63457e-07
3.62598e-07
8.73941e-07
2.03339e-06
4.31253e-06
8.20103e-06
1.40111e-05
3.14614e-06
1.14401e-06
5.21371e-07
3.16074e-07
2.46138e-07
2.3915e-07
2.75783e-07
3.82604e-07
6.46492e-07
1.25673e-06
2.53518e-06
4.90146e-06
8.76654e-06
1.43673e-05
4.05495e-06
1.87288e-06
1.1687e-06
8.79138e-07
7.44832e-07
7.10819e-07
7.63656e-07
9.29981e-07
1.28533e-06
1.99934e-06
3.37217e-06
5.78997e-06
9.59727e-06
1.49666e-05
5.91941e-06
3.47735e-06
2.64324e-06
2.24628e-06
2.00661e-06
1.91191e-06
1.96461e-06
2.20077e-06
2.6847e-06
3.54256e-06
5.01968e-06
7.45686e-06
1.11688e-05
1.63678e-05
9.41298e-06
6.5094e-06
5.50878e-06
5.07299e-06
4.7605e-06
4.61494e-06
4.65728e-06
4.95593e-06
5.6068e-06
6.71683e-06
8.4532e-06
1.10688e-05
1.47529e-05
1.98044e-05
1.57417e-05
1.18311e-05
1.03508e-05
9.99532e-06
9.89352e-06
9.89222e-06
1.00561e-05
1.04723e-05
1.1294e-05
1.26869e-05
1.47905e-05
1.78265e-05
2.17371e-05
2.69093e-05
4.12474e-06
2.62246e-06
2.07129e-06
1.87233e-06
1.92711e-06
2.10134e-06
2.3669e-06
2.62629e-06
2.8148e-06
2.87376e-06
2.98371e-06
3.59523e-06
5.43432e-06
8.91518e-06
2.4179e-06
1.11988e-06
7.07342e-07
5.99735e-07
6.05233e-07
6.57108e-07
7.44697e-07
8.45543e-07
9.42674e-07
1.03493e-06
1.28402e-06
2.02853e-06
3.75412e-06
6.88194e-06
1.6257e-06
5.21063e-07
2.10065e-07
1.48706e-07
1.44101e-07
1.55106e-07
1.76719e-07
2.08609e-07
2.60887e-07
3.72905e-07
6.72037e-07
1.40024e-06
2.9491e-06
5.85727e-06
1.31634e-06
3.42759e-07
8.51513e-08
3.45486e-08
2.62811e-08
2.70843e-08
3.25733e-08
4.63975e-08
8.39779e-08
1.87807e-07
4.59388e-07
1.10807e-06
2.52505e-06
5.34607e-06
1.13474e-06
2.89848e-07
6.83146e-08
1.69705e-08
5.72255e-09
4.14123e-09
6.53943e-09
1.61648e-08
4.75697e-08
1.41429e-07
3.98687e-07