/*--------------------------------*- C++ -*----------------------------------*\
| =========                 |                                                 |
| \\      /  F ield         | OpenFOAM: The Open Source CFD Toolbox           |
|  \\    /   O peration     | Version:  v2106                                 |
|   \\  /    A nd           | Website:  www.openfoam.com                      |
|    \\/     M anipulation  |                                                 |
\*---------------------------------------------------------------------------*/
FoamFile
{
    version     2.0;
    format      ascii;
    arch        "LSB;label=32;scalar=64";
    class       surfaceScalarField;
    location    "0.000194";
    object      phi;
}
// * * * * * * * * * * * * * * * * * * * * * * * * * * * * * * * * * * * * * //

dimensions      [1 0 -1 0 0 0 0];

internalField   nonuniform List<scalar> 
53252
(
-1.07994e-10
-2.1172e-10
3.38487e-08
1.88684e-10
9.74393e-11
-8.88648e-11
-1.81939e-10
3.38718e-08
1.33675e-10
-8.77391e-11
-2.18296e-10
3.39149e-08
1.91514e-10
-8.74967e-11
-1.97389e-10
3.39504e-08
1.76123e-10
-9.30072e-11
-2.04131e-10
3.3979e-08
1.91601e-10
-1.01803e-10
-1.96004e-10
3.39929e-08
1.87731e-10
-1.0979e-10
-1.97401e-10
3.39975e-08
1.88656e-10
-1.17545e-10
-1.95205e-10
3.3993e-08
1.8638e-10
-1.25092e-10
-1.94336e-10
3.39823e-08
1.85165e-10
-1.31448e-10
-2.01473e-10
3.39665e-08
1.90822e-10
-1.31572e-10
-2.00155e-10
3.39363e-08
1.81916e-10
-1.305e-10
-2.26571e-10
3.38987e-08
2.03646e-10
-1.09023e-10
-1.96214e-10
3.3851e-08
1.49668e-10
-2.29125e-10
3.38211e-08
2.08041e-10
-1.15487e-10
-8.24494e-11
-1.92415e-10
3.38637e-08
3.56598e-11
-9.60651e-11
-1.95684e-10
3.38933e-08
-1.19629e-10
-2.17776e-10
3.39428e-08
-1.26945e-10
-2.08951e-10
3.39795e-08
-1.31042e-10
-2.14059e-10
3.4012e-08
-1.26052e-10
-2.11688e-10
3.40307e-08
-1.1606e-10
-2.15374e-10
3.40388e-08
-1.03944e-10
-2.14737e-10
3.4035e-08
-9.45324e-11
-2.13085e-10
3.40221e-08
-9.49263e-11
-2.13982e-10
3.40023e-08
-1.00249e-10
-2.1104e-10
3.39672e-08
-1.24075e-10
-2.21535e-10
3.39265e-08
-1.37571e-10
-2.04178e-10
3.38716e-08
-2.01654e-10
3.38353e-08
-1.84852e-10
-1.18762e-10
-1.88926e-10
3.39012e-08
9.15103e-11
-1.18119e-10
-2.18659e-10
3.39369e-08
-1.2576e-10
-2.25763e-10
3.39901e-08
-1.20614e-10
-2.25527e-10
3.40222e-08
-1.18067e-10
-2.23304e-10
3.40513e-08
-1.13927e-10
-2.20653e-10
3.40664e-08
-1.11668e-10
-2.20763e-10
3.40728e-08
-1.09629e-10
-2.19946e-10
3.40686e-08
-1.07098e-10
-2.20203e-10
3.40565e-08
-1.05996e-10
-2.21824e-10
3.40393e-08
-1.01185e-10
-2.25437e-10
3.40077e-08
-1.07863e-10
-2.26574e-10
3.39716e-08
-1.05184e-10
-2.23568e-10
3.39144e-08
-1.93533e-10
3.38731e-08
-1.29982e-10
-1.00171e-10
-1.88729e-10
3.39327e-08
8.0196e-11
-1.10078e-10
-2.267e-10
3.39678e-08
-1.25361e-10
-2.21763e-10
3.40163e-08
-1.2798e-10
-2.2982e-10
3.40464e-08
-1.27334e-10
-2.25975e-10
3.40742e-08
-1.21231e-10
-2.26686e-10
3.40895e-08
-1.14255e-10
-2.26068e-10
3.40965e-08
-1.06941e-10
-2.25792e-10
3.40925e-08
-1.01394e-10
-2.26171e-10
3.40801e-08
-1.01105e-10
-2.25414e-10
3.40622e-08
-1.03576e-10
-2.29561e-10
3.40312e-08
-1.16957e-10
-2.22047e-10
3.39964e-08
-1.2454e-10
-2.29085e-10
3.39442e-08
-1.90574e-10
3.39042e-08
-1.40994e-10
-1.09115e-10
-1.97103e-10
3.39577e-08
9.65326e-11
-1.16477e-10
-2.36112e-10
3.39951e-08
-1.2432e-10
-2.23872e-10
3.40403e-08
-1.25005e-10
-2.3455e-10
3.40687e-08
-1.22707e-10
-2.2896e-10
3.40942e-08
-1.17702e-10
-2.30492e-10
3.41086e-08
-1.12417e-10
-2.28902e-10
3.41149e-08
-1.07256e-10
-2.28908e-10
3.41108e-08
-1.03839e-10
-2.29577e-10
3.40987e-08
-1.03609e-10
-2.2853e-10
3.40812e-08
-1.05714e-10
-2.33631e-10
3.40519e-08
-1.12257e-10
-2.23824e-10
3.40186e-08
-1.17438e-10
-2.36524e-10
3.39699e-08
-1.97665e-10
3.39285e-08
-1.26111e-10
-1.01397e-10
-2.06942e-10
3.39681e-08
9.15776e-11
-1.13742e-10
-2.36678e-10
3.40093e-08
-1.21605e-10
-2.22823e-10
3.40506e-08
-1.25318e-10
-2.32691e-10
3.40789e-08
-1.23629e-10
-2.27947e-10
3.41033e-08
-1.19123e-10
-2.30379e-10
3.41178e-08
-1.13158e-10
-2.29035e-10
3.41241e-08
-1.07243e-10
-2.29439e-10
3.412e-08
-1.0401e-10
-2.29787e-10
3.41081e-08
-1.04276e-10
-2.28388e-10
3.40906e-08
-1.09192e-10
-2.3227e-10
3.40621e-08
-1.15577e-10
-2.23564e-10
3.40288e-08
-1.25305e-10
-2.36488e-10
3.39837e-08
-2.06895e-10
3.39387e-08
-1.31009e-10
-1.02557e-10
-2.15051e-10
3.39671e-08
9.38631e-11
-1.1771e-10
-2.29028e-10
3.40125e-08
-1.22239e-10
-2.20948e-10
3.40517e-08
-1.25402e-10
-2.27047e-10
3.40806e-08
-1.22657e-10
-2.23987e-10
3.4104e-08
-1.18383e-10
-2.26196e-10
3.41185e-08
-1.12558e-10
-2.25192e-10
3.41246e-08
-1.06871e-10
-2.25923e-10
3.41206e-08
-1.03977e-10
-2.2606e-10
3.41088e-08
-1.03681e-10
-2.25227e-10
3.40914e-08
-1.08502e-10
-2.27437e-10
3.40635e-08
-1.12072e-10
-2.22646e-10
3.403e-08
-1.24352e-10
-2.2944e-10
3.39866e-08
-2.15678e-10
3.39375e-08
-1.28473e-10
-1.00941e-10
-2.23824e-10
3.3957e-08
9.32268e-11
-1.18758e-10
-2.18462e-10
3.4004e-08
-1.22224e-10
-2.20375e-10
3.40423e-08
-1.25823e-10
-2.21373e-10
3.40715e-08
-1.22972e-10
-2.20694e-10
3.40946e-08
-1.18879e-10
-2.22392e-10
3.41092e-08
-1.12965e-10
-2.21906e-10
3.41154e-08
-1.07162e-10
-2.22969e-10
3.41115e-08
-1.04288e-10
-2.22952e-10
3.41e-08
-1.03786e-10
-2.22975e-10
3.40826e-08
-1.08757e-10
-2.23317e-10
3.40552e-08
-1.11191e-10
-2.23533e-10
3.40214e-08
-1.25707e-10
-2.20704e-10
3.39786e-08
-2.26329e-10
3.39278e-08
-1.28469e-10
-1.00935e-10
-2.31509e-10
3.39401e-08
9.41339e-11
-1.18937e-10
-2.07555e-10
3.39857e-08
-1.23209e-10
-2.18424e-10
3.40241e-08
-1.26887e-10
-2.15462e-10
3.4053e-08
-1.24108e-10
-2.17444e-10
3.40761e-08
-1.19762e-10
-2.19174e-10
3.40908e-08
-1.13531e-10
-2.1937e-10
3.40971e-08
-1.074e-10
-2.20843e-10
3.40934e-08
-1.04214e-10
-2.2074e-10
3.40822e-08
-1.03579e-10
-2.21254e-10
3.4065e-08
-1.08271e-10
-2.19759e-10
3.40376e-08
-1.11272e-10
-2.2374e-10
3.40043e-08
-1.25637e-10
-2.12598e-10
3.39613e-08
-2.3704e-10
3.39116e-08
-1.26825e-10
-1.06526e-10
-2.37417e-10
3.39171e-08
9.96949e-11
-1.19692e-10
-2.03596e-10
3.39591e-08
-1.24974e-10
-2.15885e-10
3.39995e-08
-1.27119e-10
-2.12296e-10
3.40277e-08
-1.2431e-10
-2.15383e-10
3.4051e-08
-1.19871e-10
-2.17357e-10
3.40657e-08
-1.14071e-10
-2.17607e-10
3.4072e-08
-1.08373e-10
-2.1937e-10
3.40684e-08
-1.0513e-10
-2.19482e-10
3.40574e-08
-1.04268e-10
-2.20206e-10
3.40403e-08
-1.07323e-10
-2.18052e-10
3.40129e-08
-1.11259e-10
-2.22635e-10
3.39802e-08
-1.21013e-10
-2.10616e-10
3.39354e-08
-2.45976e-10
3.38891e-08
-1.21533e-10
-1.06907e-10
-2.36454e-10
3.3883e-08
9.20423e-11
-1.1782e-10
-2.05459e-10
3.39199e-08
-1.29391e-10
-2.09544e-10
3.39634e-08
-1.31699e-10
-2.12034e-10
3.39915e-08
-1.29423e-10
-2.15816e-10
3.4016e-08
-1.23379e-10
-2.20047e-10
3.40313e-08
-1.15659e-10
-2.20423e-10
3.40382e-08
-1.07844e-10
-2.22553e-10
3.40348e-08
-1.02578e-10
-2.2263e-10
3.40237e-08
-1.01071e-10
-2.21961e-10
3.40065e-08
-1.03127e-10
-2.19199e-10
3.39783e-08
-1.12364e-10
-2.18008e-10
3.39458e-08
-1.19641e-10
-2.14195e-10
3.3898e-08
-2.46824e-10
3.38567e-08
-1.28575e-10
-1.33729e-10
-2.35694e-10
3.38422e-08
1.1475e-10
-1.26916e-10
-2.28299e-10
3.38752e-08
-1.30464e-10
-2.13537e-10
3.39235e-08
-1.25402e-10
-2.21805e-10
3.39523e-08
-1.22326e-10
-2.19432e-10
3.39779e-08
-1.18685e-10
-2.2301e-10
3.3993e-08
-1.15245e-10
-2.21423e-10
3.39996e-08
-1.11436e-10
-2.23657e-10
3.39963e-08
-1.08548e-10
-2.25078e-10
3.39856e-08
-1.06637e-10
-2.25473e-10
3.39691e-08
-1.02246e-10
-2.2836e-10
3.39406e-08
-1.05128e-10
-2.21612e-10
3.39077e-08
-9.65097e-11
-2.36802e-10
3.38549e-08
-2.46728e-10
3.38169e-08
-1.10044e-10
-1.02867e-10
-2.11006e-10
3.37891e-08
5.68834e-11
-1.10125e-10
-2.39093e-10
3.38147e-08
-1.30379e-10
-2.05881e-10
3.38618e-08
-1.35303e-10
-2.26156e-10
3.38957e-08
-1.36939e-10
-2.22836e-10
3.3925e-08
-1.30781e-10
-2.31265e-10
3.39431e-08
-1.19458e-10
-2.32387e-10
3.3951e-08
-1.06385e-10
-2.36017e-10
3.39479e-08
-9.70502e-11
-2.36375e-10
3.39367e-08
-9.62286e-11
-2.31609e-10
3.39183e-08
-1.00434e-10
-2.33281e-10
3.38866e-08
-1.21158e-10
-2.12811e-10
3.38488e-08
-1.28484e-10
-2.46147e-10
3.37967e-08
-2.20577e-10
3.37642e-08
-1.70349e-10
-1.35541e-10
3.37532e-08
-2.13815e-10
1.15182e-10
-1.05255e-10
3.37722e-08
-2.85335e-10
-9.84364e-11
3.38151e-08
-2.24907e-10
-9.4937e-11
3.38498e-08
-2.38235e-10
-1.0001e-10
3.38768e-08
-2.24597e-10
-1.08285e-10
3.38909e-08
-2.29816e-10
-1.14873e-10
3.3896e-08
-2.32268e-10
-1.20994e-10
3.38924e-08
-2.35936e-10
-1.28294e-10
3.38829e-08
-2.35637e-10
-1.35396e-10
3.38683e-08
-2.30564e-10
-1.3423e-10
3.38405e-08
-2.41367e-10
-1.3047e-10
3.38042e-08
-2.26479e-10
-1.01058e-10
3.37566e-08
-2.88667e-10
3.37304e-08
-1.12706e-10
-2.25895e-10
-1.25313e-10
-2.75024e-10
1.56829e-08
2.65514e-10
1.15674e-10
-1.15789e-10
-2.6198e-10
1.57124e-08
2.31167e-10
-1.20613e-10
-2.8507e-10
1.5757e-08
2.74095e-10
-1.22739e-10
-2.72894e-10
1.57974e-08
2.62313e-10
-1.28723e-10
-2.81088e-10
1.58307e-08
2.77046e-10
-1.33477e-10
-2.77308e-10
1.58507e-08
2.72359e-10
-1.36226e-10
-2.8058e-10
1.58606e-08
2.74675e-10
-1.35745e-10
-2.80119e-10
1.58604e-08
2.7238e-10
-1.35299e-10
-2.78127e-10
1.5853e-08
2.70195e-10
-1.37052e-10
-2.82023e-10
1.58401e-08
2.75664e-10
-1.35703e-10
-2.78025e-10
1.5813e-08
2.68264e-10
-1.35883e-10
-2.93789e-10
1.57787e-08
2.85346e-10
-1.21452e-10
-2.7676e-10
1.5738e-08
2.49487e-10
-2.9035e-10
1.57104e-08
2.87218e-10
-1.28293e-10
-1.11615e-10
-2.64452e-10
1.5711e-08
7.90685e-11
-1.27885e-10
-2.77635e-10
1.57562e-08
-1.4751e-10
-2.89614e-10
1.58067e-08
-1.52932e-10
-2.88133e-10
1.58474e-08
-1.55654e-10
-2.92873e-10
1.58819e-08
-1.50396e-10
-2.928e-10
1.5903e-08
-1.41781e-10
-2.95565e-10
1.59142e-08
-1.30286e-10
-2.95771e-10
1.59144e-08
-1.19498e-10
-2.94618e-10
1.59063e-08
-1.16044e-10
-2.95323e-10
1.58927e-08
-1.15234e-10
-2.93147e-10
1.58643e-08
-1.28781e-10
-2.96069e-10
1.58287e-08
-1.39616e-10
-2.88396e-10
1.57812e-08
-2.75212e-10
1.57385e-08
-1.67986e-10
-1.33999e-10
-2.70375e-10
1.57561e-08
1.21141e-10
-1.3845e-10
-2.98922e-10
1.58063e-08
-1.45037e-10
-2.98818e-10
1.58585e-08
-1.43793e-10
-3.02549e-10
1.58965e-08
-1.43563e-10
-3.01629e-10
1.59293e-08
-1.41037e-10
-3.01839e-10
1.59489e-08
-1.38199e-10
-3.02183e-10
1.59595e-08
-1.33753e-10
-3.01914e-10
1.59594e-08
-1.29318e-10
-3.01896e-10
1.59515e-08
-1.27727e-10
-3.02037e-10
1.59383e-08
-1.24222e-10
-3.04723e-10
1.59116e-08
-1.25399e-10
-3.02696e-10
1.58784e-08
-1.23406e-10
-3.06339e-10
1.58302e-08
-2.79157e-10
1.57837e-08
-1.2932e-10
-1.23519e-10
-2.75261e-10
1.57981e-08
1.11214e-10
-1.37355e-10
-3.08415e-10
1.58473e-08
-1.48452e-10
-3.01547e-10
1.58966e-08
-1.51522e-10
-3.10226e-10
1.59332e-08
-1.51456e-10
-3.07871e-10
1.59652e-08
-1.4714e-10
-3.09941e-10
1.59849e-08
-1.40671e-10
-3.09537e-10
1.5996e-08
-1.32601e-10
-3.08839e-10
1.59961e-08
-1.25761e-10
-3.08856e-10
1.59878e-08
-1.23083e-10
-3.072e-10
1.59739e-08
-1.2315e-10
-3.10099e-10
1.59474e-08
-1.28154e-10
-3.03141e-10
1.59149e-08
-1.35038e-10
-3.11921e-10
1.587e-08
-2.80006e-10
1.58254e-08
-1.41619e-10
-1.34328e-10
-2.83425e-10
1.58328e-08
1.28945e-10
-1.43574e-10
-3.16038e-10
1.58824e-08
-1.48707e-10
-3.04716e-10
1.59299e-08
-1.49537e-10
-3.14545e-10
1.59655e-08
-1.47953e-10
-3.107e-10
1.59961e-08
-1.44269e-10
-3.12841e-10
1.60153e-08
-1.38969e-10
-3.11629e-10
1.60259e-08
-1.32541e-10
-3.10524e-10
1.60259e-08
-1.27374e-10
-3.10629e-10
1.60176e-08
-1.24856e-10
-3.08401e-10
1.60036e-08
-1.24465e-10
-3.11713e-10
1.59781e-08
-1.25081e-10
-3.03614e-10
1.59464e-08
-1.27994e-10
-3.15742e-10
1.59037e-08
-2.84723e-10
1.58593e-08
-1.27134e-10
-1.31165e-10
-2.89581e-10
1.58537e-08
1.26117e-10
-1.4366e-10
-3.14868e-10
1.59045e-08
-1.49261e-10
-3.03941e-10
1.59502e-08
-1.51533e-10
-3.13322e-10
1.59859e-08
-1.49682e-10
-3.10086e-10
1.60159e-08
-1.45519e-10
-3.12344e-10
1.60352e-08
-1.39138e-10
-3.11199e-10
1.60459e-08
-1.31761e-10
-3.10002e-10
1.60459e-08
-1.26339e-10
-3.09926e-10
1.60377e-08
-1.23859e-10
-3.0726e-10
1.60234e-08
-1.25064e-10
-3.094e-10
1.59983e-08
-1.266e-10
-3.0153e-10
1.59667e-08
-1.32906e-10
-3.12627e-10
1.59259e-08
-2.88755e-10
1.58802e-08
-1.31654e-10
-1.36305e-10
-2.96656e-10
1.58646e-08
1.30324e-10
-1.48419e-10
-3.12575e-10
1.59171e-08
-1.50832e-10
-3.06125e-10
1.59622e-08
-1.51878e-10
-3.12904e-10
1.59983e-08
-1.48847e-10
-3.10706e-10
1.60276e-08
-1.44485e-10
-3.12232e-10
1.6047e-08
-1.38124e-10
-3.11166e-10
1.60575e-08
-1.30843e-10
-3.09961e-10
1.60576e-08
-1.25664e-10
-3.09761e-10
1.60495e-08
-1.2299e-10
-3.07418e-10
1.60353e-08
-1.23826e-10
-3.08352e-10
1.60105e-08
-1.23301e-10
-3.02728e-10
1.59787e-08
-1.29984e-10
-3.09307e-10
1.59386e-08
-2.94942e-10
1.58911e-08
-1.29572e-10
-1.37788e-10
-2.99636e-10
1.58651e-08
1.30592e-10
-1.50997e-10
-3.04832e-10
1.59185e-08
-1.52316e-10
-3.05295e-10
1.5963e-08
-1.52787e-10
-3.08691e-10
1.59994e-08
-1.49014e-10
-3.08164e-10
1.60284e-08
-1.44084e-10
-3.09014e-10
1.60479e-08
-1.37335e-10
-3.08269e-10
1.60585e-08
-1.29626e-10
-3.07243e-10
1.60585e-08
-1.24287e-10
-3.06883e-10
1.60505e-08
-1.21632e-10
-3.05177e-10
1.60365e-08
-1.22652e-10
-3.04535e-10
1.60119e-08
-1.2181e-10
-3.02027e-10
1.598e-08
-1.30286e-10
-3.01566e-10
1.59403e-08
-2.98239e-10
1.58918e-08
-1.31161e-10
-1.39672e-10
-2.98612e-10
1.5857e-08
1.32991e-10
-1.52802e-10
-2.92708e-10
1.59104e-08
-1.5354e-10
-3.00488e-10
1.59547e-08
-1.53245e-10
-3.00706e-10
1.5991e-08
-1.48933e-10
-3.02143e-10
1.602e-08
-1.43398e-10
-3.02671e-10
1.60396e-08
-1.36403e-10
-3.02403e-10
1.60502e-08
-1.28309e-10
-3.01775e-10
1.60502e-08
-1.22697e-10
-3.01189e-10
1.60424e-08
-1.20155e-10
-3.00077e-10
1.60287e-08
-1.21219e-10
-2.97667e-10
1.60041e-08
-1.20533e-10
-2.98237e-10
1.59723e-08
-1.29726e-10
-2.90119e-10
1.59327e-08
-2.98277e-10
1.58843e-08
-1.30283e-10
-1.43722e-10
-2.9762e-10
1.58418e-08
1.37867e-10
-1.54937e-10
-2.84108e-10
1.58946e-08
-1.55264e-10
-2.96416e-10
1.59391e-08
-1.53875e-10
-2.94563e-10
1.59751e-08
-1.49157e-10
-2.97108e-10
1.6004e-08
-1.43217e-10
-2.97543e-10
1.60235e-08
-1.3633e-10
-2.97486e-10
1.60342e-08
-1.28235e-10
-2.97256e-10
1.60342e-08
-1.22422e-10
-2.96519e-10
1.60267e-08
-1.19975e-10
-2.95965e-10
1.60136e-08
-1.20444e-10
-2.92688e-10
1.59893e-08
-1.19866e-10
-2.95316e-10
1.59581e-08
-1.27275e-10
-2.82518e-10
1.59183e-08
-2.99357e-10
1.58705e-08
-1.26503e-10
-1.42971e-10
-2.94028e-10
1.58173e-08
1.35088e-10
-1.54687e-10
-2.78098e-10
1.58688e-08
-1.58525e-10
-2.90124e-10
1.59145e-08
-1.56892e-10
-2.89947e-10
1.59501e-08
-1.51945e-10
-2.93008e-10
1.59795e-08
-1.44552e-10
-2.94429e-10
1.59992e-08
-1.36481e-10
-2.94435e-10
1.60104e-08
-1.26924e-10
-2.94833e-10
1.60107e-08
-1.19464e-10
-2.94367e-10
1.60034e-08
-1.16606e-10
-2.93878e-10
1.59908e-08
-1.16742e-10
-2.90304e-10
1.59663e-08
-1.19841e-10
-2.91111e-10
1.59356e-08
-1.27646e-10
-2.78928e-10
1.58944e-08
-2.98673e-10
1.5848e-08
-1.29342e-10
-1.5957e-10
-2.92783e-10
1.57855e-08
1.54953e-10
-1.57165e-10
-2.878e-10
1.58361e-08
-1.57001e-10
-2.87674e-10
1.58841e-08
-1.51678e-10
-2.89653e-10
1.59202e-08
-1.46874e-10
-2.89302e-10
1.59501e-08
-1.40558e-10
-2.91029e-10
1.59697e-08
-1.34941e-10
-2.8974e-10
1.59806e-08
-1.27853e-10
-2.90523e-10
1.59807e-08
-1.22082e-10
-2.90631e-10
1.59736e-08
-1.20292e-10
-2.90662e-10
1.59615e-08
-1.17803e-10
-2.90618e-10
1.59369e-08
-1.1831e-10
-2.89269e-10
1.59062e-08
-1.1409e-10
-2.89412e-10
1.58627e-08
-2.99232e-10
1.5817e-08
-1.14009e-10
-1.45643e-10
-2.74475e-10
1.57448e-08
1.2193e-10
-1.52303e-10
-2.93267e-10
1.57889e-08
-1.64146e-10
-2.79467e-10
1.5837e-08
-1.6275e-10
-2.90406e-10
1.58759e-08
-1.59259e-10
-2.87547e-10
1.59079e-08
-1.49376e-10
-2.9243e-10
1.59289e-08
-1.3802e-10
-2.91293e-10
1.59403e-08
-1.24084e-10
-2.9353e-10
1.59409e-08
-1.11806e-10
-2.93799e-10
1.59338e-08
-1.07858e-10
-2.91494e-10
1.59214e-08
-1.07694e-10
-2.92325e-10
1.58955e-08
-1.20599e-10
-2.80861e-10
1.58624e-08
-1.27351e-10
-2.94089e-10
1.58185e-08
-2.79402e-10
1.57771e-08
-1.50241e-10
-1.60232e-10
1.57169e-08
-2.76849e-10
1.61338e-10
-1.38195e-10
1.57463e-08
-3.16937e-10
-1.36472e-10
1.57915e-08
-2.77404e-10
-1.31135e-10
1.58318e-08
-2.89277e-10
-1.32027e-10
1.58637e-08
-2.78213e-10
-1.3249e-10
1.58833e-08
-2.83315e-10
-1.33207e-10
1.58934e-08
-2.82721e-10
-1.31036e-10
1.58937e-08
-2.8711e-10
-1.29867e-10
1.58873e-08
-2.86752e-10
-1.33438e-10
1.5876e-08
-2.82393e-10
-1.32812e-10
1.58511e-08
-2.88462e-10
-1.3368e-10
1.58181e-08
-2.76464e-10
-1.13821e-10
1.57773e-08
-3.1477e-10
1.57494e-08
-1.13645e-10
-2.78525e-10
-9.54938e-11
-2.34854e-10
-1.26955e-09
2.30701e-10
8.62606e-11
-8.64698e-11
-2.21794e-10
-1.238e-09
1.96127e-10
-8.90536e-11
-2.21136e-10
-1.19653e-09
2.10415e-10
-9.17814e-11
-2.15415e-10
-1.15618e-09
2.05432e-10
-9.94113e-11
-2.19247e-10
-1.12433e-09
2.15594e-10
-1.08834e-10
-2.20863e-10
-1.10238e-09
2.16382e-10
-1.1762e-10
-2.23906e-10
-1.08941e-09
2.18984e-10
-1.23124e-10
-2.25407e-10
-1.08451e-09
2.1938e-10
-1.27741e-10
-2.26087e-10
-1.08888e-09
2.19196e-10
-1.27858e-10
-2.28128e-10
-1.10056e-09
2.1934e-10
-1.21941e-10
-2.29024e-10
-1.12277e-09
2.16172e-10
-1.12911e-10
-2.38159e-10
-1.15267e-09
2.23952e-10
-9.89122e-11
-2.45725e-10
-1.18523e-09
2.23012e-10
-2.54581e-10
-1.20741e-09
2.55925e-10
-1.08125e-10
-7.36209e-11
-2.24988e-10
-1.23539e-09
4.63981e-11
-8.95315e-11
-2.35347e-10
-1.18041e-09
-1.03162e-10
-2.31601e-10
-1.13692e-09
-1.09255e-10
-2.31146e-10
-1.09853e-09
-1.14095e-10
-2.32626e-10
-1.06826e-09
-1.19192e-10
-2.33982e-10
-1.047e-09
-1.22868e-10
-2.35755e-10
-1.03431e-09
-1.23452e-10
-2.3701e-10
-1.02971e-09
-1.23801e-10
-2.38287e-10
-1.03404e-09
-1.21871e-10
-2.40647e-10
-1.04558e-09
-1.19103e-10
-2.42534e-10
-1.06656e-09
-1.22186e-10
-2.46124e-10
-1.09497e-09
-1.31587e-10
-2.53463e-10
-1.12991e-09
-2.41488e-10
-1.17533e-09
-1.52774e-10
-7.47602e-11
-2.3194e-10
-1.18872e-09
6.52451e-11
-8.54437e-11
-2.51147e-10
-1.13244e-09
-9.34703e-11
-2.42603e-10
-1.08965e-09
-9.96282e-11
-2.44109e-10
-1.05179e-09
-1.06363e-10
-2.42931e-10
-1.02178e-09
-1.15021e-10
-2.43982e-10
-1.0002e-09
-1.22409e-10
-2.44609e-10
-9.87257e-10
-1.26763e-10
-2.45354e-10
-9.82645e-10
-1.31555e-10
-2.46719e-10
-9.86983e-10
-1.32509e-10
-2.489e-10
-9.99343e-10
-1.31565e-10
-2.5197e-10
-1.0199e-09
-1.30776e-10
-2.53478e-10
-1.04783e-09
-1.33967e-10
-2.64036e-10
-1.08173e-09
-2.45684e-10
-1.12799e-09
-1.36189e-10
-6.97671e-11
-2.39264e-10
-1.14344e-09
6.0244e-11
-8.4526e-11
-2.61937e-10
-1.08983e-09
-9.475e-11
-2.52852e-10
-1.04763e-09
-1.03166e-10
-2.57038e-10
-1.01028e-09
-1.10387e-10
-2.55414e-10
-9.80557e-10
-1.18552e-10
-2.56587e-10
-9.59092e-10
-1.24493e-10
-2.56294e-10
-9.4624e-10
-1.27697e-10
-2.56483e-10
-9.41788e-10
-1.32324e-10
-2.56947e-10
-9.46024e-10
-1.32984e-10
-2.57815e-10
-9.59045e-10
-1.3381e-10
-2.60227e-10
-9.79267e-10
-1.34765e-10
-2.5865e-10
-1.007e-09
-1.3986e-10
-2.69291e-10
-1.04011e-09
-2.47398e-10
-1.08315e-09
-1.42376e-10
-7.58586e-11
-2.51084e-10
-1.10682e-09
7.30925e-11
-8.74191e-11
-2.71807e-10
-1.05517e-09
-9.45417e-11
-2.63372e-10
-1.01324e-09
-1.01908e-10
-2.6861e-10
-9.76271e-10
-1.08959e-10
-2.66824e-10
-9.46625e-10
-1.1773e-10
-2.67738e-10
-9.25226e-10
-1.24306e-10
-2.66752e-10
-9.12442e-10
-1.28403e-10
-2.6658e-10
-9.08145e-10
-1.34141e-10
-2.65725e-10
-9.12359e-10
-1.35022e-10
-2.65074e-10
-9.25816e-10
-1.35591e-10
-2.66738e-10
-9.4578e-10
-1.34571e-10
-2.63156e-10
-9.73273e-10
-1.36848e-10
-2.72849e-10
-1.00586e-09
-2.53409e-10
-1.04682e-09
-1.31951e-10
-7.81282e-11
-2.63004e-10
-1.08e-09
7.48335e-11
-8.9326e-11
-2.80363e-10
-1.02895e-09
-9.57444e-11
-2.75013e-10
-9.86556e-10
-1.02896e-10
-2.8066e-10
-9.49745e-10
-1.09511e-10
-2.7957e-10
-9.20222e-10
-1.1789e-10
-2.80191e-10
-8.9891e-10
-1.2415e-10
-2.78605e-10
-8.86225e-10
-1.2768e-10
-2.78032e-10
-8.8209e-10
-1.33233e-10
-2.75634e-10
-8.86364e-10
-1.34605e-10
-2.73305e-10
-8.99982e-10
-1.3584e-10
-2.73618e-10
-9.19752e-10
-1.34961e-10
-2.68618e-10
-9.47137e-10
-1.3736e-10
-2.75327e-10
-9.79923e-10
-2.59635e-10
-1.02043e-09
-1.32946e-10
-8.32752e-11
-2.7392e-10
-1.06242e-09
7.88779e-11
-9.26275e-11
-2.8753e-10
-1.01161e-09
-9.74463e-11
-2.85878e-10
-9.68739e-10
-1.03345e-10
-2.91047e-10
-9.31933e-10
-1.09087e-10
-2.90934e-10
-9.0245e-10
-1.16825e-10
-2.91252e-10
-8.81186e-10
-1.22794e-10
-2.89266e-10
-8.68521e-10
-1.26123e-10
-2.88441e-10
-8.64474e-10
-1.31468e-10
-2.85074e-10
-8.68889e-10
-1.33211e-10
-2.81792e-10
-8.82394e-10
-1.34587e-10
-2.8107e-10
-9.02016e-10
-1.33177e-10
-2.75946e-10
-9.2935e-10
-1.34762e-10
-2.78951e-10
-9.62422e-10
-2.67051e-10
-1.0028e-09
-1.31815e-10
-8.68351e-11
-2.79946e-10
-1.05302e-09
8.11938e-11
-9.5929e-11
-2.8903e-10
-1.0025e-09
-9.96506e-11
-2.9128e-10
-9.59396e-10
-1.04234e-10
-2.95183e-10
-9.22626e-10
-1.08785e-10
-2.96028e-10
-8.9317e-10
-1.15491e-10
-2.96172e-10
-8.71913e-10
-1.20674e-10
-2.9434e-10
-8.59198e-10
-1.23943e-10
-2.9352e-10
-8.55153e-10
-1.29081e-10
-2.90117e-10
-8.5977e-10
-1.30979e-10
-2.86911e-10
-8.72941e-10
-1.32658e-10
-2.8526e-10
-8.92475e-10
-1.31184e-10
-2.80983e-10
-9.19724e-10
-1.33315e-10
-2.79755e-10
-9.5286e-10
-2.72182e-10
-9.93018e-10
-1.31814e-10
-9.04942e-11
-2.8464e-10
-1.05113e-09
8.36632e-11
-9.87099e-11
-2.9081e-10
-1.00075e-09
-1.01763e-10
-2.97262e-10
-9.57748e-10
-1.05076e-10
-3.00692e-10
-9.211e-10
-1.0853e-10
-3.02484e-10
-8.91811e-10
-1.14369e-10
-3.02488e-10
-8.70579e-10
-1.19e-10
-3.00941e-10
-8.57752e-10
-1.22056e-10
-2.99736e-10
-8.53588e-10
-1.26673e-10
-2.96001e-10
-8.5833e-10
-1.2871e-10
-2.92005e-10
-8.70946e-10
-1.30343e-10
-2.88481e-10
-8.90517e-10
-1.29024e-10
-2.84287e-10
-9.17599e-10
-1.31586e-10
-2.78509e-10
-9.5061e-10
-2.74761e-10
-9.90542e-10
-1.31572e-10
-9.55739e-11
-2.86019e-10
-1.05766e-09
8.89112e-11
-1.02809e-10
-2.89066e-10
-1.00712e-09
-1.04764e-10
-2.99495e-10
-9.64047e-10
-1.06426e-10
-3.02875e-10
-9.27397e-10
-1.08166e-10
-3.05641e-10
-8.98066e-10
-1.12555e-10
-3.05886e-10
-8.76845e-10
-1.16712e-10
-3.04671e-10
-8.63993e-10
-1.18637e-10
-3.03505e-10
-8.59791e-10
-1.2212e-10
-2.9961e-10
-8.64714e-10
-1.24875e-10
-2.95043e-10
-8.76807e-10
-1.26782e-10
-2.90152e-10
-8.96683e-10
-1.2579e-10
-2.86162e-10
-9.23677e-10
-1.28932e-10
-2.75757e-10
-9.56691e-10
-2.76105e-10
-9.96767e-10
-1.29055e-10
-1.00844e-10
-2.77783e-10
-1.07329e-09
8.97641e-11
-1.0821e-10
-2.81614e-10
-1.02203e-09
-1.09539e-10
-2.94647e-10
-9.78781e-10
-1.09191e-10
-2.98469e-10
-9.41953e-10
-1.08831e-10
-3.01405e-10
-9.12568e-10
-1.11339e-10
-3.0215e-10
-8.91196e-10
-1.14464e-10
-3.01233e-10
-8.78267e-10
-1.14868e-10
-3.00158e-10
-8.74011e-10
-1.16805e-10
-2.96936e-10
-8.79146e-10
-1.19589e-10
-2.93345e-10
-8.9078e-10
-1.21477e-10
-2.88632e-10
-9.10632e-10
-1.21274e-10
-2.85322e-10
-9.37324e-10
-1.25449e-10
-2.72253e-10
-9.70118e-10
-2.73109e-10
-1.01083e-09
-1.29167e-10
-1.09413e-10
-2.65556e-10
-1.09669e-09
9.79757e-11
-1.1147e-10
-2.79127e-10
-1.044e-09
-1.11263e-10
-2.89811e-10
-1.00069e-09
-1.08999e-10
-2.93647e-10
-9.64209e-10
-1.07415e-10
-2.9533e-10
-9.34883e-10
-1.09313e-10
-2.95962e-10
-9.13503e-10
-1.12428e-10
-2.95046e-10
-9.00432e-10
-1.13039e-10
-2.93859e-10
-8.95807e-10
-1.14555e-10
-2.91989e-10
-9.00629e-10
-1.17857e-10
-2.89576e-10
-9.11433e-10
-1.19526e-10
-2.8589e-10
-9.31263e-10
-1.19388e-10
-2.83107e-10
-9.57609e-10
-1.19654e-10
-2.72855e-10
-9.90432e-10
-2.68588e-10
-1.03292e-09
-1.21794e-10
-1.20398e-10
-2.47261e-10
-1.12419e-09
1.02027e-10
-1.21431e-10
-2.81405e-10
-1.07336e-09
-1.23505e-10
-2.86776e-10
-1.02921e-09
-1.20175e-10
-2.91486e-10
-9.92262e-10
-1.15845e-10
-2.91783e-10
-9.62492e-10
-1.13621e-10
-2.91983e-10
-9.41153e-10
-1.1239e-10
-2.90702e-10
-9.28133e-10
-1.08412e-10
-2.90067e-10
-9.23364e-10
-1.05374e-10
-2.89215e-10
-9.27945e-10
-1.05422e-10
-2.87528e-10
-9.38345e-10
-1.0537e-10
-2.84908e-10
-9.5821e-10
-1.08956e-10
-2.796e-10
-9.84656e-10
-1.12327e-10
-2.73383e-10
-1.0176e-09
-2.52892e-10
-1.05869e-09
-1.27305e-10
-1.28796e-10
-1.14269e-09
-2.53062e-10
1.37672e-10
-1.09608e-10
-1.11256e-09
-2.94548e-10
-1.0683e-10
-1.06888e-09
-2.79695e-10
-1.00695e-10
-1.02918e-09
-2.84449e-10
-1.0057e-10
-9.98027e-10
-2.77622e-10
-1.03689e-10
-9.76506e-10
-2.7846e-10
-1.08002e-10
-9.63607e-10
-2.78454e-10
-1.09017e-10
-9.58569e-10
-2.79315e-10
-1.10917e-10
-9.62753e-10
-2.79299e-10
-1.15199e-10
-9.73493e-10
-2.77788e-10
-1.15573e-10
-9.94e-10
-2.78437e-10
-1.15677e-10
-1.02212e-09
-2.73006e-10
-1.02936e-10
-1.05408e-09
-2.83527e-10
-1.07801e-09
-9.87872e-11
-2.53491e-10
-8.33153e-11
-1.8009e-10
-1.69842e-08
1.81558e-10
8.41218e-11
-5.64763e-11
-1.53504e-10
-1.69498e-08
1.2215e-10
-5.18027e-11
-1.40446e-10
-1.69156e-08
1.28997e-10
-5.35073e-11
-1.36255e-10
-1.68826e-08
1.31395e-10
-6.04514e-11
-1.36094e-10
-1.68578e-08
1.37069e-10
-6.81263e-11
-1.37677e-10
-1.68398e-08
1.39636e-10
-7.46029e-11
-1.40208e-10
-1.68289e-08
1.42363e-10
-7.82761e-11
-1.42576e-10
-1.6824e-08
1.44258e-10
-8.22937e-11
-1.43211e-10
-1.68248e-08
1.44934e-10
-8.07959e-11
-1.45665e-10
-1.68327e-08
1.44307e-10
-7.20823e-11
-1.49609e-10
-1.68484e-08
1.42593e-10
-5.56882e-11
-1.55865e-10
-1.68715e-08
1.41332e-10
-2.29915e-11
-1.75274e-10
-1.6897e-08
1.45222e-10
-1.99089e-10
-1.69218e-08
2.05377e-10
-2.23075e-11
-4.7263e-11
-1.56142e-10
-1.69469e-08
1.80168e-11
-5.0757e-11
-1.57016e-10
-1.68985e-08
-5.60508e-11
-1.43981e-10
-1.68657e-08
-5.97642e-11
-1.42823e-10
-1.68349e-08
-6.52766e-11
-1.41746e-10
-1.68113e-08
-7.21413e-11
-1.42772e-10
-1.67932e-08
-7.84479e-11
-1.44395e-10
-1.67824e-08
-8.16569e-11
-1.46877e-10
-1.67777e-08
-8.43888e-11
-1.47791e-10
-1.67788e-08
-8.21051e-11
-1.51345e-10
-1.67873e-08
-7.54776e-11
-1.5599e-10
-1.6802e-08
-7.04031e-11
-1.59078e-10
-1.68235e-08
-6.91108e-11
-1.7507e-10
-1.68474e-08
-1.73446e-10
-1.68855e-08
-9.33387e-11
-3.64428e-11
-1.55015e-10
-1.69071e-08
2.79309e-11
-3.83111e-11
-1.64173e-10
-1.68603e-08
-4.33567e-11
-1.51242e-10
-1.68276e-08
-5.03177e-11
-1.51012e-10
-1.67967e-08
-5.99379e-11
-1.49101e-10
-1.67728e-08
-7.05363e-11
-1.49846e-10
-1.67543e-08
-8.00796e-11
-1.50892e-10
-1.67431e-08
-8.63123e-11
-1.53001e-10
-1.67383e-08
-9.15728e-11
-1.53914e-10
-1.67395e-08
-9.29339e-11
-1.57187e-10
-1.67481e-08
-8.97867e-11
-1.61711e-10
-1.67627e-08
-8.54365e-11
-1.63314e-10
-1.67842e-08
-8.11195e-11
-1.78257e-10
-1.68076e-08
-1.68925e-10
-1.68444e-08
-8.46056e-11
-3.24645e-11
-1.59316e-10
-1.68691e-08
3.01863e-11
-3.68541e-11
-1.69981e-10
-1.6825e-08
-4.29973e-11
-1.60171e-10
-1.6792e-08
-5.13805e-11
-1.61515e-10
-1.67612e-08
-6.1428e-11
-1.60092e-10
-1.67374e-08
-7.24573e-11
-1.6089e-10
-1.67188e-08
-8.22819e-11
-1.61538e-10
-1.67077e-08
-8.89279e-11
-1.62976e-10
-1.67029e-08
-9.32819e-11
-1.63605e-10
-1.67041e-08
-9.44635e-11
-1.65576e-10
-1.67128e-08
-9.28983e-11
-1.6867e-10
-1.6727e-08
-8.9253e-11
-1.6855e-10
-1.67487e-08
-8.61227e-11
-1.79848e-10
-1.67723e-08
-1.69064e-10
-1.68063e-08
-8.22588e-11
-3.32697e-11
-1.68218e-10
-1.68386e-08
3.70576e-11
-3.63346e-11
-1.77131e-10
-1.67962e-08
-4.12858e-11
-1.71439e-10
-1.67625e-08
-4.99723e-11
-1.73427e-10
-1.67318e-08
-6.06089e-11
-1.72581e-10
-1.67078e-08
-7.26367e-11
-1.73212e-10
-1.66892e-08
-8.34523e-11
-1.73395e-10
-1.66782e-08
-9.12504e-11
-1.73948e-10
-1.66735e-08
-9.56681e-11
-1.74055e-10
-1.66747e-08
-9.71893e-11
-1.74338e-10
-1.66835e-08
-9.6055e-11
-1.75954e-10
-1.66976e-08
-9.12649e-11
-1.74947e-10
-1.67193e-08
-8.68602e-11
-1.81354e-10
-1.67435e-08
-1.72608e-10
-1.67758e-08
-7.66085e-11
-3.53409e-11
-1.76961e-10
-1.68146e-08
3.98768e-11
-3.77103e-11
-1.84831e-10
-1.67722e-08
-4.21485e-11
-1.82777e-10
-1.6738e-08
-5.06687e-11
-1.85335e-10
-1.67073e-08
-6.10503e-11
-1.85328e-10
-1.66833e-08
-7.30351e-11
-1.85873e-10
-1.66649e-08
-8.38516e-11
-1.85655e-10
-1.66539e-08
-9.16013e-11
-1.85266e-10
-1.66494e-08
-9.59185e-11
-1.84601e-10
-1.66508e-08
-9.74075e-11
-1.83123e-10
-1.66597e-08
-9.63227e-11
-1.82906e-10
-1.66736e-08
-9.13927e-11
-1.8089e-10
-1.66954e-08
-8.61381e-11
-1.83163e-10
-1.67201e-08
-1.75672e-10
-1.67524e-08
-7.49939e-11
-3.86839e-11
-1.84257e-10
-1.67971e-08
4.30895e-11
-3.98451e-11
-1.92398e-10
-1.6755e-08
-4.34182e-11
-1.93408e-10
-1.67201e-08
-5.12857e-11
-1.96353e-10
-1.66894e-08
-6.11945e-11
-1.97217e-10
-1.66653e-08
-7.28427e-11
-1.97627e-10
-1.6647e-08
-8.33429e-11
-1.97037e-10
-1.66362e-08
-9.08343e-11
-1.95671e-10
-1.66318e-08
-9.51013e-11
-1.94095e-10
-1.66334e-08
-9.65377e-11
-1.90956e-10
-1.66425e-08
-9.53401e-11
-1.8887e-10
-1.66566e-08
-9.00811e-11
-1.86045e-10
-1.66783e-08
-8.38406e-11
-1.8504e-10
-1.67034e-08
-1.7743e-10
-1.67355e-08
-7.32427e-11
-4.18932e-11
-1.88716e-10
-1.67851e-08
4.55649e-11
-4.27309e-11
-1.97445e-10
-1.67433e-08
-4.55641e-11
-2.01454e-10
-1.6708e-08
-5.24816e-11
-2.049e-10
-1.66772e-08
-6.14173e-11
-2.06748e-10
-1.6653e-08
-7.21145e-11
-2.07049e-10
-1.6635e-08
-8.17711e-11
-2.06107e-10
-1.66243e-08
-8.86142e-11
-2.03802e-10
-1.66201e-08
-9.27269e-11
-2.01413e-10
-1.66219e-08
-9.40529e-11
-1.96802e-10
-1.66311e-08
-9.29623e-11
-1.92887e-10
-1.66454e-08
-8.7797e-11
-1.89553e-10
-1.66671e-08
-8.18436e-11
-1.85554e-10
-1.66924e-08
-1.77715e-10
-1.6724e-08
-7.24009e-11
-4.47087e-11
-1.89444e-10
-1.67789e-08
4.73707e-11
-4.59035e-11
-1.97683e-10
-1.67376e-08
-4.80505e-11
-2.04949e-10
-1.6702e-08
-5.39185e-11
-2.08621e-10
-1.66712e-08
-6.16911e-11
-2.114e-10
-1.66469e-08
-7.11735e-11
-2.1158e-10
-1.66289e-08
-7.976e-11
-2.10326e-10
-1.66184e-08
-8.57766e-11
-2.07366e-10
-1.66144e-08
-8.97941e-11
-2.04541e-10
-1.66165e-08
-9.08683e-11
-1.99106e-10
-1.66258e-08
-8.98162e-11
-1.93614e-10
-1.66405e-08
-8.49868e-11
-1.90146e-10
-1.6662e-08
-8.00789e-11
-1.83129e-10
-1.66875e-08
-1.75999e-10
-1.67184e-08
-7.19211e-11
-4.82447e-11
-1.88379e-10
-1.67788e-08
4.93682e-11
-4.96777e-11
-1.95521e-10
-1.67383e-08
-5.09999e-11
-2.06217e-10
-1.67024e-08
-5.53844e-11
-2.09565e-10
-1.66716e-08
-6.15356e-11
-2.12617e-10
-1.66472e-08
-6.9299e-11
-2.12551e-10
-1.66293e-08
-7.64758e-11
-2.11093e-10
-1.66188e-08
-8.1379e-11
-2.07982e-10
-1.6615e-08
-8.55931e-11
-2.04601e-10
-1.66173e-08
-8.68264e-11
-1.99765e-10
-1.66266e-08
-8.58848e-11
-1.94128e-10
-1.66417e-08
-8.18883e-11
-1.90866e-10
-1.66631e-08
-7.80962e-11
-1.80683e-10
-1.66886e-08
-1.75043e-10
-1.67187e-08
-7.16112e-11
-5.26998e-11
-1.82018e-10
-1.67852e-08
5.13171e-11