/*--------------------------------*- C++ -*----------------------------------*\
| =========                 |                                                 |
| \\      /  F ield         | OpenFOAM: The Open Source CFD Toolbox           |
|  \\    /   O peration     | Version:  v2106                                 |
|   \\  /    A nd           | Website:  www.openfoam.com                      |
|    \\/     M anipulation  |                                                 |
\*---------------------------------------------------------------------------*/
FoamFile
{
    version     2.0;
    format      ascii;
    arch        "LSB;label=32;scalar=64";
    class       volVectorField;
    location    "0.000148";
    object      U;
}
// * * * * * * * * * * * * * * * * * * * * * * * * * * * * * * * * * * * * * //

dimensions      [0 1 -1 0 0 0 0];

internalField   nonuniform List<vector> 
17920
(
(0.0291627 -0.040134 4.29099)
(0.0327733 -0.0392181 4.29361)
(0.0285836 -0.0343342 4.28882)
(0.0338483 -0.034465 4.29155)
(0.0289576 -0.0285145 4.28845)
(0.0338793 -0.029001 4.2908)
(0.0286993 -0.0228125 4.28792)
(0.0336668 -0.0232122 4.2903)
(0.0284415 -0.0171538 4.28775)
(0.0335697 -0.0173514 4.2899)
(0.0281909 -0.011636 4.28758)
(0.0335486 -0.0115975 4.28947)
(0.0281893 -0.00605585 4.28778)
(0.0337269 -0.00583979 4.28937)
(0.0283209 -0.000699908 4.28803)
(0.0339019 -0.000288575 4.28949)
(0.0285154 0.00465547 4.28825)
(0.0340108 0.00526857 4.28991)
(0.0289458 0.00997271 4.28892)
(0.0342908 0.0108152 4.29078)
(0.0294515 0.0153312 4.28947)
(0.0346825 0.0163496 4.29168)
(0.0298422 0.0206518 4.29058)
(0.0350754 0.021658 4.29287)
(0.0295548 0.0261323 4.29156)
(0.0353574 0.0264765 4.29421)
(0.0296441 0.0312993 4.29457)
(0.0343366 0.0299999 4.29688)
(-0.0419879 -0.0433378 3.9716)
(-0.0364381 -0.0431927 3.9703)
(-0.0301737 -0.0438325 3.9701)
(-0.0236464 -0.0435289 3.96997)
(-0.0170766 -0.0434585 3.96971)
(-0.0106138 -0.0433692 3.9693)
(-0.00426062 -0.0433733 3.96902)
(0.00219387 -0.0433555 3.96896)
(0.00855996 -0.0433705 3.96913)
(0.0150282 -0.0435491 3.9696)
(0.0215655 -0.0437345 3.96991)
(0.0280327 -0.0440884 3.97028)
(0.0342064 -0.043582 3.97067)
(0.0394912 -0.0433477 3.97236)
(-0.0420392 -0.0379367 3.97004)
(-0.0359602 -0.0371421 3.96873)
(-0.0296602 -0.0379198 3.96859)
(-0.0233665 -0.0376607 3.96825)
(-0.0170096 -0.0374537 3.96817)
(-0.0106679 -0.0372077 3.96808)
(-0.00432494 -0.0371246 3.9681)
(0.00214062 -0.0370999 3.96819)
(0.00848152 -0.037189 3.96819)
(0.0148002 -0.0374707 3.96839)
(0.0210696 -0.0377469 3.96855)
(0.0272491 -0.0380723 3.96914)
(0.0334484 -0.037417 3.96958)
(0.0394969 -0.0376803 3.97146)
(-0.0426849 -0.0317026 3.96974)
(-0.0366673 -0.0309669 3.9685)
(-0.0302548 -0.0316517 3.96855)
(-0.0238945 -0.031444 3.968)
(-0.0174252 -0.0312401 3.96787)
(-0.0109238 -0.03102 3.96757)
(-0.00437356 -0.0309533 3.96736)
(0.00223275 -0.0309321 3.96743)
(0.00875394 -0.0309954 3.96765)
(0.0152296 -0.0312053 3.96812)
(0.0216424 -0.0314096 3.96845)
(0.0279118 -0.0316443 3.96925)
(0.0342143 -0.031073 3.96954)
(0.0401476 -0.0313865 3.97127)
(-0.0423 -0.0252497 3.96975)
(-0.0362927 -0.0248256 3.96824)
(-0.0299528 -0.0254001 3.96804)
(-0.0237006 -0.0252609 3.96734)
(-0.0173216 -0.0250734 3.96712)
(-0.0108803 -0.024876 3.96689)
(-0.00436112 -0.0247959 3.96675)
(0.00220964 -0.02477 3.96687)
(0.0087021 -0.0248321 3.96708)
(0.0151434 -0.0249985 3.9675)
(0.0215077 -0.0251494 3.96791)
(0.0277173 -0.0252874 3.96887)
(0.0339894 -0.0247731 3.96938)
(0.0399006 -0.0248767 3.97126)
(-0.0421101 -0.0187875 3.96968)
(-0.0360087 -0.0186283 3.96825)
(-0.0297235 -0.0190352 3.96799)
(-0.0235209 -0.0189406 3.96721)
(-0.0171935 -0.0187821 3.96688)
(-0.0108031 -0.0186343 3.96659)
(-0.00432314 -0.0185633 3.96639)
(0.00219468 -0.0185401 3.96651)
(0.00864341 -0.0185872 3.96679)
(0.0150411 -0.0186972 3.96728)
(0.0213674 -0.0187952 3.96781)
(0.0275547 -0.0188611 3.96884)
(0.0338207 -0.0184522 3.96942)
(0.0398542 -0.0183567 3.97116)
(-0.0418777 -0.0123025 3.96954)
(-0.0356748 -0.0123788 3.96832)
(-0.0294547 -0.0126068 3.96777)
(-0.023296 -0.0125612 3.96702)
(-0.0170329 -0.0124512 3.96661)
(-0.0107063 -0.0123576 3.96634)
(-0.00428427 -0.0123024 3.96613)
(0.00217904 -0.0122823 3.96626)
(0.00857462 -0.0123108 3.96655)
(0.0149246 -0.0123629 3.96702)
(0.0212033 -0.0124107 3.96762)
(0.0273754 -0.0124304 3.9686)
(0.0336073 -0.0121792 3.96941)
(0.0397941 -0.0119669 3.97093)
(-0.0416885 -0.00597362 3.96963)
(-0.0354567 -0.0060085 3.96869)
(-0.0293045 -0.00602206 3.96788)
(-0.0231684 -0.00595486 3.96719)
(-0.0169414 -0.00586938 3.96671)
(-0.0106472 -0.00582704 3.96644)
(-0.00425236 -0.00579672 3.96621)
(0.00218685 -0.00578414 3.96635)
(0.00855892 -0.00579706 3.96665)
(0.0148923 -0.00581003 3.96713)
(0.0211584 -0.00582181 3.96777)
(0.0273479 -0.00583006 3.96867)
(0.0335566 -0.00575755 3.96967)
(0.03985 -0.00557543 3.97088)
(-0.0415183 0.000369046 3.96994)
(-0.0353362 0.000323114 3.96902)
(-0.0292308 0.000486872 3.96812)
(-0.0231186 0.000510032 3.96743)
(-0.0169116 0.000539506 3.96693)
(-0.0106329 0.000524608 3.96666)
(-0.00424828 0.000524686 3.96642)
(0.00218726 0.000528707 3.96656)
(0.00855751 0.000532676 3.96686)
(0.0148957 0.000564903 3.96733)
(0.0211729 0.000588424 3.96796)
(0.027384 0.000606246 3.96881)
(0.0336025 0.000504201 3.96985)
(0.0399104 0.000660013 3.97094)
(-0.041459 0.0067839 3.97041)
(-0.035395 0.00670298 3.96922)
(-0.0292825 0.00702519 3.96848)
(-0.0231808 0.00700287 3.96771)
(-0.0169597 0.00698038 3.96724)
(-0.0106681 0.00690755 3.96695)
(-0.00426216 0.00687143 3.96673)
(0.00218972 0.00686485 3.96687)
(0.00857429 0.00688317 3.96716)
(0.0149195 0.00695088 3.96763)
(0.0212031 0.00700564 3.96822)
(0.0274002 0.0070456 3.96912)
(0.0336384 0.00677406 3.96997)
(0.0398556 0.00693723 3.97123)
(-0.0414398 0.0132981 3.97118)
(-0.0355426 0.0130828 3.96972)
(-0.0294104 0.0135235 3.96919)
(-0.0233054 0.0134335 3.9684)
(-0.0170558 0.0133515 3.96797)
(-0.0107336 0.0132216 3.96768)
(-0.00428268 0.0131478 3.96747)
(0.00221404 0.0131308 3.9676)
(0.00864973 0.0131624 3.96789)
(0.0150444 0.013264 3.96836)
(0.0213812 0.0133602 3.96889)
(0.027609 0.0134347 3.9698)
(0.0339014 0.0130198 3.97043)
(0.0399903 0.0132911 3.97181)
(-0.0414431 0.0199112 3.97186)
(-0.0357211 0.0195063 3.97012)
(-0.0295787 0.0200321 3.96968)
(-0.0234655 0.019849 3.96893)
(-0.0171878 0.0196968 3.96858)
(-0.010838 0.0194994 3.96834)
(-0.00434436 0.0193793 3.96816)
(0.00218602 0.0193468 3.96829)
(0.00866984 0.0193885 3.96855)
(0.0151194 0.0195212 3.96898)
(0.0215256 0.019659 3.96941)
(0.0278168 0.0197813 3.97025)
(0.034189 0.0192459 3.97071)
(0.0401549 0.0197186 3.97232)
(-0.0416283 0.0264819 3.97246)
(-0.0359318 0.0258806 3.97088)
(-0.0297653 0.0264226 3.97062)
(-0.0236092 0.0261349 3.96997)
(-0.0172955 0.0259155 3.96967)
(-0.0109276 0.0256677 3.9694)
(-0.00439826 0.0255122 3.96919)
(0.00214642 0.0254623 3.96934)
(0.00867051 0.0254903 3.96965)
(0.0151728 0.0256232 3.9701)
(0.0216578 0.0257821 3.97049)
(0.0280421 0.0259546 3.97122)
(0.0344918 0.0253692 3.97147)
(0.0404447 0.0260573 3.97297)
(-0.0412167 0.0327349 3.97294)
(-0.035265 0.0322589 3.97137)
(-0.0291701 0.0328937 3.97096)
(-0.0230945 0.0325363 3.97052)
(-0.0169277 0.0322507 3.9703)
(-0.0107386 0.0319064 3.97032)
(-0.00437152 0.0316631 3.97029)
(0.00198913 0.0315895 3.97046)
(0.00835595 0.031632 3.97063)
(0.0147397 0.0317862 3.97086)
(0.0211532 0.0319576 3.97117)
(0.0275279 0.0321581 3.97173)
(0.0339189 0.031504 3.97209)
(0.0400891 0.0320902 3.9736)
(-0.0410465 0.0381016 3.97479)
(-0.0359078 0.038362 3.97303)
(-0.0298342 0.0388789 3.97247)
(-0.0234828 0.0385417 3.97223)
(-0.017077 0.0383599 3.97192)
(-0.0107576 0.0381211 3.97175)
(-0.0043485 0.0379049 3.97157)
(0.00193629 0.037803 3.97174)
(0.00828975 0.0377319 3.97216)
(0.0147596 0.0377141 3.97262)
(0.0213231 0.0377198 3.97314)
(0.0278563 0.0378934 3.97361)
(0.0341084 0.0374214 3.97409)
(0.0396267 0.0371267 3.97553)
(-0.0431392 -0.0452675 3.67258)
(-0.0370797 -0.0443315 3.6726)
(-0.0306154 -0.0455959 3.67324)
(-0.0239317 -0.0453289 3.6738)
(-0.017258 -0.0453514 3.67408)
(-0.0106903 -0.0452134 3.67405)
(-0.00420085 -0.0451344 3.674)
(0.00231055 -0.04497 3.67404)
(0.00891525 -0.0448198 3.67412)
(0.0156317 -0.0448202 3.67434)
(0.0224593 -0.0446934 3.67423)
(0.0293707 -0.044829 3.67401)
(0.036141 -0.0436534 3.67357)
(0.0426173 -0.0441133 3.67399)
(-0.0425386 -0.0387692 3.6724)
(-0.0365615 -0.0380648 3.67205)
(-0.0303987 -0.0391442 3.67266)
(-0.024047 -0.0389521 3.673)
(-0.0175436 -0.0388603 3.67346)
(-0.0109484 -0.0386697 3.67377)
(-0.0042658 -0.0385896 3.67405)
(0.00248419 -0.0384779 3.67421)
(0.0092649 -0.0383978 3.67409)
(0.015993 -0.0384609 3.67402)
(0.0226213 -0.0384425 3.67374)
(0.0291125 -0.038556 3.67369)
(0.0355086 -0.0375952 3.67344)
(0.0417662 -0.0379517 3.67433)
(-0.0438565 -0.0319465 3.67298)
(-0.0375895 -0.0316882 3.67258)
(-0.0311737 -0.0325689 3.67352)
(-0.0245875 -0.0324673 3.67365)
(-0.017874 -0.0323589 3.67405)
(-0.0110725 -0.0321792 3.67414)
(-0.00421783 -0.032096 3.67419)
(0.00265962 -0.0320129 3.67431)
(0.00956541 -0.0319708 3.6744)
(0.0164508 -0.0320346 3.67458)
(0.0232785 -0.032049 3.67445)
(0.029992 -0.0321252 3.67463)
(0.0366016 -0.0313557 3.67408)
(0.0430543 -0.0313956 3.67492)
(-0.0436056 -0.0250369 3.67369)
(-0.0373674 -0.0252223 3.67301)
(-0.0309934 -0.0258595 3.67369)
(-0.0245042 -0.0258585 3.67368)
(-0.0178629 -0.0257472 3.67401)
(-0.0110758 -0.0256115 3.67416)
(-0.00420178 -0.0255344 3.67426)
(0.00271222 -0.0254726 3.67443)
(0.00964595 -0.025454 3.6745)
(0.0165253 -0.0255069 3.67462)
(0.023302 -0.0255472 3.67457)
(0.0299218 -0.0255669 3.67487)
(0.036472 -0.0250123 3.67455)
(0.0428684 -0.0247076 3.67555)
(-0.0437086 -0.0181997 3.67412)
(-0.037327 -0.0186039 3.67353)
(-0.030931 -0.0190402 3.67415)
(-0.0244221 -0.0190926 3.67407)
(-0.0177813 -0.019005 3.6743)
(-0.010999 -0.0189217 3.67438)
(-0.00414566 -0.0188611 3.67442)
(0.00274555 -0.0188205 3.67459)
(0.00965025 -0.0188176 3.67471)
(0.0165013 -0.0188528 3.6749)
(0.0232533 -0.0188904 3.67495)
(0.0298672 -0.0188695 3.67533)
(0.0364288 -0.0185097 3.67505)
(0.0429366 -0.0180657 3.67594)
(-0.0436681 -0.0114899 3.67429)
(-0.0372136 -0.0119223 3.67398)
(-0.0307998 -0.0121672 3.67431)
(-0.0243108 -0.0122381 3.67425)
(-0.0176973 -0.0121776 3.67439)
(-0.0109403 -0.0121343 3.6745)
(-0.00411128 -0.0120897 3.67453)
(0.00275871 -0.0120658 3.6747)
(0.00963633 -0.0120708 3.67483)
(0.0164533 -0.0120895 3.67501)
(0.023161 -0.0121183 3.67511)
(0.0297438 -0.0120898 3.67544)
(0.0362827 -0.011934 3.67541)
(0.0428587 -0.0115387 3.67603)
(-0.0436612 -0.0048915 3.67451)
(-0.0372024 -0.00517677 3.67451)
(-0.0307803 -0.00525748 3.6746)
(-0.0242806 -0.00530948 3.67461)
(-0.0176608 -0.00528509 3.67469)
(-0.0109045 -0.00528232 3.67479)
(-0.00408358 -0.00526245 3.6748)
(0.00277458 -0.00525277 3.67498)
(0.00963513 -0.00525637 3.67512)
(0.0164362 -0.00525574 3.67529)
(0.0231284 -0.00527209 3.67544)
(0.0297143 -0.00526858 3.6757)
(0.0362382 -0.00529294 3.67585)
(0.0428383 -0.00509684 3.67614)
(-0.0436365 0.00168024 3.67478)
(-0.0372057 0.0016161 3.67482)
(-0.0307892 0.00165627 3.67482)
(-0.024285 0.00163015 3.67483)
(-0.0176604 0.00162046 3.67488)
(-0.0109038 0.00159282 3.67498)
(-0.00408258 0.0015894 3.67498)
(0.00277316 0.00158769 3.67515)
(0.00962952 0.00158565 3.67529)
(0.0164281 0.00159763 3.67546)
(0.0231199 0.00158962 3.6756)
(0.0297122 0.00155134 3.67582)
(0.0362282 0.00138823 3.67602)
(0.0427982 0.00133287 3.67621)
(-0.0437141 0.00827798 3.67509)
(-0.0373203 0.00838604 3.67488)
(-0.0308926 0.00854916 3.67503)
(-0.0243656 0.00853374 3.67496)
(-0.0177128 0.00849468 3.67504)
(-0.0109327 0.00843804 3.67513)
(-0.00409292 0.00841253 3.67514)
(0.00277386 0.00840444 3.67531)
(0.00963232 0.00840925 3.67544)
(0.0164212 0.00843758 3.67562)
(0.0230929 0.00844222 3.67572)
(0.0296415 0.00837278 3.67598)
(0.0361087 0.00807831 3.67602)
(0.0425747 0.00782447 3.67639)
(-0.0437958 0.0149367 3.67553)
(-0.0374595 0.0150632 3.67506)
(-0.0310175 0.0153777 3.6754)
(-0.024467 0.0153429 3.67532)
(-0.017781 0.0152827 3.67544)
(-0.010971 0.0151991 3.67553)
(-0.00410299 0.0151572 3.67555)
(0.00279141 0.0151492 3.67572)
(0.00967601 0.0151661 3.67585)
(0.0164874 0.0152206 3.67602)
(0.023181 0.0152495 3.67607)
(0.0297254 0.0151853 3.67634)
(0.0361817 0.0147514 3.67616)
(0.04253 0.0144531 3.67666)
(-0.0437952 0.0216564 3.67569)
(-0.0375597 0.0216355 3.67496)
(-0.0311227 0.0221391 3.67538)
(-0.0245763 0.0220459 3.67535)
(-0.017868 0.0219639 3.67554)
(-0.0110311 0.0218495 3.67568)
(-0.00413606 0.0217922 3.67573)
(0.00278347 0.0217882 3.6759)
(0.00968817 0.0218223 3.67601)
(0.0165144 0.0219098 3.67613)
(0.0232232 0.0219662 3.67609)
(0.0297607 0.0219422 3.6763)
(0.0362209 0.0213382 3.67599)
(0.0424355 0.0211961 3.67671)
(-0.0440064 0.0283516 3.67562)
(-0.0377207 0.0280239 3.67505)
(-0.0312252 0.0287391 3.67566)
(-0.0246167 0.0285617 3.67572)
(-0.0178593 0.0284784 3.67597)
(-0.0110172 0.0283535 3.6761)
(-0.00413665 0.0282965 3.67612)
(0.0027678 0.0282993 3.6763)
(0.00966072 0.0283394 3.67645)
(0.016495 0.0284409 3.67659)
(0.0232381 0.0285062 3.67651)
(0.0298261 0.0285507 3.6766)
(0.0363468 0.0277618 3.67609)
(0.0425441 0.0279776 3.67671)
(-0.0430346 0.0348513 3.67532)
(-0.0368091 0.0343358 3.67489)
(-0.0304607 0.0352441 3.67519)
(-0.0240577 0.0350053 3.67547)
(-0.0174752 0.0349275 3.67578)
(-0.0108133 0.0347913 3.67617)
(-0.0040735 0.0347115 3.67636)
(0.00270391 0.0347171 3.67657)
(0.00945914 0.0347808 3.6766)
(0.0161342 0.0349003 3.67653)
(0.0227085 0.0349702 3.67639)
(0.0291134 0.0350794 3.67633)
(0.0355038 0.0341103 3.67606)
(0.041579 0.0346147 3.67654)
(-0.043767 0.0408012 3.67578)
(-0.0374101 0.0403152 3.67552)
(-0.0306971 0.0414424 3.67583)
(-0.0238587 0.0412234 3.67633)
(-0.0170886 0.041291 3.67656)
(-0.0104388 0.0412411 3.67674)
(-0.00386937 0.0411865 3.67674)
(0.00266611 0.0411921 3.67694)
(0.00921482 0.0412222 3.67722)
(0.0158215 0.0412575 3.67739)
(0.0224871 0.0412054 3.67742)
(0.0291542 0.0413503 3.67727)
(0.0357269 0.0402949 3.67702)
(0.0418358 0.0408717 3.67713)
(-0.0400531 -0.0423648 3.38993)
(-0.033729 -0.0411065 3.39092)
(-0.0277906 -0.0426677 3.39252)
(-0.0216279 -0.0423909 3.39369)
(-0.01555 -0.0424552 3.3945)
(-0.0095363 -0.0422686 3.39484)
(-0.00355948 -0.04213 3.39503)
(0.00249768 -0.0419018 3.39515)
(0.00855297 -0.0416718 3.39514)
(0.0148255 -0.0415875 3.39509)
(0.0211848 -0.0413133 3.39455)
(0.0277341 -0.0413576 3.39376)
(0.0341497 -0.0398478 3.39242)
(0.0410338 -0.0406292 3.3918)
(-0.0391191 -0.0353395 3.3909)
(-0.0334233 -0.0349549 3.39136)
(-0.0279133 -0.0361506 3.39289)
(-0.0220775 -0.0360596 3.39393)
(-0.016082 -0.0360871 3.39499)
(-0.00991973 -0.0359798 3.39574)
(-0.00362499 -0.0359402 3.39626)
(0.00280319 -0.0358021 3.39648)
(0.00914025 -0.0356009 3.39624)
(0.015544 -0.0354946 3.39583)
(0.0217953 -0.0352711 3.39501)
(0.0279456 -0.0352296 3.39426)
(0.0338579 -0.0341249 3.39311)
(0.0399253 -0.0342569 3.39308)
(-0.0407641 -0.0288371 3.39252)
(-0.0345991 -0.0290443 3.3929)
(-0.0288086 -0.0300291 3.39484)
(-0.022598 -0.0300227 3.39565)
(-0.0163292 -0.0299956 3.39665)
(-0.00993279 -0.0298654 3.39715)
(-0.0034975 -0.0297917 3.39743)
(0.00299496 -0.0296822 3.39761)
(0.00940635 -0.0295728 3.39754)
(0.0159557 -0.0295449 3.39738)
(0.0224319 -0.0294422 3.39671)
(0.0288866 -0.029414 3.3962)
(0.0350653 -0.0285266 3.39467)
(0.0415179 -0.0282315 3.39463)
(-0.0405902 -0.0222611 3.3939)
(-0.0345256 -0.0229025 3.39409)
(-0.0287464 -0.0235615 3.39576)
(-0.0226414 -0.0236866 3.3965)
(-0.0164182 -0.023642 3.39743)
(-0.0100114 -0.0235682 3.398)
(-0.00350178 -0.0235103 3.39834)
(0.00309378 -0.023441 3.39855)
(0.00959287 -0.0233752 3.39845)
(0.016155 -0.023353 3.39821)
(0.0225814 -0.0233123 3.39759)
(0.0289089 -0.023226 3.39714)
(0.0350127 -0.0226847 3.39583)
(0.0413175 -0.0220753 3.39589)
(-0.0408655 -0.015872 3.39485)
(-0.0347061 -0.0166402 3.39524)
(-0.0288114 -0.0170717 3.39685)
(-0.0226373 -0.0172598 3.39753)
(-0.01637 -0.0172259 3.39837)
(-0.00994268 -0.0171966 3.39888)
(-0.00343392 -0.0171506 3.39915)
(0.003145 -0.0171098 3.39935)
(0.00962275 -0.017081 3.3993)
(0.0161664 -0.0170697 3.39911)
(0.0225925 -0.0170686 3.39859)
(0.0289367 -0.0169638 3.3982)
(0.0350819 -0.0166817 3.39693)
(0.0414336 -0.0160173 3.39679)
(-0.0409331 -0.00961974 3.39536)
(-0.0347874 -0.0102841 3.39612)
(-0.0287973 -0.0105088 3.39743)
(-0.022626 -0.0106996 3.39815)
(-0.016354 -0.0106874 3.39892)
(-0.00992981 -0.0106965 3.39944)
(-0.00341621 -0.0106708 3.39971)
(0.00316878 -0.0106551 3.39992)
(0.00964536 -0.0106475 3.39986)
(0.0161652 -0.0106408 3.39965)
(0.0225595 -0.0106609 3.39917)
(0.0288633 -0.010576 3.39873)
(0.0350196 -0.0105278 3.39772)
(0.0413243 -0.0100246 3.39725)
(-0.0410433 -0.00349551 3.39575)
(-0.034948 -0.00389059 3.39687)
(-0.0288748 -0.00399111 3.39795)
(-0.0226665 -0.00412243 3.39875)
(-0.016357 -0.00413789 3.39945)
(-0.00991685 -0.00416806 3.39998)
(-0.00339782 -0.0041625 3.40023)
(0.00318308 -0.00416329 3.40044)
(0.00964802 -0.00416633 3.40039)
(0.016153 -0.00416389 3.40018)
(0.0225372 -0.00418836 3.39974)
(0.0288351 -0.00416886 3.39922)
(0.035013 -0.00427103 3.3984)
(0.0412462 -0.00408227 3.39757)
(-0.0411072 0.00264206 3.39603)
(-0.0350342 0.00258743 3.3972)
(-0.0289387 0.0025428 3.3982)
(-0.0227134 0.0024949 3.39901)
(-0.0163847 0.00245245 3.3997)
(-0.00993329 0.00241498 3.40023)
(-0.00340668 0.0024045 3.40047)
(0.00317589 0.00239412 3.40067)
(0.00963565 0.0023852 3.40062)
(0.0161338 0.00237886 3.40041)
(0.0225114 0.00235036 3.39996)
(0.0288057 0.00227112 3.39941)
(0.0349845 0.00208639 3.39863)
(0.041163 0.00191145 3.39772)
(-0.0413048 0.00876245 3.39617)
(-0.0351717 0.00900031 3.3971)
(-0.0290669 0.00902031 3.39825)
(-0.0227994 0.00904901 3.39899)
(-0.0164381 0.00899365 3.39971)
(-0.00996027 0.00895623 3.40022)
(-0.00341519 0.00893833 3.40047)
(0.00317476 0.00893048 3.40067)
(0.00962823 0.00892724 3.40061)
(0.0161068 0.00892367 3.40041)
(0.0224442 0.00889767 3.39992)
(0.0286805 0.00872444 3.39944)
(0.0347637 0.0084556 3.39852)
(0.0408695 0.00794835 3.39782)
(-0.0414675 0.014815 3.39624)
(-0.0352629 0.0151924 3.39689)
(-0.029164 0.0153865 3.39825)
(-0.0228702 0.0154312 3.39897)
(-0.0164771 0.0153871 3.39973)
(-0.00997573 0.0153494 3.40025)
(-0.00341296 0.0153347 3.4005)
(0.00318668 0.0153384 3.4007)
(0.0096453 0.0153478 3.40064)
(0.0161298 0.0153655 3.40044)
(0.0224628 0.0153534 3.39991)
(0.0286734 0.0151735 3.39943)
(0.0346832 0.0147743 3.39832)
(0.0407392 0.014125 3.39781)
(-0.0414638 0.0209649 3.3959)
(-0.0352798 0.0212669 3.39624)
(-0.0292189 0.0217079 3.39769)
(-0.0229333 0.0217183 3.39846)
(-0.0165193 0.0216986 3.39927)
(-0.0099971 0.0216617 3.39983)
(-0.00341364 0.0216583 3.40011)
(0.00319687 0.0216793 3.40032)
(0.00965178 0.0217027 3.40023)
(0.016124 0.021748 3.39998)
(0.0224337 0.0217473 3.39938)
(0.0285981 0.0216133 3.39887)
(0.0345229 0.021027 3.39763)
(0.0405155 0.020449 3.39743)
(-0.0416898 0.0271746 3.39524)
(-0.0353779 0.0271706 3.39564)
(-0.0292492 0.0279326 3.39729)
(-0.0228682 0.0278567 3.39812)
(-0.0164058 0.0278841 3.39898)
(-0.00988837 0.0278584 3.39951)
(-0.00335569 0.0278795 3.39976)
(0.00318581 0.0279266 3.39997)
(0.00957574 0.0279677 3.39993)
(0.0160287 0.0280367 3.3997)
(0.0223587 0.0280315 3.39906)
(0.0285708 0.0279983 3.39847)
(0.0344964 0.0271604 3.39703)
(0.0405396 0.0269284 3.39683)
(-0.0403927 0.0331969 3.39408)
(-0.0343697 0.0328042 3.39465)
(-0.028406 0.0338545 3.3959)
(-0.0223031 0.0337506 3.39694)
(-0.016043 0.0338618 3.39786)
(-0.00970615 0.0339021 3.39866)
(-0.00327661 0.033961 3.39906)
(0.00319823 0.0340358 3.39929)
(0.00948478 0.034089 3.39913)
(0.0157487 0.0341481 3.39869)
(0.0218579 0.0341175 3.398)
(0.0277935 0.034162 3.39725)
(0.0335089 0.0330968 3.39615)
(0.0392147 0.0333479 3.3958)
(-0.041587 0.0393135 3.39356)
(-0.0347477 0.0384261 3.39447)
(-0.028196 0.0399071 3.39577)
(-0.0216707 0.0397463 3.39696)
(-0.0153143 0.0399564 3.3977)
(-0.00910206 0.0400123 3.3982)
(-0.00296538 0.0400577 3.39837)
(0.00316689 0.0401522 3.39859)
(0.00912912 0.0402735 3.39867)
(0.0152026 0.040355 3.39851)
(0.0213244 0.0402786 3.39805)
(0.0275242 0.0404323 3.3973)
(0.0336129 0.0390553 3.39618)
(0.0398486 0.0400244 3.39534)
(-0.0330194 -0.0346999 3.1173)
(-0.0272021 -0.0336121 3.11902)
(-0.0223864 -0.0351612 3.12125)
(-0.0172823 -0.0348762 3.12279)
(-0.0123204 -0.034918 3.12394)
(-0.00737417 -0.0346985 3.12458)
(-0.00241756 -0.0345453 3.12496)
(0.00259675 -0.0343306 3.12513)
(0.00761444 -0.0341358 3.12503)
(0.0128165 -0.0340762 3.12473)
(0.0180518 -0.0338131 3.12388)
(0.0234997 -0.0338654 3.12269)
(0.028788 -0.0323958 3.12073)
(0.035079 -0.0331536 3.11933)
(-0.0321684 -0.0282204 3.11921)
(-0.0271125 -0.0281389 3.12023)
(-0.0227283 -0.0292294 3.12244)
(-0.0178476 -0.0292059 3.12395)
(-0.0128817 -0.0293108 3.12545)
(-0.00772937 -0.0292936 3.12648)
(-0.00245376 -0.0293117 3.12715)
(0.00287738 -0.0291978 3.1274)
(0.00819641 -0.0289741 3.12706)
(0.0135676 -0.028793 3.1264)
(0.0187978 -0.0284835 3.12519)
(0.0239904 -0.0283761 3.12392)
(0.0288177 -0.0273613 3.12203)
(0.034193 -0.0273434 3.12135)
(-0.0337912 -0.0228211 3.12157)
(-0.0282132 -0.0233374 3.12258)
(-0.023545 -0.0242319 3.12517)
(-0.0182664 -0.0242756 3.12648)
(-0.0130415 -0.0242837 3.12788)
(-0.00768855 -0.0241889 3.12867)
(-0.0023151 -0.0241266 3.12913)
(0.00302875 -0.0240285 3.12933)
(0.00839179 -0.0239261 3.12913)
(0.0138686 -0.023881 3.12869)
(0.0192973 -0.0237549 3.12762)
(0.0248033 -0.0237045 3.12658)
(0.0298782 -0.0229041 3.12433)
(0.0357153 -0.0224291 3.12358)
(-0.0336338 -0.0173377 3.1234)
(-0.0282308 -0.0181346 3.12433)
(-0.0235524 -0.0186868 3.12668)
(-0.0183863 -0.0188721 3.12797)
(-0.013197 -0.0188718 3.12935)
(-0.00782018 -0.0188536 3.13022)
(-0.00234472 -0.0188226 3.13073)
(0.00312908 -0.0187715 3.13096)
(0.00861005 -0.0186985 3.1307)
(0.0141186 -0.0186435 3.13017)
(0.0195016 -0.0185774 3.1291)
(0.0248643 -0.0184548 3.12807)
(0.0298579 -0.0180346 3.12601)
(0.0354675 -0.0173463 3.12526)
(-0.0339278 -0.0120692 3.1247)
(-0.0285131 -0.0128875 3.12596)
(-0.023666 -0.0132371 3.12824)
(-0.0184234 -0.0134853 3.12952)
(-0.0131687 -0.0134835 3.13081)
(-0.00776392 -0.0134951 3.13163)
(-0.00228313 -0.0134658 3.13208)
(0.00316871 -0.0134407 3.13229)
(0.00863271 -0.0134104 3.13207)
(0.014129 -0.0133818 3.13158)
(0.0195237 -0.0133731 3.13059)
(0.0249087 -0.0132295 3.12958)
(0.0299799 -0.0130556 3.12758)
(0.0355524 -0.0123914 3.12653)
(-0.0339985 -0.00689636 3.12548)
(-0.028707 -0.00753009 3.12714)
(-0.0237077 -0.00770394 3.12915)
(-0.0184784 -0.00794714 3.13049)
(-0.0132007 -0.00796093 3.13173)
(-0.00778802 -0.0080031 3.13257)
(-0.00228374 -0.00799221 3.13302)
(0.00319056 -0.00799043 3.13323)
(0.00866932 -0.00798103 3.133)
(0.0141548 -0.00796241 3.13248)
(0.0195286 -0.00798043 3.13153)
(0.0248621 -0.00786121 3.13046)
(0.0299925 -0.00789212 3.1287)
(0.0354049 -0.00744734 3.1273)
(-0.0341272 -0.00181116 3.126)
(-0.0289496 -0.00215413 3.12801)
(-0.0238092 -0.00225139 3.12983)
(-0.0185489 -0.00241328 3.13127)
(-0.0132209 -0.00244939 3.13246)
(-0.0077888 -0.00249712 3.13331)
(-0.00227382 -0.00250092 3.13374)
(0.0031982 -0.00251217 3.13395)
(0.00867034 -0.00251616 3.13373)
(0.0141446 -0.00251358 3.13321)
(0.0195153 -0.00254103 3.13229)
(0.0248332 -0.00250977 3.13114)
(0.0300288 -0.0026404 3.12956)
(0.0352913 -0.00251243 3.12782)
(-0.0342181 0.00336351 3.1263)
(-0.0290779 0.0033399 3.12837)
(-0.023899 0.0032515 3.13013)
(-0.0186189 0.00321282 3.13159)
(-0.0132647 0.00315559 3.13276)
(-0.00781671 0.00312001 3.13361)
(-0.00228995 0.00310703 3.13404)
(0.00318619 0.00309203 3.13425)
(0.00865494 0.00308204 3.13403)
(0.014119 0.0030667 3.1335)
(0.0194789 0.00303688 3.13258)
(0.0247853 0.00293479 3.13141)
(0.0300007 0.00277126 3.12988)
(0.0352039 0.00254042 3.12808)
(-0.0344652 0.0082418 3.12628)
(-0.0291824 0.0084906 3.12815)
(-0.0240185 0.00844193 3.13006)
(-0.018687 0.00850509 3.13145)
(-0.0133108 0.00844378 3.13266)
(-0.0078386 0.0084242 3.1335)
(-0.00229725 0.00841145 3.13394)
(0.00318523 0.0084032 3.13414)
(0.00864635 0.00839708 3.13391)
(0.0140908 0.00837797 3.1334)
(0.0194073 0.00835334 3.13245)
(0.0246671 0.00814661 3.13136)
(0.0297604 0.00794678 3.12971)
(0.0349477 0.00746393 3.12813)
(-0.0346425 0.0133034 3.12607)
(-0.0292058 0.0137555 3.12766)
(-0.024098 0.0138567 3.12978)
(-0.0187303 0.0139688 3.13114)
(-0.0133313 0.0139298 3.13238)
(-0.00783977 0.0139231 3.13322)
(-0.00229034 0.0139216 3.13366)
(0.00318985 0.0139294 3.13386)
(0.00864884 0.013936 3.13364)
(0.0140912 0.0139348 3.13313)
(0.0193982 0.0139185 3.13215)
(0.024641 0.0136827 3.13108)
(0.0296208 0.0133844 3.12927)
(0.0348286 0.0126811 3.12789)
(-0.0346681 0.0183294 3.12538)
(-0.0291522 0.0187793 3.12661)
(-0.0241284 0.0191149 3.12885)
(-0.0187614 0.0192035 3.13022)
(-0.0133497 0.0192063 3.13152)
(-0.00784109 0.0192164 3.13239)
(-0.0022756 0.0192387 3.13285)
(0.00321266 0.0192689 3.13305)
(0.00866254 0.0192873 3.1328)
(0.0140818 0.0193094 3.13225)
(0.0193487 0.0192951 3.13121)
(0.0245366 0.0191051 3.13015)
(0.0293803 0.0186427 3.12821)
(0.0346154 0.0179249 3.12722)
(-0.0349034 0.0234695 3.12433)
(-0.0291859 0.0236841 3.12554)
(-0.0241242 0.0243742 3.12796)
(-0.018647 0.0243654 3.12936)
(-0.0131832 0.0244317 3.13067)
(-0.00768485 0.024453 3.13149)
(-0.00219163 0.0245055 3.1319)
(0.00319012 0.0245668 3.1321)
(0.00855533 0.0246074 3.1319)
(0.0139403 0.0246638 3.13139)
(0.019228 0.024641 3.13034)
(0.0244764 0.0245733 3.12923)
(0.0292914 0.0238435 3.1271)
(0.034652 0.0233588 3.12623)
(-0.0335945 0.0284038 3.12259)
(-0.0282736 0.0282282 3.1239)
(-0.0233599 0.0291915 3.12592)
(-0.0181882 0.0291647 3.12752)
(-0.0129065 0.0293561 3.12889)
(-0.00755966 0.0294963 3.12995)
(-0.00212179 0.0296285 3.13049)
(0.00324112 0.02973 3.13071)
(0.00854246 0.0297486 3.13038)
(0.0137683 0.0297602 3.12967)
(0.0188425 0.0296852 3.12856)
(0.0237732 0.0296976 3.1273)
(0.0283875 0.0287615 3.12551)
(0.0333504 0.0287405 3.12459)
(-0.0347328 0.03401 3.12136)
(-0.0283872 0.0331444 3.12318)
(-0.0228763 0.0346023 3.12521)
(-0.0174124 0.03444 3.12684)
(-0.0121308 0.0346567 3.12793)
(-0.00697432 0.034719 3.12864)
(-0.00183512 0.0347846 3.12894)
(0.00320819 0.0349133 3.12914)
(0.00820388 0.0350493 3.12904)
(0.0131973 0.0351804 3.12861)
(0.0182143 0.0351424 3.1278)
(0.0233376 0.0353464 3.12663)
(0.0283508 0.0340123 3.1249)
(0.0340381 0.0348961 3.12336)
(-0.0240357 -0.0243636 2.85085)
(-0.0192941 -0.0236794 2.85278)
(-0.0157504 -0.0248794 2.85502)
(-0.0119955 -0.0246012 2.85655)
(-0.00837008 -0.0245627 2.85777)
(-0.00472261 -0.0243637 2.85853)
(-0.00103402 -0.0242426 2.85901)
(0.00268199 -0.0241111 2.85918)
(0.00636966 -0.0240381 2.85903)
(0.0101799 -0.0240602 2.8586)
(0.0139663 -0.0239373 2.85767)
(0.0179004 -0.024076 2.85639)
(0.0217285 -0.0229738 2.85439)
(0.0266925 -0.0235862 2.85272)
(-0.0234449 -0.0192355 2.85314)
(-0.0193266 -0.019335 2.85436)
(-0.0161376 -0.0200863 2.85666)
(-0.0124498 -0.0200794 2.85827)
(-0.00875919 -0.0201895 2.85983)
(-0.00492513 -0.0202266 2.86089)
(-0.00103044 -0.020278 2.86157)
(0.002839 -0.0202341 2.8618)
(0.00673101 -0.0200904 2.86146)
(0.0106802 -0.019952 2.86075)
(0.0145339 -0.0197021 2.85945)
(0.0184122 -0.0196363 2.85802)
(0.0219155 -0.0189359 2.85594)
(0.0261976 -0.0188917 2.85493)
(-0.0246789 -0.0153015 2.85559)
(-0.0201157 -0.015874 2.85689)
(-0.0167228 -0.0164967 2.8595)
(-0.0127273 -0.016534 2.86099)
(-0.0088688 -0.0165259 2.86247)
(-0.0049101 -0.0164485 2.86334)
(-0.000949517 -0.0163921 2.86386)
(0.0029218 -0.0163449 2.86404)
(0.00685032 -0.0163094 2.86378)
(0.0108605 -0.016319 2.86322)
(0.0148327 -0.0162594 2.86203)
(0.0189453 -0.016259 2.86076)
(0.0226015 -0.0157146 2.85839)
(0.0272974 -0.0152576 2.85725)
(-0.0244856 -0.0113477 2.85746)
(-0.0201321 -0.0119835 2.8588)
(-0.016738 -0.0123326 2.86125)
(-0.01284 -0.0124832 2.86275)
(-0.00901707 -0.0124828 2.86424)
(-0.00504083 -0.0124869 2.8652)
(-0.000993483 -0.0124713 2.86577)
(0.00297155 -0.0124603 2.86597)
(0.0070079 -0.012423 2.86564)
(0.0110529 -0.0123934 2.86499)
(0.0149913 -0.0123616 2.86376)
(0.0189888 -0.0122819 2.86248)
(0.0225661 -0.0120414 2.86023)
(0.0270151 -0.0115314 2.85899)
(-0.0246371 -0.00754716 2.85881)
(-0.0203701 -0.00811533 2.86054)
(-0.0168071 -0.00834354 2.86294)
(-0.0128607 -0.00854758 2.86446)
(-0.00898282 -0.00853704 2.86589)
(-0.00499384 -0.00855141 2.8668)
(-0.000951102 -0.00852529 2.86733)
(0.0029795 -0.00852552 2.86751)
(0.00699582 -0.00852026 2.8672)
(0.011027 -0.00851439 2.86658)
(0.0149799 -0.00853095 2.86541)
(0.018991 -0.00841811 2.86412)
(0.0226707 -0.008332 2.86193)
(0.0270011 -0.00789456 2.86035)
(-0.0246423 -0.00378906 2.8597)
(-0.0205562 -0.00415723 2.86177)
(-0.0168289 -0.00427888 2.86397)
(-0.0129151 -0.00447487 2.86557)
(-0.00901431 -0.0044789 2.86697)
(-0.00502407 -0.00451781 2.86791)
(-0.00096175 -0.00450758 2.86844)
(0.00298421 -0.00451954 2.86862)
(0.00701686 -0.00452159 2.86831)
(0.0110414 -0.00451364 2.86765)
(0.0149855 -0.00454054 2.8665)
(0.0189415 -0.00444 2.86514)
(0.0227206 -0.00447987 2.86314)
(0.0268463 -0.00424036 2.86128)
(-0.0247139 -5.31138e-05 2.86028)
(-0.0207645 -0.000215973 2.86263)
(-0.0168853 -0.000300594 2.86471)
(-0.0129667 -0.000425709 2.8664)
(-0.0090208 -0.000452586 2.86776)
(-0.00502133 -0.000491657 2.86872)
(-0.000955412 -0.00049306 2.86923)
(0.002983 -0.000508588 2.86942)
(0.0070074 -0.000515135 2.86911)
(0.0110225 -0.00051628 2.86845)
(0.0149721 -0.000539496 2.86733)
(0.0189041 -0.000510821 2.86589)
(0.0227788 -0.000602149 2.86402)
(0.0267426 -0.000561619 2.86191)
(-0.0247882 0.00374469 2.86056)
(-0.0208702 0.00377523 2.86296)
(-0.0169511 0.00370519 2.86501)
(-0.0130223 0.00369323 2.86674)
(-0.00905631 0.0036452 2.86809)
(-0.00504579 0.00362087 2.86906)
(-0.00097135 0.00361046 2.86957)
(0.00297184 0.00359822 2.86975)
(0.00699468 0.0035961 2.86944)
(0.0110037 0.00359039 2.86878)
(0.0149463 0.00358713 2.86766)
(0.0188667 0.003518 2.86622)
(0.0227689 0.00342089 2.86439)
(0.026685 0.00323163 2.86225)
(-0.0249686 0.00735078 2.86046)
(-0.0209113 0.00753022 2.86272)
(-0.0170395 0.00747799 2.8649)
(-0.0130653 0.00755002 2.86657)
(-0.00909358 0.00748427 2.86795)
(-0.00506418 0.00746954 2.86891)
(-0.000977629 0.00745363 2.86943)