/*--------------------------------*- C++ -*----------------------------------*\
| =========                 |                                                 |
| \\      /  F ield         | OpenFOAM: The Open Source CFD Toolbox           |
|  \\    /   O peration     | Version:  v2106                                 |
|   \\  /    A nd           | Website:  www.openfoam.com                      |
|    \\/     M anipulation  |                                                 |
\*---------------------------------------------------------------------------*/
FoamFile
{
    version     2.0;
    format      ascii;
    arch        "LSB;label=32;scalar=64";
    class       volScalarField;
    location    "0.000126";
    object      nut;
}
// * * * * * * * * * * * * * * * * * * * * * * * * * * * * * * * * * * * * * //

dimensions      [0 2 -1 0 0 0 0];

internalField   nonuniform List<scalar> 
18109
(
1.82626e-09
1.27041e-09
2.70852e-09
5.1052e-09
7.97748e-09
1.03814e-08
1.165e-08
3.11973e-09
8.4729e-10
3.91763e-10
5.15069e-10
8.42762e-10
1.21596e-09
1.5288e-09
7.6605e-09
2.03639e-09
4.92867e-10
1.28758e-10
7.75908e-11
1.02658e-10
1.4423e-10
1.82115e-08
4.86064e-09
1.14846e-09
2.416e-10
4.64123e-11
1.18496e-11
1.03561e-11
3.06323e-08
8.43512e-09
2.00962e-09
4.15633e-10
7.40771e-11
1.13549e-11
1.82954e-12
3.89688e-08
1.03816e-08
2.39371e-09
4.76219e-10
8.0874e-11
1.15502e-11
1.36626e-12
4.30226e-08
1.07146e-08
2.30656e-09
4.27006e-10
6.73246e-11
8.89125e-12
9.60155e-13
4.29504e-08
9.88892e-09
1.9617e-09
3.3274e-10
4.78058e-11
5.72738e-12
5.60269e-13
4.11126e-10
1.83561e-10
3.71839e-10
7.78255e-10
1.31731e-09
1.80307e-09
2.08078e-09
2.11433e-09
1.97536e-09
1.64471e-09
1.14101e-09
6.23143e-10
2.43678e-10
7.78995e-11
8.45418e-10
2.02513e-10
6.35471e-11
6.52615e-11
1.094e-10
1.64313e-10
2.12786e-10
2.49364e-10
2.62691e-10
2.42725e-10
1.79691e-10
9.92421e-11
3.64288e-11
1.09132e-11
2.18386e-09
5.24038e-10
1.13215e-10
2.39331e-11
9.20076e-12
1.06978e-11
1.61911e-11
2.23566e-11
2.68587e-11
2.77071e-11
2.19529e-11
1.23796e-11
4.40414e-12
1.5659e-12
5.21354e-09
1.25481e-09
2.65401e-10
4.95522e-11
8.20578e-12
1.54425e-12
1.02479e-12
1.51248e-12
2.09098e-12
2.45792e-12
2.13262e-12
1.24029e-12
4.62661e-13
1.9065e-12
8.60576e-09
2.09694e-09
4.40144e-10
7.96631e-11
1.23504e-11
1.62905e-12
2.09557e-13
8.72773e-14
1.20553e-13
1.6356e-13
1.57944e-13
9.78495e-14
1.7807e-13
5.43159e-12
1.0781e-08
2.51058e-09
5.03408e-10
8.65488e-11
1.26475e-11
1.54977e-12
1.57365e-13
1.53024e-14
5.98419e-15
8.43757e-15
9.17578e-15
9.05277e-15
3.50855e-13
1.21995e-11
1.16504e-08
2.52017e-09
4.70024e-10
7.50442e-11
1.01645e-11
1.15293e-12
1.07477e-13
8.17011e-15
6.78341e-16
3.81443e-16
4.39594e-16
5.30962e-15
5.68446e-13
1.97371e-11
1.12762e-08
2.25059e-09
3.87154e-10
5.68547e-11
7.05908e-12
7.32687e-13
6.25267e-14
4.37616e-15
2.95487e-16
6.50195e-17
6.56365e-17
4.95991e-15
6.35468e-13
2.18917e-11
9.81574e-09
1.80897e-09
2.87157e-10
3.89092e-11
4.44652e-12
4.26045e-13
3.5272e-14
3.40787e-15
7.40214e-16
2.51075e-16
1.33781e-16
5.34392e-15
5.58709e-13
1.81497e-11
7.56996e-09
1.30053e-09
1.91368e-10
2.39518e-11
2.54778e-12
2.66318e-13
5.5617e-14
2.58149e-14
1.23266e-14
4.62355e-15
1.46241e-15
8.09269e-15
4.20429e-13
1.16099e-11
4.97539e-09
8.04203e-10
1.10674e-10
1.31804e-11
1.81476e-12
7.79431e-13
5.86318e-13
3.80363e-13
1.98751e-13
8.04796e-14
2.57734e-14
1.31861e-14
2.83417e-13
5.87801e-12
2.8221e-09
4.40883e-10
5.95789e-11
1.00352e-11
6.87159e-12
7.57452e-12
6.70689e-12
4.65478e-12
2.59028e-12
1.13641e-12
3.94807e-13
1.1498e-13
1.51036e-13
2.37972e-12
1.34998e-09
2.13862e-10
4.09536e-11
3.62745e-11
5.61392e-11
6.82063e-11
6.32038e-11
4.63263e-11
2.74237e-11
1.30195e-11
4.92844e-12
1.5537e-12
4.50341e-13
1.03126e-12
7.10507e-10
1.53912e-10
1.24872e-10
2.47007e-10
4.11321e-10
5.11008e-10
4.91139e-10
3.79069e-10
2.38743e-10
1.22013e-10
5.03219e-11
1.73283e-11
5.05675e-12
2.74181e-12
5.40045e-09
1.79814e-08
5.78967e-08
1.67245e-07
4.25686e-07
9.45203e-07
9.48099e-10
3.14219e-09
1.08507e-08
3.57387e-08
1.06858e-07
2.8282e-07
1.24238e-09
6.82763e-09
3.06167e-08
1.12206e-07
3.44983e-07
8.94741e-07
3.5958e-09
2.09839e-08
9.3848e-08
3.28971e-07
9.35922e-07
2.18683e-06
7.45817e-09
4.53543e-08
2.03126e-07
6.90246e-07
1.84923e-06
3.9823e-06
1.18519e-08
7.25642e-08
3.21399e-07
1.05924e-06
2.70185e-06
5.48082e-06
1.49802e-08
9.03308e-08
3.93645e-07
1.26606e-06
3.12248e-06
6.10506e-06
1.5621e-08
9.10721e-08
3.90182e-07
1.24055e-06
3.01805e-06
5.81927e-06
1.39102e-08
7.65624e-08
3.22036e-07
1.02505e-06
2.51484e-06
4.90787e-06
1.14233e-08
5.81705e-08
2.37197e-07
7.55436e-07
1.8776e-06
3.73023e-06
8.63223e-09
4.02985e-08
1.58273e-07
5.00778e-07
1.25577e-06
2.54128e-06
5.60836e-09
2.40216e-08
9.1089e-08
2.85748e-07
7.22812e-07
1.48144e-06
2.86149e-09
1.11819e-08
4.09269e-08
1.26161e-07
3.22007e-07
6.64817e-07
1.08625e-09
3.83714e-09
1.33839e-08
3.9278e-08
1.01947e-07
2.13884e-07
3.08439e-10
1.03102e-09
3.27234e-09
8.84875e-09
2.30077e-08
4.84351e-08
9.35656e-11
2.63138e-10
7.203e-10
1.8487e-09
4.9761e-09
1.34955e-08
1.31442e-11
5.58989e-11
3.10334e-10
1.89069e-09
1.04401e-08
4.88519e-08
1.0886e-11
1.346e-10
1.25703e-09
8.92638e-09
4.84405e-08
2.06802e-07
3.82723e-11
5.06278e-10
4.64716e-09
3.11307e-08
1.55282e-07
5.94264e-07
1.07277e-10
1.3943e-09
1.22639e-08
7.70903e-08
3.54479e-07
1.22535e-06
2.28787e-10
2.88747e-09
2.42906e-08
1.44375e-07
6.16863e-07
1.92041e-06
3.62707e-10
4.49238e-09
3.65341e-08
2.04553e-07
8.0439e-07
2.29456e-06
3.97061e-10
4.77726e-09
3.76001e-08
2.02079e-07
7.66735e-07
2.12527e-06
3.22876e-10
3.71737e-09
2.83926e-08
1.50274e-07
5.67722e-07
1.58858e-06
1.96279e-10
2.10253e-09
1.55333e-08
8.28391e-08
3.25935e-07
9.52816e-07
8.90258e-11
8.81796e-10
6.19329e-09
3.30382e-08
1.38021e-07
4.26201e-07
3.24428e-11
2.94578e-10
1.97115e-09
1.05023e-08
4.49721e-08
1.44804e-07
9.70653e-12
8.1084e-11
5.06664e-10
2.43957e-09
1.01755e-08
3.38217e-08
4.33964e-12
2.79879e-11
1.48464e-10
6.39923e-10
2.31869e-09
7.0148e-09
1.87654e-11
8.1469e-11
3.44928e-10
1.37733e-09
5.07169e-09
1.7086e-08
4.90296e-11
2.79677e-10
1.42371e-09
6.36138e-09
2.48243e-08
8.48257e-08
1.5633e-10
9.71916e-10
5.21188e-09
2.38074e-08
9.22171e-08
3.03759e-07
4.20099e-10
2.71538e-09
1.47407e-08
6.66718e-08
2.49836e-07
7.76338e-07
9.38471e-10
6.07947e-09
3.25521e-08
1.43075e-07
5.10892e-07
1.47784e-06
1.71618e-09
1.09222e-08
5.69015e-08
2.40238e-07
8.11096e-07
2.16501e-06
2.56895e-09
1.57757e-08
7.89084e-08
3.16692e-07
1.00212e-06
2.49372e-06
3.17553e-09
1.85207e-08
8.77135e-08
3.3221e-07
9.93165e-07
2.36276e-06
3.19471e-09
1.74079e-08
7.71281e-08
2.76369e-07
7.96825e-07
1.852e-06
2.53357e-09
1.27146e-08
5.18822e-08
1.7387e-07
4.81279e-07
1.10569e-06
1.52963e-09
7.04476e-09
2.65313e-08
8.34669e-08
2.22577e-07
5.02047e-07
7.43132e-10
3.13312e-09
1.08411e-08
3.16843e-08
7.93604e-08
1.69538e-07
4.14933e-10
1.51921e-09
4.68032e-09
1.23301e-08
2.81578e-08
5.65371e-08
7.4131e-10
2.47425e-09
7.47972e-09
2.03169e-08
4.9832e-08
1.11838e-07
6.08093e-08
1.64232e-07
3.98045e-07
8.61356e-07
1.65754e-06
2.68379e-06
2.71127e-08
7.06912e-08
1.68796e-07
3.51669e-07
6.91892e-07
1.15142e-06
1.17006e-08
2.86985e-08
6.4556e-08
1.29856e-07
2.41095e-07
3.94318e-07
5.08758e-09
1.2603e-08
2.96129e-08
6.67598e-08
1.45211e-07
3.02423e-07
3.78322e-09
1.16348e-08
3.32672e-08
8.63237e-08
2.03689e-07
4.36919e-07
7.60718e-09
2.68589e-08
8.43542e-08
2.32156e-07
5.65701e-07
1.22045e-06
1.56609e-08
6.04552e-08
1.99081e-07
5.53543e-07
1.31871e-06
2.69195e-06
2.647e-08
1.07078e-07
3.59397e-07
9.94146e-07
2.30063e-06
4.47972e-06
3.77511e-08
1.54136e-07
5.1481e-07
1.3971e-06
3.12491e-06
5.82941e-06
4.56818e-08
1.8423e-07
6.05663e-07
1.60815e-06
3.4937e-06
6.31498e-06
4.84161e-08
1.88294e-07
6.03871e-07
1.57327e-06
3.35965e-06
5.99136e-06
4.61111e-08
1.69364e-07
5.24852e-07
1.3457e-06
2.86223e-06
5.11759e-06
3.96277e-08
1.35469e-07
4.0171e-07
1.0123e-06
2.16521e-06
3.94415e-06
3.02163e-08
9.59701e-08
2.71205e-07
6.74099e-07
1.47839e-06
2.7352e-06
1.90355e-08
5.73092e-08
1.55977e-07
3.82779e-07
8.46217e-07
1.56198e-06
8.62206e-09
2.46497e-08
6.48788e-08
1.49255e-07
3.37559e-07
6.30168e-07
3.48357e-09
9.34447e-09
2.31132e-08
5.10452e-08
1.05207e-07
1.93113e-07
1.41818e-09
3.70011e-09
8.93081e-09
2.01598e-08
4.36211e-08
9.16692e-08
6.67381e-07
2.08932e-06
4.63466e-06
7.98451e-06
1.16919e-05
1.99019e-06
5.24809e-06
1.01699e-05
1.59187e-05
2.18897e-05
4.28745e-06
9.63633e-06
1.65348e-05
2.34973e-05
2.9457e-05
7.1484e-06
1.3717e-05
2.12029e-05
2.77232e-05
3.15617e-05
9.22739e-06
1.61592e-05
2.34482e-05
2.94321e-05
3.07069e-05
9.95511e-06
1.67913e-05
2.39523e-05
2.9377e-05
2.80243e-05
9.40761e-06
1.58164e-05
2.31006e-05
2.76169e-05
2.45409e-05
7.99897e-06
1.38486e-05
2.06613e-05
2.3866e-05
2.07867e-05
1.5312e-05
6.23171e-06
1.07764e-05
1.60579e-05
1.87888e-05
1.705e-05
1.31946e-05
4.40527e-06
7.3677e-06
1.06601e-05
1.31359e-05
1.3471e-05
1.10419e-05
2.60413e-06
4.28533e-06
6.01441e-06
7.7597e-06
9.43705e-06
8.97669e-06
8.31919e-06
1.17906e-06
1.91515e-06
2.73351e-06
3.59734e-06
4.58977e-06
6.18897e-06
6.98801e-06
6.67182e-06
3.86845e-07
6.25518e-07
9.26836e-07
1.24831e-06
1.63923e-06
2.21502e-06
4.44721e-06
1.06162e-05
8.754e-08
1.6714e-07
3.3467e-07
6.25243e-07
1.00939e-06
1.39601e-06
6.28947e-07
1.39275e-05
4.29606e-08
2.1428e-07
7.49347e-07
1.83492e-06
3.32325e-06
4.81282e-06
3.08715e-06
2.53162e-05
1.89361e-07
8.84e-07
2.66957e-06
5.75259e-06
9.51566e-06
1.34683e-05
1.61063e-05
5.36432e-05
6.97784e-07
2.63465e-06
6.67828e-06
1.25708e-05
1.8993e-05
2.59155e-05
4.08066e-05
7.96318e-05
1.75708e-06
5.49268e-06
1.18729e-05
1.96123e-05
2.64025e-05
3.17526e-05
4.2764e-05
0.000121891
3.19621e-06
8.46149e-06
1.59678e-05
2.35328e-05
2.85275e-05
3.00723e-05
3.27943e-05
8.74748e-05
4.45718e-06
1.03225e-05
1.77474e-05
2.45972e-05
2.81217e-05
2.6794e-05
2.61693e-05
7.06417e-05
4.9362e-06
1.07016e-05
1.76973e-05
2.42351e-05
2.69821e-05
2.38888e-05
2.10772e-05
2.92736e-05
4.49243e-06
9.76435e-06
1.64221e-05
2.28681e-05
2.49604e-05
2.11064e-05
1.83848e-05
2.42677e-05
3.41328e-06
7.76455e-06
1.37357e-05
1.96326e-05
2.12192e-05
1.74862e-05
2.13447e-06
5.03443e-06
9.33401e-06
1.43406e-05
1.63949e-05
1.38364e-05
1.01548e-06
2.54479e-06
4.96451e-06
8.163e-06
1.09466e-05
1.06011e-05
3.65298e-07
9.61637e-07
1.9282e-06
3.26767e-06
5.0596e-06
6.83477e-06
8.74617e-08
2.48222e-07
5.35134e-07
9.14264e-07
1.37202e-06
2.17551e-06
1.74474e-08
7.06213e-08
2.14059e-07
4.81449e-07
8.46887e-07
5.20429e-08
2.34637e-07
7.51108e-07
1.76033e-06
3.15209e-06
2.52717e-07
9.83805e-07
2.7334e-06
5.67951e-06
9.29243e-06
8.46276e-07
2.81531e-06
6.76863e-06
1.24858e-05
1.87958e-05
1.98922e-06
5.68486e-06
1.18809e-05
1.94005e-05
2.61047e-05
3.43556e-06
8.51622e-06
1.57013e-05
2.30287e-05
2.80007e-05
4.58884e-06
1.01403e-05
1.7175e-05
2.38379e-05
2.73124e-05
4.95618e-06
1.02947e-05
1.68879e-05
2.31393e-05
2.57641e-05
4.53335e-06
9.28715e-06
1.53427e-05
2.12509e-05
2.32614e-05
3.49126e-06
7.25457e-06
1.23454e-05
1.75597e-05
1.93372e-05
2.07028e-06
4.53528e-06
8.15377e-06
1.22952e-05
1.46236e-05
9.15862e-07
2.17197e-06
4.17869e-06
6.73664e-06
9.48437e-06
2.94001e-07
7.54132e-07
1.56585e-06
2.70363e-06
4.44151e-06
1.01825e-07
2.9021e-07
6.64788e-07
1.21458e-06
1.99688e-06
2.32078e-07
6.97282e-07
1.58396e-06
2.84081e-06
4.3104e-06
8.62807e-07
2.32717e-06
4.80814e-06
8.05005e-06
1.16759e-05
2.36667e-06
5.62852e-06
1.04364e-05
1.60832e-05
2.20294e-05
4.78249e-06
1.00043e-05
1.66929e-05
2.3507e-05
2.94764e-05
7.53453e-06
1.38388e-05
2.0988e-05
2.73682e-05
3.12629e-05
9.34454e-06
1.58895e-05
2.28631e-05
2.87803e-05
3.01774e-05
9.83544e-06
1.62275e-05
2.30811e-05
2.84444e-05
2.73297e-05
9.22103e-06
1.51812e-05
2.19141e-05
2.64728e-05
2.38055e-05
7.85346e-06
1.31168e-05
1.92765e-05
2.29065e-05
2.03365e-05
6.07632e-06
1.01109e-05
1.47644e-05
1.79154e-05
1.68517e-05
4.18834e-06
6.70487e-06
9.60191e-06
1.22804e-05
1.32065e-05
2.30454e-06
3.61219e-06
5.11271e-06
6.84821e-06
9.0826e-06
9.29651e-07
1.51326e-06
2.22141e-06
3.08192e-06
4.62335e-06
2.85979e-07
5.51494e-07
9.86083e-07
1.58817e-06
2.41814e-06
1.97179e-07
6.54769e-07
1.59668e-06
2.94905e-06
4.50201e-06
4.33963e-11
1.20094e-11
1.83136e-11
4.31603e-11
8.42875e-11
1.30978e-10
1.68802e-10
1.91729e-10
1.93029e-10
1.68635e-10
1.19102e-10
6.60331e-11
2.68922e-11
8.48796e-12
1.07842e-10
2.28738e-11
5.13891e-12
3.37184e-12
5.93004e-12
1.01697e-11
1.53327e-11
2.01487e-11
2.2907e-11
2.22747e-11
1.68808e-11
9.55483e-12
3.72846e-12
1.11736e-12
2.92911e-10
6.29054e-11
1.2165e-11
2.19789e-12
5.79179e-13
6.26102e-13
1.07283e-12
1.63864e-12
2.11949e-12
2.29671e-12
1.8647e-12
1.08315e-12
4.14502e-13
1.24218e-13
6.85238e-10
1.48477e-10
2.82671e-11
4.75687e-12
7.07572e-13
1.12295e-13
6.5078e-14
1.02678e-13
1.51819e-13
1.86101e-13
1.64648e-13
9.90008e-14
3.78105e-14
4.98288e-14
1.11403e-09
2.41796e-10
4.54129e-11
7.39068e-12
1.0365e-12
1.24656e-13
1.45547e-14
5.76197e-15
8.34253e-15
1.16435e-14
1.13108e-14
7.13794e-15
4.95483e-15
1.45422e-13
1.35101e-09
2.78565e-10
4.97601e-11
7.66937e-12
1.01276e-12
1.13496e-13
1.07321e-14
1.02613e-15
4.34448e-16
6.0317e-16
6.44418e-16
4.58389e-16
6.6425e-15
3.72401e-13
1.38662e-09
2.64618e-10
4.38847e-11
6.28074e-12
7.69698e-13
8.00494e-14
6.99089e-15
5.40322e-16
7.80192e-17
6.03433e-17
6.30806e-17
9.58083e-17
1.14453e-14
6.65456e-13
1.25004e-09
2.19478e-10
3.35198e-11
4.41556e-12
4.97533e-13
4.7607e-14
3.84333e-15
2.90366e-16
5.26351e-17
3.98972e-17
3.97808e-17
1.18728e-16
1.38663e-14
7.95198e-13
9.99899e-10
1.62093e-10
2.28674e-11
2.78684e-12
2.90244e-13
2.57476e-14
2.00289e-15
1.95166e-16
6.2431e-17
4.47602e-17
4.16673e-17
2.20376e-16
1.48642e-14
7.07804e-13
6.9875e-10
1.05939e-10
1.39152e-11
1.57475e-12
1.53013e-13
1.43481e-14
2.47192e-15
1.01871e-15
4.70625e-16
1.88504e-16
8.28174e-17
3.91815e-16
1.78491e-14
5.19637e-13
4.10829e-10
5.89992e-11
7.30481e-12
7.91833e-13
9.90064e-14
3.8938e-14
2.73801e-14
1.65596e-14
8.05979e-15
3.04276e-15
9.28492e-16
6.00921e-16
1.5822e-14
3.51197e-13
2.0855e-10
2.9164e-11
3.56828e-12
5.77611e-13
4.12384e-13
4.39721e-13
3.65774e-13
2.35596e-13
1.20952e-13
4.8579e-14
1.54436e-14
4.17683e-15
9.11398e-15
1.67257e-13
8.98634e-11
1.28789e-11
2.48436e-12
2.58063e-12
4.00705e-12
4.66767e-12
4.05469e-12
2.74682e-12
1.48861e-12
6.39622e-13
2.18176e-13
6.15796e-14
1.70838e-14
6.54837e-14
4.35426e-11
9.80003e-12
1.02866e-11
2.12554e-11
3.47277e-11
4.13556e-11
3.7212e-11
2.64438e-11
1.51322e-11
6.93395e-12
2.54184e-12
7.75122e-13
2.01259e-13
1.26823e-13
4.98271e-12
1.01828e-12
8.75528e-13
2.22518e-12
5.13114e-12
9.40089e-12
1.43284e-11
1.87257e-11
2.08412e-11
1.95259e-11
1.42497e-11
8.0414e-12
3.37668e-12
1.09497e-12
1.43366e-11
2.73267e-12
5.04477e-13
1.97246e-13
3.44222e-13
7.08279e-13
1.25504e-12
1.86793e-12
2.33054e-12
2.42413e-12
1.89788e-12
1.0943e-12
4.47425e-13
1.38112e-13
3.95823e-11
7.72492e-12
1.35556e-12
2.1833e-13
4.48428e-14
4.4358e-14
8.59228e-14
1.46457e-13
2.06622e-13
2.38012e-13
1.98874e-13
1.17388e-13
4.74402e-14
1.42195e-14
8.90964e-11
1.76285e-11
3.06912e-12
4.73021e-13
6.45594e-14
9.25208e-15
5.2493e-15
9.06483e-15
1.44189e-14
1.85529e-14
1.67362e-14
1.02081e-14
4.11572e-15
1.84482e-15
1.406e-10
2.77166e-11
4.75098e-12
7.09334e-13
9.19394e-14
1.03413e-14
1.18196e-15
5.33592e-16
8.17262e-16
1.1651e-15
1.14006e-15
7.3388e-16
3.43547e-16
3.27424e-15
1.61166e-10
3.02182e-11
4.93689e-12
7.00387e-13
8.58509e-14
9.05665e-15
8.46157e-16
1.12969e-16
7.39753e-17
9.14699e-17
9.47339e-17
7.54032e-17
1.51601e-16
9.40694e-15
1.52699e-10
2.66215e-11
4.05681e-12
5.37579e-13
6.1521e-14
6.06782e-15
5.38336e-16
7.29894e-17
4.08964e-17
3.98823e-17
4.00984e-17
4.04152e-17
2.70159e-16
1.91672e-14
1.24245e-10
2.00322e-11
2.82664e-12
3.4714e-13
3.6815e-14
3.38031e-15
2.94819e-16
5.43868e-17
3.8814e-17
3.79864e-17
3.79726e-17
4.1496e-17
4.73458e-16
2.7464e-14
8.88347e-11
1.32991e-11
1.74437e-12
1.99523e-13
1.97066e-14
1.70268e-15
1.58722e-16
4.62728e-17
3.88197e-17
3.80932e-17
3.80276e-17
4.86685e-17
8.19819e-16
3.35464e-14
5.51855e-11
7.76831e-12
9.54295e-13
1.01975e-13
9.44132e-15
8.50602e-16
1.48344e-16
7.45765e-17
5.24859e-17
4.25726e-17
3.93198e-17
6.08593e-17
1.25275e-15
3.61968e-14
2.88476e-11
3.87262e-12
4.51142e-13
4.63417e-14
5.41086e-15
1.91961e-15
1.25744e-15
7.21138e-16
3.43732e-16
1.43034e-16
6.62823e-17
7.02961e-17
1.25023e-15
2.9352e-14
1.31491e-11
1.72558e-12
1.99334e-13
3.20775e-14
2.3567e-14
2.39776e-14
1.85872e-14
1.10438e-14
5.20969e-15
1.93277e-15
5.85021e-16
1.78791e-16
7.49507e-16
1.50184e-14
5.14564e-12
6.96695e-13
1.44761e-13
1.75459e-13
2.67365e-13
2.93295e-13
2.35288e-13
1.45484e-13
7.15001e-14
2.77455e-14
8.55629e-15
2.1938e-15
6.9898e-16
5.40109e-15
2.3415e-12
5.92187e-13
8.15213e-13
1.72453e-12
2.70657e-12
3.00897e-12
2.47668e-12
1.59092e-12
8.16754e-13
3.34097e-13
1.09189e-13
2.9616e-14
6.94682e-15
6.35422e-15
5.06919e-13
8.89506e-14
4.08109e-14
1.01897e-13
2.7373e-13
5.96006e-13
1.0651e-12
1.58507e-12
1.95156e-12
1.96416e-12
1.49041e-12
8.58912e-13
3.68506e-13
1.25336e-13
1.58174e-12
2.7587e-13
4.50847e-14
1.17673e-14
1.89423e-14
4.51985e-14
9.19244e-14
1.53587e-13
2.10134e-13
2.33742e-13
1.89726e-13
1.11685e-13
4.70454e-14
1.53266e-14
4.32804e-12
7.76477e-13
1.24983e-13
1.83327e-14
3.19464e-15
2.94475e-15
6.33074e-15
1.19156e-14
1.82222e-14
2.22677e-14
1.92089e-14
1.15546e-14
4.8416e-15
1.55142e-15
9.3905e-12
1.70763e-12
2.7371e-13
3.89056e-14
4.93352e-15
6.84904e-16
4.2138e-16
7.7033e-16
1.28719e-15
1.72545e-15
1.59502e-15
9.98592e-16
4.3505e-16
1.67181e-16
1.4241e-11
2.57261e-12
4.05581e-13
5.59418e-14
6.76311e-15
7.43437e-16
1.1389e-16
7.69078e-17
1.05138e-16
1.38843e-16
1.3759e-16
1.00709e-16
6.39418e-17
1.03466e-16
1.53096e-11
2.63818e-12
3.97627e-13
5.23118e-14
6.01352e-15
6.28608e-16
8.79509e-17
4.23385e-17
4.04928e-17
4.21935e-17
4.24614e-17
4.07127e-17
4.08477e-17
2.53642e-16
1.33256e-11
2.14751e-12
3.03634e-13
3.75509e-14
4.06511e-15
4.11249e-16
6.70502e-17
3.94785e-17
3.7645e-17
3.761e-17
3.76255e-17
3.76047e-17
4.44875e-17
6.05349e-16
9.79003e-12
1.46829e-12
1.93488e-13
2.23529e-14
2.27305e-15
2.30789e-16
5.16746e-17
3.83539e-17
3.74997e-17
3.74502e-17
3.74453e-17
3.76418e-17
5.78152e-17
1.20064e-15
6.28739e-12
8.81369e-13
1.0867e-13
1.17794e-14
1.13823e-15
1.26211e-16
4.36002e-17
3.78606e-17
3.74914e-17
3.74579e-17
3.74538e-17
3.81311e-17
8.69032e-17
2.06035e-15
3.50361e-12
4.64342e-13
5.39087e-14
5.50199e-15
5.17391e-16
7.5741e-17
4.17134e-17
3.86087e-17
3.78775e-17
3.7586e-17
3.75021e-17
3.90206e-17
1.25434e-16
2.78477e-15
1.65385e-12
2.10146e-13
2.32496e-14
2.30139e-15
2.79597e-16
1.11199e-16
8.11108e-17
6.00193e-17
4.67471e-17
4.04184e-17
3.82259e-17
3.95702e-17
1.31955e-16
2.5145e-15
6.86975e-13
8.55587e-14
9.41655e-15
1.51136e-15
1.11721e-15
1.07731e-15
7.88031e-16
4.48401e-16
2.14784e-16
9.67913e-17
5.29125e-17
4.19443e-17
9.42105e-17
1.37154e-15
2.48087e-13
3.20148e-14
7.1488e-15
9.60009e-15
1.41962e-14
1.45935e-14
1.08248e-14
6.14289e-15
2.77493e-15
1.00543e-15
3.07662e-16
9.89796e-17
6.6948e-17
4.9062e-16
1.07864e-13
3.09575e-14
5.21187e-14
1.10796e-13
1.65968e-13
1.71276e-13
1.28905e-13
7.50928e-14
3.48515e-14
1.28996e-14
3.83235e-15
9.63342e-16
2.35783e-16
3.61828e-16
4.37842e-14
7.02056e-15
1.97507e-15
4.38946e-15
1.34843e-14
3.39394e-14
6.92458e-14
1.15328e-13
1.55456e-13
1.66967e-13
1.31411e-13
7.70167e-14
3.35528e-14
1.17904e-14
1.41419e-13
2.28601e-14
3.43775e-15
7.09597e-16
9.88619e-16
2.60898e-15
5.92449e-15
1.09213e-14
1.62133e-14
1.9149e-14
1.60846e-14
9.64747e-15
4.16139e-15
1.42139e-15
3.8221e-13
6.35687e-14
9.49565e-15
1.31255e-15
2.30637e-16
2.05547e-16
4.39795e-16
8.68578e-16
1.40544e-15
1.80341e-15
1.60677e-15
9.94449e-16
4.43716e-16
1.68566e-16
8.02566e-13
1.35057e-13
2.00985e-14
2.6825e-15
3.47147e-16
7.57734e-17
6.16668e-17
8.83201e-17
1.29986e-16
1.6829e-16
1.60763e-16
1.14023e-16
6.93165e-17
4.74478e-17
1.16552e-12
1.94523e-13
2.8457e-14
3.68337e-15
4.47405e-16
7.77939e-17
4.15875e-17
3.99494e-17
4.225e-17
4.4991e-17
4.49643e-17
4.21256e-17
3.92924e-17
3.9046e-17
1.17274e-12
1.87293e-13
2.62784e-14
3.26038e-15
3.83417e-16
6.9649e-17
3.99024e-17
3.75196e-17
3.7463e-17
3.75999e-17
3.76216e-17
3.74889e-17
3.74051e-17
4.28522e-17
9.3814e-13
1.40926e-13
1.86629e-14
2.19902e-15
2.56357e-16
5.65462e-17
3.87272e-17
3.73482e-17
3.72579e-17
3.72567e-17
3.72574e-17
3.72549e-17
3.75272e-17
5.72668e-17
6.2482e-13
8.7928e-14
1.09377e-14
1.22587e-15
1.50138e-16
4.6555e-17
3.79281e-17
3.72968e-17
3.72544e-17
3.72501e-17
3.72489e-17
3.72598e-17
3.83116e-17
9.36e-17
3.62405e-13
4.80045e-14
5.63644e-15
6.11996e-16
8.83179e-17
4.12132e-17
3.75368e-17
3.72797e-17
3.72607e-17
3.72572e-17
3.7256e-17
3.7297e-17
4.0278e-17
1.60738e-16
1.82396e-13
2.29789e-14
2.56913e-15
2.81425e-16
5.74543e-17
3.88138e-17
3.74217e-17
3.73029e-17
3.72789e-17
3.72695e-17
3.72669e-17
3.73661e-17
4.31662e-17
2.30796e-16
7.85044e-14
9.53895e-15
1.03751e-15
1.29352e-16
4.62844e-17
3.96642e-17
3.8562e-17
3.78958e-17
3.75159e-17
3.73478e-17
3.72934e-17
3.74126e-17
4.40102e-17
2.2637e-16
3.00133e-14
3.59569e-15
4.07962e-16
9.33885e-17
7.76632e-17
7.39085e-17
6.186e-17
4.96604e-17
4.21882e-17
3.88048e-17
3.76579e-17
3.74491e-17
4.14644e-17
1.44015e-16
1.01215e-14
1.27627e-15
3.30293e-16
4.61344e-16
6.44781e-16
6.22468e-16
4.38914e-16
2.45876e-16
1.22681e-16
6.46654e-17
4.41986e-17
3.87583e-17
3.89305e-17
7.2239e-17
4.3026e-15
1.4215e-15
2.74847e-15
5.78058e-15
8.23941e-15
7.89744e-15
5.46517e-15
2.91741e-15
1.25208e-15
4.4513e-16
1.46118e-16
6.09188e-17
4.21388e-17
5.39457e-17
3.19157e-15
5.01721e-16
1.28862e-16
2.06893e-16
6.30922e-16
1.73873e-15
3.92918e-15
7.18391e-15
1.04713e-14
1.1913e-14
9.70006e-15
5.77325e-15
2.56008e-15
9.36969e-16
1.0409e-14
1.59388e-15
2.50332e-16
7.20909e-17
7.93979e-17
1.65222e-16
3.63012e-16
6.95423e-16
1.09007e-15
1.34999e-15
1.17449e-15
7.27686e-16
3.36557e-16
1.38472e-16
2.77306e-14
4.31926e-15
6.2936e-16
1.1087e-16
4.72841e-17
4.55631e-17
5.91605e-17
8.65578e-17
1.24096e-16
1.5513e-16
1.44828e-16
1.03376e-16
6.53349e-17
4.63246e-17
5.64967e-14
8.87299e-15
1.26005e-15
1.87387e-16
5.35515e-17
3.91043e-17
3.8501e-17
4.01842e-17
4.29661e-17
4.5708e-17
4.53572e-17
4.22782e-17
3.93211e-17
3.78578e-17
7.84458e-14
1.2206e-14
1.69536e-15
2.36203e-16
5.81873e-17
3.91316e-17
3.73778e-17
3.7324e-17
3.74762e-17
3.76612e-17
3.76665e-17
3.74843e-17
3.7301e-17
3.72387e-17
7.38224e-14
1.10391e-14
1.48049e-15
2.03733e-16
5.40596e-17
3.86771e-17
3.72902e-17
3.71833e-17
3.7182e-17
3.71905e-17
3.7192e-17
3.71841e-17
3.71783e-17
3.73448e-17
5.44282e-14
7.70875e-15
9.91859e-16
1.41657e-16
4.72085e-17
3.8028e-17
3.72395e-17
3.71787e-17
3.71737e-17
3.71729e-17
3.71727e-17
3.71731e-17
3.71859e-17
3.79585e-17
3.30856e-14
4.43169e-15
5.53271e-16
9.03543e-17
4.19968e-17
3.75714e-17
3.72097e-17
3.71819e-17
3.71787e-17
3.71775e-17
3.71771e-17
3.71781e-17
3.72318e-17
3.9897e-17
1.7477e-14
2.23247e-15
2.80694e-16
6.07573e-17
3.92122e-17
3.73457e-17
3.71993e-17
3.71872e-17
3.71848e-17
3.71836e-17
3.71831e-17
3.71857e-17
3.73519e-17
4.41e-17
8.02538e-15
9.96256e-16
1.37598e-16
4.63065e-17
3.7942e-17
3.72541e-17
3.72006e-17
3.71942e-17
3.71918e-17
3.71906e-17
3.719e-17
3.71961e-17
3.75453e-17
4.92252e-17
3.19217e-15
4.01858e-16
7.32781e-17
4.03594e-17
3.75054e-17
3.72723e-17
3.72352e-17
3.72152e-17
3.72043e-17
3.71995e-17
3.71978e-17
3.7206e-17
3.76284e-17
4.97559e-17
1.1513e-15
1.6244e-16
4.93446e-17
3.90405e-17
3.84842e-17
3.82969e-17
3.78908e-17
3.7528e-17
3.73253e-17
3.72404e-17
3.72134e-17
3.72128e-17
3.74846e-17
4.45912e-17
3.87078e-16
7.74093e-17
4.75951e-17
5.30475e-17
5.91309e-17
5.69946e-17
4.97697e-17
4.31966e-17
3.94638e-17
3.78843e-17
3.73732e-17
3.72468e-17
3.73119e-17
3.96238e-17
1.84623e-16
9.11962e-17
1.55694e-16
2.86748e-16
3.77338e-16
3.40766e-16
2.30221e-16
1.30729e-16
7.29727e-17
4.80416e-17
3.98522e-17
3.77547e-17
3.73424e-17
3.80767e-17
2.26183e-16
6.26304e-17
4.12452e-17
4.29054e-17
5.98103e-17
1.10922e-16
2.24437e-16
4.12228e-16
6.25355e-16
7.44015e-16
6.30788e-16
3.93399e-16
1.9446e-16
9.31842e-17
6.6845e-16
1.24985e-16
4.81846e-17
3.87297e-17
3.87902e-17
4.25898e-17
5.24217e-17
7.07489e-17
9.48006e-17
1.12854e-16
1.0461e-16
7.84044e-17
5.49961e-17
4.31726e-17
1.70586e-15
2.77839e-16
6.79793e-17
4.07001e-17
3.75851e-17
3.7501e-17
3.81676e-17
3.96195e-17
4.17856e-17
4.37466e-17
4.33054e-17
4.09489e-17
3.87616e-17
3.76639e-17
3.34211e-15
5.205e-16
9.95687e-17
4.42879e-17
3.78682e-17
3.72171e-17
3.71953e-17
3.72829e-17
3.7436e-17
3.75974e-17
3.75871e-17
3.74173e-17
3.72515e-17
3.71688e-17
4.41692e-15
6.72925e-16
1.18318e-16
4.62862e-17
3.80485e-17
3.72179e-17
3.71444e-17
3.71419e-17
3.71491e-17
3.71587e-17
3.7159e-17
3.71491e-17
3.71392e-17
3.71354e-17
3.89102e-15
5.76798e-16
1.03717e-16
4.43976e-17
3.7841e-17
3.72005e-17
3.71439e-17
3.71383e-17
3.71371e-17
3.71367e-17
3.71363e-17
3.71357e-17
3.71356e-17
3.71415e-17
2.66297e-15
3.86601e-16
7.81275e-17
4.14041e-17
3.75395e-17
3.71773e-17
3.71457e-17
3.71418e-17
3.71404e-17
3.71394e-17
3.71389e-17
3.71387e-17
3.71395e-17
3.717e-17
1.50213e-15
2.21717e-16
5.75939e-17
3.91722e-17
3.73296e-17
3.71638e-17
3.71488e-17
3.71462e-17
3.71448e-17
3.71438e-17
3.71432e-17
3.71431e-17
3.71457e-17
3.72651e-17
7.45515e-16
1.21657e-16
4.60044e-17
3.7993e-17
3.72272e-17
3.71601e-17
3.71531e-17
3.7151e-17
3.71496e-17
3.71486e-17
3.7148e-17
3.7148e-17
3.71562e-17
3.7492e-17
3.34029e-16
7.07198e-17
4.05099e-17
3.74658e-17
3.71868e-17
3.71621e-17
3.71582e-17
3.71563e-17
3.71549e-17
3.71539e-17
3.71533e-17
3.71534e-17
3.71718e-17
3.7806e-17
1.44561e-16
4.87627e-17
3.8291e-17
3.72686e-17
3.71774e-17
3.71678e-17
3.71646e-17
3.71623e-17
3.71607e-17
3.71596e-17
3.71589e-17
3.71591e-17
3.71827e-17
3.78844e-17
7.17776e-17
4.08318e-17
3.75341e-17
3.723e-17
3.72097e-17
3.72002e-17
3.71864e-17
3.71752e-17
3.7169e-17
3.71662e-17
3.7165e-17
3.71648e-17
3.71805e-17
3.7612e-17
4.71554e-17
3.83067e-17
3.75145e-17
3.77053e-17
3.78762e-17
3.77673e-17
3.75242e-17
3.73281e-17
3.72266e-17
3.71867e-17
3.71743e-17
3.71711e-17
3.71754e-17
3.73164e-17
4.17018e-17
3.90772e-17
4.17159e-17
4.66614e-17
4.95257e-17
4.74331e-17
4.31786e-17
3.98379e-17
3.81123e-17
3.74402e-17
3.72368e-17
3.71879e-17
3.71791e-17
3.72177e-17
4.63841e-17
3.82937e-17
3.72738e-17
3.72928e-17
3.78781e-17
3.98352e-17
4.46807e-17
5.35982e-17
6.4872e-17
7.23425e-17
6.75776e-17
5.55018e-17
4.52121e-17
3.99897e-17
6.86865e-17
4.12211e-17
3.75983e-17
3.71721e-17
3.71662e-17
3.73126e-17
3.77241e-17
3.85585e-17
3.97586e-17
4.0764e-17
4.04487e-17
3.91637e-17
3.79969e-17
3.74036e-17
1.20369e-16
4.83089e-17
3.84594e-17
3.72576e-17
3.71269e-17
3.7122e-17
3.71484e-17
3.72117e-17
3.73139e-17
3.74143e-17
3.74002e-17
3.72877e-17
3.71807e-17
3.71266e-17
1.97994e-16
5.91245e-17
3.97775e-17
3.74008e-17
3.71401e-17
3.71136e-17
3.71115e-17
3.71139e-17
3.71197e-17
3.71266e-17
3.71258e-17
3.71173e-17
3.71089e-17
3.71048e-17
2.4054e-16
6.48475e-17
4.04449e-17
3.74697e-17
3.71484e-17
3.71162e-17
3.7112e-17
3.71105e-17
3.71095e-17
3.71089e-17
3.71081e-17
3.7107e-17
3.71061e-17
3.71057e-17
2.04603e-16
5.92174e-17
3.97001e-17
3.73864e-17
3.71426e-17
3.71184e-17
3.71148e-17
3.71131e-17
3.71118e-17
3.71107e-17
3.71098e-17
3.71091e-17
3.71086e-17
3.71086e-17
1.42743e-16
5.03894e-17
3.86094e-17
3.7271e-17
3.71345e-17
3.71206e-17
3.71179e-17
3.71163e-17
3.71149e-17
3.71138e-17
3.71129e-17
3.71122e-17
3.71117e-17
3.71125e-17
9.12919e-17
4.3593e-17
3.78215e-17
3.7193e-17
3.71305e-17
3.71234e-17
3.71213e-17
3.71197e-17
3.71183e-17
3.71172e-17
3.71162e-17
3.71155e-17
3.7115e-17
3.71194e-17
6.10657e-17
3.98658e-17
3.74134e-17
3.71562e-17
3.71306e-17
3.71268e-17
3.71249e-17
3.71233e-17
3.71219e-17
3.71208e-17
3.71198e-17
3.7119e-17
3.71187e-17
3.71327e-17
4.62777e-17
3.81467e-17
3.72359e-17
3.71431e-17
3.71331e-17
3.71305e-17
3.71287e-17
3.71271e-17
3.71257e-17
3.71246e-17
3.71235e-17
3.71226e-17
3.71227e-17
3.71517e-17
4.01894e-17
3.74704e-17
3.71717e-17
3.71411e-17
3.71367e-17
3.71345e-17
3.71327e-17
3.71311e-17
3.71297e-17
3.71285e-17
3.71274e-17
3.71264e-17
3.71267e-17
3.71607e-17
3.80717e-17
3.72441e-17
3.71539e-17
3.7144e-17
3.71415e-17
3.71393e-17
3.71372e-17
3.71353e-17
3.71338e-17
3.71325e-17
3.71313e-17
3.71302e-17
3.713e-17
3.71514e-17
3.74083e-17
3.7179e-17
3.71583e-17
3.71627e-17
3.7165e-17
3.71588e-17
3.71498e-17
3.7143e-17
3.71391e-17
3.71369e-17
3.71354e-17
3.7134e-17
3.7133e-17
3.7139e-17
3.72861e-17
3.72155e-17
3.73128e-17
3.74781e-17
3.75526e-17
3.74594e-17
3.73146e-17
3.72129e-17
3.71645e-17
3.71465e-17
3.71405e-17
3.7138e-17
3.71364e-17
3.71364e-17
3.74778e-17
3.71335e-17
3.70908e-17
3.70887e-17
3.71054e-17
3.71699e-17
3.73442e-17
3.76932e-17
3.81783e-17
3.85469e-17
3.83838e-17
3.78715e-17
3.74251e-17
3.71959e-17
3.8417e-17
3.72526e-17
3.7105e-17
3.70872e-17
3.70853e-17
3.70886e-17
3.71018e-17
3.71323e-17
3.71803e-17
3.72245e-17
3.72143e-17
3.71607e-17
3.71102e-17
3.70841e-17
4.05464e-17
3.75301e-17
3.71385e-17
3.70921e-17
3.70859e-17
3.70842e-17
3.70836e-17
3.70845e-17
3.70872e-17
3.70902e-17
3.70887e-17
3.70831e-17
3.70775e-17
3.70743e-17
4.36117e-17
3.79324e-17
3.71864e-17
3.70987e-17
3.70882e-17
3.70858e-17
3.70842e-17
3.70828e-17
3.70817e-17
3.70807e-17
3.70795e-17
3.7078e-17
3.70765e-17
3.70753e-17
4.49839e-17
3.8107e-17
3.72071e-17
3.71024e-17
3.70903e-17
3.70878e-17
3.70861e-17
3.70846e-17
3.70832e-17
3.70819e-17
3.70807e-17
3.70795e-17
3.70783e-17
3.70773e-17
4.31737e-17
3.78572e-17
3.71788e-17
3.71012e-17
3.70921e-17
3.70898e-17
3.70882e-17
3.70867e-17
3.70852e-17
3.70839e-17
3.70827e-17
3.70815e-17
3.70803e-17
3.70793e-17
4.06459e-17
3.75259e-17
3.71423e-17
3.70993e-17
3.70938e-17
3.70919e-17
3.70903e-17
3.70888e-17
3.70874e-17
3.70861e-17
3.70848e-17
3.70836e-17
3.70824e-17
3.70813e-17
3.87859e-17
3.72957e-17
3.71188e-17
3.7099e-17
3.70957e-17
3.7094e-17
3.70925e-17
3.7091e-17
3.70896e-17
3.70882e-17
3.70869e-17
3.70857e-17
3.70845e-17
3.70834e-17
3.77977e-17
3.71799e-17
3.71085e-17
3.71e-17
3.70978e-17
3.70962e-17
3.70947e-17
3.70932e-17
3.70918e-17
3.70904e-17
3.70891e-17
3.70878e-17
3.70865e-17
3.70857e-17
3.73549e-17
3.71313e-17
3.71056e-17
3.71017e-17
3.71e-17
3.70985e-17
3.7097e-17
3.70955e-17