/*--------------------------------*- C++ -*----------------------------------*\
| =========                 |                                                 |
| \\      /  F ield         | OpenFOAM: The Open Source CFD Toolbox           |
|  \\    /   O peration     | Version:  v2106                                 |
|   \\  /    A nd           | Website:  www.openfoam.com                      |
|    \\/     M anipulation  |                                                 |
\*---------------------------------------------------------------------------*/
FoamFile
{
    version     2.0;
    format      ascii;
    arch        "LSB;label=32;scalar=64";
    class       volScalarField;
    location    "0.000126";
    object      Ttot;
}
// * * * * * * * * * * * * * * * * * * * * * * * * * * * * * * * * * * * * * //

dimensions      [0 0 0 1 0 0 0];

internalField   nonuniform List<scalar> 
18109
(
305.825
305.697
305.658
305.615
305.581
305.571
305.602
305.855
305.8
305.766
305.735
305.727
305.743
305.791
305.826
305.831
305.841
305.852
305.879
305.918
305.982
305.884
305.927
305.963
305.992
306.038
306.089
306.162
305.932
306.002
306.066
306.122
306.188
306.256
306.335
306.024
306.114
306.191
306.267
306.344
306.422
306.504
306.14
306.24
306.328
306.416
306.5
306.585
306.667
306.299
306.401
306.489
306.583
306.667
306.753
306.832
305.861
305.765
305.741
305.711
305.694
305.698
305.736
305.798
305.898
306.029
306.186
306.352
306.545
306.728
305.91
305.864
305.839
305.822
305.826
305.849
305.901
305.975
306.083
306.209
306.352
306.501
306.651
306.794
305.909
305.908
305.916
305.93
305.96
306.001
306.064
306.14
306.238
306.351
306.479
306.62
306.744
306.867
305.982
306.011
306.036
306.06
306.102
306.151
306.221
306.3
306.397
306.504
306.615
306.715
306.816
306.905
306.044
306.094
306.14
306.183
306.238
306.299
306.374
306.453
306.545
306.64
306.733
306.822
306.883
306.948
306.146
306.21
306.267
306.323
306.384
306.452
306.528
306.609
306.697
306.783
306.862
306.929
306.966
307.003
306.266
306.34
306.403
306.469
306.534
306.609
306.687
306.769
306.851
306.926
306.989
307.036
307.057
307.066
306.421
306.499
306.562
306.634
306.701
306.779
306.857
306.936
307.012
307.077
307.128
307.158
307.165
307.141
306.58
306.659
306.724
306.804
306.874
306.955
307.031
307.107
307.177
307.233
307.274
307.29
307.285
307.233
306.767
306.842
306.904
306.986
307.056
307.136
307.208
307.279
307.343
307.39
307.423
307.43
307.416
307.346
306.934
307.01
307.068
307.152
307.223
307.303
307.375
307.442
307.502
307.542
307.572
307.576
307.561
307.486
307.116
307.187
307.234
307.317
307.386
307.461
307.531
307.597
307.656
307.697
307.73
307.733
307.716
307.643
307.248
307.336
307.364
307.443
307.505
307.579
307.654
307.728
307.793
307.842
307.884
307.896
307.888
307.817
307.419
307.492
307.481
307.554
307.612
307.687
307.768
307.852
307.929
308
308.053
308.083
308.079
308
305.95
306.16
306.305
306.472
306.619
306.808
305.94
306.087
306.202
306.339
306.476
306.658
305.677
305.738
305.801
305.916
306.059
306.212
305.654
305.67
305.669
305.683
305.68
305.609
305.571
305.497
305.41
305.311
305.154
304.8
305.517
305.373
305.205
304.992
304.668
304.053
305.501
305.293
305.067
304.778
304.356
303.601
305.531
305.29
305.031
304.692
304.229
303.433
305.601
305.365
305.101
304.751
304.307
303.648
305.718
305.509
305.279
304.986
304.631
304.175
305.865
305.687
305.505
305.308
305.11
304.878
306.052
305.926
305.814
305.711
305.645
305.576
306.261
306.187
306.152
306.142
306.194
306.248
306.519
306.484
306.534
306.595
306.712
306.851
306.658
306.726
306.806
306.938
307.108
307.323
306.923
307.042
307.174
307.331
307.508
307.714
306.872
307.011
307.159
307.35
307.555
307.785
306.947
307.08
307.208
307.358
307.522
307.683
306.945
307.016
307.072
307.127
307.194
307.255
306.961
306.969
306.952
306.917
306.879
306.792
306.987
306.927
306.835
306.698
306.539
306.302
307.02
306.9
306.74
306.523
306.289
305.944
307.069
306.915
306.718
306.461
306.171
305.744
307.153
306.988
306.789
306.513
306.183
305.764
307.271
307.112
306.929
306.672
306.388
306.057
307.414
307.285
307.143
306.946
306.745
306.511
307.585
307.51
307.428
307.31
307.207
307.086
307.799
307.76
307.75
307.723
307.729
307.729
307.948
307.983
308.025
308.095
308.187
308.303
308.209
308.287
308.407
308.522
308.652
308.804
308.193
308.337
308.491
308.669
308.854
309.057
308.23
308.417
308.592
308.786
308.978
309.169
308.202
308.377
308.529
308.676
308.799
308.915
308.139
308.299
308.422
308.514
308.573
308.572
308.055
308.182
308.263
308.292
308.265
308.145
307.961
308.05
308.088
308.056
307.965
307.773
307.859
307.919
307.924
307.858
307.732
307.578
307.761
307.799
307.792
307.727
307.602
307.429
307.677
307.705
307.7
307.657
307.602
307.527
307.619
307.64
307.667
307.677
307.693
307.713
307.544
307.589
307.65
307.721
307.802
307.909
307.575
307.618
307.708
307.809
307.944
308.126
307.443
307.535
307.648
307.814
307.996
308.242
305.814
305.745
305.729
305.721
305.773
305.835
305.787
305.789
305.841
305.942
306.106
306.29
305.89
305.919
306.04
306.178
306.386
306.652
305.767
305.898
306.043
306.289
306.546
306.866
307.489
307.675
307.786
307.927
308.043
308.218
307.201
307.304
307.377
307.514
307.65
307.814
307.063
307.142
307.19
307.26
307.284
307.251
306.865
306.891
306.88
306.865
306.755
306.447
306.689
306.659
306.591
306.483
306.239
305.73
306.497
306.421
306.311
306.144
305.838
305.239
306.33
306.222
306.088
305.889
305.574
305.015
306.173
306.053
305.917
305.722
305.434
304.978
306.056
305.93
305.803
305.65
305.481
305.231
305.967
305.876
305.812
305.739
305.681
305.591
305.93
305.867
305.857
305.848
305.895
305.95
305.882
305.873
305.907
305.978
306.108
306.251
305.934
305.943
306.036
306.139
306.307
306.519
305.814
305.904
306.011
306.202
306.412
306.679
307.094
307.948
308.889
309.969
311.441
306.409
306.686
306.873
306.975
307.356
305.262
304.628
303.457
302.368
301.348
303.75
301.896
299.584
297.59
296.413
302.546
299.96
297.325
295.862
296.39
302.036
299.221
296.625
296.04
298.165
301.928
299.3
297.206
297.421
300.355
302.415
300.54
299.059
299.611
303.056
306.162
303.424
302.377
301.525
302.02
304.966
308.039
304.511
304.08
303.835
304.45
306.511
308.48
305.542
305.619
305.872
306.599
307.918
309.109
309.674
306.449
306.886
307.543
308.435
309.49
310.276
309.942
307.436
307.244
307.99
308.938
309.988
311.167
312.209
310.978
312.048
307.816
308.701
309.746
310.876
312.036
313.053
313.687
312.852
308.191
309.097
310.213
311.501
313.045
314.804
315.813
315.581
308.246
309.071
310.11
311.324
312.681
314.356
316.356
316.069
307.928
308.356
308.959
309.55
310.533
311.856
314.365
317.091
307.254
307.189
306.901
306.658
306.781
307.578
308.97
310.607
306.399
305.603
304.308
303.311
303.166
304.57
305.8
303.097
305.651
304.453
302.721
301.554
301.815
303.694
306.007
304.893
305.239
303.915
302.136
300.992
301.58
303.207
305.492
302.841
305.049
303.734
302.205
301.255
302.032
303.049
301.882
298.919
305.113
304.131
303.047
302.131
302.65
303.71
305.617
305.02
304.419
303.614
303.397
304.284
306.262
306.035
305.883
305.509
305.09
305.105
307.035
307.141
307.338
307.475
307.65
307.962
307.88
308.291
308.843
309.469
310.266
311.374
308.608
309.227
310.059
311.018
312.155
309.175
309.917
310.919
312.108
313.638
309.478
310.255
311.303
312.576
314.039
309.476
310.003
310.733
311.556
312.714
309.018
309.157
309.146
309.293
309.738
308.347
307.815
306.926
306.371
306.595
307.716
306.872
305.724
305.175
305.733
307.336
306.404
305.303
304.954
305.886
307.101
306.296
305.416
305.302
306.47
307.105
306.638
306.048
305.889
306.904
307.418
307.278
307.106
306.923
307.114
307.784
307.984
308.19
308.344
308.254
308.15
308.638
309.163
309.66
310.146
308.495
309.223
310.042
310.93
311.816
308.724
309.622
310.579
311.605
312.695
308.627
309.497
310.462
311.619
313.159
308
308.361
308.692
309.106
309.673
306.963
306.459
305.536
304.843
304.165
305.514
303.921
301.899
300.266
299.498
304.419
302.165
299.894
298.737
299.559
303.893
301.46
299.308
299.11
301.361
303.72
301.52
299.904
300.572
303.483
304.031
302.549
301.572
302.603
306.003
304.748
304.039
303.725
304.791
307.707
305.463
305.399
305.7
306.936
309.05
306.119
306.567
307.389
308.602
310.135
306.62
307.401
308.498
309.786
311.202
307.002
307.932
309.13
310.524
312.001
307.213
308.229
309.404
310.625
311.83
305.875
305.815
305.813
305.805
305.811
305.834
305.881
305.946
306.034
306.145
306.276
306.415
306.569
306.721
305.964
305.927
305.914
305.917
305.936
305.969
306.025
306.099
306.194
306.305
306.423
306.552
306.678
306.801
305.997
305.995
306.003
306.025
306.061
306.106
306.17
306.245
306.335
306.434
306.541
306.661
306.771
306.884
306.098
306.114
306.132
306.159
306.202
306.253
306.321
306.397
306.485
306.58
306.676
306.766
306.856
306.937
306.188
306.219
306.254
306.292
306.342
306.4
306.469
306.544
306.627
306.712
306.794
306.876
306.933
306.996
306.306
306.347
306.39
306.437
306.49
306.553
306.622
306.696
306.775
306.853
306.925
306.988
307.027
307.064
306.432
306.482
306.531
306.586
306.642
306.708
306.776
306.851
306.925
306.995
307.055
307.101
307.125
307.141
306.579
306.636
306.684
306.744
306.799
306.868
306.936
307.009
307.08
307.142
307.193
307.223
307.237
307.23
306.724
306.785
306.835
306.9
306.959
307.031
307.1
307.173
307.24
307.295
307.337
307.356
307.361
307.33
306.884
306.944
306.994
307.063
307.123
307.198
307.267
307.338
307.402
307.45
307.485
307.497
307.492
307.441
307.025
307.09
307.14
307.214
307.28
307.358
307.43
307.499
307.561
307.603
307.635
307.639
307.63
307.568
307.177
307.242
307.288
307.366
307.434
307.512
307.584
307.653
307.714
307.754
307.787
307.787
307.774
307.71
307.288
307.372
307.409
307.489
307.557
307.639
307.717
307.79
307.853
307.895
307.93
307.931
307.92
307.868
307.424
307.509
307.523
307.606
307.673
307.755
307.835
307.912
307.981
308.035
308.079
308.093
308.084
308.022
305.982
305.951
305.956
305.96
305.97
305.99
306.023
306.065
306.118
306.184
306.269
306.367
306.47
306.578
306.09
306.064
306.062
306.07
306.087
306.111
306.147
306.191
306.246
306.318
306.395
306.487
306.577
306.667
306.147
306.145
306.153
306.172
306.198
306.228
306.268
306.313
306.368
306.433
306.502
306.584
306.661
306.75
306.251
306.257
306.271
306.293
306.324
306.357
306.399
306.444
306.5
306.561
306.625
306.694
306.755
306.821
306.346
306.361
306.385
306.413
306.447
306.485
306.527
306.574
306.627
306.682
306.737
306.794
306.841
306.894
306.453
306.476
306.506
306.54
306.577
306.619
306.662
306.71
306.759
306.81
306.858
306.904
306.936
306.967
306.564
306.595
306.629
306.67
306.709
306.755
306.798
306.846
306.893
306.938
306.979
307.012
307.033
307.043
306.686
306.723
306.758
306.803
306.843
306.892
306.935
306.984
307.028
307.068
307.103
307.123
307.132
307.125
306.804
306.848
306.885
306.936
306.977
307.029
307.074
307.122
307.164
307.199
307.226
307.237
307.238
307.218
306.933
306.978
307.015
307.068
307.111
307.165
307.211
307.259
307.299
307.329
307.352
307.356
307.352
307.317
307.051
307.1
307.139
307.195
307.241
307.298
307.346
307.394
307.433
307.46
307.479
307.478
307.47
307.424
307.177
307.228
307.265
307.322
307.369
307.427
307.476
307.524
307.563
307.588
307.607
307.603
307.592
307.541
307.277
307.339
307.373
307.433
307.483
307.544
307.597
307.646
307.686
307.71
307.728
307.722
307.712
307.676
307.393
307.455
307.481
307.543
307.593
307.653
307.706
307.757
307.799
307.826
307.849
307.85
307.835
307.817
306.065
306.043
306.044
306.041
306.041
306.045
306.056
306.076
306.102
306.138
306.18
306.239
306.3
306.373
306.156
306.134
306.13
306.128
306.131
306.138
306.153
306.173
306.199
306.236
306.277
306.333
306.389
306.451
306.208
306.201
306.202
306.207
306.217
306.228
306.246
306.265
306.291
306.324
306.362
306.411
306.46
306.522
306.292
306.289
306.293
306.302
306.314
306.328
306.346
306.365
306.39
306.42
306.455
306.498
306.539
306.592
306.371
306.376
306.385
306.396
306.411
306.426
306.444
306.463
306.486
306.513
306.544
306.58
306.616
306.662
306.459
306.468
306.481
306.495
306.511
306.529
306.546
306.565
306.587
306.611
306.638
306.669
306.698
306.732
306.549
306.563
306.578
306.596
306.613
306.633
306.65
306.669
306.687
306.708
306.731
306.756
306.78
306.804
306.644
306.662
306.677
306.699
306.716
306.738
306.753
306.772
306.788
306.807
306.827
306.846
306.864
306.876
306.738
306.761
306.777
306.802
306.819
306.841
306.856
306.874
306.889
306.906
306.922
306.936
306.951
306.953
306.838
306.863
306.879
306.904
306.92
306.942
306.957
306.975
306.99
307.005
307.02
307.028
307.041
307.035
306.936
306.965
306.979
307.005
307.02
307.042
307.058
307.077
307.092
307.106
307.117
307.121
307.134
307.122
307.039
307.069
307.082
307.105
307.119
307.142
307.158
307.177
307.192
307.204
307.216
307.216
307.231
307.215
307.137
307.169
307.181
307.203
307.218
307.241
307.259
307.279
307.294
307.305
307.316
307.316
307.33
307.32
307.242
307.273
307.282
307.303
307.317
307.339
307.357
307.377
307.392
307.403
307.418
307.423
307.434
307.438
306.039
306.02
306.014
306.004
305.998
305.993
305.991
305.994
306.003
306.019
306.036
306.067
306.099
306.142
306.112
306.091
306.081
306.07
306.064
306.059
306.058
306.062
306.07
306.085
306.104
306.135
306.166
306.205
306.156
306.145
306.138
306.13
306.126
306.122
306.122
306.126
306.135
306.148
306.165
306.193
306.221
306.262
306.218
306.209
306.203
306.197
306.193
306.191
306.191
306.194
306.202
306.213
306.231
306.256
306.283
306.321
306.279
306.272
306.269
306.264
306.261
306.258
306.258
306.261
306.268
306.278
306.295
306.318
306.344
306.38
306.343
306.338
306.336
306.332
306.329
306.327
306.327
306.33
306.337
306.347
306.363
306.384
306.408
306.441
306.409
306.407
306.405
306.403
306.4
306.399
306.399
306.402
306.407
306.416
306.431
306.45
306.474
306.502
306.479
306.479
306.476
306.476
306.473
306.473
306.472
306.475
306.48
306.488
306.502
306.52
306.542
306.566
306.553
306.554
306.551
306.552
306.549
306.549
306.548
306.55
306.554
306.562
306.574
306.591
306.612
306.63
306.632
306.635
306.629
306.631
306.626
306.627
306.625
306.627
306.632
306.639
306.65
306.665
306.686
306.698
306.714
306.719
306.712
306.713
306.708
306.708
306.706
306.708
306.712
306.719
306.73
306.741
306.763
306.77
306.801
306.808
306.798
306.798
306.792
306.792
306.79
306.792
306.796
306.802
306.813
306.822
306.846
306.849
306.891
306.899
306.888
306.887
306.881
306.881
306.879
306.88
306.884
306.89
306.901
306.908
306.931
306.935
306.982
306.991
306.981
306.978
306.972
306.972
306.969
306.971
306.975
306.98
306.991
307.002
307.021
307.035
305.919
305.901
305.888
305.874
305.863
305.853
305.847
305.843
305.844
305.85
305.857
305.871
305.886
305.91
305.971
305.95
305.936
305.922
305.912
305.902
305.897
305.893
305.894
305.9
305.908
305.923
305.939
305.961
306.009
305.994
305.981
305.968
305.959
305.95
305.944
305.941
305.942
305.948
305.955
305.969
305.984
306.008
306.057
306.042
306.03
306.017
306.007
305.999
305.994
305.991
305.992
305.997
306.005
306.019
306.035
306.057
306.105
306.091
306.079
306.067
306.058
306.05
306.045
306.042
306.043
306.048
306.056
306.069
306.085
306.107
306.155
306.142
306.131
306.119
306.11
306.102
306.097
306.094
306.096
306.101
306.109
306.122
306.138
306.159
306.208
306.196
306.185
306.174
306.165
306.157
306.151
306.149
306.15
306.155
306.163
306.176
306.192
306.212
306.264
306.254
306.242
306.232
306.222
306.214
306.209
306.206
306.208
306.213
306.221
306.233
306.248
306.267
306.324
306.316
306.303
306.293
306.283
306.275
306.269
306.267
306.268
306.272
306.28
306.291
306.306
306.322
306.388
306.381
306.367
306.357
306.346
306.339
306.333
306.33
306.331
306.335
306.342
306.353
306.368
306.38
306.455
306.45
306.435
306.426
306.414
306.407
306.4
306.397
306.397
306.401
306.407
306.416
306.43
306.438
306.526
306.523
306.506
306.497
306.484
306.477
306.47
306.466
306.466
306.47
306.476
306.483
306.498
306.501
306.601
306.598
306.581
306.571
306.559
306.551
306.544
306.539
306.539
306.542
306.548
306.553
306.566
306.567
306.68
306.675
306.658
306.647
306.635
306.626
306.619
306.614
306.613
306.616
306.621
306.628
306.638
306.646
305.784
305.764
305.75
305.734
305.722
305.711
305.702
305.696
305.692
305.69
305.69
305.693
305.697
305.703
305.822
305.801
305.786
305.771
305.759
305.748
305.74
305.734
305.73
305.729
305.73
305.734
305.739
305.744
305.855
305.837
305.822
305.808
305.796
305.786
305.778
305.772
305.769
305.767
305.768
305.772
305.776
305.782
305.892
305.874
305.86
305.846
305.835
305.825
305.817
305.812
305.809
305.808
305.809
305.813
305.817
305.823
305.929
305.912
305.899
305.885
305.874
305.865
305.858
305.853
305.85
305.849
305.85
305.853
305.858
305.864
305.968
305.952
305.939
305.926
305.916
305.906
305.899
305.895
305.892
305.891
305.892
305.896
305.9
305.906
306.009
305.995
305.982
305.969
305.959
305.95
305.943
305.938
305.936
305.935
305.936
305.938
305.943
305.949
306.053
306.04
306.026
306.014
306.004
305.995
305.988
305.983
305.981
305.98
305.981
305.983
305.987
305.992
306.099
306.087
306.074
306.062
306.051
306.042
306.035
306.03
306.028
306.027
306.027
306.029
306.032
306.036
306.148
306.137
306.123
306.111
306.1
306.092
306.084
306.079
306.076
306.075
306.075
306.077
306.079
306.08
306.198
306.189
306.174
306.163
306.152
306.143
306.136
306.13
306.127
306.125
306.124
306.125
306.127
306.123
306.251
306.243
306.228
306.217
306.205
306.196
306.188
306.182
306.178
306.176
306.175
306.175
306.176
306.17
306.305
306.297
306.283
306.272
306.26
306.251
306.242
306.236
306.231
306.228
306.226
306.224
306.224
306.216
306.364
306.352
306.338
306.327
306.315
306.306
306.297
306.29
306.285
306.281
306.279
306.277
306.276
306.271
305.615
305.595
305.58
305.565
305.552
305.54
305.53
305.521
305.513
305.507
305.501
305.497
305.493
305.49
305.642
305.622
305.607
305.593
305.58
305.568
305.559
305.55
305.542
305.536
305.53
305.527
305.522
305.521
305.667
305.649
305.635
305.621
305.609
305.598
305.588
305.58
305.572
305.566
305.561
305.557
305.552
305.55
305.694
305.678
305.664
305.65
305.639
305.628
305.619
305.61
305.603
305.597
305.592
305.588
305.583
305.581
305.722
305.707
305.694
305.681
305.67
305.659
305.651
305.643
305.636
305.63
305.624
305.62
305.615
305.612
305.752
305.737
305.725
305.713
305.702
305.692
305.683
305.675
305.669
305.663
305.657
305.652
305.647
305.643
305.782
305.769
305.757
305.746
305.735
305.725
305.717
305.709
305.702
305.696
305.69
305.685
305.679
305.675
305.814
305.802
305.79
305.779
305.769
305.76
305.751
305.743
305.736
305.73
305.724
305.718
305.712
305.706
305.846
305.836
305.824
305.814
305.804
305.794
305.786
305.778
305.771
305.764
305.757
305.751
305.744
305.737
305.879
305.87
305.859
305.848
305.839
305.829
305.821
305.813
305.805
305.798
305.791
305.783
305.777
305.768
305.912
305.904
305.894
305.884
305.874
305.865
305.856
305.848
305.84
305.832
305.824
305.816
305.808
305.798
305.947
305.939
305.928
305.919
305.909
305.9
305.891
305.882
305.874
305.865
305.857
305.848
305.84
305.828
305.981
305.973
305.963
305.954
305.945
305.935
305.926
305.916
305.907
305.898
305.889
305.878
305.869
305.856
306.016
306.007
305.997
305.988
305.979
305.969
305.96
305.95
305.94
305.93
305.921
305.909
305.9
305.886
305.404
305.387
305.374
305.36
305.347
305.335
305.324
305.313
305.302
305.292
305.282
305.273
305.262
305.254
305.421
305.405
305.392
305.379
305.367
305.355
305.343
305.333
305.322
305.312
305.302
305.292
305.281
305.274
305.437
305.423
305.41
305.398
305.386
305.375
305.364
305.353
305.343
305.333
305.323
305.313
305.302
305.294
305.455
305.442
305.43
305.418
305.407
305.396
305.385
305.375
305.364
305.354
305.344
305.334
305.323
305.314
305.473
305.461
305.45
305.438
305.428
305.417
305.407
305.397
305.386
305.376
305.366
305.356
305.345
305.335
305.491
305.48
305.47
305.459
305.449
305.439
305.429
305.419
305.408
305.398
305.388
305.377
305.366
305.355
305.51
305.5
305.49
305.48
305.47
305.46
305.451
305.44
305.43
305.42
305.409
305.398
305.386
305.374
305.529
305.52
305.51
305.501
305.492
305.482
305.472
305.462
305.452
305.441
305.43
305.418
305.406
305.393
305.547
305.539
305.531
305.522
305.512
305.503
305.493
305.483
305.473
305.461
305.45
305.437
305.425
305.411
305.565
305.558
305.55
305.542
305.533
305.523
305.514
305.503
305.492
305.481
305.469
305.456
305.443
305.428
305.583
305.577
305.569
305.561
305.552
305.543
305.533
305.522
305.511
305.499
305.487
305.473
305.46
305.444
305.601
305.595
305.588
305.58
305.571
305.561
305.551
305.54
305.529
305.516
305.503
305.488
305.475
305.459
305.618
305.613
305.605
305.598
305.589
305.579
305.569
305.557
305.545
305.532
305.518
305.502
305.487
305.471
305.635
305.629
305.622
305.614
305.605
305.595
305.584
305.572
305.559
305.546
305.532
305.517
305.502
305.484
305.129
305.117
305.106
305.094
305.083
305.071
305.06
305.048
305.036
305.024
305.012
305.001
304.988
304.978
305.137
305.126
305.116
305.105
305.094
305.082
305.071
305.059
305.047
305.035
305.023
305.011
304.998
304.987
305.145
305.135
305.125
305.115
305.104
305.093
305.082
305.071
305.059
305.047
305.035
305.023
305.01
304.999
305.154
305.144
305.135
305.125
305.115
305.104
305.093
305.082
305.071
305.059
305.047
305.035
305.022
305.01
305.162
305.153
305.145
305.135
305.126
305.115
305.105
305.094
305.082
305.07
305.058
305.046
305.033
305.021
305.17
305.162
305.154
305.145
305.136
305.126
305.116
305.105
305.093
305.081
305.069
305.057
305.044
305.031
305.178
305.171
305.163
305.155
305.146
305.136
305.126
305.115
305.104
305.092
305.08
305.067
305.054
305.04
305.186
305.18
305.172
305.164
305.155
305.146
305.136
305.125
305.114
305.102
305.089
305.076
305.063
305.049
305.194
305.188
305.181
305.173
305.164
305.155
305.145
305.134
305.123
305.11
305.098
305.084
305.071
305.057
305.201
305.196
305.189
305.181
305.173
305.163
305.153
305.142
305.13
305.118
305.105
305.092
305.078
305.064
305.208
305.203
305.196
305.188
305.18
305.171
305.16
305.149
305.137
305.124
305.111
305.097
305.083
305.069
305.215
305.209
305.203
305.195
305.186
305.177
305.166
305.155
305.143
305.13
305.116
305.102
305.088
305.073
305.22
305.215
305.208
305.201
305.192
305.182
305.171
305.159
305.147
305.133
305.12
305.105
305.091
305.077
305.226
305.22
305.213
305.205
305.196
305.186
305.175
305.163
305.15
305.137
305.123
305.109
305.095
305.08
304.799
304.791
304.784
304.776
304.767
304.757
304.748
304.737
304.727
304.716
304.705
304.694
304.683
304.673
304.802
304.795
304.788
304.78
304.771
304.762
304.752
304.741
304.731
304.72
304.709
304.698
304.687
304.676
304.804
304.797
304.79
304.783
304.774
304.765
304.756
304.745
304.735
304.724
304.714
304.703
304.692
304.681
304.806
304.8
304.793
304.785
304.777
304.768
304.759
304.749
304.739
304.728
304.717
304.706
304.695
304.684
304.807
304.802
304.795
304.788
304.78
304.771
304.762
304.752
304.742
304.732
304.721
304.71
304.699
304.688
304.809
304.804
304.797
304.79
304.782
304.774
304.765
304.755
304.745
304.734
304.724
304.713
304.702
304.691
304.811
304.805
304.799
304.792
304.784
304.776
304.767
304.757
304.747
304.737
304.726
304.716
304.705
304.694
304.812
304.807
304.801
304.794
304.786
304.778
304.769
304.759
304.749
304.739
304.728
304.718
304.707
304.696
304.814
304.808
304.802
304.795
304.787
304.779
304.77
304.76
304.751
304.74
304.73
304.719
304.708
304.697
304.815
304.81
304.803
304.796
304.788
304.78
304.771
304.761
304.751
304.741
304.731
304.72
304.709
304.698
304.816
304.811
304.804
304.797
304.789
304.78
304.771
304.761
304.751
304.741
304.73
304.72
304.709
304.699
304.817
304.811
304.804
304.797
304.789
304.78
304.771
304.761
304.751
304.741
304.73
304.72
304.709
304.699
304.818
304.811
304.805
304.797
304.788
304.779
304.77
304.76
304.75
304.739
304.729
304.718
304.708
304.698
304.818
304.811
304.804
304.796
304.787
304.778
304.768
304.758
304.748
304.738
304.728
304.718
304.708
304.698
304.45
304.446
304.441
304.436
304.431
304.424
304.417
304.41
304.403
304.395
304.387
304.379
304.371
304.363
304.45
304.446
304.442
304.437
304.431
304.425
304.418
304.41
304.403
304.395
304.387
304.379
304.371
304.363
304.45
304.446
304.442
304.436
304.431
304.424
304.418
304.41
304.403
304.395
304.387
304.379
304.372
304.363
304.45
304.446
304.441
304.436
304.43
304.424
304.417
304.41
304.403
304.395
304.387
304.379
304.371
304.364
304.449
304.445
304.44
304.435
304.429
304.423
304.416
304.409
304.402
304.394
304.387
304.379
304.371
304.363
304.449
304.444
304.439
304.434
304.428
304.422
304.415
304.408
304.401
304.393
304.386
304.378
304.37
304.363
304.448
304.443
304.438
304.433
304.427
304.42
304.414
304.407
304.399
304.392
304.385
304.377
304.37
304.362
304.447
304.443
304.437
304.432
304.426
304.419
304.412
304.405
304.398
304.391
304.383
304.376
304.369
304.361
304.447
304.442
304.436
304.43
304.424
304.418
304.411
304.404
304.397
304.389
304.382
304.375
304.368
304.361
304.446
304.44
304.435
304.429
304.422
304.416
304.409
304.402
304.395
304.388
304.381
304.374
304.367
304.36
304.445
304.439
304.433
304.427
304.421
304.414
304.407
304.4
304.393
304.386
304.379
304.372
304.365
304.359
304.443
304.438
304.432
304.425
304.419
304.412
304.405
304.398
304.391
304.384
304.378
304.371
304.365
304.358
304.442
304.436
304.43
304.424
304.417
304.41
304.403
304.396
304.389
304.382
304.376
304.369
304.363
304.357
304.441
304.434
304.428
304.421
304.415
304.408
304.401
304.394
304.387
304.381
304.375
304.369
304.363
304.357
304.121
304.118
304.115
304.112
304.109
304.105
304.101
304.096
304.092
304.087
304.083
304.078
304.073
304.068
304.121
304.118
304.115
304.112
304.108
304.105
304.1
304.096
304.091
304.087
304.082
304.077
304.072
304.067
304.121
304.118
304.115
304.111
304.108
304.104
304.099
304.095
304.09
304.086
304.081
304.076
304.071
304.066
304.121
304.118
304.114
304.111
304.107
304.103
304.098
304.094
304.089
304.084
304.08
304.075
304.07
304.065
304.12
304.117
304.113
304.11
304.106
304.101
304.097
304.093
304.088
304.083
304.078
304.073
304.069
304.064
304.12
304.116
304.113
304.109
304.105
304.1
304.096
304.091
304.086
304.082
304.077
304.072
304.067
304.062
304.119
304.115
304.112
304.107
304.103
304.099
304.094
304.09
304.085
304.08
304.075
304.07
304.066
304.061
304.118
304.114
304.11
304.106
304.102
304.097
304.093
304.088
304.083
304.079
304.074
304.069
304.065
304.06
304.117
304.113
304.109
304.105
304.1
304.096
304.091
304.087
304.082
304.077
304.072
304.068
304.064
304.059
304.116
304.112
304.108
304.103
304.099
304.094
304.09
304.085
304.08
304.076
304.071
304.067
304.063
304.059
304.115
304.11
304.106
304.102
304.097
304.093
304.088
304.083
304.079
304.074
304.07
304.066
304.062
304.058
304.113
304.109
304.104
304.1
304.095
304.091
304.086
304.082
304.078
304.073
304.069
304.065
304.061
304.058
304.112
304.107
304.103
304.098
304.094
304.09
304.085
304.081
304.076
304.072
304.068
304.064
304.061
304.057
304.11
304.106
304.101
304.097
304.093
304.088
304.084
304.08
304.076
304.072
304.068
304.065
304.061
304.058
303.828
303.826
303.824
303.821
303.819
303.817
303.814
303.812
303.809
303.807
303.804
303.802
303.799
303.796
303.828
303.826
303.824
303.822
303.819
303.817
303.814
303.812
303.809
303.806
303.804
303.801
303.798
303.795
303.829
303.827
303.824
303.822
303.819
303.817
303.814
303.811
303.808
303.806
303.803
303.8
303.798
303.795
303.83
303.827
303.825
303.822
303.819
303.816
303.814
303.811
303.808
303.805
303.802
303.8
303.797
303.794
303.83
303.827
303.825
303.822
303.819
303.816
303.813
303.81
303.807
303.805
303.802
303.799
303.796
303.793
303.83
303.827
303.825
303.822
303.819
303.816
303.813
303.81
303.807
303.804
303.801
303.798
303.795
303.792
303.83
303.827
303.824
303.821
303.819
303.816
303.812
303.809
303.806
303.803
303.8
303.797
303.794
303.791
303.829
303.826
303.824
303.821
303.818
303.815
303.812
303.809
303.806
303.802
303.799
303.796
303.794
303.791
303.828
303.826
303.823
303.82
303.817
303.814
303.811
303.808
303.805
303.802
303.799
303.796
303.793
303.791
303.827
303.825
303.822
303.819
303.816
303.813
303.81
303.807
303.804
303.801
303.798
303.796
303.793
303.79
303.826
303.824
303.821
303.818
303.815
303.813
303.81
303.807
303.804
303.801
303.798
303.795
303.793
303.79
303.825
303.823
303.82
303.817
303.815
303.812
303.809
303.806
303.803
303.8
303.798
303.795
303.793
303.79
303.825
303.822
303.819
303.817
303.814
303.811
303.808
303.806
303.803
303.8
303.798
303.795
303.793
303.79
303.824
303.821
303.819
303.816
303.813
303.811
303.808
303.806
303.803
303.801
303.798
303.796
303.793
303.791
303.568
303.566
303.565
303.563
303.561
303.56
303.558
303.556
303.555
303.553
303.552
303.55
303.549
303.547
303.569
303.567
303.566
303.564
303.562
303.56
303.558
303.557
303.555
303.553
303.552
303.55
303.548
303.546
303.57
303.568
303.566
303.565
303.563
303.561
303.559
303.557
303.555
303.553
303.552
303.55
303.548
303.546
303.571
303.569
303.567
303.565
303.563
303.561
303.559
303.557
303.555
303.554
303.552
303.55
303.548
303.546
303.571
303.57
303.568
303.566
303.564
303.562
303.56
303.558
303.556
303.554
303.552
303.55
303.548
303.546
303.572
303.57
303.568
303.566
303.564
303.562
303.56
303.558
303.556
303.554
303.552
303.55
303.548
303.546
303.572
303.57
303.568
303.566
303.564
303.562
303.56
303.558
303.556
303.554
303.552
303.55
303.548
303.546
303.572
303.57
303.568
303.566
303.564
303.562
303.56
303.558
303.556
303.554
303.552
303.55
303.548
303.546
303.571
303.569
303.568
303.566
303.564
303.562
303.56
303.558
303.556
303.554
303.552
303.55
303.548
303.546
303.571
303.569
303.567
303.566
303.564
303.562
303.56
303.558
303.556
303.554
303.552
303.55
303.548
303.546
303.57
303.569
303.567
303.565
303.564
303.562
303.56
303.558
303.556
303.554
303.552
303.55
303.548
303.546
303.57
303.568
303.567
303.565
303.564
303.562
303.56
303.558
303.556
303.554
303.552
303.55
303.548
303.546
303.57
303.568
303.567
303.565
303.564
303.562
303.56
303.558
303.556
303.554
303.552
303.55
303.548
303.546
303.569
303.568
303.567
303.565
303.564
303.562
303.56
303.558
303.556
303.555
303.553
303.551
303.549
303.547
303.333
303.332
303.33
303.329
303.328
303.327