/*--------------------------------*- C++ -*----------------------------------*\
| =========                 |                                                 |
| \\      /  F ield         | OpenFOAM: The Open Source CFD Toolbox           |
|  \\    /   O peration     | Version:  v2106                                 |
|   \\  /    A nd           | Website:  www.openfoam.com                      |
|    \\/     M anipulation  |                                                 |
\*---------------------------------------------------------------------------*/
FoamFile
{
    version     2.0;
    format      ascii;
    arch        "LSB;label=32;scalar=64";
    class       volScalarField;
    location    "0.000121";
    object      rho;
}
// * * * * * * * * * * * * * * * * * * * * * * * * * * * * * * * * * * * * * //

dimensions      [1 -3 0 0 0 0 0];

internalField   nonuniform List<scalar> 
144746
(
2.42371
2.4275
2.43053
2.43369
2.43637
2.43894
2.44128
2.44322
2.44495
2.44621
2.44697
2.44708
2.44674
2.44511
2.42786
2.43275
2.43641
2.43964
2.44237
2.44497
2.44725
2.4492
2.45089
2.45203
2.45273
2.45264
2.45157
2.44921
2.43115
2.43671
2.44057
2.44393
2.44686
2.44953
2.45179
2.45368
2.45525
2.45626
2.45682
2.45663
2.45535
2.4528
2.43428
2.43988
2.44387
2.44746
2.45055
2.45332
2.45568
2.4576
2.45907
2.45995
2.46039
2.46009
2.45871
2.45616
2.4364
2.44207
2.44623
2.44993
2.45309
2.45599
2.45848
2.46047
2.46194
2.46278
2.46311
2.46275
2.4614
2.45888
2.43796
2.44381
2.44815
2.45203
2.45532
2.45832
2.46089
2.46294
2.46438
2.4652
2.46543
2.46503
2.46375
2.46115
2.43932
2.44529
2.44976
2.45384
2.45724
2.46036
2.46296
2.46499
2.46637
2.46723
2.46724
2.46672
2.46546
2.46273
2.44037
2.44647
2.45111
2.45533
2.4588
2.462
2.46458
2.46656
2.46792
2.46876
2.46874
2.46812
2.46684
2.46396
2.44124
2.44728
2.45194
2.45623
2.45976
2.46303
2.46553
2.46748
2.46881
2.46963
2.4696
2.46893
2.46771
2.46472
2.44163
2.44768
2.45231
2.4566
2.46014
2.46337
2.46583
2.46774
2.46905
2.46986
2.46999
2.4694
2.46813
2.46503
2.44188
2.44777
2.45228
2.45646
2.45993
2.46315
2.46572
2.46772
2.46906
2.46985
2.46988
2.46916
2.46804
2.46493
2.44166
2.44726
2.4515
2.4555
2.45878
2.46184
2.46436
2.46637
2.46768
2.46852
2.46872
2.46819
2.4671
2.4641
2.44158
2.44645
2.45031
2.45423
2.45747
2.46043
2.46292
2.46499
2.46638
2.46735
2.46756
2.467
2.46599
2.4633
2.44024
2.444
2.4473
2.45119
2.45445
2.45735
2.45978
2.46184
2.46317
2.46399
2.46423
2.46369
2.46304
2.46121
2.4108
2.4157
2.41997
2.42424
2.42767
2.43081
2.43369
2.43604
2.43798
2.4393
2.44017
2.44019
2.43915
2.43596
2.41915
2.42525
2.43016
2.43457
2.43802
2.44078
2.44312
2.44491
2.44626
2.44707
2.44738
2.44692
2.44523
2.44086
2.42481
2.43145
2.43696
2.44155
2.4451
2.44783
2.44998
2.45149
2.45233
2.45256
2.45236
2.4515
2.44945
2.44518
2.42895
2.43646
2.44242
2.44704
2.45061
2.45319
2.45506
2.45619
2.45674
2.45693
2.45659
2.45535
2.45312
2.44865
2.43145
2.4397
2.44612
2.45092
2.45461
2.45725
2.459
2.45998
2.46043
2.46023
2.45969
2.45846
2.4562
2.45168
2.43297
2.44175
2.4487
2.45369
2.45748
2.46021
2.46188
2.46273
2.46304
2.46292
2.46221
2.46058
2.45833
2.45391
2.43358
2.44293
2.45036
2.45531
2.45921
2.46191
2.4636
2.46446
2.46488
2.46465
2.46393
2.46233
2.46014
2.4556
2.43375
2.44343
2.45112
2.45611
2.46028
2.46309
2.46489
2.46579
2.4662
2.46595
2.46518
2.4635
2.46134
2.45674
2.43336
2.44348
2.4513
2.45629
2.46037
2.46313
2.46497
2.46592
2.4664
2.46624
2.46561
2.464
2.46193
2.45741
2.43268
2.443
2.45086
2.45608
2.4602
2.46302
2.46486
2.46585
2.46636
2.46629
2.46572
2.46424
2.46207
2.4577
2.43169
2.44247
2.45031
2.45549
2.45948
2.46222
2.46404
2.46506
2.46562
2.46566
2.46519
2.46392
2.46174
2.45753
2.42963
2.44061
2.4486
2.45405
2.45824
2.46093
2.46261
2.46346
2.46386
2.46391
2.46354
2.46253
2.46041
2.45658
2.42754
2.438
2.44569
2.45084
2.45498
2.45784
2.4598
2.46105
2.46179
2.46187
2.4614
2.46009
2.45808
2.45418
2.42431
2.4335
2.44104
2.44613
2.45014
2.45273
2.45445
2.45549
2.45611
2.4561
2.45563
2.45438
2.45259
2.4498
2.44199
2.45199
2.46035
2.46689
2.47192
2.47637
2.48019
2.48358
2.48663
2.48897
2.48988
2.48868
2.48482
2.47587
2.46166
2.47168
2.4802
2.4865
2.49136
2.49534
2.49857
2.50112
2.5031
2.50422
2.50443
2.50312
2.49804
2.48877
2.47357
2.48546
2.49463
2.50144
2.50655
2.51048
2.51342
2.51549
2.51679
2.51709
2.51618
2.51312
2.50764
2.49845
2.48155
2.49458
2.50439
2.51204
2.51754
2.52151
2.52425
2.52597
2.52684
2.52675
2.5253
2.52185
2.51542
2.50573
2.48592
2.49976
2.51078
2.51933
2.52542
2.52958
2.53223
2.53374
2.53436
2.53401
2.53218
2.52818
2.52152
2.5109
2.48774
2.50269
2.51499
2.52425
2.5308
2.53511
2.53774
2.53914
2.53967
2.53918
2.53723
2.53319
2.5264
2.51575
2.48812
2.50417
2.51748
2.52725
2.53418
2.53868
2.54137
2.54279
2.54333
2.54281
2.54083
2.53671
2.52997
2.51928
2.48769
2.50479
2.51886
2.52909
2.53633
2.54099
2.54377
2.54525
2.54582
2.54527
2.54332
2.53917
2.5325
2.52185
2.48672
2.50463
2.51921
2.52969
2.53707
2.54182
2.54469
2.54623
2.54684
2.54631
2.54441
2.54029
2.53375
2.52321
2.48543
2.50406
2.51901
2.52965
2.53712
2.54197
2.54484
2.54636
2.54697
2.5464
2.5445
2.54039
2.53404
2.52361
2.48307
2.50234
2.51753
2.52825
2.53567
2.54053
2.54336
2.54484
2.54539
2.54475
2.54281
2.5388
2.53272
2.52289
2.47996
2.49967
2.51489
2.52538
2.53238
2.53698
2.53964
2.54102
2.54146
2.54072
2.53873
2.53487
2.52891
2.52015
2.47422
2.49451
2.50948
2.51966
2.52639
2.53081
2.53319
2.53444
2.53477
2.53397
2.53192
2.52814
2.52216
2.51393
2.46642
2.48876
2.50298
2.51248
2.51782
2.521
2.52307
2.52415
2.52428
2.52323
2.52106
2.51704
2.51156
2.50208
2.44373
2.44007
2.43903
2.43575
2.43615
2.43514
2.44646
2.44201
2.44048
2.43674
2.43634
2.43467
2.4496
2.44442
2.44233
2.43795
2.43831
2.4367
2.45272
2.44684
2.44411
2.43906
2.43854
2.43715
2.45541
2.44908
2.44574
2.43988
2.43927
2.43754
2.45763
2.45109
2.44733
2.44117
2.4402
2.43924
2.45919
2.45264
2.44884
2.44272
2.44191
2.44013
2.46037
2.45389
2.45039
2.44452
2.44353
2.44151
2.46118
2.45501
2.45196
2.44647
2.44557
2.44344
2.46164
2.45595
2.45297
2.44791
2.44706
2.44468
2.46177
2.45648
2.45408
2.44958
2.44905
2.44677
2.46104
2.45645
2.45436
2.45038
2.44975
2.44754
2.46019
2.45656
2.45504
2.45167
2.4512
2.44917
2.4596
2.45669
2.45516
2.45189
2.45121
2.4497
2.43316
2.42723
2.42564
2.41944
2.42074
2.41512
2.43577
2.42824
2.42533
2.4187
2.41917
2.41172
2.43914
2.43012
2.42594
2.41815
2.41842
2.41014
2.44228
2.43223
2.42699
2.41829
2.41836
2.40811
2.44511
2.4345
2.42832
2.419
2.41895
2.40752
2.44741
2.43662
2.43009
2.42099
2.4211
2.41011
2.44915
2.43848
2.43205
2.42359
2.42421
2.41252
2.45047
2.4402
2.43425
2.42682
2.42807
2.41664
2.45144
2.44202
2.43689
2.43039
2.43233
2.4215
2.45212
2.44368
2.43968
2.43378
2.43561
2.4257
2.45259
2.44563
2.44196
2.43648
2.43823
2.42945
2.45211
2.44594
2.44344
2.43815
2.43899
2.43112
2.45014
2.44479
2.44301
2.43869
2.4405
2.43355
2.44748
2.44263
2.44147
2.4362
2.43736
2.43132
2.46807
2.44918
2.43251
2.40443
2.39077
2.347
2.47687
2.45625
2.43496
2.40215
2.38385
2.32767
2.48494
2.46278
2.43854
2.4016
2.37884
2.30975
2.49134
2.46864
2.44203
2.40211
2.37601
2.29517
2.49656
2.47317
2.44564
2.40421
2.37718
2.28925
2.50107
2.47788
2.44994
2.40833
2.38091
2.29111
2.50471
2.48192
2.45449
2.41396
2.38807
2.30173
2.50784
2.48551
2.45914
2.42058
2.39698
2.31909
2.51025
2.48841
2.46363
2.42757
2.40594
2.33839
2.51175
2.49048
2.46725
2.43388
2.4142
2.35758
2.51193
2.49138
2.47011
2.43834
2.42034
2.369
2.50923
2.48924
2.46987
2.44055
2.42519
2.37895
2.50389
2.4831
2.46461
2.43591
2.42219
2.3785
2.49015
2.46953
2.45173
2.4238
2.41036
2.36601
2.45953
2.45647
2.45528
2.45186
2.45142
2.4493
2.46038
2.45661
2.45519
2.45173
2.45158
2.44987
2.46085
2.45649
2.4547
2.45086
2.45031
2.44839
2.46123
2.45616
2.45394
2.44938
2.44914
2.44673
2.46096
2.45554
2.45298
2.44808
2.4475
2.4449
2.46017
2.45444
2.4514
2.44612
2.44561
2.44269
2.45871
2.45255
2.44937
2.44414
2.44338
2.44134
2.45656
2.45021
2.44708
2.44169
2.44118
2.43857
2.45401
2.44761
2.44471
2.43936
2.43931
2.43638
2.45115
2.44488
2.4423
2.43726
2.43714
2.43459
2.4481
2.4423
2.44014
2.43553
2.43604
2.43273
2.44467
2.4397
2.43814
2.43413
2.43367
2.43173
2.44163
2.43735
2.43639
2.4326
2.43266
2.43065
2.43846
2.43513
2.4342
2.43006
2.43034
2.42885
2.44564
2.43977
2.43877
2.43415
2.43597
2.43014
2.44742
2.44069
2.43784
2.43263
2.43389
2.4267
2.44825
2.43992
2.43637
2.43011
2.43152
2.42249
2.44907
2.43963
2.43517
2.42868
2.42971
2.41905
2.44929
2.43922
2.434
2.42704
2.42816
2.41626
2.44907
2.43859
2.43293
2.42623
2.42723
2.4161
2.4484
2.4378
2.4319
2.42547
2.4267
2.41456
2.44741
2.43695
2.43117
2.42485
2.4263
2.41394
2.44603
2.43606
2.4305
2.42411
2.42548
2.41363
2.44385
2.43449
2.42984
2.42246
2.42361
2.41278
2.4406
2.43189
2.4277
2.42117
2.42233
2.41151
2.43577
2.42707
2.42323
2.41576
2.41634
2.40772
2.42904
2.42051
2.41735
2.41002
2.41058
2.40268
2.42141
2.41298
2.4105
2.40195
2.40255
2.39499
2.49196
2.46894
2.44944
2.41778
2.40329
2.35288
2.50071
2.4778
2.45581
2.42112
2.40097
2.33823
2.50499
2.48226
2.45775
2.42018
2.39616
2.32141
2.50826
2.48559
2.45954
2.41992
2.39388
2.30936
2.50982
2.48718
2.46031
2.41981
2.3932
2.30296
2.51059
2.48841
2.46129
2.42096
2.39467
2.30417
2.51051
2.48876
2.46184
2.42242
2.39725
2.31161
2.50997
2.48827
2.46231
2.42419
2.4005
2.32354
2.50854
2.487
2.46205
2.42591
2.40328
2.33412
2.50521
2.48368
2.4599
2.42551
2.40462
2.34276
2.49947
2.47772
2.45501
2.42144
2.40133
2.34277
2.48912
2.46667
2.44428
2.41133
2.39293
2.33463
2.47596
2.45145
2.4291
2.39498
2.37686
2.32027
2.45035
2.42395
2.4018
2.36885
2.35204
2.29108
2.41126
2.41246
2.41252
2.41514
2.41613
2.42059
2.41077
2.41273
2.41254
2.41553
2.41752
2.42319
2.41308
2.41491
2.41381
2.41692
2.41917
2.42593
2.4122
2.41435
2.41361
2.418
2.42099
2.42863
2.41277
2.41494
2.41443
2.41905
2.42257
2.43065
2.41333
2.41587
2.41518
2.41966
2.42384
2.43214
2.41377
2.41656
2.41606
2.42075
2.42513
2.4334
2.41558
2.41756
2.41709
2.42207
2.42641
2.4344
2.41709
2.41898
2.41858
2.42379
2.42778
2.43551
2.41726
2.41999
2.41996
2.42534
2.42916
2.43623
2.41919
2.42149
2.42171
2.42719
2.43033
2.43686
2.42137
2.42336
2.42355
2.42888
2.4317
2.4372
2.42436
2.42605
2.42618
2.43133
2.43308
2.43738
2.42663
2.42836
2.4283
2.43256
2.43454
2.43751
2.37724
2.38401
2.38382
2.3932
2.397
2.40705
2.3815
2.3903
2.38995
2.39977
2.40361
2.41322
2.38735
2.39529
2.39674
2.40507
2.40899
2.41841
2.38677
2.39691
2.39766
2.40697
2.41203
2.42162
2.38819
2.39873
2.39868
2.4071
2.41192
2.42278
2.38753
2.39857
2.39734
2.40548
2.411
2.4231
2.38468
2.3965
2.39475
2.40328
2.40932
2.42269
2.38053
2.39352
2.39177
2.40136
2.40804
2.42207
2.37756
2.39087
2.3893
2.40013
2.40712
2.42135
2.37572
2.38885
2.38786
2.39959
2.40673
2.42072
2.37484
2.38847
2.38818
2.40026
2.4071
2.42009
2.3765
2.38918
2.38937
2.40107
2.40729
2.41911
2.38173
2.3925
2.39328
2.4046
2.40962
2.41933
2.38728
2.39586
2.39563
2.40404
2.40721
2.41576
2.28358
2.33489
2.35063
2.38064
2.40049
2.42495
2.31335
2.3602
2.37384
2.40393
2.4237
2.44794
2.32815
2.37263
2.38731
2.41554
2.43565
2.45852
2.33389
2.379
2.39303
2.42134
2.44217
2.46609
2.32787
2.37634
2.39097
2.42128
2.44309
2.46784
2.31557
2.37059
2.38576
2.41791
2.44111
2.46773
2.29623
2.36288
2.37859
2.41332
2.43828
2.46652
2.27357
2.3536
2.37141
2.40894
2.43573
2.46507
2.25235
2.34414
2.36482
2.4049
2.43341
2.46353
2.23708
2.337
2.36025
2.40207
2.43166
2.46198
2.23063
2.33321
2.35778
2.39997
2.42993
2.46005
2.23277
2.33158
2.35637
2.39817
2.42824
2.45744
2.24699
2.33467
2.35808
2.39752
2.42555
2.45462
2.26543
2.33633
2.35619
2.39191
2.41706
2.4471
2.43199
2.43349
2.43342
2.4366
2.4385
2.44212
2.43124
2.43302
2.43297
2.43618
2.43792
2.44237
2.42873
2.43092
2.43059
2.43448
2.4366
2.4422
2.42657
2.42892
2.42867
2.43264
2.43507
2.44154
2.42322
2.4258
2.42533
2.42941
2.43287
2.44033
2.42075
2.42294
2.4226
2.42678
2.43071
2.43879
2.41737
2.41981
2.41949
2.42401
2.4282
2.43691
2.41453
2.41707
2.41685
2.42183
2.42603
2.43487
2.41328
2.41494
2.41464
2.41986
2.42384
2.43256
2.41099
2.41295
2.41237
2.41792
2.42163
2.43012
2.40917
2.41133
2.41102
2.41661
2.41959
2.42766
2.40915
2.41112
2.41066
2.41566
2.41794
2.42495
2.40927
2.41121
2.41079
2.41531
2.41669
2.42249
2.4103
2.41215
2.41178
2.41527
2.41648
2.42005
2.41363
2.41873
2.41761
2.42257
2.42509
2.43114
2.4144
2.42002
2.4192
2.42464
2.42776
2.43449
2.41074
2.41755
2.4167
2.42308
2.42713
2.43442
2.40761
2.41538
2.41414
2.42048
2.42493
2.43353
2.40158
2.41068
2.40882
2.41568
2.42123
2.43138
2.39521
2.40543
2.40306
2.41066
2.41703
2.42869
2.38615
2.39797
2.39619
2.4053
2.41261
2.4256
2.37751
2.39075
2.3898
2.4004
2.40824
2.42245
2.3705
2.38447
2.38416
2.39622
2.40451
2.41923
2.36542
2.37955
2.3795
2.39247
2.40096
2.41609
2.36198
2.37607
2.37696
2.39046
2.39861
2.41332
2.36209
2.37502
2.37574
2.38877
2.39668
2.40961
2.36576
2.37657
2.37757
2.39041
2.39672
2.40772
2.36988
2.37849
2.37818
2.38805
2.39307
2.40323
2.36119
2.39438
2.40491
2.42787
2.44325
2.46106
2.37361
2.4059
2.4158
2.43815
2.45417
2.47339
2.37036
2.40393
2.41381
2.43781
2.45479
2.47446
2.36038
2.39669
2.4079
2.43292
2.45137
2.47298
2.3417
2.38502
2.39753
2.42554
2.44559
2.46966
2.31782
2.37148
2.38487
2.41609
2.43855
2.46545
2.2884
2.35626
2.37152
2.40654
2.43187
2.46113
2.26029
2.34113
2.35971
2.39826
2.42608
2.45697
2.23543
2.32722
2.34973
2.3911
2.42067
2.45256
2.21838
2.31661
2.34254
2.38565
2.41582
2.44792
2.21153
2.31024
2.33828
2.38164
2.41136
2.44322
2.21484
2.3082
2.33601
2.37833
2.40661
2.43749
2.23121
2.31235
2.33766
2.37648
2.40257
2.43185
2.25404
2.31711
2.33655
2.37095
2.39474
2.4239
2.52033
2.52152
2.52555
2.52743
2.52915
2.52983
2.531
2.53192
2.53355
2.53568
2.5377
2.54018
2.54266
2.54255
2.53281
2.53648
2.54008
2.54209
2.54361
2.54453
2.54564
2.54666
2.54815
2.54991
2.55132
2.55237
2.55237
2.54983
2.53548
2.54345
2.54875
2.55224
2.55455
2.55605
2.55721
2.55815
2.55919
2.56022
2.56075
2.56091
2.55971
2.55684
2.53979
2.54875
2.55513
2.55964
2.5625
2.56441
2.56575
2.56672
2.56754
2.56821
2.56831
2.56791
2.566
2.56219
2.54105
2.55172
2.55905
2.5644
2.56797
2.57033
2.57186
2.57291
2.57364
2.57413
2.57396
2.57311
2.57064
2.56638
2.54174
2.55358
2.56179
2.56778
2.57188
2.57457
2.57627
2.57739
2.5781
2.57854
2.5783
2.57722
2.57449
2.56986
2.54229
2.55475
2.56379
2.57029
2.57478
2.57768
2.5795
2.5807
2.58141
2.58186
2.58157
2.58039
2.57754
2.57272
2.54353
2.55634
2.56583
2.57257
2.57719
2.58012
2.58198
2.58323
2.58398
2.58445
2.58416
2.58295
2.58014
2.57523
2.54526
2.55823
2.56789
2.57469
2.57926
2.58215
2.58398
2.58525
2.58603
2.58651
2.5862
2.585
2.58233
2.57742
2.54777
2.5607
2.57018
2.57668
2.58094
2.58364
2.58538
2.58661
2.58744
2.58796
2.58769
2.58655
2.58417
2.57938
2.55009
2.56335
2.57237
2.57835
2.58212
2.58456
2.58615
2.58733
2.58819
2.58872
2.58853
2.58753
2.58556
2.58118
2.55259
2.56618
2.57419
2.57946
2.58262
2.58464
2.58603
2.58712
2.58802
2.5886
2.58859
2.58779
2.58616
2.58232
2.55376
2.5678
2.57477
2.57961
2.58218
2.58374
2.58479
2.58566
2.58655
2.58726
2.58756
2.58715
2.58604
2.58322
2.55573
2.56898
2.57393
2.57812
2.57972
2.58079
2.58167
2.58245
2.58335
2.58412
2.58454
2.58429
2.58334
2.58091
2.5777
2.57652
2.57766
2.57672
2.576
2.57441
2.57385
2.57359
2.57445
2.57696
2.57966
2.58384
2.58827
2.59121
2.58449
2.58611
2.58677
2.58673
2.58639
2.5858
2.5857
2.58583
2.58686
2.589
2.59128
2.59452
2.59676
2.59738
2.58391
2.5893
2.59221
2.59409
2.59494
2.59523
2.59547
2.59584
2.59675
2.59825
2.59975
2.60169
2.60277
2.60344
2.58576
2.59243
2.59648
2.59933
2.60102
2.60207
2.6028
2.60346
2.60437
2.60553
2.60664
2.60787
2.60834
2.60826
2.58561
2.59383
2.59923
2.60304
2.60557
2.60724
2.60837
2.60929
2.61022
2.6112
2.61203
2.61272
2.61258
2.61176
2.58602
2.59512
2.60152
2.60605
2.6092
2.61131
2.61274
2.61383
2.6148
2.61568
2.61636
2.61671
2.61617
2.6147
2.58714
2.5967
2.60381
2.60882
2.61231
2.61467
2.61628
2.61748
2.61847
2.61929
2.61984
2.61998
2.61912
2.61719
2.58964
2.59926
2.60664
2.61177
2.61531
2.6177
2.61936
2.62062
2.62164
2.62242
2.62288
2.6229
2.62188
2.61965
2.59336
2.60272
2.60996
2.61491
2.61826
2.6205
2.6221
2.62337
2.62442
2.6252
2.62564
2.62561
2.62458
2.62216
2.59832
2.60708
2.61372
2.61817
2.62112
2.6231
2.62456
2.62579
2.62688
2.62771
2.62818
2.62819
2.62734
2.62485
2.60393
2.61205
2.61776
2.62148
2.62385
2.62543
2.62666
2.62782
2.62897
2.62992
2.63053
2.63067
2.6302
2.62787
2.60997
2.61734
2.62174
2.62453
2.62614
2.62726
2.62824
2.62933
2.63058
2.63175
2.63263
2.63296
2.63298
2.63116
2.61463
2.62215
2.62515
2.62712
2.62788
2.62842
2.62909
2.63006
2.63142
2.63291
2.63421
2.63497
2.63566
2.63472
2.62012
2.62644
2.62693
2.62825
2.62819
2.62835
2.62894
2.62997
2.63152
2.63332
2.63498
2.63612
2.63705
2.63584
2.62237
2.62021
2.61936
2.61663
2.61451
2.61185
2.61057
2.60968
2.60984
2.61184
2.61429
2.61814
2.623
2.62832
2.62476
2.62514
2.62369
2.62234
2.62096
2.61938
2.61854
2.61805
2.6184
2.62036
2.62269
2.62683
2.631
2.63442
2.62354
2.62555
2.62607
2.62632
2.62601
2.62539
2.62496
2.62483
2.62529
2.62687
2.62865
2.63162
2.63461
2.63803
2.62264
2.6268
2.62821
2.62924
2.6297
2.62977
2.62987
2.63011
2.63081
2.6322
2.6339
2.63645
2.63922
2.64191
2.62227
2.62714
2.6299
2.6317
2.63281
2.63343
2.63389
2.63441
2.63527
2.63658
2.6382
2.64032
2.64251
2.64468
2.62313
2.62843
2.63194
2.63424
2.63574
2.63668
2.63737
2.63809
2.63903
2.64032
2.64189
2.64378
2.64566
2.64745
2.62499
2.63053
2.63445
2.63698
2.63865
2.63975
2.64058
2.64141
2.64241
2.64367
2.64517
2.6469
2.64852
2.64999
2.62851
2.63391
2.6378
2.64024
2.64181
2.64288
2.64374
2.64463
2.64565
2.64692
2.64838
2.65001
2.65145
2.65264
2.63315
2.63819
2.64174
2.64388
2.64521
2.64615
2.64697
2.64788
2.64894
2.65022
2.65166
2.65324
2.65461
2.65553
2.63942
2.64369
2.64645
2.64802
2.64895
2.64964
2.65035
2.65124
2.65233
2.65365
2.65512
2.65672
2.65814
2.65873
2.64601
2.6497
2.65157
2.65251
2.65294
2.65332
2.6539
2.65475
2.6559
2.65732
2.65889
2.66056
2.66224
2.66256
2.65377
2.65653
2.65715
2.65733
2.65718
2.65716
2.65755
2.65836
2.65963
2.66123
2.66301
2.66475
2.66688
2.66687
2.66032
2.66342
2.66279
2.66214
2.66134
2.66089
2.66112
2.66193
2.66335
2.66522
2.6673
2.66922
2.67193
2.67203
2.66841
2.66964
2.66667
2.66602
2.66492
2.66422
2.66443
2.6653
2.66692
2.66914
2.67163
2.67386
2.67679
2.67632
2.64648
2.64366
2.64229
2.63885
2.63647
2.63372
2.63227
2.63125
2.63123
2.63276
2.63494
2.63851
2.64426
2.64947
2.64748
2.64607
2.64506
2.64273
2.64128
2.63953
2.63862
2.63805
2.63833
2.64009
2.64236
2.64632
2.65056
2.6541
2.6458
2.6461
2.6462
2.64569
2.64516
2.64439
2.64393
2.64375
2.64415
2.64562
2.64742
2.65037
2.65372
2.65806
2.64451
2.64687
2.64765
2.64808
2.64825
2.64815
2.64817
2.64839
2.64908
2.65048
2.65231
2.65502
2.65806
2.66137
2.6441
2.64748
2.64926
2.6504
2.65114
2.65157
2.65196
2.65248
2.65335
2.65468
2.65642
2.65871
2.66121
2.66421
2.64531
2.64903
2.65141
2.653
2.65406
2.6548
2.65544
2.65617
2.65715
2.65846
2.66013
2.66222
2.66451
2.66712
2.64759
2.65143
2.65412
2.65589
2.6571
2.658
2.65879
2.65965
2.66068
2.66198
2.66357
2.66549
2.66757
2.66989
2.65139
2.65503
2.65761
2.65929
2.66043
2.66132
2.66215
2.66306
2.66413
2.66542
2.66695
2.66879
2.67073
2.67276
2.65616
2.65944
2.66168
2.66309
2.66404
2.66482
2.66561
2.66652
2.66759
2.66888
2.6704
2.67219
2.67409
2.67582
2.66253
2.66507
2.66658
2.66747
2.66805
2.66859
2.66926
2.67012
2.67118
2.67249
2.67404
2.67585
2.67783
2.67921
2.6692
2.67129
2.67203
2.67232
2.67243
2.67265
2.67316
2.67392
2.67499
2.67635
2.67801
2.67983
2.68204
2.68298
2.6776
2.67839
2.67797
2.67762
2.67722
2.677
2.67727
2.67796
2.67909
2.68058
2.68242
2.68424
2.6869
2.6873
2.68477
2.68598
2.68443
2.68328
2.68218
2.68148
2.68151
2.68214
2.68336
2.68506
2.68717
2.68902
2.69226
2.69243
2.69373
2.69295
2.68958
2.68798
2.68661
2.68575
2.68572
2.68641
2.68779
2.68978
2.6922
2.69413
2.69759
2.69823
2.65845
2.65524
2.65454
2.65128
2.64907
2.64654
2.64503
2.64389
2.64368
2.64469
2.64665
2.64996
2.65502
2.65956
2.65903
2.65744
2.65695
2.65474
2.65336
2.65162
2.65066
2.64995
2.65003
2.65126
2.65333
2.65652
2.66023
2.66374
2.65763
2.65781
2.6582
2.65733
2.65684
2.65591
2.65537
2.65503
2.65517
2.65631
2.65788
2.66042
2.66372
2.66785
2.65743
2.65879
2.65961
2.65982
2.65976
2.65945
2.65928
2.65928
2.65971
2.66086
2.66247
2.66491
2.66772
2.67098
2.65741
2.65993
2.66135
2.66213
2.66257
2.66265
2.6628
2.66305
2.6637
2.6648
2.66634
2.66844
2.67087
2.674
2.65876
2.66168
2.66356
2.66466
2.66535
2.66573
2.66607
2.66653
2.66729
2.6684
2.66992
2.67189
2.67421
2.67698
2.66106
2.66412
2.6662
2.66746
2.66825
2.66877
2.66924
2.66983
2.67067
2.67178
2.67323
2.67509
2.67727
2.6798
2.66471
2.66756
2.66952
2.6707
2.67142
2.67194
2.67244
2.67308
2.67394
2.67504
2.67646
2.67825
2.68036
2.68263
2.6692
2.67172
2.67337
2.67434
2.67489
2.67531
2.67578
2.6764
2.67724
2.67833
2.67973
2.68148
2.6836
2.6856
2.67508
2.67698
2.67794
2.67848
2.67872
2.67894
2.6793
2.67986
2.68067
2.68177
2.68323
2.68496
2.6872
2.68885
2.68128
2.68279
2.68305
2.68314
2.68302
2.68295
2.68312
2.6836
2.6844
2.68554
2.68711
2.68881
2.69128
2.69248
2.68912
2.68948
2.68871
2.68823
2.68769
2.68731
2.68726
2.68766
2.68852
2.68976
2.69149
2.6931
2.69597
2.69678
2.69593
2.69644
2.69478
2.69383
2.69272
2.69193
2.69166
2.692
2.69297
2.69436
2.69631
2.6979
2.70122
2.70197
2.70486
2.70388
2.70071
2.69888
2.69746
2.69655
2.69625
2.69666
2.69777
2.69935
2.70151
2.70325
2.70672
2.70831
2.66399
2.66144
2.66086
2.65799
2.65605
2.65395
2.65263
2.65165
2.65147
2.65232
2.65413
2.65694
2.66091
2.66474
2.6647
2.66355
2.66321
2.66147
2.66019
2.65877
2.65793
2.65735
2.65741
2.65849
2.66028
2.66286
2.66595
2.66897
2.66408
2.66437
2.66482
2.66404
2.66365
2.66285
2.66241
2.66215
2.6623
2.66326
2.66458
2.66675
2.66957
2.673
2.66442
2.66555
2.66655
2.66669
2.66662
2.66637
2.66626
2.6663
2.66672
2.66769
2.66905
2.6711
2.6734
2.67642
2.665
2.66704
2.66839
2.66913
2.66951
2.66958
2.66974
2.67
2.67058
2.6715
2.67278
2.6745
2.67652
2.67923
2.66645
2.66894
2.67064
2.67165
2.67228
2.67262
2.67296
2.67338
2.67407
2.67502
2.6763
2.67797
2.67991
2.68234
2.66871
2.67139
2.67325
2.67443
2.67516
2.67564
2.67607
2.67659
2.67733
2.67828
2.67952
2.68109
2.68295
2.68515
2.67215
2.67472
2.67646
2.67758
2.67825
2.67873
2.67918
2.67974
2.68048
2.68142
2.68263
2.68414
2.68598
2.68795
2.67637
2.67873
2.68021
2.68114
2.68164
2.68202
2.68243
2.68295
2.68366
2.68457
2.68576
2.68721
2.68911
2.69087
2.68185
2.68372
2.6846
2.68512
2.68534
2.68553
2.68581
2.68626
2.68693
2.68784
2.68909
2.69049
2.69254
2.694
2.68773
2.68915
2.68939
2.68953
2.68941
2.68933
2.6894
2.68975
2.69043
2.69138
2.69272
2.69406
2.69638
2.69754
2.69488
2.69539
2.69476
2.69433
2.69379
2.69339
2.69325
2.69352
2.69426
2.69529
2.69679
2.69799
2.70074
2.70164
2.70125
2.7016
2.70023
2.69951
2.69846
2.69766
2.69728
2.69748
2.69832
2.6995
2.70122
2.70245
2.70561
2.70666
2.7095
2.70866
2.70607
2.70437
2.70286
2.70188
2.70147
2.70173
2.70266
2.70396
2.70591
2.70743
2.7107
2.71259
2.66802
2.66604
2.66545
2.6631
2.66139
2.65955
2.6583
2.65737
2.65707
2.65755
2.65911
2.66125
2.66439
2.6677
2.66885
2.66804
2.66767
2.6662
2.66503
2.66374
2.66292
2.66232
2.66228
2.66298
2.66446
2.66647
2.66906
2.6718
2.66873
2.66906
2.66933
2.66858
2.66812
2.66729
2.66683
2.66651
2.66656
2.66725
2.66834
2.67011
2.67252
2.67559
2.6693
2.6703
2.67107
2.67096
2.6708
2.67041
2.67024
2.6702
2.67046
2.67122
2.67234
2.67407
2.67611
2.67892
2.67016
2.67174
2.67283
2.67324
2.67337
2.67326
2.67332
2.67347
2.67388
2.6746
2.67566
2.67716
2.67903
2.68159
2.67166
2.67359
2.67492
2.67555
2.67588
2.67601
2.67619
2.67647
2.67698
2.67775
2.67886
2.68036
2.6822
2.68453
2.67393
2.67596
2.67735
2.67809
2.6785
2.67875
2.679
2.67936
2.6799
2.68068
2.68179
2.68324
2.68505
2.68717
2.67724
2.67918
2.68037
2.68102
2.68136
2.6816
2.68185
2.68221
2.68276
2.68355
2.68467
2.6861
2.68793
2.68985
2.68119
2.68298
2.68385
2.68433
2.68452
2.68465
2.68483
2.68515
2.68568
2.68647
2.6876
2.68899
2.69088
2.69261
2.68623
2.68758
2.6879
2.68807
2.68799
2.68792
2.68793
2.68818
2.68871
2.68952
2.69073
2.69208
2.69411
2.69564
2.69171
2.69259
2.6924
2.69224
2.69179
2.69143
2.69125
2.69142
2.69198
2.69284
2.69413
2.69541
2.69769
2.69902
2.69798
2.69828
2.69738
2.69668
2.69584
2.69518
2.69481
2.69494
2.69558
2.6965
2.69795
2.69913
2.70173
2.70288
2.70381
2.70409
2.70249
2.70147
2.7002
2.69921
2.69865
2.69873
2.69946
2.70053
2.7022
2.70343
2.70631
2.70757
2.71126
2.71018
2.70764
2.70602
2.70439
2.70327
2.70271
2.70286
2.70367
2.70484
2.70671
2.70832
2.71116
2.71322
2.67055
2.66891
2.66827
2.66628
2.66477
2.66321
2.66208
2.66126
2.66089
2.66109
2.66232
2.66396
2.66647
2.66938
2.67137
2.67066
2.67022
2.66894
2.66787
2.66671
2.66592
2.66534
2.66522
2.66565
2.66681
2.66846
2.67066
2.6731
2.67148
2.67165
2.67169
2.67101
2.67047
2.66965
2.66916
2.66877
2.66876
2.66922
2.67014
2.67168
2.67379
2.67661
2.67219
2.67291
2.67334
2.67302
2.67281
2.67233
2.67208
2.67191
2.67204
2.67263
2.67361
2.67514
2.67705
2.67967
2.67318
2.67432
2.67498
2.67503
2.67503
2.6748
2.67473
2.6747
2.67494
2.6755
2.67647
2.67785
2.67967
2.68232
2.67476
2.6761
2.67689
2.67714
2.67726
2.6772
2.67722
2.67732
2.67765
2.67828
2.67932
2.68077
2.68262
2.68492
2.67703
2.67838
2.67915
2.67946
2.6796
2.67965
2.6797
2.67987
2.68025
2.68092
2.68201
2.68347
2.68534
2.68754
2.6802
2.68142
2.68195
2.68217
2.68222
2.68223
2.68226
2.68244
2.68286
2.68361
2.68475
2.68623
2.68813
2.69016
2.68394
2.685
2.68523
2.68532
2.6852
2.68507
2.68501
2.68517
2.68564
2.68644
2.68763
2.6891
2.69106
2.6929
2.68868
2.68936
2.68916
2.68895
2.68851
2.68815
2.68795
2.68809
2.68861
2.68946
2.69074
2.69218
2.69424
2.69586
2.69379
2.6942
2.69354
2.69295
2.69215
2.69152
2.69118
2.69129
2.69187
2.69276
2.69413
2.69549
2.69773
2.69914
2.69955
2.69949
2.69822
2.69718
2.69604
2.69519
2.69472
2.69482
2.69546
2.6964
2.6979
2.69915
2.70162
2.70284
2.705
2.70488
2.70303
2.70171
2.70027
2.69917
2.69859
2.69865
2.69936
2.70042
2.70208
2.70335
2.70595
2.70717
2.71157
2.71027
2.70772
2.70607
2.7044
2.70325
2.7027
2.70283
2.70359
2.7047
2.70649
2.7081
2.71056
2.7124
2.67336
2.67208
2.67154
2.66987
2.66851
2.66702
2.66586
2.66496
2.66446
2.6644
2.66522
2.66651
2.66856
2.67118
2.67392
2.67335
2.67296
2.6719
2.6709
2.66976
2.66889
2.66819
2.66793
2.66812
2.66898
2.67039
2.67233
2.6746
2.67403
2.67402
2.674
2.6734
2.67282
2.67199
2.67137
2.67088
2.67074
2.67104
2.67184
2.67322
2.67516
2.67782
2.67478
2.67513
2.6753
2.67492
2.67463
2.67408
2.67367
2.67341
2.67343
2.67388
2.6748
2.67623
2.67808
2.68052
2.67581
2.67641
2.6767
2.67653
2.67639
2.67604
2.67579
2.67566
2.67582
2.67631
2.67728
2.67866
2.68051
2.68311
2.67744
2.67814
2.67843
2.67835
2.67827
2.67803
2.67788
2.67788
2.67816
2.67878
2.67985
2.68134
2.6832
2.6854
2.67972
2.68034
2.68053
2.68049
2.68036
2.68017
2.68004
2.68013
2.68049
2.6812
2.68236
2.68388
2.68575
2.68788
2.68278
2.68323
2.68318
2.68306
2.68278
2.68251
2.68236
2.6825
2.68294
2.68376
2.68501
2.68652
2.6884
2.69036
2.68637
2.68668
2.68635
2.68604
2.68557
2.68518
2.68497
2.68513
2.68564
2.68654
2.68782
2.68931
2.69122
2.69299
2.6907
2.69074
2.69002
2.68941
2.68868
2.68815
2.68787
2.68803
2.6886
2.68953
2.69087
2.69231
2.69425
2.69579
2.69528
2.69517
2.69404
2.69313
2.69214
2.69144
2.69109
2.69124
2.69186
2.6928
2.69418
2.69554
2.69755
2.69886
2.70048
2.69995
2.69835
2.69712
2.69589
2.69506
2.69465
2.69479
2.69544
2.69638
2.69784
2.69906
2.70119
2.70227
2.70535
2.70477
2.70278
2.70139
2.69997
2.69898
2.6985
2.69862
2.69928
2.70027
2.70183
2.70304
2.70522
2.70619
2.71111
2.70959
2.70712
2.70551
2.704
2.70299
2.70254
2.7027
2.70338
2.70438
2.70603
2.7075
2.70953
2.71104
2.51173
2.50299
2.49832
2.49829
2.5197
2.54507
2.50655
2.49267
2.48437
2.48319
2.50486
2.53653
2.50906
2.49284
2.48264
2.47934
2.49816
2.5342
2.50941
2.49128
2.47807
2.47095
2.48682
2.52603
2.5104
2.48988
2.47387
2.46395
2.47652
2.5148
2.5109
2.48907
2.47107
2.45914
2.46792
2.50094
2.51247
2.48991
2.47134
2.45843
2.46375
2.49081
2.51429
2.49204
2.47422
2.46149
2.46602
2.48746
2.51758
2.49655
2.48134
2.46999
2.47358
2.48934
2.52212
2.50293
2.4909
2.48108
2.48505
2.49846
2.52668
2.51075
2.50227
2.49392
2.49914
2.51345
2.5306
2.5193
2.51393
2.50729
2.5154
2.5308
2.5357
2.52814
2.5244
2.51904
2.53076
2.54765
2.53276
2.52919
2.52589
2.52534
2.54082
2.56023
2.57725
2.57642
2.57766
2.58298
2.59758
2.61001
2.56829
2.5653
2.56592
2.57315
2.59079
2.60865
2.56813
2.5626
2.56225
2.56878
2.58849
2.61041
2.56502
2.5575
2.55481
2.56019
2.58047
2.6056
2.56295
2.55197
2.54721
2.54922
2.56694
2.59068
2.56044
2.54715
2.53992
2.53779
2.55037
2.56732
2.55946
2.54429
2.53498
2.52953
2.53697
2.54721
2.55916
2.54309
2.53254
2.52552
2.53015
2.53496
2.5608
2.54516
2.53484
2.52759
2.53001
2.5306
2.56537
2.55062
2.54132
2.53446
2.53649
2.53505
2.57055
2.55753
2.55129
2.54573
2.54859
2.54631
2.57712
2.56682
2.56358
2.55972
2.56392
2.56158
2.58384
2.5773
2.57675
2.57519
2.58142
2.57921
2.58211
2.58135
2.58317
2.58589
2.59474
2.5977
2.62641
2.62815
2.62972
2.63202
2.63871
2.64687
2.61629
2.61743
2.61906
2.62315
2.63203
2.64408
2.61449
2.61358
2.61349
2.61794
2.62867
2.64358
2.60951
2.60548
2.60485
2.60852
2.6201
2.63714
2.60619
2.5999
2.59717
2.59921
2.60808
2.62333
2.60248
2.59396
2.58935
2.58815
2.59228
2.6008
2.6008
2.59019
2.58344
2.5785
2.57793
2.58036
2.59979
2.588
2.57998
2.57254
2.56925
2.56731
2.60048
2.58879
2.58089
2.57236
2.56746
2.56151
2.60422
2.5934
2.58566
2.57662
2.572
2.56591
2.60876
2.59972
2.59376
2.58666
2.58371
2.57942
2.61584
2.60749
2.60459
2.59989
2.59863
2.59694
2.62301
2.61751
2.61776
2.61626
2.61744
2.61668
2.62263
2.62311
2.6251
2.62773
2.6322
2.63603
2.65119
2.65411
2.65703
2.65869
2.66197
2.665
2.64218
2.64464
2.64723
2.65103
2.65561
2.6608
2.64005
2.64103
2.64165
2.64397
2.64947
2.65831
2.63385
2.63192
2.63133
2.63402
2.64111
2.65145
2.63006
2.62531
2.62238
2.62312
2.62856
2.63889
2.62615
2.61897
2.61399
2.61221
2.6141
2.61848
2.62414
2.61485
2.60739
2.60169
2.59854
2.59688
2.62292
2.61228
2.6032
2.59486
2.58821
2.58191
2.62323
2.61248
2.60339
2.59399
2.58549
2.57597
2.62619
2.61622
2.6077
2.59726
2.58902
2.5795
2.63022
2.62191
2.61544
2.60674
2.60075
2.59245
2.63595
2.62966
2.62505
2.61914
2.61532
2.60975
2.64273
2.63865
2.63733
2.63474