/*--------------------------------*- C++ -*----------------------------------*\
| =========                 |                                                 |
| \\      /  F ield         | OpenFOAM: The Open Source CFD Toolbox           |
|  \\    /   O peration     | Version:  v2106                                 |
|   \\  /    A nd           | Website:  www.openfoam.com                      |
|    \\/     M anipulation  |                                                 |
\*---------------------------------------------------------------------------*/
FoamFile
{
    version     2.0;
    format      ascii;
    arch        "LSB;label=32;scalar=64";
    class       volScalarField;
    location    "0.000121";
    object      Ttot;
}
// * * * * * * * * * * * * * * * * * * * * * * * * * * * * * * * * * * * * * //

dimensions      [0 0 0 1 0 0 0];

internalField   nonuniform List<scalar> 
144746
(
302.437
302.612
302.684
302.76
302.805
302.842
302.852
302.829
302.793
302.742
302.699
302.662
302.626
302.603
302.525
302.721
302.797
302.856
302.887
302.913
302.919
302.906
302.893
302.88
302.878
302.865
302.833
302.781
302.573
302.765
302.837
302.891
302.913
302.926
302.923
302.912
302.911
302.925
302.945
302.951
302.927
302.886
302.661
302.821
302.885
302.937
302.951
302.954
302.943
302.934
302.941
302.969
303.001
303.02
303.008
302.976
302.755
302.888
302.937
302.982
302.985
302.974
302.952
302.94
302.953
302.986
303.025
303.052
303.055
303.033
302.852
302.966
302.998
303.031
303.023
303.002
302.972
302.959
302.975
303.015
303.058
303.089
303.104
303.081
302.937
303.038
303.055
303.076
303.062
303.036
303.001
302.988
303.002
303.05
303.09
303.116
303.139
303.115
303.004
303.102
303.113
303.128
303.114
303.091
303.06
303.048
303.061
303.111
303.146
303.163
303.181
303.149
303.075
303.167
303.171
303.182
303.173
303.163
303.139
303.131
303.142
303.19
303.212
303.212
303.224
303.178
303.122
303.22
303.227
303.243
303.242
303.242
303.224
303.217
303.223
303.264
303.282
303.277
303.282
303.217
303.15
303.251
303.261
303.284
303.293
303.301
303.292
303.29
303.293
303.332
303.342
303.326
303.323
303.239
303.136
303.248
303.26
303.288
303.302
303.315
303.312
303.317
303.323
303.36
303.373
303.357
303.334
303.233
303.115
303.238
303.266
303.308
303.332
303.359
303.369
303.386
303.403
303.441
303.446
303.417
303.388
303.267
303.036
303.145
303.183
303.247
303.291
303.333
303.355
303.385
303.411
303.44
303.438
303.395
303.359
303.243
303.993
304.281
304.448
304.562
304.59
304.564
304.503
304.402
304.299
304.212
304.179
304.172
304.091
303.996
304.349
304.664
304.791
304.846
304.839
304.786
304.712
304.627
304.562
304.516
304.49
304.473
304.415
304.256
304.479
304.773
304.879
304.898
304.863
304.793
304.717
304.654
304.622
304.618
304.614
304.6
304.571
304.477
304.564
304.842
304.92
304.909
304.853
304.768
304.689
304.632
304.611
304.641
304.673
304.689
304.698
304.628
304.659
304.902
304.941
304.9
304.82
304.727
304.652
304.607
304.601
304.619
304.663
304.721
304.771
304.736
304.781
304.968
304.964
304.892
304.793
304.689
304.61
304.57
304.572
304.613
304.671
304.745
304.828
304.825
304.902
305.046
305.001
304.897
304.791
304.673
304.587
304.547
304.564
304.611
304.694
304.785
304.888
304.901
305.03
305.145
305.068
304.952
304.865
304.748
304.658
304.613
304.633
304.684
304.77
304.859
304.969
304.987
305.129
305.254
305.168
305.043
304.955
304.836
304.746
304.702
304.726
304.78
304.866
304.949
305.065
305.074
305.2
305.332
305.247
305.137
305.068
304.971
304.893
304.856
304.88
304.932
305.004
305.077
305.173
305.164
305.256
305.414
305.329
305.225
305.169
305.09
305.027
304.998
305.019
305.066
305.122
305.183
305.252
305.22
305.255
305.458
305.401
305.322
305.289
305.227
305.166
305.129
305.137
305.177
305.224
305.271
305.308
305.254
305.202
305.49
305.463
305.393
305.372
305.34
305.31
305.299
305.321
305.357
305.376
305.385
305.383
305.266
305.15
305.43
305.457
305.4
305.385
305.371
305.367
305.371
305.392
305.41
305.402
305.371
305.314
305.202
306.656
306.9
307.133
307.208
307.155
307.041
306.877
306.699
306.551
306.451
306.43
306.494
306.634
306.549
307.059
307.162
307.298
307.34
307.285
307.165
307.008
306.848
306.726
306.647
306.659
306.792
306.963
306.992
307.029
307.187
307.255
307.254
307.187
307.071
306.938
306.827
306.771
306.747
306.786
306.919
307.158
307.337
307.016
307.163
307.16
307.116
307.014
306.894
306.785
306.719
306.718
306.754
306.858
307.066
307.327
307.553
307.018
307.119
307.125
307.044
306.904
306.77
306.676
306.64
306.668
306.741
306.89
307.133
307.44
307.667
307.161
307.227
307.203
307.063
306.88
306.726
306.634
306.609
306.65
306.747
306.929
307.207
307.533
307.775
307.416
307.457
307.368
307.163
306.943
306.772
306.674
306.649
306.696
306.804
306.999
307.277
307.606
307.834
307.73
307.76
307.616
307.36
307.109
306.919
306.809
306.783
306.834
306.946
307.143
307.409
307.72
307.908
308.058
308.084
307.908
307.613
307.331
307.123
307.005
306.98
307.036
307.151
307.346
307.594
307.874
308.003
308.374
308.402
308.217
307.915
307.63
307.422
307.305
307.281
307.337
307.442
307.619
307.832
308.07
308.139
308.616
308.669
308.492
308.205
307.935
307.749
307.649
307.636
307.691
307.784
307.94
308.112
308.286
308.294
308.812
308.898
308.751
308.507
308.266
308.114
308.041
308.048
308.11
308.197
308.327
308.454
308.546
308.51
308.813
308.971
308.873
308.712
308.536
308.446
308.409
308.443
308.515
308.596
308.7
308.78
308.793
308.725
308.777
309.132
309.053
308.941
308.744
308.639
308.638
308.704
308.785
308.857
308.945
308.964
308.889
308.677
302.445
302.006
301.474
300.578
299.51
297.659
302.608
302.17
301.632
300.718
299.589
297.68
302.75
302.337
301.827
300.894
299.788
297.868
302.864
302.469
301.991
301.074
299.939
298.031
302.943
302.57
302.118
301.221
300.092
298.17
303.002
302.643
302.208
301.333
300.187
298.301
303.041
302.687
302.266
301.407
300.238
298.287
303.072
302.712
302.289
301.434
300.245
298.267
303.092
302.719
302.274
301.411
300.213
298.243
303.11
302.711
302.228
301.36
300.167
298.197
303.116
302.7
302.213
301.343
300.191
298.216
303.086
302.668
302.15
301.306
300.201
298.224
303.057
302.636
302.126
301.318
300.279
298.273
303.051
302.634
302.082
301.262
300.222
298.233
303.71
302.975
302.273
301.169
300.122
298.193
303.934
303.212
302.524
301.414
300.314
298.275
304.192
303.475
302.778
301.635
300.505
298.451
304.383
303.682
302.972
301.788
300.662
298.546
304.524
303.844
303.11
301.888
300.752
298.602
304.643
303.984
303.229
301.956
300.78
298.683
304.746
304.114
303.326
301.98
300.764
298.602
304.848
304.235
303.417
302.005
300.764
298.581
304.938
304.349
303.516
302.057
300.796
298.629
305.016
304.421
303.604
302.149
300.873
298.725
305.076
304.515
303.693
302.288
301.033
298.877
305.091
304.527
303.747
302.399
301.13
298.974
305.032
304.44
303.681
302.434
301.259
299.111
304.924
304.278
303.539
302.323
301.148
299.031
306.482
305.676
304.815
302.91
301.361
297.806
306.976
306.247
305.247
303.175
301.496
297.55
307.359
306.686
305.62
303.424
301.643
297.253
307.595
306.956
305.807
303.506
301.657
296.864
307.736
307.094
305.906
303.517
301.598
296.503
307.845
307.223
305.982
303.491
301.399
296.216
307.914
307.301
306.006
303.425
301.242
296.179
307.977
307.346
306.031
303.435
301.227
296.5
308.043
307.389
306.138
303.628
301.474
297.111
308.16
307.507
306.375
304.04
301.988
297.943
308.317
307.693
306.722
304.563
302.561
298.599
308.482
307.848
306.975
304.956
303.081
299.239
308.698
307.934
307.052
305.07
303.246
299.419
308.408
307.586
306.739
304.746
302.93
299.075
303.088
302.666
302.143
301.33
300.301
298.246
303.217
302.807
302.301
301.452
300.412
298.377
303.312
302.94
302.441
301.561
300.458
298.428
303.386
303.029
302.544
301.639
300.504
298.453
303.405
303.06
302.595
301.684
300.501
298.443
303.383
303.045
302.589
301.667
300.45
298.379
303.342
302.984
302.524
301.603
300.36
298.35
303.294
302.908
302.435
301.497
300.247
298.207
303.246
302.832
302.338
301.382
300.134
298.059
303.186
302.748
302.239
301.27
300.016
297.942
303.118
302.668
302.145
301.183
299.973
297.847
303.036
302.588
302.049
301.056
299.85
297.852
302.973
302.538
301.996
300.995
299.811
297.807
302.89
302.501
301.937
300.922
299.75
297.782
304.914
304.194
303.437
302.34
301.254
299.134
305.081
304.407
303.666
302.513
301.393
299.217
305.203
304.568
303.841
302.61
301.471
299.24
305.281
304.665
303.916
302.656
301.499
299.223
305.314
304.704
303.918
302.596
301.412
299.106
305.313
304.712
303.888
302.517
301.285
299.01
305.297
304.701
303.837
302.399
301.137
298.82
305.275
304.669
303.786
302.292
301.009
298.678
305.254
304.621
303.723
302.22
300.923
298.595
305.235
304.551
303.666
302.148
300.862
298.557
305.23
304.466
303.548
302.111
300.874
298.55
305.197
304.313
303.365
301.93
300.699
298.484
305.068
304.067
303.148
301.832
300.634
298.461
304.755
303.697
302.836
301.621
300.526
298.428
308.602
307.729
306.808
304.722
303
298.919
308.963
308.233
307.305
305.152
303.364
298.905
309.094
308.49
307.501
305.311
303.481
298.629
309.119
308.611
307.56
305.29
303.466
298.247
309.044
308.576
307.473
305.132
303.24
297.784
308.966
308.523
307.37
304.935
302.904
297.413
308.868
308.418
307.235
304.738
302.617
297.295
308.781
308.305
307.146
304.653
302.514
297.498
308.753
308.251
307.17
304.769
302.656
297.865
308.804
308.254
307.272
305.016
302.963
298.367
308.942
308.344
307.403
305.236
303.249
298.697
308.972
308.301
307.341
305.186
303.283
298.69
309.087
308.206
307.201
304.895
303.031
298.494
308.433
307.352
306.241
304.008
302.391
297.71
297.023
298.759
299.931
300.917
301.599
302.153
296.944
298.738
299.928
300.954
301.624
302.209
297.098
298.858
300.018
301.032
301.709
302.303
297.073
298.83
300.043
301.139
301.839
302.431
297.129
298.862
300.121
301.273
301.977
302.553
297.214
298.915
300.218
301.4
302.118
302.667
297.335
299.005
300.363
301.574
302.271
302.769
297.56
299.184
300.551
301.762
302.412
302.854
297.759
299.413
300.765
301.937
302.529
302.942
297.866
299.59
300.906
302.042
302.606
302.992
297.991
299.732
300.988
302.098
302.63
303.016
298.022
299.797
300.982
302.049
302.61
302.992
297.987
299.787
300.921
301.985
302.545
302.929
297.838
299.711
300.849
301.865
302.5
302.881
297.237
299.078
300.18
301.501
302.396
303.477
297.112
299.087
300.196
301.663
302.673
303.79
297.234
299.128
300.359
301.839
302.886
303.965
297.092
299.033
300.323
301.938
303.033
304.073
297.069
298.991
300.281
301.909
303.061
304.165
297.014
298.893
300.161
301.797
303.05
304.269
296.994
298.852
300.088
301.732
303.05
304.363
297.148
299.013
300.181
301.78
303.113
304.463
297.47
299.34
300.436
301.917
303.179
304.537
297.779
299.668
300.694
302.061
303.247
304.6
298.006
299.956
300.941
302.22
303.329
304.642
298.249
300.184
301.11
302.272
303.328
304.639
298.486
300.421
301.32
302.449
303.418
304.627
298.456
300.431
301.395
302.397
303.274
304.435
296.296
300.287
301.866
303.967
304.993
306.091
296.978
300.866
302.493
304.698
305.718
306.78
297.087
300.766
302.591
304.694
305.697
306.651
296.809
300.419
302.302
304.535
305.628
306.662
296.112
299.741
301.62
304.066
305.436
306.621
295.161
298.97
300.861
303.584
305.311
306.709
294.306
298.588
300.481
303.366
305.363
306.909
293.938
298.776
300.564
303.486
305.601
307.198
293.962
299.335
300.977
303.816
305.925
307.515
294.209
300.019
301.548
304.276
306.293
307.83
294.725
300.711
302.152
304.746
306.627
308.099
295.545
301.348
302.739
305.213
306.939
308.321
296.583
301.943
303.319
305.66
307.154
308.496
297.168
301.913
303.384
305.611
306.942
308.319
297.467
299.256
300.353
301.275
301.895
302.349
297.497
299.25
300.353
301.268
301.875
302.359
297.454
299.184
300.31
301.265
301.874
302.408
297.456
299.153
300.325
301.328
301.941
302.464
297.409
299.048
300.29
301.358
301.998
302.535
297.443
298.979
300.277
301.439
302.117
302.622
297.457
298.938
300.25
301.49
302.197
302.686
297.505
298.967
300.276
301.54
302.248
302.72
297.591
299.025
300.331
301.57
302.248
302.711
297.573
299.077
300.343
301.559
302.21
302.666
297.493
299.055
300.303
301.496
302.131
302.605
297.399
298.992
300.205
301.357
302.008
302.501
297.25
298.877
300.052
301.171
301.836
302.378
297.102
298.773
299.911
300.982
301.7
302.196
297.953
299.795
300.862
301.968
302.805
303.544
297.89
299.709
300.855
302.1
302.963
303.748
297.674
299.48
300.668
302.026
302.97
303.796
297.537
299.297
300.489
301.895
302.891
303.771
297.291
299.004
300.208
301.683
302.768
303.731
297.131
298.798
299.98
301.493
302.646
303.741
296.999
298.659
299.815
301.351
302.576
303.795
297.03
298.71
299.82
301.32
302.549
303.872
297.185
298.868
299.928
301.359
302.543
303.913
297.344
299.034
300.014
301.37
302.508
303.921
297.406
299.152
300.091
301.393
302.496
303.901
297.458
299.208
300.124
301.356
302.428
303.746
297.496
299.242
300.172
301.428
302.394
303.64
297.326
299.097
300.075
301.221
302.173
303.344
297.836
301.013
302.628
304.377
305.193
306.009
298.009
301.167
302.879
304.685
305.575
306.447
297.567
300.647
302.397
304.299
305.236
306.183
296.733
299.742
301.486
303.583
304.793
305.959
295.565
298.719
300.478
302.889
304.463
305.867
294.417
297.972
299.774
302.427
304.299
305.9
293.516
297.686
299.483
302.266
304.324
306.029
293.104
297.85
299.545
302.336
304.467
306.209
293.006
298.227
299.775
302.495
304.623
306.37
293.236
298.736
300.097
302.697
304.774
306.5
293.74
299.262
300.429
302.902
304.911
306.595
294.44
299.643
300.717
303.14
305.01
306.599
295.292
300.046
301.151
303.456
305.053
306.49
295.81
299.99
301.26
303.42
304.75
306.152
308.217
308.052
307.961
307.714
307.452
307.12
306.805
306.482
306.23
306.06
305.993
306.212
306.77
307.365
307.923
307.642
307.464
307.244
307.024
306.78
306.551
306.336
306.184
306.098
306.092
306.317
306.784
307.332
307.188
307.033
306.893
306.752
306.591
306.412
306.244
306.103
306.02
306.005
306.082
306.344
306.787
307.413
306.905
306.75
306.582
306.43
306.267
306.118
305.995
305.913
305.889
305.944
306.094
306.402
306.868
307.498
306.764
306.661
306.471
306.286
306.106
305.964
305.865
305.817
305.826
305.918
306.104
306.436
306.919
307.561
306.924
306.79
306.542
306.299
306.09
305.94
305.849
305.814
305.835
305.945
306.148
306.489
306.979
307.607
307.263
307.046
306.723
306.414
306.17
306.007
305.913
305.881
305.906
306.022
306.227
306.561
307.038
307.63
307.727
307.405
306.997
306.615
306.325
306.138
306.036
306.004
306.032
306.153
306.358
306.68
307.134
307.669
308.226
307.812
307.329
306.884
306.547
306.333
306.22
306.187
306.219
306.342
306.545
306.851
307.277
307.745
308.773
308.277
307.713
307.215
306.84
306.602
306.479
306.448
306.486
306.612
306.811
307.096
307.483
307.871
309.297
308.745
308.118
307.598
307.211
306.968
306.85
306.826
306.872
306.999
307.192
307.454
307.793
308.096
309.816
309.237
308.562
308.044
307.662
307.431
307.329
307.321
307.382
307.514
307.708
307.954
308.246
308.47
310.144
309.676
309.008
308.521
308.161
307.967
307.894
307.91
307.994
308.132
308.327
308.556
308.813
309.051
310.583
310.28
309.518
309.024
308.661
308.514
308.504
308.574
308.699
308.854
309.041
309.235
309.423
309.616
307.239
307.109
307.063
306.886
306.697
306.409
306.135
305.856
305.638
305.51
305.404
305.505
305.831
306.329
306.845
306.706
306.609
306.496
306.364
306.189
306.012
305.84
305.715
305.656
305.621
305.751
306.025
306.496
306.241
306.25
306.226
306.193
306.115
306.002
305.881
305.773
305.705
305.693
305.726
305.894
306.185
306.697
306.097
306.124
306.067
306.024
305.957
305.879
305.804
305.745
305.723
305.754
305.846
306.057
306.387
306.878
306.107
306.133
306.062
305.995
305.926
305.865
305.815
305.786
305.791
305.846
305.965
306.195
306.533
307.009
306.321
306.292
306.181
306.078
305.996
305.937
305.897
305.882
305.899
305.965
306.096
306.325
306.659
307.113
306.668
306.557
306.386
306.236
306.129
306.061
306.022
306.011
306.033
306.1
306.23
306.447
306.762
307.179
307.124
306.908
306.663
306.455
306.311
306.223
306.178
306.167
306.19
306.257
306.384
306.584
306.871
307.235
307.609
307.297
306.981
306.714
306.527
306.414
306.359
306.348
306.374
306.442
306.564
306.748
307.002
307.304
308.119
307.715
307.323
307.002
306.778
306.644
306.581
306.571
306.601
306.671
306.789
306.956
307.177
307.408
308.594
308.122
307.669
307.312
307.065
306.919
306.854
306.849
306.887
306.962
307.08
307.235
307.421
307.575
309.027
308.51
308.008
307.631
307.38
307.243
307.191
307.203
307.255
307.339
307.459
307.603
307.755
307.832
309.291
308.836
308.33
307.973
307.744
307.639
307.614
307.65
307.722
307.816
307.933
308.057
308.18
308.228
309.624
309.267
308.65
308.302
308.104
308.05
308.081
308.168
308.282
308.402
308.521
308.619
308.695
308.676
306.35
306.224
306.213
306.073
305.963
305.764
305.582
305.376
305.217
305.142
305.067
305.103
305.283
305.638
306.048
306.025
305.955
305.891
305.816
305.688
305.565
305.435
305.338
305.318
305.3
305.409
305.608
305.929
305.721
305.775
305.775
305.758
305.712
305.631
305.545
305.468
305.417
305.422
305.446
305.57
305.76
306.104
305.628
305.729
305.724
305.706
305.673
305.622
305.572
305.531
305.515
305.544
305.61
305.76
305.98
306.305
305.702
305.768
305.761
305.74
305.714
305.682
305.653
305.635
305.642
305.684
305.768
305.921
306.144
306.458
305.908
305.922
305.887
305.849
305.819
305.794
305.774
305.768
305.784
305.833
305.923
306.074
306.294
306.592
306.203
306.152
306.073
306.008
305.963
305.934
305.916
305.915
305.935
305.985
306.072
306.216
306.424
306.697
306.579
306.453
306.32
306.213
306.141
306.097
306.075
306.074
306.096
306.146
306.23
306.365
306.557
306.798
306.969
306.78
306.594
306.445
306.341
306.279
306.25
306.249
306.273
306.324
306.404
306.529
306.702
306.905
307.398
307.146
306.899
306.703
306.566
306.485
306.448
306.446
306.472
306.525
306.605
306.721
306.872
307.028
307.764
307.489
307.202
306.971
306.811
306.719
306.677
306.676
306.708
306.766
306.849
306.953
307.084
307.189
308.143
307.836
307.511
307.252
307.079
306.985
306.948
306.954
306.994
307.061
307.148
307.24
307.35
307.399
308.417
308.135
307.787
307.531
307.371
307.288
307.266
307.29
307.346
307.423
307.511
307.591
307.684
307.689
308.819
308.474
308.006
307.782
307.655
307.605
307.619
307.676
307.759
307.855
307.951
308.023
308.093
308.055
305.893
305.77
305.748
305.606
305.517
305.365
305.233
305.086
304.98
304.94
304.916
304.967
305.164
305.44
305.703
305.664
305.646
305.553
305.497
305.395
305.307
305.216
305.156
305.16
305.18
305.292
305.45
305.675
305.509
305.547
305.568
305.546
305.517
305.458
305.402
305.349
305.318
305.337
305.373
305.48
305.626
305.891
305.448
305.539
305.577
305.582
305.574
305.545
305.518
305.495
305.492
305.524
305.583
305.699
305.851
306.075
305.506
305.598
305.644
305.665
305.673
305.668
305.662
305.66
305.673
305.71
305.774
305.88
306.021
306.229
305.675
305.738
305.77
305.792
305.806
305.814
305.819
305.829
305.851
305.89
305.952
306.048
306.181
306.368
305.912
305.932
305.941
305.95
305.96
305.97
305.98
305.996
306.022
306.06
306.117
306.204
306.323
306.491
306.216
306.187
306.159
306.142
306.135
306.136
306.145
306.162
306.189
306.227
306.281
306.36
306.466
306.609
306.538
306.468
306.403
306.354
306.324
306.312
306.316
306.332
306.359
306.397
306.45
306.524
306.618
306.732
306.91
306.793
306.676
306.588
306.531
306.502
306.498
306.51
306.537
306.577
306.633
306.705
306.79
306.869
307.248
307.107
306.951
306.832
306.751
306.706
306.694
306.702
306.731
306.777
306.838
306.908
306.989
307.028
307.642
307.439
307.233
307.085
306.986
306.925
306.906
306.916
306.952
307.007
307.075
307.141
307.225
307.228
307.945
307.753
307.506
307.339
307.228
307.161
307.142
307.16
307.207
307.273
307.349
307.408
307.499
307.479
308.378
308.075
307.731
307.559
307.456
307.402
307.398
307.433
307.498
307.581
307.668
307.726
307.82
307.826
305.741
305.617
305.617
305.48
305.392
305.26
305.147
305.027
304.947
304.92
304.929
305.008
305.194
305.417
305.627
305.578
305.577
305.49
305.435
305.342
305.267
305.187
305.141
305.145
305.186
305.289
305.437
305.625
305.495
305.525
305.56
305.531
305.507
305.451
305.403
305.357
305.329
305.346
305.386
305.481
305.62
305.839
305.484
305.547
305.598
305.607
305.601
305.575
305.551
305.529
305.524
305.55
305.602
305.699
305.824
306.004
305.53
305.618
305.678
305.706
305.72
305.713
305.707
305.702
305.712
305.741
305.792
305.876
305.987
306.155
305.666
305.743
305.8
305.833
305.853
305.86
305.864
305.87
305.887
305.919
305.968
306.043
306.145
306.293
305.86
305.911
305.954
305.982
306
306.009
306.017
306.03
306.051
306.083
306.128
306.194
306.286
306.417
306.116
306.132
306.146
306.155
306.16
306.165
306.172
306.186
306.208
306.239
306.283
306.344
306.426
306.536
306.398
306.381
306.362
306.348
306.335
306.329
306.331
306.343
306.364
306.396
306.439
306.497
306.573
306.66
306.733
306.671
306.605
306.557
306.522
306.503
306.497
306.505
306.525
306.558
306.606
306.664
306.739
306.8
307.052
306.957
306.855
306.78
306.726
306.691
306.675
306.679
306.7
306.737
306.792
306.852
306.931
306.96
307.424
307.267
307.112
307.013
306.94
306.89
306.865
306.868
306.895
306.94
307.004
307.062
307.156
307.163
307.711
307.566
307.376
307.257
307.165
307.103
307.074
307.079
307.117
307.172
307.247
307.302
307.413
307.42
308.134
307.909
307.636
307.48
307.379
307.32
307.299
307.316
307.368
307.438
307.523
307.587
307.708
307.766
305.678
305.578
305.576
305.45
305.368
305.26
305.169
305.078
305.022
305.012
305.044
305.129
305.288
305.474
305.626
305.587
305.582
305.511
305.456
305.382
305.321
305.261
305.229
305.243
305.291
305.386
305.52
305.676
305.555
305.578
305.609
305.582
305.563
305.518
305.481
305.448
305.429
305.447
305.486
305.572
305.697
305.875
305.563
305.615
305.671
305.68
305.677
305.659
305.643
305.63
305.629
305.653
305.697
305.78
305.884
306.041
305.617
305.694
305.757
305.789
305.805
305.804
305.803
305.802
305.813
305.838
305.88
305.947
306.036
306.174
305.734
305.812
305.875
305.914
305.938
305.948
305.955
305.964
305.982
306.009
306.05
306.111
306.192
306.313
305.902
305.967
306.021
306.058
306.08
306.093
306.104
306.117
306.137
306.165
306.204
306.258
306.331
306.436
306.125
306.167
306.199
306.222
306.234
306.243
306.252
306.265
306.286
306.314
306.352
306.401
306.468
306.555
306.377
306.395
306.4
306.404
306.402
306.402
306.406
306.416
306.436
306.463
306.501
306.548
306.613
306.681
306.678
306.658
306.625
306.601
306.581
306.568
306.564
306.57
306.588
306.617
306.659
306.706
306.775
306.822
306.974
306.919
306.855
306.809
306.771
306.744
306.73
306.731
306.751
306.784
306.833
306.88
306.96
306.987
307.303
307.209
307.101
307.029
306.97
306.927
306.903
306.904
306.93
306.97
307.029
307.072
307.172
307.188
307.577
307.482
307.342
307.256
307.176
307.117
307.087
307.09
307.126
307.177
307.248
307.292
307.413
307.441
307.969
307.807
307.601
307.469
307.369
307.307
307.282
307.294
307.342
307.405
307.49
307.55
307.679
307.755
305.725
305.642
305.633
305.527
305.444
305.347
305.266
305.192
305.148
305.141
305.183
305.258
305.392
305.551
305.711
305.675
305.666
305.602
305.545
305.476
305.421
305.371
305.346
305.357
305.406
305.488
305.606
305.743
305.676
305.694
305.71
305.679
305.654
305.608
305.575
305.544
305.53
305.545
305.582
305.657
305.769
305.923
305.694
305.739
305.777
305.773
305.763
305.74
305.723
305.71
305.708
305.729
305.769
305.842
305.937
306.078
305.748
305.811
305.859
305.875
305.879
305.869
305.864
305.862
305.869
305.89
305.928
305.989
306.073
306.199
305.848
305.914
305.964
305.986
305.997
305.997
305.999
306.003
306.016
306.04
306.079
306.138
306.217
306.33
305.993
306.049
306.091
306.113
306.123
306.127
306.131
306.138
306.154
306.179
306.218
306.272
306.346
306.445
306.19
306.227
306.248
306.259
306.262
306.262
306.264
306.272
306.288
306.314
306.354
306.406
306.478
306.561
306.415
306.431
306.428
306.423
306.415
306.409
306.405
306.41
306.424
306.451
306.493
306.544
306.615
306.683
306.686
306.667
306.631
306.606
306.582
306.564
306.551
306.551
306.567
306.596
306.642
306.692
306.768
306.822
306.953
306.91
306.848
306.804
306.761
306.728
306.706
306.703
306.721
306.753
306.805
306.854
306.941
306.983
307.249
307.177
307.08
307.012
306.948
306.9
306.869
306.866
306.889
306.927
306.988
307.035
307.138
307.172
307.507
307.441
307.313
307.227
307.145
307.082
307.046
307.044
307.075
307.121
307.194
307.244
307.363
307.408
307.862
307.726
307.546
307.431
307.331
307.265
307.233
307.239
307.28
307.336
307.42
307.489
307.61
307.699
305.783
305.712
305.694
305.604
305.527
305.442
305.371
305.312
305.275
305.266
305.306
305.371
305.484
305.623
305.788
305.754
305.739
305.682
305.628
305.565
305.515
305.472
305.452
305.458
305.501
305.573
305.677
305.796
305.768
305.78
305.784
305.754
305.726
305.682
305.649
305.62
305.607
305.618
305.652
305.72
305.82
305.958
305.793
305.828
305.849
305.835
305.824
305.798
305.778
305.762
305.758
305.775
305.813
305.879
305.968
306.096
305.848
305.895
305.924
305.925
305.923
305.908
305.899
305.89
305.892
305.909
305.946
306.005
306.087
306.214
305.941
305.989
306.017
306.024
306.026
306.018
306.013
306.01
306.018
306.04
306.08
306.139
306.22
306.328
306.074
306.111
306.13
306.136
306.137
306.133
306.128
306.129
306.139
306.163
306.205
306.264
306.343
306.443
306.253
306.271
306.272
306.268
306.262
306.255
306.248
306.249
306.262
306.289
306.334
306.393
306.471
306.558
306.458
306.456
306.437
306.422
306.405
306.39
306.378
306.377
306.392
306.422
306.471
306.529
306.607
306.681
306.704
306.676
306.631
306.599
306.564
306.536
306.516
306.514
306.532
306.565
306.619
306.676
306.758
306.817
306.953
306.913
306.843
306.791
306.737
306.695
306.668
306.664
306.685
306.722
306.78
306.836
306.927
306.974
307.229
307.164
307.064
306.989
306.918
306.864
306.832
306.829
306.854
306.894
306.96
307.013
307.116
307.157
307.477
307.412
307.286
307.195
307.109
307.045
307.01
307.008
307.038
307.086
307.161
307.217
307.33
307.377
307.788
307.666
307.501
307.392
307.294
307.229
307.198
307.203
307.241
307.294
307.379
307.451
307.56
307.643
305.891
305.836
305.819
305.743
305.672
305.592
305.524
305.468
305.432
305.416
305.445
305.5
305.595
305.72
305.897
305.87
305.857
305.809
305.757
305.696
305.645
305.601
305.579
305.579
305.613
305.677
305.77
305.878
305.883
305.886
305.888
305.861
305.831
305.787
305.75
305.718
305.704
305.71
305.742
305.805
305.897
306.024
305.913
305.931
305.939
305.922
305.907
305.877
305.852
305.832
305.826
305.84
305.878
305.943
306.029
306.144
305.967
305.991
306.002
305.992
305.985
305.965
305.947
305.935
305.936
305.952
305.992
306.052
306.136
306.258
306.056
306.078
306.085
306.077
306.071
306.056
306.043
306.036
306.044
306.067
306.111
306.175
306.256
306.358
306.18
306.19
306.187
306.179
306.168
306.154
306.142
306.14
306.152
306.18
306.228
306.291
306.371
306.466
306.344
306.337
306.318
306.302
306.283
306.264
306.25
306.25
306.266
306.299
306.351
306.414
306.493
306.576
306.533
306.509
306.472
306.446
306.416
306.39
306.373
306.374
306.393
306.43
306.484
306.546
306.624
306.696
306.751
306.71
306.65
306.608
306.564
306.53
306.509
306.51
306.532
306.571
306.629
306.689
306.769
306.827
306.978
306.926
306.845
306.785
306.727
306.685
306.661
306.661
306.685
306.725
306.786
306.844
306.929
306.975
307.224
307.156
307.051
306.973
306.902
306.852
306.825
306.826
306.853
306.895
306.961
307.014
307.106
307.145
307.449
307.381
307.257
307.169
307.088
307.032
307.003
307.004
307.034
307.079
307.152
307.206
307.304
307.343
307.719
307.607
307.458
307.358
307.27
307.214
307.189
307.194
307.228
307.277
307.356
307.424
307.517
307.584
308.97
309.192
309.082
308.762
308.583
308.071
308.547
308.551
308.222
307.829
307.689
307.255
308.419
308.322
307.742
307.019
306.573
305.776
308.054
307.853
306.957
305.908
305.1
303.82
307.658
307.299
306.155
304.755
303.488
301.908
307.201
306.668
305.298
303.562
301.933
300.395
306.811
306.107
304.6
302.616
300.726
299.298
306.443
305.613
304.083
301.989
299.966
298.657
306.189
305.282
303.906
301.941
300.044
298.916
306.077
305.22
304.175
302.617
301.165
300.275
306.091
305.469
304.917
303.87
302.798
302.025
306.322
306.022
305.905
305.282
304.469
303.674
306.934
306.9
306.952
306.508
305.905
305.137
307.148
307.457
307.572
307.374
306.995
306.457
308.045
308.296
308.526
308.466
308.337
308.057
307.622
307.889
307.968
307.935
307.637
307.235
307.471
307.592
307.413
307.024
306.337
305.381
307.131
307.082
306.478
305.652
304.579
302.943
306.811
306.461
305.446
304.159
302.79
300.687
306.381
305.784
304.453
302.815
301.226
299.084
305.991
305.19
303.682
301.839
300.097
298.149
305.627
304.673
303.044
301.105
299.329
297.777
305.369
304.355
302.794
300.951
299.338
298.165
305.281
304.326
303.043
301.546
300.308
299.453
305.261
304.468
303.669
302.714
301.976
301.354
305.433
304.887
304.548
304.001
303.644
303.216
305.837
305.578
305.516
305.182
305.11
304.887
305.996
306.089
306.195
306.179
306.298
306.329
307.041
307.26
307.573
307.716
307.945
308.146
306.54
306.859
307.108
307.243
307.258
307.256
306.439
306.62
306.584
306.36
305.892
305.337
306.163
306.101
305.688
304.939
303.934
302.719
305.97
305.683
304.824
303.563
302.062
300.32
305.676
305.185
304.038
302.411
300.608
298.709
305.421
304.772
303.501
301.708
299.767
297.929
305.154
304.388
303.05
301.234
299.402
297.802
304.968
304.165
302.926
301.257
299.694
298.41
304.922
304.182
303.167
301.822
300.703
299.872
304.912
304.306
303.624
302.783
302.19
301.82
305.049
304.554
304.216
303.805
303.658
303.681
305.298
305.016
304.977
304.851
305.028
305.309
305.395
305.415
305.524
305.739
306.167
306.636
306.416
306.652
307.013
307.277
307.54
307.701
305.982
306.316
306.639
306.961
307.174
307.184
305.898
306.177
306.321
306.328
306.12
305.656
305.629
305.708
305.585
305.209
304.432
303.264
305.483
305.386
304.896
303.964
302.599
300.918
305.264
305.004
304.275
302.96
301.171
299.185
305.08
304.685
303.829
302.342
300.389
298.312
304.884
304.392
303.492
302
300.101
298.151
304.754
304.215
303.377
302.06
300.454
298.79
304.732
304.217
303.549
302.509
301.388
300.224
304.75
304.321
303.877
303.225
302.649
302.001
304.861
304.549
304.284
303.97
303.785
303.541
305.093
304.901
304.861