/*--------------------------------*- C++ -*----------------------------------*\
| =========                 |                                                 |
| \\      /  F ield         | OpenFOAM: The Open Source CFD Toolbox           |
|  \\    /   O peration     | Version:  v2106                                 |
|   \\  /    A nd           | Website:  www.openfoam.com                      |
|    \\/     M anipulation  |                                                 |
\*---------------------------------------------------------------------------*/
FoamFile
{
    version     2.0;
    format      ascii;
    arch        "LSB;label=32;scalar=64";
    class       volScalarField;
    location    "0.000153";
    object      nut;
}
// * * * * * * * * * * * * * * * * * * * * * * * * * * * * * * * * * * * * * //

dimensions      [0 2 -1 0 0 0 0];

internalField   nonuniform List<scalar> 
17924
(
3.65451e-17
3.65467e-17
3.65484e-17
3.655e-17
3.65063e-17
3.65072e-17
3.65084e-17
3.65095e-17
3.65107e-17
3.65119e-17
3.6513e-17
3.65082e-17
3.65092e-17
3.65104e-17
3.65116e-17
3.65127e-17
3.65139e-17
3.65151e-17
3.65104e-17
3.65114e-17
3.65126e-17
3.65138e-17
3.6515e-17
3.65161e-17
3.65173e-17
3.65126e-17
3.65136e-17
3.65149e-17
3.6516e-17
3.65172e-17
3.65184e-17
3.65195e-17
3.65148e-17
3.6516e-17
3.65172e-17
3.65184e-17
3.65195e-17
3.65207e-17
3.65219e-17
3.65172e-17
3.65183e-17
3.65196e-17
3.65208e-17
3.65219e-17
3.65231e-17
3.65243e-17
3.65195e-17
3.65208e-17
3.6522e-17
3.65232e-17
3.65244e-17
3.65256e-17
3.65267e-17
3.6522e-17
3.65233e-17
3.65245e-17
3.65257e-17
3.65269e-17
3.65281e-17
3.65292e-17
3.65245e-17
3.65257e-17
3.6527e-17
3.65282e-17
3.65294e-17
3.65306e-17
3.65317e-17
3.65269e-17
3.65282e-17
3.65294e-17
3.65307e-17
3.65319e-17
3.6533e-17
3.65342e-17
3.65294e-17
3.65306e-17
3.65318e-17
3.65331e-17
3.65343e-17
3.65354e-17
3.65366e-17
3.65318e-17
3.65331e-17
3.65343e-17
3.65355e-17
3.65366e-17
3.65378e-17
3.65389e-17
3.6534e-17
3.65354e-17
3.65365e-17
3.65377e-17
3.65389e-17
3.654e-17
3.65412e-17
3.65363e-17
3.65376e-17
3.65388e-17
3.654e-17
3.65411e-17
3.65422e-17
3.65433e-17
3.64698e-17
3.64702e-17
3.64708e-17
3.64714e-17
3.64721e-17
3.64727e-17
3.64734e-17
3.6474e-17
3.64747e-17
3.64753e-17
3.6476e-17
3.64766e-17
3.64773e-17
3.64779e-17
3.64715e-17
3.64719e-17
3.64726e-17
3.64732e-17
3.64738e-17
3.64744e-17
3.6475e-17
3.64757e-17
3.64764e-17
3.6477e-17
3.64777e-17
3.64783e-17
3.64789e-17
3.64795e-17
3.64733e-17
3.64737e-17
3.64744e-17
3.6475e-17
3.64756e-17
3.64762e-17
3.64768e-17
3.64774e-17
3.64781e-17
3.64787e-17
3.64793e-17
3.64799e-17
3.64805e-17
3.64811e-17
3.64751e-17
3.64756e-17
3.64762e-17
3.64768e-17
3.64774e-17
3.6478e-17
3.64786e-17
3.64792e-17
3.64798e-17
3.64805e-17
3.64811e-17
3.64816e-17
3.64822e-17
3.64828e-17
3.6477e-17
3.64775e-17
3.64781e-17
3.64787e-17
3.64793e-17
3.64798e-17
3.64804e-17
3.6481e-17
3.64816e-17
3.64822e-17
3.64829e-17
3.64834e-17
3.6484e-17
3.64846e-17
3.64789e-17
3.64794e-17
3.648e-17
3.64806e-17
3.64812e-17
3.64817e-17
3.64823e-17
3.64829e-17
3.64835e-17
3.64841e-17
3.64847e-17
3.64853e-17
3.64859e-17
3.64864e-17
3.64808e-17
3.64814e-17
3.64819e-17
3.64825e-17
3.64831e-17
3.64836e-17
3.64842e-17
3.64848e-17
3.64854e-17
3.6486e-17
3.64866e-17
3.64872e-17
3.64878e-17
3.64883e-17
3.64828e-17
3.64834e-17
3.64839e-17
3.64845e-17
3.6485e-17
3.64856e-17
3.64862e-17
3.64868e-17
3.64874e-17
3.6488e-17
3.64886e-17
3.64891e-17
3.64897e-17
3.64902e-17
3.64848e-17
3.64854e-17
3.64859e-17
3.64864e-17
3.6487e-17
3.64876e-17
3.64881e-17
3.64887e-17
3.64893e-17
3.64899e-17
3.64905e-17
3.64911e-17
3.64917e-17
3.64922e-17
3.64868e-17
3.64874e-17
3.64879e-17
3.64884e-17
3.6489e-17
3.64895e-17
3.64901e-17
3.64907e-17
3.64913e-17
3.64919e-17
3.64925e-17
3.64931e-17
3.64937e-17
3.64942e-17
3.64888e-17
3.64894e-17
3.64898e-17
3.64904e-17
3.64909e-17
3.64915e-17
3.64921e-17
3.64927e-17
3.64933e-17
3.64939e-17
3.64945e-17
3.64951e-17
3.64957e-17
3.64962e-17
3.64908e-17
3.64914e-17
3.64918e-17
3.64924e-17
3.64929e-17
3.64935e-17
3.64941e-17
3.64947e-17
3.64953e-17
3.64959e-17
3.64965e-17
3.64971e-17
3.64978e-17
3.64983e-17
3.64927e-17
3.64933e-17
3.64938e-17
3.64943e-17
3.64949e-17
3.64955e-17
3.64961e-17
3.64967e-17
3.64973e-17
3.64979e-17
3.64985e-17
3.64991e-17
3.64998e-17
3.65004e-17
3.64948e-17
3.64953e-17
3.64958e-17
3.64963e-17
3.64969e-17
3.64974e-17
3.6498e-17
3.64986e-17
3.64992e-17
3.64998e-17
3.65004e-17
3.65011e-17
3.65017e-17
3.65025e-17
3.64364e-17
3.64364e-17
3.64365e-17
3.64367e-17
3.64369e-17
3.64371e-17
3.64374e-17
3.64376e-17
3.64378e-17
3.6438e-17
3.64382e-17
3.64384e-17
3.64386e-17
3.64389e-17
3.64377e-17
3.64377e-17
3.64378e-17
3.6438e-17
3.64382e-17
3.64384e-17
3.64386e-17
3.64388e-17
3.6439e-17
3.64392e-17
3.64394e-17
3.64396e-17
3.64397e-17
3.644e-17
3.64389e-17
3.6439e-17
3.64391e-17
3.64393e-17
3.64395e-17
3.64397e-17
3.64398e-17
3.644e-17
3.64402e-17
3.64404e-17
3.64406e-17
3.64407e-17
3.64408e-17
3.64411e-17
3.64403e-17
3.64403e-17
3.64405e-17
3.64406e-17
3.64408e-17
3.64409e-17
3.64411e-17
3.64413e-17
3.64415e-17
3.64416e-17
3.64418e-17
3.64419e-17
3.6442e-17
3.64422e-17
3.64415e-17
3.64416e-17
3.64418e-17
3.64419e-17
3.6442e-17
3.64422e-17
3.64424e-17
3.64425e-17
3.64427e-17
3.64428e-17
3.6443e-17
3.64431e-17
3.64431e-17
3.64433e-17
3.64428e-17
3.64429e-17
3.6443e-17
3.64432e-17
3.64433e-17
3.64435e-17
3.64436e-17
3.64438e-17
3.64439e-17
3.64441e-17
3.64442e-17
3.64443e-17
3.64443e-17
3.64444e-17
3.64441e-17
3.64442e-17
3.64443e-17
3.64444e-17
3.64446e-17
3.64447e-17
3.64449e-17
3.6445e-17
3.64452e-17
3.64453e-17
3.64454e-17
3.64455e-17
3.64455e-17
3.64456e-17
3.64454e-17
3.64455e-17
3.64456e-17
3.64457e-17
3.64458e-17
3.6446e-17
3.64461e-17
3.64462e-17
3.64464e-17
3.64465e-17
3.64466e-17
3.64467e-17
3.64467e-17
3.64468e-17
3.64466e-17
3.64468e-17
3.64468e-17
3.6447e-17
3.64471e-17
3.64472e-17
3.64473e-17
3.64475e-17
3.64476e-17
3.64477e-17
3.64478e-17
3.64479e-17
3.6448e-17
3.6448e-17
3.64479e-17
3.6448e-17
3.64481e-17
3.64482e-17
3.64483e-17
3.64485e-17
3.64486e-17
3.64487e-17
3.64488e-17
3.6449e-17
3.64491e-17
3.64492e-17
3.64493e-17
3.64493e-17
3.64492e-17
3.64493e-17
3.64494e-17
3.64495e-17
3.64496e-17
3.64497e-17
3.64499e-17
3.645e-17
3.64501e-17
3.64502e-17
3.64504e-17
3.64505e-17
3.64506e-17
3.64506e-17
3.64504e-17
3.64506e-17
3.64507e-17
3.64508e-17
3.64509e-17
3.6451e-17
3.64511e-17
3.64513e-17
3.64514e-17
3.64516e-17
3.64517e-17
3.64518e-17
3.6452e-17
3.6452e-17
3.64517e-17
3.64519e-17
3.64519e-17
3.6452e-17
3.64521e-17
3.64523e-17
3.64524e-17
3.64526e-17
3.64528e-17
3.64529e-17
3.64531e-17
3.64532e-17
3.64533e-17
3.64534e-17
3.64531e-17
3.64531e-17
3.64532e-17
3.64533e-17
3.64534e-17
3.64536e-17
3.64538e-17
3.64539e-17
3.64541e-17
3.64543e-17
3.64544e-17
3.64546e-17
3.64548e-17
3.6455e-17
3.64046e-17
3.64045e-17
3.64044e-17
3.64043e-17
3.64042e-17
3.64042e-17
3.64041e-17
3.6404e-17
3.64039e-17
3.64037e-17
3.64036e-17
3.64034e-17
3.64033e-17
3.64033e-17
3.64055e-17
3.64053e-17
3.64052e-17
3.64051e-17
3.6405e-17
3.64049e-17
3.64049e-17
3.64047e-17
3.64046e-17
3.64045e-17
3.64043e-17
3.64041e-17
3.6404e-17
3.64039e-17
3.64062e-17
3.64061e-17
3.6406e-17
3.64059e-17
3.64058e-17
3.64057e-17
3.64057e-17
3.64055e-17
3.64054e-17
3.64052e-17
3.6405e-17
3.64049e-17
3.64047e-17
3.64046e-17
3.6407e-17
3.64069e-17
3.64068e-17
3.64067e-17
3.64066e-17
3.64065e-17
3.64064e-17
3.64063e-17
3.64061e-17
3.6406e-17
3.64058e-17
3.64056e-17
3.64054e-17
3.64052e-17
3.64078e-17
3.64076e-17
3.64076e-17
3.64075e-17
3.64074e-17
3.64073e-17
3.64072e-17
3.6407e-17
3.64069e-17
3.64067e-17
3.64065e-17
3.64063e-17
3.6406e-17
3.64059e-17
3.64085e-17
3.64084e-17
3.64083e-17
3.64082e-17
3.64081e-17
3.6408e-17
3.64079e-17
3.64077e-17
3.64076e-17
3.64074e-17
3.64072e-17
3.64069e-17
3.64067e-17
3.64065e-17
3.64092e-17
3.64091e-17
3.6409e-17
3.64089e-17
3.64088e-17
3.64086e-17
3.64085e-17
3.64084e-17
3.64082e-17
3.6408e-17
3.64078e-17
3.64076e-17
3.64073e-17
3.64071e-17
3.64098e-17
3.64097e-17
3.64096e-17
3.64095e-17
3.64094e-17
3.64093e-17
3.64092e-17
3.6409e-17
3.64088e-17
3.64086e-17
3.64084e-17
3.64082e-17
3.64079e-17
3.64077e-17
3.64105e-17
3.64104e-17
3.64103e-17
3.64101e-17
3.641e-17
3.64099e-17
3.64098e-17
3.64096e-17
3.64094e-17
3.64092e-17
3.6409e-17
3.64088e-17
3.64085e-17
3.64083e-17
3.64111e-17
3.6411e-17
3.64109e-17
3.64108e-17
3.64106e-17
3.64105e-17
3.64104e-17
3.64102e-17
3.64101e-17
3.64098e-17
3.64096e-17
3.64094e-17
3.64092e-17
3.64089e-17
3.64117e-17
3.64116e-17
3.64115e-17
3.64113e-17
3.64112e-17
3.64111e-17
3.6411e-17
3.64108e-17
3.64107e-17
3.64105e-17
3.64103e-17
3.641e-17
3.64098e-17
3.64095e-17
3.64123e-17
3.64122e-17
3.64121e-17
3.64119e-17
3.64118e-17
3.64117e-17
3.64116e-17
3.64115e-17
3.64113e-17
3.64111e-17
3.64109e-17
3.64107e-17
3.64105e-17
3.64101e-17
3.64128e-17
3.64128e-17
3.64126e-17
3.64125e-17
3.64124e-17
3.64123e-17
3.64122e-17
3.64121e-17
3.64119e-17
3.64118e-17
3.64116e-17
3.64113e-17
3.64111e-17
3.64109e-17
3.64134e-17
3.64133e-17
3.64132e-17
3.64131e-17
3.6413e-17
3.64129e-17
3.64128e-17
3.64127e-17
3.64126e-17
3.64125e-17
3.64123e-17
3.64121e-17
3.64119e-17
3.64116e-17
3.63729e-17
3.63727e-17
3.63725e-17
3.63723e-17
3.63721e-17
3.63719e-17
3.63716e-17
3.63713e-17
3.63711e-17
3.63707e-17
3.63704e-17
3.63701e-17
3.63698e-17
3.63696e-17
3.63733e-17
3.63731e-17
3.63729e-17
3.63727e-17
3.63725e-17
3.63723e-17
3.6372e-17
3.63717e-17
3.63714e-17
3.63711e-17
3.63708e-17
3.63705e-17
3.63702e-17
3.63699e-17
3.63737e-17
3.63735e-17
3.63733e-17
3.63731e-17
3.63729e-17
3.63727e-17
3.63724e-17
3.63721e-17
3.63718e-17
3.63715e-17
3.63712e-17
3.63709e-17
3.63705e-17
3.63702e-17
3.6374e-17
3.63738e-17
3.63737e-17
3.63735e-17
3.63733e-17
3.6373e-17
3.63728e-17
3.63725e-17
3.63722e-17
3.63719e-17
3.63715e-17
3.63712e-17
3.63709e-17
3.63706e-17
3.63744e-17
3.63742e-17
3.6374e-17
3.63738e-17
3.63736e-17
3.63734e-17
3.63731e-17
3.63728e-17
3.63725e-17
3.63722e-17
3.63719e-17
3.63715e-17
3.63712e-17
3.63708e-17
3.63747e-17
3.63745e-17
3.63743e-17
3.63741e-17
3.63739e-17
3.63736e-17
3.63734e-17
3.63731e-17
3.63728e-17
3.63725e-17
3.63721e-17
3.63718e-17
3.63714e-17
3.63711e-17
3.63749e-17
3.63747e-17
3.63745e-17
3.63743e-17
3.63741e-17
3.63739e-17
3.63737e-17
3.63734e-17
3.63731e-17
3.63727e-17
3.63724e-17
3.6372e-17
3.63717e-17
3.63713e-17
3.63751e-17
3.63749e-17
3.63748e-17
3.63746e-17
3.63744e-17
3.63741e-17
3.63739e-17
3.63736e-17
3.63733e-17
3.6373e-17
3.63726e-17
3.63723e-17
3.63719e-17
3.63715e-17
3.63753e-17
3.63751e-17
3.6375e-17
3.63748e-17
3.63746e-17
3.63743e-17
3.63741e-17
3.63738e-17
3.63735e-17
3.63732e-17
3.63728e-17
3.63725e-17
3.63721e-17
3.63717e-17
3.63755e-17
3.63753e-17
3.63751e-17
3.6375e-17
3.63748e-17
3.63745e-17
3.63743e-17
3.6374e-17
3.63737e-17
3.63734e-17
3.6373e-17
3.63727e-17
3.63723e-17
3.63719e-17
3.63756e-17
3.63754e-17
3.63753e-17
3.63751e-17
3.63749e-17
3.63747e-17
3.63745e-17
3.63742e-17
3.63739e-17
3.63736e-17
3.63732e-17
3.63728e-17
3.63725e-17
3.6372e-17
3.63757e-17
3.63756e-17
3.63754e-17
3.63752e-17
3.6375e-17
3.63748e-17
3.63746e-17
3.63743e-17
3.6374e-17
3.63737e-17
3.63734e-17
3.6373e-17
3.63726e-17
3.63722e-17
3.63758e-17
3.63757e-17
3.63755e-17
3.63753e-17
3.63752e-17
3.6375e-17
3.63747e-17
3.63745e-17
3.63742e-17
3.63739e-17
3.63735e-17
3.63731e-17
3.63728e-17
3.63724e-17
3.63759e-17
3.63758e-17
3.63756e-17
3.63754e-17
3.63753e-17
3.63751e-17
3.63749e-17
3.63746e-17
3.63743e-17
3.6374e-17
3.63737e-17
3.63733e-17
3.6373e-17
3.63726e-17
3.63404e-17
3.63402e-17
3.63399e-17
3.63397e-17
3.63394e-17
3.63392e-17
3.63389e-17
3.63386e-17
3.63383e-17
3.6338e-17
3.63377e-17
3.63374e-17
3.63371e-17
3.63368e-17
3.63405e-17
3.63402e-17
3.634e-17
3.63398e-17
3.63395e-17
3.63393e-17
3.6339e-17
3.63387e-17
3.63384e-17
3.63381e-17
3.63377e-17
3.63374e-17
3.63371e-17
3.63368e-17
3.63406e-17
3.63403e-17
3.63401e-17
3.63399e-17
3.63396e-17
3.63393e-17
3.63391e-17
3.63388e-17
3.63385e-17
3.63382e-17
3.63379e-17
3.63375e-17
3.63372e-17
3.63369e-17
3.63406e-17
3.63404e-17
3.63402e-17
3.63399e-17
3.63397e-17
3.63394e-17
3.63391e-17
3.63388e-17
3.63385e-17
3.63382e-17
3.63379e-17
3.63376e-17
3.63373e-17
3.6337e-17
3.63406e-17
3.63404e-17
3.63402e-17
3.634e-17
3.63397e-17
3.63395e-17
3.63392e-17
3.63389e-17
3.63386e-17
3.63383e-17
3.6338e-17
3.63377e-17
3.63374e-17
3.63371e-17
3.63406e-17
3.63404e-17
3.63402e-17
3.634e-17
3.63398e-17
3.63395e-17
3.63392e-17
3.63389e-17
3.63387e-17
3.63383e-17
3.6338e-17
3.63377e-17
3.63374e-17
3.63371e-17
3.63406e-17
3.63404e-17
3.63402e-17
3.634e-17
3.63398e-17
3.63395e-17
3.63393e-17
3.6339e-17
3.63387e-17
3.63384e-17
3.63381e-17
3.63377e-17
3.63374e-17
3.63371e-17
3.63406e-17
3.63404e-17
3.63402e-17
3.634e-17
3.63398e-17
3.63395e-17
3.63393e-17
3.6339e-17
3.63387e-17
3.63384e-17
3.63381e-17
3.63378e-17
3.63374e-17
3.63371e-17
3.63405e-17
3.63404e-17
3.63402e-17
3.634e-17
3.63398e-17
3.63395e-17
3.63393e-17
3.6339e-17
3.63387e-17
3.63384e-17
3.63381e-17
3.63377e-17
3.63374e-17
3.63371e-17
3.63405e-17
3.63403e-17
3.63401e-17
3.63399e-17
3.63397e-17
3.63395e-17
3.63392e-17
3.6339e-17
3.63387e-17
3.63384e-17
3.6338e-17
3.63377e-17
3.63374e-17
3.6337e-17
3.63404e-17
3.63402e-17
3.63401e-17
3.63399e-17
3.63397e-17
3.63394e-17
3.63392e-17
3.63389e-17
3.63386e-17
3.63383e-17
3.6338e-17
3.63377e-17
3.63373e-17
3.6337e-17
3.63403e-17
3.63401e-17
3.634e-17
3.63398e-17
3.63396e-17
3.63394e-17
3.63391e-17
3.63388e-17
3.63385e-17
3.63382e-17
3.63379e-17
3.63376e-17
3.63372e-17
3.63369e-17
3.63402e-17
3.63401e-17
3.63399e-17
3.63397e-17
3.63395e-17
3.63393e-17
3.6339e-17
3.63388e-17
3.63385e-17
3.63381e-17
3.63378e-17
3.63375e-17
3.63372e-17
3.63368e-17
3.63402e-17
3.634e-17
3.63398e-17
3.63396e-17
3.63394e-17
3.63392e-17
3.63389e-17
3.63387e-17
3.63384e-17
3.63381e-17
3.63378e-17
3.63374e-17
3.63371e-17
3.63368e-17
3.63078e-17
3.63075e-17
3.63072e-17
3.63069e-17
3.63067e-17
3.63065e-17
3.63062e-17
3.6306e-17
3.63058e-17
3.63056e-17
3.63054e-17
3.63053e-17
3.63051e-17
3.63049e-17
3.63076e-17
3.63073e-17
3.63071e-17
3.63068e-17
3.63066e-17
3.63063e-17
3.63061e-17
3.63059e-17
3.63057e-17
3.63055e-17
3.63053e-17
3.63051e-17
3.6305e-17
3.63048e-17
3.63075e-17
3.63072e-17
3.6307e-17
3.63067e-17
3.63065e-17
3.63062e-17
3.6306e-17
3.63058e-17
3.63056e-17
3.63054e-17
3.63052e-17
3.6305e-17
3.63049e-17
3.63047e-17
3.63073e-17
3.63071e-17
3.63068e-17
3.63066e-17
3.63063e-17
3.63061e-17
3.63059e-17
3.63057e-17
3.63055e-17
3.63053e-17
3.63051e-17
3.63049e-17
3.63048e-17
3.63046e-17
3.63072e-17
3.6307e-17
3.63067e-17
3.63065e-17
3.63062e-17
3.6306e-17
3.63058e-17
3.63056e-17
3.63054e-17
3.63052e-17
3.6305e-17
3.63048e-17
3.63047e-17
3.63045e-17
3.63071e-17
3.63068e-17
3.63066e-17
3.63064e-17
3.63061e-17
3.63059e-17
3.63057e-17
3.63055e-17
3.63053e-17
3.63051e-17
3.63049e-17
3.63048e-17
3.63046e-17
3.63044e-17
3.6307e-17
3.63067e-17
3.63065e-17
3.63063e-17
3.63061e-17
3.63058e-17
3.63056e-17
3.63054e-17
3.63052e-17
3.6305e-17
3.63048e-17
3.63047e-17
3.63045e-17
3.63044e-17
3.63068e-17
3.63066e-17
3.63064e-17
3.63062e-17
3.6306e-17
3.63058e-17
3.63055e-17
3.63053e-17
3.63051e-17
3.63049e-17
3.63048e-17
3.63046e-17
3.63044e-17
3.63043e-17
3.63067e-17
3.63065e-17
3.63063e-17
3.63061e-17
3.63059e-17
3.63057e-17
3.63055e-17
3.63053e-17
3.63051e-17
3.63049e-17
3.63047e-17
3.63045e-17
3.63043e-17
3.63042e-17
3.63066e-17
3.63064e-17
3.63062e-17
3.6306e-17
3.63058e-17
3.63056e-17
3.63054e-17
3.63052e-17
3.6305e-17
3.63048e-17
3.63046e-17
3.63044e-17
3.63043e-17
3.63041e-17
3.63065e-17
3.63063e-17
3.63061e-17
3.63059e-17
3.63057e-17
3.63055e-17
3.63053e-17
3.63051e-17
3.63049e-17
3.63047e-17
3.63045e-17
3.63043e-17
3.63042e-17
3.6304e-17
3.63065e-17
3.63063e-17
3.63061e-17
3.63059e-17
3.63057e-17
3.63054e-17
3.63052e-17
3.6305e-17
3.63048e-17
3.63046e-17
3.63044e-17
3.63043e-17
3.63041e-17
3.63039e-17
3.63064e-17
3.63062e-17
3.6306e-17
3.63058e-17
3.63056e-17
3.63054e-17
3.63052e-17
3.6305e-17
3.63048e-17
3.63045e-17
3.63044e-17
3.63042e-17
3.6304e-17
3.63039e-17
3.63064e-17
3.63062e-17
3.6306e-17
3.63057e-17
3.63055e-17
3.63053e-17
3.63051e-17
3.63049e-17
3.63047e-17
3.63045e-17
3.63043e-17
3.63041e-17
3.63039e-17
3.63038e-17
3.62766e-17
3.62763e-17
3.6276e-17
3.62757e-17
3.62755e-17
3.62754e-17
3.62752e-17
3.62751e-17
3.6275e-17
3.62749e-17
3.62749e-17
3.62749e-17
3.62749e-17
3.62749e-17
3.62763e-17
3.6276e-17
3.62757e-17
3.62755e-17
3.62753e-17
3.62751e-17
3.6275e-17
3.62748e-17
3.62747e-17
3.62747e-17
3.62746e-17
3.62746e-17
3.62746e-17
3.62746e-17
3.62761e-17
3.62758e-17
3.62755e-17
3.62753e-17
3.62751e-17
3.62749e-17
3.62747e-17
3.62746e-17
3.62745e-17
3.62745e-17
3.62744e-17
3.62744e-17
3.62744e-17
3.62744e-17
3.62759e-17
3.62756e-17
3.62753e-17
3.62751e-17
3.62748e-17
3.62747e-17
3.62745e-17
3.62744e-17
3.62743e-17
3.62743e-17
3.62742e-17
3.62742e-17
3.62742e-17
3.62742e-17
3.62757e-17
3.62754e-17
3.62751e-17
3.62749e-17
3.62747e-17
3.62745e-17
3.62743e-17
3.62742e-17
3.62741e-17
3.62741e-17
3.62741e-17
3.62741e-17
3.62741e-17
3.62741e-17
3.62755e-17
3.62753e-17
3.6275e-17
3.62747e-17
3.62745e-17
3.62743e-17
3.62742e-17
3.62741e-17
3.6274e-17
3.62739e-17
3.62739e-17
3.62739e-17
3.62739e-17
3.6274e-17
3.62754e-17
3.62751e-17
3.62749e-17
3.62746e-17
3.62744e-17
3.62742e-17
3.62741e-17
3.6274e-17
3.62739e-17
3.62738e-17
3.62738e-17
3.62738e-17
3.62738e-17
3.62739e-17
3.62753e-17
3.6275e-17
3.62748e-17
3.62745e-17
3.62743e-17
3.62741e-17
3.6274e-17
3.62739e-17
3.62738e-17
3.62737e-17
3.62737e-17
3.62737e-17
3.62738e-17
3.62738e-17
3.62752e-17
3.6275e-17
3.62747e-17
3.62745e-17
3.62743e-17
3.62741e-17
3.62739e-17
3.62738e-17
3.62737e-17
3.62737e-17
3.62737e-17
3.62737e-17
3.62737e-17
3.62738e-17
3.62752e-17
3.6275e-17
3.62747e-17
3.62745e-17
3.62743e-17
3.62741e-17
3.62739e-17
3.62738e-17
3.62737e-17
3.62737e-17
3.62736e-17
3.62737e-17
3.62737e-17
3.62737e-17
3.62752e-17
3.6275e-17
3.62747e-17
3.62745e-17
3.62743e-17
3.62741e-17
3.62739e-17
3.62738e-17
3.62737e-17
3.62737e-17
3.62736e-17
3.62737e-17
3.62737e-17
3.62737e-17
3.62752e-17
3.6275e-17
3.62747e-17
3.62745e-17
3.62743e-17
3.62741e-17
3.6274e-17
3.62739e-17
3.62738e-17
3.62737e-17
3.62737e-17
3.62737e-17
3.62737e-17
3.62737e-17
3.62753e-17
3.6275e-17
3.62748e-17
3.62746e-17
3.62744e-17
3.62742e-17
3.6274e-17
3.62739e-17
3.62738e-17
3.62737e-17
3.62737e-17
3.62737e-17
3.62737e-17
3.62738e-17
3.62754e-17
3.62751e-17
3.62749e-17
3.62747e-17
3.62745e-17
3.62743e-17
3.62741e-17
3.6274e-17
3.62739e-17
3.62738e-17
3.62738e-17
3.62737e-17
3.62738e-17
3.62738e-17
3.62484e-17
3.62481e-17
3.62478e-17
3.62476e-17
3.62474e-17
3.62473e-17
3.62472e-17
3.62472e-17
3.62472e-17
3.62472e-17
3.62472e-17
3.62473e-17
3.62474e-17
3.62475e-17
3.62481e-17
3.62478e-17
3.62476e-17
3.62473e-17
3.62472e-17
3.6247e-17
3.62469e-17
3.62469e-17
3.62469e-17
3.62469e-17
3.6247e-17
3.6247e-17
3.62471e-17
3.62472e-17
3.62478e-17
3.62476e-17
3.62473e-17
3.62471e-17
3.62469e-17
3.62468e-17
3.62467e-17
3.62466e-17
3.62466e-17
3.62466e-17
3.62467e-17
3.62468e-17
3.62469e-17
3.6247e-17
3.62476e-17
3.62474e-17
3.62471e-17
3.62469e-17
3.62467e-17
3.62465e-17
3.62464e-17
3.62464e-17
3.62464e-17
3.62464e-17
3.62465e-17
3.62466e-17
3.62467e-17
3.62468e-17
3.62475e-17
3.62472e-17
3.62469e-17
3.62467e-17
3.62465e-17
3.62464e-17
3.62463e-17
3.62462e-17
3.62462e-17
3.62462e-17
3.62463e-17
3.62464e-17
3.62465e-17
3.62467e-17
3.62473e-17
3.62471e-17
3.62468e-17
3.62466e-17
3.62464e-17
3.62462e-17
3.62461e-17
3.62461e-17
3.6246e-17
3.62461e-17
3.62462e-17
3.62463e-17
3.62464e-17
3.62466e-17
3.62473e-17
3.6247e-17
3.62467e-17
3.62465e-17
3.62463e-17
3.62461e-17
3.6246e-17
3.6246e-17
3.6246e-17
3.6246e-17
3.62461e-17
3.62462e-17
3.62464e-17
3.62465e-17
3.62472e-17
3.62469e-17
3.62467e-17
3.62464e-17
3.62462e-17
3.62461e-17
3.6246e-17
3.62459e-17
3.62459e-17
3.6246e-17
3.6246e-17
3.62462e-17
3.62463e-17
3.62465e-17
3.62472e-17
3.62469e-17
3.62467e-17
3.62464e-17
3.62462e-17
3.62461e-17
3.6246e-17
3.62459e-17
3.62459e-17
3.6246e-17
3.62461e-17
3.62462e-17
3.62463e-17
3.62465e-17
3.62472e-17
3.6247e-17
3.62467e-17
3.62465e-17
3.62463e-17
3.62461e-17
3.6246e-17
3.6246e-17
3.6246e-17
3.6246e-17
3.62461e-17
3.62462e-17
3.62464e-17
3.62466e-17
3.62473e-17
3.62471e-17
3.62468e-17
3.62466e-17
3.62464e-17
3.62462e-17
3.62461e-17
3.62461e-17
3.62461e-17
3.62461e-17
3.62462e-17
3.62463e-17
3.62465e-17
3.62466e-17
3.62474e-17
3.62472e-17
3.62469e-17
3.62467e-17
3.62465e-17
3.62464e-17
3.62463e-17
3.62462e-17
3.62462e-17
3.62462e-17
3.62463e-17
3.62464e-17
3.62466e-17
3.62467e-17
3.62476e-17
3.62473e-17
3.62471e-17
3.62469e-17
3.62467e-17
3.62466e-17
3.62464e-17
3.62464e-17
3.62463e-17
3.62464e-17
3.62464e-17
3.62465e-17
3.62467e-17
3.62468e-17
3.62478e-17
3.62475e-17
3.62473e-17
3.62471e-17
3.62469e-17
3.62467e-17
3.62466e-17
3.62466e-17
3.62465e-17
3.62465e-17
3.62466e-17
3.62467e-17
3.62468e-17
3.6247e-17
3.62236e-17
3.62234e-17
3.62232e-17
3.62231e-17
3.62229e-17
3.62229e-17
3.62228e-17
3.62228e-17
3.62228e-17
3.62228e-17
3.62229e-17
3.6223e-17
3.62231e-17
3.62232e-17
3.62234e-17
3.62232e-17
3.6223e-17
3.62229e-17
3.62228e-17
3.62227e-17
3.62226e-17
3.62226e-17
3.62226e-17
3.62226e-17
3.62227e-17
3.62228e-17
3.62229e-17
3.6223e-17
3.62232e-17
3.6223e-17
3.62229e-17
3.62227e-17
3.62226e-17
3.62225e-17
3.62224e-17
3.62224e-17
3.62224e-17
3.62224e-17
3.62225e-17
3.62226e-17
3.62227e-17
3.62228e-17
3.62231e-17
3.62229e-17
3.62227e-17
3.62226e-17
3.62224e-17
3.62223e-17
3.62223e-17
3.62222e-17
3.62222e-17
3.62223e-17
3.62223e-17
3.62224e-17
3.62226e-17
3.62227e-17
3.6223e-17
3.62228e-17
3.62226e-17
3.62224e-17
3.62223e-17
3.62222e-17
3.62221e-17
3.62221e-17
3.62221e-17
3.62221e-17
3.62222e-17
3.62223e-17
3.62224e-17
3.62226e-17
3.62229e-17
3.62227e-17
3.62225e-17
3.62223e-17
3.62222e-17
3.62221e-17
3.6222e-17
3.6222e-17
3.6222e-17
3.62221e-17
3.62221e-17
3.62222e-17
3.62224e-17
3.62225e-17
3.62229e-17
3.62226e-17
3.62225e-17
3.62223e-17
3.62221e-17
3.6222e-17
3.6222e-17
3.6222e-17
3.6222e-17
3.6222e-17
3.62221e-17
3.62222e-17
3.62223e-17
3.62225e-17
3.62228e-17
3.62226e-17
3.62224e-17
3.62223e-17
3.62221e-17
3.6222e-17
3.6222e-17
3.62219e-17
3.62219e-17
3.6222e-17
3.62221e-17
3.62222e-17
3.62223e-17
3.62225e-17
3.62229e-17
3.62227e-17
3.62225e-17
3.62223e-17
3.62222e-17
3.62221e-17
3.6222e-17
3.6222e-17
3.6222e-17
3.6222e-17
3.62221e-17
3.62222e-17
3.62224e-17
3.62225e-17
3.62229e-17
3.62227e-17
3.62225e-17
3.62224e-17
3.62222e-17
3.62221e-17
3.62221e-17
3.6222e-17
3.6222e-17
3.62221e-17
3.62222e-17
3.62223e-17
3.62224e-17
3.62226e-17
3.6223e-17
3.62228e-17
3.62226e-17
3.62225e-17
3.62223e-17
3.62222e-17
3.62222e-17
3.62221e-17
3.62221e-17
3.62222e-17
3.62223e-17
3.62224e-17
3.62225e-17
3.62227e-17
3.62231e-17
3.62229e-17
3.62228e-17
3.62226e-17
3.62225e-17
3.62224e-17
3.62223e-17
3.62223e-17
3.62223e-17
3.62223e-17
3.62224e-17
3.62225e-17
3.62226e-17
3.62228e-17
3.62233e-17
3.62231e-17
3.62229e-17
3.62228e-17
3.62226e-17
3.62225e-17
3.62225e-17
3.62224e-17
3.62224e-17
3.62225e-17
3.62225e-17
3.62226e-17
3.62228e-17
3.62229e-17
3.62235e-17
3.62233e-17
3.62231e-17
3.62229e-17
3.62228e-17
3.62227e-17
3.62226e-17
3.62226e-17
3.62226e-17
3.62226e-17
3.62227e-17
3.62228e-17
3.62229e-17
3.62231e-17
3.62019e-17
3.62018e-17
3.62017e-17
3.62017e-17
3.62016e-17
3.62016e-17
3.62015e-17
3.62015e-17
3.62015e-17
3.62015e-17
3.62015e-17
3.62015e-17
3.62016e-17
3.62016e-17
3.62018e-17
3.62018e-17
3.62017e-17
3.62016e-17
3.62016e-17
3.62015e-17
3.62015e-17
3.62015e-17
3.62014e-17
3.62014e-17
3.62014e-17
3.62015e-17
3.62015e-17
3.62015e-17
3.62018e-17
3.62017e-17
3.62016e-17
3.62016e-17
3.62015e-17
3.62015e-17
3.62014e-17
3.62014e-17
3.62014e-17
3.62014e-17
3.62014e-17
3.62014e-17
3.62014e-17
3.62015e-17
3.62017e-17
3.62017e-17
3.62016e-17
3.62015e-17
3.62015e-17
3.62014e-17
3.62014e-17
3.62014e-17
3.62014e-17
3.62013e-17
3.62013e-17
3.62014e-17
3.62014e-17
3.62014e-17
3.62017e-17
3.62016e-17
3.62016e-17
3.62015e-17
3.62015e-17
3.62014e-17
3.62014e-17
3.62013e-17
3.62013e-17
3.62013e-17
3.62013e-17
3.62013e-17
3.62014e-17
3.62014e-17
3.62017e-17
3.62016e-17
3.62015e-17
3.62015e-17
3.62014e-17
3.62014e-17
3.62014e-17
3.62013e-17
3.62013e-17
3.62013e-17
3.62013e-17
3.62013e-17
3.62013e-17
3.62014e-17
3.62016e-17
3.62016e-17
3.62015e-17
3.62015e-17
3.62014e-17
3.62014e-17
3.62013e-17
3.62013e-17
3.62013e-17
3.62013e-17
3.62013e-17
3.62013e-17
3.62013e-17
3.62013e-17
3.62016e-17
3.62016e-17
3.62015e-17
3.62015e-17
3.62014e-17
3.62014e-17
3.62013e-17
3.62013e-17
3.62013e-17
3.62013e-17
3.62013e-17
3.62013e-17
3.62013e-17
3.62014e-17
3.62017e-17
3.62016e-17
3.62015e-17
3.62015e-17
3.62014e-17
3.62014e-17
3.62014e-17
3.62013e-17
3.62013e-17
3.62013e-17
3.62013e-17
3.62013e-17
3.62013e-17
3.62014e-17
3.62017e-17
3.62016e-17
3.62016e-17
3.62015e-17
3.62015e-17
3.62014e-17
3.62014e-17
3.62013e-17
3.62013e-17
3.62013e-17
3.62013e-17
3.62013e-17
3.62014e-17
3.62014e-17
3.62017e-17
3.62017e-17
3.62016e-17
3.62015e-17
3.62015e-17
3.62014e-17
3.62014e-17
3.62014e-17
3.62014e-17
3.62014e-17
3.62014e-17
3.62014e-17
3.62014e-17
3.62014e-17
3.62018e-17
3.62017e-17
3.62016e-17
3.62016e-17
3.62015e-17
3.62015e-17
3.62014e-17
3.62014e-17
3.62014e-17
3.62014e-17
3.62014e-17
3.62014e-17
3.62015e-17
3.62015e-17
3.62018e-17
3.62018e-17
3.62017e-17
3.62016e-17
3.62016e-17
3.62015e-17
3.62015e-17
3.62015e-17
3.62014e-17
3.62014e-17
3.62015e-17
3.62015e-17
3.62015e-17
3.62016e-17
3.62019e-17
3.62018e-17
3.62017e-17
3.62017e-17
3.62016e-17
3.62016e-17
3.62015e-17
3.62015e-17
3.62015e-17
3.62015e-17
3.62015e-17
3.62015e-17
3.62016e-17
3.62016e-17
3.61824e-17
3.61825e-17
3.61825e-17
3.61826e-17
3.61826e-17
3.61826e-17
3.61826e-17
3.61825e-17
3.61825e-17
3.61824e-17
3.61824e-17
3.61823e-17
3.61822e-17
3.61822e-17
3.61825e-17
3.61826e-17
3.61826e-17
3.61826e-17
3.61826e-17
3.61826e-17
3.61826e-17
3.61826e-17
3.61826e-17
3.61825e-17
3.61825e-17
3.61824e-17
3.61823e-17
3.61822e-17
3.61825e-17
3.61826e-17
3.61827e-17
3.61827e-17
3.61827e-17
3.61827e-17
3.61827e-17
3.61827e-17
3.61826e-17
3.61826e-17
3.61825e-17
3.61824e-17
3.61824e-17
3.61823e-17
3.61826e-17
3.61827e-17
3.61827e-17
3.61828e-17
3.61828e-17
3.61828e-17
3.61828e-17
3.61827e-17
3.61827e-17
3.61826e-17
3.61826e-17
3.61825e-17
3.61824e-17
3.61823e-17
3.61826e-17
3.61827e-17
3.61828e-17
3.61828e-17
3.61828e-17
3.61828e-17
3.61828e-17
3.61828e-17
3.61828e-17
3.61827e-17
3.61826e-17
3.61825e-17
3.61824e-17
3.61823e-17
3.61827e-17
3.61827e-17
3.61828e-17
3.61828e-17
3.61829e-17
3.61829e-17
3.61829e-17
3.61828e-17
3.61828e-17
3.61827e-17
3.61826e-17
3.61826e-17
3.61825e-17
3.61824e-17
3.61827e-17
3.61827e-17
3.61828e-17
3.61828e-17
3.61829e-17
3.61829e-17
3.61829e-17
3.61828e-17
3.61828e-17
3.61827e-17
3.61827e-17
3.61826e-17
3.61825e-17
3.61824e-17
3.61827e-17
3.61827e-17
3.61828e-17
3.61828e-17
3.61829e-17
3.61829e-17
3.61829e-17
3.61828e-17
3.61828e-17
3.61827e-17
3.61827e-17
3.61826e-17
3.61824e-17
3.61823e-17
3.61827e-17
3.61827e-17
3.61828e-17
3.61828e-17
3.61829e-17
3.61829e-17
3.61829e-17
3.61828e-17
3.61828e-17
3.61827e-17
3.61826e-17
3.61825e-17
3.61824e-17
3.61823e-17
3.61826e-17
3.61827e-17
3.61828e-17
3.61828e-17
3.61828e-17
3.61828e-17
3.61828e-17
3.61828e-17
3.61827e-17
3.61827e-17
3.61826e-17
3.61825e-17
3.61824e-17
3.61823e-17
3.61826e-17
3.61827e-17
3.61827e-17
3.61827e-17
3.61828e-17
3.61828e-17
3.61828e-17
3.61827e-17
3.61827e-17
3.61826e-17
3.61826e-17
3.61825e-17
3.61824e-17
3.61823e-17
3.61826e-17
3.61826e-17
3.61826e-17
3.61827e-17
3.61827e-17
3.61827e-17
3.61827e-17
3.61827e-17
3.61826e-17
3.61826e-17
3.61825e-17
3.61824e-17
3.61823e-17
3.61822e-17
3.61825e-17
3.61825e-17
3.61826e-17
3.61826e-17
3.61826e-17
3.61826e-17
3.61826e-17
3.61826e-17
3.61825e-17
3.61825e-17
3.61824e-17
3.61824e-17
3.61823e-17
3.61822e-17
3.61824e-17
3.61825e-17
3.61825e-17
3.61825e-17
3.61825e-17
3.61825e-17
3.61825e-17
3.61825e-17
3.61825e-17
3.61824e-17
3.61824e-17
3.61823e-17
3.61822e-17
3.61821e-17
3.61645e-17
3.61647e-17
3.61648e-17
3.61649e-17
3.61649e-17
3.6165e-17
3.6165e-17
3.61649e-17
3.61649e-17
3.61648e-17
3.61647e-17
3.61646e-17
3.61644e-17
3.61643e-17
3.61647e-17
3.61648e-17
3.61649e-17
3.6165e-17
3.61651e-17
3.61651e-17
3.61651e-17
3.61651e-17
3.6165e-17
3.61649e-17
3.61648e-17
3.61647e-17
3.61646e-17
3.61644e-17
3.61648e-17
3.61649e-17
3.6165e-17
3.61651e-17
3.61652e-17
3.61652e-17
3.61652e-17
3.61652e-17
3.61652e-17
3.61651e-17
3.6165e-17
3.61648e-17
3.61647e-17
3.61645e-17
3.61649e-17
3.6165e-17
3.61651e-17
3.61652e-17
3.61653e-17
3.61654e-17
3.61654e-17
3.61653e-17
3.61653e-17
3.61652e-17
3.61651e-17
3.61649e-17
3.61648e-17
3.61646e-17
3.61649e-17
3.61651e-17
3.61652e-17
3.61653e-17
3.61654e-17
3.61654e-17
3.61654e-17
3.61654e-17
3.61654e-17
3.61653e-17
3.61652e-17
3.6165e-17
3.61649e-17
3.61647e-17
3.6165e-17
3.61651e-17
3.61653e-17
3.61654e-17
3.61655e-17
3.61655e-17
3.61655e-17
3.61655e-17
3.61654e-17
3.61653e-17
3.61652e-17
3.61651e-17
3.61649e-17
3.61647e-17
3.6165e-17
3.61652e-17
3.61653e-17
3.61654e-17
3.61655e-17
3.61655e-17
3.61655e-17
3.61655e-17
3.61654e-17
3.61654e-17
3.61652e-17
3.61651e-17
3.61649e-17
3.61647e-17
3.6165e-17
3.61652e-17
3.61653e-17
3.61654e-17
3.61655e-17
3.61655e-17
3.61655e-17
3.61655e-17
3.61654e-17
3.61653e-17
3.61652e-17
3.61651e-17
3.61649e-17
3.61647e-17
3.6165e-17
3.61651e-17
3.61653e-17
3.61654e-17
3.61654e-17
3.61655e-17
3.61655e-17
3.61654e-17
3.61654e-17
3.61653e-17
3.61652e-17
3.6165e-17
3.61648e-17
3.61646e-17
3.61649e-17
3.61651e-17
3.61652e-17
3.61653e-17
3.61653e-17
3.61654e-17
3.61654e-17
3.61654e-17
3.61653e-17
3.61652e-17
3.61651e-17
3.61649e-17
3.61648e-17
3.61646e-17
3.61648e-17
3.6165e-17
3.61651e-17
3.61652e-17
3.61652e-17
3.61653e-17
3.61653e-17
3.61653e-17
3.61652e-17
3.61651e-17
3.6165e-17
3.61648e-17
3.61647e-17
3.61645e-17
3.61647e-17
3.61648e-17
3.61649e-17
3.6165e-17
3.61651e-17
3.61651e-17
3.61651e-17
3.61651e-17
3.61651e-17
3.6165e-17
3.61649e-17
3.61647e-17
3.61646e-17
3.61644e-17
3.61646e-17
3.61647e-17
3.61648e-17
3.61649e-17
3.61649e-17
3.6165e-17
3.6165e-17
3.6165e-17
3.61649e-17
3.61648e-17
3.61647e-17
3.61646e-17
3.61644e-17
3.61642e-17
3.61644e-17
3.61645e-17
3.61646e-17