/*--------------------------------*- C++ -*----------------------------------*\
| =========                 |                                                 |
| \\      /  F ield         | OpenFOAM: The Open Source CFD Toolbox           |
|  \\    /   O peration     | Version:  v2106                                 |
|   \\  /    A nd           | Website:  www.openfoam.com                      |
|    \\/     M anipulation  |                                                 |
\*---------------------------------------------------------------------------*/
FoamFile
{
    version     2.0;
    format      ascii;
    arch        "LSB;label=32;scalar=64";
    class       volScalarField;
    location    "0.000145";
    object      p;
}
// * * * * * * * * * * * * * * * * * * * * * * * * * * * * * * * * * * * * * //

dimensions      [1 -1 -2 0 0 0 0];

internalField   nonuniform List<scalar> 
18109
(
225007
225828
226411
227112
227847
228588
229298
225571
226015
226453
227018
227663
228317
228969
226073
226190
226491
226880
227397
227968
228597
226350
226161
226393
226638
227112
227637
228214
226447
226144
226255
226410
226861
227315
227868
226372
226089
226075
226168
226581
226995
227532
226211
225952
225876
225964
226339
226722
227251
226038
225828
225741
225809
226141
226506
227024
227830
228430
228850
229369
229918
230484
231050
231600
232068
232491
232768
232978
232962
232765
228243
228551
228850
229282
229773
230260
230786
231316
231751
232160
232436
232690
232843
232794
228603
228623
228826
229103
229494
229957
230459
230985
231436
231898
232227
232498
232665
232729
228746
228545
228695
228866
229246
229661
230125
230621
231053
231503
231863
232186
232454
232602
228739
228472
228535
228621
228976
229339
229791
230283
230732
231196
231578
231927
232229
232477
228621
228367
228336
228382
228697
229028
229469
229943
230389
230857
231258
231660
231993
232328
228455
228219
228132
228175
228454
228756
229188
229650
230102
230580
230992
231432
231798
232182
228300
228097
227996
228026
228262
228545
228957
229406
229860
230345
230763
231236
231607
232030
228090
227894
227841
227883
228102
228377
228771
229209
229663
230157
230582
231078
231436
231899
227896
227733
227739
227826
228038
228316
228699
229129
229581
230066
230483
230966
231292
231782
227517
227518
227575
227722
227965
228259
228654
229090
229541
230008
230423
230876
231168
231639
227106
227249
227443
227663
227987
228325
228735
229164
229601
230041
230433
230803
231080
231491
226725
226956
227270
227564
227928
228334
228790
229254
229701
230112
230486
230797
231042
231233
225881
226457
227072
227632
228098
228551
228981
229431
229850
230244
230564
230787
230918
230954
224040
223136
222024
220533
219077
217178
227069
226386
225525
224431
223120
221648
228112
227271
226384
225238
223773
222188
228631
227979
227249
226224
225004
223737
229302
228790
228260
227471
226585
225706
229980
229699
229435
228974
228507
228091
230623
230579
230535
230436
230403
230455
231269
231400
231564
231769
232053
232483
231881
232171
232486
232887
233411
234094
232364
232710
233085
233590
234249
235084
232696
233080
233472
234000
234599
235450
232933
233264
233572
233984
234399
235122
233003
233198
233295
233426
233532
233880
232974
233145
233034
232934
232691
232506
232829
232699
232357
232013
231481
230800
232349
232120
231751
231209
230508
229541
232722
232325
231945
231295
230529
229263
232732
232523
232241
231772
231079
230148
232755
232744
232631
232366
231852
231310
232720
232901
232999
233005
232851
232741
232633
232974
233273
233572
233810
234062
232545
232982
233436
233959
234468
235039
232420
232889
233417
234072
234784
235562
232281
232750
233251
233897
234662
235558
232088
232511
232921
233465
234093
234982
231870
232216
232519
232906
233291
233958
231597
231848
231999
232167
232299
232630
231353
231543
231464
231381
231204
231101
231218
231078
230799
230449
229979
229386
230627
230428
230086
229638
229044
228236
230873
230589
230264
229746
229034
228162
230801
230668
230418
229994
229313
228551
230657
230708
230584
230338
229902
229439
230405
230587
230677
230702
230612
230496
230080
230377
230677
230982
231245
231511
229672
230020
230456
230979
231555
232172
229186
229528
229991
230611
231409
232342
228652
228899
229289
229844
230621
231664
228050
228156
228376
228726
229228
230072
227459
227357
227278
227288
227388
227763
226837
226554
226094
225640
225251
224951
226297
225707
224985
224108
223164
222069
225567
224696
223779
222596
221357
219860
226320
226579
226872
227125
227275
227556
225890
225824
225526
225111
224523
223928
225458
225025
224253
223275
222017
220511
224655
223696
222544
221168
219670
217854
225052
224218
223346
222153
221038
219578
226331
225460
224583
223386
222008
220585
226883
226256
225625
224713
223709
222591
227507
227156
226834
226295
225695
225004
228026
228017
228060
227959
227877
227743
228399
228707
229091
229451
229811
230152
228681
229174
229804
230507
231266
232055
228899
229539
230319
231216
232188
233200
228980
229574
230340
231269
232262
233397
228909
229347
229962
230695
231455
232465
228757
229054
229382
229700
230025
230505
228491
228577
228515
228340
228131
227873
228208
227997
227487
226824
225962
224848
227672
227039
226188
225104
223877
222269
218003
212512
209652
211419
219290
218906
214394
212043
213470
219741
221377
218184
216900
219161
226299
224313
222631
222516
224950
230562
227638
227233
228113
230728
234443
230735
231452
233497
236160
239328
233438
235084
237808
241107
245179
235478
237777
240912
244444
248241
252846
236730
239459
242723
245979
248883
251514
237058
239798
242899
245734
249125
250860
236304
238454
241155
243673
247246
250384
254783
234308
235371
237627
240470
244601
250011
258185
262195
231813
231043
230904
233781
239330
249426
265762
297705
229070
226360
223564
223813
228640
239819
258099
273143
227550
223738
219944
218401
221021
228974
239789
247257
227263
223115
219490
217868
219912
228287
237604
245492
228063
224903
222135
221334
225036
234976
250114
257832
230073
228115
226215
225747
228675
235553
247464
269554
232329
231474
230751
230752
232649
236761
241990
244622
234324
234496
234849
235732
237380
241130
243922
246159
235869
236879
238072
239658
242491
247738
252524
252361
236795
238434
240329
242703
245713
249895
254984
267562
237076
239211
241599
244305
246850
249467
236586
238946
241558
244126
246864
249414
235141
237285
240066
242608
245893
248870
233117
234359
236720
239600
244271
249940
230751
230318
231052
234467
239983
249756
228220
225952
224471
225558
231363
226793
223603
221190
221091
225584
226271
223000
220617
220753
224505
226875
224315
222475
223192
228758
228392
226696
225609
226592
230828
230187
229556
229486
230743
233404
231878
232256
233237
234915
237048
233142
234469
236186
238494
242010
233859
235847
238122
240807
244318
233430
235759
238205
240814
243914
231613
233993
236618
239355
242919
228531
230212
233009
236549
241182
224783
225147
228329
232765
240551
220316
217939
219139
224992
236528
217408
213671
212687
216867
228554
216523
212362
211227
215239
223919
217809
214256
213319
217076
224343
220672
218102
217926
222282
230108
223942
222673
223216
226914
232774
227485
227367
228659
231504
235412
230669
231487
233427
235878
239087
233194
234822
237178
240131
244554
234732
236869
239284
242064
246342
235075
237312
239525
242042
245586
233791
235694
237822
240470
244636
230899
232088
234183
237439
242699
227172
226598
228770
232999
240824
222557
219001
219047
224283
235654
219349
214259
211691
214096
225215
231548
231904
232191
232536
232903
233256
233639
234032
234335
234643
234826
234984
234976
234852
231761
231919
232132
232396
232716
233064
233448
233819
234111
234405
234571
234754
234838
234838
231965
231899
232060
232246
232539
232850
233195
233565
233878
234218
234424
234640
234716
234778
232011
231813
231916
232015
232290
232580
232919
233273
233577
233909
234138
234389
234547
234673
231970
231762
231777
231809
232053
232297
232629
232983
233308
233656
233917
234189
234387
234559
231859
231660
231602
231602
231799
232020
232344
232686
233015
233370
233661
233963
234203
234430
231746
231548
231451
231443
231598
231799
232106
232438
232772
233132
233438
233764
234028
234304
231624
231440
231325
231308
231432
231619
231908
232228
232563
232925
233234
233583
233852
234166
231449
231276
231198
231191
231307
231486
231756
232066
232397
232760
233067
233434
233694
234041
231301
231142
231110
231127
231256
231433
231692
231991
232313
232666
232964
233328
233566
233939
231004
230927
230969
231026
231181
231369
231642
231948
232272
232609
232893
233233
233437
233808
230696
230721
230846
230961
231190
231407
231692
231997
232313
232628
232893
233178
233364
233701
230365
230494
230685
230851
231112
231404
231727
232061
232385
232681
232925
233145
233309
233472
229798
230143
230561
230908
231223
231547
231857
232188
232493
232748
232952
233110
233203
233279
235070
235134
235267
235417
235607
235806
236059
236298
236526
236784
236927
237123
237116
237167
235119
235052
235104
235191
235365
235557
235816
236066
236298
236554
236699
236878
236934
237027
235157
234976
235001
235023
235173
235332
235574
235822
236069
236346
236534
236740
236810
236901
235082
234862
234828
234803
234925
235072
235307
235556
235805
236077
236280
236493
236619
236746
235015
234783
234691
234630
234714
234841
235063
235310
235571
235853
236079
236305
236462
236603
234913
234671
234528
234448
234498
234621
234831
235073
235337
235619
235861
236099
236286
236455
234803
234566
234409
234326
234350
234467
234662
234897
235161
235445
235695
235945
236149
236349
234689
234452
234300
234220
234240
234353
234541
234770
235032
235315
235563
235825
236028
236251
234526
234312
234197
234133
234168
234276
234461
234686
234945
235230
235475
235744
235939
236181
234399
234196
234126
234090
234157
234265
234448
234667
234919
235198
235437
235712
235896
236156
234179
234027
234028
234032
234130
234257
234460
234688
234939
235209
235428
235687
235842
236099
233977
233898
233981
234036
234172
234330
234548
234781
235021
235271
235471
235700
235830
236078
233778
233785
233897
234003
234193
234398
234645
234895
235133
235356
235522
235699
235792
235941
233492
233666
233918
234109
234334
234557
234807
235044
235262
235451
235586
235704
235767
235868
237691
237557
237517
237483
237504
237533
237640
237742
237890
238068
238228
238428
238548
238677
237545
237365
237304
237244
237257
237291
237399
237512
237671
237854
238020
238201
238326
238447
237447
237228
237147
237060
237056
237078
237178
237295
237460
237652
237835
238026
238176
238284
237250
237041
236927
236833
236821
236845
236948
237071
237238
237430
237612
237795
237953
238070
237112
236900
236754
236653
236627
236648
236748
236872
237043
237236
237423
237609
237776
237899
236918
236705
236550
236451
236423
236449
236550
236678
236849
237039
237224
237407
237575
237708
236763
236549
236394
236295
236265
236294
236394
236524
236695
236884
237067
237250
237415
237566
236604
236391
236249
236154
236131
236167
236270
236403
236572
236758
236934
237118
237276
237443
236426
236227
236111
236027
236020
236069
236179
236318
236490
236676
236846
237030
237179
237356
236296
236106
236019
235954
235972
236028
236145
236285
236451
236632
236792
236975
237117
237304
236144
235978
235925
235878
235920
235990
236119
236268
236438
236620
236773
236952
237078
237266
236020
235900
235893
235878
235943
236018
236150
236296
236457
236630
236772
236948
237066
237260
235917
235842
235849
235858
235943
236038
236180
236334
236494
236661
236793
236958
237058
237238
235833
235827
235907
235936
236028
236129
236265
236408
236555
236707
236826
236973
237064
237235
239424
239292
239182
239085
239011
238950
238936
238938
238987
239059
239150
239270
239387
239497
239226
239094
238998
238896
238825
238769
238756
238756
238803
238872
238961
239069
239170
239256
239087
238949
238843
238736
238663
238606
238592
238590
238631
238697
238783
238885
238991
239064
238865
238745
238637
238539
238471
238424
238416
238419
238457
238516
238592
238680
238773
238840
238683
238567
238456
238366
238302
238260
238253
238259
238293
238345
238412
238493
238581
238646
238455
238346
238248
238169
238114
238081
238078
238088
238121
238167
238223
238292
238371
238435
238251
238146
238058
237986
237937
237910
237910
237924
237958
238000
238050
238115
238187
238261
238055
237949
237873
237803
237761
237741
237745
237762
237797
237838
237884
237945
238012
238097
237849
237745
237680
237614
237581
237568
237581
237607
237647
237693
237742
237808
237874
237974
237677
237571
237515
237451
237427
237417
237436
237468
237512
237563
237615
237688
237757
237871
237506
237396
237346
237285
237271
237268
237295
237336
237391
237457
237520
237607
237685
237815
237368
237265
237227
237171
237164
237162
237191
237235
237295
237369
237440
237540
237629
237777
237254
237152
237115
237065
237061
237065
237100
237152
237221
237311
237397
237514
237610
237770
237185
237093
237077
237024
237021
237023
237057
237110
237180
237273
237359
237489
237594
237770
240075
240019
239965
239909
239860
239808
239774
239744
239742
239748
239771
239808
239859
239883
239928
239877
239829
239777
239730
239680
239641
239606
239593
239586
239595
239617
239649
239662
239794
239759
239714
239669
239618
239565
239516
239473
239445
239424
239418
239425
239450
239445
239626
239606
239567
239528
239479
239428
239377
239330
239292
239259
239239
239230
239236
239229
239464
239456
239425
239391
239342
239293
239238
239185
239136
239092
239059
239039
239037
239025
239283
239279
239257
239229
239185
239138
239082
239026
238971
238919
238877
238847
238833
238821
239095
239088
239074
239050
239011
238966
238911
238855
238798
238744
238697
238664
238643
238636
238902
238888
238879
238857
238822
238778
238726
238672
238616
238562
238513
238479
238457
238456
238689
238668
238663
238640
238610
238569
238527
238481
238432
238386
238343
238318
238299
238313
238488
238458
238454
238427
238398
238361
238326
238287
238247
238211
238178
238164
238156
238186
238286
238245
238238
238204
238178
238147
238122
238097
238073
238055
238042
238047
238060
238112
238104
238053
238042
238005
237979
237953
237935
237922
237914
237916
237918
237945
237977
238052
237940
237880
237852
237811
237787
237770
237763
237766
237779
237806
237835
237891
237942
238036
237801
237732
237702
237660
237638
237626
237628
237644
237672
237717
237763
237836
237905
238023
239965
239957
239943
239929
239920
239912
239912
239912
239923
239934
239957
239983
240021
240035
239833
239834
239825
239820
239815
239813
239812
239813
239820
239826
239840
239857
239880
239884
239723
239735
239729
239730
239725
239722
239715
239711
239709
239706
239710
239715
239730
239724
239596
239616
239616
239624
239620
239618
239609
239600
239590
239579
239571
239567
239570
239560
239472
239496
239502
239514
239511
239508
239496
239481
239463
239443
239424
239408
239398
239383
239336
239363
239377
239390
239388
239384
239368
239349
239324
239296
239266
239239
239217
239199
239188
239217
239235
239250
239248
239243
239226
239203
239172
239137
239099
239065
239035
239015
239034
239059
239082
239095
239095
239088
239070
239042
239006
238965
238920
238883
238851
238832
238862
238880
238908
238919
238922
238915
238897
238869
238833
238793
238751
238717
238685
238672
238685
238693
238724
238733
238738
238731
238715
238689
238656
238621
238584
238559
238532
238525
238497
238494
238524
238531
238538
238536
238528
238512
238489
238466
238440
238427
238410
238412
238312
238302
238333
238340
238352
238355
238353
238346
238333
238322
238308
238307
238301
238315
238138
238122
238143
238151
238167
238181
238189
238196
238197
238202
238206
238220
238232
238258
237970
237964
237983
237996
238014
238033
238049
238067
238079
238098
238116
238145
238173
238223
239661
239682
239702
239724
239743
239761
239779
239797
239816
239832
239853
239872
239898
239911
239551
239580
239601
239628
239649
239670
239690
239710
239730
239747
239768
239788
239814
239828
239462
239497
239519
239547
239566
239587
239604
239623
239641
239657
239676
239696
239722
239735
239367
239403
239426
239454
239473
239495
239512
239531
239547
239562
239580
239599
239624
239640
239270
239306
239329
239358
239378
239400
239417
239435
239451
239467
239485
239503
239524
239539
239163
239198
239224
239254
239276
239299
239317
239335
239351
239367
239382
239398
239415
239431
239045
239081
239111
239143
239168
239193
239213
239233
239251
239267
239280
239294
239306
239321
238922
238959
238995
239028
239057
239084
239106
239128
239145
239161
239171
239183
239190
239202
238790
238826
238868
238904
238938
238970
238997
239021
239040
239055
239063
239071
239071
239077
238657
238692
238741
238782
238822
238857
238886
238912
238930
238944
238948
238952
238944
238945
238518
238551
238604
238650
238696
238737
238772
238800
238819
238830
238828
238828
238817
238813
238383
238415
238472
238522
238572
238618
238655
238684
238701
238711
238708
238706
238691
238683
238245
238277
238335
238389
238443
238493
238533
238564
238582
238594
238595
238595
238582
238576
238119
238155
238211
238266
238319
238369
238410
238444
238466
238481
238488
238492
238485
238479
239192
239218
239247
239283
239321
239361
239401
239438
239471
239502
239530
239559
239586
239617
239105
239138
239171
239213
239256
239302
239345
239387
239426
239462
239496
239531
239566
239600
239034
239072
239107
239153
239197
239246
239292
239338
239382
239423
239462
239500
239539
239575
238964
239004
239043
239091
239139
239189
239238
239287
239333
239377
239420
239461
239502
239538
238895
238937
238979
239029
239079
239132
239184
239237
239286
239333
239376
239417
239457
239492
238827
238871
238916
238968
239021
239076
239131
239184
239233
239280
239323
239363
239403
239439
238754
238800
238848
238902
238958
239016
239072
239126
239176
239222
239265
239306
239345
239382
238680
238728
238780
238836
238894
238953
239010
239064
239114
239161
239205
239247
239283
239318
238600
238651
238707
238765
238826
238886
238945
239000
239052
239100
239143
239182
239212
239244
238522
238577
238637
238698
238760
238822
238882
238939
238991
239038
239076
239111
239133
239158
238442
238500
238564
238628
238693
238758
238819
238875
238924
238967
238999
239027
239043
239064
238363
238426
238493
238560
238627
238692
238752
238806
238852
238891
238918
238942
238953
238969
238288
238352
238420
238489
238557
238621
238679
238731
238774
238809
238834
238854
238861
238872
238224
238286
238354
238423
238489
238550
238605
238654
238694
238727
238749
238764
238766
238766
238715
238759
238798
238838
238878
238920
238963
239004
239043
239080
239117
239153
239187
239228
238663
238708
238750
238796
238842
238889
238936
238981
239025
239067
239110
239153
239193
239240
238618
238665
238710
238759
238809
238859
238909
238959
239008
239055
239102
239149
239194
239243
238578
238627
238676
238728
238780
238833
238885
238937
238988
239039
239089
239139
239188
239241
238541
238592
238643
238696
238750
238805
238861
238916
238970
239024
239076
239128
239180
239233
238507
238560
238614
238669
238725
238782
238840
238897
238953
239008
239063
239117
239171
239224
238473
238528
238584
238643
238702
238761
238821
238880
238938
238995
239050
239104
239156
239207
238441
238499
238558
238619
238681
238743
238804
238865
238923
238980
239034
239085
239135
239184
238408
238468
238531
238594
238658
238722
238785
238847
238905
238959
239010
239059
239104
239150
238375
238439
238505
238570
238636
238701
238765
238825
238882
238934
238982
239027
239067
239111
238342
238409
238477
238544
238611
238676
238740
238799
238853
238902
238946
238987
239023
239064
238312
238382
238451
238519
238585
238650
238712
238770
238822
238868
238908
238946
238976
239012
238285
238357
238425
238493
238559
238622
238682
238737
238786
238829
238865
238897
238921
238947
238266
238339
238405
238472
238534
238594
238651
238702
238747
238785
238817
238841
238856
238868
238155
238206
238253
238301
238347
238394
238440
238486
238531
238575
238616
238656
238693
238736
238145
238198
238247
238297
238347
238397
238447
238496
238545
238594
238641
238686
238729
238780
238138
238192
238244
238296
238349
238403
238456
238509
238562
238614
238665
238714
238762
238814
238131
238187
238242
238298
238354
238411
238468
238524
238580
238635
238689
238742
238794
238849
238129
238186
238244
238303
238362
238421
238481
238540
238598
238656
238712
238767
238822
238879
238129
238189
238250
238311
238372
238434
238496
238557
238617
238676
238734
238792
238849
238907
238132
238195
238258
238321
238385
238448
238512
238574
238635
238695
238754
238812
238870
238928
238139
238204
238269
238335
238400
238464
238528
238591
238652
238712
238771
238829
238886
238943
238147
238215
238282
238348
238414
238479
238543
238605
238666
238725
238782
238837
238893
238948
238158
238227
238295
238362
238428
238493
238556
238618
238677
238733
238787
238841
238894
238947
238167
238238
238307
238374
238440
238504
238566
238624
238680
238732
238785
238836
238887
238937
238177
238248
238317
238384
238449
238511
238571
238627
238680
238730
238778
238824
238869
238915
238184
238256
238324
238391
238454
238514
238571
238623
238672
238717
238758
238797
238834
238878
238195
238270
238335
238398
238457
238513
238566
238614
238657
238695
238730
238762
238793
238832
237494
237549
237603
237656
237708
237759
237808
237857
237905
237951
237995
238036
238075
238114
237519
237571
237628
237682
237736
237789
237841
237892
237942
237991
238038
238083
238124
238170
237547
237602
237660
237715
237770
237823
237876
237928
237980
238030
238079
238126
238171
238220
237573
237629
237689
237746
237802
237857
237913
237967
238020
238072
238123
238173
238222
238273
237602
237661
237722
237780
237838
237894
237950
238005
238060
238113
238166
238218
238270
238323
237633
237694
237756
237816
237875
237933
237990
238045
238101
238156
238211
238265
238319
238374
237667
237731
237794
237855
237915
237973
238030
238086
238142
238197
238253
238309
238365
238421
237705
237771
237835
237896
237956
238014
238072
238127
238183
238238
238294
238351
238409
238467
237746
237813
237877
237939
237999
238057
238113
238168
238222
238276
238332
238389
238447
238505
237791
237859
237923
237984
238043
238099
238154
238207
238259
238312
238366
238422
238480
238538
237836
237904
237967
238028
238085
238140
238192
238243
238292
238343
238395
238449
238507
238565
237884
237952
238013
238072
238127
238179
238228
238275
238322
238369
238419
238470
238526
238583
237928
237995
238055
238112
238165
238213
238259
238303
238347
238390
238437
238485
238538
238597
237977
238044
238100
238153
238201
238245
238287
238327
238366
238406
238448
238493
238542
238598
236697
236748
236804
236856
236909
236960
237010
237059
237106
237153
237196
237238
237277
237315
236748
236796
236853
236906
236960
237011
237063
237112
237160
237207
237252
237295
237334
237376
236804
236854
236912
236964
237016
237067
237117
237165
237212
237259
237303
237347
237387
237430
236857
236908
236965
237018
237070
237121
237171
237220
237268
237314
237360
237405
237447
237492
236911
236965
237022
237075
237127
237177
237227
237275
237322
237369
237415
237461
237505
237551
236966
237022
237079
237132
237184
237234
237283
237331
237379
237426
237474
237521
237567
237614
237023
237081
237138
237191
237242
237292
237340
237388
237435
237483
237531
237579
237628
237675
237084
237143
237198
237251
237302
237351
237398
237445
237493
237541
237590
237640
237691
237740
237146
237205
237260
237312
237362
237410
237457
237503
237550
237598
237647
237698
237751
237802
237213
237271
237324
237376
237424
237470
237515
237561
237606
237654
237703
237755
237811
237863
237278
237336
237388
237437
237484
237529
237573
237617
237661
237708
237758
237810
237866
237919
237347
237404
237454
237501
237546
237588
237629
237671
237714
237758
237807
237859
237916
237972
237412
237467
237515
237561
237603
237643
237682
237722
237763
237807
237855
237907
237964
238022
237487
237537
237581
237623
237661
237697
237733
237769
237807
237848
237894
237945
238002
238071
235806
235847
235895
235941
235987
236032
236077
236120
236163
236204
236243
236282
236317
236354
235870
235908
235957
236002
236049
236094
236139
236182
236224
236265
236304
236343
236377
236415
235938
235977
236026
236070
236115
236159
236201
236243
236283
236323
236361
236399
236433
236470
236004
236044
236091
236135
236179
236222
236264
236306
236346
236385
236423
236460
236494
236532
236071
236112
236159
236202
236246
236287
236328
236368
236407
236445
236483
236521
236555
236592
236139
236182
236227
236270
236312
236353
236393
236432
236471
236509
236547
236585
236621
236657
236208
236252
236296
236338
236379
236418
236457
236496
236534
236572
236611
236648
236686
236720
236280
236324
236366
236407
236446
236485
236523
236561
236599
236638
236677
236715
236755
236789
236351
236395
236435
236475
236514
236552
236589
236626
236664
236703
236743
236782
236823
236858
236425
236467
236506
236545
236582
236619
236655
236692
236730
236769
236809
236850
236893
236930
236496
236538
236575
236612
236648
236684
236720
236757
236795
236834
236876
236918
236963
237000
236570
236611
236646
236681
236716
236750
236785
236821
236859
236899
236940
236984
237032
237072
236639
236679
236711
236746
236779
236813
236848
236884
236923
236964
237007
237053
237102
237145
236718
236751
236783
236814
236846
236877
236911
236945
236983
237023
237066
237113
237162
237217
234918
234943
234977
235008
235041
235073
235104
235136
235166
235197
235226
235255
235283
235311
234979
235002
235036
235067
235100
235132
235164
235195
235225
235256
235285
235314
235340
235370
235043
235067
235100
235130
235163
235194
235224
235254
235283
235313
235341
235369
235393
235422
235108
235132
235164
235194
235225
235256
235285
235315
235344
235373
235400
235428
235452
235479
235173
235198
235229
235258
235289
235318
235347
235376
235405
235432
235459
235486
235509
235535
235240
235266
235295
235324
235353
235382
235410
235438
235467
235494
235521
235547
235571
235595
235306
235334
235361
235390
235417
235445
235473
235501
235529
235556
235583
235607
235632
235653
235375
235402
235428
235455
235481
235509
235536
235564
235592
235619
235646
235670
235695
235715
235442
235468
235493
235519
235544
235572
235599
235627
235654
235681
235708
235733
235759
235777
235509
235535
235557
235583
235608
235634
235661
235689
235717
235745
235772
235798
235825
235843
235574
235599
235619
235644
235669
235696
235723
235752
235780
235809
235837
235863
235892
235909
235639
235665
235683
235707
235731
235758
235786
235814
235843
235873
235902
235930
235961
235979
235701
235723
235742
235766
235791
235818
235847
235877
235907
235939
235969
236000
236030
236052
235770
235786
235806
235828
235854
235880
235909
235939
235970
236002
236034
236067
236099
236129
234104
234112
234128
234143
234159
234176
234192
234209
234226
234242
234258
234274
234291
234307
234154
234161
234177
234191
234207
234223
234240
234257
234274
234290
234306
234323
234338
234356
234203
234211
234227
234241
234257
234273
234289
234306
234322
234338
234354
234369
234383
234400
234255
234265
234280
234293
234308
234324
234340
234357
234373
234389
234404
234419
234432
234448
234308
234319
234332
234345
234360
234376
234392
234408
234424
234439
234454
234468
234481
234496
234363
234373
234385
234399
234413
234429
234444
234460
234476
234491
234505
234519
234531
234544
234416
234427
234438
234452
234466
234481
234496
234512
234528
234542
234556
234569
234580
234591
234470
234481
234491
234504
234518
234533
234548
234564
234579
234594
234608
234619
234631
234639
234522
234533
234542
234556
234569
234584
234600
234615
234631
234645
234659
234670
234681
234688
234574
234585
234593
234607
234620
234635
234651
234667
234683
234697
234711
234722
234733
234738
234623
234635
234643
234656
234670
234686
234702
234719
234735
234750
234764
234775
234786
234788
234673
234685
234693
234706
234721
234737
234754
234771
234787
234803
234818
234830
234843
234843
234720
234731
234741
234754
234770
234787
234805
234823
234841
234858
234873
234886
234897
234899
234772
234781
234791
234804
234820
234838
234857
234876
234894
234913
234928
234944
234956
234965
233366
233362
233363
233365
233368
233371
233374
233378
233382
233387
233391
233395
233401
233409
233401
233396
233397
233399
233401
233404
233407
233411
233416
233420
233424
233429
233434
233443
233435
233430
233432
233433
233435
233438
233442
233446
233450
233454
233458
233462
233466
233475
233471
233467
233468
233469
233471
233474
233478
233482
233486
233490
233494
233497
233501
233509
233506
233503
233504
233505
233507
233510
233514
233518
233523
233526
233530
233533
233536
233541
233542
233540
233540
233541
233544
233547
233551
233555
233559
233563
233566
233568
233571
233575
233577
233576
233576
233577
233580
233583
233587
233591
233595
233599
233602
233604
233606
233608
233612
233612
233611
233613
233616
233619
233623
233628
233632
233635
233637
233639
233640
233641
233646
233647
233646
233648
233651
233655
233660
233664
233668
233671
233673
233674
233675
233675
233680
233682
233681
233684
233687
233691
233696
233700
233705
233707
233709
233709
233710
233709
233713
233716
233716
233719
233723
233728
233733
233737
233742
233744
233746
233745
233746
233743
233747
233750
233751
233755
233759
233765
233770
233775
233779
233782
233783
233783
233784
233780
233780
233783
233786
233790
233795
233801
233807
233813
233817
233820
233821
233821
233821
233816
233817
233818
233820
233825
233831
233837
233844
233850
233855
233859
233860
233861
233861
233860
232628
232622
232617
232613
232609
232605
232602
232599
232597
232598
232680
232668
232661
232653
232647
232641
232636
232632
232627
232624
232620
232617
232615
232616
232699
232687
232680
232672
232666
232661
232656
232651
232647
232643
232639
232637
232634
232635
232718
232707
232700
232692
232686
232681
232676
232672
232668
232664
232660
232656
232654
232654
232737
232727
232719
232712
232707
232702
232697
232693
232688
232684
232680
232677
232674
232673
232756
232746
232739
232732
232727
232722
232718
232713
232709
232705
232701
232697
232693