/*--------------------------------*- C++ -*----------------------------------*\
| =========                 |                                                 |
| \\      /  F ield         | OpenFOAM: The Open Source CFD Toolbox           |
|  \\    /   O peration     | Version:  v2106                                 |
|   \\  /    A nd           | Website:  www.openfoam.com                      |
|    \\/     M anipulation  |                                                 |
\*---------------------------------------------------------------------------*/
FoamFile
{
    version     2.0;
    format      ascii;
    arch        "LSB;label=32;scalar=64";
    class       volScalarField;
    location    "0.000148";
    object      rho;
}
// * * * * * * * * * * * * * * * * * * * * * * * * * * * * * * * * * * * * * //

dimensions      [1 -3 0 0 0 0 0];

internalField   nonuniform List<scalar> 
17924
(
2.66021
2.66025
2.66034
2.66043
2.65418
2.65417
2.65418
2.65418
2.65419
2.65419
2.65419
2.6544
2.65437
2.65438
2.65438
2.65438
2.65438
2.65439
2.6546
2.65458
2.65458
2.65458
2.65458
2.65458
2.65458
2.65482
2.65479
2.6548
2.65479
2.65479
2.65479
2.65479
2.65503
2.65501
2.65501
2.655
2.655
2.655
2.65499
2.65525
2.65524
2.65523
2.65522
2.65521
2.65521
2.65521
2.65546
2.65545
2.65544
2.65543
2.65543
2.65542
2.65542
2.65567
2.65566
2.65565
2.65564
2.65564
2.65563
2.65563
2.65587
2.65587
2.65586
2.65585
2.65584
2.65584
2.65583
2.65606
2.65606
2.65605
2.65604
2.65604
2.65603
2.65603
2.65624
2.65624
2.65623
2.65623
2.65623
2.65623
2.65623
2.65641
2.65642
2.65641
2.6564
2.65641
2.65641
2.65642
2.65658
2.65658
2.65658
2.65658
2.65659
2.6566
2.65661
2.65676
2.65675
2.65674
2.65675
2.65677
2.65678
2.6568
2.64828
2.64821
2.64816
2.64811
2.64806
2.64801
2.64797
2.64793
2.64789
2.64785
2.6478
2.64776
2.64771
2.64768
2.64839
2.64832
2.64827
2.64821
2.64816
2.64811
2.64807
2.64803
2.64798
2.64794
2.64789
2.64785
2.6478
2.64777
2.6485
2.64843
2.64837
2.64832
2.64827
2.64822
2.64817
2.64813
2.64809
2.64804
2.648
2.64795
2.6479
2.64787
2.6486
2.64854
2.64848
2.64843
2.64838
2.64833
2.64828
2.64824
2.6482
2.64815
2.6481
2.64806
2.64801
2.64797
2.6487
2.64864
2.64859
2.64854
2.64849
2.64844
2.64839
2.64835
2.64831
2.64826
2.64822
2.64817
2.64812
2.64808
2.6488
2.64875
2.6487
2.64864
2.6486
2.64855
2.64851
2.64846
2.64842
2.64837
2.64833
2.64828
2.64823
2.64818
2.6489
2.64885
2.6488
2.64875
2.6487
2.64866
2.64862
2.64857
2.64853
2.64848
2.64844
2.64838
2.64833
2.64828
2.64899
2.64895
2.6489
2.64885
2.64881
2.64877
2.64872
2.64868
2.64864
2.64859
2.64854
2.64849
2.64844
2.64838
2.64908
2.64904
2.64899
2.64895
2.64891
2.64887
2.64883
2.64878
2.64874
2.64869
2.64864
2.64859
2.64854
2.64848
2.64917
2.64913
2.64909
2.64904
2.649
2.64897
2.64893
2.64888
2.64884
2.64879
2.64874
2.64868
2.64863
2.64857
2.64925
2.64921
2.64917
2.64914
2.6491
2.64906
2.64902
2.64898
2.64894
2.64889
2.64883
2.64877
2.64872
2.64866
2.64933
2.6493
2.64926
2.64923
2.64919
2.64916
2.64912
2.64908
2.64903
2.64898
2.64893
2.64886
2.64881
2.64874
2.64942
2.64938
2.64935
2.64932
2.64929
2.64925
2.64922
2.64917
2.64913
2.64907
2.64902
2.64895
2.64889
2.64882
2.6495
2.64946
2.64943
2.6494
2.64938
2.64934
2.64931
2.64927
2.64923
2.64917
2.64912
2.64905
2.64899
2.64892
2.64218
2.64208
2.642
2.64192
2.64185
2.64179
2.64173
2.64167
2.64162
2.64156
2.64151
2.64146
2.64141
2.64136
2.6422
2.64211
2.64203
2.64195
2.64188
2.64182
2.64176
2.6417
2.64164
2.64159
2.64153
2.64148
2.64143
2.64138
2.64223
2.64214
2.64206
2.64198
2.64191
2.64185
2.64179
2.64173
2.64167
2.64162
2.64156
2.64151
2.64145
2.64141
2.64225
2.64216
2.64209
2.64201
2.64195
2.64188
2.64182
2.64177
2.64171
2.64165
2.64159
2.64154
2.64148
2.64144
2.64227
2.64219
2.64211
2.64204
2.64198
2.64192
2.64186
2.6418
2.64174
2.64168
2.64163
2.64157
2.64152
2.64147
2.64228
2.64221
2.64214
2.64207
2.64201
2.64195
2.64189
2.64183
2.64178
2.64172
2.64166
2.6416
2.64155
2.6415
2.6423
2.64223
2.64216
2.6421
2.64204
2.64198
2.64192
2.64187
2.64181
2.64175
2.64169
2.64164
2.64159
2.64154
2.64232
2.64225
2.64219
2.64213
2.64207
2.64201
2.64196
2.6419
2.64184
2.64178
2.64173
2.64167
2.64162
2.64157
2.64234
2.64228
2.64222
2.64216
2.6421
2.64204
2.64199
2.64193
2.64187
2.64181
2.64176
2.6417
2.64165
2.6416
2.64237
2.6423
2.64224
2.64219
2.64213
2.64207
2.64202
2.64196
2.6419
2.64185
2.64179
2.64173
2.64168
2.64163
2.64239
2.64233
2.64228
2.64222
2.64216
2.64211
2.64205
2.64199
2.64194
2.64188
2.64182
2.64176
2.64171
2.64166
2.64242
2.64237
2.64231
2.64226
2.6422
2.64215
2.64209
2.64203
2.64197
2.64191
2.64185
2.64179
2.64174
2.64169
2.64246
2.6424
2.64235
2.6423
2.64224
2.64219
2.64213
2.64207
2.64201
2.64194
2.64188
2.64182
2.64177
2.64172
2.6425
2.64244
2.64239
2.64234
2.64228
2.64223
2.64217
2.64211
2.64204
2.64198
2.64192
2.64186
2.6418
2.64174
2.63588
2.63578
2.63569
2.63562
2.63555
2.63549
2.63543
2.63538
2.63533
2.63529
2.63525
2.63521
2.63518
2.63515
2.63584
2.63575
2.63567
2.63559
2.63553
2.63546
2.63541
2.63535
2.6353
2.63526
2.63522
2.63518
2.63515
2.63512
2.63581
2.63572
2.63564
2.63557
2.6355
2.63544
2.63538
2.63533
2.63528
2.63523
2.63519
2.63516
2.63513
2.6351
2.63578
2.63569
2.63561
2.63554
2.63548
2.63541
2.63536
2.6353
2.63525
2.63521
2.63517
2.63513
2.63511
2.63508
2.63575
2.63567
2.63559
2.63552
2.63545
2.63539
2.63534
2.63528
2.63524
2.63519
2.63515
2.63512
2.63509
2.63507
2.63573
2.63565
2.63557
2.6355
2.63544
2.63538
2.63532
2.63527
2.63522
2.63518
2.63514
2.6351
2.63508
2.63506
2.63571
2.63563
2.63556
2.63549
2.63542
2.63536
2.63531
2.63526
2.63521
2.63517
2.63513
2.6351
2.63507
2.63505
2.6357
2.63562
2.63555
2.63548
2.63541
2.63535
2.6353
2.63525
2.6352
2.63516
2.63512
2.63509
2.63507
2.63505
2.63569
2.63562
2.63554
2.63548
2.63541
2.63535
2.6353
2.63525
2.6352
2.63516
2.63512
2.63509
2.63507
2.63505
2.63569
2.63562
2.63555
2.63548
2.63542
2.63536
2.6353
2.63525
2.6352
2.63516
2.63512
2.63509
2.63507
2.63505
2.6357
2.63563
2.63556
2.63549
2.63543
2.63537
2.63531
2.63526
2.63521
2.63517
2.63513
2.6351
2.63508
2.63506
2.63571
2.63564
2.63557
2.63551
2.63544
2.63538
2.63533
2.63527
2.63522
2.63518
2.63514
2.63511
2.63509
2.63507
2.63573
2.63566
2.63559
2.63553
2.63547
2.63541
2.63535
2.63529
2.63524
2.6352
2.63516
2.63512
2.6351
2.63508
2.63576
2.63568
2.63561
2.63555
2.63549
2.63543
2.63537
2.63531
2.63526
2.63522
2.63517
2.63514
2.63511
2.63509
2.62965
2.62957
2.6295
2.62943
2.62938
2.62933
2.62928
2.62925
2.62922
2.62919
2.62918
2.62917
2.62916
2.62916
2.62959
2.62952
2.62945
2.62939
2.62933
2.62927
2.62923
2.62919
2.62916
2.62914
2.62912
2.62911
2.62911
2.6291
2.62954
2.62947
2.6294
2.62933
2.62927
2.62922
2.62917
2.62914
2.62911
2.62908
2.62907
2.62906
2.62906
2.62906
2.6295
2.62942
2.62935
2.62928
2.62922
2.62917
2.62912
2.62909
2.62906
2.62904
2.62902
2.62902
2.62902
2.62902
2.62946
2.62938
2.62931
2.62924
2.62918
2.62912
2.62908
2.62904
2.62901
2.62899
2.62898
2.62898
2.62898
2.62899
2.62942
2.62935
2.62927
2.6292
2.62914
2.62909
2.62904
2.62901
2.62898
2.62896
2.62895
2.62895
2.62896
2.62896
2.6294
2.62932
2.62925
2.62918
2.62911
2.62906
2.62901
2.62898
2.62895
2.62893
2.62893
2.62893
2.62893
2.62894
2.62938
2.6293
2.62923
2.62916
2.6291
2.62904
2.629
2.62896
2.62893
2.62892
2.62891
2.62891
2.62892
2.62893
2.62937
2.62929
2.62922
2.62915
2.62909
2.62903
2.62899
2.62895
2.62893
2.62891
2.6289
2.62891
2.62891
2.62892
2.62936
2.62929
2.62922
2.62915
2.62909
2.62904
2.62899
2.62896
2.62893
2.62891
2.62891
2.62891
2.62892
2.62892
2.62937
2.6293
2.62923
2.62916
2.6291
2.62905
2.62901
2.62897
2.62894
2.62893
2.62892
2.62892
2.62892
2.62893
2.62938
2.62932
2.62925
2.62918
2.62912
2.62907
2.62902
2.62899
2.62896
2.62894
2.62893
2.62893
2.62894
2.62894
2.62941
2.62934
2.62927
2.62921
2.62915
2.6291
2.62905
2.62901
2.62898
2.62896
2.62895
2.62895
2.62895
2.62896
2.62944
2.62936
2.62929
2.62923
2.62917
2.62912
2.62908
2.62904
2.62901
2.62899
2.62897
2.62897
2.62897
2.62897
2.62386
2.62381
2.62376
2.62371
2.62367
2.62363
2.6236
2.62358
2.62357
2.62356
2.62356
2.62357
2.62358
2.62358
2.62382
2.62376
2.62371
2.62366
2.62362
2.62358
2.62355
2.62353
2.62352
2.62351
2.62351
2.62352
2.62353
2.62353
2.62377
2.62372
2.62367
2.62362
2.62357
2.62353
2.6235
2.62348
2.62347
2.62346
2.62346
2.62347
2.62348
2.62349
2.62373
2.62368
2.62362
2.62357
2.62353
2.62349
2.62346
2.62343
2.62342
2.62342
2.62342
2.62343
2.62344
2.62345
2.6237
2.62364
2.62359
2.62354
2.62349
2.62345
2.62342
2.62339
2.62338
2.62338
2.62338
2.62339
2.62341
2.62342
2.62367
2.62362
2.62356
2.62351
2.62346
2.62342
2.62339
2.62336
2.62335
2.62335
2.62335
2.62337
2.62338
2.6234
2.62365
2.62359
2.62354
2.62348
2.62344
2.6234
2.62337
2.62334
2.62333
2.62333
2.62334
2.62335
2.62337
2.62338
2.62364
2.62358
2.62352
2.62347
2.62342
2.62338
2.62335
2.62333
2.62332
2.62332
2.62332
2.62334
2.62336
2.62338
2.62363
2.62358
2.62352
2.62347
2.62342
2.62338
2.62335
2.62333
2.62332
2.62332
2.62332
2.62334
2.62335
2.62337
2.62364
2.62358
2.62352
2.62347
2.62343
2.62339
2.62336
2.62334
2.62333
2.62332
2.62333
2.62334
2.62336
2.62338
2.62365
2.62359
2.62354
2.62349
2.62344
2.6234
2.62337
2.62335
2.62334
2.62334
2.62334
2.62336
2.62337
2.62339
2.62366
2.62361
2.62356
2.62351
2.62346
2.62342
2.62339
2.62337
2.62336
2.62336
2.62336
2.62337
2.62339
2.62341
2.62369
2.62364
2.62359
2.62354
2.62349
2.62345
2.62342
2.6234
2.62339
2.62338
2.62339
2.6234
2.62341
2.62343
2.62372
2.62366
2.62361
2.62356
2.62352
2.62348
2.62345
2.62343
2.62341
2.62341
2.62341
2.62342
2.62343
2.62345
2.61871
2.61868
2.61866
2.61863
2.61861
2.61859
2.61858
2.61856
2.61855
2.61855
2.61855
2.61855
2.61856
2.61856
2.61869
2.61866
2.61864
2.61861
2.61859
2.61857
2.61855
2.61854
2.61853
2.61853
2.61853
2.61853
2.61853
2.61854
2.61866
2.61864
2.61862
2.61859
2.61857
2.61855
2.61853
2.61852
2.61851
2.61851
2.6185
2.61851
2.61851
2.61852
2.61865
2.61862
2.6186
2.61857
2.61855
2.61853
2.61851
2.6185
2.61849
2.61849
2.61849
2.61849
2.61849
2.6185
2.61863
2.61861
2.61858
2.61856
2.61854
2.61852
2.6185
2.61849
2.61848
2.61847
2.61847
2.61847
2.61848
2.61848
2.61862
2.61859
2.61857
2.61855
2.61852
2.6185
2.61849
2.61848
2.61847
2.61846
2.61846
2.61846
2.61846
2.61847
2.61861
2.61859
2.61856
2.61854
2.61852
2.6185
2.61848
2.61847
2.61846
2.61845
2.61845
2.61845
2.61846
2.61846
2.61861
2.61858
2.61856
2.61853
2.61851
2.61849
2.61848
2.61846
2.61846
2.61845
2.61845
2.61845
2.61845
2.61846
2.61861
2.61858
2.61856
2.61853
2.61851
2.61849
2.61848
2.61846
2.61845
2.61845
2.61845
2.61845
2.61845
2.61846
2.61861
2.61859
2.61856
2.61854
2.61851
2.6185
2.61848
2.61847
2.61846
2.61845
2.61845
2.61845
2.61846
2.61846
2.61862
2.61859
2.61857
2.61854
2.61852
2.6185
2.61848
2.61847
2.61846
2.61846
2.61846
2.61846
2.61847
2.61847
2.61863
2.61861
2.61858
2.61855
2.61853
2.61851
2.61849
2.61848
2.61847
2.61847
2.61847
2.61847
2.61848
2.61848
2.61864
2.61862
2.61859
2.61857
2.61854
2.61852
2.6185
2.61849
2.61849
2.61848
2.61848
2.61849
2.61849
2.6185
2.61866
2.61863
2.6186
2.61858
2.61855
2.61853
2.61852
2.61851
2.6185
2.6185
2.6185
2.6185
2.61851
2.61851
2.61418
2.61418
2.61419
2.61419
2.61418
2.61418
2.61417
2.61416
2.61415
2.61414
2.61413
2.61412
2.6141
2.61409
2.61418
2.61419
2.61419
2.61419
2.61419
2.61419
2.61418
2.61417
2.61416
2.61415
2.61414
2.61412
2.61411
2.6141
2.61419
2.6142
2.6142
2.6142
2.6142
2.6142
2.61419
2.61419
2.61418
2.61416
2.61415
2.61413
2.61412
2.6141
2.6142
2.6142
2.61421
2.61421
2.61421
2.61421
2.6142
2.6142
2.61419
2.61417
2.61416
2.61414
2.61412
2.61411
2.6142
2.61421
2.61421
2.61422
2.61422
2.61422
2.61421
2.6142
2.61419
2.61418
2.61416
2.61415
2.61413
2.61411
2.61421
2.61421
2.61422
2.61422
2.61422
2.61422
2.61422
2.61421
2.6142
2.61418
2.61417
2.61415
2.61413
2.61411
2.61421
2.61422
2.61422
2.61423
2.61423
2.61423
2.61422
2.61421
2.6142
2.61419
2.61417
2.61415
2.61413
2.61411
2.61421
2.61422
2.61422
2.61423
2.61423
2.61423
2.61422
2.61421
2.6142
2.61419
2.61417
2.61415
2.61413
2.61411
2.61421
2.61422
2.61422
2.61423
2.61423
2.61422
2.61422
2.61421
2.6142
2.61418
2.61417
2.61415
2.61413
2.61411
2.61421
2.61421
2.61422
2.61422
2.61422
2.61422
2.61421
2.6142
2.61419
2.61418
2.61416
2.61414
2.61412
2.6141
2.6142
2.61421
2.61421
2.61421
2.61421
2.61421
2.6142
2.6142
2.61418
2.61417
2.61416
2.61414
2.61412
2.6141
2.6142
2.6142
2.6142
2.6142
2.6142
2.6142
2.61419
2.61418
2.61417
2.61416
2.61415
2.61413
2.61411
2.61409
2.61419
2.61419
2.61419
2.61419
2.61419
2.61418
2.61418
2.61417
2.61416
2.61415
2.61414
2.61413
2.61411
2.61409
2.61418
2.61418
2.61418
2.61417
2.61417
2.61417
2.61417
2.61416
2.61415
2.61414
2.61413
2.61412
2.61411
2.61409
2.61015
2.61017
2.61019
2.61021
2.61022
2.61022
2.61022
2.61022
2.6102
2.61019
2.61016
2.61014
2.61011
2.61008
2.61017
2.6102
2.61022
2.61024
2.61025
2.61026
2.61026
2.61025
2.61024
2.61022
2.61019
2.61017
2.61014
2.61011
2.6102
2.61022
2.61025
2.61026
2.61028
2.61029
2.61029
2.61028
2.61027
2.61025
2.61022
2.61019
2.61016
2.61013
2.61022
2.61024
2.61027
2.61029
2.6103
2.61031
2.61031
2.6103
2.61029
2.61027
2.61025
2.61022
2.61019
2.61015
2.61023
2.61026
2.61029
2.61031
2.61032
2.61033
2.61033
2.61032
2.61031
2.61029
2.61027
2.61024
2.6102
2.61017
2.61025
2.61028
2.6103
2.61032
2.61033
2.61034
2.61034
2.61034
2.61033
2.61031
2.61028
2.61025
2.61021
2.61018
2.61026
2.61028
2.61031
2.61033
2.61034
2.61035
2.61035
2.61035
2.61033
2.61031
2.61029
2.61025
2.61022
2.61018
2.61026
2.61029
2.61031
2.61033
2.61034
2.61035
2.61035
2.61035
2.61033
2.61031
2.61029
2.61025
2.61022
2.61018
2.61025
2.61028
2.6103
2.61032
2.61034
2.61034
2.61035
2.61034
2.61033
2.61031
2.61028
2.61025
2.61021
2.61017
2.61025
2.61027
2.61029
2.61031
2.61032
2.61033
2.61033
2.61033
2.61031
2.61029
2.61027
2.61023
2.6102
2.61016
2.61023
2.61025
2.61027
2.61029
2.6103
2.61031
2.61031
2.61031
2.61029
2.61027
2.61025
2.61022
2.61018
2.61014
2.61021
2.61023
2.61025
2.61026
2.61028
2.61028
2.61029
2.61028
2.61027
2.61025
2.61022
2.61019
2.61016
2.61012
2.61018
2.6102
2.61022
2.61023
2.61025
2.61025
2.61025
2.61025
2.61024
2.61022
2.6102
2.61017
2.61014
2.6101
2.61015
2.61017
2.61018
2.6102
2.61021
2.61022
2.61022
2.61022
2.61021
2.61019
2.61017
2.61014
2.61011
2.61008
2.60645
2.60648
2.60651
2.60653
2.60654
2.60655
2.60655
2.60655
2.60653
2.60652
2.60649
2.60646
2.60643
2.60639
2.60648
2.60651
2.60654
2.60656
2.60658
2.60659
2.60659
2.60658
2.60657
2.60655
2.60653
2.6065
2.60646
2.60642
2.60651
2.60654
2.60657
2.60659
2.60661
2.60662
2.60662
2.60662
2.6066
2.60659
2.60656
2.60653
2.60649
2.60645
2.60653
2.60657
2.6066
2.60662
2.60664
2.60665
2.60665
2.60664
2.60663
2.60661
2.60659
2.60655
2.60652
2.60648
2.60655
2.60659
2.60662
2.60664
2.60666
2.60667
2.60667
2.60667
2.60665
2.60663
2.60661
2.60657
2.60654
2.60649
2.60656
2.6066
2.60663
2.60665
2.60667
2.60668
2.60669
2.60668
2.60667
2.60665
2.60662
2.60659
2.60655
2.6065
2.60657
2.60661
2.60664
2.60666
2.60668
2.60669
2.60669
2.60669
2.60667
2.60665
2.60663
2.60659
2.60655
2.60651
2.60657
2.60661
2.60663
2.60666
2.60668
2.60669
2.60669
2.60668
2.60667
2.60665
2.60662
2.60659
2.60655
2.6065
2.60657
2.6066
2.60663
2.60665
2.60667
2.60668
2.60668
2.60667
2.60666
2.60664
2.60661
2.60658
2.60654
2.60649
2.60655
2.60658
2.60661
2.60663
2.60665
2.60666
2.60666
2.60666
2.60664
2.60662
2.6066
2.60656
2.60652
2.60648
2.60653
2.60656
2.60658
2.60661
2.60662
2.60663
2.60664
2.60663
2.60662
2.6066
2.60657
2.60654
2.6065
2.60645
2.6065
2.60653
2.60655
2.60657
2.60659
2.6066
2.60661
2.6066
2.60659
2.60657
2.60654
2.60651
2.60647
2.60643
2.60646
2.60649
2.60651
2.60654
2.60655
2.60656
2.60657
2.60656
2.60655
2.60653
2.60651
2.60647
2.60644
2.60639
2.60642
2.60645
2.60647
2.60649
2.60651
2.60652
2.60653
2.60652
2.60651
2.60649
2.60647
2.60644
2.6064
2.60636
2.60294
2.60298
2.603
2.60302
2.60304
2.60305
2.60305
2.60304
2.60303
2.60302
2.60299
2.60297
2.60293
2.6029
2.60297
2.60301
2.60303
2.60305
2.60307
2.60308
2.60308
2.60307
2.60306
2.60305
2.60302
2.603
2.60296
2.60293
2.603
2.60303
2.60306
2.60308
2.60309
2.6031
2.60311
2.6031
2.60309
2.60307
2.60305
2.60302
2.60299
2.60295
2.60302
2.60305
2.60308
2.6031
2.60312
2.60313
2.60313
2.60312
2.60311
2.6031
2.60307
2.60305
2.60301
2.60297
2.60304
2.60307
2.6031
2.60312
2.60313
2.60314
2.60314
2.60314
2.60313
2.60311
2.60309
2.60306
2.60303
2.60299
2.60305
2.60308
2.60311
2.60313
2.60314
2.60315
2.60315
2.60315
2.60314
2.60312
2.6031
2.60307
2.60304
2.603
2.60305
2.60308
2.60311
2.60313
2.60314
2.60315
2.60316
2.60315
2.60314
2.60312
2.6031
2.60307
2.60304
2.603
2.60305
2.60308
2.6031
2.60312
2.60314
2.60315
2.60315
2.60315
2.60314
2.60312
2.6031
2.60307
2.60303
2.60299
2.60304
2.60307
2.60309
2.60311
2.60313
2.60314
2.60314
2.60314
2.60313
2.60311
2.60309
2.60306
2.60302
2.60298
2.60302
2.60305
2.60308
2.6031
2.60311
2.60312
2.60312
2.60312
2.60311
2.60309
2.60307
2.60304
2.603
2.60296
2.603
2.60303
2.60305
2.60307
2.60309
2.6031
2.6031
2.6031
2.60309
2.60307
2.60304
2.60301
2.60298
2.60294
2.60297
2.603
2.60302
2.60304
2.60306
2.60307
2.60307
2.60307
2.60306
2.60304
2.60302
2.60299
2.60295
2.60291
2.60294
2.60296
2.60299
2.60301
2.60302
2.60303
2.60303
2.60303
2.60302
2.603
2.60298
2.60295
2.60292
2.60288
2.60289
2.60292
2.60294
2.60297
2.60298
2.60299
2.603
2.60299
2.60298
2.60297
2.60294
2.60292
2.60288
2.60284
2.59957
2.5996
2.59962
2.59964
2.59965
2.59966
2.59966
2.59966
2.59965
2.59963
2.59962
2.59959
2.59957
2.59953
2.59959
2.59962
2.59964
2.59966
2.59967
2.59968
2.59968
2.59968
2.59967
2.59966
2.59964
2.59962
2.59959
2.59956
2.59961
2.59964
2.59966
2.59968
2.59969
2.5997
2.5997
2.5997
2.59969
2.59968
2.59966
2.59964
2.59961
2.59958
2.59963
2.59966
2.59968
2.59969
2.5997
2.59971
2.59971
2.59971
2.5997
2.59969
2.59967
2.59965
2.59962
2.59959
2.59964
2.59967
2.59969
2.5997
2.59971
2.59972
2.59972
2.59972
2.59971
2.5997
2.59968
2.59966
2.59963
2.5996
2.59965
2.59967
2.59969
2.59971
2.59972
2.59973
2.59973
2.59972
2.59972
2.5997
2.59969
2.59967
2.59964
2.59961
2.59965
2.59967
2.59969
2.59971
2.59972
2.59973
2.59973
2.59972
2.59972
2.5997
2.59969
2.59967
2.59964
2.59961
2.59964
2.59967
2.59969
2.5997
2.59971
2.59972
2.59972
2.59972
2.59971
2.5997
2.59968
2.59966
2.59963
2.5996
2.59963
2.59966
2.59968
2.59969
2.5997
2.59971
2.59971
2.59971
2.5997
2.59969
2.59967
2.59965
2.59962
2.59959
2.59962
2.59964
2.59966
2.59968
2.59969
2.5997
2.5997
2.59969
2.59969
2.59967
2.59966
2.59963
2.59961
2.59958
2.5996
2.59962
2.59964
2.59966
2.59967
2.59968
2.59968
2.59967
2.59967
2.59965
2.59964
2.59961
2.59959
2.59956
2.59958
2.5996
2.59962
2.59963
2.59964
2.59965
2.59965
2.59965
2.59964
2.59963
2.59961
2.59959
2.59956
2.59953
2.59955
2.59957
2.59959
2.5996
2.59962
2.59962
2.59963
2.59962
2.59962
2.5996
2.59958
2.59956
2.59953
2.5995
2.59951
2.59953
2.59955
2.59957
2.59958
2.59959
2.59959
2.59959
2.59958
2.59957
2.59955
2.59953
2.5995
2.59947
2.59629
2.59631
2.59633
2.59634
2.59635
2.59636
2.59636
2.59636
2.59636
2.59635
2.59633
2.59632
2.59629
2.59627
2.59631
2.59633
2.59635
2.59636
2.59637
2.59638
2.59638
2.59638
2.59637
2.59636
2.59635
2.59633
2.59631
2.59629
2.59633
2.59635
2.59636
2.59638
2.59638
2.59639
2.59639
2.59639
2.59638
2.59638
2.59636
2.59635
2.59632
2.5963
2.59634
2.59636
2.59637
2.59639
2.59639
2.5964
2.5964
2.5964
2.59639
2.59638
2.59637
2.59636
2.59634
2.59631
2.59635
2.59636
2.59638
2.59639
2.5964
2.5964
2.59641
2.5964
2.5964
2.59639
2.59638
2.59636
2.59634
2.59632
2.59635
2.59637
2.59638
2.59639
2.5964
2.59641
2.59641
2.59641
2.5964
2.59639
2.59638
2.59636
2.59634
2.59632
2.59635
2.59637
2.59638
2.59639
2.5964
2.5964
2.59641
2.5964
2.5964
2.59639
2.59638
2.59636
2.59634
2.59632
2.59634
2.59636
2.59638
2.59639
2.59639
2.5964
2.5964
2.5964
2.59639
2.59638
2.59637
2.59636
2.59634
2.59632
2.59633
2.59635
2.59637
2.59638
2.59639
2.59639
2.59639
2.59639
2.59639
2.59638
2.59636
2.59635
2.59633
2.59631
2.59632
2.59634
2.59636
2.59637
2.59638
2.59638
2.59638
2.59638
2.59637
2.59637
2.59635
2.59634
2.59632
2.5963
2.59631
2.59633
2.59634
2.59635
2.59636
2.59637
2.59637
2.59636
2.59636
2.59635
2.59634
2.59632
2.5963
2.59628
2.59629
2.59631
2.59632
2.59633
2.59634
2.59635
2.59635
2.59635
2.59634
2.59633
2.59632
2.59631
2.59629
2.59627
2.59627
2.59629
2.5963
2.59631
2.59632
2.59633
2.59633
2.59633
2.59632
2.59631
2.5963
2.59628
2.59626
2.59624
2.59624
2.59626
2.59628
2.59629
2.5963
2.5963
2.59631
2.5963
2.5963
2.59629
2.59628
2.59626
2.59624
2.59622
2.5931
2.59311
2.59313
2.59314
2.59314
2.59315
2.59315
2.59315
2.59315
2.59314
2.59313
2.59312
2.5931
2.59308
2.59311
2.59313
2.59314
2.59315
2.59316
2.59316
2.59316
2.59316
2.59316
2.59315
2.59314
2.59313
2.59311
2.5931
2.59313
2.59314
2.59315
2.59316
2.59317
2.59317
2.59317
2.59317
2.59317
2.59316
2.59315
2.59314
2.59312
2.59311
2.59313
2.59315
2.59316
2.59317
2.59317
2.59318
2.59318
2.59318
2.59317
2.59317
2.59316
2.59315
2.59313
2.59311
2.59314
2.59315
2.59316
2.59317
2.59318
2.59318
2.59318
2.59318
2.59318
2.59317
2.59316
2.59315
2.59314
2.59312
2.59314
2.59315
2.59317
2.59317
2.59318
2.59318
2.59319
2.59318
2.59318
2.59317
2.59316
2.59315
2.59314
2.59312
2.59314
2.59315
2.59316
2.59317
2.59318
2.59318
2.59318
2.59318
2.59318
2.59317
2.59316
2.59315
2.59314
2.59312
2.59314
2.59315
2.59316
2.59317
2.59318
2.59318
2.59318
2.59318
2.59318
2.59317
2.59316
2.59315
2.59314
2.59312
2.59313
2.59314
2.59316
2.59316
2.59317
2.59317
2.59318
2.59317
2.59317
2.59316
2.59316
2.59315
2.59313
2.59312
2.59312
2.59314
2.59315
2.59316
2.59316
2.59317
2.59317
2.59317
2.59316
2.59316
2.59315
2.59314
2.59313
2.59311
2.59311
2.59312
2.59314
2.59315
2.59315
2.59316
2.59316
2.59316
2.59315
2.59315
2.59314
2.59313
2.59312
2.5931
2.5931
2.59311
2.59313
2.59313
2.59314
2.59315
2.59315
2.59314
2.59314
2.59314
2.59313
2.59312
2.5931
2.59309
2.59308
2.5931
2.59311
2.59312
2.59313
2.59313
2.59313
2.59313
2.59313
2.59312
2.59311
2.5931
2.59309
2.59307
2.59307
2.59308
2.5931
2.5931
2.59311
2.59311
2.59312
2.59311
2.59311
2.5931
2.59309
2.59308
2.59307
2.59306
2.58999
2.59
2.59001
2.59001
2.59001
2.59002
2.59002
2.59002
2.59002
2.59002
2.59001
2.59001
2.59
2.58999
2.59
2.59001
2.59002
2.59002
2.59003
2.59003
2.59003
2.59003
2.59003
2.59002
2.59002
2.59001
2.59
2.58999
2.59001
2.59002
2.59002
2.59003
2.59003
2.59004
2.59004
2.59004
2.59004
2.59003
2.59003
2.59002
2.59001
2.59
2.59002
2.59002
2.59003
2.59004
2.59004
2.59004
2.59004
2.59004
2.59004
2.59004
2.59003
2.59002
2.59001
2.59
2.59002
2.59003
2.59003
2.59004
2.59004
2.59005
2.59005
2.59005
2.59005
2.59004
2.59003
2.59003
2.59002
2.59001
2.59002
2.59003
2.59004
2.59004
2.59005
2.59005
2.59005
2.59005
2.59005
2.59004
2.59004
2.59003
2.59002
2.59001
2.59002
2.59003
2.59004
2.59004
2.59005
2.59005
2.59005
2.59005
2.59005
2.59004
2.59004
2.59003
2.59002
2.59001
2.59002
2.59003
2.59004
2.59004
2.59005
2.59005
2.59005
2.59005
2.59005
2.59004
2.59004
2.59003
2.59002
2.59001
2.59001
2.59003
2.59003
2.59004
2.59004
2.59005
2.59005
2.59005
2.59005
2.59004
2.59004
2.59003
2.59002
2.59001
2.59001
2.59002
2.59003
2.59004
2.59004
2.59004
2.59004
2.59004
2.59004
2.59004
2.59003
2.59003
2.59002
2.59001
2.59
2.59001
2.59002
2.59003
2.59003
2.59004
2.59004
2.59004
2.59004
2.59003
2.59003
2.59002
2.59001
2.59
2.59
2.59001
2.59002
2.59002
2.59003
2.59003
2.59003
2.59003
2.59003
2.59002
2.59002
2.59001
2.59001
2.59
2.58999
2.59
2.59001
2.59002
2.59002
2.59002
2.59002
2.59002
2.59002
2.59002
2.59001
2.59
2.59
2.58999
2.58998
2.58999
2.59
2.59001
2.59001
2.59001
2.59001
2.59001
2.59001
2.59001
2.59
2.58999
2.58999
2.58998
2.587
2.587
2.587
2.587
2.587
2.587
2.587
2.587
2.587
2.587
2.587
2.587
2.587
2.587
2.58701
2.587
2.587
2.587
2.587
2.587
2.587
2.587
2.587
2.587
2.587
2.587
2.587
2.587
2.58701
2.58701
2.58701
2.587
2.587
2.587
2.587
2.58701
2.58701
2.58701
2.587
2.587
2.587
2.587
2.58701
2.58701
2.58701
2.58701
2.58701
2.58701
2.58701
2.58701
2.58701
2.58701
2.58701
2.587
2.587
2.587
2.58701
2.58701
2.58701
2.58701
2.58701
2.58701
2.58701
2.58701
2.58701
2.58701
2.58701
2.58701
2.587
2.587
2.58701
2.58701
2.58701
2.58701
2.58701
2.58701
2.58701
2.58701
2.58701
2.58701
2.58701
2.58701
2.58701
2.587
2.58701
2.58701
2.58701
2.58701
2.58701
2.58702
2.58702
2.58702
2.58701
2.58701
2.58701
2.58701
2.58701
2.587
2.58701
2.58701
2.58701
2.58701
2.58702
2.58702
2.58702
2.58702
2.58702
2.58701
2.58701
2.58701
2.58701
2.58701
2.58701
2.58701
2.58701
2.58702
2.58702
2.58702
2.58702
2.58702
2.58702
2.58702
2.58701
2.58701
2.58701
2.58701
2.58701
2.58701
2.58701
2.58702
2.58702
2.58702
2.58702
2.58702
2.58702
2.58702
2.58702
2.58701
2.58701
2.58701
2.58701
2.58701
2.58702
2.58702
2.58702
2.58702
2.58702
2.58702
2.58702
2.58702
2.58702
2.58701
2.58701
2.58701
2.58701
2.58701
2.58702
2.58702
2.58702
2.58702
2.58702
2.58702
2.58702
2.58702
2.58702
2.58702
2.58701
2.58702
2.58701
2.58701
2.58702
2.58702
2.58702
2.58702
2.58702
2.58702
2.58702
2.58702
2.58701
2.58701
2.58701
2.58702
2.58702
2.58702
2.58702
2.58702
2.58702
2.58702
2.58702
2.58702
2.58701
2.58701
2.58701
2.58701
2.58701
2.58702
2.58418
2.58416
2.58415
2.58414
2.58414
2.58413
2.58413
2.58413
2.58414
2.58414
2.58415
2.58415
2.58417
2.58418
2.58417
2.58415
2.58415
2.58414
2.58413
2.58413
2.58413
2.58413
2.58413
2.58414
2.58414
2.58415
2.58416
2.58416
2.58416
2.58415
2.58414
2.58413
2.58413
2.58413
2.58412
2.58412
2.58413
2.58413
2.58414
2.58414
2.58415
2.58416
2.58415
2.58415
2.58414
2.58413
2.58413
2.58412
2.58412
2.58412
2.58412
2.58413
2.58413
2.58414
2.58414
2.58415
2.58415
2.58414
2.58413
2.58413
2.58412
2.58412
2.58412
2.58412
2.58412
2.58413
2.58413
2.58414
2.58414
2.58415
2.58415
2.58414
2.58413
2.58413
2.58412
2.58412
2.58412
2.58412
2.58412
2.58413
2.58413
2.58413
2.58414
2.58415
2.58415
2.58414
2.58414
2.58413
2.58413
2.58412
2.58412
2.58412
2.58412
2.58413
2.58413
2.58414
2.58414
2.58415
2.58415
2.58414
2.58414
2.58413
2.58413
2.58413
2.58413
2.58413
2.58413
2.58413
2.58413
2.58414
2.58415
2.58415
2.58415
2.58415
2.58414
2.58414
2.58413
2.58413
2.58413
2.58413
2.58413
2.58413
2.58414
2.58414
2.58415
2.58416
2.58416
2.58415
2.58415
2.58414
2.58414
2.58414
2.58414
2.58414
2.58414
2.58414
2.58414
2.58415
2.58416
2.58416
2.58417
2.58416
2.58415
2.58415
2.58415
2.58414
2.58414
2.58414
2.58414
2.58415
2.58415
2.58416
2.58416
2.58417
2.58418
2.58417
2.58416
2.58416
2.58415
2.58415
2.58415
2.58415
2.58415
2.58415
2.58416
2.58416
2.58417
2.58418
2.58419
2.58418
2.58417
2.58417
2.58416
2.58416
2.58416
2.58416
2.58416
2.58416
2.58417
2.58417
2.58418
2.58419
2.5842
2.58419
2.58419
2.58418
2.58417
2.58417
2.58417
2.58417
2.58417
2.58417
2.58417
2.58418
2.58419
2.5842
2.58154
2.58152
2.58151
2.5815
2.58149
2.58148
2.58148
2.58148
2.58148
2.58149
2.5815
2.58151
2.58153
2.58155
2.58153
2.58151
2.5815
2.58148
2.58148
2.58147
2.58147
2.58147
2.58147
2.58148
2.58149
2.5815
2.58151
2.58153
2.58151
2.5815
2.58148
2.58147
2.58146
2.58146
2.58146
2.58146
2.58146
2.58147
2.58147
2.58149
2.5815
2.58152
2.5815
2.58149
2.58147
2.58146
2.58146
2.58145
2.58145
2.58145
2.58145
2.58146
2.58147
2.58148
2.58149
2.58151
2.5815
2.58148
2.58147
2.58146
2.58145
2.58145
2.58144
2.58144
2.58145
2.58145
2.58146
2.58147
2.58149
2.5815
2.58149
2.58148
2.58147
2.58146
2.58145
2.58144
2.58144
2.58144
2.58145
2.58145
2.58146
2.58147
2.58148
2.5815
2.58149
2.58148
2.58147
2.58146
2.58145
2.58144
2.58144
2.58144
2.58145
2.58145
2.58146
2.58147
2.58148
2.5815
2.5815
2.58148
2.58147
2.58146
2.58145
2.58145
2.58145
2.58145
2.58145
2.58146
2.58146
2.58147
2.58149
2.5815
2.5815
2.58149
2.58148
2.58147
2.58146
2.58145
2.58145
2.58145
2.58146
2.58146
2.58147
2.58148
2.58149
2.58151
2.58151
2.5815
2.58148
2.58147
2.58147
2.58146
2.58146
2.58146
2.58146
2.58147
2.58148
2.58149
2.5815
2.58152
2.58152
2.58151
2.5815
2.58149
2.58148
2.58147
2.58147
2.58147
2.58147
2.58148
2.58149
2.5815
2.58151
2.58153
2.58154
2.58152
2.58151
2.5815
2.58149
2.58149
2.58148
2.58148
2.58149
2.58149
2.5815
2.58151
2.58153
2.58154
2.58155
2.58154
2.58153
2.58152
2.58151
2.5815
2.5815
2.5815
2.5815
2.58151
2.58152
2.58153
2.58154
2.58156
2.58158
2.58156
2.58154
2.58153
2.58152
2.58152
2.58152
2.58152
2.58152
2.58152
2.58153
2.58154
2.58156
2.58158
2.57913
2.57911
2.5791
2.57909
2.57908
2.57907
2.57907
2.57907
2.57907
2.57908
2.57909
2.5791
2.57911
2.5791
2.57908
2.57907
2.57906
2.57906
2.57905
2.57905
2.57906
2.57906
2.57907
2.57909
2.5791
2.57908
2.57907
2.57906
2.57905
2.57904
2.57904
2.57904
2.57905
2.57905
2.57906
2.57907
2.57909
2.57907
2.57906
2.57905
2.57904
2.57904
2.57903
2.57903
2.57904
2.57904
2.57905
2.57907
2.57908
2.57907
2.57905
2.57904
2.57903
2.57903
2.57903
2.57903
2.57903
2.57904
2.57905
2.57906
2.57908
2.57906
2.57905
2.57904
2.57903
2.57902
2.57902
2.57902
2.57903
2.57903
2.57904
2.57906
2.57908
2.57906
2.57905
2.57904
2.57903
2.57902
2.57902
2.57902
2.57903
2.57903
2.57904
2.57906
2.57908
2.57907
2.57905
2.57904
2.57903
2.57903
2.57902
2.57903
2.57903
2.57904
2.57905
2.57906
2.57909
2.57907
2.57906
2.57905
2.57904
2.57903
2.57903
2.57903
2.57904
2.57904
2.57905
2.57906
2.5791
2.57908
2.57907
2.57906
2.57905
2.57904
2.57904
2.57904
2.57904
2.57905
2.57906
2.57907
2.57911
2.5791
2.57908
2.57907
2.57906
2.57905
2.57905
2.57905
2.57906
2.57906
2.57907
2.57908
2.57913
2.57911
2.57909
2.57908
2.57907
2.57907
2.57907
2.57907
2.57907
2.57908
2.57909
2.5791
2.57914
2.57913
2.57911
2.5791
2.57909
2.57909
2.57908
2.57908
2.57909
2.5791
2.5791
2.57912
2.57916
2.57915
2.57913
2.57912
2.57911
2.5791
2.5791
2.5791
2.57911
2.57911
2.57912
2.57914
2.65989
2.65961
2.65935
2.65912
2.6589
2.65869
2.65997
2.65966
2.65937
2.65908
2.6588
2.65855
2.66001
2.65967
2.65934
2.65902
2.65873
2.65845
2.66009
2.65972
2.65936
2.65902
2.65871
2.65842
2.654
2.65387
2.65374
2.65362
2.6535
2.65338
2.654
2.65384
2.65367
2.65351
2.65336
2.65321
2.65398
2.6538
2.6536
2.65342
2.65325
2.65308
2.65397
2.65377
2.65356
2.65335
2.65317
2.65299
2.65397
2.65375
2.65352
2.65331
2.65311
2.65293
2.65397
2.65373
2.6535
2.65328
2.65308
2.6529
2.65397
2.65373
2.65349
2.65327
2.65307
2.65289
2.6482
2.64817
2.64812
2.64809
2.64805
2.64801
2.64814
2.64808
2.64802
2.64796
2.64791
2.64784
2.64807
2.648
2.64793
2.64786
2.64778
2.6477
2.64801
2.64793
2.64784
2.64776
2.64767
2.64759