/*--------------------------------*- C++ -*----------------------------------*\
| =========                 |                                                 |
| \\      /  F ield         | OpenFOAM: The Open Source CFD Toolbox           |
|  \\    /   O peration     | Version:  v2106                                 |
|   \\  /    A nd           | Website:  www.openfoam.com                      |
|    \\/     M anipulation  |                                                 |
\*---------------------------------------------------------------------------*/
FoamFile
{
    version     2.0;
    format      ascii;
    arch        "LSB;label=32;scalar=64";
    class       volScalarField;
    location    "0.000218";
    object      epsilon;
}
// * * * * * * * * * * * * * * * * * * * * * * * * * * * * * * * * * * * * * //

dimensions      [0 2 -3 0 0 0 0];

internalField   nonuniform List<scalar> 
18273
(
199486
136585
95752.9
74784.7
67566.8
65033.6
63901.8
61296.6
60019.2
61667.6
70955.9
95811
134060
167832
122416
72890.7
45766.8
31786
26121.3
24415.7
24960.6
26092.9
27810.7
30981.8
36910.8
50725.7
76526.6
114061
64718.8
35692.1
22511.9
15009.8
11408.3
10060.8
10268.8
11462
13417.3
16069.8
19843.4
26561
38529.4
66110.7
34025.9
19348.6
12047.9
7857.87
5652.82
4671.61
4599.18
5277.39
6651.4
8638.54
11161.7
14239.6
18912
33782.8
22042.7
12408.6
7309.37
4511.75
3034.3
2330.36
2171.95
2493.98
3330.14
4698.95
6528.6
8669.3
11713.2
20090.7
16914.7
8849.57
4772.3
2696.74
1659.86
1173.54
1028.39
1174.76
1667.86
2571.48
3878.64
5522.48
7728.14
13662.4
13701.2
6465.08
3122.92
1582.19
879.032
569.898
473.024
547.835
844.391
1440.19
2377.02
3670.37
5552.81
10606.8
11379.3
4819.58
2052.49
910.513
446.267
262.592
210.742
260.444
453.017
863.483
1560.37
2615.2
4355.38
9272.62
9877.68
3837.44
1453.78
556.983
232.545
121.003
97.9807
141.197
284.8
596.938
1159.28
2095.76
3891.05
9118.69
9863.15
3668.37
1292.47
442.566
158.533
72.3537
61.6371
104.765
231.362
506.888
1031.63
2009.29
4153.58
9947.73
11872
4414.99
1545.62
522.741
185.513
85.9217
74.3579
121.164
254.668
548.375
1142.33
2384.3
5269.72
11829.7
17528.4
6872.4
2581.62
963.441
383.974
192.809
154.412
206.072
370.78
742.198
1538.72
3362.1
7461.72
15392.7
28252.2
11876.6
4909.77
2140.37
1004.44
540.934
394.248
431.745
646.852
1150
2257
4907.97
10735
20609.1
45428.5
20405.9
9265.81
4674.8
2586.34
1543.03
1082.53
1008.12
1256.99
1931.87
3440.99
7157.35
15149.5
27277.2
177750
110861
70553.3
49707.9
40589.2
36535.1
34612
33055.2
31973
32382.8
36794.6
50820.6
82343.9
121524
95957.8
52696.5
33190.1
22359.5
17166.1
15043.1
14598.7
14826.4
15546.3
16614.3
18836.9
24874.4
41529.7
71731.3
43606.7
24203.1
15212.1
10182.3
7601.11
6503.02
6345.04
6750.2
7617.24
8855.31
10593
13561.9
20530.8
36297.1
24018.3
12959.7
7615.69
4909.94
3550.48
2946.28
2841.36
3114.12
3748.82
4720.84
6064.06
7870.04
10857
18484.4
17466.4
8587.44
4502.68
2634.44
1769.43
1386.57
1295
1434.2
1824.25
2499.49
3482.28
4825.29
6798.53
11288.2
14212.4
6344.55
2961.25
1530.23
919.755
660.891
585.001
647.748
877.585
1322.22
2021.42
3027.99
4515.95
7566.54
11690.7
4826.53
2029.18
919.629
481.307
308.849
256.086
285.823
421.306
712.154
1209.74
1977.51
3171.14
5581.37
10147.8
3937.3
1502
589.463
258.561
141.574
108.573
126.684
212.604
410.415
776.911
1385.83
2401.88
4552.86
9522.71
3542.16
1251.75
431.041
155.342
68.4428
47.9105
63.3271
126.786
276.417
569.715
1092.85
2041.01
4161.21
10308.1
3774.56
1282.82
408.543
127.535
45.4783
28.9117
44.4513
101.213
234.784
506.116
1019.82
2024.12
4283.09
12642.3
4610.02
1549.48
487.807
151.352
54.242
34.8113
51.9796
113.475
257.805
557.51
1149.95
2345.06
4939.31
18113.2
6698.16
2302.71
771.305
269.259
113.082
75.7257
94.4464
173.003
357.913
746.476
1541.89
3156.64
6505.42
27709
10438.6
3744.53
1414.28
592.074
293.572
201.373
214.749
323.129
580.914
1126.45
2289.69
4838.91
9610
44416
17214.3
6586.99
2817.11
1388.74
787.185
552.909
529.883
678.197
1055.84
1850.85
3655.13
7804.66
14903.9
122110
73239.7
45220.9
29954.7
22358.9
18968.9
17825.6
17760.9
18428.3
19140.9
20017.7
22046.8
30922.4
60731
54152.6
31491.6
19322.3
12595
9177.16
7679.03
7307.1
7541.32
8241.03
9152.18
10229.9
11722.1
15611
29969.5
27744.9
14573.1
8269.59
5205.25
3733.62
3108.57
2990.91
3185.2
3653.23
4323.63
5209.64
6404.6
8824.26
14340.9
20461.5
9281.27
4423.26
2413.86
1597.43
1287.08
1230.21
1334.46
1599.16
2026.1
2645.16
3534.52
5131.82
8250.84
17026.8
6976.34
2872.4
1316.37
752.09
555.277
510.189
553.384
689.724
942.75
1352.7
1989.28
3084.32
5139.63
14115.2
5376.91
2006.61
795.674
383.568
247.75
211.994
226.961
295.253
442.294
708.08
1158.64
1938.29
3413.97
11581.1
4202
1466.17
518.849
209.668
112.748
86.5373
91.392
127.533
215.754
392.089
717.092
1304.15
2437.23
10203.1
3603.38
1202.82
389.027
131.804
55.3523
35.5158
37.4115
59.4384
117.589
243.149
490.97
963.231
1892.71
9771.66
3413.48
1110.25
338.756
100.555
32.8333
16.3533
17.8137
34.6349
79.9174
181.734
391.396
806.736
1637.05
10697.2
3755.64
1213.03
361.824
101.449
28.791
11.6784
13.1491
29.3943
72.6626
170.505
374.254
783.289
1601.47
12952
4558.72
1465.31
437.168
125.091
37.5149
16.4599
18.0237
37.0632
86.9696
198.104
426.957
880.484
1776.77
18057
6385.95
2064.15
640.389
202.924
73.5249
39.0553
39.4023
65.3903
132.742
277.722
569.877
1137.83
2240.88
26383.8
9361.77
3107.11
1057.49
397.941
179.761
111.175
105.575
144.367
245.764
455.036
877.245
1724.94
3338.22
41599.4
14876.1
5435.05
2207.37
999.381
520.549
341.686
307.506
367.318
536.897
873.446
1574.07
3067.83
5871.38
202314
246602
274229
320586
566084
2.44605e+06
148889
201789
239244
274960
458986
1.9704e+06
107536
171642
217768
246131
381745
1.68362e+06
73979.2
146327
201269
225522
318871
1.50867e+06
49054.9
121557
182588
208766
286694
1.41292e+06
36958
98558.7
160456
194067
279799
1.37651e+06
30935.3
79667.9
136055
178689
280648
1.38782e+06
27134.8
64289.7
112830
163697
285786
1.41614e+06
24181.4
51399.1
92292.3
148866
295007
1.46666e+06
22326.8
42062.7
76225.8
135338
301034
1.52667e+06
22344.7
37643.8
66550.6
125193
305932
1.61336e+06
24688.5
38083.9
63776.6
120910
313523
1.7514e+06
28615.3
41513.6
66812.2
124287
335888
1.97536e+06
32987.7
47037.5
75306.9
139372
383423
2.28979e+06
166758
222898
266709
306397
469096
1.81175e+06
101844
150609
202268
255653
399779
1.43192e+06
61479.7
107178
162162
220804
352704
1.2044e+06
36919.8
77899.2
134212
194114
305649
1.06788e+06
23130
57981
112902
172113
276970
996805
16451.4
44217.4
95852
153781
265724
972066
13040.3
35467.8
80302.2
136905
262950
983861
11191.7
29572
66927.3
122711
266392
1.01398e+06
10141.3
24755
55135.2
110150
270196
1.05111e+06
9651.37
20941.4
45685.1
99550.3
271788
1.08964e+06
9957.94
19061.9
40011.2
92045.2
272508
1.13779e+06
11596.6
19857.1
38876
89327.7
273902
1.21302e+06
14619.8
23146.2
42324.4
93235
283768
1.33637e+06
18393.3
28233.4
50390.1
106246
305430
1.51083e+06
97798.7
155405
220041
289123
451044
1.1017e+06
51875.1
87525.7
136016
203619
350779
842920
26393.7
51451.6
89577
151558
285478
693950
14462.8
31529.8
62757.6
118294
240499
615767
9486.96
21089.5
46530
96339.6
210379
587264
6715.49
15390.2
36927.4
81020.8
192394
596449
5055.14
11964.5
30725
70607
185919
629212
4093.99
9995.52
26147.4
63522.3
189182
668874
3626.12
8791.97
22466.3
58444.9
194860
704721
3483.5
7910.47
19507.3
55131.7
198989
729344
3622.45
7481.82
17813.9
53182.1
200277
746837
4206.83
7890.26
17917.3
53608.6
200632
769821
5435.01
9499.09
20493.9
58566.3
203340
815525
7283.68
12491.3
26666.2
70081.7
210344
887217
36463.8
55173.2
90317.9
171094
465230
2.28085e+06
21253.8
35272
62521
122763
332238
1.6863e+06
11236.3
21692.3
44250
93806.8
256856
1.33439e+06
6152.81
13650.1
32500.4
74491.2
205853
1.13779e+06
3981.85
9856.37
25898
62170.9
178618
1.05173e+06
3126.37
8580.87
22924.6
55984.5
170048
1.05088e+06
2946.33
8407.94
22118.6
54590.1
183448
1.124e+06
3284.66
8829.94
22551.3
59412.2
224437
1.26011e+06
4117.86
9766.88
24599.8
71465.7
293732
1.44844e+06
5569.44
11749.2
30084.5
94033.7
393776
1.67815e+06
8201.74
16219.5
41971.4
130941
532361
1.94444e+06
13806.3
26356.8
65115.8
189763
722190
2.26543e+06
26488.8
48836.5
109769
285947
991106
2.65685e+06
51952.8
94019.5
192783
443924
1.33872e+06
3.15e+06
22130
36191.5
63854.9
129348
338623
1.45202e+06
12253.6
21915
41983.6
89739.6
236017
1.04647e+06
6324.29
12821.9
27738
65285.8
175937
814265
3516.12
7777.03
19023.6
49701
142209
690320
2275.33
5511.46
14696.2
41709.5
130360
644602
1684.69
4513.32
12980.7
39371.4
134736
664032
1488.38
4294.92
13151.3
42883.3
160292
747215
1610.29
4759.65
15442.5
53893.3
212166
893648
2111.1
6183
21030.6
75591.8
294907
1.09662e+06
3202.23
9265.54
31832.7
110489
408970
1.33928e+06
5434.56
15246.5
49738.7
159367
552516
1.60718e+06
10312.1
26327.8
77142.2
224632
725174
1.90666e+06
21883.2
48821
122602
317394
935032
2.24419e+06
48425.1
97021.8
206601
460866
1.18554e+06
2.63503e+06
10256
19293.1
39949.5
90629.6
224151
795108
5753.96
11824.3
26546.5
63757.8
161414
561152
3194.57
7278.8
18063.2
47379.6
127230
436033
1924.32
4746.31
13017.9
38057.2
112001
377169
1321.73
3582.59
10818.2
34960.2
111689
366286
1018.05
3098.34
10526.3
37368.3
127186
399788
948.594
3292.56
12531.7
47012.7
162654
481120
1137.69
4444.03
18048.1
67295.8
224628
615894
1778.89
7338.42
29208.4
102102
316997
805086
3271.46
13125.1
48146.8
152708
436050
1.04068e+06
6230.01
22768.5
75044.7
214156
564357
1.30346e+06
11500.6
36911
108371
281050
689405
1.57955e+06
21525.3
58825.7
149900
357033
808655
1.8711e+06
45105.5
103507
220890
458282
913999
2.16712e+06
2.82533e+06
756860
525560
422871
311986
225255
2.42501e+06
711815
483936
336343
218157
151262
2.14816e+06
707201
422219
254903
143322
90785.2
1.98745e+06
702358
372426
200643
99036
55454.4
1.84416e+06
657018
348881
174157
77906.3
38471.5
1.73764e+06
621524
335860
160897
70504.5
32568.4
1.66017e+06
615572
321247
155206
67837
29194.1
1.63374e+06
626625
312075
148472
64234.9
26379.2
1.64936e+06
670364
310732
141880
60426.3
24279.5
1.7108e+06
750548
320798
142087
60865.1
24778.4
1.8395e+06
864730
355876
157166
69517.9
29570.2
2.07088e+06
1.00795e+06
417290
191473
89851
41331.9
2.44507e+06
1.22776e+06
510867
243860
121793
61772.9
3.05434e+06
1.55242e+06
646328
319686
170457
93998.7
2.48481e+06
908902
619836
455986
304439
200817
2.15427e+06
863233
561310
352715
201806
123084
1.92647e+06
853679
495577
269506
129174
69867.2
1.77203e+06
844775
448042
219771
95394.9
44554.4
1.66136e+06
823000
425764
196342
80776.3
36004.7
1.58129e+06
802677
408349
184116
76643.5
31804.7
1.52359e+06
790411
388158
173393
70668.5
27896.5
1.49355e+06
783069
367898
160730
65038.5
25218.5
1.48672e+06
791411
354109
151847
61944.7
24175.1
1.51694e+06
821308
355166
153479
64767.4
26151.5
1.6038e+06
879309
380005
169628
75153.1
31842.4
1.77449e+06
973096
432298
204373
96905.2
44219.7
2.0633e+06
1.12345e+06
512739
255445
129906
64777
2.5466e+06
1.3672e+06
638789
335336
183405
100024
2.12739e+06
1.03543e+06
678707
437939
254023
136855
1.86494e+06
963933
596072
327129
162640
76128.2
1.70763e+06
918712
539650
264070
111053
51756.7
1.62338e+06
887331
504888
227131
98561.3
44417.6
1.58323e+06
874443
486494
220209
94626.5
39821.3
1.54939e+06
874985
477201
213706
88680.1
35021.4
1.51078e+06
874371
458446
200136
79888.7
30120.7
1.46961e+06
862265
431182
184893
73098.4
27178.8
1.43467e+06
835112
404364
173409
69444.3
26131.2
1.42082e+06
809849
388757
171967
71893.8
28169.6
1.44854e+06
800427
392318
183108
80982.1
33499.3
1.53986e+06
815602
420214
211637
101574
45717.1
1.72464e+06
870119
471097
254247
132181
65056.9
2.07024e+06
1.01663e+06
572651
331675
188505
102526
2.28354e+06
467204
306886
274074
236838
190186
1.91009e+06
414024
303390
264967
214159
166215
1.67224e+06
382768
301035
254634
189800
135659
1.52401e+06
363656
299834
247846
171542
113116
1.43556e+06
351923
300790
251640
169933
106683
1.39575e+06
344759
304423
266101
186846
113024
1.39805e+06
338937
308693
289077
216120
127469
1.43643e+06
340242
315018
315932
251161
145176
1.49568e+06
359887
327856
345186
281570
156604
1.58909e+06
391035
350043
369144
295927
161676
1.73453e+06
438646
379451
379959
295736
166239
1.96151e+06
528640
410236
383222
298276
182538
2.31129e+06
639093
465042
417318
329924
222718
2.8697e+06
827039
546099
482262
402479
299433
1.7354e+06
446421
326303
277174
207923
146943
1.4859e+06
433060
345962
268552
178838
118497
1.33087e+06
427279
359150
258612
150851
88148.3
1.23668e+06
427062
373513
259125
135131
70151.5
1.18388e+06
432688
392621
274792
136074
65520.7
1.16475e+06
442303
415397
298911
151193
66693.9
1.17617e+06
450705
435168
325872
166835
72620.7
1.2224e+06
457842
450122
348769
184747
81241.2
1.29762e+06
464162
461551
366698
201142
88498
1.39103e+06
483642
472343
373164
210259
95966.5
1.52781e+06
528445
481690
370750
219140
108943
1.72435e+06
626397
495366
378998
243354
136880
2.01626e+06
741164
550432
431853
300046
189671
2.47393e+06
935826
643930
530182
407515
284325
1.16144e+06
482831
327643
228977
135353
78902.8
1.07905e+06
503038
356510
211971
106527
57685.5
1.04636e+06
525562
384106
208730
90695.8
42416.6
1.052e+06
557792
420954
222089
89825
38957.7
1.07948e+06
598379
469431
248349
95437.2
39473.8
1.12059e+06
650055
517380
266652
103023
41111.9
1.17271e+06
699201
546471
272192
109483
42147.3
1.24185e+06
729890
547051
277669
114122
43890.2
1.31235e+06
729566
533109
280503
119508
47060
1.38638e+06
731619
509481
277325
126042
53210.2
1.47411e+06
755837
500539
286191
143285
66192.5
1.59141e+06
814671
523935
322541
180519
93059.2
1.77532e+06
902016
595932
400188
249170
145214
2.08946e+06
1.06187e+06
720059
526793
363806
234367
50538.1
30410.4
18671.1
12261.7
9040.39
7688.22
7483.49
7962.87
8871.32
9897.63
10884.3
11799.8
12994
15661.7
25990.9
13599.1
7643.48
4755.07
3400.36
2856.8
2801.93
3065.48
3574.8
4233.49
4982.99
5753.93
6744.14
8672.01
19515.8
8421.71
3848.05
2022.2
1310.65
1062.41
1039.4
1157.78
1398
1745.83
2192.22
2717.92
3450.21
4788.36
16638.5
6469.93
2478.43
1035.43
550.864
404.634
385.059
431.088
532.95
696.658
934.022
1261.06
1762.91
2694.34
14390.7
5198.64
1772.3
614.275
258.681
160.37
143.186
158.911
199.596
272.677
393.762
590.012
928.226
1584.63
12198.4
4149.29
1306.3
398.28
135.803
67.04
53.3603
57.8541
73.9961
107.033
170.229
290.195
522.218
999.049
10148.7
3297.15
986.912
278.565
80.995
30.7402
20.0882
20.7838
27.6077
43.9785
80.2768
159.141
326.821
688.017
8670.53
2734.28
795.029
215.176
56.5404
16.7836
8.0818
7.60602
11.0462
20.8195
45.2495
103.284
234.229
523.355
7768.49
2416.69
694.049
184.601
46.2271
11.6903
4.00667
3.24012
5.63029
13.2223
33.3159
82.67
196.37
448.023
7773.11
2425.39
697.78
185.608
46.0087
10.9959
3.12783
2.28317
4.68688
12.418
32.6809
81.8107
193.651
437.703
8710.17
2733.83
784.277
208.442
52.372
13.1637
4.28424
3.47982
6.67767
16.3934
40.6294
97.4666
222.781
489.852
11844.8
3758.56
1084.94
294.248
78.6709
23.3296
10.3354
9.29271
14.456
29.031
62.5556
137.779
295.223
621.387
17276.7
5630.44
1727.37
530.235
172.033
65.8396
36.1151
31.9752
41.1579
66.9118
120.23
234.434
456.437
903.315
28834.6
10281.7
3953.28
1619.55
676.302
300.624
164.545
128.787
141.15
194.091
295.62
504.18
877.591
1600.97
23401.2
13800.3
8786.58
6126.77
4842.05
4425.31
4609.12
5190.37
6017.33
6925.97
7839.3
8755.02
9800.95
11509.5
14687.4
7089.54
3848.39
2429.96
1816.63
1615.95
1678.3
1938.02
2356.08
2888.59
3508.97
4196.17
5024.54
6333.48
12147.6
4991.5
2173.44
1115.67
727.699
604.579
611.204
709.854
892.18
1157.58
1507.9
1942.6
2523.24
3451.71
10551.1
3977.93
1479.62
606.723
320.404
234.796
225.008
258.356
330.928
450.011
627.635
880.533
1260.71
1901.66
9298.57
3262.54
1085.96
371.286
154.91
94.3809
83.1014
93.1581
120.692
171.709
258.316
401.744
646.406
1091.85
8027.03
2656.57
818.726
246.288
82.8512
39.7058
30.6035
33.1108
43.563
65.7124
108.955
192.177
352.804
672.006
6717.56
2124.6
622.713
173.181
49.615
18.2353
11.3825
11.6261
15.8476
26.305
49.9045
101.931
213.58
452.505
5583.03
1710.65
487.095
130.148
33.8967
9.87384
4.54196
4.16573
6.17193
12.0504
27.0764
63.6315
148.053
337.251
4743.44
1431.27
403.9
106.848
26.8133
6.78282
2.25921
1.74651
3.04686
7.35122
19.1252
49.0837
120.6
283.596
4317.72
1304.19
371.28
99.6156
25.2042
6.17623
1.7763
1.24833
2.5155
6.77234
18.3673
47.6654
117.233
274.655
4388.01
1335.4
383.882
105.03
27.5737
7.29405
2.50139
2.0425
3.79583
9.24304
23.28
57.4505
135.966
309.392
5410.46
1661.22
481.901
135.665
38.5122
12.3517
6.00432
5.69918
8.82648
17.4462
37.6476
84.0702
184.817
399.704
7357.81
2318.55
710.291
222.096
75.3036
31.4229
19.5283
19.0716
25.5308
41.6452
75.0764
146.48
289.023
580.136
12022.4
4222.08
1582.74
622.507
257.637
121.782
76.5733
69.3924
83.0697
117.65
180.938
303.893
524.017
939.359
11141.9
6529.49
4363.82
3271.73
2777.7
2705.01
2970.92
3498.9
4211.79
5013.04
5838.99
6686.1
7641.65
9039.61
7494.49
3636.32
2057.33
1386.65
1095.98
1011.82
1081.02
1284.95
1612.75
2045.64
2567.29
3163.93
3880.73
4941.13
6201.46
2575.64
1178.91
657.253
458.02
389.916
396.067
464.459
597.489
800.618
1080.18
1441.45
1924.65
2666.15
5382.15
2018.95
777.359
348.296
202.271
153.622
146.114
166.772
217.082
304.717
441.386
643.719
950.511
1452.5
4757.35
1650.67
558.815
204.392
94.6455
61.2333
53.5975
59.1907
77.6259
114.187
179.111
290.131
481.525
824.34
4106.4
1341.86
415.61
130.128
47.7473
24.8449
19.3539
20.619
27.4797
43.0659
74.8127
137.474
259.811
501.454
3393.49
1059.86
310.079
87.8786
26.6388
10.6774
6.94612
7.06942
9.82438
17.0531
33.9525
72.0116
154.898
332.903
2735.32
829.618
235.492
63.4555
17.0335
5.30106
2.61793
2.46306
3.76383
7.69987
18.0615
43.8663
104.756
243.094
2204.47
661.068
186.718
49.8412
12.7582
3.36281
1.20629
0.99617
1.81133
4.5461
12.2713
32.561
82.4846
198.984
1849.3
561.497
162.335
44.5622
11.594
2.949
0.910586
0.702141
1.46437
4.04599
11.3468
30.5294
77.8049
188.067
1699.04
529.207
158.59
45.646
12.6402
3.56584
1.36342
1.22635
2.29641
5.59543
14.3801
36.5676
89.4771
209.838
1808.23
580.881
181.703
55.8632
17.3731
6.20715
3.46003
3.59528
5.65838
11.1069
24.1269
54.8125
123.667
273.709
2165.9
714.768
236.191
80.735
30.5181
14.7757
10.8504
11.8536
16.6102
27.3602
49.799
98.002
197.552
403.093
3086.48
1068.93
392.83
157.743
73.7158
44.0389
36.2776
39.7403
52.0715
76.2146
119.441
201.091
354.004
645.845
6313.94
3939.53
2790.11
2179.53
1882.22
1837.88
2026.29
2423.27
2995.94
3679.76
4416.42
5197.44
6088.06
7333.93
4170.63
2179.1
1354.24
976.4
787.766
716.333
747.129
881.39
1124.11
1470.49
1910.24
2433.61
3074.95
4002.37
3289.52
1439.31
735.786
459.913
338.537
285.456
278.935
318.14
410.481
564.993
791.097
1097.36
1516.91
2155.21
2765.87
1060.13
445.208
229.057
147.592
114.004
104.27
114.281
147.621
212.227
319.961
487.272
747.633
1175.21
2364.95
823.916
294.692
122.321
65.4573
44.9964
38.3548
40.4855
52.4445
79.0574
129.568
219.814
379.545
669.415
1967.95
639.829
204.244
70.2352
30.1045
17.5654
13.7294
14.0369
18.5088
29.8723
54.4599
104.872
205.905
408.883
1559.32
483.097
143.564
43.1887
14.9093
6.9775
4.80221
4.7743
6.62377
11.9385
24.9871
55.307
123.032
271.18
1201.38
361.667
103.655
28.9486
8.46341
3.05591
1.70622
1.63814
2.54303
5.43006
13.3161
33.5094
82.4115
195.903
923.138
276.755
79.311
21.8038
5.88258
1.71102
0.709814
0.640427
1.20729
3.14941
8.82436
24.2075
63.2348
156.798
745.489
229.506
68.1784
19.3841
5.25657
1.41985
0.492253
0.431209
0.939623
2.68054
7.80174
21.7959
57.5976
143.896
666.226
214.969
67.5878
20.4458
5.94191
1.78734
0.771748
0.770874
1.47534
3.64706
9.65679
25.4552
64.668
157.015
685.727
234.208
78.6214
25.776
8.50811
3.30929
2.09133
2.35244
3.77346
7.43838
16.4432
38.3591
89.4478
204.221
794.459
284.404
102.681
37.8944
15.3746
8.17152
6.68351
7.81836
11.2827
18.8094
34.8266
70.016
145.499
305.043
1018.74
380.805
152.713
67.3038
34.906
23.5734
21.8421
25.8377
35.251
52.7603
84.4582
145.287
263.973
496.235
4392.37
2958.4
2194.78
1739.18
1480.48
1398.2
1495.28
1774.76
2223.61
2792.53
3438.44
4148.44
4989.37
6162.02
2749.35
1581.36
1073.44
807.32
650.414
571.07
567.64
649.114
827.795
1104.6
1475.31
1934.92
2519.84
3372.17
2003.58
951.176
549.11
376.111
285.426
235.498
218.679
237.869
302.085
421.448
607.389
870.917
1244.73
1821.93
1574.3
633.126
299.632
176.745
122.959
95.2596
83.3571
86.5078
108.783
157.867
245.533
388.149
617.677
1002.47
1259.69
446.95
175.25
85.2648
52.1397
37.3883
30.9474
30.9308
38.8241
59.0337
100.157
177.038
317.724
579.25
979.639
317.807
107.487
42.7938
21.9943
14.1905
11.0692
10.7838
13.8063
22.5807
42.8095
86.0437
175.489
359.595
725.348
221.855
67.927
22.7786
9.528
5.27846
3.81223
3.6732
4.9974
9.21534
20.1092
46.3174
106.562
241.359
526.876
156.461
45.4526
13.5368
4.59179
2.03577
1.29276
1.25345
1.9456
4.28676
10.9207
28.4016
71.853
174.901
390.446
116.738
33.8728
9.63756
2.81324
0.955256
0.48127
0.476809
0.924479
2.49037
7.20418
20.3417
54.5722
138.551
317.82
99.4283
30.158
8.76146
2.44869
0.709112
0.290245
0.301004
0.693075
2.04468
6.15468
17.7587
48.3767
124.163
297.358
99.4833
32.1649
9.87559
2.90614
0.920021
0.463142
0.530015
1.05652
2.68095
7.33947
20.0358
52.6793
131.853
325.335
116.389
40.1285
13.268
4.44212
1.86393
1.35549
1.65905
2.72831
5.45197
12.3484
29.7062
71.6772
168.729
394.782
148.993
55.1943
20.5131
8.52082
4.92449
4.47934
5.57114
8.24576
13.9312
26.321
54.3717
116.791
252.19
511.357
204.88
84.9058
37.7794
20.0923
14.5562
14.6345
18.2303
25.5499
38.9168
63.6934
112.925
212.652
413.773
3506
2510.56
1921.69
1530.61
1281.21
1167.53
1196.74
1383.07
1729.46
2198.01
2764.09
3417.44
4228.83
5378.76
2043.23
1285.91
931.287
719.214
578.222
494.346
469.975
515.978
647.356
869.799
1187.35
1599.44
2147.23
2960.3
1342.81
702.077
452.088
330.255
255.352
207.767
185.799
193.236
238.94
333.865
491.128
724.136
1067.75
1611
951.33
413.193
224.138
148.361
108.818
84.6147
72.0163
71.5713
87.1652
126.145
200.161
326.032
535.793
897.275
688.377
256.264
115.089
65.9798
44.7038
33.0372
26.9272
25.8845
31.45
47.7104
82.8009
151.111
280.26
527.275
487.427
161.542
61.0918
29.4258
17.7895
12.3224
9.63813
9.09416
11.3177
18.5649
36.1404
75.0735
158.028
333.409
332.283
101.886
33.6958
13.5133
6.99144
4.41694
3.30078
3.1159
4.15697
7.75446
17.4206
41.3739
97.8571
227.281
227.938
67.4264
20.4773
6.9268
2.90297
1.57028
1.09495
1.06625
1.64565
3.69554
9.67708
25.8282
66.8846
166.331
167.629
50.2882
14.9539
4.52721
1.50633
0.626698
0.378708
0.400025
0.786576
2.16553
6.42043
18.5566
50.8716
131.753
145.16
46.1047
14.1532
4.1647
1.206
0.388592
0.196149
0.236672
0.569562
1.73128
5.3666
15.9133
44.4271
116.505
151.009
51.2561
16.4875
4.97829
1.45987
0.497869
0.304395
0.39649
0.824528
2.16502
6.15222
17.3831
47.1061
120.889
182.521
65.4399
22.0847
7.09971
2.39394
1.12413
0.956611
1.25563
2.10637
4.2956
10.0592
25.0712
62.5491
151.318
237.003
88.9814
32.1174
11.6887
5.02908
3.26621
3.29814
4.28481
6.4307
11.0019
21.3206
45.4099
100.789
223.674
321.316
128.89
52.3862
23.0594
12.7568
10.0797
10.8647
13.9608
19.8112
30.5476
51.1729
93.4791
182.091
365.661
3042.73
2278.94
1780.11
1423.27
1179.81
1048.57
1036.19
1158.69
1428.92
1820.55
2325.07
2937.5
3730.96
4880.33
1649.69
1121.36
850.68
669.161
538.721
454.413
419.703
445.136
545.889
730.298
1008.84
1387.24
1909.93
2702.14
975.715
565.603
397.182
302.67
237.414
192.612
168.992
170.587
205.485
284.524
422.288
634.529
957.745
1480.56
614.974
297.265
183.801
131.895
100.042
78.4243
66.0979
64.1572
76.18
109.068
174.38
289.105
485.589
833.018
395.137
161.497
85.228
55.7397
40.268
30.4352
24.8017
23.44
27.8496
41.8188
73.1387
135.818
257.353
496.133
250.938
89.2337
39.8602
23.0114
15.5086
11.2277
8.87368
8.28146
10.1181
16.4804
32.4043
68.5357
147.339
318.372
157.162
50.4011
19.217
9.47535
5.76727
3.94492
3.0267
2.84544
3.74592
6.97588
15.8732
38.3912
92.6347
219.99
103.503
31.3453
10.4275
4.2104
2.1617
1.3414
0.99254
0.974162
1.4931
3.36701
8.94536
24.3042
64.1408
162.807
78.644
23.8718
7.33822
2.41763
0.945759
0.477312
0.329168
0.361567
0.71276
1.98117
5.96934
17.5722
49.0977
129.662
75.0139
23.8685
7.25354
2.12754
0.644783
0.241359
0.151165
0.202762
0.500621
1.55436
4.92919
14.9497
42.6492
114.124
86.7458
28.9577
8.9681
2.5964
0.758014
0.292982
0.223241
0.321273
0.689747
1.86779
5.48247
15.9576
44.411
116.596
112.949
39.1999
12.587
3.8785
1.34541
0.74547
0.73974
1.01968
1.73309
3.60392
8.70011
22.3941
57.6146
142.965
153.755
55.6794
19.2135
6.87026
3.17831
2.38633
2.64047
3.53184
5.33864
9.21484
18.2177
39.8707
91.2877
207.954
216.858
84.7023
33.4262
14.7861
8.811
7.70579
8.81296
11.5634
16.498
25.57
43.4688
81.2755
163.112
336.431
1023.62
1237.37
1572.42
2034.37
2620.77
3416.15
4588.88
404.504
484.524
642.237
893.652
1248.53
1759.84
2547.17
157.736
185.981
254.352
378.604
575.959
886.873
1399.51
59.8465
69.8737
98.7727
158.04
264.65
451.995
791.282
21.9431
25.7597
38.2381
66.8855
125.336
241.18
474.995
7.75757
9.40403
15.1733
29.8671
63.7778
139.316
307.861
2.66356
3.48867
6.45522
14.7428
36.0665
88.5328
215.08
0.910134
1.38957
3.12657
8.3704
23.0606
61.9913
160.925
41.1351
12.6633
4.0571
1.48084
0.678905
0.395623
0.296942
0.334689
0.658601
1.83811
5.60911
16.7963
47.8798
129.252
43.3847
13.5656
4.01519
1.17257
0.382119
0.170547
0.126771
0.180361
0.450868
1.42262
4.60446
14.2746
41.6483
113.932
54.5131
17.4925
5.12459
1.41225
0.420035
0.193904
0.17883
0.273135
0.598189
1.66153
5.02139
15.0364
42.9556
115.439
74.5756
24.6277
7.44428
2.20773
0.820621
0.550538
0.613437
0.868911
1.48537
3.13551
7.77952
20.6575
54.7363
139.273
104.682
36.2059
11.9413
4.28169
2.21058
1.90683
2.24817
3.05303
4.61649
8.00334
16.0915
36.1468
85.2256
199.255
151.781
57.6071
22.3466
10.2274
6.71386
6.42124
7.65041
10.1531
14.4803
22.4448
38.4492
73.1221
150.394
318.006
116925
215125
355929
532289
738846
953425
68527.2
136817
254026
438014
714763
1.06972e+06
44104.1
95252.8
198826
390658
732174
1.24281e+06
30768.2
72433.2
166217
365574
765613
1.42077e+06
23922.3
61311.8
153484
367949
822340
1.55137e+06
20868.5
56903.2
152472
388615
909852
1.59908e+06
20078.1
56010.8
154824
408782
979966
1.56335e+06
20428.1
55993.2
154227
419127
960629
1.43982e+06
21304.6
55490.4
149319
410637
873503
1.27914e+06
21926.1
53488.8
139801
376235
756543
1.08944e+06
22293.4
50177.6
124525
328712
645188
896461
22649.4
46602.5
111378
285469
545338
727025
23294.2
44080.9
102272
250992
456789
600390
25855.4
50003.1
109578
226030
369973
499774
47085.9
98197.9
182138
305183
487024
777708
31905.3
67086.5
131936
252772
468437
859718
21976.6
49901.9
109761
238634
509056
1.06392e+06
16229
40186.2
98079.3
239040
574642
1.32314e+06
13402.1
36130.7
96965.9
258297
664595
1.55992e+06
12463.5
35499.7
100922
283436
751188
1.69209e+06
12747.4
36741
106175
303984
815234
1.68627e+06
13614
37951
107156
304068
817150
1.54323e+06
14660.5
38297.6
103562
290419
748474
1.33614e+06
15570.2
37758.7
96428.6
260365
635791
1.09906e+06
16313.9
36113
85730.1
221906
515464
866252
16963.4
34122.3
75483.2
185340
402730
654844
17725.1
32382.6
66455.5
155486
314117
488761
19370.9
33837.8
65504
132016
234688
356348
18759.9
39451.2
77301.5
141621
248872
448381
14041.8
29982
60853.7
120729
243992
506515
10559.4
24109.1
53896.2
120648
278944
671965
8494.28
21189.5
52552.6
132116
345326
931701
7617.22
20761.2
56707.7
157313
443712
1.23322e+06
7649.15
22150.6
64356.4
189132
546762
1.46265e+06
8331.11
24509.8
72517.7
216647
619990
1.54244e+06
9349.55
26618
76614.2
223988
628449
1.45677e+06
10452
27792.3
75656.2
213133
582380
1.26489e+06
11439.7
27979.2
70981.1
188344
491684
1.011e+06
12283.1
27275
63469.4
157168
387371
756612
13045.5
26173.8
55745
127300
287664
532869
13886.8
25140.3
49081.1
104003
212603
364588
15281.4
25614.8
46192.7
85412.4
149613
240332
10131.8
20313
39352.1
73692.5
137135
266866
8017.99
16356.9
32923.9
66503.6
140119
315074
6276.49
13642.5
30001.2
67671.6
163701
433404
5254.15
12601.1
30963.3
78667.4
214649
631803
4866.65
12957.6
35357.9
99547.7
293931
888706
5050.92
14592.5
42840.7
128503
388165
1.12847e+06
5689.73
16965.5
51161.6
156433
467032
1.26528e+06
6601.4
19227.4
56584.2
169162
491427
1.2454e+06
7620.27
20798.8
57624.3
164305
461866
1.11259e+06
8578.26
21416.4
54755.8
145450
388927
894252
9433.52
21246
49404.7
120676
300281
656276
10231.3
20673.5
43522.2
96742.1
217021
445992
11110.2
20136.4
38508.8
78383.3
156566
290437
12411.4
20520.7
35745.2
64460.7
109820
182106
7185.81
13607.9
25238.1
46335.8
87036.5
174842
5880.61
11277.5
21740.4
43157.3
91671.5
210080
4654.7
9495.76
20014.3
44669.8
110124
299104
3895.65
8824.27
21071.7
53841.1
151697
456395
3567.3
9116.4
24683.6
70780.5
217012
667492
3664.04
10427.1
30986.7
95196.6
297632
880634
4138.93
12450.2
38366.9
120177
370227
1.02874e+06
4881.83
14507.7
43683
133334
396680
1.0359e+06
5762.73
16087.2
45419.7
131244
375272
935162
6613.17
16803.5
43430.4
115958
313955
753646
7404.71
16911.5
39487.1
95891
237449
544208
8194.51
16703.6
35036.7
76770.5
169477
364235
9100.41
16561.8
31342.5
62325.3
122159
234502
10409.7
17139.6
29378.1
51974.3
88208.2
147055
6023.24
10949.3
19401.2
34243.8
62636.1
125164
4999.69
9160.26
16804.7
31859.7
65420.7
147824
3955.94
7673.45
15308.1
32653.7
78470.3
211774
3266.98
6994.05
15872.1
39443.6
111096
338676
2910.8
7052.23
18471.8
52745
164111
518789
2895.63
7947.19
23358.1
72366.6
230544
702536
3200.96
9504.07
29417.8
93224.3
293388
837807
3767.46
11221.3
34124.5
105264
318024
849727
4500.91
12668
36110.7
105043
302906
770977
5242.91
13414.7
34827.1
93362
254242
622216
5963.48
13682.9
31975.5
77291.6
189417
445806
6731.01
13760.1
28736.9
62236.5
135086
296619
7666.88
13973.5
26222
51266
99512.4
194132
9035.13
14844
25202.1
44075.5
75444.9
127366
5552.01
9881.38
17024.7
29067.6
51236.2
98994.4
4601.8
8263.54
14706.1
26791.6
52589.2
114753
3632.72
6880.67
13181.7
26698.9
60812
157033
2968.53
6128.65
13188.4
31009.5
83335.8
249229
2584.09
5964.94
14784.9
40393
122283
388077
2481.32
6476.88
18246.9
55076.2
173800
537627
2650.62
7573.96
22849.6
71509.8
225467
657513
3063.01
8928.27
26794.6
82242.6
249090
677689
3662.85
10195.6
28886.8
83767.9
241548
622663
4314.89
10978.6
28387.6
75963
205757
508727
4998.65
11359.4
26417.3
63506.7
154630
367430
5734.55
11658.8
24190.5
51882.1
112278
247336
6699.34
12182.1