/*--------------------------------*- C++ -*----------------------------------*\
| =========                 |                                                 |
| \\      /  F ield         | OpenFOAM: The Open Source CFD Toolbox           |
|  \\    /   O peration     | Version:  v2106                                 |
|   \\  /    A nd           | Website:  www.openfoam.com                      |
|    \\/     M anipulation  |                                                 |
\*---------------------------------------------------------------------------*/
FoamFile
{
    version     2.0;
    format      ascii;
    arch        "LSB;label=32;scalar=64";
    class       volScalarField;
    location    "0.000188";
    object      alphat;
}
// * * * * * * * * * * * * * * * * * * * * * * * * * * * * * * * * * * * * * //

dimensions      [1 -1 -1 0 0 0 0];

internalField   nonuniform List<scalar> 
17920
(
9.46836e-17
9.46896e-17
9.46905e-17
9.46967e-17
9.46966e-17
9.47028e-17
9.47032e-17
9.47095e-17
9.47095e-17
9.47157e-17
9.4716e-17
9.47221e-17
9.47224e-17
9.47283e-17
9.47289e-17
9.47345e-17
9.47355e-17
9.47407e-17
9.47421e-17
9.4747e-17
9.47488e-17
9.47533e-17
9.47557e-17
9.476e-17
9.47625e-17
9.47669e-17
9.47696e-17
9.47748e-17
9.42959e-17
9.42975e-17
9.42999e-17
9.43023e-17
9.43048e-17
9.43072e-17
9.43097e-17
9.43122e-17
9.43147e-17
9.43172e-17
9.43196e-17
9.43221e-17
9.43246e-17
9.43276e-17
9.4301e-17
9.43026e-17
9.43051e-17
9.43075e-17
9.43101e-17
9.43126e-17
9.43152e-17
9.43178e-17
9.43204e-17
9.43231e-17
9.43257e-17
9.43284e-17
9.43309e-17
9.4334e-17
9.43064e-17
9.4308e-17
9.43106e-17
9.43131e-17
9.43157e-17
9.43182e-17
9.43208e-17
9.43235e-17
9.43261e-17
9.43288e-17
9.43315e-17
9.43341e-17
9.43367e-17
9.43399e-17
9.43118e-17
9.43136e-17
9.43162e-17
9.43187e-17
9.43214e-17
9.4324e-17
9.43266e-17
9.43293e-17
9.4332e-17
9.43347e-17
9.43375e-17
9.43402e-17
9.43429e-17
9.43461e-17
9.43174e-17
9.43194e-17
9.4322e-17
9.43245e-17
9.43272e-17
9.43298e-17
9.43325e-17
9.43352e-17
9.43379e-17
9.43407e-17
9.43435e-17
9.43462e-17
9.4349e-17
9.43521e-17
9.43231e-17
9.43254e-17
9.4328e-17
9.43305e-17
9.43331e-17
9.43358e-17
9.43385e-17
9.43412e-17
9.4344e-17
9.43467e-17
9.43496e-17
9.43523e-17
9.43552e-17
9.43582e-17
9.4329e-17
9.43314e-17
9.4334e-17
9.43366e-17
9.43392e-17
9.43419e-17
9.43446e-17
9.43473e-17
9.435e-17
9.43528e-17
9.43556e-17
9.43584e-17
9.43613e-17
9.43642e-17
9.43351e-17
9.43376e-17
9.43401e-17
9.43427e-17
9.43453e-17
9.4348e-17
9.43507e-17
9.43534e-17
9.43562e-17
9.43589e-17
9.43618e-17
9.43645e-17
9.43673e-17
9.43701e-17
9.43412e-17
9.43439e-17
9.43463e-17
9.43489e-17
9.43516e-17
9.43542e-17
9.43569e-17
9.43596e-17
9.43624e-17
9.43651e-17
9.43679e-17
9.43706e-17
9.43733e-17
9.43759e-17
9.43474e-17
9.43502e-17
9.43526e-17
9.43552e-17
9.43578e-17
9.43605e-17
9.43631e-17
9.43658e-17
9.43685e-17
9.43712e-17
9.43739e-17
9.43765e-17
9.43792e-17
9.43815e-17
9.43536e-17
9.43565e-17
9.43589e-17
9.43615e-17
9.43642e-17
9.43668e-17
9.43694e-17
9.43721e-17
9.43747e-17
9.43774e-17
9.43799e-17
9.43824e-17
9.43849e-17
9.4387e-17
9.436e-17
9.43629e-17
9.43652e-17
9.43679e-17
9.43705e-17
9.43732e-17
9.43757e-17
9.43783e-17
9.43809e-17
9.43834e-17
9.43858e-17
9.43881e-17
9.43906e-17
9.43925e-17
9.43662e-17
9.43692e-17
9.43716e-17
9.43743e-17
9.43769e-17
9.43795e-17
9.43821e-17
9.43846e-17
9.43871e-17
9.43895e-17
9.43917e-17
9.43939e-17
9.43961e-17
9.4398e-17
9.43733e-17
9.43759e-17
9.43783e-17
9.43809e-17
9.43834e-17
9.43859e-17
9.43884e-17
9.43907e-17
9.43931e-17
9.43953e-17
9.43974e-17
9.43995e-17
9.44017e-17
9.44038e-17
9.39872e-17
9.39876e-17
9.39886e-17
9.39896e-17
9.39906e-17
9.39915e-17
9.39923e-17
9.3993e-17
9.39936e-17
9.3994e-17
9.39942e-17
9.39944e-17
9.39944e-17
9.3995e-17
9.39913e-17
9.39918e-17
9.39928e-17
9.39938e-17
9.39948e-17
9.39957e-17
9.39965e-17
9.39972e-17
9.39977e-17
9.39981e-17
9.39984e-17
9.39986e-17
9.39987e-17
9.39992e-17
9.39953e-17
9.39958e-17
9.3997e-17
9.3998e-17
9.3999e-17
9.39999e-17
9.40008e-17
9.40014e-17
9.4002e-17
9.40024e-17
9.40026e-17
9.40028e-17
9.40028e-17
9.40034e-17
9.39993e-17
9.4e-17
9.40012e-17
9.40022e-17
9.40033e-17
9.40042e-17
9.4005e-17
9.40057e-17
9.40062e-17
9.40066e-17
9.40069e-17
9.40071e-17
9.40072e-17
9.40076e-17
9.40032e-17
9.40041e-17
9.40053e-17
9.40064e-17
9.40075e-17
9.40084e-17
9.40092e-17
9.40099e-17
9.40105e-17
9.40109e-17
9.40112e-17
9.40114e-17
9.40114e-17
9.40118e-17
9.40072e-17
9.40082e-17
9.40095e-17
9.40106e-17
9.40116e-17
9.40126e-17
9.40134e-17
9.40141e-17
9.40147e-17
9.40151e-17
9.40154e-17
9.40156e-17
9.40157e-17
9.4016e-17
9.40111e-17
9.40123e-17
9.40135e-17
9.40147e-17
9.40157e-17
9.40167e-17
9.40175e-17
9.40182e-17
9.40188e-17
9.40192e-17
9.40196e-17
9.40198e-17
9.40199e-17
9.40201e-17
9.40149e-17
9.40163e-17
9.40175e-17
9.40187e-17
9.40197e-17
9.40207e-17
9.40215e-17
9.40222e-17
9.40228e-17
9.40233e-17
9.40236e-17
9.40239e-17
9.4024e-17
9.40241e-17
9.40188e-17
9.40202e-17
9.40214e-17
9.40226e-17
9.40237e-17
9.40247e-17
9.40255e-17
9.40262e-17
9.40267e-17
9.40272e-17
9.40275e-17
9.40278e-17
9.4028e-17
9.4028e-17
9.40226e-17
9.40241e-17
9.40253e-17
9.40265e-17
9.40275e-17
9.40285e-17
9.40293e-17
9.403e-17
9.40305e-17
9.40309e-17
9.40312e-17
9.40314e-17
9.40317e-17
9.40317e-17
9.40263e-17
9.40279e-17
9.40291e-17
9.40303e-17
9.40313e-17
9.40323e-17
9.4033e-17
9.40336e-17
9.40341e-17
9.40345e-17
9.40348e-17
9.40349e-17
9.40352e-17
9.40351e-17
9.40301e-17
9.40318e-17
9.40329e-17
9.4034e-17
9.40351e-17
9.40359e-17
9.40366e-17
9.40372e-17
9.40376e-17
9.40379e-17
9.40381e-17
9.40382e-17
9.40385e-17
9.40383e-17
9.4034e-17
9.40355e-17
9.40366e-17
9.40378e-17
9.40387e-17
9.40395e-17
9.40401e-17
9.40406e-17
9.40409e-17
9.40412e-17
9.40413e-17
9.40414e-17
9.40416e-17
9.40414e-17
9.40382e-17
9.40395e-17
9.40405e-17
9.40415e-17
9.40424e-17
9.40431e-17
9.40436e-17
9.40439e-17
9.40441e-17
9.40443e-17
9.40443e-17
9.40443e-17
9.40445e-17
9.40443e-17
9.3702e-17
9.3702e-17
9.37022e-17
9.37023e-17
9.37024e-17
9.37023e-17
9.37021e-17
9.37017e-17
9.37011e-17
9.37004e-17
9.36994e-17
9.36982e-17
9.36968e-17
9.36956e-17
9.37048e-17
9.37048e-17
9.3705e-17
9.37051e-17
9.37052e-17
9.3705e-17
9.37048e-17
9.37043e-17
9.37036e-17
9.37027e-17
9.37017e-17
9.37004e-17
9.3699e-17
9.36976e-17
9.37072e-17
9.37072e-17
9.37075e-17
9.37077e-17
9.37078e-17
9.37076e-17
9.37073e-17
9.37068e-17
9.37061e-17
9.37052e-17
9.37041e-17
9.37028e-17
9.37013e-17
9.36998e-17
9.37095e-17
9.37097e-17
9.371e-17
9.37102e-17
9.37103e-17
9.37101e-17
9.37098e-17
9.37093e-17
9.37086e-17
9.37076e-17
9.37064e-17
9.37051e-17
9.37036e-17
9.37021e-17
9.37116e-17
9.37119e-17
9.37123e-17
9.37125e-17
9.37126e-17
9.37125e-17
9.37121e-17
9.37116e-17
9.37109e-17
9.37099e-17
9.37087e-17
9.37074e-17
9.37058e-17
9.37042e-17
9.37136e-17
9.3714e-17
9.37145e-17
9.37147e-17
9.37148e-17
9.37146e-17
9.37143e-17
9.37138e-17
9.3713e-17
9.3712e-17
9.37109e-17
9.37095e-17
9.3708e-17
9.37063e-17
9.37154e-17
9.37159e-17
9.37164e-17
9.37167e-17
9.37167e-17
9.37166e-17
9.37163e-17
9.37157e-17
9.3715e-17
9.3714e-17
9.37128e-17
9.37115e-17
9.371e-17
9.37083e-17
9.37171e-17
9.37177e-17
9.37182e-17
9.37184e-17
9.37185e-17
9.37184e-17
9.37181e-17
9.37175e-17
9.37167e-17
9.37158e-17
9.37146e-17
9.37133e-17
9.37118e-17
9.37102e-17
9.37186e-17
9.37193e-17
9.37198e-17
9.372e-17
9.37201e-17
9.372e-17
9.37196e-17
9.37191e-17
9.37183e-17
9.37173e-17
9.37162e-17
9.37149e-17
9.37134e-17
9.37118e-17
9.372e-17
9.37207e-17
9.37212e-17
9.37215e-17
9.37215e-17
9.37214e-17
9.3721e-17
9.37204e-17
9.37196e-17
9.37186e-17
9.37175e-17
9.37162e-17
9.37149e-17
9.37133e-17
9.37213e-17
9.3722e-17
9.37224e-17
9.37227e-17
9.37227e-17
9.37225e-17
9.37221e-17
9.37215e-17
9.37207e-17
9.37197e-17
9.37186e-17
9.37173e-17
9.3716e-17
9.37145e-17
9.37225e-17
9.37232e-17
9.37235e-17
9.37237e-17
9.37237e-17
9.37235e-17
9.3723e-17
9.37223e-17
9.37215e-17
9.37205e-17
9.37194e-17
9.37181e-17
9.37169e-17
9.37154e-17
9.37236e-17
9.37243e-17
9.37246e-17
9.37247e-17
9.37246e-17
9.37243e-17
9.37238e-17
9.3723e-17
9.37222e-17
9.37211e-17
9.372e-17
9.37188e-17
9.37177e-17
9.37162e-17
9.37248e-17
9.37253e-17
9.37255e-17
9.37255e-17
9.37253e-17
9.37249e-17
9.37244e-17
9.37236e-17
9.37227e-17
9.37216e-17
9.37205e-17
9.37193e-17
9.37181e-17
9.37168e-17
9.34364e-17
9.34365e-17
9.34365e-17
9.34364e-17
9.34362e-17
9.34358e-17
9.34352e-17
9.34344e-17
9.34334e-17
9.34322e-17
9.34309e-17
9.34292e-17
9.34275e-17
9.34254e-17
9.3438e-17
9.34382e-17
9.34382e-17
9.34381e-17
9.34378e-17
9.34373e-17
9.34367e-17
9.34358e-17
9.34347e-17
9.34334e-17
9.34319e-17
9.34302e-17
9.34284e-17
9.34262e-17
9.34393e-17
9.34394e-17
9.34395e-17
9.34394e-17
9.34391e-17
9.34387e-17
9.3438e-17
9.34371e-17
9.3436e-17
9.34347e-17
9.34331e-17
9.34313e-17
9.34293e-17
9.34271e-17
9.34403e-17
9.34405e-17
9.34406e-17
9.34406e-17
9.34403e-17
9.34398e-17
9.34391e-17
9.34382e-17
9.34371e-17
9.34357e-17
9.34341e-17
9.34322e-17
9.34302e-17
9.3428e-17
9.34411e-17
9.34414e-17
9.34416e-17
9.34415e-17
9.34412e-17
9.34408e-17
9.34401e-17
9.34391e-17
9.3438e-17
9.34365e-17
9.34349e-17
9.34331e-17
9.3431e-17
9.34287e-17
9.34418e-17
9.34421e-17
9.34423e-17
9.34422e-17
9.3442e-17
9.34415e-17
9.34408e-17
9.34398e-17
9.34386e-17
9.34372e-17
9.34356e-17
9.34337e-17
9.34316e-17
9.34293e-17
9.34422e-17
9.34425e-17
9.34427e-17
9.34427e-17
9.34424e-17
9.3442e-17
9.34412e-17
9.34403e-17
9.34391e-17
9.34376e-17
9.3436e-17
9.34341e-17
9.3432e-17
9.34298e-17
9.34424e-17
9.34427e-17
9.34429e-17
9.34429e-17
9.34426e-17
9.34422e-17
9.34414e-17
9.34404e-17
9.34392e-17
9.34378e-17
9.34361e-17
9.34343e-17
9.34322e-17
9.343e-17
9.34423e-17
9.34427e-17
9.34429e-17
9.34429e-17
9.34426e-17
9.34421e-17
9.34414e-17
9.34404e-17
9.34392e-17
9.34377e-17
9.34361e-17
9.34343e-17
9.34322e-17
9.34301e-17
9.34422e-17
9.34425e-17
9.34427e-17
9.34427e-17
9.34424e-17
9.34418e-17
9.34411e-17
9.34401e-17
9.34389e-17
9.34375e-17
9.34358e-17
9.3434e-17
9.34321e-17
9.34299e-17
9.34418e-17
9.34421e-17
9.34423e-17
9.34422e-17
9.34419e-17
9.34413e-17
9.34405e-17
9.34395e-17
9.34383e-17
9.34369e-17
9.34353e-17
9.34335e-17
9.34316e-17
9.34296e-17
9.34413e-17
9.34415e-17
9.34416e-17
9.34415e-17
9.34411e-17
9.34405e-17
9.34397e-17
9.34387e-17
9.34375e-17
9.34361e-17
9.34345e-17
9.34328e-17
9.3431e-17
9.3429e-17
9.34406e-17
9.34408e-17
9.34408e-17
9.34406e-17
9.34402e-17
9.34396e-17
9.34387e-17
9.34377e-17
9.34364e-17
9.34351e-17
9.34335e-17
9.34319e-17
9.34302e-17
9.34283e-17
9.34396e-17
9.34397e-17
9.34396e-17
9.34394e-17
9.3439e-17
9.34383e-17
9.34375e-17
9.34364e-17
9.34352e-17
9.34339e-17
9.34324e-17
9.34309e-17
9.34292e-17
9.34274e-17
9.31872e-17
9.31876e-17
9.31879e-17
9.31879e-17
9.31878e-17
9.31875e-17
9.3187e-17
9.31864e-17
9.31855e-17
9.31844e-17
9.31832e-17
9.31816e-17
9.318e-17
9.31779e-17
9.31882e-17
9.31886e-17
9.31888e-17
9.31889e-17
9.31888e-17
9.31884e-17
9.31879e-17
9.31872e-17
9.31863e-17
9.31851e-17
9.31838e-17
9.31822e-17
9.31805e-17
9.31783e-17
9.31888e-17
9.31893e-17
9.31895e-17
9.31896e-17
9.31895e-17
9.31892e-17
9.31887e-17
9.31879e-17
9.3187e-17
9.31858e-17
9.31843e-17
9.31827e-17
9.31809e-17
9.31787e-17
9.31892e-17
9.31897e-17
9.319e-17
9.31901e-17
9.319e-17
9.31897e-17
9.31891e-17
9.31884e-17
9.31874e-17
9.31862e-17
9.31847e-17
9.31831e-17
9.31812e-17
9.3179e-17
9.31895e-17
9.319e-17
9.31903e-17
9.31904e-17
9.31903e-17
9.31899e-17
9.31894e-17
9.31886e-17
9.31876e-17
9.31864e-17
9.31849e-17
9.31832e-17
9.31813e-17
9.31791e-17
9.31894e-17
9.319e-17
9.31903e-17
9.31904e-17
9.31903e-17
9.319e-17
9.31894e-17
9.31886e-17
9.31876e-17
9.31863e-17
9.31848e-17
9.31831e-17
9.31812e-17
9.31791e-17
9.31892e-17
9.31898e-17
9.31901e-17
9.31902e-17
9.31901e-17
9.31897e-17
9.31892e-17
9.31884e-17
9.31873e-17
9.31861e-17
9.31846e-17
9.31829e-17
9.31809e-17
9.31788e-17
9.31888e-17
9.31893e-17
9.31897e-17
9.31898e-17
9.31897e-17
9.31893e-17
9.31887e-17
9.31879e-17
9.31869e-17
9.31856e-17
9.31841e-17
9.31824e-17
9.31805e-17
9.31784e-17
9.31882e-17
9.31886e-17
9.3189e-17
9.31891e-17
9.3189e-17
9.31886e-17
9.3188e-17
9.31872e-17
9.31862e-17
9.31849e-17
9.31834e-17
9.31817e-17
9.31798e-17
9.31777e-17
9.31873e-17
9.31877e-17
9.31881e-17
9.31882e-17
9.3188e-17
9.31876e-17
9.3187e-17
9.31862e-17
9.31852e-17
9.31839e-17
9.31825e-17
9.31808e-17
9.31789e-17
9.31769e-17
9.31862e-17
9.31866e-17
9.31869e-17
9.3187e-17
9.31868e-17
9.31864e-17
9.31858e-17
9.3185e-17
9.3184e-17
9.31827e-17
9.31813e-17
9.31797e-17
9.31778e-17
9.31759e-17
9.31849e-17
9.31852e-17
9.31855e-17
9.31856e-17
9.31854e-17
9.3185e-17
9.31844e-17
9.31836e-17
9.31826e-17
9.31813e-17
9.31799e-17
9.31783e-17
9.31765e-17
9.31747e-17
9.31834e-17
9.31837e-17
9.31839e-17
9.31839e-17
9.31837e-17
9.31833e-17
9.31827e-17
9.31818e-17
9.31809e-17
9.31797e-17
9.31783e-17
9.31767e-17
9.31751e-17
9.31732e-17
9.31814e-17
9.31817e-17
9.31819e-17
9.3182e-17
9.31818e-17
9.31813e-17
9.31807e-17
9.318e-17
9.3179e-17
9.31779e-17
9.31766e-17
9.31751e-17
9.31735e-17
9.31717e-17
9.29534e-17
9.29543e-17
9.29548e-17
9.29552e-17
9.29554e-17
9.29554e-17
9.29552e-17
9.29548e-17
9.29542e-17
9.29534e-17
9.29525e-17
9.29513e-17
9.295e-17
9.29483e-17
9.29542e-17
9.29551e-17
9.29556e-17
9.2956e-17
9.29562e-17
9.29562e-17
9.2956e-17
9.29556e-17
9.2955e-17
9.29542e-17
9.29532e-17
9.29519e-17
9.29506e-17
9.29488e-17
9.29547e-17
9.29556e-17
9.29562e-17
9.29566e-17
9.29568e-17
9.29569e-17
9.29567e-17
9.29562e-17
9.29556e-17
9.29548e-17
9.29537e-17
9.29525e-17
9.2951e-17
9.29493e-17
9.29551e-17
9.29559e-17
9.29566e-17
9.2957e-17
9.29572e-17
9.29572e-17
9.2957e-17
9.29566e-17
9.2956e-17
9.29551e-17
9.29541e-17
9.29528e-17
9.29513e-17
9.29496e-17
9.29552e-17
9.29561e-17
9.29568e-17
9.29572e-17
9.29574e-17
9.29574e-17
9.29572e-17
9.29568e-17
9.29562e-17
9.29553e-17
9.29542e-17
9.29529e-17
9.29514e-17
9.29497e-17
9.29552e-17
9.2956e-17
9.29567e-17
9.29571e-17
9.29574e-17
9.29574e-17
9.29572e-17
9.29567e-17
9.29561e-17
9.29552e-17
9.29541e-17
9.29528e-17
9.29513e-17
9.29495e-17
9.29549e-17
9.29557e-17
9.29564e-17
9.29568e-17
9.29571e-17
9.29571e-17
9.29569e-17
9.29564e-17
9.29558e-17
9.29549e-17
9.29538e-17
9.29525e-17
9.2951e-17
9.29492e-17
9.29544e-17
9.29553e-17
9.29559e-17
9.29564e-17
9.29566e-17
9.29566e-17
9.29564e-17
9.29559e-17
9.29553e-17
9.29544e-17
9.29533e-17
9.2952e-17
9.29505e-17
9.29487e-17
9.29537e-17
9.29546e-17
9.29552e-17
9.29556e-17
9.29559e-17
9.29559e-17
9.29556e-17
9.29552e-17
9.29545e-17
9.29537e-17
9.29526e-17
9.29513e-17
9.29497e-17
9.2948e-17
9.29528e-17
9.29536e-17
9.29543e-17
9.29547e-17
9.29549e-17
9.29549e-17
9.29547e-17
9.29543e-17
9.29536e-17
9.29527e-17
9.29517e-17
9.29504e-17
9.29488e-17
9.29472e-17
9.29517e-17
9.29524e-17
9.29531e-17
9.29535e-17
9.29537e-17
9.29537e-17
9.29535e-17
9.29531e-17
9.29524e-17
9.29516e-17
9.29505e-17
9.29492e-17
9.29477e-17
9.29461e-17
9.29503e-17
9.2951e-17
9.29516e-17
9.29521e-17
9.29523e-17
9.29523e-17
9.29521e-17
9.29517e-17
9.29511e-17
9.29502e-17
9.29492e-17
9.29479e-17
9.29464e-17
9.29448e-17
9.29487e-17
9.29494e-17
9.295e-17
9.29504e-17
9.29506e-17
9.29506e-17
9.29505e-17
9.295e-17
9.29494e-17
9.29486e-17
9.29476e-17
9.29464e-17
9.2945e-17
9.29434e-17
9.29468e-17
9.29475e-17
9.29481e-17
9.29485e-17
9.29487e-17
9.29488e-17
9.29486e-17
9.29482e-17
9.29477e-17
9.29469e-17
9.29459e-17
9.29447e-17
9.29433e-17
9.29419e-17
9.27357e-17
9.27367e-17
9.27376e-17
9.27382e-17
9.27386e-17
9.27389e-17
9.27389e-17
9.27387e-17
9.27383e-17
9.27378e-17
9.27371e-17
9.27363e-17
9.27353e-17
9.27341e-17
9.27364e-17
9.27376e-17
9.27384e-17
9.27391e-17
9.27395e-17
9.27398e-17
9.27398e-17
9.27397e-17
9.27393e-17
9.27388e-17
9.27381e-17
9.27372e-17
9.27362e-17
9.2735e-17
9.27371e-17
9.27382e-17
9.27391e-17
9.27398e-17
9.27403e-17
9.27405e-17
9.27406e-17
9.27404e-17
9.27401e-17
9.27396e-17
9.27389e-17
9.2738e-17
9.27369e-17
9.27357e-17
9.27376e-17
9.27387e-17
9.27396e-17
9.27403e-17
9.27408e-17
9.2741e-17
9.27411e-17
9.2741e-17
9.27407e-17
9.27401e-17
9.27394e-17
9.27385e-17
9.27374e-17
9.27362e-17
9.27379e-17
9.2739e-17
9.27399e-17
9.27406e-17
9.27411e-17
9.27414e-17
9.27415e-17
9.27413e-17
9.2741e-17
9.27405e-17
9.27398e-17
9.27389e-17
9.27378e-17
9.27365e-17
9.2738e-17
9.27391e-17
9.274e-17
9.27407e-17
9.27412e-17
9.27415e-17
9.27416e-17
9.27415e-17
9.27412e-17
9.27406e-17
9.27399e-17
9.2739e-17
9.27379e-17
9.27366e-17
9.27379e-17
9.2739e-17
9.274e-17
9.27406e-17
9.27411e-17
9.27414e-17
9.27415e-17
9.27414e-17
9.27411e-17
9.27406e-17
9.27398e-17
9.27389e-17
9.27378e-17
9.27364e-17
9.27377e-17
9.27387e-17
9.27397e-17
9.27403e-17
9.27408e-17
9.27411e-17
9.27412e-17
9.27411e-17
9.27408e-17
9.27403e-17
9.27395e-17
9.27386e-17
9.27375e-17
9.27361e-17
9.27372e-17
9.27382e-17
9.27392e-17
9.27398e-17
9.27404e-17
9.27407e-17
9.27408e-17
9.27407e-17
9.27403e-17
9.27398e-17
9.27391e-17
9.27381e-17
9.2737e-17
9.27356e-17
9.27365e-17
9.27375e-17
9.27385e-17
9.27391e-17
9.27397e-17
9.274e-17
9.27401e-17
9.274e-17
9.27397e-17
9.27391e-17
9.27384e-17
9.27375e-17
9.27363e-17
9.2735e-17
9.27356e-17
9.27366e-17
9.27375e-17
9.27382e-17
9.27387e-17
9.27391e-17
9.27392e-17
9.27391e-17
9.27388e-17
9.27383e-17
9.27375e-17
9.27366e-17
9.27354e-17
9.27341e-17
9.27345e-17
9.27354e-17
9.27364e-17
9.27371e-17
9.27376e-17
9.2738e-17
9.27381e-17
9.2738e-17
9.27377e-17
9.27372e-17
9.27365e-17
9.27356e-17
9.27344e-17
9.27331e-17
9.27332e-17
9.27341e-17
9.2735e-17
9.27358e-17
9.27363e-17
9.27366e-17
9.27368e-17
9.27368e-17
9.27365e-17
9.2736e-17
9.27353e-17
9.27344e-17
9.27333e-17
9.2732e-17
9.27316e-17
9.27326e-17
9.27335e-17
9.27343e-17
9.27348e-17
9.27352e-17
9.27353e-17
9.27353e-17
9.27351e-17
9.27346e-17
9.2734e-17
9.27331e-17
9.2732e-17
9.27307e-17
9.25341e-17
9.25353e-17
9.25361e-17
9.25368e-17
9.25373e-17
9.25376e-17
9.25377e-17
9.25376e-17
9.25374e-17
9.2537e-17
9.25365e-17
9.25359e-17
9.25352e-17
9.25344e-17
9.25349e-17
9.2536e-17
9.25369e-17
9.25376e-17
9.25381e-17
9.25384e-17
9.25386e-17
9.25386e-17
9.25383e-17
9.2538e-17
9.25375e-17
9.25369e-17
9.25363e-17
9.25355e-17
9.25356e-17
9.25367e-17
9.25376e-17
9.25383e-17
9.25388e-17
9.25392e-17
9.25393e-17
9.25393e-17
9.25392e-17
9.25389e-17
9.25384e-17
9.25378e-17
9.25371e-17
9.25364e-17
9.25362e-17
9.25372e-17
9.25381e-17
9.25388e-17
9.25394e-17
9.25397e-17
9.25399e-17
9.25399e-17
9.25398e-17
9.25395e-17
9.2539e-17
9.25385e-17
9.25377e-17
9.2537e-17
9.25366e-17
9.25376e-17
9.25385e-17
9.25392e-17
9.25398e-17
9.25402e-17
9.25404e-17
9.25404e-17
9.25403e-17
9.254e-17
9.25395e-17
9.25389e-17
9.25382e-17
9.25374e-17
9.25368e-17
9.25379e-17
9.25388e-17
9.25395e-17
9.254e-17
9.25404e-17
9.25406e-17
9.25407e-17
9.25405e-17
9.25402e-17
9.25398e-17
9.25392e-17
9.25384e-17
9.25376e-17
9.25369e-17
9.2538e-17
9.25388e-17
9.25396e-17
9.25401e-17
9.25405e-17
9.25407e-17
9.25408e-17
9.25407e-17
9.25404e-17
9.25399e-17
9.25393e-17
9.25385e-17
9.25376e-17
9.25368e-17
9.25379e-17
9.25387e-17
9.25395e-17
9.254e-17
9.25404e-17
9.25407e-17
9.25407e-17
9.25406e-17
9.25403e-17
9.25398e-17
9.25392e-17
9.25384e-17
9.25374e-17
9.25366e-17
9.25376e-17
9.25385e-17
9.25392e-17
9.25398e-17
9.25402e-17
9.25404e-17
9.25405e-17
9.25404e-17
9.25401e-17
9.25396e-17
9.25389e-17
9.25381e-17
9.25371e-17
9.25362e-17
9.25371e-17
9.2538e-17
9.25388e-17
9.25394e-17
9.25398e-17
9.254e-17
9.25401e-17
9.254e-17
9.25397e-17
9.25392e-17
9.25385e-17
9.25377e-17
9.25367e-17
9.25356e-17
9.25365e-17
9.25374e-17
9.25382e-17
9.25387e-17
9.25392e-17
9.25394e-17
9.25395e-17
9.25394e-17
9.25391e-17
9.25386e-17
9.2538e-17
9.25371e-17
9.25362e-17
9.25348e-17
9.25358e-17
9.25367e-17
9.25374e-17
9.2538e-17
9.25384e-17
9.25387e-17
9.25388e-17
9.25387e-17
9.25385e-17
9.2538e-17
9.25373e-17
9.25364e-17
9.25355e-17
9.25339e-17
9.25348e-17
9.25357e-17
9.25364e-17
9.25371e-17
9.25375e-17
9.25378e-17
9.2538e-17
9.25379e-17
9.25376e-17
9.25371e-17
9.25365e-17
9.25357e-17
9.25347e-17
9.25328e-17
9.25338e-17
9.25347e-17
9.25354e-17
9.2536e-17
9.25365e-17
9.25368e-17
9.25369e-17
9.25369e-17
9.25367e-17
9.25363e-17
9.25357e-17
9.25348e-17
9.25338e-17
9.23483e-17
9.23492e-17
9.23498e-17
9.23503e-17
9.23506e-17
9.23508e-17
9.23509e-17
9.23508e-17
9.23507e-17
9.23505e-17
9.23502e-17
9.23499e-17
9.23495e-17
9.23489e-17
9.23489e-17
9.23496e-17
9.23502e-17
9.23507e-17
9.2351e-17
9.23513e-17
9.23514e-17
9.23514e-17
9.23513e-17
9.23511e-17
9.23508e-17
9.23505e-17
9.23501e-17
9.23499e-17
9.23494e-17
9.235e-17
9.23507e-17
9.23511e-17
9.23515e-17
9.23517e-17
9.23519e-17
9.23519e-17
9.23518e-17
9.23517e-17
9.23514e-17
9.23511e-17
9.23507e-17
9.23504e-17
9.23498e-17
9.23504e-17
9.2351e-17
9.23515e-17
9.23518e-17
9.23521e-17
9.23522e-17
9.23523e-17
9.23522e-17
9.23521e-17
9.23518e-17
9.23516e-17
9.23512e-17
9.23509e-17
9.23501e-17
9.23507e-17
9.23513e-17
9.23517e-17
9.23521e-17
9.23524e-17
9.23525e-17
9.23526e-17
9.23525e-17
9.23524e-17
9.23522e-17
9.23519e-17
9.23516e-17
9.23512e-17
9.23503e-17
9.23509e-17
9.23515e-17
9.23519e-17
9.23523e-17
9.23526e-17
9.23527e-17
9.23528e-17
9.23528e-17
9.23526e-17
9.23524e-17
9.23521e-17
9.23518e-17
9.23513e-17
9.23504e-17
9.2351e-17
9.23515e-17
9.2352e-17
9.23524e-17
9.23526e-17
9.23528e-17
9.23529e-17
9.23529e-17
9.23527e-17
9.23525e-17
9.23522e-17
9.23519e-17
9.23514e-17
9.23504e-17
9.2351e-17
9.23515e-17
9.2352e-17
9.23524e-17
9.23526e-17
9.23528e-17
9.23529e-17
9.23529e-17
9.23527e-17
9.23525e-17
9.23522e-17
9.23518e-17
9.23513e-17
9.23503e-17
9.23509e-17
9.23514e-17
9.23519e-17
9.23522e-17
9.23525e-17
9.23527e-17
9.23528e-17
9.23528e-17
9.23526e-17
9.23524e-17
9.23521e-17
9.23517e-17
9.23511e-17
9.23501e-17
9.23507e-17
9.23512e-17
9.23516e-17
9.2352e-17
9.23523e-17
9.23525e-17
9.23526e-17
9.23526e-17
9.23525e-17
9.23522e-17
9.23519e-17
9.23514e-17
9.23509e-17
9.23498e-17
9.23503e-17
9.23509e-17
9.23513e-17
9.23517e-17
9.2352e-17
9.23522e-17
9.23523e-17
9.23523e-17
9.23522e-17
9.23519e-17
9.23516e-17
9.23511e-17
9.23506e-17
9.23494e-17
9.23499e-17
9.23505e-17
9.23509e-17
9.23513e-17
9.23516e-17
9.23518e-17
9.2352e-17
9.2352e-17
9.23519e-17
9.23516e-17
9.23513e-17
9.23508e-17
9.23502e-17
9.23489e-17
9.23494e-17
9.23499e-17
9.23504e-17
9.23508e-17
9.23512e-17
9.23514e-17
9.23516e-17
9.23516e-17
9.23515e-17
9.23512e-17
9.23508e-17
9.23503e-17
9.23498e-17
9.23482e-17
9.23488e-17
9.23493e-17
9.23498e-17
9.23503e-17
9.23506e-17
9.23509e-17
9.2351e-17
9.23511e-17
9.2351e-17
9.23508e-17
9.23505e-17
9.235e-17
9.23492e-17
9.21773e-17
9.21775e-17
9.21776e-17
9.21776e-17
9.21777e-17
9.21777e-17
9.21777e-17
9.21777e-17
9.21777e-17
9.21776e-17
9.21776e-17
9.21775e-17
9.21775e-17
9.21775e-17
9.21773e-17
9.21774e-17
9.21775e-17
9.21776e-17
9.21776e-17
9.21777e-17
9.21777e-17
9.21777e-17
9.21777e-17
9.21777e-17
9.21776e-17
9.21776e-17
9.21775e-17
9.21777e-17
9.21773e-17
9.21774e-17
9.21775e-17
9.21775e-17
9.21776e-17
9.21776e-17
9.21776e-17
9.21776e-17
9.21776e-17
9.21776e-17
9.21776e-17
9.21776e-17
9.21776e-17
9.21777e-17
9.21773e-17
9.21774e-17
9.21774e-17
9.21775e-17
9.21775e-17
9.21776e-17
9.21776e-17
9.21776e-17
9.21776e-17
9.21776e-17
9.21776e-17
9.21776e-17
9.21777e-17
9.21777e-17
9.21773e-17
9.21774e-17
9.21774e-17
9.21774e-17
9.21775e-17
9.21775e-17
9.21775e-17
9.21775e-17
9.21776e-17
9.21776e-17
9.21776e-17
9.21776e-17
9.21777e-17
9.21777e-17
9.21774e-17
9.21774e-17
9.21774e-17
9.21774e-17
9.21774e-17
9.21775e-17
9.21775e-17
9.21775e-17
9.21775e-17
9.21776e-17
9.21776e-17
9.21776e-17
9.21777e-17
9.21777e-17
9.21774e-17
9.21774e-17
9.21774e-17
9.21774e-17
9.21774e-17
9.21774e-17
9.21774e-17
9.21775e-17
9.21775e-17
9.21775e-17
9.21776e-17
9.21776e-17
9.21777e-17
9.21777e-17
9.21773e-17
9.21774e-17
9.21773e-17
9.21774e-17
9.21774e-17
9.21774e-17
9.21774e-17
9.21774e-17
9.21775e-17
9.21775e-17
9.21775e-17
9.21776e-17
9.21776e-17
9.21777e-17
9.21773e-17
9.21773e-17
9.21773e-17
9.21773e-17
9.21773e-17
9.21773e-17
9.21774e-17
9.21774e-17
9.21774e-17
9.21775e-17
9.21775e-17
9.21775e-17
9.21776e-17
9.21776e-17
9.21773e-17
9.21773e-17
9.21772e-17
9.21772e-17
9.21773e-17
9.21773e-17
9.21773e-17
9.21774e-17
9.21774e-17
9.21774e-17
9.21774e-17
9.21775e-17
9.21775e-17
9.21775e-17
9.21772e-17
9.21772e-17
9.21772e-17
9.21772e-17
9.21772e-17
9.21773e-17
9.21773e-17
9.21774e-17
9.21774e-17
9.21774e-17
9.21774e-17
9.21774e-17
9.21774e-17
9.21774e-17
9.21771e-17
9.21771e-17
9.21771e-17
9.21771e-17
9.21772e-17
9.21772e-17
9.21773e-17
9.21773e-17
9.21774e-17
9.21774e-17
9.21774e-17
9.21774e-17
9.21773e-17
9.21773e-17
9.21771e-17
9.2177e-17
9.2177e-17
9.21771e-17
9.21772e-17
9.21772e-17
9.21773e-17
9.21774e-17
9.21774e-17
9.21774e-17
9.21774e-17
9.21773e-17
9.21773e-17
9.21773e-17
9.21769e-17
9.21769e-17
9.2177e-17
9.2177e-17
9.21771e-17
9.21772e-17
9.21773e-17
9.21774e-17
9.21774e-17
9.21774e-17
9.21774e-17
9.21774e-17
9.21774e-17
9.21773e-17
9.20198e-17
9.20193e-17
9.20188e-17
9.20185e-17
9.20182e-17
9.20181e-17
9.2018e-17
9.2018e-17
9.20181e-17
9.20182e-17
9.20184e-17
9.20187e-17
9.2019e-17
9.20195e-17
9.20192e-17
9.20187e-17
9.20183e-17
9.2018e-17
9.20177e-17
9.20176e-17
9.20175e-17
9.20174e-17
9.20175e-17
9.20176e-17
9.20178e-17
9.20181e-17
9.20184e-17
9.20188e-17
9.20188e-17
9.20183e-17
9.20178e-17
9.20175e-17
9.20172e-17
9.2017e-17
9.20169e-17
9.20169e-17
9.2017e-17
9.20171e-17
9.20173e-17
9.20176e-17
9.20179e-17
9.20183e-17
9.20184e-17
9.20179e-17
9.20174e-17
9.2017e-17
9.20168e-17
9.20166e-17
9.20165e-17
9.20165e-17
9.20165e-17
9.20167e-17
9.20169e-17
9.20171e-17
9.20175e-17
9.20179e-17
9.20181e-17
9.20176e-17
9.20171e-17
9.20167e-17
9.20164e-17
9.20162e-17
9.20161e-17
9.20161e-17
9.20162e-17
9.20163e-17
9.20165e-17
9.20168e-17
9.20172e-17
9.20176e-17
9.20178e-17
9.20173e-17
9.20168e-17
9.20165e-17
9.20162e-17
9.2016e-17
9.20158e-17
9.20158e-17
9.20159e-17
9.2016e-17
9.20163e-17
9.20166e-17
9.2017e-17
9.20174e-17
9.20177e-17
9.20172e-17
9.20167e-17
9.20163e-17
9.2016e-17
9.20158e-17
9.20156e-17
9.20156e-17
9.20157e-17
9.20158e-17
9.20161e-17
9.20164e-17
9.20168e-17
9.20173e-17
9.20176e-17
9.20171e-17
9.20166e-17
9.20162e-17
9.20159e-17
9.20157e-17
9.20155e-17
9.20155e-17
9.20156e-17
9.20157e-17
9.2016e-17
9.20163e-17
9.20167e-17
9.20172e-17
9.20175e-17
9.2017e-17
9.20165e-17
9.20162e-17
9.20159e-17
9.20157e-17
9.20155e-17
9.20155e-17
9.20155e-17
9.20157e-17
9.20159e-17
9.20163e-17
9.20167e-17
9.20172e-17
9.20176e-17
9.20171e-17
9.20166e-17
9.20162e-17
9.20159e-17
9.20157e-17
9.20156e-17
9.20156e-17
9.20156e-17
9.20158e-17
9.2016e-17
9.20163e-17
9.20168e-17
9.20173e-17
9.20177e-17
9.20172e-17
9.20168e-17
9.20164e-17
9.20161e-17
9.20159e-17
9.20158e-17
9.20157e-17
9.20158e-17
9.20159e-17
9.20161e-17
9.20165e-17
9.20169e-17
9.20174e-17
9.2018e-17
9.20175e-17
9.2017e-17
9.20166e-17
9.20164e-17
9.20162e-17
9.2016e-17
9.2016e-17
9.2016e-17
9.20162e-17
9.20164e-17
9.20167e-17
9.20171e-17
9.20176e-17
9.20183e-17
9.20177e-17
9.20174e-17
9.2017e-17
9.20167e-17
9.20165e-17
9.20164e-17
9.20164e-17
9.20164e-17
9.20165e-17
9.20167e-17
9.2017e-17
9.20173e-17
9.20178e-17
9.20188e-17
9.20182e-17
9.20177e-17
9.20174e-17
9.20171e-17
9.20169e-17
9.20168e-17
9.20168e-17
9.20168e-17
9.20169e-17
9.20171e-17
9.20173e-17
9.20177e-17
9.20183e-17
9.18749e-17
9.1874e-17
9.18732e-17
9.18727e-17
9.18723e-17
9.1872e-17
9.18719e-17
9.18719e-17
9.1872e-17
9.18722e-17
9.18725e-17
9.1873e-17
9.18735e-17
9.18742e-17
9.1874e-17
9.18732e-17
9.18725e-17
9.1872e-17
9.18715e-17
9.18712e-17
9.18711e-17
9.1871e-17
9.18711e-17
9.18714e-17
9.18717e-17
9.18721e-17
9.18726e-17
9.18731e-17
9.18733e-17
9.18725e-17
9.18718e-17
9.18712e-17
9.18708e-17
9.18705e-17
9.18703e-17
9.18703e-17
9.18704e-17
9.18706e-17
9.18709e-17
9.18713e-17
9.18718e-17
9.18723e-17
9.18727e-17
9.18719e-17
9.18712e-17
9.18706e-17
9.18702e-17
9.18699e-17
9.18697e-17
9.18696e-17
9.18697e-17
9.18699e-17
9.18702e-17
9.18706e-17
9.18712e-17
9.18717e-17
9.18722e-17
9.18715e-17
9.18707e-17
9.18701e-17
9.18697e-17
9.18693e-17
9.18692e-17
9.18691e-17
9.18692e-17
9.18694e-17
9.18697e-17
9.18701e-17
9.18707e-17
9.18712e-17
9.18718e-17
9.18711e-17
9.18703e-17
9.18698e-17
9.18693e-17
9.1869e-17
9.18688e-17
9.18687e-17
9.18688e-17
9.1869e-17
9.18693e-17
9.18697e-17
9.18703e-17
9.18709e-17
9.18716e-17
9.18708e-17
9.18701e-17
9.18695e-17
9.1869e-17
9.18687e-17
9.18685e-17
9.18684e-17
9.18685e-17
9.18687e-17
9.1869e-17
9.18695e-17
9.18701e-17
9.18707e-17
9.18714e-17
9.18706e-17
9.18699e-17
9.18693e-17
9.18689e-17
9.18686e-17
9.18683e-17
9.18683e-17
9.18684e-17
9.18686e-17
9.18689e-17
9.18693e-17
9.187e-17
9.18706e-17
9.18713e-17
9.18706e-17
9.18699e-17
9.18693e-17
9.18689e-17
9.18686e-17
9.18683e-17
9.18683e-17
9.18683e-17
9.18685e-17
9.18689e-17
9.18693e-17
9.187e-17
9.18707e-17
9.18714e-17
9.18707e-17
9.187e-17
9.18695e-17
9.1869e-17
9.18687e-17
9.18685e-17
9.18684e-17
9.18685e-17
9.18687e-17
9.1869e-17
9.18695e-17
9.18701e-17
9.18708e-17
9.18717e-17
9.1871e-17
9.18703e-17
9.18698e-17
9.18693e-17
9.1869e-17
9.18687e-17
9.18687e-17
9.18687e-17
9.18689e-17
9.18692e-17
9.18697e-17
9.18704e-17
9.18711e-17
9.18721e-17
9.18714e-17
9.18707e-17
9.18702e-17
9.18697e-17
9.18694e-17
9.18691e-17
9.1869e-17
9.18691e-17
9.18692e-17
9.18696e-17
9.187e-17
9.18707e-17
9.18714e-17
9.18726e-17
9.18719e-17
9.18713e-17
9.18707e-17
9.18703e-17
9.18699e-17
9.18697e-17
9.18695e-17
9.18696e-17
9.18697e-17
9.187e-17
9.18705e-17
9.18711e-17
9.18718e-17
9.18734e-17
9.18726e-17
9.18719e-17
9.18713e-17
9.18709e-17
9.18705e-17
9.18703e-17
9.18701e-17
9.18701e-17
9.18702e-17
9.18705e-17
9.18709e-17
9.18716e-17
9.18724e-17
9.17416e-17
9.17407e-17
9.17401e-17
9.17395e-17
9.17392e-17
9.17389e-17
9.17388e-17
9.17388e-17
9.17389e-17
9.17391e-17
9.17393e-17
9.17397e-17
9.17402e-17
9.17407e-17
9.17408e-17
9.17401e-17
9.17395e-17
9.17389e-17
9.17385e-17
9.17382e-17
9.1738e-17
9.1738e-17
9.17381e-17
9.17383e-17
9.17386e-17
9.17389e-17
9.17394e-17
9.17398e-17
9.17402e-17
9.17395e-17
9.17388e-17
9.17382e-17
9.17378e-17
9.17375e-17
9.17374e-17
9.17373e-17
9.17374e-17
9.17376e-17
9.17378e-17
9.17382e-17
9.17386e-17
9.1739e-17
9.17396e-17
9.17389e-17
9.17382e-17
9.17377e-17
9.17373e-17
9.1737e-17
9.17368e-17
9.17367e-17
9.17368e-17
9.1737e-17
9.17372e-17
9.17376e-17
9.1738e-17
9.17384e-17
9.17391e-17
9.17384e-17
9.17378e-17
9.17372e-17
9.17368e-17
9.17365e-17
9.17363e-17
9.17362e-17
9.17363e-17