/*--------------------------------*- C++ -*----------------------------------*\
| =========                 |                                                 |
| \\      /  F ield         | OpenFOAM: The Open Source CFD Toolbox           |
|  \\    /   O peration     | Version:  v2106                                 |
|   \\  /    A nd           | Website:  www.openfoam.com                      |
|    \\/     M anipulation  |                                                 |
\*---------------------------------------------------------------------------*/
FoamFile
{
    version     2.0;
    format      ascii;
    arch        "LSB;label=32;scalar=64";
    class       volScalarField;
    location    "0.00015";
    object      T;
}
// * * * * * * * * * * * * * * * * * * * * * * * * * * * * * * * * * * * * * //

dimensions      [0 0 0 1 0 0 0];

internalField   nonuniform List<scalar> 
18273
(
292.745
292.772
292.911
293.096
293.331
293.546
293.697
293.844
293.901
294.079
294.215
294.283
294.358
294.315
292.552
292.564
292.719
292.961
293.189
293.374
293.496
293.599
293.685
293.814
293.957
294.037
294.133
294.213
292.616
292.618
292.766
292.973
293.16
293.283
293.374
293.43
293.492
293.583
293.698
293.798
293.92
294.094
292.614
292.671
292.828
293.02
293.159
293.215
293.275
293.311
293.369
293.435
293.52
293.63
293.763
293.96
292.716
292.812
292.959
293.09
293.163
293.197
293.237
293.258
293.294
293.339
293.424
293.492
293.668
293.909
292.871
292.937
293.044
293.117
293.124
293.133
293.149
293.185
293.24
293.296
293.359
293.446
293.624
293.869
293.063
293.122
293.142
293.121
293.078
293.074
293.103
293.155
293.222
293.287
293.361
293.469
293.673
293.923
293.161
293.101
293.073
293.041
292.991
293.007
293.067
293.133
293.217
293.3
293.397
293.538
293.808
294.055
293.179
293.063
292.968
292.916
292.928
292.987
293.084
293.164
293.255
293.345
293.478
293.672
294.019
294.275
293.179
292.928
292.79
292.72
292.793
292.925
293.1
293.223
293.342
293.467
293.672
293.893
294.264
294.494
293.13
292.77
292.643
292.568
292.698
292.907
293.189
293.371
293.518
293.634
293.868
294.077
294.429
294.656
293.136
292.702
292.58
292.512
292.655
292.895
293.262
293.514
293.716
293.848
294.087
294.277
294.578
294.761
293.3
292.861
292.734
292.644
292.773
293.026
293.405
293.701
293.962
294.106
294.297
294.466
294.719
294.905
293.438
293.074
292.957
292.889
292.999
293.211
293.523
293.864
294.176
294.427
294.641
294.82
294.964
294.961
292.283
292.328
292.224
292.396
292.695
292.988
293.117
293.103
293.027
292.877
292.668
292.641
292.64
292.994
291.296
291.52
291.701
292.135
292.56
292.894
293.019
293.044
293.001
292.945
292.81
292.762
292.759
293.067
290.878
291.202
291.61
292.132
292.57
292.834
292.933
292.942
292.945
292.922
292.856
292.767
292.767
293.033
290.525
291.094
291.738
292.274
292.618
292.778
292.857
292.875
292.875
292.873
292.863
292.821
292.849
292.962
290.591
291.343
292.032
292.448
292.668
292.732
292.782
292.8
292.796
292.807
292.833
292.868
292.94
293.059
290.831
291.652
292.236
292.531
292.646
292.653
292.686
292.718
292.742
292.756
292.802
292.867
292.988
293.135
291.208
291.926
292.342
292.503
292.58
292.588
292.619
292.665
292.696
292.723
292.785
292.86
292.974
293.079
291.55
291.98
292.251
292.403
292.454
292.505
292.559
292.622
292.675
292.716
292.79
292.87
292.987
293.125
291.729
291.886
291.995
292.128
292.271
292.439
292.552
292.647
292.698
292.729
292.785
292.841
292.946
292.988
291.783
291.637
291.573
291.691
291.923
292.254
292.508
292.656
292.722
292.743
292.79
292.819
292.905
292.831
291.88
291.424
291.197
291.175
291.442
291.929
292.392
292.656
292.732
292.722
292.746
292.718
292.814
292.703
292.069
291.227
290.85
290.656
290.902
291.423
292.051
292.506
292.696
292.736
292.801
292.802
292.954
292.893
292.564
291.5
290.895
290.466
290.523
290.907
291.541
292.212
292.635
292.816
292.906
292.967
293.145
293.098
292.944
291.722
290.888
290.385
290.312
290.5
291.01
291.808
292.477
292.914
293.143
293.398
293.608
293.595
289.755
290.535
291.158
291.963
292.614
292.922
292.956
292.914
292.707
292.282
291.658
291.189
290.753
290.943
288.507
289.694
290.712
291.76
292.504
292.895
293.049
293.014
292.897
292.667
292.208
291.869
291.528
291.675
288.243
289.657
290.81
291.819
292.499
292.914
293.097
293.095
293.065
292.87
292.543
292.23
291.997
292.088
288.132
289.792
291.113
292.039
292.566
292.926
293.121
293.172
293.156
293.043
292.829
292.59
292.451
292.453
288.518
290.3
291.566
292.309
292.679
292.949
293.133
293.2
293.202
293.148
293.033
292.898
292.824
292.835
289.206
290.88
291.911
292.404
292.678
292.908
293.063
293.152
293.199
293.197
293.158
293.083
292.982
292.93
290.069
291.344
292.019
292.385
292.643
292.846
293.009
293.105
293.154
293.159
293.135
293.073
292.99
292.909
290.753
291.513
291.908
292.209
292.462
292.705
292.902
293.012
293.064
293.07
293.03
292.941
292.819
292.688
291.092
291.454
291.62
291.852
292.18
292.519
292.768
292.891
292.917
292.882
292.77
292.617
292.451
292.312
291.063
291.047
291.129
291.305
291.687
292.184
292.555
292.731
292.741
292.676
292.532
292.331
292.099
291.785
290.887
290.505
290.419
290.543
290.967
291.64
292.196
292.494
292.526
292.416
292.221
291.968
291.785
291.376
290.599
289.737
289.498
289.499
289.928
290.753
291.592
292.146
292.336
292.277
292.124
291.899
291.823
291.29
290.525
289.217
288.676
288.452
288.769
289.542
290.605
291.52
292.066
292.132
292.03
291.804
291.713
291.234
290.1
288.577
287.807
287.386
287.523
288.151
289.284
290.564
291.531
292.039
292.106
292.136
292.144
291.808
294.443
294.603
294.535
294.586
294.647
294.816
294.152
294.227
294.38
294.557
294.727
294.987
294.176
294.337
294.554
294.833
295.078
295.342
294.149
294.423
294.762
295.136
295.461
295.674
294.22
294.593
295.077
295.515
295.854
296.004
294.287
294.758
295.362
295.821
296.174
296.358
294.41
294.922
295.615
296.091
296.454
296.632
294.57
295.051
295.777
296.255
296.624
296.771
294.813
295.263
295.909
296.322
296.686
296.824
294.997
295.357
295.914
296.257
296.605
296.745
295.09
295.364
295.846
296.121
296.426
296.571
295.159
295.319
295.688
295.885
296.128
296.303
295.278
295.381
295.61
295.715
295.874
296.019
295.237
295.274
295.558
295.668
295.797
295.962
293.574
294.037
294.453
294.897
295.213
295.614
293.049
293.633
294.399
295.169
295.811
296.282
293.225
293.776
294.648
295.545
296.309
296.772
293.155
293.71
294.644
295.616
296.46
296.889
293.316
293.817
294.724
295.649
296.494
296.808
293.415
293.837
294.684
295.514
296.396
296.61
293.352
293.651
294.42
295.068
295.913
296.059
293.39
293.427
294.03
294.417
295.117
295.111
293.196
293.138
293.64
293.883
294.423
294.475
293.045
293.032
293.57
293.769
294.186
294.281
292.996
293.178
293.731
293.89
294.25
294.335
293.231
293.401
293.904
294.158
294.571
294.752
293.651
293.965
294.556
294.875
295.309
295.506
294.124
294.534
295.228
295.684
296.136
296.421
291.626
292.095
292.596
293.342
294.094
294.93
291.483
292.022
292.971
294.059
295.123
295.974
292.172
292.663
293.704
294.668
295.655
296.278
292.596
293.007
293.998
294.851
295.674
295.785
292.958
293.233
294.047
294.77
295.543
295.018
292.948
293.192
293.789
294.209
294.886
293.625
292.943
292.957
293.264
293.209
293.591
291.685
292.618
292.414
292.434
291.918
291.968
289.283
292.107
291.624
291.509
290.624
290.348
287.44
291.568
290.958
290.846
289.922
289.413
286.791
291.237
290.645
290.584
289.827
289.38
287.47
291.146
290.613
290.64
290.346
290.447
289.593
291.58
291.371
291.715
292.026
292.535
292.469
291.968
292.166
292.96
293.772
294.594
295.015
295.269
295.479
295.626
295.834
295.941
296.114
295.133
295.452
295.726
295.957
296.13
296.338
295.116
295.465
295.83
296.108
296.322
296.491
295.043
295.465
295.91
296.234
296.48
296.62
294.89
295.336
295.853
296.243
296.585
296.792
294.567
294.989
295.607
296.129
296.574
296.865
294.213
294.652
295.32
295.901
296.445
296.836
293.863
294.315
294.994
295.634
296.212
296.639
293.62
294.12
294.753
295.343
295.882
296.287
293.447
293.956
294.528
295.068
295.528
295.901
293.355
293.861
294.404
294.915
295.316
295.67
293.524
294.009
294.497
294.934
295.337
295.669
293.664
294.146
294.671
295.182
295.559
295.823
293.993
294.562
295.184
295.719
296.003
296.26
294.497
295.143
295.775
296.374
296.732
297.024
293.987
294.806
295.649
296.369
296.955
297.297
293.819
294.541
295.471
296.249
296.905
297.283
293.453
294.017
294.818
295.511
296.224
296.507
293.06
293.245
293.767
294.275
295.012
295.311
292.283
292.173
292.566
293.074
293.801
294.089
291.451
291.3
291.664
292.244
292.971
293.523
290.745
290.83
291.305
292.013
292.717
293.534
290.471
290.743
291.288
292.169
292.904
293.852
290.485
290.994
291.689
292.739
293.557
294.403
290.825
291.615
292.599
293.78
294.627
295.427
291.658
292.637
293.849
295.12
295.996
296.634
292.76
293.822
295.084
296.321
297.162
297.746
293.893
295.004
296.216
297.318
297.978
298.551
292.892
293.607
294.372
295.188
295.827
296.414
292.5
293.309
294.263
295.117
295.92
296.446
292.607
293.265
294.136
294.731
295.408
295.766
292.301
292.609
293.169
293.454
293.848
293.5
291.843
291.463
291.369
291.204
291.347
290.567
290.72
289.719
289.043
288.506
288.621
287.694
289.316
287.949
287.195
286.743
286.948
286.2
287.805
286.611
286.275
286.148
286.469
286.02
286.867
286.117
286.128
286.492
286.918
287.443
286.677
286.447
286.932
287.978
288.888
290.201
287.004
287.285
288.284
290.033
291.573
293.84
287.834
288.477
290.042
292.424
294.447
296.607
289.233
290.269
292.129
294.613
296.693
298.768
290.692
292.057
294.138
296.469
298.184
299.902
295.057
294.739
294.341
293.691
293.176
292.859
294.642
294.338
293.964
293.471
293.097
292.783
294.462
294.097
293.776
293.329
293.006
292.698
294.545
294.149
293.803
293.308
292.972
292.661
294.754
294.319
293.884
293.343
292.998
292.726
295.188
294.699
294.135
293.495
293.107
292.855
295.6
295.057
294.421
293.717
293.272
293.037
295.979
295.46
294.801
294.052
293.528
293.286
296.144
295.686
295.072
294.364
293.772
293.397
296.281
295.899
295.365
294.693
294.046
293.522
296.408
296.079
295.588
294.903
294.188
293.515
296.619
296.293
295.832
295.111
294.375
293.574
296.674
296.338
295.967
295.33
294.58
293.678
296.358
296.153
296.035
295.477
294.913
294.109
297.312
296.575
295.885
294.558
293.46
292.605
296.172
295.43
294.687
293.439
292.433
291.7
294.877
294.066
293.343
292.149
291.392
290.919
293.735
292.793
292.111
291.074
290.599
290.308
292.885
291.841
291.152
290.311
290.146
290.119
292.49
291.384
290.71
290.014
289.955
290.147
292.302
291.291
290.565
290.016
290.015
290.427
292.473
291.678
290.941
290.468
290.441
290.943
293.125
292.582
291.816
291.326
291.183
291.489
294.526
294.058
293.257
292.625
292.188
291.948
296.183
295.669
294.845
293.955
293.099
292.316
297.605
297.128
296.351
295.254
294.105
292.871
298.461
297.877
297.11
295.963
294.73
293.295
298.267
297.899
297.575
296.653
295.666
294.381
298.858
296.727
294.719
292.202
290.495
289.539
297.313
294.525
292.369
290.158
288.899
288.443
294.297
291.826
289.97
288.126
287.397
287.324
290.909
288.979
287.787
286.63
286.341
286.785
287.617
286.485
285.895
285.371
285.587
286.731
285.343
284.916
284.709
284.681
285.381
287.138
284.274
284.57
284.325
284.748
285.881
288.096
284.541
285.001
284.87
285.639
287.132
289.253
286.006
286.546
286.51
287.408
288.713
290.257
288.955
289.396
289.321
289.873
290.449
290.948
292.536
292.606
292.209
291.978
291.565
291.164
295.949
295.383
294.502
293.526
292.393
291.311
298.274
297.216
295.945
294.344
292.73
291.192
299.368
298.205
297.088
295.522
294.008
292.301
294.858
294.674
294.634
294.563
294.374
294.357
295.238
295.064
294.989
294.938
294.76
294.641
295.741
295.536
295.362
295.167
294.85
294.592
296.227
296.014
295.722
295.381
294.931
294.578
296.631
296.387
295.966
295.483
294.911
294.481
296.979
296.703
296.143
295.483
294.784
294.297
297.241
296.844
296.178
295.432
294.699
294.237
297.287
296.885
296.18
295.347
294.584
294.042
297.189
296.728
295.986
295.113
294.357
293.83
297.043
296.578
295.832
294.87
294.083
293.541
296.763
296.205
295.44
294.495
293.713
293.155
296.372
295.843
295.192
294.307
293.561
292.925
295.881
295.399
294.849
294.071
293.344
292.615
295.467
295.112
294.847
294.191
293.687
293.08
294.553
294.243
293.938
293.644
293.173
292.915
293.832
293.619
293.419
293.369
293.11
292.934
293.421
293.212
293.02
293.057
292.878
292.793
293.347
293.262
293.085
293.004
292.747
292.736
293.549
293.51
293.171
293.008
292.706
292.866
294.109
294.075
293.49
293.229
292.895
293.088
295.098
294.997
294.189
293.69
293.195
293.257
296.47
296.15
295.118
294.308
293.615
293.301
297.362
296.961
295.865
294.754
293.771
293.23
298.025
297.545
296.443
295.115
293.867
293.044
298.198
297.593
296.5
295.098
293.792
292.775
298.419
297.752
296.695
295.249
293.91
292.711
298.19
297.505
296.541
295.143
293.823
292.529
298.009
297.365
296.746
295.6
294.573
293.39
292.222
291.8
291.119
290.608
290.196
290.268
289.433
289.572
289.366
289.633
289.911
290.519
286.504
287.658
287.968
288.822
289.517
290.584
284.861
287.114
287.854
289.047
289.849
291.079
284.703
287.471
288.24
289.65
290.471
291.67
285.905
288.874
289.431
290.699
291.427
292.317
288.399
291.001
291.173
291.983
292.357
292.766
291.395
293.21
292.937
293.12
292.961
292.973
293.874
295.106
294.508
294.103
293.421
293.085
296.021
296.473
295.578
294.614
293.47
292.887
297.514
297.192
295.98
294.594
293.162
292.261
298.735
297.786
296.178
294.357
292.671
291.47
299.229
297.814
296.027
293.877
292.007
290.603
299.847
298.031
296.408
294.466
292.876
291.36
288.332
290.333
291.775
293.084
294.127
294.708
294.913
294.74
294.305
293.465
292.366
291.382
290.59
290.55
287.18
289.463
291.193
292.763
293.788
294.514
294.767
294.726
294.535
294.084
293.324
292.581
291.967
292.018
287.231
289.541
291.356
292.823
293.783
294.359
294.64
294.694
294.623
294.343
293.821
293.261
292.949
293.023
287.43
289.885
291.851
293.116
293.822
294.267
294.521
294.62
294.623
294.486
294.225
293.907
293.729
293.711
288.267
290.692
292.355
293.348
293.865
294.2
294.432
294.554
294.598
294.597
294.501
294.395
294.331
294.404
289.467
291.629
292.858
293.437
293.81
294.078
294.282
294.415
294.505
294.597
294.622
294.65
294.693
294.776
290.776
292.323
293.058
293.455
293.729
293.969
294.178
294.306
294.429
294.538
294.585
294.641
294.688
294.74
291.707
292.572
292.992
293.289
293.54
293.806
294.052
294.184
294.317
294.41
294.44
294.474
294.458
294.397
292.071
292.444
292.65
292.894
293.234
293.601
293.905
294.032
294.135
294.17
294.14
294.052
293.857
293.618
292.002
291.983
291.965
292.212
292.696
293.261
293.68
293.847
293.916
293.908
293.81
293.579
293.291
292.816
291.615
291.177
291.025
291.252
291.881
292.714
293.317
293.605
293.671
293.597
293.366
292.938
292.524
291.908
290.823
289.904
289.682
289.832
290.559
291.682
292.637
293.224
293.42
293.348
293.084
292.6
292.221
291.429
290.074
288.66
288.3
288.231
288.834
290.097
291.582
292.546
293.063
293.126
292.873
292.367
291.932
291.078
288.905
287.121
286.564
286.424
286.905
288.086
289.874
291.435
292.447
292.924
292.788
292.6
292.286
291.554
287.355
289.954
291.967
293.768
295.145
295.913
296.215
296.072
295.564
294.624
293.07
291.573
290.412
289.998
286.708
289.455
291.823
293.649
294.935
295.638
295.944
295.94
295.704
295.251
294.303
293.253
292.282
291.883
287.13
289.971
292.276
293.954
294.934
295.435
295.688
295.758
295.683
295.464
294.96
294.253
293.66
293.488
287.912
290.85
292.966
294.308
294.936
295.279
295.459
295.553
295.571
295.468
295.29
294.997
294.761
294.683
289.218
291.922
293.573
294.505
294.918
295.152
295.312
295.417
295.48
295.51
295.52
295.493
295.519
295.658
290.857
292.971
294.054
294.553
294.838
295.003
295.149
295.266
295.37
295.487
295.584
295.714
295.893
296.119
292.324
293.629
294.197
294.55
294.754
294.896
295.042
295.16
295.291
295.43
295.554
295.734
295.929
296.154
293.214
293.886
294.169
294.42
294.62
294.788
294.958
295.069
295.211
295.346
295.461
295.605
295.702
295.772
293.409
293.688
293.864
294.107
294.399
294.669
294.88
294.98
295.106
295.204
295.268
295.288
295.191
294.936
293.072
293.01
293.111
293.48
293.996
294.472
294.781
294.888
294.983
295.017
294.974
294.784
294.399
293.714
292.174
291.749
291.891
292.424
293.248
294.034
294.533
294.716
294.788
294.747
294.531
294.037
293.34
292.295
290.788
290.033
290.158
290.816
291.961
293.182
294.018
294.444
294.571
294.48
294.092
293.333
292.425
291.223
289.424
288.26
288.251
288.696
289.942
291.645
293.119
294.001
294.345
294.27
293.845
292.975
291.907
290.75
287.549
286.217
286.13
286.359
287.391
289.322
291.563
293.085
293.948
294.122
293.779
293.061
292.074
290.895
288.264
291.187
293.378
295.183
296.521
297.274
297.631
297.631
297.362
296.741
295.625
294.239
293.068
292.266
288.402
291.44
293.702
295.374
296.423
297.038
297.332
297.407
297.302
296.997
296.432
295.577
294.739
293.947
289.356
292.335
294.395
295.723
296.424
296.842
297.066
297.179
297.183
297.08
296.858
296.396
295.895
295.427
290.699
293.331
294.976
295.929
296.389
296.671
296.849
296.965
297.025
297.035
296.987
296.865
296.681
296.57
292.241
294.327
295.474
296.042
296.34
296.547
296.71
296.837
296.937
297.027
297.103
297.169
297.241
297.401
293.76
295.123
295.78
296.057
296.275
296.43
296.578
296.714
296.848
296.993
297.125
297.307
297.505
297.764
294.768
295.457
295.805
296.031
296.219
296.349
296.488
296.624
296.773
296.939
297.095
297.319
297.535
297.815
295.273
295.591
295.778
295.96
296.144
296.277
296.425
296.554
296.709
296.878
297.038
297.242
297.399
297.566
295.281
295.424
295.572
295.777
296.022
296.211
296.378
296.498
296.648
296.801
296.942
297.064
297.078
297.038
294.774
294.774
295.006
295.35
295.77
296.109
296.325
296.448
296.588
296.695
296.737
296.699
296.474
296.015
293.695
293.606
293.99
294.619
295.31
295.86
296.201
296.332
296.44
296.483
296.424
296.195
295.708
294.863
292.046
291.845
292.383
293.323
294.414
295.332
295.925
296.174
296.284
296.267
296.046
295.544
294.785
293.597
290.18
289.74
290.324
291.436
292.928
294.368
295.411
295.959
296.164
296.141
295.758
295.046
294.047
292.747
287.647
287.189
287.779
288.897
290.649
292.697
294.39
295.541
296.013
296.094
295.616
294.843
293.673
292.364
290.613
293.198
295.242
296.693
297.706
298.326
298.633
298.756
298.682
298.399
297.901
297
296.136
295.212
291.414
294.215
295.943
297.01
297.686
298.116
298.341
298.465
298.487
298.364
298.192
297.755
297.281
296.671
292.615
295.058
296.454
297.198
297.628
297.919
298.112
298.244
298.312
298.321
298.297
298.105
297.863
297.539
293.99
295.788
296.794
297.258
297.536
297.754
297.926
298.062
298.165
298.237
298.308
298.29
298.266
298.208
295.222
296.384
297.027
297.278
297.463
297.646
297.809
297.955
298.076
298.199
298.321
298.442
298.567
298.726
296.21
296.776
297.121
297.25
297.398
297.557
297.704
297.855
298.001
298.163
298.326
298.516
298.712
298.954
296.704
296.927
297.11
297.225
297.382
297.51
297.641
297.787
297.942
298.123
298.304
298.525
298.738
299.017
296.918
297.004
297.105
297.218
297.359
297.464
297.593
297.733
297.895
298.079
298.264
298.478
298.662
298.911
296.838
296.911
297.024
297.162
297.317
297.431
297.561
297.693
297.856
298.034
298.21
298.384
298.503
298.631
296.363
296.487
296.73
296.98
297.219
297.388
297.537
297.669
297.836
297.994
298.115
298.189
298.196
298.149
295.325
295.621
296.149
296.622
297.022
297.287
297.473
297.608
297.75
297.877
297.952
297.955
297.777
297.42
293.718
294.2
295.054
295.871
296.59
297.099
297.382
297.557
297.672
297.744
297.724
297.571
297.173
296.419
291.655
292.257
293.392
294.586
295.729
296.632
297.148
297.463
297.614
297.669
297.514
297.138
296.471
295.426
288.959
289.444
290.79
292.504
294.261
295.798
296.781
297.37
297.602
297.649
297.357
296.742
295.774
294.659
293.8
296.05
297.397
298.333
298.95
299.393
299.641
299.796
299.835
299.715
299.523
299.076
298.648
298.006
294.784
296.885
297.931
298.543
298.925
299.212
299.404
299.531
299.604
299.616
299.567
299.47
299.315
299.068
295.846
297.468
298.206
298.588
298.84
299.046
299.223
299.362
299.46
299.532
299.567
299.557
299.508
299.45
296.896
297.905
298.345
298.569
298.744
298.922
299.085
299.231
299.348
299.462
299.547
299.624
299.68
299.752
297.613
298.139
298.387
298.538
298.675
298.844
299.003
299.155
299.287
299.424
299.545
299.683
299.816
299.995
298.093
298.267
298.402
298.487
298.626
298.782
298.931
299.085
299.232
299.392
299.546
299.723
299.891
300.103
298.326
298.344
298.426
298.512
298.627
298.752
298.883
299.032
299.187
299.357
299.527
299.721
299.908
300.154
298.433
298.407
298.453
298.528
298.623
298.72
298.84
298.986
299.146
299.32
299.494
299.684
299.853
300.104
298.357
298.389
298.439
298.519
298.615
298.695
298.805
298.946
299.109
299.282
299.449
299.617
299.766
299.973
297.974
298.145
298.313
298.471
298.596
298.673
298.786
298.926
299.099
299.27
299.41
299.534
299.633
299.724
297.165
297.648
298.054
298.344
298.533
298.634
298.758
298.894
299.052
299.207
299.344
299.429
299.446
299.374
295.925
296.79
297.505
298.028
298.381
298.591
298.739
298.888
299.03
299.155
299.242
299.264
299.138
298.747
294.193
295.363
296.385
297.265
297.949
298.399
298.661
298.865
299.017
299.118
299.117
299.021
298.754
298.09
292.059
293.036
294.434
295.938
297.213
298.122
298.615
298.913
299.069
299.129
299.018
298.71
298.228
297.336
296.648
298.435
299.158
299.706
300.079
300.366
300.554
300.69
300.755
300.734
300.646
300.476
300.287
299.966
297.495
298.903
299.422
299.747
300.001
300.213
300.38
300.495
300.576
300.623
300.624
300.644
300.651
300.618
298.188
299.172
299.527
299.74
299.914
300.083
300.242
300.373
300.473
300.557
300.619
300.676
300.719
300.735
298.883
299.345
299.535
299.694
299.84
299.998
300.15
300.287
300.404
300.517
300.612
300.709
300.805
300.92
299.292
299.437
299.548
299.67
299.8
299.949
300.096
300.238
300.368
300.495
300.611
300.734
300.863
301.03
299.523
299.503
299.566
299.641
299.768
299.913
300.051
300.192
300.33
300.472
300.608
300.754
300.901
301.074
299.647
299.595
299.639
299.695
299.79
299.898
300.02
300.156
300.296
300.442
300.585
300.742
300.899
301.097
299.716
299.668
299.697
299.734
299.8
299.878
299.988
300.12
300.263
300.411
300.554
300.71
300.854
301.062
299.682
299.69
299.72
299.754
299.802
299.86
299.96
300.088
300.231
300.376
300.512
300.657
300.789
300.979
299.424
299.571
299.685
299.759
299.802
299.85
299.944
300.076
300.228
300.372
300.496
300.609
300.711
300.839
298.948
299.347
299.589
299.713
299.77
299.823
299.93
300.063
300.207
300.346
300.468
300.563
300.647
300.656
298.255
298.923
299.35
299.585
299.711
299.809
299.94
300.083
300.223
300.352
300.459
300.528
300.534
300.362
297.252
298.109
298.774
299.248
299.563
299.763
299.931
300.082
300.225
300.347
300.403
300.416
300.371
300.049
295.379
296.388
297.47
298.482
299.248
299.722
299.981
300.159
300.286
300.363
300.352
300.262
300.119
299.549
298.993
300.226
300.563
300.895
301.16
301.363
301.513
301.62
301.688
301.69
301.637
301.555
301.433
301.298
299.543
300.348
300.625
300.848
301.049
301.228
301.378
301.478
301.552
301.591
301.611
301.628
301.656
301.665
299.868
300.394
300.637
300.815
300.971
301.126
301.273
301.393
301.489
301.559
301.615
301.657
301.717
301.775
300.296
300.479
300.615
300.77
300.918
301.068
301.209
301.335
301.444
301.54
301.623
301.703
301.794
301.914
300.547
300.579
300.664
300.763
300.903
301.043
301.176
301.305
301.422
301.531
301.627
301.725
301.833
301.979
300.698
300.668
300.713
300.785
300.898
301.025
301.149
301.275
301.395
301.515
301.626
301.745
301.869
302.013
300.827
300.784
300.817
300.853
300.928
301.023
301.131
301.249
301.368
301.49
301.605
301.732
301.858
302.019
300.909
300.88
300.894
300.903
300.948
301.015
301.112
301.224
301.342
301.463
301.575
301.699
301.813
301.982
300.922
300.923
300.93
300.929
300.952
301.001
301.091
301.201
301.317
301.431
301.536
301.649
301.752
301.912
300.793
300.88
300.927
300.941
300.95
300.989
301.078
301.194
301.315
301.425
301.518
301.603
301.689
301.818
300.573
300.794
300.891
300.907
300.919
300.965
301.066
301.186
301.304
301.412
301.501
301.568
301.647
301.707
300.22
300.605
300.78
300.833
300.875
300.949
301.077
301.209
301.33
301.432
301.516
301.574
301.61
301.549
299.733
300.212
300.488
300.668
300.805
300.937
301.073
301.213
301.343
301.456
301.524
301.553
301.576
301.39
298.29
299.106
299.727
300.317
300.705
300.966
301.137
301.279
301.4
301.484
301.52
301.509
301.502
301.163
302.479
302.538
302.538
302.499
302.437
302.335
302.258
302.376
302.44
302.472
302.486
302.476
302.496
302.513
302.316
302.401
302.46
302.495
302.513
302.564
302.619
302.274
302.368
302.445
302.506
302.561
302.633
302.74
302.254
302.353
302.44
302.512
302.588
302.671
302.795
302.233
302.332
302.428
302.514
302.608
302.708
302.832
302.216
302.311
302.407
302.497
302.598
302.701
302.838
302.197
302.288
302.382
302.47
302.568
302.663
302.805
301.992
301.985
301.975
301.959
301.978
302.02
302.094
302.18
302.267
302.354
302.434
302.523
302.605
302.739
301.938
301.973
301.967
301.96
301.969
302.011
302.087
302.178
302.265
302.343
302.409
302.475
302.54
302.654
301.842
301.933
301.929
301.926
301.938
301.99
302.078
302.172
302.258
302.331
302.387
302.431
302.482
302.561
301.653
301.815
301.839
301.857
301.895
301.975
302.089
302.196
302.284
302.351
302.4
302.425
302.456
302.451
301.412
301.602
301.658
301.749
301.847
301.964
302.084
302.206
302.309
302.388
302.43
302.434
302.457
302.355
300.445
300.95
301.249
301.58
301.804
301.99
302.132
302.259
302.363
302.426
302.462
302.451
302.42
302.235
290.191
291.736
293.404
295.485
297.658
299.63
290.47
291.821
294.065
296.542
298.939
300.846
292.264
293.441
295.312
297.448
299.782
301.386
293.637
294.667
296.082
297.761
299.916
301.407
294.671
295.444
296.56
297.924
299.754
300.855
295.035
295.477
296.153
296.949
298.127
298.676
295.044
294.972
294.807
294.699
295.108
295.118
294.484
293.754
292.745
291.9
291.553
290.884
293.506
291.982
290.301
289.005
288.217
287.221
292.182
290.221
288.458
287.125
286.291
285.196
291.069
289.103
287.704
286.572
285.789
284.607
290.212
288.595
287.614
286.893
286.592
285.517
289.937
288.873
288.563
288.603
288.953
288.66
289.357
288.816
289.433
290.494
291.759
292.486
288.816
289.491
290.768
292.442
294.66
296.76
290.127
290.906
292.465
294.454
296.844
298.917
292.301
293.088
294.524
296.304
298.524
300.311
294.232
294.96
296.189
297.593
299.473
300.86
295.606
296.225
297.154
298.236
299.758
300.703
296.311
296.592
297.062
297.477
298.344
298.686
296.439
296.355
296.067
295.604
295.494
295.087
295.882
295.031
293.624
292.124
291.155
290.265
294.669
292.883
290.593
288.517
287.09
285.923
292.943
290.329
287.758
285.726
284.271
283.017
291.123
288.547
286.465
284.798
283.476
282.137
289.921
287.724
286.237
285.013
284.188
283.238
289.381
287.855
287.049
286.611
286.557
286.349
288.531
287.51
287.626
288.109
289.011
289.785
288.751
288.429
288.702
289.505
290.976
292.864
290.789
290.754
291.331
292.372
294.084
296.157
293.27
293.471
294.232
295.426
297.087
298.966
295.217
295.509
296.407
297.659
299.177
300.715
296.869
297.274
298.01
298.886
299.978
301.217
297.676
298.001
298.484
298.985
299.636
300.27
297.977
298.103
298.08
297.806
297.519
297.329
297.699
297.34
296.341
294.894
293.607
292.719
296.864
295.623
293.574
291.216
289.231
287.896
295.618
293.391
290.45
287.655
285.395
283.915
293.978
291.345
288.362
285.713
283.654
282.228
292.519
290.023
287.597
285.411
283.798
282.675
291.64
289.527
287.864
286.397
285.578
285.008
290.608
288.747
287.696
287.224
287.366
287.652
289.817
288.517
287.837
287.534
288.148
289.244
292.101
291.039
290.758
290.898
291.67
293.046
294.664
294.021
294.018
294.443
295.4
296.874
296.524
296.288
296.608
297.316
298.431
299.855
297.906
298.071
298.612
299.361
300.376
301.433
298.673
299.02
299.564
300.158
300.961
301.693
299.031
299.386
299.783
300.093
300.359
300.399
299.037
299.174
299.124
298.714
297.971
297.077
298.685
298.354
297.457
296.006
294.167
292.381
298.056
297.073
295.099
292.462
289.658
287.385
297.095
295.335
292.623
289.371
286.302
284.036
295.739
293.599
290.787
287.75
285.156
283.242
294.676
292.48
290.087
287.645
285.678
284.294
293.74
291.433
289.42
287.579
286.62
286.226
292.432
290.278
288.712
287.623
287.441
287.919
294.572
292.752
291.584
290.933
291.016
291.713
296.574
295.372
294.716
294.428
294.724
295.643
298.023
297.478
297.334
297.387
298.001
299.083
299.039
299.006
299.261
299.691
300.512
301.579
299.669
299.94
300.424
301.003
301.81
302.621
300.009
300.406
300.921
301.487
302.11
302.553
300.118
300.461
300.85
301.116
301.137
300.818
300.035
300.158
300.123
299.662
298.652
297.263
299.739
299.565
298.843
297.303
295.089
292.637
299.323
298.606
297.02
294.499
291.28
288.181
298.437
297.158
295.035
292.116
288.828
285.965
297.68
296.079
293.844
291.061
288.25
285.929
297.019
295.214
293.068
290.432
288.3
286.907
295.417
293.284
291.201
289.182
288.088
287.862
297.311
295.511
293.796
292.186
291.51
291.55
298.593
297.413
296.309
295.346
295.053
295.395
299.531
298.956
298.478
298.09
298.193
298.85
300.145
300.054
300.099
300.187
300.702
301.588
300.589
300.772
301.132
301.576
302.348
303.225
300.839
301.185
301.704
302.311
303.066
303.784
300.969
301.318
301.831
302.42
302.954
303.188
300.974
301.262
301.63
301.859
301.775
301.255
300.857
301.004
301.039
300.631
299.554
297.813
300.68
300.56
300.07
298.768
296.554
293.665
300.276
299.695
298.579
296.622
293.801
290.571
299.877
298.989
297.497
295.276
292.449
289.566
299.525
298.427
296.802
294.553
291.94
289.676
298.11
296.495
294.514
292.187
290.271
289.126
299.663
298.34
296.704
294.759
293.292
292.582
300.309
299.509
298.482
297.202
296.351
296.053
300.877
300.492
299.997
299.37
299.079
299.187
301.26
301.186
301.146
301.057
301.232
301.792
301.55
301.685
301.932
302.225
302.783
303.569
301.724
301.988
302.416
302.944
303.67
304.42
301.846
302.128
302.575
303.162
303.876
304.49
301.857
302.125
302.521
303.004
303.444
303.632
301.784
301.994
302.252
302.408
302.296
301.67
301.701
301.763
301.745
301.443
300.545
298.813
301.527
301.358
300.921
300.019
298.389
295.897
301.335
300.983
300.236