/*--------------------------------*- C++ -*----------------------------------*\
| =========                 |                                                 |
| \\      /  F ield         | OpenFOAM: The Open Source CFD Toolbox           |
|  \\    /   O peration     | Version:  v2106                                 |
|   \\  /    A nd           | Website:  www.openfoam.com                      |
|    \\/     M anipulation  |                                                 |
\*---------------------------------------------------------------------------*/
FoamFile
{
    version     2.0;
    format      ascii;
    arch        "LSB;label=32;scalar=64";
    class       volScalarField;
    location    "0.000128";
    object      alphat;
}
// * * * * * * * * * * * * * * * * * * * * * * * * * * * * * * * * * * * * * //

dimensions      [1 -1 -1 0 0 0 0];

internalField   nonuniform List<scalar> 
144746
(
4.21458e-06
4.19266e-06
5.12557e-06
6.08882e-06
7.10732e-06
7.92425e-06
8.33299e-06
8.36248e-06
8.08996e-06
7.50813e-06
6.33458e-06
4.6614e-06
3.24373e-06
2.44531e-06
3.68006e-06
2.61222e-06
2.5257e-06
2.74928e-06
3.12855e-06
3.53339e-06
3.83332e-06
3.98827e-06
4.00308e-06
3.85524e-06
3.25924e-06
2.30365e-06
1.54614e-06
1.24445e-06
4.60939e-06
2.63053e-06
1.67316e-06
1.27639e-06
1.2027e-06
1.28376e-06
1.40743e-06
1.51646e-06
1.59684e-06
1.6251e-06
1.37853e-06
9.74734e-07
7.61385e-07
9.9008e-07
6.51979e-06
3.655e-06
1.88479e-06
9.34746e-07
5.26214e-07
4.00136e-07
3.94471e-07
4.31257e-07
4.83525e-07
5.30493e-07
4.58526e-07
3.66576e-07
4.58729e-07
9.77276e-07
8.59069e-06
4.93065e-06
2.47407e-06
1.06864e-06
4.10458e-07
1.63205e-07
9.26588e-08
8.63695e-08
1.02878e-07
1.25458e-07
1.19585e-07
1.52913e-07
3.84053e-07
1.10334e-06
9.81616e-06
5.63166e-06
2.79822e-06
1.17467e-06
4.11318e-07
1.20004e-07
3.1848e-08
1.31868e-08
1.39379e-08
2.01116e-08
3.24782e-08
1.13679e-07
4.52911e-07
1.43222e-06
1.04529e-05
5.80503e-06
2.76645e-06
1.11076e-06
3.66438e-07
9.64899e-08
1.95699e-08
3.2645e-09
1.2121e-09
3.14142e-09
2.26529e-08
1.40955e-07
6.01875e-07
1.87154e-06
1.07349e-05
5.74793e-06
2.63441e-06
1.00356e-06
3.10025e-07
7.57544e-08
1.44386e-08
2.31917e-09
5.14563e-10
2.69306e-09
3.16514e-08
1.95781e-07
7.8686e-07
2.3083e-06
1.05478e-05
5.45345e-06
2.41256e-06
8.9017e-07
2.70708e-07
6.97454e-08
1.80915e-08
6.42616e-09
3.20063e-09
5.79197e-09
4.67422e-08
2.5909e-07
9.63486e-07
2.64881e-06
9.74818e-06
4.8652e-06
2.10186e-06
7.83407e-07
2.66204e-07
1.00746e-07
5.22301e-08
3.2236e-08
1.98586e-08
1.76492e-08
6.11696e-08
2.83619e-07
1.00116e-06
2.67941e-06
8.41465e-06
4.1062e-06
1.78656e-06
7.42058e-07
3.62465e-07
2.45024e-07
1.90916e-07
1.40127e-07
9.37504e-08
6.77164e-08
9.55922e-08
2.75388e-07
8.72351e-07
2.34887e-06
6.90386e-06
3.38063e-06
1.59681e-06
8.93565e-07
7.18522e-07
6.83515e-07
6.1139e-07
4.83987e-07
3.45169e-07
2.4188e-07
2.18806e-07
3.16973e-07
6.85252e-07
1.77918e-06
5.53507e-06
2.82698e-06
1.67543e-06
1.46648e-06
1.62958e-06
1.73362e-06
1.62563e-06
1.35615e-06
1.02813e-06
7.35993e-07
5.73737e-07
5.59114e-07
6.46523e-07
1.29297e-06
4.59816e-06
2.80635e-06
2.42931e-06
2.91433e-06
3.55704e-06
3.82728e-06
3.64951e-06
3.18109e-06
2.55977e-06
1.91065e-06
1.42567e-06
1.20924e-06
9.96438e-07
1.24037e-06
8.76e-06
9.88341e-06
1.18996e-05
1.38081e-05
1.524e-05
1.57909e-05
1.5395e-05
1.4392e-05
1.29866e-05
1.12705e-05
8.86893e-06
6.02364e-06
3.90416e-06
2.96379e-06
5.72511e-06
5.13232e-06
5.56107e-06
6.28008e-06
6.98536e-06
7.44221e-06
7.51577e-06
7.27594e-06
6.77824e-06
6.0747e-06
4.77617e-06
3.11773e-06
1.98118e-06
1.85334e-06
6.06285e-06
3.97342e-06
3.00387e-06
2.65105e-06
2.64303e-06
2.76162e-06
2.8605e-06
2.86765e-06
2.78885e-06
2.62979e-06
2.07028e-06
1.38256e-06
1.15055e-06
1.88008e-06
8.81177e-06
5.35322e-06
3.026e-06
1.67504e-06
1.0492e-06
8.37864e-07
8.0449e-07
8.21256e-07
8.45953e-07
8.60113e-07
6.96021e-07
5.64973e-07
8.66711e-07
2.15756e-06
1.25539e-05
7.74349e-06
4.17079e-06
1.93101e-06
7.92679e-07
3.28481e-07
1.82979e-07
1.57406e-07
1.72522e-07
1.97839e-07
1.86138e-07
2.91089e-07
8.86764e-07
2.66465e-06
1.53938e-05
9.48967e-06
5.03844e-06
2.25613e-06
8.35518e-07
2.53441e-07
6.64695e-08
2.35896e-08
2.15575e-08
3.08386e-08
6.32332e-08
2.75737e-07
1.12288e-06
3.42097e-06
1.74726e-05
1.04366e-05
5.33383e-06
2.27225e-06
7.87692e-07
2.16256e-07
4.50697e-08
7.18267e-09
1.90958e-09
6.48038e-09
5.8363e-08
3.57892e-07
1.4445e-06
4.1928e-06
1.92883e-05
1.11354e-05
5.46563e-06
2.21092e-06
7.19488e-07
1.83784e-07
3.66563e-08
6.42316e-09
1.62833e-09
7.30753e-09
7.96805e-08
4.6396e-07
1.74573e-06
4.7597e-06
2.04096e-05
1.13202e-05
5.35003e-06
2.08669e-06
6.65833e-07
1.80026e-07
5.0533e-08
2.02182e-08
1.06746e-08
1.51565e-08
1.04495e-07
5.46515e-07
1.92172e-06
4.96161e-06
2.03552e-05
1.07981e-05
4.92854e-06
1.90951e-06
6.65456e-07
2.59993e-07
1.4418e-07
9.62828e-08
6.18378e-08
4.83029e-08
1.27918e-07
5.39185e-07
1.80075e-06
4.56641e-06
1.88945e-05
9.60743e-06
4.29616e-06
1.77724e-06
8.48155e-07
5.85496e-07
4.87868e-07
3.86013e-07
2.71665e-07
1.88235e-07
2.1071e-07
4.96057e-07
1.43152e-06
3.64683e-06
1.62466e-05
8.05877e-06
3.72573e-06
1.93589e-06
1.50001e-06
1.49213e-06
1.43751e-06
1.22948e-06
9.32356e-07
6.57858e-07
5.22476e-07
6.03891e-07
1.07719e-06
2.52713e-06
1.33784e-05
6.63802e-06
3.53598e-06
2.74049e-06
3.05892e-06
3.47777e-06
3.52512e-06
3.18184e-06
2.58884e-06
1.92767e-06
1.42061e-06
1.18032e-06
1.12757e-06
1.79612e-06
1.11298e-05
6.03315e-06
4.2719e-06
4.71394e-06
6.04447e-06
7.04444e-06
7.2976e-06
6.90082e-06
6.00487e-06
4.76793e-06
3.55218e-06
2.7037e-06
2.03334e-06
1.98597e-06
2.06765e-05
2.33131e-05
2.64263e-05
2.8758e-05
2.94097e-05
2.82394e-05
2.57043e-05
2.24111e-05
1.89117e-05
1.52921e-05
1.11229e-05
6.97578e-06
4.35273e-06
3.93802e-06
1.08135e-05
1.13026e-05
1.25916e-05
1.39192e-05
1.46603e-05
1.45876e-05
1.37147e-05
1.22323e-05
1.0493e-05
8.65425e-06
6.18586e-06
3.71825e-06
2.50999e-06
3.4265e-06
8.06985e-06
6.45129e-06
5.76502e-06
5.62968e-06
5.69959e-06
5.72038e-06
5.51748e-06
5.05181e-06
4.45844e-06
3.82436e-06
2.72613e-06
1.77997e-06
1.91939e-06
4.17569e-06
1.07e-05
7.10765e-06
4.44867e-06
2.80733e-06
2.00589e-06
1.69393e-06
1.56508e-06
1.45517e-06
1.33873e-06
1.24204e-06
9.32832e-07
8.80423e-07
1.88719e-06
5.21397e-06
1.62708e-05
1.08214e-05
6.15713e-06
2.98769e-06
1.2865e-06
5.64163e-07
3.18991e-07
2.54982e-07
2.57495e-07
2.7582e-07
2.76587e-07
6.37265e-07
2.22715e-06
6.51927e-06
2.16314e-05
1.42704e-05
7.93501e-06
3.67577e-06
1.39187e-06
4.23332e-07
1.07174e-07
3.41744e-08
2.89288e-08
4.46509e-08
1.41784e-07
7.24993e-07
2.803e-06
7.88429e-06
2.58447e-05
1.65324e-05
8.86817e-06
3.90937e-06
1.38175e-06
3.78257e-07
7.64117e-08
1.10773e-08
2.4968e-09
1.59259e-08
1.59502e-07
9.14554e-07
3.37662e-06
8.91884e-06
3.01168e-05
1.87549e-05
9.72262e-06
4.08566e-06
1.35579e-06
3.45836e-07
6.81685e-08
1.26304e-08
3.92387e-09
2.00845e-08
2.00096e-07
1.07035e-06
3.69647e-06
9.21571e-06
3.40159e-05
2.04155e-05
1.02054e-05
4.12611e-06
1.33405e-06
3.62448e-07
1.06954e-07
4.84114e-08
2.75965e-08
3.71295e-08
2.30058e-07
1.11608e-06
3.64604e-06
8.73335e-06
3.6679e-05
2.09608e-05
1.00729e-05
3.99914e-06
1.38701e-06
5.41776e-07
3.19015e-07
2.3034e-07
1.55754e-07
1.17062e-07
2.59721e-07
9.87956e-07
3.07459e-06
7.31665e-06
3.7037e-05
2.00315e-05
9.26041e-06
3.78697e-06
1.71241e-06
1.17931e-06
1.04476e-06
8.86046e-07
6.60043e-07
4.62463e-07
4.49279e-07
8.66436e-07
2.229e-06
5.28306e-06
3.44765e-05
1.78012e-05
8.16987e-06
3.88192e-06
2.77045e-06
2.83469e-06
2.91922e-06
2.67578e-06
2.16515e-06
1.5996e-06
1.21072e-06
1.16132e-06
1.66016e-06
3.35601e-06
3.02592e-05
1.5187e-05
7.41008e-06
4.80585e-06
5.13864e-06
6.19955e-06
6.74019e-06
6.53052e-06
5.70943e-06
4.53948e-06
3.39669e-06
2.59206e-06
2.12359e-06
2.56712e-06
2.63477e-05
1.35873e-05
7.83293e-06
7.18565e-06
9.33776e-06
1.17321e-05
1.30789e-05
1.32911e-05
1.24902e-05
1.07148e-05
8.42491e-06
6.30135e-06
4.56839e-06
3.75756e-06
2.644e-06
4.60513e-06
8.63925e-06
1.75927e-05
6.16799e-05
8.22836e-05
1.64711e-06
2.9914e-06
5.88557e-06
1.26703e-05
4.84271e-05
7.8654e-05
1.91904e-06
3.69956e-06
7.25308e-06
1.50305e-05
4.92623e-05
7.50714e-05
2.26522e-06
4.72889e-06
9.53219e-06
1.92705e-05
5.42332e-05
7.24781e-05
2.80203e-06
6.22564e-06
1.27891e-05
2.53673e-05
6.4073e-05
7.1846e-05
3.66257e-06
8.17164e-06
1.66761e-05
3.24947e-05
7.77626e-05
7.32453e-05
4.61719e-06
1.00507e-05
2.01706e-05
3.9143e-05
9.33196e-05
7.61888e-05
5.42546e-06
1.13324e-05
2.23218e-05
4.37317e-05
0.000107028
7.99879e-05
5.94954e-06
1.18793e-05
2.30145e-05
4.59442e-05
0.000117175
8.36791e-05
5.91742e-06
1.14023e-05
2.19155e-05
4.49198e-05
0.00012111
8.62174e-05
5.28248e-06
9.94057e-06
1.90368e-05
4.02126e-05
0.000116228
8.69773e-05
4.14785e-06
7.79288e-06
1.50382e-05
3.27889e-05
0.000101428
8.659e-05
2.94132e-06
5.68623e-06
1.12579e-05
2.49605e-05
8.02927e-05
8.59238e-05
2.12371e-06
4.2891e-06
8.77882e-06
1.85252e-05
6.39277e-05
8.53187e-05
3.65554e-06
6.16586e-06
1.09304e-05
1.96234e-05
4.56209e-05
6.85388e-05
3.194e-06
5.86181e-06
1.0892e-05
1.98176e-05
4.09532e-05
6.61151e-05
4.10292e-06
8.00015e-06
1.50329e-05
2.67725e-05
4.92386e-05
6.58062e-05
5.21533e-06
1.07818e-05
2.06512e-05
3.61976e-05
6.33102e-05
6.8376e-05
6.62457e-06
1.40477e-05
2.69743e-05
4.67452e-05
8.09898e-05
7.35326e-05
8.22161e-06
1.71932e-05
3.26157e-05
5.61408e-05
9.83163e-05
7.99167e-05
9.58277e-06
1.93996e-05
3.60415e-05
6.22378e-05
0.000112357
8.56674e-05
1.03359e-05
2.00193e-05
3.64729e-05
6.40034e-05
0.00012147
8.94161e-05
1.03832e-05
1.92171e-05
3.43998e-05
6.18004e-05
0.000125014
9.09724e-05
9.49496e-06
1.6962e-05
3.0017e-05
5.53651e-05
0.000120137
8.9439e-05
7.81066e-06
1.36499e-05
2.40391e-05
4.54945e-05
0.000106429
8.50927e-05
5.63233e-06
9.84804e-06
1.75204e-05
3.41674e-05
8.57991e-05
7.96089e-05
3.70595e-06
6.67911e-06
1.2222e-05
2.42983e-05
6.23759e-05
7.49681e-05
2.78631e-06
5.12705e-06
9.63955e-06
1.81396e-05
4.61025e-05
7.14269e-05
6.57509e-06
1.08701e-05
1.80285e-05
2.839e-05
4.35048e-05
5.33277e-05
7.53953e-06
1.38305e-05
2.42438e-05
3.90388e-05
5.84258e-05
5.98487e-05
9.83964e-06
1.88665e-05
3.34392e-05
5.34953e-05
7.68091e-05
7.1667e-05
1.2494e-05
2.4546e-05
4.34184e-05
6.84244e-05
9.48594e-05
8.53879e-05
1.52006e-05
2.97475e-05
5.17226e-05
7.99612e-05
0.000108547
9.78087e-05
1.73875e-05
3.31575e-05
5.61896e-05
8.56096e-05
0.000115991
0.000106069
1.85147e-05
3.39776e-05
5.59728e-05
8.4944e-05
0.000117776
0.000109568
1.82153e-05
3.19762e-05
5.14702e-05
7.89926e-05
0.000115348
0.000108508
1.67726e-05
2.81648e-05
4.44398e-05
6.87562e-05
0.000108318
0.000103034
1.41181e-05
2.28446e-05
3.56332e-05
5.55079e-05
9.45731e-05
9.32452e-05
1.06877e-05
1.68614e-05
2.6201e-05
4.09672e-05
7.42291e-05
8.03168e-05
7.08107e-06
1.11446e-05
1.76094e-05
2.76219e-05
5.19804e-05
6.77544e-05
4.54788e-06
7.35445e-06
1.19766e-05
1.89808e-05
3.52845e-05
5.8209e-05
4.19492e-06
7.03278e-06
1.18615e-05
1.84994e-05
3.21172e-05
5.25714e-05
1.97936e-06
3.5341e-06
6.6886e-06
1.31766e-05
5.20512e-05
8.32017e-05
1.96836e-06
3.47376e-06
6.50557e-06
1.2958e-05
4.66095e-05
7.91008e-05
2.5493e-06
4.67191e-06
8.72186e-06
1.68402e-05
5.06169e-05
7.54193e-05
3.20397e-06
6.28146e-06
1.19257e-05
2.25105e-05
5.86689e-05
7.31747e-05
4.29676e-06
8.59018e-06
1.62401e-05
2.99623e-05
7.14419e-05
7.30914e-05
5.49241e-06
1.0892e-05
2.04071e-05
3.74206e-05
8.66971e-05
7.49001e-05
6.49955e-06
1.25895e-05
2.33604e-05
4.32307e-05
0.000101794
7.77012e-05
7.19219e-06
1.34801e-05
2.47609e-05
4.66503e-05
0.000114204
8.05913e-05
7.44657e-06
1.35563e-05
2.46888e-05
4.76177e-05
0.000122761
8.3362e-05
7.05988e-06
1.26002e-05
2.29287e-05
4.54902e-05
0.000125379
8.50196e-05
5.92088e-06
1.051e-05
1.93099e-05
3.99629e-05
0.000117665
8.49763e-05
4.56408e-06
8.043e-06
1.4932e-05
3.21449e-05
0.00010065
8.39891e-05
4.00511e-06
6.84793e-06
1.23783e-05
2.57563e-05
7.96694e-05
8.36055e-05
4.8722e-06
8.14249e-06
1.36532e-05
2.34244e-05
6.82757e-05
8.32627e-05
3.63241e-06
6.12059e-06
1.0471e-05
1.73207e-05
3.90312e-05
6.85344e-05
4.30267e-06
7.47871e-06
1.30176e-05
2.17561e-05
4.10163e-05
6.62818e-05
5.8679e-06
1.06652e-05
1.87598e-05
3.10093e-05
5.3088e-05
6.67255e-05
7.83689e-06
1.47886e-05
2.6212e-05
4.2899e-05
7.12766e-05
7.0628e-05
1.01246e-05
1.9124e-05
3.36569e-05
5.46679e-05
9.12071e-05
7.69246e-05
1.19895e-05
2.22345e-05
3.86927e-05
6.31457e-05
0.000108181
8.33579e-05
1.30267e-05
2.34426e-05
4.03273e-05
6.69084e-05
0.000119801
8.83052e-05
1.32492e-05
2.2989e-05
3.89866e-05
6.61249e-05
0.00012625
9.07529e-05
1.2641e-05
2.12313e-05
3.55361e-05
6.15851e-05
0.000126245
9.04698e-05
1.1035e-05
1.80964e-05
3.01243e-05
5.3484e-05
0.000117388
8.7205e-05
8.58057e-06
1.39629e-05
2.33096e-05
4.27601e-05
9.95792e-05
8.17925e-05
6.59784e-06
1.05887e-05
1.77139e-05
3.29578e-05
7.82017e-05
7.60818e-05
6.94868e-06
1.08839e-05
1.72728e-05
2.92794e-05
6.13639e-05
7.28838e-05
1.08879e-05
1.69418e-05
2.48313e-05
3.44374e-05
5.52982e-05
7.06983e-05
7.88652e-06
1.26004e-05
1.98756e-05
2.97326e-05
4.36065e-05
5.21536e-05
1.02273e-05
1.74104e-05
2.84422e-05
4.32256e-05
6.07981e-05
5.98548e-05
1.38643e-05
2.44882e-05
4.03878e-05
6.11089e-05
8.20124e-05
7.35802e-05
1.80139e-05
3.22487e-05
5.29269e-05
7.86343e-05
0.000102229
8.89672e-05
2.15561e-05
3.80047e-05
6.11678e-05
8.93965e-05
0.000115139
0.000101288
2.341e-05
4.00638e-05
6.28829e-05
9.11862e-05
0.000119019
0.000107858
2.343e-05
3.86278e-05
5.91841e-05
8.61735e-05
0.000116692
0.000109656
2.2063e-05
3.4939e-05
5.2185e-05
7.67048e-05
0.000109965
0.000106676
1.95076e-05
2.97236e-05
4.33092e-05
6.42416e-05
9.74399e-05
9.88047e-05
1.57073e-05
2.32119e-05
3.33291e-05
4.96479e-05
7.89788e-05
8.65656e-05
1.15207e-05
1.67974e-05
2.42031e-05
3.6352e-05
5.95435e-05
7.38315e-05
9.77092e-06
1.41515e-05
2.04758e-05
3.0115e-05
4.76016e-05
6.50083e-05
1.37171e-05
1.99726e-05
2.82305e-05
3.84909e-05
5.27644e-05
6.27093e-05
2.50505e-05
3.58125e-05
4.86205e-05
6.13129e-05
7.19736e-05
6.23403e-05
8.31881e-05
8.15041e-05
3.1998e-05
1.76725e-05
1.00366e-05
5.64282e-06
8.66362e-05
0.000100206
3.75104e-05
1.85549e-05
1.05796e-05
6.2979e-06
8.78611e-05
0.000123199
4.51691e-05
2.23853e-05
1.30995e-05
8.18661e-06
8.84619e-05
0.000140351
5.4253e-05
2.79808e-05
1.69016e-05
1.0937e-05
8.73837e-05
0.000149686
6.2544e-05
3.38457e-05
2.09377e-05
1.36845e-05
8.47703e-05
0.000151034
6.83313e-05
3.88567e-05
2.41399e-05
1.54972e-05
8.08661e-05
0.000145995
7.17338e-05
4.29744e-05
2.68015e-05
1.69159e-05
7.72156e-05
0.000135876
7.19382e-05
4.55724e-05
2.88737e-05
1.79234e-05
7.43001e-05
0.000122151
6.89481e-05
4.56834e-05
2.94584e-05
1.82086e-05
7.22981e-05
0.000107143
6.28124e-05
4.29631e-05
2.80784e-05
1.74271e-05
7.19669e-05
9.22068e-05
5.37556e-05
3.75002e-05
2.4731e-05
1.5487e-05
7.35304e-05
7.85449e-05
4.31446e-05
3.04511e-05
2.03522e-05
1.28984e-05
7.65334e-05
6.82613e-05
3.39187e-05
2.40226e-05
1.62122e-05
1.04983e-05
8.05637e-05
6.61478e-05
2.73384e-05
1.9716e-05
1.34698e-05
8.76029e-06
7.1543e-05
6.52909e-05
3.84915e-05
2.54653e-05
1.6088e-05
9.70785e-06
7.72251e-05
7.77518e-05
3.75474e-05
2.12535e-05
1.30297e-05
8.19295e-06
8.21916e-05
9.81429e-05
4.28987e-05
2.33372e-05
1.4765e-05
9.92859e-06
8.71149e-05
0.000119533
5.27715e-05
2.97389e-05
1.9665e-05
1.38119e-05
9.11776e-05
0.000136079
6.48617e-05
3.81677e-05
2.58563e-05
1.84207e-05
9.34856e-05
0.00014579
7.67878e-05
4.73066e-05
3.20018e-05
2.23616e-05
9.34301e-05
0.000148357
8.73606e-05
5.6443e-05
3.80809e-05
2.60263e-05
9.16913e-05
0.000144167
9.50435e-05
6.52493e-05
4.4528e-05
2.97187e-05
8.78451e-05
0.000137713
9.85276e-05
7.12092e-05
4.94088e-05
3.26925e-05
8.25048e-05
0.000128157
9.79491e-05
7.32721e-05
5.16169e-05
3.40331e-05
7.67529e-05
0.000114253
9.12158e-05
7.01599e-05
5.00678e-05
3.29835e-05
7.17724e-05
9.50925e-05
7.79815e-05
6.17389e-05
4.47396e-05
2.94525e-05
6.87429e-05
7.51088e-05
6.23299e-05
5.06789e-05
3.75509e-05
2.50809e-05
6.85052e-05
6.06401e-05
4.70815e-05
4.08799e-05
3.12777e-05
2.14792e-05
6.3773e-05
7.31831e-05
5.89927e-05
4.48357e-05
3.10057e-05
2.02455e-05
6.65937e-05
5.77447e-05
3.98901e-05
2.80372e-05
1.86375e-05
1.22817e-05
7.03761e-05
5.58405e-05
3.32042e-05
2.26275e-05
1.58095e-05
1.14633e-05
7.83694e-05
6.71445e-05
3.77783e-05
2.6455e-05
2.00219e-05
1.55838e-05
8.89063e-05
8.33038e-05
4.84002e-05
3.511e-05
2.75903e-05
2.19772e-05
9.95061e-05
9.77861e-05
6.2141e-05
4.59456e-05
3.61094e-05
2.83466e-05
0.000107676
0.000108311
7.67452e-05
5.78167e-05
4.5414e-05
3.49293e-05
0.000112749
0.000116012
9.0638e-05
7.07522e-05
5.57991e-05
4.20542e-05
0.000114676
0.000123132
0.000103922
8.41019e-05
6.65747e-05
4.93839e-05
0.000113359
0.0001294
0.00011648
9.64309e-05
7.62706e-05
5.57978e-05
0.000108231
0.000132222
0.000125104
0.000104638
8.221e-05
5.94188e-05
9.82562e-05
0.000127351
0.00012413
0.000103964
8.12409e-05
5.81685e-05
8.30938e-05
0.000112505
0.000110625
9.24754e-05
7.35153e-05
5.33205e-05
6.80818e-05
9.19801e-05
9.04507e-05
7.71457e-05
6.27485e-05
4.75106e-05
8.61794e-05
8.17005e-05
2.8461e-05
1.41171e-05
7.2765e-06
3.92616e-06
8.9963e-05
0.000102394
3.6219e-05
1.75982e-05
9.72393e-06
5.73061e-06
9.12297e-05
0.000123112
4.44571e-05
2.20698e-05
1.28999e-05
8.04521e-06
9.11278e-05
0.000137465
5.35027e-05
2.76948e-05
1.66074e-05
1.05375e-05
8.96931e-05
0.000144375
6.16991e-05
3.34286e-05
2.02037e-05
1.26529e-05
8.61346e-05
0.000144514
6.76637e-05
3.83834e-05
2.31953e-05
1.41464e-05
8.10209e-05
0.000138575
7.02662e-05
4.19484e-05
2.53732e-05
1.50705e-05
7.58704e-05
0.00012781
6.94214e-05
4.36258e-05
2.65122e-05
1.54624e-05
7.24406e-05
0.000113702
6.5104e-05
4.26191e-05
2.62728e-05
1.51784e-05
7.04963e-05
9.85508e-05
5.76543e-05
3.8482e-05
2.40557e-05
1.39458e-05
7.0549e-05
8.48827e-05
4.81439e-05
3.24128e-05
2.03985e-05
1.20058e-05
7.25037e-05
7.43973e-05
3.87006e-05
2.61239e-05
1.66836e-05
1.0063e-05
7.55034e-05
6.68612e-05
3.08791e-05
2.04276e-05
1.30014e-05
7.93103e-06
7.92159e-05
7.05672e-05
2.90238e-05
1.88912e-05
1.19134e-05
7.18031e-06
7.35161e-05
6.06356e-05
2.51397e-05
1.32953e-05
7.29166e-06
4.25603e-06
8.02493e-05
8.16602e-05
3.27785e-05
1.7326e-05
1.03527e-05
6.49845e-06
8.57648e-05
0.000104899
4.23523e-05
2.32238e-05
1.47986e-05
9.86917e-06
9.05083e-05
0.000123757
5.38628e-05
3.0823e-05
2.02076e-05
1.38103e-05
9.39248e-05
0.000135994
6.63675e-05
3.96008e-05
2.60844e-05
1.75913e-05
9.45506e-05
0.000142498
7.84742e-05
4.8627e-05
3.19074e-05
2.09576e-05
9.24e-05
0.000143589
8.78384e-05
5.6955e-05
3.73593e-05
2.39593e-05
8.89954e-05
0.000138653
9.36802e-05
6.40312e-05
4.22143e-05
2.64792e-05
8.42525e-05
0.000130499
9.46501e-05
6.82908e-05
4.55471e-05
2.82353e-05
7.85943e-05
0.000119406
9.11678e-05
6.74763e-05
4.54739e-05
2.81235e-05
7.31152e-05
0.000104032
8.25126e-05
6.19438e-05
4.20873e-05
2.60367e-05
6.90813e-05
8.6222e-05
6.93661e-05
5.32188e-05
3.66174e-05
2.28512e-05
6.7148e-05
7.00832e-05
5.60911e-05
4.36044e-05
3.05169e-05
1.92928e-05
6.75759e-05
6.26035e-05
4.61642e-05
3.69321e-05
2.63793e-05
1.69534e-05
5.51696e-05
3.58455e-05
1.97301e-05
1.25072e-05
7.59699e-06
4.87086e-06
6.30616e-05
4.38358e-05
2.2048e-05
1.47049e-05
1.00063e-05
6.9387e-06
7.2451e-05
6.06819e-05
3.00935e-05
2.09295e-05
1.52005e-05
1.11466e-05
8.31731e-05
7.89948e-05
4.09741e-05
2.93551e-05
2.19585e-05
1.65162e-05
9.41877e-05
9.45383e-05
5.38576e-05
3.92776e-05
2.96012e-05
2.20666e-05
0.000103606
0.000105293
6.80032e-05
5.02072e-05
3.78791e-05
2.75968e-05
0.000110376
0.000112469
8.17691e-05
6.18007e-05
4.68722e-05
3.35193e-05
0.000114151
0.000118775
9.381e-05
7.32034e-05
5.5987e-05
3.96245e-05
0.000115032
0.000123987
0.000104434
8.38371e-05
6.42285e-05
4.50496e-05
0.000112789
0.000127813
0.000113192
9.19796e-05
7.00326e-05
4.8613e-05
0.000106504
0.000127653
0.000116992
9.52845e-05
7.18405e-05
4.93101e-05
9.56492e-05
0.000120767
0.000112661
9.16907e-05
6.88169e-05
4.70619e-05
8.14374e-05
0.000107663
0.000101012
8.19605e-05
6.23061e-05
4.31589e-05
6.79065e-05
9.08021e-05
8.52033e-05
7.03524e-05
5.48152e-05
3.94224e-05
3.81279e-05
3.98124e-05
4.21034e-05
4.24842e-05
4.05342e-05
3.67336e-05
3.20685e-05
2.70533e-05
2.23073e-05
1.76583e-05
1.24597e-05
7.52504e-06
4.83724e-06
5.71471e-06
1.88976e-05
1.95879e-05
2.09228e-05
2.17659e-05
2.14529e-05
2.00137e-05
1.78306e-05
1.51698e-05
1.25534e-05
1.00506e-05
6.86988e-06
4.04433e-06
3.2126e-06
6.04919e-06
1.11062e-05
9.60214e-06
8.96937e-06
8.75248e-06
8.5195e-06
8.04931e-06
7.30841e-06
6.31091e-06
5.34192e-06
4.40899e-06
3.01352e-06
2.03818e-06
2.93123e-06
7.63674e-06
1.22255e-05
8.25059e-06
5.40271e-06
3.66627e-06
2.77124e-06
2.33585e-06
2.06694e-06
1.80856e-06
1.6045e-06
1.39928e-06
1.0274e-06
1.16396e-06
3.21176e-06
9.4349e-06
1.82934e-05
1.20057e-05
6.83572e-06
3.37127e-06
1.50964e-06
7.03612e-07
4.14905e-07
3.17937e-07
2.93223e-07
2.91748e-07
3.27905e-07
1.00568e-06
3.84256e-06
1.12016e-05
2.45123e-05
1.63806e-05
9.17417e-06
4.26112e-06
1.61429e-06
4.91985e-07
1.24366e-07
3.74131e-08
2.88996e-08
4.81763e-08
2.09119e-07
1.17327e-06
4.56755e-06
1.25557e-05
2.9719e-05
1.94574e-05
1.0573e-05
4.67189e-06
1.6454e-06
4.50085e-07
9.15213e-08
1.32077e-08
2.57715e-09
2.28436e-08
2.44037e-07
1.40958e-06
5.15181e-06
1.32605e-05
3.55304e-05
2.29468e-05
1.21596e-05
5.13917e-06
1.69475e-06
4.28832e-07
8.4451e-08
1.58268e-08
5.02967e-09
2.87092e-08
2.8834e-07
1.54676e-06
5.29854e-06
1.29216e-05
4.16674e-05
2.62739e-05
1.35246e-05
5.51133e-06
1.75903e-06
4.64749e-07
1.34891e-07
6.26732e-08
3.71377e-08
5.05485e-08
3.12282e-07
1.52366e-06
4.96622e-06
1.17116e-05
4.74532e-05
2.88029e-05
1.43102e-05
5.68745e-06
1.89709e-06
6.98085e-07
4.09519e-07
3.08049e-07
2.18336e-07
1.6617e-07
3.44749e-07
1.28882e-06
4.00041e-06
9.40293e-06
5.13094e-05
2.9533e-05
1.40994e-05
5.62428e-06
2.3143e-06
1.50337e-06
1.36472e-06
1.21407e-06
9.53039e-07
7.01535e-07
6.50477e-07
1.13522e-06
2.81858e-06
6.52665e-06
5.17521e-05
2.81665e-05
1.31315e-05
5.74932e-06
3.57474e-06
3.60502e-06
3.8589e-06
3.72319e-06
3.18194e-06
2.52396e-06
1.95239e-06
1.73036e-06
2.19646e-06
4.05034e-06
4.83285e-05
2.53277e-05
1.20285e-05
6.6251e-06
6.36642e-06
7.8483e-06
8.90439e-06
9.0785e-06
8.39983e-06
7.2223e-06
5.73181e-06
4.37557e-06
3.42276e-06
3.5543e-06
4.53422e-05
2.34076e-05
1.20025e-05
9.00452e-06
1.12645e-05
1.46934e-05
1.70468e-05
1.81778e-05
1.80921e-05
1.67421e-05
1.41792e-05
1.10854e-05
8.17671e-06
6.4409e-06
2.64696e-05
2.8474e-05
3.07577e-05
3.17245e-05
3.09819e-05
2.87301e-05
2.56546e-05
2.21148e-05
1.85855e-05
1.51161e-05
1.07819e-05
6.38519e-06
3.86246e-06
3.90827e-06
1.42049e-05
1.46855e-05
1.55675e-05
1.61771e-05
1.60695e-05
1.51717e-05
1.37102e-05
1.18525e-05
9.96779e-06
8.16522e-06
5.67636e-06
3.28535e-06
2.39551e-06
3.99108e-06
8.95292e-06
7.4469e-06
6.68452e-06
6.36934e-06
6.16696e-06
5.85337e-06
5.36216e-06
4.68664e-06
4.02298e-06
3.39918e-06
2.36879e-06
1.55317e-06
2.03804e-06
5.02502e-06
1.07066e-05
6.92347e-06
4.29807e-06
2.75246e-06
1.98599e-06
1.6393e-06
1.44909e-06
1.27887e-06
1.14871e-06
1.02717e-06
7.65183e-07
8.33532e-07
2.21855e-06
6.33445e-06
1.62887e-05
1.03165e-05
5.66818e-06
2.69994e-06
1.15733e-06
5.06869e-07
2.82038e-07
2.11993e-07
1.98102e-07
2.02864e-07
2.32054e-07
7.15897e-07
2.71079e-06
7.73715e-06
2.11529e-05
1.35687e-05
7.35441e-06
3.33417e-06
1.24058e-06
3.71293e-07
9.0618e-08
2.51649e-08
1.89534e-08
3.36034e-08
1.53903e-07
8.54896e-07
3.29217e-06
8.93302e-06
2.46091e-05
1.55879e-05
8.21246e-06
3.54273e-06
1.22988e-06
3.3407e-07
6.75439e-08
9.59403e-09
1.87288e-09
1.78117e-08
1.83489e-07
1.04302e-06
3.80349e-06
9.77782e-06
2.83445e-05
1.78282e-05
9.18312e-06
3.79491e-06
1.23602e-06
3.12194e-07
6.22476e-08
1.23136e-08
4.26776e-09
2.2536e-08
2.16575e-07
1.15417e-06
3.98684e-06
9.82639e-06
3.19482e-05
1.98241e-05
9.9861e-06
3.99253e-06
1.26141e-06
3.3658e-07
1.02684e-07
5.03403e-08
2.98355e-08
3.85279e-08
2.31251e-07
1.13796e-06
3.78445e-06
9.11469e-06
3.48942e-05
2.11446e-05
1.03901e-05
4.07586e-06
1.35557e-06
5.15777e-07
3.16848e-07
2.40869e-07
1.67343e-07
1.22791e-07
2.48229e-07
9.52048e-07
3.05315e-06
7.38596e-06
3.61772e-05
2.11829e-05
1.01328e-05
4.02491e-06
1.68162e-06
1.14026e-06
1.05002e-06
9.2321e-07
7.04458e-07
5.03147e-07
4.5122e-07
8.03979e-07
2.10615e-06
5.06484e-06
3.52684e-05
1.99488e-05
9.43761e-06
4.16544e-06
2.6815e-06
2.77827e-06
2.95563e-06
2.78195e-06
2.29276e-06
1.76437e-06
1.32542e-06
1.15759e-06
1.52898e-06
2.95135e-06
3.20201e-05
1.7781e-05
8.66881e-06
4.89352e-06
4.91421e-06
6.12934e-06
6.8339e-06
6.72267e-06
5.94205e-06
4.92151e-06
3.79157e-06
2.83194e-06
2.19101e-06
2.2753e-06
2.91837e-05
1.61847e-05
8.61951e-06
6.77198e-06
8.87084e-06
1.16043e-05
1.31121e-05
1.334e-05
1.25286e-05
1.10098e-05
8.94948e-06
6.82011e-06
4.88574e-06
3.67619e-06
1.45951e-05
1.599e-05
1.78121e-05
1.91284e-05
1.92734e-05
1.83679e-05
1.66983e-05
1.45917e-05
1.23394e-05
1.01782e-05
7.37571e-06
4.42214e-06
2.49239e-06
2.07302e-06
7.34925e-06
7.31828e-06
7.75943e-06
8.30515e-06
8.55645e-06
8.35186e-06
7.73564e-06
6.84515e-06
5.86436e-06
4.94478e-06
3.55415e-06
2.0481e-06
1.23852e-06
1.75569e-06
5.37995e-06
3.87518e-06
3.12772e-06
2.86749e-06
2.82137e-06
2.76953e-06
2.61895e-06
2.37045e-06
2.09768e-06
1.84688e-06
1.33487e-06
8.12909e-07
8.3534e-07
2.20954e-06
7.96752e-06
4.66389e-06
2.55208e-06
1.40213e-06
8.86373e-07
6.93183e-07
6.19247e-07
5.69855e-07
5.31445e-07
4.98661e-07
3.74113e-07
3.4332e-07
8.822e-07
2.96511e-06
1.22809e-05
7.21594e-06
3.67353e-06
1.61558e-06
6.23139e-07
2.34487e-07
1.13025e-07
8.31433e-08
8.23375e-08
8.9064e-08
9.23241e-08
2.65634e-07
1.14688e-06
3.82273e-06
1.51725e-05
8.95897e-06
4.514e-06
1.91717e-06
6.72358e-07
1.89942e-07
4.30318e-08
1.05598e-08
7.57089e-09
1.27479e-08
5.37688e-08
3.34372e-07
1.47786e-06
4.60496e-06
1.73218e-05
1.00371e-05
4.85555e-06
1.94445e-06
6.34838e-07
1.64178e-07
3.19222e-08
4.38103e-09
7.25353e-10
5.65247e-09
6.64537e-08
4.30492e-07
1.78778e-06
5.24518e-06
1.95585e-05
1.1146e-05
5.21382e-06
1.97874e-06
6.01411e-07
1.43893e-07
2.74239e-08
5.12767e-09
1.58382e-09
7.33904e-09
8.19529e-08
4.94619e-07
1.93011e-06
5.38651e-06
2.14714e-05
1.19957e-05
5.43727e-06
1.97521e-06
5.77403e-07
1.46059e-07
4.36259e-08
2.0857e-08
1.1745e-08
1.3192e-08
9.00799e-08
5.03647e-07
1.88253e-06
5.09316e-06
2.26929e-05
1.23538e-05
5.4363e-06
1.92758e-06
5.98958e-07
2.28526e-07
1.43103e-07
1.05469e-07
6.97609e-08
4.57412e-08
9.53363e-08
4.27823e-07
1.55272e-06
4.19076e-06
2.26216e-05
1.19126e-05
5.09927e-06
1.85098e-06
7.73249e-07
5.5714e-07
5.09961e-07
4.29889e-07
3.12291e-07
2.05586e-07
1.7097e-07
3.44498e-07
1.0725e-06
2.89837e-06
2.11501e-05
1.08079e-05
4.61902e-06
1.95903e-06
1.38113e-06
1.48679e-06
1.53813e-06
1.38667e-06
1.0896e-06
7.89163e-07
5.47105e-07
4.60211e-07
7.09506e-07
1.62625e-06
1.84978e-05
9.36635e-06
4.23022e-06
2.52288e-06
2.83625e-06
3.54592e-06
3.82555e-06
3.61865e-06
3.05703e-06
2.41933e-06
1.7562e-06
1.22264e-06
9.18101e-07
1.06446e-06
1.63659e-05
8.40218e-06
4.38301e-06
3.94908e-06
5.60496e-06
7.2361e-06
7.92773e-06
7.79085e-06
7.04257e-06
5.96872e-06
4.64423e-06
3.35893e-06
2.26899e-06
1.65433e-06
5.87103e-06
6.48829e-06
7.72032e-06
8.6924e-06
9.11076e-06
8.92676e-06
8.26003e-06
7.28268e-06
6.16221e-06
5.05873e-06
3.65975e-06
2.1931e-06
1.19802e-06
8.99895e-07
2.81193e-06
2.53261e-06
2.7244e-06
3.03762e-06
3.27338e-06
3.30934e-06
3.14513e-06
2.84234e-06
2.47625e-06
2.11708e-06
1.53517e-06
8.74759e-07
4.63169e-07
5.33431e-07
2.77519e-06
1.63702e-06
1.10687e-06
9.20787e-07
8.95936e-07
8.9705e-07
8.72511e-07
8.15373e-07
7.4525e-07
6.74404e-07
4.9604e-07
2.87846e-07
2.34256e-07
6.47896e-07
4.77777e-06
2.49617e-06
1.19293e-06
5.50019e-07
2.84489e-07
1.943e-07
1.69203e-07
1.59795e-07
1.56662e-07
1.56745e-07
1.20522e-07
9.35728e-08
2.25426e-07
9.25845e-07
7.22562e-06
3.85458e-06
1.78312e-06
7.12667e-07
2.45418e-07
7.70665e-08
2.87694e-08
1.97385e-08
2.15819e-08
2.54788e-08
2.44799e-08
6.01056e-08
3.07371e-07
1.27031e-06
8.72843e-06
4.63307e-06
2.11175e-06
8.17178e-07
2.63137e-07
6.85339e-08
1.41395e-08
2.93635e-09
1.91875e-09
3.06793e-09
1.0462e-08
7.61732e-08
4.18999e-07
1.62294e-06
9.87649e-06
5.06039e-06
2.18467e-06
7.8942e-07
2.35435e-07
5.62458e-08
1.02278e-08
1.3315e-09
1.87869e-10
8.56166e-10
1.24472e-08
1.02216e-07
5.29816e-07
1.92585e-06
1.09585e-05
5.44036e-06
2.23832e-06
7.57427e-07
2.08414e-07
4.57318e-08
8.05039e-09
1.37429e-09
3.67787e-10
1.07924e-09
1.58992e-08
1.21564e-07
5.87793e-07
2.01489e-06
1.17369e-05
5.64192e-06
2.22189e-06
7.12289e-07
1.86899e-07
4.30706e-08
1.19478e-08
5.39803e-09
2.86694e-09
2.35869e-09
1.80845e-08
1.2757e-07
5.86225e-07
1.92652e-06
1.20244e-05
5.58559e-06
2.11842e-06
6.58826e-07
1.84898e-07
6.75315e-08
4.15482e-08
2.92858e-08
1.83451e-08
1.04468e-08
1.98354e-08
1.09573e-07
4.86838e-07
1.58012e-06
1.15634e-05
5.16219e-06
1.89743e-06
6.11588e-07
2.48464e-07
1.83516e-07
1.63945e-07
1.31174e-07
9.01163e-08
5.40493e-08
3.98685e-08
8.63504e-08
3.30388e-07
1.07212e-06
1.03755e-05
4.49896e-06
1.66458e-06
6.69675e-07
5.08339e-07
5.53733e-07
5.52164e-07
4.72198e-07
3.50834e-07
2.34714e-07
1.49947e-07
1.18582e-07
2.08172e-07
5.87186e-07
8.72973e-06
3.77057e-06
1.53387e-06
9.8739e-07
1.20599e-06
1.48629e-06
1.54475e-06
1.39357e-06
1.11497e-06
8.25094e-07
5.59832e-07
3.64236e-07
2.66697e-07
3.52947e-07
7.53871e-06
3.3592e-06
1.73428e-06
1.84064e-06
2.70928e-06
3.42129e-06
3.63439e-06
3.43579e-06
2.95519e-06
2.37396e-06
1.74121e-06
1.18891e-06
7.62425e-07
5.44304e-07
1.6609e-06
1.89231e-06
2.53577e-06
3.09206e-06
3.43249e-06
3.49409e-06
3.3076e-06
2.95087e-06
2.49635e-06
2.03391e-06
1.47409e-06
8.5568e-07
4.23574e-07
3.00546e-07
8.88561e-07
6.58678e-07
7.0899e-07
8.43133e-07
9.73714e-07
1.03625e-06
1.02145e-06
9.49686e-07
8.39961e-07
7.17087e-07
5.24762e-07
2.90205e-07
1.33273e-07
1.18618e-07
1.22753e-06
5.88973e-07
3.15232e-07
2.25379e-07
2.16645e-07
2.25899e-07
2.30189e-07
2.24291e-07
2.09179e-07
1.92651e-07
1.43742e-07
7.85136e-08
4.70477e-08
1.25248e-07
2.32029e-06
1.06821e-06
4.44509e-07
1.72193e-07
7.17333e-08
4.19178e-08
3.59602e-08
3.554e-08
3.7084e-08
3.83435e-08
2.97878e-08
1.88591e-08
3.72131e-08
1.98631e-07
3.56093e-06
1.69587e-06
7.00367e-07
2.49503e-07
7.58531e-08
2.01695e-08
6.0652e-09
3.85967e-09
4.4254e-09