/*--------------------------------*- C++ -*----------------------------------*\
| =========                 |                                                 |
| \\      /  F ield         | OpenFOAM: The Open Source CFD Toolbox           |
|  \\    /   O peration     | Version:  v2106                                 |
|   \\  /    A nd           | Website:  www.openfoam.com                      |
|    \\/     M anipulation  |                                                 |
\*---------------------------------------------------------------------------*/
FoamFile
{
    version     2.0;
    format      ascii;
    arch        "LSB;label=32;scalar=64";
    class       volScalarField;
    location    "0.000128";
    object      p;
}
// * * * * * * * * * * * * * * * * * * * * * * * * * * * * * * * * * * * * * //

dimensions      [1 -1 -2 0 0 0 0];

internalField   nonuniform List<scalar> 
144746
(
205742
205941
206058
206214
206325
206431
206489
206533
206522
206518
206466
206392
206358
206278
205667
205866
206005
206199
206339
206480
206552
206605
206595
206561
206486
206396
206362
206243
205534
205763
205898
206105
206243
206387
206454
206501
206510
206472
206393
206320
206269
206134
205482
205734
205868
206071
206204
206356
206430
206475
206482
206428
206338
206266
206207
206062
205405
205644
205772
205970
206112
206266
206336
206371
206379
206314
206214
206136
206063
205904
205301
205519
205649
205841
205981
206121
206183
206215
206226
206154
206058
205972
205887
205729
205169
205372
205488
205662
205792
205922
205967
205996
205996
205932
205839
205735
205632
205499
205054
205203
205284
205429
205547
205660
205705
205739
205736
205677
205583
205470
205372
205251
204918
205028
205083
205196
205292
205381
205428
205455
205447
205393
205304
205196
205111
205002
204789
204850
204861
204940
205013
205074
205122
205153
205152
205109
205024
204926
204859
204762
204656
204674
204649
204692
204748
204792
204827
204853
204854
204831
204778
204713
204671
204585
204500
204481
204413
204428
204467
204504
204540
204574
204600
204609
204595
204555
204544
204463
204417
204358
204259
204225
204231
204258
204306
204349
204399
204437
204468
204456
204492
204431
204286
204174
204030
203981
203966
204000
204067
204138
204230
204297
204363
204383
204485
204502
204267
204827
205257
205816
206288
206687
207036
207254
207414
207500
207438
207154
206692
206039
205059
205704
206148
206630
207023
207324
207583
207728
207831
207832
207750
207455
207020
206345
205675
206251
206664
207110
207471
207735
207951
208073
208139
208090
207972
207681
207250
206602
206167
206700
207080
207502
207844
208077
208251
208341
208380
208340
208181
207894
207484
206850
206365
206922
207286
207695
208032
208286
208462
208555
208577
208477
208323
208037
207627
207025
206357
206963
207384
207855
208183
208441
208608
208686
208690
208571
208381
208090
207730
207162
206189
206855
207342
207825
208143
208436
208629
208728
208742
208608
208423
208113
207761
207219
205998
206695
207248
207670
208052
208353
208562
208666
208684
208553
208372
208070
207740
207220
205666
206388
207031
207423
207851
208159
208380
208490
208507
208386
208217
207942
207625
207145
205319
206052
206719
207129
207554
207872
208109
208238
208264
208155
207996
207745
207419
206971
204867
205620
206307
206739
207162
207477
207705
207834
207854
207764
207640
207407
207103
206683
204327
205093
205780
206248
206672
207001
207249
207407
207450
207340
207225
206960
206686
206296
203871
204628
205268
205744
206155
206466
206686
206819
206845
206791
206671
206408
206123
205711
203219
203894
204541
205060
205466
205762
205969
206111
206156
206115
205948
205656
205371
204976
207576
208677
209771
210626
211464
212139
212818
213320
213766
213981
214075
213680
212892
211437
209691
210565
211616
212405
213162
213791
214370
214810
215193
215309
215186
214675
213675
212193
211127
212199
213178
213993
214670
215216
215662
215968
216175
216175
215962
215333
214392
212903
211998
213269
214226
215075
215723
216209
216576
216823
216963
216906
216582
215968
215003
213510
212516
213863
214892
215731
216371
216849
217191
217406
217491
217382
217007
216362
215415
213950
212460
213949
215148
216062
216747
217252
217588
217783
217835
217695
217304
216663
215722
214276
212099
213794
215032
216080
216832
217377
217727
217927
217983
217842
217464
216818
215904
214495
211626
213467
214831
215979
216780
217369
217744
217954
217999
217848
217487
216858
215972
214621
210992
212897
214421
215663
216533
217163
217556
217778
217813
217664
217316
216726
215871
214689
210390
212345
213973
215268
216187
216828
217226
217450
217453
217284
216915
216345
215478
214501
209535
211614
213339
214698
215656
216286
216686
216899
216871
216690
216304
215772
214935
213998
208705
210847
212578
213976
214965
215578
215963
216103
216031
215817
215395
214848
214049
213111
207478
209804
211580
213040
214019
214584
214908
215009
214898
214638
214148
213576
212680
211826
206128
208762
210523
211976
212906
213495
213723
213630
213406
213058
212557
211989
210959
209883
206288
206321
206489
206409
206518
206397
206370
206292
206493
206302
206454
206264
206236
206165
206388
206194
206375
206151
206164
206042
206267
206117
206295
206052
205984
205852
206081
205932
206093
205905
205806
205650
205874
205714
205876
205560
205581
205417
205644
205480
205665
205350
205336
205150
205375
205209
205431
205154
205080
204887
205124
204943
205169
204924
204827
204680
204911
204745
204979
204807
204644
204471
204699
204513
204732
204574
204568
204454
204706
204612
204921
204728
204563
204473
204663
204497
204657
204501
204647
204615
204831
204772
204997
204859
205384
204554
204548
203917
204239
203397
205848
204941
204820
203981
204242
203122
205884
204936
204759
203869
204155
202802
206114
205062
204815
203976
204293
202888
206283
205206
204900
204042
204362
202927
206462
205402
205083
204217
204506
203031
206576
205602
205297
204462
204721
203375
206631
205763
205482
204665
204851
203603
206648
205912
205637
204805
204922
203733
206560
205885
205606
204789
204877
203786
206318
205595
205347
204475
204565
203555
205966
205158
204934
204124
204281
203252
205427
204507
204314
203364
203398
202453
204803
203905
203870
203091
203277
202455
209672
207075
204705
200938
198676
191252
210670
208048
205539
201179
198439
189077
211161
208399
205605
200827
197938
187560
211763
208861
206005
201158
198221
187527
212265
209302
206432
201605
198877
188726
212649
209719
206982
202372
199886
190821
212969
210096
207504
203224
200981
193379
213173
210442
208053
204216
202155
195818
213255
210742
208523
205081
203198
197707
213094
210783
208832
205749
204008
199006
212730
210482
208659
205566
203781
198647
211756
209559
207705
204679
202852
197353
210611
208197
206261
202603
200442
194195
208100
205549
203536
199948
197846
190916
204680
204739
204906
204795
204968
204775
204610
204632
204893
204828
205060
204849
204536
204546
204825
204736
204959
204674
204472
204451
204723
204671
204901
204554
204372
204324
204565
204471
204649
204376
204269
204167
204365
204233
204421
204038
204133
203969
204166
204000
204177
203845
204033
203816
203978
203749
203980
203679
203939
203687
203839
203614
203745
203465
203919
203677
203828
203563
203871
203519
203970
203772
203917
203695
203855
203664
204058
203921
204101
204016
204312
204110
204205
204105
204282
204216
204436
204199
204280
204267
204442
204333
204551
204361
204238
203315
203292
202566
202884
201885
204876
203940
203780
202829
203108
201854
204970
203954
203713
202806
203069
201588
205172
204104
203834
202945
203268
201677
205286
204207
203895
202970
203287
201631
205358
204296
203955
203066
203312
201563
205369
204381
204034
203185
203442
201785
205315
204420
204094
203239
203445
201817
205169
204303
203977
203073
203255
201675
204941
204091
203835
202962
203150
201673
204573
203629
203343
202334
202513
201005
204139
203078
202838
201878
201995
200651
203653
202552
202452
201426
201528
200230
202878
201796
201850
200910
201217
200082
208037
204872
202453
198371
196029
187769
209339
206415
203763
199228
196457
186044
210116
207106
204143
199333
196428
184851
210724
207742
204800
199847
196954
185006
211201
208276
205332
200492
197756
186476
211574
208721
205859
201267
198666
188575
211834
209117
206337
202052
199580
190877
211920
209406
206797
202811
200462
192648
211842
209338
206955
203202
200921
193781
211434
208869
206642
202924
200615
193461
210449
207874
205683
201988
199725
192137
208960
206351
204083
200134
197733
189884
207493
204390
202041
198098
195900
187173
203974
200773
198684
195108
193213
184018
205523
205683
205541
205714
205604
205699
205397
205529
205411
205533
205435
205618
205101
205300
205089
205330
205260
205482
205125
205220
205071
205239
205154
205431
204735
204917
204772
205070
205041
205318
204634
204814
204713
204961
204920
205235
204609
204738
204654
204918
204910
205190
204624
204735
204688
204929
204897
205123
204567
204739
204700
204931
204870
205029
204544
204781
204732
204956
204842
204944
204652
204901
204799
204962
204803
204844
204688
204959
204807
204922
204719
204722
204585
204887
204719
204787
204572
204572
204595
204876
204717
204785
204619
204532
201440
202349
202035
202901
202871
203888
201886
202825
202688
203581
203678
204739
202270
203228
203139
204016
204239
205249
203229
204249
204077
204777
205002
205787
203785
204716
204556
205212
205385
206050
204158
204997
204725
205368
205512
206040
204094
204818
204498
205159
205137
205764
203593
204413
204089
204724
204683
205474
202849
203852
203527
204159
204137
205067
202171
203315
202969
203626
203636
204647
201597
202844
202451
203130
203153
204193
201090
202296
201901
202561
202600
203700
200589
201914
201634
202368
202399
203396
200179
201419
201175
201875
201797
202743
187844
195560
197436
200746
202751
205356
191322
198342
200333
203696
205671
208202
194142
200255
202208
205511
207516
209611
197158
202474
204350
207118
208583
210727
198674
203411
204863
207492
209079
211205
199128
203535
204755
207099
208600
210888
198141
202720
203717
206178
207848
210289
196106
201452
202371
205075
206906
209500
193338
199946
200873
203895
205948
208680
190383
198430
199446
202750
205041
207932
187484
196933
198175
201718
204176
207145
184856
195469
196991
200761
203302
206341
183148
194262
196111
199913
202423
205473
182693
192932
195004
198753
201111
204242
206189
206297
206187
206437
206314
206511
206644
206746
206444
206469
206324
206420
206483
206541
206380
206477
206327
206449
206555
206630
206420
206546
206371
206522
206575
206597
206419
206581
206463
206609
206631
206586
206445
206613
206474
206616
206553
206527
206435
206636
206518
206662
206461
206488
206423
206632
206506
206634
206321
206433
206381
206598
206471
206601
206241
206399
206336
206569
206423
206531
206251
206437
206351
206522
206353
206430
206200
206360
206246
206405
206225
206293
205937
206179
206070
206239
206070
206122
205836
206038
205952
206085
205962
205949
203905
204544
204387
205105
205128
205854
204552
205138
205041
205639
205768
206497
204948
205751
205616
206177
206307
206878
205719
206426
206193
206703
206765
207288
206095
206641
206422
206934
206984
207381
205930
206425
206206
206780
206806
207216
205467
206019
205792
206388
206393
206956
204828
205506
205271
205871
205899
206607
204070
204880
204645
205281
205327
206177
203359
204320
204034
204704
204750
205668
202681
203839
203469
204172
204200
205190
202096
203271
202918
203575
203591
204656
201669
202884
202622
203353
203397
204406
201389
202459
202197
202864
202798
203689
194788
200774
202820
205977
207804
209750
198619
203713
205435
208221
209819
211771
201318
205670
207292
209786
211030
212697
202984
206659
207808
210017
211376
213107
203505
206746
207638
209560
210837
212732
202693
205949
206708
208750
210162
212225
200843
204616
205303
207550
209107
211418
198314
203051
203751
206382
208126
210688
195375
201380
202180
205168
207135
209864
192559
199800
200737
204026
206231
209117
189876
198289
199484
203010
205385
208274
187600
196929
198399
202064
204508
207406
186265
195886
197705
201409
203831
206736
186007
194798
196953
200457
202757
205407
216359
216299
217081
217097
217476
217671
218141
218560
219164
219666
220092
220315
220569
219823
218265
218234
218752
218892
219196
219389
219736
220009
220432
220794
221034
220999
220782
219767
219169
219501
219956
220243
220503
220700
220949
221148
221421
221585
221655
221498
221102
220245
219429
220152
220661
221095
221381
221597
221802
221958
222136
222210
222155
221888
221354
220407
219241
220252
220994
221520
221876
222145
222363
222510
222632
222639
222477
222153
221543
220648
218857
220130
221004
221689
222169
222506
222748
222891
222976
222948
222742
222350
221669
220735
218391
219763
220863
221683
222262
222659
222935
223095
223176
223140
222915
222516
221833
220896
218035
219510
220791
221699
222353
222793
223081
223239
223304
223247
223005
222595
221919
221001
217541
219155
220560
221578
222307
222785
223089
223255
223318
223259
223027
222640
222011
221180
217354
219100
220541
221571
222286
222738
223016
223167
223202
223130
222900
222545
221945
221236
216903
218782
220304
221379
222120
222561
222809
222945
222954
222886
222666
222376
221805
221247
216997
218828
220282
221274
221955
222328
222499
222582
222540
222456
222202
221944
221338
220881
216184
218386
219877
220890
221512
221820
221935
221969
221883
221797
221537
221348
220834
220580
216196
218558
219876
220626
221111
221314
221285
221195
221038
220899
220554
220341
219554
219372
222813
222309
222653
222314
222314
222293
222605
223023
223692
224462
225158
225642
226436
226141
224370
223924
224029
223899
223941
223976
224250
224547
225033
225515
226008
226294
226512
225991
224709
224786
224924
225023
225116
225203
225416
225629
225963
226281
226509
226683
226619
226203
224591
225132
225436
225705
225875
226023
226234
226421
226660
226871
226974
226937
226724
226174
224179
225034
225603
225992
226293
226550
226795
226982
227159
227288
227279
227127
226771
226202
223691
224742
225506
226095
226550
226901
227178
227374
227525
227600
227525
227282
226796
226130
223073
224303
225321
226077
226651
227081
227400
227615
227755
227807
227694
227424
226895
226160
222576
224030
225219
226101
226760
227231
227562
227780
227904
227933
227788
227497
226967
226210
222233
223829
225110
226078
226787
227284
227625
227848
227965
227989
227846
227568
227089
226403
222276
223927
225229
226191
226874
227324
227629
227829
227923
227940
227803
227547
227114
226511
222237
223944
225264
226200
226873
227271
227526
227700
227774
227800
227695
227506
227155
226732
222812
224362
225526
226340
226899
227196
227362
227481
227520
227545
227454
227326
226957
226687
222507
224406
225511
226284
226760
226966
227037
227096
227103
227141
227071
227093
226872
226829
223177
225101
225935
226421
226720
226734
226647
226596
226558
226609
226532
226598
226207
226225
228152
227614
227548
227115
226973
226839
226959
227296
227779
228369
229128
229705
230588
230694
229275
228771
228535
228268
228132
228056
228187
228425
228811
229294
229734
230236
230701
230594
229199
229225
229080
229013
228960
228958
229082
229247
229510
229838
230104
230391
230647
230572
228976
229295
229382
229429
229482
229558
229705
229852
230053
230291
230484
230585
230663
230504
228555
229149
229352
229596
229798
229981
230161
230311
230474
230630
230734
230746
230632
230424
228073
228771
229282
229699
230016
230274
230485
230651
230797
230915
230955
230895
230654
230332
227516
228500
229189
229730
230150
230473
230717
230895
231028
231118
231119
231024
230742
230337
227234
228355
229207
229840
230317
230665
230917
231095
231212
231279
231242
231111
230816
230372
227144
228335
229254
229936
230435
230790
231046
231228
231335
231398
231351
231221
230963
230538
227406
228567
229475
230138
230610
230925
231155
231323
231410
231471
231415
231286
231068
230649
227546
228759
229658
230283
230737
231009
231208
231367
231441
231518
231485
231394
231278
230930
228230
229335
230073
230556
230913
231100
231236
231370
231423
231517
231500
231445
231316
231038
228358
229691
230354
230777
231050
231142
231196
231288
231316
231428
231417
231515
231526
231512
229112
230545
230877
231104
231238
231160
231098
231131
231147
231286
231266
231436
231313
231398
231269
230624
230372
230057
229899
229826
229969
230258
230692
231207
231786
232323
233138
233424
231930
231505
231157
230943
230814
230777
230936
231159
231513
231940
232378
232761
233240
233275
231743
231713
231559
231523
231518
231561
231718
231885
232125
232407
232638
232937
233178
233184
231642
231810
231850
231898
231990
232107
232278
232431
232623
232839
233010
233095
233199
233144
231227
231690
231859
232077
232314
232521
232716
232872
233028
233172
233264
233285
233208
233077
230907
231446
231881
232251
232566
232825
233040
233204
233340
233441
233487
233447
233255
233037
230541
231273
231868
232341
232733
233042
233281
233452
233573
233648
233657
233590
233374
233082
230381
231215
231930
232481
232913
233239
233482
233649
233751
233807
233781
233682
233458
233126
230360
231249
232009
232594
233039
233368
233611
233778
233870
233924
233893
233803
233622
233298
230586
231469
232211
232779
233202
233495
233715
233870
233947
233997
233966
233879
233743
233421
230793
231708
232413
232935
233332
233581
233772
233922
233992
234050
234041
233999
233954
233722
231404
232237
232791
233209
233525
233704
233846
233971
234024
234091
234088
234057
234040
233938
231710
232703
233151
233455
233672
233759
233852
233954
233994
234088
234122
234171
234327
234336
232562
233527
233684
233922
233935
233882
233873
233918
233937
234054
234080
234245
234288
234432
232952
232320
232086
231884
231774
231751
231943
232218
232603
233113
233582
234011
234707
234983
233460
233096
232801
232637
232573
232602
232793
233040
233370
233735
234099
234385
234782
234846
233335
233282
233189
233194
233244
233346
233525
233709
233927
234163
234369
234598
234777
234785
233376
233481
233551
233627
233754
233896
234073
234229
234400
234570
234707
234744
234809
234755
233100
233479
233667
233872
234119
234329
234519
234663
234793
234899
234957
234951
234865
234731
232891
233405
233759
234108
234411
234660
234861
235001
235102
235166
235176
235114
234940
234732
232656
233293
233811
234247
234612
234898
235113
235252
235336
235376
235350
235265
235070
234795
232531
233255
233890
234392
234789
235092
235309
235444
235513
235535
235484
235377
235169
234861
232501
233265
233951
234486
234897
235206
235425
235562
235627
235649
235600
235499
235329
235032
232671
233431
234096
234631
235028
235317
235519
235648
235703
235729
235687
235595
235470
235182
232845
233630
234243
234749
235117
235373
235555
235685
235742
235777
235769
235713
235658
235488
233345
234071
234552
234985
235294
235499
235646
235752
235786
235813
235810
235784
235776
235650
233666
234488
234849
235193
235396
235533
235643
235730
235755
235802
235853
235890
236052
236073
234507
235233
235365
235614
235705
235673
235699
235736
235734
235798
235837
235958
236065
236207
233963
233400
233241
233119
233081
233116
233322
233595
233972
234425
234831
235160
235698
235912
234371
234086
233885
233788
233786
233881
234084
234339
234655
234982
235273
235482
235766
235800
234338
234296
234275
234324
234423
234573
234772
234964
235174
235379
235537
235715
235806
235779
234490
234578
234673
234786
234943
235110
235301
235460
235626
235767
235862
235859
235854
235771
234355
234658
234872
235091
235328
235541
235736
235879
236001
236084
236114
236073
235942
235786
234246
234674
235015
235347
235636
235881
236079
236210
236299
236344
236324
236230
236043
235818
234088
234635
235097
235506
235844
236120
236325
236453
236525
236549
236499
236391
236184
235904
233962
234618
235180
235644
236011
236301
236508
236633
236696
236709
236643
236521
236304
235984
233939
234624
235228
235721
236098
236396
236604
236733
236798
236817
236762
236649
236467
236154
234080
234754
235342
235835
236201
236487
236681
236804
236864
236888
236849
236753
236616
236318
234230
234922
235454
235926
236257
236508
236684
236809
236874
236908
236906
236854
236780
236586
234655
235293
235701
236117
236400
236615
236760
236860
236899
236916
236927
236905
236895
236728
234942
235648
235942
236294
236491
236636
236742
236814
236831
236862
236921
236970
237079
237080
235722
236269
236356
236615
236715
236732
236755
236785
236780
236823
236879
236985
237113
237242
234707
234251
234173
234119
234143
234224
234418
234663
235003
235393
235751
236014
236427
236600
235081
234859
234737
234703
234761
234886
235093
235325
235612
235893
236141
236291
236485
236508
235124
235101
235121
235206
235345
235514
235714
235895
236085
236254
236377
236505
236542
236495
235339
235420
235522
235658
235827
236007
236199
236355
236509
236626
236697
236668
236605
236502
235292
235546
235742
235962
236189
236407
236606
236751
236866
236933
236946
236872
236704
236526
235231
235606
235906
236218
236489
236730
236929
237064
237152
237191
237152
237023
236809
236565
235126
235603
236009
236380
236689
236955
237160
237296
237373
237396
237329
237190
236957
236655
235064
235626
236106
236521
236852
237130
237336
237470
237543
237559
237484
237338
237100
236756
235063
235648
236160
236600
236939
237222
237427
237564
237641
237668
237610
237479
237272
236933
235201
235777
236276
236715
237044
237315
237505
237633
237703
237737
237703
237598
237435
237116
235338
235926
236379
236801
237095
237331
237496
237620
237694
237742
237747
237690
237591
237349
235704
236242
236590
236967
237218
237421
237559
237659
237713
237743
237766
237743
237712
237492
235953
236538
236790
237115
237296
237435
237536
237609
237642
237680
237742
237792
237850
237799
236627
237055
237124
237367
237457
237500
237534
237573
237596
237656
237727
237814
237915
237980
235287
234935
234891
234867
234908
234997
235182
235393
235687
236018
236340
236600
236958
237143
235607
235444
235375
235378
235463
235590
235784
235987
236241
236480
236704
236848
237018
237068
235684
235679
235725
235831
235981
236148
236335
236500
236673
236819
236955
237058
237085
237059
235883
235972
236093
236242
236416
236595
236780
236931
237073
237180
237228
237234
237172
237078
235885
236102
236312
236522
236747
236962
237159
237305
237416
237473
237484
237421
237266
237100
235856
236191
236486
236771
237033
237271
237469
237609
237700
237737
237702
237576
237363
237132
235817
236240
236603
236944
237232
237493
237697
237841
237925
237951
237886
237738
237502
237216
235828
236311
236725
237100
237405
237674
237878
238021
238102
238124
238048
237896
237661
237332
235860
236368
236804
237198
237506
237778
237982
238127
238211
238242
238179
238041
237836
237503
236018
236514
236934
237323
237618
237879
238069
238204
238283
238321
238283
238171
238008
237694
236173
236669
237046
237416
237677
237905
238067
238192
238273
238329
238336
238277
238170
237909
236504
236944
237236
237563
237779
237973
238113
238223
238298
238340
238375
238362
238305
238068
236740
237210
237417
237697
237850
237987
238089
238176
238239
238289
238359
238417
238431
238346
237305
237631
237692
237899
237968
238027
238080
238145
238209
238298
238389
238462
238525
238532
235899
235624
235596
235579
235618
235698
235856
236037
236299
236594
236898
237163
237495
237699
236149
236039
236006
236029
236112
236225
236396
236576
236807
237025
237242
237407
237573
237653
236209
236235
236305
236422
236569
236720
236889
237041
237207
237349
237491
237604
237642
237635
236363
236478
236620
236783
236956
237124
237297
237441
237581
237687
237746
237773
237726
237635
236375
236591
236812
237033
237252
237457
237644
237787
237899
237960
237982
237942
237807
237633
236383
236697
236983
237262
237515
237744
237935
238075
238169
238208
238192
238093
237883
237645
236404
236779
237113
237434
237708
237960
238158
238302
238387
238417
238371
238233
237988
237708
236479
236896
237259
237603
237885
238144
238342
238485
238567
238593
238530
238377
238135
237824
236567
237003
237372
237723
238004
238264
238462
238609
238694
238725
238665
238519
238306
237987
236761
237179
237526
237865
238128
238375
238565
238707
238793
238827
238785
238665
238489
238179
236939
237346
237652
237969
238201
238422
238593
238727
238824
238871
238872
238804
238670
238401
237245
237595
237827
238105
238296
238486
238638
238766
238869
238919
238958
238945
238839
238603
237466
237831
237988
238226
238363
238509
238625
238734
238831
238900
238990
239041
239006
238896
237940
238171
238214
238387
238448
238535
238621
238717
238825
238936
239060
239129
239165
239108
215160
214691
214065
214441
216424
218864
214115
212636
211603
211665
213434
215996
214734
212795
211189
210338
211240
213346
214706
212359
210395
209139
209620
211393
215170
212578
210411
208824
209015
210510
215528
212907
210871
209299
209237
210395
216184
213663
211946
210537
210503
211507
216815
214654
213408
212454
212733
213988
217622
216006
215226
214656
215272
216776
218443
217410
216967
216721
217750
219427
219243
218655
218537
218478
219814
221618
219686
219521
219489
219606
221325
223345
219914
219625
219475
219667
221642
224041
218353
218416
218410
219001
221374
224002
222232
222713
222609
223008
224099
225241
220210
219534
219152
219467
220686
222104
220371
218940
217754
217140
217453
218346
219839
217830
216067
214930
214840
215149
219888
217507
215253
213658
213256
213187
220013
217450
215080
213359
212774
212552
220516
217903
215706
214050
213607
213482
221284
218917
217139
215786
215726
215718
222278
220354
219203
218278
218729
218783
223302
222019
221420
220990
221854
221936
224390
223778
223544
223568
224710
224943
225139
225087
225365
225811
227200
227703
226016
226032
226359
226909
228352
229363
224965
225542
226102
227035
228707
230010
227945
228562
228330
228205
228275
228726
225861
225480
225003
224663
224758
225265
225618
224417
223114
222039
221412
221182
224987
223290
221436
219768
218538
217767
224884
222690
220357
218251
216652
215643
224859
222563
220070
217810
216134
214976
225189
222959
220503
218306
216778
215734
225818
223822
221662
219885
218800
218159
226738
225064
223608
222355
221776
221624
227696
226419
225686
225017
224987
225275
228699
228096
227887
227745
228161
228820
229483
229442
229747
230110
230913
231772
230626
230673
231173
231629
232591
233714
229942
230596
231165
232067
233106
234317
231451
232266
232128
231790
231406
231370
229213
229038
228704
228488
228291
228089
228847
227954
226850
225738
224811
223981
228316
226905
225276
223550
221957
220405
228165
226304
224194
221900
219768
217891
228145
226088
223802
221273
218956
216804
228441
226404
224204
221664
219447
217355
228957
227211
225144
223023
221320
219647
229719
228289
226831
225380
224247
223087
230568
229459
228686
227763
227274
226726
231470
230886
230685
230350
230362
230287
232186
232090
232366
232529
233029
233330
233276
233303
233827
234171
234859
235471
232952
233564
234053
234887
235644
236410
233046
233832
233750
233502
233080
233005
231142
231016
230658
230364
230067
229817
230841
230131
229068
227951
226790
225828
230428
229194
227565
225861
224058
222408
230284
228708
226728
224486
222094
219902
230293
228500
226376
223844
221195
218743
230606
228749
226815
224260
221739
219254
231110
229450
227732
225501
223527
221452
231757
230392
229071
227648
226278
224819
232449
231506
230715
229817
229068
228337
233238
232708
232411
232095
231974
231804
233832
233739
233880
234016
234375
234666
234737
234771
235214
235514
236049
236640
234653
235199
235568
236216
236856
237651
233949
234622
234675
234633
234474
234383
232438
232374
232042
231847
231593
231456
232243
231738
230871
229919
228890
227889
231932
230950
229541
227974
226254
224570
231831
230564
228833
226867
224514
222217
231861
230399
228505
226353
223648
221025
232159
230657
228745
226766
224127
221552
232625
231245
229714
227712
225675
223533
233186
232034
230802
229465
228124
226600
233822
233025
232257
231388
230603
229791
234495
234006
233702
233378
233232
233071
234999
234858
234921
235020
235310
235581
235697
235704
236062
236351
236836
237396
235656
236121
236448
237003
237588
238336
234617
235135
235218
235308
235301
235364
233439
233401
233108
233001
232867
232656
233323
232920
232226
231479
230560
229666
233112
232290
231140
229860
228306
226722
233078
231996
230573
228859
226873
224708
233155
231885
230308
228373
226223
223647
233420
232113
230563
228609
226598
224048
233823
232701
231326
229597
227746
225732
234305
233364
232267
231016
229794
228396
234850
234199
233504
232718
231978
231190
235428
235027
234732
234424
234272
234119
235856
235727
235750
235809
236050
236295
236429
236424
236717
236981
237423
237948
236399
236774
237072
237566
238093
238785
235169
235522
235574
235667
235692
235821
234248
234190
233932
233853
233763
233598
234170
233820
233268
232691
232005
231208
234019
233314
232392
231382
230177
228804
234004
233083
231937
230578
228925
227190
234086
233011
231696
230190
228306
226401
234314
233206
231867
230370
228500
226607
234659
233708
232552
231170
229512
227777
235066
234277
233352
232294
231140
229946
235540
234993
234400
233726
233034
232325
236055
235713
235455
235175
234994
234841
236457
236337
236347
236385
236568
236772
236957
236957
237209
237440
237821
238288
236988
237301
237557
237977
238433
239050
235788
236043
236075
236134
236152
236277
235059
234987
234773
234692
234626
234535
234990
234672
234228
233772
233260
232686
234871
234259
233505
232688
231741
230625
234850
234058
233117
232004
230695
229116
234914
233987
232898
231617
230176
228384
235107
234138
233026
231713
230287
228590
235389
234562
233606
232441
231150
229619
235740
235058
234282
233385
232436
231370
236155
235676
235166
234604
234022
233383
236630
236329
236096
235845
235665
235497
237019
236912
236912
236930
237056
237175
237486
237489
237696
237878
238179
238541
237581
237819
238029
238360
238725
239223
219325
219282
218911
219236
221579
223715
218604
217762
217063
217043
219212
221416
218968
217643
216527
215918
217437
219531
218944
217306
215845
214585
215405
217160
219149
217190
215471
213647
213840
215169
219237
217195
215390
213274
212966
213914
219425
217369
215517
213331