/*--------------------------------*- C++ -*----------------------------------*\
| =========                 |                                                 |
| \\      /  F ield         | OpenFOAM: The Open Source CFD Toolbox           |
|  \\    /   O peration     | Version:  v2106                                 |
|   \\  /    A nd           | Website:  www.openfoam.com                      |
|    \\/     M anipulation  |                                                 |
\*---------------------------------------------------------------------------*/
FoamFile
{
    version     2.0;
    format      ascii;
    arch        "LSB;label=32;scalar=64";
    class       volScalarField;
    location    "0.000128";
    object      Ttot;
}
// * * * * * * * * * * * * * * * * * * * * * * * * * * * * * * * * * * * * * //

dimensions      [0 0 0 1 0 0 0];

internalField   nonuniform List<scalar> 
144746
(
304.056
304.234
304.286
304.368
304.37
304.333
304.217
304.075
303.929
303.856
303.794
303.713
303.66
303.598
304.096
304.31
304.345
304.42
304.416
304.397
304.301
304.198
304.092
304.022
303.95
303.864
303.82
303.712
304.021
304.245
304.279
304.337
304.315
304.29
304.198
304.114
304.049
304.001
303.941
303.885
303.853
303.764
304.005
304.235
304.268
304.31
304.271
304.235
304.147
304.076
304.029
303.988
303.939
303.902
303.892
303.826
304.024
304.24
304.272
304.29
304.237
304.185
304.092
304.022
303.985
303.939
303.9
303.876
303.873
303.821
304.028
304.257
304.29
304.288
304.216
304.141
304.038
303.965
303.932
303.888
303.861
303.847
303.841
303.786
304.041
304.282
304.304
304.275
304.189
304.105
303.996
303.921
303.885
303.845
303.821
303.8
303.78
303.714
304.103
304.314
304.313
304.26
304.167
304.073
303.971
303.904
303.87
303.833
303.809
303.778
303.748
303.658
304.157
304.332
304.325
304.258
304.162
304.065
303.973
303.908
303.874
303.836
303.809
303.771
303.734
303.622
304.182
304.317
304.302
304.24
304.155
304.06
303.98
303.925
303.896
303.854
303.817
303.765
303.715
303.587
304.17
304.289
304.272
304.22
304.15
304.064
303.99
303.935
303.902
303.864
303.823
303.763
303.702
303.56
304.1
304.218
304.192
304.143
304.086
304.02
303.965
303.924
303.904
303.875
303.831
303.763
303.695
303.531
304.058
304.18
304.137
304.072
304.017
303.968
303.94
303.913
303.907
303.886
303.844
303.762
303.696
303.529
303.926
303.999
303.939
303.879
303.837
303.818
303.818
303.812
303.83
303.823
303.784
303.688
303.636
303.524
304.705
304.968
305.069
305.237
305.287
305.271
305.263
305.21
305.195
305.21
305.172
305.095
305.016
304.776
305.333
305.726
305.814
305.918
305.928
305.857
305.777
305.662
305.608
305.55
305.471
305.35
305.269
304.98
305.559
305.933
306.006
306.073
306.057
305.971
305.867
305.745
305.686
305.627
305.574
305.497
305.398
305.156
305.612
305.942
305.988
306.008
305.955
305.855
305.761
305.677
305.636
305.61
305.61
305.613
305.565
305.359
305.587
305.938
305.938
305.895
305.789
305.675
305.596
305.554
305.54
305.521
305.589
305.646
305.643
305.486
305.594
305.994
305.995
305.939
305.783
305.62
305.501
305.451
305.449
305.462
305.562
305.661
305.714
305.6
305.592
306.042
306.041
305.943
305.772
305.608
305.481
305.436
305.446
305.467
305.59
305.683
305.742
305.653
305.676
306.177
306.17
306.007
305.86
305.689
305.552
305.499
305.509
305.529
305.652
305.738
305.799
305.713
305.686
306.251
306.302
306.125
305.991
305.816
305.682
305.628
305.633
305.64
305.744
305.818
305.86
305.763
305.739
306.351
306.439
306.275
306.135
305.972
305.857
305.816
305.816
305.801
305.871
305.912
305.907
305.774
305.727
306.39
306.535
306.402
306.269
306.126
306.03
305.99
305.967
305.933
305.974
305.983
305.949
305.796
305.705
306.389
306.566
306.475
306.36
306.246
306.183
306.153
306.115
306.064
306.078
306.041
305.984
305.825
305.696
306.41
306.589
306.511
306.408
306.306
306.26
306.241
306.208
306.175
306.156
306.086
305.978
305.767
305.495
306.097
306.322
306.293
306.211
306.145
306.144
306.167
306.172
306.147
306.071
305.932
305.748
305.56
306.388
306.532
306.718
306.664
306.678
306.558
306.507
306.382
306.393
306.529
306.926
307.341
307.695
307.58
307.387
307.424
307.543
307.441
307.338
307.171
307.033
306.854
306.8
306.845
307.075
307.404
307.7
307.728
307.589
307.6
307.585
307.503
307.377
307.224
307.077
306.912
306.851
306.886
307.084
307.37
307.734
307.888
307.274
307.372
307.31
307.21
307.085
306.964
306.863
306.786
306.803
306.891
307.077
307.41
307.783
307.935
307.005
307.162
307.109
306.968
306.829
306.715
306.644
306.631
306.693
306.814
307.048
307.391
307.76
307.888
306.734
307.065
307.086
306.965
306.79
306.631
306.541
306.548
306.631
306.773
307.039
307.385
307.717
307.79
306.614
307.131
307.17
307.073
306.856
306.653
306.541
306.551
306.64
306.784
307.047
307.355
307.64
307.665
306.727
307.405
307.476
307.326
307.045
306.804
306.672
306.673
306.753
306.886
307.129
307.392
307.61
307.576
306.875
307.681
307.796
307.604
307.273
307.006
306.868
306.87
306.939
307.059
307.274
307.499
307.652
307.632
307.154
308.07
308.196
307.95
307.58
307.3
307.169
307.183
307.236
307.342
307.502
307.662
307.711
307.739
307.258
308.336
308.521
308.268
307.891
307.619
307.532
307.577
307.629
307.742
307.855
307.97
307.97
308.019
307.445
308.546
308.767
308.544
308.192
307.939
307.915
307.975
308.038
308.172
308.259
308.33
308.285
308.301
307.34
308.531
308.872
308.73
308.408
308.161
308.159
308.242
308.355
308.519
308.604
308.665
308.539
308.532
307.285
308.528
308.9
308.814
308.547
308.348
308.29
308.326
308.47
308.646
308.741
308.804
308.566
308.349
303.357
302.929
302.213
301.112
299.737
297.739
303.527
303.04
302.353
301.172
299.779
297.786
303.611
303.133
302.434
301.216
299.761
297.782
303.706
303.21
302.498
301.237
299.71
297.736
303.711
303.218
302.485
301.172
299.576
297.629
303.684
303.171
302.42
301.079
299.451
297.409
303.599
303.074
302.332
301.012
299.387
297.27
303.504
302.951
302.234
300.963
299.386
297.197
303.432
302.86
302.164
300.938
299.408
297.149
303.382
302.815
302.113
300.92
299.421
297.15
303.34
302.751
302.063
300.892
299.429
297.111
303.306
302.76
302.096
300.997
299.61
297.234
303.292
302.777
302.099
300.938
299.483
297.08
303.314
302.838
302.145
301.049
299.616
297.273
304.244
303.189
302.278
301.141
300.062
298.054
304.497
303.393
302.446
301.164
300.062
298.043
304.6
303.495
302.475
301.078
299.889
297.814
304.856
303.696
302.548
301.037
299.759
297.667
305.006
303.852
302.602
300.907
299.53
297.434
305.159
303.993
302.671
300.846
299.372
297.22
305.247
304.112
302.781
300.918
299.378
297.223
305.335
304.26
302.989
301.143
299.574
297.353
305.428
304.48
303.311
301.495
299.902
297.569
305.464
304.607
303.531
301.761
300.16
297.766
305.473
304.609
303.589
301.859
300.282
297.83
305.497
304.566
303.552
301.915
300.389
297.854
305.412
304.405
303.376
301.72
300.204
297.697
305.176
304.145
303.189
301.719
300.315
297.91
307.199
306.04
304.686
302.473
301.043
296.818
307.571
306.369
304.812
302.287
300.682
295.819
307.658
306.339
304.503
301.713
300.04
294.76
307.724
306.335
304.377
301.422
299.534
294.096
307.703
306.274
304.23
301.095
299.054
293.86
307.614
306.209
304.185
300.979
298.825
294.028
307.528
306.18
304.251
301.112
298.967
294.712
307.462
306.274
304.601
301.736
299.676
295.831
307.51
306.593
305.271
302.748
300.791
297.086
307.619
306.913
306.008
303.829
301.879
298.127
307.924
307.274
306.535
304.457
302.472
298.484
308.141
307.485
306.673
304.641
302.677
298.421
308.452
307.615
306.649
304.249
302.204
297.666
307.906
306.903
305.81
303.441
301.558
296.943
303.355
302.882
302.117
300.982
299.551
297.322
303.439
302.943
302.242
301.098
299.652
297.451
303.542
303.065
302.362
301.151
299.616
297.405
303.633
303.142
302.429
301.18
299.583
297.364
303.656
303.143
302.407
301.101
299.439
297.25
303.64
303.084
302.314
300.983
299.33
297.057
303.599
303.001
302.216
300.879
299.254
296.962
303.592
302.96
302.142
300.79
299.222
296.904
303.575
302.918
302.093
300.758
299.185
296.856
303.579
302.916
302.069
300.729
299.283
296.931
303.611
302.944
302.082
300.744
299.241
296.993
303.643
302.973
302.126
300.867
299.446
297.248
303.641
302.966
302.108
300.895
299.476
297.392
303.564
302.92
302.015
300.724
299.344
297.529
304.92
303.701
302.679
301.366
300.148
297.857
305.252
304.016
302.958
301.479
300.236
297.946
305.383
304.128
302.956
301.405
300.086
297.733
305.563
304.286
303.002
301.347
299.966
297.586
305.675
304.42
303.042
301.202
299.721
297.348
305.739
304.506
303.101
301.185
299.611
297.166
305.768
304.619
303.268
301.344
299.746
297.257
305.785
304.742
303.493
301.577
299.962
297.388
305.791
304.814
303.656
301.756
300.175
297.535
305.834
304.858
303.77
301.939
300.395
297.741
305.886
304.799
303.671
301.831
300.333
297.65
305.869
304.626
303.471
301.757
300.29
297.774
305.542
304.198
303.063
301.407
300.083
297.809
304.844
303.403
302.213
300.612
299.541
297.676
307.943
306.491
305.054
302.507
300.873
296.081
308.361
306.992
305.422
302.748
301.053
295.469
308.49
307.028
305.145
302.297
300.603
294.576
308.5
307.065
305.085
302.04
300.18
294
308.429
307.047
305.008
301.844
299.844
293.962
308.297
307.008
305.028
301.884
299.795
294.339
308.2
307.098
305.284
302.275
300.206
295.207
308.17
307.323
305.84
303.079
301.026
296.25
308.273
307.553
306.45
303.933
301.883
297.199
308.487
307.756
306.878
304.499
302.489
297.684
308.63
307.832
306.908
304.612
302.779
297.707
308.524
307.571
306.483
304.07
302.315
297.276
308.073
306.69
305.385
303.018
301.712
296.47
306.474
304.753
303.193
300.959
300.091
294.892
297.915
299.507
300.842
302.11
302.988
303.643
297.84
299.584
300.936
302.137
302.999
303.695
297.669
299.516
300.815
302.067
302.957
303.667
297.594
299.374
300.736
301.987
302.884
303.655
297.338
299.108
300.509
301.866
302.833
303.647
297.213
298.913
300.356
301.739
302.748
303.636
297.112
298.676
300.099
301.579
302.69
303.633
297.099
298.509
299.907
301.458
302.684
303.676
297.162
298.492
299.866
301.456
302.75
303.743
297.296
298.599
299.976
301.566
302.852
303.805
297.478
298.793
300.161
301.697
302.936
303.825
297.591
298.963
300.3
301.784
302.959
303.79
297.591
299.072
300.414
301.831
302.917
303.69
297.618
299.246
300.628
301.979
302.958
303.631
297.69
299.233
300.143
301.587
302.698
304.044
297.888
299.715
300.826
302.273
303.36
304.676
297.822
299.842
301.072
302.611
303.699
304.959
297.935
300.096
301.396
302.985
304.016
305.092
297.882
299.951
301.346
303.009
304.063
305.112
297.775
299.656
300.964
302.655
303.814
305.01
297.474
299.092
300.252
301.982
303.3
304.806
296.996
298.444
299.521
301.289
302.859
304.659
296.621
297.996
299.038
300.812
302.516
304.485
296.491
297.843
298.869
300.619
302.355
304.396
296.554
297.968
298.961
300.643
302.322
304.346
296.795
298.247
299.168
300.757
302.348
304.365
297.123
298.7
299.641
301.189
302.664
304.504
297.417
299.093
300.059
301.484
302.749
304.381
295.566
299.767
300.563
302.517
303.964
305.455
297.301
301.397
302.345
304.265
305.376
306.66
298.106
301.987
303.116
305.055
306.118
307.046
298.883
302.526
303.757
305.517
306.211
307.106
298.858
302.203
303.45
305.149
305.871
306.821
298.286
301.359
302.455
304.141
305.001
306.232
297.04
299.989
300.976
302.773
304.056
305.712
295.319
298.447
299.574
301.648
303.305
305.335
293.673
297.305
298.621
300.912
302.889
305.161
292.464
296.766
298.199
300.611
302.777
305.207
291.713
296.757
298.199
300.649
302.856
305.305
291.453
297.094
298.411
300.858
303.065
305.534
291.984
297.86
299.01
301.343
303.469
305.812
293.187
298.652
299.564
301.785
303.711
305.878
297.609
299.699
301.086
302.227
302.898
303.407
297.81
299.897
301.183
302.191
302.888
303.417
297.71
299.706
301.077
302.151
302.868
303.458
297.685
299.587
300.954
302.087
302.842
303.499
297.658
299.402
300.77
301.978
302.814
303.546
297.646
299.199
300.544
301.83
302.762
303.583
297.649
298.985
300.292
301.693
302.779
303.703
297.719
298.888
300.148
301.637
302.856
303.839
297.824
298.906
300.137
301.669
302.957
303.965
297.959
299.004
300.24
301.774
303.048
304.028
298.09
299.168
300.416
301.877
303.097
304.04
298.164
299.286
300.508
301.925
303.077
303.967
298.098
299.341
300.572
301.959
303.025
303.843
298.043
299.422
300.713
302.021
302.996
303.713
298.091
300.153
301.357
302.651
303.533
304.44
298.124
300.226
301.539
302.914
303.828
304.717
298.034
300.218
301.64
303.092
303.98
304.774
298.149
300.201
301.621
303.106
304.002
304.858
298.133
299.94
301.287
302.79
303.765
304.761
297.832
299.366
300.594
302.16
303.309
304.542
297.347
298.656
299.802
301.46
302.838
304.354
296.93
298.106
299.213
300.943
302.495
304.209
296.679
297.799
298.864
300.609
302.243
304.091
296.599
297.747
298.744
300.457
302.102
304.002
296.644
297.901
298.811
300.458
302.037
303.948
296.815
298.089
298.95
300.477
301.962
303.816
297.131
298.464
299.316
300.777
302.153
303.9
297.432
298.818
299.659
300.998
302.206
303.704
298.028
301.967
303.497
305.429
306.355
307.107
299.072
302.852
304.207
305.965
306.753
307.509
299.574
303.047
304.518
306.126
306.689
307.295
299.65
302.767
304.133
305.611
306.177
306.898
299.224
301.984
303.161
304.577
305.244
306.235
298.06
300.529
301.634
303.278
304.366
305.748
296.335
298.838
300.074
302.011
303.481
305.29
294.621
297.402
298.863
301.112
302.918
305.084
293.172
296.479
298.098
300.537
302.566
304.903
292.12
296.028
297.735
300.284
302.447
304.895
291.505
296.027
297.728
300.273
302.44
304.818
291.403
296.39
297.932
300.388
302.531
304.894
292.173
297.255
298.56
300.86
302.887
305.092
293.6
298.169
299.149
301.191
303.032
304.944
308.14
307.67
307.444
306.786
306.384
305.928
305.725
305.573
305.638
305.857
306.371
307.102
308.121
308.634
308.504
308.048
307.683
307.15
306.742
306.355
306.132
305.919
305.878
305.987
306.312
306.864
307.685
308.314
307.894
307.511
307.171
306.835
306.533
306.27
306.085
305.915
305.871
305.948
306.2
306.676
307.391
308.149
307.158
306.893
306.62
306.4
306.188
306.018
305.892
305.789
305.799
305.911
306.142
306.557
307.163
307.811
306.502
306.437
306.298
306.117
305.951
305.821
305.733
305.689
305.743
305.864
306.075
306.467
306.98
307.561
306.094
306.282
306.214
306.081
305.916
305.773
305.693
305.677
305.742
305.858
306.06
306.402
306.82
307.272
306.005
306.312
306.329
306.184
305.981
305.811
305.73
305.728
305.794
305.902
306.078
306.375
306.729
307.076
306.224
306.639
306.672
306.45
306.191
305.986
305.888
305.88
305.933
306.024
306.169
306.397
306.664
306.912
306.519
306.995
307.009
306.736
306.428
306.197
306.087
306.076
306.124
306.208
306.341
306.531
306.743
306.95
307.131
307.617
307.544
307.164
306.772
306.491
306.362
306.35
306.393
306.476
306.594
306.755
306.899
307.099
307.6
308.149
308.014
307.551
307.116
306.822
306.702
306.721
306.786
306.901
307.024
307.19
307.304
307.577
308.438
308.923
308.624
308.022
307.527
307.217
307.113
307.17
307.277
307.455
307.591
307.781
307.865
308.19
308.849
309.428
309.034
308.386
307.854
307.54
307.486
307.608
307.789
308.07
308.28
308.561
308.69
309.099
309.468
310.037
309.497
308.787
308.275
307.972
307.91
308.056
308.308
308.678
308.958
309.327
309.3
309.496
307.423
306.8
306.424
305.786
305.4
305.08
304.955
304.932
305.058
305.305
305.706
306.283
307.287
307.957
307.55
307.027
306.646
306.22
305.907
305.641
305.52
305.438
305.469
305.579
305.836
306.279
306.98
307.597
306.814
306.504
306.259
306.054
305.877
305.722
305.636
305.566
305.573
305.664
305.843
306.222
306.762
307.406
306.137
306.044
305.921
305.825
305.736
305.662
305.626
305.598
305.628
305.735
305.905
306.182
306.598
307.119
305.616
305.754
305.75
305.701
305.662
305.636
305.634
305.642
305.693
305.799
305.937
306.154
306.458
306.884
305.364
305.65
305.73
305.728
305.703
305.688
305.699
305.728
305.791
305.88
305.981
306.136
306.337
306.628
305.245
305.677
305.825
305.828
305.795
305.779
305.795
305.834
305.896
305.966
306.031
306.142
306.277
306.448
305.306
305.888
306.062
306.034
305.972
305.935
305.939
305.975
306.026
306.076
306.108
306.165
306.232
306.302
305.496
306.155
306.316
306.254
306.155
306.096
306.092
306.127
306.171
306.216
306.236
306.265
306.295
306.315
305.911
306.599
306.701
306.563
306.399
306.291
306.266
306.298
306.34
306.388
306.404
306.415
306.406
306.373
306.284
307.018
307.049
306.82
306.619
306.483
306.45
306.497
306.558
306.637
306.673
306.701
306.696
306.717
307.112
307.7
307.516
307.137
306.865
306.702
306.666
306.738
306.84
306.971
307.047
307.122
307.109
307.229
307.661
308.224
307.844
307.355
307.033
306.868
306.858
306.979
307.143
307.369
307.53
307.729
307.796
308.034
308.411
308.829
308.241
307.604
307.27
307.093
307.083
307.24
307.479
307.822
308.077
308.382
308.403
308.567
306.557
306.053
305.686
305.283
305.088
304.897
304.823
304.858
304.953
305.1
305.373
305.705
306.35
306.94
306.578
306.215
305.934
305.669
305.484
305.334
305.271
305.259
305.309
305.418
305.544
305.824
306.284
306.695
306.036
305.902
305.746
305.636
305.539
305.463
305.434
305.423
305.448
305.525
305.62
305.837
306.183
306.543
305.637
305.66
305.618
305.563
305.528
305.506
305.514
305.524
305.558
305.632
305.734
305.881
306.109
306.38
305.36
305.538
305.529
305.543
305.557
305.576
305.608
305.635
305.677
305.741
305.823
305.916
306.036
306.244
305.228
305.466
305.564
305.61
305.64
305.677
305.72
305.759
305.804
305.861
305.91
305.951
305.992
306.108
305.152
305.528
305.652
305.705
305.744
305.788
305.837
305.879
305.92
305.962
305.983
305.995
305.994
306.028
305.212
305.672
305.826
305.869
305.892
305.922
305.962
306
306.034
306.058
306.054
306.039
306.003
305.966
305.374
305.876
306.023
306.034
306.028
306.04
306.072
306.11
306.138
306.158
306.144
306.118
306.068
305.991
305.664
306.181
306.289
306.247
306.198
306.176
306.193
306.23
306.252
306.273
306.251
306.209
306.141
306.017
305.85
306.438
306.511
306.414
306.342
306.299
306.313
306.359
306.387
306.429
306.417
306.387
306.339
306.217
306.391
306.911
306.831
306.62
306.505
306.441
306.442
306.497
306.543
306.623
306.636
306.636
306.59
306.508
306.897
307.319
307.067
306.774
306.629
306.556
306.548
306.625
306.707
306.847
306.902
307.002
307.031
307.088
307.467
307.736
307.324
306.959
306.764
306.649
306.647
306.756
306.895
307.108
307.218
307.401
307.428
307.57
306.046
305.661
305.425
305.21
305.086
304.985
304.96
304.997
305.09
305.218
305.396
305.619
306.037
306.423
305.996
305.768
305.575
305.436
305.336
305.27
305.27
305.298
305.371
305.472
305.592
305.747
306.036
306.259
305.647
305.575
305.502
305.474
305.448
305.436
305.463
305.493
305.543
305.61
305.67
305.809
305.992
306.158
305.464
305.502
305.51
305.511
305.53
305.56
305.609
305.649
305.697
305.756
305.811
305.867
305.975
306.083
305.294
305.462
305.498
305.553
305.628
305.695
305.76
305.808
305.851
305.893
305.927
305.944
305.959
306.012
305.256
305.445
305.564
305.659
305.748
305.83
305.903
305.954
305.993
306.02
306.029
306.01
305.962
305.954
305.243
305.503
305.652
305.757
305.857
305.949
306.027
306.079
306.112
306.125
306.114
306.075
306.003
305.941
305.328
305.619
305.782
305.887
305.979
306.064
306.136
306.184
306.208
306.212
306.183
306.126
306.035
305.931
305.476
305.772
305.917
306.003
306.079
306.151
306.215
306.261
306.281
306.283
306.251
306.195
306.109
305.988
305.697
305.988
306.094
306.144
306.19
306.235
306.285
306.326
306.341
306.345
306.312
306.256
306.174
306.034
305.86
306.181
306.248
306.253
306.279
306.301
306.34
306.387
306.406
306.419
306.394
306.355
306.3
306.183
306.219
306.498
306.464
306.395
306.385
306.383
306.411
306.458
306.483
306.515
306.501
306.468
306.429
306.372
306.556
306.78
306.645
306.506
306.455
306.435
306.458
306.512
306.554
306.626
306.646
306.676
306.721
306.729
306.997
307.107
306.861
306.692
306.555
306.488
306.492
306.555
306.622
306.742
306.801
306.914
306.968
307.084
305.831
305.538
305.419
305.309
305.232
305.178
305.191
305.232
305.311
305.446
305.584
305.744
306.043
306.287
305.81
305.647
305.527
305.448
305.401
305.384
305.419
305.472
305.553
305.647
305.751
305.857
306.051
306.176
305.605
305.563
305.531
305.535
305.543
305.568
305.619
305.668
305.726
305.789
305.844
305.934
306.039
306.124
305.553
305.585
305.615
305.642
305.685
305.734
305.794
305.843
305.894
305.94
305.978
305.994
306.041
306.075
305.469
305.604
305.663
305.729
305.819
305.898
305.967
306.016
306.055
306.081
306.093
306.083
306.06
306.043
305.466
305.635
305.741
305.851
305.956
306.047
306.121
306.168
306.196
306.204
306.193
306.155
306.086
306.025
305.49
305.685
305.825
305.95
306.067
306.168
306.245
306.29
306.308
306.306
306.278
306.223
306.136
306.035
305.574
305.775
305.928
306.057
306.173
306.271
306.344
306.385
306.397
306.387
306.346
306.279
306.179
306.055
305.693
305.882
306.024
306.143
306.248
306.339
306.407
306.446
306.456
306.447
306.407
306.342
306.25
306.122
305.873
306.041
306.146
306.241
306.326
306.399
306.455
306.491
306.5
306.493
306.457
306.399
306.321
306.189
306.024
306.187
306.25
306.315
306.379
306.432
306.48
306.52
306.535
306.535
306.512
306.47
306.418
306.33
306.288
306.418
306.406
306.421
306.457
306.491
306.53
306.567
306.58
306.588
306.571
306.541
306.513
306.453
306.501
306.627
306.541
306.505
306.5
306.52
306.554
306.593
306.613
306.648
306.664
306.673
306.72
306.735
306.86
306.911
306.74
306.66
306.606
306.565
306.574
306.609
306.641
306.706
306.751
306.827
306.887
306.976
305.77
305.539
305.485
305.433
305.399
305.383
305.42
305.475
305.567
305.695
305.822
305.946
306.168
306.327
305.791
305.673
305.599
305.557
305.544
305.562
305.614
305.683
305.775
305.871
305.963
306.041
306.176
306.246
305.691
305.666
305.661
305.679
305.708
305.757
305.82
305.881
305.945
306.007
306.055
306.124
306.18
306.219
305.715
305.743
305.781
305.823
305.878
305.938
306.005
306.06
306.114
306.156
306.183
306.182
306.192
306.188
305.687
305.791
305.863
305.939
306.027
306.107
306.179
306.23
306.268
306.289
306.292
306.27
306.223
306.178
305.709
305.841
305.947
306.06
306.164
306.255
306.329
306.375
306.399
306.404
306.385
306.336
306.26
306.18
305.74
305.889
306.022
306.153
306.269
306.369
306.444
306.487
306.504
306.499
306.465
306.406
306.315
306.206
305.794
305.958
306.105
306.243
306.361
306.461
306.533
306.573
306.585
306.576
306.535
306.467
306.366
306.236
305.883
306.035
306.174
306.307
306.42
306.516
306.585
306.624
306.638
306.631
306.595
306.53
306.438
306.306
306.022
306.151
306.263
306.381
306.478
306.562
306.622
306.659
306.674
306.671
306.642
306.588
306.512
306.382
306.145
306.262
306.338
306.435
306.511
306.575
306.629
306.671
306.691
306.696
306.681
306.646
306.598
306.508
306.349
306.441
306.456
306.517
306.57
306.621
306.664
306.7
306.716
306.723
306.718
306.698
306.679
306.609
306.506
306.611
306.561
306.585
306.607
306.64
306.675
306.706
306.722
306.745
306.768
306.784
306.818
306.825
306.821
306.861
306.723
306.7
306.685
306.672
306.68
306.709
306.731
306.774
306.817
306.876
306.934
307.011
305.837
305.656
305.64
305.618
305.613
305.625
305.67
305.73
305.825
305.943
306.062
306.165
306.337
306.452
305.899
305.808
305.762
305.746
305.759
305.794
305.855
305.925
306.015
306.105
306.191
306.251
306.344
306.39
305.862
305.852
305.859
305.886
305.933
305.99
306.057
306.116
306.178
306.233
306.275
306.327
306.355
306.369
305.924
305.952
305.991
306.041
306.101
306.166
306.233
306.287
306.338
306.376
306.398
306.389
306.374
306.35
305.922
306.008
306.078
306.158
306.242
306.322
306.394
306.445
306.483
306.501
306.5
306.469
306.408
306.348
305.943
306.06
306.159
306.27
306.369
306.457
306.529
306.576
306.602
306.609
306.587
306.53
306.447
306.357
305.968
306.103
306.227
306.353
306.462
306.558
306.632
306.678
306.699
306.698
306.663
306.599
306.504
306.388
306.018
306.164
306.3
306.432
306.544
306.641
306.713
306.757
306.775
306.771
306.733
306.664
306.563
306.427
306.092
306.227
306.358
306.489
306.597
306.692
306.76
306.804
306.824
306.825
306.792
306.729
306.637
306.501
306.208
306.323
306.436
306.556
306.652
306.737
306.797
306.837
306.857
306.862
306.84
306.788
306.713
306.583
306.31
306.416
306.501
306.605
306.682
306.748
306.8
306.841
306.865
306.877
306.871
306.841
306.792
306.692
306.479
306.565
306.6
306.677
306.733
306.787
306.829
306.863
306.884
306.895
306.899
306.885
306.867
306.784
306.615
306.708
306.688
306.735
306.766
306.802
306.834
306.863
306.881
306.902
306.926
306.946
306.968
306.958
306.885
306.921
306.822
306.829
306.827
306.829
306.84
306.865
306.887
306.926
306.967
307.013
307.062
307.111
305.952
305.817
305.808
305.799
305.803
305.823
305.872
305.932
306.023
306.134
306.25
306.354
306.503
306.605
306.03
305.963
305.935
305.935
305.96
305.998
306.059
306.125
306.211
306.294
306.377
306.437
306.515
306.557
306.023
306.021
306.038
306.077
306.13
306.188
306.252
306.308
306.367
306.418
306.469
306.512
306.532
306.54
306.087
306.12
306.168
306.225
306.288
306.353
306.418
306.471
306.52
306.557
306.573
306.577
306.559
306.531
306.099
306.175
306.254
306.333
306.417
306.496
306.567
306.618
306.656
306.672
306.672
306.647
306.59
306.531
306.118
306.229
306.333
306.438
306.534
306.621
306.692
306.741
306.77
306.778
306.76
306.707
306.625
306.538
306.148
306.278
306.399
306.518
306.621
306.715
306.788
306.838
306.863
306.866
306.836
306.772
306.678
306.568
306.204
306.342
306.471
306.597
306.701
306.796
306.867
306.915
306.939
306.94
306.905
306.838
306.742
306.613
306.271
306.403
306.528
306.654
306.755
306.848
306.917
306.965
306.991
306.995
306.965
306.903
306.816
306.684
306.377
306.493
306.603
306.72
306.81
306.894
306.956
307.001
307.026
307.034
307.015
306.965
306.895
306.769
306.471
306.58
306.667
306.769
306.842
306.91
306.96
307.003
307.031
307.049
307.048
307.021
306.974
306.87
306.62
306.708
306.754
306.832
306.884
306.938
306.982
307.02
307.049
307.066
307.079
307.072
307.05
306.961
306.747
306.834
306.832
306.884
306.912
306.948
306.982
307.016
307.044
307.07
307.099
307.123
307.132
307.109
306.97
307.007
306.938
306.957
306.957
306.968
306.987
307.018
307.053
307.098
307.143
307.182
307.216
307.239
306.144
306.041
306.034
306.027
306.032
306.05
306.094
306.149
306.236
306.341
306.454
306.56
306.697
306.797
306.215
306.17
306.155
306.162
306.187
306.222
306.277
306.337
306.418
306.497
306.581
306.649
306.721
306.768
306.213
306.223
306.25
306.294
306.347
306.399
306.457
306.509
306.567
306.619
306.674
306.721
306.742
306.751
306.263
306.308
306.365
306.427
306.49
306.551
306.612
306.662
306.711
306.749
306.77
306.782
306.768
306.739
306.276
306.355
306.439
306.523
306.605
306.679
306.746
306.797
306.836
306.855
306.861
306.845
306.795
306.731
306.3
306.41
306.514
306.617
306.71
306.793
306.861
306.911
306.942
306.952
306.942
306.902
306.822
306.732
306.339
306.462
306.578
306.693
306.792
306.882
306.952
307.003
307.03
307.036
307.014
306.957
306.862
306.754
306.404
306.533
306.652
306.771
306.869
306.961
307.03
307.079
307.105
307.109
307.081
307.017
306.921
306.799
306.477
306.602
306.716
306.832
306.927
307.016
307.084
307.134
307.161
307.167
307.14
307.079
306.992
306.866
306.584
306.695
306.794
306.901
306.984
307.066
307.13
307.178
307.207
307.215
307.196
307.144
307.072
306.95
306.68
306.782
306.86
306.953
307.02
307.09
307.145
307.191
307.226
307.241
307.24
307.211
307.156
307.05
306.814
306.894
306.938
307.011
307.059
307.115
307.164
307.209
307.249
307.269
307.285
307.28
307.241
307.152
306.927
307.003
307.006
307.056
307.083
307.125
307.165
307.206
307.247
307.277
307.315
307.337
307.329
307.294
307.11
307.139
307.089
307.113
307.115
307.14
307.17
307.211
307.259
307.31
307.365
307.4
307.422
307.414
307.823
307.379
306.146
305.41
304.148
302.715
306.692
305.51
303.731
302.59
301.091
299.167
306.152
304.583
302.594
300.863
299.011
296.848
305.346
303.591
301.424
299.576
297.709
295.813
305.034
303.146
300.903
298.946
297.206
295.821
304.696
302.814
300.786
298.942
297.404
296.409
304.677
302.904
301.277
299.743
298.437
297.697
304.771
303.359
302.293
301.334
300.568
300.09
305.13
304.279
303.845
303.393
303.004
302.781
305.705
305.464
305.54
305.464
305.309
305.226
306.578
306.76
307.174
307.261
307.166
307.187
307.456
308.011
308.559
308.746
308.679
308.601
308.376
308.996
309.43
309.476
309.294
309.142
308.266
309.127
309.551
309.612
309.544
309.394
307.248
306.961
305.473
304.326
302.847
301.578
305.676
304.517
302.711
301.165
299.435
297.724
304.896
303.162
301.142
299.203
297.072
294.998
304.055
302.076
299.811
297.819
295.81
293.8
303.73
301.633
299.171
297.095
295.375
293.779
303.522
301.338
298.955
297.061
295.683
294.679
303.6
301.473
299.4
297.842
296.896
296.422
303.89
302.123
300.546
299.506
299.083
298.942
304.369
303.127
302.248
301.78
301.889
301.966
304.935
304.322
304.138
304.095
304.464
304.609
305.67
305.64
305.875
306.14
306.609
306.758
306.453
306.785
307.343
307.804
308.212
308.294
307.413
307.833
308.357
308.619
308.795
308.905
307.583
308.295
308.797
308.994
309.059
309.152
306.562
306.35
305.027
303.867
302.719
301.792
305.153
304.142
302.355
300.606
298.891
297.612
304.402
302.745
300.511
298.269
296.087
294.386
303.803
301.838
299.309
296.827
294.572
292.916
303.639
301.5
298.77
296.174
294.077
292.769
303.541
301.415
298.741
296.312
294.565
293.662
303.655
301.688
299.276
297.201
295.935
295.49
303.949
302.363
300.433
298.922
298.22
298.248
304.37
303.24
302.055
301.216
301.089
301.516
304.805
304.121
303.663
303.434
303.714
304.39
305.286
305.083
305.133
305.337
305.905
306.686
305.791
305.885
306.256
306.782
307.505
308.254
306.504
306.699
307.148
307.636
308.273
308.968
306.693
307.191
307.625
308.12
308.635
309.216
306.308
306.486
305.798
304.863
303.785
302.872
305.112
304.59
303.403
301.947
300.224
298.683
304.624
303.52
301.692
299.459
297.088
295.113
304.259
302.807
300.551
297.885
295.28
293.262
304.143
302.537
300.057
297.176
294.54
292.7
304.071
302.43
299.999
297.209
294.794
293.241
304.146
302.629
300.482
298.019
296.027
294.828
304.339
303.144
301.438
299.594
298.227
297.486
304.625
303.779
302.717
301.642
300.945
300.676
304.949
304.408
303.925
303.452
303.349
303.484
305.305
305.082
305.022
305.034
305.347
305.707
305.646
305.647
305.871
306.205
306.787
307.319
306.145
306.244
306.601
307.024
307.645
308.204
306.288
306.656