/*--------------------------------*- C++ -*----------------------------------*\
| =========                 |                                                 |
| \\      /  F ield         | OpenFOAM: The Open Source CFD Toolbox           |
|  \\    /   O peration     | Version:  v2106                                 |
|   \\  /    A nd           | Website:  www.openfoam.com                      |
|    \\/     M anipulation  |                                                 |
\*---------------------------------------------------------------------------*/
FoamFile
{
    version     2.0;
    format      ascii;
    arch        "LSB;label=32;scalar=64";
    class       volScalarField;
    location    "0.000176";
    object      Ttot;
}
// * * * * * * * * * * * * * * * * * * * * * * * * * * * * * * * * * * * * * //

dimensions      [0 0 0 1 0 0 0];

internalField   nonuniform List<scalar> 
18273
(
295.814
295.487
295.352
295.509
296.011
296.609
297.414
298.082
298.651
298.803
298.268
296.898
295.407
294.391
297.231
297.039
296.782
296.817
297.001
297.296
297.729
298.112
298.486
298.562
298.036
296.714
295.23
294.178
298.388
298.254
298.018
297.938
297.903
298.016
298.189
298.332
298.473
298.384
297.75
296.437
294.892
293.792
298.855
298.748
298.621
298.539
298.484
298.49
298.512
298.53
298.529
298.32
297.674
296.488
295.043
293.955
298.832
298.833
298.848
298.831
298.796
298.766
298.737
298.678
298.573
298.251
297.58
296.511
295.249
294.385
298.556
298.66
298.802
298.88
298.895
298.858
298.812
298.736
298.577
298.218
297.588
296.666
295.607
294.907
298.096
298.383
298.688
298.825
298.87
298.851
298.805
298.729
298.555
298.2
297.587
296.768
295.959
295.512
297.507
298.005
298.489
298.705
298.787
298.783
298.742
298.668
298.499
298.149
297.611
296.943
296.321
295.99
296.68
297.492
298.187
298.542
298.654
298.658
298.613
298.532
298.356
298.02
297.515
296.934
296.39
295.961
295.831
296.865
297.758
298.228
298.4
298.413
298.355
298.245
298.019
297.651
297.119
296.473
295.863
295.278
294.802
296.062
297.223
297.794
298.012
297.997
297.87
297.666
297.306
296.762
296.078
295.202
294.336
293.578
293.847
295.166
296.564
297.25
297.484
297.393
297.121
296.733
296.135
295.328
294.421
293.353
292.5
291.902
293.083
294.277
295.743
296.637
296.906
296.734
296.244
295.568
294.677
293.632
292.575
291.564
291.063
290.805
293.096
293.866
295.193
296.146
296.432
296.228
295.549
294.656
293.514
292.404
291.413
290.744
290.712
290.983
295.165
294.71
294.856
295.263
295.941
296.635
297.492
298.203
298.776
298.969
298.447
296.854
294.91
293.509
296.551
296.456
296.51
296.717
297.004
297.346
297.853
298.275
298.687
298.815
298.329
296.824
294.875
293.301
297.853
297.899
297.921
297.956
298.002
298.14
298.35
298.509
298.717
298.696
298.137
296.719
294.825
293.246
298.513
298.575
298.605
298.622
298.642
298.645
298.701
298.72
298.749
298.616
298.063
296.822
295.131
293.648
298.612
298.726
298.858
298.921
298.915
298.905
298.892
298.843
298.77
298.553
297.993
296.916
295.491
294.299
298.431
298.617
298.851
298.977
299.014
298.983
298.945
298.879
298.763
298.51
297.99
297.083
295.965
295.059
298.091
298.447
298.808
298.966
299.013
298.982
298.937
298.86
298.742
298.471
297.972
297.239
296.445
295.867
297.633
298.139
298.647
298.858
298.929
298.925
298.892
298.829
298.687
298.442
297.993
297.418
296.837
296.465
296.97
297.763
298.402
298.721
298.821
298.832
298.788
298.741
298.593
298.369
297.97
297.528
297.093
296.733
296.252
297.219
298.006
298.412
298.576
298.611
298.57
298.545
298.399
298.129
297.75
297.325
296.894
296.47
295.349
296.58
297.581
298.055
298.241
298.277
298.233
298.171
297.928
297.55
297.083
296.499
295.856
295.254
294.426
295.81
297.035
297.637
297.86
297.868
297.716
297.487
297.055
296.489
295.807
294.973
294.111
293.528
293.59
295.038
296.411
297.183
297.42
297.318
296.971
296.438
295.717
294.888
293.977
293.013
292.235
291.867
293.53
294.636
295.92
296.733
296.97
296.725
296.164
295.361
294.356
293.331
292.284
291.417
290.964
291.065
296.198
295.648
295.671
295.943
296.553
297.124
297.927
298.562
299.043
299.148
298.566
297.034
294.963
293.179
297.716
297.657
297.599
297.692
297.904
298.176
298.589
298.873
299.149
299.125
298.47
296.988
294.877
292.804
298.929
299.032
298.977
298.916
298.941
298.956
299.095
299.163
299.237
299.062
298.357
296.933
294.859
292.78
299.518
299.624
299.568
299.471
299.374
299.344
299.326
299.267
299.212
298.938
298.231
296.943
295.084
293.188
299.585
299.698
299.668
299.577
299.503
299.416
299.337
299.252
299.14
298.817
298.13
296.984
295.423
293.864
299.402
299.547
299.593
299.53
299.463
299.367
299.259
299.156
299.014
298.651
298.033
297.021
295.782
294.536
299.102
299.379
299.481
299.439
299.363
299.259
299.152
299.048
298.878
298.54
297.943
297.119
296.178
295.312
298.664
299.125
299.319
299.315
299.245
299.124
299.013
298.887
298.696
298.391
297.869
297.204
296.497
295.88
298.008
298.751
299.105
299.172
299.113
298.997
298.876
298.711
298.502
298.209
297.77
297.254
296.758
296.268
297.32
298.229
298.758
298.917
298.893
298.807
298.688
298.479
298.249
297.942
297.548
297.117
296.703
296.258
296.442
297.572
298.297
298.531
298.559
298.493
298.339
298.056
297.775
297.42
297.013
296.561
296.111
295.631
295.53
296.771
297.663
297.958
297.997
297.913
297.682
297.316
296.963
296.518
296.027
295.438
294.798
294.318
294.741
296.091
296.989
297.316
297.29
297.126
296.746
296.258
295.731
295.115
294.412
293.645
292.931
292.549
294.609
295.386
296.081
296.388
296.363
296.158
295.65
295.021
294.256
293.463
292.472
291.606
290.951
291.006
294.911
296.345
297.262
298.513
299.254
299.263
293.625
295.013
296.312
298.222
299.672
300.898
293.775
295.34
296.854
298.806
300.095
301.541
293.637
295.05
296.606
298.752
300.117
301.882
294.319
295.542
296.882
298.759
299.96
301.896
294.902
295.954
296.929
298.382
299.158
301.271
295.568
296.337
296.901
297.912
298.141
299.234
295.802
296.11
296.214
296.879
296.711
297.628
295.468
295.379
295.246
295.838
295.696
295.981
294.44
294.077
293.93
294.532
294.446
295.058
292.852
292.727
292.899
293.604
293.758
294.594
291.703
291.965
292.568
293.465
294
294.958
291.243
291.889
293.043
294.23
295.193
296.167
291.323
292.254
293.983
295.702
296.914
297.615
293.408
294.741
295.576
296.951
297.651
298.043
292.354
293.332
294.603
296.762
298.326
299.874
292.678
293.654
295.242
297.488
298.771
300.661
292.77
293.501
295.078
297.546
298.908
301.09
293.711
294.248
295.496
297.644
298.77
301.084
294.665
295.056
295.828
297.4
297.969
300.182
295.685
295.911
296.211
297.096
297.16
297.857
296.296
296.219
296.076
296.203
295.704
295.696
296.371
296.01
295.509
295.142
294.499
293.858
295.747
295.061
294.242
293.818
293.144
292.847
294.275
293.575
292.936
292.77
292.21
292.35
292.752
292.375
292.193
292.42
292.068
292.806
291.659
291.758
292.291
293.004
293.323
294.143
291.056
291.517
292.643
294.085
295.05
295.939
292.403
292.986
293.106
294.245
295.037
295.855
291.088
291.353
291.868
293.973
296.429
298.707
291.329
291.306
292.337
294.767
297.493
300.425
291.58
291.21
292.22
294.993
297.985
301.222
292.56
292.074
293.029
295.537
298.073
300.982
293.546
293.08
293.812
295.857
297.542
299.56
294.687
294.334
294.732
295.89
296.484
297.505
295.539
295.182
295.212
295.434
295.293
294.52
295.977
295.485
295.029
294.237
293.55
291.831
295.778
295.011
294.041
292.654
291.633
289.817
294.797
293.713
292.493
291.252
290.22
288.763
293.167
292.108
291.144
290.336
289.564
288.678
291.505
290.727
290.306
290.291
290.106
290.048
290.228
289.738
289.861
290.788
291.482
292.156
292.033
293.832
295.372
297.171
298.418
299.285
290.548
292.425
294.404
296.978
298.79
300.449
290.843
292.706
294.673
297.275
299.1
300.998
291.006
292.574
294.423
297.145
299.04
301.117
292.023
293.344
294.824
297.127
298.568
300.617
293.072
294.04
294.974
296.71
297.477
299.431
294.262
294.95
295.375
296.477
296.318
298.058
295.068
295.39
295.249
295.878
295.21
296.524
295.586
295.54
295.006
295.388
294.66
295.255
295.555
295.226
294.269
294.409
293.661
293.979
295.089
294.345
293.363
293.44
292.849
293.359
294.093
293.319
292.727
292.967
292.718
293.46
293.158
292.772
292.807
293.266
293.62
294.354
292.556
292.66
293.18
294.073
294.706
295.326
291.151
292.607
293.857
295.509
296.562
297.667
290.145
291.293
292.924
295.381
296.91
298.757
290.635
291.532
293.219
295.775
297.18
299.353
291.078
291.467
292.956
295.578
297.097
299.605
292.247
292.315
293.418
295.581
296.727
299.163
293.304
293.202
293.765
295.294
295.847
298.051
294.514
294.332
294.414
295.28
294.913
296.637
295.467
295.184
294.741
295.041
294.347
294.669
296.07
295.671
294.798
294.396
293.261
293.105
296.224
295.646
294.229
293.39
292.202
291.759
295.779
294.824
293.231
292.275
291.105
290.991
294.759
293.608
292.22
291.582
290.695
291.049
293.555
292.627
291.813
291.775
291.448
292.116
292.595
292.004
291.887
292.584
292.735
293.427
290.005
290.234
290.675
292.062
293.605
294.737
289.104
288.927
289.428
291.603
294.262
296.699
289.75
289.108
289.644
292.078
294.952
297.822
290.456
289.413
289.548
291.948
295.019
298.293
291.648
290.319
290.33
292.433
294.93
297.828
292.631
291.35
291.282
292.942
294.541
296.63
293.687
292.576
292.516
293.591
294.034
295.107
294.542
293.675
293.327
293.588
293.215
293.395
295.262
294.527
293.873
293.382
292.415
291.251
295.535
294.792
293.766
292.447
290.827
289.207
295.441
294.476
293.024
291.239
289.436
288.012
294.846
293.571
291.897
290.174
288.551
287.517
293.939
292.62
291.122
290.019
289.023
288.756
292.961
291.806
290.732
290.677
290.38
290.699
296.801
297.008
296.542
295.589
295.44
295.538
296.446
297.046
296.895
296.309
296.599
296.9
296.626
297.988
297.854
297.608
298.007
298.172
297.889
299.396
299.327
299.019
299.096
298.918
299.924
300.763
300.374
299.685
299.374
298.983
301.803
301.826
301.009
299.798
299.266
298.671
303.456
301.397
300.596
299.156
298.509
297.979
303.489
301.249
300.014
298.21
297.435
297.092
302.93
300.645
299.012
296.846
296.023
295.945
302.001
299.802
298.081
295.761
294.896
294.897
300.743
298.691
296.908
294.596
293.71
293.633
299.301
297.585
296.12
294.155
293.306
292.849
297.863
296.402
295.073
293.393
292.606
291.992
296.451
295.769
295.127
294.107
293.673
292.807
294.538
294.639
294.635
294.077
294.351
294.662
294.309
294.698
295.151
295.088
295.728
296.163
294.523
295.885
296.505
296.76
297.322
297.583
295.904
297.72
298.331
298.498
298.525
298.518
298.237
299.614
299.648
299.244
298.939
298.692
300.327
300.817
300.285
299.209
298.766
298.473
301.994
300.539
299.925
298.528
298.074
297.908
302.349
300.166
299.234
297.529
297.043
297.14
301.816
299.497
298.134
296.148
295.727
296.168
300.907
298.548
297.126
294.987
294.592
295.267
299.591
297.321
295.866
293.703
293.344
294.053
298.067
296.159
295.02
293.059
292.669
293.071
296.509
294.883
293.718
292.07
291.81
292.037
294.956
294.127
293.689
292.752
292.627
292.536
292.201
292.492
293.048
293.349
294.363
295.28
291.848
292.769
293.855
294.804
296.063
297.016
292.624
294.441
295.661
296.95
297.864
298.557
294.573
296.87
297.741
298.883
299.08
299.416
297.11
299.104
299.181
299.682
299.433
299.491
299.897
300.11
299.655
299.48
299.235
299.247
301.595
300.549
299.298
298.634
298.503
298.717
302.215
300.379
298.476
297.326
297.382
297.953
302.075
299.446
297.089
295.692
296.033
296.996
301.346
298.319
295.79
294.276
294.807
296.031
299.89
296.798
294.257
292.751
293.415
294.797
297.961
295.486
293.239
291.838
292.437
293.722
295.682
293.729
291.969
290.945
291.625
292.655
293.193
292.494
291.967
291.727
292.361
293.238
298.191
298.309
297.633
296.467
295.586
294.976
297.536
297.897
297.498
296.631
296.241
295.932
297.419
298.484
298.138
297.574
297.412
297.174
298.392
299.86
299.47
299.085
298.805
298.572
299.893
301.33
300.721
300.217
299.625
299.242
301.73
302.237
301.521
300.553
299.662
299.061
302.731
302.648
301.612
300.131
299.107
298.339
304.044
302.021
301.009
299.231
298.056
297.328
303.709
301.506
300.085
297.943
296.708
296.121
302.814
300.787
299.201
296.907
295.671
295.215
301.489
299.613
298.011
295.785
294.736
294.367
300.158
298.639
297.306
295.509
294.652
294.292
298.777
297.686
296.433
294.983
294.394
294.025
297.268
297.414
296.921
295.872
295.547
295.038
296.227
296.305
295.79
294.678
294.01
293.612
295.263
295.687
295.621
295.081
294.912
294.941
295.244
296.483
296.508
296.378
296.503
296.752
296.262
298.099
298.135
298.284
298.286
298.539
298.214
300.026
299.786
299.769
299.303
299.254
300.256
301.437
300.817
300.093
299.333
299.101
301.98
301.955
300.988
299.595
298.717
298.372
303.131
301.615
300.539
298.553
297.537
297.35
303.285
300.868
299.447
297.026
295.964
296.081
302.4
300.032
298.398
295.745
294.634
294.968
300.922
298.688
297.065
294.495
293.473
293.888
299.317
297.424
296.092
294.066
293.288
293.472
297.485
296.138
294.856
293.343
293.048
293.072
295.666
295.372
295.082
294.262
294.362
294.208
293.273
293.295
293.269
292.834
292.729
292.954
292.484
293.299
293.86
293.988
294.251
294.747
292.91
294.646
295.386
296.115
296.434
296.943
294.609
297.01
297.619
298.465
298.399
298.747
297.363
299.669
299.644
300.016
299.4
299.367
300.293
301.679
300.767
300.075
299.329
299.192
303.074
302.198
300.581
299.3
298.528
298.463
304.505
302.112
299.828
297.966
297.271
297.412
304.583
301.443
298.59
296.233
295.693
296.173
303.899
300.342
297.229
294.71
294.333
295.148
302.361
298.82
295.661
293.278
293.202
294.165
300.117
297.185
294.648
292.827
292.961
293.805
297.295
295.218
293.362
292.248
292.815
293.517
294.169
293.678
293.67
293.499
294.191
294.796
297.573
297.152
297.178
297.282
297.566
297.799
298.186
298.487
298.773
298.92
298.816
298.078
296.641
294.765
298.631
298.626
298.604
298.597
298.698
298.783
298.909
299.01
299.097
299.072
298.787
297.959
296.39
294.074
299.257
299.346
299.375
299.332
299.311
299.26
299.268
299.249
299.235
299.109
298.748
297.897
296.3
294.067
299.537
299.634
299.635
299.558
299.474
299.373
299.316
299.269
299.23
299.059
298.653
297.772
296.238
294.148
299.561
299.682
299.654
299.568
299.447
299.321
299.232
299.169
299.113
298.937
298.523
297.676
296.335
294.563
299.499
299.624
299.595
299.491
299.346
299.203
299.102
299.043
298.98
298.789
298.35
297.543
296.348
294.87
299.329
299.498
299.483
299.365
299.209
299.052
298.945
298.871
298.784
298.574
298.144
297.418
296.359
295.193
299.066
299.327
299.34
299.227
299.072
298.902
298.785
298.688
298.575
298.335
297.925
297.276
296.413
295.448
298.647
299.057
299.167
299.106
298.973
298.815
298.676
298.536
298.374
298.106
297.706
297.118
296.464
295.737
298.147
298.656
298.87
298.902
298.832
298.706
298.553
298.368
298.157
297.844
297.454
296.95
296.373
295.808
297.51
298.14
298.462
298.576
298.569
298.487
298.34
298.125
297.862
297.524
297.137
296.696
296.251
295.759
296.872
297.503
297.878
298.043
298.073
298.004
297.848
297.602
297.309
296.959
296.588
296.188
295.828
295.323
296.334
296.95
297.236
297.383
297.374
297.249
297.036
296.734
296.367
295.926
295.489
295.053
294.737
294.424
296.041
296.165
296.361
296.488
296.424
296.247
295.935
295.533
295.087
294.552
293.918
293.366
292.883
293.139
298.827
298.623
298.675
298.639
298.724
298.779
298.848
298.908
298.952
298.947
298.904
298.574
297.832
296.543
299.344
299.348
299.391
299.35
299.367
299.347
299.349
299.317
299.259
299.168
299.007
298.584
297.688
295.939
299.556
299.593
299.637
299.582
299.565
299.526
299.493
299.421
299.351
299.221
299.018
298.574
297.591
295.847
299.647
299.706
299.721
299.653
299.584
299.505
299.444
299.369
299.286
299.159
298.959
298.49
297.46
295.763
299.653
299.728
299.714
299.62
299.506
299.399
299.317
299.245
299.176
299.057
298.836
298.344
297.362
295.886
299.614
299.699
299.649
299.521
299.371
299.237
299.142
299.073
299.01
298.905
298.677
298.151
297.208
295.864
299.475
299.579
299.519
299.37
299.204
299.051
298.949
298.878
298.819
298.709
298.475
297.947
297.076
295.871
299.295
299.415
299.372
299.221
299.056
298.889
298.775
298.69
298.619
298.49
298.231
297.74
296.961
295.893
299.036
299.18
299.192
299.086
298.943
298.781
298.648
298.535
298.428
298.274
297.971
297.528
296.867
295.978
298.71
298.895
298.965
298.927
298.816
298.679
298.539
298.401
298.245
298.027
297.72
297.304
296.72
295.979
298.251
298.52
298.67
298.719
298.661
298.547
298.4
298.237
298.04
297.767
297.454
297.044
296.522
295.895
297.753
298.058
298.223
298.299
298.271
298.204
298.106
297.958
297.73
297.418
297.075
296.683
296.231
295.645
297.227
297.556
297.659
297.733
297.688
297.613
297.494
297.33
297.065
296.718
296.351
295.992
295.681
295.231
296.78
296.85
296.924
296.96
296.871
296.715
296.506
296.294
295.979
295.596
295.162
294.811
294.487
294.649
299.439
299.381
299.506
299.536
299.551
299.489
299.398
299.295
299.171
299.034
298.937
298.746
298.448
297.763
299.661
299.671
299.751
299.721
299.71
299.671
299.624
299.516
299.406
299.255
299.091
298.84
298.4
297.431
299.723
299.736
299.79
299.745
299.723
299.677
299.629
299.541
299.432
299.286
299.134
298.897
298.407
297.403
299.758
299.791
299.799
299.723
299.655
299.584
299.528
299.45
299.357
299.232
299.09
298.851
298.339
297.284
299.75
299.784
299.733
299.614
299.506
299.415
299.348
299.287
299.21
299.113
298.987
298.744
298.215
297.18
299.708
299.722
299.629
299.481
299.342
299.23
299.15
299.086
299.021
298.94
298.824
298.572
298.002
296.969
299.59
299.588
299.481
299.318
299.169
299.043
298.954
298.885
298.825
298.75
298.633
298.349
297.756
296.76
299.44
299.428
299.33
299.166
299.02
298.886
298.784
298.702
298.634
298.548
298.419
298.083
297.497
296.567
299.244
299.229
299.165
299.032
298.897
298.764
298.647
298.545
298.45
298.336
298.163
297.817
297.261
296.416
299.004
299.005
298.99
298.905
298.785
298.66
298.532
298.409
298.276
298.125
297.892
297.559
297.051
296.301
298.664
298.721
298.775
298.758
298.667
298.559
298.43
298.291
298.122
297.925
297.666
297.334
296.854
296.207
298.268
298.359
298.434
298.483
298.447
298.387
298.279
298.14
297.944
297.693
297.416
297.086
296.637
296.02
297.775
297.921
297.988
298.017
297.986
297.951
297.879
297.777
297.578
297.287
296.986
296.666
296.295
295.814
297.27
297.301
297.325
297.316
297.253
297.211
297.152
297.059
296.838
296.515
296.166
295.849
295.516
295.434
299.752
299.749
299.847
299.86
299.852
299.807
299.731
299.608
299.458
299.269
299.09
298.905
298.77
298.391
299.849
299.846
299.908
299.89
299.875
299.84
299.784
299.686
299.563
299.404
299.221
298.986
298.747
298.245
299.894
299.889
299.904
299.855
299.826
299.785
299.735
299.653
299.541
299.401
299.245
299.042
298.795
298.312
299.896
299.895
299.862
299.778
299.717
299.657
299.602
299.531
299.427
299.306
299.177
298.998
298.756
298.234
299.865
299.85
299.767
299.647
299.555
299.477
299.415
299.349
299.258
299.156
299.053
298.9
298.659
298.094
299.792
299.754
299.641
299.5
299.392
299.302
299.229
299.153
299.068
298.973
298.886
298.741
298.482
297.852
299.656
299.602
299.482
299.334
299.224
299.126
299.043
298.959
298.88
298.792
298.717
298.569
298.259
297.579
299.493
299.429
299.317
299.166
299.058
298.955
298.862
298.771
298.691
298.606
298.524
298.358
297.981
297.295
299.297
299.239
299.152
299.016
298.91
298.8
298.696
298.595
298.503
298.411
298.308
298.102
297.714
297.059
299.081
299.042
298.992
298.883
298.775
298.661
298.543
298.429
298.316
298.207
298.077
297.837
297.456
296.853
298.804
298.812
298.815
298.754
298.655
298.548
298.422
298.29
298.148
298.013
297.83
297.588
297.222
296.666
298.489
298.531
298.565
298.557
298.49
298.408
298.289
298.154
297.987
297.808
297.586
297.336
296.989
296.486
298.084
298.177
298.212
298.214
298.183
298.157
298.084
297.968
297.779
297.552
297.3
297.052
296.731
296.337
297.631
297.624
297.619
297.615
297.588
297.595
297.564
297.494
297.341
297.097
296.832
296.569
296.23
296.001
299.923
299.944
300.019
300.037
300.042
300.017
299.973
299.874
299.749
299.575
299.373
299.15
299.008
298.763
299.988
299.989
300.036
300.028
300.019
299.99
299.951
299.868
299.757
299.6
299.408
299.164
298.966
298.664
300.025
300.012
300.001
299.959
299.932
299.896
299.862
299.795
299.693
299.551
299.386
299.185
299.003
298.734
300.011
299.997
299.943
299.867
299.813
299.764
299.718
299.651
299.549
299.416
299.268
299.104
298.952
298.69
299.969
299.931
299.842
299.742
299.672
299.614
299.558
299.483
299.378
299.254
299.128
298.992
298.859
298.591
299.868
299.808
299.705
299.599
299.527
299.464
299.397
299.309
299.199
299.078
298.968
298.843
298.708
298.408
299.713
299.641
299.54
299.432
299.367
299.298
299.222
299.127
299.02
298.908
298.815
298.701
298.548
298.183
299.54
299.465
299.371
299.255
299.191
299.115
299.031
298.932
298.829
298.727
298.647
298.536
298.353
297.92
299.342
299.274
299.2
299.083
299.013
298.926
298.829
298.727
298.627
298.537
298.463
298.354
298.113
297.677
299.135
299.079
299.032
298.924
298.838
298.738
298.626
298.516
298.412
298.327
298.251
298.124
297.875
297.447
298.894
298.87
298.865
298.789
298.689
298.581
298.455
298.335
298.22
298.128
298.03
297.867
297.617
297.224
298.615
298.637
298.661
298.627
298.538
298.441
298.314
298.19
298.055
297.929
297.778
297.602
297.338
296.976
298.25
298.334
298.376
298.385
298.336
298.277
298.164
298.036
297.887
297.731
297.543
297.335
297.068
296.791
297.818
297.829
297.853
297.871
297.861
297.877
297.856
297.804
297.681
297.48
297.228
296.972
296.66
296.438
300.082
300.091
300.142
300.153
300.166
300.163
300.149
300.085
300.003
299.858
299.674
299.432
299.233
298.986
300.119
300.114
300.134
300.114
300.107
300.085
300.074
300.028
299.956
299.826
299.648
299.403
299.18
298.915
300.135
300.118
300.087
300.04
300.009
299.978
299.959
299.918
299.848
299.729
299.574
299.378
299.199
298.982
300.093
300.076
300.017
299.954
299.906
299.865
299.83
299.774
299.686
299.564
299.419
299.255
299.118
298.933
300.017
299.977
299.905
299.839
299.789
299.747
299.702
299.63
299.523
299.394
299.261
299.119
299.006
298.838
299.893
299.836
299.761
299.703
299.659
299.618
299.564
299.475
299.355
299.218
299.091
298.959
298.85
298.689
299.719
299.658
299.592
299.537
299.504
299.459
299.397
299.3
299.18
299.05
298.936
298.825
298.717
298.55
299.532
299.47
299.418
299.351
299.32
299.266
299.195
299.098
298.988
298.873
298.773
298.681
298.572
298.365
299.338
299.278
299.243
299.16
299.117
299.051
298.97
298.878
298.782
298.692
298.615
298.542
298.422
298.152
299.146
299.094
299.066
298.97
298.908
298.826
298.73
298.64
298.553
298.483
298.423
298.361
298.216
297.945
298.934
298.893
298.893
298.811
298.717
298.623
298.514
298.418
298.33
298.272
298.217
298.145
297.988
297.729
298.686
298.679
298.7
298.643
298.542
298.449
298.335
298.234
298.134
298.059
297.971
297.864
297.693
297.453
298.354
298.409
298.44
298.433
298.363
298.298
298.19
298.08
297.964
297.865
297.727
297.586
297.386
297.179
297.956
297.982
298.028
298.06
298.05
298.06
298.003
297.931
297.813
297.652
297.452
297.236
296.967
296.805
300.248
300.251
300.291
300.285
300.293
300.283
300.287
300.24
300.184
300.075
299.931
299.729
299.552
299.316
300.257
300.259
300.274
300.242
300.22
300.188
300.179
300.143
300.094
300.005
299.872
299.671
299.471
299.226
300.257
300.252
300.227
300.178
300.137
300.098
300.074
300.033
299.977
299.883
299.759
299.592
299.431
299.248
300.202
300.194
300.149
300.102
300.057
300.012
299.973
299.917
299.838
299.729
299.599
299.448
299.318
299.175
300.108
300.08
300.025
299.992
299.966
299.931
299.888
299.817
299.714
299.587
299.453
299.312
299.2
299.077
299.975
299.925
299.881
299.863
299.853
299.823
299.777
299.692
299.573
299.433
299.298
299.16
299.053
298.932
299.791
299.739
299.71
299.703
299.702
299.674
299.623
299.533
299.412
299.275
299.149
299.025
298.926
298.804
299.593
299.546
299.534
299.521
299.514
299.48
299.421
299.334
299.224
299.103
298.989
298.885
298.79
298.667
299.39
299.352
299.36
299.325
299.301
299.254
299.187
299.11
299.019
298.925
298.834
298.759
298.668
298.524
299.202
299.171
299.184
299.115
299.069
299.005
298.929
298.859
298.783
298.714
298.651
298.607
298.514
298.337
299.018
298.982
298.997
298.919
298.839
298.764
298.678
298.609
298.543
298.5
298.459
298.433
298.331
298.151
298.806
298.79
298.808
298.735
298.636
298.555
298.458
298.385
298.319
298.274
298.218
298.178
298.06
297.895
298.505
298.542
298.552
298.524
298.445
298.379
298.282
298.198
298.118
298.057
297.974
297.897
297.767
297.627
298.138
298.198
298.242
298.269
298.222
298.196
298.132
298.07
297.972
297.852
297.709
297.557
297.362
297.253
300.428
300.404
300.34
300.243
300.1
299.962
299.743
300.314
300.283
300.227
300.146
300.001
299.84
299.616
300.217
300.172
300.101
300.011
299.883
299.751
299.586
300.124
300.057
299.965
299.856
299.725
299.609
299.484
300.049
299.96
299.849
299.728
299.597
299.489
299.383
299.941
299.84
299.716
299.59
299.457
299.348
299.246
299.798
299.696
299.574
299.453
299.332
299.226
299.123
299.605
299.515
299.408
299.299
299.193
299.093
298.992
299.469
299.46
299.498
299.497
299.51
299.487
299.44
299.38
299.306
299.224
299.137
299.059
298.972
298.868
299.294
299.275
299.314
299.278
299.259
299.223
299.173
299.122
299.063
299.004
298.943
298.9
298.821
298.706
299.106
299.081
299.12
299.06
299.004
298.958
298.902
298.858
298.811
298.782
298.752
298.74
298.661
298.548
298.907
298.9
298.929
298.86
298.771
298.712
298.645
298.601
298.561
298.541
298.509
298.506
298.414
298.303
298.62
298.652
298.663
298.631
298.55
298.497
298.431
298.378
298.327
298.301
298.26
298.239
298.147
298.053
298.29
298.378
298.416
298.423
298.358
298.341
298.277
298.218
298.152
298.086
297.992
297.897
297.762
297.69
296.152
294.7
292.848
291.516
290.542
289.664
294.882
293.303
291.596
291.049
291.625
292.447
294.922
293.209
291.967
292.075
293.673
295.8
295.198
293.456
292.344
292.893
295.554
299.143
295.839
294.318
293.562
294.48
297.938
302.057
296.459
295.389
295.064
296.251
300.035
303.986
297.207
296.622
296.773
298.198
301.675
304.735
297.941
297.72
298.263
299.798
302.444
304.378
298.564
298.623
299.327
300.551
302.298
302.764
298.887
299.031
299.69
300.363
300.953
300.18
298.792
298.758
298.945
298.724
298.532
297.118
297.778
297.345
297.017
296.292
295.604
294.076
295.971
295.145
294.548
293.869
293.075
291.784
293.935
293.068
292.443
292.183
291.616
290.698
298.014
296.741
294.4
292.097
289.98
289.13
297.215
295.583
293.159
291.239
290.127
290.652
297.213
295.349
293.136
291.74
291.472
293.086
297.301
295.385
293.342
292.257
292.708
295.594
297.476
295.756
294.051
293.401
294.651
298.371
297.59
296.126
294.947
294.803
296.697
300.843
297.829
296.662
296.029
296.452
298.774
302.569
298.135
297.336
297.149
297.978
300.18
303.031
298.464
298.111
298.219
299.072
300.631
302.095
298.662
298.513
298.764
299.363
299.978
300.102
298.704
298.557
298.612
298.535
298.157
297.142
298.274
297.882
297.414
296.553
295.398
293.746
297.23
296.376
295.325
294.028
292.504
290.966
295.558
294.422
292.932
291.702
290.404
289.572
299.006
298.438
296.894
294.77
292.071
290.118
298.722
297.811
295.938
293.564
291.247
290.012
298.798
297.682
295.62
293.302
291.55
291.156
298.842
297.601
295.476
293.325
292.142
292.63
298.838
297.54
295.599
293.871
293.287
294.672
298.76
297.451
295.792
294.684
294.786
296.974
298.687
297.452
296.245
295.682
296.588
299.225
298.608
297.581
296.874
296.85
298.253
300.744
298.607
297.894
297.634
297.981
299.379
301.075
298.618
298.218
298.21
298.624
299.611
300.635
298.603
298.359
298.376
298.604
299.018
299.006
298.41
298.126
297.947
297.696
297.3
296.313
298.066
297.495
296.869
295.938
294.743
293.27
297.093
296.272
295.095
293.656
292.057
290.775
299.54
299.365
298.644
297.424
295.298
293.065
299.531
299.134
298.114
296.381
293.91
291.778
299.64
299.095
297.803
295.775
293.44
291.795
299.675
299.005
297.565
295.373
293.286
292.17
299.649
298.869
297.373
295.314
293.627
293.167
299.539
298.676
297.154
295.409
294.32
294.684
299.372
298.452
297.042
295.776
295.342
296.547
299.171
298.232
297.091
296.371
296.576
298.223
298.989
298.178
297.415
297.17
297.8
299.287
298.83
298.235
297.904
297.947
298.582
299.52
298.717
298.357
298.25
298.359
298.784
299.361
298.582
298.346
298.243
298.225
298.3
298.278
298.536
298.244
297.933
297.549
296.947
296.08
298.048
297.666
296.988
296.152
294.769
293.331
299.778
299.784
299.517
299.036
297.91
296.199
299.85
299.73
299.324
298.466
296.745
294.53
299.934
299.775
299.2
297.966
295.87
293.651
299.981
299.767
299.042
297.485
295.212
293.433
299.989
299.71
298.817
297.1
295.065
293.811
299.946
299.58
298.534
296.822
295.197
294.485
299.859
299.369
298.236
296.771
295.708
295.672
299.701
299.079
298.019
296.925
296.439
296.969
299.509
298.858
298.007
297.4
297.394
298.296
299.283
298.727
298.193
297.977
298.263
299.116
299.083
298.703
298.494
298.514
298.879
299.374
298.907
298.727
298.662
298.732
298.951
299.254
298.88
298.794
298.684
298.625
298.498
298.3
298.601
298.508
298.245
297.935
297.272
296.298
299.96
299.996
299.902
299.75
299.263
298.202
300.027
300.007
299.867
299.454
298.534
296.901
300.094
300.083
299.866
299.225
297.835
295.796
300.149
300.103
299.816
298.948
297.16
294.976
300.182
300.102
299.722
298.618
296.708
294.82
300.176
300.064
299.555
298.284
296.484
295.046
300.148
299.976
299.329
298.029
296.559
295.764
300.048
299.787
299.04
297.873
296.885
296.635
299.917
299.563
298.83
297.964
297.512
297.699
299.715
299.323
298.746
298.263
298.216
298.673
299.483
299.13
298.792
298.645
298.853
299.294
299.235
299.027
298.881
298.934
299.178
299.471
299.1
299.039
298.949
299.04
299.165
299.289
298.861
298.876
298.773
298.811
298.641
298.241
300.144
300.169
300.101
300.092
299.958
299.334
300.19
300.184
300.149
300.006
299.52
298.445
300.248
300.261
300.219
299.92
299.072
297.558
300.301
300.338
300.223
299.778
298.621
296.784
300.329
300.365
300.207
299.603
298.235
296.305
300.341
300.349
300.151
299.401
297.906
296.117
300.337
300.317
300.051
299.181
297.724
296.373
300.278
300.22
299.838
298.918
297.714
296.946
300.199
300.063
299.604
298.8
298.06
297.811
300.055
299.857
299.417
298.862
298.589
298.688
299.861
299.637
299.327
299.097
299.134
299.411
299.623
299.472
299.322
299.318
299.502
299.729
299.457
299.415
299.345
299.418