/*--------------------------------*- C++ -*----------------------------------*\
| =========                 |                                                 |
| \\      /  F ield         | OpenFOAM: The Open Source CFD Toolbox           |
|  \\    /   O peration     | Version:  v2106                                 |
|   \\  /    A nd           | Website:  www.openfoam.com                      |
|    \\/     M anipulation  |                                                 |
\*---------------------------------------------------------------------------*/
FoamFile
{
    version     2.0;
    format      ascii;
    arch        "LSB;label=32;scalar=64";
    class       volScalarField;
    location    "0.000183";
    object      alphat;
}
// * * * * * * * * * * * * * * * * * * * * * * * * * * * * * * * * * * * * * //

dimensions      [1 -1 -1 0 0 0 0];

internalField   nonuniform List<scalar> 
144746
(
0.000202587
0.000164849
0.000123466
8.31155e-05
5.45926e-05
3.93663e-05
3.78953e-05
4.92919e-05
7.6163e-05
0.000117924
0.000164256
0.000193085
0.000191112
0.000173638
0.000189968
0.000142457
9.52946e-05
5.77928e-05
3.56831e-05
2.43925e-05
2.20086e-05
2.82261e-05
4.59692e-05
7.74604e-05
0.000120167
0.000156152
0.000166041
0.000153972
0.000147125
9.8604e-05
5.88486e-05
3.28331e-05
1.96742e-05
1.32382e-05
1.17218e-05
1.54596e-05
2.70442e-05
4.88987e-05
8.11912e-05
0.000115327
0.000133282
0.000131516
9.28201e-05
5.48802e-05
2.95039e-05
1.53679e-05
8.97757e-06
6.14053e-06
5.76711e-06
8.36622e-06
1.58437e-05
3.02375e-05
5.1841e-05
7.83594e-05
9.79016e-05
0.00010477
5.01694e-05
2.58901e-05
1.2448e-05
5.98827e-06
3.39325e-06
2.47316e-06
2.76759e-06
4.85573e-06
1.01943e-05
2.04199e-05
3.57456e-05
5.42933e-05
7.05993e-05
8.20384e-05
2.5312e-05
1.14352e-05
4.83707e-06
2.0902e-06
1.15397e-06
9.93417e-07
1.53923e-06
3.34482e-06
7.51688e-06
1.52248e-05
2.65158e-05
3.97283e-05
5.31615e-05
6.71672e-05
1.44113e-05
5.94993e-06
2.29056e-06
9.57367e-07
5.5426e-07
6.31536e-07
1.27679e-06
2.96958e-06
6.53689e-06
1.27677e-05
2.16242e-05
3.20751e-05
4.58736e-05
6.4933e-05
1.19068e-05
4.92807e-06
2.08553e-06
1.04648e-06
7.12492e-07
8.57716e-07
1.59916e-06
3.32074e-06
6.61611e-06
1.19829e-05
1.94031e-05
2.97146e-05
4.78158e-05
7.58939e-05
1.4332e-05
6.25511e-06
3.15198e-06
1.92835e-06
1.46322e-06
1.59724e-06
2.42799e-06
4.22217e-06
7.37917e-06
1.22654e-05
1.93103e-05
3.38971e-05
6.09845e-05
0.000101614
2.28331e-05
1.00024e-05
5.57323e-06
3.89377e-06
3.13215e-06
3.11866e-06
3.96608e-06
5.84985e-06
9.07727e-06
1.42688e-05
2.43641e-05
4.86744e-05
8.72567e-05
0.000137128
4.59657e-05
2.07868e-05
1.03157e-05
7.68913e-06
6.53329e-06
6.22873e-06
7.00873e-06
9.13637e-06
1.31734e-05
2.14919e-05
3.94172e-05
7.62476e-05
0.000123004
0.000169293
8.53425e-05
5.41724e-05
2.85047e-05
1.64175e-05
1.30759e-05
1.23415e-05
1.3233e-05
1.62818e-05
2.28476e-05
3.75325e-05
6.61843e-05
0.00010971
0.000151948
0.000180748
0.000125561
0.000101012
6.62741e-05
3.86461e-05
2.5771e-05
2.23413e-05
2.33766e-05
2.81807e-05
3.86229e-05
5.96875e-05
9.32223e-05
0.000131097
0.000157933
0.0001702
0.000155379
0.000145562
0.000117032
8.02313e-05
5.3052e-05
3.96594e-05
3.71643e-05
4.24087e-05
5.51142e-05
7.8242e-05
0.000106648
0.000131511
0.000145618
0.000154
0.000180214
0.000139719
9.98899e-05
6.54805e-05
4.32279e-05
3.14711e-05
2.97496e-05
3.86994e-05
6.11142e-05
9.67137e-05
0.000138629
0.000171867
0.000181537
0.000171075
0.000158449
0.000114054
7.42949e-05
4.5398e-05
2.8927e-05
2.019e-05
1.77768e-05
2.23602e-05
3.70948e-05
6.30905e-05
9.78337e-05
0.000131059
0.000148137
0.000145651
0.000116051
7.62613e-05
4.55224e-05
2.63539e-05
1.64585e-05
1.13345e-05
9.79575e-06
1.25582e-05
2.22952e-05
4.05802e-05
6.58774e-05
9.39245e-05
0.000113125
0.000118724
7.01286e-05
4.1185e-05
2.27163e-05
1.25759e-05
7.72783e-06
5.39386e-06
4.91447e-06
6.95255e-06
1.34269e-05
2.58926e-05
4.3557e-05
6.3591e-05
8.05721e-05
9.03001e-05
3.59038e-05
1.83986e-05
9.32421e-06
4.89117e-06
2.9661e-06
2.19538e-06
2.36907e-06
4.10162e-06
8.76005e-06
1.76669e-05
3.04805e-05
4.48989e-05
5.81311e-05
6.86089e-05
1.68103e-05
7.46018e-06
3.35182e-06
1.61838e-06
9.72941e-07
8.50132e-07
1.29021e-06
2.82747e-06
6.46028e-06
1.31486e-05
2.27237e-05
3.34784e-05
4.3892e-05
5.46815e-05
9.09568e-06
3.61455e-06
1.3995e-06
6.05972e-07
3.75061e-07
4.63811e-07
9.9861e-07
2.42729e-06
5.47821e-06
1.07981e-05
1.82872e-05
2.68847e-05
3.66591e-05
5.05949e-05
7.67152e-06
3.02381e-06
1.18581e-06
5.47977e-07
3.8073e-07
5.3351e-07
1.13369e-06
2.54197e-06
5.28211e-06
9.77647e-06
1.60008e-05
2.3768e-05
3.60742e-05
5.61848e-05
9.62796e-06
3.97989e-06
1.80933e-06
1.0235e-06
7.84375e-07
9.51277e-07
1.6179e-06
3.05272e-06
5.63657e-06
9.70493e-06
1.55734e-05
2.50724e-05
4.36339e-05
7.33532e-05
1.54255e-05
6.4954e-06
3.31838e-06
2.19861e-06
1.78647e-06
1.90961e-06
2.64033e-06
4.17202e-06
6.83861e-06
1.11809e-05
1.85442e-05
3.4217e-05
6.15434e-05
9.93498e-05
3.0659e-05
1.30236e-05
6.36608e-06
4.63805e-06
3.95044e-06
3.96811e-06
4.80259e-06
6.6715e-06
1.00899e-05
1.62554e-05
2.8154e-05
5.31805e-05
8.75247e-05
0.000128551
6.17618e-05
3.58953e-05
1.78257e-05
1.00737e-05
8.25922e-06
8.08283e-06
9.20292e-06
1.1912e-05
1.70306e-05
2.71013e-05
4.62197e-05
7.74236e-05
0.000114517
0.000150864
0.000100174
7.26846e-05
4.41722e-05
2.42321e-05
1.64977e-05
1.51304e-05
1.6537e-05
2.05626e-05
2.82976e-05
4.27386e-05
6.66619e-05
9.98272e-05
0.000132411
0.000157077
0.000136284
0.000113934
8.29973e-05
5.29537e-05
3.42047e-05
2.68808e-05
2.68127e-05
3.1642e-05
4.13996e-05
5.87409e-05
8.43737e-05
0.000113241
0.000136178
0.00015146
0.00012733
9.43318e-05
6.61341e-05
4.45161e-05
3.10424e-05
2.3423e-05
2.13116e-05
2.57155e-05
3.93572e-05
6.21945e-05
9.17577e-05
0.000123085
0.000147209
0.000157049
0.000101072
7.17422e-05
4.70727e-05
3.01545e-05
2.0484e-05
1.4987e-05
1.30658e-05
1.5526e-05
2.51923e-05
4.29664e-05
6.66017e-05
9.15974e-05
0.000112502
0.000123579
6.89416e-05
4.59719e-05
2.84724e-05
1.75294e-05
1.16355e-05
8.40178e-06
7.264e-06
8.90372e-06
1.5596e-05
2.86955e-05
4.6789e-05
6.65355e-05
8.38323e-05
9.6843e-05
4.01785e-05
2.44602e-05
1.41966e-05
8.42604e-06
5.50058e-06
4.01491e-06
3.64852e-06
5.00177e-06
9.67255e-06
1.89753e-05
3.23255e-05
4.72983e-05
6.10314e-05
7.28009e-05
2.01593e-05
1.07299e-05
5.74218e-06
3.27607e-06
2.13488e-06
1.63648e-06
1.74258e-06
2.96449e-06
6.38685e-06
1.30708e-05
2.29754e-05
3.45355e-05
4.56201e-05
5.58626e-05
9.35875e-06
4.16917e-06
1.95689e-06
1.05252e-06
6.92317e-07
6.18455e-07
9.26328e-07
2.04116e-06
4.72158e-06
9.749e-06
1.72775e-05
2.63542e-05
3.54993e-05
4.43841e-05
5.21168e-06
1.96109e-06
7.43997e-07
3.38596e-07
2.28927e-07
3.0063e-07
6.79212e-07
1.71823e-06
3.97467e-06
8.00938e-06
1.39842e-05
2.13957e-05
2.94176e-05
3.85811e-05
4.62754e-06
1.66409e-06
5.80061e-07
2.39753e-07
1.72797e-07
2.90214e-07
7.08097e-07
1.71985e-06
3.74747e-06
7.19699e-06
1.2219e-05
1.86494e-05
2.63887e-05
3.76383e-05
5.89529e-06
2.21533e-06
8.825e-07
4.49474e-07
3.47869e-07
4.82056e-07
9.44188e-07
1.9733e-06
3.90678e-06
7.07991e-06
1.1735e-05
1.82118e-05
2.78502e-05
4.39382e-05
9.27363e-06
3.63669e-06
1.70099e-06
1.06433e-06
8.71189e-07
1.0026e-06
1.5271e-06
2.64157e-06
4.66176e-06
8.01507e-06
1.33466e-05
2.19565e-05
3.61579e-05
5.74219e-05
1.80073e-05
7.11692e-06
3.51215e-06
2.49136e-06
2.12392e-06
2.23055e-06
2.88194e-06
4.2881e-06
6.88811e-06
1.1431e-05
1.91903e-05
3.22548e-05
5.14488e-05
7.66519e-05
3.69784e-05
1.96675e-05
9.40257e-06
5.54068e-06
4.7905e-06
4.89184e-06
5.8485e-06
7.96522e-06
1.18625e-05
1.86289e-05
2.99265e-05
4.78041e-05
7.13331e-05
9.94288e-05
6.35939e-05
4.1007e-05
2.30423e-05
1.25992e-05
9.67996e-06
9.74757e-06
1.11983e-05
1.43611e-05
1.99499e-05
2.92339e-05
4.3937e-05
6.54019e-05
9.2311e-05
0.000119839
9.0746e-05
6.65531e-05
4.42282e-05
2.72051e-05
1.91375e-05
1.75215e-05
1.91783e-05
2.3325e-05
3.04146e-05
4.1841e-05
5.97536e-05
8.45308e-05
0.000110815
0.000137068
0.000159957
0.000166723
0.000178343
0.000198403
0.000218533
0.000218891
0.000139083
0.000144851
0.000157491
0.000184114
0.000224533
0.000249662
0.000121748
0.000124969
0.000137223
0.000167068
0.000223377
0.00027631
0.000103044
0.000108747
0.00012295
0.000153848
0.000218545
0.000297859
8.90981e-05
9.96816e-05
0.000117834
0.000149209
0.000215915
0.000313528
8.28044e-05
0.000100513
0.000123184
0.000154302
0.000216797
0.000321799
8.93587e-05
0.000113798
0.000139227
0.000168184
0.000222012
0.000323885
0.000109593
0.000139176
0.000163158
0.000186155
0.000228326
0.000321218
0.000140652
0.000168949
0.000185018
0.000199546
0.00023015
0.000314235
0.000170197
0.000187707
0.000193188
0.000201455
0.00022377
0.000302719
0.000183815
0.000187868
0.000187557
0.000194137
0.000212003
0.000287668
0.000178842
0.000176591
0.000176532
0.000184537
0.000200469
0.000270102
0.000165116
0.0001636
0.000166403
0.000176044
0.000191627
0.000249858
0.000151491
0.000152876
0.000157589
0.000169522
0.000187186
0.000225876
0.00015482
0.000158959
0.000165135
0.000177987
0.000196862
0.000217237
0.000132403
0.00013605
0.000144676
0.00016392
0.000199098
0.000242484
0.000112442
0.000116177
0.000125876
0.0001486
0.000196594
0.000263691
9.17574e-05
9.90829e-05
0.000112423
0.000137647
0.000193537
0.000280384
7.60014e-05
8.76991e-05
0.000106358
0.000135197
0.000195034
0.000292929
6.73752e-05
8.44206e-05
0.000108618
0.00014054
0.000202087
0.000300792
6.9137e-05
9.15372e-05
0.000120283
0.000153336
0.000211294
0.000304705
8.19668e-05
0.000109731
0.000141514
0.000171945
0.000218991
0.00030536
0.000104791
0.000136303
0.000166763
0.000189346
0.000220052
0.000302273
0.000131497
0.000161271
0.000183987
0.000195512
0.000211546
0.000294868
0.000153614
0.000174393
0.000185784
0.000188913
0.000197458
0.000281716
0.000163451
0.000173382
0.000176863
0.000177641
0.000184907
0.000263582
0.000160797
0.000164048
0.000165234
0.000167776
0.000176862
0.000241875
0.000150764
0.000152608
0.000154109
0.000160215
0.000173384
0.00021582
0.000154561
0.000163087
0.00016611
0.000168986
0.000177297
0.000203782
0.000123705
0.000133714
0.0001433
0.00015524
0.000176692
0.000222861
0.000101743
0.000112331
0.000124665
0.000141394
0.00017299
0.000239081
8.09495e-05
9.36038e-05
0.000109562
0.000131755
0.000172106
0.000252935
6.55079e-05
8.00464e-05
0.000100158
0.000127775
0.000177158
0.000264968
5.49012e-05
7.14777e-05
9.6066e-05
0.000128905
0.000187462
0.000274233
5.10755e-05
7.07033e-05
9.92691e-05
0.000135435
0.000199081
0.000280726
5.41333e-05
7.70792e-05
0.000110346
0.00014904
0.000206955
0.000282394
6.38605e-05
9.10911e-05
0.00012865
0.000167396
0.000210596
0.000280609
7.90293e-05
0.000109665
0.000149117
0.000180917
0.000205496
0.000274827
9.68672e-05
0.000128718
0.000164301
0.000185055
0.000195078
0.000264982
0.000115024
0.00014382
0.000171646
0.000182974
0.000185123
0.000249658
0.000131268
0.000154395
0.000174093
0.000179429
0.000179766
0.000228713
0.000142587
0.000160591
0.000172537
0.000174445
0.00017779
0.000201751
0.000142148
0.000145613
0.000151361
0.000165908
0.000187512
0.00023289
0.00013007
0.000131351
0.000137718
0.00015707
0.000191856
0.000263524
0.00011929
0.000118145
0.000124346
0.000146642
0.00019249
0.000289603
0.000103254
0.000104702
0.000114165
0.000138685
0.000191765
0.000310036
8.51016e-05
9.2372e-05
0.000108296
0.000136937
0.000193318
0.000324686
6.84309e-05
8.35114e-05
0.00010771
0.000141807
0.000198713
0.000332848
5.94855e-05
8.21523e-05
0.000114258
0.000153339
0.000209025
0.000335187
5.99088e-05
9.14637e-05
0.000130539
0.000171195
0.000220469
0.000331129
7.22289e-05
0.000113246
0.000156306
0.000191709
0.000227383
0.000321405
9.65293e-05
0.000143015
0.000182303
0.000205492
0.000224931
0.000306951
0.000126987
0.000168865
0.000195672
0.000205221
0.000213154
0.00028866
0.000153238
0.000180843
0.000193643
0.00019519
0.000198393
0.000267758
0.000164673
0.000178201
0.000182484
0.000182535
0.000185359
0.000244708
0.000160502
0.00016609
0.000166895
0.00016917
0.000175728
0.000218914
0.000139856
0.000143348
0.000146569
0.000156598
0.000174616
0.000220484
0.000126306
0.000129473
0.000135429
0.000149571
0.000178126
0.000246467
0.000111476
0.00011613
0.000124397
0.000141402
0.000178106
0.000268629
9.17024e-05
0.000100497
0.000113868
0.000135111
0.000177213
0.000285819
7.1355e-05
8.46109e-05
0.000104458
0.000132417
0.000179479
0.000298197
5.5053e-05
7.16977e-05
9.75931e-05
0.000132926
0.000186358
0.000306768
4.56784e-05
6.54175e-05
9.65447e-05
0.000138414
0.000198238
0.000311818
4.30253e-05
6.77464e-05
0.000104834
0.000151386
0.000212078
0.000311018
4.91941e-05
8.13397e-05
0.000125286
0.000172299
0.000221167
0.000304468
6.54786e-05
0.000105079
0.000153185
0.0001926
0.00022021
0.000293118
8.98771e-05
0.000131881
0.00017574
0.000200148
0.000208473
0.000277944
0.000117012
0.000153143
0.000183952
0.0001942
0.000193513
0.000258026
0.000138437
0.000163442
0.000179902
0.000182147
0.000181122
0.000234957
0.000146693
0.000161107
0.000166659
0.000167082
0.000170875
0.000207793
0.000147691
0.00016079
0.000166903
0.000170619
0.000177673
0.000203053
0.000119977
0.000135937
0.000150601
0.000164255
0.000181467
0.000226319
9.79916e-05
0.000116468
0.000136223
0.000155947
0.000180269
0.000246861
7.62346e-05
9.60615e-05
0.000120607
0.000147358
0.00017867
0.000263308
5.73119e-05
7.74096e-05
0.000105537
0.000138947
0.000179169
0.000275928
4.38852e-05
6.26627e-05
9.17794e-05
0.000130838
0.000181236
0.000285008
3.54213e-05
5.33933e-05
8.2642e-05
0.000125738
0.000187476
0.000290687
3.08404e-05
4.89098e-05
7.94283e-05
0.000126856
0.000196765
0.00029082
3.04253e-05
5.10133e-05
8.54839e-05
0.000137509
0.000204442
0.000285409
3.58552e-05
6.03355e-05
0.000100992
0.000155311
0.000207117
0.00027505
4.75809e-05
7.54679e-05
0.000120868
0.000169954
0.000201462
0.000260549
6.44761e-05
9.35975e-05
0.000138115
0.00017655
0.000192517
0.00024258
8.40786e-05
0.000112058
0.000149711
0.000176075
0.000184097
0.000221301
0.000101394
0.000126592
0.000153837
0.000168877
0.00017662
0.000194973
0.000217084
0.000219784
0.000216559
0.000215802
0.000213723
0.000207549
0.000247353
0.000242832
0.000239529
0.000236339
0.000225931
0.000209673
0.000276876
0.000269204
0.000254803
0.000237815
0.000211163
0.000180795
0.00030257
0.000287756
0.000248042
0.000210399
0.000169156
0.000131505
0.000322421
0.000282813
0.000212688
0.000161411
0.000117797
8.33499e-05
0.000333066
0.00025197
0.000166153
0.000114156
7.66341e-05
4.93732e-05
0.000336342
0.000210818
0.000128647
8.33492e-05
5.31421e-05
3.15517e-05
0.000330915
0.000177054
0.000106862
6.98002e-05
4.53004e-05
2.66373e-05
0.000322233
0.000157808
9.8956e-05
6.96942e-05
4.93981e-05
3.07057e-05
0.000310996
0.000152535
0.000101842
8.00854e-05
6.44951e-05
4.44449e-05
0.000296346
0.000155995
0.000112712
9.71246e-05
8.75757e-05
7.03977e-05
0.000277371
0.000163585
0.000128129
0.000116419
0.000111977
0.00010131
0.000253494
0.000170188
0.000144731
0.000135457
0.000132906
0.000126941
0.000224972
0.00017093
0.000157098
0.000151441
0.000151481
0.000147999
0.000214702
0.000206913
0.000204545
0.00020485
0.00019926
0.000187747
0.000246245
0.00023291
0.000230758
0.0002226
0.000202191
0.000179164
0.000274141
0.00026182
0.000244784
0.0002166
0.000178138
0.000144866
0.000296224
0.000282464
0.000232731
0.000183026
0.000134896
0.000100169
0.000310322
0.000276808
0.000193449
0.00013484
9.0029e-05
6.0632e-05
0.000315386
0.00024328
0.000146915
9.22288e-05
5.68526e-05
3.42008e-05
0.000313526
0.000201817
0.000111947
6.60482e-05
3.86872e-05
2.1186e-05
0.000306892
0.000168209
9.38939e-05
5.63927e-05
3.35457e-05
1.81686e-05
0.000296142
0.000147705
8.94399e-05
5.86383e-05
3.7761e-05
2.15918e-05
0.000284604
0.00014099
9.49455e-05
7.04168e-05
5.09079e-05
3.16235e-05
0.000272178
0.000143159
0.000106474
8.88866e-05
7.33664e-05
5.26705e-05
0.000256398
0.000151358
0.000121532
0.000109949
9.99159e-05
8.22816e-05
0.00023635
0.000159985
0.000137997
0.000130448
0.0001249
0.000111955
0.000212069
0.000163467
0.000152446
0.000149935
0.000150237
0.000141754
0.000205177
0.000197475
0.000190503
0.000180695
0.000157984
0.000134894
0.000237642
0.000220987
0.000206451
0.000179407
0.000141829
0.000114081
0.000262685
0.000243977
0.000206289
0.000158624
0.000111711
8.37335e-05
0.000281296
0.000257778
0.000186932
0.000125397
7.91522e-05
5.47755e-05
0.000291783
0.000246902
0.000151535
8.98263e-05
5.19569e-05
3.26595e-05
0.000294605
0.00021607
0.00011542
6.21469e-05
3.4146e-05
1.89435e-05
0.000291099
0.000182112
9.1204e-05
4.7578e-05
2.54974e-05
1.27689e-05
0.000284521
0.000156637
8.15159e-05
4.43367e-05
2.41834e-05
1.18839e-05
0.000274852
0.000141898
8.21799e-05
4.84005e-05
2.79141e-05
1.43257e-05
0.000263665
0.000137847
9.06148e-05
5.92049e-05
3.71987e-05
2.05211e-05
0.000251238
0.000141212
0.000103441
7.59383e-05
5.41106e-05
3.48421e-05
0.000236668
0.000150388
0.000120232
9.76967e-05
7.68546e-05
5.62395e-05
0.000218595
0.000161481
0.000138874
0.000121527
0.000102549
8.2034e-05
0.000196338
0.000167903
0.000157049
0.000148375
0.000133472
0.000112569
0.000213217
0.000224006
0.000206265
0.0001893
0.000179289
0.000174371
0.000239525
0.000236498
0.000218992
0.00020544
0.000197317
0.000193255
0.000265703
0.000254267
0.000234375
0.000221648
0.000212158
0.000204017
0.000290172
0.000272886
0.000243875
0.000225943
0.000208673
0.000190514
0.00031047
0.000279175
0.000232487
0.000204452
0.000177188
0.000151534
0.000320947
0.000265333
0.000198812
0.000162489
0.000131946
0.000107061
0.000324707
0.000237884
0.000160326
0.000121542
9.36358e-05
7.32036e-05
0.000323762
0.000210324
0.000132684
9.66027e-05
7.33815e-05
5.64477e-05
0.000316992
0.000190602
0.000119775
8.87242e-05
7.03748e-05
5.57276e-05
0.000308193
0.000184381
0.000120772
9.56982e-05
8.27972e-05
7.02232e-05
0.000293221
0.000189381
0.000134336
0.000114359
0.000106271
9.64055e-05
0.000273757
0.000198936
0.000155998
0.000140021
0.000135054
0.00012892
0.000249309
0.000205728
0.000179062
0.000167159
0.000162991
0.000158343
0.000220226
0.000204515
0.000195343
0.000191122
0.000191833
0.00018969
0.000214673
0.000204449
0.000191645
0.000182099
0.000175993
0.000171864
0.000243326
0.000220246
0.000210935
0.000202956
0.000195096
0.000188359
0.000268861
0.000242826
0.000231079
0.000218734
0.000203452
0.000188358
0.000289739
0.000267002
0.000241515
0.000217291
0.000189465
0.000164854
0.000303203
0.000278866
0.000227013
0.00018915
0.000152443
0.00012515
0.000308312
0.000264656
0.00018957
0.000145291
0.000109763
8.58868e-05
0.000307075
0.000234973
0.000149238
0.000105884
7.657e-05
5.76069e-05
0.000302455
0.000204064
0.000121221
8.28934e-05
5.94817e-05
4.41387e-05
0.000295053
0.000179547
0.000108254
7.61784e-05
5.75144e-05
4.39663e-05
0.000286192
0.000166164
0.000107557
8.30209e-05
6.89132e-05
5.61046e-05
0.000273335
0.000166105
0.000118191
0.000100392
9.08566e-05
7.90821e-05
0.000257845
0.000174399
0.000136919
0.000124373
0.000119044
0.000110106
0.000238493
0.000183679
0.000159258
0.000151023
0.000148086
0.000141455
0.00021475
0.000187037
0.000178339
0.000178281
0.000181053
0.000177142
0.000206816
0.00018963
0.000185978
0.000182914
0.000172831
0.000160072
0.000238716
0.000209983
0.000206645
0.000195894
0.000175127
0.000155959
0.000263148
0.000234808
0.000221715
0.000196357
0.000162503
0.000136612
0.000279847
0.000256756
0.000222868
0.000180314
0.000136657
0.000108169
0.000288546
0.000263316
0.000200505
0.000147947
0.000103901
7.83896e-05
0.000290864
0.000246014
0.000162841
0.000111497
7.47947e-05
5.35796e-05
0.000287468
0.000216472
0.000127875
8.25431e-05
5.4289e-05
3.75938e-05
0.000281181
0.000188429
0.000106074
6.69804e-05
4.49829e-05
3.12886e-05
0.000272284
0.000164867
9.72918e-05
6.39673e-05
4.54356e-05
3.29048e-05
0.000260739
0.000150653
9.87928e-05
7.1408e-05
5.47669e-05
4.18561e-05
0.00024819
0.000147847
0.000108271
8.65945e-05
7.12495e-05
5.7406e-05
0.000234843
0.000154713
0.000124926
0.000108746
9.47894e-05
8.01539e-05
0.000219432
0.000166228
0.000146322
0.000134791
0.000122506
0.000107379
0.000200499
0.000174667
0.000168692
0.000166465
0.000158715
0.000142862
5.05845e-05
3.75928e-05
2.74063e-05
2.02471e-05
1.62682e-05
1.37917e-05
1.26344e-05
1.28915e-05
1.61327e-05
2.35596e-05
3.55732e-05
5.24431e-05
7.45458e-05
0.000100647
3.24759e-05
2.36666e-05
1.67583e-05
1.20291e-05
9.48282e-06
7.90102e-06
7.15812e-06
7.45742e-06
1.01267e-05
1.6438e-05
2.68315e-05
4.10563e-05
5.8564e-05
7.77535e-05
1.90396e-05
1.30673e-05
8.83629e-06
6.1786e-06
4.79264e-06
3.94303e-06
3.59878e-06
4.01354e-06
6.17916e-06
1.12141e-05
1.96241e-05
3.11012e-05
4.50805e-05
6.06082e-05
1.00965e-05
6.11084e-06
3.84092e-06
2.64156e-06
2.03619e-06
1.67993e-06
1.61705e-06
2.103e-06
3.84364e-06
7.72704e-06
1.42963e-05
2.34498e-05
3.47223e-05
4.74995e-05
4.9723e-06
2.44279e-06
1.37486e-06
9.25417e-07
7.13993e-07
6.15706e-07
7.00094e-07
1.19508e-06
2.60842e-06
5.62369e-06
1.07877e-05
1.81946e-05
2.76108e-05
3.8719e-05
2.61419e-06
9.8139e-07
4.44844e-07
2.71464e-07
2.1077e-07
2.16128e-07
3.57758e-07
8.32745e-07
2.02976e-06
4.48294e-06
8.68395e-06
1.486e-05
2.2931e-05
3.27465e-05
1.85065e-06
5.74377e-07
1.85916e-07
8.25139e-08
6.49236e-08
1.0389e-07
2.65826e-07
7.27204e-07
1.80914e-06
3.94841e-06
7.56848e-06
1.29473e-05
2.01335e-05
2.91819e-05
1.86633e-06
5.6768e-07
1.6303e-07
5.67261e-08
4.56977e-08
9.73296e-08
2.74634e-07
7.42264e-07
1.78213e-06
3.76443e-06
7.0486e-06
1.19071e-05
1.84684e-05
2.69839e-05
2.3319e-06
7.53542e-07
2.52341e-07
1.14291e-07
9.5641e-08
1.57144e-07
3.5792e-07
8.56224e-07
1.91017e-06
3.84425e-06
6.97215e-06
1.15673e-05
1.78704e-05
2.64226e-05
3.33584e-06
1.19389e-06
5.28218e-07
3.22342e-07
2.79496e-07
3.51481e-07
5.9022e-07
1.14618e-06
2.25937e-06
4.22628e-06
7.35309e-06
1.19524e-05
1.84643e-05
2.78008e-05
5.63912e-06
2.2371e-06
1.24126e-06
9.01548e-07
8.0037e-07
8.82483e-07
1.19291e-06
1.87565e-06
3.17028e-06
5.39633e-06
8.93803e-06
1.42209e-05
2.18399e-05
3.24217e-05
1.09893e-05
4.97538e-06
2.84586e-06
2.28191e-06
2.08599e-06
2.18782e-06
2.64101e-06
3.6047e-06
5.36087e-06
8.31426e-06
1.29612e-05
1.97954e-05
2.937e-05
4.10903e-05
2.04769e-05
1.04684e-05
6.21228e-06
5.09144e-06
4.82307e-06
5.00087e-06
5.72484e-06
7.20192e-06
9.79346e-06
1.39963e-05
2.03993e-05
2.96513e-05
4.19615e-05
5.56871e-05
3.15846e-05
1.91131e-05
1.27949e-05
1.03434e-05
9.86385e-06
1.0231e-05
1.13804e-05
1.35953e-05
1.73003e-05
2.31102e-05
3.18103e-05
4.4534e-05
6.10772e-05
7.95827e-05
2.2909e-05
1.80752e-05
1.43447e-05
1.14458e-05
1.00203e-05
9.1535e-06
8.74684e-06
8.72382e-06
9.74508e-06
1.27506e-05
1.85714e-05
2.74143e-05
3.99619e-05
5.7917e-05
1.35443e-05
1.02144e-05
7.81502e-06
6.1338e-06
5.33479e-06
4.83511e-06
4.60443e-06
4.68632e-06
5.63487e-06
8.30863e-06
1.35673e-05
2.18048e-05
3.3333e-05
4.87652e-05
7.48053e-06
5.0323e-06
3.62757e-06
2.82168e-06
2.45052e-06
2.21227e-06
2.13288e-06
2.3194e-06
3.20467e-06
5.49409e-06
9.97175e-06
1.71126e-05
2.71029e-05
4.01287e-05
3.89055e-06
2.14688e-06
1.41897e-06
1.08642e-06
9.44462e-07
8.61437e-07
8.80073e-07
1.11789e-06
1.90459e-06
3.78951e-06
7.44692e-06
1.33962e-05
2.18637e-05
3.2912e-05
2.03977e-06
8.66003e-07
4.81308e-07
3.49988e-07
3.02856e-07
2.91407e-07
3.5521e-07
6.02594e-07
1.29089e-06
2.85442e-06
5.86221e-06
1.08422e-05
1.81097e-05
2.78374e-05
1.27191e-06
4.1202e-07
1.6494e-07
9.9686e-08
8.4693e-08
9.88524e-08
1.77642e-07
4.208e-07
1.04467e-06
2.41098e-06
5.00125e-06
9.3058e-06
1.56859e-05
2.43778e-05
1.03667e-06
2.96126e-07
8.49873e-08
3.33293e-08
2.73579e-08
5.01175e-08
1.36077e-07
3.82312e-07
9.85919e-07
2.26614e-06
4.64022e-06
8.54704e-06
1.43503e-05
2.23492e-05
1.07592e-06
3.0993e-07
8.32095e-08
2.71248e-08
2.248e-08
5.04633e-08
1.46467e-07
4.09246e-07
1.02834e-06
2.29622e-06
4.57914e-06
8.25704e-06
1.36612e-05
2.1123e-05
1.30245e-06
3.9965e-07
1.27776e-07
5.76057e-08
5.05056e-08
8.47374e-08
1.97465e-07
4.91643e-07
1.15494e-06
2.46109e-06
4.73512e-06
8.31443e-06
1.35022e-05
2.06958e-05
1.74948e-06
6.14977e-07
2.74072e-07
1.71284e-07
1.54099e-07
1.96383e-07
3.35068e-07
6.75674e-07
1.40224e-06
2.7712e-06
5.07326e-06
8.60892e-06
1.36856e-05
2.0792e-05
2.63933e-06
1.15059e-06
6.84103e-07
5.10347e-07
4.62054e-07
5.11769e-07
6.93992e-07
1.1109e-06
1.93931e-06
3.42386e-06
5.84064e-06
9.48271e-06
1.47274e-05
2.22086e-05
4.6197e-06
2.37203e-06
1.67123e-06
1.38025e-06
1.26671e-06
1.31896e-06
1.5742e-06
2.13027e-06
3.15755e-06
4.90697e-06
7.67534e-06
1.17681e-05
1.75905e-05
2.57607e-05
8.70628e-06
4.83513e-06
3.69336e-06
3.28056e-06
3.09709e-06
3.16761e-06
3.55909e-06
4.38595e-06
5.83262e-06
8.1873e-06
1.17905e-05
1.69514e-05
2.39779e-05
3.26567e-05
1.4482e-05
9.33005e-06
7.39373e-06
6.83281e-06
6.67717e-06
6.87427e-06
7.53217e-06
8.83898e-06
1.10356e-05
1.45202e-05
1.9699e-05
2.6933e-05
3.63961e-05
4.61708e-05
9.56884e-06
7.60345e-06
6.41902e-06
5.58531e-06
5.31672e-06
5.21219e-06
5.23636e-06
5.32284e-06
5.69917e-06
6.79764e-06
9.32605e-06
1.38176e-05
2.08755e-05
3.1887e-05
5.20392e-06
3.7776e-06
3.07181e-06
2.6486e-06
2.53926e-06
2.49669e-06
2.51451e-06
2.60474e-06
2.9707e-06
4.00251e-06
6.33154e-06
1.05798e-05
1.73783e-05
2.75786e-05
2.708e-06
1.66634e-06
1.26381e-06
1.07613e-06
1.03722e-06
1.02519e-06
1.05253e-06
1.16137e-06
1.5223e-06
2.46203e-06
4.51413e-06
8.30797e-06
1.44743e-05
2.36821e-05
1.43771e-06
6.82445e-07
4.48926e-07
3.69199e-07
3.54882e-07
3.56654e-07
3.91399e-07
5.05701e-07
8.35333e-07
1.647e-06
3.39009e-06
6.66243e-06
1.20959e-05
2.02768e-05
8.63944e-07
2.99328e-07
1.47488e-07
1.08433e-07
1.02127e-07
1.0911e-07
1.45421e-07
2.56266e-07
5.55531e-07
1.26978e-06
2.78499e-06
5.6442e-06
1.04559e-05
1.77969e-05
6.30251e-07
1.76133e-07
5.75417e-08
3.03108e-08
2.67981e-08
3.57206e-08
7.18593e-08
1.7982e-07
4.64731e-07
1.13338e-06
2.53019e-06
5.13586e-06
9.4961e-06
1.61538e-05
5.56253e-07
1.48603e-07
3.79792e-08
1.2054e-08
9.48826e-09
1.98527e-08
5.82803e-08
1.7171e-07
4.65979e-07
1.14147e-06
2.51456e-06
5.00916e-06
9.10017e-06
1.52831e-05
5.87377e-07
1.60815e-07
4.03017e-08
1.20918e-08
9.78895e-09
2.25108e-08
6.72956e-08
1.9594e-07
5.19852e-07
1.2378e-06
2.64326e-06
5.10926e-06
9.04683e-06
1.48675e-05
6.99922e-07
2.02846e-07
6.12959e-08
2.7346e-08
2.45883e-08
4.11899e-08
9.71964e-08
2.51036e-07
6.21657e-07
1.4075e-06
2.88311e-06
5.3784e-06
9.25322e-06
1.48618e-05
9.04564e-07
3.07414e-07
1.35128e-07
8.59126e-08
7.93417e-08
1.01587e-07
1.74808e-07
3.63428e-07
7.91886e-07
1.6565e-06
3.21406e-06
5.75432e-06
9.58712e-06
1.50417e-05
1.31324e-06
5.93504e-07
3.61177e-07
2.73101e-07
2.50339e-07
2.78164e-07
3.7903e-07
6.18013e-07
1.11961e-06
2.0757e-06
3.72551e-06
6.32393e-06
1.01545e-05
1.55992e-05
2.22923e-06
1.29908e-06
9.53305e-07
7.88942e-07
7.22752e-07
7.48943e-07
8.91827e-07
1.21023e-06
1.81762e-06
2.89784e-06
4.68034e-06
7.41e-06
1.13783e-05
1.70303e-05
4.02954e-06
2.77108e-06
2.26095e-06
1.99856e-06
1.86368e-06
1.88335e-06
2.09454e-06
2.55377e-06
3.35965e-06
4.69126e-06
6.77959e-06
9.87228e-06
1.42516e-05
2.03324e-05
7.10546e-06
5.42229e-06
4.68811e-06
4.38054e-06
4.23338e-06
4.29898e-06
4.65098e-06
5.37663e-06
6.5849e-06
8.47994e-06
1.12828e-05
1.52064e-05
2.03848e-05
2.6879e-05
3.98884e-06
3.05842e-06
2.60072e-06
2.39663e-06
2.44913e-06
2.56985e-06
2.72685e-06
2.88635e-06
3.13915e-06
3.67955e-06
4.91217e-06
7.26311e-06
1.12529e-05
1.78426e-05
2.03729e-06
1.3669e-06
1.10641e-06
1.01559e-06
1.04938e-06
1.11172e-06
1.19008e-06
1.28326e-06
1.47438e-06
1.9461e-06
3.0488e-06
5.22e-06
9.01365e-06
1.52219e-05
1.04526e-06
5.57362e-07
4.08856e-07
3.6887e-07
3.82956e-07
4.0995e-07
4.49964e-07
5.17142e-07
6.81959e-07
1.09916e-06
2.05991e-06
3.98155e-06
7.42451e-06
1.31528e-05
5.89243e-07
2.27112e-07
1.34024e-07
1.13849e-07
1.17274e-07
1.28194e-07
1.51574e-07
2.05608e-07
3.47214e-07
7.0315e-07
1.51769e-06
3.18225e-06
6.26001e-06
1.15087e-05
3.93166e-07
1.12342e-07
4.44789e-08
3.08783e-08
3.06069e-08
3.59406e-08
5.25634e-08
9.91004e-08
2.25312e-07
5.42303e-07
1.26733e-06
2.76593e-06
5.57611e-06
1.04152e-05
3.10771e-07
7.8575e-08
2.11174e-08
8.87873e-09
7.71754e-09
1.16735e-08
2.6298e-08
7.06543e-08
1.93439e-07
5.02068e-07
1.20351e-06
2.64052e-06
5.29999e-06
9.80958e-06
2.87778e-07
7.29307e-08
1.69187e-08
4.40184e-09
3.14084e-09
7.30338e-09
2.30264e-08
7.15821e-08
2.05637e-07
5.37231e-07
1.27038e-06
2.72471e-06
5.33148e-06
9.63397e-06
3.1155e-07
8.04574e-08
1.8598e-08
5.08971e-09
3.98096e-09
9.28504e-09
2.86519e-08
8.72807e-08
2.44782e-07
6.20592e-07
1.41558e-06
2.9235e-06
5.52327e-06
9.67565e-06
3.72629e-07
1.00285e-07
2.80152e-08
1.21144e-08
1.1066e-08
1.84996e-08
4.43591e-08
1.19194e-07
3.11037e-07
7.46785e-07
1.62392e-06
3.2114e-06
5.84567e-06
9.92747e-06
4.7675e-07
1.52175e-07
6.39885e-08
4.05574e-08
3.81366e-08
4.90606e-08
8.52265e-08
1.8265e-07
4.1689e-07
9.20129e-07
1.88626e-06
3.56274e-06
6.25093e-06
1.03105e-05
6.94758e-07
3.08776e-07
1.84652e-07
1.38574e-07
1.27769e-07
1.42851e-07
1.96072e-07
3.25793e-07
6.11724e-07
1.18906e-06
2.24907e-06
4.02321e-06
6.78334e-06
1.0873e-05
1.2234e-06
7.28741e-07
5.27504e-07
4.29028e-07
3.90822e-07
4.05896e-07
4.86988e-07
6.68962e-07
1.0276e-06
1.69747e-06
2.86963e-06
4.77052e-06
7.65804e-06
1.18803e-05
2.33233e-06
1.66365e-06
1.33943e-06
1.15484e-06
1.06204e-06
1.06927e-06
1.19455e-06
1.4686e-06
1.95662e-06
2.78587e-06
4.14209e-06
6.25177e-06
9.38031e-06
1.39213e-05
4.3072e-06
3.40594e-06
2.92755e-06
2.67108e-06
2.53453e-06
2.54999e-06
2.75546e-06
3.19113e-06
3.92297e-06
5.07067e-06
6.78409e-06
9.25674e-06
1.27e-05
1.75341e-05
1.8353e-06
1.31719e-06
1.06537e-06
9.75153e-07
1.01313e-06
1.10531e-06
1.23236e-06
1.37329e-06
1.57196e-06
1.92825e-06
2.67078e-06
4.087e-06
6.54904e-06
1.07287e-05
8.87992e-07
5.34969e-07
4.06429e-07
3.70697e-07
3.88812e-07
4.27968e-07
4.81834e-07
5.48396e-07
6.67429e-07
9.33911e-07
1.54206e-06
2.76854e-06
5.00099e-06
8.82539e-06
4.5165e-07
2.03791e-07
1.35069e-07
1.20418e-07
1.26581e-07
1.40491e-07
1.62545e-07
1.9922e-07
2.84007e-07
4.95573e-07
9.91286e-07
2.02306e-06
3.97218e-06
7.4137e-06
2.65069e-07
8.40504e-08
4.12118e-08
3.34451e-08
3.46783e-08
3.9316e-08
4.9538e-08
7.36821e-08
1.384e-07
3.06165e-07
7.06558e-07
1.57056e-06
3.2761e-06
6.40699e-06
1.87667e-07
4.68792e-08
1.4524e-08
8.50551e-09
8.23603e-09
1.01877e-08
1.65055e-08
3.52733e-08
8.91958e-08
2.32299e-07
5.79891e-07
1.3494e-06
2.90845e-06