/*--------------------------------*- C++ -*----------------------------------*\
| =========                 |                                                 |
| \\      /  F ield         | OpenFOAM: The Open Source CFD Toolbox           |
|  \\    /   O peration     | Version:  v2106                                 |
|   \\  /    A nd           | Website:  www.openfoam.com                      |
|    \\/     M anipulation  |                                                 |
\*---------------------------------------------------------------------------*/
FoamFile
{
    version     2.0;
    format      ascii;
    arch        "LSB;label=32;scalar=64";
    class       volScalarField;
    location    "0.000183";
    object      rho;
}
// * * * * * * * * * * * * * * * * * * * * * * * * * * * * * * * * * * * * * //

dimensions      [1 -3 0 0 0 0 0];

internalField   nonuniform List<scalar> 
144746
(
2.39387
2.38993
2.3839
2.37976
2.3779
2.37532
2.37396
2.37217
2.37039
2.36592
2.36193
2.35959
2.35641
2.36118
2.38988
2.38644
2.38139
2.37771
2.37511
2.37149
2.36974
2.36689
2.36406
2.35959
2.35566
2.35409
2.35281
2.35729
2.39218
2.38627
2.38098
2.37596
2.37234
2.36817
2.36572
2.36237
2.35893
2.3548
2.35129
2.34937
2.34672
2.34973
2.39212
2.38438
2.37847
2.37284
2.36884
2.36493
2.36186
2.35799
2.35432
2.35049
2.34769
2.34601
2.34454
2.3467
2.39098
2.38232
2.37575
2.37077
2.36626
2.36265
2.35884
2.35477
2.35116
2.34772
2.34565
2.34437
2.34369
2.34648
2.38846
2.37995
2.37344
2.36827
2.36411
2.36047
2.35655
2.35269
2.34923
2.34622
2.34409
2.34302
2.34324
2.34661
2.38614
2.37797
2.37161
2.36666
2.36249
2.35856
2.35468
2.35105
2.34787
2.3454
2.3437
2.34323
2.34402
2.34764
2.38442
2.37664
2.37055
2.36531
2.3611
2.35708
2.35323
2.34971
2.34671
2.34435
2.3428
2.34241
2.34339
2.34768
2.38265
2.37535
2.3691
2.364
2.35983
2.35593
2.35215
2.34858
2.34555
2.34322
2.34199
2.34218
2.34411
2.34896
2.38289
2.37619
2.36983
2.3643
2.35955
2.35548
2.35158
2.3478
2.3447
2.34253
2.34156
2.34207
2.34392
2.34905
2.38384
2.37758
2.3713
2.36578
2.36059
2.35635
2.35237
2.34844
2.34531
2.34333
2.34262
2.34335
2.34566
2.34997
2.38624
2.37981
2.3746
2.3686
2.36314
2.3589
2.35509
2.3511
2.34809
2.34638
2.34613
2.34715
2.34988
2.35305
2.38912
2.38219
2.37783
2.37213
2.36678
2.36249
2.3588
2.3547
2.35141
2.3494
2.34877
2.34866
2.35202
2.35226
2.39168
2.38178
2.38137
2.3775
2.37383
2.36903
2.36596
2.36146
2.35803
2.35607
2.35534
2.35569
2.36169
2.36242
2.39887
2.39779
2.39453
2.39253
2.39217
2.39053
2.38967
2.38842
2.38632
2.383
2.37953
2.37782
2.37404
2.3756
2.39589
2.39465
2.39215
2.39038
2.38924
2.38692
2.38593
2.38409
2.38141
2.37839
2.37476
2.37331
2.37065
2.37295
2.39453
2.39178
2.38954
2.3871
2.38528
2.38287
2.38161
2.37944
2.37662
2.37468
2.37185
2.3705
2.36776
2.36905
2.39142
2.3879
2.38562
2.38326
2.38075
2.37864
2.37728
2.37521
2.37284
2.37159
2.36953
2.36871
2.36747
2.36787
2.38851
2.38483
2.3822
2.37997
2.37771
2.37569
2.37408
2.37207
2.37027
2.36922
2.36832
2.36829
2.36821
2.36922
2.38665
2.38316
2.38009
2.37749
2.37541
2.37338
2.37168
2.36975
2.36873
2.36791
2.36773
2.36817
2.36893
2.37052
2.38503
2.3817
2.37838
2.37565
2.37358
2.37164
2.36982
2.3681
2.36719
2.36664
2.36688
2.36795
2.36939
2.37162
2.38464
2.38071
2.37702
2.37436
2.37225
2.37024
2.36837
2.36675
2.3659
2.3655
2.36611
2.36766
2.36959
2.37225
2.38494
2.38022
2.37637
2.37344
2.37125
2.36926
2.36736
2.36568
2.36485
2.36431
2.36504
2.36684
2.36924
2.3728
2.38671
2.38181
2.3774
2.3738
2.37126
2.36919
2.3671
2.36517
2.36454
2.36389
2.36443
2.36617
2.36848
2.37236
2.38821
2.38335
2.37893
2.37519
2.37252
2.37024
2.36793
2.36548
2.36511
2.36417
2.36444
2.36574
2.3679
2.37184
2.3909
2.38557
2.38201
2.37771
2.37518
2.37269
2.37005
2.36752
2.36678
2.36581
2.36606
2.36729
2.36928
2.3728
2.39297
2.38754
2.38492
2.38146
2.3788
2.37594
2.37269
2.37036
2.36871
2.36767
2.36704
2.36674
2.36822
2.36956
2.39402
2.38886
2.38933
2.38662
2.38395
2.38073
2.37709
2.37511
2.3726
2.37137
2.3701
2.36987
2.37221
2.37354
2.42168
2.41959
2.41656
2.41422
2.41308
2.41022
2.40866
2.40604
2.40294
2.39968
2.39771
2.39487
2.3926
2.38977
2.41762
2.41485
2.41154
2.40885
2.40726
2.40481
2.40353
2.40098
2.39811
2.39519
2.39311
2.39127
2.3894
2.38731
2.41327
2.41043
2.40731
2.40396
2.40177
2.39955
2.39795
2.3953
2.39272
2.39019
2.38868
2.38718
2.38491
2.3826
2.40994
2.40649
2.40321
2.40045
2.39778
2.39571
2.39391
2.39124
2.38861
2.38601
2.38455
2.38338
2.38197
2.37952
2.40766
2.40446
2.40122
2.39811
2.39541
2.39299
2.39078
2.38791
2.38523
2.38269
2.38179
2.38112
2.38054
2.37844
2.4058
2.40251
2.39913
2.39598
2.39313
2.39046
2.38799
2.38508
2.3823
2.37993
2.37913
2.37883
2.37905
2.37767
2.40403
2.40045
2.39696
2.3936
2.39048
2.38782
2.38534
2.38271
2.38017
2.37845
2.3778
2.37789
2.37802
2.37701
2.40302
2.3988
2.39487
2.3913
2.38804
2.38541
2.3829
2.38044
2.37812
2.3768
2.37638
2.3769
2.37707
2.37663
2.4021
2.39695
2.39273
2.38902
2.38571
2.38302
2.38054
2.37822
2.37626
2.37539
2.37526
2.37601
2.37635
2.37644
2.40252
2.39622
2.39107
2.38711
2.38383
2.38104
2.37862
2.37649
2.37484
2.37416
2.3742
2.37485
2.3753
2.37552
2.40303
2.39585
2.39105
2.38666
2.38269
2.37948
2.377
2.37524
2.37391
2.37338
2.37332
2.37373
2.37401
2.37439
2.40515
2.39671
2.39176
2.38709
2.38323
2.38028
2.37769
2.37563
2.37463
2.37404
2.37383
2.37418
2.37419
2.37458
2.40672
2.39904
2.39414
2.38937
2.38535
2.3823
2.38001
2.37805
2.37681
2.37528
2.37423
2.37347
2.37368
2.37348
2.40831
2.4004
2.39668
2.39259
2.3887
2.38535
2.38292
2.38107
2.38016
2.37845
2.37719
2.37678
2.37684
2.37711
2.37489
2.38466
2.38575
2.39402
2.39749
2.40917
2.35358
2.3668
2.37452
2.38954
2.39313
2.41187
2.3513
2.36601
2.37541
2.39267
2.39748
2.42044
2.3486
2.36255
2.37395
2.39483
2.4033
2.43219
2.35022
2.36384
2.3764
2.39907
2.40996
2.44522
2.35196
2.36558
2.37805
2.40118
2.41418
2.4499
2.35302
2.36676
2.38041
2.40428
2.41637
2.45179
2.35431
2.3678
2.38101
2.40355
2.41616
2.44835
2.35523
2.36798
2.38144
2.4023
2.41639
2.44512
2.35607
2.36795
2.38058
2.39826
2.41173
2.43669
2.35765
2.36891
2.37992
2.39325
2.40326
2.42674
2.3603
2.36895
2.37811
2.38962
2.39676
2.41569
2.36387
2.37241
2.3804
2.38845
2.39399
2.40808
2.365
2.37096
2.38122
2.39268
2.39834
2.40978
2.38451
2.39102
2.38735
2.3889
2.38488
2.39644
2.36581
2.37301
2.375
2.38455
2.38013
2.39927
2.36693
2.37373
2.37627
2.3882
2.38417
2.40804
2.36627
2.37222
2.37656
2.39114
2.38994
2.41865
2.3693
2.37522
2.3813
2.39698
2.39639
2.43246
2.3721
2.3788
2.38568
2.40152
2.40533
2.43442
2.37413
2.38185
2.39023
2.40694
2.41175
2.43769
2.37545
2.38349
2.39259
2.40914
2.41475
2.43785
2.37651
2.38457
2.39393
2.40955
2.41355
2.43549
2.37642
2.38398
2.39215
2.40487
2.40763
2.43008
2.37595
2.3819
2.38814
2.39702
2.39763
2.41821
2.37521
2.37866
2.38163
2.38778
2.38468
2.40374
2.37439
2.37543
2.3786
2.38412
2.38014
2.39502
2.36734
2.36677
2.37236
2.38028
2.37889
2.38895
2.39855
2.40722
2.40582
2.405
2.40441
2.41484
2.37751
2.38143
2.38401
2.39217
2.39435
2.41474
2.37663
2.37756
2.37987
2.38947
2.39351
2.41889
2.37358
2.37205
2.37441
2.3866
2.39455
2.42393
2.37452
2.37202
2.37414
2.38842
2.39771
2.42831
2.37549
2.3737
2.37589
2.38927
2.40024
2.42659
2.37576
2.37565
2.37891
2.39286
2.40484
2.42451
2.37585
2.37688
2.38171
2.39441
2.40417
2.42004
2.37657
2.37851
2.38413
2.39609
2.40617
2.41787
2.37604
2.37809
2.38391
2.39539
2.4022
2.41661
2.3752
2.37734
2.38243
2.39226
2.39745
2.41717
2.37451
2.37629
2.38009
2.38644
2.38922
2.41061
2.37602
2.37589
2.37827
2.3839
2.38727
2.40649
2.36815
2.36507
2.36898
2.37674
2.38386
2.3962
2.37498
2.38874
2.39054
2.39929
2.40131
2.41311
2.35607
2.37131
2.38006
2.39771
2.40241
2.4229
2.35666
2.37307
2.38305
2.40362
2.40973
2.43637
2.35798
2.37253
2.38329
2.40601
2.41653
2.44885
2.36178
2.37649
2.38961
2.41303
2.42348
2.46029
2.3658
2.38096
2.39509
2.41774
2.42814
2.46665
2.37022
2.38597
2.4005
2.42318
2.43398
2.47124
2.37489
2.38996
2.40323
2.42563
2.43743
2.46947
2.3777
2.39295
2.40651
2.42776
2.43847
2.46806
2.38171
2.3943
2.4068
2.4263
2.4372
2.46435
2.38382
2.39442
2.40602
2.42222
2.43401
2.46046
2.38642
2.3945
2.40409
2.41778
2.43009
2.45234
2.38872
2.39528
2.40548
2.4181
2.42741
2.44318
2.38696
2.39336
2.4047
2.41774
2.42501
2.43591
2.37936
2.38662
2.38428
2.38622
2.38144
2.39289
2.36383
2.37099
2.37316
2.38442
2.38074
2.40149
2.36668
2.37279
2.37625
2.3905
2.38797
2.41413
2.36901
2.37395
2.37815
2.39353
2.3952
2.42563
2.37331
2.37864
2.38512
2.40144
2.40362
2.43707
2.37666
2.38361
2.3918
2.40797
2.41051
2.44484
2.38067
2.38865
2.39744
2.41496
2.42073
2.4522
2.38305
2.39323
2.40283
2.42145
2.43019
2.45353
2.38722
2.3981
2.40804
2.42681
2.43417
2.45361
2.39045
2.40086
2.41068
2.42735
2.43271
2.45093
2.39234
2.40128
2.4098
2.42402
2.42731
2.45061
2.39336
2.39963
2.40525
2.41607
2.41858
2.44114
2.39435
2.39798
2.40164
2.41054
2.4131
2.43341
2.38815
2.38922
2.39462
2.40546
2.40878
2.41519
2.38387
2.39146
2.39213
2.39324
2.39224
2.40316
2.36971
2.37288
2.37527
2.38347
2.38595
2.4087
2.37341
2.37446
2.37597
2.38558
2.39069
2.41936
2.37623
2.37668
2.37749
2.3881
2.39626
2.4292
2.38033
2.38122
2.38302
2.39471
2.4044
2.43933
2.38345
2.38574
2.38942
2.40206
2.41235
2.44561
2.38575
2.3902
2.39565
2.41016
2.42289
2.45272
2.38778
2.3937
2.40256
2.41868
2.43135
2.45498
2.39083
2.39897
2.4087
2.42633
2.43881
2.45907
2.39452
2.40395
2.41381
2.43167
2.44229
2.46125
2.39856
2.40726
2.41653
2.43311
2.44215
2.46357
2.40256
2.4093
2.41687
2.43084
2.43775
2.46086
2.40659
2.41134
2.41669
2.42622
2.43215
2.45707
2.40199
2.4055
2.41094
2.4199
2.426
2.43707
2.43782
2.42721
2.41719
2.40747
2.39655
2.39263
2.45029
2.43236
2.42184
2.4139
2.40539
2.40051
2.45872
2.43565
2.42633
2.41399
2.40531
2.39933
2.45967
2.43741
2.42989
2.41677
2.40781
2.39977
2.46582
2.43509
2.43116
2.4173
2.40891
2.39863
2.46612
2.43715
2.4322
2.41724
2.40894
2.39687
2.46547
2.43279
2.42764
2.41417
2.40572
2.3944
2.46083
2.42593
2.42423
2.41164
2.40329
2.39305
2.45191
2.42131
2.42092
2.40774
2.39895
2.39027
2.44381
2.41895
2.4179
2.40421
2.39623
2.38863
2.43965
2.41647
2.41551
2.4014
2.39464
2.38692
2.43704
2.41695
2.41721
2.40307
2.39679
2.38642
2.4357
2.41881
2.41813
2.40436
2.39686
2.38351
2.43484
2.42531
2.42421
2.41665
2.41377
2.40006
2.42531
2.42122
2.41109
2.40076
2.39218
2.39281
2.44573
2.42354
2.41512
2.40711
2.40222
2.4013
2.45153
2.42755
2.42053
2.40823
2.40135
2.39763
2.45057
2.42978
2.42285
2.4102
2.40218
2.39609
2.44923
2.43047
2.42174
2.4083
2.40073
2.39333
2.44526
2.42589
2.41967
2.40725
2.3998
2.39168
2.43758
2.41726
2.41285
2.40263
2.39671
2.38995
2.42935
2.40937
2.40772
2.39966
2.39537
2.38965
2.42385
2.39942
2.40028
2.39445
2.39237
2.38924
2.41642
2.397
2.39877
2.39231
2.3911
2.38965
2.4125
2.39338
2.39681
2.39025
2.38993
2.38932
2.4118
2.39406
2.39916
2.39177
2.39108
2.38977
2.41331
2.39719
2.40163
2.39384
2.39187
2.38782
2.41583
2.40779
2.41071
2.40857
2.40859
2.40014
2.45309
2.44638
2.43696
2.4248
2.41798
2.41647
2.47366
2.45051
2.44345
2.43351
2.42682
2.42341
2.46314
2.4549
2.44349
2.43139
2.42222
2.41784
2.4539
2.45437
2.44069
2.43049
2.41998
2.41515
2.4433
2.44498
2.43252
2.42502
2.41671
2.41179
2.43306
2.43639
2.42617
2.42158
2.41517
2.40993
2.42244
2.42788
2.41987
2.41751
2.41297
2.40849
2.41988
2.42225
2.41635
2.4149
2.41136
2.40787
2.41857
2.41722
2.41424
2.41338
2.41146
2.40758
2.41901
2.41404
2.41282
2.41243
2.41156
2.40833
2.4212
2.41228
2.4132
2.4123
2.41129
2.4076
2.42327
2.41419
2.41721
2.41471
2.41299
2.40787
2.42904
2.41779
2.42078
2.41629
2.41335
2.40598
2.43512
2.42946
2.43122
2.42982
2.42704
2.41773
2.4101
2.39974
2.39225
2.38253
2.37317
2.36728
2.41622
2.40102
2.39264
2.38383
2.37482
2.37018
2.42735
2.4061
2.3963
2.38582
2.37562
2.36904
2.43698
2.41411
2.40467
2.39021
2.37893
2.37078
2.44984
2.41568
2.40899
2.39325
2.38252
2.37292
2.4482
2.42231
2.41376
2.39655
2.38734
2.37696
2.44659
2.42138
2.41374
2.39714
2.3884
2.37837
2.44128
2.41915
2.41199
2.39687
2.38858
2.3791
2.43409
2.41268
2.40888
2.39465
2.38695
2.37935
2.43353
2.40401
2.40583
2.3937
2.38752
2.38035
2.42507
2.40278
2.40363
2.3919
2.3873
2.38015
2.42349
2.40515
2.40629
2.3954
2.39204
2.38333
2.42542
2.40998
2.41013
2.39956
2.39383
2.38289
2.43013
2.42092
2.41929
2.41593
2.41595
2.406
2.39673
2.38739
2.38762
2.38123
2.37504
2.37542
2.40781
2.3929
2.39217
2.38709
2.38373
2.38278
2.42077
2.4013
2.39751
2.38984
2.38577
2.38238
2.43189
2.41034
2.40565
2.39434
2.38943
2.38459
2.43624
2.41609
2.40971
2.39697
2.39201
2.38705
2.43777
2.41739
2.41037
2.39936
2.39496
2.3905
2.43399
2.41473
2.40881
2.39912
2.39524
2.39151
2.42708
2.40795
2.40557
2.39711
2.39443
2.39166
2.41709
2.39906
2.40169
2.394
2.39327
2.39209
2.41978
2.38861
2.39712
2.39153
2.39175
2.39195
2.41029
2.38947
2.39605
2.38982
2.39053
2.3907
2.40919
2.39188
2.39832
2.39195
2.39277
2.39156
2.41185
2.39783
2.40224
2.39512
2.39355
2.38987
2.4181
2.41025
2.41203
2.41218
2.41402
2.40735
2.41319
2.40282
2.39588
2.38938
2.38302
2.38649
2.42808
2.40992
2.40646
2.40198
2.39824
2.39866
2.42836
2.4155
2.40986
2.40319
2.39815
2.39743
2.42672
2.42216
2.41447
2.40831
2.40208
2.40107
2.42036
2.42308
2.41489
2.41056
2.40469
2.4035
2.42018
2.42066
2.41386
2.41305
2.40909
2.40746
2.41706
2.41657
2.41207
2.41321
2.41177
2.41027
2.41616
2.4139
2.41119
2.4117
2.41252
2.41226
2.41948
2.41081
2.41085
2.41216
2.41392
2.41363
2.41842
2.41129
2.41238
2.41387
2.41594
2.4162
2.42117
2.41394
2.41584
2.41604
2.41672
2.4161
2.42759
2.4195
2.42209
2.42078
2.41963
2.41733
2.43649
2.42746
2.42988
2.42508
2.42186
2.41735
2.44576
2.44356
2.44493
2.44462
2.44191
2.43181
2.43588
2.43424
2.43241
2.42871
2.42635
2.42347
2.42132
2.4181
2.41467
2.4115
2.40963
2.40837
2.40868
2.40672
2.42814
2.42535
2.42227
2.41956
2.41795
2.41583
2.41419
2.41155
2.40855
2.4058
2.40401
2.40331
2.40334
2.40211
2.42271
2.41938
2.41657
2.41429
2.41232
2.41044
2.40876
2.40628
2.40344
2.40082
2.39923
2.39867
2.39816
2.39754
2.41988
2.41611
2.41322
2.41074
2.40865
2.40669
2.4047
2.40203
2.39909
2.39637
2.39472
2.39386
2.39381
2.39314
2.41778
2.41356
2.41044
2.40778
2.40573
2.40363
2.40134
2.39845
2.39534
2.39242
2.39062
2.3899
2.39064
2.39085
2.41571
2.41128
2.40784
2.40507
2.40301
2.40081
2.39833
2.39524
2.39198
2.38902
2.38714
2.38659
2.38722
2.38753
2.41363
2.4089
2.40532
2.40244
2.40037
2.3981
2.39552
2.39242
2.3892
2.38642
2.38472
2.38453
2.38526
2.38569
2.41181
2.40663
2.40281
2.39973
2.39755
2.39515
2.3925
2.38947
2.3864
2.38391
2.38233
2.38228
2.38281
2.38327
2.40993
2.40418
2.4001
2.39685
2.39445
2.39201
2.38932
2.38642
2.38359
2.38145
2.38012
2.3801
2.3805
2.38094
2.40862
2.40202
2.39748
2.39407
2.39132
2.38879
2.38605
2.38328
2.38064
2.37868
2.37761
2.37742
2.37763
2.3782
2.4078
2.40041
2.39549
2.3919
2.38887
2.38622
2.38346
2.38086
2.37841
2.37658
2.37554
2.37518
2.37513
2.37563
2.4079
2.39911
2.3938
2.39014
2.38711
2.38451
2.38202
2.37975
2.37748
2.37578
2.37463
2.37418
2.37399
2.3742
2.40824
2.39921
2.39397
2.3904
2.38732
2.38478
2.38244
2.38043
2.37826
2.37673
2.37516
2.37404
2.37399
2.37385
2.40703
2.39929
2.39501
2.39151
2.38859
2.38652
2.38459
2.38289
2.38107
2.37997
2.37894
2.37829
2.37743
2.37821
2.4424
2.43964
2.43693
2.43405
2.43255
2.43066
2.42913
2.42696
2.42397
2.42032
2.41669
2.41338
2.41202
2.4112
2.4378
2.43429
2.43108
2.42864
2.42647
2.42434
2.4226
2.42031
2.41735
2.41362
2.40987
2.40667
2.40537
2.40601
2.43453
2.43059
2.42724
2.42454
2.42221
2.41999
2.4178
2.41519
2.41207
2.40842
2.40479
2.40157
2.4001
2.40193
2.43167
2.42739
2.42394
2.42123
2.41892
2.41649
2.41388
2.41084
2.40741
2.40353
2.39981
2.39671
2.39528
2.39731
2.42884
2.42439
2.42101
2.41833
2.41602
2.41346
2.41058
2.40718
2.40343
2.39931
2.39551
2.39262
2.39168
2.39368
2.42611
2.42147
2.41806
2.41537
2.41316
2.41061
2.40762
2.404
2.40005
2.39578
2.39201
2.38937
2.38885
2.39054
2.42331
2.4184
2.41504
2.41238
2.41015
2.40754
2.4045
2.40085
2.39692
2.39277
2.3893
2.38707
2.38705
2.38878
2.42032
2.41526
2.41178
2.40903
2.40673
2.40407
2.401
2.3974
2.3936
2.38974
2.38665
2.38486
2.385
2.38648
2.41721
2.41195
2.40826
2.40534
2.40285
2.40012
2.39707
2.39361
2.39002
2.38656
2.38395
2.38271
2.38277
2.38397
2.41427
2.40868
2.40465
2.40153
2.3988
2.39598
2.39294
2.38963
2.38627
2.3833
2.38104
2.3801
2.37981
2.38086
2.41168
2.40571
2.4013
2.39795
2.39492
2.39198
2.38895
2.38582
2.38268
2.37996
2.3778
2.37709
2.37663
2.3778
2.4097
2.40306
2.39831
2.39491
2.39172
2.38872
2.3857
2.38267
2.37964
2.37705
2.37518
2.37418
2.37383
2.37507
2.40812
2.4014
2.39678
2.39318
2.38999
2.38687
2.38379
2.38083
2.37793
2.37564
2.37388
2.37274
2.37234
2.37261
2.40626
2.40018
2.39574
2.39242
2.38949
2.38672
2.38403
2.38151
2.37891
2.37714
2.37576
2.37551
2.37494
2.3748
2.44993
2.44715
2.44514
2.44292
2.44116
2.43935
2.43784
2.43574
2.43304
2.42929
2.42483
2.42015
2.41646
2.41393
2.44711
2.44382
2.44119
2.43864
2.43647
2.4342
2.43208
2.42961
2.42659
2.42272
2.41832
2.41381
2.41034
2.40881
2.44481
2.44091
2.43792
2.43517
2.43283
2.43036
2.42787
2.42499
2.42168
2.41774
2.41334
2.40894
2.40568
2.40472
2.4423
2.43819
2.43516
2.43242
2.42993
2.42714
2.42415
2.42084
2.41723
2.41308
2.40859
2.40431
2.4013
2.40058
2.43961
2.43536
2.43228
2.42956
2.42711
2.42427
2.42113
2.41763
2.41373
2.40933
2.40469
2.40048
2.39774
2.3974
2.43638
2.43199
2.4291
2.42655
2.42413
2.42126
2.41804
2.41442
2.41031
2.40578
2.40108
2.39701
2.39443
2.39459
2.43286
2.42837
2.42558
2.42307
2.42065
2.41779
2.41459
2.41096
2.40681
2.40234
2.39776
2.39408
2.3919
2.39252
2.42909
2.4245
2.42173
2.4192
2.41673
2.41387
2.41069
2.40708
2.40298
2.39863
2.39435
2.39113
2.38946
2.39009
2.42518
2.42053
2.41759
2.41492
2.41238
2.40952
2.40639
2.40284
2.39887
2.39476
2.39088
2.38817
2.3868
2.38736
2.42127
2.41647
2.41325
2.4104
2.4077
2.40483
2.40175
2.3983
2.39451
2.39066
2.38717
2.3849
2.38356
2.38383
2.41755
2.41257
2.40898
2.4059
2.40304
2.40011
2.39704
2.39365
2.39004
2.38645
2.38321
2.38117
2.37977
2.37981
2.41397
2.40855
2.40474
2.40158
2.39859
2.39564
2.39257
2.38927
2.3858
2.38247
2.37945
2.37751
2.37617
2.37588
2.41072
2.40535
2.40153
2.39838
2.39535
2.39227
2.38908
2.38573
2.38238
2.37943
2.37679
2.37494
2.37342
2.37285
2.40737
2.40205
2.39844
2.3956
2.3929
2.38998
2.38701
2.38387
2.38074
2.37817
2.37619
2.37493
2.37332
2.37211
2.45802
2.45508
2.45287
2.45069
2.44913
2.44741
2.44581
2.44388
2.44142
2.43801
2.43356
2.42819
2.42272
2.4176
2.45624
2.45289
2.45021
2.44768
2.44556
2.44328
2.44107
2.4385
2.4355
2.43174
2.42713
2.42202
2.41696
2.41288
2.45384
2.45031
2.44748
2.4449
2.44258
2.43991
2.43716
2.43418
2.43096
2.42717
2.42265
2.4177
2.4129
2.40947
2.45137
2.44774
2.44491
2.44235
2.43993
2.43708
2.43401
2.43066
2.42704
2.42288
2.41827
2.41336
2.40895
2.40603
2.44831
2.44465
2.44196
2.43946
2.43699
2.43409
2.43095
2.42755
2.42381
2.41948
2.41476
2.40982
2.4056
2.40299
2.44466
2.44112
2.43856
2.43613
2.43365
2.43074
2.42759
2.42415
2.42031
2.41587
2.41113
2.40624
2.40227
2.40003
2.44053
2.43706
2.43469
2.43229
2.42983
2.42694
2.42384
2.42043
2.41656
2.41212
2.40743
2.40278
2.39912
2.39776
2.43617
2.43274
2.43049
2.42809
2.42564
2.42279
2.41973
2.41631
2.41243
2.40803
2.40344
2.39918
2.3959
2.39526
2.43168
2.42821
2.42593
2.42349
2.42106
2.41827
2.41526
2.41185
2.40798
2.40369
2.39931
2.39559
2.39264
2.39244
2.42708
2.42348
2.42105
2.41856
2.41615
2.41342
2.41048
2.40711
2.40331
2.39918
2.39502
2.39174
2.38901
2.38906
2.42257
2.41877
2.41607
2.41349
2.41101
2.40828
2.40536
2.40201
2.39831
2.39442
2.39054
2.38759
2.38506
2.38488
2.41798
2.41389
2.41103
2.40842
2.40585
2.4031
2.40017
2.39688
2.39333
2.38971
2.38613
2.38329
2.38089
2.37993
2.41354
2.4096
2.40671
2.40412
2.40146
2.39857
2.3955
2.39214
2.38865
2.38527
2.38199
2.37921
2.37692
2.37532
2.40887
2.40519
2.4027
2.40043
2.39796
2.39503
2.39194
2.3886
2.38522
2.38212
2.3792
2.37711
2.37458
2.37226
2.46584
2.46296
2.46071
2.4589
2.45745
2.45581
2.45427
2.45231
2.44985
2.44664
2.44231
2.43681
2.43062
2.42474
2.46411
2.46151
2.45892
2.45667
2.45464
2.45238
2.45012
2.44749
2.4444
2.44061
2.43598
2.43051
2.42485
2.41935
2.46173
2.45881
2.45634
2.45416
2.45203
2.44951
2.44684
2.44378
2.44041
2.43653
2.43202
2.42671
2.42134
2.41633
2.459
2.45603
2.45357
2.45138
2.44916
2.4465
2.44363
2.44038
2.43679
2.43267
2.42807
2.42285
2.41771
2.41311
2.45556
2.45269
2.45036
2.44813
2.4458
2.4431
2.44022
2.43701
2.4335
2.42942
2.4248
2.41955
2.41449
2.41004
2.4515
2.44876
2.44652
2.44431
2.44198
2.43927
2.4364
2.43324
2.42978
2.42569
2.42109
2.41593
2.41105
2.40695
2.44703
2.4444
2.44234
2.4401
2.43776
2.43507
2.43225
2.42914
2.42569
2.42163
2.41712
2.41217
2.40753
2.40409
2.44233
2.43978
2.43787
2.43563
2.4333
2.43061
2.4278
2.42468
2.42118
2.41712
2.41269
2.40806
2.40379
2.40124
2.43748
2.43489
2.43306
2.43083
2.42857
2.42591
2.42311
2.41993
2.41635
2.41231
2.40798
2.40381
2.39993
2.39838
2.43247
2.42977
2.42795
2.42574
2.42357
2.42097
2.41819
2.41499
2.41138
2.40738
2.4032
2.39945
2.39589
2.39505
2.42751
2.42458
2.42268
2.42042
2.41826
2.41566
2.41288
2.40966
2.40605
2.40216
2.39816
2.39476
2.39159
2.39089
2.4224
2.4193
2.41735
2.41508
2.41283
2.41018
2.40734
2.40412
2.40061
2.39694
2.39324
2.3901
2.38715
2.38578
2.41754
2.4145
2.41254
2.41026
2.40779
2.40493
2.40191
2.39862
2.39513
2.39166
2.38821
2.3852
2.38239
2.38035
2.41194
2.40983
2.40811
2.40607
2.40357
2.40064
2.39742
2.39402
2.39051
2.38728
2.3842
2.38151
2.37886
2.3756
2.47272
2.4701
2.46804
2.46649
2.46512
2.4636
2.4622
2.46035
2.45806
2.45491
2.45081
2.44533
2.43953
2.43305
2.47058
2.46854
2.46632
2.46457
2.46287
2.46091
2.45885
2.45619
2.45305
2.44912
2.44455
2.43899
2.43328
2.42695
2.46807
2.46575
2.46378
2.46208
2.46031
2.45814
2.45571
2.45273
2.44933
2.44526
2.44069
2.43528
2.42979
2.42405
2.46524
2.4628
2.46079
2.459
2.45711
2.45482
2.45227
2.44923
2.44577
2.4416
2.43695
2.4316
2.42621
2.421
2.4615
2.45917
2.45722
2.45533
2.45334
2.45102
2.44851
2.44561
2.44234
2.43838
2.43385
2.42859
2.42322
2.41825
2.45724
2.45504
2.45306
2.4511
2.44904
2.44672
2.44427
2.44151
2.43839
2.43459
2.43016
2.42504
2.41983
2.41513
2.4526
2.45047
2.44857
2.44656
2.44448
2.44216
2.43978
2.43712
2.43411
2.43042
2.42615
2.42123
2.41628
2.41201
2.44773
2.44561
2.44386
2.44183
2.43977
2.43744
2.43503
2.43234
2.4293
2.42565
2.42149
2.41684
2.41217
2.40864
2.44262
2.44048
2.43887
2.43689
2.4349
2.43255
2.4301
2.4273
2.42414
2.42047
2.41637
2.41213
2.40778
2.40518
2.43733
2.43514
2.43365
2.43174
2.42988
2.42755
2.42506
2.42216
2.41887
2.41514
2.41113
2.40725
2.40327
2.40146
2.43205
2.4297
2.42825
2.42634
2.42451
2.42214
2.41962
2.41663
2.41325
2.40953
2.40561
2.40209
2.39859
2.39738
2.42667
2.42428
2.42284
2.42085
2.41898
2.41652
2.41391
2.41091
2.40758
2.40404
2.40034
2.39709
2.39379
2.39242
2.42153
2.41927
2.41778
2.41569
2.4135
2.41082
2.40796
2.40484
2.40149
2.39815
2.39472
2.39179
2.38883
2.38702
2.41569
2.41459
2.41323
2.41123
2.4088
2.40587
2.40268
2.39941
2.3961
2.39304
2.38993
2.38735
2.38442
2.38136
2.4779
2.47582
2.47415
2.47286
2.47161
2.4703
2.46907
2.46741
2.46547
2.46278
2.4592
2.45412
2.44873
2.44217
2.47582
2.4742
2.47242
2.47106
2.46962
2.46801
2.4663
2.46408
2.46136
2.45773
2.45339
2.44792
2.44219
2.43537
2.47334
2.47143
2.46984
2.46844
2.46696
2.46523
2.46328
2.46077
2.45776
2.45386
2.44936
2.44392
2.4384
2.43208
2.47044
2.46838
2.46671
2.46517
2.46359
2.46174
2.45968
2.45711
2.45403
2.45006
2.44548
2.44011
2.43463
2.42877
2.46657
2.46459
2.46287
2.46123
2.45956
2.45769
2.45568
2.45324
2.45036
2.44666
2.44227
2.43712
2.43168
2.42616
2.46219
2.46032
2.45852
2.4568
2.45505
2.45317
2.45121
2.44891
2.44621
2.44276
2.43857
2.43364
2.42837
2.42321
2.45746
2.4556
2.45385
2.45211
2.45035
2.44848
2.44656
2.44436
2.44177
2.43851
2.43453
2.42988
2.42489
2.42021
2.45242
2.45058
2.44898
2.44727
2.44555
2.44369
2.44175
2.43952
2.4369
2.4337
2.42986
2.42552
2.42075
2.41662
2.44718
2.44542
2.44399
2.44235
2.44071
2.43883
2.43683
2.43444
2.43165
2.42844
2.42469
2.42069
2.41611
2.41285
2.4418
2.44008
2.43881
2.43728
2.43577
2.43388
2.4318
2.4293
2.42638
2.42304
2.4193
2.41559
2.41135
2.40884
2.43652
2.43469
2.43353
2.43202
2.43054
2.42853
2.42639
2.42372
2.42064
2.41725
2.41357
2.41007
2.40633
2.40461
2.43109
2.42933
2.4282
2.42663
2.4251
2.423
2.42075
2.41803
2.41489
2.41156
2.40803
2.40484
2.40156
2.4
2.42609
2.42433
2.42312
2.4213
2.41954
2.41723
2.41474
2.41197
2.40884
2.40566
2.40228
2.39933
2.39637
2.3949
2.42064
2.41964
2.41852
2.4167
2.41444
2.41181
2.409
2.40616
2.40315
2.40035
2.39727
2.39468
2.39152
2.38896
2.48238
2.48067
2.47944
2.4784
2.47738
2.47639
2.47552
2.47437
2.47301
2.47093
2.468
2.46355
2.45859
2.45219
2.48048
2.47913
2.47772
2.47667
2.47553
2.47431
2.47307
2.47146
2.4695
2.4666
2.46282
2.45774
2.45211
2.44526
2.47823
2.47652
2.47517
2.47404
2.47288
2.47158
2.47017
2.46831
2.46604
2.46282
2.45878
2.45361
2.44806
2.4416
2.47526
2.4735
2.47208
2.47078
2.46948
2.46804
2.46653
2.46458
2.46218
2.45884
2.45466
2.44954
2.44398
2.43802
2.47141
2.46973
2.46809
2.46673
2.4654
2.46399
2.4625
2.46058
2.45824
2.45507
2.45107
2.44624
2.44085
2.43529
2.46702
2.46539
2.4637
2.46234
2.46094
2.4595
2.45799
2.45612
2.45384
2.45086
2.44706
2.44252
2.43743
2.43224
2.46227
2.46067
2.45904
2.45769
2.45631
2.45488
2.45338
2.45152
2.4493
2.44646
2.44291
2.43868
2.43395
2.42919
2.45714
2.45566
2.45422
2.45292
2.45156
2.45011
2.44855
2.44667
2.4444
2.44159
2.43819
2.43426
2.42983
2.42547
2.45182
2.45052
2.44928
2.44805
2.44676
2.4453
2.44368
2.44167
2.43924
2.43637
2.43303
2.42936
2.42508
2.42158
2.44642
2.44523
2.4442
2.44307
2.44192
2.44035
2.43864
2.4365
2.43396
2.43102
2.42759
2.4242
2.4201
2.41742
2.4412
2.43992
2.439
2.43793
2.43687
2.43521
2.43339
2.43107
2.42829
2.42522
2.42182
2.41855
2.41481
2.41295
2.43591
2.43453
2.43379
2.43266
2.43159
2.42988
2.42792
2.42553
2.42262
2.41946
2.41606
2.41299
2.40974
2.40829
2.43081
2.42937
2.42863
2.42726
2.42607
2.42422
2.42203
2.41961
2.4167
2.41361
2.41026
2.40724
2.40413
2.40308
2.42558
2.4245
2.42399
2.42252
2.42076
2.41862
2.41609
2.41357
2.41066
2.40784
2.40477
2.40223
2.39908
2.39686
2.48745
2.48562
2.48448
2.48348
2.4825
2.48171
2.48116
2.4805
2.47969
2.47835
2.47632
2.47291
2.46862
2.46279
2.48567
2.48422
2.48286
2.48182
2.48083
2.47991
2.47908
2.47812
2.47692
2.47496
2.47218
2.46806
2.46312
2.45679
2.48353
2.48185
2.48053
2.47939
2.47842
2.47748
2.4766
2.47548
2.47405
2.47181
2.46874
2.46437
2.45928
2.45296
2.48032
2.47882
2.47745
2.4763
2.4753
2.4743
2.47335
2.4721
2.47049
2.46804
2.46474
2.46022
2.45501
2.44905
2.47672
2.47534
2.4738
2.47267
2.47165
2.47066
2.4697
2.46841
2.46674
2.46425
2.46094
2.45658
2.45152
2.44595
2.47244
2.47116
2.46967
2.4686
2.46758
2.46659
2.46555
2.46418
2.46243
2.45995
2.4567
2.45258
2.44781
2.44269
2.46789
2.46672
2.46535
2.46435
2.46334
2.46233
2.4612
2.45976
2.45798
2.45556
2.45245
2.44865
2.44423
2.43962
2.463
2.46205
2.4609
2.45998
2.45896
2.45788
2.45663
2.45507
2.45318
2.45077
2.44774
2.44426
2.44017
2.43597
2.45794
2.45724
2.45633
2.45546
2.45453
2.4534
2.45205
2.45026
2.44815
2.44569
2.44269
2.43942
2.43566
2.43214
2.45282
2.45231
2.45169
2.45091
2.45
2.44869
2.44723
2.44527
2.44293
2.44033
2.43722
2.43432
2.43058
2.42791
2.44799
2.44728
2.44685
2.44614
2.44531
2.44392
2.44223
2.44005
2.4374
2.43461
2.4314
2.42851
2.42496
2.42328
2.44285
2.4421
2.44199
2.4412
2.44038
2.43896
2.43704
2.43474
2.43185
2.42884
2.42554
2.42268
2.41945
2.41836
2.43767
2.43662
2.4368
2.43609
2.43512
2.43364
2.43145
2.42907
2.42606
2.42297
2.41962
2.41656
2.41332
2.4125
2.4322
2.43168
2.43208
2.4312
2.42984
2.42815
2.42565
2.42313
2.41998
2.41694
2.41368
2.41094
2.40788
2.40562
2.45034
2.46469
2.47617
2.48567
2.49487
2.50072
2.44017
2.45161
2.46059
2.46944
2.47992
2.48229
2.43981
2.45038
2.45766
2.4644
2.47195
2.47129
2.43725
2.44659
2.45228
2.45759
2.4657
2.46768
2.43553
2.44379
2.44862
2.45336
2.46355
2.47225
2.43176
2.43847
2.44269
2.44793
2.461
2.48111
2.42847
2.4338
2.4372
2.44292
2.45845
2.48808
2.42453
2.42946
2.43284
2.43899
2.45755
2.48979
2.4206
2.42533
2.43028
2.43761
2.46036
2.49204
2.4167
2.42094
2.42881
2.43633
2.46278
2.48925
2.41471
2.41746
2.42789
2.43716
2.46288
2.48054
2.41259
2.41427
2.42403
2.43278
2.45448
2.46628
2.41567
2.41544
2.42202
2.42752
2.44204
2.44777
2.4033
2.39862
2.40378
2.41268
2.42365
2.42904
2.45386
2.46752
2.4811
2.49526
2.50347
2.50935
2.44724
2.45862
2.47043
2.48212
2.49048
2.49772
2.44689
2.45888
2.46996
2.47873
2.48375
2.48807
2.44361
2.45547
2.46487
2.47185
2.47749
2.48321
2.44243
2.45362
2.46225
2.46853
2.47517
2.48535
2.44004
2.44999
2.45753
2.46391
2.47307
2.48983
2.43797
2.44668
2.45342
2.4603
2.47284
2.49478
2.43507
2.44282
2.44943
2.45682
2.47168
2.49413
2.43132
2.43832
2.44562
2.45488
2.47144
2.49727
2.42687
2.43329
2.44221
2.45313
2.4735
2.4974
2.42332
2.42893
2.43986
2.45258
2.47422
2.49323
2.42007
2.42476
2.43685
2.44919
2.468
2.4817
2.42097
2.42494
2.43532
2.44353
2.45541
2.46575
2.4107
2.41106
2.4185
2.42559
2.43485
2.44278
2.45581
2.46562
2.47966
2.49536
2.50752
2.51595
2.452
2.46116
2.47373
2.48844
2.5009
2.50996
2.45191
2.46241
2.47579
2.48861
2.4973
2.5046
2.44994
2.46094
2.47364
2.48449
2.49181
2.50027
2.4491
2.46024
2.47198
2.48154
2.4886
2.49871
2.44756
2.45858
2.4691
2.4779
2.48639
2.49971
2.44618
2.45659
2.46596
2.47459
2.48543
2.50171
2.44389
2.45333
2.46195
2.47078
2.48305
2.50217
2.44058
2.44868
2.45667
2.46573
2.47946
2.50018
2.436
2.44256
2.45045
2.46022
2.47585
2.4985
2.43103
2.43639
2.44486
2.45571
2.47468
2.49513
2.42626
2.43085
2.44099
2.45285
2.47193
2.48758
2.42417
2.42801
2.43999
2.45113
2.46616
2.47606
2.41563
2.41838
2.42944
2.43844
2.44861
2.45683
2.461
2.46544
2.47292
2.48478
2.49809
2.50874
2.45871
2.46352
2.47166
2.48399
2.49744
2.50729
2.45714
2.46322
2.47288
2.48548
2.49674
2.50534
2.45532
2.46223
2.47267
2.48517
2.49566
2.50344
2.45443
2.46255
2.47338
2.48521
2.49433
2.5027
2.45341
2.46233
2.47296
2.48345
2.49209
2.50264
2.45252
2.4619
2.47188
2.48114
2.48979
2.5017
2.45095
2.46017
2.46917
2.47754
2.48671
2.49983
2.44846
2.45677
2.46471
2.47227
2.48159
2.49565
2.44447
2.45135
2.45821
2.46551
2.4745
2.49093
2.43924
2.44447
2.45053
2.45763
2.46944
2.48727
2.43336
2.43676
2.44303
2.45139
2.46592
2.48287
2.42803
2.42977
2.43772
2.44765