/*--------------------------------*- C++ -*----------------------------------*\
| =========                 |                                                 |
| \\      /  F ield         | OpenFOAM: The Open Source CFD Toolbox           |
|  \\    /   O peration     | Version:  v2106                                 |
|   \\  /    A nd           | Website:  www.openfoam.com                      |
|    \\/     M anipulation  |                                                 |
\*---------------------------------------------------------------------------*/
FoamFile
{
    version     2.0;
    format      ascii;
    arch        "LSB;label=32;scalar=64";
    class       volScalarField;
    location    "0.000183";
    object      T;
}
// * * * * * * * * * * * * * * * * * * * * * * * * * * * * * * * * * * * * * //

dimensions      [0 0 0 1 0 0 0];

internalField   nonuniform List<scalar> 
144746
(
289.063
289.169
289.185
289.329
289.683
290.02
290.322
290.49
290.564
290.42
290.168
289.914
289.685
289.875
289.072
289.234
289.385
289.621
289.938
290.175
290.408
290.511
290.569
290.468
290.223
289.972
289.785
289.917
289.35
289.568
289.849
290.097
290.339
290.481
290.617
290.655
290.68
290.589
290.339
290.021
289.699
289.647
289.714
290.011
290.348
290.579
290.753
290.836
290.892
290.88
290.861
290.727
290.457
290.094
289.719
289.475
290.115
290.464
290.799
291.026
291.122
291.162
291.159
291.127
291.067
290.89
290.603
290.204
289.774
289.451
290.408
290.775
291.098
291.286
291.364
291.383
291.37
291.337
291.252
291.051
290.721
290.299
289.86
289.488
290.564
290.934
291.251
291.438
291.505
291.516
291.511
291.487
291.393
291.178
290.821
290.398
289.962
289.539
290.615
290.993
291.321
291.494
291.565
291.588
291.597
291.574
291.464
291.226
290.85
290.395
289.924
289.488
290.464
290.858
291.205
291.428
291.548
291.605
291.629
291.6
291.47
291.209
290.826
290.377
289.898
289.433
290.147
290.565
290.974
291.28
291.462
291.551
291.577
291.531
291.37
291.069
290.66
290.192
289.667
289.201
289.733
290.106
290.575
291.003
291.265
291.395
291.431
291.36
291.149
290.787
290.324
289.817
289.309
288.883
289.407
289.587
290.075
290.565
290.91
291.105
291.167
291.078
290.82
290.394
289.887
289.381
288.99
288.682
289.224
289.176
289.54
289.992
290.373
290.612
290.701
290.598
290.309
289.853
289.358
288.934
288.741
288.492
289.151
288.913
289.149
289.443
289.798
290
290.14
290.037
289.789
289.424
289.089
288.947
289.059
288.936
288.87
288.988
289.032
289.194
289.533
289.9
290.264
290.487
290.551
290.431
290.084
289.633
289.144
289.072
289.074
289.272
289.447
289.683
289.996
290.295
290.587
290.711
290.706
290.552
290.123
289.669
289.184
288.977
289.645
289.865
290.114
290.358
290.622
290.827
290.986
291.019
290.929
290.723
290.263
289.758
289.139
288.769
290.272
290.494
290.726
290.941
291.114
291.236
291.302
291.278
291.144
290.898
290.414
289.847
289.18
288.68
290.721
290.93
291.12
291.299
291.428
291.489
291.505
291.448
291.299
291.027
290.563
289.975
289.308
288.788
290.911
291.123
291.309
291.47
291.581
291.611
291.606
291.527
291.387
291.107
290.682
290.131
289.515
289.011
290.887
291.142
291.362
291.541
291.646
291.668
291.645
291.557
291.402
291.123
290.733
290.242
289.709
289.252
290.733
291.059
291.345
291.569
291.675
291.685
291.656
291.562
291.402
291.128
290.755
290.291
289.811
289.411
290.409
290.835
291.248
291.519
291.637
291.656
291.629
291.53
291.356
291.065
290.694
290.251
289.815
289.473
290.018
290.549
291.074
291.396
291.54
291.578
291.548
291.421
291.229
290.904
290.513
290.092
289.685
289.368
289.572
290.134
290.751
291.164
291.366
291.419
291.389
291.216
290.993
290.606
290.17
289.736
289.347
289.082
289.248
289.698
290.343
290.789
291.061
291.136
291.096
290.9
290.601
290.154
289.701
289.287
288.936
288.737
289.021
289.263
289.816
290.297
290.6
290.687
290.604
290.38
289.979
289.496
289.04
288.694
288.469
288.29
288.834
288.885
289.33
289.744
290.034
290.122
290.009
289.761
289.301
288.843
288.468
288.312
288.357
288.264
290.363
290.315
290.265
290.326
290.519
290.724
291.006
291.152
291.161
290.893
290.29
289.412
288.648
288.227
290.86
291.059
291.1
291.173
291.307
291.409
291.538
291.562
291.478
291.126
290.445
289.558
288.765
288.159
291.587
291.831
291.916
291.941
291.983
291.985
291.992
291.91
291.724
291.306
290.613
289.692
288.746
288.017
292.195
292.348
292.386
292.4
292.367
292.313
292.244
292.101
291.867
291.419
290.721
289.775
288.771
287.941
292.491
292.601
292.611
292.582
292.513
292.415
292.306
292.139
291.898
291.455
290.793
289.879
288.887
288.052
292.556
292.645
292.646
292.611
292.521
292.397
292.27
292.098
291.851
291.418
290.779
289.943
289.061
288.301
292.48
292.596
292.614
292.572
292.464
292.323
292.178
292.006
291.758
291.364
290.769
290.025
289.259
288.6
292.278
292.474
292.527
292.491
292.378
292.228
292.068
291.889
291.634
291.256
290.707
290.056
289.403
288.851
291.919
292.239
292.378
292.369
292.272
292.123
291.957
291.767
291.503
291.132
290.625
290.052
289.466
288.968
291.518
291.944
292.152
292.188
292.126
291.999
291.833
291.626
291.345
290.967
290.493
289.975
289.442
288.954
291.078
291.578
291.893
291.956
291.897
291.77
291.589
291.362
291.057
290.671
290.206
289.714
289.216
288.758
290.703
291.181
291.552
291.632
291.59
291.476
291.261
290.956
290.605
290.188
289.726
289.269
288.795
288.356
290.37
290.765
291.128
291.224
291.186
291.048
290.781
290.389
289.944
289.449
288.988
288.58
288.227
287.819
290.096
290.238
290.528
290.663
290.649
290.486
290.134
289.647
289.14
288.622
288.23
287.991
287.842
287.63
290.653
291.432
292.004
292.978
293.748
294.553
289.657
290.331
290.864
292.067
292.908
294.116
289.514
289.94
290.122
291.072
291.764
293.089
289.259
289.497
289.475
290.117
290.415
291.701
289.168
289.222
289.064
289.416
289.259
290.515
289.116
288.957
288.633
288.835
288.52
289.699
289.048
288.766
288.419
288.616
288.231
289.356
288.999
288.691
288.348
288.522
288.18
289.156
288.935
288.69
288.471
288.69
288.522
289.438
288.817
288.716
288.68
289.067
289.319
290.274
288.692
288.763
289.024
289.754
290.501
291.753
288.654
288.832
289.423
290.558
291.684
293.017
288.803
289.209
290.004
291.255
292.481
293.592
288.933
289.356
290.327
291.664
292.823
293.797
289.549
290.348
290.89
291.842
292.594
293.57
288.542
289.155
289.761
291.03
291.772
293.17
288.462
288.786
289.059
290.107
290.637
292.199
288.352
288.488
288.499
289.203
289.347
290.892
288.462
288.397
288.193
288.562
288.257
289.893
288.616
288.361
287.995
288.067
287.645
288.82
288.827
288.501
288.023
287.85
287.317
288.309
289.01
288.672
288.123
287.815
287.272
288.117
289.099
288.799
288.323
288.037
287.506
288.289
289.045
288.815
288.489
288.402
288.081
288.97
288.872
288.771
288.684
288.926
289.038
290.102
288.605
288.633
288.763
289.399
289.89
291.246
288.362
288.473
288.907
289.871
290.65
291.954
287.936
288.078
288.708
289.899
290.942
292.008
288.6
289.179
289.55
290.329
291.455
292.582
287.542
287.867
288.289
289.394
290.61
292.277
287.499
287.614
287.863
288.658
289.432
291.032
287.368
287.287
287.381
287.914
288.139
289.384
287.503
287.222
287.121
287.383
287.128
288.057
287.76
287.309
286.995
286.894
286.358
286.874
288.067
287.567
287.058
286.595
285.838
285.956
288.349
287.822
287.154
286.382
285.4
285.291
288.508
287.981
287.254
286.384
285.403
285.126
288.487
287.937
287.223
286.401
285.488
285.556
288.32
287.802
287.208
286.739
286.242
286.811
287.957
287.547
287.219
287.223
287.209
288.228
287.583
287.336
287.302
287.703
288.339
289.614
286.965
286.694
286.933
287.75
288.963
290.093
289.488
290.243
290.699
291.699
292.559
293.513
288.699
289.278
289.53
290.621
291.404
292.644
288.761
289.088
288.941
289.651
290.033
291.301
288.738
288.809
288.499
288.862
288.755
289.934
288.908
288.613
288.142
288.28
287.884
289.076
289.089
288.458
287.801
287.765
287.258
288.471
289.226
288.446
287.681
287.522
287.004
288.17
289.292
288.448
287.615
287.417
286.93
287.916
289.176
288.462
287.739
287.548
287.036
287.941
289.086
288.512
287.962
287.835
287.385
288.167
288.947
288.619
288.311
288.294
288.021
288.787
288.898
288.762
288.628
288.751
288.809
289.582
288.937
288.879
288.938
289.292
289.685
290.432
288.762
288.816
289.079
289.741
290.385
291.062
288.481
289.07
289.335
290.115
290.813
291.871
287.749
288.086
288.242
289.235
289.84
291.276
287.822
287.855
287.747
288.488
288.752
290.242
287.903
287.693
287.436
287.884
287.752
289.127
288.178
287.719
287.339
287.523
287.101
288.408
288.542
287.869
287.3
287.192
286.567
287.816
288.986
288.186
287.389
287.039
286.345
287.402
289.235
288.441
287.514
287.015
286.328
287.05
289.376
288.597
287.651
287.133
286.412
286.972
289.329
288.639
287.803
287.304
286.615
287.129
289.136
288.591
287.965
287.636
287.064
287.835
288.88
288.523
288.16
288.084
287.727
288.603
288.725
288.566
288.468
288.666
288.625
289.534
288.337
288.236
288.42
289.061
289.414
289.786
287.759
287.998
288.056
288.557
289.443
290.568
287.049
287.082
287.046
287.738
288.641
290.249
287.254
287.019
286.924
287.436
287.911
289.443
287.423
287.038
286.963
287.286
287.229
288.447
287.79
287.242
287.053
287.181
286.788
287.774
288.313
287.634
287.225
287.039
286.373
287.114
288.9
288.186
287.525
286.947
286.079
286.553
289.437
288.684
287.845
286.914
285.828
285.991
289.837
289.076
288.024
286.931
285.788
285.833
289.995
289.237
288.12
287.022
285.835
285.906
290.006
289.247
288.223
287.295
286.285
286.639
289.891
289.197
288.424
287.798
287.123
287.83
289.732
289.182
288.675
288.405
288.141
289.129
289.261
288.838
288.61
288.829
289.004
289.486
291.609
290.989
290.303
289.592
289.014
288.91
290.853
290.095
289.75
289.485
289.271
289.303
290.249
289.415
289.395
289.213
289.183
289.27
289.892
289.136
289.248
289.14
289.253
289.438
290.127
288.96
289.234
289.135
289.433
289.705
290.308
289.231
289.488
289.354
289.716
289.988
290.843
289.574
289.74
289.6
289.868
290.143
291.575
290.039
290.062
289.77
289.978
290.232
292.026
290.485
290.181
289.709
289.867
290.097
292.218
290.776
290.161
289.539
289.659
289.826
292.3
290.854
290.067
289.311
289.42
289.439
292.258
290.886
290.046
289.191
289.308
289.133
292.028
290.804
289.924
289.039
289.103
288.771
291.642
290.888
290.184
289.613
289.73
289.372
290.637
290.347
289.79
289.119
288.603
288.576
290.185
289.267
289.237
289.136
289.075
289.163
289.466
288.657
288.96
288.968
289.188
289.45
288.966
288.447
288.91
289.141
289.574
289.967
289.028
288.596
289.066
289.433
289.994
290.391
289.442
288.978
289.499
289.839
290.325
290.628
290.125
289.542
289.875
289.947
290.288
290.598
290.828
290.09
290.187
290.044
290.225
290.445
291.43
290.168
290.035
289.77
289.878
290.086
291.667
290.379
289.902
289.407
289.458
289.652
291.753
290.348
289.72
289.052
289.062
289.204
291.621
290.249
289.643
288.856
288.824
288.838
291.284
290.03
289.418
288.664
288.606
288.494
290.744
290.091
289.639
289.232
289.267
288.971
289.631
289.523
289.451
289.257
289.342
289.819
289.08
288.408
289.05
289.633
290.145
290.626
287.633
287.924
288.838
289.825
290.603
291.22
287.029
287.878
288.959
290.35
291.236
291.879
287.082
288.089
289.37
290.847
291.674
292.203
287.695
288.854
290.048
291.261
291.905
292.312
288.536
289.644
290.48
291.312
291.825
292.223
289.595
290.279
290.685
291.173
291.52
291.941
290.585
290.672
290.65
290.787
291.028
291.464
291.372
290.831
290.372
290.223
290.428
290.946
291.789
290.766
289.991
289.664
289.852
290.368
291.683
290.524
289.748
289.315
289.507
289.913
291.309
290.125
289.473
289.064
289.308
289.54
290.56
290.019
289.71
289.645
289.893
290.058
294.509
293.76
292.852
291.735
290.728
290.154
294.161
293.205
292.328
291.419
290.624
290.229
293.358
292.303
291.707
291.051
290.471
290.171
292.334
291.416
291.274
290.818
290.492
290.282
292.089
290.704
290.862
290.563
290.477
290.386
291.768
290.828
290.867
290.537
290.578
290.52
291.999
290.945
290.843
290.465
290.539
290.467
292.586
291.403
290.902
290.362
290.393
290.285
293.265
291.856
290.974
290.148
290.058
289.952
293.808
291.901
290.997
289.968
289.727
289.558
293.683
292.07
291.006
289.802
289.456
289.162
293.527
292.14
291.102
289.88
289.473
288.993
293.191
292.02
290.99
289.784
289.261
288.702
292.555
291.833
291.075
290.33
290.069
289.555
293.441
292.529
291.577
290.314
289.377
289.088
293.1
291.953
291.159
290.292
289.73
289.493
292.069
290.968
290.577
290.065
289.84
289.738
291.048
290.207
290.337
290.108
290.102
290.098
290.583
289.985
290.27
290.176
290.294
290.32
290.735
290.105
290.385
290.362
290.453
290.461
291.142
290.456
290.615
290.448
290.407
290.37
292.009
291.043
290.822
290.349
290.177
290.101
292.85
291.584
290.941
290.081
289.799
289.733
293.675
291.574
290.915
289.819
289.376
289.309
293.454
291.785
290.851
289.597
289.079
288.917
293.279
291.803
290.868
289.603
289.043
288.725
292.825
291.586
290.633
289.455
288.903
288.495
291.951
291.242
290.611
289.999
289.785
289.276
291.879
290.898
289.597
288.54
287.931
288.045
291.065
289.997
289.486
289.052
288.813
288.852
289.308
288.895
289.08
289.206
289.276
289.405
288.112
288.51
289.138
289.667
289.903
290.166
287.713
288.561
289.343
290.071
290.34
290.667
288.174
288.955
289.741
290.43
290.623
290.916
289.022
289.637
290.163
290.551
290.641
290.863
290.263
290.443
290.443
290.387
290.436
290.636
291.836
291.135
290.491
290.087
290.037
290.236
292.781
291.701
290.521
289.769
289.638
289.91
293.197
291.895
290.479
289.566
289.388
289.647
293.177
291.806
290.442
289.58
289.442
289.6
292.594
291.335
290.207
289.477
289.448
289.541
291.297
290.869
290.389
290.227
290.349
290.355
292.457
292.436
292.395
292.294
292.268
292.227
292.245
292.228
292.172
291.947
291.436
290.568
289.61
288.886
292.905
293.052
293.021
292.966
292.919
292.819
292.738
292.628
292.481
292.201
291.673
290.856
289.87
288.806
293.258
293.408
293.411
293.364
293.267
293.138
293.019
292.874
292.687
292.377
291.85
291.033
289.961
288.797
293.483
293.553
293.544
293.474
293.352
293.211
293.081
292.932
292.743
292.431
291.911
291.079
290.013
288.813
293.539
293.562
293.533
293.435
293.295
293.146
293.016
292.878
292.703
292.403
291.89
291.084
290.079
288.954
293.504
293.522
293.467
293.33
293.163
292.997
292.864
292.736
292.576
292.295
291.793
291.03
290.077
289.065
293.409
293.427
293.358
293.194
293.004
292.822
292.681
292.555
292.4
292.132
291.643
290.942
290.094
289.209
293.265
293.303
293.233
293.06
292.859
292.666
292.513
292.377
292.209
291.935
291.45
290.803
290.046
289.276
293.061
293.144
293.092
292.937
292.743
292.552
292.388
292.236
292.045
291.753
291.275
290.669
289.985
289.301
292.827
292.957
292.932
292.813
292.636
292.456
292.284
292.11
291.89
291.573
291.107
290.53
289.899
289.269
292.54
292.736
292.749
292.664
292.509
292.342
292.156
291.955
291.699
291.363
290.912
290.361
289.758
289.129
292.235
292.423
292.452
292.384
292.253
292.097
291.905
291.675
291.383
291.028
290.585
290.071
289.482
288.8
291.914
292.041
292.077
292.018
291.888
291.716
291.488
291.212
290.873
290.49
290.03
289.529
289.008
288.326
291.405
291.496
291.54
291.504
291.392
291.201
290.914
290.569
290.163
289.734
289.281
288.859
288.46
288.009
294.065
294.028
293.939
293.806
293.696
293.533
293.384
293.246
293.12
292.957
292.663
292.073
291.243
290.33
294.292
294.34
294.278
294.177
294.033
293.852
293.68
293.507
293.336
293.126
292.819
292.285
291.448
290.25
294.371
294.408
294.352
294.241
294.094
293.929
293.764
293.599
293.432
293.226
292.925
292.39
291.505
290.287
294.361
294.359
294.29
294.165
294.013
293.85
293.699
293.553
293.404
293.21
292.916
292.385
291.494
290.305
294.3
294.265
294.168
294.012
293.839
293.674
293.537
293.415
293.295
293.127
292.851
292.332
291.477
290.343
294.199
294.146
294.016
293.822
293.625
293.452
293.32
293.212
293.112
292.964
292.702
292.191
291.378
290.321
294.074
294.007
293.857
293.638
293.418
293.231
293.096
292.993
292.902
292.758
292.497
291.985
291.22
290.275
293.927
293.863
293.703
293.471
293.241
293.046
292.905
292.797
292.697
292.54
292.254
291.738
291.013
290.165
293.762
293.708
293.555
293.329
293.102
292.908
292.761
292.643
292.525
292.344
292.026
291.509
290.825
290.069
293.58
293.541
293.405
293.204
292.996
292.813
292.664
292.533
292.39
292.186
291.837
291.325
290.672
289.986
293.37
293.346
293.236
293.069
292.89
292.728
292.584
292.444
292.278
292.045
291.673
291.183
290.557
289.897
293.125
293.093
292.992
292.862
292.719
292.59
292.461
292.315
292.12
291.851
291.482
291.002
290.394
289.685
292.821
292.775
292.678
292.554
292.431
292.31
292.182
292.026
291.797
291.494
291.106
290.632
290.041
289.264
292.311
292.297
292.201
292.092
291.981
291.858
291.711
291.521
291.236
290.884
290.446
290.008
289.538
288.917
295.161
295.117
295.053
294.942
294.8
294.606
294.396
294.171
293.969
293.786
293.59
293.287
292.81
292.08
295.177
295.154
295.095
294.985
294.848
294.668
294.469
294.258
294.055
293.861
293.661
293.381
292.89
292.004
295.126
295.084
295.003
294.88
294.742
294.583
294.418
294.241
294.071
293.901
293.712
293.432
292.901
291.97
295.036
294.966
294.853
294.7
294.545
294.391
294.248
294.11
293.975
293.833
293.666
293.393
292.855
291.917
294.931
294.832
294.674
294.481
294.305
294.146
294.015
293.902
293.799
293.693
293.554
293.297
292.761
291.858
294.8
294.674
294.486
294.264
294.065
293.895
293.763
293.659
293.573
293.489
293.365
293.116
292.574
291.717
294.653
294.511
294.298
294.054
293.84
293.662
293.529
293.428
293.347
293.269
293.138
292.874
292.322
291.507
294.492
294.341
294.117
293.865
293.644
293.462
293.325
293.223
293.138
293.048
292.89
292.584
292.017
291.239
294.313
294.166
293.945
293.698
293.48
293.298
293.16
293.052
292.956
292.843
292.646
292.295
291.713
290.989
294.116
293.982
293.777
293.551
293.348
293.174
293.035
292.918
292.806
292.663
292.423
292.04
291.453
290.781
293.899
293.783
293.604
293.412
293.237
293.083
292.95
292.825
292.691
292.516
292.242
291.845
291.27
290.628
293.646
293.534
293.381
293.231
293.098
292.98
292.869
292.746
292.59
292.383
292.084
291.693
291.145
290.479
293.35
293.25
293.111
292.994
292.901
292.817
292.727
292.604
292.423
292.178
291.85
291.457
290.938
290.255
292.908
292.795
292.669
292.575
292.504
292.443
292.375
292.259
292.059
291.777
291.418
291.028
290.577
290
295.795
295.725
295.665
295.579
295.484
295.332
295.138
294.909
294.677
294.455
294.253
294.052
293.805
293.316
295.749
295.674
295.594
295.495
295.392
295.252
295.086
294.882
294.66
294.436
294.228
294.036
293.785
293.232
295.638
295.548
295.437
295.313
295.195
295.062
294.923
294.763
294.588
294.406
294.231
294.049
293.776
293.205
295.525
295.41
295.258
295.095
294.952
294.813
294.684
294.552
294.415
294.274
294.14
293.978
293.71
293.142
295.399
295.255
295.066
294.867
294.697
294.547
294.419
294.301
294.193
294.089
293.991
293.854
293.597
293.035
295.255
295.087
294.868
294.646
294.46
294.299
294.165
294.049
293.951
293.866
293.792
293.669
293.406
292.838
295.087
294.897
294.664
294.431
294.239
294.074
293.937
293.822
293.727
293.649
293.578
293.446
293.141
292.57
294.896
294.694
294.46
294.227
294.035
293.868
293.731
293.615
293.52
293.438
293.348
293.186
292.816
292.234
294.684
294.483
294.26
294.035
293.847
293.68
293.541
293.423
293.325
293.232
293.11
292.907
292.471
291.884
294.449
294.266
294.067
293.862
293.683
293.519
293.379
293.255
293.146
293.033
292.871
292.623
292.14
291.569
294.197
294.045
293.878
293.704
293.546
293.392
293.252
293.118
292.99
292.849
292.648
292.363
291.874
291.325
293.912
293.791
293.662
293.532
293.41
293.285
293.16
293.023
292.872
292.697
292.459
292.145
291.686
291.15
293.593
293.509
293.406
293.321
293.247
293.164
293.063
292.929
292.757
292.545
292.271
291.936
291.528
291.006
293.217
293.11
293.025
292.975
292.943
292.899
292.837
292.73
292.56
292.327
292.023
291.696
291.293
290.787
296.201
296.13
296.079
296.03
295.975
295.872
295.732
295.541
295.307
295.052
294.802
294.579
294.362
294.061
296.118
296.044
295.958
295.881
295.809
295.714
295.597
295.432
295.219
294.972
294.724
294.503
294.302
293.985
296.004
295.897
295.779
295.669
295.572
295.47
295.363
295.225
295.054
294.856
294.658
294.469
294.291
293.993
295.893
295.758
295.595
295.442
295.313
295.193
295.082
294.957
294.816
294.66
294.512
294.37
294.222
293.931
295.764
295.6
295.404
295.219
295.065
294.93
294.81
294.687
294.566
294.447
294.344
294.241
294.118
293.813
295.606
295.413
295.196
294.999
294.837
294.693
294.563
294.436
294.32
294.219
294.144
294.066
293.95
293.622
295.412
295.2
294.979
294.779
294.618
294.472
294.338
294.21
294.097
294.005
293.94
293.864
293.72
293.361
295.187
294.969
294.757
294.562
294.403
294.256
294.12
293.992
293.882
293.793
293.723
293.631
293.429
293.037
294.941
294.731
294.536
294.349
294.193
294.042
293.904
293.776
293.667
293.577
293.492
293.374
293.095
292.678
294.682
294.496
294.327
294.154
294.001
293.846
293.702
293.57
293.457
293.359
293.249
293.096
292.745
292.299
294.419
294.265
294.132
293.98
293.836
293.68
293.531
293.387
293.258
293.137
292.994
292.8
292.414
291.957
294.133
294.019
293.928
293.812
293.695
293.555
293.408
293.255
293.103
292.949
292.765
292.527
292.147
291.701
293.827
293.752
293.695
293.626
293.549
293.444
293.316
293.162
292.988
292.796
292.565
292.286
291.931
291.527
293.467
293.402
293.363
293.342
293.319
293.273
293.189
293.061
292.882
292.667
292.401
292.095
291.738
291.291
296.492
296.42
296.379
296.361
296.341
296.285
296.199
296.054
295.851
295.59
295.307
295.024
294.796
294.548
296.386
296.319
296.239
296.184
296.135
296.073
295.997
295.87
295.69
295.446
295.17
294.892
294.672
294.439
296.281
296.173
296.061
295.965
295.886
295.806
295.725
295.611
295.459
295.257
295.034
294.81
294.638
294.453
296.183
296.037
295.881
295.745
295.634
295.533
295.438
295.323
295.186
295.016
294.842
294.679
294.554
294.405
296.048
295.871
295.688
295.53
295.402
295.288
295.179
295.06
294.931
294.789
294.66
294.549
294.459
294.321
295.877
295.673
295.473
295.31
295.179
295.058
294.943
294.817
294.689
294.563
294.461
294.382
294.312
294.167
295.66
295.441
295.243
295.083
294.957
294.837
294.719
294.592
294.468
294.354
294.27
294.201
294.125
293.955
295.409
295.191
295.007
294.853
294.73
294.61
294.489
294.363
294.244
294.14
294.063
293.99
293.878
293.671
295.14
294.937
294.773
294.625
294.503
294.376
294.251
294.124
294.01
293.914
293.835
293.752
293.583
293.329
294.871
294.693
294.554
294.414
294.29
294.152
294.018
293.887
293.773
293.678
293.589
293.485
293.25
292.94
294.61
294.463
294.354
294.225
294.101
293.952
293.805
293.662
293.537
293.428
293.316
293.18
292.895
292.55
294.339
294.231
294.16
294.055
293.945
293.8
293.648
293.491
293.344
293.21
293.059
292.876
292.558
292.202
294.053
293.983
293.948
293.882
293.801
293.68
293.535
293.37
293.197
293.023
292.822
292.59
292.269
291.931
293.699
293.664
293.661
293.651
293.625
293.553
293.437
293.288
293.106
292.905
292.657
292.384
292.042
291.663
296.7
296.639
296.609
296.604
296.596
296.572
296.531
296.437
296.285
296.061
295.785
295.479
295.23
294.988
296.603
296.54
296.466
296.42
296.38
296.342
296.299
296.217
296.083
295.871
295.606
295.307
295.054
294.811
296.514
296.407
296.301
296.212
296.142
296.082
296.024
295.939
295.819
295.637
295.414
295.166
294.964
294.775
296.421
296.273
296.129
296.009
295.914
295.832
295.754
295.657
295.535
295.37
295.183
294.991
294.843
294.704
296.279
296.1
295.933
295.8
295.696
295.604
295.515
295.409
295.285
295.135
294.983
294.843
294.74
294.635
296.09
295.89
295.713
295.581
295.478
295.384
295.289
295.176
295.049
294.911
294.783
294.68
294.605
294.515
295.855
295.645
295.475
295.352
295.257
295.165
295.069
294.954
294.829
294.703
294.596
294.515
294.45
294.357
295.587
295.385
295.231
295.115
295.026
294.936
294.838
294.724
294.603
294.489
294.395
294.325
294.245
294.13
295.312
295.13
294.994
294.884
294.794
294.697
294.594
294.478
294.362
294.26
294.174
294.106
293.988
293.845
295.046
294.889
294.775
294.668
294.572
294.461
294.347
294.229
294.118
294.021
293.933
293.853
293.688
293.494
294.799
294.666
294.579
294.477
294.371
294.239
294.111
293.979
293.86
293.759
293.659
293.55
293.339
293.097
294.54
294.45
294.394
294.307
294.205
294.068
293.927
293.779
293.639
293.516
293.387
293.241
292.989
292.707
294.282
294.22
294.199
294.137
294.06
293.938
293.796
293.637
293.47
293.31
293.131
292.933
292.653
292.372
293.955
293.935
293.949
293.941
293.904
293.821
293.7
293.553
293.374
293.187
292.959
292.714
292.389
292.069
296.893
296.834
296.811
296.81
296.81
296.803
296.791
296.743
296.653
296.493
296.265
295.977
295.719
295.467
296.81
296.747
296.678
296.637
296.604
296.579
296.558
296.512
296.431
296.279
296.061
295.783
295.515
295.246
296.739
296.629
296.53
296.451
296.392
296.346
296.307
296.25
296.168
296.027
295.836
295.595
295.365
295.14
296.643
296.499
296.37
296.267
296.187
296.122
296.064
295.99
295.895
295.755
295.579
295.379
295.194
295.033
296.493
296.323
296.171
296.063
295.982
295.913
295.846
295.759
295.652
295.514
295.359
295.201
295.066
294.959
296.29
296.105
295.949
295.85
295.773
295.704
295.631
295.534
295.418
295.284
295.145
295.022
294.927
294.851
296.044
295.859
295.713
295.625
295.557
295.492
295.417
295.316
295.198
295.071
294.952
294.856
294.786
294.722
295.77
295.599
295.472
295.393
295.33
295.265
295.186
295.085
294.969
294.851
294.748
294.671
294.607
294.534
295.496
295.347
295.238
295.162
295.097
295.026
294.943
294.841
294.729
294.621
294.528
294.458
294.375
294.299
295.233
295.109
295.022
294.946
294.873
294.782
294.688
294.585
294.48
294.382
294.288
294.216
294.098
293.996
294.991
294.892
294.828
294.752
294.667
294.554
294.445
294.33
294.218
294.116
294.017
293.926
293.765
293.616
294.744
294.68
294.648
294.579
294.493
294.37
294.243
294.113
293.982
293.861
293.74
293.618
293.416
293.21
294.495
294.457
294.457
294.404
294.339
294.228
294.094
293.949
293.791
293.639
293.475
293.303
293.055
292.833
294.195
294.193
294.232
294.22
294.185
294.107
293.985
293.839
293.66
293.479
293.273
293.062
292.776
292.505
297.133
297.056
297.024
297.007
296.995
296.993
296.999
296.986
296.946
296.852
296.695
296.469
296.231
295.981
297.06
296.98
296.905
296.853
296.818
296.8
296.792
296.776
296.74
296.65
296.501
296.283
296.045
295.779
296.992
296.876
296.777
296.697
296.643
296.608
296.588
296.559
296.514
296.424
296.286
296.088
295.869
295.63
296.877
296.743
296.623
296.532
296.469
296.422
296.386
296.34
296.277
296.174
296.035
295.852
295.661
295.476
296.725
296.576
296.44
296.352
296.291
296.243
296.2
296.14
296.061
295.947
295.81
295.651
295.499
295.368
296.516
296.361
296.231
296.156
296.103
296.058
296.007
295.935
295.84
295.72
295.589
295.456
295.342
295.251
296.276
296.128
296.012
295.951
295.906
295.863
295.808
295.727
295.627
295.509
295.389
295.284
295.2
295.137
296.017
295.888
295.791
295.739
295.697
295.651
295.59
295.504
295.402
295.29
295.182
295.1
295.034
294.978
295.76
295.653
295.575
295.525
295.481
295.428
295.36
295.268
295.166
295.062
294.963
294.892
294.831
294.782
295.511
295.434
295.379
295.326
295.269
295.193
295.114
295.019
294.917
294.819
294.72
294.657
294.567
294.517
295.281
295.233
295.199
295.143
295.071
294.974
294.875
294.767
294.656
294.555
294.451
294.37
294.241
294.169
295.052
295.032
295.033
294.977
294.9
294.791
294.669
294.546
294.414
294.295
294.173
294.069
293.897
293.765
294.807
294.808
294.844
294.809
294.745
294.646
294.51
294.369
294.209
294.059
293.904
293.75
293.528
293.354
294.498
294.563
294.639
294.628
294.591
294.522
294.393
294.244
294.056
293.873
293.674
293.481
293.235
292.996
292.174
291.736
291.171
290.902
291.249
291.826
291.509
290.873
290.435
290.532
291.687
293.421
291.419
290.79
290.497
290.865
292.37
294.555
291.365
290.751
290.553
291.088
292.691
294.713
291.457
290.943
290.841
291.416
292.798
294.201
291.549
291.173
291.149
291.641
292.563
293.08
291.703
291.396
291.346
291.663
292.011
291.753
291.788
291.478
291.343
291.326
291.334
290.574
291.815
291.474
291.169
290.754
290.415
289.273
291.62
291.196
290.73
289.895
289.323
288.047
291.137
290.612
290.067
289.069
288.506
287.3
290.28
289.737
289.226
288.512
288.464
287.761
289.428
288.93
288.704
288.58
288.932
288.901
288.334
287.698
287.748
288.181
289.166
290.235
293.839
293.308
292.371
291.617
291.179
291.461
293.419
292.602
291.654
291.186
291.381
292.459
293.279
292.41
291.686
291.43
291.949
293.329
293.099
292.244
291.658
291.609
292.392
293.821
293.046
292.296
291.869
291.969
292.696
293.692
292.948
292.353
292.085
292.243
292.712
293.07
292.891
292.453
292.29
292.393
292.573
292.405
292.846
292.513
292.363
292.287
292.18
291.233
292.806
292.524
292.324
292.029
291.389
289.889
292.688
292.381
292.053
291.357
290.276
288.579
292.422
291.988
291.425
290.334
289.117
287.781
291.746
291.096
290.358
289.263
288.394
287.747
290.791
289.938
289.214
288.546
288.376
288.435
289.536
288.514
287.959
287.753
288.179
288.982
295.064
294.713
293.955
292.927
292.005
291.648
294.877
294.345
293.43
292.52
292.035
292.239
294.811
294.228
293.378
292.664
292.417
292.878
294.662
294.029
293.249
292.778
292.759
293.341
294.509
293.892
293.249
292.933
293.061
293.554
294.292
293.742
293.266
293.1
293.259
293.497
294.078
293.629
293.324
293.265
293.37
293.38
293.879
293.542
293.355
293.32
293.324
292.86
293.726
293.479
293.339
293.233
292.962
291.825
293.589
293.374
293.216
292.902
292.12
290.547
293.426
293.164
292.861
292.136
290.952
289.334
293.064
292.615
292.044
290.94
289.689
288.542
292.472
291.685
290.842
289.658
288.863
288.432
291.455
290.4
289.391
288.458
288.169
288.31
295.806
295.688
295.187
294.262
293.095
292.286
295.736
295.53
294.914
293.956
292.997
292.51
295.676
295.429
294.767
293.855
293.09
292.852
295.564
295.27
294.6
293.812
293.299
293.231
295.431
295.1
294.469
293.848
293.537
293.567
295.237
294.879
294.324
293.905
293.773
293.881
295.01
294.659
294.236
294.014
293.995
294.043
294.761
294.464
294.194
294.097
294.11
294.002
294.534
294.316
294.166
294.113
294.09
293.579
294.335
294.189
294.106
294.04
293.728
292.695
294.161
294.038
293.937
293.666
292.923
291.462
293.952
293.748
293.484
292.815
291.636
290.095
293.657
293.24
292.67
291.538
290.215
289.026