/*--------------------------------*- C++ -*----------------------------------*\
| =========                 |                                                 |
| \\      /  F ield         | OpenFOAM: The Open Source CFD Toolbox           |
|  \\    /   O peration     | Version:  v2106                                 |
|   \\  /    A nd           | Website:  www.openfoam.com                      |
|    \\/     M anipulation  |                                                 |
\*---------------------------------------------------------------------------*/
FoamFile
{
    version     2.0;
    format      ascii;
    arch        "LSB;label=32;scalar=64";
    class       volScalarField;
    location    "0.000138";
    object      alphat;
}
// * * * * * * * * * * * * * * * * * * * * * * * * * * * * * * * * * * * * * //

dimensions      [1 -1 -1 0 0 0 0];

internalField   nonuniform List<scalar> 
18109
(
3.59392e-07
1.89074e-07
1.12263e-07
5.88941e-08
3.75614e-08
2.87599e-08
2.49453e-08
9.59869e-08
3.53453e-08
1.46311e-08
5.45438e-09
3.09335e-09
2.6527e-09
2.75252e-09
8.22862e-08
2.74396e-08
8.9435e-09
2.82134e-09
8.52768e-10
3.21259e-10
2.47186e-10
1.41584e-07
5.33093e-08
1.85276e-08
5.5845e-09
1.41981e-09
3.01501e-10
6.08934e-11
2.10387e-07
7.99586e-08
2.65693e-08
7.60112e-09
1.83358e-09
3.64844e-10
5.81757e-11
2.73367e-07
9.79991e-08
3.07214e-08
8.30276e-09
1.89878e-09
3.58699e-10
5.40901e-11
3.52118e-07
1.17182e-07
3.3987e-08
8.49799e-09
1.80225e-09
3.16432e-10
4.53709e-11
4.62485e-07
1.42979e-07
3.84565e-08
8.92603e-09
1.76164e-09
2.93975e-10
4.79132e-11
5.49719e-08
2.44174e-08
1.2366e-08
6.3792e-09
4.84255e-09
4.44078e-09
4.30903e-09
4.13289e-09
3.81443e-09
3.1465e-09
2.05384e-09
1.02169e-09
5.00777e-10
1.55559e-09
2.10136e-08
6.08717e-09
1.78547e-09
6.01499e-10
3.51942e-10
3.40822e-10
3.92087e-10
4.47154e-10
4.78949e-10
4.54468e-10
3.31107e-10
1.73609e-10
1.67501e-10
1.50757e-09
2.68901e-08
8.23727e-09
2.46144e-09
6.77441e-10
1.67481e-10
4.71311e-11
3.09191e-11
3.73689e-11
4.61162e-11
5.00029e-11
4.0648e-11
2.54094e-11
1.13369e-10
1.50255e-09
4.74629e-08
1.60395e-08
4.81472e-09
1.24866e-09
2.73546e-10
5.00081e-11
8.42436e-12
3.06503e-12
3.43183e-12
4.23883e-12
3.93017e-12
4.88325e-12
7.50939e-11
1.16314e-09
6.69119e-08
2.22949e-08
6.46168e-09
1.60686e-09
3.36328e-10
5.81891e-11
8.10267e-12
9.5824e-13
2.46289e-13
2.70443e-13
2.92133e-13
1.54918e-12
4.35493e-11
7.38093e-10
8.51734e-08
2.67756e-08
7.30517e-09
1.71001e-09
3.37758e-10
5.52066e-11
7.26083e-12
7.4904e-13
6.86267e-14
1.92975e-14
2.01048e-14
4.80374e-13
2.12752e-11
4.0934e-10
1.08589e-07
3.15309e-08
7.9451e-09
1.72104e-09
3.15722e-10
4.80694e-11
6.02449e-12
6.88584e-13
1.32678e-13
5.88361e-14
3.15784e-14
1.80107e-13
9.20463e-12
2.07555e-10
1.40671e-07
3.77494e-08
8.80743e-09
1.77239e-09
3.03126e-10
4.39924e-11
6.31973e-12
1.73723e-12
1.03078e-12
6.62039e-13
3.89166e-13
2.89223e-13
4.71588e-12
1.09929e-10
1.81474e-07
4.53727e-08
9.83347e-09
1.83674e-09
2.96381e-10
4.87453e-11
1.60902e-11
1.1484e-11
9.03837e-12
6.44208e-12
4.15255e-12
2.62415e-12
3.98937e-12
5.98651e-11
2.33843e-07
5.56225e-08
1.14503e-08
2.03752e-09
3.49962e-10
1.10981e-10
8.68835e-11
8.0321e-11
6.83249e-11
5.26501e-11
3.68828e-11
2.53875e-11
1.81047e-11
4.09778e-11
2.85625e-07
6.50201e-08
1.29012e-08
2.33869e-09
6.16152e-10
4.60346e-10
4.86403e-10
4.86804e-10
4.38617e-10
3.631e-10
2.75096e-10
2.06204e-10
1.46e-10
1.18346e-10
3.31899e-07
7.34184e-08
1.46838e-08
3.29738e-09
1.84841e-09
2.07453e-09
2.39412e-09
2.53134e-09
2.41209e-09
2.13715e-09
1.74875e-09
1.40795e-09
1.04426e-09
7.76908e-10
3.62612e-07
7.97784e-08
1.76648e-08
6.717e-09
6.72175e-09
8.49836e-09
1.02388e-08
1.13519e-08
1.14285e-08
1.08295e-08
9.56865e-09
8.17591e-09
6.35062e-09
4.75861e-09
4.27986e-07
1.02487e-07
2.94553e-08
1.93534e-08
2.37803e-08
3.09627e-08
3.83569e-08
4.42748e-08
4.71215e-08
4.79377e-08
4.56685e-08
4.10512e-08
3.33388e-08
2.54491e-08
1.45957e-06
4.49916e-06
1.06492e-05
2.02023e-05
3.20933e-05
4.43315e-05
2.74339e-07
1.12703e-06
3.46546e-06
8.27996e-06
1.61494e-05
2.6308e-05
2.37932e-07
1.15436e-06
3.88146e-06
9.67269e-06
1.88946e-05
3.03374e-05
1.7625e-07
1.00522e-06
3.6875e-06
9.61575e-06
1.90817e-05
3.07036e-05
1.05531e-07
7.5919e-07
3.08027e-06
8.48224e-06
1.74085e-05
2.86505e-05
6.75167e-08
5.00416e-07
2.25236e-06
6.68662e-06
1.45226e-05
2.48548e-05
5.01704e-08
3.55934e-07
1.63525e-06
5.04329e-06
1.13904e-05
2.02255e-05
4.03559e-08
2.61824e-07
1.17675e-06
3.68402e-06
8.54296e-06
1.55907e-05
3.243e-08
1.89279e-07
8.13451e-07
2.53799e-06
5.96741e-06
1.1047e-05
2.4872e-08
1.28539e-07
5.17567e-07
1.58147e-06
3.75004e-06
7.16064e-06
1.64746e-08
7.52379e-08
2.87941e-07
8.79757e-07
2.14946e-06
4.26492e-06
9.01397e-09
3.76094e-08
1.41068e-07
4.36854e-07
1.10973e-06
2.28869e-06
3.92336e-09
1.62354e-08
6.4803e-08
2.11038e-07
5.62929e-07
1.21602e-06
1.62729e-09
8.08888e-09
3.65557e-08
1.35222e-07
4.24046e-07
1.1378e-06
2.13842e-09
1.22678e-08
6.29458e-08
2.66542e-07
9.25357e-07
2.59089e-06
1.22952e-08
5.71e-08
2.34653e-07
8.20427e-07
2.40253e-06
5.78885e-06
1.43663e-08
8.18881e-08
3.80143e-07
1.41752e-06
4.16737e-06
9.64657e-06
1.53974e-08
1.02041e-07
5.12463e-07
1.9508e-06
5.613e-06
1.24754e-05
1.29047e-08
9.80701e-08
5.30858e-07
2.08635e-06
6.03062e-06
1.32696e-05
8.6221e-09
7.39609e-08
4.36941e-07
1.81759e-06
5.44244e-06
1.22946e-05
4.95346e-09
4.64074e-08
2.99508e-07
1.34303e-06
4.29569e-06
1.01969e-05
2.67118e-09
2.61379e-08
1.85992e-07
9.40281e-07
3.20998e-06
7.89746e-06
1.56784e-09
1.61592e-08
1.20843e-07
6.13463e-07
2.14826e-06
5.46371e-06
9.13941e-10
9.33688e-09
6.831e-08
3.48406e-07
1.25237e-06
3.29241e-06
4.90817e-10
4.84171e-09
3.317e-08
1.65091e-07
6.13064e-07
1.68386e-06
3.38698e-10
2.83211e-09
1.76735e-08
8.21915e-08
2.95527e-07
8.09111e-07
9.06708e-10
4.37349e-09
1.98876e-08
7.71909e-08
2.48477e-07
6.57145e-07
5.02183e-09
1.90753e-08
6.81713e-08
2.18516e-07
6.16149e-07
1.50999e-06
2.6632e-08
8.88783e-08
2.76059e-07
7.75813e-07
1.91685e-06
4.12206e-06
1.20671e-07
3.38473e-07
8.83037e-07
2.10266e-06
4.49513e-06
8.53688e-06
1.52838e-07
4.75815e-07
1.32919e-06
3.29194e-06
7.09459e-06
1.31599e-05
1.80136e-07
6.01695e-07
1.7505e-06
4.36364e-06
9.2261e-06
1.65573e-05
1.90336e-07
6.59136e-07
1.9451e-06
4.83144e-06
1.00683e-05
1.77395e-05
1.86085e-07
6.45086e-07
1.89892e-06
4.69221e-06
9.73193e-06
1.7082e-05
1.70127e-07
5.75354e-07
1.67118e-06
4.10985e-06
8.53674e-06
1.50311e-05
1.50913e-07
4.88487e-07
1.3715e-06
3.31433e-06
6.86868e-06
1.21695e-05
1.26612e-07
3.94113e-07
1.06657e-06
2.50756e-06
5.12239e-06
9.06337e-06
1.00796e-07
3.00308e-07
7.78429e-07
1.76468e-06
3.49466e-06
6.01089e-06
7.73327e-08
2.19e-07
5.38896e-07
1.16544e-06
2.21169e-06
3.67073e-06
5.97126e-08
1.62443e-07
3.89345e-07
8.34272e-07
1.61137e-06
2.86739e-06
6.54753e-08
1.85979e-07
4.9117e-07
1.17975e-06
2.57014e-06
5.06552e-06
1.74171e-07
5.03949e-07
1.33033e-06
3.08982e-06
6.31826e-06
1.14106e-05
7.65573e-07
1.842e-06
4.03317e-06
7.85254e-06
1.37108e-05
2.14532e-05
3.68285e-07
8.14712e-07
1.67799e-06
3.17807e-06
5.4133e-06
8.25393e-06
2.41136e-07
5.76608e-07
1.32546e-06
2.91892e-06
5.99427e-06
1.1176e-05
2.8346e-07
8.22709e-07
2.25927e-06
5.55504e-06
1.16599e-05
2.05851e-05
9.99501e-07
2.71177e-06
6.46012e-06
1.29981e-05
2.24223e-05
3.37376e-05
1.47841e-06
3.58742e-06
7.5207e-06
1.36549e-05
2.18716e-05
3.12242e-05
1.49269e-06
3.88668e-06
8.47362e-06
1.56495e-05
2.50031e-05
3.54658e-05
1.34739e-06
3.71543e-06
8.37999e-06
1.57459e-05
2.52741e-05
3.57468e-05
1.10927e-06
3.20339e-06
7.47835e-06
1.44077e-05
2.35509e-05
3.36241e-05
8.59715e-07
2.54775e-06
6.13086e-06
1.2177e-05
2.04591e-05
2.9861e-05
6.29636e-07
1.88429e-06
4.65109e-06
9.55437e-06
1.66469e-05
2.51719e-05
4.53565e-07
1.33566e-06
3.33416e-06
7.09291e-06
1.30839e-05
2.02123e-05
3.24484e-07
9.18443e-07
2.28899e-06
5.11047e-06
9.5948e-06
1.52834e-05
2.38394e-07
6.40361e-07
1.56499e-06
3.49439e-06
6.69077e-06
1.09669e-05
1.81904e-07
4.62012e-07
1.0864e-06
2.36543e-06
4.47964e-06
7.1593e-06
1.35091e-07
3.30804e-07
7.49035e-07
1.55852e-06
2.90204e-06
4.58596e-06
8.57375e-08
2.1395e-07
4.97939e-07
1.09189e-06
2.26576e-06
4.44616e-06
7.21918e-08
2.03646e-07
5.81051e-07
1.60101e-06
3.99218e-06
8.54703e-06
1.92219e-07
6.15949e-07
1.78913e-06
4.47202e-06
9.47005e-06
1.70735e-05
3.75416e-05
6.22387e-05
8.35155e-05
9.66998e-05
9.97435e-05
4.2508e-05
6.47032e-05
8.21677e-05
9.1465e-05
8.46808e-05
4.25947e-05
6.33346e-05
8.08792e-05
9.00033e-05
7.76711e-05
4.02506e-05
6.01218e-05
7.77956e-05
8.6182e-05
7.23923e-05
3.59023e-05
5.33919e-05
6.89387e-05
7.59998e-05
6.46281e-05
3.05161e-05
4.37644e-05
5.64444e-05
6.29997e-05
5.5858e-05
2.40185e-05
3.36848e-05
4.35968e-05
5.00893e-05
4.81853e-05
1.76941e-05
2.47381e-05
3.20301e-05
3.82604e-05
4.23705e-05
4.4071e-05
1.22274e-05
1.72458e-05
2.24466e-05
2.79717e-05
3.72122e-05
4.40498e-05
7.69317e-06
1.1092e-05
1.4823e-05
1.94262e-05
3.18044e-05
4.34049e-05
4.20926e-06
6.45294e-06
9.49104e-06
1.44577e-05
2.73277e-05
4.45263e-05
5.72095e-05
2.28397e-06
4.7644e-06
9.6081e-06
1.70742e-05
2.90455e-05
5.00904e-05
7.71671e-05
6.25092e-05
2.67771e-06
8.16643e-06
1.81334e-05
3.10914e-05
4.53748e-05
6.75316e-05
0.000134526
0.000185984
5.90534e-06
1.69738e-05
3.4103e-05
5.35571e-05
7.21284e-05
9.27786e-05
0.000164835
0.000404072
1.16439e-05
2.85689e-05
5.04484e-05
7.15657e-05
8.73945e-05
0.000102375
0.000159197
0.000461072
1.79487e-05
3.78572e-05
5.94179e-05
7.67888e-05
8.49232e-05
8.47221e-05
0.000111907
0.000445021
2.21205e-05
4.22519e-05
6.24614e-05
7.8439e-05
8.30022e-05
7.11691e-05
7.33455e-05
0.000229733
2.31733e-05
4.27615e-05
6.31456e-05
8.05589e-05
8.46207e-05
6.63105e-05
6.19386e-05
0.000260806
2.18663e-05
4.01039e-05
5.99389e-05
7.71823e-05
7.98036e-05
6.01173e-05
5.58176e-05
0.000259161
1.87665e-05
3.4597e-05
5.21785e-05
6.76038e-05
6.92196e-05
5.35005e-05
5.17162e-05
0.000218665
1.50618e-05
2.77076e-05
4.19399e-05
5.47295e-05
5.73641e-05
4.79007e-05
4.92895e-05
8.92834e-05
1.09621e-05
2.03083e-05
3.1119e-05
4.14002e-05
4.65651e-05
4.34673e-05
4.86518e-05
8.58558e-05
6.98024e-06
1.33611e-05
2.10065e-05
2.91766e-05
3.6439e-05
4.00168e-05
3.72305e-06
7.59129e-06
1.27082e-05
1.8843e-05
2.71092e-05
3.71733e-05
1.74936e-06
4.00691e-06
7.70553e-06
1.29211e-05
2.13406e-05
3.62278e-05
1.46051e-06
4.17624e-06
9.21655e-06
1.63137e-05
2.56997e-05
4.22527e-05
3.24575e-06
9.21182e-06
1.92206e-05
3.15752e-05
4.44636e-05
6.34086e-05
7.74724e-06
1.91752e-05
3.56925e-05
5.37228e-05
7.04819e-05
1.45024e-05
3.10993e-05
5.1433e-05
7.01691e-05
8.35068e-05
2.12427e-05
4.00082e-05
5.94038e-05
7.44326e-05
8.00726e-05
2.56585e-05
4.4096e-05
6.20247e-05
7.56164e-05
7.65804e-05
2.696e-05
4.43626e-05
6.21942e-05
7.64334e-05
7.51476e-05
2.57182e-05
4.1766e-05
5.89129e-05
7.27873e-05
6.9432e-05
2.24838e-05
3.65048e-05
5.17482e-05
6.44802e-05
6.0634e-05
1.81345e-05
2.97436e-05
4.25354e-05
5.36771e-05
5.15462e-05
1.33173e-05
2.23462e-05
3.22836e-05
4.17571e-05
4.4393e-05
8.63997e-06
1.5138e-05
2.26761e-05
3.07262e-05
3.97436e-05
5.34632e-06
9.98337e-06
1.63767e-05
2.51443e-05
3.95469e-05
4.85352e-06
1.07003e-05
1.93457e-05
3.03476e-05
4.70051e-05
9.05978e-06
1.99918e-05
3.42241e-05
4.89857e-05
6.61135e-05
1.84425e-05
3.63794e-05
5.66685e-05
7.51832e-05
9.23391e-05
3.06718e-05
5.36176e-05
7.59372e-05
9.30921e-05
0.000105634
4.09975e-05
6.3527e-05
8.20246e-05
9.35706e-05
9.59588e-05
4.58862e-05
6.53167e-05
8.03354e-05
8.81225e-05
8.07783e-05
4.58478e-05
6.38344e-05
7.87936e-05
8.57702e-05
7.24718e-05
4.35231e-05
6.03969e-05
7.49796e-05
8.19118e-05
6.64204e-05
3.89127e-05
5.36019e-05
6.66811e-05
7.35123e-05
6.05892e-05
3.28927e-05
4.47611e-05
5.57473e-05
6.29624e-05
5.50546e-05
2.65444e-05
3.53593e-05
4.42969e-05
5.2079e-05
5.09112e-05
2.04942e-05
2.69074e-05
3.37708e-05
4.17527e-05
4.8987e-05
1.47827e-05
1.94379e-05
2.48694e-05
3.37496e-05
4.88941e-05
9.4196e-06
1.32913e-05
1.90017e-05
3.02417e-05
5.07124e-05
6.55872e-06
1.20946e-05
2.12028e-05
3.48747e-05
5.72399e-05
8.29737e-06
1.92328e-05
3.42505e-05
5.09923e-05
7.26501e-05
1.56518e-05
3.40445e-05
5.55748e-05
7.59132e-05
9.58215e-05
2.67832e-05
5.11678e-05
7.57788e-05
9.50957e-05
0.000109222
3.42729e-09
1.33149e-09
6.05514e-10
3.77785e-10
3.71783e-10
4.04376e-10
4.44159e-10
4.69362e-10
4.64422e-10
4.08203e-10
2.84443e-10
1.4668e-10
6.14421e-11
6.94166e-11
2.72621e-09
7.0136e-10
1.79885e-10
5.26957e-11
2.77793e-11
2.91571e-11
3.77305e-11
4.71591e-11
5.37649e-11
5.36474e-11
4.17251e-11
2.25196e-11
1.06583e-11
5.44508e-11
4.80526e-09
1.37712e-09
3.66551e-10
8.74546e-11
1.85672e-11
4.45151e-12
2.85451e-12
3.70632e-12
4.82681e-12
5.4493e-12
4.6778e-12
2.71007e-12
3.94283e-12
6.15812e-11
8.56069e-09
2.58158e-09
6.84864e-10
1.57307e-10
3.06989e-11
5.04408e-12
7.7732e-13
2.85753e-13
3.39714e-13
4.32092e-13
4.11873e-13
2.95712e-13
2.55349e-12
5.52308e-11
1.2016e-08
3.56178e-09
9.18073e-10
2.03142e-10
3.80558e-11
5.9405e-12
7.57842e-13
8.49254e-14
2.31843e-14
2.64974e-14
2.79069e-14
4.58524e-14
1.59305e-12
3.96798e-11
1.52423e-08
4.25437e-09
1.0305e-09
2.14494e-10
3.78895e-11
5.58147e-12
6.71377e-13
6.47189e-14
5.72359e-15
1.72183e-15
1.66448e-15
1.25062e-14
8.25284e-13
2.41842e-11
1.90533e-08
4.88905e-09
1.09062e-09
2.09603e-10
3.42971e-11
4.69437e-12
5.3333e-13
5.38762e-14
8.10297e-15
3.01714e-15
1.5133e-15
5.92293e-15
4.34402e-13
1.37603e-11
2.38756e-08
5.63165e-09
1.15724e-09
2.05404e-10
3.10797e-11
4.01112e-12
5.01582e-13
1.13732e-13
6.03275e-14
3.5746e-14
1.93104e-14
1.23482e-14
2.46014e-13
7.86455e-12
2.94623e-08
6.41913e-09
1.21573e-09
1.99034e-10
2.82784e-11
4.07778e-12
1.20421e-12
8.01534e-13
5.96031e-13
3.91738e-13
2.29723e-13
1.27916e-13
2.1325e-13
4.49575e-12
3.53906e-08
7.26869e-09
1.29462e-09
1.99954e-10
3.0329e-11
9.35135e-12
7.33747e-12
6.43967e-12
5.17451e-12
3.65692e-12
2.31593e-12
1.39781e-12
9.00098e-13
2.94439e-12
3.9852e-08
7.74053e-09
1.31876e-09
2.09443e-10
5.55311e-11
4.55134e-11
4.79183e-11
4.52568e-11
3.84429e-11
2.90656e-11
1.981e-11
1.29986e-11
8.06004e-12
6.25168e-12
4.20059e-08
7.83889e-09
1.34461e-09
2.93702e-10
2.0199e-10
2.41598e-10
2.7534e-10
2.73819e-10
2.45683e-10
1.9827e-10
1.45294e-10
1.02556e-10
6.65344e-11
4.3269e-11
4.04757e-08
7.5199e-09
1.52477e-09
7.32364e-10
8.83767e-10
1.15439e-09
1.37381e-09
1.43284e-09
1.35781e-09
1.16903e-09
9.21923e-10
6.9316e-10
4.71444e-10
3.07163e-10
4.23242e-08
8.92505e-09
2.85354e-09
2.64707e-09
3.65031e-09
4.88022e-09
5.98895e-09
6.52764e-09
6.54017e-09
6.02809e-09
5.12292e-09
4.06335e-09
2.88785e-09
1.91469e-09
3.06161e-10
9.56309e-11
4.74353e-11
4.31069e-11
5.15268e-11
6.32241e-11
7.61702e-11
8.65357e-11
9.01035e-11
8.25721e-11
6.02769e-11
3.20849e-11
1.30549e-11
6.99587e-12
4.78082e-10
1.19012e-10
2.85149e-11
7.48716e-12
3.89741e-12
4.5491e-12
6.41952e-12
8.50342e-12
1.0103e-11
1.04029e-11
8.34384e-12
4.67675e-12
1.86486e-12
2.83687e-12
9.85535e-10
2.61108e-10
6.27806e-11
1.35377e-11
2.62903e-12
6.24896e-13
4.66687e-13
6.56446e-13
8.87453e-13
1.02444e-12
8.94561e-13
5.31666e-13
3.06638e-13
3.29018e-12
1.78866e-09
4.91221e-10
1.18472e-10
2.48369e-11
4.46347e-12
6.86861e-13
1.05629e-13
4.73002e-14
6.15654e-14
7.96151e-14
7.61602e-14
4.94415e-14
1.40003e-13
3.52119e-12
2.55968e-09
6.89723e-10
1.61646e-10
3.26922e-11
5.64591e-12
8.2315e-13
1.00015e-13
1.14679e-14
4.01071e-15
4.91091e-15
5.12626e-15
4.46675e-15
9.60532e-14
3.0737e-12
3.21351e-09
8.15155e-10
1.79931e-10
3.43358e-11
5.60825e-12
7.73856e-13
8.86557e-14
8.40172e-15
8.48434e-16
3.68168e-16
3.68661e-16
9.04383e-16
6.08638e-14
2.23332e-12
3.83337e-09
8.96716e-10
1.82952e-10
3.23689e-11
4.91609e-12
6.32723e-13
6.84008e-14
6.56233e-15
8.82855e-16
3.28119e-16
2.02529e-16
5.21562e-16
3.98826e-14
1.52797e-12
4.49045e-09
9.6616e-10
1.81833e-10
2.97755e-11
4.19425e-12
5.0842e-13
5.84888e-14
1.11648e-14
5.20746e-15
2.89048e-15
1.49402e-15
9.79591e-16
2.61429e-14
9.93439e-13
5.09717e-09
1.01231e-09
1.76059e-10
2.66951e-11
3.5353e-12
4.70682e-13
1.24014e-13
7.62885e-14
5.34252e-14
3.26458e-14
1.7695e-14
9.01647e-15
2.26997e-14
6.32826e-13
5.54878e-09
1.03357e-09
1.68392e-10
2.40566e-11
3.42977e-12
1.03328e-12
7.91246e-13
6.61543e-13
5.00565e-13
3.26364e-13
1.89174e-13
1.0203e-13
6.55673e-14
4.1181e-13
5.61463e-09
9.9031e-10
1.54104e-10
2.28137e-11
6.36758e-12
5.55223e-12
5.69996e-12
5.09882e-12
4.05724e-12
2.81217e-12
1.74015e-12
1.01172e-12
5.62333e-13
5.11072e-13
5.19107e-09
8.8199e-10
1.39926e-10
3.23354e-11
2.69328e-11
3.31764e-11
3.65034e-11
3.41463e-11
2.85278e-11
2.09804e-11
1.38322e-11
8.598e-12
4.94117e-12
2.93122e-12
4.3145e-09
7.41075e-10
1.52351e-10
9.81103e-11
1.35003e-10
1.78398e-10
2.0423e-10
1.99023e-10
1.74468e-10
1.35864e-10
9.53403e-11
6.28691e-11
3.76404e-11
2.19884e-11
3.89844e-09
8.01782e-10
3.32319e-10
4.17208e-10
6.27824e-10
8.49655e-10
1.00338e-09
1.01641e-09
9.35664e-10
7.72388e-10
5.78363e-10
4.01524e-10
2.48858e-10
1.46734e-10
3.56131e-11
9.15558e-12
4.51055e-12
4.86754e-12
6.74844e-12
9.2819e-12
1.22287e-11
1.48827e-11
1.62582e-11
1.5395e-11
1.15536e-11
6.40939e-12
2.62597e-12
1.03293e-12
7.89221e-11
1.84083e-11
4.03899e-12
9.62731e-13
5.11895e-13
6.71847e-13
1.03069e-12
1.44567e-12
1.78607e-12
1.88759e-12
1.54e-12
8.96399e-13
3.57567e-13
1.92543e-13
1.70936e-10
4.18405e-11
9.21571e-12
1.82192e-12
3.29103e-13
8.10397e-14
7.29347e-14
1.10834e-13
1.55272e-13
1.82808e-13
1.60985e-13
9.82477e-14
4.13619e-14
1.54181e-13
3.15096e-10
7.93719e-11
1.75592e-11
3.39669e-12
5.69017e-13
8.30554e-14
1.32743e-14
7.63445e-15
1.07723e-14
1.41257e-14
1.35218e-14
8.77003e-15
8.08091e-15
1.82553e-13
4.54938e-10
1.12326e-10
2.41997e-11
4.5289e-12
7.3024e-13
1.00603e-13
1.18279e-14
1.5002e-15
7.42781e-16
9.46144e-16
9.79078e-16
7.25242e-16
4.79557e-15
1.85057e-13
5.59942e-10
1.30459e-10
2.65669e-11
4.70677e-12
7.19676e-13
9.40558e-14
1.04132e-14
1.04587e-15
1.9252e-16
1.44551e-16
1.46224e-16
1.59033e-16
3.69886e-15
1.61264e-13
6.35433e-10
1.37267e-10
2.59705e-11
4.28532e-12
6.11575e-13
7.48175e-14
7.8351e-15
7.9743e-16
1.72194e-16
1.17235e-16
1.07999e-16
1.25429e-16
3.01415e-15
1.34602e-13
6.91392e-10
1.3805e-10
2.42079e-11
3.71159e-12
4.93025e-13
5.68045e-14
6.18424e-15
1.08433e-15
4.91002e-16
2.95651e-16
1.89156e-16
1.57262e-16
2.38181e-15
1.0008e-13
7.19737e-10
1.33058e-10
2.16375e-11
3.08336e-12
3.85711e-13
4.80471e-14
1.13725e-14
6.49589e-15
4.31674e-15
2.50885e-15
1.30607e-15
6.67031e-16
2.36838e-15
7.44671e-14
7.09816e-10
1.23043e-10
1.87633e-11
2.52443e-12
3.40785e-13
9.88314e-14
7.30787e-14
5.85272e-14
4.18147e-14
2.54252e-14
1.36619e-14
6.75714e-15
4.91252e-15
5.41944e-14
6.40985e-10
1.052e-10
1.53167e-11
2.16139e-12
6.3128e-13
5.68591e-13
5.64916e-13
4.82349e-13
3.60252e-13
2.30925e-13
1.31369e-13
6.89837e-14
3.52715e-14
4.78366e-14
5.22986e-10
8.30549e-11
1.24831e-11
3.14235e-12
3.01741e-12
3.7312e-12
3.93022e-12
3.49154e-12
2.71986e-12
1.83608e-12
1.10518e-12
6.16428e-13
3.1892e-13
1.79684e-13
3.78896e-10
6.18525e-11
1.35508e-11
1.14544e-11
1.69431e-11
2.216e-11
2.41155e-11
2.2208e-11
1.80185e-11
1.27832e-11
8.12141e-12
4.7751e-12
2.55819e-12
1.35967e-12
3.03138e-10
6.37456e-11
3.62664e-11
5.57645e-11
8.76812e-11
1.17118e-10
1.3087e-10
1.24526e-10
1.05191e-10
7.84362e-11
5.2599e-11
3.23626e-11
1.78273e-11
9.51609e-12
4.47963e-12
1.00497e-12
4.22298e-13
4.94134e-13
7.76203e-13
1.1862e-12
1.69924e-12
2.20706e-12
2.52738e-12
2.47113e-12
1.8907e-12
1.08874e-12
4.57566e-13
1.6211e-13
1.12529e-11
2.45611e-12
4.99174e-13
1.0946e-13
5.95172e-14
8.68545e-14
1.4372e-13
2.13009e-13
2.73656e-13
2.96879e-13
2.45237e-13
1.46883e-13
6.08209e-14
2.17309e-14
2.49421e-11
5.68917e-12
1.16387e-12
2.13955e-13
3.64731e-14
9.5064e-15
1.01118e-14
1.63738e-14
2.37066e-14
2.84815e-14
2.52565e-14
1.57306e-14
6.60728e-15
7.508e-15
4.63803e-11
1.08302e-11
2.22349e-12
4.01283e-13
6.33637e-14
8.91094e-15
1.57908e-15
1.1693e-15
1.71803e-15
2.26113e-15
2.16998e-15
1.44536e-15
7.94812e-16
8.46884e-15
6.68245e-11
1.53201e-11
3.07334e-12
5.38224e-13
8.1905e-14
1.08147e-14
1.31021e-15
2.55651e-16
1.9404e-16
2.30182e-16
2.34615e-16
1.92497e-16
3.31834e-16
9.82822e-15
7.97668e-11
1.73189e-11
3.29831e-12
5.4895e-13
7.94313e-14
9.97619e-15
1.14518e-15
1.93988e-16
1.10367e-16
1.06575e-16
1.07002e-16
1.06531e-16
3.00772e-16
1.02985e-14
8.56838e-11
1.7329e-11
3.08073e-12
4.79879e-13
6.51023e-14
7.7043e-15
8.59242e-16
1.65415e-16
1.06041e-16
1.01274e-16
1.00701e-16
1.02004e-16
2.95536e-16
1.00929e-14
8.64112e-11
1.62215e-11
2.68377e-12
3.90028e-13
4.94477e-14
5.53999e-15
6.50541e-16
1.75787e-16
1.2485e-16
1.11205e-16
1.0477e-16
1.03947e-16
2.89889e-16
8.80155e-15
8.25375e-11
1.43847e-11
2.21417e-12
3.00191e-13
3.59443e-14
4.31231e-15
9.86137e-16
5.58205e-16
3.81449e-16
2.48767e-16
1.67008e-16
1.29814e-16
3.21324e-16
7.73963e-15
7.39584e-11
1.2106e-11
1.75116e-12
2.24841e-13
2.91566e-14
8.20782e-15
5.85559e-15
4.49841e-15
3.05698e-15
1.77848e-15
9.27119e-16
4.70502e-16
4.70559e-16
6.576e-15
6.00145e-11
9.32002e-12
1.28959e-12
1.76285e-13
5.42025e-14
4.95998e-14
4.75263e-14
3.86629e-14
2.71117e-14
1.62315e-14
8.55707e-15
4.14799e-15
2.06924e-15
5.18256e-15
4.3806e-11
6.61867e-12
9.61014e-13
2.7045e-13
2.88661e-13
3.5221e-13
3.54711e-13
2.9863e-13
2.1698e-13
1.3569e-13
7.50379e-14
3.80519e-14
1.79853e-14
1.04736e-14
2.82345e-11
4.46839e-12
1.0948e-12
1.16788e-12
1.78582e-12
2.27726e-12
2.35411e-12
2.04379e-12
1.53724e-12
1.00339e-12
5.81879e-13
3.09146e-13
1.50058e-13
7.36798e-14
2.0565e-11
4.63455e-12
3.65375e-12
6.36415e-12
1.01438e-11
1.31535e-11
1.38842e-11
1.23857e-11
9.63212e-12
6.55526e-12
3.97653e-12
2.19802e-12
1.09241e-12
5.3393e-13
5.05087e-13
1.02965e-13
3.60952e-14
4.36333e-14
7.66365e-14
1.29343e-13
2.00731e-13
2.77717e-13
3.33327e-13
3.36593e-13
2.62209e-13
1.5451e-13
6.70627e-14
2.33257e-14
1.346e-12
2.76271e-13
5.26817e-14
1.08083e-14
6.03968e-15
9.67938e-15
1.71428e-14
2.67753e-14
3.57727e-14
3.98695e-14
3.33772e-14
2.03604e-14
8.77242e-15
3.01574e-15
3.04377e-12
6.52306e-13
1.25398e-13
2.17446e-14
3.60103e-15
1.05938e-15
1.28191e-15
2.14117e-15
3.16585e-15
3.86944e-15
3.46922e-15
2.2151e-15
1.00295e-15
5.66896e-16
5.70206e-12
1.24771e-12
2.40535e-13
4.09772e-14
6.2198e-15
9.20038e-16
2.47839e-16
2.31185e-16
3.09761e-16
3.85353e-16
3.74074e-16
2.78391e-16
1.81337e-16
4.83411e-16
8.17866e-12
1.76086e-12
3.3266e-13
5.51363e-14
8.06176e-15
1.09991e-15
2.09972e-16
1.15559e-16
1.11937e-16
1.17162e-16
1.17702e-16
1.12031e-16
1.14448e-16
6.14525e-16
9.45552e-12
1.9355e-12
3.48677e-13
5.51468e-14
7.69355e-15
1.00764e-15
1.92808e-16
1.08237e-16
1.01029e-16
1.00823e-16
1.00909e-16
1.00771e-16
1.12054e-16
7.48218e-16
9.6396e-12
1.8467e-12
3.12002e-13
4.64238e-14
6.11505e-15
7.77268e-16
1.65059e-16
1.05439e-16
1.00438e-16
1.00075e-16
1.00065e-16
1.00198e-16
1.13843e-16
8.39905e-16
9.05117e-12
1.61736e-12
2.55352e-13
3.56176e-14
4.42183e-15
5.57787e-16
1.43397e-16
1.05155e-16
1.01381e-16
1.00576e-16
1.00255e-16
1.00332e-16
1.16314e-16
8.50285e-16
7.96868e-12
1.32735e-12
1.95829e-13
2.56118e-14
3.03427e-15
4.24077e-16
1.58822e-16
1.26745e-16
1.15102e-16
1.07419e-16
1.03151e-16
1.01596e-16
1.21925e-16
8.70618e-16
6.52167e-12
1.02345e-12
1.42385e-13
1.77079e-14
2.27823e-15
6.64311e-16
4.77771e-16
3.74161e-16
2.72716e-16
1.90437e-16
1.40028e-16
1.16281e-16
1.32106e-16
8.43901e-16
4.79979e-12
7.16873e-13
9.5647e-14
1.28005e-14
4.05412e-15
3.68758e-15
3.4155e-15
2.67211e-15
1.79839e-15
1.04905e-15
5.58071e-16
2.98318e-16
1.9899e-16
6.82274e-16
3.17033e-12
4.62885e-13
6.58416e-14
2.03809e-14
2.30874e-14
2.75647e-14
2.6627e-14
2.13126e-14
1.45764e-14
8.55349e-15
4.41975e-15
2.1038e-15
9.66664e-16
7.23544e-16
1.84571e-12
2.87469e-13
8.01439e-14
1.00597e-13
1.55333e-13
1.92137e-13
1.89342e-13
1.55308e-13
1.09203e-13
6.62618e-14
3.54277e-14
1.72535e-14
7.71758e-15
3.62294e-15
1.24672e-12
3.12351e-13
3.24439e-13
6.05327e-13
9.61647e-13
1.20335e-12
1.20356e-12
1.00845e-12
7.28584e-13
4.57417e-13
2.53756e-13
1.27695e-13
5.80283e-14
2.63693e-14
4.91166e-14
9.38908e-15
2.82631e-15
3.38643e-15
6.50407e-15
1.19786e-14
1.99949e-14
2.93579e-14
3.68868e-14
3.84751e-14
3.05583e-14
1.83403e-14
8.19061e-15
2.94743e-15
1.35668e-13
2.64464e-14
4.83593e-15
1.00196e-15
6.02426e-16
9.88846e-16
1.79615e-15
2.90209e-15
4.00333e-15
4.57742e-15
3.90308e-15
2.4451e-15
1.12661e-15
4.48529e-16
3.13137e-13
6.35686e-14
1.16422e-14
1.99091e-15
3.92778e-16
1.84157e-16
2.16706e-16
3.14122e-16
4.34058e-16
5.21279e-16
4.80801e-16
3.40747e-16
2.04424e-16
1.40029e-16
5.8963e-13
1.22049e-13
2.23677e-14
3.70028e-15
6.15694e-16
1.66881e-16
1.12971e-16
1.136e-16
1.22825e-16
1.31733e-16
1.30634e-16
1.19947e-16
1.08903e-16
1.16733e-16
8.39542e-13
1.71379e-13
3.08389e-14
4.95276e-15
7.73417e-16
1.81607e-16
1.08764e-16
1.01343e-16
1.0125e-16
1.01877e-16
1.0195e-16
1.01326e-16
1.01066e-16
1.24544e-16
9.39706e-13
1.83099e-13
3.15523e-14
4.85591e-15
7.30642e-16
1.72642e-16
1.0723e-16
1.00603e-16
1.00058e-16
1.00063e-16
1.00085e-16
1.00081e-16
1.00731e-16
1.36874e-16
9.11197e-13
1.66962e-13
2.71241e-14
3.95959e-15
5.82646e-16
1.52221e-16
1.04903e-16
1.00374e-16
1.00003e-16
9.99878e-17
1.00002e-16
1.00031e-16
1.0095e-16
1.4894e-16
8.00592e-13
1.37545e-13
2.09876e-14
2.90497e-15
4.2857e-16
1.33227e-16
1.03053e-16
1.00302e-16
1.00055e-16
1.00024e-16
1.00025e-16
1.00059e-16
1.01324e-16
1.58086e-16
6.53567e-13
1.05222e-13
1.50955e-14
1.99236e-15
3.08453e-16
1.2141e-16
1.03382e-16
1.01335e-16
1.00715e-16
1.00354e-16
1.00173e-16
1.00144e-16
1.02029e-16
1.69557e-16
4.92259e-13
7.50035e-14
1.02117e-14
1.31183e-15
2.40553e-16
1.32465e-16
1.20016e-16
1.13675e-16
1.08093e-16
1.04015e-16
1.01731e-16
1.00772e-16
1.0295e-16
1.75402e-16
3.32081e-13
4.83553e-14
6.35777e-15
9.03353e-16
3.41091e-16
3.12245e-16
2.88632e-16
2.39074e-16
1.85897e-16
1.44143e-16
1.19259e-16
1.07631e-16
1.05262e-16
1.61628e-16
2.01087e-13
2.87609e-14
4.09707e-15
1.39327e-15
1.60127e-15
1.85185e-15
1.72869e-15
1.3421e-15
9.00474e-16
5.3707e-16
3.04936e-16
1.85074e-16
1.33114e-16
1.4356e-16
1.0731e-13
1.66493e-14
5.25019e-15
7.24809e-15
1.11163e-14
1.33197e-14
1.25749e-14
9.8174e-15
6.53715e-15
3.7562e-15
1.91039e-15
9.07215e-16
4.26012e-16
2.4447e-16
6.8074e-14
1.92828e-14
2.45545e-14
4.74159e-14
7.43536e-14
8.96853e-14
8.53688e-14
6.75731e-14
4.57842e-14
2.68178e-14
1.37971e-14
6.44307e-15
2.74961e-15
1.22303e-15
4.13251e-15
8.20573e-16
2.79549e-16
3.07073e-16
5.4949e-16
1.01667e-15
1.75374e-15
2.6799e-15
3.4944e-15
3.75664e-15
3.05701e-15
1.89298e-15
9.07211e-16
3.88161e-16
1.15815e-14
2.22356e-15
4.61878e-16
1.64672e-16
1.34898e-16
1.67638e-16
2.39813e-16
3.4512e-16
4.56764e-16
5.2183e-16
4.6403e-16
3.26437e-16
2.00218e-16
1.34297e-16
2.71405e-14
5.31215e-15
1.00192e-15
2.40701e-16
1.20763e-16
1.06102e-16
1.09457e-16
1.18536e-16
1.30241e-16
1.39294e-16
1.35939e-16
1.2277e-16
1.09933e-16
1.03473e-16
5.13079e-14
1.01716e-14
1.85258e-15
3.709e-16
1.37128e-16
1.04509e-16
1.00802e-16
1.01021e-16
1.01925e-16
1.02813e-16
1.02745e-16
1.01761e-16
1.00733e-16
1.00736e-16
7.23851e-14
1.41614e-14
2.51135e-15
4.64903e-16
1.48641e-16
1.05563e-16
1.00432e-16
9.99414e-17
9.9964e-17
1.0004e-16
1.00062e-16
1.0002e-16
9.99907e-17
1.01032e-16
7.84772e-14
1.47104e-14
2.50862e-15
4.49828e-16
1.44534e-16
1.04864e-16
1.00334e-16
9.98938e-17
9.9871e-17
9.98873e-17
9.99042e-17
9.99211e-17
9.99705e-17
1.01816e-16
7.25606e-14
1.2862e-14
2.09108e-15
3.73392e-16
1.32721e-16
1.03357e-16
1.00185e-16
9.98951e-17
9.98842e-17
9.98988e-17
9.99154e-17
9.99359e-17
1.00008e-16
1.02809e-16
5.99914e-14
1.00384e-14
1.55996e-15
2.88132e-16
1.21004e-16
1.02005e-16
1.00072e-16
9.99085e-17
9.99076e-17
9.99226e-17
9.99396e-17
9.99615e-17
1.00068e-16
1.03935e-16
4.57482e-14
7.23317e-15
1.08627e-15
2.18741e-16
1.12431e-16
1.0117e-16
1.00076e-16
9.99721e-17
9.9958e-17
9.99603e-17
9.99715e-17
9.99927e-17
1.00163e-16
1.05475e-16
3.20144e-14
4.83756e-15
7.20017e-16
1.70014e-16
1.0764e-16
1.01531e-16
1.00831e-16
1.00531e-16
1.00293e-16
1.00135e-16
1.00061e-16
1.00048e-16
1.00276e-16
1.0662e-16
2.0038e-14
2.9343e-15
4.54496e-16
1.42289e-16
1.1215e-16
1.10225e-16
1.08683e-16
1.06073e-16
1.03555e-16
1.01752e-16
1.00759e-16
1.00333e-16
1.00396e-16
1.05753e-16
1.12982e-14
1.66234e-15
3.09241e-16
1.68928e-16
1.80494e-16
1.91148e-16
1.81083e-16
1.58389e-16
1.35029e-16
1.176e-16
1.07594e-16
1.02998e-16
1.01288e-16
1.03587e-16
5.64621e-15
9.43074e-16
3.84729e-16
5.21052e-16
7.43026e-16
8.48e-16
7.76938e-16
6.01269e-16
4.12576e-16
2.64786e-16
1.73983e-16
1.29281e-16
1.10607e-16
1.05376e-16
3.42241e-15
1.14848e-15
1.65076e-15
3.15706e-15
4.81721e-15
5.58654e-15
5.08451e-15
3.84006e-15
2.48659e-15
1.40696e-15
7.20604e-16
3.62626e-16
1.9807e-16
1.37813e-16
3.78211e-16
1.46673e-16
1.0978e-16
1.10079e-16
1.25056e-16
1.57748e-16
2.13966e-16
2.89923e-16
3.62273e-16
3.9213e-16
3.40567e-16
2.46991e-16
1.6647e-16
1.23751e-16
9.1675e-16
2.43414e-16
1.22812e-16
1.03462e-16
1.01634e-16
1.03925e-16
1.09223e-16
1.17518e-16
1.26952e-16
1.33035e-16
1.28921e-16
1.17962e-16
1.0784e-16
1.02522e-16
2.06112e-15
4.60099e-16
1.59066e-16
1.08419e-16
1.00813e-16
9.99601e-17
1.00258e-16
1.00982e-16
1.01947e-16
1.02736e-16
1.02522e-16
1.01498e-16
1.00494e-16
9.99825e-17
3.84012e-15
8.01513e-16
2.16407e-16
1.16902e-16
1.01864e-16
9.98609e-17
9.96616e-17
9.97044e-17
9.97946e-17
9.98849e-17
9.98979e-17
9.98377e-17
9.9771e-17
9.97651e-17
5.33012e-15
1.073e-15
2.59592e-16
1.22906e-16
1.0261e-16
9.99496e-17
9.96574e-17
9.96463e-17
9.96657e-17
9.96888e-17
9.97066e-17
9.97204e-17
9.97321e-17
9.97908e-17
5.59578e-15
1.083e-15
2.55105e-16
1.21377e-16
1.02333e-16
9.993e-17
9.96763e-17
9.96675e-17
9.96827e-17
9.97008e-17
9.97178e-17
9.97359e-17
9.97538e-17
9.98551e-17
4.95469e-15
9.23233e-16
2.22773e-16
1.15937e-16
1.01582e-16
9.98623e-17
9.96934e-17
9.96933e-17
9.97089e-17
9.97265e-17
9.97436e-17
9.97616e-17
9.97816e-17
9.99423e-17
3.89152e-15
7.06995e-16
1.84799e-16
1.10273e-16
1.00871e-16
9.98081e-17
9.97148e-17
9.97221e-17
9.97384e-17
9.97558e-17
9.97734e-17
9.97914e-17
9.98152e-17
1.0006e-16
2.81301e-15
5.09145e-16
1.53301e-16
1.06001e-16
1.00384e-16
9.97866e-17
9.97429e-17
9.9754e-17
9.97701e-17
9.97874e-17
9.98054e-17
9.9824e-17
9.98535e-17
1.00228e-16
1.87198e-15
3.52821e-16
1.30766e-16
1.03224e-16
1.00127e-16
9.98225e-17