/*--------------------------------*- C++ -*----------------------------------*\
| =========                 |                                                 |
| \\      /  F ield         | OpenFOAM: The Open Source CFD Toolbox           |
|  \\    /   O peration     | Version:  v2106                                 |
|   \\  /    A nd           | Website:  www.openfoam.com                      |
|    \\/     M anipulation  |                                                 |
\*---------------------------------------------------------------------------*/
FoamFile
{
    version     2.0;
    format      ascii;
    arch        "LSB;label=32;scalar=64";
    class       volScalarField;
    location    "0.000138";
    object      k;
}
// * * * * * * * * * * * * * * * * * * * * * * * * * * * * * * * * * * * * * //

dimensions      [0 2 -2 0 0 0 0];

internalField   nonuniform List<scalar> 
18109
(
0.0258726
0.0130793
0.00742518
0.00367665
0.00220392
0.00158804
0.00130102
0.00583578
0.00210541
0.000860567
0.000307024
0.000166454
0.000136441
0.000135058
0.00388218
0.00123978
0.000388817
0.0001184
3.57993e-05
1.42533e-05
1.13193e-05
0.00652695
0.00237745
0.000803047
0.000236104
5.86477e-05
1.22172e-05
2.47523e-06
0.0101528
0.00374594
0.00121008
0.000337159
7.93397e-05
1.54224e-05
2.40521e-06
0.0139119
0.00483877
0.00147399
0.000387886
8.65282e-05
1.59683e-05
2.3547e-06
0.0188307
0.00607592
0.00171104
0.000416274
8.60535e-05
1.47505e-05
2.06659e-06
0.025945
0.00777215
0.00202796
0.000457441
8.78625e-05
1.42605e-05
2.2485e-06
0.00362341
0.00155937
0.000755316
0.00036644
0.000261424
0.000227207
0.000209413
0.000190744
0.000166855
0.000129477
7.93859e-05
3.76708e-05
2.14839e-05
9.07066e-05
0.00103743
0.000292698
8.4533e-05
2.84028e-05
1.70393e-05
1.62857e-05
1.80212e-05
1.96379e-05
2.00129e-05
1.78942e-05
1.22578e-05
6.34078e-06
9.04131e-06
9.24943e-05
0.00112511
0.000332395
9.6308e-05
2.59776e-05
6.41034e-06
1.90899e-06
1.32686e-06
1.56995e-06
1.85228e-06
1.89369e-06
1.45063e-06
1.02637e-06
6.50847e-06
9.01559e-05
0.00203665
0.000669637
0.000196098
4.97045e-05
1.06538e-05
1.91098e-06
3.21833e-07
1.21462e-07
1.32926e-07
1.55027e-07
1.3687e-07
2.33895e-07
4.18049e-06
6.682e-05
0.00302725
0.000981646
0.0002773
6.73174e-05
1.37726e-05
2.33155e-06
3.17962e-07
3.69107e-08
9.26043e-09
9.59162e-09
1.01824e-08
7.78435e-08
2.29267e-06
3.9997e-05
0.00407861
0.00124703
0.000331411
7.56989e-05
1.46113e-05
2.3365e-06
3.00917e-07
3.04432e-08
2.75676e-09
7.40198e-10
7.58016e-10
2.3103e-08
1.04658e-06
2.06765e-05
0.00548533
0.00154708
0.000379245
8.00762e-05
1.43417e-05
2.13461e-06
2.61792e-07
2.9584e-08
5.97275e-09
2.79904e-09
1.54432e-09
8.16023e-09
4.20147e-07
9.71586e-06
0.00747867
0.0019465
0.000441164
8.63998e-05
1.44011e-05
2.03586e-06
2.83813e-07
7.81469e-08
4.83131e-08
3.2168e-08
1.94933e-08
1.42189e-08
2.00644e-07
4.78151e-06
0.0101248
0.00245099
0.000515194
9.34624e-05
1.46203e-05
2.28968e-06
7.19055e-07
5.26165e-07
4.30901e-07
3.18302e-07
2.11717e-07
1.37013e-07
1.82017e-07
2.43159e-06
0.0136511
0.00313831
0.00062537
0.000107653
1.75177e-05
5.0124e-06
3.87735e-06
3.73544e-06
3.31125e-06
2.64823e-06
1.91669e-06
1.35635e-06
9.68751e-07
1.79287e-06
0.0173762
0.00381536
0.000730514
0.000126203
2.94365e-05
2.01515e-05
2.1955e-05
2.30065e-05
2.16341e-05
1.8621e-05
1.45994e-05
1.12582e-05
8.12004e-06
6.45591e-06
0.0209582
0.00446112
0.000853857
0.000174249
8.2326e-05
9.09457e-05
0.000109743
0.000121729
0.00012125
0.00011194
9.49635e-05
7.86938e-05
5.95379e-05
4.46965e-05
0.0236595
0.00499055
0.00103135
0.00032841
0.000291132
0.00037749
0.000477583
0.000556334
0.000586514
0.000580636
0.000532954
0.00046909
0.000371869
0.00028185
0.0288139
0.00656891
0.00167915
0.000890717
0.00103464
0.00139937
0.00182374
0.00221493
0.0024733
0.00263585
0.00261381
0.0024238
0.00201041
0.00155337
0.10907
0.348911
0.854722
1.67101
2.73007
3.87423
0.0193111
0.0830153
0.266229
0.661479
1.34043
2.26219
0.0163027
0.0828297
0.290827
0.755202
1.53488
2.56175
0.0115432
0.0691861
0.265867
0.723818
1.49678
2.51165
0.00650889
0.0496043
0.211589
0.609183
1.30544
2.24719
0.00391873
0.0308364
0.146256
0.454648
1.03166
1.84707
0.0027468
0.0207348
0.100596
0.324859
0.765244
1.41988
0.00208992
0.0144136
0.0684229
0.224258
0.541759
1.0323
0.00158855
0.00982818
0.0445308
0.1452
0.354691
0.683823
0.00114717
0.00625949
0.026487
0.0843723
0.207342
0.412557
0.000708059
0.00340412
0.0136899
0.0436895
0.110926
0.229852
0.000363222
0.00158994
0.00627421
0.0203705
0.0540731
0.11694
0.00014961
0.000650535
0.00275884
0.00956768
0.02732
0.0640704
6.42345e-05
0.000350279
0.00176376
0.00730722
0.0256068
0.0762489
0.000119338
0.000734259
0.00402867
0.0181359
0.0665323
0.195382
0.000776689
0.00377065
0.0161487
0.0586924
0.178636
0.446746
0.00091515
0.00540711
0.0260556
0.100881
0.307846
0.738735
0.000955369
0.00656106
0.0341844
0.135025
0.402973
0.928513
0.000766753
0.00604602
0.0339755
0.138492
0.414838
0.946827
0.000483447
0.00431139
0.0265085
0.114428
0.354967
0.831395
0.000258578
0.00252171
0.0169981
0.0793245
0.262966
0.646471
0.00012891
0.00131082
0.00974695
0.0516796
0.183489
0.467231
7.05414e-05
0.000757146
0.00592503
0.0314871
0.114682
0.302501
3.84523e-05
0.000409832
0.00313672
0.016734
0.0626403
0.171298
1.95372e-05
0.00020028
0.00143114
0.0074325
0.0287598
0.0824981
1.50753e-05
0.00012132
0.000767076
0.00368427
0.0137821
0.0395807
5.04227e-05
0.000239652
0.001089
0.00431237
0.0144223
0.0403299
0.000298332
0.00116827
0.00431869
0.0143793
0.0422764
0.108146
0.0016356
0.00566251
0.0182874
0.0534477
0.137317
0.306607
0.00761773
0.0220793
0.0596564
0.147189
0.326257
0.641963
0.00952288
0.0306998
0.0889366
0.22841
0.510297
0.98043
0.0109772
0.0379471
0.114307
0.295103
0.646423
1.20276
0.0112171
0.0401493
0.12248
0.314623
0.678798
1.24121
0.0105059
0.0375549
0.114108
0.291229
0.625275
1.14073
0.00914898
0.0318143
0.0952005
0.241561
0.518716
0.948192
0.00771999
0.0256233
0.0738846
0.183717
0.392644
0.721136
0.00614783
0.0195859
0.0543732
0.131445
0.276849
0.507711
0.00464785
0.0141653
0.0376848
0.087975
0.180095
0.32192
0.00342137
0.00995321
0.0253103
0.0569258
0.11322
0.198539
0.00270478
0.00775101
0.019888
0.0461619
0.097232
0.188552
0.0036437
0.0111839
0.031951
0.0822396
0.190135
0.393647
0.0115048
0.034968
0.0966782
0.234197
0.498049
0.931974
0.0537507
0.134213
0.305009
0.615079
1.11065
1.79239
0.0176563
0.0412114
0.0913093
0.1886
0.352532
0.587418
0.0120435
0.0322977
0.0845608
0.207996
0.463334
0.911624
0.0182154
0.0584341
0.172622
0.446509
0.971721
1.76016
0.0754278
0.212792
0.52471
1.08505
1.9158
2.94096
0.103032
0.260162
0.567197
1.06911
1.77506
2.62124
0.101352
0.27501
0.623951
1.19815
1.98897
2.93446
0.0884836
0.254218
0.596944
1.16679
1.94993
2.88087
0.0700495
0.210683
0.51177
1.02606
1.74996
2.62303
0.0519787
0.160201
0.400811
0.827982
1.45158
2.22935
0.0363147
0.11279
0.288954
0.616133
1.11762
1.77694
0.0248819
0.0758384
0.195954
0.431979
0.829331
1.3438
0.016886
0.0493352
0.126906
0.293316
0.571691
0.955287
0.0117444
0.0324793
0.0817697
0.188969
0.376229
0.648439
0.00847152
0.022136
0.0538571
0.122016
0.241974
0.407295
0.00598602
0.015203
0.0361285
0.0798056
0.160099
0.276418
0.00375278
0.0100854
0.0260875
0.0648428
0.152049
0.33022
0.00381596
0.012334
0.039513
0.118598
0.314501
0.704632
0.0133826
0.0452296
0.137462
0.357048
0.783055
1.45752
3.32334
5.84747
8.46296
10.4812
11.0673
3.73341
6.17445
8.78278
10.8985
10.4552
3.66573
6.09687
9.04455
11.5635
10.6312
3.35347
5.73926
8.86263
11.5471
10.7109
2.84201
4.88593
7.68458
10.2699
9.95572
2.28282
3.75403
5.95365
8.31899
8.63327
1.6794
2.65777
4.22039
6.35635
7.30891
1.14651
1.76557
2.77458
4.63532
6.4036
5.97763
0.733866
1.10909
1.70729
3.20362
5.52431
6.00592
0.430432
0.650668
0.98977
2.0627
4.47391
5.83087
0.224086
0.366227
0.626519
1.37547
3.39544
5.63352
6.4745
0.13282
0.321275
0.726491
1.46675
2.91634
5.577
8.621
5.64285
0.194722
0.63875
1.49125
2.68436
4.10842
6.45985
13.951
18.2078
0.463186
1.39283
2.9354
4.87525
6.89434
9.17863
17.3858
40.3156
0.929592
2.38993
4.48848
6.8158
8.84524
10.6905
17.5185
60.1906
1.42357
3.17941
5.41016
7.71947
9.28778
9.41092
12.6112
51.5834
1.70896
3.50469
5.79459
8.38375
10.049
8.77652
8.36728
36.8844
1.7224
3.46674
5.93237
9.08842
11.2024
9.16359
7.61579
20.8582
1.54481
3.11114
5.55269
8.92367
11.1689
8.84862
7.27033
14.3739
1.23957
2.50081
4.58411
7.68401
9.78624
7.97153
6.67806
13.0722
0.926487
1.86038
3.4205
5.92312
8.01179
7.05133
6.28499
11.1252
0.631294
1.26484
2.32306
4.19324
6.52626
6.53445
6.28467
7.84736
0.377406
0.771408
1.41544
2.72633
5.09288
6.0339
0.189679
0.40802
0.770931
1.59393
3.59696
5.38526
0.0901373
0.22474
0.480389
1.01705
2.43444
4.78373
0.0956742
0.296281
0.697298
1.32713
2.38437
4.61155
0.241796
0.718874
1.56767
2.69136
3.94373
5.95002
0.595476
1.54157
3.01774
4.79094
6.57273
1.1253
2.53952
4.46861
6.50722
8.18928
1.63814
3.27708
5.28539
7.277
8.40941
1.93772
3.59182
5.66923
7.90086
8.83588
1.97363
3.57503
5.81818
8.46405
9.45152
1.8047
3.27422
5.50377
8.3026
9.23539
1.48995
2.71566
4.66783
7.30919
8.17946
1.12453
2.05696
3.61434
5.92109
6.87138
0.773502
1.42283
2.51539
4.4435
5.89529
0.479005
0.907741
1.62466
3.12744
5.14
0.307847
0.634506
1.19938
2.40642
4.71025
0.344612
0.822175
1.59358
2.75272
4.89962
0.731664
1.68342
2.99237
4.42683
6.29815
1.5493
3.17598
5.14667
7.02258
8.79481
2.62491
4.81698
7.17172
9.15989
10.5918
3.55338
5.87126
8.16193
9.92049
10.2965
3.95533
6.16182
8.47104
10.2404
9.50529
3.91118
6.13961
8.74381
10.7505
9.34888
3.63957
5.81634
8.49524
10.7619
9.21247
3.12334
4.98303
7.4027
9.79688
8.70169
2.4814
3.89558
5.88182
8.3081
7.85269
1.8659
2.80994
4.32168
6.71943
7.05301
1.34014
1.93761
2.99476
5.21367
6.67622
0.907553
1.28606
2.03576
4.02734
6.45521
0.561807
0.87872
1.56717
3.33222
6.24206
0.439287
0.925411
1.83124
3.4436
6.28234
0.661151
1.62441
3.02485
4.72129
7.16533
1.33215
3.00088
5.08905
7.17979
9.2975
2.34258
4.66478
7.26906
9.53376
11.2148
0.000194462
7.61143e-05
3.37928e-05
2.00352e-05
1.88031e-05
1.95193e-05
2.04465e-05
2.05832e-05
1.93478e-05
1.60328e-05
1.04978e-05
5.12041e-06
2.13721e-06
3.41136e-06
0.000108983
2.72197e-05
6.8463e-06
2.13685e-06
1.24841e-06
1.32553e-06
1.65732e-06
1.98385e-06
2.15509e-06
2.02862e-06
1.48416e-06
7.61658e-07
4.42819e-07
3.12841e-06
0.000185817
5.19236e-05
1.35297e-05
3.17332e-06
6.71039e-07
1.70724e-07
1.17784e-07
1.50016e-07
1.86878e-07
1.99037e-07
1.60781e-07
9.16121e-08
2.05559e-07
3.51314e-06
0.000347007
0.000102164
2.65108e-05
5.96468e-06
1.14127e-06
1.84305e-07
2.84878e-08
1.09517e-08
1.27289e-08
1.52852e-08
1.37326e-08
1.11414e-08
1.35466e-07
3.0326e-06
0.000515681
0.00014913
3.75635e-05
8.1329e-06
1.49229e-06
2.28338e-07
2.8575e-08
3.15089e-09
8.43679e-10
9.10601e-10
9.07742e-10
2.04858e-09
8.07238e-08
2.06426e-06
0.000693787
0.000188868
4.4681e-05
9.09583e-06
1.57314e-06
2.27099e-07
2.6788e-08
2.53431e-09
2.1989e-10
6.15389e-11
5.54579e-11
5.72994e-10
3.92332e-08
1.17797e-06
0.000915756
0.000228896
4.98042e-05
9.35075e-06
1.49652e-06
2.00561e-07
2.23302e-08
2.22826e-09
3.49354e-10
1.37785e-10
7.04879e-11
2.60151e-10
1.92543e-08
6.24166e-07
0.00120805
0.000277141
5.54584e-05
9.60082e-06
1.41845e-06
1.78707e-07
2.17671e-08
4.95468e-09
2.74254e-09
1.68279e-09
9.35002e-10
5.8767e-10
1.01297e-08
3.31856e-07
0.00156374
0.000330779
6.09025e-05
9.70517e-06
1.3401e-06
1.84806e-07
5.21605e-08
3.5651e-08
2.75752e-08
1.87515e-08
1.13224e-08
6.43995e-09
9.10622e-09
1.75765e-07
0.00196313
0.000390687
6.75227e-05
1.0111e-05
1.45439e-06
4.05437e-07
3.17439e-07
2.90652e-07
2.43245e-07
1.78073e-07
1.16235e-07
7.19576e-08
4.59264e-08
1.1661e-07
0.00230085
0.000432087
7.12006e-05
1.07695e-05
2.49879e-06
1.91545e-06
2.09709e-06
2.07455e-06
1.83809e-06
1.44181e-06
1.01411e-06
6.83007e-07
4.30269e-07
3.18331e-07
0.00251278
0.000452
7.41882e-05
1.44191e-05
8.42487e-06
1.02103e-05
1.22297e-05
1.27619e-05
1.19635e-05
1.00351e-05
7.60106e-06
5.50869e-06
3.63703e-06
2.37617e-06
0.00249468
0.000444038
8.26612e-05
3.20816e-05
3.6218e-05
4.94388e-05
6.20276e-05
6.79894e-05
6.74438e-05
6.04907e-05
4.93987e-05
3.81473e-05
2.6408e-05
1.73524e-05
0.00267493
0.000532308
0.0001436
0.000109278
0.000150859
0.000212392
0.00027524
0.000315782
0.000331881
0.000319483
0.000281664
0.000229642
0.000166149
0.000111182
1.42292e-05
4.71153e-06
2.42692e-06
2.18207e-06
2.51226e-06
2.94983e-06
3.39554e-06
3.68019e-06
3.64376e-06
3.15086e-06
2.16324e-06
1.08606e-06
4.23149e-07
2.71646e-07
1.72081e-05
4.19018e-06
1.00565e-06
2.86943e-07
1.70092e-07
2.01347e-07
2.74532e-07
3.48472e-07
3.94695e-07
3.83513e-07
2.89521e-07
1.53392e-07
6.23219e-08
1.49432e-07
3.64386e-05
9.45453e-06
2.23172e-06
4.73914e-07
9.19736e-08
2.35523e-08
1.8902e-08
2.59747e-08
3.35745e-08
3.65556e-08
3.00485e-08
1.70019e-08
1.32556e-08
1.80234e-07
6.96683e-05
1.87209e-05
4.42523e-06
9.10304e-07
1.60653e-07
2.43482e-08
3.78899e-09
1.7827e-09
2.25867e-09
2.75565e-09
2.48261e-09
1.59658e-09
7.03219e-09
1.86651e-07
0.000105714
2.78528e-05
6.39117e-06
1.26692e-06
2.1462e-07
3.07139e-08
3.66587e-09
4.14839e-10
1.42756e-10
1.65256e-10
1.62763e-10
1.64929e-10
4.72154e-09
1.55027e-07
0.000140861
3.49336e-05
7.54682e-06
1.41103e-06
2.26e-07
3.06025e-08
3.44195e-09
3.20091e-10
3.12881e-11
1.2496e-11
1.18382e-11
3.82692e-11
2.82104e-09
1.05962e-07
0.000177339
4.05123e-05
8.08012e-06
1.3992e-06
2.08191e-07
2.62742e-08
2.78688e-09
2.63521e-10
3.6152e-11
1.37354e-11
8.2169e-12
2.15997e-11
1.73032e-09
6.78306e-08
0.000218471
4.58367e-05
8.42018e-06
1.34745e-06
1.85664e-07
2.20142e-08
2.47435e-09
4.74059e-10
2.30637e-10
1.32133e-10
6.96999e-11
4.40087e-11
1.04878e-09
4.10578e-08
0.000259726
5.02174e-05
8.51086e-06
1.25875e-06
1.62402e-07
2.07806e-08
5.25655e-09
3.31936e-09
2.41555e-09
1.52467e-09
8.49291e-10
4.39793e-10
8.96214e-10
2.41214e-08
0.000294932
5.33908e-05
8.46216e-06
1.17467e-06
1.59197e-07
4.35989e-08
3.34761e-08
2.91935e-08
2.29803e-08
1.54946e-08
9.24133e-09
5.10252e-09
3.15985e-09
1.50121e-08
0.000309975
5.30315e-05
8.00387e-06
1.12823e-06
2.74043e-07
2.27554e-07
2.43796e-07
2.28315e-07
1.89253e-07
1.35828e-07
8.65607e-08
5.15724e-08
2.90396e-08
2.35795e-08
0.000296093
4.86572e-05
7.3923e-06
1.49047e-06
1.07684e-06
1.36689e-06
1.58319e-06
1.55305e-06
1.35364e-06
1.03236e-06
7.01719e-07
4.47115e-07
2.61237e-07
1.5477e-07
0.00025279
4.16628e-05
7.71742e-06
3.96928e-06
5.34464e-06
7.44382e-06
8.99395e-06
9.20503e-06
8.43244e-06
6.82165e-06
4.9419e-06
3.34097e-06
2.03341e-06
1.19662e-06
0.000233047
4.47429e-05
1.48698e-05
1.61344e-05
2.50915e-05
3.59796e-05
4.49191e-05
4.78621e-05
4.61263e-05
3.96342e-05
3.06842e-05
2.18444e-05
1.37611e-05
8.1829e-06
1.35236e-06
3.80216e-07
2.16065e-07
2.38543e-07
3.2005e-07
4.21928e-07
5.31865e-07
6.18153e-07
6.42506e-07
5.7411e-07
4.05771e-07
2.12417e-07
8.26599e-08
3.3307e-08
2.70369e-06
6.19846e-07
1.36384e-07
3.55606e-08
2.19231e-08
2.91359e-08
4.31739e-08
5.80588e-08
6.83942e-08
6.81884e-08
5.24078e-08
2.88413e-08
1.10379e-08
8.45892e-09
6.11892e-06
1.46945e-06
3.18221e-07
6.20303e-08
1.12423e-08
3.0351e-09
2.91411e-09
4.30904e-09
5.76988e-09
6.40386e-09
5.31151e-09
3.0726e-09
1.40111e-09
8.0751e-09
1.18891e-05
2.93538e-06
6.37404e-07
1.21149e-07
1.99568e-08
2.87537e-09
4.70463e-10
2.84178e-10
3.88685e-10
4.8063e-10
4.33499e-10
2.68873e-10
3.60539e-10
9.38588e-09
1.82119e-05
4.40485e-06
9.30571e-07
1.70932e-07
2.70694e-08
3.66489e-09
4.237e-10
5.31161e-11
2.58827e-11
3.13308e-11
3.07439e-11
2.29955e-11
2.26706e-10
9.07852e-09
2.38035e-05
5.43294e-06
1.08466e-06
1.88559e-07
2.83093e-08
3.63475e-09
3.95193e-10
3.8692e-11
6.68608e-12
4.78023e-12
4.73464e-12
5.59652e-12
1.66508e-10
7.46064e-09
2.84957e-05
6.02421e-06
1.11625e-06
1.80557e-07
2.52802e-08
3.0359e-09
3.11882e-10
3.08665e-11
6.30441e-12
4.10526e-12
3.67821e-12
4.40685e-12
1.27315e-10
5.84958e-09
3.25771e-05
6.3563e-06
1.09001e-06
1.63591e-07
2.12886e-08
2.40268e-09
2.55704e-10
4.45204e-11
2.06102e-11
1.24201e-11
7.70029e-12
5.98217e-12
9.2444e-11
4.04228e-09
3.54708e-05
6.39763e-06
1.01577e-06
1.41438e-07
1.72723e-08
2.0764e-09
4.7353e-10
2.77286e-10
1.91036e-10
1.14171e-10
6.05434e-11
3.07489e-11
8.75586e-11
2.7626e-09
3.64292e-05
6.15069e-06
9.14278e-07
1.19758e-07
1.54134e-08
4.08685e-09
3.03914e-09
2.53764e-09
1.8838e-09
1.18251e-09
6.5247e-10
3.29206e-10
2.19213e-10
1.87373e-09
3.40974e-05
5.44134e-06
7.70025e-07
1.03459e-07
2.62679e-08
2.28519e-08
2.37375e-08
2.12064e-08
1.64778e-08
1.09184e-08
6.38629e-09
3.4308e-09
1.76618e-09
1.93262e-09
2.86665e-05
4.41472e-06
6.35332e-07
1.37165e-07
1.17198e-07
1.50824e-07
1.67313e-07
1.55766e-07
1.264e-07
8.83111e-08
5.46981e-08
3.12226e-08
1.64061e-08
9.10143e-09
2.12697e-05
3.33277e-06
6.42872e-07
4.38323e-07
6.54853e-07
9.06517e-07
1.04129e-06
1.00634e-06
8.51742e-07
6.26257e-07
4.09772e-07
2.46593e-07
1.34175e-07
7.16993e-08
1.72924e-05
3.33374e-06
1.46639e-06
2.07085e-06
3.42156e-06
4.85677e-06
5.73761e-06
5.73762e-06
5.06378e-06
3.91938e-06
2.70966e-06
1.70641e-06
9.54348e-07
5.13287e-07
1.51583e-07
3.69132e-08
1.91361e-08
2.36036e-08
3.59994e-08
5.27946e-08
7.24469e-08
8.99414e-08
9.80367e-08
9.04347e-08
6.5217e-08
3.55135e-08
1.41599e-08
4.85144e-09
3.73929e-07
8.03026e-08
1.63312e-08
3.92432e-09
2.50965e-09
3.70262e-09
5.91833e-09
8.41451e-09
1.03094e-08
1.05465e-08
8.21111e-09
4.65795e-09
1.83188e-09
7.46923e-10
8.69401e-07
1.94794e-07
3.92182e-08
7.11502e-09
1.2216e-09
3.54514e-10
3.98873e-10
6.27124e-10
8.67932e-10
9.82668e-10
8.21112e-10
4.85292e-10
1.99721e-10
3.62674e-10
1.70344e-06
3.90373e-07
7.87527e-08
1.39793e-08
2.17283e-09
3.02275e-10
5.54185e-11
4.28123e-11
6.09796e-11
7.58338e-11
6.87426e-11
4.37799e-11
2.87087e-11
4.222e-10
2.60454e-06
5.85749e-07
1.15364e-07
1.98514e-08
2.96991e-09
3.85605e-10
4.58489e-11
8.75996e-12
6.55522e-12
7.5444e-12
7.44204e-12
6.06439e-12
1.40398e-11
4.69719e-10
3.30354e-06
7.03723e-07
1.31564e-07
2.15108e-08
3.05917e-09
3.77528e-10
4.23039e-11
6.75963e-12
3.65888e-12
3.50018e-12
3.49974e-12
3.50912e-12
1.24384e-11
4.65676e-10
3.74201e-06
7.41814e-07
1.2934e-07
1.97743e-08
2.63451e-09
3.0595e-10
3.30979e-11
5.86054e-12
3.53598e-12
3.34377e-12
3.31496e-12
3.36772e-12
1.1585e-11
4.29735e-10
3.96179e-06
7.27907e-07
1.1794e-07
1.67996e-08
2.08863e-09
2.29022e-10
2.58442e-11
6.48451e-12
4.43412e-12
3.84636e-12
3.53923e-12
3.46224e-12
1.05591e-11
3.47344e-10
3.95348e-06
6.73233e-07
1.01324e-07
1.34412e-08
1.57317e-09
1.82273e-10
3.98946e-11
2.28241e-11
1.58586e-11
1.02675e-11
6.63051e-12
4.82471e-12
1.11195e-11
2.79701e-10
3.68326e-06
5.88148e-07
8.30547e-08
1.0398e-08
1.28835e-09
3.33293e-10
2.39574e-10
1.91585e-10
1.34851e-10
8.0509e-11
4.2576e-11
2.14665e-11
1.84485e-11
2.19713e-10
3.09198e-06
4.67679e-07
6.29928e-08
8.19364e-09
2.19239e-09
1.96208e-09
1.96767e-09
1.67349e-09
1.21916e-09
7.53051e-10
4.07179e-10
2.0113e-10
9.91515e-11
1.82739e-10
2.32e-06
3.40548e-07
4.72771e-08
1.12438e-08
1.09722e-08
1.40206e-08
1.48707e-08
1.31092e-08
9.90818e-09
6.40165e-09
3.63664e-09
1.88425e-09
9.02736e-10
4.99723e-10
1.52701e-06
2.31687e-07
4.86519e-08
4.29776e-08
6.77858e-08
9.16865e-08
1.00018e-07
9.10453e-08
7.13199e-08
4.81494e-08
2.87024e-08
1.55837e-08
7.67624e-09
3.77564e-09
1.1256e-06
2.26604e-07
1.36544e-07
2.3001e-07
3.88705e-07
5.36397e-07
5.98388e-07
5.60437e-07
4.545e-07
3.20316e-07
1.99868e-07
1.12888e-07
5.69107e-08
2.79887e-08
1.61298e-08
3.48801e-09
1.55539e-09
2.04032e-09
3.48991e-09
5.65862e-09
8.42063e-09
1.11428e-08
1.27324e-08
1.21244e-08
8.9051e-09
4.97097e-09
2.04992e-09
6.8025e-10
4.3697e-08
8.82866e-09
1.68112e-09
3.77756e-10
2.50947e-10
4.06322e-10
6.9568e-10
1.0431e-09
1.32925e-09
1.39627e-09
1.10195e-09
6.3766e-10
2.61219e-10
9.04383e-11
1.03734e-07
2.18582e-08
4.13864e-09
7.08814e-10
1.18653e-10
3.90905e-11
4.96085e-11
8.06703e-11
1.1426e-10
1.31716e-10
1.11433e-10
6.77618e-11
2.96772e-11
2.29417e-11
2.0465e-07
4.39944e-08
8.34135e-09
1.3988e-09
2.09139e-10
3.06414e-11
8.48472e-12
8.11018e-12
1.06884e-11
1.27477e-11
1.18507e-11
8.60239e-12
5.85193e-12
2.23539e-11
3.11576e-07
6.58795e-08
1.22309e-08
1.9935e-09
2.86617e-10
3.83305e-11
7.08667e-12
3.82119e-12
3.68923e-12
3.83325e-12
3.81961e-12
3.63333e-12
3.93488e-12
2.78864e-11
3.83079e-07
7.70269e-08
1.3636e-08
2.12031e-09
2.9065e-10
3.71337e-11
6.70599e-12
3.5792e-12
3.3143e-12
3.30404e-12
3.30464e-12
3.30117e-12
3.85897e-12
3.25274e-11
4.11696e-07
7.74055e-08
1.284e-08
1.8766e-09
2.42535e-10
2.98655e-11
5.8267e-12
3.49109e-12
3.29588e-12
3.28095e-12
3.27945e-12
3.2839e-12
3.87791e-12
3.46009e-11
4.05498e-07
7.10033e-08
1.09905e-08
1.50357e-09
1.82701e-10
2.20742e-11
5.07385e-12
3.49779e-12
3.34278e-12
3.30674e-12
3.29011e-12
3.28946e-12
3.89421e-12
3.25299e-11
3.72534e-07
6.07012e-08
8.76562e-09
1.12233e-09
1.29547e-10
1.69912e-11
5.74764e-12
4.45714e-12
3.99131e-12
3.65246e-12
3.44609e-12
3.35671e-12
4.02709e-12
3.06836e-11
3.16506e-07
4.8509e-08
6.59527e-09
8.00213e-10
9.80999e-11
2.60899e-11
1.8728e-11
1.50379e-11
1.10634e-11
7.58613e-12
5.32053e-12
4.16369e-12
4.45167e-12
2.76617e-11
2.40532e-07
3.50312e-08
4.55458e-09
5.79718e-10
1.60174e-10
1.43524e-10
1.39041e-10
1.13428e-10
7.8926e-11
4.7052e-11
2.51706e-11
1.31741e-11
8.0948e-12
2.19948e-11
1.62952e-07
2.31442e-08
3.14266e-09
8.15474e-10
8.62882e-10
1.08245e-09
1.10078e-09
9.21605e-10
6.54599e-10
3.95934e-10
2.09422e-10
1.01205e-10
4.64378e-11
3.04996e-11
9.66085e-08
1.43968e-08
3.35943e-09
3.60368e-09
5.80934e-09
7.62896e-09
7.92983e-09
6.81326e-09
4.98217e-09
3.1214e-09
1.71251e-09
8.50758e-10
3.85335e-10
1.79354e-10
6.57338e-08
1.42805e-08
1.14813e-08
2.1447e-08
3.6294e-08
4.83578e-08
5.10907e-08
4.48958e-08
3.37707e-08
2.19139e-08
1.24823e-08
6.40947e-09
2.95187e-09
1.34617e-09
1.51676e-09
3.01068e-10
1.15535e-10
1.54701e-10
2.91006e-10
5.16107e-10
8.27341e-10
1.16287e-09
1.39132e-09
1.36774e-09
1.02429e-09
5.83163e-10
2.48003e-10
8.5289e-11
4.31824e-09
8.29057e-10
1.51253e-10
3.41165e-11
2.41587e-11
4.04268e-11
7.156e-11
1.11428e-10
1.46854e-10
1.58314e-10
1.27377e-10
7.59261e-11
3.35543e-11
1.3251e-11
1.04653e-08
2.09073e-09
3.77477e-10
6.38727e-11
1.27943e-11
6.44005e-12
7.86842e-12
1.13626e-11
1.52755e-11
1.74868e-11
1.53765e-11
1.05593e-11
6.30857e-12
4.68137e-12
2.07446e-08
4.22251e-09
7.61686e-10
1.24097e-10
2.03453e-11
5.4782e-12
3.73453e-12
3.7771e-12
4.07753e-12
4.31936e-12
4.22676e-12
3.86881e-12
3.54039e-12
4.18291e-12
3.13699e-08
6.29505e-09
1.11405e-09
1.75912e-10
2.6882e-11
6.09883e-12
3.57607e-12
3.32283e-12
3.31867e-12
3.33585e-12
3.33461e-12
3.31391e-12
3.31789e-12
4.56623e-12
3.73876e-08
7.16328e-09
1.21385e-09
1.83489e-10
2.68474e-11
5.96691e-12
3.54107e-12
3.29789e-12
3.27782e-12
3.27741e-12
3.27761e-12
3.27717e-12
3.3094e-12
5.03612e-12
3.82167e-08
6.87967e-09
1.09797e-09
1.57138e-10
2.22903e-11
5.33103e-12
3.46781e-12
3.29052e-12
3.27591e-12
3.27491e-12
3.27495e-12
3.27549e-12
3.31462e-12
5.39933e-12
3.51994e-08
5.93186e-09
8.87733e-10
1.20091e-10
1.68449e-11
4.66109e-12
3.40273e-12
3.2886e-12
3.27815e-12
3.27631e-12
3.27567e-12
3.27618e-12
3.3227e-12
5.53664e-12
2.99542e-08
4.72175e-09
6.63071e-10
8.51442e-11
1.22693e-11
4.20951e-12
3.42021e-12
3.33509e-12
3.3093e-12
3.29244e-12
3.28286e-12
3.27972e-12
3.34141e-12
5.71777e-12
2.3388e-08
3.48322e-09
4.63249e-10
5.74547e-11
9.47653e-12
4.61713e-12
4.11407e-12
3.88644e-12
3.66202e-12
3.47909e-12
3.36685e-12
3.31425e-12
3.37165e-12
5.71476e-12
1.62633e-08
2.311e-09
2.95695e-10
3.93789e-11
1.28099e-11
1.15569e-11
1.10267e-11
9.3105e-12
7.22001e-12
5.43596e-12
4.28912e-12
3.70401e-12
3.51366e-12
5.16988e-12
1.00805e-08
1.40348e-09
1.90095e-10
5.38967e-11
5.87911e-11
7.14784e-11
7.00742e-11
5.66347e-11
3.91105e-11
2.36196e-11
1.32462e-11
7.66829e-12
5.09144e-12
4.92122e-12
5.46379e-09
8.09055e-10
2.09914e-10
2.5478e-10
4.10602e-10
5.22398e-10
5.19788e-10
4.24464e-10
2.93287e-10
1.73378e-10
8.98871e-11
4.29478e-11
1.9806e-11
1.06173e-11
3.47337e-09
8.29529e-10
8.38543e-10
1.65519e-09
2.77166e-09
3.55982e-09
3.57717e-09
2.96636e-09
2.08948e-09
1.26274e-09
6.65642e-10
3.16295e-10
1.36095e-10
5.99181e-11
1.24847e-10
2.54974e-11
1.04163e-11
1.29401e-11
2.34835e-11
4.26106e-11
7.12119e-11
1.04613e-10
1.30135e-10
1.31907e-10
1.01308e-10
5.97007e-11
2.74949e-11
1.15477e-11
3.62189e-10
6.8703e-11
1.43921e-11
5.44682e-12
4.76958e-12
6.16473e-12
8.93843e-12
1.27179e-11
1.63185e-11
1.77522e-11
1.50416e-11
1.02378e-11
6.22694e-12
4.25425e-12
8.91128e-10
1.71864e-10
3.20662e-11
7.7254e-12
3.94726e-12
3.51202e-12
3.65648e-12
3.98228e-12
4.36172e-12
4.59334e-12
4.41149e-12
3.96408e-12
3.56555e-12
3.38433e-12
1.77289e-09
3.45904e-10
6.20329e-11
1.2237e-11
4.49179e-12
3.42619e-12
3.30795e-12
3.31688e-12
3.34594e-12
3.36993e-12
3.36229e-12
3.32931e-12
3.29815e-12
3.31606e-12
2.65843e-09
5.11618e-10
8.91382e-11
1.60913e-11
4.96504e-12
3.46947e-12
3.29359e-12
3.27672e-12
3.27706e-12
3.27891e-12
3.279e-12
3.27732e-12
3.27673e-12
3.33513e-12
3.07361e-09
5.66789e-10
9.48118e-11
1.64144e-11
4.93842e-12
3.45834e-12
3.2911e-12
3.27477e-12
3.27354e-12
3.2737e-12
3.27389e-12
3.27408e-12
3.27594e-12
3.36723e-12
2.99617e-09
5.21892e-10
8.29963e-11
1.41287e-11
4.5785e-12
3.41134e-12
3.28614e-12
3.27452e-12
3.27365e-12
3.27375e-12
3.27392e-12
3.2742e-12
3.27672e-12
3.39987e-12
2.59524e-09
4.25889e-10
6.44385e-11
1.11343e-11
4.16565e-12
3.36304e-12
3.28179e-12
3.27463e-12
3.2741e-12
3.27418e-12
3.27433e-12
3.27464e-12
3.27806e-12
3.42753e-12
2.06094e-09
3.1876e-10
4.62855e-11
8.49053e-12
3.8354e-12
3.33032e-12
3.28171e-12
3.27689e-12
3.27579e-12
3.27526e-12
3.27509e-12
3.2753e-12
3.28047e-12
3.46499e-12
1.49299e-09
2.20059e-10
3.13344e-11
6.514e-12
3.63212e-12
3.34241e-12
3.31275e-12
3.30133e-12
3.29107e-12
3.28327e-12
3.27885e-12
3.27717e-12
3.28348e-12
3.48696e-12
9.61399e-10
1.36783e-10
1.98884e-11
5.27395e-12
3.76739e-12
3.68105e-12
3.64296e-12
3.55143e-12
3.44849e-12
3.36604e-12
3.31606e-12
3.29236e-12
3.28899e-12
3.44824e-12
5.53519e-10
7.85768e-11
1.31743e-11
5.97401e-12
6.24554e-12
6.84028e-12
6.65057e-12
5.86293e-12
4.93336e-12
4.16901e-12
3.68852e-12
3.44687e-12
3.34513e-12
3.38954e-12
2.79833e-10
4.37982e-11
1.44145e-11
1.79066e-11
2.68614e-11
3.24568e-11
3.11724e-11
2.49793e-11
1.74534e-11
1.11255e-11
7.023e-12
4.87858e-12
3.90046e-12
3.55864e-12
1.68699e-10
4.63792e-11
5.49792e-11
1.08759e-10
1.77381e-10
2.18936e-10
2.10102e-10
1.65858e-10
1.1121e-10
6.4429e-11
3.32725e-11
1.64645e-11
8.48379e-12
5.38298e-12
1.15356e-11
4.69017e-12
3.66554e-12
3.80116e-12
4.485e-12
5.83841e-12
8.01601e-12
1.07475e-11
1.30367e-11
1.34693e-11
1.11782e-11
7.86923e-12
5.26902e-12
3.96529e-12
2.84052e-11
7.64479e-12
3.97713e-12
3.39957e-12
3.36066e-12
3.46059e-12
3.66738e-12
3.96581e-12
4.26857e-12
4.40833e-12
4.20937e-12
3.83117e-12
3.51168e-12
3.35218e-12
6.66413e-11
1.47591e-11
5.14565e-12
3.5475e-12
3.31027e-12
3.28517e-12
3.29707e-12
3.32265e-12
3.35359e-12
3.37388e-12
3.36104e-12
3.32624e-12
3.29498e-12
3.27995e-12
1.30439e-10
2.67881e-11
7.13219e-12
3.83621e-12
3.34424e-12
3.27923e-12
3.2726e-12
3.27377e-12
3.27633e-12
3.27856e-12
3.27827e-12
3.27595e-12
3.27372e-12
3.27393e-12
1.92498e-10
3.79802e-11
8.90143e-12
4.08066e-12
3.37385e-12
3.28217e-12
3.27187e-12
3.27111e-12
3.27138e-12
3.27177e-12
3.27201e-12
3.27214e-12
3.2723e-12
3.27489e-12
2.15762e-10
4.07918e-11
9.14884e-12
4.08728e-12
3.37125e-12
3.28179e-12
3.27209e-12
3.27134e-12
3.27147e-12
3.27171e-12
3.27195e-12
3.27222e-12
3.27255e-12
3.27694e-12
2.01316e-10
3.64542e-11
8.21505e-12
3.92545e-12
3.34791e-12
3.27926e-12
3.27221e-12
3.27174e-12
3.27188e-12
3.27211e-12
3.27233e-12
3.2726e-12
3.27298e-12
3.27949e-12
1.65368e-10
2.89515e-11
6.89129e-12
3.72576e-12
3.32216e-12
3.27678e-12
3.27241e-12
3.27221e-12
3.27237e-12
3.27259e-12
3.27282e-12
3.27308e-12
3.27355e-12
3.28254e-12
1.24118e-10
2.13708e-11
5.68734e-12
3.55942e-12
3.3026e-12
3.2753e-12
3.27286e-12
3.2728e-12
3.27295e-12
3.27315e-12
3.27338e-12
3.27365e-12
3.27428e-12
3.28689e-12
8.50904e-11
1.49582e-11
4.75971e-12
3.44159e-12
3.29086e-12
3.27591e-12
3.27456e-12
3.27426e-12
3.27407e-12
3.27401e-12
3.27409e-12
3.27433e-12
3.27511e-12
3.29047e-12
5.2422e-11
1.00226e-11
4.10142e-12
3.37048e-12
3.29514e-12
3.29018e-12
3.2883e-12
3.28451e-12
3.28053e-12
3.27759e-12
3.276e-12
3.27549e-12
3.27598e-12
3.28903e-12
2.97239e-11
6.8505e-12
3.73697e-12
3.3966e-12
3.40632e-12
3.42918e-12
3.41667e-12
3.37971e-12
3.3394e-12
3.30829e-12
3.28988e-12
3.28132e-12
3.27829e-12
3.28422e-12
1.57571e-11
5.08871e-12
3.79309e-12
3.98404e-12
4.40773e-12
4.63723e-12
4.53089e-12
4.21166e-12
3.8591e-12
3.58283e-12
3.41446e-12
3.33201e-12
3.29704e-12
3.28727e-12
1.03499e-11
5.265e-12
5.97644e-12
8.87391e-12
1.23512e-11
1.41235e-11
1.32375e-11
1.07343e-11
7.97237e-12
5.79169e-12
4.43684e-12
3.75519e-12
3.45424e-12
3.3464e-12
3.74041e-12
3.34067e-12
3.28239e-12
3.28889e-12
3.32673e-12
3.40753e-12
3.54645e-12
3.73218e-12
3.90025e-12
3.94731e-12
3.80287e-12
3.58071e-12
3.40404e-12
3.31488e-12
4.75592e-12
3.51179e-12
3.30208e-12
3.27074e-12
3.26914e-12
3.27545e-12
3.28869e-12
3.30868e-12
3.33011e-12
3.3413e-12
3.32926e-12
3.30433e-12
3.28306e-12
3.27247e-12
7.09499e-12
3.92829e-12
3.36821e-12
3.27942e-12
3.26703e-12
3.26609e-12
3.26716e-12
3.26911e-12
3.27148e-12
3.27322e-12
3.27271e-12
3.27066e-12
3.2688e-12
3.26799e-12
1.10011e-11
4.63354e-12
3.48052e-12
3.29564e-12
3.26935e-12
3.26625e-12
3.26621e-12
3.26657e-12
3.26701e-12
3.26744e-12
3.2677e-12
3.2678e-12
3.26788e-12
3.26807e-12
1.46704e-11
5.27263e-12
3.57875e-12
3.30932e-12
3.27146e-12
3.26695e-12
3.26668e-12
3.26691e-12
3.26718e-12
3.26748e-12
3.26776e-12
3.26803e-12
3.26827e-12
3.26858e-12
1.5702e-11
5.38156e-12
3.58619e-12
3.30948e-12
3.27181e-12
3.26747e-12
3.26723e-12
3.26745e-12
3.26771e-12
3.26799e-12
3.26825e-12
3.26852e-12
3.26877e-12
3.26916e-12
1.43658e-11
5.06694e-12
3.52705e-12
3.30053e-12
3.27109e-12
3.26789e-12
3.26779e-12
3.26801e-12
3.26826e-12
3.26853e-12
3.26879e-12
3.26904e-12
3.26929e-12
3.26978e-12
1.18812e-11
4.59449e-12
3.44984e-12
3.29001e-12
3.2703e-12
3.26834e-12
3.26837e-12
3.2686e-12
3.26885e-12
3.26911e-12
3.26936e-12
3.2696e-12
3.26985e-12
3.27051e-12
9.32869e-12
4.1552e-12
3.3841e-12
3.28182e-12
3.2699e-12
3.26885e-12
3.26897e-12
3.26921e-12