/*--------------------------------*- C++ -*----------------------------------*\
| =========                 |                                                 |
| \\      /  F ield         | OpenFOAM: The Open Source CFD Toolbox           |
|  \\    /   O peration     | Version:  v2106                                 |
|   \\  /    A nd           | Website:  www.openfoam.com                      |
|    \\/     M anipulation  |                                                 |
\*---------------------------------------------------------------------------*/
FoamFile
{
    version     2.0;
    format      ascii;
    arch        "LSB;label=32;scalar=64";
    class       surfaceScalarField;
    location    "0.000138";
    object      phi;
}
// * * * * * * * * * * * * * * * * * * * * * * * * * * * * * * * * * * * * * //

dimensions      [1 0 -1 0 0 0 0];

internalField   nonuniform List<scalar> 
52765
(
3.03049e-06
8.98215e-07
-3.87041e-07
-9.16775e-07
-3.30482e-06
2.78671e-06
5.18162e-07
-4.90514e-07
2.45163e-06
2.32148e-07
-5.33057e-07
2.05049e-06
-1.06927e-07
-6.04976e-07
1.59253e-06
-3.57329e-07
-6.62782e-07
1.10072e-06
-5.49349e-07
-7.15182e-07
-6.14964e-07
-7.36835e-07
2.54267e-06
8.59723e-07
-3.85371e-07
-2.78896e-06
2.31362e-06
4.4809e-07
-4.74958e-07
2.06508e-06
1.61485e-07
-5.59153e-07
1.75939e-06
-1.42583e-07
-6.2607e-07
1.3916e-06
-3.51124e-07
-6.7273e-07
9.85958e-07
-5.17527e-07
-7.08753e-07
-5.86764e-07
-7.24608e-07
2.13316e-06
6.85323e-07
-4.48833e-07
-2.25449e-06
1.96604e-06
3.07054e-07
-5.1031e-07
1.77441e-06
2.58173e-08
-5.8136e-07
1.52285e-06
-2.35496e-07
-6.33753e-07
1.22495e-06
-4.15759e-07
-6.75581e-07
8.91244e-07
-5.54014e-07
-7.04184e-07
-6.20403e-07
-7.21535e-07
1.76864e-06
3.93872e-07
-5.04317e-07
-1.78415e-06
1.67279e-06
8.46603e-08
-5.50116e-07
1.53162e-06
-1.6853e-07
-6.09175e-07
1.32496e-06
-3.81407e-07
-6.50137e-07
1.07932e-06
-5.40624e-07
-6.86753e-07
8.03288e-07
-6.54075e-07
-7.08381e-07
-7.13986e-07
-7.21715e-07
1.471e-06
-2.53751e-09
-5.69294e-07
1.43817e-06
-2.2699e-07
-6.07813e-07
1.34191e-06
-4.26279e-07
-6.42801e-07
1.17652e-06
-5.82857e-07
-6.74601e-07
9.70834e-07
-7.15306e-07
-7.00157e-07
7.3603e-07
-8.01308e-07
-7.15495e-07
-8.50052e-07
-7.25534e-07
1.23368e-06
-4.53424e-07
-6.05274e-07
1.24662e-06
-5.99328e-07
-6.31449e-07
1.18638e-06
-7.29254e-07
-6.54989e-07
1.06488e-06
-8.34907e-07
-6.8134e-07
8.94576e-07
-9.30108e-07
-6.9919e-07
6.93758e-07
-9.88932e-07
-7.1132e-07
-1.02081e-06
-7.19939e-07
1.08748e-06
-9.43693e-07
-6.34601e-07
1.12204e-06
-1.01053e-06
-6.49155e-07
1.08284e-06
-1.06855e-06
-6.67418e-07
9.85365e-07
-1.12244e-06
-6.87249e-07
8.3739e-07
-1.17032e-06
-6.97335e-07
6.58182e-07
-1.20172e-06
-7.08679e-07
-1.21268e-06
-7.14158e-07
1.02805e-06
-6.26544e-07
1.06635e-06
-6.35903e-07
1.04539e-06
-6.54839e-07
9.64986e-07
-6.69106e-07
8.3411e-07
-6.78728e-07
6.64284e-07
-6.92045e-07
-6.97233e-07
2.5069e-06
6.25953e-07
-6.39087e-07
-2.74448e-06
-7.71105e-08
2.29992e-06
3.14887e-07
-3.77391e-07
-1.68685e-07
2.02906e-06
7.77934e-08
-8.15695e-08
-2.11761e-07
1.70758e-06
-1.9544e-07
2.21971e-07
-2.78491e-07
1.34426e-06
-3.98815e-07
4.52712e-07
-3.31071e-07
9.57382e-07
-5.45634e-07
6.1385e-07
-3.80027e-07
5.69471e-07
-6.04089e-07
6.66695e-07
-4.04139e-07
1.90227e-07
-6.52025e-07
7.06759e-07
-4.11779e-07
-1.87522e-07
-6.32358e-07
6.92143e-07
-3.9803e-07
-5.54273e-07
-5.5393e-07
6.13347e-07
-3.6287e-07
-8.88245e-07
-4.53144e-07
4.99729e-07
-3.15986e-07
-1.1532e-06
-2.75915e-07
2.71584e-07
-2.51238e-07
-1.32317e-06
-1.29608e-07
4.929e-08
-2.1418e-07
1.20676e-07
-2.33578e-07
-1.43948e-06
-1.28066e-07
2.11411e-06
5.78631e-07
-2.31055e-06
-8.24199e-08
1.92768e-06
2.41014e-07
-1.63039e-07
1.7238e-06
6.31814e-09
-2.38951e-07
1.47572e-06
-2.4062e-07
-2.99214e-07
1.18234e-06
-4.12817e-07
-3.43236e-07
8.65192e-07
-5.42315e-07
-3.77513e-07
5.40244e-07
-5.99935e-07
-3.96384e-07
2.12486e-07
-6.46345e-07
-4.05302e-07
-1.07567e-07
-6.26476e-07
-3.94741e-07
-4.06534e-07
-5.57418e-07
-3.68125e-07
-6.71945e-07
-4.69333e-07
-3.31381e-07
-8.88228e-07
-3.21339e-07
-2.74496e-07
-1.065e-06
-1.96684e-07
-2.43283e-07
4.59733e-08
-1.21796e-06
-1.67321e-07
1.80011e-06
4.15389e-07
-1.88993e-06
-1.39088e-07
1.66466e-06
1.09922e-07
-1.94465e-07
1.50766e-06
-1.16638e-07
-2.61327e-07
1.29845e-06
-3.25911e-07
-3.09025e-07
1.05388e-06
-4.74181e-07
-3.50067e-07
7.88722e-07
-5.85145e-07
-3.78896e-07
5.15653e-07
-6.41087e-07
-3.97811e-07
2.31125e-07
-6.76681e-07
-4.08391e-07
-4.21724e-08
-6.64006e-07
-4.01067e-07
-2.88024e-07
-6.11276e-07
-3.78431e-07
-5.06987e-07
-5.29377e-07
-3.4869e-07
-6.90016e-07
-3.97112e-07
-2.95571e-07
-8.37945e-07
-2.89314e-07
-2.72138e-07
-7.14612e-08
-9.41391e-07
-2.03391e-07
1.50894e-06
1.63823e-07
-1.52189e-06
-1.86275e-07
1.42765e-06
-7.83645e-08
-2.34301e-07
1.30686e-06
-2.80583e-07
-2.87975e-07
1.13514e-06
-4.49807e-07
-3.27404e-07
9.35542e-07
-5.81691e-07
-3.63085e-07
7.1379e-07
-6.72306e-07
-3.849e-07
4.81155e-07
-7.21669e-07
-4.00718e-07
2.38018e-07
-7.47176e-07
-4.07618e-07
4.85274e-09
-7.3838e-07
-4.02666e-07
-2.03959e-07
-6.98244e-07
-3.84291e-07
-3.75119e-07
-6.34468e-07
-3.61118e-07
-5.09262e-07
-5.20059e-07
-3.15686e-07
-6.10482e-07
-4.28417e-07
-2.94117e-07
-2.37087e-07
-6.67119e-07
-2.5258e-07
1.28768e-06
-1.60498e-07
-1.24334e-06
-2.38732e-07
1.25246e-06
-3.32661e-07
-2.77213e-07
1.16584e-06
-4.92006e-07
-3.13519e-07
1.02845e-06
-6.19673e-07
-3.4506e-07
8.60804e-07
-7.28174e-07
-3.7339e-07
6.69126e-07
-7.9501e-07
-3.90859e-07
4.6572e-07
-8.33456e-07
-4.04542e-07
2.56486e-07
-8.51194e-07
-4.0913e-07
5.49182e-08
-8.42207e-07
-4.04675e-07
-1.28387e-07
-8.08709e-07
-3.892e-07
-2.77828e-07
-7.61539e-07
-3.70151e-07
-3.88417e-07
-6.68244e-07
-3.32854e-07
-4.6156e-07
-5.97806e-07
-3.12696e-07
-4.54832e-07
-4.6988e-07
-2.89859e-07
1.09466e-06
-5.2071e-07
-1.02532e-06
-2.72518e-07
1.09534e-06
-6.31799e-07
-3.01324e-07
1.0373e-06
-7.35652e-07
-3.28178e-07
9.32734e-07
-8.24007e-07
-3.54524e-07
7.90639e-07
-9.01476e-07
-3.75411e-07
6.25993e-07
-9.46448e-07
-3.89433e-07
4.48468e-07
-9.7166e-07
-4.01124e-07
2.6602e-07
-9.81622e-07
-4.04635e-07
9.18252e-08
-9.72234e-07
-4.01487e-07
-6.55095e-08
-9.43452e-07
-3.89246e-07
-1.92608e-07
-9.10298e-07
-3.73626e-07
-2.8319e-07
-8.37497e-07
-3.46206e-07
-3.44253e-07
-7.81261e-07
-3.25504e-07
-6.92097e-07
-3.37524e-07
-3.13781e-07
9.92409e-07
-9.0544e-07
-9.13191e-07
-2.93718e-07
1.00719e-06
-9.57327e-07
-3.13748e-07
9.63072e-07
-1.00455e-06
-3.37391e-07
8.77248e-07
-1.05431e-06
-3.60399e-07
7.49996e-07
-1.09288e-06
-3.7467e-07
6.01405e-07
-1.1173e-06
-3.88026e-07
4.38712e-07
-1.12593e-06
-3.9703e-07
2.72436e-07
-1.12797e-06
-3.98983e-07
1.14139e-07
-1.11742e-06
-3.95383e-07
-2.82192e-08
-1.09298e-06
-3.84155e-07
-1.46074e-07
-1.06941e-06
-3.69019e-07
-2.26218e-07
-1.01993e-06
-3.47999e-07
-2.73895e-07
-9.83452e-07
-3.28823e-07
-9.41962e-07
-2.60595e-07
-3.16928e-07
9.43044e-07
-1.29795e-06
-8.67066e-07
-2.84855e-07
9.63961e-07
-1.29567e-06
-3.02047e-07
9.34851e-07
-1.29456e-06
-3.26827e-07
8.5904e-07
-1.29828e-06
-3.46402e-07
7.46508e-07
-1.29809e-06
-3.59901e-07
6.06323e-07
-1.29662e-06
-3.7388e-07
4.49325e-07
-1.28548e-06
-3.82549e-07
2.87871e-07
-1.27857e-06
-3.84758e-07
1.33021e-07
-1.26594e-06
-3.82059e-07
-3.60604e-09
-1.24912e-06
-3.72344e-07
-1.17619e-07
-1.23435e-06
-3.56651e-07
-1.88499e-07
-1.21455e-06
-3.38055e-07
-2.1823e-07
-1.20929e-06
-3.20783e-07
-1.2083e-06
-1.9651e-07
-3.03181e-07
9.44294e-07
-1.70421e-06
-8.6064e-07
-2.68174e-07
9.62361e-07
-1.63562e-06
-2.87631e-07
9.30969e-07
-1.58407e-06
-3.12368e-07
8.47004e-07
-1.53761e-06
-3.31964e-07
7.33806e-07
-1.50477e-06
-3.46205e-07
5.95617e-07
-1.47817e-06
-3.58438e-07
4.4407e-07
-1.44947e-06
-3.67067e-07
2.87119e-07
-1.43177e-06
-3.68021e-07
1.3486e-07
-1.41613e-06
-3.64484e-07
2.8818e-09
-1.41007e-06
-3.53298e-07
-1.08501e-07
-1.40421e-06
-3.3525e-07
-1.73372e-07
-1.42033e-06
-3.15335e-07
-2.00143e-07
-1.44604e-06
-2.97245e-07
-1.48731e-06
-1.75323e-07
-2.80239e-07
1.04118e-06
-2.10762e-06
-9.63982e-07
-2.13631e-07
1.04798e-06
-1.96477e-06
-2.38289e-07
1.00216e-06
-1.85642e-06
-2.66217e-07
9.06663e-07
-1.76006e-06
-2.94853e-07
7.78607e-07
-1.69441e-06
-3.14197e-07
6.27304e-07
-1.64478e-06
-3.28227e-07
4.66025e-07
-1.6021e-06
-3.3983e-07
3.02151e-07
-1.57725e-06
-3.41747e-07
1.42211e-07
-1.5595e-06
-3.39618e-07
4.03026e-09
-1.56623e-06
-3.27372e-07
-1.14194e-07
-1.57028e-06
-3.09016e-07
-1.88531e-07
-1.62329e-06
-2.88933e-07
-2.27931e-07
-1.67772e-06
-2.68053e-07
-1.77141e-06
-2.06932e-07
-2.47499e-07
1.16234e-06
-2.49403e-06
-1.1029e-06
-1.73758e-07
1.13972e-06
-2.26719e-06
-2.02445e-07
1.07009e-06
-2.108e-06
-2.2274e-07
9.66196e-07
-1.97188e-06
-2.49724e-07
8.31744e-07
-1.87224e-06
-2.75053e-07
6.68153e-07
-1.7922e-06
-2.95434e-07
4.90693e-07
-1.73287e-06
-3.13416e-07
3.1011e-07
-1.70237e-06
-3.17828e-07
1.3098e-07
-1.68165e-06
-3.15934e-07
-2.69661e-08
-1.70204e-06
-3.01061e-07
-1.59378e-07
-1.72304e-06
-2.80568e-07
-2.45688e-07
-1.81581e-06
-2.54673e-07
-2.97774e-07
-1.89868e-06
-2.25938e-07
-2.0475e-06
-2.89036e-07
-2.00899e-07
1.36444e-06
-2.84578e-06
-1.33104e-06
-1.12913e-07
1.32686e-06
-2.5487e-06
-1.46804e-07
1.23637e-06
-2.33431e-06
-1.69913e-07
1.10442e-06
-2.15006e-06
-1.9935e-07
9.36052e-07
-2.01104e-06
-2.31217e-07
7.3688e-07
-1.89884e-06
-2.5439e-07
5.26912e-07
-1.82607e-06
-2.76708e-07
3.19902e-07
-1.79544e-06
-2.83141e-07
1.17031e-07
-1.77599e-06
-2.82856e-07
-6.86335e-08
-1.80782e-06
-2.64484e-07
-2.18389e-07
-1.85761e-06
-2.41345e-07
-3.23912e-07
-1.98881e-06
-2.11336e-07
-3.97858e-07
-2.10038e-06
-1.83677e-07
-2.27892e-06
-4.39093e-07
-1.54892e-07
1.53252e-06
-3.11066e-06
-1.58013e-06
-7.87003e-08
1.48665e-06
-2.80992e-06
-9.30399e-08
1.39436e-06
-2.54735e-06
-1.05264e-07
1.25347e-06
-2.30738e-06
-1.35667e-07
1.05865e-06
-2.11299e-06
-1.79326e-07
8.24443e-07
-1.96254e-06
-2.10942e-07
5.77484e-07
-1.87525e-06
-2.39408e-07
3.35703e-07
-1.84569e-06
-2.4891e-07
9.6966e-08
-1.8284e-06
-2.55324e-07
-1.28102e-07
-1.86923e-06
-2.41475e-07
-3.03629e-07
-1.96268e-06
-2.18111e-07
-4.33996e-07
-2.13336e-06
-1.81484e-07
-5.27649e-07
-2.28026e-06
-1.53151e-07
-2.45049e-06
-6.22864e-07
-1.08804e-07
1.77586e-06
-3.38554e-06
-1.80745e-06
1.20147e-08
1.75918e-06
-3.08011e-06
1.0305e-08
1.64507e-06
-2.72369e-06
-3.55165e-08
1.44996e-06
-2.39787e-06
-7.53943e-08
1.19512e-06
-2.14658e-06
-1.29238e-07
9.08754e-07
-1.9669e-06
-1.64702e-07
6.1625e-07
-1.87316e-06
-1.94828e-07
3.28788e-07
-1.84417e-06
-2.05842e-07
4.61528e-08
-1.82887e-06
-2.14669e-07
-2.14417e-07
-1.89003e-06
-1.99791e-07
-4.24744e-07
-2.02993e-06
-1.65296e-07
-5.93221e-07
-2.23766e-06
-1.18708e-07
-7.08357e-07
-2.43857e-06
-9.25252e-08
-8.59842e-07
-2.57099e-06
-6.23364e-08
-1.89668e-06
-2.3961e-07
-1.24093e-06
-3.08617e-06
-2.18085e-07
-1.2763e-06
-4.53385e-06
-9.3583e-08
-1.23974e-06
-6.23255e-06
-5.12798e-09
-1.07954e-06
-8.11213e-06
1.97452e-07
-8.11228e-07
3.21229e-07
-4.1089e-07
-1.43897e-06
1.73778e-06
-1.09677e-06
-3.93073e-08
-2.40618e-06
1.93906e-06
-1.14704e-06
1.06671e-08
-3.62051e-06
2.17544e-06
-1.14157e-06
1.51982e-07
-5.05443e-06
2.29612e-06
-1.06812e-06
2.79251e-07
-6.71093e-06
2.3863e-06
-9.45707e-07
5.02517e-07
2.36832e-06
-7.61681e-07
-8.56632e-06
6.71862e-07
-1.00927e-06
2.1538e-06
-9.00512e-08
-1.78591e-06
2.48274e-06
-5.04388e-08
-2.76422e-06
2.89295e-06
6.03331e-08
-3.97403e-06
3.19638e-06
1.59154e-07
-5.34732e-06
3.41684e-06
3.07746e-07
3.43296e-06
-6.7918e-06
3.87318e-07
-5.29958e-07
2.33218e-06
-1.81056e-07
-1.07842e-06
2.7295e-06
-1.68707e-07
-1.74437e-06
3.20915e-06
-1.15706e-07
-2.55857e-06
3.58755e-06
-7.7414e-08
-3.41541e-06
3.7876e-06
-3.17066e-08
3.74629e-06
-4.27239e-06
-2.66489e-08
-1.28036e-08
2.2346e-06
-2.9332e-07
-3.11716e-07
2.6523e-06
-3.19205e-07
-6.48311e-07
3.10625e-06
-3.36161e-07
-1.02485e-06
3.44322e-06
-3.58713e-07
-1.40367e-06
3.53857e-06
-4.09168e-07
3.38239e-06
-1.77051e-06
-4.8398e-07
4.11585e-07
1.89801e-06
-3.88542e-07
3.69581e-07
2.25816e-06
-4.4845e-07
3.59999e-07
2.60435e-06
-5.14918e-07
3.65264e-07
2.82957e-06
-6.02309e-07
3.62155e-07
2.82353e-06
-7.44029e-07
2.48831e-06
4.31893e-07
-9.47826e-07
7.26289e-07
1.37612e-06
-4.68886e-07
8.98149e-07
1.61601e-06
-5.53846e-07
1.13505e-06
1.81915e-06
-6.56095e-07
1.40601e-06
1.91183e-06
-7.88574e-07
1.70303e-06
1.77394e-06
-9.71253e-07
1.29793e-06
2.01386e-06
-1.24122e-06
8.62317e-07
7.57899e-07
-5.13449e-07
1.14671e-06
8.45073e-07
-5.99309e-07
1.51646e-06
8.8617e-07
-7.07011e-07
1.96271e-06
8.1128e-07
-8.4854e-07
2.45282e-06
5.33464e-07
-1.0253e-06
-2.93691e-08
2.90546e-06
-1.31248e-06
9.30534e-07
1.18253e-07
-5.21488e-07
1.25019e-06
4.9262e-08
-5.99893e-07
1.65387e-06
-6.22268e-08
-6.88741e-07
2.12744e-06
-2.89337e-07
-8.03536e-07
2.63822e-06
-6.84536e-07
-9.23041e-07
-1.32261e-06
3.11346e-06
-1.14561e-06
8.78894e-07
-4.63091e-07
-4.84295e-07
1.13405e-06
-6.55302e-07
-5.42166e-07
1.45343e-06
-8.87421e-07
-5.9515e-07
1.81838e-06
-1.23028e-06
-6.65027e-07
2.19606e-06
-1.70239e-06
-7.08188e-07
-2.3909e-06
2.53845e-06
-8.29565e-07
7.07896e-07
-9.17052e-07
-4.11689e-07
8.07726e-07
-1.1607e-06
-4.39939e-07
9.30737e-07
-1.45818e-06
-4.44101e-07
1.06326e-06
-1.86445e-06
-4.51641e-07
1.18964e-06
-2.37953e-06
-4.04556e-07
-3.09116e-06
1.28266e-06
-4.13902e-07
4.53756e-07
-1.17726e-06
-3.14426e-07
3.33337e-07
-1.38461e-06
-3.15603e-07
1.91414e-07
-1.68954e-06
-2.68958e-07
1.55732e-08
-2.09961e-06
-2.16492e-07
-2.155e-07
-2.59611e-06
-9.74967e-08
-3.26534e-06
-5.22814e-07
-1.34486e-08
3.794e-08
-1.1966e-06
-2.03454e-07
-3.11881e-07
-1.3203e-06
-1.84482e-07
-7.30996e-07
-1.5776e-06
-1.15179e-07
-1.23403e-06
-1.92462e-06
-2.19869e-08
-1.84205e-06
-2.33633e-06
1.45962e-07
-2.87799e-06
-2.58977e-06
3.13283e-07
-3.83324e-07
-9.64847e-07
-1.23934e-07
-9.13561e-07
-1.01778e-06
-9.81269e-08
-1.54994e-06
-1.18379e-06
-1.12704e-08
-2.33645e-06
-1.39902e-06
1.06956e-07
-3.2937e-06
-1.65443e-06
2.79888e-07
-2.00507e-06
-4.43687e-06
4.82397e-07
-7.57503e-07
-5.93063e-07
-7.70156e-08
-1.37667e-06
-5.71248e-07
-4.79645e-08
-2.1531e-06
-5.8773e-07
3.93923e-08
-3.08875e-06
-6.57235e-07
1.47577e-07
-4.2176e-06
-7.27741e-07
3.1703e-07
-8.56825e-07
-5.57564e-06
5.08526e-07
-1.79843e-06
-3.75052e-07
-7.70049e-08
-2.27595e-06
-2.49562e-07
-4.40748e-08
-2.95319e-06
-7.62963e-08
6.49517e-08
-3.80836e-06
5.78399e-09
1.75083e-07
-4.85299e-06
1.14106e-07
3.50845e-07
1.59693e-07
-6.10301e-06
5.19615e-07
-1.57116e-06
-1.98474e-07
-1.12512e-07
-2.02561e-06
1.29991e-08
-7.97016e-08
-2.65612e-06
3.46471e-07
2.1508e-08
-3.51178e-06
6.20565e-07
1.27264e-07
-4.57405e-06
9.1037e-07
2.79913e-07
1.08876e-06
-5.81873e-06
4.34266e-07
-1.23237e-06
-1.1126e-07
-1.67053e-07
-1.59966e-06
1.55745e-07
-1.43076e-07
-2.08977e-06
5.83833e-07
-7.18639e-08
-2.76863e-06
1.00621e-06
1.09947e-08
-3.59093e-06
1.38221e-06
1.18159e-07
1.58921e-06
-4.51817e-06
2.29477e-07
-8.50652e-07
-1.58443e-07
-2.38837e-07
-1.09902e-06
1.49934e-07
-2.26621e-07
-1.41158e-06
6.03498e-07
-1.90979e-07
-1.81101e-06
1.05664e-06
-1.44214e-07
-2.24436e-06
1.39096e-06
-9.58637e-08
1.48834e-06
-2.63762e-06
-6.96771e-08
-5.23433e-07
-3.59772e-07
-2.95013e-07
-6.16928e-07
-4.26094e-08
-3.02071e-07
-7.09331e-07
3.62696e-07
-3.00943e-07
-7.92502e-07
7.42052e-07
-3.00568e-07
-8.46676e-07
9.64973e-07
-3.12397e-07
9.88223e-07
-9.4365e-07
-3.50303e-07
-2.95632e-07
-6.75466e-07
-3.41093e-07
-2.33081e-07
-4.12252e-07
-3.56173e-07
-1.13079e-07
-1.18283e-07
-3.83804e-07
5.63693e-08
1.37222e-07
-4.26104e-07
2.52651e-07
2.42091e-07
-5.01085e-07
1.46547e-07
4.47065e-07
-6.26388e-07
-1.84687e-07
-1.04309e-06
-3.62396e-07
-3.3309e-08
-8.92211e-07
-3.81617e-07
1.91693e-07
-7.27548e-07
-4.22557e-07
4.94114e-07
-6.22612e-07
-4.81541e-07
8.59116e-07
-6.62214e-07
-5.79426e-07
-8.7662e-07
1.21963e-06
-7.26228e-07
-1.33228e-07
-1.40844e-06
-3.54728e-07
2.66482e-08
-1.39011e-06
-3.66967e-07
2.76272e-07
-1.36381e-06
-3.95659e-07
6.14636e-07
-1.41405e-06
-4.4578e-07
1.03976e-06
-1.60865e-06
-5.27083e-07
-1.95793e-06
1.49765e-06
-6.60441e-07
-1.75127e-07
-1.714e-06
-3.19129e-07
-9.75274e-08
-1.80475e-06
-3.23178e-07
6.63395e-08
-1.90758e-06
-3.30092e-07
3.13638e-07
-2.09913e-06
-3.45897e-07
6.33359e-07
-2.42463e-06
-3.71023e-07
-2.90696e-06
1.01037e-06
-4.45633e-07
-3.08518e-07
-1.91406e-06
-2.59876e-07
-3.75478e-07
-2.06511e-06
-2.47911e-07
-3.92837e-07
-2.2491e-06
-2.13884e-07
-3.59985e-07
-2.53883e-06
-1.78867e-07
-2.87187e-07
-2.94956e-06
-1.43106e-07
-3.52383e-06
-1.71851e-07
-1.52902e-07
-5.34158e-07
-1.94768e-06
-1.82072e-07
-8.09851e-07
-2.09598e-06
-1.54708e-07
-1.07767e-06
-2.30972e-06
-8.01253e-08
-1.34172e-06
-2.63658e-06
5.66206e-09
-1.61793e-06
-3.06683e-06
1.19319e-07
-3.65834e-06
-1.90134e-06
2.04027e-07
-8.76391e-07
-1.7619e-06
-1.06017e-07
-1.37804e-06
-1.87287e-06
-7.20726e-08
-1.90443e-06
-2.07711e-06
1.72321e-08
-2.4829e-06
-2.37555e-06
1.32365e-07
-3.14328e-06
-2.74669e-06
2.89319e-07
-3.24671e-06
-3.90601e-06
4.4534e-07
-1.24435e-06
-1.35291e-06
-5.1044e-08
-1.92515e-06
-1.43105e-06
-1.49812e-08
-2.67351e-06
-1.58119e-06
8.74536e-08
-3.53654e-06
-1.78436e-06
2.14237e-07
-4.53952e-06
-2.03254e-06
3.82489e-07
-2.36419e-06
-5.71347e-06
5.75812e-07
-1.55491e-06
-8.33665e-07
-2.1217e-08
-2.33179e-06
-8.53145e-07
1.51048e-08
-3.25465e-06
-8.71146e-07
1.16779e-07
-4.33159e-06
-9.44556e-07
2.32817e-07
-5.56824e-06
-1.0416e-06
3.96613e-07
-1.19348e-06
-6.99275e-06
5.89097e-07
-3.02715e-06
-5.45424e-07
-2.22188e-08
-3.60052e-06
-4.67087e-07
2.25835e-08
-4.34206e-06
-3.32369e-07
1.3689e-07
-5.23915e-06
-2.7739e-07
2.45361e-07
-6.29178e-06
-2.29413e-07
4.18832e-07
-2.4482e-07
-7.50567e-06
5.73497e-07
-2.88599e-06
-3.15298e-07
-4.25657e-08
-3.42938e-06
-1.59637e-07
3.23778e-09
-4.11543e-06
9.80869e-08
1.06652e-07
-4.97948e-06
3.00932e-07
2.0913e-07
-5.99669e-06
4.8263e-07
3.60938e-07
5.66181e-07
-7.14459e-06
5.00286e-07
-2.63816e-06
-1.78567e-07
-8.76522e-08
-3.10316e-06
2.13534e-08
-5.33575e-08
-3.65118e-06
3.36447e-07
2.65572e-08
-4.3184e-06
6.24797e-07
1.05785e-07
-5.06858e-06
8.42783e-07
2.214e-07
9.27594e-07
-5.8427e-06
3.25097e-07
-2.33571e-06
-1.76233e-07
-1.36236e-07
-2.68627e-06
4.67817e-08
-1.18289e-07
-3.06202e-06
3.5479e-07
-6.30203e-08
-3.45689e-06
6.22086e-07
-2.60659e-09
-3.83205e-06
7.70841e-07
6.0335e-08
7.64895e-07
-4.17696e-06
1.03042e-07
-2.09251e-06
-3.01573e-07
-1.78585e-07
-2.29693e-06
-1.04554e-07
-1.69593e-07
-2.46467e-06
1.27714e-07
-1.34372e-07
-2.5881e-06
3.01727e-07
-1.02021e-07
-2.66963e-06
3.53044e-07
-9.87176e-08
2.02713e-07
-2.68039e-06
-1.36946e-07
-1.95903e-06
-5.12917e-07
-2.04373e-07
-2.04917e-06
-3.92176e-07
-1.91017e-07
-2.06376e-06
-2.7872e-07
-1.69856e-07
-1.97414e-06
-2.5357e-07
-1.70476e-07
-1.79795e-06
-3.48867e-07
-2.07592e-07
-6.66534e-07
-1.531e-06
-2.85889e-07
-1.95922e-06
-7.47262e-07
-1.97929e-07
-1.98016e-06
-7.52284e-07
-1.72086e-07
-1.90172e-06
-7.78351e-07
-1.51793e-07
-1.68662e-06
-9.32427e-07
-1.4192e-07
-1.34747e-06
-1.21407e-06
-1.70203e-07
-1.71208e-06
-8.97685e-07
-2.80343e-07
-2.01618e-06
-9.5093e-07
-1.76383e-07
-2.06755e-06
-1.06779e-06
-1.23378e-07
-1.99414e-06
-1.25314e-06
-8.00076e-08
-1.77236e-06
-1.59078e-06
-3.44116e-08
-1.40916e-06
-2.06338e-06
-2.06687e-08
-2.75198e-06
-9.17784e-07
-6.34821e-08
-2.18515e-06
-1.06458e-06
-1.23201e-07
-2.34746e-06
-1.24858e-06
-4.29002e-08
-2.40401e-06
-1.56237e-06
4.07002e-08
-2.33608e-06
-2.04858e-06
1.43904e-07
-2.13209e-06
-2.69004e-06
2.17917e-07
-3.54655e-06
-1.80461e-06
2.77527e-07
-2.49861e-06
-1.01922e-06
-5.70831e-08
-2.84718e-06
-1.21545e-06
4.52761e-08
-3.13283e-06
-1.60278e-06
1.82574e-07
-3.35489e-06
-2.16252e-06
3.55798e-07
-3.48535e-06
-2.90574e-06
5.28027e-07
-3.83947e-06
-3.55057e-06
7.04774e-07
-2.92434e-06
-7.68655e-07
2.73628e-08
-3.49244e-06
-9.34641e-07
1.36299e-07
-4.05419e-06
-1.33239e-06
3.10019e-07
-4.6324e-06
-1.87572e-06
5.28846e-07
-5.2243e-06
-2.59885e-06
7.70068e-07
-3.46384e-06
-5.87415e-06
1.06065e-06
-3.42678e-06
-3.19974e-07
6.51828e-08
-4.18011e-06
-4.48863e-07
1.70976e-07
-4.99361e-06
-7.91158e-07
3.60619e-07
-5.91969e-06
-1.22352e-06
5.95927e-07
-6.97953e-06
-1.79978e-06
8.77887e-07
-2.45669e-06
-8.21104e-06
1.24013e-06
-3.87655e-06
2.55816e-07
7.42664e-08
-4.73396e-06
1.74178e-07
1.76554e-07
-5.73005e-06
-3.19881e-08
3.62104e-07
-6.90764e-06
-2.95887e-07
5.73804e-07
-8.27975e-06
-6.60431e-07
8.53737e-07
-1.07802e-06
-9.87034e-06
1.23461e-06
-4.14885e-06
8.34075e-07
5.48285e-08
-5.03998e-06
8.62103e-07
1.27774e-07
-6.13109e-06
8.48904e-07
2.83175e-07
-7.41025e-06
7.53048e-07
4.49195e-07
-8.90021e-06
6.08387e-07
7.13957e-07
3.68973e-07
-1.05877e-05
1.01209e-06
-2.15007e-06
-2.3418e-07
-4.38091e-07
-2.67197e-06
-5.28652e-07
-3.69801e-07
-3.27616e-06
-1.18991e-06
-2.27049e-07
-4.00527e-06
-2.06441e-06
-5.65805e-08
-4.87792e-06
-3.14879e-06
1.81619e-07
-4.3927e-06
4.53953e-07
-2.8821e-06
1.33122e-07
-3.13391e-07
-3.65062e-06
-4.42153e-08
-2.44352e-07
-4.56911e-06
-5.82363e-07
-8.52879e-08
-5.71898e-06
-1.24043e-06
1.19924e-07
-7.09815e-06
-2.08238e-06
3.92312e-07
-3.03803e-06
7.59757e-07
-3.57006e-06
6.9372e-07
-2.34279e-07
-4.45121e-06
5.93118e-07
-1.69471e-07
-5.56112e-06
2.67263e-07
-1.37084e-08
-6.95882e-06
-1.20709e-07
1.6629e-07
-8.63349e-06
-6.59032e-07
4.32232e-07
-1.31274e-06
8.22082e-07
-4.04288e-06
-1.87964e-07
-4.94363e-06
-1.60381e-07
-6.13642e-06
-3.17243e-08
-7.58682e-06
9.21752e-08
-9.30256e-06
3.45165e-07
6.37253e-07
-2.69636e-06
1.54039e-06
2.37244e-08
-3.75425e-06
1.71875e-06
9.34079e-08
-5.01262e-06
1.89092e-06
2.46163e-07
-6.46911e-06
1.96337e-06
3.8288e-07
-8.08422e-06
1.96846e-06
6.0215e-07
1.78938e-06
-9.79492e-06
7.66115e-07
-2.3023e-06
2.01462e-06
-1.02501e-08
-3.15245e-06
2.30078e-06
5.14914e-08
-4.16398e-06
2.60001e-06
1.62789e-07
-5.35323e-06
2.79638e-06
2.58301e-07
-6.63406e-06
2.86529e-06
3.96261e-07
2.66642e-06
-7.9529e-06
4.85949e-07
-1.85613e-06
2.23261e-06
-8.8513e-08
-2.46737e-06
2.56919e-06
-5.77158e-08
-3.1587e-06
2.88883e-06
5.84208e-10
-3.91967e-06
3.08102e-06
3.95853e-08
-4.69484e-06
3.09759e-06
7.68289e-08
2.82125e-06
-5.44173e-06
8.01535e-08
-1.40438e-06
2.1719e-06
-1.84602e-07
-1.72602e-06
2.47756e-06
-1.89287e-07
-2.06141e-06
2.73726e-06
-1.89485e-07
-2.42007e-06
2.85056e-06
-2.05963e-07
-2.74344e-06
2.76088e-06
-2.70294e-07
2.27598e-06
-2.92722e-06
-3.63133e-07
-1.0952e-06
1.9064e-06
-2.51869e-07
-1.17149e-06
2.09891e-06
-2.84573e-07
-1.19655e-06
2.22784e-06
-3.28914e-07
-1.1864e-06
2.20915e-06
-4.06476e-07
-1.10378e-06
1.94519e-06
-5.41498e-07
1.23113e-06
-8.88477e-07
-7.28551e-07
-8.60448e-07
1.49367e-06
-3.22559e-07
-7.68921e-07
1.53462e-06
-3.67878e-07
-5.81845e-07
1.49321e-06
-4.2744e-07
-3.08106e-07
1.2992e-06
-5.22679e-07
4.23807e-08
8.53221e-07
-6.77034e-07
-2.35657e-08
4.6759e-07
-9.35636e-07
-7.99394e-07
1.0206e-06
-3.41813e-07
-6.16377e-07
8.88984e-07
-3.79817e-07
-3.20636e-07
6.70114e-07
-4.30415e-07
9.94852e-08
2.76282e-07
-5.15484e-07
5.95037e-07
-3.35421e-07
-6.38815e-07
-1.31923e-06
1.11621e-06
-8.79059e-07
-8.32622e-07
5.56103e-07
-3.36281e-07
-6.5141e-07
2.78537e-07
-3.45895e-07
-3.6947e-07
-9.0009e-08
-3.56869e-07
1.95092e-08
-6.52051e-07
-3.88799e-07
4.78933e-07
-1.40352e-06
-4.3308e-07
-2.46428e-06
9.56513e-07
-5.86046e-07
-9.9819e-07
1.81356e-07
-2.89802e-07
-9.35831e-07
-1.62921e-07
-2.61033e-07
-8.06612e-07
-6.30706e-07
-2.1895e-07
-6.09724e-07
-1.30144e-06
-1.79899e-07
-3.55171e-07
-2.15338e-06
-1.20042e-07
-3.27106e-06
-8.15126e-08
-1.33857e-07
-1.33534e-06
-3.71236e-08
-2.24172e-07
-1.47347e-06
-3.53779e-07
-1.55858e-07
-1.59256e-06
-8.55004e-07
-4.6903e-08
-1.69799e-06
-1.55887e-06
7.2532e-08
-1.79317e-06
-2.43967e-06
2.44777e-07
-3.54432e-06
-1.91029e-06
3.75785e-07
-1.79578e-06
-1.97812e-08
-1.14387e-07
-2.17762e-06
-2.39053e-07
-2.08078e-08
-2.59382e-06
-7.15422e-07
1.4062e-07
-3.07597e-06
-1.35975e-06
3.22293e-07
-3.64251e-06
-2.16462e-06
5.69146e-07
-3.14071e-06
-4.31902e-06
8.14322e-07
-2.36787e-06
2.3857e-07
-3.20045e-08
-2.9545e-06
1.13905e-07
6.44954e-08
-3.6328e-06
-2.77634e-07
2.39534e-07
-4.47072e-06
-7.6498e-07
4.55619e-07
-5.48707e-06
-1.38955e-06
7.31481e-07
-2.12418e-06
-6.70978e-06
1.06236e-06
-2.9293e-06
6.70282e-07
5.76213e-09
-3.62529e-06
6.09604e-07
9.51742e-08
-4.48323e-06
3.74525e-07
2.66661e-07
-5.56203e-06
9.89166e-08
4.67272e-07
-6.86938e-06
-2.80683e-07
7.22434e-07
-7.09105e-07
-8.45399e-06
1.08584e-06
-3.33135e-06
1.27923e-08
-4.04894e-06
7.12669e-08
-5.00092e-06
2.15966e-07
-6.17271e-06
3.70839e-07
-7.57916e-06
6.13141e-07
-9.24302e-06
9.25485e-07
-1.2392e-05
3.2044e-06
-1.39758e-08
3.82457e-06
-1.58417e-05
-3.16099e-06
6.2164e-06
6.81243e-06
-1.75399e-05
-1.39186e-05
1.5836e-05
1.14917e-05
-1.56284e-05
-2.99986e-05
2.90421e-05
1.78601e-05
-5.00819e-05
4.54275e-05
2.6643e-05
-9.38297e-06
4.85775e-06
2.30248e-06
-1.14741e-05
-1.91778e-06
4.05381e-06
-1.19991e-05
-1.37085e-05
6.55967e-06
-9.87174e-06
-3.10391e-05
1.02614e-05
-5.17577e-05
1.83369e-05
-5.60069e-06
4.84508e-06
4.87993e-07
-6.50588e-06
-2.49927e-06
6.71041e-07
-6.33286e-06
-1.50625e-05
1.02272e-06
-4.42864e-06
-3.27627e-05
2.0891e-06
-5.32332e-05
7.96884e-06
-2.0777e-06
3.49447e-06
-1.32317e-06
-2.3193e-06
-4.28974e-06
-2.41037e-06
-1.9862e-06
-1.69793e-05
-3.74597e-06
-3.40049e-07
-3.46219e-05
-3.70931e-06
-5.58137e-05
6.26099e-07
7.20441e-07
1.36604e-06
-2.65311e-06
5.75364e-07
-6.39447e-06
-4.6118e-06
5.02912e-07
-1.86878e-05
-6.68513e-06
1.45399e-06
-3.59604e-05
-6.22119e-06
-5.72313e-05
-1.6123e-06
2.50206e-06
-9.87072e-07
-3.42396e-06
2.21797e-06
-8.27136e-06
-5.66123e-06
1.31461e-06
-1.95553e-05
-7.66433e-06
6.65305e-07
-3.54647e-05
-6.38945e-06
-5.56299e-05
1.34375e-07
3.47647e-06
-3.32532e-06
-3.56731e-06
3.08998e-06
-9.81667e-06
-5.54343e-06
1.46246e-06
-1.94539e-05
-7.04087e-06
-8.08218e-07
-3.30419e-05
-4.68644e-06
-5.16037e-05
2.851e-06
3.70678e-06
-5.55726e-06
-3.07453e-06
3.31036e-06
-1.11144e-05
-4.4984e-06
1.54792e-06
-1.90391e-05
-5.45636e-06
-1.2039e-06
-3.03052e-05
-2.59834e-06
-4.74168e-06
-4.74596e-05
4.21408e-06
-6.99851e-05
9.38911e-06
3.01583e-06
-7.49528e-06
-2.131e-06
2.67855e-06
-1.22279e-05
-2.8137e-06
9.87239e-07
-1.85231e-05
-3.0415e-06
-2.37512e-06
-2.71405e-05
3.94227e-07
-8.08124e-06
-4.13239e-05
7.3654e-06
-6.26701e-05
1.27005e-05
1.44321e-06
-8.91434e-06
-8.71153e-07
1.00356e-06
-1.29844e-05
-7.08687e-07
-6.91705e-07
-1.78045e-05
2.87429e-08
-4.13566e-06
-2.39587e-05
3.61131e-06
-1.12188e-05
-3.40865e-05
1.06424e-05
-5.18376e-05
1.65344e-05
-1.06104e-06
-9.3851e-06
4.278e-07
-1.93523e-06
-1.30209e-05
1.57115e-06
-3.54559e-06
-1.69048e-05
3.37262e-06
-6.33777e-06
-2.16149e-05
7.07518e-06
-1.25552e-05
-2.8028e-05
1.3927e-05
-2.58511e-05
-3.96846e-05
2.12997e-05
-6.03564e-05
2.36747e-05
-4.17566e-06
-8.55763e-06
1.67339e-06
-5.91965e-06
-1.18982e-05
3.65825e-06
-7.42197e-06
-1.58397e-05
6.84848e-06
-8.99548e-06
-2.06406e-05
1.12012e-05
-1.18155e-05
-2.60521e-05
1.7511e-05
-2.03625e-05
-3.27522e-05
2.63597e-05
-4.39061e-05
-4.03817e-05
3.40019e-05
-1.47087e-05
4.11651e-05
-1.92096e-05
-1.35084e-05
-1.73815e-05
-7.10448e-06
-6.48242e-06
2.5778e-06
-9.89189e-06
-9.55641e-06
5.33304e-06
-1.17464e-05
-1.43163e-05
9.42576e-06
-1.21344e-05
-2.07512e-05
1.48674e-05
-1.17551e-05
-2.70534e-05
2.19948e-05
-1.21924e-05
-3.38094e-05
3.027e-05
-7.08499e-06
-9.99241e-06
3.89057e-05
-2.28446e-06
-5.41808e-06
-1.7119e-06
-9.48967e-06
-9.58581e-06
-9.01198e-06
-1.48974e-05
-8.39576e-06
1.15346e-05
-9.05454e-06
-3.53349e-06
3.01408e-06
-1.24379e-05
-6.57598e-06
6.06686e-06
-1.4774e-05
-1.24379e-05
1.05019e-05
-1.5457e-05
-2.02697e-05
1.66306e-05
-1.19585e-05
-3.12016e-05
2.50911e-05
-1.1324e-06
-4.40862e-05
3.517e-05
-7.37973e-07
-8.57514e-07
-6.49224e-07
3.11404e-07
-1.22053e-05
1.08116e-05
6.72599e-06
-1.44928e-05
1.45042e-05
9.80503e-06
-3.05236e-06
-9.7343e-06
-4.74734e-07
2.95159e-06
-1.32854e-05
-3.47225e-06
5.66298e-06
-1.60737e-05
-9.6643e-06
9.76695e-06
-1.65223e-05
-1.98104e-05
1.6078e-05
-1.35088e-05
-3.45211e-05
2.44871e-05
-1.88027e-06
-5.24945e-05
3.57342e-05
-1.95598e-06
-1.6887e-06
-1.39368e-06
1.48106e-05
-4.67782e-07
1.10032e-05
-1.67661e-05
1.26481e-05
1.14596e-05
-1.39946e-05
-2.3434e-07
-8.62018e-06
1.65257e-06
2.29085e-06
-1.14856e-05
-1.26896e-06
4.1834e-06
-1.35631e-05
-8.02047e-06
7.21383e-06
-1.37112e-05
-1.98939e-05
1.16912e-05
-1.12076e-05
-3.66996e-05
1.85173e-05
-2.23658e-06
-5.64415e-05
2.98286e-05
-1.72878e-06
-2.01715e-06
-1.07456e-06
1.82958e-05
-1.90483e-06
-1.92809e-05
1.11096e-05
1.57172e-05
-1.96352e-05
1.32618e-05
1.81074e-06
-6.21872e-06
2.48972e-06
1.19525e-06
-7.93404e-06
-6.03205e-07
2.17276e-06
-8.90356e-06
-8.29696e-06
3.68355e-06
-8.65665e-06
-2.14941e-05
5.41459e-06
-6.72012e-06
-3.94964e-05
8.93893e-06
-2.26191e-06
-5.90927e-05
1.84925e-05
6.32166e-08
-1.45027e-06
4.22339e-07
1.95834e-05
-2.55618e-06
-1.922e-05
8.87593e-06
2.34681e-05
-1.19155e-05
-1.95923e-05
1.88219e-05
4.62224e-06
-3.45861e-06
2.06008e-06
6.16576e-08
-4.12603e-06
-1.50085e-06
-5.97517e-08
-4.52643e-06
-9.84908e-06
-1.7924e-07
-4.04237e-06
-2.40692e-05
-2.11157e-07
-1.41319e-06
-4.34545e-05
1.1012e-06
5.69576e-07
-6.53794e-05
8.44444e-06
2.49875e-06
5.34836e-07
1.85955e-06
1.96138e-05
1.72729e-06
-2.05929e-05
4.04429e-06
2.04495e-05
2.14948e-06
-2.08866e-05
7.15497e-06
-1.91009e-06
-9.94839e-07
6.66159e-07
-1.05669e-06
-1.06699e-06
-3.35833e-06
-2.02716e-06
-1.36974e-06
-1.18847e-05
-3.32913e-06
-1.28663e-06
-2.62053e-05
-4.05981e-06
4.55462e-07
-4.59799e-05
-2.56593e-06
1.31653e-06
-6.9304e-05
5.3005e-06
1.82753e-06
5.21664e-07
1.39002e-06
2.19377e-05
2.64271e-06
-2.3312e-05
3.09203e-06
2.74502e-05
-2.43223e-05
4.94206e-06
-3.60674e-06
8.68112e-07
-1.28393e-06
-1.81532e-06
9.73615e-07
-5.52496e-06
-3.25736e-06
4.52982e-07
-1.36837e-05
-5.10228e-06
-2.49307e-07
-2.70877e-05
-5.72345e-06
-4.22158e-07
-4.57743e-05
-2.87179e-06
-4.12962e-07
-6.75677e-05
5.95432e-06
-2.8577e-07
-4.17475e-07
-2.33137e-08
2.37206e-05
-7.97139e-07
-2.34941e-05
3.64797e-06
2.20679e-05
-2.44855e-05
5.24332e-06
1.589e-06
1.87654e-06
-3.41922e-06
-2.09152e-06
2.07288e-06
-7.57516e-06
-3.7222e-06
1.31676e-06
-1.48761e-05
-5.59982e-06
-1.32133e-07
-2.66795e-05
-5.78028e-06
-2.02362e-06
-4.34291e-05
-1.68344e-06
-1.94066e-06