/*--------------------------------*- C++ -*----------------------------------*\
| =========                 |                                                 |
| \\      /  F ield         | OpenFOAM: The Open Source CFD Toolbox           |
|  \\    /   O peration     | Version:  v2106                                 |
|   \\  /    A nd           | Website:  www.openfoam.com                      |
|    \\/     M anipulation  |                                                 |
\*---------------------------------------------------------------------------*/
FoamFile
{
    version     2.0;
    format      ascii;
    arch        "LSB;label=32;scalar=64";
    class       volScalarField;
    location    "0.00014";
    object      alphat;
}
// * * * * * * * * * * * * * * * * * * * * * * * * * * * * * * * * * * * * * //

dimensions      [1 -1 -1 0 0 0 0];

internalField   nonuniform List<scalar> 
18273
(
7.37457e-05
6.609e-05
5.97292e-05
5.14597e-05
4.25912e-05
3.29234e-05
2.47407e-05
1.83703e-05
1.33882e-05
9.47672e-06
7.01065e-06
7.43027e-06
1.21605e-05
2.22535e-05
5.07664e-05
4.49561e-05
3.98308e-05
3.3222e-05
2.64851e-05
1.9704e-05
1.46337e-05
1.06652e-05
7.70728e-06
5.51968e-06
4.38915e-06
5.79478e-06
1.12154e-05
2.11425e-05
3.20353e-05
2.74474e-05
2.30172e-05
1.78692e-05
1.31237e-05
8.91207e-06
6.29609e-06
4.42705e-06
3.20714e-06
2.45522e-06
2.38971e-06
4.52956e-06
1.03492e-05
2.02175e-05
2.02757e-05
1.59273e-05
1.16459e-05
7.59384e-06
4.55008e-06
2.8129e-06
1.76492e-06
1.1689e-06
8.77799e-07
7.95063e-07
1.22199e-06
3.54654e-06
9.22288e-06
1.86662e-05
1.61104e-05
1.17856e-05
7.65867e-06
4.33607e-06
2.20102e-06
9.92934e-07
4.22751e-07
2.04651e-07
1.5109e-07
2.13512e-07
7.29179e-07
2.84202e-06
7.92523e-06
1.64106e-05
1.80788e-05
1.37394e-05
9.24234e-06
5.15493e-06
2.38621e-06
9.10975e-07
2.77178e-07
6.97484e-08
2.58213e-08
8.19276e-08
5.39584e-07
2.32431e-06
6.64649e-06
1.39719e-05
2.32024e-05
1.81134e-05
1.21735e-05
6.68134e-06
2.98834e-06
1.072e-06
3.10175e-07
8.44159e-08
3.43998e-08
7.16837e-08
4.45023e-07
1.91643e-06
5.51278e-06
1.16574e-05
3.05369e-05
2.40263e-05
1.62953e-05
9.131e-06
4.12355e-06
1.50605e-06
4.9583e-07
2.14675e-07
1.45019e-07
1.55777e-07
4.27873e-07
1.56272e-06
4.40818e-06
9.37901e-06
3.97972e-05
3.11725e-05
2.13273e-05
1.22554e-05
5.73103e-06
2.26041e-06
9.55512e-07
6.31719e-07
5.54834e-07
5.45143e-07
7.06624e-07
1.47957e-06
3.49932e-06
7.20579e-06
5.14425e-05
3.97452e-05
2.71412e-05
1.58669e-05
7.75055e-06
3.43389e-06
1.92829e-06
1.68817e-06
1.70905e-06
1.7546e-06
1.83605e-06
2.24433e-06
3.3838e-06
5.76336e-06
6.32078e-05
4.84915e-05
3.30047e-05
1.95965e-05
1.01164e-05
5.18362e-06
3.74246e-06
3.87033e-06
4.2588e-06
4.59356e-06
4.7583e-06
4.91352e-06
5.22837e-06
6.34677e-06
7.46335e-05
5.70009e-05
3.86046e-05
2.32954e-05
1.28468e-05
7.70631e-06
6.69697e-06
7.56741e-06
8.75092e-06
9.80732e-06
1.03922e-05
1.04977e-05
1.01009e-05
1.00398e-05
8.28695e-05
6.30645e-05
4.26646e-05
2.63118e-05
1.57134e-05
1.10179e-05
1.08359e-05
1.27638e-05
1.51891e-05
1.7517e-05
1.90888e-05
1.95861e-05
1.88519e-05
1.79371e-05
9.03339e-05
6.80096e-05
4.61348e-05
2.91485e-05
1.8886e-05
1.50483e-05
1.59179e-05
1.90882e-05
2.31154e-05
2.72802e-05
3.06067e-05
3.22319e-05
3.1889e-05
3.11338e-05
0.000110386
9.43801e-05
8.099e-05
6.63604e-05
5.28426e-05
3.95939e-05
2.86596e-05
2.00951e-05
1.38129e-05
9.65592e-06
9.00138e-06
1.3897e-05
2.5669e-05
4.58093e-05
8.49412e-05
7.17848e-05
6.04113e-05
4.81247e-05
3.6891e-05
2.61458e-05
1.81805e-05
1.21953e-05
8.15594e-06
5.82597e-06
6.32496e-06
1.18857e-05
2.36082e-05
4.13713e-05
5.81844e-05
4.83712e-05
3.91949e-05
2.93979e-05
2.05756e-05
1.30239e-05
8.27664e-06
5.20475e-06
3.43415e-06
2.71873e-06
4.05389e-06
9.77935e-06
2.09917e-05
3.70319e-05
3.68186e-05
2.89865e-05
2.1088e-05
1.37689e-05
7.81384e-06
4.30309e-06
2.34916e-06
1.34632e-06
9.2052e-07
9.83112e-07
2.49297e-06
7.66321e-06
1.76908e-05
3.18429e-05
2.44561e-05
1.78775e-05
1.14549e-05
6.38188e-06
3.20391e-06
1.38863e-06
5.46124e-07
2.25194e-07
1.55727e-07
3.5334e-07
1.63667e-06
5.83451e-06
1.42468e-05
2.62334e-05
2.17729e-05
1.65846e-05
1.13698e-05
6.70406e-06
3.23862e-06
1.25125e-06
3.7245e-07
8.63246e-08
3.37143e-08
1.81393e-07
1.14506e-06
4.34173e-06
1.10388e-05
2.0853e-05
2.59235e-05
2.13159e-05
1.54884e-05
9.06144e-06
4.22116e-06
1.54301e-06
4.50002e-07
1.31483e-07
6.63991e-08
1.56837e-07
8.42694e-07
3.20647e-06
8.32871e-06
1.61128e-05
3.41965e-05
2.9176e-05
2.1698e-05
1.30596e-05
6.217e-06
2.3473e-06
8.01467e-07
3.8532e-07
2.93103e-07
3.35615e-07
7.76365e-07
2.40702e-06
6.11703e-06
1.20123e-05
4.50035e-05
3.89519e-05
2.94591e-05
1.84441e-05
9.20657e-06
3.76568e-06
1.62635e-06
1.14629e-06
1.09201e-06
1.1656e-06
1.45404e-06
2.48707e-06
4.86925e-06
8.90388e-06
5.93652e-05
5.12646e-05
3.90027e-05
2.50778e-05
1.31768e-05
5.9604e-06
3.26248e-06
2.93466e-06
3.18824e-06
3.56805e-06
3.94384e-06
4.626e-06
5.89617e-06
8.27116e-06
7.53648e-05
6.4935e-05
4.95194e-05
3.24972e-05
1.80146e-05
9.10902e-06
6.06341e-06
6.30607e-06
7.42446e-06
8.6931e-06
9.68843e-06
1.04995e-05
1.1033e-05
1.20773e-05
9.36039e-05
8.04096e-05
6.09456e-05
4.03991e-05
2.35084e-05
1.33016e-05
1.02335e-05
1.14728e-05
1.40944e-05
1.70363e-05
1.94079e-05
2.10205e-05
2.14036e-05
2.1532e-05
0.000110013
9.44282e-05
7.11805e-05
4.76011e-05
2.90521e-05
1.82873e-05
1.55598e-05
1.79851e-05
2.24366e-05
2.76698e-05
3.23793e-05
3.5922e-05
3.74927e-05
3.78608e-05
0.000128289
0.000108673
8.10807e-05
5.44067e-05
3.45262e-05
2.36581e-05
2.14006e-05
2.49383e-05
3.13339e-05
3.93299e-05
4.74282e-05
5.43461e-05
5.89805e-05
6.20852e-05
0.000121535
0.000100505
8.40247e-05
6.81189e-05
5.42265e-05
4.09562e-05
2.97452e-05
2.02136e-05
1.36777e-05
1.09265e-05
1.46928e-05
2.70398e-05
4.85065e-05
7.90566e-05
0.000107042
8.85194e-05
7.28118e-05
5.75109e-05
4.34314e-05
3.04634e-05
2.00608e-05
1.24711e-05
8.07159e-06
6.86041e-06
1.10716e-05
2.30688e-05
4.2547e-05
6.76089e-05
8.37173e-05
6.85233e-05
5.46956e-05
4.07683e-05
2.76728e-05
1.67462e-05
9.57848e-06
5.30766e-06
3.36705e-06
3.46335e-06
7.70219e-06
1.87127e-05
3.59403e-05
5.64116e-05
5.85335e-05
4.56396e-05
3.32087e-05
2.1676e-05
1.21494e-05
5.80245e-06
2.71914e-06
1.32923e-06
9.04355e-07
1.49346e-06
5.00043e-06
1.41089e-05
2.86275e-05
4.54844e-05
3.81405e-05
2.72651e-05
1.71966e-05
9.39433e-06
4.26139e-06
1.66886e-06
5.92624e-07
2.06025e-07
1.72587e-07
6.91211e-07
3.21851e-06
1.00827e-05
2.17622e-05
3.56084e-05
2.79183e-05
2.00176e-05
1.28597e-05
7.51754e-06
3.66689e-06
1.40505e-06
3.97775e-07
7.94786e-08
5.24823e-08
3.89223e-07
2.0806e-06
6.90805e-06
1.57777e-05
2.6904e-05
2.83096e-05
2.29919e-05
1.68738e-05
1.02144e-05
4.83331e-06
1.76024e-06
4.98605e-07
1.48093e-07
9.72109e-08
3.01225e-07
1.41747e-06
4.73294e-06
1.11352e-05
1.97695e-05
3.51522e-05
3.13992e-05
2.46344e-05
1.54303e-05
7.54096e-06
2.85893e-06
9.72041e-07
5.02463e-07
4.2621e-07
5.62528e-07
1.25903e-06
3.39909e-06
7.71522e-06
1.39829e-05
4.4389e-05
4.1631e-05
3.42287e-05
2.2886e-05
1.19042e-05
4.91796e-06
2.10845e-06
1.56935e-06
1.6144e-06
1.90397e-06
2.48844e-06
3.93289e-06
6.67947e-06
1.09008e-05
5.61359e-05
5.4028e-05
4.59696e-05
3.2531e-05
1.81752e-05
8.30909e-06
4.3769e-06
4.02582e-06
4.67013e-06
5.68667e-06
6.798e-06
8.28175e-06
1.01894e-05
1.30154e-05
6.91293e-05
6.75929e-05
5.90802e-05
4.36411e-05
2.61827e-05
1.33049e-05
8.17936e-06
8.43431e-06
1.05333e-05
1.32455e-05
1.58771e-05
1.83792e-05
2.02881e-05
2.2473e-05
8.59075e-05
8.41602e-05
7.39104e-05
5.58086e-05
3.54805e-05
1.9955e-05
1.36808e-05
1.47422e-05
1.895e-05
2.42988e-05
2.93965e-05
3.40508e-05
3.72137e-05
3.98712e-05
0.000104345
0.000102329
8.92037e-05
6.80908e-05
4.53362e-05
2.78635e-05
2.0538e-05
2.21218e-05
2.81076e-05
3.62754e-05
4.46845e-05
5.30092e-05
5.97667e-05
6.50258e-05
0.000128147
0.000122986
0.000104671
8.02425e-05
5.5071e-05
3.60142e-05
2.76656e-05
2.91821e-05
3.63432e-05
4.68791e-05
5.8923e-05
7.2077e-05
8.49447e-05
9.57062e-05
3.78188e-05
5.28834e-05
6.81908e-05
7.76695e-05
0.000112634
8.08973e-05
3.52786e-05
5.11364e-05
6.99853e-05
8.4964e-05
0.00011579
8.01235e-05
3.38525e-05
5.09948e-05
7.34219e-05
9.57648e-05
0.000132723
8.17219e-05
3.16689e-05
4.95998e-05
7.45013e-05
0.000104999
0.00015494
8.61063e-05
2.81766e-05
4.53676e-05
7.08822e-05
0.000108756
0.000178526
9.25141e-05
2.4162e-05
3.92067e-05
6.25856e-05
0.000104904
0.000197857
9.95132e-05
2.02133e-05
3.24913e-05
5.2225e-05
9.42172e-05
0.000205056
0.000106971
1.64431e-05
2.61913e-05
4.23559e-05
8.07009e-05
0.000201012
0.000112371
1.28393e-05
2.06152e-05
3.38069e-05
6.75735e-05
0.000188208
0.000114645
9.92647e-06
1.62299e-05
2.72988e-05
5.64041e-05
0.00016795
0.000114006
9.0588e-06
1.44899e-05
2.43847e-05
4.90793e-05
0.000144426
0.00011101
1.16134e-05
1.71294e-05
2.71369e-05
4.78597e-05
0.000122423
0.000106722
1.88949e-05
2.58064e-05
3.73595e-05
5.37349e-05
0.000105293
0.000101373
3.16971e-05
4.14799e-05
5.49708e-05
6.57413e-05
0.000100899
9.12188e-05
7.28891e-05
9.49765e-05
0.000110996
0.000114633
0.000115992
7.65823e-05
6.38461e-05
8.7371e-05
0.000110577
0.000126933
0.000135293
8.37475e-05
5.69357e-05
8.08183e-05
0.000108801
0.000135392
0.00015589
9.40128e-05
4.92944e-05
7.21708e-05
0.00010177
0.000136578
0.000173132
0.000104781
4.08383e-05
6.07302e-05
8.82875e-05
0.000128075
0.000183574
0.000113518
3.27261e-05
4.86416e-05
7.14075e-05
0.000111419
0.000185936
0.000118762
2.55211e-05
3.75435e-05
5.48173e-05
9.06403e-05
0.000178748
0.000120288
1.94116e-05
2.84118e-05
4.17727e-05
7.12478e-05
0.000160885
0.000118974
1.45546e-05
2.17108e-05
3.25782e-05
5.68916e-05
0.000137989
0.000114938
1.22432e-05
1.86201e-05
2.86855e-05
4.97064e-05
0.000115867
0.000109239
1.46108e-05
2.15735e-05
3.28323e-05
5.23223e-05
0.000100277
0.000102932
2.33372e-05
3.29313e-05
4.73491e-05
6.5337e-05
9.23469e-05
9.69287e-05
3.97167e-05
5.35115e-05
7.1373e-05
8.59467e-05
9.14037e-05
9.11425e-05
6.32543e-05
8.0804e-05
9.96177e-05
0.000107402
0.000100362
8.15529e-05
0.000112214
0.000134049
0.000149069
0.000157804
0.000144365
9.59137e-05
9.30951e-05
0.00011555
0.000135699
0.000153393
0.000152783
0.000110557
7.6932e-05
9.77429e-05
0.000119705
0.000142232
0.000154875
0.000121924
6.21604e-05
8.01139e-05
0.000100248
0.000124392
0.000148688
0.000128917
4.89193e-05
6.35705e-05
8.03481e-05
0.000103272
0.000135065
0.000131251
3.76469e-05
4.91875e-05
6.23688e-05
8.228e-05
0.000119741
0.000128844
2.84601e-05
3.75031e-05
4.76968e-05
6.39552e-05
0.000102616
0.000122029
2.09756e-05
2.83531e-05
3.7193e-05
5.08041e-05
8.6734e-05
0.000112281
1.63972e-05
2.33004e-05
3.23021e-05
4.55362e-05
7.70736e-05
0.000102918
1.70349e-05
2.52972e-05
3.67141e-05
5.2077e-05
8.0149e-05
9.76384e-05
2.56321e-05
3.77001e-05
5.46086e-05
7.39342e-05
9.81425e-05
9.7582e-05
4.29658e-05
6.11324e-05
8.47089e-05
0.000106613
0.000121852
9.89952e-05
6.75784e-05
9.11455e-05
0.00011851
0.000140343
0.00014106
9.90655e-05
9.56976e-05
0.000118588
0.000144362
0.000161315
0.000149124
9.39454e-05
4.97682e-05
6.41099e-05
7.56782e-05
7.90015e-05
0.000108665
8.18832e-05
4.86915e-05
6.48538e-05
8.20078e-05
9.28013e-05
0.00012042
8.09393e-05
4.7825e-05
6.58218e-05
8.76521e-05
0.000107919
0.000143755
8.26907e-05
4.44884e-05
6.29192e-05
8.81322e-05
0.000118912
0.000171005
8.72929e-05
3.88908e-05
5.58494e-05
8.11505e-05
0.000120531
0.000194621
9.32844e-05
3.23337e-05
4.64662e-05
6.91146e-05
0.000112897
0.000209677
9.87509e-05
2.63725e-05
3.77363e-05
5.68638e-05
0.000100802
0.000214335
0.000102562
2.19194e-05
3.13729e-05
4.76305e-05
8.8452e-05
0.000209805
0.000105207
2.00791e-05
2.83892e-05
4.2786e-05
7.95025e-05
0.000197332
0.000106558
2.24853e-05
3.06411e-05
4.42915e-05
7.66306e-05
0.000181506
0.000105351
3.10312e-05
4.01138e-05
5.34188e-05
8.02775e-05
0.000161873
0.000103585
4.60433e-05
5.70524e-05
7.01228e-05
8.94346e-05
0.000141055
0.000102115
6.64836e-05
7.91545e-05
9.20378e-05
0.000101812
0.000126236
9.8654e-05
8.86612e-05
0.000101269
0.000111984
0.000113715
0.000125363
8.6609e-05
9.10998e-05
0.000110775
0.000121015
0.00012137
0.000118784
7.70934e-05
8.27957e-05
0.000105519
0.000125425
0.000139702
0.000146204
8.53095e-05
7.45882e-05
9.83069e-05
0.000124917
0.000151189
0.000171653
9.65303e-05
6.37979e-05
8.56143e-05
0.000114162
0.000150098
0.000188216
0.00010725
5.16702e-05
6.9237e-05
9.47936e-05
0.000135507
0.000192663
0.000114704
4.04231e-05
5.3596e-05
7.41171e-05
0.000114348
0.000186996
0.000117999
3.19267e-05
4.2119e-05
5.84921e-05
9.47946e-05
0.000174468
0.000117597
2.73683e-05
3.647e-05
5.0785e-05
8.22025e-05
0.000159986
0.000114923
2.89177e-05
3.83618e-05
5.26788e-05
8.01084e-05
0.00014685
0.000112153
3.90047e-05
5.03525e-05
6.64052e-05
9.08488e-05
0.000137043
0.00010897
5.82254e-05
7.30646e-05
9.05903e-05
0.000111583
0.000131018
0.000106063
8.34522e-05
0.000101592
0.000119053
0.000134955
0.000128477
0.000103212
0.000110168
0.000127855
0.000143805
0.000152916
0.000132677
9.83209e-05
0.000129524
0.000143583
0.000156323
0.00016004
0.00014444
8.68888e-05
0.000125829
0.00014454
0.000157114
0.000164064
0.000145918
9.78028e-05
0.000106709
0.000126075
0.000143893
0.000160126
0.000156677
0.000112814
8.82699e-05
0.000105391
0.000124554
0.00014596
0.000157358
0.000123436
7.06052e-05
8.36637e-05
0.000100117
0.000122588
0.000145742
0.000128761
5.50112e-05
6.44966e-05
7.69927e-05
9.75755e-05
0.000128186
0.000129004
4.2658e-05
5.01299e-05
6.00506e-05
7.82497e-05
0.000112144
0.000125683
3.51459e-05
4.25811e-05
5.24083e-05
6.91892e-05
0.000101646
0.000121268
3.4267e-05
4.37005e-05
5.5781e-05
7.27055e-05
0.000102241
0.00011896
4.33364e-05
5.61554e-05
7.22597e-05
9.10443e-05
0.000116559
0.000121268
6.33173e-05
8.02858e-05
0.000101135
0.000121864
0.000138018
0.000126394
8.94508e-05
0.00010963
0.000132848
0.000155126
0.000156427
0.000131369
0.000112561
0.000132428
0.000154417
0.000178102
0.000166751
0.000132358
0.000128338
0.00014323
0.000160606
0.00018308
0.000167201
0.000126132
0.0001307
0.000140191
0.000152724
0.000167129
0.000156132
0.000111453
8.74014e-05
0.000125817
0.000107787
0.000101123
8.70079e-05
7.38671e-05
0.000102634
0.000132842
9.85687e-05
8.27517e-05
6.53557e-05
5.28617e-05
0.000109771
0.00014878
8.87132e-05
6.44736e-05
4.7068e-05
3.57448e-05
0.000113311
0.000167251
8.04175e-05
5.07049e-05
3.47129e-05
2.49513e-05
0.000114639
0.000185052
7.63578e-05
4.34075e-05
2.89999e-05
2.076e-05
0.000114027
0.000201187
7.85499e-05
4.2816e-05
2.93324e-05
2.21279e-05
0.000110254
0.000215261
8.74486e-05
4.80632e-05
3.43365e-05
2.72448e-05
0.000104456
0.000224334
0.000102131
5.9131e-05
4.36893e-05
3.54821e-05
9.89791e-05
0.000222996
0.000119581
7.60078e-05
5.74418e-05
4.67787e-05
9.31604e-05
0.000211393
0.000134967
9.56745e-05
7.42582e-05
6.06818e-05
8.70832e-05
0.000192541
0.000143
0.000112434
9.05154e-05
7.45844e-05
8.1699e-05
0.000169743
0.000141626
0.000121732
0.000103677
8.7748e-05
7.81294e-05
0.000147433
0.000133203
0.000124612
0.000112518
9.88113e-05
7.70203e-05
0.00013097
0.00012256
0.000122582
0.000118759
0.000109486
8.56826e-05
0.000131111
0.000143439
0.000139455
0.000125942
0.000111224
9.90311e-05
0.000128662
0.00013808
0.000126094
0.000106458
8.8615e-05
0.000106849
0.000131388
0.000124528
0.000104833
8.221e-05
6.39122e-05
0.00011241
0.000136971
0.000106281
8.17239e-05
5.98979e-05
4.38923e-05
0.000116218
0.000142343
8.8217e-05
6.21704e-05
4.3719e-05
3.11982e-05
0.000118063
0.000149195
7.69027e-05
5.07485e-05
3.6036e-05
2.67889e-05
0.00011757
0.000160096
7.54831e-05
4.80398e-05
3.5983e-05
2.9283e-05
0.000117494
0.000170748
8.4543e-05
5.36123e-05
4.23639e-05
3.68044e-05
0.000117116
0.000180869
0.000101784
6.73484e-05
5.44531e-05
4.8221e-05
0.000114864
0.000188414
0.000123988
8.81735e-05
7.19266e-05
6.35266e-05
0.000110042
0.000191039
0.000145884
0.000112695
9.30401e-05
8.1031e-05
0.000102553
0.000187314
0.000161374
0.000134842
0.000114688
0.000100408
9.31151e-05
0.000175015
0.000165201
0.000148578
0.000132104
0.000118213
8.31596e-05
0.000155557
0.000158481
0.000154236
0.000147007
0.000137661
0.000108086
0.000145751
0.000153685
0.000142001
0.000131606
0.000121612
0.000122623
0.000158755
0.000166495
0.000145868
0.00012805
0.000111047
0.00013008
0.000161843
0.00016274
0.000139087
0.000114614
9.17205e-05
0.000131559
0.000157013
0.000145107
0.000120956
9.38383e-05
6.98937e-05
0.000128974
0.000143987
0.000119295
9.48972e-05
7.00271e-05
4.94494e-05
0.000124796
0.000125437
9.26082e-05
7.05551e-05
5.14395e-05
3.64784e-05
0.00012121
0.000108974
7.35472e-05
5.54261e-05
4.23446e-05
3.32103e-05
0.000119889
0.000100649
6.44036e-05
4.92627e-05
4.11802e-05
3.67235e-05
0.000120905
0.000101484
6.48184e-05
5.09185e-05
4.57463e-05
4.41213e-05
0.000122455
0.000109476
7.38848e-05
5.95776e-05
5.49841e-05
5.44851e-05
0.000122978
0.000121329
8.97765e-05
7.45624e-05
6.83148e-05
6.67206e-05
0.000121122
0.000133266
0.000110601
9.52449e-05
8.65738e-05
8.28643e-05
0.000116155
0.000140515
0.000130741
0.000117786
0.000107693
0.000101482
0.000107596
0.000138489
0.000144479
0.000138638
0.000131478
0.000125624
9.39196e-05
0.000109419
6.53935e-05
4.8928e-05
3.34259e-05
2.43811e-05
0.000108322
0.000113864
5.38715e-05
3.38282e-05
2.10715e-05
1.46048e-05
0.000116509
0.000127005
4.75197e-05
2.58393e-05
1.53614e-05
1.0037e-05
0.000121053
0.00014496
4.75241e-05
2.44503e-05
1.51386e-05
1.0051e-05
0.000123183
0.000164432
5.38612e-05
2.82016e-05
1.88946e-05
1.33869e-05
0.000122225
0.000183469
6.52997e-05
3.58159e-05
2.54568e-05
1.88534e-05
0.000118186
0.000200054
8.11346e-05
4.67695e-05
3.42709e-05
2.585e-05
0.000110281
0.000211216
0.000100453
6.13445e-05
4.5562e-05
3.45899e-05
0.00010114
0.000209669
0.000119196
7.91455e-05
5.9401e-05
4.55085e-05
9.3158e-05
0.000194857
0.000131519
9.63219e-05
7.40879e-05
5.74927e-05
8.59301e-05
0.000173808
0.000134392
0.000107822
8.62428e-05
6.81126e-05
8.01173e-05
0.000151399
0.000129453
0.000112713
9.51102e-05
7.74547e-05
7.65217e-05
0.000133023
0.00012087
0.000113624
0.000100795
8.49452e-05
7.5401e-05
0.000123367
0.000113734
0.000112948
0.000107509
9.52395e-05
8.34663e-05
0.000105048
0.000101716
8.84026e-05
6.58071e-05
4.91331e-05
9.58205e-05
9.81875e-05
8.15897e-05
6.25199e-05
4.20185e-05
2.95256e-05
0.000104105
9.69109e-05
6.24643e-05
4.20686e-05
2.62684e-05
1.74122e-05
0.000110728
0.000100376
4.95856e-05
3.05748e-05
1.91829e-05
1.25345e-05
0.000116045
0.000109981
4.585e-05
2.8155e-05
1.92014e-05
1.34749e-05
0.000119769
0.000125612
5.09575e-05
3.23921e-05
2.4296e-05
1.86341e-05
0.00012197
0.000144307
6.27233e-05
4.13223e-05
3.29047e-05
2.64647e-05
0.000121394
0.000163742
8.0547e-05
5.46043e-05
4.4551e-05
3.67373e-05
0.000119335
0.000175579
0.000103377
7.29846e-05
5.92946e-05
4.94844e-05
0.000115242
0.000179482
0.000125662
9.41836e-05
7.66542e-05
6.44083e-05
0.000108835
0.000176049
0.000142133
0.000113936
9.42255e-05
7.93879e-05
0.000100501
0.000165066
0.000149791
0.000128987
0.000110616
9.4703e-05
9.09069e-05
0.000150011
0.000148389
0.000137087
0.000123313
0.000108463
8.12193e-05
0.000134766
0.000141605
0.000141057
0.000136463
0.000126246
9.28672e-05
0.000152733
0.000154537
0.000136079
0.000105447
8.07129e-05
9.92205e-05
0.000145733
0.000134486
0.000109691
7.67959e-05
5.29705e-05
0.000101157
0.000127303
0.00010369
7.75628e-05
4.98787e-05
3.19369e-05
0.000100862
0.000103567
7.2775e-05
5.04995e-05
3.15522e-05
1.96048e-05
0.000100758
8.35611e-05
5.15241e-05
3.57709e-05
2.38024e-05
1.55599e-05
0.000103336
7.41646e-05
4.35749e-05
3.24711e-05
2.44979e-05
1.83572e-05
0.000108944
7.57943e-05
4.47087e-05
3.61904e-05
3.06609e-05
2.5453e-05
0.000115514
8.50311e-05
5.18822e-05
4.39643e-05
3.97741e-05
3.53092e-05
0.00012137
9.71905e-05
6.39799e-05
5.46812e-05
5.03981e-05
4.63831e-05
0.000124534
0.000109848
7.9517e-05
6.79903e-05
6.2692e-05
5.88896e-05
0.000124431
0.000120836
9.62245e-05
8.2988e-05
7.60623e-05
7.156e-05
0.000121081
0.000128156
0.000112375
9.96465e-05
9.16487e-05
8.612e-05
0.000114362
0.000129824
0.000125324
0.000116036
0.000108214
0.000101546
0.000104767
0.000127282
0.000135149
0.000132771
0.000129406
0.000123977
0.000108078
8.88095e-05
7.49684e-05
6.22242e-05
5.05227e-05
3.85117e-05
2.77689e-05
1.85691e-05
1.28689e-05
1.23154e-05
1.99872e-05
3.67936e-05
6.11001e-05
9.24444e-05
9.75691e-05
8.27805e-05
6.89846e-05
5.52619e-05
4.14747e-05
2.83e-05
1.79418e-05
1.04553e-05
6.83654e-06
7.17422e-06
1.42147e-05
2.96113e-05
5.11984e-05
7.5628e-05
8.37558e-05
6.92362e-05
5.4959e-05
4.03079e-05
2.6413e-05
1.50353e-05
7.98529e-06
4.05784e-06
2.58483e-06
3.53896e-06
9.50599e-06
2.29548e-05
4.18426e-05
6.14303e-05
6.53661e-05
4.96496e-05
3.50233e-05
2.18024e-05
1.15656e-05
5.06295e-06
2.10556e-06
9.07247e-07
6.43114e-07
1.52668e-06
5.84088e-06
1.63323e-05
3.1976e-05
4.81652e-05
4.56808e-05
3.08478e-05
1.84548e-05
9.4662e-06
4.04746e-06
1.4623e-06
4.58493e-07
1.31881e-07
1.30044e-07
7.06043e-07
3.47832e-06
1.09454e-05
2.32887e-05
3.69804e-05
3.25077e-05
2.12742e-05
1.26585e-05
6.90094e-06
3.22019e-06
1.18848e-06
3.19952e-07
5.924e-08
4.55005e-08
3.69927e-07
1.99739e-06
6.79297e-06
1.5744e-05
2.67057e-05
2.99239e-05
2.23169e-05
1.5474e-05
8.96206e-06
4.11453e-06
1.45991e-06
4.04758e-07
1.21435e-07
8.67263e-08
2.82133e-07
1.30484e-06
4.36557e-06
1.04722e-05
1.90899e-05
3.52348e-05
3.00532e-05
2.24437e-05
1.3568e-05
6.44708e-06
2.38934e-06
8.07462e-07
4.29342e-07
3.80765e-07
5.39868e-07
1.20395e-06
3.18957e-06
7.26927e-06
1.35414e-05
4.29702e-05
3.94807e-05
3.13677e-05
2.0473e-05
1.04181e-05
4.22961e-06
1.81346e-06
1.37388e-06
1.45485e-06
1.8407e-06
2.53948e-06
4.13572e-06
7.02929e-06
1.16374e-05
5.23338e-05
5.0317e-05
4.25962e-05
3.00059e-05
1.66583e-05
7.56347e-06
3.93425e-06
3.59787e-06
4.26627e-06
5.51604e-06
7.02809e-06
9.22297e-06
1.2029e-05
1.60466e-05
6.18191e-05
6.15504e-05
5.47024e-05
4.10864e-05
2.49339e-05
1.27013e-05
7.61331e-06
7.71155e-06
9.81835e-06
1.29285e-05
1.63458e-05
2.02616e-05
2.39445e-05
2.84343e-05
7.4496e-05
7.46697e-05
6.78804e-05
5.34959e-05
3.51741e-05
2.00016e-05
1.32087e-05
1.38127e-05
1.80911e-05
2.38481e-05
2.98796e-05
3.63478e-05
4.18666e-05
4.79025e-05
8.9326e-05
8.9534e-05
8.16923e-05
6.63653e-05
4.65883e-05
2.92686e-05
2.06727e-05
2.13419e-05
2.71561e-05
3.56996e-05
4.44141e-05
5.40954e-05
6.31568e-05
7.27308e-05
0.000111133
0.000106556
9.58689e-05
7.96816e-05
5.87807e-05
3.96858e-05
2.93214e-05
2.922e-05
3.51524e-05
4.50457e-05
5.64896e-05
7.02195e-05
8.51634e-05
0.000102242
8.20679e-05
7.33021e-05
6.47414e-05
5.41193e-05
4.34936e-05
3.25255e-05
2.27586e-05
1.49153e-05
1.00785e-05
9.05312e-06
1.3888e-05
2.48675e-05
3.98519e-05
5.62273e-05
7.53832e-05
6.64652e-05
5.62719e-05
4.4474e-05
3.24191e-05
2.11561e-05
1.29821e-05
7.45091e-06
4.82711e-06
4.86472e-06
9.34589e-06
1.98444e-05
3.47893e-05
5.02111e-05
6.47892e-05
5.31734e-05
4.1208e-05
2.90539e-05
1.81741e-05
9.83511e-06
5.04117e-06
2.54476e-06
1.65858e-06
2.25153e-06
6.00154e-06
1.52279e-05
2.92405e-05
4.3982e-05
4.99308e-05
3.62349e-05
2.40856e-05
1.40886e-05
7.06845e-06
2.94128e-06
1.17244e-06
5.04293e-07
3.8247e-07
9.17826e-07
3.55804e-06
1.06229e-05
2.24219e-05
3.57285e-05
3.48931e-05
2.21234e-05
1.24981e-05
6.18002e-06
2.61363e-06
9.40178e-07
2.78326e-07
7.36454e-08
7.55667e-08
4.09889e-07
2.09131e-06
7.00496e-06
1.61697e-05
2.77946e-05
2.6076e-05
1.64842e-05
9.65229e-06
5.14455e-06
2.29654e-06
8.04286e-07
2.04368e-07
3.48648e-08
2.68641e-08
2.16523e-07
1.20277e-06
4.35193e-06
1.09253e-05
2.02764e-05
2.59295e-05
1.85618e-05
1.20359e-05
6.42977e-06
2.75752e-06
9.24193e-07
2.4417e-07
7.07109e-08
5.0115e-08
1.63954e-07
7.90019e-07
2.78765e-06
7.17073e-06
1.42106e-05
3.18311e-05
2.52629e-05
1.69565e-05
9.34019e-06
4.07991e-06
1.42342e-06
4.75518e-07
2.57794e-07
2.20996e-07
3.02883e-07
7.16099e-07
2.04351e-06
5.00577e-06
1.00394e-05
3.90473e-05
3.29157e-05
2.37255e-05
1.39303e-05
6.44029e-06
2.47626e-06
1.10288e-06
8.61732e-07
8.63168e-07
1.03741e-06
1.43694e-06
2.49009e-06
4.59227e-06
8.23566e-06
4.75827e-05
4.22454e-05
3.27143e-05
2.07316e-05
1.0418e-05
4.52202e-06
2.51102e-06
2.35543e-06
2.62523e-06
3.25052e-06
4.09841e-06
5.52113e-06
7.53781e-06
1.07121e-05
5.55234e-05
5.17913e-05
4.25864e-05
2.90893e-05
1.60314e-05
7.84887e-06
5.08155e-06
5.29435e-06
6.36857e-06
8.12114e-06
1.02099e-05
1.28173e-05
1.54383e-05
1.87943e-05
6.50129e-05
6.18676e-05
5.30415e-05
3.88837e-05
2.36619e-05
1.29995e-05
9.21312e-06
1.0022e-05
1.2586e-05
1.61624e-05
2.01318e-05
2.44059e-05
2.7823e-05
3.15039e-05
7.28168e-05
7.08403e-05
6.29713e-05
4.91998e-05
3.2917e-05
2.0131e-05
1.50522e-05
1.63138e-05
2.05599e-05
2.61845e-05
3.19346e-05
3.78905e-05
4.21911e-05
4.62387e-05
8.15393e-05
7.92568e-05
7.2346e-05
5.97594e-05
4.33109e-05
2.90216e-05
2.24458e-05
2.35498e-05
2.83648e-05
3.559e-05
4.25684e-05
4.99568e-05
5.53186e-05
6.05017e-05
6.72027e-05
5.97743e-05
5.17876e-05
4.19853e-05
3.23544e-05
2.30619e-05
1.56825e-05
9.97363e-06
6.48794e-06
4.95175e-06
6.47402e-06
1.22571e-05
2.23425e-05
3.53777e-05
5.5709e-05
4.74326e-05
3.86373e-05
2.91564e-05
2.01978e-05
1.25421e-05
7.46448e-06
4.31996e-06
2.7435e-06
2.35318e-06
3.89198e-06
9.16633e-06
1.89786e-05
3.16834e-05
4.26894e-05
3.25776e-05
2.36018e-05
1.56401e-05
9.29134e-06
4.82334e-06
2.41274e-06
1.26318e-06
8.26915e-07
9.32372e-07
2.28026e-06
6.72125e-06
1.55261e-05
2.74281e-05
2.94762e-05
1.93645e-05
1.17636e-05
6.41479e-06
3.08589e-06
1.24857e-06
4.84897e-07
2.18701e-07
1.65218e-07
3.19487e-07
1.27461e-06
4.53604e-06
1.15773e-05
2.1896e-05
1.99572e-05
1.18256e-05
6.47122e-06
3.2147e-06
1.39771e-06
5.05284e-07
1.43696e-07
3.52239e-08
2.65941e-08
1.28857e-07
7.45091e-07
2.97775e-06
8.19437e-06
1.66575e-05
1.70241e-05
1.07541e-05
6.33514e-06
3.26423e-06
1.38751e-06
4.66032e-07
1.15342e-07
1.93287e-08
8.35949e-09
6.96145e-08
4.53647e-07
1.89193e-06
5.53831e-06
1.20431e-05
1.96709e-05
1.35807e-05
8.044e-06
3.97508e-06
1.60627e-06
5.14926e-07
1.31625e-07
3.53835e-08
2.00672e-08
5.75968e-08
3.15858e-07
1.27346e-06
3.69724e-06
8.29786e-06
2.58012e-05
1.83176e-05
1.10365e-05
5.52057e-06
2.23359e-06
7.40753e-07
2.42079e-07
1.2588e-07
9.84717e-08
1.20205e-07
2.97725e-07
9.56191e-07
2.61836e-06
5.85069e-06
3.22669e-05
2.40975e-05
1.53276e-05
7.98813e-06
3.36209e-06
1.24234e-06
5.69236e-07
4.38312e-07
4.04547e-07
4.39597e-07
5.87249e-07
1.07996e-06
2.2255e-06
4.47446e-06
3.94695e-05
3.12688e-05
2.11222e-05
1.1677e-05
5.27305e-06
2.25483e-06
1.3556e-06
1.2656e-06
1.30009e-06
1.47204e-06
1.74658e-06
2.32509e-06
3.29401e-06
5.09768e-06
4.67162e-05
3.87985e-05
2.76772e-05
1.63482e-05
8.04173e-06
3.9771e-06
2.89517e-06
3.02171e-06
3.36754e-06
3.99439e-06
4.7824e-06
5.89281e-06
7.13063e-06
9.03318e-06
5.49458e-05
4.67172e-05
3.49959e-05
2.22196e-05
1.20406e-05
6.73322e-06
5.49644e-06
6.11747e-06
7.21982e-06
8.79733e-06
1.06329e-05
1.27334e-05
1.45075e-05
1.66824e-05
6.11972e-05
5.3697e-05
4.24672e-05
2.90944e-05
1.7447e-05
1.07937e-05
9.35427e-06
1.07041e-05
1.30144e-05
1.59369e-05
1.91375e-05
2.24839e-05
2.48666e-05
2.71902e-05
6.74692e-05
6.03169e-05
5.02196e-05
3.71397e-05
2.44355e-05
1.64121e-05
1.45132e-05
1.64956e-05
1.99445e-05
2.42416e-05
2.86203e-05
3.31578e-05
3.61917e-05
3.8918e-05
4.69078e-05
3.98607e-05
3.29023e-05
2.51685e-05
1.80036e-05
1.19845e-05
7.83006e-06
4.96738e-06
3.27359e-06
2.28118e-06
2.2124e-06
3.98096e-06
8.85341e-06
1.78181e-05
3.23696e-05
2.51933e-05
1.91855e-05
1.33738e-05
8.52987e-06
4.9791e-06
2.93169e-06
1.7625e-06
1.18309e-06
9.24981e-07
1.12646e-06
2.70044e-06
7.09687e-06
1.53473e-05
2.05673e-05
1.37773e-05
9.03277e-06
5.43959e-06
2.97298e-06
1.45085e-06
7.33755e-07
4.17157e-07
3.02289e-07
2.94535e-07
5.63186e-07
1.87796e-06
5.57975e-06
1.27581e-05
1.27161e-05
7.3606e-06
4.05286e-06
2.0234e-06
8.97358e-07
3.37106e-07
1.27695e-07
6.24423e-08
5.26678e-08
7.84746e-08
2.85971e-07
1.23583e-06
4.04131e-06
9.84942e-06
9.62852e-06
5.54223e-06
2.99827e-06
1.46839e-06
6.16685e-07
2.10312e-07
5.47494e-08
1.18829e-08
7.0501e-09
2.57915e-08
1.6585e-07
8.21657e-07
2.8323e-06
7.26697e-06
1.01602e-05
6.22163e-06
3.44909e-06
1.63246e-06
6.38338e-07
1.98267e-07
4.56246e-08
7.21345e-09
1.93586e-09
1.31105e-08
1.05245e-07
5.37629e-07
1.91881e-06
5.13329e-06
1.27338e-05
7.93536e-06
4.20674e-06
1.87847e-06
6.93747e-07
2.04776e-07
4.84748e-08
1.21009e-08
5.88449e-09
1.2052e-08
7.57331e-08
3.7373e-07
1.30544e-06
3.48644e-06
1.70753e-05
1.05356e-05
5.54636e-06
2.44932e-06
8.92413e-07
2.71937e-07
8.47112e-08
4.31203e-08
3.16324e-08
3.18037e-08
7.43948e-08
2.80343e-07
9.17207e-07
2.41586e-06
2.19632e-05
1.39968e-05
7.55922e-06
3.39515e-06
1.27027e-06
4.41331e-07
2.07261e-07
1.60455e-07
1.39334e-07
1.341e-07
1.61027e-07
3.06407e-07
7.34965e-07
1.75901e-06
2.7807e-05
1.85505e-05
1.04297e-05
4.87688e-06
1.95545e-06
8.27291e-07
5.38344e-07
5.04183e-07
4.85173e-07
4.99042e-07
5.40086e-07
6.86067e-07
1.00207e-06
1.75488e-06
3.37391e-05
2.34667e-05
1.37732e-05
6.80069e-06
3.0043e-06
1.56257e-06
1.26714e-06
1.31756e-06
1.37479e-06
1.50916e-06
1.68206e-06
1.9795e-06
2.33991e-06
3.0783e-06
4.01007e-05
2.87965e-05
1.78058e-05
9.44191e-06
4.65944e-06
2.86522e-06
2.64662e-06
2.9303e-06
3.2591e-06
3.7511e-06
4.32521e-06
5.03245e-06
5.61671e-06
6.52356e-06
4.54504e-05
3.39086e-05
2.23551e-05
1.28877e-05
7.10255e-06
4.94552e-06
4.92801e-06
5.66323e-06
6.58264e-06
7.78404e-06
9.13998e-06
1.0606e-05
1.16476e-05
1.28023e-05
5.11418e-05
3.98028e-05
2.81683e-05
1.76993e-05
1.07303e-05
8.06131e-06
8.29122e-06
9.68551e-06
1.14508e-05
1.37297e-05
1.61246e-05
1.86716e-05
2.04678e-05
2.20652e-05
2.64089e-05
2.04341e-05
1.55052e-05
1.07014e-05
7.01265e-06
4.49793e-06
2.98413e-06
2.02379e-06
1.41816e-06
9.81412e-07
7.07194e-07
9.2468e-07
2.36231e-06
6.32435e-06
1.42182e-05
9.4447e-06
6.38895e-06
3.95536e-06
2.30724e-06
1.34545e-06
8.49556e-07
5.78809e-07
4.31511e-07
3.33694e-07
2.82895e-07
5.36768e-07
1.77234e-06
5.25372e-06
7.41429e-06
4.06422e-06
2.27932e-06
1.19225e-06
5.86691e-07
2.86964e-07
1.62454e-07
1.12298e-07
9.37357e-08
8.47439e-08
1.04859e-07
3.45965e-07
1.36389e-06
4.25572e-06
4.82394e-06
2.46728e-06
1.22197e-06
5.56774e-07
2.26706e-07
8.20932e-08
2.96386e-08
1.55967e-08
1.42239e-08
1.67552e-08
4.18588e-08
2.19602e-07
9.69351e-07
3.19459e-06
4.75947e-06
2.64935e-06
1.37843e-06
6.39234e-07
2.48449e-07
7.74963e-08
1.84709e-08
3.63333e-09
1.61957e-09
3.45844e-09