/*--------------------------------*- C++ -*----------------------------------*\
| =========                 |                                                 |
| \\      /  F ield         | OpenFOAM: The Open Source CFD Toolbox           |
|  \\    /   O peration     | Version:  v2106                                 |
|   \\  /    A nd           | Website:  www.openfoam.com                      |
|    \\/     M anipulation  |                                                 |
\*---------------------------------------------------------------------------*/
FoamFile
{
    version     2.0;
    format      ascii;
    arch        "LSB;label=32;scalar=64";
    class       volScalarField;
    location    "0.000123";
    object      alphat;
}
// * * * * * * * * * * * * * * * * * * * * * * * * * * * * * * * * * * * * * //

dimensions      [1 -1 -1 0 0 0 0];

internalField   nonuniform List<scalar> 
17924
(
9.60295e-17
9.60283e-17
9.60274e-17
9.60267e-17
9.58434e-17
9.58414e-17
9.584e-17
9.58387e-17
9.58377e-17
9.58369e-17
9.58363e-17
9.58421e-17
9.58405e-17
9.58392e-17
9.58381e-17
9.58371e-17
9.58363e-17
9.58357e-17
9.58411e-17
9.58397e-17
9.58385e-17
9.58374e-17
9.58365e-17
9.58357e-17
9.58351e-17
9.58404e-17
9.58392e-17
9.5838e-17
9.5837e-17
9.58361e-17
9.58354e-17
9.58348e-17
9.58401e-17
9.58389e-17
9.58377e-17
9.58367e-17
9.58359e-17
9.58352e-17
9.58346e-17
9.584e-17
9.58388e-17
9.58376e-17
9.58366e-17
9.58358e-17
9.58351e-17
9.58346e-17
9.58401e-17
9.58389e-17
9.58377e-17
9.58367e-17
9.58359e-17
9.58353e-17
9.58348e-17
9.58404e-17
9.58392e-17
9.5838e-17
9.58371e-17
9.58363e-17
9.58356e-17
9.58351e-17
9.58409e-17
9.58397e-17
9.58385e-17
9.58375e-17
9.58367e-17
9.58361e-17
9.58356e-17
9.58416e-17
9.58404e-17
9.58392e-17
9.58382e-17
9.58374e-17
9.58368e-17
9.58363e-17
9.58425e-17
9.58413e-17
9.58401e-17
9.58391e-17
9.58383e-17
9.58377e-17
9.58372e-17
9.58437e-17
9.58424e-17
9.58411e-17
9.58401e-17
9.58393e-17
9.58387e-17
9.58383e-17
9.58451e-17
9.58436e-17
9.58424e-17
9.58415e-17
9.58407e-17
9.584e-17
9.58395e-17
9.58468e-17
9.58451e-17
9.58437e-17
9.58426e-17
9.58418e-17
9.58412e-17
9.58407e-17
9.56714e-17
9.56692e-17
9.56674e-17
9.56658e-17
9.56645e-17
9.56634e-17
9.56627e-17
9.56622e-17
9.56621e-17
9.56624e-17
9.5663e-17
9.56642e-17
9.56658e-17
9.56679e-17
9.56695e-17
9.56676e-17
9.56658e-17
9.56642e-17
9.56628e-17
9.56617e-17
9.56609e-17
9.56605e-17
9.56604e-17
9.56608e-17
9.56616e-17
9.56627e-17
9.56642e-17
9.5666e-17
9.5668e-17
9.56661e-17
9.56642e-17
9.56626e-17
9.56612e-17
9.56601e-17
9.56593e-17
9.56589e-17
9.56588e-17
9.56593e-17
9.56601e-17
9.56612e-17
9.56629e-17
9.56646e-17
9.56669e-17
9.5665e-17
9.5663e-17
9.56613e-17
9.56599e-17
9.56588e-17
9.5658e-17
9.56576e-17
9.56576e-17
9.56581e-17
9.56589e-17
9.56601e-17
9.56618e-17
9.56635e-17
9.56662e-17
9.56641e-17
9.56621e-17
9.56604e-17
9.56589e-17
9.56578e-17
9.5657e-17
9.56566e-17
9.56567e-17
9.56572e-17
9.5658e-17
9.56593e-17
9.5661e-17
9.56627e-17
9.56658e-17
9.56636e-17
9.56616e-17
9.56598e-17
9.56583e-17
9.56572e-17
9.56564e-17
9.5656e-17
9.56561e-17
9.56566e-17
9.56575e-17
9.56587e-17
9.56604e-17
9.56623e-17
9.56658e-17
9.56635e-17
9.56614e-17
9.56596e-17
9.56581e-17
9.56569e-17
9.56562e-17
9.56558e-17
9.56559e-17
9.56564e-17
9.56573e-17
9.56585e-17
9.56602e-17
9.56621e-17
9.56661e-17
9.56639e-17
9.56617e-17
9.56599e-17
9.56584e-17
9.56572e-17
9.56564e-17
9.56561e-17
9.56561e-17
9.56566e-17
9.56575e-17
9.56587e-17
9.56604e-17
9.56622e-17
9.56668e-17
9.56646e-17
9.56624e-17
9.56606e-17
9.56591e-17
9.56579e-17
9.56572e-17
9.56568e-17
9.56568e-17
9.56573e-17
9.56582e-17
9.56594e-17
9.56611e-17
9.56628e-17
9.56678e-17
9.56656e-17
9.56635e-17
9.56617e-17
9.56602e-17
9.5659e-17
9.56582e-17
9.56579e-17
9.56579e-17
9.56584e-17
9.56592e-17
9.56604e-17
9.56621e-17
9.56637e-17
9.56691e-17
9.5667e-17
9.56649e-17
9.56631e-17
9.56616e-17
9.56605e-17
9.56598e-17
9.56594e-17
9.56594e-17
9.56599e-17
9.56607e-17
9.56619e-17
9.56635e-17
9.5665e-17
9.56708e-17
9.56686e-17
9.56665e-17
9.56648e-17
9.56634e-17
9.56623e-17
9.56616e-17
9.56612e-17
9.56613e-17
9.56617e-17
9.56625e-17
9.56636e-17
9.56652e-17
9.56667e-17
9.56728e-17
9.56706e-17
9.56686e-17
9.56669e-17
9.56655e-17
9.56645e-17
9.56638e-17
9.56634e-17
9.56635e-17
9.5664e-17
9.56647e-17
9.56659e-17
9.56673e-17
9.56689e-17
9.56753e-17
9.56727e-17
9.56706e-17
9.56689e-17
9.56676e-17
9.56666e-17
9.5666e-17
9.56658e-17
9.56658e-17
9.56663e-17
9.5667e-17
9.56682e-17
9.56697e-17
9.56718e-17
9.55124e-17
9.55105e-17
9.55087e-17
9.55072e-17
9.55059e-17
9.55049e-17
9.55042e-17
9.55038e-17
9.55037e-17
9.55041e-17
9.55048e-17
9.5506e-17
9.55077e-17
9.55098e-17
9.55104e-17
9.55086e-17
9.55068e-17
9.55052e-17
9.55038e-17
9.55027e-17
9.55019e-17
9.55015e-17
9.55016e-17
9.55021e-17
9.55031e-17
9.55044e-17
9.55062e-17
9.55081e-17
9.55088e-17
9.5507e-17
9.55049e-17
9.55032e-17
9.55017e-17
9.55006e-17
9.54999e-17
9.54995e-17
9.54996e-17
9.55002e-17
9.55013e-17
9.55027e-17
9.55047e-17
9.55067e-17
9.55076e-17
9.55056e-17
9.55034e-17
9.55016e-17
9.55001e-17
9.5499e-17
9.54982e-17
9.54979e-17
9.5498e-17
9.54987e-17
9.54998e-17
9.55013e-17
9.55034e-17
9.55055e-17
9.55068e-17
9.55046e-17
9.55023e-17
9.55004e-17
9.54989e-17
9.54977e-17
9.54969e-17
9.54966e-17
9.54968e-17
9.54975e-17
9.54986e-17
9.55002e-17
9.55023e-17
9.55046e-17
9.55064e-17
9.5504e-17
9.55017e-17
9.54997e-17
9.54981e-17
9.54968e-17
9.5496e-17
9.54957e-17
9.5496e-17
9.54967e-17
9.54979e-17
9.54995e-17
9.55016e-17
9.5504e-17
9.55063e-17
9.55038e-17
9.55014e-17
9.54994e-17
9.54977e-17
9.54964e-17
9.54956e-17
9.54953e-17
9.54955e-17
9.54962e-17
9.54974e-17
9.54991e-17
9.55012e-17
9.55036e-17
9.55067e-17
9.55041e-17
9.55016e-17
9.54996e-17
9.54979e-17
9.54966e-17
9.54957e-17
9.54954e-17
9.54956e-17
9.54963e-17
9.54975e-17
9.54991e-17
9.55012e-17
9.55036e-17
9.55074e-17
9.55048e-17
9.55023e-17
9.55002e-17
9.54985e-17
9.54972e-17
9.54964e-17
9.5496e-17
9.54962e-17
9.54969e-17
9.54981e-17
9.54997e-17
9.55017e-17
9.5504e-17
9.55084e-17
9.55059e-17
9.55034e-17
9.55013e-17
9.54996e-17
9.54983e-17
9.54975e-17
9.54971e-17
9.54973e-17
9.5498e-17
9.54991e-17
9.55006e-17
9.55027e-17
9.55048e-17
9.55097e-17
9.55073e-17
9.55048e-17
9.55028e-17
9.55011e-17
9.54998e-17
9.5499e-17
9.54987e-17
9.54989e-17
9.54995e-17
9.55006e-17
9.55021e-17
9.55041e-17
9.55061e-17
9.55114e-17
9.5509e-17
9.55066e-17
9.55046e-17
9.5503e-17
9.55018e-17
9.5501e-17
9.55007e-17
9.55009e-17
9.55015e-17
9.55025e-17
9.5504e-17
9.55059e-17
9.55077e-17
9.55133e-17
9.55109e-17
9.55088e-17
9.55068e-17
9.55053e-17
9.55041e-17
9.55034e-17
9.55031e-17
9.55033e-17
9.5504e-17
9.5505e-17
9.55064e-17
9.55081e-17
9.55099e-17
9.55157e-17
9.55129e-17
9.55108e-17
9.5509e-17
9.55076e-17
9.55066e-17
9.5506e-17
9.55058e-17
9.5506e-17
9.55066e-17
9.55076e-17
9.55089e-17
9.55106e-17
9.55127e-17
9.53651e-17
9.5364e-17
9.53628e-17
9.53618e-17
9.5361e-17
9.53604e-17
9.536e-17
9.53598e-17
9.53598e-17
9.536e-17
9.53605e-17
9.53613e-17
9.53624e-17
9.53637e-17
9.53638e-17
9.53627e-17
9.53614e-17
9.53603e-17
9.53594e-17
9.53587e-17
9.53582e-17
9.5358e-17
9.53581e-17
9.53585e-17
9.53592e-17
9.53602e-17
9.53615e-17
9.53628e-17
9.53627e-17
9.53614e-17
9.536e-17
9.53588e-17
9.53578e-17
9.53571e-17
9.53566e-17
9.53565e-17
9.53566e-17
9.53571e-17
9.53579e-17
9.53589e-17
9.53604e-17
9.53619e-17
9.5362e-17
9.53605e-17
9.53589e-17
9.53576e-17
9.53566e-17
9.53558e-17
9.53553e-17
9.53552e-17
9.53554e-17
9.53559e-17
9.53568e-17
9.5358e-17
9.53595e-17
9.53611e-17
9.53615e-17
9.53598e-17
9.53581e-17
9.53568e-17
9.53557e-17
9.53549e-17
9.53544e-17
9.53542e-17
9.53545e-17
9.5355e-17
9.53559e-17
9.53572e-17
9.53588e-17
9.53605e-17
9.53612e-17
9.53594e-17
9.53577e-17
9.53562e-17
9.53551e-17
9.53543e-17
9.53537e-17
9.53536e-17
9.53539e-17
9.53544e-17
9.53554e-17
9.53566e-17
9.53583e-17
9.53601e-17
9.53613e-17
9.53593e-17
9.53575e-17
9.5356e-17
9.53548e-17
9.5354e-17
9.53534e-17
9.53533e-17
9.53535e-17
9.53541e-17
9.53551e-17
9.53564e-17
9.5358e-17
9.53599e-17
9.53615e-17
9.53595e-17
9.53577e-17
9.53562e-17
9.53549e-17
9.53541e-17
9.53535e-17
9.53534e-17
9.53536e-17
9.53542e-17
9.53551e-17
9.53564e-17
9.5358e-17
9.53599e-17
9.5362e-17
9.536e-17
9.53581e-17
9.53566e-17
9.53554e-17
9.53545e-17
9.53539e-17
9.53538e-17
9.5354e-17
9.53546e-17
9.53555e-17
9.53568e-17
9.53584e-17
9.53602e-17
9.53627e-17
9.53607e-17
9.53589e-17
9.53574e-17
9.53561e-17
9.53553e-17
9.53547e-17
9.53546e-17
9.53548e-17
9.53553e-17
9.53562e-17
9.53575e-17
9.5359e-17
9.53607e-17
9.53636e-17
9.53617e-17
9.53599e-17
9.53584e-17
9.53572e-17
9.53564e-17
9.53558e-17
9.53557e-17
9.53559e-17
9.53565e-17
9.53573e-17
9.53585e-17
9.536e-17
9.53615e-17
9.53647e-17
9.53629e-17
9.53611e-17
9.53597e-17
9.53586e-17
9.53578e-17
9.53573e-17
9.53572e-17
9.53574e-17
9.53579e-17
9.53587e-17
9.53598e-17
9.53612e-17
9.53626e-17
9.53659e-17
9.53642e-17
9.53626e-17
9.53613e-17
9.53602e-17
9.53595e-17
9.5359e-17
9.5359e-17
9.53592e-17
9.53597e-17
9.53605e-17
9.53615e-17
9.53628e-17
9.5364e-17
9.53672e-17
9.53655e-17
9.5364e-17
9.53628e-17
9.5362e-17
9.53614e-17
9.53611e-17
9.53611e-17
9.53613e-17
9.53617e-17
9.53624e-17
9.53633e-17
9.53645e-17
9.53657e-17
9.52287e-17
9.52286e-17
9.52283e-17
9.52282e-17
9.52281e-17
9.5228e-17
9.52279e-17
9.52279e-17
9.52279e-17
9.5228e-17
9.52281e-17
9.52282e-17
9.52284e-17
9.52286e-17
9.52285e-17
9.52284e-17
9.5228e-17
9.52278e-17
9.52276e-17
9.52274e-17
9.52273e-17
9.52273e-17
9.52274e-17
9.52275e-17
9.52277e-17
9.5228e-17
9.52284e-17
9.52286e-17
9.52284e-17
9.52281e-17
9.52276e-17
9.52273e-17
9.52271e-17
9.52269e-17
9.52269e-17
9.52269e-17
9.5227e-17
9.52271e-17
9.52274e-17
9.52277e-17
9.52281e-17
9.52285e-17
9.52283e-17
9.52279e-17
9.52274e-17
9.52271e-17
9.52268e-17
9.52266e-17
9.52265e-17
9.52265e-17
9.52266e-17
9.52268e-17
9.52271e-17
9.52274e-17
9.52279e-17
9.52284e-17
9.52284e-17
9.52278e-17
9.52273e-17
9.52268e-17
9.52265e-17
9.52263e-17
9.52262e-17
9.52262e-17
9.52264e-17
9.52266e-17
9.52269e-17
9.52273e-17
9.52278e-17
9.52284e-17
9.52284e-17
9.52278e-17
9.52272e-17
9.52268e-17
9.52264e-17
9.52262e-17
9.52261e-17
9.52261e-17
9.52262e-17
9.52265e-17
9.52268e-17
9.52272e-17
9.52278e-17
9.52284e-17
9.52285e-17
9.52278e-17
9.52272e-17
9.52268e-17
9.52264e-17
9.52262e-17
9.5226e-17
9.52261e-17
9.52262e-17
9.52264e-17
9.52268e-17
9.52272e-17
9.52278e-17
9.52284e-17
9.52287e-17
9.52279e-17
9.52273e-17
9.52268e-17
9.52265e-17
9.52262e-17
9.52261e-17
9.52261e-17
9.52263e-17
9.52265e-17
9.52269e-17
9.52273e-17
9.52278e-17
9.52285e-17
9.52289e-17
9.52281e-17
9.52275e-17
9.5227e-17
9.52267e-17
9.52264e-17
9.52263e-17
9.52264e-17
9.52265e-17
9.52267e-17
9.52271e-17
9.52275e-17
9.5228e-17
9.52286e-17
9.52291e-17
9.52284e-17
9.52278e-17
9.52273e-17
9.5227e-17
9.52268e-17
9.52267e-17
9.52267e-17
9.52268e-17
9.52271e-17
9.52274e-17
9.52278e-17
9.52283e-17
9.52288e-17
9.52292e-17
9.52287e-17
9.52281e-17
9.52277e-17
9.52274e-17
9.52272e-17
9.52271e-17
9.52271e-17
9.52273e-17
9.52275e-17
9.52278e-17
9.52281e-17
9.52286e-17
9.5229e-17
9.52295e-17
9.5229e-17
9.52285e-17
9.52281e-17
9.52278e-17
9.52277e-17
9.52276e-17
9.52277e-17
9.52278e-17
9.5228e-17
9.52283e-17
9.52286e-17
9.5229e-17
9.52293e-17
9.52298e-17
9.52294e-17
9.5229e-17
9.52286e-17
9.52284e-17
9.52283e-17
9.52283e-17
9.52283e-17
9.52285e-17
9.52287e-17
9.52289e-17
9.52292e-17
9.52295e-17
9.52297e-17
9.523e-17
9.52296e-17
9.52293e-17
9.52291e-17
9.52291e-17
9.5229e-17
9.52291e-17
9.52291e-17
9.52293e-17
9.52294e-17
9.52296e-17
9.52298e-17
9.523e-17
9.52301e-17
9.51011e-17
9.51017e-17
9.51025e-17
9.51031e-17
9.51036e-17
9.5104e-17
9.51042e-17
9.51043e-17
9.51043e-17
9.5104e-17
9.51037e-17
9.51032e-17
9.51024e-17
9.51018e-17
9.51019e-17
9.51027e-17
9.51033e-17
9.51039e-17
9.51044e-17
9.51047e-17
9.5105e-17
9.51051e-17
9.5105e-17
9.51048e-17
9.51044e-17
9.51039e-17
9.51033e-17
9.51025e-17
9.51027e-17
9.51034e-17
9.51041e-17
9.51046e-17
9.51051e-17
9.51055e-17
9.51057e-17
9.51058e-17
9.51058e-17
9.51055e-17
9.51051e-17
9.51046e-17
9.51039e-17
9.51032e-17
9.51034e-17
9.5104e-17
9.51047e-17
9.51053e-17
9.51058e-17
9.51061e-17
9.51064e-17
9.51064e-17
9.51064e-17
9.51061e-17
9.51057e-17
9.51052e-17
9.51045e-17
9.51038e-17
9.51039e-17
9.51046e-17
9.51052e-17
9.51058e-17
9.51063e-17
9.51066e-17
9.51069e-17
9.5107e-17
9.51069e-17
9.51066e-17
9.51063e-17
9.51057e-17
9.51051e-17
9.51043e-17
9.51043e-17
9.51049e-17
9.51056e-17
9.51062e-17
9.51067e-17
9.5107e-17
9.51073e-17
9.51073e-17
9.51073e-17
9.5107e-17
9.51066e-17
9.51061e-17
9.51055e-17
9.51047e-17
9.51045e-17
9.51052e-17
9.51059e-17
9.51064e-17
9.51069e-17
9.51073e-17
9.51075e-17
9.51076e-17
9.51075e-17
9.51073e-17
9.51069e-17
9.51064e-17
9.51057e-17
9.5105e-17
9.51046e-17
9.51052e-17
9.5106e-17
9.51065e-17
9.5107e-17
9.51074e-17
9.51076e-17
9.51077e-17
9.51076e-17
9.51074e-17
9.5107e-17
9.51065e-17
9.51059e-17
9.51052e-17
9.51044e-17
9.51051e-17
9.51059e-17
9.51064e-17
9.5107e-17
9.51073e-17
9.51076e-17
9.51077e-17
9.51076e-17
9.51074e-17
9.5107e-17
9.51065e-17
9.51058e-17
9.51051e-17
9.51042e-17
9.51049e-17
9.51056e-17
9.51062e-17
9.51068e-17
9.51071e-17
9.51074e-17
9.51075e-17
9.51074e-17
9.51072e-17
9.51068e-17
9.51063e-17
9.51057e-17
9.5105e-17
9.51038e-17
9.51046e-17
9.51053e-17
9.51059e-17
9.51064e-17
9.51068e-17
9.51071e-17
9.51072e-17
9.51071e-17
9.51069e-17
9.51065e-17
9.5106e-17
9.51054e-17
9.51046e-17
9.51033e-17
9.51041e-17
9.51048e-17
9.51054e-17
9.5106e-17
9.51064e-17
9.51067e-17
9.51068e-17
9.51067e-17
9.51065e-17
9.51061e-17
9.51056e-17
9.51049e-17
9.51042e-17
9.51027e-17
9.51035e-17
9.51042e-17
9.51049e-17
9.51054e-17
9.51058e-17
9.51061e-17
9.51062e-17
9.51062e-17
9.51059e-17
9.51055e-17
9.5105e-17
9.51044e-17
9.51036e-17
9.51021e-17
9.51028e-17
9.51036e-17
9.51043e-17
9.51049e-17
9.51053e-17
9.51056e-17
9.51056e-17
9.51056e-17
9.51053e-17
9.51049e-17
9.51044e-17
9.51037e-17
9.51031e-17
9.49784e-17
9.49796e-17
9.49811e-17
9.49822e-17
9.49831e-17
9.49838e-17
9.49842e-17
9.49844e-17
9.49842e-17
9.49838e-17
9.4983e-17
9.4982e-17
9.49806e-17
9.49792e-17
9.49799e-17
9.49814e-17
9.49828e-17
9.4984e-17
9.4985e-17
9.49857e-17
9.49861e-17
9.49863e-17
9.4986e-17
9.49855e-17
9.49846e-17
9.49835e-17
9.49821e-17
9.49805e-17
9.49815e-17
9.49829e-17
9.49844e-17
9.49857e-17
9.49867e-17
9.49874e-17
9.49879e-17
9.4988e-17
9.49877e-17
9.49871e-17
9.49862e-17
9.4985e-17
9.49835e-17
9.49819e-17
9.49827e-17
9.49842e-17
9.49858e-17
9.49871e-17
9.49881e-17
9.49888e-17
9.49893e-17
9.49894e-17
9.49891e-17
9.49885e-17
9.49875e-17
9.49863e-17
9.49847e-17
9.49831e-17
9.49836e-17
9.49853e-17
9.49869e-17
9.49882e-17
9.49892e-17
9.49899e-17
9.49904e-17
9.49905e-17
9.49902e-17
9.49896e-17
9.49886e-17
9.49873e-17
9.49857e-17
9.4984e-17
9.49842e-17
9.4986e-17
9.49876e-17
9.49889e-17
9.499e-17
9.49907e-17
9.49912e-17
9.49913e-17
9.49909e-17
9.49903e-17
9.49894e-17
9.49881e-17
9.49865e-17
9.49847e-17
9.49846e-17
9.49864e-17
9.4988e-17
9.49894e-17
9.49905e-17
9.49912e-17
9.49917e-17
9.49917e-17
9.49914e-17
9.49908e-17
9.49898e-17
9.49886e-17
9.49869e-17
9.49851e-17
9.49846e-17
9.49864e-17
9.49881e-17
9.49895e-17
9.49906e-17
9.49913e-17
9.49918e-17
9.49919e-17
9.49916e-17
9.49909e-17
9.499e-17
9.49887e-17
9.49871e-17
9.49853e-17
9.49843e-17
9.49861e-17
9.49878e-17
9.49892e-17
9.49903e-17
9.49911e-17
9.49915e-17
9.49916e-17
9.49913e-17
9.49907e-17
9.49897e-17
9.49885e-17
9.49869e-17
9.49852e-17
9.49838e-17
9.49856e-17
9.49873e-17
9.49886e-17
9.49897e-17
9.49905e-17
9.4991e-17
9.4991e-17
9.49907e-17
9.49901e-17
9.49892e-17
9.4988e-17
9.49864e-17
9.49848e-17
9.4983e-17
9.49847e-17
9.49864e-17
9.49878e-17
9.49888e-17
9.49896e-17
9.49901e-17
9.49901e-17
9.49898e-17
9.49893e-17
9.49883e-17
9.49871e-17
9.49856e-17
9.49841e-17
9.4982e-17
9.49837e-17
9.49853e-17
9.49866e-17
9.49877e-17
9.49885e-17
9.49889e-17
9.4989e-17
9.49887e-17
9.49881e-17
9.49872e-17
9.4986e-17
9.49846e-17
9.49831e-17
9.49807e-17
9.49824e-17
9.4984e-17
9.49853e-17
9.49863e-17
9.4987e-17
9.49874e-17
9.49875e-17
9.49872e-17
9.49866e-17
9.49857e-17
9.49846e-17
9.49832e-17
9.49818e-17
9.49796e-17
9.49811e-17
9.49827e-17
9.49838e-17
9.49848e-17
9.49854e-17
9.49858e-17
9.49858e-17
9.49855e-17
9.49849e-17
9.49841e-17
9.49831e-17
9.49817e-17
9.49805e-17
9.48573e-17
9.48589e-17
9.48606e-17
9.48619e-17
9.4863e-17
9.48638e-17
9.48643e-17
9.48644e-17
9.48642e-17
9.48636e-17
9.48627e-17
9.48614e-17
9.48597e-17
9.4858e-17
9.48593e-17
9.4861e-17
9.48627e-17
9.48642e-17
9.48654e-17
9.48662e-17
9.48667e-17
9.48668e-17
9.48665e-17
9.48658e-17
9.48648e-17
9.48634e-17
9.48616e-17
9.48597e-17
9.48612e-17
9.4863e-17
9.48648e-17
9.48663e-17
9.48676e-17
9.48684e-17
9.48689e-17
9.4869e-17
9.48687e-17
9.48679e-17
9.48668e-17
9.48653e-17
9.48634e-17
9.48614e-17
9.48626e-17
9.48646e-17
9.48665e-17
9.48681e-17
9.48693e-17
9.48702e-17
9.48707e-17
9.48708e-17
9.48704e-17
9.48696e-17
9.48684e-17
9.48669e-17
9.48649e-17
9.48628e-17
9.48637e-17
9.48658e-17
9.48678e-17
9.48694e-17
9.48707e-17
9.48716e-17
9.48721e-17
9.48722e-17
9.48718e-17
9.4871e-17
9.48698e-17
9.48682e-17
9.48661e-17
9.4864e-17
9.48645e-17
9.48667e-17
9.48687e-17
9.48704e-17
9.48717e-17
9.48726e-17
9.48731e-17
9.48732e-17
9.48727e-17
9.48719e-17
9.48707e-17
9.48691e-17
9.4867e-17
9.48648e-17
9.48649e-17
9.48672e-17
9.48693e-17
9.48709e-17
9.48723e-17
9.48732e-17
9.48737e-17
9.48738e-17
9.48733e-17
9.48725e-17
9.48713e-17
9.48696e-17
9.48676e-17
9.48653e-17
9.48649e-17
9.48673e-17
9.48694e-17
9.48711e-17
9.48724e-17
9.48733e-17
9.48739e-17
9.48739e-17
9.48735e-17
9.48727e-17
9.48714e-17
9.48698e-17
9.48678e-17
9.48655e-17
9.48646e-17
9.48669e-17
9.48691e-17
9.48707e-17
9.48721e-17
9.4873e-17
9.48735e-17
9.48735e-17
9.48731e-17
9.48723e-17
9.48711e-17
9.48695e-17
9.48676e-17
9.48654e-17
9.4864e-17
9.48663e-17
9.48684e-17
9.48701e-17
9.48714e-17
9.48723e-17
9.48728e-17
9.48728e-17
9.48724e-17
9.48716e-17
9.48704e-17
9.48689e-17
9.48669e-17
9.48649e-17
9.48631e-17
9.48653e-17
9.48673e-17
9.4869e-17
9.48703e-17
9.48711e-17
9.48716e-17
9.48717e-17
9.48712e-17
9.48705e-17
9.48693e-17
9.48678e-17
9.4866e-17
9.4864e-17
9.48619e-17
9.4864e-17
9.4866e-17
9.48676e-17
9.48689e-17
9.48697e-17
9.48701e-17
9.48701e-17
9.48697e-17
9.4869e-17
9.48678e-17
9.48664e-17
9.48646e-17
9.48628e-17
9.48604e-17
9.48625e-17
9.48643e-17
9.48659e-17
9.4867e-17
9.48678e-17
9.48682e-17
9.48682e-17
9.48678e-17
9.4867e-17
9.4866e-17
9.48646e-17
9.48629e-17
9.48613e-17
9.4859e-17
9.4861e-17
9.48627e-17
9.48641e-17
9.48651e-17
9.48658e-17
9.48661e-17
9.4866e-17
9.48656e-17
9.48649e-17
9.4864e-17
9.48627e-17
9.48611e-17
9.48596e-17
9.47362e-17
9.47377e-17
9.47392e-17
9.47404e-17
9.47414e-17
9.47421e-17
9.47425e-17
9.47426e-17
9.47424e-17
9.47419e-17
9.4741e-17
9.47399e-17
9.47384e-17
9.47368e-17
9.47381e-17
9.47397e-17
9.47413e-17
9.47426e-17
9.47436e-17
9.47444e-17
9.47448e-17
9.47449e-17
9.47446e-17
9.4744e-17
9.4743e-17
9.47418e-17
9.47402e-17
9.47385e-17
9.47398e-17
9.47415e-17
9.47432e-17
9.47446e-17
9.47457e-17
9.47465e-17
9.47469e-17
9.4747e-17
9.47467e-17
9.4746e-17
9.4745e-17
9.47436e-17
9.47419e-17
9.47401e-17
9.47412e-17
9.4743e-17
9.47448e-17
9.47462e-17
9.47474e-17
9.47482e-17
9.47486e-17
9.47487e-17
9.47483e-17
9.47476e-17
9.47465e-17
9.47451e-17
9.47433e-17
9.47414e-17
9.47423e-17
9.47442e-17
9.47461e-17
9.47475e-17
9.47487e-17
9.47495e-17
9.475e-17
9.475e-17
9.47496e-17
9.47489e-17
9.47478e-17
9.47464e-17
9.47445e-17
9.47425e-17
9.4743e-17
9.47451e-17
9.4747e-17
9.47485e-17
9.47497e-17
9.47505e-17
9.47509e-17
9.4751e-17
9.47506e-17
9.47498e-17
9.47487e-17
9.47472e-17
9.47454e-17
9.47433e-17
9.47434e-17
9.47456e-17
9.47475e-17
9.4749e-17
9.47502e-17
9.4751e-17
9.47515e-17
9.47515e-17
9.47511e-17
9.47504e-17
9.47493e-17
9.47478e-17
9.47459e-17
9.47438e-17
9.47435e-17
9.47457e-17
9.47477e-17
9.47492e-17
9.47504e-17
9.47512e-17
9.47517e-17
9.47517e-17
9.47513e-17
9.47506e-17
9.47494e-17
9.4748e-17
9.47461e-17
9.4744e-17
9.47433e-17
9.47455e-17
9.47474e-17
9.4749e-17
9.47502e-17
9.4751e-17
9.47514e-17
9.47515e-17
9.47511e-17
9.47503e-17
9.47492e-17
9.47478e-17
9.4746e-17
9.47439e-17
9.47428e-17
9.4745e-17
9.47469e-17
9.47484e-17
9.47496e-17
9.47504e-17
9.47508e-17
9.47508e-17
9.47504e-17
9.47497e-17
9.47486e-17
9.47472e-17
9.47455e-17
9.47435e-17
9.47421e-17
9.47441e-17
9.4746e-17
9.47475e-17
9.47486e-17
9.47494e-17
9.47498e-17
9.47498e-17
9.47494e-17
9.47487e-17
9.47476e-17
9.47463e-17
9.47446e-17
9.47428e-17
9.47411e-17
9.4743e-17
9.47448e-17
9.47463e-17
9.47474e-17
9.47481e-17
9.47485e-17
9.47484e-17
9.47481e-17
9.47474e-17
9.47463e-17
9.4745e-17
9.47434e-17
9.47417e-17
9.47398e-17
9.47416e-17
9.47433e-17
9.47447e-17
9.47457e-17
9.47464e-17
9.47468e-17
9.47467e-17
9.47463e-17
9.47456e-17
9.47446e-17
9.47434e-17
9.47419e-17
9.47403e-17
9.47384e-17
9.47403e-17
9.47418e-17
9.4743e-17
9.47439e-17
9.47445e-17
9.47448e-17
9.47447e-17
9.47443e-17
9.47437e-17
9.47428e-17
9.47417e-17
9.47403e-17
9.47388e-17
9.46151e-17
9.46162e-17
9.46172e-17
9.46181e-17
9.46187e-17
9.46192e-17
9.46195e-17
9.46195e-17
9.46194e-17
9.4619e-17
9.46185e-17
9.46177e-17
9.46167e-17
9.46156e-17
9.46165e-17
9.46176e-17
9.46187e-17
9.46196e-17
9.46204e-17
9.46209e-17
9.46212e-17
9.46212e-17
9.4621e-17
9.46206e-17
9.462e-17
9.46191e-17
9.4618e-17
9.46169e-17
9.46177e-17
9.46189e-17
9.46202e-17
9.46211e-17
9.46218e-17
9.46223e-17
9.46226e-17
9.46227e-17
9.46225e-17
9.46221e-17
9.46214e-17
9.46205e-17
9.46193e-17
9.46181e-17
9.46188e-17
9.46201e-17
9.46213e-17
9.46223e-17
9.46231e-17
9.46236e-17
9.46239e-17
9.46239e-17
9.46237e-17
9.46232e-17
9.46225e-17
9.46216e-17
9.46204e-17
9.46191e-17
9.46196e-17
9.4621e-17
9.46222e-17
9.46232e-17
9.4624e-17
9.46246e-17
9.46249e-17
9.46249e-17
9.46247e-17
9.46242e-17
9.46235e-17
9.46225e-17
9.46213e-17
9.462e-17
9.46202e-17
9.46216e-17
9.46229e-17
9.46239e-17
9.46247e-17
9.46253e-17
9.46256e-17
9.46256e-17
9.46254e-17
9.46249e-17
9.46242e-17
9.46232e-17
9.4622e-17
9.46206e-17
9.46205e-17
9.46221e-17
9.46233e-17
9.46244e-17
9.46252e-17
9.46257e-17
9.46261e-17
9.46261e-17
9.46258e-17
9.46254e-17
9.46246e-17
9.46236e-17
9.46224e-17
9.4621e-17
9.46207e-17
9.46223e-17
9.46236e-17
9.46246e-17
9.46254e-17
9.4626e-17
9.46263e-17
9.46263e-17
9.46261e-17
9.46256e-17
9.46249e-17
9.46239e-17
9.46227e-17
9.46212e-17
9.46207e-17
9.46222e-17
9.46235e-17
9.46246e-17
9.46254e-17
9.46259e-17
9.46262e-17
9.46262e-17
9.4626e-17
9.46255e-17
9.46248e-17
9.46238e-17
9.46226e-17
9.46212e-17
9.46204e-17
9.46219e-17
9.46232e-17
9.46243e-17
9.46251e-17
9.46256e-17
9.46259e-17
9.46259e-17
9.46257e-17
9.46252e-17
9.46245e-17
9.46235e-17
9.46223e-17
9.4621e-17
9.462e-17
9.46214e-17
9.46227e-17
9.46237e-17
9.46245e-17
9.4625e-17
9.46253e-17
9.46253e-17
9.46251e-17
9.46246e-17
9.46239e-17
9.4623e-17
9.46218e-17
9.46205e-17
9.46193e-17
9.46207e-17
9.4622e-17
9.4623e-17
9.46237e-17
9.46242e-17
9.46245e-17
9.46245e-17
9.46243e-17
9.46238e-17
9.46231e-17
9.46222e-17
9.46211e-17
9.46198e-17
9.46185e-17
9.46198e-17
9.4621e-17
9.46219e-17
9.46227e-17
9.46232e-17
9.46234e-17
9.46234e-17
9.46232e-17
9.46227e-17
9.4622e-17
9.46212e-17
9.46201e-17
9.4619e-17
9.46176e-17
9.46189e-17
9.462e-17
9.46208e-17
9.46215e-17
9.46219e-17
9.46221e-17
9.46221e-17
9.46219e-17
9.46215e-17
9.46209e-17
9.462e-17
9.46191e-17
9.46179e-17
9.44956e-17
9.44962e-17
9.44966e-17
9.4497e-17
9.44973e-17
9.44975e-17
9.44976e-17
9.44976e-17
9.44976e-17
9.44974e-17
9.44972e-17
9.44969e-17
9.44965e-17
9.4496e-17
9.44964e-17
9.44968e-17
9.44974e-17
9.44978e-17
9.44981e-17
9.44983e-17
9.44984e-17
9.44984e-17
9.44984e-17
9.44982e-17
9.4498e-17
9.44977e-17
9.44972e-17
9.44968e-17
9.44969e-17
9.44975e-17
9.4498e-17
9.44984e-17
9.44987e-17
9.44989e-17
9.44991e-17
9.44991e-17
9.4499e-17
9.44989e-17
9.44987e-17
9.44983e-17
9.44979e-17
9.44974e-17
9.44975e-17
9.44981e-17
9.44986e-17
9.4499e-17
9.44993e-17
9.44995e-17
9.44997e-17
9.44997e-17
9.44996e-17
9.44995e-17
9.44993e-17
9.44989e-17
9.44985e-17
9.4498e-17
9.44979e-17
9.44986e-17
9.44991e-17
9.44995e-17
9.44998e-17
9.45e-17
9.45001e-17
9.45002e-17
9.45001e-17
9.45e-17
9.44997e-17
9.44994e-17
9.4499e-17
9.44984e-17
9.44983e-17
9.44989e-17
9.44995e-17
9.44999e-17
9.45002e-17
9.45004e-17
9.45005e-17
9.45006e-17
9.45005e-17
9.45004e-17
9.45001e-17
9.44998e-17
9.44993e-17
9.44988e-17
9.44986e-17
9.44992e-17
9.44998e-17
9.45002e-17
9.45005e-17
9.45007e-17
9.45009e-17
9.45009e-17
9.45008e-17
9.45007e-17
9.45004e-17
9.45001e-17
9.44996e-17
9.4499e-17
9.44988e-17
9.44994e-17
9.45e-17
9.45004e-17
9.45007e-17
9.45009e-17
9.45011e-17
9.45011e-17
9.4501e-17
9.45009e-17
9.45006e-17
9.45003e-17
9.44998e-17
9.44992e-17
9.44988e-17
9.44995e-17
9.45001e-17
9.45005e-17
9.45008e-17
9.4501e-17
9.45012e-17
9.45012e-17
9.45012e-17
9.4501e-17
9.45007e-17
9.45004e-17
9.44999e-17
9.44993e-17
9.44988e-17
9.44995e-17
9.45001e-17
9.45005e-17
9.45008e-17
9.45011e-17
9.45012e-17
9.45012e-17
9.45012e-17
9.4501e-17
9.45008e-17
9.45004e-17
9.44999e-17
9.44993e-17
9.44988e-17
9.44994e-17
9.45e-17
9.45004e-17
9.45007e-17
9.4501e-17
9.45011e-17
9.45011e-17
9.45011e-17
9.45009e-17
9.45007e-17
9.45003e-17
9.44998e-17
9.44992e-17
9.44986e-17
9.44992e-17
9.44997e-17
9.45002e-17
9.45005e-17
9.45008e-17
9.45009e-17
9.45009e-17
9.45009e-17
9.45007e-17
9.45005e-17
9.45001e-17
9.44996e-17
9.4499e-17
9.44982e-17
9.44988e-17
9.44994e-17
9.44999e-17
9.45002e-17
9.45004e-17
9.45006e-17
9.45006e-17
9.45006e-17
9.45004e-17
9.45001e-17
9.44998e-17
9.44993e-17
9.44987e-17
9.44978e-17
9.44985e-17
9.4499e-17
9.44994e-17
9.44997e-17
9.45e-17
9.45001e-17
9.45002e-17
9.45001e-17
9.45e-17
9.44997e-17
9.44994e-17
9.44989e-17
9.44983e-17
9.43805e-17
9.43805e-17
9.43804e-17
9.43803e-17
9.43802e-17
9.43802e-17
9.43801e-17
9.43801e-17
9.43802e-17
9.43802e-17
9.43803e-17
9.43805e-17
9.43807e-17
9.43808e-17
9.43806e-17
9.43804e-17
9.43804e-17
9.43803e-17
9.43802e-17
9.43801e-17
9.43801e-17
9.43801e-17
9.43802e-17
9.43803e-17
9.43804e-17
9.43805e-17
9.43807e-17
9.43809e-17
9.43805e-17
9.43804e-17
9.43803e-17
9.43802e-17
9.43802e-17
9.43801e-17
9.43801e-17
9.43801e-17
9.43802e-17
9.43803e-17
9.43804e-17
9.43806e-17
9.43808e-17
9.43809e-17
9.43805e-17
9.43805e-17
9.43804e-17
9.43803e-17
9.43802e-17
9.43801e-17
9.43801e-17
9.43801e-17
9.43802e-17
9.43803e-17
9.43804e-17
9.43806e-17
9.43808e-17
9.4381e-17
9.43806e-17
9.43805e-17
9.43804e-17
9.43803e-17
9.43802e-17
9.43801e-17
9.43801e-17
9.43801e-17
9.43802e-17
9.43803e-17
9.43805e-17
9.43807e-17
9.43808e-17
9.4381e-17
9.43807e-17
9.43806e-17
9.43804e-17
9.43803e-17
9.43802e-17
9.43802e-17
9.43802e-17
9.43802e-17
9.43803e-17
9.43804e-17
9.43805e-17
9.43807e-17
9.43809e-17
9.43811e-17
9.43808e-17
9.43807e-17
9.43806e-17
9.43805e-17
9.43804e-17
9.43803e-17
9.43803e-17
9.43803e-17
9.43804e-17
9.43805e-17
9.43807e-17
9.43808e-17
9.4381e-17
9.43812e-17
9.4381e-17
9.43809e-17
9.43807e-17
9.43806e-17
9.43805e-17
9.43805e-17
9.43805e-17
9.43805e-17
9.43806e-17
9.43807e-17
9.43808e-17
9.4381e-17
9.43812e-17
9.43813e-17
9.43811e-17
9.4381e-17
9.43809e-17
9.43808e-17
9.43807e-17
9.43807e-17
9.43807e-17
9.43807e-17
9.43808e-17
9.43809e-17
9.4381e-17
9.43812e-17
9.43813e-17
9.43815e-17
9.43813e-17
9.43812e-17
9.43811e-17
9.4381e-17
9.43809e-17
9.43809e-17
9.43809e-17
9.43809e-17
9.4381e-17
9.43811e-17
9.43812e-17
9.43814e-17
9.43815e-17
9.43816e-17
9.43815e-17
9.43814e-17
9.43813e-17
9.43812e-17
9.43812e-17
9.43812e-17
9.43812e-17
9.43812e-17
9.43813e-17
9.43814e-17
9.43815e-17
9.43816e-17
9.43818e-17
9.43818e-17
9.43817e-17
9.43816e-17
9.43815e-17
9.43815e-17
9.43814e-17
9.43814e-17
9.43814e-17
9.43815e-17
9.43816e-17
9.43817e-17
9.43818e-17
9.43819e-17
9.4382e-17
9.43821e-17
9.43819e-17
9.43818e-17
9.43818e-17
9.43817e-17
9.43817e-17
9.43817e-17
9.43817e-17
9.43818e-17
9.43819e-17
9.4382e-17
9.43821e-17
9.43822e-17
9.43822e-17
9.43823e-17
9.43821e-17
9.43821e-17
9.4382e-17
9.43819e-17
9.43819e-17
9.43819e-17
9.4382e-17
9.43821e-17
9.43821e-17
9.43822e-17
9.43823e-17
9.43824e-17
9.43825e-17
9.43825e-17
9.42725e-17
9.4272e-17
9.42715e-17
9.4271e-17
9.42707e-17
9.42705e-17
9.42704e-17
9.42703e-17
9.42704e-17
9.42706e-17
9.42709e-17
9.42713e-17
9.42719e-17
9.42725e-17
9.42719e-17
9.42714e-17
9.42709e-17
9.42705e-17
9.42702e-17
9.42699e-17
9.42698e-17
9.42698e-17
9.42699e-17
9.42701e-17
9.42704e-17
9.42708e-17
9.42714e-17
9.4272e-17
9.42714e-17
9.42709e-17
9.42703e-17
9.42699e-17
9.42696e-17
9.42694e-17
9.42693e-17
9.42692e-17
9.42694e-17
9.42696e-17
9.42699e-17
9.42704e-17
9.4271e-17
9.42716e-17
9.4271e-17
9.42705e-17
9.42699e-17
9.42695e-17
9.42692e-17
9.4269e-17
9.42688e-17
9.42688e-17
9.4269e-17
9.42692e-17
9.42696e-17
9.427e-17
9.42706e-17
9.42713e-17
9.42708e-17
9.42702e-17
9.42696e-17
9.42692e-17
9.42689e-17
9.42686e-17
9.42685e-17
9.42685e-17
9.42687e-17
9.42689e-17
9.42693e-17
9.42698e-17
9.42704e-17
9.4271e-17
9.42706e-17
9.427e-17
9.42695e-17
9.4269e-17
9.42687e-17
9.42685e-17
9.42683e-17
9.42684e-17
9.42685e-17
9.42687e-17
9.42691e-17
9.42696e-17
9.42702e-17
9.42709e-17
9.42706e-17
9.427e-17
9.42694e-17
9.4269e-17
9.42686e-17
9.42684e-17
9.42683e-17
9.42683e-17
9.42684e-17
9.42687e-17
9.42691e-17
9.42695e-17
9.42701e-17
9.42708e-17
9.42707e-17
9.42701e-17
9.42695e-17
9.4269e-17
9.42687e-17
9.42684e-17
9.42683e-17
9.42683e-17
9.42685e-17
9.42687e-17
9.42691e-17
9.42696e-17
9.42702e-17
9.42708e-17
9.42709e-17
9.42703e-17
9.42697e-17
9.42692e-17
9.42689e-17
9.42687e-17
9.42685e-17
9.42685e-17
9.42687e-17
9.42689e-17
9.42693e-17
9.42698e-17
9.42703e-17
9.42709e-17
9.42711e-17
9.42705e-17
9.427e-17
9.42695e-17
9.42692e-17
9.42689e-17
9.42688e-17
9.42688e-17
9.4269e-17
9.42692e-17
9.42696e-17
9.427e-17
9.42706e-17
9.42712e-17
9.42715e-17
9.42709e-17
9.42703e-17
9.42699e-17
9.42696e-17
9.42694e-17
9.42693e-17
9.42693e-17
9.42694e-17
9.42697e-17
9.427e-17
9.42704e-17
9.4271e-17
9.42715e-17
9.42719e-17
9.42713e-17
9.42708e-17
9.42704e-17
9.42701e-17
9.42699e-17
9.42698e-17
9.42698e-17
9.427e-17
9.42702e-17
9.42705e-17
9.42709e-17
9.42714e-17
9.42719e-17
9.42725e-17
9.42719e-17
9.42714e-17
9.4271e-17
9.42707e-17
9.42705e-17
9.42704e-17
9.42705e-17
9.42706e-17
9.42708e-17
9.42712e-17
9.42715e-17
9.4272e-17
9.42725e-17
9.42731e-17
9.42725e-17
9.42719e-17
9.42716e-17
9.42713e-17
9.42712e-17
9.42711e-17
9.42712e-17