/*--------------------------------*- C++ -*----------------------------------*\
| =========                 |                                                 |
| \\      /  F ield         | OpenFOAM: The Open Source CFD Toolbox           |
|  \\    /   O peration     | Version:  v2106                                 |
|   \\  /    A nd           | Website:  www.openfoam.com                      |
|    \\/     M anipulation  |                                                 |
\*---------------------------------------------------------------------------*/
FoamFile
{
    version     2.0;
    format      ascii;
    arch        "LSB;label=32;scalar=64";
    class       surfaceScalarField;
    location    "0.000133";
    object      phi;
}
// * * * * * * * * * * * * * * * * * * * * * * * * * * * * * * * * * * * * * //

dimensions      [1 0 -1 0 0 0 0];

internalField   nonuniform List<scalar> 
52267
(
2.89965e-09
2.89684e-09
-9.10079e-08
-3.26941e-09
-3.27273e-09
2.46335e-09
2.90248e-09
-9.09669e-08
-3.25164e-09
1.99625e-09
3.07239e-09
-9.08497e-08
-3.44295e-09
1.49782e-09
3.08964e-09
-9.07699e-08
-3.46592e-09
9.98268e-10
3.13797e-09
-9.07037e-08
-3.54595e-09
4.9885e-10
3.14201e-09
-9.06788e-08
-3.56712e-09
3.14177e-09
-9.06743e-08
-3.57484e-09
2.90577e-09
2.46212e-09
-9.0967e-08
-3.25628e-09
2.48833e-09
2.48704e-09
-9.08884e-08
2.05646e-09
2.61372e-09
-9.07745e-08
1.57683e-09
2.63399e-09
-9.06961e-08
1.07483e-09
2.66867e-09
-9.06266e-08
5.45854e-10
2.67857e-09
-9.05857e-08
2.68567e-09
-9.0573e-08
3.07609e-09
1.99653e-09
-9.08498e-08
-3.44846e-09
2.61541e-09
2.05698e-09
-9.07747e-08
2.13908e-09
2.13935e-09
-9.06557e-08
1.6197e-09
2.16273e-09
-9.05996e-08
1.08766e-09
2.17755e-09
-9.05455e-08
5.45733e-10
2.18074e-09
-9.05227e-08
2.18386e-09
-9.05186e-08
3.09391e-09
1.49895e-09
-9.07699e-08
-3.4723e-09
2.63587e-09
1.57853e-09
-9.06963e-08
2.1624e-09
1.62153e-09
-9.05997e-08
1.64632e-09
1.64833e-09
-9.05529e-08
1.10983e-09
1.65542e-09
-9.05133e-08
5.57898e-10
1.65785e-09
-9.04928e-08
1.65991e-09
-9.0491e-08
3.14297e-09
1.00009e-09
-9.07036e-08
-3.55365e-09
2.67085e-09
1.07742e-09
-9.06265e-08
2.17717e-09
1.09054e-09
-9.05455e-08
1.6533e-09
1.11282e-09
-9.05131e-08
1.11093e-09
1.11405e-09
-9.04844e-08
5.57448e-10
1.11507e-09
-9.04721e-08
1.11561e-09
-9.04744e-08
3.14794e-09
5.00829e-10
-9.06785e-08
-3.5753e-09
2.68152e-09
5.48549e-10
-9.05855e-08
2.18082e-09
5.48845e-10
-9.05234e-08
1.65616e-09
5.61136e-10
-9.04941e-08
1.11217e-09
5.60871e-10
-9.04743e-08
5.58137e-10
5.61711e-10
-9.04647e-08
5.61918e-10
-9.04692e-08
3.14631e-09
8.33309e-13
-9.06748e-08
-3.5818e-09
2.68725e-09
1.06899e-12
-9.05732e-08
2.18283e-09
1.35419e-12
-9.05189e-08
1.65759e-09
1.32241e-12
-9.04911e-08
1.11269e-09
1.81619e-12
-9.04748e-08
5.58887e-10
2.49735e-12
-9.04669e-08
2.44231e-12
-9.04728e-08
3.14576e-09
-4.9904e-10
-9.06747e-08
-3.58157e-09
2.68638e-09
-5.46255e-10
-9.05732e-08
2.18188e-09
-5.46219e-10
-9.05188e-08
1.65662e-09
-5.58644e-10
-9.04912e-08
1.11212e-09
-5.57724e-10
-9.0475e-08
5.59075e-10
-5.57548e-10
-9.04671e-08
-5.58036e-10
-9.04731e-08
3.14882e-09
-9.06787e-08
-3.57637e-09
2.68247e-09
-9.05861e-08
2.18211e-09
-9.05235e-08
1.65721e-09
-9.04942e-08
1.11321e-09
-9.04743e-08
5.59348e-10
-9.04644e-08
-9.0469e-08
3.81105e-09
3.8084e-09
-9.84338e-08
-4.40003e-09
-4.40392e-09
3.20213e-09
3.77316e-09
-9.838e-08
-4.35265e-09
2.56329e-09
3.90065e-09
-9.82168e-08
-4.5e-09
1.90309e-09
3.85918e-09
-9.81024e-08
-4.46207e-09
1.25832e-09
3.8655e-09
-9.80053e-08
-4.5053e-09
6.25e-10
3.83045e-09
-9.7963e-08
-4.48896e-09
-1.6498e-12
3.80537e-09
-9.79512e-08
-4.47388e-09
-6.28167e-10
3.80566e-09
-9.79512e-08
-4.47434e-09
-1.26152e-09
3.83043e-09
-9.79631e-08
-4.48877e-09
-1.90581e-09
3.86567e-09
-9.80052e-08
-4.50537e-09
-2.56553e-09
3.85934e-09
-9.81025e-08
-4.46175e-09
-3.2034e-09
3.90142e-09
-9.82167e-08
-4.50069e-09
-3.81117e-09
3.77436e-09
-9.838e-08
-4.3537e-09
3.80965e-09
-9.84342e-08
-4.40096e-09
-4.40286e-09
3.77669e-09
3.2013e-09
-9.83799e-08
-4.35758e-09
3.16932e-09
3.168e-09
-9.82583e-08
2.56501e-09
3.24236e-09
-9.80886e-08
1.93067e-09
3.20171e-09
-9.79646e-08
1.29676e-09
3.18678e-09
-9.7861e-08
6.51872e-10
3.15551e-09
-9.78005e-08
-1.60778e-12
3.13754e-09
-9.77808e-08
-6.54979e-10
3.13793e-09
-9.77808e-08
-1.29991e-09
3.15599e-09
-9.78005e-08
-1.93357e-09
3.18736e-09
-9.78611e-08
-2.56727e-09
3.20233e-09
-9.79647e-08
-3.17025e-09
3.24332e-09
-9.80888e-08
-3.77609e-09
3.16919e-09
-9.82585e-08
3.20269e-09
-9.83802e-08
-4.35633e-09
3.90421e-09
2.56378e-09
-9.82166e-08
-4.50509e-09
3.24405e-09
2.56559e-09
-9.80889e-08
2.59197e-09
2.59198e-09
-9.79167e-08
1.92347e-09
2.5582e-09
-9.78234e-08
1.27085e-09
2.5205e-09
-9.774e-08
6.30591e-10
2.48269e-09
-9.77032e-08
-1.56302e-12
2.46134e-09
-9.76944e-08
-6.33622e-10
2.46179e-09
-9.76943e-08
-1.27375e-09
2.48349e-09
-9.7703e-08
-1.92593e-09
2.52142e-09
-9.774e-08
-2.59349e-09
2.55898e-09
-9.78233e-08
-3.24413e-09
2.59303e-09
-9.79167e-08
-3.90263e-09
2.56663e-09
-9.80888e-08
2.56527e-09
-9.82168e-08
-4.50268e-09
3.86244e-09
1.90424e-09
-9.81023e-08
-4.46664e-09
3.20336e-09
1.93218e-09
-9.79649e-08
2.55807e-09
1.92452e-09
-9.78235e-08
1.9013e-09
1.90249e-09
-9.77411e-08
1.25667e-09
1.86211e-09
-9.76789e-08
6.23171e-10
1.82814e-09
-9.76461e-08
-1.67248e-12
1.80896e-09
-9.76418e-08
-6.26466e-10
1.80952e-09
-9.76417e-08
-1.25962e-09
1.82912e-09
-9.76461e-08
-1.90367e-09
1.86324e-09
-9.7679e-08
-2.55941e-09
1.90349e-09
-9.77411e-08
-3.20325e-09
1.92576e-09
-9.78235e-08
-3.86081e-09
1.93327e-09
-9.79649e-08
1.90572e-09
-9.81028e-08
-4.4643e-09
3.8689e-09
1.25986e-09
-9.80051e-08
-4.5103e-09
3.18869e-09
1.29856e-09
-9.7861e-08
2.52064e-09
1.27239e-09
-9.77399e-08
1.86112e-09
1.2583e-09
-9.76786e-08
1.22125e-09
1.22279e-09
-9.76332e-08
6.02372e-10
1.19579e-09
-9.76151e-08
-1.53112e-12
1.18083e-09
-9.76199e-08
-6.05417e-10
1.18149e-09
-9.762e-08
-1.22387e-09
1.19681e-09
-9.76152e-08
-1.86309e-09
1.22409e-09
-9.76336e-08
-2.52167e-09
1.25957e-09
-9.76788e-08
-3.18841e-09
1.27382e-09
-9.77401e-08
-3.86727e-09
1.29967e-09
-9.78612e-08
1.26105e-09
-9.80058e-08
-4.50801e-09
3.83378e-09
6.26363e-10
-9.79628e-08
-4.49379e-09
3.15746e-09
6.53475e-10
-9.78004e-08
2.48289e-09
6.32048e-10
-9.77037e-08
1.82727e-09
6.24682e-10
-9.76471e-08
1.1943e-09
6.03938e-10
-9.7617e-08
5.87258e-10
5.88898e-10
-9.76069e-08
-1.48645e-12
5.81089e-10
-9.76178e-08
-5.9016e-10
5.81772e-10
-9.76177e-08
-1.19664e-09
5.89693e-10
-9.76065e-08
-1.8289e-09
6.05187e-10
-9.76165e-08
-2.48376e-09
6.26152e-10
-9.76467e-08
-3.15726e-09
6.3361e-10
-9.77033e-08
-3.83242e-09
6.5454e-10
-9.78004e-08
6.27063e-10
-9.7963e-08
-4.49181e-09
3.8068e-09
-9.33817e-14
-9.79515e-08
-4.47738e-09
3.13748e-09
-1.05182e-13
-9.77809e-08
2.45977e-09
-2.43399e-13
-9.76944e-08
1.8067e-09
-3.47318e-13
-9.76415e-08
1.17862e-09
-1.57712e-13
-9.762e-08
5.79576e-10
9.31152e-14
-9.76158e-08
-5.91019e-13
-1.78472e-14
-9.76282e-08
-5.80859e-10
6.57575e-13
-9.76282e-08
-1.17978e-09
5.69342e-13
-9.76159e-08
-1.80761e-09
7.91747e-13
-9.76204e-08
-2.4604e-09
8.56593e-13
-9.76423e-08
-3.13777e-09
8.89305e-13
-9.7695e-08
-3.80642e-09
4.75629e-13
-9.77815e-08
-5.57691e-13
-9.7952e-08
-4.47611e-09
3.80624e-09
-6.26357e-10
-9.79516e-08
-4.47679e-09
3.13691e-09
-6.53513e-10
-9.77809e-08
2.45928e-09
-6.3233e-10
-9.76942e-08
1.80628e-09
-6.25178e-10
-9.76415e-08
1.17847e-09
-6.04185e-10
-9.76201e-08
5.79856e-10
-5.88772e-10
-9.76159e-08
7.13082e-14
-5.81339e-10
-9.76283e-08
-5.7995e-10
-5.80644e-10
-9.76283e-08
-1.17889e-09
-5.88477e-10
-9.7616e-08
-1.80705e-09
-6.03447e-10
-9.76204e-08
-2.46031e-09
-6.24374e-10
-9.76422e-08
-3.138e-09
-6.31839e-10
-9.76949e-08
-3.80704e-09
-6.53731e-10
-9.77815e-08
-6.28141e-10
-9.79519e-08
-4.47711e-09
3.83406e-09
-1.25977e-09
-9.79629e-08
-4.4941e-09
3.15778e-09
-1.29853e-09
-9.78007e-08
2.48356e-09
-1.27226e-09
-9.77038e-08
1.82803e-09
-1.25792e-09
-9.76471e-08
1.19516e-09
-1.22199e-09
-9.76168e-08
5.88219e-10
-1.19458e-09
-9.76065e-08
-7.07608e-13
-1.18013e-09
-9.76174e-08
-5.89652e-10
-1.17964e-09
-9.76175e-08
-1.19661e-09
-1.19488e-09
-9.76067e-08
-1.82958e-09
-1.22213e-09
-9.76169e-08
-2.48528e-09
-1.25826e-09
-9.7647e-08
-3.1593e-09
-1.27298e-09
-9.77034e-08
-3.83506e-09
-1.30001e-09
-9.78008e-08
-1.26259e-09
-9.79631e-08
-4.4949e-09
3.86913e-09
-1.90459e-09
-9.80053e-08
-4.51044e-09
3.18918e-09
-1.93254e-09
-9.78614e-08
2.52146e-09
-1.92458e-09
-9.77402e-08
1.86211e-09
-1.90183e-09
-9.76792e-08
1.2224e-09
-1.86086e-09
-9.7634e-08
6.03681e-10
-1.82633e-09
-9.76162e-08
-5.00158e-13
-1.80764e-09
-9.76207e-08
-6.04773e-10
-1.80747e-09
-9.76208e-08
-1.22388e-09
-1.82736e-09
-9.76163e-08
-1.86407e-09
-1.86201e-09
-9.76338e-08
-2.5237e-09
-1.90337e-09
-9.76791e-08
-3.19135e-09
-1.92675e-09
-9.77402e-08
-3.87091e-09
-1.93551e-09
-9.78616e-08
-1.90804e-09
-9.80053e-08
-4.51238e-09
3.86251e-09
-2.56483e-09
-9.81024e-08
-4.46692e-09
3.20386e-09
-2.56672e-09
-9.79651e-08
2.55907e-09
-2.59269e-09
-9.78235e-08
1.90261e-09
-2.55813e-09
-9.77413e-08
1.25812e-09
-2.52005e-09
-9.76791e-08
6.24677e-10
-2.48177e-09
-9.76472e-08
-5.39095e-13
-2.46082e-09
-9.76424e-08
-6.25871e-10
-2.46093e-09
-9.76422e-08
-1.25986e-09
-2.48324e-09
-9.76471e-08
-1.9049e-09
-2.52195e-09
-9.76792e-08
-2.56191e-09
-2.56084e-09
-9.77416e-08
-3.20704e-09
-2.59623e-09
-9.78237e-08
-3.86512e-09
-2.57113e-09
-9.79654e-08
-2.56895e-09
-9.81022e-08
-4.46932e-09
3.90456e-09
-3.20378e-09
-9.82164e-08
-4.50595e-09
3.24469e-09
-3.17041e-09
-9.80891e-08
2.59306e-09
-3.24445e-09
-9.79168e-08
1.92497e-09
-3.20313e-09
-9.78237e-08
1.27255e-09
-3.18792e-09
-9.77403e-08
6.32189e-10
-3.15639e-09
-9.7704e-08
-6.85277e-13
-3.13865e-09
-9.76945e-08
-6.33552e-10
-3.13905e-09
-9.76945e-08
-1.27454e-09
-3.15824e-09
-9.77041e-08
-1.92798e-09
-3.19062e-09
-9.77404e-08
-2.59698e-09
-3.2069e-09
-9.78238e-08
-3.24895e-09
-3.24909e-09
-9.79165e-08
-3.90836e-09
-3.17589e-09
-9.80891e-08
-3.20894e-09
-9.82153e-08
-4.50979e-09
3.77749e-09
-3.8133e-09
-9.83795e-08
-4.35799e-09
3.17064e-09
-3.77723e-09
-9.82585e-08
2.56689e-09
-3.9045e-09
-9.80889e-08
1.93271e-09
-3.86212e-09
-9.79651e-08
1.29862e-09
-3.8683e-09
-9.78615e-08
6.53341e-10
-3.83319e-09
-9.78015e-08
-1.11266e-12
-3.80816e-09
-9.77814e-08
-6.5574e-10
-3.8088e-09
-9.77813e-08
-1.30191e-09
-3.8352e-09
-9.78016e-08
-1.93703e-09
-3.87126e-09
-9.78617e-08
-2.57205e-09
-3.86594e-09
-9.79654e-08
-3.17592e-09
-3.90955e-09
-9.80891e-08
-3.78218e-09
-3.78301e-09
-9.8259e-08
-3.81976e-09
-9.83784e-08
-4.36173e-09
3.81379e-09
-9.8434e-08
-4.40574e-09
-4.40588e-09
3.20438e-09
-9.83796e-08
-4.35791e-09
2.56534e-09
-9.82162e-08
-4.50595e-09
1.90494e-09
-9.81024e-08
-4.46696e-09
1.26001e-09
-9.80056e-08
-4.5104e-09
6.26129e-10
-9.7964e-08
-4.49402e-09
-1.89712e-12
-9.79519e-08
-4.4786e-09
-6.29965e-10
-9.7952e-08
-4.47944e-09
-1.26428e-09
-9.79641e-08
-4.49596e-09
-1.90942e-09
-9.80054e-08
-4.51348e-09
-2.56998e-09
-9.8102e-08
-4.47079e-09
-3.20948e-09
-9.82151e-08
-4.51165e-09
-3.81943e-09
-9.83785e-08
-4.36333e-09
-9.84336e-08
-4.40771e-09
-4.4096e-09
5.13473e-09
5.13264e-09
-1.05971e-07
-6.02157e-09
-6.025e-09
4.25354e-09
5.04801e-09
-1.05865e-07
-5.94172e-09
3.3794e-09
5.12102e-09
-1.0561e-07
-6.06926e-09
2.49668e-09
4.98757e-09
-1.05442e-07
-5.92642e-09
1.64516e-09
4.94009e-09
-1.05292e-07
-5.91036e-09
8.14611e-10
4.8574e-09
-1.05223e-07
-5.83761e-09
-1.45095e-12
4.80079e-09
-1.05199e-07
-5.78702e-09
-8.17657e-10
4.80129e-09
-1.05199e-07
-5.78747e-09
-1.64851e-09
4.85745e-09
-1.05223e-07
-5.83735e-09
-2.49984e-09
4.94035e-09
-1.05292e-07
-5.91039e-09
-3.38181e-09
4.98785e-09
-1.05442e-07
-5.92662e-09
-4.25512e-09
5.12231e-09
-1.05609e-07
-6.07003e-09
-5.13556e-09
5.04951e-09
-1.05865e-07
-5.9422e-09
5.13398e-09
-1.05971e-07
-6.0225e-09
-6.02447e-09
5.05155e-09
4.25305e-09
-1.05865e-07
-5.94559e-09
4.16501e-09
4.16339e-09
-1.05676e-07
3.31456e-09
4.17208e-09
-1.05404e-07
2.46188e-09
4.04895e-09
-1.05205e-07
1.63468e-09
3.97412e-09
-1.05029e-07
8.14241e-10
3.89393e-09
-1.04927e-07
-1.55064e-12
3.84389e-09
-1.0489e-07
-8.17368e-10
3.84449e-09
-1.0489e-07
-1.63796e-09
3.89433e-09
-1.04927e-07
-2.46505e-09
3.97468e-09
-1.05029e-07
-3.31714e-09
4.04946e-09
-1.05205e-07
-4.16636e-09
4.17327e-09
-1.05404e-07
-5.05166e-09
4.16473e-09
-1.05676e-07
4.25424e-09
-1.05865e-07
-5.94517e-09
5.12445e-09
3.37998e-09
-1.05609e-07
-6.07284e-09
4.17397e-09
3.31494e-09
-1.05405e-07
3.26997e-09
3.26967e-09
-1.05124e-07
2.39013e-09
3.16164e-09
-1.04959e-07
1.55891e-09
3.06064e-09
-1.04806e-07
7.65597e-10
2.97348e-09
-1.04733e-07
-1.48812e-12
2.92015e-09
-1.04709e-07
-7.68499e-10
2.92082e-09
-1.04709e-07
-1.56175e-09
2.97414e-09
-1.04733e-07
-2.39264e-09
3.06139e-09
-1.04806e-07
-3.27172e-09
3.16214e-09
-1.04959e-07
-4.17451e-09
3.27055e-09
-1.05124e-07
-5.1238e-09
3.31573e-09
-1.05404e-07
3.38112e-09
-1.05609e-07
-6.07211e-09
4.99004e-09
2.49832e-09
-1.05442e-07
-5.92989e-09
4.05033e-09
2.46343e-09
-1.05205e-07
3.1617e-09
2.39076e-09
-1.04959e-07
2.30757e-09
2.30828e-09
-1.04804e-07
1.50083e-09
2.21088e-09
-1.04679e-07
7.34871e-10
2.13381e-09
-1.04613e-07
-1.55988e-12
2.08736e-09
-1.04596e-07
-7.37935e-10
2.08807e-09
-1.04596e-07
-1.50373e-09
2.13462e-09
-1.04613e-07
-2.31013e-09
2.21177e-09
-1.04679e-07
-3.16354e-09
2.30897e-09
-1.04804e-07
-4.051e-09
2.39162e-09
-1.04959e-07
-4.98959e-09
2.46392e-09
-1.05205e-07
2.49917e-09
-1.05442e-07
-5.92935e-09
4.94156e-09
1.64697e-09
-1.05292e-07
-5.91265e-09
3.97519e-09
1.63643e-09
-1.05029e-07
3.06089e-09
1.55988e-09
-1.04806e-07
2.21061e-09
1.50187e-09
-1.04679e-07
1.42125e-09
1.42193e-09
-1.04578e-07
6.89741e-10
1.36199e-09
-1.04537e-07
-1.47829e-12
1.32658e-09
-1.04535e-07
-6.92607e-10
1.32723e-09
-1.04535e-07
-1.42381e-09
1.36268e-09
-1.04537e-07
-2.21282e-09
1.42278e-09
-1.04578e-07
-3.06254e-09
1.50271e-09
-1.04679e-07
-3.97585e-09
1.56089e-09
-1.04806e-07
-4.94128e-09
1.63705e-09
-1.05029e-07
1.64756e-09
-1.05292e-07
-5.91186e-09
4.85837e-09
8.16045e-10
-1.05222e-07
-5.8392e-09
3.89475e-09
8.15848e-10
-1.04927e-07
2.9737e-09
7.66646e-10
-1.04734e-07
2.13374e-09
7.35871e-10
-1.04614e-07
1.36153e-09
6.90549e-10
-1.04538e-07
6.56368e-10
6.5711e-10
-1.04513e-07
-1.39815e-12
6.38311e-10
-1.04525e-07
-6.59032e-10
6.38861e-10
-1.04525e-07
-1.36377e-09
6.57581e-10
-1.04513e-07
-2.13565e-09
6.91416e-10
-1.04538e-07
-2.97527e-09
7.36959e-10
-1.04613e-07
-3.89555e-09
7.67902e-10
-1.04733e-07
-4.85841e-09
8.16763e-10
-1.04927e-07
8.16614e-10
-1.05222e-07
-5.8388e-09
4.79951e-09
-2.9944e-13
-1.05199e-07
-5.7869e-09
3.84227e-09
-2.6232e-13
-1.0489e-07
2.91812e-09
-4.62981e-13
-1.04709e-07
2.0854e-09
-6.46102e-13
-1.04596e-07
1.32491e-09
-6.18279e-13
-1.04535e-07
6.37371e-10
-4.57263e-13
-1.04523e-07
-5.39582e-13
-6.88091e-13
-1.04538e-07
-6.38527e-10
-1.64104e-13
-1.04538e-07
-1.32612e-09
-9.13657e-14
-1.04523e-07
-2.08672e-09
3.30513e-13
-1.04535e-07
-2.91948e-09
5.43114e-13
-1.04596e-07
-3.8434e-09
7.52926e-13
-1.04709e-07
-4.80014e-09
7.02835e-13
-1.0489e-07
2.23049e-14
-1.05198e-07
-5.78698e-09
4.79932e-09
-8.1643e-10
-1.05199e-07
-5.78686e-09
3.84219e-09
-8.1636e-10
-1.0489e-07
2.91818e-09
-7.67413e-10
-1.04709e-07
2.08554e-09
-7.36872e-10
-1.04596e-07
1.32508e-09
-6.91474e-10
-1.04535e-07
6.37631e-10
-6.57733e-10
-1.04523e-07
-2.13312e-13
-6.39453e-10
-1.04538e-07
-6.38173e-10
-6.38957e-10
-1.04538e-07
-1.32582e-09
-6.57456e-10
-1.04523e-07
-2.0866e-09
-6.90518e-10
-1.04535e-07
-2.91953e-09
-7.35756e-10
-1.04596e-07
-3.84361e-09
-7.66406e-10
-1.04709e-07
-4.80051e-09
-8.15661e-10
-1.0489e-07
-8.16518e-10
-1.05198e-07
-5.78765e-09
4.8584e-09
-1.64717e-09
-1.05222e-07
-5.83951e-09
3.89478e-09
-1.63694e-09
-1.04927e-07
2.97392e-09
-1.56032e-09
-1.04733e-07
2.13403e-09
-1.50205e-09
-1.04614e-07
1.36185e-09
-1.42179e-09
-1.04538e-07
6.5685e-10
-1.36147e-09
-1.04513e-07
-8.43813e-13
-1.32667e-09
-1.04525e-07
-6.585e-10
-1.32639e-09
-1.04525e-07
-1.36346e-09
-1.36173e-09
-1.04513e-07
-2.13574e-09
-1.42163e-09
-1.04538e-07
-2.97574e-09
-1.50178e-09
-1.04613e-07
-3.89634e-09
-1.56016e-09
-1.04732e-07
-4.85949e-09
-1.63711e-09
-1.04926e-07
-1.64771e-09
-1.05222e-07
-5.8406e-09
4.94146e-09
-2.49851e-09
-1.05292e-07
-5.91294e-09
3.97526e-09
-2.46395e-09
-1.05029e-07
3.06125e-09
-2.39112e-09
-1.04806e-07
2.211e-09
-2.30816e-09
-1.04679e-07
1.4217e-09
-2.21044e-09
-1.04578e-07
6.90478e-10
-2.133e-09
-1.04537e-07
-5.74546e-13
-2.08715e-09
-1.04535e-07
-6.91673e-10
-2.0871e-09
-1.04535e-07
-1.42319e-09
-2.13374e-09
-1.04537e-07
-2.21273e-09
-2.21105e-09
-1.04578e-07
-3.0631e-09
-2.30882e-09
-1.04678e-07
-3.97698e-09
-2.39212e-09
-1.04805e-07
-4.94279e-09
-2.46534e-09
-1.05029e-07
-2.4995e-09
-1.05291e-07
-5.91493e-09
4.98929e-09
-3.38037e-09
-1.05441e-07
-5.92957e-09
4.04993e-09
-3.31564e-09
-1.05205e-07
3.16185e-09
-3.27023e-09
-1.04959e-07
2.30808e-09
-3.1617e-09
-1.04804e-07
1.50161e-09
-3.06046e-09
-1.04679e-07
7.35882e-10
-2.97308e-09
-1.04613e-07
-5.5123e-13
-2.92027e-09
-1.04596e-07
-7.36996e-10
-2.92034e-09
-1.04596e-07
-1.50303e-09
-2.974e-09
-1.04613e-07
-2.30991e-09
-3.0617e-09
-1.04678e-07
-3.16415e-09
-3.16341e-09
-1.04804e-07
-4.05217e-09
-3.27268e-09
-1.04958e-07
-4.99105e-09
-3.3187e-09
-1.05204e-07
-3.38209e-09
-1.0544e-07
-5.93248e-09
5.12421e-09
-4.25403e-09
-1.05609e-07
-6.07313e-09
4.17388e-09
-4.16456e-09
-1.05404e-07
3.27027e-09
-4.17326e-09
-1.05123e-07
2.3907e-09
-4.04967e-09
-1.04959e-07
1.55966e-09
-3.97445e-09
-1.04806e-07
7.66578e-10
-3.89416e-09
-1.04733e-07
-6.04927e-13
-3.84451e-09
-1.04708e-07
-7.6779e-10
-3.84481e-09
-1.04708e-07
-1.56135e-09
-3.89542e-09
-1.04733e-07
-2.39306e-09
-3.97635e-09
-1.04805e-07
-3.27326e-09
-4.05224e-09
-1.04958e-07
-4.17704e-09
-4.17714e-09
-1.05122e-07
-5.12743e-09
-4.16884e-09
-1.05404e-07
-4.25807e-09
-1.05607e-07
-6.07611e-09
5.05099e-09
-5.13499e-09
-1.05864e-07
-5.94511e-09
4.16482e-09
-5.05027e-09
-1.05676e-07
3.31501e-09
-5.12316e-09
-1.05404e-07
2.46288e-09
-4.98901e-09
-1.05205e-07
1.63579e-09
-4.94096e-09
-1.05029e-07
8.15332e-10
-4.85822e-09
-1.04928e-07
-9.41202e-13
-4.8018e-09
-1.0489e-07
-8.17375e-10
-4.80222e-09
-1.0489e-07
-1.63854e-09
-4.85949e-09
-1.04927e-07
-2.46641e-09
-4.943e-09
-1.05029e-07
-3.31916e-09
-4.99202e-09
-1.05204e-07
-4.16864e-09
-5.12834e-09
-1.05404e-07
-5.05457e-09
-5.05527e-09
-1.05676e-07
-5.14229e-09
-1.05863e-07
-5.94683e-09
5.13612e-09
-1.05971e-07
-6.02491e-09
-6.02619e-09
4.2548e-09
-1.05864e-07
-5.94474e-09
3.38011e-09
-1.05608e-07
-6.07207e-09
2.49721e-09
-1.05441e-07
-5.92878e-09
1.64568e-09
-1.05292e-07
-5.91305e-09
8.15043e-10
-1.05223e-07
-5.84008e-09
-1.62868e-12
-1.05198e-07
-5.78927e-09
-8.18231e-10
-1.05198e-07
-5.78999e-09
-1.64898e-09
-1.05223e-07
-5.84165e-09
-2.50028e-09
-1.05291e-07
-5.91605e-09
-3.38272e-09
-1.0544e-07
-5.93351e-09
-4.25858e-09
-1.05607e-07
-6.07729e-09
-5.14215e-09
-1.05863e-07
-5.9481e-09
-1.05971e-07
-6.02963e-09
-6.03109e-09
7.50511e-09
7.50324e-09
-1.13403e-07
-8.7883e-09
-8.79158e-09
6.20954e-09
7.42217e-09
-1.13202e-07
-8.7032e-09
4.93626e-09
7.52261e-09
-1.12803e-07
-8.87253e-09
3.65498e-09
7.35227e-09
-1.12508e-07
-8.72112e-09
2.42331e-09
7.28393e-09
-1.12265e-07
-8.71212e-09
1.20653e-09
7.17368e-09
-1.12146e-07
-8.60588e-09
-1.70737e-12
7.09605e-09
-1.12101e-07
-8.52452e-09
-1.20993e-09
7.09708e-09
-1.12101e-07
-8.52552e-09
-2.42687e-09
7.17397e-09
-1.12146e-07
-8.60568e-09
-3.65812e-09
7.28492e-09
-1.12265e-07
-8.71278e-09
-4.93911e-09
7.35296e-09
-1.12508e-07
-8.72087e-09
-6.21186e-09
7.52453e-09
-1.12803e-07
-8.87347e-09
-7.50695e-09
7.42395e-09
-1.13202e-07
-8.70379e-09
7.50449e-09
-1.13403e-07
-8.78926e-09
-8.79238e-09
7.42479e-09
6.20914e-09
-1.13202e-07
-8.7061e-09
6.11533e-09
6.11378e-09
-1.12861e-07
4.86856e-09
6.13239e-09
-1.12443e-07
3.61845e-09
5.97098e-09
-1.12117e-07
2.40548e-09
5.87129e-09
-1.11834e-07
1.19882e-09
5.76577e-09
-1.11664e-07
-1.78485e-12
5.69731e-09
-1.11597e-07
-1.20229e-09
5.69828e-09
-1.11597e-07
-2.40895e-09
5.76639e-09
-1.11664e-07
-3.62169e-09
5.87251e-09
-1.11834e-07
-4.87136e-09
5.972e-09
-1.12117e-07
-6.11734e-09
6.13421e-09
-1.12443e-07
-7.42627e-09
6.11546e-09
-1.12861e-07
6.2101e-09
-1.13202e-07
-8.70739e-09
7.52577e-09
4.9371e-09
-1.12803e-07
-8.87565e-09
6.1344e-09
4.86859e-09
-1.12443e-07
4.81736e-09
4.81652e-09
-1.12e-07
3.52724e-09
4.6681e-09
-1.11708e-07
2.30685e-09
4.53508e-09
-1.11449e-07
1.13461e-09
4.41994e-09
-1.11315e-07
-1.53265e-12
4.3478e-09
-1.11264e-07
-1.13747e-09
4.34867e-09
-1.11264e-07
-2.30956e-09
4.42065e-09
-1.11315e-07
-3.52968e-09
4.53627e-09
-1.11449e-07
-4.81946e-09
4.66904e-09
-1.11708e-07
-6.13596e-09
4.81794e-09
-1.12e-07
-7.52676e-09
4.86964e-09
-1.12443e-07
4.93784e-09
-1.12803e-07
-8.87694e-09
7.35396e-09
3.65589e-09
-1.12508e-07
-8.7222e-09
5.97213e-09
3.61939e-09
-1.12117e-07
4.66869e-09
3.52715e-09
-1.11708e-07
3.41311e-09
3.41303e-09
-1.11432e-07
2.22625e-09
3.28714e-09
-1.11208e-07
1.09223e-09
3.18851e-09
-1.11088e-07
-1.47491e-12
3.12745e-09
-1.11047e-07
-1.09501e-09
3.12824e-09
-1.11047e-07
-2.22885e-09
3.18922e-09
-1.11088e-07
-3.41554e-09
3.28818e-09
-1.11208e-07
-4.671e-09
3.41382e-09
-1.11432e-07
-5.97421e-09
3.52822e-09
-1.11707e-07
-7.35567e-09
3.61996e-09
-1.12117e-07
3.65665e-09
-1.12508e-07
-8.72442e-09
7.28575e-09
2.42419e-09
-1.12264e-07
-8.71429e-09
5.87267e-09
2.40685e-09
-1.11834e-07
4.53613e-09
2.3074e-09
-1.11449e-07
3.28791e-09
2.22684e-09
-1.11208e-07
2.12528e-09
2.12527e-09
-1.11017e-07
1.03607e-09
2.04973e-09
-1.1093e-07
-1.32669e-12
2.00197e-09
-1.10905e-07
-1.03855e-09
2.0026e-09
-1.10905e-07
-2.12752e-09
2.05023e-09
-1.1093e-07
-3.28998e-09
2.12601e-09
-1.11017e-07
-4.53814e-09
2.22747e-09
-1.11208e-07
-5.87447e-09
2.30823e-09
-1.11448e-07
-7.28721e-09
2.40728e-09
-1.11833e-07
2.42474e-09
-1.12264e-07
-8.7157e-09
7.17443e-09
1.20729e-09
-1.12145e-07
-8.60748e-09
5.76632e-09
1.20025e-09
-1.11664e-07
4.4204e-09
1.13546e-09
-1.11316e-07
3.18911e-09
1.09306e-09
-1.11088e-07
2.04981e-09
1.03654e-09
-1.10931e-07
9.94171e-10
9.94587e-10
-1.10866e-07
-1.12336e-12
9.68097e-10
-1.10863e-07
-9.9631e-10
9.68603e-10
-1.10863e-07
-2.05177e-09
9.94959e-10
-1.10866e-07
-3.19105e-09
1.03725e-09
-1.1093e-07
-4.42247e-09
1.09386e-09
-1.11088e-07
-5.76825e-09
1.13645e-09
-1.11314e-07
-7.17617e-09
1.20103e-09
-1.11663e-07
1.20804e-09
-1.12144e-07
-8.60893e-09
7.09517e-09
-7.61455e-13
-1.12101e-07
-8.52523e-09
5.69588e-09
-5.85656e-13
-1.11597e-07
4.34613e-09
-5.46633e-13
-1.11264e-07
3.12622e-09
-6.06239e-13
-1.11046e-07
2.00091e-09
-6.65304e-13
-1.10905e-07
9.67527e-10
-5.19497e-13
-1.10862e-07
-3.16718e-13
-8.77143e-13
-1.10866e-07
-9.68257e-10
-3.92389e-13
-1.10866e-07
-2.0019e-09
-9.2541e-14
-1.10862e-07
-3.12764e-09
2.45059e-13
-1.10905e-07
-4.34811e-09
4.42931e-13
-1.11046e-07
-5.69806e-09
6.5666e-13
-1.11263e-07
-7.09725e-09
6.39309e-13
-1.11597e-07
3.43394e-13
-1.121e-07
-8.52732e-09
7.09523e-09
-1.20871e-09
-1.12101e-07
-8.52554e-09
5.696e-09
-1.20151e-09
-1.11598e-07
4.34632e-09
-1.13658e-09
-1.11264e-07
3.12643e-09
-1.09417e-09
-1.11046e-07
2.00113e-09
-1.03769e-09
-1.10905e-07
9.67735e-10
-9.95412e-10
-1.10862e-07
-1.01934e-13
-9.69626e-10
-1.10866e-07
-9.68028e-10
-9.69198e-10
-1.10866e-07
-2.00168e-09
-9.95034e-10
-1.10861e-07
-3.12748e-09
-1.03676e-09
-1.10905e-07
-4.34793e-09
-1.09309e-09
-1.11046e-07
-5.69795e-09
-1.13542e-09
-1.11263e-07
-7.09723e-09
-1.20032e-09
-1.11597e-07
-1.2074e-09
-1.121e-07
-8.52784e-09
7.17513e-09
-2.42532e-09
-1.12145e-07
-8.60875e-09
5.76677e-09
-2.4081e-09
-1.11664e-07
4.42069e-09
-2.30853e-09
-1.11315e-07
3.18925e-09
-2.22772e-09
-1.11088e-07
2.04994e-09
-2.12601e-09
-1.10931e-07
9.94425e-10
-2.04997e-09
-1.10866e-07
-7.07461e-13
-2.00286e-09
-1.10863e-07
-9.95835e-10
-2.00266e-09
-1.10863e-07
-2.05144e-09
-2.0501e-09
-1.10866e-07
-3.19089e-09
-2.12579e-09
-1.1093e-07
-4.42249e-09
-2.22729e-09
-1.11087e-07
-5.76858e-09
-2.3081e-09
-1.11314e-07
-7.17696e-09
-2.40766e-09
-1.11663e-07
-2.42428e-09
-1.12144e-07
-8.61098e-09
7.28647e-09
-3.65681e-09
-1.12264e-07
-8.7153e-09
5.87318e-09
-3.62045e-09
-1.11834e-07
4.53655e-09
-3.52829e-09
-1.11448e-07
3.28812e-09
-3.4139e-09
-1.11208e-07
2.12558e-09
-3.28803e-09
-1.11017e-07
1.03658e-09
-3.18889e-09
-1.1093e-07
-5.60911e-13
-3.12852e-09
-1.10905e-07
-1.03771e-09
-3.12854e-09
-1.10905e-07
-2.12689e-09
-3.18948e-09
-1.10929e-07
-3.28955e-09
-3.28856e-09
-1.11016e-07
-4.53818e-09
-3.41446e-09
-1.11207e-07
-5.87497e-09
-3.52913e-09
-1.11447e-07
-7.28834e-09
-3.62155e-09
-1.11833e-07
-3.65703e-09
-1.12262e-07
-8.71763e-09
7.35481e-09
-4.93783e-09
-1.12507e-07
-8.72338e-09
5.97245e-09
-4.86918e-09
-1.12116e-07
4.6688e-09
-4.81759e-09
-1.11707e-07
3.41314e-09
-4.66896e-09
-1.11431e-07
2.22668e-09
-4.53615e-09
-1.11207e-07
1.09299e-09
-4.42054e-09
-1.11087e-07
-5.14494e-13
-4.34918e-09
-1.11046e-07
-1.09401e-09
-4.3494e-09
-1.11046e-07
-2.22796e-09
-4.42154e-09
-1.11087e-07
-3.41483e-09
-4.53756e-09
-1.11207e-07
-4.67096e-09
-4.67081e-09
-1.11431e-07
-5.9747e-09
-4.82012e-09
-1.11706e-07
-7.357e-09
-4.87225e-09
-1.12116e-07
-4.9399e-09
-1.12506e-07
-8.72558e-09
7.52672e-09
-6.21015e-09
-1.12803e-07
-8.87665e-09
6.13486e-09
-6.11457e-09
-1.12442e-07
4.81767e-09
-6.13391e-09
-1.12e-07
3.52732e-09
-5.97208e-09
-1.11707e-07
2.30709e-09
-5.87271e-09
-1.11448e-07
1.13519e-09
-5.76685e-09
-1.11315e-07
-6.81423e-13
-5.69934e-09
-1.11263e-07
-1.13651e-09
-5.69986e-09
-1.11263e-07
-2.30868e-09
-5.76835e-09
-1.11314e-07
-3.52936e-09
-5.87485e-09
-1.11447e-07
-4.82025e-09
-5.97491e-09
-1.11706e-07
-6.13773e-09
-6.1378e-09
-1.11999e-07
-7.52992e-09
-6.11872e-09
-1.12442e-07
-6.21405e-09
-1.12802e-07
-8.87961e-09
7.42526e-09
-7.50484e-09
-1.13201e-07
-8.70657e-09
6.11542e-09
-7.4237e-09
-1.1286e-07
4.86855e-09
-7.52496e-09
-1.12442e-07
3.61845e-09
-7.35418e-09
-1.12116e-07
2.40564e-09
-7.2862e-09
-1.11833e-07
1.19929e-09
-7.17562e-09
-1.11664e-07
-1.23437e-12
-7.09867e-09
-1.11597e-07
-1.20164e-09
-7.09939e-09
-1.11597e-07
-2.40814e-09
-7.17737e-09
-1.11663e-07
-3.62144e-09
-7.2888e-09
-1.11833e-07
-4.87198e-09
-7.35781e-09
-1.12116e-07
-6.11859e-09
-7.53011e-09
-1.12441e-07
-7.429e-09
-7.42876e-09
-1.12859e-07
-7.51058e-09
-1.13201e-07
-8.71014e-09
7.50567e-09
-1.13402e-07
-8.79107e-09
-8.79227e-09
6.21069e-09
-1.13201e-07
-8.70587e-09
4.9372e-09
-1.12802e-07
-8.87521e-09
3.65474e-09
-1.12507e-07
-8.723e-09
2.42217e-09
-1.12263e-07
-8.71526e-09
1.20559e-09
-1.12144e-07
-8.60967e-09
-1.97347e-12
-1.121e-07
-8.52897e-09
-1.20875e-09
-1.121e-07
-8.53045e-09
-2.42443e-09
-1.12144e-07
-8.61239e-09
-3.65679e-09
-1.12262e-07
-8.71844e-09
-4.94005e-09
-1.12506e-07
-8.72624e-09
-6.21442e-09
-1.12801e-07
-8.87972e-09
-7.51051e-09
-1.13201e-07
-8.71041e-09
-1.13402e-07
-8.79744e-09
-8.79767e-09
1.04081e-08
1.04073e-08
-1.20543e-07
-1.21062e-08
-1.21067e-08
8.68759e-09
1.03831e-08
-1.20261e-07
-1.20744e-08
6.97379e-09
1.06301e-08
-1.19696e-07
-1.24057e-08
5.19647e-09
1.04817e-08
-1.19225e-07
-1.22766e-08
3.45408e-09
1.04662e-08
-1.18854e-07
-1.23361e-08
1.71899e-09
1.03798e-08
-1.18663e-07
-1.22666e-08
-2.13509e-12
1.03155e-08
-1.18596e-07
-1.22026e-08
-1.72276e-09
1.0317e-08
-1.18596e-07
-1.22041e-08
-3.45735e-09
1.03805e-08
-1.18663e-07
-1.22665e-08
-5.19888e-09
1.04677e-08
-1.18854e-07
-1.23366e-08
-6.97587e-09
1.0483e-08
-1.19225e-07
-1.22759e-08
-8.68895e-09
1.06318e-08
-1.19695e-07
-1.24054e-08
-1.04081e-08
1.03833e-08
-1.2026e-07
-1.20735e-08
1.04067e-08
-1.20542e-07
-1.21039e-08
-1.21064e-08
1.0383e-08
8.68803e-09
-1.20261e-07
-1.2075e-08
8.63356e-09
8.63314e-09
-1.19733e-07
6.94134e-09
8.78141e-09
-1.19135e-07
5.2144e-09
8.66228e-09
-1.18661e-07
3.49737e-09
8.63028e-09
-1.18247e-07
1.75231e-09
8.56751e-09
-1.17988e-07
-1.94796e-12
8.52561e-09
-1.17884e-07
-1.75574e-09
8.52703e-09
-1.17884e-07
-3.5003e-09
8.56868e-09
-1.17988e-07
-5.21675e-09
8.63225e-09
-1.18247e-07
-6.94325e-09
8.66413e-09
-1.18661e-07
-8.63529e-09
8.78373e-09
-1.19135e-07
-1.0385e-08
8.6345e-09
-1.19733e-07
8.68814e-09
-1.2026e-07
-1.20767e-08
1.06312e-08
6.97494e-09
-1.19696e-07
-1.24062e-08
8.78255e-09
6.94129e-09
-1.19136e-07
7.00284e-09
7.00226e-09
-1.18488e-07
5.20479e-09
6.90471e-09
-1.18023e-07
3.44689e-09
6.84002e-09
-1.17625e-07
1.70791e-09
6.76811e-09
-1.17401e-07
-1.37346e-12
6.7216e-09
-1.1731e-07
-1.71025e-09
6.72282e-09
-1.1731e-07
-3.44889e-09
6.76931e-09
-1.17401e-07
-5.20657e-09
6.84193e-09
-1.17625e-07
-7.00453e-09
6.90641e-09
-1.18023e-07
-8.7844e-09
7.00443e-09
-1.18488e-07
-1.06335e-08
6.94284e-09
-1.19135e-07
6.97565e-09
-1.19695e-07
-1.2409e-08
1.04825e-08
5.19758e-09
-1.19225e-07
-1.22761e-08
8.66288e-09
5.2151e-09
-1.18662e-07
6.90503e-09
5.20503e-09
-1.18023e-07
5.14081e-09
5.14095e-09
-1.17577e-07
3.40562e-09
5.07461e-09
-1.17211e-07
1.68727e-09
5.0186e-09
-1.17001e-07
-1.09225e-12
4.98129e-09
-1.16918e-07
-1.68917e-09
4.98226e-09
-1.16918e-07
-3.40729e-09
5.01954e-09
-1.17001e-07
-5.14252e-09
5.07617e-09
-1.17211e-07
-6.90709e-09
5.1423e-09
-1.17576e-07
-8.66556e-09
5.20681e-09
-1.18023e-07
-1.04858e-08
5.21645e-09
-1.18661e-07
5.19881e-09
-1.19225e-07
-1.22804e-08
1.0467e-08
3.45544e-09
-1.18854e-07
-1.23363e-08
8.63091e-09
3.49884e-09
-1.18247e-07
6.8407e-09
3.44788e-09
-1.17625e-07
5.07517e-09
3.40644e-09
-1.17211e-07
3.3484e-09
3.34852e-09
-1.16874e-07
1.65521e-09
3.3062e-09
-1.1669e-07
-8.10649e-13
3.27413e-09
-1.16612e-07
-1.65657e-09
3.2748e-09
-1.16612e-07
-3.34954e-09
3.30671e-09
-1.1669e-07
-5.07636e-09
3.34952e-09
-1.16874e-07
-6.84235e-09
3.40743e-09
-1.17211e-07
-8.63327e-09
3.4493e-09
-1.17625e-07
-1.04701e-08
3.50001e-09
-1.18247e-07
3.45683e-09
-1.18853e-07
-1.23402e-08
1.03794e-08
1.72047e-09
-1.18664e-07
-1.22663e-08
8.56715e-09
1.7542e-09
-1.17989e-07
6.76799e-09
1.70939e-09
-1.17401e-07
5.01863e-09
1.68863e-09
-1.17002e-07
3.30578e-09
1.65604e-09
-1.16691e-07
1.63085e-09
1.63175e-09
-1.16518e-07
-5.99491e-13
1.61082e-09
-1.1646e-07
-1.63182e-09
1.61127e-09
-1.1646e-07
-3.30657e-09
1.63197e-09
-1.16518e-07
-5.01951e-09
1.65674e-09
-1.1669e-07
-6.76947e-09
1.68957e-09
-1.17002e-07
-8.56941e-09
1.71076e-09
-1.17401e-07
-1.03827e-08
1.75552e-09
-1.17988e-07
1.72231e-09
-1.18663e-07
-1.22702e-08
1.03146e-08
-2.27636e-13
-1.18597e-07
-1.22026e-08
8.52432e-09