/*--------------------------------*- C++ -*----------------------------------*\
| =========                 |                                                 |
| \\      /  F ield         | OpenFOAM: The Open Source CFD Toolbox           |
|  \\    /   O peration     | Version:  v2106                                 |
|   \\  /    A nd           | Website:  www.openfoam.com                      |
|    \\/     M anipulation  |                                                 |
\*---------------------------------------------------------------------------*/
FoamFile
{
    version     2.0;
    format      ascii;
    arch        "LSB;label=32;scalar=64";
    class       volScalarField;
    location    "0.000135";
    object      rho;
}
// * * * * * * * * * * * * * * * * * * * * * * * * * * * * * * * * * * * * * //

dimensions      [1 -3 0 0 0 0 0];

internalField   nonuniform List<scalar> 
18273
(
2.39037
2.39365
2.39588
2.39781
2.39954
2.40106
2.40278
2.40414
2.40545
2.40582
2.40554
2.40426
2.40157
2.39774
2.39383
2.39802
2.4007
2.40313
2.40501
2.40675
2.40851
2.40975
2.41079
2.41091
2.41022
2.40873
2.40571
2.40046
2.39492
2.40051
2.4036
2.40687
2.40911
2.4112
2.4128
2.41381
2.41427
2.41409
2.41321
2.41138
2.40817
2.40231
2.39638
2.40204
2.40546
2.40923
2.41173
2.41404
2.41557
2.41661
2.41691
2.41644
2.41537
2.41325
2.40996
2.40389
2.39604
2.40182
2.40572
2.40997
2.41268
2.4152
2.41666
2.41756
2.41779
2.41726
2.41615
2.41383
2.41038
2.40435
2.3947
2.40054
2.40489
2.40934
2.41222
2.4149
2.41647
2.41743
2.41756
2.41704
2.41594
2.41363
2.41024
2.40467
2.39305
2.39866
2.4032
2.40781
2.41096
2.41356
2.41504
2.41609
2.41652
2.41603
2.41493
2.41271
2.40933
2.40414
2.39105
2.39667
2.4012
2.40596
2.40928
2.41176
2.41322
2.41427
2.41457
2.4142
2.41317
2.41106
2.40791
2.40314
2.38885
2.39409
2.39844
2.40346
2.40684
2.40933
2.41081
2.41175
2.41215
2.41197
2.411
2.40894
2.40594
2.4014
2.38666
2.39143
2.39547
2.40055
2.40405
2.40665
2.40807
2.40908
2.40949
2.4091
2.40809
2.40633
2.40362
2.39932
2.38411
2.38842
2.39206
2.39706
2.40051
2.40309
2.4045
2.40536
2.40574
2.40572
2.40499
2.40345
2.40113
2.39692
2.38146
2.38504
2.38814
2.3928
2.39604
2.39848
2.39995
2.40091
2.4014
2.40126
2.40063
2.39923
2.39723
2.39314
2.37843
2.38156
2.38415
2.38846
2.39133
2.39337
2.39496
2.39589
2.39625
2.39596
2.39551
2.3942
2.39275
2.38929
2.37533
2.37772
2.37858
2.38245
2.38486
2.3864
2.38797
2.38904
2.38942
2.38898
2.38844
2.38744
2.38664
2.38521
2.36775
2.37355
2.38011
2.38442
2.38922
2.39239
2.39606
2.39797
2.40002
2.40054
2.39982
2.39592
2.39089
2.38259
2.37109
2.37726
2.38343
2.38817
2.39286
2.39613
2.39988
2.40185
2.40453
2.40548
2.40478
2.40131
2.39579
2.387
2.37656
2.38286
2.38841
2.39279
2.39684
2.40028
2.40385
2.4062
2.40808
2.40862
2.40795
2.40483
2.39953
2.39077
2.382
2.38778
2.39266
2.397
2.40072
2.40401
2.40689
2.40905
2.41105
2.41137
2.41047
2.40762
2.40254
2.39474
2.38552
2.39066
2.395
2.39951
2.40312
2.40653
2.4091
2.41135
2.41273
2.41326
2.4124
2.40952
2.40458
2.39739
2.38585
2.39079
2.39498
2.39972
2.40377
2.40739
2.41005
2.41215
2.41334
2.41332
2.41211
2.40966
2.40538
2.39924
2.38404
2.38865
2.3929
2.39799
2.40259
2.40652
2.40962
2.41187
2.41314
2.41333
2.41215
2.40965
2.40575
2.40001
2.38208
2.38642
2.39066
2.39633
2.40069
2.40508
2.40839
2.41081
2.41191
2.4119
2.41072
2.40826
2.40507
2.39987
2.37766
2.38119
2.38639
2.39314
2.39781
2.40236
2.40583
2.40839
2.40947
2.40957
2.40871
2.4064
2.40387
2.39832
2.37346
2.37711
2.38265
2.38909
2.3943
2.39883
2.40212
2.40469
2.40563
2.40562
2.40498
2.40303
2.40039
2.39515
2.36758
2.37113
2.3772
2.38431
2.39007
2.39462
2.39754
2.39983
2.40053
2.40054
2.40002
2.39801
2.3951
2.38945
2.36168
2.36564
2.37205
2.37931
2.38542
2.38981
2.39238
2.39449
2.39474
2.39402
2.39357
2.3912
2.38798
2.38187
2.35423
2.36007
2.36686
2.37486
2.38131
2.38562
2.38747
2.388
2.38759
2.38669
2.38534
2.38253
2.37877
2.3724
2.34718
2.35211
2.35752
2.36648
2.37329
2.37805
2.37982
2.38008
2.3792
2.37705
2.37426
2.37055
2.36648
2.36143
2.38267
2.39365
2.40238
2.40749
2.41499
2.42095
2.43001
2.43656
2.44317
2.4449
2.44268
2.43516
2.42173
2.4031
2.3947
2.40308
2.41215
2.41768
2.42529
2.43161
2.43939
2.44443
2.45046
2.45247
2.45042
2.44267
2.42949
2.4147
2.40678
2.41298
2.42117
2.42659
2.43302
2.43907
2.44624
2.4518
2.45634
2.45779
2.45605
2.44998
2.43855
2.42479
2.41588
2.42293
2.43023
2.43626
2.44206
2.44754
2.45306
2.45705
2.46137
2.46287
2.461
2.45531
2.44444
2.43181
2.42119
2.42885
2.43545
2.4415
2.44735
2.45224
2.45716
2.46092
2.4643
2.46547
2.46392
2.45914
2.44996
2.43862
2.42111
2.42898
2.43632
2.44301
2.44956
2.45454
2.45939
2.46303
2.46581
2.4669
2.4654
2.46122
2.45279
2.44257
2.41661
2.42483
2.43235
2.44024
2.4473
2.45362
2.45904
2.46333
2.46593
2.4669
2.46547
2.46179
2.45461
2.44561
2.4105
2.41944
2.42862
2.43739
2.44523
2.45212
2.4578
2.46217
2.46434
2.4652
2.46378
2.46035
2.45411
2.4454
2.40049
2.40922
2.42113
2.43046
2.44069
2.44855
2.45455
2.45929
2.46115
2.46219
2.46113
2.45808
2.4525
2.44352
2.39313
2.40203
2.41444
2.42431
2.43518
2.44368
2.4495
2.45438
2.45563
2.45644
2.45501
2.45155
2.44568
2.43713
2.38349
2.39218
2.40542
2.41678
2.42872
2.43781
2.44313
2.44763
2.44802
2.4484
2.44635
2.4422
2.43579
2.42704
2.37627
2.38398
2.39749
2.40914
2.42121
2.43025
2.4353
2.43876
2.43786
2.43748
2.43377
2.42875
2.42032
2.41161
2.36577
2.37512
2.38733
2.40016
2.41284
2.42158
2.42608
2.42821
2.42618
2.42403
2.41813
2.4127
2.40321
2.39317
2.35137
2.36389
2.37618
2.39041
2.40253
2.4108
2.41515
2.41528
2.41227
2.40884
2.40135
2.39407
2.38283
2.36865
2.39452
2.39108
2.38957
2.38743
2.38798
2.38617
2.39581
2.39062
2.38946
2.38728
2.38856
2.38657
2.39677
2.39091
2.38952
2.38743
2.38773
2.38589
2.39802
2.39137
2.3897
2.38753
2.38829
2.38627
2.39847
2.39165
2.38995
2.38767
2.38838
2.38716
2.39894
2.39173
2.38937
2.38653
2.38699
2.38606
2.39856
2.39116
2.38814
2.38455
2.3847
2.38381
2.39782
2.39026
2.38659
2.38225
2.38234
2.38084
2.39633
2.38901
2.38548
2.38108
2.38141
2.3797
2.39469
2.38795
2.38516
2.38109
2.38144
2.37979
2.39252
2.38632
2.38387
2.38035
2.3822
2.38039
2.38948
2.38439
2.38265
2.37992
2.3807
2.37972
2.38632
2.38257
2.38188
2.38006
2.38164
2.38028
2.3834
2.38087
2.38063
2.37894
2.38055
2.37916
2.37502
2.3649
2.36148
2.35358
2.35517
2.34597
2.37976
2.36936
2.36632
2.35933
2.36215
2.35302
2.38257
2.37271
2.37024
2.36481
2.36841
2.35988
2.38669
2.3781
2.37675
2.37135
2.37527
2.36724
2.38946
2.38187
2.38102
2.37603
2.38005
2.37359
2.39231
2.38529
2.38405
2.37893
2.38232
2.37704
2.39361
2.3868
2.3849
2.37955
2.38202
2.37696
2.39425
2.3869
2.38354
2.37768
2.37932
2.37376
2.39305
2.38457
2.37981
2.37258
2.37296
2.36599
2.38971
2.37973
2.37409
2.36519
2.36417
2.35598
2.38366
2.37327
2.36649
2.35416
2.35174
2.34191
2.37618
2.36436
2.35713
2.34411
2.3417
2.33174
2.36719
2.35538
2.34922
2.3367
2.33535
2.32486
2.35626
2.3452
2.34177
2.33119
2.33206
2.32225
2.38246
2.35745
2.33319
2.29804
2.27448
2.19968
2.39539
2.36943
2.34665
2.31302
2.29621
2.21973
2.40427
2.38044
2.35856
2.32864
2.31803
2.25151
2.4129
2.39054
2.37105
2.3449
2.33858
2.28398
2.42041
2.39919
2.38159
2.35867
2.3542
2.31152
2.42613
2.40704
2.39124
2.37004
2.36362
2.32861
2.43053
2.41227
2.39734
2.37672
2.36788
2.33693
2.43275
2.41563
2.40053
2.37828
2.36451
2.33258
2.43218
2.41371
2.39782
2.37294
2.35543
2.31756
2.42717
2.40584
2.38876
2.35966
2.33631
2.29124
2.41597
2.39299
2.37103
2.33383
2.30697
2.24986
2.3981
2.37285
2.34783
2.309
2.27985
2.21522
2.38064
2.3511
2.32501
2.28496
2.25727
2.18393
2.3501
2.32008
2.2973
2.26132
2.2364
2.16049
2.38315
2.38141
2.38109
2.38057
2.3819
2.37973
2.38258
2.37971
2.38009
2.37935
2.3812
2.37966
2.38329
2.37961
2.37953
2.37885
2.38039
2.37866
2.38361
2.37893
2.37864
2.3773
2.37916
2.37732
2.38385
2.37835
2.37733
2.37559
2.37722
2.37598
2.38372
2.37691
2.37503
2.37274
2.37409
2.37284
2.38302
2.37542
2.37256
2.36986
2.37101
2.36909
2.38165
2.37324
2.36981
2.36659
2.3677
2.3656
2.38008
2.37208
2.36965
2.36653
2.36803
2.36552
2.37918
2.37133
2.368
2.36454
2.36606
2.36548
2.37759
2.37165
2.36972
2.36746
2.36942
2.36869
2.37509
2.37085
2.37028
2.36848
2.37052
2.3693
2.37535
2.37307
2.37322
2.37221
2.37395
2.37236
2.37335
2.37203
2.373
2.37183
2.37457
2.37346
2.35372
2.34397
2.3419
2.33396
2.33535
2.32572
2.35879
2.3487
2.34702
2.34002
2.34264
2.33258
2.36214
2.35236
2.35113
2.34501
2.34814
2.33815
2.36638
2.35765
2.35701
2.35141
2.35452
2.34434
2.36943
2.36163
2.36115
2.35513
2.35814
2.34928
2.37269
2.36489
2.36362
2.35658
2.35881
2.3507
2.37436
2.36606
2.36279
2.35463
2.35618
2.3477
2.37436
2.36427
2.35932
2.34946
2.35028
2.34122
2.37237
2.36062
2.35474
2.3434
2.34278
2.33073
2.36716
2.35397
2.3472
2.33371
2.33252
2.32056
2.3609
2.34781
2.34164
2.32847
2.32724
2.31448
2.35338
2.34174
2.33751
2.32506
2.32521
2.31287
2.35037
2.34078
2.33953
2.33138
2.33316
2.32336
2.34309
2.33577
2.33698
2.33315
2.33853
2.33265
2.35001
2.32277
2.30041
2.26459
2.24052
2.16004
2.36367
2.33695
2.31545
2.28123
2.26183
2.18009
2.37443
2.34942
2.32831
2.29758
2.28317
2.21145
2.38198
2.35965
2.3404
2.31377
2.30222
2.2417
2.39002
2.36898
2.35119
2.3267
2.31475
2.26386
2.39598
2.37623
2.35913
2.33456
2.32085
2.27495
2.40016
2.37993
2.36295
2.33757
2.32094
2.27672
2.40136
2.38118
2.36365
2.33436
2.31427
2.26629
2.39771
2.37579
2.35698
2.32546
2.30224
2.2451
2.39007
2.36741
2.34696
2.30948
2.28273
2.21723
2.37819
2.35297
2.3316
2.29651
2.27316
2.20079
2.36682
2.34207
2.32301
2.29116
2.27358
2.19649
2.36086
2.33742
2.32332
2.29602
2.28368
2.21124
2.33998
2.31789
2.30949
2.29246
2.29175
2.22885
2.38269
2.38371
2.38199
2.38418
2.38438
2.38726
2.38116
2.38256
2.38199
2.38459
2.38603
2.39024
2.38003
2.38078
2.3801
2.38291
2.38537
2.39049
2.37795
2.37735
2.37659
2.38096
2.38448
2.39152
2.37711
2.37762
2.37655
2.38053
2.38455
2.39082
2.37516
2.37542
2.37484
2.3791
2.3824
2.38953
2.37478
2.37504
2.37482
2.37846
2.38126
2.38826
2.37644
2.37588
2.37561
2.37826
2.38021
2.38662
2.37825
2.37711
2.37662
2.37878
2.38014
2.38526
2.3792
2.3782
2.3776
2.3796
2.38034
2.38419
2.3791
2.37844
2.37752
2.37941
2.37957
2.38212
2.37833
2.37836
2.37763
2.37951
2.37881
2.38057
2.3779
2.37688
2.37491
2.37606
2.37452
2.377
2.3772
2.37831
2.37725
2.3781
2.37727
2.37692
2.35742
2.363
2.35667
2.35989
2.35815
2.36371
2.34876
2.35693
2.35401
2.36092
2.36137
2.36977
2.33949
2.3498
2.34931
2.36006
2.36342
2.37269
2.34123
2.3508
2.35173
2.36318
2.36755
2.37824
2.35031
2.35783
2.35843
2.36874
2.37365
2.38214
2.36319
2.3678
2.36708
2.37404
2.3761
2.38352
2.37424
2.37645
2.37422
2.37885
2.37808
2.38236
2.38157
2.38229
2.37882
2.38175
2.37894
2.38108
2.3864
2.3854
2.381
2.38288
2.37878
2.37839
2.38762
2.38596
2.38086
2.38115
2.37603
2.37477
2.38491
2.3833
2.37727
2.37621
2.37011
2.36882
2.3781
2.37655
2.36985
2.36888
2.36294
2.36332
2.36571
2.3659
2.35849
2.35743
2.35155
2.35389
2.35162
2.35536
2.35073
2.35198
2.34872
2.34968
2.27229
2.32956
2.32786
2.34251
2.35
2.36942
2.25676
2.32064
2.32935
2.35351
2.36822
2.38942
2.24217
2.31114
2.32764
2.35761
2.37595
2.39607
2.24642
2.30982
2.33362
2.36634
2.38623
2.40503
2.2645
2.32121
2.34546
2.37639
2.39509
2.41164
2.29514
2.33942
2.36066
2.38663
2.40068
2.41308
2.32129
2.35354
2.36791
2.38797
2.3974
2.40863
2.34145
2.36242
2.36909
2.38298
2.38913
2.40045
2.35146
2.36671
2.36815
2.37736
2.3801
2.39048
2.35113
2.36625
2.36483
2.36994
2.37125
2.3824
2.34323
2.36246
2.35896
2.36279
2.36364
2.37348
2.32743
2.35446
2.34948
2.35417
2.35683
2.36677
2.30413
2.34153
2.3355
2.34333
2.34615
2.35561
2.26825
2.31698
2.31384
2.32755
2.33858
2.34967
2.38544
2.38651
2.38592
2.38919
2.39091
2.39528
2.38603
2.38696
2.38653
2.38979
2.39214
2.39747
2.38524
2.38626
2.38598
2.39036
2.39362
2.39998
2.38678
2.3874
2.3874
2.39153
2.39503
2.40079
2.3836
2.38538
2.3863
2.39112
2.39469
2.40111
2.38429
2.38528
2.3863
2.39067
2.39401
2.40069
2.38649
2.38611
2.38678
2.39037
2.39314
2.39942
2.38911
2.38778
2.38806
2.3905
2.39237
2.39808
2.39097
2.38945
2.38918
2.3909
2.39197
2.39686
2.39152
2.39011
2.38938
2.39097
2.39175
2.39586
2.39052
2.38929
2.38859
2.39011
2.39053
2.39425
2.38951
2.38851
2.38802
2.38957
2.38961
2.39259
2.38786
2.38725
2.38601
2.38724
2.38719
2.39051
2.38573
2.38691
2.38639
2.38781
2.38798
2.38961
2.34296
2.35162
2.35125
2.36195
2.36689
2.37714
2.34523
2.35381
2.35606
2.36856
2.37492
2.38539
2.35104
2.35867
2.36189
2.37465
2.38129
2.39121
2.36153
2.36866
2.3719
2.382
2.38749
2.39518
2.37598
2.3797
2.38056
2.38724
2.39044
2.39703
2.38616
2.38877
2.3875
2.39179
2.3922
2.39686
2.39422
2.39471
2.39199
2.39401
2.39227
2.39546
2.39994
2.39856
2.39455
2.39468
2.39203
2.39403
2.4026
2.40026
2.39535
2.3941
2.39071
2.39176
2.4025
2.3991
2.39396
2.39232
2.38837
2.38895
2.39978
2.39546
2.39024
2.38835
2.38358
2.38425
2.39386
2.39025
2.38422
2.38306
2.37842
2.37959
2.38401
2.38318
2.37592
2.37461
2.36997
2.37254
2.37297
2.37621
2.37057
2.37194
2.36867
2.36949
2.20094
2.27155
2.2974
2.33278
2.35646
2.38211
2.22244
2.29122
2.32003
2.35807
2.38317
2.4071
2.25147
2.31187
2.34132
2.37738
2.40177
2.42142
2.2853
2.33745
2.36503
2.39758
2.41601
2.43283
2.32225
2.3611
2.38286
2.40832
2.42351
2.43722
2.34991
2.37876
2.39337
2.41258
2.42482
2.43586
2.37281
2.39083
2.39789
2.41084
2.41953
2.43002
2.38881
2.39845
2.39933
2.40722
2.41248
2.42335
2.39357
2.40067
2.39738
2.40165
2.40382
2.41414
2.3886
2.39813
2.3934
2.39666
2.39741
2.40717
2.37659
2.39312
2.38709
2.3905
2.39095
2.39959
2.35778
2.38531
2.37848
2.38372
2.3853
2.39379
2.33682
2.37394
2.36635
2.37326
2.37561
2.38453
2.30611
2.35183
2.34827
2.35988
2.36764
2.37851
2.46447
2.46289
2.4669
2.46399
2.4669
2.46976
2.47672
2.48384
2.49298
2.49888
2.50262
2.50143
2.49498
2.48333
2.46828
2.46545
2.46701
2.4665
2.47061
2.47526
2.48354
2.48997
2.49765
2.50269
2.50521
2.50204
2.4951
2.48349
2.47346
2.47135
2.47345
2.47431
2.47777
2.48162
2.48847
2.49428
2.50167
2.50585
2.50794
2.50576
2.50039
2.49088
2.47846
2.47805
2.4799
2.48149
2.48446
2.4881
2.49367
2.49823
2.50398
2.50777
2.5095
2.5071
2.50098
2.49129
2.47906
2.48136
2.48343
2.48587
2.48871
2.49221
2.49667
2.50062
2.50535
2.50866
2.51034
2.50905
2.5044
2.49596
2.47289
2.47767
2.48177
2.48608
2.48987
2.49375
2.49773
2.50172
2.50577
2.50873
2.51009
2.50887
2.50474
2.4975
2.46702
2.47264
2.47765
2.48322
2.48772
2.49266
2.49723
2.50177
2.50556
2.50865
2.50995
2.50947
2.50652
2.50109
2.46069
2.46769
2.47498
2.48073
2.48666
2.49207
2.49683
2.50139
2.50461
2.50761
2.50875
2.5089
2.50657
2.50295
2.45121
2.45997
2.46806
2.47501
2.48287
2.48962
2.49488
2.49995
2.50293
2.50622
2.50753
2.50846
2.50691
2.50407
2.44734
2.45692
2.46464
2.4729
2.48106
2.488
2.49279
2.49771
2.49998
2.5033
2.50418
2.5055
2.50401
2.50151
2.44207
2.45084
2.45922
2.46903
2.47821
2.48565
2.49
2.49442
2.49581
2.49893
2.49887
2.50019
2.49795
2.49737
2.44449
2.44927
2.45781
2.4675
2.47628
2.48322
2.48679
2.49007
2.4901
2.4922
2.49057
2.49149
2.48764
2.48859
2.43878
2.44552
2.45386
2.46403
2.47319
2.4797
2.48244
2.48417
2.48251
2.48319
2.47965
2.47982
2.47437
2.47395
2.43801
2.44642
2.45408
2.46354
2.47052
2.47542
2.47715
2.47765
2.47517
2.4739
2.46824
2.46752
2.45852
2.45577
2.52387
2.5153
2.51393
2.50594
2.506
2.50675
2.51233
2.51958
2.52899
2.5373
2.54412
2.54694
2.54699
2.54273
2.51968
2.51109
2.50883
2.50419
2.50529
2.50827
2.51573
2.52329
2.5316
2.53862
2.54351
2.54399
2.54241
2.53766
2.52096
2.51282
2.5117
2.50965
2.5113
2.51438
2.52043
2.526
2.53338
2.53917
2.54338
2.54467
2.54353
2.5394
2.52256
2.5172
2.51601
2.51509
2.5162
2.51876
2.52377
2.52847
2.53433
2.5393
2.54291
2.54351
2.54105
2.53595
2.52029
2.51828
2.51742
2.51782
2.51917
2.52168
2.52585
2.52985
2.53461
2.53888
2.54214
2.54315
2.5413
2.53643
2.51199
2.5135
2.51486
2.51686
2.51924
2.52234
2.52614
2.53009
2.53431
2.53792
2.54062
2.54152
2.54004
2.5357
2.5036
2.50663
2.50951
2.51315
2.51655
2.52059
2.52489
2.52924
2.53336
2.53701
2.53955
2.54077
2.54015
2.53711
2.49659
2.50056
2.50531
2.50966
2.51461
2.51933
2.52377
2.52815
2.53192
2.53548
2.53786
2.53958
2.53957
2.53849
2.48902
2.49403
2.49832
2.50423
2.51065
2.51643
2.52135
2.52618
2.52983
2.5336
2.53611
2.53869
2.53916
2.53983
2.48809
2.4917
2.49581
2.5024
2.50914
2.51498
2.51938
2.52396
2.52705
2.53082
2.53309
2.53632
2.53717
2.53839
2.48679
2.4884
2.49288
2.49957
2.50676
2.51295
2.51703
2.52133
2.52383
2.52756
2.52938
2.5329
2.53332
2.5366
2.49298
2.49084
2.49412
2.49998
2.50644
2.512
2.51515
2.51842
2.5198
2.52285
2.52366
2.52706
2.52647
2.53187
2.49115
2.49147
2.49404
2.4997
2.50601
2.51085
2.51322
2.51488
2.51471
2.51671
2.51659
2.51984
2.51896
2.52398
2.49728
2.49914
2.50068
2.50425
2.50775
2.51014
2.5106
2.51116
2.50995
2.51065
2.50968
2.51315
2.51019
2.5141
2.57062
2.55916
2.5545
2.5445
2.54285
2.54249
2.54643
2.55277
2.56099
2.56992
2.57836
2.58384
2.58838
2.58852
2.56383
2.55346
2.54891
2.54322
2.54259
2.54337
2.5481
2.55443
2.5622
2.56955
2.57612
2.57932
2.58198
2.58184
2.5639
2.55316
2.54941
2.54585
2.54548
2.54657
2.55083
2.55569
2.56165
2.56808
2.57392
2.57755
2.58061
2.58099
2.56304
2.55532
2.55162
2.54916
2.54851
2.54942
2.55289
2.55699
2.56197
2.56736
2.5723
2.57504
2.57656
2.57621
2.55875
2.55409
2.55096
2.54986
2.54991
2.55097
2.55381
2.55746
2.5616
2.56617
2.57061
2.57357
2.575
2.57504
2.55048
2.54929
2.54859
2.54847
2.54931
2.55101
2.55385
2.55736
2.56118
2.56519
2.56894
2.57177
2.57289
2.57348
2.54293
2.54264
2.54377
2.54477
2.5471
2.54966
2.5529
2.55651
2.56024
2.56414
2.56762
2.57065
2.57204
2.57351
2.53624
2.53709
2.53928
2.54187
2.5453
2.54854
2.5519
2.55552
2.55905
2.5629
2.56629
2.56955
2.57151
2.57378
2.531
2.53198
2.53415
2.53783
2.54229
2.54633
2.55013
2.5541
2.55757
2.56148
2.56492
2.56856
2.57129
2.57453
2.53201
2.52976
2.53245
2.5364
2.5411
2.5453
2.54881
2.55271
2.55582
2.55966
2.56294
2.56698
2.57013
2.57433
2.53152
2.52841
2.53068
2.53479
2.53968
2.54404
2.5474
2.55127
2.55401
2.5578
2.56081
2.56536
2.56835
2.57364
2.53762
2.53217
2.53288
2.53603
2.54045
2.54439
2.54696
2.54999
2.55199
2.55536
2.55761
2.56231
2.56427
2.57143
2.53829
2.53439
2.53492
2.53812
2.54242
2.54573
2.54718
2.54884
2.54958
2.55226
2.55383
2.55858
2.5603
2.56799
2.54518
2.54388
2.54387
2.54448
2.54619
2.54736
2.54791
2.54782
2.54711
2.54925
2.55043
2.55531
2.55543
2.56163
2.59052
2.57876
2.57464
2.56719
2.56602
2.56631
2.57084
2.57645
2.58394
2.59164
2.59958
2.6047
2.61045
2.61289
2.58714
2.57734
2.57286
2.56789
2.56739
2.56849
2.57278
2.5782
2.5846
2.59068
2.59701
2.60041
2.60421
2.60534
2.58844
2.5788
2.57508
2.57176
2.57123
2.57171
2.57483
2.57825
2.58305
2.58864
2.59435
2.59807
2.60174
2.6037
2.58787
2.58078
2.5767
2.57404
2.57317
2.57343
2.57584
2.57893
2.58304
2.58764
2.59256
2.59565
2.59779
2.59952
2.5828
2.57832
2.57504
2.57393
2.57365
2.57421
2.57622
2.57893
2.58251
2.58634
2.59072
2.59412
2.59608
2.59818
2.57648
2.57438
2.57293
2.5724
2.57258
2.57363
2.57572
2.57844
2.58179
2.58527
2.58907
2.59247
2.59428
2.59677
2.5691
2.56809
2.56855
2.56857
2.57015
2.57202
2.57453
2.57739
2.58062
2.58406
2.58762
2.59123
2.59356
2.59653
2.56218
2.5622
2.56422
2.56553
2.56839
2.57079
2.57335
2.57617
2.57923
2.5827
2.58623
2.58996
2.59312
2.59623
2.55586
2.55687
2.55932
2.56217
2.56556
2.56861
2.57153
2.57465
2.57768
2.58124
2.58484
2.5887
2.59243
2.59643
2.55463
2.55395
2.55716
2.56061
2.56435
2.56748
2.57021
2.5733
2.57602
2.57948
2.58294
2.58709
2.59136
2.59632
2.55274
2.55159
2.55479
2.5587
2.56279
2.56616
2.56887
2.57203
2.57449
2.57793
2.58121
2.58581
2.58982
2.59581
2.55697
2.55358
2.55589
2.55966
2.56346
2.56653
2.56862
2.57125
2.57313
2.57614
2.57869
2.58339
2.58648
2.59388
2.55757
2.55553
2.55786
2.5619
2.5655
2.56797
2.56904
2.57046
2.57136
2.57385
2.57592
2.58079
2.58358
2.5915
2.56431
2.56428
2.56568
2.56757
2.56942
2.57025
2.57056
2.57055
2.57043
2.57217
2.57347
2.57787
2.57926
2.58668
2.60402
2.59351
2.59089
2.58653
2.58635
2.58723
2.59132
2.59622
2.60205
2.60816
2.61476
2.61905
2.62412
2.62648
2.60531
2.59652
2.59312
2.5891
2.58866
2.5895
2.59332
2.5976
2.60277
2.60738
2.61248
2.61546
2.61817
2.6197
2.60714
2.59942
2.59609
2.59311
2.59241
2.5925
2.59483
2.59728
2.60079
2.60523
2.61003
2.6133
2.61609
2.61849
2.60713
2.60124
2.59733
2.59481
2.59378
2.59371
2.59533
2.59765
2.60093
2.60446
2.60849
2.61134
2.61311
2.6153
2.60197
2.59827
2.59551
2.59425
2.59384
2.59411
2.59548
2.59745
2.60034
2.60331
2.60691
2.61004
2.61189
2.61414
2.59765
2.59527
2.59387
2.59274
2.59278
2.59338
2.59489
2.59686
2.59954
2.60233
2.60553
2.60868
2.61065
2.61328
2.59047
2.58975
2.59012
2.58917
2.59059
2.59192
2.59373
2.59578
2.59829
2.60109
2.60421
2.6076
2.61031
2.61323
2.58404
2.58433
2.58635
2.58668
2.58887
2.59048
2.59233
2.59443
2.59685
2.59972
2.60287
2.60639
2.6098
2.61325
2.57719
2.57866
2.58126
2.58342
2.58605
2.58829
2.59046
2.59282
2.59525
2.5982
2.60143
2.60511
2.60892
2.61349
2.57385
2.57474
2.57891
2.58181
2.58476
2.58703
2.58908
2.59142
2.59362
2.5965
2.59963
2.60351
2.60779
2.6129
2.57026
2.57098
2.57572
2.57943
2.58297
2.58558
2.58765
2.59011
2.59209
2.59496
2.59796
2.60214
2.60623
2.61204
2.57171
2.57163
2.57577
2.57985
2.5832
2.58565
2.58733
2.58943
2.59088
2.59335
2.5956
2.59977
2.60296
2.60991
2.57075
2.57291
2.57706
2.58151
2.58463
2.58668
2.5873
2.58852
2.58911
2.59097
2.59287
2.59738
2.60028
2.60792
2.57612
2.57887
2.58301
2.5862
2.58793
2.58887
2.58865
2.58883
2.58841
2.58947
2.59071
2.59446
2.59608
2.60333
2.61833
2.60998
2.60762
2.60414
2.60416
2.6053
2.60873
2.61224
2.61667
2.62097
2.62598
2.62942
2.63287
2.63529
2.62142
2.61344
2.61094
2.60768
2.60728
2.60765
2.61052
2.61335
2.6172
2.62042
2.62409
2.62641
2.62789
2.62939
2.62259
2.6164
2.61348
2.61081
2.60994
2.6097
2.61121
2.61282
2.61521
2.61858
2.62209
2.6246
2.62637
2.62865
2.62172
2.61706
2.61384
2.61169
2.61067
2.61039
2.6114
2.61306
2.61549
2.61799
2.62091
2.62317
2.62444
2.62644
2.61761
2.61446
2.61205
2.61063
2.61015
2.61028
2.61122
2.61266
2.61483
2.61698
2.61969
2.62221
2.62372
2.62564
2.61384
2.61167
2.61048
2.60928
2.60923
2.6095
2.6105
2.61189
2.61395
2.61608
2.61861
2.62119
2.62298
2.6252
2.60778
2.60717
2.60737
2.60628
2.60723
2.60802
2.60928
2.61073
2.61269
2.61491
2.61751
2.62044
2.62296
2.62556
2.60222
2.60269
2.60408
2.60405
2.60549
2.60648
2.60779
2.60933
2.61126
2.61359
2.61627
2.61939
2.62255
2.62563
2.59575
2.59744
2.59971
2.60111
2.60294
2.60438
2.60593
2.6077
2.60967
2.61208
2.61486
2.61817
2.62165
2.62585
2.5918
2.59392
2.59745
2.59952
2.60154
2.60305
2.60449
2.60625
2.60803
2.61038
2.61311
2.61653
2.62041
2.62505
2.58787
2.58993
2.59454
2.59753
2.6
2.60175
2.60311
2.60492
2.60644
2.60878
2.61146
2.61508
2.61891
2.62398
2.58739
2.58978
2.59433
2.59762
2.59982
2.60155
2.60258
2.60408
2.60505
2.60713
2.60924
2.61288
2.616
2.62202
2.58611
2.59037
2.59482
2.59883
2.60079
2.60214
2.60216
2.60303
2.60329
2.60494
2.60664
2.61053
2.61311
2.62015
2.59062
2.59524
2.5993
2.60233
2.60309
2.60376
2.60299
2.60302
2.6021
2.60308
2.6043
2.60773
2.60949
2.61643
2.63367
2.62665
2.62445
2.62138
2.62117
2.62182
2.62442
2.62656
2.62996
2.63297
2.63658
2.63938
2.64147
2.64412
2.63629
2.62952
2.62735
2.62443
2.62388
2.6238
2.62551
2.62737
2.63024
2.63241
2.63493
2.63665
2.63743
2.63902
2.63673
2.63154
2.62886
2.62642
2.62547
2.62503
2.62582
2.62684
2.62852
2.63077
2.63321
2.63503
2.63611
2.63821
2.63499
2.63126
2.62859
2.62667
2.6257
2.62532
2.62582
2.62694
2.62862
2.63026
2.63227
2.63392
2.63474
2.63642
2.63201
2.62913
2.62699
2.62546
2.62486
2.62481
2.6254
2.62642
2.62797
2.62944
2.63134
2.63323
2.63435
2.63596
2.62831
2.62646
2.62542
2.62427
2.62408
2.62414
2.62477
2.62574
2.62722
2.62874
2.63059
2.63255
2.63398
2.6358
2.62348
2.62277
2.62274
2.62177
2.6222
2.62267
2.62356
2.62463
2.62613
2.62784
2.62986
2.63216
2.63418
2.6364
2.61869
2.61905
2.62
2.61977
2.62064
2.62127
2.6222
2.62335
2.62489
2.62677
2.62894
2.63147
2.634
2.63654
2.61332
2.61487
2.61638
2.61724
2.61837
2.61937
2.62048
2.62183
2.62343
2.62542
2.62772
2.63047
2.63336
2.63679
2.60944
2.61201
2.61452
2.61583
2.61705
2.61809
2.6191
2.62042
2.62184
2.6238
2.62613
2.62903
2.63238
2.63626
2.60571
2.60873
2.61232
2.61436
2.61588
2.61698
2.61783
2.61909
2.62026
2.62224
2.62462
2.62775
2.63112
2.63544
2.60527
2.60834
2.61215
2.61426
2.61558
2.61666
2.61715
2.61812
2.61879
2.62064
2.62265
2.62584
2.6288
2.63391
2.60453
2.60829
2.61242
2.61512
2.61616
2.61682
2.61653
2.61705
2.61718
2.61877
2.62044
2.62388
2.62627
2.63228
2.6077
2.6128
2.61594
2.6178
2.61763
2.61789
2.61698
2.61687
2.61586
2.61707
2.61833
2.6215
2.62314
2.62934
2.63864
2.64124
2.64351
2.64617
2.64852
2.64996
2.65267
2.63904
2.64112
2.64274
2.64458
2.64607
2.64663
2.64823
2.63864
2.63987
2.64137
2.64307
2.64456
2.64534
2.64731
2.63854
2.63967
2.64082
2.64228
2.64363
2.64425
2.64573
2.63809
2.63911
2.64018
2.64157
2.64306
2.64397
2.64542
2.63755
2.63857
2.6397
2.64107
2.64265
2.64386
2.64548
2.63666
2.6378
2.63914
2.64068
2.64254
2.64422
2.64619
2.63566
2.63688
2.63838
2.64011
2.64218
2.64424
2.64643
2.62819
2.62925
2.63036
2.631
2.63176
2.63255
2.6333
2.63436
2.63565
2.63729
2.63921
2.64152
2.64386
2.64676
2.62523
2.62729
2.62902
2.62992
2.63064
2.63141
2.63205
2.63304
2.63419
2.63584
2.63786
2.64037
2.64319
2.64644
2.62242
2.62501
2.6275
2.62892
2.62978
2.63044
2.63088
2.63173
2.63267
2.63436
2.63652
2.63928
2.6423
2.64597
2.6223
2.62493
2.62754
2.62882
2.62943
2.62996
2.6301
2.63073
2.63132
2.6329
2.63481
2.63765
2.64048
2.64491
2.62211
2.6249
2.62799
2.62946
2.62976
2.6299
2.62955
2.62979
2.62993
2.63134
2.63297
2.63604
2.63841
2.64357
2.62498
2.62865
2.63073
2.63148
2.631
2.63069
2.62978
2.62952
2.62875
2.62988
2.63114
2.63405
2.63575
2.64124
2.47077
2.47942
2.48764
2.50139
2.53185
2.5805
2.45732
2.46118
2.47068
2.4851
2.5111
2.55559
2.45948
2.46085
2.46316
2.47083
2.48882
2.52422
2.45402
2.45291
2.45267
2.45939
2.47478
2.50218
2.45676
2.45309
2.45198
2.45886
2.47174
2.495
2.46049
2.45503
2.45521
2.46309
2.47476
2.4936
2.46965
2.46454
2.4655
2.471
2.4805
2.49665
2.47862
2.47516
2.4761
2.47767
2.4871
2.50279
2.48821
2.48592
2.48626
2.48452
2.4935
2.51076
2.4949
2.49367
2.4898
2.48542
2.49726
2.51826
2.49808
2.49518
2.48864
2.48451
2.49622
2.52377
2.4942
2.48938
2.48139
2.4782
2.49416
2.53011
2.48699
2.48019
2.47392
2.47414
2.49619
2.53908
2.46723
2.46431
2.46392
2.47186
2.50103
2.54989
2.53733
2.5581
2.57134
2.58765
2.60976
2.63621
2.51499
2.52488
2.53582
2.55047
2.57132
2.59701
2.51032
2.51442
2.51602
2.52316
2.53748
2.55823
2.49785
2.49799
2.49377
2.49749
2.51128
2.52959
2.49712
2.49446
2.48821
2.48978
2.5028
2.51727
2.49895
2.49437
2.48901
2.48997
2.50333
2.51378
2.50681
2.50208
2.49955
2.50108
2.51404
2.52115
2.51662
2.51414
2.51469
2.51773
2.53022
2.535
2.52693
2.52634
2.52921
2.53264
2.5456
2.55218
2.53661
2.53973
2.54426
2.55046
2.56486
2.57338
2.5438
2.54711
2.55064
2.55768
2.57444
2.58805
2.5458
2.54929
2.55367
2.56355
2.58282
2.60187
2.54565
2.54851
2.5548
2.56922
2.5929
2.61668
2.53279
2.54118
2.55315
2.57415
2.60182
2.62948
2.58519
2.61225
2.62768
2.64274
2.65398
2.66785
2.56297
2.58001
2.59232
2.60405
2.61356
2.62691
2.55547
2.56518
2.57032
2.57576
2.57963
2.58809
2.54287
2.5463
2.54528
2.54586
2.54781
2.55625
2.54017
2.54031
2.53661
2.5341
2.5351
2.5437
2.53981
2.53833
2.53345
2.53024
2.53218
2.54055
2.54418
2.54287
2.53976
2.53836
2.54181
2.55005
2.55247
2.55213
2.55195
2.55411
2.55954
2.56764
2.56147
2.56314
2.56624
2.57175
2.57922
2.58929
2.57169
2.57717
2.58307
2.59211
2.60227
2.61368
2.5812
2.58832
2.59497
2.6046
2.61587
2.63012
2.58637
2.59445
2.60146
2.61282
2.62605
2.64229
2.59031
2.59692
2.60492
2.61807
2.63318
2.65123
2.58333
2.59227
2.60378
2.62176
2.63987
2.65946
2.60031
2.62824
2.64702
2.66526
2.67621
2.68506
2.58064
2.59909
2.61552
2.62951
2.63627
2.64215
2.57384
2.58554
2.59485
2.60222
2.60336
2.6038
2.56556
2.572
2.57444
2.57667
2.57373
2.57152
2.56363
2.56655
2.56632
2.56656
2.56158
2.55903
2.56434
2.56474
2.56404
2.56288
2.5589
2.55747
2.56852
2.56846
2.56882
2.56819
2.56737
2.56747
2.57641
2.57733
2.57888
2.58047
2.58302
2.58516
2.58493
2.58765
2.5914
2.59615
2.60194
2.60669
2.59416
2.59983
2.60605
2.614
2.62263
2.63009
2.60323
2.61033
2.61756
2.62706
2.63676
2.64649
2.60845
2.61736
2.62502
2.63591
2.64633
2.65784
2.61365
2.62128
2.6285
2.63963
2.65037
2.66297
2.61047
2.61796
2.62598
2.63846
2.65126
2.66667
2.60451
2.62393
2.64132
2.66047
2.67714
2.6909
2.58992
2.60104
2.6152
2.63165
2.64253
2.65076
2.58514
2.59188
2.60059
2.61013
2.61402
2.61462
2.58097
2.58464
2.58888
2.59203
2.59083
2.58579
2.58075
2.58278
2.58419
2.5852
2.58183
2.57502
2.583
2.5827
2.58338
2.58451
2.5817
2.57621
2.58777
2.58738
2.58888
2.59039
2.58992
2.58762
2.59512
2.59575
2.59798
2.60059
2.60258
2.60367
2.60263
2.60518
2.60917
2.61378
2.61922
2.62333
2.61054
2.61537
2.62128
2.62846
2.63605
2.64292
2.61821
2.62422
2.63087
2.63925
2.64796
2.65761
2.6226
2.63009
2.6369
2.64648
2.65571
2.66725
2.62675
2.63341
2.63902
2.64775
2.65657
2.66855
2.62557
2.63146
2.63572
2.6437
2.65254
2.6653
2.61582
2.62581
2.635
2.65101
2.66715
2.68345
2.60542
2.61037
2.61659
2.62926
2.64018
2.65094
2.60099
2.60296
2.60559
2.61302
2.61732
2.62039
2.5979
2.59786
2.59846
2.6009
2.60036
2.59843
2.59888
2.59649
2.59672
2.59598
2.59443
2.59039
2.60105
2.59815
2.59664
2.59702
2.59622
2.59241
2.60556
2.60363
2.60324
2.60454
2.60544
2.60342
2.61117
2.61095
2.6121
2.61449
2.61692
2.618
2.61711
2.61892
2.62232
2.62646
2.63159
2.63581
2.62307
2.62699
2.63236
2.63873
2.6459
2.65249
2.62896
2.63403
2.64012
2.64782
2.65608
2.66518
2.63254
2.63872
2.64492
2.65372
2.66258
2.67338
2.63527
2.64119
2.64644
2.65444
2.66245
2.67329
2.6358
2.64163
2.64463
2.65082
2.65742
2.667
2.63015
2.63546
2.63762
2.64644
2.65727
2.67101
2.62202
2.62347
2.62374
2.63008
2.63815
2.64814
2.6182
2.61696
2.6154
2.61761
2.62146
2.62477
2.61589
2.61269
2.61014
2.60911
2.60957
2.6069
2.61668
2.61272
2.60922
2.60684
2.60482
2.60089
2.61855
2.61455
2.61077
2.60855
2.60724
2.60413
2.6222
2.61959
2.61767
2.61705
2.61722
2.61591
2.62594
2.6254
2.62571
2.62692
2.62912
2.63013
2.63046
2.6318
2.63451
2.63803
2.64252
2.64635
2.63477
2.63805
2.64276
2.64851
2.65509
2.66126
2.6392
2.64366
2.64917
2.6562
2.66383
2.67213
2.64231
2.64756
2.65326
2.66113
2.66928
2.679
2.64386
2.64927
2.65442