/*--------------------------------*- C++ -*----------------------------------*\
| =========                 |                                                 |
| \\      /  F ield         | OpenFOAM: The Open Source CFD Toolbox           |
|  \\    /   O peration     | Version:  v2106                                 |
|   \\  /    A nd           | Website:  www.openfoam.com                      |
|    \\/     M anipulation  |                                                 |
\*---------------------------------------------------------------------------*/
FoamFile
{
    version     2.0;
    format      ascii;
    arch        "LSB;label=32;scalar=64";
    class       volScalarField;
    location    "0.000135";
    object      Ttot;
}
// * * * * * * * * * * * * * * * * * * * * * * * * * * * * * * * * * * * * * //

dimensions      [0 0 0 1 0 0 0];

internalField   nonuniform List<scalar> 
18273
(
303.609
303.647
303.629
303.624
303.593
303.556
303.558
303.533
303.587
303.634
303.708
303.785
303.859
303.831
304.099
304.375
304.357
304.369
304.284
304.17
304.071
303.948
303.915
303.894
303.914
303.978
304.033
303.972
304.231
304.585
304.571
304.585
304.449
304.319
304.18
304.048
303.974
303.93
303.96
304.028
304.098
304.042
304.218
304.546
304.521
304.511
304.357
304.243
304.114
304.03
303.975
303.938
303.992
304.082
304.177
304.137
304.088
304.404
304.379
304.366
304.209
304.116
304.007
303.954
303.917
303.895
303.973
304.074
304.173
304.137
303.91
304.26
304.279
304.274
304.126
304.014
303.91
303.872
303.847
303.845
303.936
304.048
304.156
304.133
303.73
304.155
304.238
304.226
304.087
303.964
303.851
303.81
303.801
303.812
303.896
303.995
304.083
304.056
303.627
304.193
304.354
304.317
304.161
304.018
303.899
303.846
303.827
303.84
303.914
303.993
304.059
304.021
303.555
304.232
304.464
304.443
304.267
304.106
303.985
303.926
303.913
303.924
303.984
304.039
304.085
304.033
303.555
304.346
304.621
304.612
304.427
304.253
304.124
304.066
304.042
304.034
304.07
304.113
304.156
304.106
303.54
304.43
304.746
304.769
304.582
304.402
304.275
304.207
304.187
304.197
304.233
304.261
304.299
304.234
303.608
304.487
304.795
304.831
304.663
304.502
304.397
304.348
304.355
304.375
304.415
304.429
304.462
304.371
303.662
304.534
304.854
304.901
304.762
304.624
304.533
304.479
304.504
304.533
304.579
304.568
304.58
304.453
303.633
304.272
304.567
304.665
304.588
304.503
304.442
304.396
304.437
304.465
304.484
304.435
304.397
304.307
301.586
301.553
301.798
301.982
302.372
302.623
303.026
303.245
303.581
303.844
304.12
304.272
304.294
303.914
303.059
303.255
303.275
303.308
303.474
303.485
303.616
303.597
303.79
303.96
304.166
304.342
304.367
303.99
304.019
304.149
304.055
303.987
303.973
303.844
303.784
303.694
303.766
303.868
304.053
304.258
304.371
304.089
304.277
304.348
304.183
304.094
303.983
303.818
303.694
303.614
303.69
303.797
303.983
304.226
304.392
304.251
304.164
304.247
304.074
303.974
303.784
303.637
303.532
303.523
303.602
303.756
303.98
304.215
304.377
304.294
303.821
304.007
303.943
303.877
303.711
303.571
303.471
303.455
303.542
303.705
303.924
304.172
304.337
304.338
303.32
303.7
303.791
303.792
303.681
303.569
303.477
303.45
303.535
303.712
303.93
304.16
304.341
304.393
303.008
303.721
303.972
303.995
303.845
303.734
303.6
303.564
303.631
303.787
303.977
304.163
304.367
304.463
302.44
303.469
304.024
304.205
304.096
303.96
303.813
303.792
303.856
303.997
304.165
304.317
304.517
304.569
302.023
303.465
304.282
304.526
304.426
304.248
304.084
304.085
304.147
304.257
304.393
304.531
304.702
304.735
301.592
303.277
304.416
304.832
304.751
304.545
304.36
304.354
304.397
304.511
304.644
304.768
304.922
304.901
301.48
303.325
304.645
305.102
305.001
304.801
304.613
304.598
304.597
304.703
304.866
304.961
305.09
305.04
301.409
303.448
304.829
305.335
305.241
305.058
304.861
304.751
304.731
304.854
304.979
305.027
305.082
304.993
301.455
303.021
304.353
305.027
305.04
304.928
304.741
304.618
304.614
304.669
304.689
304.631
304.554
304.525
300.494
300.393
300.719
300.864
301.433
301.76
302.467
303.02
303.901
304.684
305.415
305.935
305.977
305.305
302.506
302.681
303.023
302.953
303.123
303.073
303.289
303.383
303.889
304.49
305.151
305.695
305.872
305.494
304.164
304.101
304.196
303.936
303.764
303.527
303.521
303.537
303.841
304.259
304.833
305.466
305.83
305.643
304.842
304.585
304.386
304.079
303.824
303.592
303.533
303.506
303.76
304.129
304.621
305.194
305.522
305.461
304.699
304.372
304.056
303.758
303.548
303.373
303.374
303.438
303.665
303.981
304.414
304.926
305.286
305.373
304.046
303.815
303.673
303.536
303.434
303.32
303.329
303.4
303.615
303.933
304.318
304.738
304.984
305.066
302.932
303.005
303.198
303.334
303.328
303.314
303.321
303.408
303.601
303.903
304.253
304.637
304.886
305.033
301.955
302.577
303.238
303.517
303.538
303.466
303.415
303.494
303.645
303.913
304.205
304.53
304.794
304.976
300.838
301.961
303.153
303.602
303.751
303.644
303.571
303.694
303.828
304.092
304.349
304.639
304.924
305.122
300.312
301.935
303.443
303.983
304.074
303.915
303.799
303.98
304.113
304.373
304.589
304.855
305.105
305.327
299.657
301.66
303.483
304.254
304.387
304.232
304.083
304.305
304.456
304.77
305.014
305.317
305.565
305.71
299.618
301.771
303.697
304.525
304.644
304.511
304.393
304.597
304.726
305.131
305.368
305.695
305.81
305.903
299.437
301.711
303.525
304.587
304.86
304.763
304.659
304.781
304.824
305.233
305.393
305.705
305.627
305.601
299.57
301.392
303.3
304.707
305.133
305.017
304.813
304.655
304.558
304.844
304.826
304.947
304.735
304.502
303.509
302.826
301.82
300.42
298.928
297.204
303.632
302.792
301.654
300.167
298.741
297.142
303.688
302.806
301.584
300.017
298.501
296.955
303.799
302.851
301.543
299.878
298.369
296.793
303.809
302.876
301.568
299.876
298.333
296.709
303.834
302.934
301.69
300.021
298.415
296.635
303.8
303.001
301.903
300.318
298.644
296.647
303.809
303.102
302.141
300.643
298.902
296.694
303.844
303.207
302.33
300.887
299.14
296.79
303.94
303.345
302.511
301.09
299.357
296.934
304.049
303.431
302.583
301.194
299.584
297.133
304.136
303.494
302.625
301.27
299.598
297.256
304.127
303.465
302.559
301.188
299.566
297.374
303.959
303.283
302.253
300.77
299.196
297.285
303.205
302.02
300.889
299.541
298.59
296.965
303.344
302.051
300.77
299.261
298.297
296.776
303.329
301.987
300.58
298.978
297.932
296.5
303.56
302.198
300.677
298.93
297.824
296.355
303.69
302.425
300.924
299.132
297.987
296.459
303.912
302.804
301.463
299.7
298.491
296.802
304.11
303.233
302.13
300.452
299.13
297.168
304.34
303.657
302.772
301.167
299.676
297.375
304.521
303.898
303.156
301.645
300.039
297.437
304.661
304.004
303.316
301.904
300.296
297.538
304.753
304.075
303.333
301.816
300.229
297.52
304.82
303.955
303.112
301.578
300.073
297.607
304.644
303.608
302.61
301.03
299.694
297.529
304.056
302.757
301.594
300.078
299.048
297.27
303.945
302.134
300.411
298.269
297.039
292.429
304.245
302.237
300.401
298.179
296.91
292.119
304.267
302.307
300.35
298.039
296.618
292.238
304.337
302.465
300.612
298.252
296.741
292.858
304.448
302.7
300.951
298.718
297.338
294.044
304.441
303.073
301.637
299.711
298.634
295.7
304.61
303.587
302.582
301.047
300.185
297.31
304.897
304.319
303.745
302.322
301.285
298.101
305.298
304.893
304.562
303.124
301.894
298.311
305.633
305.155
304.799
303.287
302.057
298.198
305.821
305.224
304.566
302.761
301.619
297.332
305.637
304.757
303.847
301.99
300.907
296.477
305.221
303.879
302.684
300.658
299.818
295.216
303.841
302.236
300.801
298.814
298.121
293.478
303.878
303.088
301.926
300.439
298.931
297.231
303.885
302.937
301.653
300.08
298.634
297.093
303.952
302.908
301.516
299.883
298.364
296.85
304.005
302.91
301.464
299.735
298.195
296.62
304.037
302.958
301.536
299.779
298.175
296.493
304.08
303.072
301.753
299.996
298.329
296.48
304.125
303.251
302.059
300.315
298.578
296.563
304.198
303.357
302.228
300.495
298.74
296.61
304.243
303.458
302.406
300.709
298.989
296.773
304.282
303.455
302.374
300.714
299.033
296.952
304.286
303.432
302.364
300.842
299.23
297.262
304.106
303.201
302.089
300.612
299.133
297.348
303.685
302.746
301.569
300.114
298.834
297.36
302.978
301.95
300.744
299.329
298.289
297.145
303.551
302.033
300.813
299.512
298.667
297.114
303.667
302.039
300.679
299.273
298.44
296.984
303.684
302.023
300.528
298.966
298.083
296.672
303.846
302.231
300.673
299.008
298.072
296.559
303.999
302.568
301.092
299.408
298.428
296.772
304.22
303.054
301.837
300.192
299.064
297.14
304.443
303.567
302.602
300.999
299.694
297.452
304.701
303.969
303.156
301.563
300.128
297.633
304.889
304.149
303.411
301.821
300.337
297.608
304.918
304.026
303.205
301.504
300.038
297.468
304.727
303.554
302.587
300.875
299.518
297.135
303.769
302.313
301.131
299.406
298.298
296.378
302.25
300.59
299.272
297.746
297.05
295.661
300.541
299.019
297.793
296.479
295.971
294.891
303.16
301.246
299.568
297.676
297.099
292.277
303.39
301.411
299.678
297.766
297.119
292.198
303.464
301.6
299.866
297.835
296.936
292.466
303.445
301.792
300.211
298.231
297.236
293.255
303.648
302.19
300.831
299.05
298.261
294.719
303.834
302.795
301.966
300.466
299.756
296.364
304.291
303.601
303.25
301.926
301.114
297.524
304.84
304.389
304.197
302.84
301.927
298.003
305.283
304.752
304.484
303.087
302.249
297.883
305.383
304.736
304.277
302.529
301.679
297.002
304.577
303.545
302.826
301.126
300.522
295.501
302.992
301.604
300.64
298.744
298.22
293.046
300.874
299.184
298.018
296.12
295.456
290.478
298.65
297.096
296.056
294.332
293.172
288.455
297.269
298.436
299.475
300.879
302.071
303.005
297.489
298.977
300.242
301.644
302.71
303.572
297.655
299.402
300.814
302.1
303.007
303.776
297.571
299.407
300.887
302.192
303.007
303.806
297.402
299.39
300.871
302.154
302.957
303.705
297.165
299.1
300.6
301.923
302.734
303.568
296.97
298.745
300.194
301.547
302.43
303.324
296.704
298.23
299.562
300.925
301.897
302.966
296.446
297.698
298.866
300.209
301.306
302.592
296.33
297.358
298.336
299.623
300.841
302.343
296.339
297.196
298.056
299.33
300.641
302.197
296.507
297.288
298.125
299.425
300.767
302.306
296.802
297.544
298.377
299.648
300.94
302.404
297.113
298.078
299.038
300.327
301.557
302.653
294.61
295.792
296.449
297.898
299.197
300.692
295.382
296.787
297.642
299.28
300.665
302.27
296.26
298.115
299.285
300.993
302.189
303.528
297.281
299.512
300.794
302.311
303.127
304.114
297.925
300.374
301.695
303.032
303.558
304.161
298.206
300.686
301.947
303.084
303.408
303.937
298.262
300.488
301.566
302.617
302.887
303.313
298.03
299.891
300.685
301.576
301.786
302.418
297.573
298.966
299.417
300.177
300.477
301.375
296.82
297.801
298.032
298.764
299.34
300.563
295.963
296.672
296.922
297.828
298.611
299.939
295.344
295.955
296.307
297.342
298.285
299.728
294.959
295.636
296.06
297.143
298.052
299.54
294.84
295.745
296.399
297.58
298.556
299.798
288.235
292.804
294.444
296.416
297.694
299.425
290.219
294.979
296.434
298.601
299.866
301.628
293.178
298.022
299.159
301.178
302.185
303.461
296.13
300.68
301.573
303.217
303.915
304.658
298.141
302.432
303.138
304.369
304.632
304.986
299.465
303.223
303.883
304.763
304.549
304.499
299.918
303.228
303.742
304.202
303.623
303.343
299.879
302.609
302.75
302.707
301.883
301.846
299.093
301.132
300.949
300.739
300.016
300.28
297.329
298.946
298.682
298.629
298.406
299.113
294.949
296.605
296.582
296.921
297.154
298.024
292.457
294.589
295.058
295.866
296.65
297.748
290.164
293.129
294.067
295.39
296.197
297.343
288.487
292.293
293.727
295.628
296.877
297.894
297.286
299.232
300.777
302.125
302.962
303.542
297.378
299.56
301.103
302.298
303.028
303.577
297.257
299.578
301.107
302.262
302.936
303.522
297.125
299.439
300.986
302.111
302.798
303.396
296.769
299.011
300.591
301.812
302.568
303.295
296.625
298.651
300.163
301.427
302.244
303.124
296.445
298.205
299.612
300.899
301.802
302.86
296.266
297.721
298.957
300.261
301.33
302.61
296.148
297.331
298.389
299.706
300.945
302.414
296.175
297.136
298.056
299.383
300.763
302.339
296.319
297.128
297.999
299.316
300.739
302.321
296.595
297.339
298.219
299.549
300.957
302.411
296.869
297.652
298.512
299.799
301.152
302.512
297.106
298.098
299.044
300.335
301.571
302.697
297.289
299.069
300.15
301.581
302.586
303.537
297.654
299.742
301.016
302.346
303.145
303.995
297.787
300.175
301.546
302.745
303.372
304.104
297.808
300.464
301.883
303.02
303.517
304.045
297.919
300.442
301.796
302.894
303.322
303.874
297.835
300.152
301.384
302.478
302.866
303.438
297.67
299.624
300.629
301.627
302.017
302.752
297.333
298.841
299.568
300.464
301.007
302.076
296.796
297.791
298.274
299.202
299.997
301.364
296.148
296.719
297.118
298.156
299.214
300.795
295.544
295.916
296.368
297.477
298.642
300.299
295.054
295.459
296.007
297.178
298.408
300.045
294.668
295.289
295.85
297.028
298.2
299.799
294.497
295.436
296.19
297.486
298.593
299.973
294.111
298.453
299.488
301.531
303.058
304.47
296.067
300.364
301.423
303.38
304.536
305.522
297.414
301.623
302.832
304.489
305.204
305.719
298.494
302.639
303.814
305.19
305.34
305.643
299.437
303.142
304.125
305.083
305.065
305.103
299.797
303.03
303.767
304.367
304.171
304.176
299.753
302.351
302.69
302.866
302.569
302.896
299.317
301.074
301.03
301.038
300.882
301.727
298.145
299.213
298.942
299.038
299.227
300.441
296.373
297.175
296.941
297.293
297.938
299.544
294.286
295.361
295.313
295.905
296.893
298.641
291.982
293.839
294.246
295.256
296.512
298.294
289.876
292.657
293.521
294.884
296.231
297.984
288.293
291.886
293.487
295.493
297.005
298.545
300.971
300.209
300.197
300.006
300.429
300.9
301.652
302.362
303.27
304.218
305.371
306.354
307.057
307.062
302.919
302.519
302.351
302.036
302.035
302.047
302.371
302.632
303.138
303.822
304.755
305.625
306.355
306.479
304.348
303.871
303.574
303.124
302.853
302.601
302.622
302.669
303.03
303.523
304.26
305.103
305.909
306.266
304.813
304.144
303.616
303.147
302.823
302.594
302.591
302.624
302.868
303.269
303.861
304.533
305.166
305.472
304.359
303.726
303.231
302.882
302.606
302.444
302.456
302.528
302.757
303.093
303.576
304.145
304.701
305.04
303.416
303.01
302.779
302.626
302.45
302.373
302.392
302.487
302.691
302.994
303.392
303.823
304.221
304.495
302.369
302.26
302.362
302.412
302.347
302.346
302.377
302.491
302.667
302.958
303.316
303.718
304.074
304.357
301.225
301.718
302.335
302.535
302.557
302.488
302.461
302.563
302.701
302.98
303.292
303.666
303.978
304.31
299.989
301.129
302.163
302.606
302.689
302.611
302.569
302.705
302.84
303.152
303.442
303.832
304.187
304.601
299.422
301.153
302.494
303.07
303.067
302.904
302.793
302.948
303.076
303.437
303.73
304.175
304.585
305.044
298.99
301.184
302.752
303.445
303.427
303.222
303.064
303.254
303.414
303.887
304.259
304.851
305.326
305.88
299.396
301.67
303.337
304.031
303.918
303.62
303.413
303.621
303.829
304.416
304.871
305.617
306.076
306.762
299.48
301.977
303.7
304.513
304.426
304.052
303.804
303.954
304.115
304.786
305.314
306.154
306.562
307.249
300.38
302.514
304.211
305.108
305.017
304.565
304.192
304.178
304.282
304.899
305.307
306.11
306.206
306.75
299.267
298.563
298.747
298.826
299.466
300.232
301.11
301.88
302.643
303.434
304.346
305.197
305.925
306.097
301.714
301.304
301.225
301.065
301.202
301.428
301.834
302.208
302.647
303.187
303.89
304.552
305.182
305.433
303.339
302.762
302.515
302.224
302.115
302.061
302.165
302.283
302.578
302.968
303.511
304.11
304.71
305.076
303.678
303.094
302.697
302.367
302.168
302.076
302.15
302.265
302.491
302.795
303.227
303.667
304.078
304.345
303.25
302.769
302.433
302.225
302.088
302.031
302.104
302.22
302.421
302.671
303.012
303.376
303.707
303.9
302.534
302.277
302.146
302.052
301.991
301.991
302.072
302.199
302.375
302.584
302.849
303.128
303.366
303.495
301.549
301.629
301.777
301.852
301.866
301.926
302.028
302.171
302.336
302.543
302.77
303.027
303.23
303.348
300.346
301.019
301.603
301.835
301.925
301.967
302.042
302.178
302.325
302.525
302.719
302.969
303.156
303.303
298.878
300.29
301.304
301.778
301.917
301.963
302.031
302.189
302.336
302.559
302.75
303.017
303.222
303.483
297.834
299.88
301.33
301.971
302.097
302.088
302.096
302.25
302.387
302.642
302.844
303.163
303.413
303.764
297.172
299.575
301.325
302.092
302.227
302.192
302.17
302.345
302.496
302.822
303.083
303.527
303.865
304.368
297.294
299.684
301.529
302.39
302.495
302.384
302.303
302.474
302.63
303.027
303.367
303.966
304.373
305.084
297.272
299.869
301.766
302.711
302.799
302.598
302.467
302.58
302.702
303.154
303.593
304.34
304.835
305.601
298.14
300.352
302.286
303.246
303.23
302.881
302.618
302.631
302.685
303.08
303.49
304.268
304.574
305.259
299.789
299.314
299.563
299.765
300.31
300.879
301.518
302.066
302.59
303.164
303.772
304.322
304.88
305.101
301.887
301.638
301.59
301.492
301.581
301.735
302.023
302.316
302.653
303.026
303.478
303.888
304.35
304.562
303.051
302.635
302.441
302.228
302.128
302.09
302.207
302.35
302.562
302.851
303.22
303.595
304.026
304.307
303.252
302.863
302.572
302.324
302.172
302.124
302.204
302.339
302.529
302.755
303.041
303.317
303.619
303.838
302.944
302.61
302.371
302.213
302.133
302.119
302.186
302.316
302.479
302.667
302.905
303.155
303.402
303.574
302.452
302.298
302.205
302.115
302.091
302.104
302.184
302.309
302.456
302.623
302.814
303.023
303.199
303.338
301.758
301.86
301.969
301.964
302.012
302.06
302.157
302.286
302.429
302.595
302.763
302.96
303.106
303.237
300.863
301.431
301.797
301.931
302.009
302.064
302.152
302.278
302.411
302.577
302.737
302.93
303.081
303.207
299.778
300.904
301.588
301.857
301.966
302.031
302.12
302.261
302.393
302.57
302.735
302.932
303.104
303.295
298.91
300.483
301.538
301.92
302.036
302.079
302.131
302.266
302.386
302.574
302.744
302.972
303.175
303.463
298.166
300.131
301.457
301.975
302.082
302.105
302.144
302.288
302.404
302.622
302.818
303.131
303.381
303.762
297.903
300.051
301.53
302.168
302.243
302.211
302.201
302.327
302.434
302.681
302.903
303.318
303.597
304.126
297.677
300.052
301.622
302.361
302.451
302.362
302.279
302.36
302.442
302.712
302.976
303.492
303.86
304.451
298.149
300.313
301.942
302.686
302.711
302.507
302.387
302.365
302.362
302.608
302.868
303.377
303.619
304.166
301.361
300.977
301.119
301.191
301.432
301.73
302.129
302.44
302.791
303.167
303.575
303.921
304.3
304.546
302.583
302.371
302.269
302.107
302.106
302.189
302.384
302.594
302.837
303.078
303.374
303.611
303.896
304.095
303.158
302.817
302.634
302.444
302.38
302.353
302.448
302.554
302.731
302.94
303.194
303.42
303.706
303.93
303.186
302.849
302.632
302.467
302.373
302.348
302.431
302.551
302.708
302.875
303.083
303.257
303.451
303.629
302.892
302.65
302.478
302.395
302.35
302.357
302.43
302.538
302.677
302.815
302.994
303.167
303.323
303.475
302.543
302.449
302.377
302.322
302.311
302.34
302.418
302.523
302.653
302.781
302.932
303.089
303.207
303.339
302.061
302.142
302.204
302.179
302.226
302.285
302.378
302.49
302.617
302.749
302.888
303.045
303.165
303.288
301.514
301.859
302.072
302.106
302.192
302.259
302.347
302.457
302.576
302.713
302.852
303.011
303.155
303.284
300.859
301.552
301.908
302.026
302.111
302.19
302.284
302.407
302.526
302.672
302.818
302.98
303.143
303.327
300.325
301.312
301.88
302.038
302.119
302.18
302.251
302.368
302.473
302.621
302.769
302.956
303.158
303.405
299.763
301.079
301.815
302.034
302.105
302.155
302.218
302.338
302.434
302.596
302.755
302.994
303.208
303.534
299.486
301.021
301.883
302.162
302.193
302.206
302.228
302.331
302.409
302.577
302.733
303.027
303.237
303.671
299.319
301.043
301.972
302.317
302.328
302.297
302.265
302.32
302.372
302.55
302.735
303.096
303.339
303.811
299.623
301.212
302.204
302.57
302.531
302.406
302.334
302.328
302.343
302.504
302.705
303.053
303.185
303.615
302.77
302.478
302.556
302.482
302.52
302.606
302.788
302.949
303.154
303.402
303.683
303.911
304.203
304.411
303.374
303.072
302.932
302.747
302.706
302.714
302.843
302.987
303.175
303.333
303.53
303.682
303.862
304.032
303.541
303.173
303.004
302.848
302.795
302.77
302.847
302.931
303.057
303.21
303.397
303.555
303.738
303.918
303.467
303.164
302.976
302.849
302.783
302.762
302.827
302.924
303.051
303.172
303.324
303.452
303.572
303.712
303.182
302.994
302.861
302.793
302.763
302.768
302.826
302.911
303.025
303.128
303.263
303.394
303.5
303.616
302.967
302.868
302.802
302.737
302.725
302.749
302.811
302.892
302.999
303.1
303.218
303.342
303.434
303.554
302.628
302.648
302.668
302.606
302.652
302.699
302.772
302.856
302.957
303.063
303.179
303.31
303.423
303.549
302.332
302.463
302.564
302.538
302.601
302.652
302.723
302.81
302.907
303.019
303.138
303.276
303.414
303.561
301.979
302.268
302.404
302.435
302.497
302.567
302.648
302.745
302.844
302.962
303.089
303.236
303.393
303.594
301.706
302.134
302.385
302.418
302.472
302.528
302.594
302.688
302.777
302.897
303.025
303.191
303.381
303.62
301.36
301.976
302.305
302.367
302.424
302.482
302.541
302.638
302.716
302.843
302.974
303.172
303.37
303.662
301.2
301.995
302.368
302.444
302.469
302.503
302.536
302.617
302.668
302.791
302.908
303.139
303.318
303.695
301.103
302.061
302.458
302.565
302.56
302.564
302.542
302.59
302.614
302.731
302.866
303.144
303.324
303.756
301.315
302.209
302.685
302.804
302.735
302.667
302.597
302.607
302.604
302.706
302.859
303.131
303.23
303.616
303.727
303.447
303.461
303.311
303.241
303.239
303.322
303.404
303.549
303.71
303.906
304.071
304.273
304.461
303.966
303.573
303.457
303.293
303.243
303.226
303.313
303.405
303.544
303.649
303.784
303.894
304.003
304.144
303.942
303.602
303.444
303.306
303.256
303.231
303.286
303.348
303.432
303.548
303.683
303.798
303.913
304.05
303.818
303.562
303.404
303.3
303.248
303.23
303.272
303.345
303.44
303.525
303.633
303.729
303.805
303.907
303.591
303.429
303.308
303.238
303.214
303.22
303.262
303.326
303.413
303.488
303.59
303.69
303.764
303.856
303.427
303.324
303.255
303.19
303.182
303.193
303.237
303.298
303.383
303.462
303.556
303.653
303.728
303.839
303.198
303.165
303.145
303.077
303.111
303.14
303.193
303.257
303.338
303.425
303.523
303.635
303.738
303.858
303.028
303.014
303.04
303.014
303.055
303.085
303.137
303.204
303.285
303.379
303.483
303.605
303.733
303.868
302.829
302.861
302.899
302.905
302.95
302.998
303.059
303.135
303.219
303.319
303.431
303.565
303.71
303.896
302.713
302.786
302.858
302.865
302.903
302.946
302.998
303.072
303.148
303.249
303.365
303.512
303.685
303.901
302.541
302.664
302.783
302.811
302.856
302.902
302.942
303.016
303.08
303.186
303.305
303.473
303.655
303.905
302.463
302.701
302.829
302.856
302.873
302.907
302.926
302.984
303.021
303.123
303.229
303.42
303.587
303.905
302.425
302.798
302.9
302.952
302.94
302.947
302.915
302.952
302.963
303.059
303.163
303.384
303.537
303.922
302.604
303.024
303.155
303.164
303.076
303.029
302.955
302.964
302.933
303.01
303.116
303.341
303.469
303.855
304.388
304.07
304.054
303.899
303.805
303.78
303.84
303.889
304.002
304.105
304.244
304.374
304.493
304.664
304.459
304.091
303.982
303.839
303.787
303.761
303.814
303.873
303.976
304.046
304.142
304.226
304.29
304.409
304.398
304.106
303.957
303.832
303.785
303.758
303.787
303.824
303.88
303.96
304.057
304.144
304.222
304.345
304.249
304.047
303.913
303.818
303.774
303.754
303.774
303.822
303.886
303.943
304.02
304.091
304.144
304.232
304.083
303.934
303.826
303.755
303.729
303.729
303.755
303.8
303.862
303.915
303.988
304.063
304.114
304.195
303.93
303.831
303.768
303.71
303.702
303.707
303.735
303.777
303.838
303.895
303.965
304.04
304.097
304.189
303.764
303.705
303.671
303.613
303.63
303.649
303.689
303.736
303.799
303.867
303.945
304.035
304.117
304.224
303.623
303.58
303.582
303.555
303.579
303.598
303.635
303.686
303.752
303.828
303.916
304.018
304.123
304.237
303.477
303.451
303.452
303.457
303.485
303.519
303.563
303.621
303.69
303.774
303.871
303.986
304.111
304.266
303.403
303.388
303.405
303.412
303.437
303.468
303.504
303.56
303.621
303.707
303.809
303.938
304.092
304.274
303.307
303.3
303.345
303.37
303.401
303.429
303.452
303.502
303.553
303.644
303.754
303.901
304.064
304.277
303.321
303.331
303.381
303.397
303.409
303.429
303.43
303.464
303.491
303.582
303.682
303.847
304.004
304.272
303.339
303.391
303.444
303.471
303.458
303.45
303.411
303.43
303.435
303.52
303.613
303.803
303.95
304.275
303.506
303.676
303.683
303.651
303.558
303.51
303.438
303.44
303.396
303.469
303.552
303.749
303.896
304.242
304.337
304.427
304.505
304.611
304.72
304.797
304.948
304.313
304.389
304.448
304.523
304.596
304.638
304.735
304.279
304.322
304.381
304.452
304.522
304.577
304.684
304.276
304.32
304.364
304.422
304.48
304.516
304.594
304.261
304.302
304.343
304.397
304.456
304.493
304.567
304.245
304.286
304.33
304.383
304.444
304.49
304.57
304.213
304.261
304.314
304.375
304.449
304.517
304.607
304.173
304.226
304.288
304.359
304.445
304.53
304.628
304
303.977
303.983
303.992
304.013
304.042
304.072
304.118
304.174
304.245
304.327
304.427
304.529
304.66
303.946
303.932
303.945
303.958
303.973
303.996
304.018
304.059
304.111
304.185
304.276
304.39
304.52
304.671
303.89
303.872
303.901
303.929
303.947
303.96
303.969
304.002
304.045
304.125
304.227
304.358
304.504
304.683
303.933
303.904
303.931
303.947
303.946
303.949
303.94
303.961
303.988
304.067
304.163
304.308
304.455
304.681
303.972
303.949
303.993
304.003
303.977
303.955
303.923
303.931
303.937
304.012
304.101
304.267
304.405
304.677
304.136
304.197
304.188
304.14
304.057
303.998
303.939
303.935
303.901
303.963
304.041
304.213
304.348
304.643
299.011
297.712
295.979
295.07
293.807
292.808
297.328
295.717
294.455
294.249
293.849
293.552
297.428
296.088
295.135
295.224
295.093
295.215
297.374
296.128
295.555
296.217
296.756
297.302
298.322
297.3
297.03
297.96
299.096
300.023
299.407
298.765
298.95
300.237
301.711
302.856
300.891
300.692
301.389
302.88
304.372
305.549
302.301
302.613
303.7
305.26
306.586
307.618
303.695
304.453
305.829
307.172
308.148
308.901
304.913
306.061
307.372
308.341
308.961
309.349
306.048
307.161
308.12
308.791
308.961
309.383
306.726
307.682
308.23
308.567
308.647
308.869
307.166
307.817
307.721
307.607
307.498
307.468
306.443
306.781
306.286
306.021
305.581
305.052
297.008
295.377
293.351
292.444
291.361
290.634
295.353
293.314
291.631
291.328
291.043
291.031
295.646
293.85
292.485
292.385
292.422
292.793
295.82
294.021
293.031
293.403
294.199
295.134
296.872
295.272
294.615
295.368
296.821
298.158
298.291
296.999
296.724
297.847
299.817
301.406
299.959
299.252
299.485
300.88
303.074
304.593
301.502
301.481
302.243
303.807
305.837
307.132
302.808
303.318
304.503
306.017
307.64
308.658
303.938
304.928
306.275
307.615
308.686
309.267
304.952
305.957
307.021
307.985
308.689
309.125
305.629
306.581
307.414
308.082
308.272
308.401
306.096
306.768
307.022
307.09
306.789
306.689
305.576
306.047
305.634
305.23
304.489
304.021
297.488
295.411
292.569
291.162
290.156
289.861
296.13
293.557
290.855
289.729
289.278
289.622
296.543
294
291.551
290.525
290.339
290.957
297.018
294.451
292.269
291.551
291.842
292.928
298.042
295.703
293.951
293.629
294.346
295.882
299.205
297.354
296.138
296.175
297.36
299.322
300.467
299.35
298.817
299.276
300.782
302.92
301.654
301.326
301.415
302.282
303.946
306.016
302.627
302.855
303.437
304.603
306.175
307.987
303.471
304.106
304.97
306.21
307.513
308.932
304.181
304.91
305.718
306.747
307.779
309.007
304.654
305.385
306.097
307.017
307.732
308.567
305.069
305.621
306.027
306.465
306.637
306.927
304.88
305.214
305.004
304.872
304.494
304.268
299.686
297.89
294.623
292.301
290.587
289.807
298.577
296.082
292.718
290.406
288.98
288.614
298.819
296.22
292.964
290.67
289.337
289.184
299.182
296.651
293.594
291.417
290.421
290.746
299.8
297.581
295.027
293.254
292.698
293.41
300.553
298.798
296.931
295.768
295.714
296.753
301.355
300.239
299.197
298.735
299.167
300.421
302.132
301.695
301.396
301.499
302.3
303.702
302.78
302.846
303.069
303.611
304.666
306.022
303.356
303.75
304.291
305.107
306.215
307.414
303.854
304.36
304.975
305.837
306.828
307.87
304.184
304.751
305.351
306.244
307.127
308.001
304.53
305.039
305.576
306.257
306.697
307.04
304.527
304.92
305.073
305.279
305.111
304.897
301.789
300.766
298.229
295.562
293.124
291.621
301.059
299.284
296.34
293.468
290.973
289.574
301.152
299.216
296.279
293.309
290.751
289.333
301.285
299.411
296.681
293.778
291.419
290.365
301.525
299.942
297.649
295.164
293.266
292.748
301.91
300.686
298.993
297.229
296.025
296.035
302.343
301.598
300.603
299.652
299.228
299.625
302.785
302.481
302.097
301.839
301.965
302.659
303.168
303.22
303.312
303.526
304.063
304.948
303.55
303.829
304.195
304.726
305.463
306.403
303.906
304.286
304.746
305.393
306.164
307.091
304.15
304.611
305.102
305.8
306.539
307.411
304.399
304.844
305.334
305.995
306.555
307.061
304.471
304.858
305.124
305.502
305.579
305.543
303.283
302.99
301.553
299.61
297.162
295.172
302.855
301.998
300.04
297.552
294.714
292.537
302.858
301.8
299.783
297.178
294.196
291.832
302.798
301.758
299.886
297.381
294.535
292.322
302.853
301.922
300.37
298.175
295.825
294.116
302.974
302.309
301.119
299.535
297.919
296.934
303.177
302.807
302.119
301.219
300.409
300.124
303.389
303.274
303.015
302.694
302.541
302.717
303.609
303.695
303.786
303.889
304.173
304.688
303.846
304.076
304.372
304.754
305.277
305.977
304.093
304.402
304.777
305.285
305.898
306.682
304.274
304.656
305.072
305.648
306.263
307.032
304.436
304.83
305.256
305.832
306.395
307.009
304.542
304.944
305.26
305.647
305.887
306.077
304.201
304.37
303.839
302.885
301.316
299.641
303.873
303.689
302.836
301.378
299.201
296.952
303.827
303.456
302.456
300.765
298.411
295.948
303.734
303.323
302.368
300.707
298.468
296.007
303.703
303.334
302.473
301.027
299.116
297.134
303.728
303.466
302.814
301.745
300.391
299.105
303.83
303.707
303.364
302.772
302.041
301.438
303.936
303.942
303.862
303.676
303.5
303.458
304.08
304.191
304.321
304.448
304.65
304.97
304.23
304.433
304.699
305.025
305.438
305.972
304.402
304.664
304.984
305.407
305.907
306.552
304.548
304.856
305.206
305.694
306.222
306.882
304.643
304.975
305.335
305.828