/*--------------------------------*- C++ -*----------------------------------*\
| =========                 |                                                 |
| \\      /  F ield         | OpenFOAM: The Open Source CFD Toolbox           |
|  \\    /   O peration     | Version:  v2106                                 |
|   \\  /    A nd           | Website:  www.openfoam.com                      |
|    \\/     M anipulation  |                                                 |
\*---------------------------------------------------------------------------*/
FoamFile
{
    version     2.0;
    format      ascii;
    arch        "LSB;label=32;scalar=64";
    class       volScalarField;
    location    "0.000173";
    object      alphat;
}
// * * * * * * * * * * * * * * * * * * * * * * * * * * * * * * * * * * * * * //

dimensions      [1 -1 -1 0 0 0 0];

internalField   nonuniform List<scalar> 
17920
(
9.35525e-17
9.35513e-17
9.35529e-17
9.3552e-17
9.35533e-17
9.35524e-17
9.35536e-17
9.35526e-17
9.35537e-17
9.35527e-17
9.35536e-17
9.35526e-17
9.35534e-17
9.35523e-17
9.35529e-17
9.35519e-17
9.35523e-17
9.35513e-17
9.35515e-17
9.35506e-17
9.35506e-17
9.35497e-17
9.35496e-17
9.35488e-17
9.35485e-17
9.35477e-17
9.35475e-17
9.35465e-17
9.33372e-17
9.33373e-17
9.33373e-17
9.33373e-17
9.33374e-17
9.33374e-17
9.33374e-17
9.33374e-17
9.33373e-17
9.33372e-17
9.33371e-17
9.33369e-17
9.33368e-17
9.33367e-17
9.33369e-17
9.3337e-17
9.33371e-17
9.33372e-17
9.33373e-17
9.33373e-17
9.33373e-17
9.33373e-17
9.33372e-17
9.33371e-17
9.3337e-17
9.33368e-17
9.33366e-17
9.33367e-17
9.33367e-17
9.33368e-17
9.33369e-17
9.3337e-17
9.33371e-17
9.33371e-17
9.33371e-17
9.33371e-17
9.33371e-17
9.3337e-17
9.33369e-17
9.33368e-17
9.33366e-17
9.33365e-17
9.33365e-17
9.33366e-17
9.33367e-17
9.33368e-17
9.33369e-17
9.3337e-17
9.3337e-17
9.3337e-17
9.33369e-17
9.33369e-17
9.33368e-17
9.33367e-17
9.33366e-17
9.33365e-17
9.33363e-17
9.33365e-17
9.33366e-17
9.33367e-17
9.33368e-17
9.33368e-17
9.33369e-17
9.33368e-17
9.33368e-17
9.33367e-17
9.33367e-17
9.33366e-17
9.33365e-17
9.33364e-17
9.33362e-17
9.33363e-17
9.33364e-17
9.33365e-17
9.33366e-17
9.33367e-17
9.33367e-17
9.33367e-17
9.33367e-17
9.33366e-17
9.33365e-17
9.33364e-17
9.33364e-17
9.33363e-17
9.3336e-17
9.33362e-17
9.33362e-17
9.33364e-17
9.33365e-17
9.33365e-17
9.33365e-17
9.33365e-17
9.33365e-17
9.33365e-17
9.33364e-17
9.33363e-17
9.33363e-17
9.33361e-17
9.33358e-17
9.3336e-17
9.33361e-17
9.33362e-17
9.33363e-17
9.33363e-17
9.33364e-17
9.33363e-17
9.33363e-17
9.33363e-17
9.33362e-17
9.33361e-17
9.33361e-17
9.3336e-17
9.33357e-17
9.33358e-17
9.33359e-17
9.3336e-17
9.33361e-17
9.33361e-17
9.33361e-17
9.33361e-17
9.33361e-17
9.33361e-17
9.3336e-17
9.33359e-17
9.33359e-17
9.33358e-17
9.33355e-17
9.33357e-17
9.33358e-17
9.33358e-17
9.33359e-17
9.33359e-17
9.33359e-17
9.33359e-17
9.33359e-17
9.33358e-17
9.33358e-17
9.33357e-17
9.33357e-17
9.33357e-17
9.33354e-17
9.33355e-17
9.33356e-17
9.33356e-17
9.33357e-17
9.33357e-17
9.33357e-17
9.33357e-17
9.33356e-17
9.33356e-17
9.33355e-17
9.33355e-17
9.33355e-17
9.33355e-17
9.33353e-17
9.33353e-17
9.33354e-17
9.33354e-17
9.33355e-17
9.33355e-17
9.33354e-17
9.33354e-17
9.33354e-17
9.33353e-17
9.33353e-17
9.33352e-17
9.33352e-17
9.33353e-17
9.33353e-17
9.33351e-17
9.33352e-17
9.33353e-17
9.33353e-17
9.33353e-17
9.33352e-17
9.33352e-17
9.33351e-17
9.33351e-17
9.3335e-17
9.3335e-17
9.33349e-17
9.3335e-17
9.33352e-17
9.33351e-17
9.33351e-17
9.33351e-17
9.3335e-17
9.3335e-17
9.3335e-17
9.33349e-17
9.33348e-17
9.33348e-17
9.33347e-17
9.33347e-17
9.33348e-17
9.33349e-17
9.31432e-17
9.31423e-17
9.31416e-17
9.31411e-17
9.31408e-17
9.31405e-17
9.31404e-17
9.31404e-17
9.31405e-17
9.31408e-17
9.31411e-17
9.31416e-17
9.31421e-17
9.3143e-17
9.31422e-17
9.31414e-17
9.31408e-17
9.31404e-17
9.314e-17
9.31397e-17
9.31396e-17
9.31396e-17
9.31397e-17
9.31399e-17
9.31403e-17
9.31407e-17
9.31412e-17
9.3142e-17
9.31414e-17
9.31407e-17
9.31401e-17
9.31396e-17
9.31392e-17
9.31389e-17
9.31388e-17
9.31388e-17
9.31389e-17
9.31391e-17
9.31395e-17
9.314e-17
9.31406e-17
9.31412e-17
9.31408e-17
9.31401e-17
9.31394e-17
9.31389e-17
9.31385e-17
9.31383e-17
9.31381e-17
9.31381e-17
9.31383e-17
9.31385e-17
9.31389e-17
9.31394e-17
9.314e-17
9.31407e-17
9.31403e-17
9.31396e-17
9.31389e-17
9.31384e-17
9.3138e-17
9.31378e-17
9.31376e-17
9.31376e-17
9.31378e-17
9.3138e-17
9.31384e-17
9.31389e-17
9.31396e-17
9.31403e-17
9.31399e-17
9.31392e-17
9.31386e-17
9.31381e-17
9.31377e-17
9.31374e-17
9.31373e-17
9.31373e-17
9.31374e-17
9.31377e-17
9.31381e-17
9.31386e-17
9.31393e-17
9.314e-17
9.31396e-17
9.3139e-17
9.31383e-17
9.31378e-17
9.31374e-17
9.31372e-17
9.3137e-17
9.3137e-17
9.31372e-17
9.31375e-17
9.31379e-17
9.31384e-17
9.31391e-17
9.31399e-17
9.31396e-17
9.31389e-17
9.31383e-17
9.31378e-17
9.31374e-17
9.31371e-17
9.3137e-17
9.3137e-17
9.31371e-17
9.31374e-17
9.31378e-17
9.31384e-17
9.31391e-17
9.31399e-17
9.31397e-17
9.3139e-17
9.31384e-17
9.31379e-17
9.31375e-17
9.31372e-17
9.3137e-17
9.3137e-17
9.31372e-17
9.31375e-17
9.31379e-17
9.31385e-17
9.31392e-17
9.314e-17
9.31399e-17
9.31393e-17
9.31386e-17
9.31381e-17
9.31377e-17
9.31374e-17
9.31373e-17
9.31372e-17
9.31374e-17
9.31377e-17
9.31381e-17
9.31387e-17
9.31394e-17
9.31402e-17
9.31403e-17
9.31397e-17
9.3139e-17
9.31385e-17
9.31381e-17
9.31378e-17
9.31376e-17
9.31376e-17
9.31377e-17
9.3138e-17
9.31384e-17
9.3139e-17
9.31397e-17
9.31405e-17
9.31409e-17
9.31402e-17
9.31395e-17
9.3139e-17
9.31385e-17
9.31382e-17
9.31381e-17
9.3138e-17
9.31382e-17
9.31384e-17
9.31388e-17
9.31394e-17
9.31401e-17
9.31409e-17
9.31416e-17
9.31408e-17
9.31402e-17
9.31396e-17
9.31392e-17
9.31389e-17
9.31387e-17
9.31386e-17
9.31387e-17
9.3139e-17
9.31394e-17
9.31399e-17
9.31406e-17
9.31414e-17
9.31425e-17
9.31416e-17
9.31409e-17
9.31403e-17
9.31399e-17
9.31395e-17
9.31393e-17
9.31392e-17
9.31393e-17
9.31395e-17
9.31399e-17
9.31405e-17
9.31412e-17
9.31422e-17
9.2969e-17
9.29675e-17
9.29664e-17
9.29656e-17
9.2965e-17
9.29645e-17
9.29643e-17
9.29643e-17
9.29645e-17
9.29649e-17
9.29654e-17
9.29662e-17
9.29671e-17
9.29683e-17
9.29676e-17
9.29663e-17
9.29653e-17
9.29644e-17
9.29638e-17
9.29633e-17
9.2963e-17
9.2963e-17
9.29632e-17
9.29636e-17
9.29641e-17
9.29649e-17
9.29657e-17
9.29668e-17
9.29665e-17
9.29653e-17
9.29642e-17
9.29633e-17
9.29626e-17
9.29621e-17
9.29618e-17
9.29618e-17
9.2962e-17
9.29624e-17
9.29629e-17
9.29637e-17
9.29647e-17
9.29656e-17
9.29656e-17
9.29644e-17
9.29633e-17
9.29624e-17
9.29617e-17
9.29612e-17
9.29609e-17
9.29608e-17
9.2961e-17
9.29614e-17
9.2962e-17
9.29628e-17
9.29638e-17
9.29647e-17
9.29649e-17
9.29637e-17
9.29625e-17
9.29616e-17
9.29609e-17
9.29604e-17
9.29601e-17
9.29601e-17
9.29602e-17
9.29606e-17
9.29613e-17
9.2962e-17
9.29631e-17
9.29641e-17
9.29643e-17
9.29631e-17
9.2962e-17
9.29611e-17
9.29604e-17
9.29599e-17
9.29596e-17
9.29595e-17
9.29597e-17
9.29601e-17
9.29607e-17
9.29616e-17
9.29626e-17
9.29637e-17
9.2964e-17
9.29628e-17
9.29617e-17
9.29608e-17
9.296e-17
9.29595e-17
9.29593e-17
9.29592e-17
9.29594e-17
9.29598e-17
9.29604e-17
9.29613e-17
9.29623e-17
9.29635e-17
9.29639e-17
9.29627e-17
9.29616e-17
9.29607e-17
9.296e-17
9.29595e-17
9.29592e-17
9.29591e-17
9.29593e-17
9.29597e-17
9.29604e-17
9.29612e-17
9.29623e-17
9.29635e-17
9.2964e-17
9.29628e-17
9.29617e-17
9.29608e-17
9.29601e-17
9.29596e-17
9.29594e-17
9.29593e-17
9.29595e-17
9.29599e-17
9.29606e-17
9.29614e-17
9.29625e-17
9.29637e-17
9.29643e-17
9.29632e-17
9.29621e-17
9.29612e-17
9.29605e-17
9.296e-17
9.29597e-17
9.29597e-17
9.29599e-17
9.29603e-17
9.29609e-17
9.29618e-17
9.29629e-17
9.29641e-17
9.29649e-17
9.29638e-17
9.29627e-17
9.29619e-17
9.29612e-17
9.29607e-17
9.29604e-17
9.29603e-17
9.29605e-17
9.29609e-17
9.29615e-17
9.29624e-17
9.29635e-17
9.29646e-17
9.29657e-17
9.29646e-17
9.29635e-17
9.29627e-17
9.2962e-17
9.29615e-17
9.29612e-17
9.29611e-17
9.29613e-17
9.29617e-17
9.29623e-17
9.29631e-17
9.29642e-17
9.29653e-17
9.29668e-17
9.29656e-17
9.29646e-17
9.29638e-17
9.29631e-17
9.29625e-17
9.29622e-17
9.29621e-17
9.29623e-17
9.29627e-17
9.29632e-17
9.2964e-17
9.2965e-17
9.29662e-17
9.29682e-17
9.29668e-17
9.29657e-17
9.29649e-17
9.29642e-17
9.29637e-17
9.29633e-17
9.29632e-17
9.29633e-17
9.29636e-17
9.29642e-17
9.29649e-17
9.2966e-17
9.29674e-17
9.28113e-17
9.281e-17
9.28089e-17
9.28081e-17
9.28075e-17
9.28071e-17
9.28068e-17
9.28068e-17
9.2807e-17
9.28073e-17
9.28078e-17
9.28084e-17
9.28093e-17
9.28102e-17
9.28101e-17
9.2809e-17
9.28079e-17
9.28071e-17
9.28064e-17
9.28059e-17
9.28056e-17
9.28056e-17
9.28057e-17
9.28061e-17
9.28066e-17
9.28072e-17
9.2808e-17
9.28088e-17
9.28091e-17
9.2808e-17
9.28069e-17
9.2806e-17
9.28053e-17
9.28048e-17
9.28045e-17
9.28044e-17
9.28046e-17
9.28049e-17
9.28054e-17
9.28061e-17
9.28069e-17
9.28077e-17
9.28083e-17
9.28071e-17
9.2806e-17
9.28051e-17
9.28044e-17
9.28039e-17
9.28036e-17
9.28035e-17
9.28037e-17
9.2804e-17
9.28045e-17
9.28052e-17
9.28061e-17
9.28069e-17
9.28076e-17
9.28064e-17
9.28053e-17
9.28044e-17
9.28037e-17
9.28032e-17
9.28029e-17
9.28028e-17
9.28029e-17
9.28033e-17
9.28038e-17
9.28045e-17
9.28054e-17
9.28063e-17
9.28071e-17
9.28059e-17
9.28048e-17
9.28039e-17
9.28032e-17
9.28026e-17
9.28023e-17
9.28022e-17
9.28024e-17
9.28027e-17
9.28033e-17
9.2804e-17
9.28049e-17
9.28058e-17
9.28068e-17
9.28056e-17
9.28045e-17
9.28036e-17
9.28028e-17
9.28023e-17
9.2802e-17
9.28019e-17
9.28021e-17
9.28024e-17
9.2803e-17
9.28037e-17
9.28046e-17
9.28056e-17
9.28066e-17
9.28054e-17
9.28043e-17
9.28034e-17
9.28027e-17
9.28022e-17
9.28019e-17
9.28018e-17
9.28019e-17
9.28023e-17
9.28029e-17
9.28036e-17
9.28045e-17
9.28055e-17
9.28066e-17
9.28055e-17
9.28044e-17
9.28035e-17
9.28028e-17
9.28023e-17
9.2802e-17
9.28019e-17
9.28021e-17
9.28024e-17
9.2803e-17
9.28037e-17
9.28047e-17
9.28057e-17
9.28069e-17
9.28058e-17
9.28047e-17
9.28039e-17
9.28032e-17
9.28027e-17
9.28024e-17
9.28023e-17
9.28024e-17
9.28028e-17
9.28033e-17
9.2804e-17
9.2805e-17
9.2806e-17
9.28073e-17
9.28063e-17
9.28052e-17
9.28044e-17
9.28037e-17
9.28032e-17
9.28029e-17
9.28028e-17
9.28029e-17
9.28033e-17
9.28038e-17
9.28045e-17
9.28055e-17
9.28065e-17
9.28079e-17
9.2807e-17
9.28059e-17
9.28051e-17
9.28044e-17
9.28039e-17
9.28036e-17
9.28035e-17
9.28037e-17
9.2804e-17
9.28045e-17
9.28052e-17
9.28061e-17
9.28071e-17
9.28088e-17
9.28078e-17
9.28069e-17
9.28061e-17
9.28054e-17
9.28049e-17
9.28046e-17
9.28044e-17
9.28045e-17
9.28049e-17
9.28054e-17
9.2806e-17
9.28069e-17
9.28079e-17
9.28099e-17
9.28088e-17
9.28078e-17
9.2807e-17
9.28064e-17
9.28059e-17
9.28056e-17
9.28055e-17
9.28055e-17
9.28058e-17
9.28062e-17
9.28068e-17
9.28077e-17
9.28088e-17
9.26669e-17
9.26663e-17
9.26657e-17
9.26652e-17
9.26648e-17
9.26645e-17
9.26644e-17
9.26643e-17
9.26644e-17
9.26645e-17
9.26647e-17
9.2665e-17
9.26654e-17
9.26657e-17
9.26664e-17
9.26658e-17
9.26652e-17
9.26647e-17
9.26642e-17
9.26639e-17
9.26637e-17
9.26636e-17
9.26637e-17
9.26638e-17
9.26641e-17
9.26644e-17
9.26648e-17
9.2665e-17
9.26658e-17
9.26652e-17
9.26646e-17
9.2664e-17
9.26636e-17
9.26633e-17
9.26631e-17
9.2663e-17
9.26631e-17
9.26632e-17
9.26634e-17
9.26637e-17
9.26641e-17
9.26644e-17
9.26653e-17
9.26647e-17
9.26641e-17
9.26635e-17
9.26631e-17
9.26628e-17
9.26626e-17
9.26625e-17
9.26625e-17
9.26626e-17
9.26629e-17
9.26632e-17
9.26636e-17
9.26639e-17
9.26649e-17
9.26643e-17
9.26636e-17
9.26631e-17
9.26627e-17
9.26623e-17
9.26621e-17
9.2662e-17
9.26621e-17
9.26622e-17
9.26624e-17
9.26627e-17
9.26631e-17
9.26635e-17
9.26646e-17
9.26639e-17
9.26633e-17
9.26628e-17
9.26623e-17
9.2662e-17
9.26618e-17
9.26617e-17
9.26617e-17
9.26618e-17
9.26621e-17
9.26624e-17
9.26627e-17
9.26632e-17
9.26643e-17
9.26637e-17
9.26631e-17
9.26625e-17
9.26621e-17
9.26618e-17
9.26616e-17
9.26615e-17
9.26615e-17
9.26616e-17
9.26618e-17
9.26621e-17
9.26625e-17
9.2663e-17
9.26642e-17
9.26635e-17
9.26629e-17
9.26624e-17
9.2662e-17
9.26617e-17
9.26615e-17
9.26614e-17
9.26614e-17
9.26615e-17
9.26617e-17
9.2662e-17
9.26624e-17
9.26629e-17
9.26641e-17
9.26635e-17
9.26629e-17
9.26624e-17
9.2662e-17
9.26617e-17
9.26615e-17
9.26614e-17
9.26614e-17
9.26615e-17
9.26617e-17
9.2662e-17
9.26624e-17
9.26629e-17
9.26642e-17
9.26636e-17
9.2663e-17
9.26625e-17
9.26621e-17
9.26618e-17
9.26616e-17
9.26615e-17
9.26615e-17
9.26616e-17
9.26618e-17
9.26621e-17
9.26626e-17
9.2663e-17
9.26643e-17
9.26638e-17
9.26632e-17
9.26627e-17
9.26623e-17
9.2662e-17
9.26618e-17
9.26617e-17
9.26617e-17
9.26618e-17
9.2662e-17
9.26623e-17
9.26628e-17
9.26632e-17
9.26646e-17
9.26641e-17
9.26635e-17
9.2663e-17
9.26626e-17
9.26623e-17
9.26621e-17
9.2662e-17
9.2662e-17
9.26621e-17
9.26623e-17
9.26626e-17
9.26631e-17
9.26635e-17
9.2665e-17
9.26645e-17
9.26639e-17
9.26635e-17
9.2663e-17
9.26627e-17
9.26625e-17
9.26624e-17
9.26624e-17
9.26625e-17
9.26627e-17
9.2663e-17
9.26634e-17
9.26638e-17
9.26653e-17
9.26648e-17
9.26643e-17
9.26638e-17
9.26634e-17
9.26631e-17
9.26629e-17
9.26628e-17
9.26628e-17
9.26628e-17
9.2663e-17
9.26633e-17
9.26637e-17
9.26641e-17
9.25324e-17
9.25325e-17
9.25326e-17
9.25326e-17
9.25326e-17
9.25326e-17
9.25325e-17
9.25324e-17
9.25323e-17
9.25322e-17
9.2532e-17
9.25318e-17
9.25316e-17
9.25313e-17
9.25325e-17
9.25327e-17
9.25327e-17
9.25327e-17
9.25327e-17
9.25327e-17
9.25326e-17
9.25325e-17
9.25324e-17
9.25323e-17
9.25321e-17
9.25319e-17
9.25318e-17
9.25314e-17
9.25325e-17
9.25327e-17
9.25327e-17
9.25328e-17
9.25327e-17
9.25327e-17
9.25327e-17
9.25326e-17
9.25325e-17
9.25323e-17
9.25321e-17
9.25319e-17
9.25317e-17
9.25314e-17
9.25325e-17
9.25327e-17
9.25327e-17
9.25328e-17
9.25328e-17
9.25328e-17
9.25327e-17
9.25326e-17
9.25325e-17
9.25323e-17
9.25322e-17
9.25319e-17
9.25317e-17
9.25314e-17
9.25325e-17
9.25327e-17
9.25327e-17
9.25328e-17
9.25328e-17
9.25328e-17
9.25327e-17
9.25326e-17
9.25325e-17
9.25323e-17
9.25321e-17
9.25319e-17
9.25317e-17
9.25314e-17
9.25325e-17
9.25326e-17
9.25327e-17
9.25327e-17
9.25327e-17
9.25327e-17
9.25327e-17
9.25326e-17
9.25325e-17
9.25323e-17
9.25321e-17
9.25319e-17
9.25316e-17
9.25313e-17
9.25324e-17
9.25325e-17
9.25326e-17
9.25327e-17
9.25327e-17
9.25327e-17
9.25326e-17
9.25325e-17
9.25324e-17
9.25322e-17
9.2532e-17
9.25318e-17
9.25315e-17
9.25312e-17
9.25323e-17
9.25324e-17
9.25325e-17
9.25325e-17
9.25325e-17
9.25325e-17
9.25325e-17
9.25324e-17
9.25322e-17
9.25321e-17
9.25319e-17
9.25316e-17
9.25313e-17
9.2531e-17
9.25321e-17
9.25322e-17
9.25323e-17
9.25324e-17
9.25324e-17
9.25324e-17
9.25323e-17
9.25322e-17
9.25321e-17
9.25319e-17
9.25317e-17
9.25315e-17
9.25312e-17
9.25309e-17
9.2532e-17
9.25321e-17
9.25322e-17
9.25322e-17
9.25322e-17
9.25322e-17
9.25321e-17
9.2532e-17
9.25319e-17
9.25317e-17
9.25315e-17
9.25313e-17
9.2531e-17
9.25307e-17
9.25318e-17
9.25319e-17
9.25319e-17
9.2532e-17
9.2532e-17
9.2532e-17
9.25319e-17
9.25318e-17
9.25317e-17
9.25315e-17
9.25313e-17
9.25311e-17
9.25308e-17
9.25305e-17
9.25315e-17
9.25317e-17
9.25317e-17
9.25317e-17
9.25317e-17
9.25317e-17
9.25316e-17
9.25315e-17
9.25314e-17
9.25312e-17
9.25311e-17
9.25308e-17
9.25306e-17
9.25303e-17
9.25313e-17
9.25314e-17
9.25314e-17
9.25315e-17
9.25314e-17
9.25314e-17
9.25313e-17
9.25312e-17
9.25311e-17
9.25309e-17
9.25308e-17
9.25306e-17
9.25304e-17
9.25301e-17
9.25309e-17
9.2531e-17
9.2531e-17
9.25311e-17
9.25311e-17
9.2531e-17
9.2531e-17
9.25309e-17
9.25308e-17
9.25306e-17
9.25304e-17
9.25302e-17
9.253e-17
9.25297e-17
9.24041e-17
9.24049e-17
9.24056e-17
9.24061e-17
9.24065e-17
9.24067e-17
9.24067e-17
9.24066e-17
9.24063e-17
9.2406e-17
9.24054e-17
9.24048e-17
9.24041e-17
9.24033e-17
9.24048e-17
9.24056e-17
9.24062e-17
9.24068e-17
9.24072e-17
9.24074e-17
9.24075e-17
9.24074e-17
9.24071e-17
9.24067e-17
9.24062e-17
9.24055e-17
9.24048e-17
9.24039e-17
9.24053e-17
9.24062e-17
9.24068e-17
9.24074e-17
9.24078e-17
9.24081e-17
9.24081e-17
9.24081e-17
9.24078e-17
9.24074e-17
9.24069e-17
9.24062e-17
9.24054e-17
9.24046e-17
9.24058e-17
9.24066e-17
9.24073e-17
9.24079e-17
9.24083e-17
9.24086e-17
9.24087e-17
9.24086e-17
9.24083e-17
9.24079e-17
9.24074e-17
9.24067e-17
9.24059e-17
9.2405e-17
9.24061e-17
9.2407e-17
9.24077e-17
9.24083e-17
9.24087e-17
9.24089e-17
9.2409e-17
9.2409e-17
9.24087e-17
9.24083e-17
9.24077e-17
9.24071e-17
9.24062e-17
9.24053e-17
9.24064e-17
9.24072e-17
9.24079e-17
9.24085e-17
9.24089e-17
9.24092e-17
9.24093e-17
9.24092e-17
9.24089e-17
9.24085e-17
9.2408e-17
9.24073e-17
9.24064e-17
9.24055e-17
9.24064e-17
9.24073e-17
9.2408e-17
9.24085e-17
9.2409e-17
9.24092e-17
9.24093e-17
9.24092e-17
9.2409e-17
9.24086e-17
9.2408e-17
9.24073e-17
9.24064e-17
9.24055e-17
9.24064e-17
9.24072e-17
9.24079e-17
9.24084e-17
9.24088e-17
9.24091e-17
9.24092e-17
9.24091e-17
9.24089e-17
9.24084e-17
9.24079e-17
9.24072e-17
9.24063e-17
9.24053e-17
9.24061e-17
9.24069e-17
9.24076e-17
9.24082e-17
9.24086e-17
9.24088e-17
9.24089e-17
9.24088e-17
9.24086e-17
9.24082e-17
9.24076e-17
9.24069e-17
9.2406e-17
9.2405e-17
9.24058e-17
9.24065e-17
9.24072e-17
9.24077e-17
9.24081e-17
9.24084e-17
9.24085e-17
9.24084e-17
9.24081e-17
9.24077e-17
9.24071e-17
9.24064e-17
9.24055e-17
9.24046e-17
9.24052e-17
9.24059e-17
9.24066e-17
9.24071e-17
9.24075e-17
9.24077e-17
9.24078e-17
9.24078e-17
9.24075e-17
9.24071e-17
9.24065e-17
9.24058e-17
9.2405e-17
9.2404e-17
9.24046e-17
9.24052e-17
9.24058e-17
9.24064e-17
9.24067e-17
9.2407e-17
9.24071e-17
9.2407e-17
9.24068e-17
9.24064e-17
9.24058e-17
9.24051e-17
9.24043e-17
9.24034e-17
9.24037e-17
9.24044e-17
9.2405e-17
9.24055e-17
9.24058e-17
9.2406e-17
9.24061e-17
9.24061e-17
9.24058e-17
9.24055e-17
9.2405e-17
9.24043e-17
9.24035e-17
9.24026e-17
9.24027e-17
9.24034e-17
9.24039e-17
9.24044e-17
9.24048e-17
9.2405e-17
9.24051e-17
9.2405e-17
9.24048e-17
9.24045e-17
9.2404e-17
9.24034e-17
9.24026e-17
9.24018e-17
9.22791e-17
9.22802e-17
9.22813e-17
9.22821e-17
9.22826e-17
9.2283e-17
9.22831e-17
9.2283e-17
9.22827e-17
9.22821e-17
9.22814e-17
9.22805e-17
9.22795e-17
9.22784e-17
9.228e-17
9.22812e-17
9.22822e-17
9.22831e-17
9.22837e-17
9.22841e-17
9.22843e-17
9.22842e-17
9.22838e-17
9.22833e-17
9.22826e-17
9.22816e-17
9.22806e-17
9.22794e-17
9.22809e-17
9.22821e-17
9.22832e-17
9.22841e-17
9.22847e-17
9.22851e-17
9.22853e-17
9.22852e-17
9.22849e-17
9.22843e-17
9.22836e-17
9.22827e-17
9.22815e-17
9.22804e-17
9.22817e-17
9.22829e-17
9.22839e-17
9.22848e-17
9.22855e-17
9.22859e-17
9.22861e-17
9.2286e-17
9.22857e-17
9.22851e-17
9.22844e-17
9.22834e-17
9.22823e-17
9.22811e-17
9.22822e-17
9.22834e-17
9.22845e-17
9.22854e-17
9.2286e-17
9.22865e-17
9.22866e-17
9.22866e-17
9.22863e-17
9.22857e-17
9.2285e-17
9.2284e-17
9.22829e-17
9.22816e-17
9.22825e-17
9.22838e-17
9.22849e-17
9.22857e-17
9.22864e-17
9.22868e-17
9.2287e-17
9.22869e-17
9.22866e-17
9.22861e-17
9.22853e-17
9.22844e-17
9.22832e-17
9.22819e-17
9.22827e-17
9.22839e-17
9.2285e-17
9.22859e-17
9.22865e-17
9.22869e-17
9.22871e-17
9.22871e-17
9.22867e-17
9.22862e-17
9.22854e-17
9.22845e-17
9.22833e-17
9.22819e-17
9.22826e-17
9.22838e-17
9.22849e-17
9.22857e-17
9.22864e-17
9.22868e-17
9.2287e-17
9.22869e-17
9.22866e-17
9.22861e-17
9.22853e-17
9.22843e-17
9.22831e-17
9.22818e-17
9.22823e-17
9.22835e-17
9.22846e-17
9.22854e-17
9.2286e-17
9.22864e-17
9.22866e-17
9.22866e-17
9.22862e-17
9.22857e-17
9.22849e-17
9.2284e-17
9.22827e-17
9.22814e-17
9.22818e-17
9.22829e-17
9.2284e-17
9.22848e-17
9.22854e-17
9.22858e-17
9.2286e-17
9.2286e-17
9.22856e-17
9.22851e-17
9.22843e-17
9.22834e-17
9.22821e-17
9.22808e-17
9.22811e-17
9.22821e-17
9.22832e-17
9.2284e-17
9.22846e-17
9.2285e-17
9.22852e-17
9.22851e-17
9.22848e-17
9.22843e-17
9.22835e-17
9.22826e-17
9.22813e-17
9.22801e-17
9.22801e-17
9.22811e-17
9.22821e-17
9.22829e-17
9.22835e-17
9.22839e-17
9.22841e-17
9.22841e-17
9.22838e-17
9.22833e-17
9.22825e-17
9.22816e-17
9.22804e-17
9.22791e-17
9.22789e-17
9.22799e-17
9.22808e-17
9.22816e-17
9.22822e-17
9.22826e-17
9.22828e-17
9.22828e-17
9.22825e-17
9.2282e-17
9.22813e-17
9.22804e-17
9.22793e-17
9.2278e-17
9.22776e-17
9.22785e-17
9.22795e-17
9.22802e-17
9.22808e-17
9.22812e-17
9.22814e-17
9.22814e-17
9.22812e-17
9.22807e-17
9.22801e-17
9.22792e-17
9.22781e-17
9.22769e-17
9.21554e-17
9.21566e-17
9.21576e-17
9.21584e-17
9.2159e-17
9.21594e-17
9.21596e-17
9.21595e-17
9.21592e-17
9.21587e-17
9.2158e-17
9.2157e-17
9.2156e-17
9.21548e-17
9.21564e-17
9.21575e-17
9.21586e-17
9.21595e-17
9.21601e-17
9.21606e-17
9.21607e-17
9.21607e-17
9.21603e-17
9.21598e-17
9.21591e-17
9.21581e-17
9.2157e-17
9.21558e-17
9.21573e-17
9.21585e-17
9.21596e-17
9.21605e-17
9.21611e-17
9.21616e-17
9.21618e-17
9.21617e-17
9.21614e-17
9.21609e-17
9.21601e-17
9.21592e-17
9.2158e-17
9.21568e-17
9.21581e-17
9.21593e-17
9.21604e-17
9.21612e-17
9.21619e-17
9.21623e-17
9.21625e-17
9.21625e-17
9.21622e-17
9.21617e-17
9.21609e-17
9.216e-17
9.21588e-17
9.21576e-17
9.21586e-17
9.21598e-17
9.2161e-17
9.21618e-17
9.21625e-17
9.21629e-17
9.21631e-17
9.21631e-17
9.21628e-17
9.21622e-17
9.21615e-17
9.21605e-17
9.21594e-17
9.21581e-17
9.2159e-17
9.21602e-17
9.21613e-17
9.21622e-17
9.21629e-17
9.21633e-17
9.21635e-17
9.21634e-17
9.21631e-17
9.21626e-17
9.21618e-17
9.21609e-17
9.21597e-17
9.21584e-17
9.21591e-17
9.21604e-17
9.21614e-17
9.21623e-17
9.2163e-17
9.21634e-17
9.21636e-17
9.21636e-17
9.21632e-17
9.21627e-17
9.2162e-17
9.2161e-17
9.21598e-17
9.21585e-17
9.2159e-17
9.21602e-17
9.21613e-17
9.21622e-17
9.21628e-17
9.21633e-17
9.21635e-17
9.21634e-17
9.21631e-17
9.21626e-17
9.21618e-17
9.21608e-17
9.21596e-17
9.21583e-17
9.21587e-17
9.21599e-17
9.2161e-17
9.21618e-17
9.21624e-17
9.21629e-17
9.21631e-17
9.2163e-17
9.21627e-17
9.21622e-17
9.21614e-17
9.21605e-17
9.21593e-17
9.21579e-17
9.21582e-17
9.21593e-17
9.21604e-17
9.21612e-17
9.21618e-17
9.21623e-17
9.21625e-17
9.21624e-17
9.21621e-17
9.21616e-17
9.21608e-17
9.21599e-17
9.21587e-17
9.21573e-17
9.21574e-17
9.21585e-17
9.21595e-17
9.21603e-17
9.2161e-17
9.21614e-17
9.21616e-17
9.21616e-17
9.21613e-17
9.21608e-17
9.216e-17
9.21591e-17
9.21578e-17
9.21566e-17
9.21564e-17
9.21574e-17
9.21585e-17
9.21593e-17
9.21599e-17
9.21603e-17
9.21606e-17
9.21605e-17
9.21603e-17
9.21598e-17
9.2159e-17
9.21581e-17
9.21568e-17
9.21556e-17
9.21552e-17
9.21562e-17
9.21571e-17
9.2158e-17
9.21586e-17
9.21591e-17
9.21593e-17
9.21593e-17
9.2159e-17
9.21585e-17
9.21578e-17
9.21568e-17
9.21557e-17
9.21545e-17
9.21538e-17
9.21548e-17
9.21558e-17
9.21566e-17
9.21572e-17
9.21576e-17
9.21579e-17
9.21579e-17
9.21576e-17
9.21572e-17
9.21565e-17
9.21556e-17
9.21545e-17
9.21533e-17
9.20329e-17
9.20337e-17
9.20345e-17
9.20352e-17
9.20356e-17
9.20359e-17
9.2036e-17
9.2036e-17
9.20358e-17
9.20354e-17
9.20349e-17
9.20342e-17
9.20333e-17
9.20324e-17
9.20336e-17
9.20345e-17
9.20353e-17
9.2036e-17
9.20365e-17
9.20368e-17
9.20369e-17
9.20369e-17
9.20367e-17
9.20363e-17
9.20357e-17
9.20349e-17
9.20341e-17
9.20331e-17
9.20344e-17
9.20352e-17
9.20361e-17
9.20367e-17
9.20372e-17
9.20375e-17
9.20377e-17
9.20376e-17
9.20374e-17
9.2037e-17
9.20364e-17
9.20357e-17
9.20348e-17
9.20339e-17
9.20349e-17
9.20358e-17
9.20366e-17
9.20373e-17
9.20378e-17
9.20381e-17
9.20382e-17
9.20382e-17
9.2038e-17
9.20376e-17
9.2037e-17
9.20363e-17
9.20354e-17
9.20344e-17
9.20353e-17
9.20362e-17
9.2037e-17
9.20377e-17
9.20382e-17
9.20385e-17
9.20386e-17
9.20386e-17
9.20384e-17
9.2038e-17
9.20374e-17
9.20367e-17
9.20358e-17
9.20348e-17
9.20356e-17
9.20365e-17
9.20373e-17
9.20379e-17
9.20384e-17
9.20387e-17
9.20389e-17
9.20388e-17
9.20386e-17
9.20382e-17
9.20376e-17
9.20369e-17
9.2036e-17
9.2035e-17
9.20356e-17
9.20366e-17
9.20374e-17
9.2038e-17
9.20385e-17
9.20388e-17
9.20389e-17
9.20389e-17
9.20387e-17
9.20383e-17
9.20377e-17
9.2037e-17
9.20361e-17
9.20351e-17
9.20355e-17
9.20364e-17
9.20372e-17
9.20379e-17
9.20383e-17
9.20386e-17
9.20388e-17
9.20387e-17
9.20385e-17
9.20381e-17
9.20376e-17
9.20368e-17
9.2036e-17
9.20349e-17
9.20352e-17
9.20361e-17
9.20369e-17
9.20375e-17
9.2038e-17
9.20383e-17
9.20385e-17
9.20384e-17
9.20382e-17
9.20378e-17
9.20372e-17
9.20365e-17
9.20356e-17
9.20346e-17
9.20348e-17
9.20356e-17
9.20364e-17
9.20371e-17
9.20375e-17
9.20379e-17
9.2038e-17
9.2038e-17
9.20377e-17
9.20374e-17
9.20368e-17
9.20361e-17
9.20352e-17
9.20342e-17
9.20342e-17
9.2035e-17
9.20358e-17
9.20364e-17
9.20369e-17
9.20372e-17
9.20374e-17
9.20373e-17
9.20371e-17
9.20367e-17
9.20361e-17
9.20354e-17
9.20345e-17
9.20336e-17
9.20334e-17
9.20342e-17
9.2035e-17
9.20356e-17
9.20361e-17
9.20364e-17
9.20365e-17
9.20365e-17
9.20363e-17
9.20359e-17
9.20354e-17
9.20346e-17
9.20337e-17
9.20328e-17
9.20324e-17
9.20332e-17
9.2034e-17
9.20346e-17
9.20351e-17
9.20354e-17
9.20356e-17
9.20356e-17
9.20354e-17
9.2035e-17
9.20344e-17
9.20337e-17
9.20328e-17
9.20319e-17
9.20314e-17
9.20321e-17
9.20329e-17
9.20335e-17
9.2034e-17
9.20343e-17
9.20345e-17
9.20345e-17
9.20343e-17
9.2034e-17
9.20334e-17
9.20327e-17
9.20319e-17
9.2031e-17
9.19129e-17
9.19134e-17
9.19137e-17
9.1914e-17
9.19142e-17
9.19143e-17
9.19144e-17
9.19144e-17
9.19143e-17
9.19142e-17
9.19139e-17
9.19136e-17
9.19131e-17
9.19126e-17
9.19134e-17
9.19137e-17
9.19141e-17
9.19144e-17
9.19146e-17
9.19147e-17
9.19148e-17
9.19148e-17
9.19147e-17
9.19145e-17
9.19142e-17
9.19139e-17
9.19134e-17
9.19129e-17
9.19137e-17
9.19141e-17
9.19144e-17
9.19147e-17
9.19149e-17
9.19151e-17
9.19151e-17
9.19151e-17
9.1915e-17
9.19148e-17
9.19145e-17
9.19142e-17
9.19137e-17
9.19132e-17
9.19139e-17
9.19143e-17
9.19147e-17
9.19149e-17
9.19152e-17
9.19153e-17
9.19154e-17
9.19153e-17
9.19152e-17
9.1915e-17
9.19147e-17
9.19144e-17
9.1914e-17
9.19135e-17
9.19141e-17
9.19145e-17
9.19148e-17
9.19151e-17
9.19153e-17
9.19155e-17
9.19155e-17
9.19155e-17
9.19154e-17
9.19152e-17
9.19149e-17
9.19146e-17
9.19141e-17
9.19136e-17
9.19142e-17
9.19146e-17
9.19149e-17
9.19152e-17
9.19154e-17
9.19155e-17
9.19156e-17
9.19155e-17
9.19154e-17
9.19152e-17
9.1915e-17
9.19146e-17
9.19142e-17
9.19137e-17
9.19141e-17
9.19146e-17
9.19149e-17
9.19152e-17
9.19154e-17
9.19155e-17
9.19156e-17
9.19155e-17
9.19154e-17
9.19152e-17
9.1915e-17
9.19146e-17
9.19142e-17
9.19137e-17
9.1914e-17
9.19145e-17
9.19148e-17
9.19151e-17
9.19153e-17
9.19154e-17
9.19155e-17
9.19154e-17
9.19153e-17
9.19151e-17
9.19149e-17
9.19145e-17
9.19141e-17
9.19136e-17
9.19138e-17
9.19143e-17
9.19146e-17
9.19149e-17
9.19151e-17
9.19152e-17
9.19153e-17
9.19153e-17
9.19151e-17
9.1915e-17
9.19147e-17
9.19143e-17
9.19139e-17
9.19135e-17
9.19136e-17
9.1914e-17
9.19144e-17
9.19146e-17
9.19149e-17
9.1915e-17
9.1915e-17
9.1915e-17
9.19149e-17
9.19147e-17
9.19144e-17
9.19141e-17
9.19137e-17
9.19132e-17
9.19132e-17
9.19136e-17
9.1914e-17
9.19143e-17
9.19145e-17
9.19147e-17
9.19147e-17
9.19147e-17
9.19146e-17
9.19144e-17
9.19141e-17
9.19138e-17
9.19133e-17
9.19129e-17
9.19128e-17
9.19132e-17
9.19136e-17
9.19139e-17
9.19141e-17
9.19143e-17
9.19143e-17
9.19143e-17
9.19142e-17
9.1914e-17
9.19137e-17
9.19134e-17
9.19129e-17
9.19125e-17
9.19124e-17
9.19127e-17
9.19131e-17
9.19134e-17
9.19137e-17
9.19138e-17
9.19139e-17
9.19138e-17
9.19137e-17
9.19135e-17
9.19132e-17
9.19129e-17
9.19125e-17
9.1912e-17
9.19118e-17
9.19123e-17
9.19126e-17
9.19129e-17
9.19132e-17
9.19133e-17
9.19133e-17
9.19133e-17
9.19132e-17
9.1913e-17
9.19127e-17
9.19124e-17
9.1912e-17
9.19115e-17
9.17981e-17
9.17979e-17
9.17978e-17
9.17977e-17
9.17977e-17
9.17977e-17
9.17977e-17
9.17977e-17
9.17977e-17
9.17978e-17
9.17978e-17
9.17979e-17
9.17979e-17
9.17979e-17
9.1798e-17
9.17979e-17
9.17978e-17
9.17977e-17
9.17977e-17
9.17977e-17
9.17976e-17
9.17977e-17
9.17977e-17
9.17977e-17
9.17977e-17
9.17977e-17
9.17977e-17
9.17978e-17
9.17979e-17
9.17978e-17
9.17977e-17
9.17976e-17
9.17976e-17
9.17976e-17
9.17975e-17
9.17975e-17
9.17976e-17
9.17976e-17
9.17976e-17
9.17976e-17
9.17976e-17
9.17976e-17
9.17979e-17
9.17978e-17
9.17977e-17
9.17976e-17
9.17975e-17
9.17975e-17
9.17975e-17
9.17975e-17
9.17975e-17
9.17975e-17
9.17975e-17
9.17975e-17
9.17976e-17
9.17975e-17
9.17978e-17
9.17977e-17
9.17976e-17
9.17975e-17
9.17975e-17
9.17974e-17
9.17974e-17
9.17974e-17
9.17974e-17
9.17974e-17
9.17974e-17
9.17975e-17
9.17975e-17
9.17975e-17
9.17977e-17
9.17976e-17
9.17975e-17
9.17975e-17
9.17974e-17
9.17974e-17
9.17973e-17
9.17973e-17
9.17973e-17
9.17973e-17
9.17974e-17
9.17974e-17
9.17975e-17
9.17975e-17
9.17976e-17
9.17976e-17
9.17975e-17
9.17974e-17
9.17973e-17
9.17973e-17
9.17973e-17
9.17973e-17
9.17973e-17
9.17973e-17
9.17973e-17
9.17974e-17
9.17974e-17
9.17974e-17
9.17975e-17
9.17975e-17
9.17974e-17
9.17974e-17
9.17973e-17
9.17973e-17
9.17972e-17
9.17972e-17
9.17972e-17
9.17973e-17
9.17973e-17
9.17973e-17
9.17974e-17
9.17974e-17
9.17975e-17
9.17975e-17
9.17974e-17
9.17974e-17
9.17973e-17
9.17973e-17
9.17972e-17
9.17972e-17
9.17972e-17
9.17972e-17
9.17973e-17
9.17973e-17
9.17974e-17
9.17974e-17
9.17975e-17
9.17975e-17
9.17974e-17
9.17973e-17
9.17973e-17
9.17973e-17
9.17972e-17
9.17972e-17
9.17972e-17
9.17972e-17
9.17973e-17
9.17973e-17
9.17974e-17
9.17974e-17
9.17974e-17
9.17974e-17
9.17974e-17
9.17974e-17
9.17973e-17
9.17973e-17
9.17972e-17
9.17972e-17
9.17972e-17
9.17972e-17
9.17973e-17
9.17973e-17
9.17974e-17
9.17975e-17
9.17975e-17
9.17974e-17
9.17974e-17
9.17974e-17
9.17973e-17
9.17973e-17
9.17973e-17
9.17973e-17
9.17972e-17
9.17973e-17
9.17973e-17
9.17973e-17
9.17974e-17
9.17975e-17
9.17975e-17
9.17975e-17
9.17975e-17
9.17974e-17
9.17974e-17
9.17974e-17
9.17973e-17
9.17973e-17
9.17973e-17
9.17973e-17
9.17973e-17
9.17973e-17
9.17974e-17
9.17975e-17
9.17976e-17
9.17976e-17
9.17976e-17
9.17975e-17
9.17975e-17
9.17974e-17
9.17974e-17
9.17973e-17
9.17973e-17
9.17973e-17
9.17973e-17
9.17973e-17
9.17974e-17
9.17975e-17
9.16904e-17
9.16898e-17
9.16895e-17
9.16892e-17
9.1689e-17
9.16889e-17
9.16888e-17
9.16889e-17
9.1689e-17
9.16892e-17
9.16894e-17
9.16897e-17
9.16901e-17
9.16905e-17
9.169e-17
9.16895e-17
9.16892e-17
9.16889e-17
9.16887e-17
9.16886e-17
9.16885e-17
9.16885e-17
9.16886e-17
9.16888e-17
9.16891e-17
9.16893e-17
9.16897e-17
9.169e-17
9.16896e-17
9.16892e-17
9.16889e-17
9.16886e-17
9.16884e-17
9.16882e-17
9.16882e-17
9.16882e-17
9.16883e-17
9.16885e-17
9.16887e-17
9.1689e-17
9.16893e-17
9.16897e-17
9.16894e-17
9.1689e-17
9.16886e-17
9.16884e-17
9.16881e-17
9.1688e-17
9.16879e-17
9.1688e-17
9.16881e-17
9.16882e-17
9.16885e-17
9.16887e-17
9.16891e-17
9.16894e-17
9.16892e-17
9.16888e-17
9.16884e-17
9.16882e-17
9.1688e-17
9.16878e-17
9.16878e-17
9.16878e-17