/*--------------------------------*- C++ -*----------------------------------*\
| =========                 |                                                 |
| \\      /  F ield         | OpenFOAM: The Open Source CFD Toolbox           |
|  \\    /   O peration     | Version:  v2106                                 |
|   \\  /    A nd           | Website:  www.openfoam.com                      |
|    \\/     M anipulation  |                                                 |
\*---------------------------------------------------------------------------*/
FoamFile
{
    version     2.0;
    format      ascii;
    arch        "LSB;label=32;scalar=64";
    class       volScalarField;
    location    "0.000209";
    object      nut;
}
// * * * * * * * * * * * * * * * * * * * * * * * * * * * * * * * * * * * * * //

dimensions      [0 2 -1 0 0 0 0];

internalField   nonuniform List<scalar> 
144746
(
3.30271e-05
2.59488e-05
2.09516e-05
1.82637e-05
1.83838e-05
2.07155e-05
2.45452e-05
2.8682e-05
3.22012e-05
3.49822e-05
3.66152e-05
3.86123e-05
4.23951e-05
4.71837e-05
2.52156e-05
1.87924e-05
1.41639e-05
1.1081e-05
9.93196e-06
1.04338e-05
1.24833e-05
1.56302e-05
1.92951e-05
2.27534e-05
2.641e-05
2.92395e-05
3.25376e-05
3.83259e-05
1.97862e-05
1.44578e-05
1.03977e-05
7.5198e-06
6.05145e-06
5.68146e-06
6.46234e-06
8.32476e-06
1.10451e-05
1.42067e-05
1.74908e-05
2.13063e-05
2.39148e-05
2.95201e-05
1.61344e-05
1.12601e-05
7.77805e-06
5.31617e-06
3.90955e-06
3.30381e-06
3.4742e-06
4.47105e-06
6.29533e-06
8.74793e-06
1.14389e-05
1.38473e-05
1.66153e-05
2.18184e-05
1.29288e-05
8.59962e-06
5.56814e-06
3.58095e-06
2.44878e-06
1.91372e-06
1.88004e-06
2.39919e-06
3.57346e-06
5.36967e-06
7.53042e-06
9.64592e-06
1.19314e-05
1.62596e-05
1.00364e-05
6.15209e-06
3.66918e-06
2.19735e-06
1.40716e-06
1.03992e-06
9.84644e-07
1.27441e-06
2.03319e-06
3.32268e-06
5.02651e-06
6.88321e-06
8.88281e-06
1.28368e-05
7.38509e-06
4.05576e-06
2.18961e-06
1.20964e-06
7.27849e-07
5.18188e-07
4.93485e-07
6.80981e-07
1.19349e-06
2.13224e-06
3.47943e-06
5.10909e-06
7.08555e-06
1.12721e-05
5.18536e-06
2.51308e-06
1.20808e-06
6.06836e-07
3.42315e-07
2.40656e-07
2.4786e-07
3.9301e-07
7.71535e-07
1.49101e-06
2.59137e-06
4.04795e-06
6.106e-06
1.0914e-05
3.71066e-06
1.60693e-06
6.85106e-07
3.07944e-07
1.61971e-07
1.18329e-07
1.4655e-07
2.77805e-07
5.92861e-07
1.19291e-06
2.14981e-06
3.541e-06
5.88721e-06
1.15524e-05
3.14579e-06
1.30811e-06
5.25278e-07
2.22281e-07
1.15625e-07
9.32346e-08
1.32469e-07
2.64093e-07
5.60668e-07
1.12001e-06
2.04778e-06
3.56515e-06
6.53863e-06
1.29722e-05
3.58537e-06
1.62013e-06
6.97008e-07
3.17689e-07
1.82188e-07
1.52185e-07
1.94761e-07
3.37136e-07
6.50813e-07
1.24592e-06
2.29405e-06
4.24358e-06
8.09326e-06
1.49372e-05
5.36575e-06
2.92347e-06
1.49706e-06
7.50819e-07
4.38201e-07
3.4502e-07
3.77473e-07
5.41516e-07
9.11018e-07
1.63259e-06
2.9998e-06
5.6871e-06
1.05673e-05
1.75059e-05
8.53804e-06
5.51479e-06
3.38744e-06
1.95172e-06
1.15887e-06
8.36579e-07
8.02849e-07
9.89259e-07
1.45201e-06
2.38034e-06
4.18819e-06
7.70118e-06
1.34359e-05
2.03604e-05
1.24831e-05
8.99521e-06
6.41373e-06
4.37935e-06
2.90421e-06
2.05672e-06
1.76358e-06
1.89868e-06
2.4479e-06
3.59144e-06
5.7386e-06
9.86238e-06
1.60247e-05
2.26729e-05
2.87496e-05
2.11965e-05
1.63152e-05
1.34693e-05
1.26388e-05
1.31659e-05
1.46852e-05
1.65082e-05
1.82744e-05
1.97677e-05
2.23083e-05
2.61281e-05
3.27342e-05
3.99553e-05
1.90855e-05
1.36977e-05
1.02593e-05
8.11405e-06
7.16913e-06
7.16176e-06
7.99458e-06
9.38788e-06
1.11302e-05
1.29151e-05
1.49321e-05
1.81743e-05
2.31015e-05
3.00185e-05
1.24973e-05
9.05313e-06
6.7761e-06
5.18454e-06
4.30609e-06
4.03829e-06
4.37647e-06
5.25898e-06
6.6213e-06
8.29071e-06
1.02348e-05
1.25788e-05
1.61605e-05
2.14367e-05
8.90795e-06
6.38022e-06
4.621e-06
3.39183e-06
2.65217e-06
2.32617e-06
2.40726e-06
2.9093e-06
3.86267e-06
5.21915e-06
6.89417e-06
8.7888e-06
1.10378e-05
1.52131e-05
6.81809e-06
4.60041e-06
3.12997e-06
2.16378e-06
1.59154e-06
1.31511e-06
1.3016e-06
1.57478e-06
2.21018e-06
3.23657e-06
4.5999e-06
6.21565e-06
8.08852e-06
1.12097e-05
5.31116e-06
3.25856e-06
2.02792e-06
1.29693e-06
8.92513e-07
6.99563e-07
6.71911e-07
8.27476e-07
1.24632e-06
1.99717e-06
3.07857e-06
4.44323e-06
6.0944e-06
8.62151e-06
4.06284e-06
2.21816e-06
1.23309e-06
7.16379e-07
4.57821e-07
3.42405e-07
3.27201e-07
4.26571e-07
7.11292e-07
1.26107e-06
2.11338e-06
3.27e-06
4.76674e-06
7.13912e-06
3.09085e-06
1.48612e-06
7.20558e-07
3.69766e-07
2.15486e-07
1.54778e-07
1.54797e-07
2.29674e-07
4.38104e-07
8.58159e-07
1.54989e-06
2.55018e-06
3.95665e-06
6.38805e-06
2.48241e-06
1.06592e-06
4.47724e-07
1.96236e-07
1.00354e-07
7.01531e-08
8.09931e-08
1.47719e-07
3.19951e-07
6.69863e-07
1.26886e-06
2.18692e-06
3.59653e-06
6.22967e-06
2.33833e-06
9.54087e-07
3.68055e-07
1.42733e-07
6.48013e-08
4.58496e-08
6.27572e-08
1.30233e-07
2.936e-07
6.21972e-07
1.19643e-06
2.12517e-06
3.67707e-06
6.60505e-06
2.70152e-06
1.14855e-06
4.60371e-07
1.86462e-07
9.09257e-08
6.78971e-08
8.725e-08
1.6221e-07
3.38234e-07
6.88528e-07
1.31229e-06
2.37474e-06
4.20549e-06
7.46891e-06
3.85752e-06
1.85492e-06
8.55985e-07
3.94562e-07
2.12626e-07
1.59359e-07
1.75597e-07
2.65644e-07
4.77343e-07
8.9765e-07
1.66175e-06
2.9979e-06
5.21286e-06
9.00406e-06
5.91609e-06
3.25201e-06
1.77297e-06
9.53545e-07
5.52714e-07
4.02865e-07
3.96873e-07
5.08385e-07
7.8068e-07
1.31969e-06
2.3126e-06
4.0712e-06
7.10019e-06
1.15047e-05
8.6879e-06
5.25481e-06
3.30176e-06
2.08704e-06
1.34667e-06
9.82526e-07
8.96367e-07
1.0209e-06
1.37326e-06
2.06674e-06
3.32892e-06
5.65365e-06
9.76478e-06
1.48159e-05
2.25471e-05
1.60653e-05
1.18896e-05
9.39165e-06
8.28155e-06
8.06203e-06
8.51191e-06
9.28376e-06
1.03497e-05
1.13998e-05
1.24353e-05
1.38203e-05
1.86411e-05
2.74833e-05
1.22887e-05
8.95219e-06
6.66145e-06
5.22468e-06
4.51676e-06
4.33743e-06
4.59756e-06
5.14651e-06
5.97079e-06
6.91957e-06
8.02146e-06
9.39441e-06
1.22067e-05
1.87555e-05
7.10626e-06
5.06588e-06
3.77668e-06
2.95128e-06
2.502e-06
2.34937e-06
2.46655e-06
2.80782e-06
3.38733e-06
4.16402e-06
5.16819e-06
6.4503e-06
8.61802e-06
1.26133e-05
4.8702e-06
3.14964e-06
2.23516e-06
1.69595e-06
1.39577e-06
1.27138e-06
1.30795e-06
1.50004e-06
1.88511e-06
2.47729e-06
3.31343e-06
4.44031e-06
6.14304e-06
8.85498e-06
3.6443e-06
2.11043e-06
1.36737e-06
9.73326e-07
7.63818e-07
6.70013e-07
6.72651e-07
7.75555e-07
1.02278e-06
1.45725e-06
2.12011e-06
3.0671e-06
4.45033e-06
6.55336e-06
2.82468e-06
1.46674e-06
8.4299e-07
5.43923e-07
3.98242e-07
3.3405e-07
3.28264e-07
3.84545e-07
5.42172e-07
8.52714e-07
1.36698e-06
2.14528e-06
3.28784e-06
5.03013e-06
2.23982e-06
1.04644e-06
5.22237e-07
2.93821e-07
1.9453e-07
1.5432e-07
1.50165e-07
1.84574e-07
2.8861e-07
5.1141e-07
9.09265e-07
1.54827e-06
2.51751e-06
4.02192e-06
1.90379e-06
8.0631e-07
3.44696e-07
1.6114e-07
9.10257e-08
6.642e-08
6.57043e-08
9.08861e-08
1.66177e-07
3.34751e-07
6.53158e-07
1.19111e-06
2.0425e-06
3.40117e-06
1.75958e-06
6.94263e-07
2.61484e-07
1.00368e-07
4.51161e-08
2.88062e-08
3.08278e-08
5.32084e-08
1.16262e-07
2.58281e-07
5.34062e-07
1.01543e-06
1.80491e-06
3.09873e-06
1.84427e-06
7.10217e-07
2.5333e-07
8.66283e-08
3.21331e-08
1.78518e-08
2.14636e-08
4.4731e-08
1.06777e-07
2.44093e-07
5.1079e-07
9.8036e-07
1.76427e-06
3.06752e-06
2.11975e-06
8.3231e-07
3.06121e-07
1.09278e-07
4.31769e-08
2.56044e-08
2.98166e-08
5.68331e-08
1.26566e-07
2.77168e-07
5.65201e-07
1.06678e-06
1.90253e-06
3.29245e-06
2.80332e-06
1.17249e-06
4.78164e-07
1.97434e-07
9.33435e-08
6.20149e-08
6.48913e-08
9.93944e-08
1.86883e-07
3.70179e-07
7.11748e-07
1.29172e-06
2.23463e-06
3.78435e-06
3.89512e-06
1.76919e-06
8.34319e-07
4.12583e-07
2.28889e-07
1.62994e-07
1.59365e-07
2.06291e-07
3.24383e-07
5.63244e-07
9.97475e-07
1.72424e-06
2.88771e-06
4.70083e-06
5.49376e-06
2.66395e-06
1.42944e-06
8.3548e-07
5.34097e-07
4.03977e-07
3.83678e-07
4.50541e-07
6.19759e-07
9.4987e-07
1.53704e-06
2.54253e-06
4.25528e-06
6.81505e-06
5.45534e-05
6.43796e-05
7.18769e-05
7.56135e-05
7.61693e-05
9.78138e-05
4.70107e-05
6.00753e-05
7.08441e-05
7.68235e-05
8.07124e-05
0.000108892
3.97196e-05
5.63226e-05
6.99085e-05
7.67352e-05
8.30235e-05
0.000118972
3.32371e-05
5.33209e-05
6.92327e-05
7.54571e-05
8.30138e-05
0.000127827
2.82952e-05
5.08242e-05
6.78644e-05
7.32892e-05
8.14906e-05
0.000135257
2.47775e-05
4.86358e-05
6.54095e-05
7.04615e-05
7.9228e-05
0.000140989
2.36965e-05
4.54563e-05
6.13318e-05
6.72064e-05
7.69944e-05
0.000144814
2.36683e-05
4.22224e-05
5.62678e-05
6.38842e-05
7.49569e-05
0.000146352
2.35327e-05
3.82875e-05
5.09624e-05
6.04239e-05
7.29764e-05
0.000145373
2.31913e-05
3.44045e-05
4.58655e-05
5.68883e-05
7.09068e-05
0.000141348
2.30228e-05
3.15347e-05
4.17759e-05
5.36728e-05
6.89565e-05
0.000134583
2.35193e-05
3.02272e-05
3.93006e-05
5.12737e-05
6.70398e-05
0.000125142
2.45521e-05
3.01954e-05
3.85806e-05
5.00891e-05
6.49268e-05
0.00011244
2.54328e-05
3.09428e-05
3.93038e-05
5.03544e-05
6.4078e-05
9.8861e-05
4.82098e-05
5.8827e-05
6.77334e-05
7.41137e-05
7.65384e-05
9.05532e-05
3.75475e-05
4.93001e-05
6.17917e-05
7.20597e-05
7.94374e-05
0.000100659
2.87754e-05
4.14801e-05
5.69531e-05
7.01032e-05
8.04899e-05
0.000109656
2.19026e-05
3.52068e-05
5.31344e-05
6.83341e-05
7.98127e-05
0.000117327
1.73675e-05
3.07193e-05
5.00879e-05
6.63356e-05
7.79251e-05
0.000123475
1.42489e-05
2.77876e-05
4.76624e-05
6.39813e-05
7.57087e-05
0.000128095
1.26553e-05
2.55773e-05
4.50203e-05
6.0851e-05
7.35015e-05
0.000131762
1.20791e-05
2.42345e-05
4.179e-05
5.74488e-05
7.19107e-05
0.000134068
1.20065e-05
2.27733e-05
3.81317e-05
5.39563e-05
7.07112e-05
0.000134134
1.21993e-05
2.11429e-05
3.43834e-05
5.03626e-05
6.9528e-05
0.000131112
1.26354e-05
1.98928e-05
3.1291e-05
4.70514e-05
6.8109e-05
0.000124753
1.36047e-05
1.97049e-05
2.96827e-05
4.46733e-05
6.62096e-05
0.000115218
1.54044e-05
2.08587e-05
2.99135e-05
4.37457e-05
6.44275e-05
0.000103332
1.73632e-05
2.27736e-05
3.14901e-05
4.40504e-05
6.33596e-05
9.01816e-05
3.80092e-05
5.08717e-05
6.18929e-05
6.89242e-05
7.45114e-05
8.01574e-05
2.71117e-05
3.81754e-05
5.00637e-05
6.12307e-05
7.28058e-05
8.89849e-05
1.89171e-05
2.84548e-05
4.06128e-05
5.4739e-05
7.11185e-05
9.66812e-05
1.31817e-05
2.16084e-05
3.35841e-05
4.98356e-05
6.92614e-05
0.000103163
9.99294e-06
1.70613e-05
2.86612e-05
4.58186e-05
6.62819e-05
0.000108567
7.94865e-06
1.40711e-05
2.55938e-05
4.30481e-05
6.35726e-05
0.000113042
6.62381e-06
1.21304e-05
2.35984e-05
4.09038e-05
6.12309e-05
0.000117147
5.84273e-06
1.11149e-05
2.21572e-05
3.87506e-05
6.00581e-05
0.000120328
5.50177e-06
1.06154e-05
2.08072e-05
3.66081e-05
5.96723e-05
0.000121203
5.47277e-06
1.02016e-05
1.9295e-05
3.44784e-05
5.90457e-05
0.00011869
5.6769e-06
9.86434e-06
1.78979e-05
3.2465e-05
5.77204e-05
0.000112453
6.14814e-06
9.86196e-06
1.71166e-05
3.09612e-05
5.57519e-05
0.000102998
7.16404e-06
1.07356e-05
1.76227e-05
3.06688e-05
5.40672e-05
9.13072e-05
8.55003e-06
1.23494e-05
1.94371e-05
3.16234e-05
5.25703e-05
7.81481e-05
2.55607e-05
3.20831e-05
4.12579e-05
5.24417e-05
6.59105e-05
0.000100201
1.86082e-05
2.4742e-05
3.47747e-05
4.83381e-05
6.60235e-05
0.000109142
1.25472e-05
1.82582e-05
2.88317e-05
4.41375e-05
6.49495e-05
0.000116341
8.30578e-06
1.35334e-05
2.42903e-05
4.06492e-05
6.3289e-05
0.000121846
6.02891e-06
1.08895e-05
2.13166e-05
3.75559e-05
6.0489e-05
0.00012628
4.784e-06
9.83722e-06
2.01548e-05
3.53233e-05
5.76116e-05
0.000130029
4.31558e-06
9.67851e-06
1.98248e-05
3.38483e-05
5.53646e-05
0.000133233
4.49153e-06
1.00942e-05
1.97019e-05
3.26353e-05
5.42754e-05
0.000136365
5.22139e-06
1.0702e-05
1.93064e-05
3.14013e-05
5.458e-05
0.000138236
6.37344e-06
1.12935e-05
1.87265e-05
3.0547e-05
5.65715e-05
0.000137696
7.75887e-06
1.19347e-05
1.85101e-05
3.08645e-05
5.9936e-05
0.00013399
9.34561e-06
1.3036e-05
1.95698e-05
3.3418e-05
6.44857e-05
0.00012692
1.13621e-05
1.5301e-05
2.31092e-05
3.93035e-05
7.13644e-05
0.000116753
1.41616e-05
1.96359e-05
3.02776e-05
4.9371e-05
8.18702e-05
0.000104165
1.85446e-05
2.47361e-05
3.33956e-05
4.55032e-05
6.38178e-05
9.02164e-05
1.27278e-05
1.78886e-05
2.60673e-05
3.88663e-05
5.95562e-05
9.74187e-05
8.05445e-06
1.22994e-05
1.97966e-05
3.29016e-05
5.53196e-05
0.000102822
5.21377e-06
8.54454e-06
1.52461e-05
2.80429e-05
5.08766e-05
0.000106655
3.6577e-06
6.53535e-06
1.24997e-05
2.43905e-05
4.64956e-05
0.000109525
2.75839e-06
5.45134e-06
1.1123e-05
2.22217e-05
4.34876e-05
0.000112109
2.30684e-06
4.95532e-06
1.0514e-05
2.10006e-05
4.1875e-05
0.000115164
2.20712e-06
4.90103e-06
1.0351e-05
2.04062e-05
4.19966e-05
0.000118789
2.43256e-06
5.13696e-06
1.03533e-05
2.03364e-05
4.46198e-05
0.000122144
2.96595e-06
5.56475e-06
1.05074e-05
2.1141e-05
4.98471e-05
0.000123754
3.76694e-06
6.21292e-06
1.11779e-05
2.35794e-05
5.72104e-05
0.000122363
4.89235e-06
7.39318e-06
1.31554e-05
2.85353e-05
6.57781e-05
0.000117368
6.66382e-06
9.89772e-06
1.77657e-05
3.68244e-05
7.49188e-05
0.000108846
9.73638e-06
1.50588e-05
2.64885e-05
4.89473e-05
8.49701e-05
9.73969e-05
9.62933e-06
1.42765e-05
2.15675e-05
3.32442e-05
5.21227e-05
7.59495e-05
6.55681e-06
1.02266e-05
1.63262e-05
2.68836e-05
4.5555e-05
8.09052e-05
4.08926e-06
6.95648e-06
1.19174e-05
2.13045e-05
3.93152e-05
8.42989e-05
2.70338e-06
4.7848e-06
8.72799e-06
1.68839e-05
3.4003e-05
8.66634e-05
1.87403e-06
3.57079e-06
6.82888e-06
1.38941e-05
3.00752e-05
8.84876e-05
1.37173e-06
2.81069e-06
5.67174e-06
1.20943e-05
2.78465e-05
9.07105e-05
1.09153e-06
2.36557e-06
5.01347e-06
1.11768e-05
2.75288e-05
9.41323e-05
9.68397e-07
2.15358e-06
4.73953e-06
1.10629e-05
2.98133e-05
9.91313e-05
9.89775e-07
2.15565e-06
4.82272e-06
1.2001e-05
3.53913e-05
0.000105018
1.16117e-06
2.3606e-06
5.32548e-06
1.44988e-05
4.4433e-05
0.000109956
1.49266e-06
2.81561e-06
6.5775e-06
1.92144e-05
5.64205e-05
0.000111885
2.05082e-06
3.73988e-06
9.12346e-06
2.64592e-05
6.96867e-05
0.000109513
3.13964e-06
5.81355e-06
1.39848e-05
3.65424e-05
8.14524e-05
0.000102556
5.68142e-06
1.07558e-05
2.29181e-05
4.903e-05
8.92156e-05
9.1602e-05
0.000101948
9.73635e-05
7.92055e-05
6.11638e-05
4.59354e-05
3.60309e-05
0.000115399
9.21044e-05
6.82741e-05
4.94385e-05
3.6143e-05
2.86417e-05
0.000127297
8.87835e-05
6.12604e-05
4.19594e-05
2.9642e-05
2.31104e-05
0.000137116
8.7314e-05
5.77941e-05
3.87011e-05
2.65781e-05
1.98211e-05
0.000143609
8.6129e-05
5.72134e-05
3.84057e-05
2.54785e-05
1.74767e-05
0.000146817
8.65781e-05
5.8295e-05
3.896e-05
2.45214e-05
1.52979e-05
0.000147598
8.99748e-05
5.95296e-05
3.87511e-05
2.28659e-05
1.27997e-05
0.000146827
9.52058e-05
6.0228e-05
3.68357e-05
2.01262e-05
1.01684e-05
0.000144476
0.000100984
6.01566e-05
3.39383e-05
1.72015e-05
8.04111e-06
0.000140332
0.000105368
5.96734e-05
3.15872e-05
1.53651e-05
7.03579e-06
0.00013428
0.000107002
6.00512e-05
3.15e-05
1.55749e-05
7.49364e-06
0.000126265
0.000105159
6.07514e-05
3.36305e-05
1.80105e-05
9.6833e-06
0.000116306
0.000100034
6.15098e-05
3.70474e-05
2.20015e-05
1.3392e-05
0.000104798
9.23578e-05
6.15954e-05
4.077e-05
2.68082e-05
1.80291e-05
9.64842e-05
0.000107387
8.2283e-05
6.03165e-05
4.26528e-05
3.1288e-05
0.000109391
0.000103419
7.23706e-05
4.81484e-05
3.127e-05
2.20094e-05
0.000120385
0.000101031
6.56624e-05
3.97573e-05
2.36517e-05
1.56367e-05
0.000129092
9.97933e-05
6.11874e-05
3.52126e-05
1.97871e-05
1.20685e-05
0.000135263
9.83676e-05
5.81473e-05
3.23735e-05
1.76994e-05
1.02101e-05
0.000138758
9.67834e-05
5.52354e-05
3.0711e-05
1.63607e-05
8.81093e-06
0.000139767
9.55816e-05
5.31279e-05
2.88441e-05
1.48474e-05
7.47698e-06
0.000138952
9.57537e-05
5.17365e-05
2.6963e-05
1.33199e-05
6.29042e-06
0.000136385
9.73935e-05
5.13376e-05
2.57191e-05
1.22121e-05
5.48737e-06
0.000132284
9.95779e-05
5.2062e-05
2.56161e-05
1.20229e-05
5.34408e-06
0.000126482
0.000101066
5.40947e-05
2.71259e-05
1.30222e-05
5.9966e-06
0.00011881
0.000100708
5.69829e-05
3.04065e-05
1.56368e-05
7.83355e-06
0.000109169
9.82308e-05
5.97033e-05
3.44605e-05
1.93607e-05
1.08148e-05
9.79486e-05
9.4094e-05
6.24137e-05
3.91318e-05
2.40123e-05
1.47748e-05
9.05424e-05
0.000112188
8.56423e-05
5.89627e-05
3.79909e-05
2.39212e-05
0.000103479
0.000112044
7.7217e-05
4.67122e-05
2.63595e-05
1.47718e-05
0.000114514
0.00011122
7.12825e-05
3.848e-05
1.95835e-05
1.05234e-05
0.000123382
0.000109427
6.5009e-05
3.34965e-05
1.66491e-05
8.441e-06
0.00012975
0.000105149
5.92186e-05
2.98624e-05
1.44463e-05
6.93443e-06
0.000133153
9.91904e-05
5.36375e-05
2.65629e-05
1.25516e-05
5.75092e-06
0.0001337
9.29383e-05
4.86685e-05
2.3699e-05
1.09692e-05
4.8395e-06
0.000131975
8.82773e-05
4.54776e-05
2.19721e-05
1.00657e-05
4.33543e-06
0.00012857
8.60244e-05
4.43605e-05
2.14776e-05
9.81093e-06
4.17508e-06
0.000123937
8.59899e-05
4.53088e-05
2.23247e-05
1.03343e-05
4.44372e-06
0.000118006
8.72094e-05
4.78847e-05
2.42461e-05
1.14703e-05
5.07774e-06
0.000110531
8.78979e-05
5.18485e-05
2.76465e-05
1.3744e-05
6.46317e-06
0.000101432
8.86319e-05
5.61239e-05
3.15942e-05
1.67186e-05
8.5273e-06
9.09273e-05
8.97777e-05
6.16264e-05
3.68555e-05
2.08996e-05
1.15896e-05
9.60802e-05
7.4391e-05
7.2198e-05
6.64375e-05
5.849e-05
5.07328e-05
0.000108723
7.33603e-05
6.9034e-05
6.18606e-05
5.37335e-05
4.69441e-05
0.000120012
7.29303e-05
6.67887e-05
5.9083e-05
5.07316e-05
4.37981e-05
0.000129661
7.32909e-05
6.60479e-05
5.8663e-05
5.03446e-05
4.31175e-05
0.000137509
7.48281e-05
6.69189e-05
6.08824e-05
5.32628e-05
4.44665e-05
0.000143336
7.74195e-05
6.93814e-05
6.54525e-05
5.83942e-05
4.60537e-05
0.000146764
8.11682e-05
7.34475e-05
7.15528e-05
6.33052e-05
4.61836e-05
0.000147305
8.62427e-05
7.92244e-05
7.75059e-05
6.56139e-05
4.37321e-05
0.000144736
9.25095e-05
8.56046e-05
8.10944e-05
6.3942e-05
3.92505e-05
0.000139722
9.95172e-05
9.04649e-05
8.0298e-05
5.88435e-05
3.46967e-05
0.000132848
0.000105727
9.31443e-05
7.6865e-05
5.37109e-05
3.21612e-05
0.000124306
0.000108598
9.31791e-05
7.36617e-05
5.16851e-05
3.32021e-05
0.000114151
0.000107061
9.28499e-05
7.37799e-05
5.37831e-05
3.75698e-05
0.000102671
0.000102211
9.09205e-05
7.52702e-05
5.85779e-05
4.44662e-05
8.91668e-05
7.62366e-05
7.23734e-05
6.4935e-05
5.4343e-05
4.44506e-05
0.000101016
7.66035e-05
7.10297e-05
6.11166e-05
4.87654e-05
3.91576e-05
0.000111571
7.72765e-05
7.03404e-05
5.85166e-05
4.41851e-05
3.34201e-05
0.000120627
7.85256e-05
7.09077e-05
5.82647e-05
4.23458e-05
3.06608e-05
0.000128053
8.02613e-05
7.27078e-05
6.02933e-05
4.35418e-05
2.94467e-05
0.000133678
8.25623e-05
7.53833e-05
6.39313e-05
4.54122e-05
2.85733e-05
0.000137113
8.56371e-05
7.87966e-05
6.72498e-05
4.605e-05
2.77574e-05
0.000138025
8.98525e-05
8.25675e-05
6.85768e-05
4.53827e-05
2.6166e-05
0.000135851
9.57851e-05
8.54817e-05
6.7647e-05
4.31976e-05
2.41755e-05
0.000131293
0.00010295
8.62222e-05
6.45136e-05
4.04985e-05
2.28792e-05
0.000125359
0.000109607
8.65852e-05
6.21133e-05
3.93026e-05
2.31758e-05
0.000117458
0.000113432
8.72788e-05
6.25997e-05
4.15002e-05
2.62919e-05
0.00010769
0.000112926
8.95057e-05
6.66122e-05
4.69558e-05
3.21737e-05
9.65146e-05
0.000110705
9.18772e-05
7.2919e-05
5.5539e-05
4.10525e-05
8.04317e-05
7.75913e-05
7.18801e-05
6.13659e-05
4.54555e-05
3.23141e-05
9.26632e-05
8.13911e-05
7.30619e-05
5.63819e-05
3.78098e-05
2.57803e-05
0.000103815
8.50559e-05
7.45495e-05
5.40269e-05
3.36917e-05
2.07295e-05
0.000113604
8.87801e-05
7.69596e-05
5.42999e-05
3.20353e-05
1.89727e-05
0.000121812
9.22661e-05
7.94955e-05
5.44348e-05
3.17513e-05
1.85436e-05
0.000128055
9.51891e-05
8.04127e-05
5.3726e-05
3.16198e-05
1.76976e-05
0.000131658
9.70536e-05
7.90501e-05
5.24095e-05
3.03754e-05
1.64924e-05
0.000132148
9.82058e-05
7.70485e-05
5.05821e-05
2.89904e-05
1.55339e-05
0.000129885
0.000100117
7.50736e-05
4.86995e-05
2.78415e-05
1.49113e-05
0.000125572
0.000103111
7.38916e-05
4.77253e-05
2.77938e-05
1.52034e-05
0.000119125
0.000106116
7.53645e-05
4.92094e-05
2.96366e-05
1.68456e-05
0.000110797
0.000108238
7.91589e-05
5.38384e-05
3.43787e-05
2.08023e-05
0.000100757
0.000108387
8.47908e-05
6.1199e-05
4.18197e-05
2.73674e-05
8.96896e-05
0.000109774
9.21026e-05
7.10585e-05
5.22395e-05
3.68841e-05
1.28824e-05
9.07725e-06
6.50745e-06
5.033e-06
4.37342e-06
4.19802e-06
4.36827e-06
4.75329e-06
5.37983e-06
6.16339e-06
7.03933e-06
7.88577e-06
8.81455e-06
1.09247e-05
6.65905e-06
4.46937e-06
3.17238e-06
2.44375e-06
2.11958e-06
2.04822e-06
2.16193e-06
2.40452e-06
2.79708e-06
3.32254e-06
3.97123e-06
4.69553e-06
5.5982e-06
7.37631e-06
4.09591e-06
2.35438e-06
1.56002e-06
1.17707e-06
1.01778e-06
9.87955e-07
1.05223e-06
1.1895e-06
1.41771e-06
1.7473e-06
2.19465e-06
2.76082e-06
3.55914e-06
5.02159e-06
2.8644e-06
1.38535e-06
8.0388e-07
5.7016e-07
4.83643e-07
4.69038e-07
5.01733e-07
5.73476e-07
6.98071e-07
8.95116e-07
1.19484e-06
1.62887e-06
2.30323e-06
3.50375e-06
2.09929e-06
8.87623e-07
4.37991e-07
2.77721e-07
2.2495e-07
2.16114e-07
2.31547e-07
2.67238e-07
3.33382e-07
4.50209e-07
6.51606e-07
9.8461e-07
1.54133e-06
2.52768e-06
1.59196e-06
6.11151e-07
2.55808e-07
1.37266e-07
1.0149e-07
9.50621e-08
1.01881e-07
1.19471e-07
1.55285e-07
2.26922e-07
3.66311e-07
6.23417e-07
1.08063e-06
1.89324e-06
1.2589e-06
4.53316e-07
1.64707e-07
7.15261e-08
4.48259e-08
3.95505e-08
4.23778e-08
5.15277e-08
7.26289e-08
1.20131e-07
2.2183e-07
4.24338e-07
8.00998e-07
1.47776e-06
1.0786e-06
3.734e-07
1.22494e-07
4.27851e-08
2.05071e-08
1.57637e-08
1.6886e-08
2.24368e-08
3.69956e-08
7.26125e-08
1.53129e-07
3.20155e-07
6.39448e-07
1.2186e-06
9.95329e-07
3.37974e-07
1.0517e-07
3.15836e-08
1.11114e-08
6.54532e-09
7.03865e-09
1.13683e-08
2.37143e-08
5.49038e-08
1.26321e-07
2.75522e-07
5.62913e-07
1.08441e-06
1.02556e-06
3.48074e-07
1.07133e-07
3.03686e-08
8.7969e-09
3.86352e-09
4.22304e-09
8.65926e-09
2.15097e-08
5.35709e-08
1.25496e-07
2.7271e-07
5.52957e-07
1.0557e-06
1.11839e-06
3.79843e-07
1.18544e-07
3.47687e-08
1.07315e-08
5.12052e-09
5.67165e-09
1.11978e-08
2.66953e-08
6.39791e-08
1.44748e-07
3.04864e-07
6.02587e-07
1.12469e-06
1.40666e-06
4.83124e-07
1.57223e-07
5.15679e-08
2.03407e-08
1.2796e-08
1.37728e-08
2.17659e-08
4.27511e-08
9.04596e-08
1.89156e-07
3.77483e-07
7.16106e-07
1.29156e-06
1.83321e-06
6.43537e-07
2.29964e-07
9.25722e-08
4.87794e-08
3.698e-08
3.87196e-08
5.18445e-08
8.32092e-08
1.49061e-07
2.77565e-07
5.12593e-07
9.17597e-07
1.58191e-06
2.62151e-06
9.66483e-07
4.01053e-07
2.01625e-07
1.2841e-07
1.04738e-07
1.06706e-07
1.3056e-07
1.83491e-07
2.84541e-07
4.66371e-07
7.81407e-07
1.29413e-06
2.0894e-06
7.09459e-06
5.01541e-06
3.72804e-06
2.98478e-06
2.68307e-06
2.66774e-06
2.88216e-06
3.25906e-06
3.79747e-06
4.45926e-06
5.21541e-06
6.02323e-06
6.90264e-06
8.30476e-06
3.96802e-06
2.55507e-06
1.82155e-06
1.42826e-06
1.26685e-06
1.25731e-06
1.37094e-06
1.5868e-06
1.91049e-06
2.34032e-06
2.87535e-06
3.49833e-06
4.25368e-06
5.42269e-06
2.58657e-06
1.40971e-06
9.1244e-07
6.8507e-07
5.95165e-07
5.86748e-07
6.41456e-07
7.53906e-07
9.32917e-07
1.19121e-06
1.54347e-06
1.99644e-06
2.60747e-06
3.57298e-06
1.83872e-06
8.4849e-07
4.74594e-07
3.29028e-07
2.76141e-07
2.69289e-07
2.94009e-07
3.48811e-07
4.41807e-07
5.88972e-07
8.12016e-07
1.1356e-06
1.61941e-06
2.41098e-06
1.35866e-06
5.47943e-07
2.57825e-07
1.57499e-07
1.24785e-07
1.19757e-07
1.30592e-07
1.56352e-07
2.03251e-07
2.85648e-07
4.26369e-07
6.58183e-07
1.03922e-06
1.68525e-06
1.03347e-06
3.77563e-07
1.49586e-07
7.63225e-08
5.46461e-08
5.09125e-08
5.55165e-08
6.75424e-08
9.14757e-08
1.38779e-07
2.30103e-07
3.98822e-07
6.98994e-07
1.22688e-06
8.11294e-07
2.78201e-07
9.57856e-08
3.92965e-08
2.3574e-08
2.05773e-08
2.24353e-08
2.82834e-08
4.13884e-08
7.06128e-08
1.33305e-07
2.59704e-07
4.98564e-07
9.33142e-07
6.68552e-07
2.21966e-07
6.99933e-08
2.3398e-08
1.06877e-08
8.04241e-09
8.73609e-09
1.19726e-08
2.02992e-08
4.07727e-08
8.78681e-08
1.88103e-07
3.85281e-07
7.5313e-07
5.86476e-07
1.93822e-07
5.91292e-08
1.73842e-08
5.89035e-09
3.33612e-09
3.58026e-09
5.88226e-09
1.24876e-08
2.95455e-08
6.98495e-08
1.57213e-07
3.31949e-07
6.61124e-07
5.66642e-07
1.90888e-07
5.87439e-08
1.66455e-08
4.76835e-09
2.03118e-09
2.16414e-09
4.42194e-09
1.11138e-08
2.83334e-08
6.84732e-08
1.54253e-07
3.24611e-07
6.43231e-07
5.82847e-07
2.01316e-07
6.41996e-08
1.91089e-08
5.94779e-09
2.85829e-09
3.11174e-09
5.9841e-09
1.41997e-08
3.45675e-08
8.03851e-08
1.75289e-07
3.59471e-07
6.96504e-07
6.82789e-07
2.42511e-07
8.19601e-08
2.77905e-08
1.13533e-08
7.44135e-09
8.13373e-09
1.26391e-08
2.44059e-08
5.17089e-08
1.09979e-07
2.25739e-07
4.42511e-07
8.26111e-07
8.30571e-07
3.09016e-07
1.17763e-07
5.00814e-08
2.77222e-08
2.20911e-08
2.391e-08
3.22417e-08
5.13998e-08
9.17866e-08
1.72095e-07
3.23844e-07
5.95222e-07
1.05646e-06
1.11717e-06
4.55713e-07
2.09147e-07
1.11832e-07
7.39924e-08
6.30598e-08
6.7213e-08
8.44895e-08
1.19829e-07
1.86054e-07
3.05281e-07
5.15326e-07
8.6711e-07
1.43336e-06
3.7646e-06
2.71664e-06
2.08492e-06
1.72282e-06
1.59683e-06
1.65298e-06
1.87061e-06
2.22002e-06
2.68328e-06
3.24418e-06
3.89087e-06
4.6231e-06
5.46044e-06
6.64818e-06
2.22549e-06
1.46007e-06
1.06713e-06
8.48291e-07
7.57553e-07
7.6614e-07
8.64163e-07
1.04622e-06
1.31194e-06
1.66441e-06
2.10735e-06
2.64597e-06
3.3099e-06
4.25646e-06
1.46833e-06
8.26738e-07
5.50861e-07
4.15499e-07
3.56875e-07
3.51554e-07
3.92244e-07
4.79525e-07
6.19575e-07
8.23453e-07
1.10491e-06
1.47958e-06
1.98548e-06
2.73501e-06
1.03987e-06
4.94374e-07
2.86009e-07
1.99203e-07
1.63865e-07
1.57631e-07
1.73857e-07
2.13481e-07
2.82969e-07
3.946e-07
5.65992e-07
8.20496e-07
1.20045e-06
1.7922e-06
7.68647e-07
3.13616e-07
1.51529e-07
9.32126e-08
7.22626e-08
6.79847e-08
7.4461e-08
9.19798e-08
1.25405e-07
1.85256e-07
2.8879e-07
4.61866e-07
7.46397e-07
1.21482e-06
5.82891e-07
2.11434e-07
8.45977e-08
4.34592e-08
3.05555e-08
2.78844e-08
3.04879e-08
3.82434e-08
5.44711e-08
8.72137e-08
1.51255e-07
2.70925e-07
4.8488e-07
8.57222e-07
4.51128e-07
1.51714e-07
5.19045e-08
2.1322e-08
1.26403e-08
1.08459e-08
1.18767e-08
1.54641e-08
2.3864e-08
4.29994e-08
8.47023e-08
1.69968e-07
3.33165e-07
6.31727e-07
3.61756e-07
1.1769e-07
3.66126e-08
1.21448e-08
5.49128e-09
4.08211e-09
4.47172e-09
6.34965e-09
1.13454e-08
2.39255e-08
5.3525e-08
1.17921e-07
2.47572e-07
4.94286e-07
3.08169e-07
1.00888e-07
3.04778e-08
8.84535e-09
2.94558e-09
1.64612e-09
1.78937e-09
3.04695e-09
6.75292e-09
1.66054e-08
4.06397e-08
9.44896e-08
2.05955e-07
4.22813e-07
2.89857e-07
9.87603e-08
3.04532e-08
8.5487e-09
2.41673e-09
1.03264e-09
1.11666e-09
2.30788e-09
5.91584e-09
1.55063e-08
3.87366e-08
9.04935e-08
1.9771e-07
4.06657e-07
2.98129e-07
1.06836e-07
3.44927e-08
1.02173e-08
3.2119e-09
1.64036e-09
1.82303e-09
3.38504e-09
7.87279e-09
1.93083e-08
4.60147e-08
1.0379e-07
2.2099e-07
4.45196e-07
3.42899e-07
1.29819e-07
4.51528e-08
1.5472e-08
6.55969e-09
4.63414e-09
5.24022e-09
7.95537e-09
1.48249e-08
3.09553e-08
6.64187e-08
1.39676e-07
2.82661e-07
5.46505e-07
4.16662e-07
1.69607e-07
6.72708e-08
2.91523e-08
1.67852e-08
1.4222e-08
1.60726e-08
2.18207e-08
3.42105e-08
6.00828e-08
1.12366e-07
2.1409e-07
4.02628e-07
7.34426e-07
5.49406e-07
2.53001e-07
1.21116e-07
6.55679e-08
4.50948e-08
4.08623e-08
4.5879e-08
5.92384e-08
8.44139e-08
1.30401e-07
2.13373e-07
3.61903e-07
6.18599e-07
1.04518e-06
2.38628e-06
1.76963e-06
1.36207e-06
1.11856e-06
1.02515e-06
1.06672e-06
1.23374e-06
1.51197e-06
1.89148e-06
2.36635e-06
2.93164e-06
3.59428e-06
4.37359e-06
5.42297e-06
1.41356e-06
9.73161e-07
7.19561e-07
5.64968e-07
4.9042e-07
4.87605e-07
5.53295e-07
6.8768e-07
8.9467e-07
1.18132e-06
1.55502e-06
2.02644e-06
2.61753e-06
3.43746e-06
8.99535e-07
5.39793e-07
3.70795e-07
2.7763e-07
2.30354e-07
2.19769e-07
2.43343e-07
3.03614e-07
4.07764e-07
5.67462e-07
7.96721e-07
1.11344e-06
1.54714e-06
2.17637e-06
6.07683e-07
3.065e-07
1.86529e-07
1.30664e-07
1.03958e-07
9.60407e-08
1.04115e-07
1.29933e-07
1.79545e-07
2.64011e-07
3.99091e-07
6.06473e-07
9.19838e-07
1.40085e-06
4.30641e-07
1.82199e-07
9.34317e-08
5.88993e-08
4.44809e-08
4.00419e-08
4.28699e-08
5.37707e-08
7.68437e-08
1.2069e-07
1.99619e-07
3.35336e-07
5.60931e-07
9.31228e-07
3.14816e-07
1.1538e-07
4.84965e-08
2.59867e-08
1.80508e-08
1.57788e-08
1.68404e-08
2.15187e-08
3.24087e-08
5.56455e-08
1.02781e-07
1.9303e-07
3.56586e-07
6.42795e-07
2.3627e-07
7.89258e-08
2.76938e-08
1.18874e-08
7.09694e-09
5.87889e-09
6.30657e-09
8.43685e-09
1.39227e-08
2.70362e-08
5.65515e-08
1.18296e-07
2.3862e-07
4.61579e-07
1.85668e-07
5.9855e-08
1.86991e-08
6.34088e-09
2.91208e-09
2.12074e-09
2.29918e-09
3.40057e-09
6.54301e-09
1.47762e-08
3.47477e-08
7.93118e-08
1.71273e-07
3.50068e-07
1.58618e-07
5.20023e-08
1.56524e-08
4.52168e-09
1.50179e-09
8.30888e-10
9.08621e-10
1.62477e-09
3.83066e-09
9.91287e-09
2.52674e-08
6.08276e-08
1.3698e-07
2.9012e-07
1.54624e-07
5.32563e-08
1.62815e-08
4.48423e-09
1.25652e-09
5.52484e-10
6.10483e-10
1.26845e-09
3.31386e-09
8.95335e-09
2.31768e-08
5.62348e-08
1.27761e-07
2.73357e-07
1.69945e-07
6.13282e-08
1.94509e-08
5.64569e-09
1.82098e-09
1.02909e-09
1.17581e-09
2.0694e-09
4.62978e-09
1.13381e-08
2.76347e-08
6.452e-08
1.4299e-07
3.00488e-07
2.05751e-07
7.76073e-08
2.63791e-08
8.96565e-09
4.03788e-09
3.15784e-09
3.70029e-09
5.44926e-09
9.67474e-09
1.96583e-08
4.226e-08
9.0846e-08
1.90035e-07
3.81524e-07
2.60137e-07
1.04914e-07
4.084e-08
1.77939e-08
1.08703e-08
9.96007e-09
1.17437e-08
1.59739e-08
2.45066e-08
4.20436e-08
7.79668e-08
1.49802e-07
2.87964e-07
5.40197e-07
3.48618e-07
1.59488e-07
7.53336e-08
4.12149e-08
2.97476e-08
2.87989e-08
3.39177e-08
4.46964e-08
6.37602e-08
9.77777e-08
1.59252e-07
2.70846e-07
4.6954e-07
8.092e-07
1.81536e-06
1.37068e-06
1.04796e-06
8.407e-07
7.3816e-07
7.37099e-07
8.35899e-07
1.03431e-06
1.33408e-06
1.73397e-06
2.22963e-06
2.82727e-06
3.54409e-06
4.49202e-06
1.04922e-06
7.51988e-07
5.59734e-07
4.32005e-07
3.59329e-07
3.38985e-07
3.70572e-07
4.58995e-07
6.13512e-07
8.448e-07
1.16035e-06
1.5714e-06
2.10037e-06
2.82857e-06
6.32449e-07
4.04113e-07
2.85337e-07
2.12017e-07
1.6906e-07
1.52282e-07
1.60643e-07
1.97782e-07
2.72073e-07
3.96102e-07
5.83719e-07
8.51997e-07
1.22937e-06
1.77679e-06
3.97846e-07
2.16529e-07
1.39324e-07
9.83302e-08
7.54788e-08
6.56244e-08
6.73373e-08
8.2506e-08
1.16746e-07
1.80366e-07
2.87993e-07
4.59455e-07
7.24936e-07
1.13599e-06
2.60911e-07
1.18609e-07
6.62172e-08
4.31183e-08
3.16685e-08
2.6763e-08
2.70097e-08
3.32573e-08
4.88949e-08
8.12405e-08
1.42745e-07