/*--------------------------------*- C++ -*----------------------------------*\
| =========                 |                                                 |
| \\      /  F ield         | OpenFOAM: The Open Source CFD Toolbox           |
|  \\    /   O peration     | Version:  v2106                                 |
|   \\  /    A nd           | Website:  www.openfoam.com                      |
|    \\/     M anipulation  |                                                 |
\*---------------------------------------------------------------------------*/
FoamFile
{
    version     2.0;
    format      ascii;
    arch        "LSB;label=32;scalar=64";
    class       volScalarField;
    location    "0.000209";
    object      T;
}
// * * * * * * * * * * * * * * * * * * * * * * * * * * * * * * * * * * * * * //

dimensions      [0 0 0 1 0 0 0];

internalField   nonuniform List<scalar> 
144746
(
288.851
288.837
288.834
288.899
288.93
288.955
288.941
288.895
288.759
288.579
288.348
288.134
287.932
287.967
288.888
289.012
289.059
289.161
289.206
289.236
289.236
289.209
289.11
288.935
288.705
288.447
288.19
288.116
288.97
289.137
289.244
289.379
289.445
289.484
289.494
289.477
289.411
289.268
289.055
288.789
288.471
288.21
289.08
289.273
289.416
289.561
289.645
289.696
289.716
289.707
289.664
289.564
289.387
289.138
288.821
288.469
289.193
289.422
289.583
289.713
289.789
289.84
289.865
289.869
289.844
289.779
289.652
289.438
289.142
288.777
289.297
289.57
289.732
289.838
289.885
289.922
289.95
289.965
289.959
289.922
289.832
289.663
289.387
289.022
289.407
289.686
289.834
289.907
289.941
289.959
289.977
289.993
290.001
289.989
289.931
289.79
289.534
289.166
289.493
289.747
289.878
289.936
289.962
289.973
289.982
289.989
289.998
289.997
289.962
289.844
289.604
289.233
289.52
289.755
289.876
289.933
289.962
289.973
289.978
289.977
289.975
289.97
289.938
289.834
289.615
289.256
289.472
289.716
289.847
289.917
289.955
289.97
289.973
289.967
289.955
289.937
289.892
289.782
289.565
289.208
289.361
289.64
289.79
289.886
289.942
289.965
289.967
289.956
289.937
289.905
289.831
289.682
289.445
289.086
289.2
289.503
289.7
289.826
289.91
289.946
289.954
289.941
289.916
289.859
289.738
289.536
289.257
288.892
289.063
289.341
289.555
289.715
289.827
289.883
289.898
289.886
289.853
289.761
289.585
289.317
289.01
288.687
288.945
289.093
289.316
289.51
289.649
289.723
289.752
289.742
289.695
289.567
289.355
289.095
288.894
288.7
289.023
289.148
289.124
289.174
289.211
289.237
289.226
289.176
289.06
288.902
288.697
288.506
288.362
288.454
289.031
289.233
289.355
289.458
289.507
289.53
289.52
289.48
289.402
289.286
289.114
288.931
288.729
288.693
289.114
289.358
289.52
289.666
289.73
289.751
289.747
289.719
289.668
289.581
289.44
289.254
289.014
288.806
289.213
289.478
289.673
289.833
289.902
289.919
289.919
289.893
289.848
289.791
289.694
289.543
289.322
289.053
289.341
289.647
289.855
289.988
290.037
290.041
290.022
289.997
289.971
289.934
289.874
289.775
289.607
289.35
289.52
289.838
290.019
290.113
290.142
290.137
290.115
290.084
290.062
290.04
290.01
289.945
289.827
289.601
289.718
290.002
290.136
290.188
290.207
290.199
290.182
290.16
290.144
290.134
290.105
290.066
289.959
289.769
289.874
290.122
290.22
290.258
290.265
290.261
290.252
290.244
290.236
290.227
290.196
290.148
290.04
289.86
289.969
290.195
290.283
290.317
290.32
290.322
290.324
290.329
290.333
290.331
290.297
290.239
290.099
289.912
290.004
290.225
290.326
290.376
290.391
290.403
290.416
290.431
290.439
290.439
290.411
290.339
290.176
289.938
289.999
290.221
290.345
290.421
290.464
290.496
290.522
290.543
290.554
290.547
290.513
290.416
290.241
289.975
289.959
290.205
290.349
290.453
290.529
290.586
290.627
290.648
290.652
290.628
290.573
290.449
290.268
290.004
289.908
290.132
290.306
290.439
290.545
290.625
290.679
290.702
290.701
290.665
290.571
290.414
290.232
289.998
289.812
289.979
290.203
290.38
290.515
290.607
290.668
290.694
290.686
290.637
290.52
290.355
290.237
290.042
288.822
289.091
289.148
289.186
289.192
289.188
289.161
289.097
288.988
288.879
288.774
288.696
288.611
288.789
289.053
289.375
289.559
289.647
289.661
289.64
289.589
289.517
289.439
289.367
289.316
289.277
289.207
289.288
289.405
289.718
289.917
290.012
290.023
290.001
289.947
289.879
289.811
289.757
289.725
289.661
289.577
289.589
289.711
290.006
290.192
290.275
290.28
290.253
290.202
290.146
290.104
290.075
290.058
290.025
289.951
289.91
289.996
290.258
290.411
290.471
290.468
290.439
290.394
290.355
290.338
290.338
290.341
290.33
290.282
290.218
290.271
290.487
290.601
290.634
290.626
290.596
290.558
290.536
290.537
290.556
290.578
290.584
290.56
290.5
290.525
290.696
290.773
290.783
290.769
290.741
290.717
290.71
290.722
290.756
290.791
290.808
290.8
290.742
290.774
290.913
290.958
290.951
290.925
290.899
290.887
290.895
290.918
290.959
290.997
291.015
291.007
290.941
290.977
291.108
291.137
291.124
291.093
291.073
291.071
291.093
291.132
291.18
291.214
291.229
291.209
291.118
291.153
291.288
291.317
291.309
291.285
291.275
291.282
291.315
291.363
291.415
291.445
291.451
291.415
291.286
291.291
291.438
291.482
291.495
291.492
291.499
291.52
291.561
291.611
291.661
291.689
291.687
291.631
291.469
291.409
291.549
291.63
291.677
291.709
291.745
291.784
291.831
291.873
291.911
291.926
291.907
291.841
291.681
291.506
291.624
291.72
291.801
291.876
291.953
292.02
292.081
292.116
292.136
292.124
292.072
292.015
291.882
291.508
291.68
291.81
291.932
292.04
292.142
292.224
292.289
292.31
292.308
292.254
292.18
292.143
292.012
288.101
287.938
287.317
286.869
286.454
286.932
287.516
287.303
286.803
286.649
286.38
286.742
287.75
287.464
287
286.858
286.61
286.998
288.007
287.623
287.183
287.076
286.857
287.14
288.306
287.861
287.445
287.378
287.137
287.528
288.547
288.065
287.646
287.578
287.32
287.812
288.678
288.203
287.79
287.722
287.446
287.958
288.736
288.263
287.842
287.768
287.469
287.966
288.76
288.293
287.838
287.707
287.375
287.812
288.716
288.232
287.731
287.532
287.168
287.554
288.61
288.126
287.55
287.26
286.886
287.571
288.442
287.926
287.321
287.016
286.673
286.958
288.35
287.932
287.323
286.863
286.503
286.802
288.019
287.669
287.064
286.689
286.375
286.478
288.603
288.351
287.674
287.105
286.591
287.066
288.102
287.747
287.092
286.84
286.518
286.905
288.339
287.942
287.311
287.099
286.739
287.212
288.634
288.193
287.62
287.374
287.068
287.3
288.964
288.524
288.001
287.775
287.446
287.788
289.224
288.784
288.294
288.076
287.773
288.095
289.387
288.959
288.495
288.295
288.017
288.362
289.484
289.072
288.632
288.417
288.154
288.502
289.548
289.156
288.717
288.459
288.212
288.521
289.582
289.207
288.758
288.469
288.17
288.336
289.633
289.272
288.824
288.483
288.15
288.095
289.693
289.299
288.769
288.315
287.954
287.925
289.771
289.386
288.845
288.322
287.921
287.975
289.579
289.223
288.64
288.132
287.809
287.797
289.086
288.71
288.048
287.267
286.546
286.693
288.841
288.435
287.663
287.154
286.707
287.077
289.182
288.73
288.022
287.69
287.293
287.656
289.574
289.159
288.556
288.232
287.848
288.052
289.942
289.592
289.085
288.772
288.401
288.675
290.277
289.962
289.502
289.208
288.874
289.041
290.556
290.254
289.824
289.542
289.237
289.288
290.783
290.481
290.06
289.755
289.445
289.377
290.977
290.668
290.252
289.888
289.538
289.415
291.158
290.852
290.448
290.032
289.635
289.434
291.347
291.074
290.697
290.248
289.794
289.482
291.544
291.316
290.936
290.444
289.931
289.568
291.788
291.534
291.159
290.644
290.163
289.82
291.829
291.589
291.164
290.697
290.23
289.947
288.615
288.354
287.596
287.048
286.656
286.716
288.29
287.938
287.163
286.743
286.385
286.507
288.555
288.037
287.174
286.691
286.178
286.895
288.856
288.215
287.338
286.793
286.358
286.61
289.135
288.482
287.625
287.006
286.586
286.69
289.312
288.707
287.898
287.256
286.823
286.884
289.392
288.848
288.134
287.577
287.201
287.266
289.414
288.916
288.325
287.882
287.6
287.688
289.393
288.941
288.448
288.121
287.922
288.071
289.33
288.91
288.493
288.22
288.087
288.267
289.225
288.844
288.472
288.214
288.106
288.31
289.083
288.727
288.364
288.098
287.965
288.139
288.899
288.552
288.148
287.887
287.744
287.946
288.489
288.114
287.705
287.518
287.378
287.585
290.11
289.89
289.246
288.655
288.186
288.102
289.882
289.612
288.969
288.493
288.053
287.989
290.043
289.705
289.049
288.551
288.115
288.12
290.261
289.887
289.228
288.634
288.155
288.035
290.444
290.082
289.462
288.807
288.287
288.087
290.542
290.21
289.651
288.982
288.435
288.194
290.566
290.266
289.772
289.163
288.707
288.549
290.542
290.257
289.834
289.329
289.052
288.957
290.479
290.208
289.839
289.465
289.383
289.379
290.384
290.112
289.792
289.534
289.525
289.547
290.262
289.985
289.716
289.504
289.484
289.479
290.101
289.804
289.53
289.266
289.131
289.058
289.882
289.548
289.216
288.852
288.637
288.57
289.446
289.045
288.662
288.279
288.047
287.935
292.226
292.15
291.843
291.369
290.819
290.456
292.105
292.026
291.742
291.322
290.858
290.517
292.188
292.113
291.851
291.451
291.02
290.606
292.287
292.251
292.036
291.656
291.213
290.729
292.374
292.362
292.197
291.846
291.387
290.816
292.391
292.39
292.276
291.962
291.495
290.848
292.371
292.373
292.301
292.014
291.562
290.86
292.306
292.32
292.274
291.984
291.588
290.749
292.215
292.244
292.195
291.877
291.508
290.486
292.105
292.122
292.049
291.727
291.263
290.016
291.981
291.958
291.861
291.406
290.736
289.264
291.857
291.734
291.571
290.808
289.82
288.158
291.772
291.445
291.103
289.997
288.755
287.167
291.398
290.854
290.275
289.051
287.785
286.294
288.563
287.936
288.085
288.011
288.181
288.432
288.756
288.225
288.408
288.49
288.729
288.953
288.715
288.306
288.513
288.579
288.779
288.983
289.131
288.491
288.662
288.663
288.813
289.001
289.387
288.605
288.704
288.665
288.787
288.997
289.177
288.665
288.734
288.646
288.744
289.003
288.765
288.426
288.485
288.439
288.644
289.017
288.206
287.894
288.02
288.142
288.542
289.034
287.468
287.229
287.443
287.778
288.407
289.015
287.059
286.805
287.07
287.503
288.265
288.942
286.819
286.571
286.879
287.329
288.129
288.805
287.022
286.743
287.023
287.381
288.129
288.655
287.218
286.972
287.242
287.515
288.167
288.532
287.771
287.524
287.777
288.074
288.52
288.792
287.511
287.233
287.452
287.685
288.073
288.546
287.89
287.639
287.985
288.393
288.786
289.117
288.126
287.966
288.344
288.666
288.901
289.144
288.803
288.502
288.748
288.884
288.98
289.161
289.151
288.837
288.917
288.934
288.965
289.144
289.201
288.91
288.919
288.888
288.939
289.201
288.939
288.656
288.678
288.705
288.893
289.308
288.415
288.219
288.29
288.483
288.89
289.44
287.785
287.66
287.839
288.248
288.865
289.514
287.431
287.326
287.586
288.104
288.85
289.53
287.225
287.145
287.482
288.051
288.843
289.514
287.39
287.308
287.654
288.162
288.906
289.482
287.506
287.56
287.946
288.42
289.072
289.479
288.09
288.191
288.597
289.069
289.475
289.732
284.175
285.082
285.66
286.565
287.357
288.223
284.459
285.633
286.507
287.613
288.305
289.093
284.731
286.251
287.243
288.262
288.585
289.22
285.703
287.204
288.016
288.766
288.868
289.392
286.623
287.975
288.439
288.979
289.145
289.637
287.352
288.409
288.687
289.176
289.47
289.936
287.552
288.473
288.816
289.356
289.781
290.226
287.489
288.385
288.902
289.544
290.062
290.494
287.263
288.181
288.887
289.667
290.271
290.697
286.993
287.986
288.906
289.79
290.45
290.872
286.742
287.822
288.91
289.906
290.597
291.016
286.534
287.738
288.973
290.078
290.782
291.171
286.349
287.657
288.952
290.269
291.011
291.333
286.468
287.923
289.347
290.643
291.259
291.532
286.859
286.461
286.785
286.931
287.259
287.443
286.883
286.589
286.943
287.248
287.628
287.868
287.149
286.738
287.06
287.22
287.591
287.909
287.601
287.083
287.392
287.43
287.739
288.056
288.094
287.481
287.726
287.664
287.943
288.253
288.496
287.848
288.047
287.939
288.168
288.409
288.696
288.055
288.231
288.113
288.333
288.568
288.689
288.147
288.309
288.224
288.441
288.64
288.589
288.133
288.272
288.201
288.414
288.65
288.569
288.059
288.216
288.132
288.368
288.619
288.371
287.876
288.068
288.012
288.284
288.561
288.488
287.936
288.12
288.047
288.336
288.517
288.365
287.89
288.087
287.992
288.299
288.402
288.757
288.286
288.501
288.619
288.922
288.942
286.697
286.4
286.686
286.877
287.238
287.672
286.782
286.511
286.894
287.286
287.741
288.191
287.012
286.578
286.905
287.242
287.715
288.199
287.418
286.861
287.194
287.42
287.845
288.321
287.872
287.211
287.506
287.64
288.039
288.493
288.27
287.582
287.834
287.902
288.266
288.679
288.49
287.845
288.07
288.124
288.462
288.827
288.539
288.006
288.208
288.251
288.545
288.88
288.404
287.944
288.151
288.21
288.528
288.876
288.157
287.819
288.003
288.081
288.456
288.83
287.84
287.508
287.733
287.886
288.356
288.774
287.815
287.373
287.662
287.851
288.37
288.743
287.575
287.179
287.564
287.819
288.364
288.713
287.891
287.541
287.995
288.458
288.963
289.14
285.937
285.88
286.227
286.703
287.258
287.872
285.728
285.844
286.422
287.043
287.623
288.315
285.599
285.788
286.3
286.929
287.533
288.232
285.94
286.053
286.547
287.066
287.62
288.263
286.469
286.371
286.789
287.23
287.759
288.357
286.924
286.738
287.099
287.475
287.951
288.49
287.237
287.049
287.35
287.67
288.107
288.612
287.365
287.143
287.431
287.75
288.177
288.669
287.14
287.056
287.353
287.69
288.14
288.667
286.82
286.797
287.065
287.476
288.027
288.634
286.198
286.235
286.606
287.194
287.89
288.583
285.688
285.828
286.349
287.096
287.849
288.534
284.9
285.473
286.2
287.137
287.912
288.498
284.904
285.561
286.553
287.712
288.433
288.908
289.418
289.61
289.687
289.71
289.685
289.636
289.579
289.486
289.381
289.27
289.168
289.082
289.006
289.095
289.663
289.902
290.042
290.105
290.092
290.045
289.978
289.886
289.801
289.723
289.661
289.649
289.616
289.686
289.984
290.213
290.341
290.397
290.388
290.343
290.277
290.197
290.138
290.101
290.077
290.065
290.031
290.082
290.282
290.473
290.573
290.601
290.586
290.542
290.483
290.423
290.393
290.39
290.396
290.405
290.409
290.444
290.568
290.695
290.756
290.76
290.737
290.692
290.641
290.606
290.6
290.621
290.658
290.692
290.707
290.743
290.845
290.902
290.928
290.911
290.874
290.825
290.787
290.773
290.786
290.826
290.885
290.943
290.986
291.016
291.096
291.117
291.112
291.077
291.023
290.97
290.943
290.944
290.971
291.027
291.101
291.177
291.236
291.275
291.369
291.365
291.331
291.27
291.197
291.141
291.118
291.127
291.165
291.233
291.318
291.406
291.475
291.524
291.625
291.607
291.555
291.479
291.394
291.337
291.318
291.334
291.382
291.459
291.551
291.644
291.715
291.774
291.904
291.877
291.81
291.724
291.635
291.577
291.559
291.578
291.63
291.71
291.804
291.898
291.968
292.025
292.142
292.122
292.067
291.989
291.908
291.856
291.841
291.861
291.914
291.993
292.083
292.172
292.237
292.281
292.436
292.399
292.349
292.286
292.225
292.187
292.178
292.196
292.243
292.311
292.388
292.464
292.519
292.542
292.642
292.634
292.595
292.562
292.537
292.527
292.535
292.56
292.6
292.652
292.703
292.758
292.797
292.814
292.985
292.972
292.941
292.922
292.914
292.916
292.927
292.945
292.968
292.994
293.005
293.039
293.056
293.111
289.91
290.043
290.112
290.115
290.095
290.03
289.947
289.845
289.735
289.608
289.468
289.349
289.235
289.201
290.177
290.297
290.366
290.389
290.373
290.324
290.254
290.174
290.099
290.026
289.948
289.879
289.812
289.819
290.458
290.552
290.599
290.61
290.588
290.541
290.477
290.413
290.362
290.327
290.296
290.267
290.235
290.264
290.742
290.78
290.803
290.797
290.767
290.718
290.66
290.61
290.58
290.573
290.577
290.59
290.596
290.637
291.001
290.999
290.998
290.974
290.931
290.877
290.823
290.787
290.772
290.784
290.812
290.853
290.897
290.943
291.246
291.226
291.197
291.152
291.095
291.038
290.992
290.969
290.969
290.994
291.04
291.103
291.169
291.221
291.499
291.467
291.411
291.344
291.273
291.213
291.172
291.16
291.172
291.211
291.27
291.347
291.427
291.496
291.763
291.719
291.642
291.556
291.474
291.41
291.374
291.369
291.39
291.44
291.512
291.596
291.685
291.765
292.032
291.979
291.888
291.79
291.702
291.636
291.603
291.603
291.631
291.69
291.772
291.861
291.954
292.039
292.318
292.258
292.161
292.057
291.966
291.899
291.866
291.869
291.902
291.966
292.053
292.145
292.237
292.319
292.587
292.535
292.445
292.349
292.263
292.199
292.169
292.172
292.207
292.272
292.359
292.447
292.534
292.601
292.885
292.835
292.761
292.682
292.608
292.552
292.525
292.525
292.556
292.613
292.69
292.765
292.842
292.889
293.114
293.093
293.054
293.007
292.963
292.927
292.912
292.914
292.937
292.981
293.037
293.092
293.153
293.184
293.451
293.452
293.434
293.406
293.379
293.352
293.339
293.335
293.343
293.364
293.389
293.422
293.456
293.5
290.432
290.423
290.479
290.469
290.43
290.348
290.242
290.134
290.023
289.914
289.789
289.659
289.493
289.35
290.77
290.74
290.731
290.698
290.648
290.576
290.488
290.403
290.323
290.256
290.189
290.117
290.015
289.904
291.044
291.001
290.966
290.91
290.843
290.768
290.686
290.614
290.55
290.508
290.473
290.444
290.384
290.348
291.313
291.248
291.185
291.111
291.031
290.95
290.87
290.804
290.751
290.725
290.713
290.714
290.696
290.702
291.547
291.471
291.393
291.308
291.218
291.133
291.054
290.992
290.947
290.932
290.934
290.955
290.972
290.997
291.773
291.694
291.601
291.505
291.409
291.323
291.248
291.191
291.154
291.146
291.159
291.196
291.236
291.279
292.006
291.922
291.816
291.712
291.613
291.528
291.458
291.408
291.38
291.377
291.399
291.446
291.501
291.56
292.26
292.169
292.051
291.941
291.84
291.756
291.69
291.644
291.623
291.627
291.658
291.711
291.778
291.846
292.533
292.433
292.308
292.192
292.09
292.007
291.943
291.903
291.888
291.899
291.939
291.996
292.074
292.143
292.833
292.73
292.599
292.48
292.376
292.291
292.228
292.189
292.18
292.194
292.243
292.304
292.386
292.447
293.136
293.039
292.91
292.793
292.691
292.605
292.544
292.507
292.5
292.515
292.567
292.627
292.706
292.749
293.459
293.375
293.258
293.148
293.05
292.964
292.902
292.863
292.856
292.869
292.916
292.967
293.039
293.057
293.767
293.697
293.605
293.509
293.427
293.35
293.293
293.253
293.24
293.242
293.273
293.308
293.365
293.363
294.123
294.063
293.994
293.905
293.834
293.764
293.711
293.669
293.648
293.639
293.648
293.665
293.696
293.688
290.851
290.786
290.771
290.708
290.638
290.543
290.434
290.314
290.2
290.087
289.973
289.853
289.714
289.551
291.221
291.12
291.05
290.958
290.864
290.762
290.654
290.546
290.449
290.368
290.295
290.239
290.146
290.019
291.502
291.399
291.306
291.193
291.08
290.965
290.854
290.751
290.662
290.595
290.544
290.513
290.453
290.399
291.75
291.644
291.534
291.408
291.283
291.163
291.05
290.951
290.866
290.807
290.769
290.753
290.73
290.705
291.965
291.857
291.737
291.607
291.479
291.361
291.251
291.156
291.075
291.019
290.988
290.984
290.986
291
292.171
292.058
291.93
291.801
291.677
291.566
291.464
291.374
291.298
291.246
291.221
291.227
291.25
291.279
292.393
292.269
292.134
292.005
291.887
291.784
291.69
291.607
291.537
291.491
291.472
291.487
291.522
291.562
292.647
292.51
292.364
292.235
292.12
292.022
291.933
291.856
291.793
291.754
291.743
291.764
291.809
291.855
292.932
292.784
292.628
292.496
292.38
292.284
292.199
292.125
292.068
292.035
292.034
292.058
292.111
292.153
293.246
293.094
292.927
292.791
292.671
292.573
292.487
292.415
292.365
292.337
292.345
292.375
292.43
292.459
293.568
293.422
293.253
293.115
292.993
292.892
292.805
292.734
292.686
292.661
292.672
292.702
292.758
292.763
293.902
293.771
293.607
293.469
293.344
293.24
293.152
293.082
293.038
293.014
293.025
293.045
293.094
293.081
294.223
294.111
293.967
293.838
293.722
293.619
293.532
293.46
293.412
293.38
293.383
293.383
293.413
293.387
294.549
294.463
294.341
294.217
294.111
294.012
293.931
293.86
293.81
293.771
293.756
293.74
293.742
293.713
291.25
291.118
291.035
290.928
290.836
290.727
290.61
290.479
290.35
290.224
290.101
289.986
289.871
289.725
291.576
291.448
291.335
291.203
291.079
290.949
290.822
290.69
290.57
290.464
290.379
290.313
290.243
290.139
291.823
291.703
291.584
291.443
291.305
291.165
291.03
290.899
290.782
290.685
290.619
290.567
290.513
290.459
292.042
291.921
291.796
291.652
291.511
291.372
291.239
291.112
290.997
290.906
290.844
290.804
290.771
290.739
292.233
292.107
291.976
291.837
291.702
291.574
291.451
291.333
291.224
291.134
291.074
291.039
291.018
291.011
292.43
292.295
292.157
292.022
291.897
291.782
291.671
291.563
291.461
291.375
291.316
291.287
291.277
291.284
292.659
292.507
292.358
292.226
292.108
292.004
291.903
291.804
291.71
291.629
291.573
291.55
291.55
291.562
292.925
292.758
292.594
292.461
292.344
292.245
292.149
292.057
291.969
291.894
291.845
291.827
291.834
291.854
293.22
293.044
292.868
292.729
292.609
292.509
292.415
292.325
292.242
292.171
292.128
292.114
292.126
292.146
293.532
293.356
293.169
293.024
292.897
292.793
292.697
292.609
292.53
292.465
292.427
292.416
292.432
292.437
293.843
293.676
293.488
293.341
293.208
293.101
293.001
292.913
292.836
292.774
292.738
292.725
292.745
292.73
294.152
294.001
293.818
293.672
293.536
293.425
293.324
293.237
293.166
293.107
293.072
293.054
293.072
293.038
294.45
294.318
294.154
294.017
293.888
293.777
293.676
293.588
293.514
293.451
293.413
293.382
293.387
293.336
294.737
294.629
294.49
294.362
294.243
294.137
294.042
293.958
293.886
293.821
293.774
293.732
293.709
293.663
291.571
291.43
291.312
291.176
291.062
290.936
290.807
290.657
290.507
290.357
290.221
290.085
289.98
289.853
291.853
291.726
291.597
291.449
291.311
291.164
291.022
290.867
290.718
290.578
290.468
290.373
290.307
290.218
292.061
291.939
291.812
291.664
291.523
291.379
291.235
291.083
290.936
290.802
290.703
290.622
290.562
290.506
292.252
292.122
291.992
291.849
291.713
291.578
291.444
291.301
291.161
291.034
290.936
290.867
290.812
290.771
292.438
292.292
292.155
292.019
291.892
291.771
291.65
291.523
291.393
291.273
291.178
291.113
291.063
291.025
292.648
292.483
292.333
292.199
292.079
291.97
291.862
291.748
291.629
291.517
291.427
291.365
291.322
291.291
292.889
292.708
292.544
292.406
292.288
292.184
292.083
291.978
291.87
291.767
291.682
291.623
291.587
291.566
293.157
292.967
292.787
292.643
292.52
292.416
292.317
292.218
292.118
292.022
291.944
291.888
291.859
291.844
293.441
293.247
293.057
292.906
292.776
292.668
292.567
292.47
292.374
292.284
292.21
292.157
292.132
292.124
293.727
293.538
293.34
293.185
293.047
292.934
292.83
292.733
292.641
292.556
292.486
292.436
292.413
292.4
294.009
293.829
293.631
293.476
293.333
293.217
293.11
293.013
292.922
292.84
292.771
292.722
292.702
292.675
294.284
294.119
293.927
293.775
293.631
293.514
293.406
293.313
293.227
293.148
293.08
293.028
293.007
292.968
294.558
294.412
294.237
294.094
293.957
293.842
293.734
293.64
293.552
293.471
293.401
293.34
293.31
293.261
294.823
294.697
294.547
294.417
294.292
294.185
294.084
293.992
293.904
293.818
293.742
293.677
293.629
293.584
291.79
291.659
291.537
291.395
291.269
291.132
290.998
290.845
290.687
290.522
290.371
290.204
290.086
289.967
292.042
291.916
291.786
291.638
291.502
291.359
291.216
291.059
290.899
290.737
290.599
290.472
290.38
290.288
292.231
292.097
291.972
291.828
291.697
291.562
291.426
291.273
291.116
290.96
290.828
290.717
290.63
290.558
292.427
292.277
292.144
292.002
291.874
291.749
291.624
291.484
291.335
291.187
291.059
290.961
290.877
290.817
292.635
292.464
292.312
292.169
292.046
291.933
291.819
291.692
291.555
291.418
291.296
291.204
291.127
291.066
292.86
292.671
292.504
292.358
292.235
292.124
292.016
291.901
291.776
291.649
291.537
291.449
291.381
291.325
293.104
292.906
292.725
292.571
292.441
292.329
292.222
292.113
291.999
291.883
291.78
291.697
291.636
291.589
293.362
293.161
292.968
292.807
292.667
292.55
292.441
292.335
292.228
292.122
292.027
291.949
291.893
291.849
293.62
293.421
293.222
293.056
292.909
292.785
292.674
292.569
292.467
292.367
292.278
292.201
292.148
292.107
293.874
293.681
293.479
293.312
293.159
293.033
292.919
292.816
292.718
292.623
292.536
292.46
292.407
292.371
294.125
293.942
293.739
293.575
293.421
293.296
293.181
293.078
292.981
292.887
292.8
292.724
292.674
292.637
294.371
294.203
294.005
293.846
293.696
293.573
293.461
293.362
293.266
293.171
293.081
293.002
292.955
292.914
294.63
294.481
294.297
294.15
294.007
293.887
293.774
293.67
293.568
293.467
293.373
293.289
293.237
293.19
294.9
294.758
294.598
294.465
294.333
294.218
294.105
293.999
293.893
293.79
293.693
293.608
293.544
293.5
291.958
291.83
291.707
291.569
291.443
291.307
291.175
291.028
290.879
290.72
290.564
290.385
290.245
290.109
292.212
292.069
291.933
291.788
291.657
291.521
291.386
291.238
291.084
290.923
290.771
290.626
290.498
290.388
292.403
292.246
292.111
291.965
291.837
291.71
291.583
291.44
291.287
291.129
290.979
290.848
290.73
290.633
292.615
292.441
292.292
292.14
292.011
291.887
291.766
291.632
291.485
291.332
291.187
291.067
290.957
290.873
292.831
292.639
292.471
292.313
292.179
292.058
291.941
291.815
291.678
291.536
291.4
291.288
291.187
291.107
293.058
292.856
292.672
292.506
292.364
292.238
292.12
291.999
291.87
291.74
291.617
291.514
291.423
291.351
293.293
293.088
292.892
292.716
292.563
292.43
292.308
292.189
292.069
291.949
291.839
291.744
291.666
291.6
293.528
293.324
293.121
292.939
292.777
292.637
292.512
292.394
292.281
292.17
292.07
291.982
291.913
291.852
293.758
293.559
293.354
293.169
293.001
292.858
292.731
292.616
292.507
292.402
292.309
292.224
292.159
292.102
293.982
293.792
293.585
293.404
293.235
293.092
292.967
292.855
292.75
292.648
292.555
292.471
292.408
292.359
294.208
294.029
293.824
293.649
293.485
293.347
293.223
293.112
293.006
292.902
292.806
292.721
292.661
292.619
294.437
294.269
294.069
293.907
293.752
293.62
293.498
293.387
293.278
293.171
293.071
292.982
292.928
292.885
294.695
294.546
294.359
294.205
294.054
293.921
293.794
293.675
293.56
293.448
293.343
293.249
293.195
293.146
294.979
294.828
294.656
294.507
294.362
294.23
294.101
293.981
293.861
293.746
293.638
293.546
293.486
293.437
292.135
291.986
291.851
291.707
291.571
291.43
291.293
291.149
291.009
290.867
290.726
290.564
290.425
290.291
292.404
292.228
292.077
291.919
291.779
291.635
291.496
291.352
291.205
291.056
290.914
290.778
290.645
290.535
292.591
292.41
292.256
292.095
291.955
291.817
291.684
291.541
291.394
291.244
291.1
290.974
290.848
290.746
292.806
292.617
292.447
292.277
292.129
291.989
291.856
291.718
291.573
291.427
291.286
291.166
291.049
290.957
293.017
292.816
292.631
292.452
292.296
292.153
292.02
291.885
291.746
291.608
291.475
291.362
291.253
291.166
293.237
293.03
292.831
292.641
292.474
292.323
292.186
292.053
291.92
291.79
291.668
291.563
291.466
291.385
293.458
293.248
293.038
292.84
292.661
292.503
292.362
292.23
292.102
291.981
291.87
291.773
291.689
291.613
293.672
293.462
293.247
293.046
292.861
292.7
292.556
292.425
292.302
292.187
292.086
291.995
291.921
291.849
293.879
293.675
293.46
293.26
293.075
292.913
292.769
292.64
292.522
292.412
292.316
292.228
292.158
292.093
294.078
293.885
293.672
293.479
293.298
293.141
293.001
292.877
292.764
292.654
292.559
292.47
292.404
292.348
294.285
294.105
293.898
293.715
293.541
293.39
293.254
293.131
293.017
292.906
292.807
292.718
292.655
292.608
294.501
294.329
294.127
293.958
293.797
293.655
293.523
293.4
293.283
293.169
293.066
292.973
292.915
292.869
294.751
294.594
294.401
294.24
294.081
293.938
293.802
293.673
293.549
293.429
293.32
293.224
293.169
293.118
295.027
294.867
294.679
294.516
294.358
294.214
294.076
293.945
293.818
293.698
293.587
293.496
293.439
293.385
289.471
289.175
288.581
287.661
286.735
285.809
289.104
288.578
287.881
287.032
286.369
285.663
289.142
288.492
287.738
286.98
286.421
285.812
289.151
288.471
287.709
286.963
286.401
285.836
289.136
288.47
287.756
287.067
286.553
286.056
289.096
288.448
287.799
287.19
286.731
286.089
289.056
288.433
287.852
287.327
286.941
286.26
288.975
288.371
287.819
287.328
286.883
286.036
288.856
288.244
287.692
287.119
286.52
285.603
288.712
288.066
287.47
286.804
286.135
285.131
288.601
287.935
287.303
286.549
285.812
284.595
288.568
287.852
287.178
286.288
285.5
284.163
288.648
287.927
287.347
286.46
285.705
284.375
288.36
287.689
287.028
286.331
286.003
285.058
289.908
289.789
289.436
288.822
287.876
286.977
289.694
289.401
288.934
288.336
287.542
286.902
289.745
289.341
288.805
288.232
287.559
286.998
289.746
289.278
288.679
288.064
287.435
286.976
289.71
289.187
288.533
287.883
287.343
286.98
289.617
289.036
288.359
287.709
287.206
286.851
289.512
288.896
288.24
287.634
287.157
286.782
289.392
288.755
288.134
287.538
287.025
286.498
289.262
288.612
287.998
287.347
286.701
285.947
289.105
288.419
287.776
287.03
286.268
285.373
288.938
288.247
287.601
286.803
285.925
284.93
288.813
288.135
287.482
286.669
285.762
284.774
288.825
288.203
287.636
286.874
285.958
284.983
288.537
287.96
287.316
286.678
286.158
285.536
290.338
290.259
290.055
289.694
289.011
288.169
290.18
289.974
289.614
289.183
288.617
287.89
290.236
289.988
289.6
289.13
288.544
287.833
290.214
289.925
289.489
288.976
288.379
287.69
290.157
289.809
289.317
288.757
288.169
287.508
290.039
289.615
289.065
288.473
287.895
287.268
289.9
289.412
288.833
288.24
287.687
287.087
289.764
289.224
288.645
288.045
287.481
286.813
289.632
289.061
288.483
287.839
287.188
286.335
289.5
288.875
288.263
287.533
286.788
285.836
289.353
288.695
288.069
287.317
286.512
285.512
289.188
288.523
287.912
287.171
286.391
285.461
289.078
288.481
287.983
287.317
286.539
285.669
288.753
288.206
287.673
287.088
286.576
286.063
290.687
290.625
290.518
290.277
289.838
289.212
290.542
290.351
290.085
289.769
289.357
288.742
290.544
290.343
290.053
289.674
289.135
288.443
290.479
290.262
289.931
289.51
288.901
288.147
290.4
290.154
289.781
289.308
288.648
287.842
290.283
289.987
289.558
289.033
288.34
287.473
290.143
289.788
289.297
288.74
288.027
287.118
289.998
289.582
289.067
288.473
287.75
286.83
289.864
289.402
288.868
288.244
287.518
286.56
289.741
289.222
288.66
287.976
287.233
286.271
289.622
289.063
288.48
287.791
287.042
286.064
289.474
288.884
288.298
287.623
286.889
285.996
289.325