/*--------------------------------*- C++ -*----------------------------------*\
| =========                 |                                                 |
| \\      /  F ield         | OpenFOAM: The Open Source CFD Toolbox           |
|  \\    /   O peration     | Version:  v2106                                 |
|   \\  /    A nd           | Website:  www.openfoam.com                      |
|    \\/     M anipulation  |                                                 |
\*---------------------------------------------------------------------------*/
FoamFile
{
    version     2.0;
    format      ascii;
    arch        "LSB;label=32;scalar=64";
    class       volVectorField;
    location    "0.00012";
    object      U;
}
// * * * * * * * * * * * * * * * * * * * * * * * * * * * * * * * * * * * * * //

dimensions      [0 1 -1 0 0 0 0];

internalField   nonuniform List<vector> 
18069
(
(1.62775e-13 2.7151e-13 1.19329e-12)
(3.46938e-13 -8.72631e-14 1.21288e-12)
(5.97712e-13 -7.02652e-14 1.09543e-12)
(4.27776e-13 1.03314e-13 9.99559e-13)
(4.62387e-13 2.91007e-13 8.30412e-13)
(2.46787e-13 1.71959e-13 8.40396e-13)
(3.41095e-14 -1.24396e-13 7.61675e-13)
(-5.57702e-14 -2.35783e-13 5.5713e-13)
(-1.58063e-13 -1.04523e-13 5.88835e-13)
(-1.30988e-13 -2.94969e-13 5.15799e-13)
(-2.18515e-13 -1.4471e-13 5.66532e-13)
(-6.07711e-14 -2.93056e-14 7.0058e-13)
(-4.03542e-14 5.56328e-14 6.62632e-13)
(-4.40564e-13 2.56124e-13 6.46893e-13)
(9.80637e-14 5.7446e-13 1.24081e-12)
(2.03816e-13 2.62255e-13 1.16507e-12)
(4.33291e-13 1.61263e-13 1.0187e-12)
(5.9196e-13 1.1675e-13 9.06531e-13)
(5.28475e-13 2.03538e-13 6.69723e-13)
(1.10408e-13 1.19682e-13 6.20561e-13)
(-1.757e-13 4.1884e-14 4.86574e-13)
(-5.58832e-14 2.48588e-14 4.2621e-13)
(-1.81774e-13 2.95561e-13 3.89434e-13)
(-2.71176e-13 3.71056e-14 3.06877e-13)
(-1.05979e-13 -1.46984e-13 4.03287e-13)
(-3.6985e-14 -1.2109e-13 4.78212e-13)
(-1.21216e-14 -1.98065e-13 4.70985e-13)
(-5.02927e-14 -4.71393e-15 5.89895e-13)
(-1.16367e-13 5.86784e-13 1.13072e-12)
(-7.77086e-15 4.84284e-13 1.00855e-12)
(4.3396e-13 4.87862e-13 8.89892e-13)
(4.81644e-13 2.44671e-13 8.32685e-13)
(5.56244e-13 2.11764e-13 6.38943e-13)
(1.63162e-13 3.18197e-13 5.20858e-13)
(-1.44985e-13 4.28084e-13 4.56397e-13)
(1.30099e-13 4.59236e-13 4.63433e-13)
(-2.0719e-13 5.12103e-13 2.40597e-13)
(-6.20222e-13 3.97323e-13 2.59778e-13)
(-3.14098e-13 9.88105e-14 2.39421e-13)
(-1.67521e-13 -9.8863e-14 2.81403e-13)
(-7.77676e-14 -9.94538e-14 3.00656e-13)
(6.45301e-14 4.19683e-14 4.32906e-13)
(-1.1951e-13 1.92058e-13 9.65324e-13)
(1.89856e-13 2.59127e-13 9.25814e-13)
(2.13487e-13 3.80632e-13 8.41118e-13)
(2.53869e-13 2.00691e-13 7.75702e-13)
(7.8486e-13 2.64696e-13 6.82745e-13)
(3.72326e-13 4.43751e-13 5.88173e-13)
(-6.28242e-14 5.11242e-13 5.02218e-13)
(8.32478e-15 4.77805e-13 4.64022e-13)
(-2.98314e-13 3.57605e-13 2.79432e-13)
(-8.41974e-13 3.11043e-13 1.96231e-13)
(-5.64516e-13 2.27602e-13 7.21383e-14)
(-2.1524e-13 5.82351e-14 8.31023e-14)
(4.84488e-14 1.03677e-13 1.90429e-13)
(3.4354e-14 -1.09383e-13 3.28867e-13)
(-2.6939e-13 6.43667e-14 8.5719e-13)
(1.99549e-13 1.05133e-13 7.0927e-13)
(4.10798e-13 3.78405e-13 7.40757e-13)
(3.64803e-13 6.77608e-13 7.38768e-13)
(6.27314e-13 5.73862e-13 6.58312e-13)
(1.97787e-13 1.40716e-13 5.69498e-13)
(-7.50072e-14 1.06167e-13 4.28646e-13)
(-1.80189e-14 1.31247e-13 3.62889e-13)
(-2.63354e-13 1.22637e-13 3.15768e-13)
(-6.09385e-13 2.85379e-13 1.37031e-13)
(-4.93045e-13 5.17672e-13 7.83573e-14)
(-1.94525e-13 5.06147e-13 -4.10971e-15)
(-1.61454e-13 4.00955e-13 9.13297e-14)
(-7.37764e-14 9.24288e-14 1.85417e-13)
(-2.77676e-13 1.02673e-13 7.71931e-13)
(3.45021e-13 1.66476e-13 6.73874e-13)
(5.66511e-13 1.11425e-13 6.92745e-13)
(5.47101e-13 1.78581e-13 6.87125e-13)
(2.95815e-13 2.6767e-13 6.06139e-13)
(1.14213e-15 7.56084e-14 4.89921e-13)
(7.7002e-15 2.91376e-13 4.25961e-13)
(-6.61797e-14 3.73761e-13 3.41617e-13)
(-2.75939e-13 9.89711e-14 2.67075e-13)
(-4.29466e-13 -1.99461e-14 1.25551e-13)
(-4.3592e-13 8.37765e-14 2.54559e-14)
(-2.85163e-13 1.39847e-13 -2.87907e-14)
(-2.46185e-13 1.21287e-13 1.54424e-13)
(-2.71265e-13 7.21769e-14 2.27795e-13)
(-2.86741e-13 1.37053e-13 6.60426e-13)
(1.78536e-13 1.43915e-13 5.15744e-13)
(4.1979e-13 -6.25552e-14 6.13839e-13)
(5.42923e-13 -1.86546e-13 6.03917e-13)
(4.75438e-13 -2.88812e-14 4.66585e-13)
(2.17884e-13 8.12408e-14 4.03107e-13)
(4.72801e-14 2.46898e-13 3.88847e-13)
(-1.59528e-13 1.05102e-13 2.75882e-13)
(-5.69694e-13 7.4312e-14 2.03004e-13)
(-5.66407e-13 -1.02469e-13 1.30698e-13)
(-3.60985e-13 -2.07998e-13 7.51607e-14)
(-1.7779e-13 -3.24144e-13 3.10868e-14)
(-1.32287e-13 -3.12367e-13 9.34117e-14)
(-2.94336e-13 -2.91852e-13 1.838e-13)
(-2.11768e-13 1.82165e-13 6.38711e-13)
(1.83821e-13 2.2442e-13 4.37377e-13)
(3.78622e-13 3.33773e-13 5.158e-13)
(4.08791e-13 1.81272e-13 5.6316e-13)
(5.00129e-13 1.71789e-13 4.34937e-13)
(4.39342e-13 1.62311e-13 3.79028e-13)
(6.8459e-15 2.47481e-13 3.35673e-13)
(-2.79441e-13 7.30222e-14 1.72587e-13)
(-5.35598e-13 2.85637e-13 1.34666e-13)
(-6.73777e-13 2.0282e-13 5.67845e-14)
(-4.29926e-13 1.62786e-13 5.13649e-14)
(-3.3963e-13 -9.93758e-14 -3.22028e-15)
(-3.08305e-13 -2.36192e-13 2.04174e-14)
(-2.00232e-13 -2.50317e-13 1.48741e-13)
(-9.30026e-14 7.67985e-14 7.58169e-13)
(2.83499e-13 2.04025e-14 4.9775e-13)
(5.11198e-13 3.50884e-14 4.91959e-13)
(4.55753e-13 -1.05985e-14 5.02415e-13)
(4.35575e-13 -1.67058e-14 4.34795e-13)
(1.71827e-13 1.3487e-13 3.69796e-13)
(4.12812e-14 -9.44352e-14 3.11977e-13)
(1.7722e-14 6.05288e-14 1.71858e-13)
(-4.17273e-13 3.52109e-13 1.19837e-13)
(-8.50703e-13 1.86817e-13 6.13476e-14)
(-6.48146e-13 3.18725e-14 4.93625e-14)
(-4.83251e-13 -2.61021e-15 -5.72698e-14)
(-3.79415e-13 7.02292e-14 4.41256e-14)
(-2.82138e-13 -1.01764e-13 1.9939e-13)
(-1.37334e-14 -2.47324e-14 7.73082e-13)
(2.4703e-13 -1.9502e-13 5.18727e-13)
(4.12608e-13 -5.38965e-13 5.03905e-13)
(3.12145e-13 -5.57642e-13 4.57012e-13)
(5.87161e-13 -7.07723e-13 3.88945e-13)
(2.51633e-13 -3.85906e-13 3.05506e-13)
(4.49835e-14 -5.37475e-13 2.22451e-13)
(7.12754e-14 -4.70673e-13 1.53521e-13)
(-4.05105e-13 -2.67318e-13 1.15858e-13)
(-9.73868e-13 -1.48127e-13 3.04065e-14)
(-5.85724e-13 -4.69149e-13 -6.77376e-15)
(-3.47387e-13 -3.01519e-13 -9.52299e-14)
(-3.42465e-13 -2.79618e-13 -4.21187e-14)
(-3.78786e-13 -1.45309e-13 1.69056e-13)
(-2.05474e-13 1.7628e-14 6.82794e-13)
(7.93134e-15 5.65456e-15 5.29979e-13)
(1.96812e-13 -1.73214e-13 4.76279e-13)
(2.14572e-13 -3.02399e-13 3.40051e-13)
(6.0687e-13 -4.23157e-13 3.31722e-13)
(2.30707e-13 -6.09086e-13 2.18946e-13)
(1.42499e-14 -3.26936e-13 1.52619e-13)
(1.96707e-13 -2.80886e-13 8.74091e-14)
(-1.13888e-13 -5.13724e-13 -6.15038e-14)
(-1.00645e-12 -2.8297e-13 -8.94242e-14)
(-6.86674e-13 -1.97238e-13 -7.68593e-14)
(-3.90619e-13 -3.34574e-13 -1.1383e-13)
(-2.31442e-13 -2.74071e-13 -7.58219e-14)
(-2.70263e-13 -1.12147e-13 1.09207e-13)
(-2.66158e-13 2.84746e-13 7.07207e-13)
(-3.71763e-14 3.11489e-13 6.13223e-13)
(3.16014e-16 8.57958e-14 4.78257e-13)
(-1.47977e-14 -9.7593e-14 3.40957e-13)
(2.54929e-13 -2.33081e-13 2.06743e-13)
(2.64063e-13 -4.46393e-13 2.23874e-13)
(1.11627e-13 -4.23842e-13 1.59166e-13)
(7.11772e-14 -4.64618e-13 3.15122e-16)
(-2.51966e-13 -5.70515e-13 -4.82505e-14)
(-6.76891e-13 -4.20218e-13 -1.13433e-13)
(-6.21278e-13 -7.63791e-14 -1.63132e-13)
(-2.92848e-13 -4.47869e-14 -9.90376e-14)
(-1.61584e-13 1.26923e-13 7.637e-15)
(-2.98592e-13 -2.03498e-14 1.35431e-13)
(-1.76083e-13 -9.12248e-14 7.77468e-13)
(-2.38768e-13 1.81978e-13 6.47773e-13)
(-2.97224e-13 2.0983e-13 5.18675e-13)
(-2.88375e-14 2.54524e-13 3.67231e-13)
(-2.87148e-14 -4.4323e-14 3.26826e-13)
(-1.51234e-13 -3.32717e-13 3.60941e-13)
(-4.41611e-14 -4.98044e-13 2.50109e-13)
(-2.52877e-14 -5.57262e-13 6.68713e-14)
(-8.86037e-14 -6.58784e-13 6.05817e-14)
(-2.67876e-13 -5.28616e-13 9.27274e-15)
(-3.88413e-13 -1.54191e-13 -1.13737e-13)
(-1.27472e-13 5.24686e-14 -5.55592e-15)
(-2.29478e-13 6.32539e-14 9.31721e-14)
(-2.56025e-13 -1.99841e-13 1.70204e-13)
(-9.3947e-14 -7.97391e-13 7.65356e-13)
(1.76302e-13 -4.25999e-13 6.57485e-13)
(1.01336e-14 -1.48183e-13 6.28744e-13)
(-1.30626e-13 4.44046e-14 5.61561e-13)
(-2.84294e-13 8.52207e-14 5.17663e-13)
(-7.56337e-14 -1.1758e-13 5.72356e-13)
(6.36579e-15 -9.27233e-14 4.751e-13)
(-1.18783e-13 -4.18427e-14 2.21985e-13)
(-2.77788e-13 -1.57438e-13 1.3168e-13)
(-1.53414e-13 -2.55004e-13 1.07073e-13)
(-6.0623e-14 -5.52427e-14 1.41731e-13)
(-1.87021e-13 1.99363e-13 1.487e-13)
(-4.52812e-13 2.17273e-13 1.99295e-13)
(-3.69332e-13 6.57173e-14 2.13995e-13)
(-8.47878e-14 2.21272e-13 1.55699e-12)
(2.00671e-13 1.24482e-13 1.53823e-12)
(1.63921e-13 -3.44552e-14 1.53393e-12)
(-3.94321e-15 -6.67224e-14 1.46245e-12)
(9.20157e-14 -1.57277e-13 1.4369e-12)
(-1.19901e-14 -1.749e-13 1.19476e-12)
(-3.1995e-13 -2.0743e-13 1.15767e-12)
(-2.86091e-13 -1.86538e-13 1.15467e-12)
(-2.69637e-13 -2.69486e-13 1.14326e-12)
(-3.46692e-13 -5.12632e-13 1.15686e-12)
(4.97528e-14 -6.46766e-13 1.07426e-12)
(-1.35067e-13 -6.1876e-13 9.95813e-13)
(-2.54189e-13 -5.63751e-13 8.35697e-13)
(-2.0943e-13 -4.40439e-13 7.5156e-13)
(-4.03088e-13 3.65988e-13 1.6209e-12)
(-1.27663e-13 7.24464e-14 1.59392e-12)
(1.6346e-13 -2.11031e-13 1.60149e-12)
(-8.38382e-15 -1.58306e-13 1.55154e-12)
(2.04295e-14 -3.44711e-13 1.41736e-12)
(-6.82259e-14 -4.07372e-13 1.22511e-12)
(-2.31474e-13 -3.18378e-13 1.25005e-12)
(-3.16282e-13 -1.79931e-13 1.16625e-12)
(-3.58857e-13 -4.54913e-13 1.12839e-12)
(-3.21933e-13 -3.85295e-13 1.22078e-12)
(-1.31714e-13 -4.63304e-13 1.07683e-12)
(-2.0804e-13 -6.05452e-13 9.59022e-13)
(-1.84636e-14 -5.21813e-13 8.1158e-13)
(-5.28451e-15 -2.69704e-13 6.40519e-13)
(-3.59524e-13 1.46071e-13 1.53603e-12)
(-1.99434e-13 2.48438e-13 1.57547e-12)
(-1.11111e-14 1.59527e-13 1.58561e-12)
(1.63236e-15 -8.96597e-14 1.49808e-12)
(-1.52543e-13 -1.49042e-13 1.35798e-12)
(-9.58439e-14 -8.89202e-14 1.21969e-12)
(-5.19727e-14 -5.7819e-14 1.23587e-12)
(-3.30124e-13 4.55558e-14 1.10997e-12)
(-6.06047e-13 -1.17041e-13 1.05438e-12)
(-3.15374e-13 -2.14582e-13 1.07628e-12)
(-1.8851e-13 -3.50434e-13 9.28845e-13)
(3.81537e-15 -2.6543e-13 8.47216e-13)
(2.19116e-13 7.65214e-14 8.68002e-13)
(9.14998e-14 -1.90552e-14 7.69954e-13)
(-4.29031e-13 3.4382e-13 1.53038e-12)
(-1.14448e-13 1.8155e-13 1.51497e-12)
(-2.01683e-13 2.63725e-13 1.45655e-12)
(-2.42344e-13 1.38809e-13 1.46402e-12)
(-4.43863e-14 1.29932e-13 1.30001e-12)
(3.69401e-15 -1.10427e-13 1.04868e-12)
(-1.52773e-13 -2.96109e-13 1.10043e-12)
(-3.82001e-13 -4.37864e-13 1.00976e-12)
(-6.06713e-13 -1.44761e-13 9.60946e-13)
(-5.45114e-13 -2.73849e-13 9.88915e-13)
(-1.95484e-13 -1.3654e-13 9.40516e-13)
(2.61583e-13 -1.01021e-13 8.96039e-13)
(1.7687e-13 3.9879e-14 8.74634e-13)
(5.10875e-14 -1.11336e-13 8.27482e-13)
(-3.93578e-13 5.95492e-14 1.50524e-12)
(-2.42704e-13 1.4741e-13 1.48751e-12)
(-6.27093e-14 2.10019e-13 1.3915e-12)
(-2.57447e-13 2.64998e-13 1.29323e-12)
(-2.53558e-13 2.04909e-13 1.10515e-12)
(-3.07102e-13 -1.60645e-13 9.46698e-13)
(-3.50588e-13 -2.03353e-13 9.80894e-13)
(-3.05197e-13 -2.45332e-13 9.25199e-13)
(-5.20985e-13 -2.30138e-13 7.7179e-13)
(-6.06618e-13 -2.70962e-13 8.58301e-13)
(-9.24397e-14 -1.72455e-13 8.61558e-13)
(3.49541e-13 -1.05552e-13 8.08666e-13)
(2.84123e-13 1.97618e-13 8.08183e-13)
(-5.9213e-15 2.20872e-13 8.41082e-13)
(-1.62912e-13 -1.79996e-13 1.30166e-12)
(-1.4502e-13 3.58747e-14 1.28913e-12)
(5.10863e-15 1.14707e-13 1.22172e-12)
(-2.83228e-13 4.40707e-14 1.06062e-12)
(-4.43181e-13 -1.62716e-13 9.36649e-13)
(-3.63633e-13 -2.42749e-13 7.30406e-13)
(-2.82338e-13 -9.33586e-14 6.68232e-13)
(-3.26117e-13 -2.08848e-13 6.08406e-13)
(-5.29996e-13 -1.66826e-13 6.46458e-13)
(-6.14205e-13 -5.58166e-14 7.07972e-13)
(-3.62484e-15 5.63783e-15 7.5018e-13)
(5.7943e-13 2.41952e-13 7.47999e-13)
(4.88056e-13 2.7441e-14 6.53673e-13)
(-1.05065e-13 2.69172e-14 6.24138e-13)
(-8.50293e-14 -1.03869e-13 1.33253e-12)
(4.56774e-14 -2.21611e-13 1.33711e-12)
(3.71413e-14 -2.6914e-13 1.20873e-12)
(-6.15976e-13 -1.12296e-13 1.07834e-12)
(-4.22663e-13 -2.57499e-13 9.15478e-13)
(-1.80397e-13 -1.14337e-13 6.90675e-13)
(-3.43466e-13 -1.54001e-13 5.13189e-13)
(-3.08717e-13 -3.06562e-13 4.48454e-13)
(-2.69147e-13 -2.06164e-13 5.60573e-13)
(-3.94415e-13 -1.83771e-14 6.59328e-13)
(3.72899e-14 1.0911e-13 6.71794e-13)
(4.82695e-13 1.40376e-13 7.02559e-13)
(2.65169e-13 -1.85593e-13 7.13428e-13)
(-1.9793e-13 -2.64936e-13 7.06709e-13)
(-1.90228e-13 1.56135e-13 1.22662e-12)
(-2.27973e-13 8.32528e-15 1.17667e-12)
(1.7359e-13 -1.10812e-13 1.16659e-12)
(-4.82796e-13 -6.69786e-14 1.07099e-12)
(-3.43927e-13 1.22436e-13 8.72042e-13)
(-2.14365e-13 4.28363e-14 5.71164e-13)
(-4.49744e-13 -2.1138e-14 4.15281e-13)
(-3.92051e-13 -4.42255e-14 4.23494e-13)
(-2.56336e-13 -4.22984e-14 5.15441e-13)
(-2.60085e-13 2.17077e-14 6.85981e-13)
(1.29484e-13 2.9515e-14 6.39624e-13)
(2.1623e-13 -1.67842e-13 6.96869e-13)
(6.12293e-14 -1.19908e-13 7.5709e-13)
(-1.55752e-13 -1.54258e-13 7.62185e-13)
(-1.31047e-13 3.77261e-13 1.17204e-12)
(-4.37519e-13 2.75505e-13 1.12323e-12)
(-8.98807e-14 1.00748e-13 1.06014e-12)
(-1.54023e-13 -9.10276e-14 9.37706e-13)
(-3.26128e-13 8.5921e-14 7.27084e-13)
(-3.89e-13 2.1644e-14 5.54212e-13)
(-4.28184e-13 4.00077e-14 4.19959e-13)
(-2.87345e-13 1.90341e-13 4.09719e-13)
(-2.51667e-13 1.81048e-13 4.61011e-13)
(-3.8499e-13 9.85144e-14 5.65953e-13)
(-8.36812e-14 -9.77135e-14 5.43405e-13)
(1.54273e-13 -3.56149e-13 6.9622e-13)
(1.8217e-13 -2.18706e-13 7.15733e-13)
(-4.08404e-14 -1.41704e-13 7.42484e-13)
(-3.5896e-13 9.93006e-15 1.12754e-12)
(-5.54056e-13 -1.00833e-13 1.14811e-12)
(-2.10008e-13 -2.37981e-13 1.04888e-12)
(-1.97153e-13 -3.2838e-13 1.01267e-12)
(-2.88822e-13 -2.81031e-13 8.19723e-13)
(-3.85775e-13 -2.07065e-13 5.98803e-13)
(-2.95546e-13 -1.90786e-13 5.43681e-13)
(-2.43355e-13 -1.78367e-14 4.98061e-13)
(-4.00747e-13 -9.55605e-14 4.53887e-13)
(-4.47241e-13 -1.13046e-13 5.49591e-13)
(-1.63485e-13 -1.74118e-13 6.36253e-13)
(3.3995e-14 -1.26897e-13 8.01705e-13)
(1.4033e-13 -4.79744e-13 8.61414e-13)
(-1.68442e-14 -3.8713e-13 7.74739e-13)
(-6.58405e-13 -3.7583e-13 1.18242e-12)
(-4.2562e-13 -2.73179e-13 1.22476e-12)
(-3.15962e-13 -2.7095e-13 1.136e-12)
(-1.25064e-13 -2.55322e-13 1.03957e-12)
(-3.17782e-13 -2.71261e-13 9.06658e-13)
(-4.4491e-13 -3.78532e-13 7.1265e-13)
(-2.47981e-13 -2.60557e-13 7.36015e-13)
(-2.5234e-13 -2.19046e-13 6.3742e-13)
(-3.08051e-13 -2.79606e-13 5.60031e-13)
(-2.23861e-13 -1.04683e-13 6.01163e-13)
(-1.30026e-13 -2.15751e-14 6.96717e-13)
(-1.25552e-13 1.37892e-14 8.19576e-13)
(3.66603e-14 -4.91433e-14 8.60226e-13)
(3.17477e-14 -8.38624e-14 7.57726e-13)
(-4.63007e-13 -1.35217e-13 9.94715e-13)
(-4.34183e-13 -1.98338e-13 1.05886e-12)
(-2.46022e-13 -1.14901e-13 1.06322e-12)
(-1.65042e-13 2.79143e-14 1.03696e-12)
(-2.84367e-13 7.64909e-14 9.55241e-13)
(-2.45461e-13 4.27161e-13 7.68382e-13)
(-2.59039e-13 4.64144e-13 7.53562e-13)
(-2.14537e-13 2.53342e-13 6.76745e-13)
(-2.88411e-13 4.38185e-13 6.00352e-13)
(-3.77368e-13 2.77498e-13 6.71666e-13)
(-1.31059e-13 1.6458e-13 7.96942e-13)
(-7.02892e-14 2.49451e-13 8.63259e-13)
(8.71886e-14 1.54661e-13 8.31917e-13)
(-2.09019e-14 1.40161e-14 6.5299e-13)
(-3.4539e-13 -2.87951e-13 8.2065e-13)
(-3.81739e-13 -1.69972e-13 8.10425e-13)
(-7.40584e-14 -2.41502e-14 9.63244e-13)
(-4.3392e-14 -1.10311e-13 1.00309e-12)
(1.07979e-13 8.51641e-14 8.60369e-13)
(-2.15387e-13 4.51895e-13 7.84807e-13)
(-5.23618e-13 4.96856e-13 8.08527e-13)
(-2.89448e-13 3.34897e-13 8.10481e-13)
(-1.21122e-13 1.74093e-13 7.2045e-13)
(-4.8803e-13 3.63588e-13 8.30797e-13)
(-2.48725e-13 4.15308e-13 8.65052e-13)
(-1.69124e-13 3.46527e-13 8.24996e-13)
(-2.52611e-13 9.51636e-14 7.0147e-13)
(-2.33628e-13 -1.30048e-13 6.21109e-13)
(-4.03944e-13 -4.03597e-13 8.79323e-13)
(-2.12145e-13 -2.63494e-13 7.8412e-13)
(-7.70001e-14 -2.14628e-13 8.24903e-13)
(-9.28514e-15 -1.85267e-14 7.56344e-13)
(2.48853e-13 -3.34138e-14 7.23477e-13)
(-3.92802e-14 4.45852e-14 7.13128e-13)
(-4.09724e-13 -2.13568e-14 6.41646e-13)
(-4.11669e-13 4.01755e-14 7.25246e-13)
(-2.53718e-13 4.06022e-15 8.05815e-13)
(-3.00455e-13 1.3794e-13 8.85014e-13)
(-3.61478e-13 2.5214e-13 8.0309e-13)
(-2.85694e-13 2.574e-13 6.4604e-13)
(-4.11586e-13 6.68771e-14 5.95005e-13)
(3.99511e-14 2.32302e-13 6.75002e-13)
(-1.83106e-13 3.1441e-13 1.5361e-12)
(9.46176e-14 3.4123e-13 1.50181e-12)
(1.12504e-13 3.96559e-13 1.41989e-12)
(-7.46983e-15 3.30911e-13 1.42684e-12)
(-3.7345e-13 1.32978e-14 1.37933e-12)
(-5.07535e-13 -1.49117e-13 1.34757e-12)
(-3.28268e-13 -1.43333e-13 1.24499e-12)
(-8.94605e-14 -3.21696e-13 1.2447e-12)
(-2.11351e-13 -2.975e-13 1.28966e-12)
(-4.39431e-13 -2.66566e-13 1.25388e-12)
(-4.62874e-13 -3.24309e-13 1.16873e-12)
(-5.00263e-13 -2.62336e-13 1.01131e-12)
(-3.79907e-13 -3.15446e-13 1.03278e-12)
(-2.55762e-13 -5.3075e-13 1.1007e-12)
(-1.33466e-13 1.64087e-13 1.49746e-12)
(2.27152e-14 2.06298e-13 1.53587e-12)
(9.9175e-14 1.73906e-13 1.48753e-12)
(-3.71065e-13 1.21114e-13 1.43821e-12)
(-5.02297e-13 -2.19892e-13 1.47509e-12)
(-3.88696e-13 -2.17541e-14 1.39507e-12)
(-4.03663e-13 9.33513e-14 1.26889e-12)
(-3.90346e-13 -1.28127e-13 1.25176e-12)
(-1.4836e-13 -3.08479e-13 1.26484e-12)
(-2.74535e-13 -1.99156e-13 1.24636e-12)
(-5.46867e-13 -3.25955e-13 1.26396e-12)
(-4.91271e-13 -3.32467e-13 1.09394e-12)
(-5.04224e-13 -2.96166e-13 1.09894e-12)
(-4.2579e-13 -3.84996e-13 1.07251e-12)
(5.51466e-14 -8.42179e-14 1.41144e-12)
(1.45944e-13 -5.05259e-14 1.4891e-12)
(5.33416e-14 -2.77642e-13 1.52169e-12)
(-2.90308e-13 -1.57e-13 1.46026e-12)
(-5.35092e-13 -2.64551e-14 1.44849e-12)
(-4.53138e-13 -2.1214e-13 1.391e-12)
(-4.62295e-13 -7.54897e-14 1.30664e-12)
(-4.36524e-13 1.34764e-14 1.25363e-12)
(-2.39521e-13 -4.71319e-14 1.27174e-12)
(-4.78154e-13 -2.58646e-13 1.25323e-12)
(-5.69613e-13 -3.10452e-13 1.25164e-12)
(-3.50296e-13 -2.80332e-13 1.16003e-12)
(-2.58176e-13 -7.48731e-14 1.05595e-12)
(-3.33703e-13 1.24016e-13 9.88032e-13)
(-7.51882e-14 2.89104e-13 1.40398e-12)
(-1.54797e-13 -1.43384e-13 1.42067e-12)
(-1.5323e-13 -5.19064e-13 1.32925e-12)
(-1.84126e-13 -5.60578e-13 1.31579e-12)
(-5.81216e-13 -4.06167e-13 1.34216e-12)
(-3.18964e-13 -5.63115e-13 1.26869e-12)
(-1.73463e-13 -4.40361e-13 1.1604e-12)
(-3.71486e-13 -3.87216e-13 1.15183e-12)
(-3.52377e-13 -5.43375e-13 1.19442e-12)
(-4.20786e-13 -3.8379e-13 1.1383e-12)
(-6.26132e-13 -4.75233e-14 1.11931e-12)
(-3.44761e-13 -2.99013e-13 1.01955e-12)
(1.48357e-13 -1.15422e-13 9.32076e-13)
(-1.28191e-13 1.26299e-13 8.74695e-13)
(-2.57466e-13 -2.71768e-13 1.36581e-12)
(-5.87417e-13 -3.82747e-13 1.36391e-12)
(-2.20827e-13 -3.42422e-13 1.26598e-12)
(-1.62003e-13 -6.06507e-13 1.2259e-12)
(-5.45583e-13 -5.57979e-13 1.19634e-12)
(-3.64488e-13 -7.28815e-13 1.19226e-12)
(-3.08235e-13 -9.88389e-13 1.14855e-12)
(-4.17113e-13 -8.74338e-13 1.11961e-12)
(-4.18782e-13 -5.78182e-13 1.12383e-12)
(-1.00681e-13 -6.74218e-13 1.07188e-12)
(-4.18568e-13 -3.18547e-13 1.03019e-12)
(-4.38551e-13 -1.94366e-13 9.36571e-13)
(2.69094e-13 -2.3871e-13 8.37403e-13)
(-1.03904e-14 -3.8188e-13 8.40106e-13)
(-4.1284e-13 -1.62261e-13 1.37471e-12)
(-3.06292e-13 -2.00066e-13 1.3295e-12)
(-3.36657e-13 -1.93435e-13 1.17021e-12)
(-3.00118e-13 -3.80681e-13 1.1224e-12)
(-6.69791e-13 -4.91416e-13 1.08551e-12)
(-6.06653e-13 -4.51304e-13 1.11938e-12)
(-3.62757e-13 -6.74036e-13 1.07115e-12)
(-1.64846e-13 -7.81106e-13 1.03564e-12)
(-1.40365e-13 -5.82449e-13 1.00971e-12)
(-2.56321e-13 -4.65251e-13 9.38315e-13)
(-1.05151e-14 -4.28811e-13 9.22913e-13)
(-3.21689e-13 -9.21393e-14 8.91179e-13)
(-8.08123e-14 -3.70988e-14 7.70371e-13)
(6.62611e-14 -1.85424e-13 7.9291e-13)
(-3.6649e-13 -2.33897e-13 1.35205e-12)
(-3.96604e-13 -2.81815e-13 1.28743e-12)
(-3.28229e-13 -2.22338e-13 1.21568e-12)
(-3.59174e-13 -1.45429e-13 1.13271e-12)
(-6.83469e-13 -3.55349e-13 1.09372e-12)
(-8.1841e-13 -3.50614e-13 1.09241e-12)
(-5.80421e-13 -3.89569e-13 1.01299e-12)
(-1.38461e-13 -4.18859e-13 9.82423e-13)
(4.06691e-14 -3.29092e-13 8.93371e-13)
(-1.08411e-13 -1.97627e-13 8.8215e-13)
(-1.46343e-13 -4.19531e-13 8.49174e-13)
(-3.10364e-15 -2.85084e-13 8.09272e-13)
(-9.20465e-14 -1.14668e-13 7.24965e-13)
(8.92967e-14 -9.54528e-14 6.99146e-13)
(-5.45342e-13 -1.66417e-13 1.19907e-12)
(-2.03533e-13 -2.28435e-13 1.19723e-12)
(-4.16627e-14 -7.53189e-14 1.09917e-12)
(-4.27989e-13 -1.58386e-13 9.89753e-13)
(-8.06717e-13 -2.44079e-13 1.02548e-12)
(-7.05475e-13 -1.47434e-13 1.01419e-12)
(-4.43384e-13 -2.29656e-14 9.86046e-13)
(-1.16205e-13 4.95366e-14 9.20179e-13)
(1.09606e-13 1.52072e-15 8.5806e-13)
(-1.9085e-13 -6.4282e-14 8.18977e-13)
(-3.32044e-13 -1.87447e-13 7.34123e-13)
(-9.50947e-15 -1.58511e-13 7.28702e-13)
(-1.04391e-14 -1.99503e-13 6.81114e-13)
(1.61555e-13 -1.1736e-13 6.73583e-13)
(-5.57121e-13 1.10512e-13 1.11337e-12)
(-3.14907e-13 3.12771e-14 1.1035e-12)
(-1.8965e-13 -1.69385e-13 1.02694e-12)
(-4.57056e-13 -4.31118e-14 9.48403e-13)
(-5.22223e-13 -2.65732e-14 9.80341e-13)
(-6.81747e-13 1.70611e-13 9.75634e-13)
(-4.15941e-13 2.60532e-13 9.16314e-13)
(-1.00739e-13 3.39809e-13 8.91747e-13)
(-2.14273e-14 2.38905e-13 8.33697e-13)
(-4.30602e-13 -4.28547e-14 8.19543e-13)
(-2.84145e-13 8.20026e-14 7.09716e-13)
(-1.42254e-14 1.31241e-13 7.45783e-13)
(8.20919e-14 4.39713e-15 6.81358e-13)
(5.85143e-14 -4.91251e-14 6.55209e-13)
(-4.57986e-13 -1.5732e-13 1.06869e-12)
(-4.36303e-13 -2.18746e-14 1.04905e-12)
(-1.56169e-13 -4.92383e-14 1.01683e-12)
(-2.89862e-13 1.03464e-15 8.82874e-13)
(-5.79577e-13 4.16544e-14 8.59973e-13)
(-4.58913e-13 7.92722e-14 9.16866e-13)
(-2.9428e-13 3.76543e-13 9.06473e-13)
(-2.50246e-13 3.56274e-13 8.67297e-13)
(-2.99996e-13 1.08313e-13 8.48588e-13)
(-4.0705e-13 1.19406e-13 8.00902e-13)
(-1.39799e-13 9.99704e-14 7.59213e-13)
(2.82091e-14 -1.20428e-13 7.34252e-13)
(-1.32387e-13 -7.22626e-14 6.7352e-13)
(-1.9766e-13 -3.17729e-13 6.18519e-13)
(-1.49271e-13 -4.44411e-13 1.01869e-12)
(-1.97572e-13 -1.78449e-14 1.06033e-12)
(-4.25784e-13 3.83569e-14 1.02588e-12)
(-4.13719e-13 -1.84574e-13 9.55772e-13)
(-3.61298e-13 -6.89148e-14 8.81703e-13)
(-2.46895e-13 5.85373e-14 9.88364e-13)
(-2.60008e-13 2.93671e-13 9.64844e-13)
(-3.37829e-13 1.57147e-13 9.27988e-13)
(-2.0348e-13 6.7869e-14 8.71853e-13)
(-3.332e-13 2.37462e-13 7.92277e-13)
(-5.01273e-13 1.39349e-13 7.23811e-13)
(-1.70517e-13 6.46409e-14 6.89594e-13)
(-1.68073e-13 -2.16667e-13 6.2995e-13)
(-3.08439e-13 -4.45859e-13 5.43087e-13)
(-3.26423e-14 -3.90685e-13 9.24956e-13)
(1.77403e-13 -5.26396e-13 9.98884e-13)
(-1.44021e-13 -2.49368e-13 9.47453e-13)
(-4.24343e-13 2.4008e-14 8.69174e-13)
(-3.80405e-13 -1.20992e-13 8.79493e-13)
(-7.21923e-14 -2.74438e-14 9.36146e-13)
(-2.09619e-13 2.46452e-14 9.37804e-13)
(-5.20654e-13 -3.27495e-14 9.18908e-13)
(-3.69854e-13 -7.0966e-14 8.3757e-13)
(-9.70267e-14 1.03775e-13 7.5308e-13)
(-3.20818e-13 2.37896e-13 7.20825e-13)
(-3.05751e-13 5.35719e-14 6.17147e-13)
(-4.98275e-13 1.72861e-15 5.35602e-13)
(-4.44391e-13 -2.88748e-13 4.75611e-13)
(-1.9905e-13 -2.64637e-13 9.17983e-13)
(6.21877e-14 -3.64196e-13 9.75311e-13)
(1.51075e-13 -4.6998e-13 8.07167e-13)
(-3.55002e-13 -4.25676e-13 8.15241e-13)
(-1.57491e-13 -1.9336e-13 8.31939e-13)
(-1.26442e-13 7.19563e-14 8.12589e-13)
(-2.73445e-13 -1.6474e-13 7.87581e-13)
(-3.83467e-13 3.554e-14 7.75842e-13)
(-2.06834e-13 3.0968e-13 7.36354e-13)
(-1.5101e-13 1.06213e-13 6.49891e-13)
(-5.93448e-13 -2.14596e-14 5.70108e-13)
(-3.396e-13 -1.71688e-13 4.45903e-13)
(-5.51336e-13 -1.38044e-13 5.07871e-13)
(-4.48064e-13 1.72773e-13 5.09274e-13)
(4.82739e-14 -4.17756e-13 9.23877e-13)
(-8.59132e-14 -4.12294e-13 9.14579e-13)
(-7.07146e-14 -2.98746e-13 8.23889e-13)
(-7.10386e-14 -2.2997e-13 8.42991e-13)
(1.65492e-13 -1.41798e-13 8.48465e-13)
(-1.66774e-13 -7.88635e-14 8.22004e-13)
(-3.36881e-13 -1.29584e-13 7.70977e-13)
(-2.07194e-13 2.22349e-15 7.59951e-13)
(-1.60116e-13 4.50314e-14 6.7132e-13)
(-3.76897e-13 -6.53753e-14 5.63358e-13)
(-7.36298e-13 -3.20976e-14 4.32702e-13)
(-4.58859e-13 4.73593e-14 4.15074e-13)
(-2.18585e-13 -1.01938e-13 4.84897e-13)
(-3.14585e-13 1.38709e-13 4.50291e-13)
(1.08833e-13 1.6248e-13 1.74218e-12)
(-1.23738e-13 2.12512e-13 1.73375e-12)
(-1.68602e-13 2.40227e-13 1.70117e-12)
(-2.54227e-13 2.59627e-13 1.70709e-12)
(-4.05261e-13 1.76033e-14 1.6546e-12)
(-5.96668e-13 -1.61302e-14 1.62483e-12)
(-4.78366e-13 -2.0871e-13 1.58751e-12)
(-1.52906e-13 -3.6822e-13 1.49113e-12)
(-8.71407e-14 -4.75216e-13 1.46217e-12)
(-3.05469e-13 -4.73789e-13 1.43544e-12)
(-9.53919e-13 -2.76498e-13 1.39535e-12)
(-6.35276e-13 -4.55632e-13 1.29363e-12)
(-7.86577e-14 -2.95568e-13 1.25296e-12)
(-3.6343e-13 -1.09711e-13 1.21979e-12)
(3.06914e-13 -1.02736e-13 1.73953e-12)
(-2.21452e-13 -3.82141e-14 1.71623e-12)
(-2.05147e-13 5.53094e-14 1.5758e-12)
(-1.93115e-13 -1.62317e-13 1.57607e-12)
(-5.61567e-13 -2.24574e-14 1.48762e-12)
(-7.90516e-13 -2.10452e-13 1.47971e-12)
(-5.96374e-13 -8.31873e-14 1.44164e-12)
(-2.87952e-13 -1.74396e-13 1.39992e-12)
(-1.30633e-13 -4.791e-13 1.41861e-12)
(-1.53829e-13 -5.21799e-13 1.31392e-12)
(-6.78306e-13 -3.97678e-13 1.29398e-12)
(-6.59793e-13 -1.17438e-13 1.26618e-12)
(-1.97717e-13 -1.81889e-13 1.30124e-12)
(-4.23474e-13 -4.18092e-13 1.24296e-12)
(2.75889e-13 -2.25474e-13 1.72205e-12)
(5.80555e-14 -2.49691e-13 1.7053e-12)
(-3.5934e-13 -4.10156e-13 1.42323e-12)
(-4.57424e-13 -6.02876e-13 1.389e-12)
(-5.98809e-13 -5.33696e-13 1.36358e-12)
(-6.10769e-13 -5.06786e-13 1.30258e-12)
(-3.93943e-13 -3.47664e-13 1.30157e-12)
(-4.69105e-13 -3.05541e-13 1.28074e-12)
(-4.62153e-13 -5.18818e-13 1.24264e-12)
(-2.64063e-13 -7.60268e-13 1.26476e-12)
(-3.70096e-13 -7.92702e-13 1.29486e-12)
(-4.88725e-13 -5.29668e-13 1.22362e-12)
(-3.48344e-13 -3.31327e-13 1.21519e-12)
(-2.12456e-13 -4.1598e-13 1.1283e-12)
(1.77861e-13 5.18085e-14 1.68851e-12)
(-3.85241e-13 -3.18087e-13 1.66818e-12)
(-6.94789e-13 -7.16792e-13 1.47547e-12)
(-4.14044e-13 -5.94226e-13 1.41037e-12)
(-4.07211e-13 -6.14151e-13 1.33154e-12)
(-5.93078e-13 -5.40213e-13 1.34245e-12)
(-4.24027e-13 -7.02817e-13 1.16623e-12)
(-4.02856e-13 -7.70219e-13 1.12161e-12)
(-5.41499e-13 -7.0927e-13 1.05824e-12)
(-4.19909e-13 -7.10377e-13 1.07471e-12)
(-4.08931e-13 -8.47108e-13 1.13877e-12)
(-2.06964e-13 -8.27451e-13 1.13831e-12)
(-3.96141e-13 -6.97584e-13 1.08675e-12)
(-2.15316e-14 -5.25302e-13 8.4781e-13)
(-1.99322e-13 -1.49811e-13 1.59899e-12)
(-5.38209e-13 -5.46512e-13 1.54993e-12)
(-7.11401e-13 -4.87185e-13 1.44041e-12)
(-4.7372e-13 -6.89504e-13 1.40799e-12)
(-4.28049e-13 -9.4629e-13 1.26259e-12)
(-4.37372e-13 -6.47323e-13 1.27264e-12)
(-5.3533e-13 -5.6072e-13 1.19094e-12)
(-4.49738e-13 -6.32017e-13 1.12848e-12)
(-4.92709e-13 -5.59407e-13 1.10772e-12)
(-5.42983e-13 -8.88854e-13 1.04284e-12)
(-4.59982e-13 -7.91519e-13 9.88923e-13)
(-2.90185e-13 -6.54842e-13 1.02291e-12)
(-2.07489e-13 -7.37425e-13 9.37027e-13)
(3.02273e-13 -4.47342e-13 7.21093e-13)
(-4.08795e-13 -2.91188e-13 1.45084e-12)
(-7.1012e-13 -3.9931e-13 1.45411e-12)
(-5.7129e-13 -1.43505e-13 1.39417e-12)
(-8.33025e-13 -3.91628e-13 1.34226e-12)
(-2.72794e-13 -6.12324e-13 1.2195e-12)
(-3.19237e-13 -6.16813e-13 1.36105e-12)
(-5.41484e-13 -5.96823e-13 1.33949e-12)
(-4.1342e-13 -5.81254e-13 1.26983e-12)
(-5.50506e-13 -5.04635e-13 1.07911e-12)
(-7.89317e-13 -4.99413e-13 9.86452e-13)
(-1.4959e-13 -4.80404e-13 9.15268e-13)
(-1.87746e-13 -3.43746e-13 9.02321e-13)
(-1.88594e-13 -4.08008e-13 9.27927e-13)
(3.78391e-13 -3.97509e-13 8.06673e-13)
(-5.26405e-13 -5.08122e-13 1.34431e-12)
(-5.35147e-13 -4.92249e-13 1.41347e-12)
(-3.39978e-13 -4.04353e-13 1.39742e-12)
(-1.07202e-12 -3.66275e-13 1.36264e-12)
(-5.49241e-13 -3.22947e-13 1.23228e-12)
(-4.5305e-13 -4.41713e-13 1.29562e-12)
(-5.00222e-13 -3.97348e-13 1.34037e-12)
(-3.96987e-13 -3.90198e-13 1.27647e-12)
(-3.95934e-13 -4.49063e-13 1.1004e-12)
(-5.28401e-13 -1.6962e-13 9.9222e-13)
(-2.89069e-13 -3.3521e-13 9.52073e-13)
(-1.69764e-13 -4.40978e-13 8.84811e-13)
(-2.66866e-13 -3.32604e-13 8.43161e-13)
(6.26098e-14 -4.39227e-13 7.06979e-13)
(-7.21893e-13 -5.88514e-13 1.41536e-12)
(-5.25323e-13 -5.64008e-13 1.41182e-12)
(-2.654e-13 -6.35782e-13 1.3507e-12)
(-7.90368e-13 -5.15265e-13 1.22333e-12)
(-4.69988e-13 -1.9567e-13 1.2186e-12)
(-2.98952e-13 -1.96936e-13 1.26532e-12)
(-4.76253e-13 -1.45593e-13 1.37206e-12)
(-5.47729e-13 -1.02981e-13 1.25266e-12)
(-3.70281e-13 -1.57262e-13 1.08218e-12)
(-4.80591e-13 -2.0878e-13 9.59845e-13)
(-4.22905e-13 -3.88793e-13 9.67726e-13)
(-2.23243e-13 -3.75755e-13 8.82419e-13)
(-2.38588e-13 -3.53856e-13 7.39057e-13)
(7.35059e-14 -2.24469e-13 5.97002e-13)
(-6.03233e-13 -1.46834e-13 1.33725e-12)
(-4.87015e-13 -1.85208e-13 1.30928e-12)
(-3.91921e-13 -3.43384e-13 1.19722e-12)
(-5.47119e-13 -3.57316e-13 1.1575e-12)
(-2.90666e-13 -2.37413e-13 1.1374e-12)
(-3.72003e-13 -1.49602e-13 1.19381e-12)
(-3.79037e-13 -2.04762e-13 1.25024e-12)
(-4.17739e-13 -1.1328e-14 1.1889e-12)
(-4.89594e-13 -6.15001e-15 9.44439e-13)
(-7.19265e-13 -2.14596e-13 8.6308e-13)
(-4.27916e-13 -5.3998e-14 8.81181e-13)
(-8.4432e-14 -2.01797e-13 7.8327e-13)
(-9.3902e-14 -2.58027e-13 6.64453e-13)
(2.56519e-13 -2.43163e-13 6.04866e-13)
(-5.49575e-13 -8.82272e-14 1.25378e-12)
(-6.77287e-13 2.87472e-14 1.18838e-12)
(-6.20054e-13 -5.40634e-14 1.14915e-12)
(-6.61101e-13 -1.81285e-13 1.05246e-12)
(-2.25604e-13 -3.31121e-13 1.05446e-12)
(-2.80366e-13 -2.23036e-13 1.07314e-12)
(-2.71304e-13 -1.09356e-13 1.01399e-12)
(-4.25646e-13 -3.52817e-14 9.41932e-13)
(-5.93175e-13 -1.54891e-13 7.77338e-13)
(-6.8305e-13 -2.63766e-13 8.11719e-13)
(-2.87684e-13 -8.71049e-14 8.06379e-13)
(-2.15026e-13 -2.83493e-13 6.29675e-13)
(-3.25243e-13 -3.8616e-13 5.11037e-13)
(-3.44345e-14 -5.93822e-13 4.48234e-13)
(-9.79752e-14 -3.68023e-13 1.17608e-12)
(-4.58609e-13 -5.74355e-14 1.13671e-12)
(-5.90984e-13 -9.05604e-14 9.88006e-13)
(-7.08083e-13 6.19229e-14 1.03767e-12)
(-3.73461e-13 3.38979e-14 1.01107e-12)
(-2.27574e-13 1.30176e-13 9.91852e-13)
(-3.65828e-13 2.06115e-13 9.2711e-13)
(-3.83929e-13 9.37377e-14 8.13325e-13)
(-6.50561e-13 1.56085e-14 7.19912e-13)
(-7.33712e-13 -4.57443e-14 6.62652e-13)
(-4.67433e-13 -1.74331e-13 7.00522e-13)
(-3.18975e-13 -3.46899e-13 5.96062e-13)
(-3.92627e-13 -4.37919e-13 4.74255e-13)
(-1.57879e-13 -4.72089e-13 4.02368e-13)
(1.75742e-13 -4.22353e-13 1.10723e-12)