/*--------------------------------*- C++ -*----------------------------------*\
| =========                 |                                                 |
| \\      /  F ield         | OpenFOAM: The Open Source CFD Toolbox           |
|  \\    /   O peration     | Version:  v2106                                 |
|   \\  /    A nd           | Website:  www.openfoam.com                      |
|    \\/     M anipulation  |                                                 |
\*---------------------------------------------------------------------------*/
FoamFile
{
    version     2.0;
    format      ascii;
    arch        "LSB;label=32;scalar=64";
    class       volVectorField;
    location    "0.000181";
    object      U;
}
// * * * * * * * * * * * * * * * * * * * * * * * * * * * * * * * * * * * * * //

dimensions      [0 1 -1 0 0 0 0];

internalField   nonuniform List<vector> 
18265
(
(0.000530573 0.000566625 -0.0657671)
(0.000464886 0.000575486 -0.0657003)
(0.000391446 0.00058733 -0.0656328)
(0.00031433 0.000583181 -0.0655713)
(0.000235541 0.000582919 -0.0655276)
(0.000157346 0.000579671 -0.0655004)
(7.90006e-05 0.000577849 -0.0654884)
(2.93865e-07 0.000577568 -0.0654893)
(-7.76906e-05 0.000578746 -0.0655035)
(-0.000156542 0.0005815 -0.0655327)
(-0.00023586 0.000581143 -0.0655789)
(-0.000314002 0.000585104 -0.0656423)
(-0.000386356 0.000576053 -0.0657136)
(-0.000451285 0.000562262 -0.0657805)
(0.000539087 0.000500259 -0.0656948)
(0.000462622 0.000499802 -0.0656125)
(0.000386566 0.000510575 -0.0655474)
(0.000313113 0.000506358 -0.0654888)
(0.000237183 0.000506103 -0.0654457)
(0.000160242 0.000504937 -0.0654157)
(8.10278e-05 0.000504334 -0.0654021)
(9.62032e-07 0.000504378 -0.0654027)
(-7.74001e-05 0.000504963 -0.0654174)
(-0.000154364 0.000506183 -0.0654483)
(-0.00023084 0.000506642 -0.0654927)
(-0.000306151 0.000511025 -0.0655523)
(-0.000383297 0.000501603 -0.0656207)
(-0.000463967 0.000499247 -0.0657041)
(0.000551446 0.000425056 -0.0656245)
(0.000473883 0.000422733 -0.0655444)
(0.000397572 0.000433194 -0.0654738)
(0.000320062 0.000430041 -0.0654151)
(0.000241214 0.000430748 -0.0653713)
(0.000161787 0.000429328 -0.0653417)
(8.11981e-05 0.000428793 -0.0653281)
(-2.76297e-07 0.000428565 -0.0653288)
(-8.00761e-05 0.000428468 -0.065344)
(-0.000159438 0.000429409 -0.0653748)
(-0.000238441 0.00042839 -0.0654201)
(-0.00031683 0.00043142 -0.06548)
(-0.000393564 0.000422297 -0.0655526)
(-0.000473406 0.000422629 -0.0656341)
(0.000547297 0.00034798 -0.0655585)
(0.00046985 0.000349497 -0.065481)
(0.00039438 0.000355863 -0.0654106)
(0.000317704 0.000353628 -0.065353)
(0.000239732 0.000353864 -0.0653104)
(0.000160965 0.000352752 -0.0652814)
(8.09342e-05 0.000352357 -0.0652681)
(-1.79789e-07 0.000352205 -0.0652688)
(-7.94582e-05 0.000352168 -0.0652836)
(-0.000158062 0.000352942 -0.0653136)
(-0.000236151 0.000352523 -0.0653575)
(-0.000313464 0.000354645 -0.065416)
(-0.000389527 0.000349254 -0.0654878)
(-0.000468774 0.000346786 -0.0655667)
(0.000546894 0.000269116 -0.0655102)
(0.000469811 0.00027334 -0.065433)
(0.000395044 0.00027703 -0.0653623)
(0.000317998 0.00027584 -0.0653058)
(0.000240081 0.00027624 -0.0652633)
(0.000161021 0.000275493 -0.0652348)
(8.08994e-05 0.000275291 -0.0652216)
(-4.78682e-07 0.000275213 -0.0652223)
(-7.99181e-05 0.00027514 -0.0652372)
(-0.000158753 0.000275671 -0.0652666)
(-0.000236605 0.00027513 -0.0653104)
(-0.000313956 0.000276173 -0.0653678)
(-0.00038916 0.00027315 -0.0654394)
(-0.000467474 0.000268519 -0.0655179)
(0.000543891 0.000191349 -0.0654782)
(0.000468976 0.00019664 -0.0653979)
(0.00039377 0.000198061 -0.0653278)
(0.000317029 0.000197674 -0.0652718)
(0.000239368 0.000197854 -0.0652298)
(0.000160555 0.000197458 -0.0652017)
(8.07593e-05 0.000197393 -0.0651885)
(-4.03207e-07 0.000197433 -0.0651893)
(-7.95795e-05 0.000197508 -0.0652042)
(-0.000158153 0.000197904 -0.0652334)
(-0.000235736 0.000197733 -0.0652767)
(-0.000312585 0.000197986 -0.0653336)
(-0.000388187 0.000196967 -0.0654043)
(-0.000463943 0.000191469 -0.065486)
(0.000542499 0.000114017 -0.0654613)
(0.00046896 0.00011829 -0.065379)
(0.000393476 0.000118405 -0.065309)
(0.000316821 0.000118581 -0.0652532)
(0.000239226 0.000118629 -0.0652113)
(0.000160476 0.000118539 -0.0651832)
(8.08051e-05 0.0001186 -0.0651701)
(-2.82657e-07 0.000118729 -0.065171)
(-7.93875e-05 0.000118898 -0.0651859)
(-0.00015795 0.000119135 -0.0652152)
(-0.000235525 0.00011919 -0.0652585)
(-0.00031222 0.000118939 -0.0653153)
(-0.000388099 0.000119013 -0.0653859)
(-0.000462219 0.000114653 -0.0654697)
(0.000543059 3.60384e-05 -0.0654571)
(0.000469914 3.87715e-05 -0.0653741)
(0.000393823 3.78742e-05 -0.0653044)
(0.000317073 3.85377e-05 -0.0652484)
(0.000239357 3.84893e-05 -0.0652065)
(0.000160607 3.87295e-05 -0.0651784)
(8.0971e-05 3.89108e-05 -0.0651653)
(-1.12218e-07 3.90927e-05 -0.0651663)
(-7.92555e-05 3.92911e-05 -0.0651813)
(-0.000157926 3.92924e-05 -0.0652108)
(-0.000235731 3.94794e-05 -0.0652541)
(-0.000312519 3.87964e-05 -0.0653113)
(-0.000389104 3.96388e-05 -0.0653816)
(-0.000462653 3.70165e-05 -0.0654664)
(0.000544833 -4.22637e-05 -0.0654662)
(0.000471198 -3.97423e-05 -0.0653835)
(0.000394184 -4.19884e-05 -0.0653144)
(0.000317365 -4.07248e-05 -0.065258)
(0.000239428 -4.09711e-05 -0.0652159)
(0.00016072 -4.05338e-05 -0.0651876)
(8.11621e-05 -4.03452e-05 -0.0651745)
(7.89281e-08 -4.01777e-05 -0.0651756)
(-7.9113e-05 -4.00431e-05 -0.0651907)
(-0.000157886 -4.03811e-05 -0.0652205)
(-0.000236021 -4.01309e-05 -0.0652641)
(-0.000312886 -4.14079e-05 -0.0653218)
(-0.000390517 -3.94779e-05 -0.0653916)
(-0.000464452 -4.14402e-05 -0.0654765)
(0.000548111 -0.000120424 -0.0654906)
(0.000473063 -0.000116519 -0.0654092)
(0.000395604 -0.000121017 -0.0653399)
(0.000318497 -0.000119069 -0.0652827)
(0.000240112 -0.000119489 -0.06524)
(0.000161146 -0.000118762 -0.0652114)
(8.14425e-05 -0.000118562 -0.0651983)
(7.13805e-08 -0.000118459 -0.0651994)
(-7.94182e-05 -0.00011846 -0.0652148)
(-0.000158544 -0.00011916 -0.065245)
(-0.000237089 -0.000118772 -0.0652893)
(-0.000314239 -0.000120648 -0.0653478)
(-0.000392411 -0.000116844 -0.0654178)
(-0.000467834 -0.000119563 -0.065502)
(0.000548299 -0.000199189 -0.0655327)
(0.000474087 -0.0001934 -0.0654489)
(0.000395123 -0.000200362 -0.0653807)
(0.000318459 -0.000197725 -0.065322)
(0.000239782 -0.000197919 -0.0652791)
(0.000161031 -0.000196884 -0.0652498)
(8.15345e-05 -0.000196606 -0.0652365)
(2.02575e-07 -0.000196628 -0.0652377)
(-7.92259e-05 -0.000196954 -0.0652532)
(-0.000158195 -0.000198046 -0.0652841)
(-0.000237061 -0.00019794 -0.0653285)
(-0.000313892 -0.000200443 -0.0653885)
(-0.000393773 -0.000194618 -0.0654578)
(-0.000468665 -0.000198441 -0.0655446)
(0.000552262 -0.000277138 -0.0655917)
(0.000478504 -0.000270184 -0.0655037)
(0.000398316 -0.000279855 -0.0654356)
(0.000320803 -0.000276364 -0.0653758)
(0.00024113 -0.00027663 -0.0653317)
(0.000161592 -0.000275069 -0.0653019)
(8.16138e-05 -0.000274606 -0.0652885)
(-3.0724e-07 -0.00027465 -0.0652897)
(-8.02569e-05 -0.000275143 -0.0653056)
(-0.000159879 -0.000276588 -0.0653371)
(-0.000239457 -0.000276312 -0.0653827)
(-0.000317171 -0.000279658 -0.0654436)
(-0.000398192 -0.000271686 -0.0655132)
(-0.000472708 -0.000275768 -0.0656041)
(0.000545316 -0.000349452 -0.0656594)
(0.000469956 -0.000348648 -0.0655687)
(0.000389962 -0.000357933 -0.0655041)
(0.000315843 -0.000354229 -0.0654432)
(0.000238428 -0.000353867 -0.0653989)
(0.000160675 -0.000352691 -0.0653682)
(8.15689e-05 -0.000352202 -0.0653546)
(2.83627e-07 -0.000352539 -0.0653556)
(-7.88073e-05 -0.000353734 -0.065371)
(-0.000156688 -0.000355386 -0.0654028)
(-0.00023427 -0.00035637 -0.065448)
(-0.000309558 -0.000360434 -0.0655094)
(-0.000391142 -0.000353186 -0.0655762)
(-0.000468533 -0.00035086 -0.0656693)
(0.000527296 -0.000415008 -0.0657216)
(0.000465161 -0.00043192 -0.0656487)
(0.000388736 -0.000439501 -0.0655829)
(0.000313394 -0.000435149 -0.0655196)
(0.000234833 -0.000433694 -0.065475)
(0.000156829 -0.000429909 -0.0654472)
(7.91319e-05 -0.000427922 -0.0654351)
(-4.09805e-07 -0.000427778 -0.0654366)
(-7.82965e-05 -0.00042958 -0.0654515)
(-0.000156612 -0.000432905 -0.0654816)
(-0.00023513 -0.000433965 -0.0655286)
(-0.000310882 -0.000437739 -0.0655934)
(-0.000386855 -0.00043287 -0.0656619)
(-0.000447713 -0.00041249 -0.0657353)
(0.000802015 0.000830955 -0.0976004)
(0.000680271 0.000822052 -0.0975744)
(0.000562268 0.000839949 -0.0975368)
(0.000442976 0.000831774 -0.0975029)
(0.0003238 0.00083007 -0.0974828)
(0.000206094 0.000826331 -0.0974729)
(8.86255e-05 0.000824103 -0.0974713)
(-2.90854e-05 0.000823864 -0.0974757)
(-0.000147313 0.000825749 -0.0974867)
(-0.000266193 0.000829238 -0.097506)
(-0.000386695 0.000831102 -0.0975356)
(-0.000507243 0.000839854 -0.0975782)
(-0.0006256 0.000823715 -0.0976255)
(-0.000750139 0.000832206 -0.0976587)
(0.000791641 0.00071088 -0.0975781)
(0.000672208 0.000703979 -0.097544)
(0.000557638 0.000717472 -0.0975074)
(0.000443458 0.000711547 -0.0974733)
(0.00032668 0.000710361 -0.097451)
(0.000209175 0.000708282 -0.0974349)
(9.00264e-05 0.00070698 -0.0974304)
(-2.95245e-05 0.000706829 -0.0974347)
(-0.00014893 0.000707898 -0.0974481)
(-0.000266787 0.000709809 -0.097473)
(-0.000384321 0.000711324 -0.0975042)
(-0.000499642 0.000717965 -0.0975468)
(-0.000615496 0.000706313 -0.0975927)
(-0.000738822 0.000712791 -0.0976357)
(0.000809355 0.000592344 -0.097546)
(0.000685999 0.0005891 -0.097513)
(0.000569288 0.00060028 -0.0974685)
(0.000450774 0.0005955 -0.0974355)
(0.000331238 0.000594891 -0.0974126)
(0.000211171 0.000592727 -0.0973978)
(9.02839e-05 0.000591534 -0.0973937)
(-3.07095e-05 0.000591223 -0.0973982)
(-0.000151575 0.00059174 -0.0974116)
(-0.000271643 0.000593358 -0.0974355)
(-0.000391404 0.000594008 -0.0974676)
(-0.000510672 0.000599245 -0.0975095)
(-0.000628081 0.000589677 -0.097563)
(-0.000754498 0.000593116 -0.0976044)
(0.000801063 0.000473527 -0.0975166)
(0.00068017 0.000475418 -0.0974833)
(0.000564523 0.000482477 -0.0974402)
(0.00044728 0.000479019 -0.0974089)
(0.000328862 0.000478392 -0.0973873)
(0.000209693 0.000476672 -0.0973732)
(8.94928e-05 0.000475693 -0.0973694)
(-3.07425e-05 0.000475341 -0.097374)
(-0.00015067 0.000475533 -0.0973872)
(-0.000269506 0.000476603 -0.0974104)
(-0.000387729 0.000477117 -0.0974412)
(-0.000505259 0.000480885 -0.0974814)
(-0.000621366 0.000475032 -0.097533)
(-0.000744586 0.00047387 -0.0975749)
(0.000798941 0.00035523 -0.0975012)
(0.000679017 0.000359614 -0.0974655)
(0.000563979 0.000364099 -0.0974221)
(0.000446697 0.000361942 -0.097392)
(0.000328514 0.000361652 -0.0973702)
(0.000209267 0.000360436 -0.0973565)
(8.90333e-05 0.000359738 -0.0973528)
(-3.11781e-05 0.000359389 -0.0973574)
(-0.000150953 0.000359329 -0.0973708)
(-0.000269595 0.000359915 -0.0973937)
(-0.000387171 0.000359985 -0.0974247)
(-0.000504247 0.00036225 -0.0974637)
(-0.000619368 0.000358577 -0.0975155)
(-0.000741122 0.000354746 -0.0975597)
(0.000795222 0.000238668 -0.097496)
(0.000677361 0.000243213 -0.0974539)
(0.000562123 0.000245481 -0.0974118)
(0.00044524 0.000244473 -0.0973823)
(0.000327412 0.000244332 -0.0973609)
(0.000208464 0.000243621 -0.0973474)
(8.85045e-05 0.000243182 -0.0973438)
(-3.1384e-05 0.000242882 -0.0973486)
(-0.00015076 0.000242733 -0.097362)
(-0.000268891 0.000242932 -0.0973849)
(-0.000385806 0.000242786 -0.0974156)
(-0.000502077 0.000243736 -0.0974541)
(-0.00061721 0.000241853 -0.0975045)
(-0.000736218 0.000237703 -0.0975549)
(0.000793361 0.000122358 -0.0974989)
(0.00067682 0.000125347 -0.0974535)
(0.000561486 0.000126163 -0.0974119)
(0.000444726 0.00012608 -0.0973825)
(0.000327014 0.000126114 -0.0973611)
(0.000208129 0.000125898 -0.0973477)
(8.82326e-05 0.000125727 -0.0973442)
(-3.15901e-05 0.000125493 -0.0973491)
(-0.000150874 0.0001253 -0.0973627)
(-0.000268856 0.00012516 -0.0973856)
(-0.0003855 0.000124806 -0.0974163)
(-0.000501431 0.000124727 -0.0974548)
(-0.000616541 0.000123936 -0.0975046)
(-0.000733851 0.000121108 -0.0975584)
(0.000793993 5.6126e-06 -0.0975076)
(0.000677823 6.88867e-06 -0.0974615)
(0.000562051 6.47228e-06 -0.0974202)
(0.00044507 7.26058e-06 -0.0973908)
(0.000327154 7.44083e-06 -0.0973695)
(0.000208135 7.70186e-06 -0.0973561)
(8.81309e-05 7.76478e-06 -0.0973527)
(-3.18096e-05 7.57686e-06 -0.0973577)
(-0.000151225 7.32955e-06 -0.0973713)
(-0.00026931 6.84043e-06 -0.0973944)
(-0.000386073 6.32963e-06 -0.0974251)
(-0.000502075 5.34384e-06 -0.0974636)
(-0.000617562 5.52096e-06 -0.0975131)
(-0.000734338 4.22474e-06 -0.0975676)
(0.000796266 -0.000112144 -0.0975224)
(0.000679628 -0.000112011 -0.0974782)
(0.00056324 -0.000113812 -0.0974371)
(0.000445885 -0.000112135 -0.0974073)
(0.000327582 -0.000111787 -0.0973861)
(0.000208336 -0.000111063 -0.0973727)
(8.81328e-05 -0.000110803 -0.0973693)
(-3.20317e-05 -0.000110981 -0.0973745)
(-0.000151708 -0.000111334 -0.0973881)
(-0.000270017 -0.000112189 -0.0974113)
(-0.000387124 -0.000112837 -0.0974421)
(-0.000503389 -0.000114682 -0.097481)
(-0.000619568 -0.000113314 -0.0975302)
(-0.000736963 -0.00011354 -0.097583)
(0.00080053 -0.000231217 -0.0975457)
(0.000682455 -0.000230207 -0.0975064)
(0.000565744 -0.000234314 -0.0974644)
(0.000447761 -0.000231555 -0.097434)
(0.00032884 -0.000231091 -0.0974123)
(0.000209051 -0.00022985 -0.0973988)
(8.83528e-05 -0.000229402 -0.0973954)
(-3.23496e-05 -0.000229584 -0.0974006)
(-0.00015259 -0.000230081 -0.0974143)
(-0.000271454 -0.000231344 -0.0974378)
(-0.000389186 -0.000232006 -0.097469)
(-0.000506088 -0.000234874 -0.0975086)
(-0.000622679 -0.000231369 -0.0975586)
(-0.000741978 -0.000232319 -0.0976068)
(0.000802854 -0.000352248 -0.0975795)
(0.00068454 -0.000348901 -0.0975413)
(0.000566876 -0.00035545 -0.0975004)
(0.000448771 -0.000351512 -0.0974685)
(0.000329353 -0.00035058 -0.097447)
(0.000209352 -0.000348776 -0.097433)
(8.84231e-05 -0.000348042 -0.0974297)
(-3.25101e-05 -0.000348204 -0.0974349)
(-0.000152997 -0.000348959 -0.0974486)
(-0.000271985 -0.000350655 -0.0974725)
(-0.000390207 -0.000351674 -0.0975035)
(-0.000507231 -0.00035574 -0.0975445)
(-0.000625127 -0.000349964 -0.0975936)
(-0.000745234 -0.000352646 -0.0976407)
(0.00081198 -0.000473613 -0.0976257)
(0.000691276 -0.000466045 -0.0975874)
(0.000572134 -0.000476866 -0.097546)
(0.000452627 -0.00047159 -0.0975126)
(0.000331856 -0.000470575 -0.09749)
(0.0002107 -0.000468092 -0.0974756)
(8.88489e-05 -0.000467026 -0.0974721)
(-3.29778e-05 -0.000467095 -0.0974773)
(-0.000154374 -0.000468055 -0.0974912)
(-0.000274501 -0.000470248 -0.0975156)
(-0.000394141 -0.000471204 -0.0975478)
(-0.000512812 -0.000476551 -0.09759)
(-0.000631934 -0.000467024 -0.0976397)
(-0.000754579 -0.000473066 -0.0976867)
(0.000796827 -0.00059238 -0.0976772)
(0.00067982 -0.000584041 -0.0976371)
(0.000562599 -0.000596524 -0.0976034)
(0.000446862 -0.000590658 -0.0975681)
(0.000328401 -0.000589149 -0.0975456)
(0.000209231 -0.000586915 -0.0975298)
(8.85328e-05 -0.000585674 -0.097526)
(-3.23683e-05 -0.000585742 -0.0975309)
(-0.000152676 -0.000587062 -0.0975447)
(-0.000270869 -0.000589191 -0.09757)
(-0.000388355 -0.00059092 -0.0976016)
(-0.000503402 -0.000597057 -0.0976449)
(-0.000621246 -0.000586249 -0.0976875)
(-0.000742194 -0.00059199 -0.0977363)
(0.000802129 -0.000718493 -0.0977131)
(0.000683614 -0.000710628 -0.0976854)
(0.000564758 -0.000726064 -0.0976496)
(0.000445365 -0.000716807 -0.0976153)
(0.000325143 -0.00071368 -0.0975953)
(0.000206093 -0.000708675 -0.0975857)
(8.70909e-05 -0.000705889 -0.0975847)
(-3.18899e-05 -0.000705577 -0.0975898)
(-0.000150742 -0.000707785 -0.0976015)
(-0.000269367 -0.000712168 -0.0976215)
(-0.000388629 -0.00071502 -0.0976516)
(-0.000507254 -0.000723833 -0.0976943)
(-0.000625434 -0.000710726 -0.0977391)
(-0.000745367 -0.000714327 -0.0977727)
(0.00096615 0.000981556 -0.120617)
(0.00081312 0.000964829 -0.120598)
(0.000665672 0.000984548 -0.120567)
(0.000519577 0.000974014 -0.120537)
(0.000374477 0.000970824 -0.120522)
(0.000231283 0.000966101 -0.120515)
(8.85605e-05 0.00096383 -0.120514)
(-5.46962e-05 0.000963975 -0.120518)
(-0.00019891 0.000967226 -0.120527)
(-0.000343033 0.000973064 -0.120542)
(-0.000489477 0.000977074 -0.120566)
(-0.000637312 0.00098835 -0.120604)
(-0.000786546 0.000969081 -0.120644)
(-0.000942502 0.000985999 -0.120671)
(0.000948753 0.000829753 -0.120603)
(0.000801648 0.000818844 -0.120577)
(0.000660121 0.000833337 -0.120545)
(0.000519642 0.000825315 -0.120515)
(0.00037713 0.000822684 -0.120497)
(0.000234146 0.000819318 -0.120484)
(9.00313e-05 0.000817897 -0.12048)
(-5.47279e-05 0.000818137 -0.120484)
(-0.000200011 0.000820428 -0.120495)
(-0.000344103 0.00082469 -0.120516)
(-0.000487238 0.000828116 -0.120542)
(-0.000629767 0.000837115 -0.120581)
(-0.00077318 0.00082369 -0.120621)
(-0.000923593 0.000834985 -0.120656)
(0.000968049 0.000682326 -0.120575)
(0.000816219 0.000677355 -0.12055)
(0.00067157 0.000688576 -0.12051)
(0.00052669 0.000682081 -0.120482)
(0.000381447 0.000680186 -0.120464)
(0.000236235 0.000677085 -0.120452)
(9.06751e-05 0.000675896 -0.120449)
(-5.51134e-05 0.00067598 -0.120452)
(-0.000201532 0.000677464 -0.120462)
(-0.000347852 0.000681038 -0.120482)
(-0.000493763 0.000683512 -0.120508)
(-0.000640394 0.000690753 -0.120544)
(-0.000787031 0.000680611 -0.120593)
(-0.000942192 0.000686019 -0.120627)
(0.000957426 0.000536983 -0.12055)
(0.000808325 0.000537705 -0.120524)
(0.000665159 0.000544716 -0.120486)
(0.000521723 0.000539798 -0.120461)
(0.000377993 0.000538216 -0.120445)
(0.00023417 0.00053571 -0.120433)
(8.99253e-05 0.000534681 -0.120431)
(-5.43885e-05 0.000534556 -0.120434)
(-0.000199229 0.000535348 -0.120443)
(-0.000343912 0.00053793 -0.120461)
(-0.000488567 0.000539824 -0.120485)
(-0.000632999 0.00054533 -0.120519)
(-0.000778064 0.000539403 -0.120565)
(-0.000930394 0.000539304 -0.1206)
(0.000954042 0.000392997 -0.120538)
(0.000805878 0.000396496 -0.12051)
(0.000663429 0.000400999 -0.120472)
(0.000520218 0.000397812 -0.120449)
(0.000376904 0.00039684 -0.120432)
(0.000233338 0.000395052 -0.120421)
(8.94287e-05 0.000394206 -0.120418)
(-5.4408e-05 0.000393877 -0.120421)
(-0.000198675 0.000394037 -0.12043)
(-0.000342831 0.000395508 -0.120447)
(-0.00048704 0.00039646 -0.120471)
(-0.000630459 0.000399963 -0.120503)
(-0.000774773 0.000396311 -0.12055)
(-0.000925777 0.000393477 -0.120588)
(0.000949539 0.000250981 -0.120535)
(0.000803089 0.000254868 -0.1205)
(0.000660798 0.000257468 -0.120464)
(0.000518085 0.000255962 -0.120441)
(0.000375277 0.000255541 -0.120425)
(0.000232166 0.000254508 -0.120415)
(8.87259e-05 0.000253832 -0.120412)
(-5.45609e-05 0.000253335 -0.120415)
(-0.000198178 0.000252986 -0.120423)
(-0.000341549 0.000253366 -0.12044)
(-0.000485004 0.00025346 -0.120464)
(-0.000627369 0.000255018 -0.120495)
(-0.000771357 0.000252912 -0.12054)
(-0.000920122 0.000249654 -0.120585)
(0.000947662 0.000109261 -0.120539)
(0.000802324 0.000111958 -0.120501)
(0.000660176 0.000113362 -0.120466)
(0.000517582 0.000113423 -0.120443)
(0.000374823 0.000113612 -0.120427)
(0.000231662 0.000113371 -0.120416)
(8.81561e-05 0.000112913 -0.120413)
(-5.51692e-05 0.000112313 -0.120416)
(-0.000198705 0.000111532 -0.120425)
(-0.00034178 0.000110841 -0.120442)
(-0.000484699 0.000110081 -0.120466)
(-0.000626638 0.000109824 -0.120496)
(-0.000770155 0.00010854 -0.120541)
(-0.00091736 0.000106294 -0.120589)
(0.000948965 -3.30627e-05 -0.120548)
(0.000803755 -3.18781e-05 -0.120509)
(0.000661295 -3.14741e-05 -0.120473)
(0.000518384 -2.99e-05 -0.12045)
(0.000375247 -2.91142e-05 -0.120434)
(0.000231678 -2.85399e-05 -0.120423)
(8.77499e-05 -2.87317e-05 -0.120421)
(-5.60108e-05 -2.93721e-05 -0.120424)
(-0.000199901 -3.05146e-05 -0.120433)
(-0.000343096 -3.22274e-05 -0.12045)
(-0.00048578 -3.37856e-05 -0.120474)
(-0.000628091 -3.57295e-05 -0.120505)
(-0.000771475 -3.62351e-05 -0.12055)
(-0.00091824 -3.70706e-05 -0.120598)
(0.00095248 -0.000176453 -0.120561)
(0.000806554 -0.000176583 -0.120524)
(0.000663496 -0.000177569 -0.120488)
(0.000519983 -0.000174651 -0.120464)
(0.000376177 -0.0001734 -0.120448)
(0.000231973 -0.000172102 -0.120437)
(8.74011e-05 -0.00017203 -0.120434)
(-5.7024e-05 -0.000172648 -0.120438)
(-0.000201514 -0.000173995 -0.120447)
(-0.000345042 -0.000176456 -0.120465)
(-0.00048764 -0.000178587 -0.12049)
(-0.000630658 -0.000182083 -0.120522)
(-0.000774035 -0.000181547 -0.120567)
(-0.000921358 -0.000181216 -0.120612)
(0.000958354 -0.000321857 -0.120581)
(0.000811034 -0.000321509 -0.120551)
(0.000667472 -0.000324853 -0.120513)
(0.000523102 -0.00032054 -0.120488)
(0.000378283 -0.000318972 -0.12047)
(0.000233021 -0.000317016 -0.120459)
(8.73522e-05 -0.000316694 -0.120456)
(-5.82094e-05 -0.000317305 -0.12046)
(-0.000203732 -0.00031884 -0.12047)
(-0.000348085 -0.00032182 -0.120489)
(-0.000491307 -0.000324179 -0.120514)
(-0.000635419 -0.000329168 -0.120548)
(-0.000778877 -0.000326346 -0.120595)
(-0.000927522 -0.000326319 -0.120634)
(0.000962816 -0.00046964 -0.12061)
(0.000814916 -0.000467526 -0.120582)
(0.000670364 -0.000473731 -0.120544)
(0.00052545 -0.000468081 -0.120517)
(0.000379748 -0.000466005 -0.1205)
(0.00023371 -0.000463407 -0.120488)
(8.7202e-05 -0.000462737 -0.120485)
(-5.92788e-05 -0.000463305 -0.120489)
(-0.00020552 -0.000465079 -0.1205)
(-0.000350178 -0.000468347 -0.12052)
(-0.000494135 -0.000470487 -0.120546)
(-0.000638757 -0.000476122 -0.120581)
(-0.000782838 -0.000470133 -0.120628)
(-0.00093222 -0.000472649 -0.120665)
(0.000973636 -0.000617981 -0.120653)
(0.0008235 -0.000610262 -0.120625)
(0.000677309 -0.000621328 -0.120586)
(0.000530795 -0.000614725 -0.120556)
(0.000383308 -0.000612818 -0.120537)
(0.000235606 -0.000609761 -0.120525)
(8.75351e-05 -0.00060863 -0.120522)
(-6.05675e-05 -0.00060883 -0.120526)
(-0.000208231 -0.000610417 -0.120537)
(-0.00035401 -0.000613905 -0.120559)
(-0.00050004 -0.000616616 -0.120586)
(-0.000645905 -0.000623928 -0.120624)
(-0.000791349 -0.000613486 -0.120672)
(-0.000943019 -0.000620116 -0.120709)
(0.000955568 -0.00076764 -0.120698)
(0.000810065 -0.000755199 -0.12067)
(0.000666634 -0.000769514 -0.120639)
(0.000524323 -0.000761337 -0.120607)
(0.000379442 -0.000758645 -0.120588)
(0.00023374 -0.000755336 -0.120574)
(8.68613e-05 -0.00075389 -0.120571)
(-6.03483e-05 -0.000754066 -0.120575)
(-0.000206654 -0.000756295 -0.120588)
(-0.000350369 -0.000759834 -0.12061)
(-0.000493976 -0.000762831 -0.120638)
(-0.000635599 -0.000771167 -0.120678)
(-0.000778415 -0.000757798 -0.120718)
(-0.000925588 -0.000767993 -0.120754)
(0.000970202 -0.000923979 -0.120728)
(0.000819871 -0.00090716 -0.120709)
(0.000671126 -0.000926058 -0.120677)
(0.000523513 -0.000915409 -0.120647)
(0.00037633 -0.000911595 -0.120631)
(0.000230748 -0.000906211 -0.120623)
(8.55276e-05 -0.000903349 -0.120623)
(-5.99549e-05 -0.000903015 -0.120628)
(-0.000204388 -0.000906341 -0.120637)
(-0.000348718 -0.000911604 -0.120654)
(-0.000494744 -0.000915402 -0.120679)
(-0.000641065 -0.000925804 -0.120718)
(-0.000787832 -0.000908004 -0.120758)
(-0.000937405 -0.000920641 -0.120784)
(0.00111593 0.00112082 -0.139428)
(0.00093367 0.00109724 -0.139418)
(0.000758489 0.00111818 -0.139394)
(0.000587477 0.00110443 -0.139369)
(0.000418743 0.00109916 -0.139358)
(0.000252925 0.0010932 -0.139353)
(8.80204e-05 0.00109001 -0.139354)
(-7.66936e-05 0.00109125 -0.139357)
(-0.000242111 0.00109725 -0.139362)
(-0.000409451 0.00110506 -0.139373)
(-0.000579947 0.00111169 -0.13939)
(-0.000753001 0.00112616 -0.13942)
(-0.000930013 0.00110471 -0.13945)
(-0.00111464 0.0011282 -0.139465)
(0.00109282 0.000940284 -0.13942)
(0.000919139 0.000925876 -0.139403)
(0.000751423 0.000940155 -0.139377)
(0.000586343 0.000929174 -0.139352)
(0.000420526 0.000924537 -0.139338)
(0.000255429 0.000919913 -0.139326)
(9.00918e-05 0.00091794 -0.139324)
(-7.61098e-05 0.000919321 -0.139327)
(-0.000241646 0.000924163 -0.139335)
(-0.000409124 0.000930864 -0.139352)
(-0.000577413 0.000937069 -0.139372)
(-0.000745072 0.000948991 -0.139403)
(-0.000915043 0.0009347 -0.139435)
(-0.00109131 0.000948851 -0.139458)
(0.00111329 0.000765861 -0.139397)
(0.000933395 0.000759071 -0.139379)
(0.000761706 0.000769375 -0.139345)
(0.000592176 0.000760316 -0.139322)
(0.000424029 0.000756691 -0.139308)
(0.000257504 0.000752665 -0.139298)
(9.16106e-05 0.00075135 -0.139297)
(-7.48832e-05 0.000752445 -0.139299)
(-0.000241483 0.000756327 -0.139305)
(-0.000410707 0.000762415 -0.13932)
(-0.000582049 0.000767384 -0.13934)
(-0.000755017 0.000777343 -0.139368)
(-0.000929672 0.000767192 -0.139409)
(-0.00111288 0.000773518 -0.139433)
(0.0010997 0.00059566 -0.139374)
(0.000922665 0.000594967 -0.139355)
(0.000752755 0.000600981 -0.139324)
(0.000585057 0.000593922 -0.139304)
(0.000419151 0.000591002 -0.139291)
(0.000254986 0.000587823 -0.139282)
(9.14989e-05 0.000586843 -0.139281)
(-7.23119e-05 0.000587572 -0.139283)
(-0.000237675 0.000590402 -0.139288)
(-0.000404061 0.00059525 -0.139301)
(-0.000573844 0.000599206 -0.139319)
(-0.000745559 0.000607045 -0.139345)
(-0.000918969 0.000601424 -0.139383)
(-0.00109965 0.000601587 -0.139409)
(0.0010946 0.000427428 -0.139365)
(0.000918401 0.000429712 -0.139343)
(0.000749307 0.000433498 -0.139311)
(0.000582183 0.000428825 -0.139293)
(0.000417231 0.000427007 -0.139281)
(0.000254045 0.000424867 -0.139272)
(9.16411e-05 0.000424151 -0.13927)
(-7.09781e-05 0.000424479 -0.139272)
(-0.000235939 0.000426022 -0.139276)
(-0.000400708 0.000429086 -0.139289)
(-0.000570082 0.000431499 -0.139306)
(-0.000741595 0.000436642 -0.13933)
(-0.000914503 0.000433274 -0.139369)
(-0.00109436 0.000430783 -0.139398)
(0.00108887 0.000261468 -0.139362)
(0.000914272 0.00026445 -0.139334)
(0.000745665 0.000266863 -0.139304)
(0.000579297 0.000264688 -0.139287)
(0.00041518 0.000264039 -0.139275)
(0.000252805 0.000263002 -0.139266)
(9.12488e-05 0.000262496 -0.139264)
(-7.04134e-05 0.000262331 -0.139265)
(-0.000234603 0.000262571 -0.139269)
(-0.000398485 0.000263595 -0.139281)
(-0.000566891 0.000264292 -0.139298)
(-0.000737622 0.000266667 -0.139321)
(-0.00091013 0.000264634 -0.139358)
(-0.00108806 0.00026191 -0.139395)
(0.00108575 9.60162e-05 -0.139366)
(0.000912546 9.82137e-05 -0.139335)
(0.000744615 9.99231e-05 -0.139306)
(0.000578715 0.00010018 -0.139289)
(0.000414879 0.00010077 -0.139277)
(0.00025259 0.000100873 -0.139268)
(9.10161e-05 0.000100623 -0.139266)
(-7.06609e-05 9.99921e-05 -0.139267)
(-0.000234738 9.9005e-05 -0.139271)
(-0.00039844 9.79925e-05 -0.139282)
(-0.000566159 9.68925e-05 -0.139299)
(-0.000736151 9.65301e-05 -0.139322)
(-0.000907995 9.49818e-05 -0.139358)
(-0.00108449 9.33076e-05 -0.139398)
(0.00108694 -7.04083e-05 -0.139373)
(0.000913894 -6.93416e-05 -0.139342)
(0.000745851 -6.8019e-05 -0.139313)
(0.000579825 -6.53782e-05 -0.139296)
(0.000415667 -6.35331e-05 -0.139283)
(0.000252861 -6.22341e-05 -0.139274)
(9.06588e-05 -6.21544e-05 -0.139272)
(-7.16711e-05 -6.31773e-05 -0.139273)
(-0.000236214 -6.54824e-05 -0.139277)
(-0.000400069 -6.86269e-05 -0.139288)
(-0.000567943 -7.15951e-05 -0.139305)
(-0.000738046 -7.4522e-05 -0.139328)
(-0.000909509 -7.55517e-05 -0.139365)
(-0.00108505 -7.57852e-05 -0.139404)
(0.00109299 -0.000235266 -0.139383)
(0.000918772 -0.000235342 -0.139355)
(0.000749938 -0.00023523 -0.139325)
(0.000583034 -0.000230892 -0.139307)
(0.000417723 -0.00022861 -0.139295)
(0.000253585 -0.00022684 -0.139285)
(8.99141e-05 -0.000226646 -0.139283)
(-7.39418e-05 -0.000227795 -0.139284)
(-0.000239775 -0.000230321 -0.139288)
(-0.000403785 -0.000233995 -0.139301)
(-0.000572263 -0.000237406 -0.139318)
(-0.000742418 -0.000242753 -0.139342)
(-0.000913875 -0.00024316 -0.139379)
(-0.00109002 -0.000242405 -0.139415)
(0.00110007 -0.000403696 -0.139399)
(0.000924995 -0.000403849 -0.139378)
(0.000755899 -0.000405928 -0.139346)
(0.00058806 -0.000399747 -0.139327)
(0.000421228 -0.000396583 -0.139314)
(0.000255253 -0.000393722 -0.139304)
(8.95369e-05 -0.000393042 -0.139302)
(-7.64506e-05 -0.000394429 -0.139303)
(-0.00024339 -0.000397944 -0.139308)
(-0.000409388 -0.000403055 -0.13932)
(-0.000578115 -0.000407658 -0.139338)
(-0.000748223 -0.000414718 -0.139363)
(-0.000919282 -0.000412652 -0.139402)
(-0.00109641 -0.000411591 -0.139431)
(0.00110612 -0.000574811 -0.139422)
(0.000930524 -0.000572899 -0.139403)
(0.000760342 -0.000578173 -0.139372)
(0.000591722 -0.000570468 -0.139351)
(0.000423636 -0.000566881 -0.139337)
(0.000256298 -0.000563469 -0.139327)
(8.90099e-05 -0.000562404 -0.139325)
(-7.86231e-05 -0.000563907 -0.139326)
(-0.000246345 -0.000567627 -0.139332)
(-0.000413855 -0.0005731 -0.139345)
(-0.000583224 -0.000578125 -0.139364)
(-0.00075349 -0.000586617 -0.13939)
(-0.000924655 -0.000581284 -0.139429)
(-0.00110177 -0.000582319 -0.139455)
(0.00111976 -0.000748043 -0.139456)
(0.000941706 -0.000740526 -0.139439)
(0.000769684 -0.000751101 -0.139405)
(0.000599151 -0.000742111 -0.139382)
(0.000428729 -0.000738464 -0.139367)
(0.000258899 -0.000734564 -0.139356)
(8.884e-05 -0.00073298 -0.139353)
(-8.15353e-05 -0.00073449 -0.139355)
(-0.000250791 -0.000738389 -0.139361)
(-0.000420672 -0.000744038 -0.139376)
(-0.000591632 -0.000748941 -0.139396)
(-0.000762981 -0.000758444 -0.139426)
(-0.000935097 -0.000747536 -0.139467)
(-0.00111428 -0.000753953 -0.139491)
(0.00109884 -0.000924398 -0.139491)
(0.00092723 -0.000909936 -0.139475)
(0.000759151 -0.000924911 -0.139449)
(0.000593094 -0.000914655 -0.139424)
(0.000425129 -0.00091054 -0.139409)
(0.000256951 -0.000906459 -0.139396)
(8.74199e-05 -0.000904251 -0.139393)
(-8.26336e-05 -0.000905512 -0.139395)
(-0.000250433 -0.000909494 -0.139402)
(-0.00041848 -0.000914935 -0.13942)
(-0.000586306 -0.000919955 -0.13944)
(-0.000752368 -0.000930355 -0.139472)
(-0.000919911 -0.000914951 -0.139504)
(-0.00109226 -0.000927855 -0.139527)
(0.00112051 -0.00110777 -0.139509)
(0.000941001 -0.00108474 -0.139501)
(0.000765476 -0.0011063 -0.139477)
(0.000593141 -0.00109358 -0.139452)
(0.000422393 -0.00108886 -0.13944)
(0.000254055 -0.00108304 -0.139434)
(8.5776e-05 -0.00107942 -0.139434)
(-8.26792e-05 -0.00108014 -0.139437)
(-0.000249138 -0.00108485 -0.139442)
(-0.000417223 -0.0010915 -0.139452)
(-0.000587291 -0.0010967 -0.13947)
(-0.000758772 -0.0011093 -0.1395)
(-0.000932791 -0.00108746 -0.139531)
(-0.00111206 -0.00110816 -0.139546)
(0.00124795 0.00125101 -0.155283)
(0.0010404 0.00122333 -0.155279)