/*--------------------------------*- C++ -*----------------------------------*\
| =========                 |                                                 |
| \\      /  F ield         | OpenFOAM: The Open Source CFD Toolbox           |
|  \\    /   O peration     | Version:  v2106                                 |
|   \\  /    A nd           | Website:  www.openfoam.com                      |
|    \\/     M anipulation  |                                                 |
\*---------------------------------------------------------------------------*/
FoamFile
{
    version     2.0;
    format      ascii;
    arch        "LSB;label=32;scalar=64";
    class       volScalarField;
    location    "0.000149";
    object      alphat;
}
// * * * * * * * * * * * * * * * * * * * * * * * * * * * * * * * * * * * * * //

dimensions      [1 -1 -1 0 0 0 0];

internalField   nonuniform List<scalar> 
144746
(
0.000112983
9.90644e-05
8.21202e-05
6.21151e-05
4.3497e-05
2.7845e-05
1.81828e-05
1.30158e-05
1.27366e-05
1.78995e-05
2.93897e-05
4.73517e-05
6.94791e-05
9.04929e-05
0.000109779
9.37451e-05
7.42141e-05
5.23096e-05
3.31132e-05
1.90609e-05
1.12942e-05
7.3614e-06
7.09356e-06
1.11233e-05
2.0445e-05
3.49636e-05
5.30782e-05
7.15752e-05
0.000100479
7.99031e-05
5.84117e-05
3.68686e-05
1.98009e-05
9.90385e-06
5.1013e-06
3.03552e-06
3.16396e-06
6.21864e-06
1.35265e-05
2.51212e-05
3.94561e-05
5.47338e-05
8.1274e-05
5.83742e-05
3.80507e-05
1.97896e-05
8.39928e-06
3.51652e-06
1.48488e-06
8.06087e-07
1.08575e-06
2.9919e-06
7.92697e-06
1.64838e-05
2.73774e-05
3.9064e-05
5.90375e-05
3.79511e-05
2.08709e-05
8.55111e-06
3.54527e-06
1.35177e-06
4.42141e-07
1.87597e-07
3.6223e-07
1.36852e-06
4.30624e-06
1.01233e-05
1.8234e-05
2.71746e-05
4.16463e-05
2.48373e-05
1.31396e-05
7.05536e-06
3.55242e-06
1.37077e-06
4.25217e-07
1.73261e-07
2.31999e-07
7.36893e-07
2.36402e-06
5.99603e-06
1.18102e-05
1.88863e-05
3.27249e-05
2.14984e-05
1.46035e-05
9.84827e-06
5.17577e-06
2.09279e-06
7.77496e-07
4.66918e-07
5.0509e-07
8.71329e-07
1.94671e-06
4.42246e-06
8.82703e-06
1.46783e-05
3.18657e-05
2.60224e-05
2.13676e-05
1.52488e-05
8.60553e-06
3.84571e-06
1.7312e-06
1.32457e-06
1.50523e-06
2.09537e-06
3.27498e-06
5.59722e-06
9.45007e-06
1.47712e-05
3.71754e-05
3.49916e-05
3.10201e-05
2.36169e-05
1.45386e-05
7.21796e-06
3.68144e-06
3.17167e-06
3.8654e-06
5.2715e-06
7.39376e-06
1.05885e-05
1.48584e-05
2.0369e-05
4.73407e-05
4.77339e-05
4.40695e-05
3.54853e-05
2.39135e-05
1.32453e-05
7.25567e-06
6.34488e-06
8.0007e-06
1.09128e-05
1.47798e-05
1.9733e-05
2.53081e-05
3.18952e-05
6.06079e-05
6.24902e-05
6.01566e-05
5.0872e-05
3.7162e-05
2.30137e-05
1.3514e-05
1.10609e-05
1.35442e-05
1.83548e-05
2.44985e-05
3.19318e-05
3.99644e-05
4.89388e-05
7.76046e-05
7.99349e-05
7.90962e-05
6.94792e-05
5.38299e-05
3.63752e-05
2.3165e-05
1.78723e-05
1.97947e-05
2.60126e-05
3.45237e-05
4.51714e-05
5.67105e-05
6.92364e-05
9.46264e-05
9.63883e-05
9.69368e-05
8.89022e-05
7.22449e-05
5.22063e-05
3.57248e-05
2.717e-05
2.6866e-05
3.29238e-05
4.32074e-05
5.71344e-05
7.21392e-05
8.82975e-05
0.000111971
0.000112723
0.000113044
0.000106765
9.01076e-05
6.85677e-05
4.97431e-05
3.82141e-05
3.51545e-05
3.97683e-05
5.06951e-05
6.70774e-05
8.41588e-05
0.000102351
0.00010497
9.0559e-05
7.4105e-05
5.57389e-05
3.92109e-05
2.55283e-05
1.75019e-05
1.50163e-05
1.91208e-05
3.00446e-05
4.72891e-05
6.9655e-05
9.21497e-05
0.000108313
0.000108689
9.14632e-05
7.16326e-05
5.01522e-05
3.1478e-05
1.78772e-05
1.05409e-05
7.94868e-06
1.04197e-05
1.86123e-05
3.23086e-05
4.98043e-05
6.78956e-05
8.26021e-05
0.000107651
8.48293e-05
6.13064e-05
3.82141e-05
2.01045e-05
9.52133e-06
4.64584e-06
3.17178e-06
4.79652e-06
1.06112e-05
2.1254e-05
3.50159e-05
4.90049e-05
6.10595e-05
9.53902e-05
6.78744e-05
4.37165e-05
2.24546e-05
9.12361e-06
3.4291e-06
1.31812e-06
8.66054e-07
1.82585e-06
5.26353e-06
1.24216e-05
2.25885e-05
3.3215e-05
4.2434e-05
7.59112e-05
4.81649e-05
2.58757e-05
1.0128e-05
3.72722e-06
1.28707e-06
3.87172e-07
2.28885e-07
6.84162e-07
2.42717e-06
6.63576e-06
1.35745e-05
2.17182e-05
2.94121e-05
5.66572e-05
3.20822e-05
1.52499e-05
7.23175e-06
3.50081e-06
1.29307e-06
3.93909e-07
2.05799e-07
4.00449e-07
1.26152e-06
3.53589e-06
7.87898e-06
1.40343e-05
2.09756e-05
4.32142e-05
2.49717e-05
1.4972e-05
9.85299e-06
5.152e-06
2.0708e-06
8.07201e-07
5.66174e-07
7.28996e-07
1.39223e-06
3.01617e-06
6.2352e-06
1.13744e-05
1.81715e-05
3.76888e-05
2.72498e-05
2.15383e-05
1.54464e-05
8.8926e-06
4.07656e-06
1.95776e-06
1.65788e-06
2.07162e-06
3.14627e-06
5.19789e-06
8.79228e-06
1.43694e-05
2.20342e-05
3.94573e-05
3.50688e-05
3.12717e-05
2.43528e-05
1.56685e-05
8.12423e-06
4.36869e-06
4.01009e-06
5.2042e-06
7.54707e-06
1.11994e-05
1.65266e-05
2.36913e-05
3.3032e-05
4.62878e-05
4.62435e-05
4.42134e-05
3.72384e-05
2.67124e-05
1.55929e-05
8.84146e-06
7.94146e-06
1.03797e-05
1.47269e-05
2.07308e-05
2.85464e-05
3.8026e-05
4.98927e-05
5.52678e-05
5.83077e-05
5.9216e-05
5.35224e-05
4.25514e-05
2.84127e-05
1.70878e-05
1.3605e-05
1.6726e-05
2.30691e-05
3.13958e-05
4.20339e-05
5.48875e-05
7.05027e-05
6.75825e-05
7.28138e-05
7.69676e-05
7.31667e-05
6.21602e-05
4.60766e-05
3.06636e-05
2.25334e-05
2.34529e-05
3.03934e-05
4.04678e-05
5.41103e-05
7.05511e-05
9.05071e-05
8.09629e-05
8.69441e-05
9.39841e-05
9.40119e-05
8.38471e-05
6.6897e-05
4.86717e-05
3.58501e-05
3.2129e-05
3.66513e-05
4.67032e-05
6.22103e-05
8.09932e-05
0.000104351
9.75792e-05
0.000103145
0.000110871
0.000113986
0.000105969
8.88544e-05
6.87815e-05
5.21893e-05
4.35997e-05
4.39044e-05
5.17951e-05
6.74835e-05
8.6633e-05
0.000110474
8.0935e-05
6.99999e-05
5.85004e-05
4.52173e-05
3.30771e-05
2.28277e-05
1.79019e-05
1.9808e-05
2.93448e-05
4.43433e-05
6.15728e-05
7.90952e-05
9.22086e-05
9.80581e-05
8.69557e-05
7.28738e-05
5.76472e-05
4.11916e-05
2.64105e-05
1.52797e-05
9.67582e-06
9.45923e-06
1.53439e-05
2.69417e-05
4.1731e-05
5.65111e-05
6.75397e-05
7.3027e-05
8.96662e-05
7.09988e-05
5.1947e-05
3.27987e-05
1.73604e-05
7.9817e-06
3.94139e-06
3.51852e-06
6.83527e-06
1.4957e-05
2.70531e-05
3.97933e-05
4.94819e-05
5.49141e-05
8.5346e-05
6.19227e-05
3.99086e-05
2.04433e-05
8.16099e-06
2.8195e-06
1.04066e-06
9.58968e-07
2.60358e-06
7.23786e-06
1.56229e-05
2.58159e-05
3.42614e-05
3.96256e-05
7.68194e-05
4.93986e-05
2.57016e-05
9.96534e-06
3.35426e-06
1.03138e-06
2.9141e-07
2.68005e-07
9.66668e-07
3.2124e-06
8.05589e-06
1.51397e-05
2.24442e-05
2.86957e-05
6.54291e-05
3.62386e-05
1.56914e-05
6.68352e-06
2.93029e-06
9.95075e-07
2.89963e-07
1.9514e-07
4.92627e-07
1.54222e-06
4.06255e-06
8.57172e-06
1.47763e-05
2.20343e-05
5.35685e-05
2.77716e-05
1.43892e-05
8.6008e-06
4.21705e-06
1.6172e-06
6.41399e-07
5.09676e-07
7.67619e-07
1.61975e-06
3.60356e-06
7.43851e-06
1.36777e-05
2.24307e-05
4.51487e-05
2.78027e-05
1.98337e-05
1.34183e-05
7.45832e-06
3.37693e-06
1.70087e-06
1.56601e-06
2.13173e-06
3.54578e-06
6.35192e-06
1.13968e-05
1.94796e-05
3.07911e-05
4.34834e-05
3.40152e-05
2.84795e-05
2.14189e-05
1.36225e-05
7.15739e-06
4.06901e-06
3.9641e-06
5.41657e-06
8.36498e-06
1.32636e-05
2.07648e-05
3.14703e-05
4.56234e-05
4.69025e-05
4.28517e-05
3.94767e-05
3.28277e-05
2.39414e-05
1.45131e-05
8.67133e-06
8.09406e-06
1.08502e-05
1.59871e-05
2.34096e-05
3.3368e-05
4.62455e-05
6.26543e-05
5.16594e-05
5.11041e-05
5.12536e-05
4.71104e-05
3.90337e-05
2.74646e-05
1.73044e-05
1.42225e-05
1.74885e-05
2.43957e-05
3.35994e-05
4.51761e-05
5.9632e-05
7.78208e-05
5.80888e-05
6.05657e-05
6.41853e-05
6.29226e-05
5.71666e-05
4.62899e-05
3.2956e-05
2.43619e-05
2.45724e-05
3.13262e-05
4.09378e-05
5.34066e-05
6.90705e-05
8.91759e-05
6.37284e-05
6.87178e-05
7.58355e-05
7.88863e-05
7.62684e-05
6.79376e-05
5.43942e-05
4.12489e-05
3.51685e-05
3.7527e-05
4.49799e-05
5.68739e-05
7.18874e-05
9.33831e-05
7.28482e-05
7.89655e-05
8.74381e-05
9.40593e-05
9.49956e-05
8.95456e-05
7.74654e-05
6.21663e-05
5.04668e-05
4.64559e-05
4.90846e-05
5.84348e-05
7.12845e-05
9.18233e-05
0.000105969
0.000123869
0.000141111
0.000158896
0.00018749
8.54739e-05
8.62238e-05
0.000106581
0.000131603
0.000162276
0.000213145
9.32516e-05
6.84756e-05
8.82657e-05
0.000115498
0.000157477
0.000237351
0.000102685
5.05208e-05
6.71072e-05
9.19616e-05
0.000139965
0.000251081
0.000111854
3.61982e-05
4.9041e-05
6.9463e-05
0.00011803
0.000253263
0.000119806
2.64459e-05
3.68311e-05
5.36442e-05
9.83483e-05
0.000244689
0.000126456
2.14797e-05
3.09851e-05
4.64182e-05
8.58669e-05
0.000227465
0.000132494
2.1391e-05
3.13327e-05
4.74042e-05
8.2887e-05
0.000208653
0.000136351
2.71936e-05
3.86612e-05
5.6718e-05
8.95227e-05
0.000192186
0.000136785
3.93551e-05
5.30693e-05
7.35758e-05
0.000103154
0.000177458
0.000134395
5.68443e-05
7.25558e-05
9.47042e-05
0.000119527
0.000163982
0.000130998
7.68973e-05
9.3077e-05
0.000115541
0.000134789
0.00015644
0.000125855
9.55533e-05
0.000111351
0.000132911
0.000148491
0.000161301
0.000116146
0.00010803
0.000123691
0.000144049
0.000160387
0.000179797
9.85139e-05
0.000115963
0.000133339
0.000153628
0.000178695
0.000207994
0.000101711
9.13259e-05
0.000108827
0.000132564
0.00016643
0.000215322
0.000114078
6.96308e-05
8.39247e-05
0.00010501
0.000142341
0.000210757
0.000123717
4.98805e-05
6.11639e-05
7.86456e-05
0.000115575
0.0001974
0.000130008
3.61397e-05
4.56612e-05
6.04987e-05
9.46912e-05
0.00018249
0.000133494
2.7962e-05
3.76481e-05
5.20389e-05
8.32221e-05
0.00016955
0.000135073
2.6035e-05
3.73357e-05
5.3665e-05
8.33311e-05
0.000160811
0.000136082
3.11715e-05
4.55189e-05
6.6424e-05
9.65551e-05
0.00015658
0.000136811
4.38682e-05
6.26045e-05
8.91727e-05
0.000120068
0.000155974
0.000136477
6.2756e-05
8.57236e-05
0.000116573
0.000146877
0.000157429
0.000134662
8.3857e-05
0.000108731
0.000140611
0.000170287
0.000163258
0.000132746
0.000102293
0.000125539
0.000156257
0.000185251
0.000177565
0.000130158
0.000114484
0.000134379
0.000162574
0.000191303
0.000200585
0.000122742
0.00011799
0.000135107
0.000161162
0.00019083
0.0002232
0.000108414
9.69856e-05
0.000106709
0.000118468
0.000135162
0.00015688
0.000117748
7.36756e-05
8.15275e-05
9.2761e-05
0.000110895
0.000144177
0.000124586
5.67171e-05
6.23283e-05
7.09647e-05
8.7763e-05
0.000126558
0.000128549
4.27882e-05
4.86109e-05
5.70622e-05
7.34556e-05
0.00011345
0.000130422
3.38979e-05
4.16192e-05
5.18658e-05
6.9719e-05
0.000109143
0.000132511
3.00766e-05
4.12729e-05
5.55626e-05
7.71534e-05
0.000116442
0.000136495
3.34927e-05
4.93735e-05
6.9815e-05
9.71692e-05
0.000136053
0.00014383
4.51374e-05
6.70576e-05
9.56781e-05
0.000129099
0.000163234
0.000153311
6.30771e-05
9.10923e-05
0.000127124
0.000163554
0.000186568
0.000161574
8.17014e-05
0.000112744
0.000151945
0.000189655
0.000200437
0.000166673
9.51326e-05
0.000124307
0.000161925
0.000203306
0.000208244
0.000167114
0.000101574
0.000124009
0.000156039
0.00019953
0.000210656
0.00016064
0.000102455
0.00011718
0.000141379
0.000178402
0.000203039
0.00014636
9.67528e-05
0.000107257
0.000125081
0.000153127
0.000187845
0.000125506
0.000113317
0.000130315
0.000149138
0.000170501
0.000202268
8.51583e-05
9.48961e-05
0.000114329
0.000140468
0.000176451
0.000232174
9.24953e-05
7.63541e-05
9.47313e-05
0.000123361
0.000171162
0.000254667
0.000101336
5.87242e-05
7.51704e-05
0.000103177
0.000157048
0.00026404
0.000109738
4.77375e-05
6.27422e-05
8.87135e-05
0.000143133
0.000263519
0.000116752
4.46211e-05
5.94578e-05
8.3684e-05
0.0001347
0.000257266
0.000121973
4.96589e-05
6.52433e-05
8.86889e-05
0.000134363
0.000247059
0.000125367
6.21867e-05
7.87391e-05
0.000101732
0.000141202
0.000233545
0.00012745
7.96316e-05
9.64586e-05
0.000118205
0.000151371
0.000219045
0.000129068
9.70725e-05
0.000113028
0.000133014
0.000160256
0.000203517
0.000131695
0.000110183
0.000124273
0.000143572
0.000166018
0.000190291
0.000134025
0.000117341
0.000129602
0.000149386
0.000170201
0.000190251
0.000130257
0.000119159
0.000130874
0.000151224
0.000174739
0.000205303
0.000119303
0.000118565
0.000130147
0.000151856
0.000181237
0.000230094
0.000101344
0.000115233
0.000132424
0.00015611
0.000187829
0.000229835
0.000101743
9.25146e-05
0.000108828
0.000134015
0.000173604
0.000232876
0.000114074
7.2595e-05
8.63278e-05
0.000109991
0.000152181
0.000224137
0.000124103
5.82549e-05
7.17919e-05
9.44114e-05
0.000135457
0.00021019
0.000131681
5.32574e-05
6.82771e-05
9.10245e-05
0.000129318
0.00019884
0.000137665
5.69371e-05
7.4823e-05
9.92368e-05
0.000134517
0.000192187
0.000142545
6.90257e-05
9.01276e-05
0.000116675
0.000148584
0.000189766
0.000145919
8.68464e-05
0.000109673
0.000137127
0.000166704
0.000190469
0.000148246
0.000104511
0.000126495
0.000153069
0.000183722
0.000195282
0.000151213
0.000115906
0.000134769
0.000159457
0.000193696
0.000204149
0.000154501
0.000119251
0.000134041
0.000157161
0.000193039
0.000217349
0.000156201
0.000115965
0.000127943
0.00015018
0.000185946
0.000234423
0.00015245
0.000109631
0.000120562
0.00014236
0.000178923
0.000250805
0.000141596
0.000103944
0.000114457
0.000136675
0.000176287
0.000263852
0.000122831
8.98738e-05
9.91339e-05
0.000113552
0.0001358
0.000168451
0.000118613
7.13332e-05
7.93832e-05
9.27901e-05
0.000116359
0.000157062
0.000127482
6.0507e-05
6.83396e-05
8.1405e-05
0.000104823
0.000147896
0.000135661
5.56448e-05
6.66545e-05
8.20051e-05
0.000106424
0.000148272
0.00014482
5.86327e-05
7.41649e-05
9.34219e-05
0.000120293
0.000159487
0.000156755
6.8333e-05
8.91517e-05
0.000113622
0.000143642
0.000177757
0.000170783
8.36347e-05
0.000108056
0.000136394
0.000168422
0.000195147
0.000184598
9.85021e-05
0.000122551
0.000150988
0.000184246
0.000204428
0.000195651
0.000106154
0.000125652
0.000150782
0.000187125
0.00020548
0.000202182
0.000104898
0.000118433
0.000138033
0.000175824
0.000199008
0.000201661
9.85972e-05
0.000106826
0.000120612
0.000153418
0.000190295
0.000192757
8.9915e-05
9.52157e-05
0.000105509
0.000131396
0.00018287
0.000176479
8.15121e-05
8.6138e-05
9.59155e-05
0.000119051
0.000178111
0.000155783
7.50109e-05
7.97358e-05
9.08222e-05
0.000116272
0.000179632
0.000131162
9.85083e-05
0.000194243
0.000164723
0.000145206
0.000127746
0.000116773
0.000119487
0.000179311
0.000159742
0.000142645
0.000125453
0.000114739
0.000135127
0.00017497
0.000156563
0.000137797
0.00011953
0.000107398
0.000143931
0.000183008
0.000154688
0.000130439
0.000109259
9.35012e-05
0.000145357
0.00020102
0.000151553
0.000119819
9.49567e-05
7.56534e-05
0.000143176
0.000221209
0.000144558
0.000106342
7.93095e-05
5.89149e-05
0.000140209
0.000238638
0.00013527
9.25273e-05
6.58609e-05
4.70059e-05
0.000135516
0.000255439
0.000127746
8.1484e-05
5.70776e-05
4.13036e-05
0.000128926
0.000269296
0.000126416
7.6671e-05
5.40844e-05
4.15238e-05
0.000121551
0.00028009
0.000133111
7.97569e-05
5.76982e-05
4.77687e-05
0.000113524
0.000285069
0.000146826
9.1682e-05
6.88153e-05
5.95444e-05
0.000104785
0.00028392
0.000166319
0.000112162
8.76606e-05
7.68869e-05
9.54814e-05
0.000271123
0.000183252
0.000135991
0.000110377
9.6735e-05
8.65859e-05
0.000252599
0.000191784
0.000154606
0.000130354
0.00011554
0.000116157
0.000216137
0.000163075
0.000136487
0.000118917
0.000108955
0.00013452
0.000207107
0.000166813
0.000141327
0.0001236
0.000113228
0.000147691
0.000197098
0.000171604
0.000145731
0.000126692
0.000114281
0.000155737
0.00019067
0.000176841
0.000148461
0.000125883
0.000108598
0.000158358
0.000189439
0.000179432
0.000147099
0.000119351
9.61136e-05
0.000157693
0.000191631
0.000174894
0.000139756
0.000107325
8.03764e-05
0.000155443
0.000195272
0.000162872
0.000126792
9.25578e-05
6.5684e-05
0.000152483
0.000200122
0.00014773
0.000110195
7.87556e-05
5.47776e-05
0.000147899
0.000205376
0.000134227
9.57351e-05
6.88839e-05
4.97956e-05
0.000142044
0.00021356
0.000126795
8.70891e-05
6.41933e-05
5.02393e-05
0.000135008
0.000223833
0.000127963
8.62284e-05
6.55597e-05
5.5264e-05
0.000127219
0.000238547
0.000139048
9.47659e-05
7.4271e-05
6.53691e-05
0.000118451
0.000252018
0.000158933
0.000112874
9.05762e-05
7.99828e-05
0.000107614
0.000267095
0.000180769
0.000135731
0.000111137
9.79323e-05
0.000124981
0.000146544
0.000108975
9.35354e-05
8.62523e-05
8.22155e-05
0.000149442
0.000147761
0.000117902
0.000102176
9.40379e-05
8.91869e-05
0.000169958
0.000154473
0.00013025
0.000111863
0.000101675
9.43514e-05
0.000187034
0.000168725
0.000147504
0.000123046
0.000108228
9.59046e-05
0.000198255
0.000184886
0.000165352
0.000134389
0.000113466
9.46366e-05
0.000201738
0.000196835
0.000176023
0.000142614
0.000115584
9.05203e-05
0.000198734
0.000202036
0.000176435
0.000142689
0.000111442
8.21975e-05
0.000191048
0.000200859
0.000167323
0.0001324
0.000100561
7.11202e-05
0.0001794
0.00019258
0.000150165
0.000115405
8.68204e-05
6.17168e-05
0.000165993
0.000181707
0.000131475
9.85902e-05
7.54535e-05
5.67683e-05
0.000152738
0.000172697
0.000117164
8.68094e-05
6.8356e-05
5.56746e-05
0.000140867
0.000170093
0.000109941
8.11213e-05
6.61421e-05
5.80077e-05
0.000130329
0.000173441
0.000111969
8.29001e-05
6.9079e-05
6.23267e-05
0.00012033
0.000182635
0.000122358
9.21781e-05
7.80188e-05
7.07898e-05
0.000100593
0.000174184
0.000153347
0.000136088
0.000113883
9.64593e-05
0.000122178
0.000162744
0.000143275
0.000122832
9.73688e-05
7.95995e-05
0.000135998
0.000158915
0.000129849
0.000104016
7.67881e-05
5.9039e-05
0.000144498
0.000161842
0.00011372
8.35397e-05
5.71518e-05
4.04987e-05
0.000149145
0.000168947
9.70362e-05
6.49736e-05
4.16694e-05
2.7317e-05
0.00015122
0.000177675
8.30587e-05
5.12394e-05
3.21514e-05
2.04509e-05
0.00014967
0.000189865
7.55387e-05
4.42955e-05
2.9019e-05
1.96641e-05
0.000144453
0.000206058
7.59536e-05
4.41914e-05
3.19483e-05
2.4547e-05
0.00013544
0.000225408
8.47965e-05
5.0549e-05
4.02279e-05
3.43033e-05
0.000125561
0.000242618
0.000102269
6.39142e-05
5.33894e-05
4.84625e-05
0.000116149
0.000248168
0.000126238
8.53158e-05
7.16221e-05
6.52395e-05
0.000106381
0.000245759
0.000150946
0.000111349
9.35523e-05
8.41164e-05
9.61182e-05
0.000231423
0.000167601
0.00013418
0.000113933
0.000101355
8.64741e-05
0.000210894
0.000171919
0.000147643
0.000129164
0.000115935
0.000107067
0.000203826
0.000183519
0.000159171
0.000134074
0.000114997
0.000123598
0.000188904
0.000184472
0.000157484
0.000127184
0.000104601
0.000134592
0.00017447
0.000178706
0.000147541
0.000111515
8.54372e-05
0.000141411
0.000165252
0.000164427
0.000129773
9.10643e-05
6.39579e-05
0.000145152
0.000160636
0.000142667
0.000105807
6.95911e-05
4.51224e-05
0.000147023
0.000157196
0.000117472
8.14428e-05
5.15048e-05
3.15344e-05
0.000146357
0.000154359
9.48654e-05
6.25467e-05
3.98642e-05
2.47034e-05
0.000143603
0.000154678
8.02171e-05
5.22258e-05
3.57033e-05
2.49779e-05
0.000139432
0.000160547
7.52272e-05
4.99174e-05
3.83637e-05
3.13842e-05
0.000135635
0.000170936
8.03961e-05
5.49948e-05
4.63146e-05
4.2535e-05
0.000131184
0.000182433
9.48377e-05
6.75224e-05
5.89087e-05
5.60279e-05
0.000125597
0.000197615
0.000116605
8.71373e-05
7.61321e-05
7.19228e-05
0.000117545
0.000210772
0.000141924
0.000111765
9.65673e-05
8.85176e-05
0.000107559
0.000216462
0.000161822
0.000133496
0.000115731
0.00010406
0.000124463
0.000178016
0.000157121
0.000133943
0.000116163
0.000102648
0.000145774
0.000197465
0.000182349
0.000149277
0.000122431
0.000102864
0.000160671
0.000209402
0.000200077
0.000159832
0.000122991
9.48127e-05
0.000168696
0.000211527
0.000202839
0.000162174
0.000117407
8.22207e-05
0.000170468
0.000208108
0.000190892
0.000149294
0.000102391
6.64082e-05
0.000167422
0.000197406
0.000166683
0.00012354
8.12772e-05
4.94329e-05
0.000160446
0.000177035
0.000134295
9.44212e-05
6.0845e-05
3.56468e-05
0.000151297
0.000152116
0.000103712
7.1203e-05
4.71085e-05
2.91389e-05
0.000142828
0.000130304
8.24035e-05
5.81636e-05
4.17987e-05
3.02666e-05
0.000136403
0.000117823
7.13135e-05
5.36268e-05
4.31739e-05
3.70558e-05
0.000131201
0.000114961
6.92723e-05
5.51666e-05
4.85369e-05
4.57428e-05
0.000126825
0.000120165
7.48629e-05
6.13837e-05
5.67825e-05
5.56314e-05
0.000121661
0.00013104
8.7927e-05
7.28693e-05
6.71968e-05
6.48139e-05
0.000115886
0.000142069
0.00010395
8.73372e-05
8.00515e-05
7.53267e-05
7.05286e-05
5.97676e-05
5.04435e-05
3.91312e-05
2.85784e-05
2.01221e-05
1.76318e-05
2.22756e-05
3.31913e-05
4.65851e-05
5.82579e-05
6.69997e-05
7.50213e-05
8.09101e-05
7.11126e-05
5.8031e-05
4.5553e-05
3.2498e-05
2.03297e-05
1.15932e-05
7.98354e-06
9.35706e-06
1.59245e-05
2.65525e-05
3.86073e-05
4.91319e-05
5.65859e-05
6.05069e-05
6.98477e-05
5.42156e-05
3.86231e-05
2.38262e-05
1.21554e-05
5.30908e-06
2.69968e-06
3.04932e-06
6.43099e-06
1.35598e-05
2.38315e-05
3.45718e-05
4.27555e-05
4.76766e-05
6.67055e-05
4.81043e-05
2.94766e-05
1.43812e-05
5.46437e-06
1.72258e-06
5.87694e-07
7.037e-07
2.19799e-06
6.17674e-06
1.3349e-05
2.23471e-05
2.99574e-05
3.53472e-05
6.38244e-05
4.12558e-05
2.05733e-05
7.65976e-06
2.412e-06
6.62525e-07
1.63455e-07
1.64812e-07
7.03247e-07
2.50508e-06
6.46195e-06
1.23472e-05
1.89947e-05
2.56004e-05
5.92654e-05
3.33377e-05
1.42227e-05
5.49949e-06
2.04757e-06
6.1471e-07
1.57013e-07
1.00771e-07
2.9306e-07
1.00682e-06
2.84183e-06
6.43462e-06
1.20485e-05
1.98148e-05
5.22618e-05
2.70684e-05
1.27759e-05
6.40664e-06
2.72882e-06
9.48195e-07
3.51652e-07
2.74962e-07
4.37896e-07
1.0298e-06
2.52486e-06
5.72718e-06
1.16593e-05
2.13463e-05
4.57055e-05
2.61877e-05
1.61028e-05
9.52458e-06
4.75584e-06
2.00877e-06
1.00318e-06
9.2286e-07
1.27092e-06
2.25789e-06
4.41678e-06
8.88166e-06
1.70367e-05
2.99337e-05
4.38355e-05
3.08753e-05
2.25465e-05
1.52929e-05
8.92995e-06
4.48777e-06
2.60434e-06
2.53579e-06
3.45194e-06
5.55344e-06
9.42585e-06
1.63022e-05
2.7316e-05
4.32009e-05
4.71703e-05
3.86409e-05
3.15473e-05
2.39631e-05
1.62877e-05
9.58944e-06
5.95361e-06
5.62789e-06
7.4869e-06
1.13108e-05
1.73735e-05
2.64897e-05
3.92525e-05
5.63403e-05
5.19322e-05
4.61038e-05
4.14952e-05
3.51252e-05
2.75631e-05
1.89594e-05
1.24478e-05
1.06604e-05
1.3189e-05
1.86357e-05
2.63284e-05
3.64265e-05
4.92616e-05
6.54846e-05
5.76497e-05
5.41406e-05
5.18686e-05
4.78596e-05
4.25102e-05
3.40687e-05
2.44908e-05
1.88754e-05
2.00206e-05
2.59103e-05
3.40355e-05
4.40383e-05
5.62126e-05
7.12184e-05
6.09279e-05
6.05758e-05
6.17499e-05
6.08569e-05
5.86238e-05
5.31335e-05
4.34543e-05
3.37016e-05
2.97051e-05
3.27919e-05
3.94421e-05
4.86843e-05
5.93451e-05
7.5234e-05
6.8034e-05
6.96324e-05
7.15468e-05
7.29917e-05
7.38836e-05
7.22466e-05
6.54774e-05
5.44306e-05
4.53374e-05
4.25864e-05
4.49454e-05
5.19375e-05
5.98828e-05
7.57356e-05
6.84878e-05
5.56291e-05
4.52677e-05
3.37277e-05
2.34556e-05
1.56756e-05
1.28177e-05
1.5293e-05
2.25269e-05
3.22595e-05
4.17244e-05
4.91878e-05
5.52702e-05
6.15776e-05
6.23354e-05
4.91393e-05
3.68642e-05
2.50972e-05
1.50698e-05
8.20766e-06
5.41672e-06
5.94425e-06
9.93324e-06
1.71325e-05
2.62475e-05
3.55186e-05
4.35814e-05
4.95852e-05
5.74966e-05
4.28203e-05
2.83462e-05
1.64804e-05
8.01032e-06
3.32008e-06
1.65575e-06
1.7591e-06
3.60403e-06
7.99885e-06
1.52479e-05
2.43891e-05
3.33495e-05
4.02726e-05
5.4345e-05
3.67588e-05
2.04212e-05
9.16057e-06
3.28473e-06
9.8575e-07
3.18891e-07
3.59621e-07
1.11142e-06
3.35319e-06
8.0222e-06
1.51386e-05
2.30286e-05
2.95616e-05
5.11851e-05
3.03612e-05
1.38446e-05
5.01353e-06
1.5545e-06
4.23502e-07
9.81729e-08
8.0426e-08
3.53293e-07
1.3597e-06
3.86271e-06
8.26827e-06
1.40283e-05
2.03897e-05
4.63435e-05
2.41392e-05
1.00459e-05
3.96184e-06
1.39133e-06
3.95943e-07
9.45447e-08
5.1723e-08
1.49756e-07
5.52192e-07
1.68094e-06
4.1029e-06
8.25136e-06
1.44127e-05
4.00965e-05
1.99538e-05
9.71996e-06
4.56597e-06
1.76593e-06
5.70918e-07
2.01054e-07
1.47048e-07
2.20637e-07
5.35346e-07
1.41166e-06
3.4247e-06
7.39999e-06
1.43733e-05
3.57186e-05
2.0501e-05
1.23531e-05
6.54263e-06
2.94013e-06
1.15848e-06
5.77977e-07
5.1956e-07
6.64423e-07
1.14707e-06
2.30978e-06
4.95905e-06
1.02578e-05
1.94541e-05
3.61672e-05
2.5289e-05
1.72068e-05
1.05094e-05
5.50029e-06
2.59256e-06
1.54913e-06
1.51143e-06
1.93177e-06
3.00383e-06
5.14781e-06
9.41681e-06
1.69271e-05
2.85128e-05
4.15891e-05
3.27153e-05
2.44292e-05
1.69155e-05
1.03423e-05
5.68966e-06
3.65654e-06
3.58277e-06
4.58044e-06
6.75727e-06
1.04669e-05
1.66417e-05
2.58962e-05
3.85908e-05
4.83521e-05
4.03902e-05
3.31144e-05
2.57452e-05
1.83837e-05
1.17197e-05
7.80612e-06
7.19351e-06
8.90143e-06
1.24484e-05
1.77295e-05
2.51667e-05
3.48363e-05
4.69159e-05
5.598e-05
4.87851e-05
4.28424e-05
3.69696e-05
3.04223e-05
2.24319e-05
1.57052e-05
1.30042e-05
1.46229e-05
1.9211e-05
2.54475e-05
3.32387e-05
4.21753e-05
5.25391e-05
6.05145e-05
5.63946e-05
5.28936e-05
4.92752e-05
4.52256e-05
3.83281e-05
2.9656e-05
2.31132e-05
2.19696e-05
2.61036e-05
3.22615e-05
4.00492e-05
4.78428e-05
5.7088e-05
6.96423e-05
6.63501e-05
6.23408e-05
6.07205e-05
5.97139e-05
5.61092e-05
4.84958e-05
3.94882e-05
3.38132e-05
3.40186e-05
3.80596e-05
4.53825e-05
5.14139e-05
6.12116e-05
6.02275e-05
4.61002e-05
3.52526e-05
2.46113e-05
1.61675e-05
1.00675e-05
7.3421e-06
7.49489e-06
1.0654e-05
1.63745e-05
2.3565e-05
3.09651e-05
3.80751e-05
4.57939e-05
4.93509e-05
3.62484e-05
2.51372e-05
1.60839e-05
9.18681e-06
4.71318e-06
2.90182e-06
2.73104e-06
4.15097e-06
7.57961e-06
1.31299e-05
2.03255e-05
2.85195e-05
3.67496e-05
4.37335e-05
2.92587e-05
1.74926e-05
9.28131e-06
4.25536e-06
1.67446e-06
8.01513e-07
7.38767e-07
1.36115e-06
3.21237e-06
7.05194e-06
1.31906e-05
2.11152e-05
2.94002e-05
3.96364e-05
2.35004e-05
1.16541e-05
4.8498e-06
1.65231e-06
4.72841e-07
1.4095e-07
1.29079e-07
3.81043e-07
1.27394e-06
3.54361e-06
7.86105e-06
1.41596e-05
2.11612e-05
3.48833e-05
1.8345e-05
7.88028e-06
2.91682e-06
9.25348e-07
2.48218e-07
5.30133e-08
2.71269e-08
1.18264e-07
5.22772e-07
1.71712e-06
4.28253e-06
8.41244e-06
1.3618e-05
2.95731e-05
1.4339e-05
6.194e-06
2.56473e-06
8.67368e-07
2.35037e-07
5.27693e-08
2.23073e-08
5.75421e-08
2.31357e-07
7.79211e-07
2.09674e-06
4.63051e-06
8.68429e-06
2.48529e-05
1.24888e-05
6.37868e-06
2.90913e-06
1.04419e-06
3.19364e-07
1.07877e-07
7.30793e-08
9.6979e-08
2.27483e-07
6.32868e-07
1.63825e-06
3.71863e-06
7.52839e-06
2.33504e-05
1.40352e-05
8.14464e-06
3.97378e-06
1.64051e-06
6.17857e-07
3.1142e-07
2.72692e-07
3.18202e-07
5.00111e-07
9.73191e-07
2.12403e-06
4.56056e-06
9.29889e-06
2.62647e-05
1.82308e-05
1.13667e-05
6.25744e-06
2.98463e-06
1.36383e-06
8.54857e-07
8.28517e-07
9.81012e-07
1.39456e-06
2.24761e-06
4.07751e-06
7.62201e-06
1.40728e-05
3.28382e-05
2.41705e-05
1.63365e-05
1.0151e-05
5.62479e-06
2.99885e-06
2.05913e-06
2.05901e-06
2.48571e-06
3.43215e-06
5.07636e-06
8.03287e-06
1.2971e-05
2.09811e-05
4.01541e-05
3.08417e-05
2.27605e-05
1.59961e-05
1.0298e-05
6.25021e-06
4.4129e-06
4.32783e-06
5.22721e-06
7.03206e-06
9.77558e-06
1.3921e-05
1.98366e-05
2.84616e-05
4.86402e-05
3.88898e-05
3.10239e-05
2.44709e-05
1.808e-05
1.23181e-05
8.767e-06
7.98982e-06
9.32016e-06
1.21385e-05
1.59895e-05
2.10222e-05
2.71155e-05
3.51864e-05
5.50303e-05
4.74654e-05
4.09014e-05
3.54204e-05
2.94153e-05
2.2434e-05
1.65845e-05
1.38331e-05
1.46856e-05
1.8221e-05
2.28603e-05
2.85136e-05
3.42398e-05
4.12781e-05
6.60467e-05
5.70472e-05
5.08006e-05
4.72968e-05
4.30757e-05
3.64605e-05
2.91266e-05
2.3571e-05
2.18944e-05
2.48476e-05
2.95933e-05
3.58616e-05
4.10406e-05
4.7898e-05
4.44236e-05
3.1354e-05
2.21258e-05
1.4186e-05
8.53259e-06
5.00247e-06
3.4929e-06
3.11865e-06
3.83381e-06
5.98663e-06
9.80833e-06
1.50584e-05
2.16111e-05
2.94511e-05
3.50549e-05
2.20079e-05
1.33221e-05
7.34009e-06
3.80053e-06
1.86273e-06
1.16669e-06
1.03625e-06
1.32259e-06
2.29862e-06
4.49631e-06
8.36853e-06
1.42569e-05
2.22405e-05
2.90027e-05
1.58339e-05
7.86879e-06
3.44938e-06
1.4005e-06
5.2903e-07
2.58874e-07
2.39494e-07
3.78907e-07
8.54355e-07
2.13577e-06
4.88845e-06
9.68561e-06
1.66483e-05
2.38347e-05
1.16347e-05
4.90229e-06
1.77197e-06
5.58937e-07
1.54785e-07
4.46039e-08
3.47214e-08
8.98532e-08
3.11397e-07
1.01279e-06
2.74571e-06
6.09646e-06
1.12071e-05
1.91293e-05
8.82382e-06
3.60667e-06
1.35847e-06
4.38218e-07
1.13736e-07
2.27138e-08
7.26172e-09
2.59456e-08
1.27691e-07
4.89668e-07
1.46239e-06
3.46936e-06
6.73739e-06
1.5464e-05
7.28816e-06
3.27118e-06
1.33579e-06
4.23844e-07
1.07018e-07
2.21668e-08
6.99653e-09
1.41367e-08
6.15817e-08
2.38473e-07
7.41142e-07
1.88979e-06
4.05375e-06
1.35116e-05
7.07286e-06
3.48218e-06
1.43135e-06
4.62043e-07
1.29167e-07
4.04796e-08
2.5096e-08
2.87446e-08
6.31927e-08
1.91494e-07
5.60935e-07
1.43443e-06
3.20877e-06
1.41964e-05
8.34504e-06
4.26818e-06
1.79803e-06
6.49544e-07
2.29701e-07
1.18214e-07
1.02066e-07
1.08184e-07
1.51672e-07
2.86744e-07
6.6264e-07
1.55754e-06
3.51115e-06
1.74487e-05
1.09137e-05
5.79271e-06
2.68591e-06
1.12131e-06
5.09636e-07
3.49152e-07
3.38608e-07
3.69574e-07
4.74648e-07
7.12986e-07
1.27908e-06
2.52518e-06
5.24053e-06
2.29834e-05
1.47435e-05
8.41457e-06
4.3915e-06
2.15282e-06
1.17684e-06
9.09001e-07
9.18339e-07
1.03281e-06
1.31546e-06
1.83289e-06
2.83792e-06
4.76611e-06
8.66471e-06
2.90037e-05
1.94853e-05
1.23932e-05
7.40036e-06
4.21931e-06
2.59245e-06
2.06934e-06
2.10267e-06
2.40846e-06
3.06474e-06
4.11017e-06
5.80374e-06
8.5787e-06
1.36931e-05
3.65066e-05
2.61133e-05
1.85504e-05
1.26377e-05
8.18162e-06
5.41334e-06
4.25399e-06
4.20112e-06
4.80246e-06
6.06891e-06
7.90625e-06
1.0472e-05
1.40025e-05
1.98665e-05
4.36672e-05
3.44672e-05
2.71426e-05
2.06727e-05
1.48715e-05
1.05195e-05
8.13472e-06
7.59299e-06
8.41285e-06
1.04338e-05
1.3248e-05
1.68009e-05
2.07995e-05
2.66442e-05
5.33936e-05
4.42036e-05
3.77869e-05
3.17249e-05
2.5062e-05
1.90022e-05
1.47063e-05
1.28056e-05
1.32541e-05
1.58637e-05
1.9647e-05
2.42685e-05
2.84778e-05
3.41e-05
2.98369e-05
1.84005e-05
1.12328e-05
6.42405e-06
3.54836e-06
1.97429e-06
1.37533e-06
1.17886e-06
1.22758e-06
1.68928e-06
2.94777e-06
5.37112e-06
9.30164e-06
1.50026e-05
2.27865e-05
1.155e-05
5.5769e-06
2.5643e-06
1.16919e-06
5.57918e-07
3.66149e-07
3.36105e-07
3.71726e-07
5.2604e-07
1.04404e-06
2.36755e-06
5.10044e-06
1.00724e-05
1.6875e-05
7.38088e-06
2.87195e-06
1.02167e-06
3.4913e-07
1.25082e-07
6.42471e-08
6.35301e-08
8.54127e-08
1.57097e-07
4.15132e-07
1.1988e-06
3.09961e-06
6.89156e-06
1.254e-05
5.11266e-06
1.85176e-06
6.21899e-07
1.88065e-07
4.92524e-08
1.28634e-08
7.40692e-09
1.40203e-08
4.60876e-08
1.80176e-07
6.33947e-07
1.83716e-06
4.35974e-06
9.36404e-06
3.95672e-06
1.60899e-06
6.18709e-07
1.9551e-07
4.77202e-08
8.90581e-09
1.70049e-09
3.20227e-09
1.79763e-08