/*--------------------------------*- C++ -*----------------------------------*\
| =========                 |                                                 |
| \\      /  F ield         | OpenFOAM: The Open Source CFD Toolbox           |
|  \\    /   O peration     | Version:  v2106                                 |
|   \\  /    A nd           | Website:  www.openfoam.com                      |
|    \\/     M anipulation  |                                                 |
\*---------------------------------------------------------------------------*/
FoamFile
{
    version     2.0;
    format      ascii;
    arch        "LSB;label=32;scalar=64";
    class       volScalarField;
    location    "0.000149";
    object      epsilon;
}
// * * * * * * * * * * * * * * * * * * * * * * * * * * * * * * * * * * * * * //

dimensions      [0 2 -3 0 0 0 0];

internalField   nonuniform List<scalar> 
144746
(
139999
123868
105531
78697.9
53976.9
34397.9
23611.3
18654.8
20146.8
27582.1
40252.1
58233.1
80870.4
106029
145011
127364
101063
69080.8
42449.2
23992.3
14122.1
9682.31
10633.4
17137.6
28583.4
43196.3
60313.3
78986.9
146634
118301
86179.2
53246.4
28027.7
13277
6378.86
3728.48
4452.38
9356.04
19129.9
31772.6
45267.3
60434.6
127722
92731.2
62176.3
32464.8
13061.4
4865.78
1818.12
932.602
1452.84
4293.26
10992.1
21088.7
32087.7
43674.2
100293
67342.6
38102.2
14563.4
5013.4
1635.76
481.189
205.546
471.923
1858.01
5756.8
12966.7
22045.1
31704.6
77086.3
47221.2
22647.4
9627.14
4317.54
1569.96
465.749
192.531
284.656
940.071
3022.59
7621.41
14875.1
23702.8
62274.9
37654.8
20677
12529.4
6492.91
2608.15
934.603
544.675
612.069
1116.93
2568.44
5951.14
12110.8
20448.3
56304.9
39100
27957.4
19494.3
11411.2
5236.69
2251.66
1604.71
1845.76
2720.7
4493.66
8035.63
13954.2
21931.9
57688.6
46215.3
38692.6
30381
20171.8
10608.1
5173.25
4002.32
4789.16
6778.57
9913.44
14770.8
21086.1
28746.9
66926.3
60255.8
54405.5
46130.8
34244.2
20681.9
11120.9
8477.22
9998.28
13660.1
18687.2
25266.9
32181.8
40122.2
80646.9
77787.5
75836.8
67714.8
54268.6
37200.1
22435.6
16135.6
17338
22373.8
29071.4
37446.4
46059.9
56290.5
101544
100329
102370
95335.9
80088.6
59511.4
40268.2
28779.7
27017.8
31823.8
39608.2
50385.7
62272.8
77012.2
119472
117962
124593
122688
107085
83664.4
61532.3
46170.4
39902.3
42420.3
50528.2
63990.7
78886.8
98927.5
143179
138222
143164
145115
131179
105697
81378.5
63615.7
54381.9
54470.8
62508.2
78814.9
95075
120348
133458
119780
101201
74543.4
53050
36367.8
27984.6
27381.1
35938.7
51009.2
69418.8
91610.3
112983
128555
147542
128526
101059
68634.8
43042.9
24803.2
15236.7
12894.4
18624.3
31757.5
48585.4
66094.6
82569.1
96604.6
163414
131125
94485
57789.2
30188.6
13761.7
6405.04
4606.56
7917.24
17527.6
32373.7
47810.7
61075.8
74033.8
158520
114017
75383.5
38766.7
15039.4
5079.36
1746.25
1163
2790.33
8194.1
18553.3
31330.7
42780.9
53183.1
139646
92289.6
50825.2
18748.7
5737.35
1673.78
453.249
291.949
980.338
3543.84
9574.71
18983.5
29342.7
39726.3
117392
69036.8
29966.2
11018
4574.04
1579.72
461.759
249.45
527.624
1719.83
4900.93
11098.7
20279.6
31506.6
97134.7
52494.3
24414.8
13686.9
6952.76
2772.1
1037.93
706.078
951.352
1931.06
4394.83
9554.11
18423.5
30642.9
82997.7
49424.7
31729
21512.5
12736.7
5998.33
2733.44
2152.97
2751.7
4462.61
7890.51
14190.1
24293.9
37680
78093.9
54476.2
43270
33922.9
23512.9
12978.3
6667.17
5476.58
7023.86
10632.2
16542.1
25407.5
37033.6
50913
81782
66496.9
59172.2
51759.6
41277.9
26648.4
14983.9
11700.8
14254
20244.9
28785.2
39958.6
52492.3
67262.1
88452.7
80353.3
79134.2
74892.9
66409.5
50311
31897.7
22580.8
24034.3
31258.4
41145.3
54081.7
68713
86610.8
104048
101389
105975
105350
97975.6
81905.4
59849.1
42359.6
37496.3
42716.7
52366.9
67198.2
84642.1
107231
118451
117426
128262
135518
130543
115261
93483.9
71046.4
57747.5
56728.2
63701.6
79232.5
97073.1
123534
141882
138164
147426
159759
160131
145216
123302
99509.1
81377.6
74111.4
77022.9
92711.2
109213
135922
112137
97178.7
82986.9
64261
51042.6
39535.4
36358.1
44678.5
63678.7
83851.4
99242.5
112573
120125
120619
126170
105300
82890.4
59102.2
39840.5
24259.5
16754.7
18854.5
31844.7
51692.8
70058.1
83338.9
89846.1
91882.2
140885
112343
83114
53102.3
28436.9
12749.6
6165.73
6073.96
12885.1
27594.6
45961.9
60848.5
69037.3
74535.7
145334
109103
73545.4
37973.7
14426.9
4516.77
1509.44
1489.77
4442.53
12444.8
25897.9
40209.5
50234.5
57368.5
150801
103383
55125.8
19789.2
5550.06
1428.61
365.937
385.992
1505.79
5119.91
12851.7
23829.5
35097.7
46369.5
151590
88320.1
34537.8
11224.1
4066.07
1276.84
357.32
254.831
694.115
2263.64
6193.69
13696.8
25189.1
40510.7
140304
69009.4
26868
12964.8
6065.24
2290.45
865.864
673.468
1076.31
2441.3
5853.16
13143.1
26326.6
45573.7
121242
60609.8
32984.9
20511.8
11537.1
5307.64
2500.6
2157.86
3062.37
5524.16
10778.9
20924.7
37871.4
60382.5
107722
63089.6
44548.6
33026.5
22287.9
12332.8
6599.52
5777.7
7937.24
12994.8
21888.7
35968
55543.8
78337.1
102638
71052.4
58664.7
50219.6
40486
27020.8
15871.6
12876.3
16260.2
24313.8
36335.4
52384.7
71470.8
92791.5
98961.1
77656.1
73531.7
70689.7
66418.7
53719.9
35776.3
26168.8
27971.9
36964.8
49525.8
65229.7
83284.2
103959
102701
90955.8
93302.6
94678.2
95999.8
90589.9
72621.3
52671.3
45367.7
50626.4
60628.7
75205.8
92503.2
113926
103094
99444.1
108901
117324
124089
127648
118489
95544.2
75596.7
69380.2
71881.7
83201.5
96149.5
119445
116683
115641
124094
136491
148364
156499
155551
138241
113544
96298.2
88462.3
94317.6
101105
121699
131296
173132
237518
355900
610289
128082
94676.1
127183
182937
289848
576628
97136.8
75220.8
102856
152005
263524
640750
85007.1
56243.9
77329.6
115626
222568
710774
79719.8
42055.9
57535.3
84773
176775
755982
77598.8
33056.3
45455
65407.7
137410
764467
78316.8
29340.6
40314.4
56613.1
116175
737276
83247.1
30276.6
40652.4
55624.3
109589
700627
90301.5
36040
46765.6
62777.7
118837
681744
98080.8
46798.2
59721.4
80635.9
145792
687411
108511
62639.4
80535.7
110713
189397
703902
127329
82911.8
106869
150248
244185
722405
156755
106017
136492
193944
305643
745312
189304
128174
165224
233706
363125
765723
199042
137383
171108
222367
312735
488939
209487
107215
137808
189566
287312
508239
173048
85957.4
109501
150387
245636
525194
144755
63977.1
81661.9
111495
195681
518011
122333
50092.1
64461.3
85783.8
153155
495278
105647
42982.4
56859.3
73357.8
123342
463286
95168.9
43396.4
57417.3
71262.3
108359
429583
91259.1
50555.3
64798.3
78788.3
113079
402326
93563.8
62827.5
78413.2
95249.4
136473
392990
100129
78895.9
97799.3
120972
175339
407357
111133
97284.7
121689
153174
222526
441992
132912
115358
144343
186917
270610
488286
171576
132109
163486
216051
311210
553957
219049
145443
178182
238875
345407
631022
258987
114752
127902
145114
179252
258671
331796
93265.3
106610
125485
156600
234953
230374
78845.1
89514.8
103740
128827
205148
166324
64481.7
76303.2
89544.4
110039
177823
127900
57805.3
72543.4
85146.3
101483
153550
108642
57857.5
76521.8
88903.8
101122
137240
105477
67186.5
88053.2
99095
107067
130140
117711
83055.7
103502
113131
117795
131711
144832
98343.4
116802
125774
129464
139575
183134
109175
125035
134147
142609
152958
231180
116567
131259
141673
162276
173704
288064
121926
135412
149490
182982
203814
343872
126625
137897
155002
194717
248369
387292
125866
138037
157051
197877
295180
413815
147234
192289
266016
403818
703323
129429
115365
151951
216748
351805
702335
96747.3
94766.1
123587
180181
321553
758971
83108
75113.7
96952.5
143299
282573
792193
76077.1
65538.3
82229.9
117895
246826
792977
71752.3
65773
79264.4
106506
221155
773294
69252
74927.6
86102.4
108502
213397
747182
68839.2
90486.8
101019
122662
225860
723729
71624.8
109186
121291
144788
248237
713427
79578.9
125382
140873
168969
267643
698343
97931.7
134656
153798
192575
289549
665855
130662
139913
161331
211883
314392
659931
167029
145327
169517
227827
340449
699989
198026
155023
181453
246742
374695
780992
209098
154655
191821
255518
375647
642251
215010
127996
158811
215999
339836
643155
176916
106006
126878
170588
285805
615052
148972
89931.5
106502
139056
238250
556852
128686
88631.7
102690
126193
208409
494362
115797
98389.8
110607
128027
198034
443452
109045
116278
126338
141058
207686
418324
107086
135819
143976
159686
232990
426302
110985
149649
158253
177231
261933
464653
125248
153660
164993
189097
280996
514214
154295
150194
164335
197852
294750
571810
200936
146322
163210
206598
311039
665153
258709
147491
168018
219854
337429
798635
318799
155453
178427
239178
381429
943466
356856
126020
137695
156823
197105
305308
345278
109524
120356
135371
168088
260342
250054
103899
112375
121548
144538
218187
197656
105059
116155
122073
136122
187564
174998
119908
131560
132592
137749
168738
174559
141297
151279
147348
145031
161060
190434
162450
165935
157260
152202
164006
218729
169463
165517
156246
157935
173204
256837
160188
153596
149160
166798
188974
300679
144839
140874
141571
174432
214664
342495
131821
131715
136874
177095
266405
375917
123009
127037
137387
180361
338895
404456
119652
127760
144584
194197
413948
426832
121539
131087
152819
215864
481707
435443
190049
547898
302800
217470
166348
142768
196693
542124
288914
206595
160031
142207
184715
572831
278457
194444
153976
139796
160561
629752
267879
179548
144373
129074
130795
702381
253161
160588
129459
112356
107792
761100
230689
139266
112582
95433.5
94601.7
802206
208454
120940
98712.2
81961.6
86147.2
851534
193722
108621
89270.6
73293.4
80858
900324
201748
105268
84751.6
69977.6
79687.8
945291
231430
112820
86758.7
73687.6
82716.6
963838
276685
134912
99072.3
85302.9
90181.9
955993
338087
175824
125910
107179
104196
893336
391421
227701
162796
134115
132660
841597
433545
277005
200846
163327
298610
574554
287448
201935
157325
137018
269855
495997
261463
190418
155696
142562
233627
448766
249141
186948
160222
152012
197872
440359
245615
186220
164701
155530
165111
456320
243852
182092
163896
151708
141188
469963
237185
172430
157269
142885
127024
479676
220444
160345
148163
131052
120957
502765
201725
146895
136833
116322
120077
547237
196243
136716
125273
105252
124299
620634
207658
132753
116848
99306.7
135346
707461
239405
139480
115186
99669.5
156176
813772
294197
163300
126217
110471
190879
899115
372819
210138
154611
131225
244999
1.00588e+06
452778
267786
192316
158890
373847
306382
175379
137989
121194
112271
368472
247425
162894
135521
124911
121153
356544
197353
151130
135077
132351
132424
342716
166327
144937
136822
140270
141613
324765
151972
142495
140520
151209
155856
297710
152329
141225
148710
167454
174691
267023
157169
143499
162035
185645
185771
238344
165176
150380
171656
192811
178632
215324
178552
155336
169940
182308
158791
200806
204694
157450
159052
163863
139529
198411
245910
161477
148779
145357
124571
213476
308481
171277
141606
132031
117512
255134
388057
197418
145828
128546
114900
340564
491824
243153
164540
137958
123027
208177
734103
339149
215667
148164
112140
216976
756681
293222
178617
119057
89945.2
195299
748633
238149
138200
91097.6
68491.5
168935
725968
184862
103191
68845.8
51060.5
146778
709055
143221
78955.9
54233.9
39012.5
131122
703452
117580
65220.8
46185.5
31842.6
117979
722520
108664
60304.7
43488.8
29786.8
106357
757776
112428
61878
46250.3
33894.2
94625.8
794247
127852
69794.1
54600.1
43887.6
87715.9
812036
160864
86305.3
68864.9
60208.5
87669.1
775118
216365
117201
90916.8
80265.2
92757.9
716504
273392
160351
120379
103517
104205
627998
310321
201091
148993
123586
129516
562353
329825
233179
176535
144465
245271
513916
303076
218610
165935
133683
220519
498347
285685
203109
152804
121713
187921
482049
257337
179243
133103
103898
158896
463034
217528
150443
111706
85415.7
137530
447342
175581
122821
93583.2
69891.2
123507
438318
141519
101999
80088.7
56665.3
112858
443530
120628
88806.8
70122.6
46997
105408
466799
112848
82777
64870.6
44308.3
102663
504390
116858
82897.7
66217.2
49156.6
108228
544302
137734
90883.9
73853.4
61368.5
122218
570463
178127
110056
88708.7
77651
146093
605339
232549
143461
112696
99275.7
182364
627592
293404
189582
143586
120908
237628
624862
331349
224476
169083
137562
399176
239222
177657
149499
135329
121210
379029
205132
173452
150239
137805
124447
343671
179586
163217
148439
137710
121137
296912
166111
151314
147491
137331
117084
248017
158914
144677
146685
135732
111789
203897
155117
140827
142087
131132
100181
165612
154336
134526
133370
119341
81765.1
136142
158527
126673
121353
103474
66409.7
119271
167672
120392
111680
91425.6
60664.6
115751
188019
118102
106387
86758.5
64385.8
125968
217199
122580
105893
87416.2
71012.3
152672
252002
134823
110119
94163.7
82696.7
203248
292906
161292
125126
105935
92876.1
295778
328097
189913
143293
121534
105163
114037
88922
76648.8
61747.1
50182.3
40614.8
42715.5
59249.2
84124.3
104453
112927
115890
121988
127597
116532
89419
70200.3
51897.7
34603.2
20716.7
15978.9
22092.2
38855.1
60416
78333
88587.9
92467.6
93009.3
119963
92502.7
67489.8
43011
22075.8
9331.98
4671.84
6117.68
14153.8
29245.9
47775.1
63046.3
71357.4
76892.2
124402
94023.5
60002.6
29201.3
10417.2
2960.99
915.546
1238.43
4283.37
12181.4
25489.5
40377.3
51230.4
59741.1
139093
96338.6
48200.8
16102.7
4135.92
934.325
210.342
261.742
1212.13
4448.35
11550.5
21943.1
33952.8
48087.4
154469
89865.9
34275.2
9789.64
2891.14
790.547
193.518
137.64
440.836
1586.77
4690.06
11292.8
23127.1
42601.2
155367
75379.6
26356.3
10044.1
4018.43
1362.81
477.624
371.882
647.245
1659.53
4443.6
11228.6
25716.4
51413.1
139906
64426.8
28526
15358.4
7732.44
3264.49
1491.75
1302.04
1936.62
3836.67
8363.56
18640.2
38842.1
70457.5
123458
63940.8
38085.3
25620.8
15763.8
8142.98
4309.64
3795.78
5395.61
9532.17
17715.6
33051.3
57825.4
90461.8
116449
70768.1
51859
40759.4
30387
19176
11266.3
9219.27
11990.5
19141.5
31096
49455.7
73834.3
101847
110932
76156.1
65434.6
59036.6
52703
40801.5
27210.3
20262.6
22298.7
31197.2
44556.3
62241.2
83090.1
105387
111554
86320.4
80380.9
78529.5
80582
75870.6
59922.9
43535.3
38821.2
45344.8
56552
71828.1
89792.6
110362
106093
92770
94638.4
98224.1
107409
116043
110163
89167
70710
66387.7
69808.8
81404.8
94165.1
118934
123152
115081
112805
116950
128830
146933
158245
146563
121283
102405
92549.3
96553.6
99741.7
124597
117356
84204.5
68873.2
53072.6
40266.1
30345.7
30192.6
42183.6
62675.1
82527.3
94396.9
98419.7
101826
112153
103124
77013.1
57938.1
41064.3
25632.5
14236.8
10262.6
13784.3
25242.8
42032
58718.5
70972.5
78405.8
82475.8
98699.4
74945
51061.4
30285.3
14479.6
5685.33
2718.64
3368.67
7952.06
17836.5
32196.7
47367.2
59108.6
67152
105486
75100.4
42595.6
18553.8
6092.92
1618.71
468.765
601.625
2124.08
6613.58
15527.3
27992.6
40240
50017.6
119476
73566.6
32174.3
9996.48
2443.17
546.669
116.483
122.191
591.464
2356.11
6777.98
14476.5
24571.5
37106.4
128817
65515.4
22769.6
6484.25
1819.19
472.82
108.025
66.2654
214.642
827.731
2627.52
6773.7
14812.1
29568
124141
53144.6
18271.8
6679.36
2426.95
757.408
250.566
183.828
304.194
805.088
2306.72
6256.95
15603.1
35030.1
108755
45847.5
20284.8
9963.92
4509.32
1738.41
779.062
673.131
943.348
1842.67
4193.9
10223
23924.2
49830.4
95877.5
47202.1
27436.8
16997
9339.67
4383.61
2300.47
2062.46
2824.35
4949.76
9575.34
19604.6
38548.1
68428.6
94220.9
55336.5
38822.9
28534
19053.5
10825.7
6215.05
5288.07
6872.99
11098.9
18890.5
32686.4
53913.6
82252.4
95657.8
63608
51771.2
43986.6
35727.3
24779.7
15670.8
12126.1
13909.9
20165.8
30343.5
45399.3
64867.5
87916.4
102839
74730.1
65486.9
62124.2
60278.7
51126.4
37041.1
26907.7
25394.3
31529.5
41682.6
55701
71833.7
90274.3
101798
84627.2
79994.3
80949.3
88217.9
89630
77561.5
59122
47174.9
47463.1
53564.7
65866.1
78449.8
97025.4
129255
110331
95996.3
97724.1
111917
127718
129639
112957
90397.5
76670.5
72037.4
80557.3
85863.6
109499
98427.2
67591
51101
36422.1
25136.8
16348.2
13356.3
16424.7
25787.5
38801.9
51376.3
60971.7
67777.3
77752.6
76167.7
55480.1
38913.4
25353.8
14609.9
7317.69
4499.88
4893.08
8784.33
16592.2
27269.1
38737.9
49349.5
58115.6
72781.4
50173.5
30484.3
16057.6
7115.64
2603.66
1138.71
1118.75
2471.96
6248.42
13464
23796.8
35406.9
45714.8
76681.5
46529.8
22726.4
8887.13
2724.45
683.111
179.577
176.697
613.995
2188.4
6121.91
13248.2
22898
32732
79264.7
41118.3
16097.8
4918.49
1224.17
275.381
54.216
34.7035
172.792
795.735
2671.68
6705.18
13139.2
21441.2
76393.2
33623.5
11453.1
3538.97
998.118
250.167
53.8201
24.8331
72.9346
306.156
1065.85
2980.18
6944.51
14234
66918.7
26391.2
9781.48
3744.42
1273.93
375.178
119.138
80.3779
116.323
293.26
862.446
2408.99
6109.02
14327
56822.8
24330.7
11533
5391.92
2229.73
808.96
364.706
308.389
389.625
679.277
1457.91
3544.5
8615.44
19947.5
52592.2
27785.3
16205.1
9132.82
4497.84
1980.02
1072.58
973.679
1233.63
1953.67
3527.83
7183.89
14971
30248.3
56583
35086.2
23775.5
15707.1
9264.26
4858.22
2863.25
2559.7
3206.64
4856.66
7932.63
13849.7
24339
41917
62655.1
43367.1
33330.4
25643.1
18191.7
11336.9
7089.95
5896.86
6946.28
9919.18
14816.9
22678.7
34265.3
51246.6
74085.5
54059
44964.3
39571.7
33404.9
24689
16733.7
12726.4
13163
17121.5
23299.4
32030.5
42770.1
57025.3
80112.2
65998.9
58332
56576.2
55319.5
48135.9
36950.5
27416.1
23976.6
26858.9
32650.5
41390.1
50524.3
62706.8
109545
83256.2
71332.7
73957
80349.8
80029.9
71099.1
57111.3
45533.3
42580.5
44617.7
52784.5
59394.5
73631.2
66987.8
44972.6
31048.4
19686.3
11755.2
6652.98
4602.4
4487.81
6520.23
11155.1
18231.8
26584.1
35720.7
45977.8
53090.2
33109.2
19743.9
10565.1
5289.14
2423.08
1406.78
1272.43
1912.9
3808.5
7683.78
13840.7
22347.8
32848.9
48469.9
26088.1
12523.7
5158.5
1951.98
669.581
290.08
261.184
482.179
1254.23
3283.2
7441.02
14286.4
23603.6
44262.4
20781
8079.42
2549.32
689.267
165.731
42.9448
35.0053
107.924
416.011
1407.86
3849.02
8484.36
15343.8
38630.6
16165.3
5527.41
1629.77
426.975
98.1752
18.4349
6.98678
30.1102
155.611
615.748
1879.34
4519.51
8859.54
31950
12376
4260.05
1400.22
394.148
92.9932
18.4242
6.1887
14.496
66.1723
264.268
849.755
2254.74
5088.66
25731.2
10245.5
4049.48
1491.42
456.024
121.38
35.959
22.4214
27.6752
64.6594
203.318
624.55
1710.11
4216.12
23149.4
10795.9
4954.88
2004.03
705.523
234.505
109.412
93.5237
106.062
161.112
325.026
804.837
2073
5250.74
25070
13745.5
7048.57
3262.57
1346.14
561.954
337.381
319.745
372.405
522.509
859.287
1697.58
3718.49
8556.79
31255.2
18777.6
10809.4
5785.88
2846.07
1421.06
939.128
902.215
1070.13
1482.16
2257.88
3854.13
7151.79
14183.4
37785.5
25033.2
16607.4
10445
6115.73
3508.31
2374.64
2190.74
2570.92
3508.46
5075.52
7785.83
12506.2
21429.8
47591.8
33815
25518.3
18756.6
12851.4
8308.95
5672.14
4832.75
5348.92
7053.26
9711.2
13710.1
19518.8
29230.3
56410.3
44812.9
37651.3
31528
24736.2
18023.9
12876.3
10226.4
10146.2
12472.2
16211
21449.2
27676.3
36826.6
73272.4
57824.4
52203.5
48987.3
43234
35328.2
27188.1
21097.6
18547.7
20357.2
24441.1
30583.8
36437.5
45668
43515.1
25777.6
15026.3
8183.11
4279.13
2192.35
1406.81
1172.78
1364.89
2284.78
4497.42
8376.95
14053.4
21483.4
34897.6
16983.1
7723.51
3292.01
1385.17
594.998
346.601
297.549
351.047
608.1
1412.37
3348.07
7099.64
13469.4
27778.5
11452.6
4068.92
1279.5
386.01
122.58
55.2041
50.6987
72.8607
164.352
501.417
1516.57
3944.83
8665.69
21684
7929.57
2420.33
650.559
161.049
37.0783
9.11018
5.32916
11.8271
46.6326
198.772
726.422
2150.9
5149.38
15992
5509.93
1729.61
529.665
145.4
32.7393
5.79924
1.15498
2.82985
17.1647
87.0195
344.475
1079.3
2709.55
11496.5
4155.02
1502.74
514.573
143.424
32.122
5.90957
1.35708
1.77239
8.62419
42.7262
169.485
544.896
1454.24
9151.01
3832.64
1547.31
541.472
151.815
36.6694
9.66503
5.28447
5.30106
9.96126
33.1023
119.652
380.019
1048.37
9367.12
4452.69
1880.86
666.858
201.355
60.0805
27.8097
23.8804
24.6422
31.0618
54.63
137.053
386.712
1096.2
11781.5
5909.96
2580.73
978.853
339.349
135.814
90.5466
89.4378
96.6591
117.808
167.131
302.774
681.118
1793.64
15903.1
8262.96
3929.65
1694.21
704.273
354.036
270.226
275.848
308.484
383.31
522.459
824.274
1556.06
3550.95
20785.1
11960.3
6493.78
3285.69
1625.55
925.431
718.181
724.33
826.695
1047.7
1411.15
2070.47
3444.8
6775.5
28214
18181.8
11487.8
6825.8
3891.14
2356.67
1755.3
1681.39
1909.81
2443.97
3259.59
4547.43
6804.62
11599.9
37363.4
27553.9
20168.7
13813.4
8876.75
5699.82
4067.81
3588.98
3902.05
4953.42
6528.57
8781.57
12063.5
17990.8
49550.2
41050.4
34052.8
26452.7
18980
13040.3
9160.37
7352.45
7286.39
8892.46
11496.7
15005.3
19251.9
25532.5
27497.7
13443.9
6097.78
2640.18
1132.09
517.454
317.057
268.118
279.945
401.331
828.957
1946.7
4266.87
8182.44
20582.6
8059.25
2624.75
773.931
236.851
89.7327
54.4451
53.9149
61.9002
89.1926
201.3
589.853
1672.25
4240.74
14057.8
4555.66
1161.73
247.657
51.0228
13.6528
6.96759
7.31879
10.2507
19.6784
61.9466
234.794
816.334
2435.18
9173.2
2666.18
657.545
153.573
34.7937
7.29075
1.55751
0.737316
1.23524
4.53756
22.8071
106.474
413.086
1318.54
5640.52
1695.81
510.247
152.871
39.2476
8.07779
1.31265
0.200067
0.243952
1.55571
9.63498
47.8949
191.823
625.23
3763.07
1337.77
477.599
153.305
39.1222
8.02982
1.35584
0.263662
0.197671
0.811122
4.90883
24.6715
99.1014
326.34
3237.54
1341.39
498.049
155.184
38.5855
8.2447
1.96104
1.02895
0.915699
1.24909
3.78877
16.4222
64.5399
215.14
3785.16
1631.26
593.66
178.653
45.6017
11.9103
5.60307
5.03242
4.94503
5.33537
7.54824
18.0654
57.7664
193.339
5135.15
2194.94
791.847
243.867
69.4687
26.51
20.0679
20.8817
21.6062
23.8107
29.144
46.2467
101.752
302.715
7342.01
3178.8
1221.4
417.424
144.817
75.2546
66.7525
71.7523
77.1276
88.832
109.824
157.214
283.804
711.382
10381.9
4947.82
2161.07
874.149
368.767
218.433
195.186
209.397
232.657
279.637
354.902
494.205
812.815
1762.81
15522.2
8589.3
4442.97
2145.8
1033.04
616.44
513.571
534.013
606.289
756.76
982.448
1349.84
2063.24
3901.79
23621.6
15608.3
9505.87
5346.29
2845.23
1669.21
1258.46
1225.95
1390.58
1784.65
2363.18
3214.71
4593.56
7608.19
35736.4
27640.5
19462.2
12518.6
7370.58
4354.4
2976.5
2613.41
2843.3
3695.39
4967.24
6734.01
9087.48
13057.2
15486.7
6095.14
2093.87
669.147
222.253
91.2354
54.404
48.2435
51.0049
65.5925
125.496
334.15
934.059
2383.36
10039.8
3142.38
755.334
151.513
31.6259
10.4043
6.73333
7.26498
8.9933
12.0525
24.0772
79.9487
294.275
1023.9
5535.35
1409.98
274.227
44.5228
7.16438
1.51132
0.710346
0.761097
1.15613
2.0497
6.27338
29.0405
132.266
534.184
2893.82
697.771
155.134
35.278
7.72835
1.39809
0.228777
0.077638
0.10552
0.342535
1.97605
11.959
61.2278
261.085
1622.1
460.66
135.556
38.2723
8.99899
1.58818
0.220941
0.0257898
0.0156736
0.0956414
0.742643
4.79867
25.1485
108.533
1158.23
401.74
133.088
38.22
8.65259
1.5076
0.21629
0.0336134
0.0167972
0.0516674
0.373163
2.43518
12.7175
54.0732
1139.66
434.115
142.152
38.6595
8.22341
1.45803
0.285186
0.1324
0.109421
0.125018
0.328732
1.66251
8.24808
34.75
1462.12
551.347
172.893
44.5645
9.36203
1.99657
0.846907
0.740011
0.699388
0.723247
0.927104
2.09989
7.50632
30.6211
2073.34
756.448
231.698
59.1328
13.7008
4.5658
3.48042
3.58584
3.58738
3.8865
4.62185
6.90166
14.5153
47.5724
3044.68
1113.79
353.173
98.3437
28.4057
14.4147
13.4627
14.4563
15.1039
17.2709
21.201
29.203
48.9767
126.41
4519.15
1802.31
641.265
209.013
76.3447
47.1149
45.4331
49.4104
53.8096
64.7553
82.5694
112.085
174.14
389.772
7467.32
3515.98
1480.45
572.168
237.867
147.78
135.633
146.441
165.227
208.44
274.752
372.245
550.954
1099.62
13133.4
7538.6
3765.7
1688.2
751.029
438.748
367.739
385.071
444.319
582.961
792.14
1080.73
1530.15
2708.97
23025.5
15709
9221.13
4776.78
2287.28
1253.84
932.32
912.714
1050.17
1421.51
1991.04
2760.33
3778.43
5795.41
6590.24
1987.84
485.68
103.076
25.3974
10.9481
7.73093
7.33723
7.43775
8.17654
13.3882
38.7933
138.236
481.234
3381.29
796.428
136.07
18.0604
2.53572
0.879261
0.735813
0.816188
0.968577
1.13026
2.00546
7.95375
39.6134
192.32
1428.22
281.34
43.6073
6.05868
0.878118
0.152822
0.0634459
0.0655535
0.0884233
0.1391
0.468452
2.92446
17.9123
97.0024
638.056
137.888
29.4646
6.36376
1.23428
0.184871
0.024179
0.00598079
0.00647171
0.0173646
0.129357
1.07564
7.46233
42.6048
393.257
109.147
30.1242
7.50897
1.51097
0.223209
0.0262835
0.00256108
0.000776042
0.00402135
0.04208
0.376927
2.69718
15.6546
337.312
109.881
32.2653
7.96702
1.53569
0.222687
0.0269713
0.00380762
0.00172362
0.0025999
0.0171056
0.154091
1.13653
6.69641
377.278
126.979
35.9574
8.38605
1.53038
0.225058
0.0369817
0.0169782
0.0149222
0.0148855
0.0215261
0.091821
0.60649
3.65795
502.579
162.407
43.4704
9.57533
1.69679
0.30106
0.118223
0.109558
0.110078
0.11401
0.123644
0.190314
0.575022
3.03743
716.279
219.638
56.4991
12.1319
2.34909
0.708288
0.56356
0.619369
0.652028
0.710326
0.794734
1.01503
1.65045
5.33039
1058.37
320.181
83.3234
19.0527
4.8001
2.51982
2.55457
2.9221
3.18281
3.62941
4.25908
5.34017
7.50461
17.6769
1617.21
521.479
147.568
39.1983
13.5118
9.40515
10.0351
11.6615
13.1438
15.6596
19.1954
24.1674
32.8087
68.1682
2927.62
1108.12
362.506
112.26
45.4532
33.0076
34.3879
40.0688
46.662
58.0586
74.0512
94.412
126.115
240.286
6039.29
2810.74
1082.47
376.077
156.737
106.75
104.78
120.669
144.38
187.02
247.992
324.677
429.945
741.376
12656.9
7106.24
3242.18
1276.44
530.901
323.607
288.83
321.077
390.053
525.095
726.599
986.986
1319.97
2034.55
2036.12
490.028
92.4592
14.662
3.05593
1.54178
1.29291
1.31431
1.37528
1.42006
1.75441
4.19761
16.829
76.6289
823.744
155.795
21.7605
2.38963
0.290192
0.106787
0.103517
0.121596
0.149348
0.167837
0.222314
0.798684
5.0561
33.0267
292.74
51.5926
7.9319
1.19101
0.182157
0.0268244
0.00842912
0.00849615
0.0111597
0.0154456
0.0402065
0.294307
2.37695
16.7736
141.605
31.8795
7.10324
1.49555
0.268766
0.0357064
0.00389197
0.000734697
0.000680408
0.00129392
0.00936184
0.102059
0.93962
6.98676
104.696
29.2583
7.69853
1.75916
0.322279
0.0428309
0.00432913
0.000363383
6.71941e-05
0.000219385
0.00283061
0.0344046
0.329176
2.50476
102.228
31.3697
8.39918
1.86762
0.325731
0.0418427
0.00429681
0.000507908
0.000197742
0.000205417
0.00112108
0.0133324
0.132832
1.035
122.565
37.3315
9.50632
1.98894
0.32877
0.0418693
0.00570945
0.00229517
0.00194745
0.00178533
0.002061
0.00822732
0.0709845
0.570724
167.349
48.2386
11.519
2.2652
0.359691
0.0536918
0.0188017
0.016671
0.0163256
0.0158736
0.0157426
0.0216594
0.0693584
0.474873
240.258
65.0218
14.7292
2.79371
0.469336
0.127028
0.101287
0.108068
0.11079
0.11355
0.118279
0.139654
0.207537
0.738781
355.049
92.6779
20.7924
4.09501
0.91981
0.500627
0.525651
0.58602
0.621578
0.668439
0.737379
0.865339
1.08569
2.40362
535.774
142.923
33.6332
7.68017
2.67554
2.11146
2.35395
2.68218
2.94718
3.32615
3.87326
4.60496
5.62633
10.5585
955.352
290.802
77.2499
21.292
9.63381
8.26394
9.12422
10.5257
11.9894
14.2035
17.4027
21.1769
25.8511
44.5774
2153.86
798.651
243.909
74.4635
35.1813
29.1628
31.1039
35.9893
42.4041
52.595
67.7303
85.7328
106.362
167.282
5274.17
2374.09
845.682
277.208
123.836
93.6384
94.3477
107.965
130.709
169.352
229.91
306.353
395.526
570.623
107261
121228
130819
144652
168700
136449
87259.4
104985
124784
143281
161752
130267
82546.4
102768
126492
144634
154205
117541
74975.2
103674
133470
147969
148664
108627
72935.3
111541
142216
150143
146024
106087
75088.1
124473
153240
155956
150785
111758
90472.2
145154
167688
166611
160942
126665
116302
165947
180702
177330
171391
144187
138344
173518
184002
182537
178393
157278
145471
167690
178337
182358
182018
167171
139842
157659
171510
182707
186764
173890
132889
149156
165341
184611
192573
168836
129393
141062
156328
181499
195302
156860
124765
133800
143090
166493
190353
150221
122183
137606
138447
130450
114845
95240.4
86554.6
107194
126567
131419
117464
95485.6
79109.6
102376
126481
132989
116596
94840.1
68192.1
97641.3
127095
132962
113762
92206.9
62198.1
99472.4
130409
131496
110955
90725.3
60303.2
107761
137694
132805
112411
94486.2
71249.9
125998
149221
137941
118700
103335
93057.1
143725
157312
143294
127177
115100
114207
151807
157889
145720
133632
124846
126215
150045
153774
145306
133986
126660
126126
142710
146821
140302
130392
121570
120784
135126
140350
137167
130028
118928
115648
127264
134187
136522
133038
120693
112469
121681
125422
129446
130197
117483
117515
138134
145967
137804
117289
92699.8
74745.5
94617.6
117265
128528
117486
93700.9
63373.9
83506.9
108925
123564
113243
91959
49410.7
70680.2
98539.9
116393
106639
87614.3
40104.5
65084.2
94873.5
110987
99727.4
83116.7
32833.7
63553
96275.5
109129
96590.2
81888.2
33611.9
71221.9
104115
111648
98747.4
86767.5
43067.1
84055.2
112093
115224
104393
95966.2
57677.7
95749.1
117475
118191
109812
104050
71665.6
102961
118766
117597
110287
105260
80969.2
104509
115153
111569
104078
98699.9
84840.9
102084
108452
103062
96295.4
90437
84208.8
96834
101296
98114.6
93677.6
87593.9
86656.7
96187.2
98137
97062.2
94369.3
87630.2
86524.3
107054
120896
124489
123729
108703
56508.4
71590.1
87203.7
103078
113736
106228
44647.2
59562.3
75280.7
92927.4
102783
99432
32008.5
45735.2
61682.6
81087.3
91396.3
90326.3
22267
35950.5
53592.5
74065.6
83891.3
81988.1
14744.9
28299.8
48430.8
70535.4
80229.8
77406.9
11821.4
27105.3
50494.2
72931.1
81609.2
79101.4
12968.1
31850.5
57999.7
79356.1
87602.8
87565.1
18277.4
40998.2
68271
88373.2
97011.8
98956.6
26842.1
51899.7
78342
96169.7
103636
104826
36613.1
61254.1
84591.5
98159.6
102094
100019
45644
67881
85785
93360.9
92890.9
87649.7
52442
69802.4
81715.1
85847.7
84760.6
79171.7
59767.6
72166.5
79898.3
82903.7
82446.5
77710.1
50806.3
68906.8
89002.8
104315
117311
118490
37465.9
53032.5
66026
80852.8
97983.9
108160
27271.3
41285.8
54313.5
68412.7
83216.6
95015.8
17818.1
29447.9
41867
55458.4
69205.8
81319.5
10806
20222.9
31963.1
46005.2
59674.3
70926.2
6218.01
13341.9
24176.1
39124.3
53991.4
64782.5
4175.63
10280.4
21319.7
37722.9
54219.9
64998.7
3676.81
10285.4
23406.1
42245.5
60311
72606.8
4610.25
13429.2
30101.8
51723.8
71593.3
86737.8
7395.52
19652.8
40057
63644.1
84207.1
99487
12339.2
27969.3
50320.5
73165.6
91308
103789
18957.3
36538
57937.9
76357.1
88827
94060.9
27063.1
44010.8
60746.8
72898.5
79965.4
81623.6
35379.7
49526.3
61030.8
68422.8
73226.4
75124.5
32008.7
48676.8
68191.7
86018.6
105932
122201
20930
36969
54379.2
68520.5
85226.9
104005
13524.1
26434.3
41044.6
54214.3
69544.3
87078.7
8068.11