/*--------------------------------*- C++ -*----------------------------------*\
| =========                 |                                                 |
| \\      /  F ield         | OpenFOAM: The Open Source CFD Toolbox           |
|  \\    /   O peration     | Version:  v2106                                 |
|   \\  /    A nd           | Website:  www.openfoam.com                      |
|    \\/     M anipulation  |                                                 |
\*---------------------------------------------------------------------------*/
FoamFile
{
    version     2.0;
    format      ascii;
    arch        "LSB;label=32;scalar=64";
    class       volScalarField;
    location    "0.000149";
    object      Ttot;
}
// * * * * * * * * * * * * * * * * * * * * * * * * * * * * * * * * * * * * * //

dimensions      [0 0 0 1 0 0 0];

internalField   nonuniform List<scalar> 
144746
(
297.512
297.431
298.344
299.293
300.46
301.318
302.021
302.443
302.652
302.815
302.737
302.251
301.47
300.715
297.445
297.791
298.598
299.575
300.532
301.212
301.76
302.129
302.421
302.661
302.732
302.449
301.703
300.713
298.064
298.706
299.428
300.223
300.871
301.26
301.642
301.865
302.106
302.325
302.43
302.319
301.83
301.238
299.02
299.804
300.338
300.857
301.224
301.377
301.603
301.748
301.943
302.132
302.236
302.267
302.024
301.722
300.066
300.682
301.005
301.288
301.45
301.485
301.614
301.734
301.881
302.021
302.133
302.23
302.263
302.292
300.755
301.063
301.267
301.436
301.509
301.518
301.59
301.71
301.843
301.989
302.149
302.264
302.459
302.637
301.184
301.288
301.314
301.393
301.451
301.499
301.592
301.732
301.886
302.06
302.259
302.468
302.752
302.965
301.258
301.157
301.056
301.181
301.33
301.467
301.611
301.765
301.938
302.138
302.387
302.634
303.014
303.144
301.008
300.693
300.57
300.837
301.236
301.52
301.727
301.89
302.052
302.242
302.528
302.813
303.265
303.321
300.54
299.872
299.821
300.256
300.944
301.49
301.858
302.037
302.201
302.388
302.669
302.895
303.301
303.191
299.724
298.905
298.98
299.598
300.586
301.452
302.019
302.23
302.356
302.418
302.618
302.659
302.925
302.667
299.079
298.154
298.173
298.839
299.988
301.17
302.011
302.284
302.456
302.388
302.404
302.217
302.255
301.862
298.523
297.78
297.856
298.415
299.633
301.018
302.07
302.454
302.642
302.444
302.157
301.755
301.505
301.149
298.469
297.689
297.579
297.967
299.097
300.499
301.701
302.352
302.666
302.572
302.174
301.622
300.987
300.745
297.642
297.458
298.221
299.2
300.422
301.364
302.007
302.268
302.25
301.996
301.187
300.241
299.366
299.394
296.167
296.798
297.645
298.901
300.103
300.955
301.548
301.887
302.003
301.943
301.602
300.993
300.179
299.503
295.995
297.044
298.075
299.261
300.204
300.75
301.173
301.419
301.595
301.674
301.609
301.22
300.671
300.377
296.452
297.838
298.916
299.778
300.343
300.604
300.868
301.067
301.244
301.368
301.464
301.379
301.228
301.09
297.484
298.849
299.714
300.109
300.405
300.492
300.66
300.822
300.983
301.19
301.435
301.609
301.745
301.967
298.631
299.689
300.214
300.338
300.43
300.415
300.539
300.695
300.861
301.081
301.357
301.663
302.003
302.46
299.584
300.189
300.392
300.374
300.399
300.394
300.515
300.668
300.84
301.082
301.412
301.815
302.255
302.724
300.171
300.23
300.321
300.281
300.297
300.365
300.514
300.673
300.835
301.079
301.457
301.899
302.366
302.784
300.255
299.866
299.806
299.917
300.159
300.394
300.623
300.819
300.975
301.221
301.561
301.963
302.284
302.406
300.08
299.13
298.891
299.195
299.724
300.311
300.757
301.009
301.177
301.398
301.61
301.802
301.905
301.505
299.623
298.258
297.869
298.227
299.055
300.026
300.82
301.197
301.332
301.393
301.382
301.24
301.168
300.463
299.272
297.371
296.703
296.951
298.045
299.369
300.59
301.238
301.448
301.351
301.192
300.776
300.52
299.699
299.013
297.118
296.255
296.126
297.065
298.44
299.981
301.076
301.512
301.429
301.024
300.447
299.954
299.221
299.399
296.957
295.656
295.274
296.015
297.281
298.993
300.582
301.439
301.682
301.387
300.963
300.229
299.944
295.21
295.818
297.332
298.771
300.049
300.825
301.198
301.323
301.271
300.725
299.615
298.287
297.354
297.52
293.183
294.922
296.53
298.183
299.409
300.09
300.573
300.773
300.873
300.611
300.12
299.282
298.494
298.215
293.204
295.28
296.897
298.257
299.177
299.75
300.178
300.403
300.588
300.5
300.316
299.813
299.332
299.4
293.593
295.89
297.508
298.546
299.164
299.584
299.931
300.131
300.286
300.318
300.315
300.104
299.948
300.221
294.783
296.926
298.299
298.958
299.301
299.554
299.793
299.985
300.139
300.273
300.394
300.462
300.626
301.145
296.423
298.059
298.936
299.191
299.363
299.522
299.701
299.872
300.019
300.209
300.402
300.631
300.912
301.516
298
298.833
299.159
299.266
299.434
299.55
299.742
299.909
300.043
300.248
300.496
300.814
301.215
301.826
299.015
299.157
299.14
299.174
299.331
299.49
299.714
299.898
300.038
300.258
300.519
300.855
301.259
301.791
299.583
299.122
298.855
298.865
299.119
299.424
299.726
299.927
300.064
300.271
300.448
300.729
300.959
301.336
299.559
298.483
298.259
298.224
298.659
299.224
299.692
299.951
300.082
300.24
300.314
300.457
300.389
300.277
299.064
297.512
297.153
297.227
297.859
298.707
299.417
299.814
299.924
299.961
299.869
299.743
299.448
298.777
298.365
296.105
295.537
295.658
296.564
297.883
299.043
299.717
299.889
299.861
299.596
299.233
298.873
297.954
297.478
295.037
294.21
294.116
294.912
296.54
298.304
299.528
300.01
300.077
299.692
299.165
298.604
297.681
297.225
293.971
292.544
292.28
293.005
294.869
297.197
299.14
300.251
300.709
300.497
300.106
299.278
298.776
299.808
299.323
298.461
297.569
297.029
295.912
299.723
299.214
298.743
298.005
297.479
296.171
300.61
300.236
299.916
299.19
298.359
296.611
301.454
301.298
301.135
300.377
299.223
297.036
302.385
302.335
302.26
301.426
299.973
297.46
303.004
302.984
302.94
302.023
300.41
297.825
303.43
303.38
303.318
302.333
300.627
298.102
303.572
303.4
303.24
302.21
300.567
298.231
303.669
303.316
302.9
301.743
300.21
298.166
303.343
302.775
302.139
300.931
299.639
297.978
302.6
301.874
301.197
300.056
299.034
297.75
301.67
300.948
300.266
299.277
298.498
297.426
300.956
300.324
299.657
298.765
298.067
297.006
300.39
299.865
299.319
298.545
297.872
296.719
299.231
299.337
299.215
299.112
299.085
297.705
299.017
299.543
300.216
300.407
300.448
298.663
300.422
301.01
301.9
302.044
301.789
299.325
301.339
302.042
303.01
303.041
302.486
299.558
302.474
303.095
303.882
303.66
302.752
299.563
303.096
303.483
304.034
303.581
302.456
299.241
303.275
303.431
303.669
302.847
301.646
298.687
303.223
302.72
302.536
301.345
300.11
297.5
302.548
301.538
300.895
299.42
298.344
296.434
301.353
300.165
299.452
298.067
297.23
296.052
300.184
299.174
298.679
297.564
297.031
296.153
299.541
298.827
298.397
297.649
297.461
296.476
299.409
299.102
298.972
298.594
298.428
297.162
299.915
299.95
300.005
299.766
299.548
298.018
297.975
298.56
299.122
300.123
300.84
300.032
297.974
298.893
300.436
302.032
303.116
301.869
299.888
300.936
302.778
304.107
304.848
302.673
300.939
302.116
304.015
304.985
305.372
302.514
302.089
303.202
304.755
305.247
305.353
302
302.451
303.415
304.635
304.62
304.639
300.698
302.633
303.107
303.647
303.049
302.942
298.725
302.31
302.249
302.105
300.942
300.726
296.104
301.315
300.398
299.95
298.476
298.155
293.526
299.881
298.502
298.186
296.638
296.01
292.121
298.526
297.272
297.139
295.818
295.173
292.189
298.024
296.989
296.901
296.024
295.688
293.729
298.09
297.536
297.766
297.814
297.97
296.645
298.844
298.903
299.654
300.443
300.759
299.477
300.398
299.989
299.282
298.571
297.944
296.72
300.67
300.515
300.074
299.276
298.454
297.027
301.665
301.488
301.097
300.185
299.077
297.341
302.452
302.3
301.902
300.835
299.488
297.536
302.951
302.708
302.281
301.164
299.756
297.808
302.941
302.562
302.153
301.093
299.791
298.027
302.472
301.998
301.653
300.704
299.564
298.037
301.58
300.987
300.692
299.918
299.079
297.906
300.339
299.847
299.699
299.135
298.571
297.624
299.112
298.871
298.82
298.417
298.109
297.205
298.193
298.299
298.294
298.021
297.842
296.834
297.994
298.249
298.235
298.066
297.86
296.666
298.108
298.457
298.472
298.423
298.169
296.8
298.614
299.107
299.247
299.202
298.719
297.187
300.795
301.052
301.131
300.953
300.561
298.689
300.763
301.607
302.097
301.882
301.459
299.183
301.784
302.463
303.029
302.67
301.96
299.344
302.13
302.631
303.013
302.498
301.667
298.981
302.213
302.219
302.178
301.344
300.538
297.978
301.399
300.778
300.445
299.577
298.853
296.633
299.936
298.892
298.471
297.688
297.207
295.661
298.051
297.032
296.827
296.447
296.224
295.551
296.583
295.999
296.134
296.129
296.195
296.047
295.693
295.647
296.057
296.55
296.95
296.643
295.513
296.148
296.943
297.935
298.345
297.621
296.476
297.51
298.579
299.835
300.145
298.928
298.17
299.448
300.599
301.768
301.806
300.193
300.149
301.488
302.515
303.353
303.014
300.96
300.587
301.326
302.239
303.03
303.188
301.577
300.269
301.64
303.215
303.977
304.348
302.155
301.399
302.642
304.182
304.554
304.67
302.087
301.525
302.506
303.733
303.736
303.654
300.539
301.432
301.688
302.039
301.46
301.268
297.879
300.188
299.58
299.027
298.009
297.875
294.565
298.189
296.614
295.573
294.566
294.807
292.154
295.5
293.598
293.056
292.633
293.228
291.662
293.152
291.769
291.944
292.121
292.839
292.571
291.87
291.29
292.058
293.228
294.195
295.01
291.817
292.126
293.48
295.734
297.184
298.699
292.842
293.835
295.846
299.021
300.933
302.047
295.214
296.731
299.24
302.615
304.363
305.077
298.061
300.163
303.006
305.846
306.893
306.526
296.423
297.605
297.645
297.351
297.307
297.113
296.051
297.086
297.06
297.029
297.208
297.187
295.914
296.849
296.928
297.05
297.357
297.578
296.043
296.87
297.05
297.368
297.8
298.298
296.368
297.101
297.483
297.988
298.567
299.318
296.802
297.615
298.266
298.916
299.557
300.308
297.166
298.275
299.184
299.915
300.46
301.03
297.494
299.008
300.112
300.876
301.232
301.524
297.675
299.488
300.703
301.444
301.566
301.488
297.805
299.91
301.198
301.846
301.752
301.309
297.936
300.124
301.287
301.719
301.364
300.586
298.037
300.165
301.181
301.415
300.94
300.016
297.828
299.751
300.508
300.696
300.183
299.209
297.258
299.046
299.817
299.948
299.852
299.2
300.262
301.405
301.31
299.854
298.745
297.531
299.016
299.721
299.385
297.923
297.036
296.304
297.581
297.936
297.51
296.281
295.842
295.627
296.317
296.422
296.033
295.22
295.179
295.498
295.422
295.206
294.974
294.712
295.136
296.135
294.906
294.659
294.752
295.021
295.798
297.208
294.498
294.844
295.241
295.948
296.975
298.538
294.727
296.028
296.722
297.74
298.637
299.867
295.808
297.922
298.777
299.758
300.272
300.642
297.518
300.235
301.192
301.834
301.669
301.124
299.198
302.134
302.968
303.119
302.27
300.972
300.348
303.476
304.24
304.075
302.904
301.13
300.898
303.729
304.18
303.799
302.497
300.578
300.5
303.28
304.076
303.769
302.999
301.635
305.441
304.417
302.523
299.054
296.449
294.77
303.156
300.82
298.727
295.535
293.754
293.076
299.457
297.285
295.472
292.964
291.976
292.029
295.768
294.216
292.931
291.338
290.882
291.855
292.63
291.79
291.053
290.323
290.53
292.462
290.697
290.864
290.319
290.406
291.294
294.016
290.064
291.296
290.832
291.619
293.24
296.158
290.637
292.875
292.786
294.277
296.108
298.183
292.911
295.838
296.111
297.73
298.993
299.831
296.508
299.877
300.313
301.394
301.321
300.746
300.224
303.455
303.5
303.599
302.302
300.62
303.176
306.27
305.882
305.087
302.969
300.5
304.957
307.572
306.647
304.967
302.304
299.397
305.753
307.79
307.48
305.788
303.588
301.083
296.072
297.125
297.762
298.58
299.322
300.051
296.559
297.526
298.262
299.246
300.101
300.936
297.037
298.046
298.994
300.162
301.069
301.876
297.518
298.758
299.943
301.172
302.003
302.647
297.952
299.602
300.998
302.149
302.702
303.054
298.462
300.524
302.022
302.904
303.039
303.054
298.827
301.179
302.686
303.35
303.216
302.976
298.922
301.576
303.043
303.468
303.041
302.599
298.914
301.634
302.865
303.01
302.352
301.78
298.797
301.492
302.495
302.402
301.528
300.779
298.484
300.897
301.511
301.174
300.177
299.351
298.047
300.118
300.56
300.134
299.254
298.371
297.408
299.034
299.172
298.754
298.05
297.166
296.851
298.222
298.524
298.124
298.057
297.42
296.464
297.607
297.665
298.068
298.329
298.608
295.897
296.733
296.927
297.667
298.244
298.937
295.344
296.121
296.572
297.7
298.571
299.642
295.277
296.069
296.87
298.235
299.298
300.666
295.513
296.709
297.731
299.348
300.45
301.804
296.28
298.132
299.374
300.927
301.695
302.498
297.703
300.202
301.517
302.62
302.749
302.852
299.306
302.331
303.491
303.923
303.341
302.755
300.312
303.593
304.513
304.407
303.217
302.23
301.079
304.506
305.149
304.586
302.907
301.409
301.369
304.606
304.793
303.798
301.851
300.087
301.643
304.634
304.623
303.294
301.286
299.285
301.274
303.644
303.396
301.856
300.016
298
301.043
302.674
302.946
301.664
300.56
298.957
296.522
297.426
296.928
296.45
296.185
296.689
293.592
294.663
294.665
295.263
295.807
296.996
290.795
292.805
293.527
294.967
295.881
297.674
289.718
292.806
293.767
295.601
296.688
298.8
290.175
294.127
295.006
296.99
298.308
300.189
292.285
296.701
297.405
299.279
300.443
301.426
295.463
299.816
300.334
301.754
302.062
301.965
298.547
302.797
303.121
303.772
303.098
302.211
301.268
305.262
305.399
305.174
303.469
302.071
303.517
306.995
306.744
305.727
303.331
301.449
304.912
307.866
306.924
305.17
302.236
300.009
306.144
308.532
307.04
304.45
301.132
298.522
306.419
307.742
305.795
302.509
299.144
296.401
306.946
306.854
305.568
302.766
300.134
297.591
293.474
295.322
297.411
299.11
300.355
301.265
301.729
301.934
301.785
301.032
299.852
298.247
296.866
296.624
291.645
294.344
296.382
298.28
299.427
300.369
300.873
301.12
301.139
300.761
300.154
299.159
298.234
297.806
291.889
294.615
296.641
298.245
299.208
299.926
300.325
300.577
300.686
300.566
300.266
299.648
299.226
299.321
292.732
295.342
297.33
298.548
299.227
299.691
299.972
300.174
300.276
300.268
300.193
299.959
299.85
300.143
294.265
296.681
298.243
298.989
299.339
299.586
299.817
300.004
300.139
300.239
300.301
300.363
300.551
301.115
296.199
298.055
299.001
299.223
299.356
299.481
299.665
299.812
299.933
300.125
300.294
300.531
300.916
301.649
297.956
298.838
299.165
299.279
299.38
299.453
299.645
299.769
299.896
300.125
300.357
300.725
301.217
302.019
299.077
299.194
299.176
299.154
299.252
299.359
299.567
299.688
299.842
300.074
300.304
300.728
301.208
301.989
299.552
299.11
298.894
298.817
299.006
299.258
299.523
299.632
299.797
300.005
300.222
300.608
300.94
301.501
299.52
298.562
298.163
298.154
298.588
299.096
299.486
299.606
299.758
299.895
300.018
300.23
300.365
300.573
298.998
297.544
297.062
297.149
297.895
298.753
299.314
299.516
299.654
299.686
299.67
299.603
299.46
299.185
297.99
295.856
295.358
295.54
296.649
297.982
298.955
299.449
299.624
299.515
299.36
299.005
298.58
297.874
296.634
294.209
293.625
293.643
294.776
296.606
298.264
299.241
299.716
299.577
299.402
298.842
298.129
297.184
295.605
292.263
291.22
291.326
292.572
294.743
297.163
298.819
299.853
300.052
299.898
299.471
298.513
297.937
291.118
293.663
296.007
298.033
299.686
300.643
301.097
301.219
301.014
300.186
298.788
296.904
295.195
294.389
290.28
293.229
295.787
297.82
299.265
300.037
300.466
300.61
300.493
300.168
299.394
298.23
296.939
296.078
290.954
294.025
296.508
298.206
299.209
299.745
300.03
300.191
300.211
300.132
299.766
299.076
298.317
297.997
292.313
295.277
297.427
298.683
299.298
299.589
299.766
299.874
299.91
299.897
299.784
299.531
299.27
299.315
294.208
296.806
298.392
299.111
299.412
299.531
299.68
299.786
299.865
299.901
299.963
300.007
300.115
300.485
296.307
298.118
299.029
299.282
299.417
299.456
299.578
299.664
299.756
299.856
299.976
300.17
300.471
301
297.939
298.781
299.163
299.299
299.413
299.43
299.556
299.631
299.733
299.871
300.028
300.334
300.702
301.339
298.92
299.133
299.189
299.24
299.344
299.382
299.508
299.568
299.682
299.826
299.986
300.33
300.674
301.291
299.115
298.965
298.923
298.989
299.168
299.325
299.481
299.52
299.623
299.759
299.919
300.199
300.424
300.83
298.741
298.243
298.129
298.365
298.834
299.22
299.47
299.505
299.589
299.668
299.728
299.8
299.73
299.673
297.621
296.629
296.75
297.287
298.184
298.922
299.348
299.406
299.474
299.478
299.363
299.146
298.716
298.126
295.968
294.578
294.762
295.595
296.979
298.224
299.081
299.338
299.421
299.295
298.907
298.293
297.408
296.387
294.148
292.486
292.51
293.249
294.954
296.853
298.378
299.116
299.387
299.2
298.649
297.771
296.499
295.368
292.398
290.193
289.932
290.568
292.369
294.87
297.212
298.69
299.418
299.3
298.75
297.809
296.354
295.34
291.153
294.089
296.434
298.37
299.837
300.614
301.004
301.108
301.004
300.458
299.546
298.089
296.767
295.66
291.508
294.598
296.864
298.587
299.691
300.308
300.618
300.725
300.657
300.4
299.969
299.134
298.218
297.271
292.859
295.795
297.792
299.051
299.751
300.152
300.368
300.483
300.507
300.451
300.251
299.844
299.264
298.714
294.571
297.052
298.649
299.459
299.872
300.083
300.227
300.302
300.344
300.351
300.286
300.177
299.964
299.849
296.35
298.262
299.345
299.728
299.959
300.068
300.198
300.28
300.347
300.396
300.435
300.507
300.563
300.768
297.97
299.073
299.638
299.806
299.96
300.028
300.145
300.227
300.312
300.398
300.484
300.646
300.83
301.158
298.945
299.444
299.729
299.828
299.975
300.016
300.127
300.201
300.295
300.397
300.506
300.733
300.954
301.388
299.481
299.617
299.721
299.827
299.964
299.99
300.092
300.15
300.248
300.347
300.465
300.709
300.921
301.367
299.52
299.481
299.533
299.686
299.868
299.956
300.062
300.107
300.194
300.285
300.399
300.587
300.727
301.036
299.001
298.809
298.948
299.279
299.659
299.881
300.017
300.069
300.148
300.217
300.264
300.329
300.288
300.249
297.723
297.474
297.843
298.512
299.235
299.689
299.925
299.963
300.012
300.051
299.999
299.884
299.56
299.06
295.772
295.57
296.196
297.245
298.411
299.268
299.785
299.908
299.937
299.892
299.652
299.265
298.601
297.627
293.49
293.222
294.021
295.312
296.962
298.377
299.379
299.757
299.881
299.786
299.328
298.647
297.624
296.371
290.906
290.552
291.29
292.735
294.838
296.959
298.643
299.55
299.915
299.843
299.216
298.327
296.932
295.741
292.702
295.399
297.458
298.987
300.088
300.702
301.008
301.137
301.126
300.88
300.431
299.579
298.697
297.62
293.893
296.69
298.399
299.453
300.143
300.561
300.783
300.879
300.853
300.731
300.549
300.179
299.678
299.001
295.423
297.788
299.17
299.833
300.231
300.473
300.638
300.728
300.763
300.749
300.678
300.504
300.185
299.826
297.067
298.734
299.714
300.065
300.295
300.433
300.55
300.627
300.676
300.708
300.725
300.673
300.576
300.514
298.383
299.399
300.018
300.178
300.314
300.425
300.537
300.623
300.686
300.745
300.797
300.877
300.931
301.068
299.343
299.789
300.129
300.186
300.305
300.395
300.504
300.594
300.675
300.762
300.849
300.985
301.111
301.329
299.798
299.977
300.171
300.224
300.343
300.404
300.501
300.582
300.669
300.764
300.867
301.042
301.196
301.5
300.005
300.075
300.182
300.26
300.364
300.389
300.474
300.539
300.629
300.718
300.826
301.006
301.16
301.499
299.905
299.957
300.067
300.207
300.322
300.354
300.439
300.494
300.58
300.659
300.761
300.903
301.045
301.334
299.31
299.408
299.71
300.027
300.231
300.301
300.386
300.444
300.532
300.603
300.67
300.746
300.795
300.929
298.021
298.393
299.054
299.637
300.032
300.199
300.31
300.36
300.421
300.479
300.506
300.497
300.383
300.224
296.228
296.909
297.951
298.913
299.642
300.055
300.257
300.328
300.346
300.345
300.273
300.129
299.789
299.202
293.922
294.838
296.225
297.562
298.758
299.589
300.025
300.205
300.249
300.198
299.964
299.604
299.013
298.082
291.112
291.944
293.595
295.508
297.392
298.897
299.779
300.165
300.275
300.159
299.722
299.048
298.135
297.085
295.518
297.911
299.186
300.135
300.756
301.18
301.422
301.559
301.581
301.445
301.21
300.815
300.368
299.721
296.881
298.979
299.937
300.497
300.841
301.097
301.28
301.366
301.376
301.332
301.232
301.137
300.958
300.69
298.127
299.698
300.382
300.706
300.9
301.053
301.188
301.275
301.333
301.344
301.299
301.257
301.147
301.054
299.322
300.218
300.617
300.793
300.926
301.039
301.142
301.223
301.287
301.333
301.354
301.379
301.364
301.412
300.1
300.498
300.736
300.836
300.926
301.036
301.143
301.235
301.308
301.367
301.417
301.487
301.553
301.69
300.554
300.647
300.783
300.835
300.933
301.027
301.129
301.224
301.305
301.382
301.457
301.573
301.674
301.854
300.739
300.762
300.858
300.9
300.982
301.045
301.135
301.219
301.301
301.381
301.468
301.601
301.726
301.956
300.795
300.813
300.893
300.941
301.005
301.039
301.114
301.182
301.265
301.337
301.424
301.556
301.678
301.947
300.645
300.701
300.814
300.912
300.973
300.998
301.07
301.135
301.214
301.277
301.354
301.46
301.575
301.839
300.098
300.35
300.661
300.864
300.935
300.95
301.01
301.078
301.162
301.226
301.285
301.357
301.438
301.589
299.143
299.778
300.36
300.715
300.858
300.893
300.951
301.009
301.073
301.128
301.168
301.196
301.237
301.26
297.845
298.898
299.79
300.386
300.698
300.835
300.92
300.985
301.033
301.057
301.049
301.032
300.915
300.626
296.068
297.449
298.639
299.604
300.268
300.638
300.825
300.916
300.954
300.943
300.843
300.716
300.49
299.955
293.734
295.069
296.704
298.309
299.593
300.41
300.815
300.956
300.977
300.897
300.644
300.297
299.873
299.079
298.092
299.939
300.585
301.118
301.467
301.733
301.913
302.025
302.065
302.008
301.857
301.691
301.478
301.161
299.204
300.556
300.991
301.291
301.495
301.675
301.824
301.899
301.935
301.918
301.862
301.843
301.815
301.736
299.962
300.873
301.198
301.4
301.538
301.663
301.772
301.855
301.915
301.935
301.919
301.911
301.908
301.884
300.736
301.11
301.281
301.425
301.54
301.657
301.762
301.839
301.899
301.943
301.974
302.01
302.056
302.117
301.182
301.266
301.378
301.472
301.566
301.668
301.766
301.852
301.92
301.973
302.025
302.09
302.173
302.291
301.413
301.373
301.447
301.505
301.594
301.678
301.768
301.851
301.924
301.991
302.056
302.152
302.255
302.405
301.514
301.492
301.552
301.588
301.653
301.706
301.784
301.856
301.927
301.99
302.059
302.164
302.278
302.46
301.508
301.532
301.6
301.631
301.679
301.707
301.772
301.83
301.896
301.952
302.017
302.122
302.229
302.44
301.352
301.447
301.55
301.61
301.651
301.675
301.735
301.788
301.849
301.896
301.952
302.037
302.135
302.351
300.967
301.275
301.5
301.595
301.618
301.631
301.682
301.739
301.805
301.852
301.894
301.95
302.032
302.191
300.417
300.995
301.363
301.515
301.563
301.574
301.627
301.684
301.744
301.785
301.811
301.844
301.915
301.978
299.664
300.535
301.088
301.345
301.467
301.522
301.595
301.673
301.732
301.754
301.759
301.776
301.775
301.669
298.647
299.746
300.519
301.014
301.314
301.461
301.561
301.631
301.682
301.694
301.653
301.625
301.568
301.329
296.691
298.018
299.247
300.323
301.055
301.453
301.622
301.682
301.69
301.646
301.541
301.415
301.268
300.788
300.223
301.436
301.681
301.994
302.208
302.388
302.525
302.612
302.663
302.641
302.559
302.456
302.323
302.173
300.858
301.606
301.821
302.024
302.187
302.338
302.464
302.537
302.574
302.567
302.546
302.515
302.508
302.486
301.236
301.687
301.879
302.056
302.205
302.34
302.443
302.523
302.576
302.599
302.595
302.575
302.593
302.622
301.674
301.824
301.952
302.098
302.221
302.344
302.446
302.521
302.573
302.613
302.641
302.672
302.722
302.806
301.949
301.981
302.07
302.156
302.267
302.372
302.464
302.541
302.6
302.647
302.689
302.745
302.815
302.928
302.123
302.104
302.173
302.242
302.325
302.402
302.48
302.551
302.612
302.667
302.718
302.796
302.886
303.019
302.233
302.233
302.288
302.324
302.384
302.434
302.501
302.561
302.618
302.669
302.723
302.808
302.904
303.054
302.252
302.29
302.342
302.368
302.411
302.44
302.494
302.542
302.594
302.639
302.691
302.776
302.865
303.036
302.149
302.247
302.308
302.346
302.384
302.41
302.461
302.504
302.551
302.589
302.634
302.703
302.78
302.959
301.959
302.172
302.273
302.316
302.338
302.362
302.412
302.46
302.51
302.545
302.579
302.621
302.686
302.842
301.691
302.036
302.19
302.25
302.274
302.299
302.355
302.409
302.46
302.491
302.511
302.533
302.592
302.698
301.296
301.804
302.034
302.14
302.194
302.241
302.323
302.401
302.455
302.472
302.478
302.482
302.512
302.506
300.807
301.439
301.755
301.985
302.119
302.211
302.297
302.374
302.431
302.453
302.433
302.419
302.429
302.319
299.392
300.411
301.074
301.685
302.044
302.249
302.357
302.416
302.435
302.417
302.393
302.332
302.278
302.015
301.555
302.279
302.424
302.663
302.856
302.999
303.11
303.187
303.241
303.246
303.204
303.119
303.02
302.944
301.872
302.281
302.452
302.646
302.819
302.96
303.069
303.141
303.181
303.191
303.186
303.154
303.149
303.146
302.106
302.344
302.5
302.671
302.827
302.965
303.071
303.145
303.197
303.22
303.225
303.215
303.229
303.261
302.378
302.479
302.603
302.745
302.868
302.989
303.087
303.159
303.209
303.243
303.266
303.294
303.332
303.404
302.586
302.64
302.739
302.827
302.933
303.033
303.119
303.19
303.242
303.282
303.312
303.357
303.408
303.505
302.761
302.772
302.855
302.925
303.005
303.076
303.145
303.207
303.258
303.303
303.341
303.4
303.468
303.581
302.885
302.896
302.957
303
303.06
303.11
303.169
303.22
303.266
303.308
303.349
303.415
303.489
303.608
302.924
302.955
303.002
303.033
303.08
303.115
303.163
303.204
303.246
303.284
303.325
303.393
303.466
303.606
302.864
302.932
302.969
303.005
303.05
303.085
303.132
303.17
303.208
303.24
303.278
303.336
303.399
303.55
302.75
302.874
302.915
302.957
302.995
303.035
303.086
303.129
303.169
303.197
303.228
303.265
303.32
303.457
302.606
302.777
302.836
302.884
302.924
302.972
303.031
303.081
303.123
303.146
303.164
303.186
303.233
303.346
302.377
302.62
302.716
302.788
302.845
302.916
303
303.07
303.112
303.124
303.128
303.127
303.161
303.206
302.163
302.446
302.56
302.691
302.792
302.887
302.973
303.051
303.102
303.12
303.104
303.084
303.098
303.059
301.292
301.888
302.236
302.562
302.761
302.913
303.009
303.078
303.109
303.097
303.097
303.038
303.008
302.885
302.472
302.931
303.077
303.308
303.487
303.611
303.711
303.785
303.841
303.864
303.852
303.797
303.72
303.659
302.656
302.923
303.087
303.281
303.446
303.577
303.679
303.75
303.798
303.818
303.828
303.821
303.81
303.804
302.851
303.009
303.148
303.313
303.461
303.589
303.69
303.762
303.816
303.845
303.861
303.866
303.87
303.9
303.059
303.15
303.272
303.39
303.511
303.624
303.717
303.788
303.84
303.874
303.898
303.923
303.95
304.005
303.242
303.297
303.391
303.483
303.581
303.676
303.758
303.826
303.877
303.914
303.939
303.974
304.01
304.087
303.407
303.426
303.509
303.576
303.654
303.724
303.79
303.848
303.896
303.936
303.966
304.011
304.061
304.148
303.518
303.532
303.592
303.641
303.705
303.759
303.816
303.865
303.907
303.946
303.979
304.029
304.083
304.173
303.554
303.579
303.625
303.664
303.72
303.764
303.814
303.856
303.894
303.931
303.965
304.02
304.076
304.187
303.524
303.564
303.598
303.638
303.693
303.738
303.787
303.828
303.865
303.898
303.934
303.984
304.036
304.157
303.433
303.506
303.536
303.588
303.641
303.693
303.749
303.795
303.834
303.865
303.898
303.936
303.983
304.095
303.322
303.411
303.454
303.513
303.573
303.637
303.702
303.755
303.796
303.822
303.848
303.875
303.918
304.01
303.15
303.275
303.349
303.427
303.503
303.589
303.676
303.742
303.782
303.799
303.811
303.822
303.851
303.907
302.992
303.141
303.233
303.348
303.454
303.559
303.651
303.726
303.774
303.796
303.795
303.777
303.79
303.777
302.439
302.824
303.056
303.27
303.43
303.574
303.672
303.742
303.78
303.78
303.775
303.743
303.735
303.672
296.046
298.48
301.598
304.977
307.722
309.82
295.9
298.538
302.565
306.625
309.849
311.79
298.755
301.372
305.209
308.671
311.348
312.62
300.635
303.155
306.472
309.333
311.633
312.629
302.02
304.442
307.322
309.591
311.388
312.113
302.823
304.865
307.3
309.017
310.047
310.383
303.158
304.699
305.952
306.528
306.879
307.035
302.905
303.728
303.837
303.537
303.299
303.173
302.04
301.714
300.548
299.646
299.187
298.975
300.561
299.022
297.306
296.149
295.653
295.426
298.801
296.474
294.946
293.754
293.229
292.816
297.166
295.006
293.933
292.925
292.389
291.416
296.113
294.61
294.184
294.112
294.226
293.55
295.476
294.786
295.443
296.728
297.623
297.792
292.966
294.07
296.698
300.122
303.713
306.68
293.934
295.435
298.558
302.471
306.545
309.619
296.811
298.558
301.781
305.442
309.048
311.404
299.072
300.884
303.946
307.139
310.218
312.046
300.75
302.579
305.258
307.875
310.426
311.777
301.799
303.331
305.387
307.267
309.042
309.881
302.156
303.493
305.011
305.934
306.509
306.636
301.946
302.638
302.812
302.526
302.132
302.022
301.06
300.719
299.613
298.372
297.479
297.195
299.473
297.902
295.764
294.169
293.205
292.812
297.314
294.89
292.764
291.155
290.311
289.654
295.368
292.839
291.397
289.969
289.233
288.317
294.038
292.006
291.136
290.605
290.565
290.329
292.925
291.595
291.646
292.508
293.528
294.398
291.284
290.98
291.809
293.833
296.941
300.205
293.461
293.376
294.638
296.927
300.408
304.279
296.394
296.737
298.294
300.884
304.218
307.69
298.535
299.181
301.022
303.684
306.751
309.771
300.384
301.309
303.025
305.39
307.917
310.375
301.269
302.233
303.738
305.668
307.74
309.659
301.658
302.517
303.713
305.018
306.194
307.253
301.545
302.092
302.463
302.589
302.607
302.892
301.039
300.819
299.946
298.867
297.957
297.746
299.88
298.752
296.555
294.453
292.997
292.578
298.331
296.073
293.238
290.751
289.109
288.476
296.464
293.866
291.26
288.985
287.483
286.648
295.223
292.715
290.698
288.908
288.076
287.738
293.932
291.678
290.3
289.668
290.013
290.654
291.39
289.584
288.809
288.947
290.529
292.819
293.958
292.48
292.17
292.762
294.519
297.266
296.623
295.785
295.961
297.011
298.993
301.732
298.667
298.409
299.036
300.421
302.61
305.239
300.217
300.48
301.457
302.957
305.096
307.357
301.039
301.59
302.658
304.104
305.99
307.889
301.446
302.053
303.023
304.334
305.895
307.284
301.494
302.031
302.706
303.475
304.141
304.575
301.291
301.555
301.495
301.215
300.639
300.134
300.738
300.433
299.352
297.727
295.871
294.631
299.927
298.693
296.426
293.677
291.006
289.363
298.537
296.557
293.785
290.748
288.123
286.43
297.326
295.067
292.42
289.633
287.468
286.058