/*--------------------------------*- C++ -*----------------------------------*\
| =========                 |                                                 |
| \\      /  F ield         | OpenFOAM: The Open Source CFD Toolbox           |
|  \\    /   O peration     | Version:  v2106                                 |
|   \\  /    A nd           | Website:  www.openfoam.com                      |
|    \\/     M anipulation  |                                                 |
\*---------------------------------------------------------------------------*/
FoamFile
{
    version     2.0;
    format      ascii;
    arch        "LSB;label=32;scalar=64";
    class       volScalarField;
    location    "0.00018";
    object      alphat;
}
// * * * * * * * * * * * * * * * * * * * * * * * * * * * * * * * * * * * * * //

dimensions      [1 -1 -1 0 0 0 0];

internalField   nonuniform List<scalar> 
17924
(
9.79481e-17
9.7914e-17
9.79128e-17
9.79196e-17
9.77923e-17
9.77796e-17
9.77787e-17
9.77796e-17
9.77824e-17
9.77868e-17
9.77928e-17
9.78454e-17
9.78309e-17
9.78303e-17
9.78313e-17
9.78346e-17
9.78392e-17
9.78453e-17
9.78997e-17
9.78814e-17
9.78809e-17
9.78831e-17
9.78874e-17
9.7893e-17
9.78996e-17
9.79566e-17
9.79337e-17
9.79329e-17
9.79358e-17
9.79411e-17
9.79475e-17
9.79547e-17
9.80106e-17
9.79845e-17
9.79841e-17
9.79883e-17
9.79948e-17
9.80022e-17
9.801e-17
9.80623e-17
9.80351e-17
9.80356e-17
9.80414e-17
9.80491e-17
9.80572e-17
9.80655e-17
9.81103e-17
9.8084e-17
9.80863e-17
9.80939e-17
9.8103e-17
9.8112e-17
9.81209e-17
9.81573e-17
9.81333e-17
9.81372e-17
9.81464e-17
9.81566e-17
9.81666e-17
9.81761e-17
9.82025e-17
9.81821e-17
9.81878e-17
9.81986e-17
9.82098e-17
9.82207e-17
9.82312e-17
9.82481e-17
9.82319e-17
9.82388e-17
9.82507e-17
9.82628e-17
9.82746e-17
9.82859e-17
9.82916e-17
9.82809e-17
9.82896e-17
9.83029e-17
9.83159e-17
9.83284e-17
9.83405e-17
9.83364e-17
9.83315e-17
9.83421e-17
9.8356e-17
9.83697e-17
9.83827e-17
9.83953e-17
9.83785e-17
9.83795e-17
9.83934e-17
9.84091e-17
9.84244e-17
9.84386e-17
9.8452e-17
9.84288e-17
9.84336e-17
9.84507e-17
9.84699e-17
9.84891e-17
9.85058e-17
9.85193e-17
9.77648e-17
9.77571e-17
9.77523e-17
9.77473e-17
9.77428e-17
9.77385e-17
9.77348e-17
9.77317e-17
9.77299e-17
9.77288e-17
9.77287e-17
9.7729e-17
9.77308e-17
9.77345e-17
9.78049e-17
9.77962e-17
9.77924e-17
9.7788e-17
9.77842e-17
9.77802e-17
9.77768e-17
9.77737e-17
9.77714e-17
9.77698e-17
9.77693e-17
9.77697e-17
9.77695e-17
9.77753e-17
9.78414e-17
9.78328e-17
9.78305e-17
9.78273e-17
9.78245e-17
9.78215e-17
9.78186e-17
9.78156e-17
9.7813e-17
9.78107e-17
9.78091e-17
9.78089e-17
9.78078e-17
9.78128e-17
9.78779e-17
9.78706e-17
9.78693e-17
9.78668e-17
9.78648e-17
9.78624e-17
9.78599e-17
9.78571e-17
9.78543e-17
9.78517e-17
9.78494e-17
9.78489e-17
9.78472e-17
9.78507e-17
9.79124e-17
9.79072e-17
9.7907e-17
9.79054e-17
9.79043e-17
9.79025e-17
9.79004e-17
9.7898e-17
9.78954e-17
9.78926e-17
9.78899e-17
9.78884e-17
9.78861e-17
9.78883e-17
9.7948e-17
9.79445e-17
9.79449e-17
9.79442e-17
9.79436e-17
9.79422e-17
9.79404e-17
9.79383e-17
9.7936e-17
9.79335e-17
9.79308e-17
9.79286e-17
9.79262e-17
9.79267e-17
9.79828e-17
9.79813e-17
9.79824e-17
9.79826e-17
9.79826e-17
9.79818e-17
9.79803e-17
9.79785e-17
9.79764e-17
9.79741e-17
9.79716e-17
9.79692e-17
9.79669e-17
9.79656e-17
9.80185e-17
9.80187e-17
9.80203e-17
9.80213e-17
9.80217e-17
9.80214e-17
9.80203e-17
9.80187e-17
9.80169e-17
9.80147e-17
9.80125e-17
9.80101e-17
9.80083e-17
9.80058e-17
9.80544e-17
9.8056e-17
9.80583e-17
9.80602e-17
9.8061e-17
9.80612e-17
9.80605e-17
9.80593e-17
9.80577e-17
9.80555e-17
9.80535e-17
9.80512e-17
9.80505e-17
9.80472e-17
9.80922e-17
9.80944e-17
9.80971e-17
9.80995e-17
9.81006e-17
9.81013e-17
9.8101e-17
9.81002e-17
9.80988e-17
9.80968e-17
9.80953e-17
9.80935e-17
9.80939e-17
9.80902e-17
9.81308e-17
9.81335e-17
9.81366e-17
9.81396e-17
9.81411e-17
9.8142e-17
9.8142e-17
9.81414e-17
9.81403e-17
9.81387e-17
9.81379e-17
9.81369e-17
9.81374e-17
9.81333e-17
9.81709e-17
9.81741e-17
9.81773e-17
9.81804e-17
9.81821e-17
9.81832e-17
9.81835e-17
9.81832e-17
9.81827e-17
9.81819e-17
9.81818e-17
9.81817e-17
9.81827e-17
9.8178e-17
9.82103e-17
9.82142e-17
9.82183e-17
9.82221e-17
9.82242e-17
9.82256e-17
9.82261e-17
9.82259e-17
9.82256e-17
9.82253e-17
9.82252e-17
9.82254e-17
9.82259e-17
9.82211e-17
9.82547e-17
9.82563e-17
9.82614e-17
9.82651e-17
9.82678e-17
9.82694e-17
9.82702e-17
9.82702e-17
9.827e-17
9.82698e-17
9.82697e-17
9.82705e-17
9.82713e-17
9.82691e-17
9.77775e-17
9.77693e-17
9.77626e-17
9.77543e-17
9.77459e-17
9.77367e-17
9.77278e-17
9.77186e-17
9.771e-17
9.7701e-17
9.76931e-17
9.7685e-17
9.76779e-17
9.76712e-17
9.78038e-17
9.77948e-17
9.77887e-17
9.77802e-17
9.7772e-17
9.77631e-17
9.77543e-17
9.7745e-17
9.77362e-17
9.7727e-17
9.77187e-17
9.77105e-17
9.77025e-17
9.76984e-17
9.78257e-17
9.78175e-17
9.78121e-17
9.78043e-17
9.77966e-17
9.77882e-17
9.77797e-17
9.77707e-17
9.77619e-17
9.77526e-17
9.77437e-17
9.77351e-17
9.77264e-17
9.7722e-17
9.78489e-17
9.78417e-17
9.78366e-17
9.7829e-17
9.78216e-17
9.78133e-17
9.78048e-17
9.77957e-17
9.77866e-17
9.77772e-17
9.77681e-17
9.77594e-17
9.77504e-17
9.7745e-17
9.78708e-17
9.7865e-17
9.78601e-17
9.78531e-17
9.7846e-17
9.7838e-17
9.78296e-17
9.78205e-17
9.78113e-17
9.78018e-17
9.77925e-17
9.77834e-17
9.77741e-17
9.77673e-17
9.7894e-17
9.78892e-17
9.78843e-17
9.78776e-17
9.78705e-17
9.78626e-17
9.78541e-17
9.7845e-17
9.78357e-17
9.78261e-17
9.78166e-17
9.78072e-17
9.77977e-17
9.77897e-17
9.79174e-17
9.79133e-17
9.79083e-17
9.7902e-17
9.78949e-17
9.7887e-17
9.78785e-17
9.78695e-17
9.78601e-17
9.78505e-17
9.78408e-17
9.78311e-17
9.78214e-17
9.78126e-17
9.79417e-17
9.7938e-17
9.79328e-17
9.79268e-17
9.79195e-17
9.79117e-17
9.7903e-17
9.78939e-17
9.78844e-17
9.78746e-17
9.78648e-17
9.78549e-17
9.78453e-17
9.78357e-17
9.79665e-17
9.7963e-17
9.79578e-17
9.79518e-17
9.79444e-17
9.79366e-17
9.79278e-17
9.79187e-17
9.79091e-17
9.78992e-17
9.78895e-17
9.78792e-17
9.78699e-17
9.78593e-17
9.79925e-17
9.7989e-17
9.79835e-17
9.79776e-17
9.79701e-17
9.79622e-17
9.79532e-17
9.7944e-17
9.79342e-17
9.79241e-17
9.79143e-17
9.79038e-17
9.78951e-17
9.7884e-17
9.80192e-17
9.80158e-17
9.80101e-17
9.80041e-17
9.79964e-17
9.79883e-17
9.79793e-17
9.79699e-17
9.79602e-17
9.79501e-17
9.79404e-17
9.79298e-17
9.79216e-17
9.79103e-17
9.80475e-17
9.80436e-17
9.80374e-17
9.80313e-17
9.80235e-17
9.80152e-17
9.80061e-17
9.79968e-17
9.79872e-17
9.79772e-17
9.79679e-17
9.79573e-17
9.79493e-17
9.79381e-17
9.80761e-17
9.80723e-17
9.80661e-17
9.80598e-17
9.80518e-17
9.80431e-17
9.80339e-17
9.80243e-17
9.80147e-17
9.80047e-17
9.79955e-17
9.7985e-17
9.7977e-17
9.79653e-17
9.81078e-17
9.81009e-17
9.80945e-17
9.80877e-17
9.80799e-17
9.80714e-17
9.80626e-17
9.80532e-17
9.8044e-17
9.80342e-17
9.80248e-17
9.80147e-17
9.80067e-17
9.79965e-17
9.77925e-17
9.7783e-17
9.77745e-17
9.77641e-17
9.77533e-17
9.77413e-17
9.77293e-17
9.77164e-17
9.77036e-17
9.76902e-17
9.76777e-17
9.76645e-17
9.76523e-17
9.76389e-17
9.78043e-17
9.77947e-17
9.77872e-17
9.77768e-17
9.7766e-17
9.77539e-17
9.77415e-17
9.77285e-17
9.77156e-17
9.7702e-17
9.76893e-17
9.76761e-17
9.76639e-17
9.76516e-17
9.78141e-17
9.78053e-17
9.77974e-17
9.77871e-17
9.77765e-17
9.77648e-17
9.77528e-17
9.77401e-17
9.77274e-17
9.77142e-17
9.77014e-17
9.76882e-17
9.76755e-17
9.76634e-17
9.78256e-17
9.78173e-17
9.7809e-17
9.77986e-17
9.77879e-17
9.77761e-17
9.7764e-17
9.77511e-17
9.77383e-17
9.7725e-17
9.7712e-17
9.76988e-17
9.7686e-17
9.7674e-17
9.78364e-17
9.78287e-17
9.78202e-17
9.781e-17
9.77992e-17
9.77873e-17
9.7775e-17
9.77619e-17
9.77488e-17
9.77353e-17
9.77221e-17
9.77087e-17
9.76956e-17
9.76831e-17
9.78482e-17
9.78408e-17
9.7832e-17
9.78217e-17
9.78106e-17
9.77986e-17
9.7786e-17
9.77727e-17
9.77592e-17
9.77454e-17
9.77318e-17
9.77182e-17
9.77048e-17
9.76917e-17
9.78608e-17
9.78532e-17
9.78439e-17
9.78336e-17
9.78221e-17
9.78098e-17
9.7797e-17
9.77835e-17
9.77698e-17
9.77557e-17
9.77418e-17
9.77277e-17
9.77138e-17
9.77001e-17
9.78741e-17
9.78663e-17
9.78566e-17
9.78459e-17
9.78339e-17
9.78213e-17
9.78079e-17
9.77942e-17
9.778e-17
9.77657e-17
9.77513e-17
9.77369e-17
9.77226e-17
9.77086e-17
9.78877e-17
9.78795e-17
9.78693e-17
9.78582e-17
9.78456e-17
9.78326e-17
9.78189e-17
9.7805e-17
9.77906e-17
9.7776e-17
9.77614e-17
9.77465e-17
9.7732e-17
9.77172e-17
9.79019e-17
9.78933e-17
9.78825e-17
9.78711e-17
9.78581e-17
9.78446e-17
9.78303e-17
9.78159e-17
9.78011e-17
9.77863e-17
9.77715e-17
9.77564e-17
9.77416e-17
9.77264e-17
9.79165e-17
9.79072e-17
9.78958e-17
9.78839e-17
9.78704e-17
9.78565e-17
9.78419e-17
9.78273e-17
9.78123e-17
9.77974e-17
9.77824e-17
9.77669e-17
9.77517e-17
9.77353e-17
9.79315e-17
9.79215e-17
9.79095e-17
9.78971e-17
9.78835e-17
9.78692e-17
9.78542e-17
9.7839e-17
9.78235e-17
9.78081e-17
9.77927e-17
9.7777e-17
9.77616e-17
9.77442e-17
9.7947e-17
9.79368e-17
9.79244e-17
9.79111e-17
9.78966e-17
9.78817e-17
9.78666e-17
9.78513e-17
9.78356e-17
9.78198e-17
9.78037e-17
9.77871e-17
9.77709e-17
9.7753e-17
9.79641e-17
9.79514e-17
9.7938e-17
9.79242e-17
9.791e-17
9.78952e-17
9.788e-17
9.78644e-17
9.78488e-17
9.78328e-17
9.78168e-17
9.77996e-17
9.7783e-17
9.77646e-17
9.77945e-17
9.77849e-17
9.77751e-17
9.77631e-17
9.77505e-17
9.77364e-17
9.77217e-17
9.77058e-17
9.76899e-17
9.76734e-17
9.76575e-17
9.76402e-17
9.76244e-17
9.7606e-17
9.7795e-17
9.77853e-17
9.77761e-17
9.77639e-17
9.7751e-17
9.77368e-17
9.77219e-17
9.7706e-17
9.76899e-17
9.76731e-17
9.76571e-17
9.76402e-17
9.76248e-17
9.76077e-17
9.77938e-17
9.77851e-17
9.77752e-17
9.7763e-17
9.77502e-17
9.77362e-17
9.77217e-17
9.77063e-17
9.76905e-17
9.76741e-17
9.76582e-17
9.76417e-17
9.76261e-17
9.76094e-17
9.77941e-17
9.77855e-17
9.7775e-17
9.77629e-17
9.77498e-17
9.77359e-17
9.77213e-17
9.7706e-17
9.76904e-17
9.76742e-17
9.76583e-17
9.76419e-17
9.76263e-17
9.76101e-17
9.77943e-17
9.77856e-17
9.77748e-17
9.77626e-17
9.77494e-17
9.77354e-17
9.77207e-17
9.77053e-17
9.76896e-17
9.76734e-17
9.76573e-17
9.76407e-17
9.76247e-17
9.76083e-17
9.7795e-17
9.7786e-17
9.77748e-17
9.77625e-17
9.7749e-17
9.77347e-17
9.77197e-17
9.7704e-17
9.7688e-17
9.76715e-17
9.76552e-17
9.76385e-17
9.76222e-17
9.76056e-17
9.77964e-17
9.77867e-17
9.7775e-17
9.77624e-17
9.77485e-17
9.77339e-17
9.77185e-17
9.77026e-17
9.76862e-17
9.76695e-17
9.76528e-17
9.76359e-17
9.76191e-17
9.76021e-17
9.77982e-17
9.77877e-17
9.77755e-17
9.77624e-17
9.7748e-17
9.77329e-17
9.77171e-17
9.77008e-17
9.7684e-17
9.7667e-17
9.76499e-17
9.76326e-17
9.76154e-17
9.75982e-17
9.78004e-17
9.77891e-17
9.77761e-17
9.77625e-17
9.77474e-17
9.77319e-17
9.77155e-17
9.76989e-17
9.76816e-17
9.76643e-17
9.76466e-17
9.7629e-17
9.76111e-17
9.75937e-17
9.78027e-17
9.77904e-17
9.77767e-17
9.77623e-17
9.77467e-17
9.77307e-17
9.77139e-17
9.76968e-17
9.7679e-17
9.76614e-17
9.76433e-17
9.76254e-17
9.76066e-17
9.75891e-17
9.78055e-17
9.7792e-17
9.77775e-17
9.77623e-17
9.7746e-17
9.77294e-17
9.7712e-17
9.76945e-17
9.76763e-17
9.76581e-17
9.76395e-17
9.76211e-17
9.76017e-17
9.75837e-17
9.78082e-17
9.77938e-17
9.77784e-17
9.77622e-17
9.77453e-17
9.77281e-17
9.77103e-17
9.76922e-17
9.76734e-17
9.76548e-17
9.76356e-17
9.76168e-17
9.75967e-17
9.75781e-17
9.78103e-17
9.77949e-17
9.77791e-17
9.77618e-17
9.77443e-17
9.77265e-17
9.77084e-17
9.76899e-17
9.76707e-17
9.76514e-17
9.76317e-17
9.7612e-17
9.75911e-17
9.75709e-17
9.78116e-17
9.7795e-17
9.77793e-17
9.77617e-17
9.77438e-17
9.77252e-17
9.77064e-17
9.76877e-17
9.76686e-17
9.76494e-17
9.76296e-17
9.76096e-17
9.75881e-17
9.7567e-17
9.77661e-17
9.77567e-17
9.77462e-17
9.77333e-17
9.77194e-17
9.7704e-17
9.76876e-17
9.76702e-17
9.76522e-17
9.76332e-17
9.76145e-17
9.75941e-17
9.75752e-17
9.75523e-17
9.77556e-17
9.77466e-17
9.77361e-17
9.77233e-17
9.77092e-17
9.7694e-17
9.76775e-17
9.76602e-17
9.76423e-17
9.76235e-17
9.76049e-17
9.7585e-17
9.75662e-17
9.75455e-17
9.77445e-17
9.77362e-17
9.77249e-17
9.77121e-17
9.7698e-17
9.76829e-17
9.76669e-17
9.765e-17
9.76323e-17
9.76138e-17
9.75954e-17
9.75761e-17
9.75575e-17
9.75373e-17
9.77341e-17
9.77255e-17
9.77138e-17
9.7701e-17
9.76867e-17
9.76718e-17
9.76558e-17
9.76389e-17
9.76214e-17
9.76031e-17
9.75848e-17
9.75659e-17
9.75476e-17
9.75283e-17
9.77239e-17
9.77148e-17
9.77027e-17
9.76899e-17
9.76756e-17
9.76605e-17
9.76446e-17
9.76278e-17
9.76103e-17
9.75921e-17
9.75738e-17
9.75549e-17
9.75365e-17
9.75172e-17
9.77138e-17
9.7704e-17
9.76917e-17
9.76785e-17
9.7664e-17
9.76488e-17
9.76327e-17
9.76157e-17
9.75981e-17
9.75799e-17
9.75616e-17
9.75427e-17
9.7524e-17
9.75048e-17
9.77046e-17
9.76937e-17
9.7681e-17
9.76674e-17
9.76526e-17
9.76371e-17
9.76206e-17
9.76035e-17
9.75857e-17
9.75674e-17
9.75488e-17
9.75299e-17
9.7511e-17
9.74916e-17
9.76949e-17
9.7683e-17
9.76698e-17
9.76557e-17
9.76405e-17
9.76245e-17
9.76078e-17
9.75904e-17
9.75723e-17
9.75539e-17
9.7535e-17
9.75159e-17
9.74965e-17
9.74772e-17
9.7686e-17
9.76731e-17
9.76591e-17
9.76444e-17
9.76286e-17
9.76121e-17
9.75948e-17
9.7577e-17
9.75584e-17
9.75396e-17
9.75202e-17
9.75009e-17
9.7481e-17
9.74621e-17
9.76765e-17
9.76622e-17
9.76476e-17
9.7632e-17
9.76157e-17
9.75987e-17
9.7581e-17
9.75629e-17
9.7544e-17
9.75249e-17
9.7505e-17
9.74855e-17
9.74647e-17
9.74461e-17
9.76676e-17
9.76519e-17
9.76366e-17
9.76202e-17
9.76031e-17
9.75854e-17
9.75671e-17
9.75483e-17
9.75286e-17
9.7509e-17
9.74886e-17
9.74688e-17
9.74473e-17
9.7429e-17
9.7657e-17
9.76402e-17
9.76243e-17
9.76071e-17
9.75894e-17
9.75712e-17
9.75524e-17
9.75332e-17
9.75133e-17
9.74933e-17
9.74725e-17
9.74523e-17
9.743e-17
9.74114e-17
9.76462e-17
9.76288e-17
9.76123e-17
9.75944e-17
9.7576e-17
9.75571e-17
9.75374e-17
9.75174e-17
9.74966e-17
9.74758e-17
9.74543e-17
9.74334e-17
9.74105e-17
9.73913e-17
9.76337e-17
9.76157e-17
9.75986e-17
9.75801e-17
9.75609e-17
9.75415e-17
9.75215e-17
9.75015e-17
9.74807e-17
9.746e-17
9.74384e-17
9.74172e-17
9.73942e-17
9.73731e-17
9.76782e-17
9.76688e-17
9.76578e-17
9.76456e-17
9.76321e-17
9.76174e-17
9.76014e-17
9.75844e-17
9.75662e-17
9.75471e-17
9.75274e-17
9.75061e-17
9.74856e-17
9.74617e-17
9.76585e-17
9.76504e-17
9.76392e-17
9.76271e-17
9.76134e-17
9.75987e-17
9.75825e-17
9.75654e-17
9.75472e-17
9.7528e-17
9.75082e-17
9.74874e-17
9.74672e-17
9.74453e-17
9.76394e-17
9.76316e-17
9.76196e-17
9.76073e-17
9.75935e-17
9.7579e-17
9.75632e-17
9.75465e-17
9.75288e-17
9.75101e-17
9.74907e-17
9.74704e-17
9.74506e-17
9.74293e-17
9.76207e-17
9.76123e-17
9.76e-17
9.75876e-17
9.75737e-17
9.75592e-17
9.75433e-17
9.75266e-17
9.75089e-17
9.74903e-17
9.74712e-17
9.74513e-17
9.74318e-17
9.74113e-17
9.7602e-17
9.75928e-17
9.75803e-17
9.75677e-17
9.75536e-17
9.75389e-17
9.75231e-17
9.75065e-17
9.7489e-17
9.74706e-17
9.74519e-17
9.74322e-17
9.74129e-17
9.73926e-17
9.75832e-17
9.75729e-17
9.75602e-17
9.75473e-17
9.75331e-17
9.75181e-17
9.75022e-17
9.74855e-17
9.74679e-17
9.74496e-17
9.74309e-17
9.74115e-17
9.73921e-17
9.73721e-17
9.75647e-17
9.75534e-17
9.75404e-17
9.75269e-17
9.75123e-17
9.74971e-17
9.74809e-17
9.7464e-17
9.74464e-17
9.74282e-17
9.74095e-17
9.73903e-17
9.7371e-17
9.73512e-17
9.75452e-17
9.75328e-17
9.75196e-17
9.75055e-17
9.74907e-17
9.74751e-17
9.74587e-17
9.74417e-17
9.74239e-17
9.74056e-17
9.73867e-17
9.73676e-17
9.7348e-17
9.73287e-17
9.75263e-17
9.75128e-17
9.7499e-17
9.74844e-17
9.7469e-17
9.74529e-17
9.74362e-17
9.74188e-17
9.74007e-17
9.73822e-17
9.7363e-17
9.7344e-17
9.73242e-17
9.73057e-17
9.75061e-17
9.74914e-17
9.74771e-17
9.74618e-17
9.74461e-17
9.74296e-17
9.74126e-17
9.7395e-17
9.73767e-17
9.7358e-17
9.73385e-17
9.73194e-17
9.72991e-17
9.72813e-17
9.74865e-17
9.74706e-17
9.74558e-17
9.74397e-17
9.74234e-17
9.74063e-17
9.73887e-17
9.73706e-17
9.73516e-17
9.73325e-17
9.73126e-17
9.72935e-17
9.72729e-17
9.72563e-17
9.74646e-17
9.74477e-17
9.74324e-17
9.74158e-17
9.7399e-17
9.73816e-17
9.73637e-17
9.73454e-17
9.73263e-17
9.73071e-17
9.7287e-17
9.72677e-17
9.72466e-17
9.72303e-17
9.7444e-17
9.74261e-17
9.741e-17
9.73929e-17
9.73753e-17
9.73573e-17
9.73385e-17
9.73192e-17
9.72993e-17
9.72794e-17
9.72587e-17
9.7239e-17
9.72178e-17
9.72018e-17
9.74188e-17
9.74009e-17
9.73843e-17
9.73669e-17
9.7349e-17
9.73308e-17
9.73121e-17
9.7293e-17
9.72733e-17
9.72535e-17
9.72331e-17
9.72132e-17
9.71921e-17
9.71743e-17
9.75103e-17
9.75021e-17
9.74916e-17
9.74814e-17
9.74699e-17
9.74577e-17
9.74444e-17
9.74303e-17
9.7415e-17
9.73989e-17
9.73818e-17
9.73638e-17
9.73454e-17
9.73246e-17
9.74857e-17
9.74789e-17
9.74683e-17
9.74578e-17
9.7446e-17
9.74335e-17
9.74198e-17
9.74052e-17
9.73896e-17
9.73731e-17
9.73558e-17
9.73377e-17
9.73194e-17
9.73e-17
9.74617e-17
9.74549e-17
9.74435e-17
9.74328e-17
9.74207e-17
9.74082e-17
9.73946e-17
9.73803e-17
9.73651e-17
9.7349e-17
9.73321e-17
9.73144e-17
9.72968e-17
9.72781e-17
9.74379e-17
9.74303e-17
9.74188e-17
9.74078e-17
9.73955e-17
9.73828e-17
9.7369e-17
9.73546e-17
9.73392e-17
9.7323e-17
9.73063e-17
9.72887e-17
9.72714e-17
9.72531e-17
9.74142e-17
9.74054e-17
9.73936e-17
9.73822e-17
9.73697e-17
9.73568e-17
9.7343e-17
9.73285e-17
9.73133e-17
9.72974e-17
9.72809e-17
9.72637e-17
9.72467e-17
9.72288e-17
9.73898e-17
9.73798e-17
9.73679e-17
9.73561e-17
9.73434e-17
9.73302e-17
9.73163e-17
9.73017e-17
9.72865e-17
9.72706e-17
9.72543e-17
9.72373e-17
9.72204e-17
9.72029e-17
9.73652e-17
9.73542e-17
9.7342e-17
9.73297e-17
9.73167e-17
9.73032e-17
9.72891e-17
9.72744e-17
9.72591e-17
9.72434e-17
9.72272e-17
9.72107e-17
9.71941e-17
9.71771e-17
9.73392e-17
9.73272e-17
9.7315e-17
9.73022e-17
9.72891e-17
9.72753e-17
9.72611e-17
9.72463e-17
9.7231e-17
9.72153e-17
9.71992e-17
9.71829e-17
9.71664e-17
9.71501e-17
9.73133e-17
9.73004e-17
9.72879e-17
9.72747e-17
9.72612e-17
9.72471e-17
9.72326e-17
9.72177e-17
9.72023e-17
9.71866e-17
9.71706e-17
9.71547e-17
9.71384e-17
9.71232e-17
9.72858e-17
9.7272e-17
9.72594e-17
9.72458e-17
9.72322e-17
9.72179e-17
9.72033e-17
9.71883e-17
9.71729e-17
9.71573e-17
9.71412e-17
9.71256e-17
9.71093e-17
9.70953e-17
9.7259e-17
9.72442e-17
9.72314e-17
9.72173e-17
9.72033e-17
9.71886e-17
9.71737e-17
9.71584e-17
9.71428e-17
9.71272e-17
9.71111e-17
9.70959e-17
9.70798e-17
9.70673e-17
9.72299e-17
9.72144e-17
9.72015e-17
9.71872e-17
9.7173e-17
9.71583e-17
9.71433e-17
9.7128e-17
9.71125e-17
9.70969e-17
9.70809e-17
9.70658e-17
9.70497e-17
9.70384e-17
9.72027e-17
9.71868e-17
9.71731e-17
9.71585e-17
9.71436e-17
9.71284e-17
9.71127e-17
9.7097e-17
9.70811e-17
9.70653e-17
9.7049e-17
9.7034e-17
9.70185e-17
9.70082e-17
9.71695e-17
9.71551e-17
9.71409e-17
9.71267e-17
9.71118e-17
9.70968e-17
9.70814e-17
9.7066e-17
9.70505e-17
9.7035e-17
9.70191e-17
9.70041e-17
9.69886e-17
9.69775e-17
9.72673e-17
9.726e-17
9.72512e-17
9.72434e-17
9.72351e-17
9.72267e-17
9.72179e-17
9.72086e-17
9.71987e-17
9.71883e-17
9.71771e-17
9.7166e-17
9.71541e-17
9.71419e-17
9.72411e-17
9.72356e-17
9.72266e-17
9.72184e-17
9.72097e-17
9.72008e-17
9.71914e-17
9.71816e-17
9.7171e-17
9.716e-17
9.71485e-17
9.7137e-17
9.71248e-17
9.71117e-17
9.72157e-17
9.72101e-17
9.72005e-17
9.71921e-17
9.7183e-17
9.7174e-17
9.71645e-17
9.71546e-17
9.71441e-17
9.71331e-17
9.71219e-17
9.71105e-17
9.70989e-17
9.70857e-17
9.71901e-17
9.71839e-17
9.71743e-17
9.71656e-17
9.71563e-17
9.7147e-17
9.71372e-17
9.71271e-17
9.71165e-17
9.71054e-17
9.70942e-17
9.70827e-17
9.70712e-17
9.70583e-17
9.71647e-17
9.71574e-17
9.71476e-17
9.71386e-17
9.7129e-17
9.71195e-17
9.71095e-17
9.70993e-17
9.70887e-17
9.70778e-17
9.70668e-17
9.70554e-17
9.70443e-17
9.7032e-17
9.71384e-17
9.713e-17
9.71202e-17
9.71109e-17
9.71012e-17
9.70915e-17
9.70815e-17
9.70712e-17
9.70607e-17
9.70499e-17
9.70389e-17
9.70277e-17
9.70167e-17
9.70049e-17
9.71116e-17
9.71023e-17
9.70925e-17
9.70828e-17
9.7073e-17
9.70631e-17
9.7053e-17
9.70428e-17
9.70323e-17
9.70217e-17
9.70109e-17
9.70001e-17
9.69894e-17
9.69785e-17
9.70836e-17
9.70736e-17
9.70639e-17
9.7054e-17
9.70441e-17
9.70342e-17
9.70242e-17
9.7014e-17
9.70036e-17
9.69932e-17
9.69826e-17
9.69722e-17
9.69617e-17
9.69516e-17
9.70556e-17
9.70449e-17
9.70352e-17
9.7025e-17
9.70151e-17
9.70051e-17
9.69951e-17
9.6985e-17
9.69747e-17
9.69645e-17
9.69543e-17
9.69443e-17
9.69343e-17
9.69255e-17
9.70264e-17
9.70151e-17
9.70056e-17
9.69954e-17
9.69856e-17
9.69756e-17
9.69656e-17
9.69556e-17
9.69455e-17
9.69356e-17
9.69257e-17
9.69161e-17
9.69063e-17
9.68988e-17
9.6998e-17
9.69861e-17
9.69766e-17
9.69663e-17
9.69563e-17
9.69463e-17
9.69363e-17
9.69262e-17
9.69162e-17
9.69065e-17
9.68971e-17
9.68881e-17
9.68789e-17
9.6873e-17
9.69679e-17
9.6956e-17
9.69466e-17
9.69363e-17
9.69265e-17
9.69166e-17
9.69068e-17
9.68969e-17
9.6887e-17
9.68774e-17
9.68681e-17
9.68598e-17
9.6851e-17
9.68465e-17
9.69393e-17
9.69278e-17
9.69179e-17
9.69076e-17
9.68975e-17
9.68874e-17
9.68775e-17
9.68675e-17
9.68577e-17
9.6848e-17
9.6839e-17
9.68315e-17
9.68237e-17
9.6821e-17
9.69062e-17
9.68967e-17
9.68866e-17
9.6877e-17
9.68672e-17
9.68575e-17
9.6848e-17
9.68385e-17
9.68291e-17
9.68198e-17
9.6811e-17
9.68034e-17
9.67962e-17
9.67936e-17
9.69679e-17
9.69624e-17
9.6956e-17
9.69516e-17
9.69473e-17
9.69435e-17
9.69398e-17
9.69362e-17
9.69327e-17
9.69293e-17
9.6926e-17
9.69228e-17
9.69194e-17
9.69169e-17
9.69433e-17
9.69396e-17
9.69334e-17
9.69286e-17
9.6924e-17
9.69198e-17
9.69157e-17
9.69117e-17
9.69077e-17
9.69038e-17
9.69e-17
9.68958e-17
9.68924e-17
9.68875e-17
9.69198e-17
9.69163e-17
9.69098e-17
9.69048e-17
9.69e-17
9.68955e-17
9.68912e-17
9.6887e-17
9.68828e-17
9.68786e-17
9.68747e-17
9.68706e-17
9.68675e-17
9.68621e-17
9.6896e-17
9.68921e-17
9.68858e-17
9.68807e-17
9.68757e-17
9.68712e-17
9.68667e-17
9.68623e-17
9.68579e-17
9.68537e-17
9.68496e-17
9.68454e-17
9.68419e-17
9.68365e-17
9.68725e-17
9.6868e-17
9.68617e-17
9.68564e-17
9.68513e-17
9.68465e-17
9.68419e-17
9.68374e-17
9.6833e-17
9.68288e-17
9.68248e-17
9.68207e-17
9.68172e-17
9.68125e-17
9.68483e-17
9.68431e-17
9.68371e-17
9.68317e-17
9.68266e-17
9.68218e-17
9.68171e-17
9.68127e-17
9.68084e-17
9.68043e-17
9.68004e-17
9.67965e-17
9.6793e-17
9.67889e-17
9.68241e-17
9.68182e-17
9.68123e-17
9.68069e-17
9.68017e-17
9.67969e-17
9.67923e-17
9.6788e-17
9.67839e-17
9.67801e-17
9.67764e-17
9.67729e-17
9.67696e-17
9.67663e-17
9.67994e-17
9.6793e-17
9.67873e-17
9.67819e-17
9.67768e-17
9.67721e-17
9.67676e-17
9.67635e-17
9.67596e-17
9.6756e-17
9.67526e-17
9.67496e-17
9.67464e-17
9.6744e-17
9.67749e-17
9.67679e-17
9.67623e-17
9.6757e-17
9.67521e-17
9.67475e-17
9.67432e-17
9.67393e-17
9.67357e-17
9.67324e-17
9.67293e-17
9.67266e-17
9.67239e-17
9.67227e-17
9.675e-17
9.67426e-17
9.67373e-17
9.67322e-17
9.67275e-17
9.67231e-17
9.6719e-17
9.67153e-17
9.67119e-17
9.6709e-17
9.67063e-17
9.67039e-17
9.67014e-17
9.67016e-17
9.67258e-17
9.6718e-17
9.6713e-17
9.67079e-17
9.67034e-17
9.66992e-17
9.66953e-17
9.66918e-17
9.66887e-17
9.66861e-17
9.66839e-17
9.6682e-17
9.668e-17
9.66813e-17
9.67007e-17
9.66932e-17
9.66886e-17
9.66838e-17
9.66794e-17
9.66755e-17
9.66719e-17
9.66686e-17
9.66658e-17
9.66635e-17
9.66616e-17
9.66603e-17
9.66587e-17
9.66607e-17
9.66772e-17
9.667e-17
9.66654e-17
9.66606e-17
9.66563e-17
9.66524e-17
9.6649e-17
9.66459e-17
9.66434e-17
9.66414e-17
9.66401e-17
9.66395e-17
9.66388e-17
9.66415e-17
9.66514e-17
9.66456e-17
9.66409e-17
9.66368e-17
9.6633e-17
9.66295e-17
9.66265e-17
9.66239e-17
9.66217e-17
9.66201e-17
9.66191e-17
9.66188e-17
9.66186e-17
9.66203e-17
9.66336e-17
9.66312e-17
9.6629e-17
9.66283e-17
9.66283e-17
9.6629e-17
9.66302e-17
9.66322e-17
9.66346e-17
9.66376e-17
9.6641e-17
9.6645e-17
9.66502e-17
9.66553e-17
9.66128e-17
9.66129e-17
9.66115e-17
9.66106e-17
9.66103e-17
9.66108e-17
9.6612e-17
9.66138e-17
9.66162e-17
9.6619e-17
9.66222e-17
9.66254e-17
9.66298e-17
9.66324e-17
9.65949e-17
9.65951e-17
9.65936e-17
9.65927e-17
9.65922e-17
9.65926e-17
9.65935e-17
9.65952e-17
9.65974e-17
9.66e-17
9.6603e-17
9.66059e-17
9.66102e-17
9.66124e-17
9.65767e-17
9.65767e-17
9.65754e-17
9.65746e-17
9.65741e-17
9.65745e-17
9.65754e-17
9.65771e-17
9.65791e-17
9.65816e-17
9.65845e-17
9.65874e-17
9.65912e-17
9.65932e-17
9.65593e-17
9.65587e-17
9.65572e-17
9.65565e-17
9.6556e-17
9.65564e-17
9.65574e-17
9.6559e-17
9.6561e-17
9.65634e-17
9.65663e-17
9.65694e-17
9.65731e-17
9.65757e-17
9.65417e-17
9.65407e-17
9.65393e-17
9.65387e-17
9.65383e-17
9.65388e-17
9.65398e-17
9.65414e-17
9.65434e-17
9.65459e-17
9.65488e-17
9.65521e-17
9.65557e-17
9.65588e-17
9.65244e-17
9.65229e-17
9.65217e-17
9.65211e-17
9.65208e-17
9.65213e-17
9.65224e-17
9.65241e-17
9.65263e-17
9.65289e-17
9.6532e-17
9.65355e-17
9.65392e-17
9.6543e-17
9.65071e-17
9.65055e-17
9.65045e-17
9.65039e-17
9.65039e-17
9.65044e-17
9.65055e-17
9.65073e-17
9.65097e-17
9.65125e-17
9.65158e-17
9.65195e-17
9.65233e-17
9.65277e-17
9.64901e-17
9.64884e-17
9.64877e-17
9.64872e-17
9.64873e-17
9.6488e-17
9.64893e-17
9.64912e-17
9.64937e-17
9.64968e-17
9.65003e-17
9.65043e-17
9.65083e-17
9.65133e-17
9.64732e-17
9.64715e-17
9.64711e-17
9.64708e-17
9.64712e-17
9.64722e-17
9.64737e-17
9.64757e-17
9.64784e-17
9.64817e-17
9.64855e-17
9.64898e-17
9.6494e-17
9.64995e-17
9.6457e-17
9.64551e-17
9.6455e-17
9.6455e-17
9.64557e-17
9.6457e-17
9.64587e-17
9.64611e-17
9.6464e-17
9.64675e-17
9.64715e-17
9.64762e-17
9.64808e-17
9.64868e-17
9.64413e-17
9.6439e-17
9.64393e-17
9.64396e-17
9.64406e-17
9.64422e-17
9.64443e-17
9.64469e-17
9.64501e-17
9.64539e-17
9.64582e-17
9.64631e-17
9.6468e-17
9.64746e-17
9.64265e-17
9.64241e-17
9.64246e-17
9.64251e-17
9.64263e-17
9.64282e-17
9.64306e-17
9.64336e-17
9.64371e-17
9.64412e-17
9.64457e-17
9.64511e-17
9.64566e-17
9.64636e-17
9.64112e-17
9.64096e-17
9.64101e-17
9.6411e-17
9.64126e-17
9.64147e-17
9.64173e-17
9.64206e-17
9.64243e-17
9.64288e-17
9.64336e-17
9.64392e-17
9.64451e-17
9.64525e-17
9.62799e-17
9.6282e-17
9.62842e-17
9.62877e-17
9.62917e-17
9.62964e-17
9.63016e-17
9.63076e-17
9.63141e-17
9.63212e-17
9.63287e-17
9.63373e-17
9.63466e-17
9.63571e-17
9.62688e-17
9.62713e-17
9.62738e-17
9.62776e-17
9.62816e-17
9.62864e-17
9.62918e-17
9.62978e-17
9.63044e-17
9.63117e-17
9.63194e-17
9.63277e-17
9.63362e-17
9.63445e-17
9.62588e-17
9.62616e-17
9.6264e-17
9.62676e-17
9.62715e-17
9.62762e-17
9.62816e-17
9.62877e-17
9.62945e-17
9.63018e-17
9.63095e-17
9.63176e-17
9.63261e-17
9.6334e-17
9.62487e-17
9.62518e-17
9.62544e-17
9.62581e-17
9.62619e-17
9.62666e-17
9.62719e-17
9.6278e-17
9.62847e-17
9.62921e-17
9.62999e-17
9.6308e-17
9.63164e-17
9.63241e-17
9.62395e-17
9.62424e-17
9.62449e-17
9.62485e-17
9.62523e-17
9.6257e-17
9.62624e-17
9.62685e-17
9.62753e-17
9.62827e-17
9.62906e-17
9.62988e-17
9.63071e-17
9.63151e-17
9.62305e-17
9.62333e-17
9.62359e-17
9.62395e-17
9.62434e-17
9.62482e-17
9.62535e-17
9.62596e-17
9.62663e-17
9.62736e-17
9.62815e-17
9.62897e-17
9.62981e-17
9.63063e-17
9.62218e-17
9.62245e-17
9.62273e-17
9.62309e-17
9.62349e-17
9.62397e-17
9.62451e-17
9.62513e-17
9.6258e-17
9.62653e-17
9.62731e-17
9.62813e-17
9.62897e-17
9.62981e-17
9.62135e-17
9.62162e-17
9.62193e-17
9.6223e-17
9.62271e-17
9.6232e-17
9.62374e-17
9.62436e-17
9.62503e-17
9.62576e-17
9.62653e-17
9.62735e-17
9.62818e-17
9.62904e-17
9.62058e-17
9.62084e-17
9.62117e-17
9.62155e-17
9.62199e-17
9.62248e-17
9.62303e-17
9.62365e-17
9.62433e-17
9.62506e-17
9.62584e-17
9.62666e-17
9.62749e-17
9.62835e-17
9.61985e-17
9.62011e-17
9.62047e-17
9.62086e-17
9.62131e-17
9.62183e-17
9.62239e-17
9.62302e-17
9.6237e-17
9.62443e-17
9.62522e-17
9.62604e-17
9.62688e-17
9.62774e-17
9.61918e-17
9.61944e-17
9.61982e-17
9.62022e-17
9.62069e-17
9.62122e-17
9.62181e-17
9.62245e-17
9.62314e-17
9.62388e-17
9.62467e-17
9.6255e-17
9.62634e-17
9.62721e-17
9.61854e-17
9.61882e-17
9.61922e-17
9.61964e-17
9.62012e-17
9.62067e-17
9.62127e-17
9.62193e-17
9.62263e-17
9.62338e-17
9.62417e-17
9.62501e-17
9.62586e-17
9.62675e-17
9.61795e-17
9.61825e-17
9.61865e-17
9.6191e-17
9.6196e-17
9.62019e-17
9.62081e-17
9.62151e-17
9.62224e-17
9.62301e-17
9.62381e-17
9.62465e-17
9.62548e-17
9.62642e-17
9.61741e-17
9.61772e-17
9.61814e-17
9.61862e-17
9.61915e-17
9.61975e-17
9.62038e-17
9.62109e-17
9.62183e-17
9.62262e-17
9.62342e-17
9.62427e-17
9.62514e-17
9.62612e-17
9.59185e-17
9.59243e-17
9.59302e-17
9.59364e-17
9.59429e-17
9.59497e-17
9.59569e-17
9.59646e-17
9.59728e-17
9.59816e-17
9.59908e-17
9.60005e-17
9.601e-17
9.60209e-17
9.5916e-17
9.59223e-17
9.5928e-17
9.59344e-17
9.59409e-17
9.5948e-17
9.59555e-17
9.59635e-17
9.59719e-17
9.59809e-17
9.59903e-17
9.60002e-17
9.60101e-17
9.60205e-17
9.59146e-17
9.59206e-17
9.59263e-17
9.59326e-17
9.59392e-17
9.59463e-17
9.5954e-17
9.59621e-17
9.59707e-17
9.59797e-17
9.59891e-17
9.5999e-17
9.6009e-17
9.60193e-17
9.59133e-17
9.59191e-17
9.59249e-17
9.59312e-17
9.59379e-17
9.59451e-17
9.59529e-17
9.59611e-17
9.59697e-17
9.59788e-17
9.59883e-17
9.59983e-17
9.60082e-17
9.60184e-17
9.59127e-17
9.59182e-17
9.5924e-17
9.59303e-17
9.5937e-17
9.59442e-17
9.59519e-17
9.59602e-17
9.59689e-17
9.5978e-17
9.59875e-17
9.59974e-17
9.60073e-17
9.60174e-17
9.5912e-17
9.59176e-17
9.59234e-17
9.59297e-17
9.59365e-17
9.59437e-17
9.59515e-17
9.59597e-17
9.59684e-17
9.59776e-17
9.59871e-17
9.59969e-17
9.60068e-17
9.60168e-17
9.59117e-17
9.59174e-17
9.59232e-17
9.59295e-17
9.59363e-17
9.59436e-17
9.59513e-17
9.59596e-17
9.59682e-17
9.59773e-17
9.59867e-17
9.59964e-17
9.60062e-17
9.60161e-17
9.59118e-17
9.59174e-17
9.59234e-17
9.59298e-17
9.59366e-17
9.59439e-17
9.59517e-17
9.59599e-17
9.59685e-17
9.59775e-17
9.59868e-17
9.59963e-17
9.6006e-17
9.60157e-17
9.59122e-17
9.59179e-17
9.59239e-17
9.59304e-17
9.59373e-17
9.59447e-17
9.59524e-17
9.59606e-17
9.59692e-17
9.5978e-17
9.59872e-17
9.59965e-17
9.60061e-17
9.60154e-17
9.59131e-17
9.59188e-17
9.59249e-17
9.59315e-17
9.59384e-17
9.59458e-17
9.59536e-17
9.59618e-17
9.59703e-17
9.5979e-17
9.59881e-17
9.59972e-17
9.60066e-17
9.60157e-17
9.59143e-17
9.592e-17
9.59261e-17
9.59328e-17
9.59398e-17
9.59474e-17
9.59552e-17
9.59634e-17
9.59719e-17
9.59806e-17
9.59895e-17
9.59984e-17
9.60076e-17
9.60164e-17
9.59158e-17
9.59216e-17
9.59279e-17
9.59347e-17
9.59417e-17
9.59493e-17
9.59572e-17
9.59654e-17
9.59739e-17
9.59825e-17
9.59913e-17
9.60001e-17
9.60092e-17
9.60179e-17
9.59175e-17
9.59235e-17
9.59297e-17
9.59366e-17
9.59437e-17
9.59515e-17
9.59595e-17
9.5968e-17
9.59765e-17
9.59853e-17
9.5994e-17
9.60027e-17
9.60115e-17
9.60205e-17
9.59196e-17
9.5926e-17
9.59322e-17
9.59393e-17
9.59464e-17
9.59542e-17
9.59621e-17
9.59705e-17
9.59789e-17