/*--------------------------------*- C++ -*----------------------------------*\
| =========                 |                                                 |
| \\      /  F ield         | OpenFOAM: The Open Source CFD Toolbox           |
|  \\    /   O peration     | Version:  v2106                                 |
|   \\  /    A nd           | Website:  www.openfoam.com                      |
|    \\/     M anipulation  |                                                 |
\*---------------------------------------------------------------------------*/
FoamFile
{
    version     2.0;
    format      ascii;
    arch        "LSB;label=32;scalar=64";
    class       volScalarField;
    location    "0.00018";
    object      epsilon;
}
// * * * * * * * * * * * * * * * * * * * * * * * * * * * * * * * * * * * * * //

dimensions      [0 2 -3 0 0 0 0];

internalField   nonuniform List<scalar> 
17924
(
1.50085e-08
1.50006e-08
1.49999e-08
1.50005e-08
1.49927e-08
1.49915e-08
1.49916e-08
1.49918e-08
1.49921e-08
1.49926e-08
1.49933e-08
1.49991e-08
1.49975e-08
1.49975e-08
1.49975e-08
1.49978e-08
1.49983e-08
1.4999e-08
1.50059e-08
1.50033e-08
1.5003e-08
1.50032e-08
1.50036e-08
1.50042e-08
1.50049e-08
1.50133e-08
1.50093e-08
1.50088e-08
1.5009e-08
1.50095e-08
1.50102e-08
1.5011e-08
1.50206e-08
1.50151e-08
1.50144e-08
1.50148e-08
1.50154e-08
1.50163e-08
1.50172e-08
1.50279e-08
1.5021e-08
1.50202e-08
1.50207e-08
1.50215e-08
1.50224e-08
1.50233e-08
1.50348e-08
1.50268e-08
1.50259e-08
1.50266e-08
1.50275e-08
1.50285e-08
1.50295e-08
1.50415e-08
1.50325e-08
1.50317e-08
1.50325e-08
1.50335e-08
1.50346e-08
1.50357e-08
1.50479e-08
1.50381e-08
1.50374e-08
1.50384e-08
1.50395e-08
1.50407e-08
1.50418e-08
1.50543e-08
1.50439e-08
1.50432e-08
1.50442e-08
1.50455e-08
1.50467e-08
1.5048e-08
1.506e-08
1.50496e-08
1.5049e-08
1.50501e-08
1.50515e-08
1.50528e-08
1.50541e-08
1.50655e-08
1.50554e-08
1.50549e-08
1.50562e-08
1.50576e-08
1.5059e-08
1.50603e-08
1.50703e-08
1.50609e-08
1.50608e-08
1.50622e-08
1.50639e-08
1.50655e-08
1.50671e-08
1.50781e-08
1.50677e-08
1.50675e-08
1.50694e-08
1.5072e-08
1.50745e-08
1.50765e-08
1.49967e-08
1.49962e-08
1.49959e-08
1.49955e-08
1.4995e-08
1.49946e-08
1.49942e-08
1.49939e-08
1.49938e-08
1.49938e-08
1.49938e-08
1.49939e-08
1.49941e-08
1.49942e-08
1.50016e-08
1.50009e-08
1.50006e-08
1.5e-08
1.49996e-08
1.49991e-08
1.49988e-08
1.49985e-08
1.49983e-08
1.49983e-08
1.49983e-08
1.49985e-08
1.49984e-08
1.4999e-08
1.5006e-08
1.5005e-08
1.50048e-08
1.50044e-08
1.5004e-08
1.50037e-08
1.50034e-08
1.50032e-08
1.5003e-08
1.50028e-08
1.50027e-08
1.50028e-08
1.50028e-08
1.50034e-08
1.50103e-08
1.50093e-08
1.50091e-08
1.50088e-08
1.50085e-08
1.50083e-08
1.5008e-08
1.50078e-08
1.50076e-08
1.50074e-08
1.50072e-08
1.50072e-08
1.50072e-08
1.50077e-08
1.50141e-08
1.50133e-08
1.50132e-08
1.50131e-08
1.50129e-08
1.50128e-08
1.50126e-08
1.50124e-08
1.50122e-08
1.50119e-08
1.50117e-08
1.50116e-08
1.50115e-08
1.50118e-08
1.50182e-08
1.50175e-08
1.50175e-08
1.50174e-08
1.50174e-08
1.50172e-08
1.50171e-08
1.50169e-08
1.50167e-08
1.50165e-08
1.50163e-08
1.50161e-08
1.50159e-08
1.5016e-08
1.50222e-08
1.50217e-08
1.50217e-08
1.50218e-08
1.50218e-08
1.50217e-08
1.50216e-08
1.50214e-08
1.50213e-08
1.50211e-08
1.50209e-08
1.50207e-08
1.50205e-08
1.50204e-08
1.50264e-08
1.50259e-08
1.50261e-08
1.50262e-08
1.50262e-08
1.50262e-08
1.50261e-08
1.5026e-08
1.50258e-08
1.50257e-08
1.50255e-08
1.50253e-08
1.50252e-08
1.50249e-08
1.50305e-08
1.50302e-08
1.50304e-08
1.50306e-08
1.50307e-08
1.50307e-08
1.50307e-08
1.50306e-08
1.50305e-08
1.50303e-08
1.50301e-08
1.50299e-08
1.50299e-08
1.50296e-08
1.5035e-08
1.50346e-08
1.50348e-08
1.50351e-08
1.50352e-08
1.50353e-08
1.50353e-08
1.50352e-08
1.50351e-08
1.5035e-08
1.50349e-08
1.50347e-08
1.50349e-08
1.50346e-08
1.50394e-08
1.5039e-08
1.50393e-08
1.50396e-08
1.50398e-08
1.50399e-08
1.50399e-08
1.50399e-08
1.50399e-08
1.50398e-08
1.50397e-08
1.50397e-08
1.50399e-08
1.50396e-08
1.5044e-08
1.50437e-08
1.5044e-08
1.50443e-08
1.50445e-08
1.50446e-08
1.50446e-08
1.50447e-08
1.50447e-08
1.50447e-08
1.50448e-08
1.50449e-08
1.50451e-08
1.50447e-08
1.50483e-08
1.50481e-08
1.50486e-08
1.5049e-08
1.50492e-08
1.50494e-08
1.50495e-08
1.50495e-08
1.50496e-08
1.50496e-08
1.50497e-08
1.50499e-08
1.50499e-08
1.50495e-08
1.50527e-08
1.50527e-08
1.50534e-08
1.50539e-08
1.50542e-08
1.50545e-08
1.50546e-08
1.50547e-08
1.50547e-08
1.50548e-08
1.50548e-08
1.50549e-08
1.50548e-08
1.50546e-08
1.50056e-08
1.50051e-08
1.50045e-08
1.50037e-08
1.50029e-08
1.50019e-08
1.50009e-08
1.5e-08
1.49991e-08
1.49982e-08
1.49974e-08
1.49966e-08
1.49957e-08
1.49947e-08
1.5009e-08
1.50082e-08
1.50076e-08
1.50067e-08
1.50058e-08
1.50048e-08
1.50038e-08
1.50029e-08
1.5002e-08
1.50011e-08
1.50003e-08
1.49995e-08
1.49986e-08
1.49981e-08
1.50117e-08
1.50108e-08
1.50103e-08
1.50094e-08
1.50086e-08
1.50076e-08
1.50068e-08
1.50058e-08
1.50049e-08
1.5004e-08
1.50031e-08
1.50023e-08
1.50014e-08
1.5001e-08
1.50145e-08
1.50136e-08
1.50131e-08
1.50122e-08
1.50114e-08
1.50105e-08
1.50096e-08
1.50087e-08
1.50077e-08
1.50068e-08
1.50059e-08
1.5005e-08
1.50041e-08
1.50037e-08
1.50169e-08
1.50162e-08
1.50157e-08
1.50149e-08
1.50142e-08
1.50133e-08
1.50124e-08
1.50115e-08
1.50106e-08
1.50096e-08
1.50087e-08
1.50077e-08
1.50068e-08
1.50062e-08
1.50195e-08
1.5019e-08
1.50184e-08
1.50177e-08
1.5017e-08
1.50161e-08
1.50153e-08
1.50143e-08
1.50134e-08
1.50124e-08
1.50114e-08
1.50105e-08
1.50095e-08
1.50087e-08
1.50222e-08
1.50217e-08
1.50212e-08
1.50205e-08
1.50198e-08
1.5019e-08
1.50181e-08
1.50171e-08
1.50162e-08
1.50152e-08
1.50142e-08
1.50132e-08
1.50122e-08
1.50113e-08
1.5025e-08
1.50245e-08
1.5024e-08
1.50234e-08
1.50226e-08
1.50218e-08
1.50209e-08
1.502e-08
1.5019e-08
1.5018e-08
1.5017e-08
1.50159e-08
1.5015e-08
1.5014e-08
1.50278e-08
1.50274e-08
1.50269e-08
1.50263e-08
1.50255e-08
1.50247e-08
1.50238e-08
1.50228e-08
1.50218e-08
1.50208e-08
1.50198e-08
1.50187e-08
1.50178e-08
1.50167e-08
1.50309e-08
1.50305e-08
1.50299e-08
1.50293e-08
1.50285e-08
1.50277e-08
1.50267e-08
1.50257e-08
1.50247e-08
1.50237e-08
1.50227e-08
1.50216e-08
1.50208e-08
1.50196e-08
1.5034e-08
1.50336e-08
1.5033e-08
1.50324e-08
1.50316e-08
1.50307e-08
1.50297e-08
1.50288e-08
1.50278e-08
1.50268e-08
1.50258e-08
1.50247e-08
1.50239e-08
1.50228e-08
1.50372e-08
1.50368e-08
1.50362e-08
1.50355e-08
1.50347e-08
1.50338e-08
1.50328e-08
1.50319e-08
1.50309e-08
1.50299e-08
1.5029e-08
1.50279e-08
1.50272e-08
1.5026e-08
1.50403e-08
1.50399e-08
1.50394e-08
1.50388e-08
1.50379e-08
1.5037e-08
1.5036e-08
1.50351e-08
1.50341e-08
1.50331e-08
1.50322e-08
1.50312e-08
1.50303e-08
1.5029e-08
1.50435e-08
1.50431e-08
1.50426e-08
1.5042e-08
1.50412e-08
1.50403e-08
1.50394e-08
1.50384e-08
1.50375e-08
1.50365e-08
1.50355e-08
1.50344e-08
1.50334e-08
1.50323e-08
1.50149e-08
1.50142e-08
1.50134e-08
1.50124e-08
1.50113e-08
1.501e-08
1.50087e-08
1.50073e-08
1.5006e-08
1.50046e-08
1.50033e-08
1.50019e-08
1.50005e-08
1.49988e-08
1.50167e-08
1.50158e-08
1.50151e-08
1.50139e-08
1.50127e-08
1.50114e-08
1.50101e-08
1.50087e-08
1.50074e-08
1.5006e-08
1.50047e-08
1.50033e-08
1.5002e-08
1.50006e-08
1.50181e-08
1.50171e-08
1.50163e-08
1.50152e-08
1.5014e-08
1.50127e-08
1.50115e-08
1.50101e-08
1.50088e-08
1.50075e-08
1.50061e-08
1.50048e-08
1.50034e-08
1.50022e-08
1.50195e-08
1.50186e-08
1.50177e-08
1.50165e-08
1.50153e-08
1.50141e-08
1.50128e-08
1.50114e-08
1.50101e-08
1.50087e-08
1.50074e-08
1.5006e-08
1.50047e-08
1.50035e-08
1.50207e-08
1.50199e-08
1.5019e-08
1.50178e-08
1.50167e-08
1.50154e-08
1.50141e-08
1.50128e-08
1.50114e-08
1.501e-08
1.50086e-08
1.50072e-08
1.50058e-08
1.50046e-08
1.50221e-08
1.50213e-08
1.50204e-08
1.50193e-08
1.50181e-08
1.50168e-08
1.50155e-08
1.50141e-08
1.50127e-08
1.50112e-08
1.50098e-08
1.50083e-08
1.50069e-08
1.50056e-08
1.50236e-08
1.50228e-08
1.50218e-08
1.50207e-08
1.50195e-08
1.50182e-08
1.50168e-08
1.50154e-08
1.50139e-08
1.50125e-08
1.5011e-08
1.50095e-08
1.5008e-08
1.50066e-08
1.50251e-08
1.50243e-08
1.50233e-08
1.50222e-08
1.50209e-08
1.50196e-08
1.50181e-08
1.50167e-08
1.50152e-08
1.50137e-08
1.50122e-08
1.50107e-08
1.50092e-08
1.50077e-08
1.50268e-08
1.50259e-08
1.50249e-08
1.50237e-08
1.50224e-08
1.5021e-08
1.50195e-08
1.5018e-08
1.50165e-08
1.5015e-08
1.50135e-08
1.50119e-08
1.50103e-08
1.50088e-08
1.50285e-08
1.50276e-08
1.50265e-08
1.50253e-08
1.50239e-08
1.50224e-08
1.50209e-08
1.50194e-08
1.50178e-08
1.50163e-08
1.50147e-08
1.50131e-08
1.50116e-08
1.501e-08
1.50303e-08
1.50293e-08
1.50281e-08
1.50268e-08
1.50254e-08
1.50239e-08
1.50223e-08
1.50208e-08
1.50192e-08
1.50177e-08
1.50161e-08
1.50145e-08
1.50129e-08
1.50112e-08
1.5032e-08
1.5031e-08
1.50298e-08
1.50285e-08
1.5027e-08
1.50254e-08
1.50238e-08
1.50222e-08
1.50206e-08
1.5019e-08
1.50174e-08
1.50158e-08
1.50142e-08
1.50123e-08
1.50337e-08
1.50327e-08
1.50314e-08
1.50301e-08
1.50285e-08
1.50269e-08
1.50253e-08
1.50237e-08
1.50221e-08
1.50205e-08
1.50188e-08
1.5017e-08
1.50152e-08
1.50132e-08
1.50354e-08
1.50344e-08
1.50331e-08
1.50317e-08
1.50302e-08
1.50286e-08
1.5027e-08
1.50253e-08
1.50237e-08
1.5022e-08
1.50203e-08
1.50184e-08
1.50165e-08
1.50144e-08
1.50228e-08
1.50221e-08
1.50212e-08
1.50199e-08
1.50186e-08
1.50171e-08
1.50155e-08
1.50138e-08
1.50121e-08
1.50103e-08
1.50086e-08
1.50068e-08
1.5005e-08
1.50028e-08
1.50233e-08
1.50224e-08
1.50215e-08
1.50202e-08
1.50187e-08
1.50172e-08
1.50156e-08
1.50139e-08
1.50122e-08
1.50104e-08
1.50087e-08
1.50069e-08
1.50052e-08
1.50034e-08
1.50235e-08
1.50225e-08
1.50215e-08
1.50202e-08
1.50187e-08
1.50172e-08
1.50157e-08
1.5014e-08
1.50124e-08
1.50107e-08
1.5009e-08
1.50072e-08
1.50056e-08
1.50038e-08
1.50237e-08
1.50227e-08
1.50216e-08
1.50202e-08
1.50188e-08
1.50173e-08
1.50157e-08
1.50141e-08
1.50125e-08
1.50108e-08
1.50091e-08
1.50074e-08
1.50057e-08
1.50041e-08
1.50238e-08
1.50228e-08
1.50216e-08
1.50203e-08
1.50189e-08
1.50174e-08
1.50158e-08
1.50142e-08
1.50125e-08
1.50108e-08
1.50091e-08
1.50073e-08
1.50056e-08
1.50039e-08
1.50239e-08
1.50229e-08
1.50217e-08
1.50204e-08
1.50189e-08
1.50174e-08
1.50158e-08
1.50141e-08
1.50124e-08
1.50107e-08
1.5009e-08
1.50072e-08
1.50054e-08
1.50037e-08
1.50242e-08
1.50231e-08
1.50219e-08
1.50205e-08
1.5019e-08
1.50175e-08
1.50158e-08
1.50141e-08
1.50124e-08
1.50106e-08
1.50088e-08
1.5007e-08
1.50052e-08
1.50034e-08
1.50245e-08
1.50233e-08
1.50221e-08
1.50207e-08
1.50191e-08
1.50175e-08
1.50158e-08
1.5014e-08
1.50123e-08
1.50104e-08
1.50086e-08
1.50068e-08
1.50049e-08
1.50031e-08
1.50248e-08
1.50236e-08
1.50223e-08
1.50208e-08
1.50192e-08
1.50175e-08
1.50158e-08
1.5014e-08
1.50121e-08
1.50103e-08
1.50084e-08
1.50065e-08
1.50046e-08
1.50027e-08
1.50253e-08
1.5024e-08
1.50225e-08
1.5021e-08
1.50193e-08
1.50175e-08
1.50157e-08
1.50139e-08
1.5012e-08
1.50101e-08
1.50082e-08
1.50063e-08
1.50043e-08
1.50024e-08
1.50257e-08
1.50243e-08
1.50227e-08
1.50211e-08
1.50193e-08
1.50175e-08
1.50157e-08
1.50138e-08
1.50119e-08
1.50099e-08
1.5008e-08
1.5006e-08
1.50039e-08
1.5002e-08
1.50261e-08
1.50246e-08
1.5023e-08
1.50212e-08
1.50194e-08
1.50175e-08
1.50156e-08
1.50137e-08
1.50117e-08
1.50097e-08
1.50077e-08
1.50057e-08
1.50036e-08
1.50015e-08
1.50263e-08
1.50247e-08
1.50231e-08
1.50213e-08
1.50194e-08
1.50175e-08
1.50155e-08
1.50136e-08
1.50115e-08
1.50095e-08
1.50074e-08
1.50053e-08
1.5003e-08
1.50007e-08
1.50263e-08
1.50248e-08
1.50232e-08
1.50214e-08
1.50195e-08
1.50175e-08
1.50155e-08
1.50135e-08
1.50115e-08
1.50094e-08
1.50072e-08
1.50051e-08
1.50026e-08
1.50003e-08
1.50275e-08
1.50266e-08
1.50256e-08
1.50243e-08
1.50228e-08
1.50211e-08
1.50193e-08
1.50175e-08
1.50155e-08
1.50135e-08
1.50115e-08
1.50092e-08
1.50071e-08
1.50044e-08
1.50267e-08
1.50258e-08
1.50248e-08
1.50233e-08
1.50218e-08
1.50201e-08
1.50183e-08
1.50164e-08
1.50145e-08
1.50125e-08
1.50105e-08
1.50084e-08
1.50063e-08
1.5004e-08
1.50257e-08
1.50248e-08
1.50236e-08
1.50222e-08
1.50206e-08
1.5019e-08
1.50173e-08
1.50154e-08
1.50135e-08
1.50116e-08
1.50096e-08
1.50075e-08
1.50055e-08
1.50034e-08
1.50248e-08
1.50237e-08
1.50225e-08
1.5021e-08
1.50195e-08
1.50178e-08
1.50161e-08
1.50143e-08
1.50124e-08
1.50105e-08
1.50085e-08
1.50065e-08
1.50045e-08
1.50025e-08
1.50237e-08
1.50226e-08
1.50213e-08
1.50199e-08
1.50183e-08
1.50167e-08
1.5015e-08
1.50132e-08
1.50113e-08
1.50094e-08
1.50074e-08
1.50054e-08
1.50034e-08
1.50013e-08
1.50226e-08
1.50215e-08
1.50202e-08
1.50188e-08
1.50172e-08
1.50155e-08
1.50138e-08
1.5012e-08
1.50101e-08
1.50081e-08
1.50062e-08
1.50041e-08
1.50021e-08
1.5e-08
1.50217e-08
1.50205e-08
1.50191e-08
1.50177e-08
1.50161e-08
1.50144e-08
1.50126e-08
1.50107e-08
1.50088e-08
1.50068e-08
1.50049e-08
1.50028e-08
1.50007e-08
1.49986e-08
1.50207e-08
1.50194e-08
1.5018e-08
1.50165e-08
1.50148e-08
1.50131e-08
1.50113e-08
1.50094e-08
1.50075e-08
1.50055e-08
1.50034e-08
1.50014e-08
1.49993e-08
1.49972e-08
1.50199e-08
1.50185e-08
1.5017e-08
1.50154e-08
1.50137e-08
1.50119e-08
1.501e-08
1.50081e-08
1.50061e-08
1.5004e-08
1.50019e-08
1.49998e-08
1.49977e-08
1.49956e-08
1.5019e-08
1.50174e-08
1.50159e-08
1.50142e-08
1.50124e-08
1.50105e-08
1.50086e-08
1.50066e-08
1.50046e-08
1.50025e-08
1.50004e-08
1.49983e-08
1.49961e-08
1.4994e-08
1.50181e-08
1.50164e-08
1.50148e-08
1.5013e-08
1.50111e-08
1.50092e-08
1.50072e-08
1.50052e-08
1.5003e-08
1.50009e-08
1.49987e-08
1.49966e-08
1.49943e-08
1.49923e-08
1.5017e-08
1.50153e-08
1.50135e-08
1.50117e-08
1.50097e-08
1.50078e-08
1.50057e-08
1.50036e-08
1.50015e-08
1.49993e-08
1.49971e-08
1.49949e-08
1.49925e-08
1.49905e-08
1.50158e-08
1.5014e-08
1.50123e-08
1.50104e-08
1.50084e-08
1.50063e-08
1.50042e-08
1.5002e-08
1.49997e-08
1.49975e-08
1.49952e-08
1.49929e-08
1.49904e-08
1.49882e-08
1.50143e-08
1.50126e-08
1.50109e-08
1.50089e-08
1.50068e-08
1.50047e-08
1.50026e-08
1.50004e-08
1.49982e-08
1.49959e-08
1.49935e-08
1.49912e-08
1.49886e-08
1.49863e-08
1.50255e-08
1.50246e-08
1.50235e-08
1.50222e-08
1.50207e-08
1.50191e-08
1.50174e-08
1.50155e-08
1.50135e-08
1.50115e-08
1.50093e-08
1.5007e-08
1.50047e-08
1.50019e-08
1.50237e-08
1.50228e-08
1.50217e-08
1.50203e-08
1.50188e-08
1.50171e-08
1.50154e-08
1.50135e-08
1.50115e-08
1.50095e-08
1.50073e-08
1.50051e-08
1.50028e-08
1.50004e-08
1.50218e-08
1.50209e-08
1.50196e-08
1.50182e-08
1.50166e-08
1.5015e-08
1.50133e-08
1.50115e-08
1.50096e-08
1.50076e-08
1.50055e-08
1.50033e-08
1.50012e-08
1.49988e-08
1.50198e-08
1.50188e-08
1.50175e-08
1.50161e-08
1.50145e-08
1.50129e-08
1.50112e-08
1.50094e-08
1.50075e-08
1.50055e-08
1.50034e-08
1.50013e-08
1.49991e-08
1.4997e-08
1.50178e-08
1.50167e-08
1.50154e-08
1.50139e-08
1.50124e-08
1.50108e-08
1.50091e-08
1.50073e-08
1.50054e-08
1.50034e-08
1.50013e-08
1.49992e-08
1.49971e-08
1.49949e-08
1.50158e-08
1.50146e-08
1.50132e-08
1.50118e-08
1.50102e-08
1.50086e-08
1.50069e-08
1.5005e-08
1.50031e-08
1.50011e-08
1.49991e-08
1.4997e-08
1.49949e-08
1.49927e-08
1.50138e-08
1.50125e-08
1.50111e-08
1.50096e-08
1.50081e-08
1.50064e-08
1.50046e-08
1.50028e-08
1.50008e-08
1.49989e-08
1.49968e-08
1.49947e-08
1.49926e-08
1.49905e-08
1.50117e-08
1.50104e-08
1.50089e-08
1.50074e-08
1.50058e-08
1.5004e-08
1.50023e-08
1.50004e-08
1.49985e-08
1.49965e-08
1.49944e-08
1.49923e-08
1.49902e-08
1.49881e-08
1.50097e-08
1.50083e-08
1.50068e-08
1.50052e-08
1.50035e-08
1.50017e-08
1.49999e-08
1.4998e-08
1.4996e-08
1.4994e-08
1.49919e-08
1.49898e-08
1.49876e-08
1.49856e-08
1.50076e-08
1.5006e-08
1.50045e-08
1.50028e-08
1.5001e-08
1.49992e-08
1.49974e-08
1.49954e-08
1.49934e-08
1.49914e-08
1.49893e-08
1.49872e-08
1.4985e-08
1.4983e-08
1.50056e-08
1.50039e-08
1.50022e-08
1.50005e-08
1.49986e-08
1.49968e-08
1.49948e-08
1.49928e-08
1.49908e-08
1.49887e-08
1.49865e-08
1.49844e-08
1.49822e-08
1.49804e-08
1.50032e-08
1.50014e-08
1.49997e-08
1.49979e-08
1.4996e-08
1.49941e-08
1.49922e-08
1.49902e-08
1.49881e-08
1.4986e-08
1.49838e-08
1.49817e-08
1.49794e-08
1.49776e-08
1.50009e-08
1.49991e-08
1.49973e-08
1.49954e-08
1.49935e-08
1.49915e-08
1.49895e-08
1.49874e-08
1.49852e-08
1.4983e-08
1.49807e-08
1.49786e-08
1.49763e-08
1.49745e-08
1.49981e-08
1.49963e-08
1.49945e-08
1.49926e-08
1.49907e-08
1.49887e-08
1.49867e-08
1.49846e-08
1.49824e-08
1.49803e-08
1.4978e-08
1.49758e-08
1.49735e-08
1.49715e-08
1.50146e-08
1.50138e-08
1.50127e-08
1.50116e-08
1.50103e-08
1.50089e-08
1.50075e-08
1.50059e-08
1.50042e-08
1.50025e-08
1.50006e-08
1.49986e-08
1.49966e-08
1.49941e-08
1.50122e-08
1.50114e-08
1.50103e-08
1.5009e-08
1.50077e-08
1.50063e-08
1.50048e-08
1.50032e-08
1.50015e-08
1.49997e-08
1.49978e-08
1.49958e-08
1.49938e-08
1.49917e-08
1.50096e-08
1.50088e-08
1.50075e-08
1.50063e-08
1.5005e-08
1.50036e-08
1.50021e-08
1.50005e-08
1.49988e-08
1.49971e-08
1.49953e-08
1.49933e-08
1.49914e-08
1.49894e-08
1.50071e-08
1.50061e-08
1.50049e-08
1.50036e-08
1.50022e-08
1.50008e-08
1.49993e-08
1.49977e-08
1.4996e-08
1.49943e-08
1.49924e-08
1.49905e-08
1.49886e-08
1.49867e-08
1.50044e-08
1.50034e-08
1.50021e-08
1.50008e-08
1.49994e-08
1.4998e-08
1.49965e-08
1.49949e-08
1.49932e-08
1.49915e-08
1.49897e-08
1.49878e-08
1.49859e-08
1.4984e-08
1.50018e-08
1.50006e-08
1.49993e-08
1.4998e-08
1.49966e-08
1.49951e-08
1.49936e-08
1.4992e-08
1.49903e-08
1.49886e-08
1.49868e-08
1.49849e-08
1.4983e-08
1.49812e-08
1.49991e-08
1.49979e-08
1.49965e-08
1.49952e-08
1.49937e-08
1.49922e-08
1.49907e-08
1.4989e-08
1.49874e-08
1.49856e-08
1.49838e-08
1.4982e-08
1.49802e-08
1.49783e-08
1.49963e-08
1.4995e-08
1.49936e-08
1.49922e-08
1.49907e-08
1.49892e-08
1.49876e-08
1.4986e-08
1.49843e-08
1.49826e-08
1.49808e-08
1.4979e-08
1.49772e-08
1.49754e-08
1.49935e-08
1.49921e-08
1.49907e-08
1.49892e-08
1.49877e-08
1.49861e-08
1.49845e-08
1.49829e-08
1.49812e-08
1.49795e-08
1.49777e-08
1.49759e-08
1.49742e-08
1.49725e-08
1.49905e-08
1.4989e-08
1.49876e-08
1.49861e-08
1.49846e-08
1.4983e-08
1.49814e-08
1.49797e-08
1.4978e-08
1.49763e-08
1.49745e-08
1.49728e-08
1.4971e-08
1.49694e-08
1.49876e-08
1.4986e-08
1.49846e-08
1.4983e-08
1.49814e-08
1.49798e-08
1.49782e-08
1.49765e-08
1.49747e-08
1.4973e-08
1.49713e-08
1.49696e-08
1.49678e-08
1.49664e-08
1.49844e-08
1.49828e-08
1.49813e-08
1.49797e-08
1.49782e-08
1.49765e-08
1.49749e-08
1.49732e-08
1.49714e-08
1.49697e-08
1.4968e-08
1.49663e-08
1.49646e-08
1.49633e-08
1.49814e-08
1.49797e-08
1.49782e-08
1.49766e-08
1.4975e-08
1.49733e-08
1.49715e-08
1.49698e-08
1.4968e-08
1.49663e-08
1.49645e-08
1.49629e-08
1.49612e-08
1.496e-08
1.49777e-08
1.49762e-08
1.49747e-08
1.49731e-08
1.49715e-08
1.49698e-08
1.49682e-08
1.49665e-08
1.49647e-08
1.4963e-08
1.49613e-08
1.49596e-08
1.49579e-08
1.49566e-08
1.49951e-08
1.49944e-08
1.49934e-08
1.49925e-08
1.49916e-08
1.49906e-08
1.49897e-08
1.49886e-08
1.49875e-08
1.49864e-08
1.49852e-08
1.49839e-08
1.49826e-08
1.49811e-08
1.49924e-08
1.49917e-08
1.49907e-08
1.49898e-08
1.49888e-08
1.49878e-08
1.49867e-08
1.49856e-08
1.49845e-08
1.49832e-08
1.4982e-08
1.49807e-08
1.49794e-08
1.49779e-08
1.49896e-08
1.49889e-08
1.49878e-08
1.49869e-08
1.49859e-08
1.49848e-08
1.49838e-08
1.49827e-08
1.49815e-08
1.49803e-08
1.49791e-08
1.49778e-08
1.49766e-08
1.49751e-08
1.49868e-08
1.4986e-08
1.4985e-08
1.4984e-08
1.49829e-08
1.49819e-08
1.49808e-08
1.49797e-08
1.49785e-08
1.49773e-08
1.4976e-08
1.49747e-08
1.49735e-08
1.49721e-08
1.4984e-08
1.49831e-08
1.4982e-08
1.4981e-08
1.49799e-08
1.49789e-08
1.49778e-08
1.49766e-08
1.49754e-08
1.49742e-08
1.4973e-08
1.49718e-08
1.49705e-08
1.49692e-08
1.49811e-08
1.49801e-08
1.4979e-08
1.4978e-08
1.49769e-08
1.49758e-08
1.49747e-08
1.49735e-08
1.49724e-08
1.49712e-08
1.49699e-08
1.49687e-08
1.49675e-08
1.49662e-08
1.49781e-08
1.49771e-08
1.4976e-08
1.49749e-08
1.49738e-08
1.49727e-08
1.49715e-08
1.49704e-08
1.49692e-08
1.49681e-08
1.49669e-08
1.49657e-08
1.49645e-08
1.49633e-08
1.4975e-08
1.49739e-08
1.49728e-08
1.49717e-08
1.49706e-08
1.49695e-08
1.49684e-08
1.49672e-08
1.49661e-08
1.49649e-08
1.49638e-08
1.49626e-08
1.49614e-08
1.49603e-08
1.4972e-08
1.49708e-08
1.49697e-08
1.49685e-08
1.49674e-08
1.49663e-08
1.49652e-08
1.49641e-08
1.49629e-08
1.49618e-08
1.49607e-08
1.49595e-08
1.49584e-08
1.49575e-08
1.49688e-08
1.49675e-08
1.49664e-08
1.49653e-08
1.49642e-08
1.49631e-08
1.4962e-08
1.49608e-08
1.49597e-08
1.49586e-08
1.49575e-08
1.49564e-08
1.49554e-08
1.49545e-08
1.49657e-08
1.49643e-08
1.49633e-08
1.49621e-08
1.4961e-08
1.49599e-08
1.49587e-08
1.49576e-08
1.49565e-08
1.49554e-08
1.49544e-08
1.49534e-08
1.49524e-08
1.49517e-08
1.49623e-08
1.4961e-08
1.496e-08
1.49588e-08
1.49577e-08
1.49566e-08
1.49555e-08
1.49544e-08
1.49533e-08
1.49522e-08
1.49512e-08
1.49503e-08
1.49493e-08
1.49488e-08
1.49592e-08
1.49579e-08
1.49568e-08
1.49557e-08
1.49545e-08
1.49534e-08
1.49523e-08
1.49512e-08
1.49501e-08
1.4949e-08
1.4948e-08
1.49472e-08
1.49464e-08
1.4946e-08
1.49555e-08
1.49545e-08
1.49534e-08
1.49523e-08
1.49512e-08
1.49501e-08
1.49491e-08
1.4948e-08
1.4947e-08
1.49459e-08
1.49449e-08
1.49441e-08
1.49433e-08
1.4943e-08
1.4969e-08
1.49684e-08
1.49676e-08
1.49671e-08
1.49666e-08
1.49662e-08
1.49658e-08
1.49654e-08
1.4965e-08
1.49646e-08
1.49643e-08
1.49639e-08
1.49635e-08
1.49631e-08
1.49664e-08
1.49659e-08
1.49652e-08
1.49646e-08
1.49641e-08
1.49636e-08
1.49631e-08
1.49627e-08
1.49622e-08
1.49618e-08
1.49613e-08
1.49609e-08
1.49605e-08
1.49599e-08
1.49637e-08
1.49632e-08
1.49625e-08
1.49619e-08
1.49614e-08
1.49609e-08
1.49604e-08
1.49599e-08
1.49595e-08
1.4959e-08
1.49586e-08
1.49581e-08
1.49577e-08
1.49571e-08
1.49611e-08
1.49606e-08
1.49599e-08
1.49593e-08
1.49587e-08
1.49582e-08
1.49577e-08
1.49572e-08
1.49567e-08
1.49562e-08
1.49557e-08
1.49553e-08
1.49549e-08
1.49543e-08
1.49584e-08
1.49579e-08
1.49572e-08
1.49566e-08
1.4956e-08
1.49555e-08
1.49549e-08
1.49544e-08
1.49539e-08
1.49535e-08
1.4953e-08
1.49526e-08
1.49521e-08
1.49516e-08
1.49557e-08
1.49551e-08
1.49544e-08
1.49538e-08
1.49533e-08
1.49527e-08
1.49522e-08
1.49517e-08
1.49512e-08
1.49507e-08
1.49503e-08
1.49499e-08
1.49495e-08
1.4949e-08
1.49531e-08
1.49524e-08
1.49517e-08
1.49511e-08
1.49505e-08
1.495e-08
1.49494e-08
1.49489e-08
1.49485e-08
1.4948e-08
1.49476e-08
1.49473e-08
1.49469e-08
1.49465e-08
1.49503e-08
1.49496e-08
1.49489e-08
1.49483e-08
1.49477e-08
1.49472e-08
1.49467e-08
1.49462e-08
1.49458e-08
1.49454e-08
1.4945e-08
1.49447e-08
1.49443e-08
1.4944e-08
1.49476e-08
1.49468e-08
1.49462e-08
1.49456e-08
1.4945e-08
1.49445e-08
1.4944e-08
1.49435e-08
1.49431e-08
1.49428e-08
1.49424e-08
1.49421e-08
1.49418e-08
1.49417e-08
1.49448e-08
1.4944e-08
1.49434e-08
1.49428e-08
1.49423e-08
1.49418e-08
1.49413e-08
1.49409e-08
1.49405e-08
1.49402e-08
1.49399e-08
1.49396e-08
1.49393e-08
1.49393e-08
1.49422e-08
1.49413e-08
1.49407e-08
1.49401e-08
1.49396e-08
1.49391e-08
1.49387e-08
1.49383e-08
1.49379e-08
1.49376e-08
1.49374e-08
1.49372e-08
1.4937e-08
1.49371e-08
1.49393e-08
1.49385e-08
1.4938e-08
1.49375e-08
1.4937e-08
1.49365e-08
1.49361e-08
1.49357e-08
1.49354e-08
1.49351e-08
1.49349e-08
1.49348e-08
1.49346e-08
1.49348e-08
1.49368e-08
1.4936e-08
1.49355e-08
1.49349e-08
1.49344e-08
1.4934e-08
1.49336e-08
1.49332e-08
1.49329e-08
1.49327e-08
1.49325e-08
1.49325e-08
1.49325e-08
1.49327e-08
1.49339e-08
1.49332e-08
1.49327e-08
1.49323e-08
1.49318e-08
1.49314e-08
1.49311e-08
1.49308e-08
1.49306e-08
1.49304e-08
1.49302e-08
1.49302e-08
1.49302e-08
1.49303e-08
1.49385e-08
1.49382e-08
1.49379e-08
1.49378e-08
1.49379e-08
1.49379e-08
1.49381e-08
1.49383e-08
1.49385e-08
1.49389e-08
1.49393e-08
1.49397e-08
1.49403e-08
1.49408e-08
1.49362e-08
1.49362e-08
1.4936e-08
1.49359e-08
1.49359e-08
1.49359e-08
1.4936e-08
1.49362e-08
1.49364e-08
1.49367e-08
1.49371e-08
1.49374e-08
1.49379e-08
1.49382e-08
1.49341e-08
1.49342e-08
1.4934e-08
1.49339e-08
1.49338e-08
1.49339e-08
1.4934e-08
1.49341e-08
1.49344e-08
1.49346e-08
1.4935e-08
1.49353e-08
1.49358e-08
1.4936e-08
1.49321e-08
1.49321e-08
1.49319e-08
1.49319e-08
1.49318e-08
1.49318e-08
1.49319e-08
1.49321e-08
1.49323e-08
1.49326e-08
1.49329e-08
1.49332e-08
1.49336e-08
1.49338e-08
1.49302e-08
1.49301e-08
1.49299e-08
1.49298e-08
1.49298e-08
1.49298e-08
1.49299e-08
1.49301e-08
1.49303e-08
1.49306e-08
1.49309e-08
1.49312e-08
1.49316e-08
1.49319e-08
1.49282e-08
1.49281e-08
1.49279e-08
1.49278e-08
1.49278e-08
1.49278e-08
1.49279e-08
1.49281e-08
1.49283e-08
1.49286e-08
1.49289e-08
1.49293e-08
1.49297e-08
1.493e-08
1.49263e-08
1.49261e-08
1.4926e-08
1.49259e-08
1.49258e-08
1.49259e-08
1.4926e-08
1.49262e-08
1.49264e-08
1.49267e-08
1.4927e-08
1.49274e-08
1.49278e-08
1.49282e-08
1.49243e-08
1.49241e-08
1.4924e-08
1.4924e-08
1.49239e-08
1.4924e-08
1.49241e-08
1.49243e-08
1.49245e-08
1.49249e-08
1.49252e-08
1.49256e-08
1.4926e-08
1.49265e-08
1.49224e-08
1.49222e-08
1.49221e-08
1.49221e-08
1.49221e-08
1.49222e-08
1.49223e-08
1.49225e-08
1.49228e-08
1.49231e-08
1.49235e-08
1.49239e-08
1.49244e-08
1.49249e-08
1.49206e-08
1.49203e-08
1.49203e-08
1.49203e-08
1.49203e-08
1.49204e-08
1.49205e-08
1.49208e-08
1.49211e-08
1.49214e-08
1.49218e-08
1.49223e-08
1.49228e-08
1.49234e-08
1.49188e-08
1.49185e-08
1.49185e-08
1.49185e-08
1.49186e-08
1.49187e-08
1.49189e-08
1.49191e-08
1.49194e-08
1.49198e-08
1.49203e-08
1.49208e-08
1.49213e-08
1.4922e-08
1.4917e-08
1.49167e-08
1.49168e-08
1.49168e-08
1.49169e-08
1.4917e-08
1.49173e-08
1.49176e-08
1.49179e-08
1.49183e-08
1.49188e-08
1.49194e-08
1.49199e-08
1.49206e-08
1.49154e-08
1.49151e-08
1.49152e-08
1.49152e-08
1.49153e-08
1.49155e-08
1.49157e-08
1.49161e-08
1.49164e-08
1.49169e-08
1.49174e-08
1.4918e-08
1.49187e-08
1.49194e-08
1.49136e-08
1.49134e-08
1.49135e-08
1.49136e-08
1.49138e-08
1.4914e-08
1.49143e-08
1.49146e-08
1.49151e-08
1.49155e-08
1.49161e-08
1.49167e-08
1.49173e-08
1.49181e-08
1.49054e-08
1.49056e-08
1.49058e-08
1.49062e-08
1.49067e-08
1.49072e-08
1.49078e-08
1.49084e-08
1.49092e-08
1.491e-08
1.49108e-08
1.49118e-08
1.49128e-08
1.49139e-08
1.49041e-08
1.49044e-08
1.49047e-08
1.49051e-08
1.49055e-08
1.49061e-08
1.49067e-08
1.49073e-08
1.49081e-08
1.49089e-08
1.49097e-08
1.49106e-08
1.49116e-08
1.49124e-08
1.49029e-08
1.49033e-08
1.49035e-08
1.4904e-08
1.49044e-08
1.49049e-08
1.49055e-08
1.49062e-08
1.49069e-08
1.49078e-08
1.49086e-08
1.49095e-08
1.49105e-08
1.49113e-08
1.49018e-08
1.49022e-08
1.49025e-08
1.49029e-08
1.49033e-08
1.49038e-08
1.49044e-08
1.49051e-08
1.49058e-08
1.49067e-08
1.49075e-08
1.49084e-08
1.49093e-08
1.49102e-08
1.49008e-08
1.49011e-08
1.49014e-08
1.49018e-08
1.49022e-08
1.49027e-08
1.49033e-08
1.4904e-08
1.49048e-08
1.49056e-08
1.49065e-08
1.49074e-08
1.49083e-08
1.49092e-08
1.48998e-08
1.49001e-08
1.49004e-08
1.49008e-08
1.49012e-08
1.49017e-08
1.49023e-08
1.4903e-08
1.49038e-08
1.49046e-08
1.49054e-08
1.49064e-08
1.49073e-08
1.49082e-08
1.48988e-08
1.48991e-08
1.48994e-08
1.48998e-08
1.49003e-08
1.49008e-08
1.49014e-08
1.49021e-08
1.49028e-08
1.49036e-08
1.49045e-08
1.49054e-08
1.49063e-08
1.49073e-08
1.48979e-08
1.48982e-08
1.48985e-08
1.48989e-08
1.48994e-08
1.48999e-08
1.49005e-08
1.49012e-08
1.49019e-08
1.49028e-08
1.49036e-08
1.49045e-08
1.49054e-08
1.49064e-08
1.4897e-08
1.48973e-08
1.48977e-08
1.48981e-08
1.48986e-08
1.48991e-08
1.48997e-08
1.49004e-08
1.49012e-08
1.4902e-08
1.49028e-08
1.49038e-08
1.49047e-08
1.49056e-08
1.48962e-08
1.48965e-08
1.48969e-08
1.48973e-08
1.48978e-08
1.48984e-08
1.4899e-08
1.48997e-08
1.49004e-08
1.49013e-08
1.49021e-08
1.49031e-08
1.4904e-08
1.4905e-08
1.48955e-08
1.48957e-08
1.48961e-08
1.48966e-08
1.48971e-08
1.48977e-08
1.48983e-08
1.4899e-08
1.48998e-08
1.49006e-08
1.49015e-08
1.49024e-08
1.49034e-08
1.49044e-08
1.48947e-08
1.4895e-08
1.48955e-08
1.48959e-08
1.48965e-08
1.48971e-08
1.48977e-08
1.48985e-08
1.48992e-08
1.49001e-08
1.49009e-08
1.49019e-08
1.49028e-08
1.49038e-08
1.48941e-08
1.48944e-08
1.48949e-08
1.48953e-08
1.48959e-08
1.48965e-08
1.48972e-08
1.4898e-08
1.48988e-08
1.48996e-08
1.49005e-08
1.49015e-08
1.49024e-08
1.49035e-08
1.48934e-08
1.48937e-08
1.48942e-08
1.48948e-08
1.48953e-08
1.4896e-08
1.48967e-08
1.48975e-08
1.48983e-08
1.48992e-08
1.49001e-08
1.4901e-08
1.4902e-08
1.49031e-08
1.4871e-08
1.48716e-08
1.48722e-08
1.48729e-08
1.48736e-08
1.48744e-08
1.48752e-08
1.48761e-08
1.4877e-08
1.4878e-08
1.4879e-08
1.48801e-08
1.48812e-08
1.48824e-08
1.48706e-08
1.48713e-08
1.4872e-08
1.48727e-08
1.48734e-08
1.48742e-08
1.48751e-08
1.48759e-08
1.48769e-08
1.48779e-08
1.48789e-08
1.488e-08
1.48811e-08
1.48822e-08
1.48704e-08
1.48711e-08
1.48718e-08
1.48725e-08
1.48732e-08
1.4874e-08
1.48749e-08
1.48758e-08
1.48767e-08
1.48777e-08
1.48788e-08
1.48799e-08
1.48811e-08
1.48821e-08
1.48703e-08
1.4871e-08
1.48716e-08
1.48723e-08
1.48731e-08
1.48739e-08
1.48747e-08
1.48757e-08
1.48766e-08
1.48776e-08
1.48787e-08
1.48798e-08
1.48809e-08
1.4882e-08
1.48702e-08
1.48709e-08
1.48715e-08
1.48722e-08
1.4873e-08
1.48738e-08
1.48746e-08
1.48755e-08
1.48765e-08
1.48775e-08
1.48786e-08
1.48797e-08
1.48808e-08
1.48819e-08
1.48701e-08
1.48708e-08
1.48714e-08
1.48721e-08
1.48729e-08
1.48737e-08
1.48746e-08
1.48755e-08
1.48765e-08
1.48775e-08
1.48785e-08
1.48797e-08
1.48808e-08
1.48819e-08
1.48701e-08
1.48707e-08
1.48714e-08
1.48721e-08
1.48729e-08
1.48737e-08
1.48745e-08
1.48755e-08
1.48764e-08
1.48774e-08
1.48785e-08
1.48796e-08
1.48807e-08
1.48818e-08
1.48701e-08
1.48707e-08
1.48714e-08
1.48721e-08
1.48729e-08
1.48737e-08
1.48746e-08
1.48755e-08
1.48764e-08
1.48775e-08
1.48785e-08
1.48796e-08
1.48806e-08
1.48817e-08
1.48702e-08
1.48708e-08
1.48715e-08
1.48722e-08
1.48729e-08
1.48738e-08
1.48746e-08
1.48756e-08
1.48765e-08
1.48775e-08
1.48785e-08
1.48796e-08
1.48806e-08
1.48817e-08
1.48702e-08
1.48709e-08
1.48716e-08
1.48723e-08
1.48731e-08
1.48739e-08
1.48748e-08
1.48757e-08
1.48766e-08
1.48776e-08
1.48786e-08
1.48797e-08
1.48807e-08
1.48817e-08
1.48704e-08
1.4871e-08
1.48717e-08
1.48724e-08
1.48732e-08
1.48741e-08
1.48749e-08
1.48759e-08
1.48768e-08
1.48778e-08
1.48788e-08
1.48798e-08
1.48808e-08
1.48818e-08
1.48705e-08
1.48712e-08
1.48719e-08
1.48726e-08
1.48734e-08
1.48743e-08
1.48751e-08
1.48761e-08
1.4877e-08
1.4878e-08
1.4879e-08
1.488e-08
1.4881e-08
1.4882e-08
1.48708e-08
1.48714e-08
1.48721e-08
1.48729e-08
1.48737e-08
1.48745e-08
1.48754e-08
1.48763e-08
1.48773e-08
1.48783e-08
1.48792e-08
1.48803e-08
1.48813e-08
1.48823e-08
1.48709e-08
1.48716e-08
1.48723e-08
1.48731e-08
1.48739e-08
1.48748e-08