/*--------------------------------*- C++ -*----------------------------------*\
| =========                 |                                                 |
| \\      /  F ield         | OpenFOAM: The Open Source CFD Toolbox           |
|  \\    /   O peration     | Version:  v2106                                 |
|   \\  /    A nd           | Website:  www.openfoam.com                      |
|    \\/     M anipulation  |                                                 |
\*---------------------------------------------------------------------------*/
FoamFile
{
    version     2.0;
    format      ascii;
    arch        "LSB;label=32;scalar=64";
    class       volScalarField;
    location    "0.00018";
    object      nut;
}
// * * * * * * * * * * * * * * * * * * * * * * * * * * * * * * * * * * * * * //

dimensions      [0 2 -1 0 0 0 0];

internalField   nonuniform List<scalar> 
17924
(
3.62033e-17
3.61923e-17
3.61908e-17
3.61914e-17
3.61774e-17
3.61759e-17
3.61759e-17
3.6176e-17
3.61763e-17
3.61768e-17
3.61774e-17
3.61845e-17
3.61818e-17
3.61815e-17
3.61814e-17
3.61816e-17
3.6182e-17
3.61826e-17
3.61925e-17
3.61876e-17
3.61868e-17
3.61868e-17
3.61871e-17
3.61876e-17
3.61882e-17
3.62014e-17
3.61937e-17
3.61923e-17
3.61922e-17
3.61926e-17
3.61933e-17
3.6194e-17
3.62095e-17
3.61994e-17
3.61976e-17
3.61977e-17
3.61982e-17
3.61989e-17
3.61997e-17
3.62163e-17
3.6205e-17
3.6203e-17
3.62032e-17
3.62039e-17
3.62047e-17
3.62055e-17
3.62219e-17
3.62101e-17
3.62083e-17
3.62087e-17
3.62095e-17
3.62104e-17
3.62113e-17
3.62268e-17
3.62152e-17
3.62137e-17
3.62143e-17
3.62152e-17
3.62162e-17
3.62171e-17
3.62311e-17
3.62201e-17
3.6219e-17
3.62198e-17
3.62208e-17
3.62218e-17
3.62229e-17
3.62351e-17
3.62252e-17
3.62244e-17
3.62253e-17
3.62264e-17
3.62275e-17
3.62286e-17
3.62386e-17
3.62302e-17
3.62297e-17
3.62308e-17
3.6232e-17
3.62332e-17
3.62344e-17
3.62418e-17
3.62353e-17
3.62353e-17
3.62365e-17
3.62378e-17
3.6239e-17
3.62403e-17
3.62445e-17
3.62401e-17
3.62408e-17
3.62424e-17
3.6244e-17
3.62455e-17
3.62469e-17
3.62484e-17
3.62457e-17
3.62475e-17
3.62503e-17
3.62534e-17
3.62558e-17
3.62573e-17
3.61738e-17
3.61732e-17
3.61729e-17
3.61725e-17
3.6172e-17
3.61715e-17
3.61711e-17
3.61708e-17
3.61707e-17
3.61706e-17
3.61706e-17
3.61707e-17
3.61707e-17
3.61708e-17
3.61784e-17
3.61776e-17
3.61773e-17
3.61767e-17
3.61763e-17
3.61758e-17
3.61754e-17
3.61751e-17
3.61749e-17
3.61748e-17
3.61748e-17
3.61749e-17
3.61748e-17
3.61753e-17
3.61826e-17
3.61815e-17
3.61812e-17
3.61808e-17
3.61804e-17
3.61801e-17
3.61798e-17
3.61795e-17
3.61792e-17
3.61791e-17
3.61789e-17
3.6179e-17
3.61789e-17
3.61794e-17
3.61868e-17
3.61855e-17
3.61853e-17
3.61849e-17
3.61846e-17
3.61843e-17
3.61841e-17
3.61838e-17
3.61835e-17
3.61833e-17
3.61831e-17
3.61831e-17
3.6183e-17
3.61834e-17
3.61905e-17
3.61893e-17
3.61891e-17
3.61889e-17
3.61887e-17
3.61885e-17
3.61883e-17
3.61881e-17
3.61878e-17
3.61876e-17
3.61873e-17
3.61872e-17
3.6187e-17
3.61872e-17
3.61943e-17
3.61933e-17
3.61931e-17
3.6193e-17
3.61929e-17
3.61927e-17
3.61925e-17
3.61923e-17
3.61921e-17
3.61919e-17
3.61916e-17
3.61914e-17
3.61911e-17
3.61912e-17
3.6198e-17
3.61971e-17
3.6197e-17
3.6197e-17
3.6197e-17
3.61969e-17
3.61967e-17
3.61965e-17
3.61963e-17
3.61961e-17
3.61959e-17
3.61956e-17
3.61954e-17
3.61952e-17
3.62017e-17
3.6201e-17
3.6201e-17
3.62011e-17
3.62011e-17
3.6201e-17
3.62009e-17
3.62008e-17
3.62006e-17
3.62004e-17
3.62002e-17
3.61999e-17
3.61997e-17
3.61995e-17
3.62054e-17
3.62049e-17
3.62051e-17
3.62052e-17
3.62053e-17
3.62053e-17
3.62052e-17
3.6205e-17
3.62049e-17
3.62047e-17
3.62045e-17
3.62042e-17
3.62041e-17
3.62038e-17
3.62094e-17
3.6209e-17
3.62092e-17
3.62094e-17
3.62095e-17
3.62095e-17
3.62094e-17
3.62093e-17
3.62092e-17
3.6209e-17
3.62089e-17
3.62087e-17
3.62087e-17
3.62085e-17
3.62135e-17
3.62132e-17
3.62134e-17
3.62136e-17
3.62138e-17
3.62138e-17
3.62138e-17
3.62137e-17
3.62136e-17
3.62135e-17
3.62134e-17
3.62133e-17
3.62134e-17
3.62131e-17
3.62176e-17
3.62175e-17
3.62177e-17
3.6218e-17
3.62181e-17
3.62182e-17
3.62182e-17
3.62181e-17
3.62181e-17
3.6218e-17
3.62181e-17
3.62181e-17
3.62183e-17
3.62179e-17
3.62215e-17
3.62216e-17
3.6222e-17
3.62224e-17
3.62225e-17
3.62226e-17
3.62227e-17
3.62227e-17
3.62227e-17
3.62227e-17
3.62227e-17
3.62228e-17
3.62227e-17
3.62223e-17
3.62254e-17
3.62258e-17
3.62265e-17
3.6227e-17
3.62273e-17
3.62275e-17
3.62276e-17
3.62275e-17
3.62275e-17
3.62274e-17
3.62273e-17
3.62274e-17
3.62272e-17
3.6227e-17
3.61751e-17
3.61746e-17
3.61741e-17
3.61733e-17
3.61724e-17
3.61715e-17
3.61706e-17
3.61696e-17
3.61687e-17
3.61679e-17
3.61671e-17
3.61663e-17
3.61654e-17
3.61644e-17
3.61783e-17
3.61775e-17
3.6177e-17
3.6176e-17
3.61752e-17
3.61742e-17
3.61733e-17
3.61723e-17
3.61714e-17
3.61706e-17
3.61698e-17
3.6169e-17
3.61681e-17
3.61676e-17
3.61808e-17
3.618e-17
3.61794e-17
3.61786e-17
3.61777e-17
3.61768e-17
3.6176e-17
3.61751e-17
3.61742e-17
3.61733e-17
3.61724e-17
3.61716e-17
3.61707e-17
3.61703e-17
3.61834e-17
3.61825e-17
3.6182e-17
3.61811e-17
3.61803e-17
3.61795e-17
3.61786e-17
3.61777e-17
3.61768e-17
3.61758e-17
3.61749e-17
3.61741e-17
3.61732e-17
3.61727e-17
3.61856e-17
3.61849e-17
3.61844e-17
3.61836e-17
3.61829e-17
3.61821e-17
3.61812e-17
3.61803e-17
3.61794e-17
3.61784e-17
3.61775e-17
3.61766e-17
3.61756e-17
3.6175e-17
3.6188e-17
3.61874e-17
3.61869e-17
3.61862e-17
3.61855e-17
3.61847e-17
3.61838e-17
3.61829e-17
3.6182e-17
3.6181e-17
3.61801e-17
3.61791e-17
3.61781e-17
3.61773e-17
3.61904e-17
3.619e-17
3.61895e-17
3.61888e-17
3.61881e-17
3.61873e-17
3.61864e-17
3.61855e-17
3.61845e-17
3.61836e-17
3.61826e-17
3.61816e-17
3.61806e-17
3.61797e-17
3.6193e-17
3.61926e-17
3.61921e-17
3.61915e-17
3.61907e-17
3.61899e-17
3.6189e-17
3.61881e-17
3.61871e-17
3.61861e-17
3.61851e-17
3.61841e-17
3.61831e-17
3.61822e-17
3.61956e-17
3.61952e-17
3.61947e-17
3.61941e-17
3.61934e-17
3.61925e-17
3.61916e-17
3.61907e-17
3.61897e-17
3.61887e-17
3.61878e-17
3.61867e-17
3.61857e-17
3.61847e-17
3.61984e-17
3.6198e-17
3.61975e-17
3.61969e-17
3.61961e-17
3.61953e-17
3.61943e-17
3.61934e-17
3.61924e-17
3.61914e-17
3.61904e-17
3.61893e-17
3.61885e-17
3.61874e-17
3.62013e-17
3.62009e-17
3.62003e-17
3.61997e-17
3.61989e-17
3.6198e-17
3.61971e-17
3.61962e-17
3.61952e-17
3.61942e-17
3.61932e-17
3.61922e-17
3.61914e-17
3.61902e-17
3.62043e-17
3.62039e-17
3.62032e-17
3.62026e-17
3.62018e-17
3.62009e-17
3.62e-17
3.6199e-17
3.61981e-17
3.61971e-17
3.61962e-17
3.61951e-17
3.61944e-17
3.61932e-17
3.62071e-17
3.62068e-17
3.62062e-17
3.62056e-17
3.62047e-17
3.62038e-17
3.62029e-17
3.62019e-17
3.6201e-17
3.62e-17
3.61991e-17
3.61981e-17
3.61972e-17
3.61959e-17
3.621e-17
3.62096e-17
3.62092e-17
3.62085e-17
3.62078e-17
3.62069e-17
3.6206e-17
3.6205e-17
3.62041e-17
3.62031e-17
3.62021e-17
3.62011e-17
3.62e-17
3.61989e-17
3.6177e-17
3.61763e-17
3.61756e-17
3.61746e-17
3.61735e-17
3.61723e-17
3.6171e-17
3.61697e-17
3.61684e-17
3.61671e-17
3.61658e-17
3.61645e-17
3.61631e-17
3.61615e-17
3.61786e-17
3.61778e-17
3.61771e-17
3.6176e-17
3.61748e-17
3.61736e-17
3.61723e-17
3.6171e-17
3.61697e-17
3.61683e-17
3.61671e-17
3.61657e-17
3.61644e-17
3.61631e-17
3.61799e-17
3.61789e-17
3.61782e-17
3.61771e-17
3.6176e-17
3.61748e-17
3.61735e-17
3.61723e-17
3.6171e-17
3.61697e-17
3.61684e-17
3.61671e-17
3.61658e-17
3.61646e-17
3.61812e-17
3.61802e-17
3.61794e-17
3.61783e-17
3.61772e-17
3.6176e-17
3.61747e-17
3.61734e-17
3.61722e-17
3.61708e-17
3.61695e-17
3.61682e-17
3.61669e-17
3.61658e-17
3.61822e-17
3.61814e-17
3.61806e-17
3.61795e-17
3.61784e-17
3.61772e-17
3.61759e-17
3.61746e-17
3.61733e-17
3.61719e-17
3.61706e-17
3.61692e-17
3.61679e-17
3.61667e-17
3.61835e-17
3.61827e-17
3.61818e-17
3.61807e-17
3.61796e-17
3.61784e-17
3.61771e-17
3.61758e-17
3.61744e-17
3.6173e-17
3.61717e-17
3.61703e-17
3.61689e-17
3.61676e-17
3.61848e-17
3.6184e-17
3.61831e-17
3.6182e-17
3.61809e-17
3.61796e-17
3.61783e-17
3.61769e-17
3.61756e-17
3.61741e-17
3.61727e-17
3.61713e-17
3.61699e-17
3.61685e-17
3.61862e-17
3.61854e-17
3.61845e-17
3.61834e-17
3.61821e-17
3.61809e-17
3.61795e-17
3.61781e-17
3.61767e-17
3.61752e-17
3.61738e-17
3.61723e-17
3.61708e-17
3.61694e-17
3.61877e-17
3.61868e-17
3.61859e-17
3.61847e-17
3.61834e-17
3.61821e-17
3.61807e-17
3.61793e-17
3.61778e-17
3.61764e-17
3.61749e-17
3.61734e-17
3.61719e-17
3.61704e-17
3.61893e-17
3.61884e-17
3.61873e-17
3.61862e-17
3.61848e-17
3.61834e-17
3.6182e-17
3.61805e-17
3.6179e-17
3.61775e-17
3.6176e-17
3.61745e-17
3.6173e-17
3.61714e-17
3.61908e-17
3.61899e-17
3.61887e-17
3.61875e-17
3.61861e-17
3.61847e-17
3.61832e-17
3.61817e-17
3.61802e-17
3.61787e-17
3.61772e-17
3.61757e-17
3.61742e-17
3.61725e-17
3.61924e-17
3.61914e-17
3.61902e-17
3.6189e-17
3.61876e-17
3.61861e-17
3.61846e-17
3.6183e-17
3.61815e-17
3.61799e-17
3.61784e-17
3.61768e-17
3.61753e-17
3.61735e-17
3.61939e-17
3.61929e-17
3.61917e-17
3.61904e-17
3.61889e-17
3.61874e-17
3.61859e-17
3.61844e-17
3.61828e-17
3.61812e-17
3.61796e-17
3.61779e-17
3.61762e-17
3.61743e-17
3.61954e-17
3.61944e-17
3.61932e-17
3.61919e-17
3.61904e-17
3.61889e-17
3.61874e-17
3.61858e-17
3.61842e-17
3.61826e-17
3.61809e-17
3.61791e-17
3.61773e-17
3.61753e-17
3.61776e-17
3.61769e-17
3.6176e-17
3.61749e-17
3.61736e-17
3.61722e-17
3.61707e-17
3.6169e-17
3.61674e-17
3.61657e-17
3.61641e-17
3.61624e-17
3.61607e-17
3.61585e-17
3.6178e-17
3.61771e-17
3.61763e-17
3.6175e-17
3.61737e-17
3.61722e-17
3.61707e-17
3.61691e-17
3.61674e-17
3.61658e-17
3.61642e-17
3.61625e-17
3.61608e-17
3.6159e-17
3.61781e-17
3.61772e-17
3.61763e-17
3.6175e-17
3.61736e-17
3.61722e-17
3.61707e-17
3.61692e-17
3.61676e-17
3.61659e-17
3.61644e-17
3.61627e-17
3.61611e-17
3.61594e-17
3.61783e-17
3.61773e-17
3.61763e-17
3.6175e-17
3.61736e-17
3.61722e-17
3.61707e-17
3.61692e-17
3.61676e-17
3.6166e-17
3.61644e-17
3.61627e-17
3.61612e-17
3.61596e-17
3.61783e-17
3.61773e-17
3.61763e-17
3.6175e-17
3.61736e-17
3.61722e-17
3.61707e-17
3.61692e-17
3.61676e-17
3.61659e-17
3.61643e-17
3.61626e-17
3.6161e-17
3.61594e-17
3.61783e-17
3.61774e-17
3.61763e-17
3.6175e-17
3.61736e-17
3.61722e-17
3.61707e-17
3.61691e-17
3.61675e-17
3.61658e-17
3.61642e-17
3.61624e-17
3.61608e-17
3.61591e-17
3.61785e-17
3.61775e-17
3.61764e-17
3.61751e-17
3.61737e-17
3.61722e-17
3.61706e-17
3.6169e-17
3.61673e-17
3.61656e-17
3.6164e-17
3.61622e-17
3.61605e-17
3.61588e-17
3.61787e-17
3.61777e-17
3.61765e-17
3.61751e-17
3.61737e-17
3.61721e-17
3.61705e-17
3.61689e-17
3.61672e-17
3.61654e-17
3.61637e-17
3.61619e-17
3.61602e-17
3.61584e-17
3.6179e-17
3.61779e-17
3.61766e-17
3.61752e-17
3.61737e-17
3.61721e-17
3.61704e-17
3.61687e-17
3.6167e-17
3.61652e-17
3.61634e-17
3.61616e-17
3.61598e-17
3.6158e-17
3.61794e-17
3.61781e-17
3.61767e-17
3.61753e-17
3.61737e-17
3.6172e-17
3.61703e-17
3.61686e-17
3.61668e-17
3.6165e-17
3.61632e-17
3.61613e-17
3.61594e-17
3.61576e-17
3.61797e-17
3.61784e-17
3.61769e-17
3.61753e-17
3.61737e-17
3.6172e-17
3.61702e-17
3.61684e-17
3.61666e-17
3.61647e-17
3.61629e-17
3.6161e-17
3.6159e-17
3.61572e-17
3.618e-17
3.61786e-17
3.6177e-17
3.61754e-17
3.61737e-17
3.61719e-17
3.61701e-17
3.61682e-17
3.61663e-17
3.61644e-17
3.61625e-17
3.61606e-17
3.61586e-17
3.61567e-17
3.61801e-17
3.61786e-17
3.61771e-17
3.61754e-17
3.61736e-17
3.61718e-17
3.61699e-17
3.61681e-17
3.61661e-17
3.61642e-17
3.61622e-17
3.61602e-17
3.6158e-17
3.61558e-17
3.618e-17
3.61786e-17
3.61771e-17
3.61754e-17
3.61736e-17
3.61717e-17
3.61698e-17
3.61679e-17
3.6166e-17
3.6164e-17
3.6162e-17
3.61599e-17
3.61575e-17
3.61553e-17
3.61752e-17
3.61744e-17
3.61735e-17
3.61722e-17
3.61708e-17
3.61693e-17
3.61676e-17
3.61658e-17
3.6164e-17
3.6162e-17
3.61601e-17
3.6158e-17
3.6156e-17
3.61535e-17
3.61745e-17
3.61736e-17
3.61726e-17
3.61713e-17
3.61698e-17
3.61682e-17
3.61666e-17
3.61648e-17
3.6163e-17
3.61611e-17
3.61592e-17
3.61572e-17
3.61552e-17
3.61531e-17
3.61735e-17
3.61726e-17
3.61715e-17
3.61701e-17
3.61687e-17
3.61671e-17
3.61655e-17
3.61638e-17
3.6162e-17
3.61602e-17
3.61583e-17
3.61564e-17
3.61545e-17
3.61524e-17
3.61725e-17
3.61716e-17
3.61704e-17
3.6169e-17
3.61676e-17
3.6166e-17
3.61644e-17
3.61627e-17
3.61609e-17
3.61591e-17
3.61573e-17
3.61553e-17
3.61535e-17
3.61516e-17
3.61714e-17
3.61705e-17
3.61693e-17
3.61679e-17
3.61665e-17
3.61649e-17
3.61633e-17
3.61616e-17
3.61598e-17
3.6158e-17
3.61561e-17
3.61542e-17
3.61523e-17
3.61504e-17
3.61704e-17
3.61694e-17
3.61682e-17
3.61668e-17
3.61653e-17
3.61638e-17
3.61621e-17
3.61604e-17
3.61586e-17
3.61568e-17
3.61549e-17
3.6153e-17
3.61511e-17
3.61491e-17
3.61695e-17
3.61684e-17
3.61671e-17
3.61657e-17
3.61642e-17
3.61626e-17
3.61609e-17
3.61592e-17
3.61574e-17
3.61555e-17
3.61536e-17
3.61517e-17
3.61497e-17
3.61478e-17
3.61685e-17
3.61673e-17
3.6166e-17
3.61646e-17
3.6163e-17
3.61614e-17
3.61597e-17
3.61579e-17
3.61561e-17
3.61542e-17
3.61523e-17
3.61503e-17
3.61483e-17
3.61463e-17
3.61677e-17
3.61664e-17
3.6165e-17
3.61635e-17
3.61618e-17
3.61601e-17
3.61584e-17
3.61566e-17
3.61547e-17
3.61528e-17
3.61508e-17
3.61488e-17
3.61468e-17
3.61448e-17
3.61668e-17
3.61653e-17
3.61638e-17
3.61623e-17
3.61606e-17
3.61588e-17
3.6157e-17
3.61552e-17
3.61532e-17
3.61513e-17
3.61493e-17
3.61473e-17
3.61452e-17
3.61432e-17
3.61659e-17
3.61643e-17
3.61628e-17
3.61611e-17
3.61593e-17
3.61575e-17
3.61556e-17
3.61537e-17
3.61517e-17
3.61497e-17
3.61476e-17
3.61456e-17
3.61434e-17
3.61416e-17
3.61648e-17
3.61632e-17
3.61615e-17
3.61598e-17
3.6158e-17
3.61561e-17
3.61542e-17
3.61522e-17
3.61502e-17
3.61481e-17
3.6146e-17
3.6144e-17
3.61417e-17
3.61398e-17
3.61636e-17
3.61619e-17
3.61603e-17
3.61585e-17
3.61566e-17
3.61547e-17
3.61527e-17
3.61506e-17
3.61485e-17
3.61464e-17
3.61442e-17
3.61421e-17
3.61397e-17
3.61376e-17
3.61622e-17
3.61605e-17
3.61589e-17
3.6157e-17
3.61551e-17
3.61531e-17
3.61511e-17
3.6149e-17
3.61469e-17
3.61448e-17
3.61426e-17
3.61404e-17
3.61379e-17
3.61357e-17
3.61668e-17
3.61659e-17
3.61649e-17
3.61637e-17
3.61623e-17
3.61608e-17
3.61592e-17
3.61574e-17
3.61556e-17
3.61536e-17
3.61516e-17
3.61494e-17
3.61473e-17
3.61446e-17
3.6165e-17
3.61642e-17
3.61632e-17
3.61618e-17
3.61604e-17
3.61589e-17
3.61572e-17
3.61555e-17
3.61537e-17
3.61517e-17
3.61497e-17
3.61476e-17
3.61455e-17
3.61432e-17
3.61632e-17
3.61623e-17
3.61611e-17
3.61598e-17
3.61584e-17
3.61569e-17
3.61553e-17
3.61536e-17
3.61518e-17
3.61499e-17
3.6148e-17
3.61459e-17
3.61439e-17
3.61417e-17
3.61613e-17
3.61604e-17
3.61591e-17
3.61578e-17
3.61564e-17
3.61549e-17
3.61533e-17
3.61516e-17
3.61498e-17
3.61479e-17
3.6146e-17
3.61439e-17
3.61419e-17
3.61399e-17
3.61594e-17
3.61584e-17
3.61571e-17
3.61558e-17
3.61544e-17
3.61528e-17
3.61512e-17
3.61495e-17
3.61478e-17
3.61459e-17
3.6144e-17
3.6142e-17
3.614e-17
3.61379e-17
3.61574e-17
3.61563e-17
3.61551e-17
3.61537e-17
3.61523e-17
3.61507e-17
3.61491e-17
3.61474e-17
3.61456e-17
3.61437e-17
3.61418e-17
3.61398e-17
3.61378e-17
3.61358e-17
3.61555e-17
3.61544e-17
3.61531e-17
3.61517e-17
3.61502e-17
3.61486e-17
3.6147e-17
3.61452e-17
3.61434e-17
3.61416e-17
3.61397e-17
3.61377e-17
3.61357e-17
3.61337e-17
3.61536e-17
3.61523e-17
3.61509e-17
3.61495e-17
3.6148e-17
3.61464e-17
3.61447e-17
3.6143e-17
3.61411e-17
3.61393e-17
3.61373e-17
3.61354e-17
3.61334e-17
3.61314e-17
3.61516e-17
3.61503e-17
3.61489e-17
3.61474e-17
3.61458e-17
3.61441e-17
3.61424e-17
3.61406e-17
3.61388e-17
3.61369e-17
3.61349e-17
3.6133e-17
3.61309e-17
3.6129e-17
3.61496e-17
3.61481e-17
3.61467e-17
3.61451e-17
3.61435e-17
3.61418e-17
3.614e-17
3.61382e-17
3.61363e-17
3.61344e-17
3.61324e-17
3.61305e-17
3.61284e-17
3.61266e-17
3.61476e-17
3.6146e-17
3.61445e-17
3.61428e-17
3.61411e-17
3.61394e-17
3.61376e-17
3.61357e-17
3.61338e-17
3.61318e-17
3.61298e-17
3.61278e-17
3.61257e-17
3.6124e-17
3.61454e-17
3.61437e-17
3.61421e-17
3.61404e-17
3.61387e-17
3.61369e-17
3.6135e-17
3.61332e-17
3.61312e-17
3.61292e-17
3.61272e-17
3.61252e-17
3.61231e-17
3.61214e-17
3.61432e-17
3.61414e-17
3.61398e-17
3.6138e-17
3.61362e-17
3.61344e-17
3.61325e-17
3.61305e-17
3.61284e-17
3.61264e-17
3.61243e-17
3.61223e-17
3.61201e-17
3.61184e-17
3.61404e-17
3.61388e-17
3.61371e-17
3.61354e-17
3.61335e-17
3.61317e-17
3.61298e-17
3.61278e-17
3.61258e-17
3.61238e-17
3.61216e-17
3.61196e-17
3.61174e-17
3.61155e-17
3.61501e-17
3.61493e-17
3.61483e-17
3.61473e-17
3.61461e-17
3.61448e-17
3.61435e-17
3.6142e-17
3.61405e-17
3.61388e-17
3.61371e-17
3.61352e-17
3.61333e-17
3.6131e-17
3.61478e-17
3.61471e-17
3.6146e-17
3.61449e-17
3.61436e-17
3.61423e-17
3.61409e-17
3.61395e-17
3.61379e-17
3.61362e-17
3.61344e-17
3.61326e-17
3.61307e-17
3.61287e-17
3.61453e-17
3.61446e-17
3.61434e-17
3.61423e-17
3.6141e-17
3.61398e-17
3.61384e-17
3.61369e-17
3.61354e-17
3.61337e-17
3.6132e-17
3.61302e-17
3.61284e-17
3.61265e-17
3.61429e-17
3.61421e-17
3.61409e-17
3.61397e-17
3.61385e-17
3.61372e-17
3.61358e-17
3.61343e-17
3.61327e-17
3.61311e-17
3.61293e-17
3.61275e-17
3.61258e-17
3.61239e-17
3.61404e-17
3.61395e-17
3.61383e-17
3.61371e-17
3.61358e-17
3.61345e-17
3.61331e-17
3.61316e-17
3.613e-17
3.61284e-17
3.61267e-17
3.6125e-17
3.61232e-17
3.61214e-17
3.61379e-17
3.61369e-17
3.61357e-17
3.61344e-17
3.61331e-17
3.61318e-17
3.61303e-17
3.61288e-17
3.61273e-17
3.61257e-17
3.6124e-17
3.61222e-17
3.61205e-17
3.61187e-17
3.61354e-17
3.61342e-17
3.6133e-17
3.61317e-17
3.61304e-17
3.6129e-17
3.61275e-17
3.6126e-17
3.61245e-17
3.61229e-17
3.61212e-17
3.61195e-17
3.61178e-17
3.61161e-17
3.61327e-17
3.61315e-17
3.61302e-17
3.61289e-17
3.61276e-17
3.61261e-17
3.61247e-17
3.61232e-17
3.61216e-17
3.612e-17
3.61183e-17
3.61167e-17
3.61149e-17
3.61133e-17
3.61301e-17
3.61287e-17
3.61275e-17
3.61261e-17
3.61247e-17
3.61232e-17
3.61218e-17
3.61202e-17
3.61186e-17
3.6117e-17
3.61154e-17
3.61137e-17
3.61121e-17
3.61105e-17
3.61272e-17
3.61258e-17
3.61245e-17
3.61231e-17
3.61217e-17
3.61202e-17
3.61187e-17
3.61172e-17
3.61156e-17
3.6114e-17
3.61124e-17
3.61108e-17
3.61091e-17
3.61076e-17
3.61245e-17
3.6123e-17
3.61217e-17
3.61202e-17
3.61188e-17
3.61172e-17
3.61157e-17
3.61141e-17
3.61125e-17
3.61109e-17
3.61093e-17
3.61077e-17
3.61061e-17
3.61048e-17
3.61215e-17
3.61199e-17
3.61186e-17
3.61171e-17
3.61156e-17
3.61141e-17
3.61126e-17
3.6111e-17
3.61094e-17
3.61078e-17
3.61062e-17
3.61046e-17
3.6103e-17
3.61018e-17
3.61186e-17
3.6117e-17
3.61156e-17
3.61141e-17
3.61126e-17
3.6111e-17
3.61094e-17
3.61078e-17
3.61061e-17
3.61045e-17
3.61029e-17
3.61013e-17
3.60998e-17
3.60986e-17
3.61151e-17
3.61137e-17
3.61123e-17
3.61108e-17
3.61093e-17
3.61078e-17
3.61062e-17
3.61046e-17
3.6103e-17
3.61014e-17
3.60998e-17
3.60982e-17
3.60966e-17
3.60955e-17
3.61256e-17
3.61249e-17
3.6124e-17
3.61231e-17
3.61223e-17
3.61214e-17
3.61205e-17
3.61196e-17
3.61186e-17
3.61175e-17
3.61164e-17
3.61152e-17
3.6114e-17
3.61126e-17
3.6123e-17
3.61224e-17
3.61215e-17
3.61206e-17
3.61197e-17
3.61188e-17
3.61178e-17
3.61168e-17
3.61157e-17
3.61146e-17
3.61134e-17
3.61123e-17
3.6111e-17
3.61096e-17
3.61204e-17
3.61197e-17
3.61187e-17
3.61178e-17
3.61169e-17
3.6116e-17
3.6115e-17
3.6114e-17
3.61129e-17
3.61118e-17
3.61107e-17
3.61095e-17
3.61083e-17
3.6107e-17
3.61177e-17
3.6117e-17
3.6116e-17
3.61151e-17
3.61142e-17
3.61132e-17
3.61122e-17
3.61112e-17
3.61101e-17
3.6109e-17
3.61078e-17
3.61066e-17
3.61054e-17
3.61042e-17
3.6115e-17
3.61143e-17
3.61133e-17
3.61123e-17
3.61114e-17
3.61104e-17
3.61094e-17
3.61083e-17
3.61072e-17
3.61061e-17
3.6105e-17
3.61038e-17
3.61027e-17
3.61014e-17
3.61123e-17
3.61114e-17
3.61104e-17
3.61095e-17
3.61085e-17
3.61075e-17
3.61064e-17
3.61054e-17
3.61043e-17
3.61032e-17
3.61021e-17
3.61009e-17
3.60998e-17
3.60986e-17
3.61096e-17
3.61086e-17
3.61076e-17
3.61066e-17
3.61056e-17
3.61045e-17
3.61035e-17
3.61025e-17
3.61014e-17
3.61003e-17
3.60992e-17
3.60981e-17
3.6097e-17
3.60959e-17
3.61067e-17
3.61056e-17
3.61046e-17
3.61036e-17
3.61026e-17
3.61016e-17
3.61005e-17
3.60995e-17
3.60984e-17
3.60973e-17
3.60963e-17
3.60952e-17
3.60941e-17
3.60931e-17
3.61038e-17
3.61027e-17
3.61017e-17
3.61006e-17
3.60996e-17
3.60986e-17
3.60975e-17
3.60965e-17
3.60954e-17
3.60944e-17
3.60933e-17
3.60923e-17
3.60913e-17
3.60904e-17
3.61007e-17
3.60996e-17
3.60986e-17
3.60975e-17
3.60965e-17
3.60955e-17
3.60945e-17
3.60934e-17
3.60924e-17
3.60914e-17
3.60904e-17
3.60894e-17
3.60884e-17
3.60876e-17
3.60978e-17
3.60966e-17
3.60956e-17
3.60945e-17
3.60935e-17
3.60925e-17
3.60914e-17
3.60904e-17
3.60894e-17
3.60884e-17
3.60874e-17
3.60865e-17
3.60856e-17
3.6085e-17
3.60947e-17
3.60935e-17
3.60925e-17
3.60914e-17
3.60904e-17
3.60894e-17
3.60884e-17
3.60874e-17
3.60864e-17
3.60854e-17
3.60844e-17
3.60836e-17
3.60827e-17
3.60822e-17
3.60917e-17
3.60906e-17
3.60895e-17
3.60885e-17
3.60874e-17
3.60864e-17
3.60853e-17
3.60843e-17
3.60833e-17
3.60823e-17
3.60814e-17
3.60807e-17
3.60799e-17
3.60796e-17
3.60882e-17
3.60873e-17
3.60863e-17
3.60853e-17
3.60843e-17
3.60833e-17
3.60823e-17
3.60814e-17
3.60804e-17
3.60794e-17
3.60785e-17
3.60777e-17
3.6077e-17
3.60767e-17
3.60951e-17
3.60945e-17
3.60938e-17
3.60933e-17
3.60929e-17
3.60926e-17
3.60922e-17
3.60918e-17
3.60915e-17
3.60912e-17
3.60908e-17
3.60905e-17
3.60902e-17
3.60898e-17
3.60926e-17
3.60921e-17
3.60915e-17
3.6091e-17
3.60905e-17
3.60901e-17
3.60897e-17
3.60893e-17
3.60889e-17
3.60885e-17
3.60881e-17
3.60877e-17
3.60873e-17
3.60868e-17
3.60901e-17
3.60897e-17
3.6089e-17
3.60885e-17
3.6088e-17
3.60876e-17
3.60871e-17
3.60867e-17
3.60863e-17
3.60859e-17
3.60855e-17
3.60851e-17
3.60848e-17
3.60842e-17
3.60876e-17
3.60872e-17
3.60865e-17
3.6086e-17
3.60855e-17
3.60851e-17
3.60846e-17
3.60842e-17
3.60837e-17
3.60833e-17
3.60829e-17
3.60824e-17
3.60821e-17
3.60815e-17
3.60851e-17
3.60847e-17
3.6084e-17
3.60835e-17
3.6083e-17
3.60825e-17
3.6082e-17
3.60816e-17
3.60811e-17
3.60807e-17
3.60803e-17
3.60799e-17
3.60795e-17
3.60791e-17
3.60826e-17
3.60821e-17
3.60815e-17
3.60809e-17
3.60804e-17
3.60799e-17
3.60794e-17
3.6079e-17
3.60786e-17
3.60782e-17
3.60778e-17
3.60774e-17
3.6077e-17
3.60766e-17
3.60801e-17
3.60795e-17
3.60789e-17
3.60784e-17
3.60778e-17
3.60773e-17
3.60769e-17
3.60764e-17
3.6076e-17
3.60756e-17
3.60753e-17
3.60749e-17
3.60746e-17
3.60743e-17
3.60775e-17
3.60769e-17
3.60763e-17
3.60758e-17
3.60752e-17
3.60748e-17
3.60743e-17
3.60739e-17
3.60735e-17
3.60731e-17
3.60728e-17
3.60725e-17
3.60722e-17
3.6072e-17
3.6075e-17
3.60743e-17
3.60737e-17
3.60732e-17
3.60727e-17
3.60722e-17
3.60718e-17
3.60714e-17
3.6071e-17
3.60707e-17
3.60704e-17
3.60701e-17
3.60698e-17
3.60697e-17
3.60724e-17
3.60717e-17
3.60711e-17
3.60706e-17
3.60701e-17
3.60697e-17
3.60693e-17
3.60689e-17
3.60686e-17
3.60683e-17
3.6068e-17
3.60678e-17
3.60675e-17
3.60675e-17
3.60699e-17
3.60691e-17
3.60686e-17
3.60681e-17
3.60676e-17
3.60672e-17
3.60668e-17
3.60665e-17
3.60661e-17
3.60659e-17
3.60657e-17
3.60655e-17
3.60653e-17
3.60654e-17
3.60673e-17
3.60665e-17
3.60661e-17
3.60656e-17
3.60651e-17
3.60647e-17
3.60644e-17
3.60641e-17
3.60638e-17
3.60635e-17
3.60634e-17
3.60633e-17
3.60631e-17
3.60633e-17
3.60649e-17
3.60641e-17
3.60637e-17
3.60632e-17
3.60628e-17
3.60624e-17
3.6062e-17
3.60617e-17
3.60614e-17
3.60612e-17
3.60611e-17
3.60611e-17
3.60611e-17
3.60613e-17
3.60621e-17
3.60616e-17
3.60611e-17
3.60607e-17
3.60603e-17
3.606e-17
3.60597e-17
3.60594e-17
3.60592e-17
3.60591e-17
3.6059e-17
3.60589e-17
3.60589e-17
3.60591e-17
3.60607e-17
3.60604e-17
3.60602e-17
3.60602e-17
3.60602e-17
3.60603e-17
3.60604e-17
3.60607e-17
3.60609e-17
3.60613e-17
3.60616e-17
3.60621e-17
3.60626e-17
3.60631e-17
3.60586e-17
3.60586e-17
3.60584e-17
3.60583e-17
3.60583e-17
3.60584e-17
3.60585e-17
3.60587e-17
3.6059e-17
3.60593e-17
3.60596e-17
3.60599e-17
3.60604e-17
3.60607e-17
3.60567e-17
3.60567e-17
3.60565e-17
3.60565e-17
3.60564e-17
3.60565e-17
3.60566e-17
3.60568e-17
3.6057e-17
3.60573e-17
3.60577e-17
3.6058e-17
3.60584e-17
3.60586e-17
3.60548e-17
3.60548e-17
3.60547e-17
3.60546e-17
3.60546e-17
3.60546e-17
3.60547e-17
3.60549e-17
3.60551e-17
3.60554e-17
3.60557e-17
3.6056e-17
3.60564e-17
3.60566e-17
3.6053e-17
3.60529e-17
3.60528e-17
3.60527e-17
3.60527e-17
3.60527e-17
3.60529e-17
3.6053e-17
3.60533e-17
3.60535e-17
3.60539e-17
3.60542e-17
3.60546e-17
3.60548e-17
3.60511e-17
3.6051e-17
3.60509e-17
3.60509e-17
3.60508e-17
3.60509e-17
3.6051e-17
3.60512e-17
3.60514e-17
3.60517e-17
3.6052e-17
3.60524e-17
3.60528e-17
3.60531e-17
3.60493e-17
3.60492e-17
3.60491e-17
3.6049e-17
3.6049e-17
3.60491e-17
3.60492e-17
3.60494e-17
3.60497e-17
3.60499e-17
3.60503e-17
3.60507e-17
3.60511e-17
3.60515e-17
3.60475e-17
3.60474e-17
3.60473e-17
3.60473e-17
3.60473e-17
3.60473e-17
3.60475e-17
3.60477e-17
3.60479e-17
3.60482e-17
3.60486e-17
3.6049e-17
3.60494e-17
3.60499e-17
3.60458e-17
3.60456e-17
3.60455e-17
3.60455e-17
3.60455e-17
3.60456e-17
3.60458e-17
3.6046e-17
3.60463e-17
3.60466e-17
3.6047e-17
3.60474e-17
3.60478e-17
3.60484e-17
3.6044e-17
3.60438e-17
3.60438e-17
3.60438e-17
3.60439e-17
3.6044e-17
3.60442e-17
3.60444e-17
3.60447e-17
3.6045e-17
3.60454e-17
3.60459e-17
3.60464e-17
3.6047e-17
3.60424e-17
3.60421e-17
3.60422e-17
3.60422e-17
3.60423e-17
3.60424e-17
3.60426e-17
3.60429e-17
3.60432e-17
3.60436e-17
3.6044e-17
3.60445e-17
3.6045e-17
3.60456e-17
3.60407e-17
3.60405e-17
3.60405e-17
3.60406e-17
3.60407e-17
3.60409e-17
3.60411e-17
3.60414e-17
3.60417e-17
3.60421e-17
3.60426e-17
3.60432e-17
3.60437e-17
3.60444e-17
3.60392e-17
3.60389e-17
3.6039e-17
3.60391e-17
3.60392e-17
3.60394e-17
3.60397e-17
3.604e-17
3.60404e-17
3.60408e-17
3.60413e-17
3.60419e-17
3.60425e-17
3.60432e-17
3.60376e-17
3.60374e-17
3.60375e-17
3.60376e-17
3.60378e-17
3.6038e-17
3.60383e-17
3.60387e-17
3.60391e-17
3.60396e-17
3.60401e-17
3.60407e-17
3.60413e-17
3.6042e-17
3.60242e-17
3.60244e-17
3.60246e-17
3.6025e-17
3.60255e-17
3.6026e-17
3.60265e-17
3.60272e-17
3.60279e-17
3.60286e-17
3.60295e-17
3.60304e-17
3.60314e-17
3.60324e-17
3.6023e-17
3.60233e-17
3.60236e-17
3.6024e-17
3.60244e-17
3.60249e-17
3.60255e-17
3.60262e-17
3.60269e-17
3.60276e-17
3.60284e-17
3.60293e-17
3.60302e-17
3.6031e-17
3.60219e-17
3.60223e-17
3.60225e-17
3.60229e-17
3.60234e-17
3.60239e-17
3.60245e-17
3.60251e-17
3.60258e-17
3.60266e-17
3.60275e-17
3.60283e-17
3.60292e-17
3.603e-17
3.60209e-17
3.60213e-17
3.60216e-17
3.6022e-17
3.60224e-17
3.60229e-17
3.60235e-17
3.60241e-17
3.60248e-17
3.60256e-17
3.60265e-17
3.60273e-17
3.60282e-17
3.6029e-17
3.602e-17
3.60203e-17
3.60206e-17
3.6021e-17
3.60214e-17
3.60219e-17
3.60225e-17
3.60231e-17
3.60239e-17
3.60247e-17
3.60255e-17
3.60264e-17
3.60273e-17
3.60281e-17
3.6019e-17
3.60194e-17
3.60197e-17
3.60201e-17
3.60205e-17
3.6021e-17
3.60216e-17
3.60222e-17
3.60229e-17
3.60237e-17
3.60246e-17
3.60254e-17
3.60263e-17
3.60272e-17
3.60182e-17
3.60185e-17
3.60188e-17
3.60192e-17
3.60196e-17
3.60201e-17
3.60207e-17
3.60214e-17
3.60221e-17
3.60229e-17
3.60237e-17
3.60246e-17
3.60254e-17
3.60263e-17
3.60173e-17
3.60176e-17
3.60179e-17
3.60184e-17
3.60188e-17
3.60193e-17
3.60199e-17
3.60206e-17
3.60213e-17
3.60221e-17
3.60229e-17
3.60238e-17
3.60246e-17
3.60255e-17
3.60165e-17
3.60168e-17
3.60172e-17
3.60176e-17
3.60181e-17
3.60186e-17
3.60192e-17
3.60198e-17
3.60206e-17
3.60213e-17
3.60222e-17
3.6023e-17
3.60239e-17
3.60248e-17
3.60157e-17
3.6016e-17
3.60164e-17
3.60169e-17
3.60174e-17
3.60179e-17
3.60185e-17
3.60192e-17
3.60199e-17
3.60207e-17
3.60215e-17
3.60224e-17
3.60233e-17
3.60242e-17
3.60151e-17
3.60153e-17
3.60158e-17
3.60162e-17
3.60167e-17
3.60173e-17
3.60179e-17
3.60186e-17
3.60193e-17
3.60201e-17
3.6021e-17
3.60219e-17
3.60227e-17
3.60237e-17
3.60144e-17
3.60147e-17
3.60151e-17
3.60156e-17
3.60161e-17
3.60167e-17
3.60174e-17
3.60181e-17
3.60188e-17
3.60196e-17
3.60205e-17
3.60214e-17
3.60222e-17
3.60232e-17
3.60138e-17
3.60141e-17
3.60146e-17
3.60151e-17
3.60156e-17
3.60162e-17
3.60169e-17
3.60176e-17
3.60184e-17
3.60192e-17
3.60201e-17
3.6021e-17
3.60219e-17
3.60229e-17
3.60132e-17
3.60135e-17
3.6014e-17
3.60145e-17
3.60151e-17
3.60158e-17
3.60165e-17
3.60172e-17
3.6018e-17
3.60188e-17
3.60197e-17
3.60206e-17
3.60215e-17
3.60225e-17
3.59867e-17
3.59873e-17
3.59879e-17
3.59886e-17
3.59893e-17
3.599e-17
3.59908e-17
3.59916e-17
3.59925e-17
3.59934e-17
3.59944e-17
3.59954e-17
3.59965e-17
3.59976e-17
3.59864e-17
3.59871e-17
3.59877e-17
3.59884e-17
3.59891e-17
3.59899e-17
3.59907e-17
3.59915e-17
3.59924e-17
3.59934e-17
3.59943e-17
3.59954e-17
3.59964e-17
3.59975e-17
3.59862e-17
3.59869e-17
3.59875e-17
3.59882e-17
3.59889e-17
3.59897e-17
3.59905e-17
3.59914e-17
3.59923e-17
3.59933e-17
3.59943e-17
3.59953e-17
3.59964e-17
3.59974e-17
3.59861e-17
3.59868e-17
3.59874e-17
3.59881e-17
3.59888e-17
3.59896e-17
3.59904e-17
3.59913e-17
3.59922e-17
3.59932e-17
3.59942e-17
3.59952e-17
3.59963e-17
3.59973e-17
3.59861e-17
3.59867e-17
3.59873e-17
3.5988e-17
3.59887e-17
3.59895e-17
3.59903e-17
3.59912e-17
3.59921e-17
3.59931e-17
3.59941e-17
3.59952e-17
3.59962e-17
3.59973e-17
3.59861e-17
3.59867e-17
3.59873e-17
3.5988e-17
3.59887e-17
3.59895e-17
3.59903e-17
3.59912e-17
3.59921e-17
3.59931e-17
3.59941e-17
3.59952e-17
3.59962e-17
3.59972e-17
3.59861e-17
3.59867e-17
3.59873e-17
3.5988e-17
3.59887e-17
3.59895e-17
3.59903e-17
3.59912e-17
3.59921e-17
3.59931e-17
3.59941e-17
3.59951e-17
3.59962e-17
3.59972e-17
3.59861e-17
3.59867e-17
3.59873e-17
3.5988e-17
3.59888e-17
3.59895e-17
3.59904e-17
3.59912e-17
3.59922e-17
3.59931e-17
3.59941e-17
3.59951e-17
3.59961e-17
3.59972e-17
3.59861e-17
3.59867e-17
3.59874e-17
3.59881e-17
3.59888e-17
3.59896e-17
3.59905e-17
3.59913e-17
3.59922e-17
3.59932e-17
3.59942e-17
3.59952e-17
3.59962e-17
3.59972e-17
3.59862e-17
3.59868e-17
3.59875e-17
3.59882e-17
3.5989e-17
3.59898e-17
3.59906e-17
3.59915e-17
3.59924e-17
3.59933e-17
3.59943e-17
3.59952e-17
3.59962e-17
3.59972e-17
3.59864e-17
3.5987e-17
3.59877e-17
3.59884e-17
3.59891e-17
3.59899e-17
3.59908e-17
3.59917e-17
3.59926e-17
3.59935e-17
3.59944e-17
3.59954e-17
3.59963e-17
3.59973e-17
3.59866e-17
3.59872e-17
3.59879e-17
3.59886e-17
3.59893e-17
3.59902e-17
3.5991e-17
3.59919e-17
3.59928e-17
3.59937e-17
3.59946e-17
3.59956e-17
3.59965e-17
3.59975e-17
3.59868e-17
3.59874e-17
3.59881e-17
3.59888e-17
3.59896e-17
3.59904e-17
3.59913e-17
3.59922e-17
3.59931e-17
3.5994e-17
3.59949e-17
3.59959e-17
3.59968e-17
3.59978e-17
3.5987e-17
3.59876e-17
3.59883e-17
3.59891e-17
3.59899e-17
3.59907e-17