/*--------------------------------*- C++ -*----------------------------------*\
| =========                 |                                                 |
| \\      /  F ield         | OpenFOAM: The Open Source CFD Toolbox           |
|  \\    /   O peration     | Version:  v2106                                 |
|   \\  /    A nd           | Website:  www.openfoam.com                      |
|    \\/     M anipulation  |                                                 |
\*---------------------------------------------------------------------------*/
FoamFile
{
    version     2.0;
    format      ascii;
    arch        "LSB;label=32;scalar=64";
    class       volScalarField;
    location    "0.00018";
    object      Ttot;
}
// * * * * * * * * * * * * * * * * * * * * * * * * * * * * * * * * * * * * * //

dimensions      [0 0 0 1 0 0 0];

internalField   nonuniform List<scalar> 
17924
(
307.538
307.532
307.536
307.544
307.419
307.408
307.407
307.408
307.41
307.415
307.42
307.464
307.455
307.456
307.457
307.46
307.465
307.471
307.507
307.501
307.504
307.506
307.511
307.516
307.523
307.551
307.549
307.553
307.557
307.562
307.568
307.575
307.594
307.595
307.601
307.607
307.613
307.62
307.628
307.637
307.642
307.65
307.657
307.665
307.672
307.68
307.681
307.688
307.698
307.707
307.716
307.724
307.733
307.726
307.736
307.746
307.756
307.766
307.776
307.785
307.77
307.783
307.794
307.806
307.817
307.827
307.837
307.816
307.83
307.842
307.855
307.867
307.878
307.889
307.861
307.877
307.891
307.904
307.917
307.929
307.941
307.909
307.926
307.94
307.954
307.968
307.98
307.992
307.956
307.973
307.989
308.004
308.018
308.031
308.044
308.008
308.024
308.041
308.055
308.07
308.083
308.096
307.391
307.383
307.378
307.373
307.369
307.364
307.361
307.358
307.356
307.355
307.354
307.354
307.357
307.361
307.428
307.419
307.416
307.412
307.408
307.404
307.401
307.398
307.396
307.394
307.393
307.394
307.394
307.399
307.461
307.454
307.452
307.449
307.446
307.443
307.441
307.438
307.435
307.433
307.431
307.431
307.43
307.435
307.494
307.489
307.489
307.486
307.485
307.482
307.48
307.477
307.475
307.472
307.47
307.469
307.468
307.471
307.526
307.524
307.524
307.523
307.522
307.52
307.518
307.516
307.514
307.511
307.508
307.507
307.505
307.507
307.56
307.559
307.56
307.56
307.559
307.558
307.556
307.554
307.552
307.55
307.547
307.545
307.543
307.543
307.593
307.594
307.596
307.596
307.596
307.595
307.594
307.592
307.59
307.588
307.586
307.583
307.581
307.58
307.626
307.629
307.631
307.632
307.633
307.633
307.632
307.63
307.629
307.627
307.624
307.622
307.621
307.618
307.661
307.665
307.667
307.669
307.67
307.67
307.67
307.669
307.667
307.665
307.663
307.661
307.661
307.657
307.696
307.701
307.704
307.706
307.708
307.708
307.708
307.707
307.706
307.704
307.703
307.701
307.701
307.698
307.733
307.738
307.741
307.744
307.746
307.747
307.747
307.746
307.745
307.744
307.743
307.741
307.742
307.738
307.771
307.776
307.78
307.783
307.785
307.786
307.786
307.786
307.785
307.784
307.784
307.783
307.785
307.78
307.81
307.815
307.819
307.823
307.825
307.826
307.826
307.826
307.826
307.825
307.825
307.825
307.826
307.822
307.854
307.856
307.86
307.863
307.865
307.866
307.867
307.867
307.867
307.867
307.867
307.868
307.87
307.869
307.398
307.39
307.383
307.375
307.366
307.358
307.349
307.34
307.332
307.323
307.315
307.307
307.301
307.296
307.422
307.413
307.407
307.399
307.391
307.383
307.374
307.365
307.357
307.348
307.34
307.332
307.324
307.321
307.442
307.434
307.429
307.422
307.414
307.406
307.398
307.389
307.381
307.372
307.363
307.355
307.347
307.343
307.463
307.457
307.452
307.445
307.438
307.43
307.422
307.413
307.404
307.395
307.386
307.378
307.369
307.364
307.484
307.479
307.475
307.468
307.461
307.453
307.445
307.436
307.428
307.418
307.409
307.401
307.392
307.385
307.506
307.502
307.497
307.491
307.484
307.476
307.468
307.46
307.451
307.441
307.432
307.423
307.414
307.407
307.528
307.525
307.52
307.514
307.507
307.499
307.491
307.483
307.474
307.464
307.455
307.446
307.437
307.428
307.551
307.548
307.543
307.537
307.53
307.523
307.514
307.506
307.497
307.487
307.478
307.468
307.459
307.45
307.575
307.572
307.566
307.561
307.554
307.546
307.538
307.529
307.52
307.51
307.501
307.491
307.482
307.472
307.599
307.596
307.591
307.585
307.578
307.57
307.562
307.553
307.543
307.534
307.524
307.514
307.506
307.495
307.624
307.621
307.616
307.61
307.603
307.595
307.586
307.577
307.568
307.558
307.548
307.538
307.53
307.519
307.651
307.647
307.641
307.635
307.628
307.62
307.612
307.603
307.593
307.583
307.574
307.564
307.556
307.546
307.679
307.675
307.669
307.663
307.655
307.647
307.638
307.628
307.619
307.609
307.6
307.59
307.582
307.572
307.71
307.703
307.696
307.689
307.681
307.673
307.665
307.656
307.647
307.637
307.628
307.618
307.612
307.603
307.407
307.397
307.389
307.378
307.368
307.356
307.345
307.332
307.32
307.307
307.295
307.282
307.271
307.259
307.417
307.408
307.4
307.39
307.38
307.368
307.356
307.344
307.331
307.318
307.306
307.293
307.281
307.27
307.426
307.417
307.41
307.4
307.389
307.378
307.367
307.354
307.342
307.329
307.317
307.304
307.292
307.281
307.436
307.428
307.42
307.41
307.4
307.389
307.377
307.365
307.352
307.339
307.327
307.314
307.302
307.29
307.446
307.439
307.431
307.421
307.411
307.399
307.387
307.375
307.362
307.349
307.336
307.323
307.311
307.299
307.457
307.45
307.442
307.432
307.421
307.41
307.397
307.385
307.372
307.358
307.345
307.332
307.319
307.307
307.469
307.462
307.453
307.443
307.432
307.42
307.408
307.395
307.381
307.368
307.354
307.341
307.328
307.315
307.481
307.474
307.464
307.454
307.443
307.431
307.418
307.405
307.391
307.377
307.363
307.349
307.336
307.323
307.494
307.486
307.476
307.466
307.454
307.441
307.428
307.415
307.401
307.387
307.372
307.358
307.344
307.33
307.507
307.499
307.488
307.478
307.465
307.452
307.438
307.425
307.41
307.396
307.382
307.367
307.353
307.338
307.52
307.512
307.501
307.489
307.476
307.463
307.449
307.435
307.421
307.406
307.391
307.376
307.362
307.346
307.534
307.525
307.513
307.502
307.489
307.475
307.461
307.446
307.431
307.416
307.401
307.385
307.37
307.354
307.55
307.54
307.528
307.515
307.501
307.487
307.472
307.457
307.442
307.427
307.411
307.395
307.379
307.363
307.567
307.554
307.541
307.527
307.514
307.499
307.485
307.47
307.454
307.439
307.423
307.407
307.392
307.375
307.403
307.393
307.383
307.372
307.359
307.346
307.331
307.316
307.301
307.285
307.27
307.253
307.238
307.221
307.402
307.393
307.384
307.372
307.359
307.346
307.331
307.316
307.301
307.285
307.269
307.253
307.238
307.222
307.401
307.392
307.383
307.371
307.358
307.345
307.331
307.316
307.301
307.285
307.27
307.254
307.239
307.223
307.4
307.392
307.382
307.37
307.358
307.344
307.33
307.315
307.301
307.285
307.27
307.254
307.239
307.223
307.4
307.392
307.382
307.37
307.357
307.344
307.329
307.315
307.299
307.284
307.268
307.252
307.237
307.221
307.4
307.392
307.381
307.369
307.356
307.343
307.328
307.313
307.298
307.282
307.266
307.25
307.234
307.218
307.402
307.392
307.381
307.369
307.356
307.342
307.327
307.311
307.296
307.28
307.263
307.247
307.231
307.215
307.403
307.393
307.381
307.368
307.355
307.34
307.325
307.309
307.293
307.277
307.26
307.244
307.227
307.211
307.405
307.394
307.382
307.368
307.354
307.339
307.323
307.307
307.291
307.274
307.257
307.24
307.223
307.206
307.406
307.395
307.382
307.368
307.353
307.337
307.321
307.305
307.288
307.271
307.253
307.236
307.218
307.201
307.408
307.396
307.382
307.367
307.352
307.336
307.319
307.302
307.285
307.267
307.249
307.231
307.212
307.195
307.41
307.397
307.382
307.367
307.351
307.334
307.317
307.3
307.282
307.264
307.245
307.226
307.207
307.189
307.413
307.398
307.383
307.366
307.35
307.332
307.315
307.297
307.279
307.26
307.241
307.221
307.201
307.183
307.415
307.399
307.383
307.366
307.349
307.331
307.313
307.295
307.276
307.258
307.239
307.219
307.199
307.18
307.369
307.36
307.35
307.337
307.324
307.309
307.293
307.276
307.259
307.241
307.223
307.203
307.185
307.164
307.359
307.35
307.339
307.327
307.313
307.299
307.283
307.266
307.249
307.231
307.213
307.194
307.176
307.157
307.347
307.339
307.328
307.316
307.303
307.288
307.273
307.256
307.239
307.221
307.204
307.185
307.167
307.148
307.337
307.329
307.317
307.305
307.291
307.277
307.262
307.245
307.229
307.211
307.193
307.175
307.158
307.139
307.327
307.318
307.307
307.294
307.281
307.266
307.251
307.234
307.218
307.2
307.183
307.164
307.147
307.128
307.317
307.308
307.296
307.283
307.269
307.254
307.239
307.223
307.206
307.188
307.171
307.152
307.135
307.116
307.308
307.298
307.285
307.272
307.258
307.243
307.227
307.211
307.194
307.176
307.158
307.14
307.122
307.103
307.298
307.287
307.274
307.261
307.246
307.231
307.215
307.198
307.181
307.163
307.145
307.126
307.108
307.089
307.29
307.277
307.264
307.249
307.234
307.218
307.202
307.185
307.167
307.149
307.13
307.112
307.092
307.075
307.28
307.266
307.252
307.237
307.222
307.205
307.188
307.171
307.153
307.134
307.115
307.096
307.076
307.059
307.271
307.256
307.241
307.226
307.209
307.192
307.175
307.157
307.138
307.119
307.099
307.08
307.059
307.042
307.26
307.244
307.229
307.213
307.196
307.178
307.16
307.142
307.123
307.104
307.083
307.064
307.042
307.024
307.25
307.234
307.218
307.2
307.183
307.165
307.146
307.126
307.106
307.086
307.065
307.045
307.023
307.005
307.239
307.221
307.205
307.187
307.168
307.149
307.13
307.111
307.091
307.071
307.05
307.03
307.008
306.988
307.279
307.27
307.259
307.247
307.234
307.22
307.204
307.188
307.171
307.152
307.133
307.113
307.093
307.071
307.26
307.252
307.241
307.229
307.216
307.202
307.186
307.17
307.152
307.134
307.115
307.095
307.076
307.055
307.241
307.233
307.222
307.21
307.197
307.183
307.167
307.151
307.134
307.116
307.098
307.078
307.059
307.039
307.222
307.214
307.203
307.191
307.177
307.163
307.148
307.132
307.115
307.097
307.079
307.06
307.041
307.021
307.204
307.196
307.184
307.171
307.158
307.144
307.129
307.113
307.096
307.078
307.06
307.041
307.023
307.003
307.186
307.176
307.164
307.152
307.138
307.124
307.108
307.092
307.075
307.058
307.04
307.021
307.003
306.983
307.168
307.157
307.145
307.132
307.118
307.103
307.088
307.072
307.055
307.037
307.019
307.001
306.982
306.963
307.149
307.137
307.125
307.111
307.097
307.082
307.066
307.05
307.033
307.015
306.997
306.979
306.96
306.942
307.131
307.118
307.105
307.091
307.076
307.061
307.044
307.028
307.01
306.993
306.974
306.956
306.937
306.919
307.111
307.097
307.084
307.069
307.054
307.038
307.022
307.005
306.987
306.969
306.951
306.932
306.913
306.896
307.092
307.077
307.063
307.047
307.032
307.015
306.999
306.981
306.963
306.945
306.925
306.907
306.887
306.871
307.07
307.055
307.04
307.024
307.008
306.991
306.974
306.957
306.939
306.92
306.901
306.882
306.862
306.846
307.051
307.034
307.018
307.002
306.985
306.968
306.95
306.932
306.913
306.893
306.873
306.854
306.834
306.819
307.027
307.01
306.994
306.977
306.96
306.942
306.924
306.906
306.887
306.868
306.849
306.83
306.81
306.793
307.112
307.104
307.094
307.084
307.073
307.061
307.048
307.035
307.02
307.005
306.988
306.971
306.954
306.934
307.088
307.081
307.071
307.061
307.05
307.038
307.025
307.011
306.996
306.98
306.963
306.946
306.929
306.91
307.065
307.058
307.047
307.037
307.025
307.013
307
306.987
306.972
306.957
306.94
306.923
306.907
306.889
307.042
307.034
307.023
307.013
307.001
306.989
306.976
306.962
306.947
306.932
306.916
306.899
306.882
306.865
307.019
307.01
306.999
306.988
306.976
306.964
306.951
306.937
306.922
306.907
306.891
306.875
306.858
306.841
306.995
306.986
306.974
306.963
306.951
306.938
306.925
306.911
306.896
306.881
306.865
306.849
306.833
306.816
306.972
306.961
306.949
306.938
306.925
306.912
306.899
306.885
306.87
306.855
306.839
306.824
306.808
306.792
306.946
306.935
306.923
306.911
306.898
306.885
306.872
306.858
306.843
306.828
306.813
306.797
306.781
306.766
306.922
306.909
306.897
306.885
306.872
306.858
306.844
306.83
306.815
306.8
306.785
306.77
306.754
306.74
306.895
306.882
306.87
306.857
306.844
306.83
306.816
306.802
306.787
306.772
306.757
306.742
306.726
306.713
306.869
306.855
306.843
306.829
306.816
306.802
306.788
306.773
306.758
306.743
306.728
306.713
306.698
306.686
306.841
306.826
306.814
306.8
306.787
306.773
306.758
306.744
306.729
306.714
306.699
306.684
306.669
306.658
306.815
306.8
306.787
306.773
306.759
306.744
306.729
306.714
306.699
306.684
306.668
306.654
306.639
306.629
306.783
306.77
306.756
306.742
306.728
306.714
306.699
306.684
306.669
306.654
306.639
306.625
306.61
306.6
306.873
306.866
306.858
306.85
306.842
306.834
306.826
306.817
306.807
306.797
306.787
306.776
306.765
306.754
306.848
306.843
306.834
306.826
306.818
306.809
306.8
306.791
306.781
306.77
306.76
306.748
306.737
306.725
306.824
306.818
306.809
306.801
306.792
306.784
306.774
306.765
306.755
306.745
306.734
306.723
306.712
306.699
306.799
306.793
306.784
306.775
306.767
306.758
306.748
306.739
306.729
306.718
306.707
306.696
306.685
306.673
306.774
306.767
306.758
306.749
306.74
306.731
306.722
306.712
306.702
306.691
306.681
306.67
306.659
306.648
306.749
306.741
306.732
306.723
306.714
306.704
306.695
306.685
306.675
306.665
306.654
306.643
306.633
306.622
306.723
306.715
306.705
306.696
306.687
306.677
306.668
306.658
306.648
306.638
306.627
306.617
306.607
306.596
306.697
306.687
306.678
306.668
306.659
306.649
306.64
306.63
306.62
306.61
306.6
306.59
306.58
306.571
306.67
306.659
306.65
306.64
306.631
306.621
306.612
306.602
306.593
306.583
306.573
306.564
306.554
306.546
306.642
306.631
306.622
306.612
306.603
306.593
306.584
306.574
306.564
306.555
306.546
306.536
306.527
306.52
306.614
306.603
306.594
306.584
306.575
306.565
306.556
306.546
306.536
306.527
306.518
306.51
306.501
306.495
306.585
306.574
306.565
306.555
306.546
306.537
306.527
306.518
306.508
306.499
306.49
306.482
306.474
306.47
306.558
306.547
306.537
306.528
306.518
306.509
306.499
306.49
306.48
306.471
306.462
306.455
306.448
306.445
306.526
306.517
306.508
306.499
306.489
306.48
306.471
306.462
306.453
306.444
306.436
306.428
306.421
306.419
306.581
306.575
306.569
306.565
306.561
306.557
306.554
306.55
306.547
306.544
306.541
306.538
306.535
306.532
306.557
306.554
306.547
306.543
306.539
306.535
306.531
306.527
306.523
306.52
306.516
306.512
306.509
306.505
306.535
306.531
306.525
306.52
306.516
306.512
306.507
306.503
306.499
306.495
306.492
306.488
306.485
306.48
306.512
306.508
306.502
306.497
306.493
306.488
306.484
306.48
306.476
306.472
306.468
306.464
306.46
306.455
306.489
306.485
306.479
306.474
306.469
306.465
306.46
306.456
306.452
306.448
306.444
306.44
306.437
306.432
306.466
306.461
306.456
306.45
306.446
306.441
306.437
306.432
306.428
306.424
306.421
306.417
306.414
306.41
306.443
306.437
306.432
306.427
306.422
306.417
306.413
306.409
306.405
306.401
306.398
306.394
306.391
306.388
306.419
306.413
306.408
306.403
306.398
306.393
306.389
306.385
306.382
306.378
306.375
306.372
306.369
306.367
306.396
306.389
306.384
306.379
306.374
306.37
306.366
306.362
306.359
306.356
306.353
306.35
306.348
306.346
306.372
306.365
306.36
306.355
306.351
306.347
306.343
306.339
306.336
306.333
306.331
306.328
306.326
306.326
306.349
306.342
306.337
306.332
306.328
306.324
306.32
306.317
306.314
306.311
306.309
306.307
306.306
306.307
306.325
306.318
306.313
306.309
306.305
306.301
306.298
306.294
306.292
306.29
306.288
306.287
306.285
306.287
306.302
306.295
306.291
306.287
306.282
306.279
306.276
306.273
306.27
306.269
306.267
306.267
306.266
306.268
306.278
306.272
306.268
306.264
306.26
306.257
306.254
306.252
306.249
306.248
306.247
306.247
306.247
306.248
306.255
306.253
306.251
306.25
306.25
306.251
306.252
306.254
306.256
306.259
306.263
306.267
306.271
306.276
306.235
306.235
306.234
306.233
306.233
306.234
306.235
306.237
306.239
306.242
306.245
306.248
306.252
306.255
306.218
306.218
306.217
306.216
306.216
306.216
306.217
306.219
306.221
306.223
306.226
306.229
306.233
306.236
306.201
306.201
306.2
306.199
306.199
306.199
306.2
306.202
306.204
306.206
306.209
306.212
306.215
306.217
306.184
306.184
306.182
306.182
306.181
306.182
306.183
306.184
306.186
306.189
306.191
306.194
306.198
306.2
306.168
306.167
306.165
306.165
306.164
306.165
306.166
306.167
306.169
306.172
306.175
306.178
306.181
306.184
306.151
306.15
306.148
306.148
306.148
306.148
306.149
306.151
306.153
306.156
306.159
306.162
306.166
306.169
306.135
306.133
306.132
306.132
306.132
306.132
306.133
306.135
306.137
306.14
306.143
306.147
306.15
306.155
306.118
306.117
306.116
306.116
306.116
306.116
306.118
306.12
306.122
306.125
306.128
306.132
306.136
306.141
306.102
306.101
306.1
306.1
306.1
306.101
306.103
306.105
306.107
306.111
306.114
306.118
306.122
306.128
306.087
306.085
306.085
306.085
306.085
306.087
306.088
306.091
306.094
306.097
306.101
306.105
306.11
306.115
306.072
306.07
306.07
306.07
306.071
306.073
306.075
306.077
306.08
306.084
306.088
306.093
306.098
306.104
306.057
306.055
306.056
306.056
306.057
306.059
306.062
306.064
306.068
306.072
306.076
306.081
306.087
306.093
306.043
306.041
306.042
306.043
306.044
306.046
306.049
306.052
306.056
306.06
306.065
306.07
306.076
306.083
305.911
305.913
305.916
305.919
305.923
305.927
305.932
305.938
305.944
305.951
305.958
305.967
305.975
305.986
305.901
305.903
305.906
305.909
305.913
305.918
305.923
305.929
305.935
305.942
305.95
305.958
305.966
305.974
305.891
305.894
305.896
305.9
305.904
305.908
305.913
305.919
305.926
305.933
305.94
305.948
305.956
305.964
305.882
305.885
305.887
305.891
305.895
305.899
305.904
305.91
305.916
305.924
305.931
305.939
305.947
305.954
305.873
305.876
305.878
305.882
305.885
305.89
305.895
305.901
305.907
305.915
305.922
305.93
305.938
305.946
305.865
305.867
305.87
305.873
305.877
305.882
305.887
305.893
305.899
305.906
305.913
305.921
305.929
305.937
305.856
305.859
305.862
305.865
305.869
305.874
305.879
305.885
305.891
305.898
305.905
305.913
305.921
305.929
305.848
305.851
305.854
305.857
305.861
305.866
305.871
305.877
305.884
305.891
305.898
305.906
305.914
305.922
305.841
305.843
305.847
305.85
305.855
305.859
305.865
305.871
305.877
305.884
305.892
305.899
305.907
305.915
305.834
305.837
305.84
305.844
305.848
305.853
305.859
305.865
305.871
305.878
305.886
305.893
305.902
305.91
305.828
305.83
305.834
305.838
305.842
305.847
305.853
305.859
305.866
305.873
305.88
305.888
305.896
305.905
305.822
305.824
305.828
305.832
305.837
305.842
305.848
305.854
305.861
305.868
305.876
305.884
305.892
305.9
305.816
305.819
305.823
305.827
305.832
305.837
305.844
305.85
305.857
305.865
305.872
305.88
305.888
305.897
305.811
305.814
305.818
305.823
305.828
305.833
305.839
305.846
305.853
305.861
305.869
305.877
305.885
305.894
305.56
305.566
305.572
305.578
305.584
305.591
305.597
305.605
305.613
305.621
305.63
305.639
305.648
305.658
305.558
305.564
305.57
305.576
305.582
305.589
305.596
305.604
305.612
305.62
305.629
305.639
305.648
305.658
305.557
305.563
305.568
305.574
305.581
305.587
305.595
305.602
305.611
305.619
305.628
305.638
305.647
305.657
305.556
305.561
305.567
305.573
305.579
305.586
305.594
305.602
305.61
305.619
305.628
305.637
305.647
305.656
305.555
305.561
305.566
305.572
305.579
305.585
305.593
305.601
305.609
305.618
305.627
305.636
305.646
305.655
305.555
305.56
305.566
305.572
305.578
305.585
305.592
305.6
305.609
305.617
305.627
305.636
305.645
305.655
305.554
305.56
305.565
305.572
305.578
305.585
305.592
305.6
305.609
305.617
305.626
305.635
305.645
305.654
305.555
305.56
305.566
305.572
305.578
305.585
305.593
305.601
305.609
305.617
305.626
305.635
305.645
305.654
305.555
305.56
305.566
305.572
305.579
305.586
305.593
305.601
305.61
305.618
305.627
305.636
305.645
305.654
305.556
305.561
305.567
305.573
305.58
305.587
305.595
305.603
305.611
305.619
305.628
305.636
305.645
305.654
305.557
305.563
305.568
305.575
305.581
305.589
305.596
305.604
305.612
305.62
305.629
305.638
305.646
305.655
305.558
305.564
305.57
305.577
305.583
305.591
305.598
305.606
305.614
305.622
305.631
305.639
305.648
305.656
305.56
305.566
305.572
305.579
305.585
305.593
305.6
305.608
305.617
305.625
305.633
305.642
305.65
305.659
305.562
305.568
305.574
305.581
305.588
305.595
305.603
305.611
305.619
305.627
305.635
305.644
305.652
305.661
305.21
305.216
305.223
305.229
305.236
305.243
305.25
305.257
305.264
305.271
305.279
305.286
305.294
305.302
305.213
305.22
305.227
305.233
305.24
305.247
305.255
305.262
305.27
305.277
305.285
305.293
305.301
305.309
305.219
305.225
305.232
305.238
305.246
305.253
305.26
305.267
305.275
305.282
305.29
305.298
305.306
305.314
305.223
305.23
305.236
305.243
305.251
305.258
305.265
305.273
305.28
305.288
305.296
305.304
305.312
305.321
305.229
305.235
305.242
305.249
305.256
305.263
305.271
305.278
305.286
305.294
305.301
305.31
305.318
305.326
305.234
305.24
305.247
305.254
305.261
305.269
305.276
305.284
305.291
305.299
305.307
305.315
305.323
305.331
305.239
305.246
305.252
305.26
305.267
305.274
305.282
305.289
305.297
305.305
305.312
305.32
305.328
305.336
305.244
305.251
305.258
305.265
305.272
305.28
305.287
305.295
305.302
305.31
305.318
305.326
305.333
305.341
305.25
305.257
305.264
305.271
305.278
305.285
305.293
305.3
305.308
305.315
305.323
305.331
305.338
305.346
305.256
305.263
305.269
305.277
305.284
305.291
305.299
305.306
305.314
305.321
305.328
305.336
305.343
305.35
305.261
305.268
305.275
305.282
305.29
305.297
305.304
305.312
305.319
305.327
305.334
305.341
305.348
305.355
305.268
305.275
305.281
305.289
305.296
305.303
305.31
305.318
305.325
305.332
305.339
305.346
305.353
305.36
305.273
305.281
305.287
305.295
305.302
305.309
305.316
305.324
305.331
305.338
305.345
305.352
305.359
305.365
305.28
305.288
305.294
305.302
305.308
305.316
305.323
305.33
305.337
305.344
305.35
305.357
305.364
305.371
304.865
304.87
304.876
304.882
304.887
304.893
304.898
304.904
304.909
304.914
304.918
304.923
304.928
304.933
304.873
304.877
304.883
304.889
304.895
304.901
304.907
304.912
304.918
304.923
304.928
304.932
304.937
304.942
304.881
304.885
304.892
304.898
304.904
304.91
304.915
304.921
304.926
304.931
304.936
304.941
304.945
304.951
304.888
304.893
304.9
304.906
304.912
304.918
304.924
304.929
304.934
304.94
304.945
304.95
304.954
304.96
304.896
304.901
304.908
304.914
304.92
304.926
304.932
304.937
304.943
304.948
304.953
304.958
304.963
304.968
304.903
304.909
304.916
304.922
304.928
304.934
304.94
304.946
304.951
304.956
304.961
304.966
304.971
304.976
304.911
304.917
304.924
304.93
304.936
304.942
304.948
304.954
304.959
304.964
304.969
304.974
304.979
304.984
304.918
304.925
304.931
304.938
304.944
304.95
304.956
304.961
304.967
304.972
304.977
304.982
304.987
304.991
304.926
304.933
304.939
304.945
304.951
304.957
304.963
304.969
304.974
304.979
304.984
304.989
304.994
304.998
304.933
304.94
304.946
304.953
304.959
304.965
304.971
304.976
304.981
304.986
304.991
304.996
305.001
305.005
304.941
304.948
304.954
304.96
304.966
304.972
304.978
304.983
304.988
304.993
304.998
305.003
305.007
305.011
304.948
304.955
304.961
304.968
304.973
304.979
304.985
304.99
304.995
305
305.005
305.009
305.014
305.017
304.956
304.962
304.968
304.975
304.981
304.986
304.992
304.997
305.002
305.007
305.011
305.015
305.02
305.023
304.964
304.97
304.976
304.982
304.988
304.994
304.999
305.004
305.008
305.013
305.017
305.021
305.026
305.03
304.538
304.54
304.544
304.548
304.552
304.555
304.558
304.561
304.564
304.566
304.568
304.57
304.571
304.574
304.545
304.548
304.552
304.556
304.56
304.563
304.567
304.57
304.572
304.575
304.577
304.578
304.58
304.582
304.553
304.556
304.56
304.564
304.568
304.571
304.575
304.578
304.58
304.583
304.585
304.586
304.588
304.59
304.56
304.564
304.568
304.572
304.576
304.58
304.583
304.586
304.588
304.591
304.593
304.595
304.596
304.598
304.567
304.571
304.576
304.58
304.584
304.587
304.591
304.594
304.596
304.599
304.601
304.603
304.604
304.606
304.575
304.579
304.583
304.587
304.591
304.595
304.598
304.601
304.604
304.606
304.609
304.61
304.612
304.613
304.582
304.586
304.591
304.595
304.599
304.603
304.606
304.609
304.612
304.614
304.616
304.618
304.619
304.621
304.588
304.593
304.598
304.602
304.606
304.61
304.613
304.616
304.619
304.621
304.623
304.625
304.627
304.628
304.595
304.6
304.605
304.609
304.613
304.617
304.62
304.623
304.626
304.628
304.63
304.632
304.633
304.635
304.602
304.607
304.611
304.616
304.619
304.623
304.626
304.629
304.632
304.634
304.636
304.638
304.64
304.641
304.608
304.613
304.618
304.622
304.626
304.629
304.633
304.635
304.638
304.64
304.642
304.644
304.646
304.647
304.615
304.62
304.624
304.628
304.632
304.635
304.638
304.641
304.644
304.646
304.648
304.65
304.651
304.652
304.621
304.626
304.63
304.634
304.638
304.641
304.644
304.647
304.649
304.651
304.653
304.655
304.656
304.658
304.628
304.632
304.636
304.64
304.644
304.647
304.649
304.652
304.654
304.656
304.658
304.66
304.661
304.663
304.232
304.233
304.235
304.237
304.238
304.24
304.241
304.241
304.242
304.242
304.242
304.242
304.242
304.242
304.238
304.239
304.241
304.243
304.244
304.245
304.247
304.247
304.248
304.248
304.248
304.248
304.247
304.247
304.243
304.245
304.247
304.248
304.25
304.251
304.252
304.253
304.254
304.254
304.254
304.253
304.253
304.253
304.249
304.25
304.252
304.254
304.256
304.257
304.258
304.259
304.259
304.26
304.259
304.259
304.258
304.258
304.254
304.256
304.258
304.26
304.261
304.263
304.264
304.265
304.265
304.265
304.265
304.265
304.264
304.263
304.259
304.261
304.263
304.265
304.267
304.268
304.269
304.27
304.27
304.27
304.27
304.27
304.269
304.268
304.264
304.266
304.268
304.27
304.272
304.273
304.274
304.275
304.275
304.276
304.275
304.275
304.274
304.273
304.268
304.271
304.273
304.275
304.277
304.278
304.279
304.28
304.28
304.28
304.28
304.28
304.279
304.278
304.273
304.276
304.278
304.28
304.281
304.283
304.284
304.284
304.285
304.285
304.285
304.284
304.284
304.283
304.277
304.28
304.282
304.284
304.286
304.287
304.288
304.289
304.289
304.289
304.289
304.289
304.288
304.287
304.281
304.284
304.286
304.288
304.29
304.291
304.292
304.293
304.293
304.293
304.293
304.293
304.292
304.291
304.285
304.288
304.29
304.292
304.293
304.295
304.295
304.296
304.296
304.297
304.296
304.296
304.296
304.295
304.289
304.292
304.294
304.295
304.297
304.298
304.299
304.299
304.3
304.3
304.3
304.299
304.299
304.298
304.293
304.296
304.297
304.299
304.3
304.301
304.302
304.302
304.302
304.302
304.302
304.302
304.302
304.301
303.948
303.948
303.948
303.948
303.948
303.948
303.948
303.947
303.947
303.946
303.945
303.944
303.942
303.941
303.951
303.951
303.951
303.952
303.951
303.951
303.951
303.95
303.95
303.949
303.948
303.946
303.945
303.943
303.954
303.954
303.954
303.955
303.955
303.955
303.954
303.954
303.953
303.952
303.951
303.949
303.948
303.946
303.957
303.957
303.957
303.958
303.958
303.958
303.957
303.957
303.956
303.955
303.954
303.952
303.95
303.949
303.959
303.96
303.96
303.961
303.961
303.96
303.96
303.959
303.959
303.958
303.956
303.955
303.953
303.951
303.962
303.963
303.963
303.963
303.963
303.963
303.963
303.962
303.961
303.96
303.959
303.957
303.955
303.954
303.964
303.965
303.966
303.966
303.966
303.966
303.965
303.965
303.964
303.963
303.961
303.96
303.958
303.956
303.967
303.967
303.968
303.968
303.968
303.968
303.968
303.967
303.966
303.965
303.964
303.962
303.96
303.958
303.969
303.97
303.97
303.97
303.97
303.97
303.97
303.969
303.968
303.967
303.966
303.964
303.962
303.96
303.971
303.972
303.972
303.972
303.972
303.972
303.971
303.971
303.97
303.969
303.967
303.966
303.964
303.962
303.972
303.973
303.974
303.974
303.974
303.973
303.973
303.972
303.971
303.97
303.969
303.967
303.966
303.964
303.974
303.975
303.975
303.975
303.975
303.975
303.974
303.974
303.973
303.972
303.97
303.969
303.967
303.965
303.975
303.976
303.976
303.976
303.976
303.976
303.975
303.975
303.974
303.973
303.971
303.97
303.969
303.967
303.976
303.977
303.977
303.977
303.977
303.976
303.976
303.975
303.974
303.973
303.972
303.971
303.969
303.968
303.678
303.678
303.678
303.678
303.677
303.676
303.676
303.675
303.674
303.672
303.671
303.669
303.68
303.68
303.68
303.679
303.679
303.678
303.677
303.676
303.675
303.673
303.672
303.67
303.681
303.681
303.681
303.68
303.68
303.679
303.678
303.677
303.676
303.675
303.673
303.671
303.682
303.682
303.682
303.682
303.681
303.68
303.679
303.678
303.677
303.676
303.674
303.672
303.683
303.683
303.683
303.682
303.682
303.681
303.68
303.679
303.678
303.676
303.675
303.673
303.684
303.684
303.684
303.683
303.683
303.682
303.681
303.68
303.679
303.677
303.675
303.674
303.685
303.684
303.684
303.684
303.683
303.682
303.681
303.68
303.679
303.678
303.676
303.674
303.685
303.685
303.685
303.684
303.684
303.683
303.682
303.681
303.679
303.678
303.676
303.675
303.685
303.685
303.685
303.684
303.684
303.683
303.682
303.681
303.68
303.678
303.677
303.675
303.685
303.685
303.685
303.684
303.684
303.683
303.682
303.681
303.68
303.678
303.677
303.675
303.685
303.685
303.685
303.684
303.684
303.683
303.682
303.681
303.68
303.678
303.676
303.675
303.685
303.685
303.684
303.684
303.683
303.683
303.682
303.68
303.679
303.678
303.676
303.674
303.684
303.684
303.684
303.683
303.683
303.682
303.681
303.68
303.679
303.677
303.676
303.674
303.683
303.683
303.683
303.682
303.682
303.681
303.68
303.679
303.678
303.677
303.675
303.673
307.49
307.462
307.431
307.403
307.377
307.352
307.489
307.446
307.405
307.365
307.326
307.286
307.485
307.434
307.384
307.335
307.287
307.237
307.489
307.431
307.375
307.321
307.266
307.209
307.379
307.356
307.33
307.309
307.289
307.273
307.369
307.335
307.301
307.268
307.239
307.21
307.36
307.317
307.274
307.233
307.194
307.155
307.357
307.306
307.256
307.207
307.16
307.113
307.356
307.3
307.245
307.191
307.139
307.088
307.358
307.299
307.242
307.186
307.132
307.08
307.363
307.302
307.245
307.19
307.138
307.088
307.363
307.347
307.328
307.314
307.301
307.29
307.352
307.327
307.302
307.278
307.257
307.236
307.342
307.309
307.275
307.243
307.212
307.183
307.333
307.293