/*--------------------------------*- C++ -*----------------------------------*\
| =========                 |                                                 |
| \\      /  F ield         | OpenFOAM: The Open Source CFD Toolbox           |
|  \\    /   O peration     | Version:  v2106                                 |
|   \\  /    A nd           | Website:  www.openfoam.com                      |
|    \\/     M anipulation  |                                                 |
\*---------------------------------------------------------------------------*/
FoamFile
{
    version     2.0;
    format      ascii;
    arch        "LSB;label=32;scalar=64";
    class       volScalarField;
    location    "0.000179";
    object      alphat;
}
// * * * * * * * * * * * * * * * * * * * * * * * * * * * * * * * * * * * * * //

dimensions      [1 -1 -1 0 0 0 0];

internalField   nonuniform List<scalar> 
144746
(
0.00022764
0.000184806
0.00014099
9.95779e-05
6.65693e-05
4.55828e-05
3.82998e-05
4.07081e-05
5.53007e-05
8.41648e-05
0.000127036
0.000174161
0.000202285
0.000201919
0.000180757
0.000137384
9.55306e-05
6.19311e-05
3.98693e-05
2.69214e-05
2.23579e-05
2.48738e-05
3.57142e-05
5.90361e-05
9.64395e-05
0.000141711
0.000173482
0.000177606
0.000119197
8.2717e-05
5.22402e-05
3.11646e-05
1.9614e-05
1.33006e-05
1.11761e-05
1.33749e-05
2.18097e-05
3.99679e-05
7.0325e-05
0.000108788
0.000140459
0.000150014
6.79378e-05
4.17333e-05
2.37133e-05
1.28699e-05
7.80088e-06
5.42708e-06
5.04993e-06
7.08835e-06
1.31802e-05
2.60626e-05
4.81868e-05
7.83868e-05
0.000106637
0.000120564
3.60701e-05
1.91189e-05
9.45273e-06
4.48065e-06
2.53869e-06
1.9081e-06
2.26324e-06
4.13052e-06
8.93861e-06
1.88166e-05
3.51792e-05
5.71817e-05
7.87928e-05
9.37425e-05
2.05324e-05
9.431e-06
3.90276e-06
1.59078e-06
8.36628e-07
7.5716e-07
1.3086e-06
3.02052e-06
7.04415e-06
1.4863e-05
2.72022e-05
4.307e-05
5.95595e-05
7.44798e-05
1.51965e-05
6.42203e-06
2.49788e-06
1.07274e-06
6.02436e-07
6.54196e-07
1.30314e-06
3.01514e-06
6.66444e-06
1.3229e-05
2.30057e-05
3.52822e-05
5.0134e-05
6.704e-05
1.57901e-05
6.69458e-06
3.01288e-06
1.60606e-06
1.06927e-06
1.1462e-06
1.928e-06
3.77637e-06
7.30565e-06
1.3114e-05
2.13677e-05
3.28155e-05
5.0143e-05
7.16859e-05
2.0996e-05
9.18618e-06
4.85915e-06
3.07457e-06
2.28402e-06
2.29596e-06
3.19411e-06
5.19572e-06
8.67323e-06
1.40451e-05
2.19565e-05
3.72104e-05
6.044e-05
9.07415e-05
3.46784e-05
1.47627e-05
8.41879e-06
6.01299e-06
4.78605e-06
4.52507e-06
5.38631e-06
7.49736e-06
1.11186e-05
1.69745e-05
2.87503e-05
5.24083e-05
8.42572e-05
0.000122903
6.67567e-05
3.08446e-05
1.50012e-05
1.13031e-05
9.67245e-06
8.99177e-06
9.6623e-06
1.20192e-05
1.66376e-05
2.68535e-05
4.74069e-05
8.12053e-05
0.000120736
0.000160558
0.000110824
6.98113e-05
3.71711e-05
2.23688e-05
1.84232e-05
1.74536e-05
1.83365e-05
2.20057e-05
3.04102e-05
4.88131e-05
7.89487e-05
0.000119321
0.000156842
0.00018462
0.000151725
0.000118246
7.62522e-05
4.56526e-05
3.25145e-05
2.96754e-05
3.16806e-05
3.83629e-05
5.23313e-05
7.79118e-05
0.000111431
0.000145792
0.000170033
0.000182216
0.000182187
0.000163724
0.00012538
8.44787e-05
5.78881e-05
4.68875e-05
4.69173e-05
5.53925e-05
7.25513e-05
9.90183e-05
0.000125597
0.000146712
0.000159879
0.000167655
0.00021334
0.000167792
0.000123592
8.44597e-05
5.58932e-05
3.8487e-05
3.20015e-05
3.4374e-05
4.86638e-05
7.68557e-05
0.000117915
0.000164122
0.000197209
0.000203929
0.000163771
0.000121295
8.24126e-05
5.32316e-05
3.48415e-05
2.38218e-05
1.90485e-05
2.0394e-05
3.03439e-05
5.24544e-05
8.70641e-05
0.000128549
0.000161695
0.000172526
0.000105281
7.16207e-05
4.50644e-05
2.76194e-05
1.792e-05
1.2328e-05
9.93991e-06
1.12472e-05
1.8709e-05
3.53561e-05
6.23846e-05
9.57172e-05
0.000125687
0.000140382
5.74078e-05
3.44659e-05
1.99862e-05
1.15424e-05
7.36731e-06
5.19487e-06
4.57396e-06
6.09129e-06
1.15997e-05
2.35195e-05
4.27944e-05
6.78886e-05
9.21302e-05
0.00010793
2.79747e-05
1.43667e-05
7.41518e-06
3.89917e-06
2.40759e-06
1.83045e-06
2.03706e-06
3.62382e-06
8.01761e-06
1.70713e-05
3.1413e-05
4.94775e-05
6.71669e-05
8.10524e-05
1.43928e-05
6.31883e-06
2.68675e-06
1.20614e-06
7.04701e-07
6.58995e-07
1.12419e-06
2.64466e-06
6.30805e-06
1.33884e-05
2.41789e-05
3.72325e-05
5.02751e-05
6.24859e-05
1.02646e-05
4.13483e-06
1.54142e-06
6.29728e-07
3.61541e-07
4.52058e-07
1.01141e-06
2.50002e-06
5.7254e-06
1.15038e-05
1.99253e-05
2.99896e-05
4.11146e-05
5.47888e-05
1.0947e-05
4.44934e-06
1.82473e-06
8.76447e-07
5.7613e-07
7.02259e-07
1.35344e-06
2.89106e-06
5.88183e-06
1.08269e-05
1.77661e-05
2.66196e-05
3.94876e-05
5.73339e-05
1.49689e-05
6.28618e-06
2.98213e-06
1.74133e-06
1.28917e-06
1.40783e-06
2.15576e-06
3.77389e-06
6.63485e-06
1.11113e-05
1.76175e-05
2.82893e-05
4.65038e-05
7.23069e-05
2.45981e-05
1.02287e-05
5.3118e-06
3.58727e-06
2.8692e-06
2.89034e-06
3.70601e-06
5.46532e-06
8.45101e-06
1.3286e-05
2.18008e-05
3.91567e-05
6.45078e-05
9.80527e-05
4.79764e-05
2.03459e-05
9.6191e-06
7.12619e-06
6.08273e-06
5.94734e-06
6.86068e-06
9.05031e-06
1.30158e-05
2.02971e-05
3.47818e-05
6.06014e-05
9.327e-05
0.000130557
8.61227e-05
5.04515e-05
2.53338e-05
1.45685e-05
1.20763e-05
1.17855e-05
1.31188e-05
1.64482e-05
2.27884e-05
3.57039e-05
5.73564e-05
8.9567e-05
0.00012563
0.000159898
0.000128847
9.25966e-05
5.62428e-05
3.14271e-05
2.2275e-05
2.08957e-05
2.29383e-05
2.82945e-05
3.8454e-05
5.66975e-05
8.32911e-05
0.00011712
0.000148357
0.000172257
0.000168186
0.000137451
9.7865e-05
6.22728e-05
4.16621e-05
3.4261e-05
3.51726e-05
4.2028e-05
5.52076e-05
7.7074e-05
0.000104464
0.000131857
0.000153027
0.000167451
0.000159438
0.000121364
8.73373e-05
6.02346e-05
4.14e-05
2.9627e-05
2.41429e-05
2.50969e-05
3.54759e-05
5.72945e-05
8.93727e-05
0.000126741
0.000161221
0.000182626
0.000115951
8.51288e-05
5.77209e-05
3.82584e-05
2.61072e-05
1.85534e-05
1.46954e-05
1.48709e-05
2.20374e-05
3.90413e-05
6.56045e-05
9.75469e-05
0.000126934
0.000145278
7.26513e-05
4.9885e-05
3.17854e-05
2.02723e-05
1.37633e-05
9.80986e-06
7.829e-06
8.38205e-06
1.38287e-05
2.6788e-05
4.74287e-05
7.24349e-05
9.69073e-05
0.000114627
3.8948e-05
2.35798e-05
1.39884e-05
8.62645e-06
5.813e-06
4.2315e-06
3.63201e-06
4.60125e-06
8.80978e-06
1.83284e-05
3.36529e-05
5.24945e-05
7.11741e-05
8.71802e-05
1.82971e-05
9.30753e-06
4.96121e-06
2.89151e-06
1.93784e-06
1.50463e-06
1.59791e-06
2.75719e-06
6.17544e-06
1.33571e-05
2.48449e-05
3.913e-05
5.33152e-05
6.61268e-05
9.03849e-06
3.76581e-06
1.62296e-06
8.14779e-07
5.34863e-07
5.1029e-07
8.45063e-07
2.00813e-06
4.87884e-06
1.05011e-05
1.92845e-05
3.01897e-05
4.10503e-05
5.12005e-05
6.4869e-06
2.39744e-06
8.3084e-07
3.23491e-07
1.98223e-07
2.83979e-07
6.97901e-07
1.83118e-06
4.34047e-06
8.93758e-06
1.5875e-05
2.44975e-05
3.34557e-05
4.31202e-05
7.09201e-06
2.63981e-06
9.50493e-07
3.94652e-07
2.56293e-07
3.72323e-07
8.41474e-07
1.9785e-06
4.2708e-06
8.20388e-06
1.39373e-05
2.11876e-05
2.97107e-05
4.14004e-05
9.76347e-06
3.78401e-06
1.5741e-06
8.28508e-07
6.07076e-07
7.32461e-07
1.26513e-06
2.43875e-06
4.61802e-06
8.18266e-06
1.33966e-05
2.06799e-05
3.14779e-05
4.88285e-05
1.57208e-05
6.20783e-06
2.93667e-06
1.8707e-06
1.49875e-06
1.6024e-06
2.2187e-06
3.50987e-06
5.78967e-06
9.55212e-06
1.56474e-05
2.6042e-05
4.17058e-05
6.49769e-05
3.03033e-05
1.18399e-05
5.68356e-06
4.08664e-06
3.48724e-06
3.55648e-06
4.34839e-06
6.04775e-06
9.11578e-06
1.44824e-05
2.39396e-05
3.95812e-05
6.0881e-05
8.73877e-05
5.62253e-05
3.0779e-05
1.46375e-05
8.50755e-06
7.44907e-06
7.57292e-06
8.83609e-06
1.15623e-05
1.64517e-05
2.48174e-05
3.8816e-05
5.92473e-05
8.54298e-05
0.000112478
8.95309e-05
5.90965e-05
3.33625e-05
1.81753e-05
1.41676e-05
1.43599e-05
1.63939e-05
2.06106e-05
2.78371e-05
3.95026e-05
5.70512e-05
8.07024e-05
0.000108719
0.000135088
0.000121717
8.99222e-05
6.0113e-05
3.72443e-05
2.64078e-05
2.42616e-05
2.65298e-05
3.21055e-05
4.13428e-05
5.61593e-05
7.71125e-05
0.000101578
0.000126506
0.000151689
0.000188568
0.000195781
0.0002072
0.000225804
0.000240592
0.000196903
0.000164144
0.000170496
0.000184799
0.000212333
0.000248684
0.000229056
0.000142477
0.000147293
0.000160244
0.0001918
0.000248763
0.000258419
0.000119555
0.000124678
0.000136952
0.000169503
0.000240174
0.000283445
9.98424e-05
0.000106723
0.000120238
0.000152553
0.000229137
0.000302845
8.6006e-05
9.69727e-05
0.000113666
0.000145661
0.000221046
0.000315435
8.40165e-05
9.92822e-05
0.000118912
0.000150008
0.00022008
0.000321561
9.50437e-05
0.00011472
0.000135812
0.000164259
0.000225493
0.000319807
0.00012017
0.000142416
0.000161605
0.000184986
0.000234981
0.00030988
0.000152649
0.000172153
0.000185471
0.000202413
0.000239229
0.000294943
0.000179362
0.000189005
0.000195156
0.000207326
0.000233717
0.000275705
0.00018725
0.000188229
0.000191344
0.000202053
0.000222064
0.000253331
0.000178468
0.000177931
0.000182177
0.000194106
0.000210775
0.000230727
0.000164925
0.000166738
0.000173392
0.000187314
0.000203298
0.000207687
0.000190375
0.000194088
0.000198844
0.000207859
0.000219478
0.000208772
0.000161294
0.00016526
0.00017367
0.000191569
0.0002229
0.000237147
0.000136018
0.00013964
0.000147907
0.000169714
0.000217253
0.000260347
0.000110153
0.000115435
0.000124923
0.000148553
0.000205528
0.000277889
8.81802e-05
9.6178e-05
0.000108807
0.000134504
0.000196051
0.000290274
7.31649e-05
8.49031e-05
0.000102149
0.000130766
0.000194165
0.000297253
6.93069e-05
8.46054e-05
0.00010562
0.000136056
0.000200625
0.000301243
7.72156e-05
9.60508e-05
0.000119819
0.000150214
0.000210866
0.000301084
9.74636e-05
0.000119531
0.000144072
0.000170812
0.000221535
0.000296872
0.000125689
0.000149021
0.000170723
0.000190465
0.000226292
0.000288515
0.000154343
0.000173014
0.000187169
0.000198372
0.000219179
0.000274996
0.000172864
0.000182062
0.000187927
0.000192882
0.000204613
0.000256734
0.000175189
0.000177058
0.000178257
0.000181579
0.000191563
0.000234421
0.000165068
0.000164579
0.00016514
0.000170858
0.000183457
0.000209003
0.000184688
0.000193492
0.00019417
0.000191671
0.000193442
0.000208245
0.000148072
0.000158104
0.000165434
0.000173704
0.000191413
0.000229342
0.000121047
0.000130782
0.000139866
0.000152983
0.000182231
0.000244366
9.58905e-05
0.000106518
0.000117657
0.000134839
0.000171732
0.000254717
7.56027e-05
8.75706e-05
0.000101779
0.000123294
0.000167278
0.000262524
6.09096e-05
7.43208e-05
9.25932e-05
0.000118878
0.000171329
0.000268454
5.41676e-05
6.9594e-05
9.13665e-05
0.000121234
0.000180895
0.000272349
5.5932e-05
7.29407e-05
9.75889e-05
0.000129868
0.00019271
0.000273754
6.59801e-05
8.54296e-05
0.000112801
0.000145679
0.000203325
0.000272058
8.31442e-05
0.000105128
0.000134135
0.00016506
0.000209907
0.00026678
0.000103917
0.000127651
0.000155607
0.000178923
0.000205932
0.00025717
0.000125406
0.000147433
0.000169624
0.000182427
0.00019276
0.00024259
0.000143816
0.000160904
0.000174484
0.000178155
0.000180298
0.000223262
0.000154651
0.000166152
0.000171766
0.000170126
0.000172248
0.000197766
0.000155307
0.000159536
0.000167811
0.000183688
0.000201571
0.000215817
0.000143021
0.000144334
0.000151964
0.000172276
0.000206552
0.000248194
0.000132168
0.000130195
0.000134869
0.000156847
0.000203742
0.000276553
0.000117841
0.000115946
0.000120136
0.00014236
0.000196876
0.000299741
0.000100792
0.000102153
0.000109449
0.000133544
0.000191747
0.000316996
8.25868e-05
9.0623e-05
0.000104741
0.000132483
0.00019138
0.000327513
6.98923e-05
8.48914e-05
0.000106689
0.000139246
0.000198892
0.000331996
6.58283e-05
8.84562e-05
0.000117128
0.000153587
0.000212617
0.000330515
7.38173e-05
0.000104563
0.000138269
0.000175006
0.000227732
0.000321795
9.52247e-05
0.000132955
0.000167802
0.000198702
0.00023753
0.000305557
0.000127583
0.00016578
0.000194031
0.000213031
0.000234228
0.000283419
0.00016184
0.000189778
0.000205102
0.000211993
0.000220607
0.000258077
0.000183734
0.000197161
0.000201153
0.000201542
0.000204839
0.000231708
0.000185804
0.000189538
0.000188065
0.000188477
0.000192187
0.000205301
0.000152064
0.000152434
0.000154362
0.000163877
0.000181836
0.000214287
0.000139574
0.000138635
0.000141627
0.000154626
0.000184106
0.000241225
0.0001264
0.000125932
0.000128928
0.000143089
0.000180266
0.000263768
0.000108558
0.000111441
0.000117302
0.00013337
0.000174298
0.000281226
8.78585e-05
9.58375e-05
0.000107178
0.000127862
0.000171735
0.000293461
6.859e-05
8.14141e-05
9.96803e-05
0.000126606
0.000175037
0.000301769
5.59699e-05
7.24315e-05
9.68425e-05
0.000130194
0.000185136
0.000307442
5.09017e-05
7.18601e-05
0.00010165
0.000140471
0.000201971
0.000308879
5.57443e-05
8.28235e-05
0.0001179
0.000159385
0.000219313
0.000303827
7.2305e-05
0.000106568
0.00014606
0.000184737
0.000231605
0.000293068
9.94972e-05
0.000138105
0.000177458
0.000205597
0.000230091
0.000276349
0.000132982
0.000168341
0.000198317
0.000210606
0.000214924
0.00025514
0.000163054
0.000187898
0.000202298
0.000201169
0.000197198
0.000230422
0.000177802
0.000190825
0.000191614
0.000185421
0.000183185
0.000203489
0.000156758
0.00016372
0.000163687
0.000163411
0.000169945
0.000199197
0.000132449
0.000142867
0.000149745
0.000157699
0.000173289
0.000221801
0.000113318
0.00012684
0.000138045
0.000150076
0.000170954
0.000240794
9.28805e-05
0.000109211
0.000125342
0.00014269
0.000167354
0.000255974
7.30946e-05
9.13392e-05
0.000112397
0.000135796
0.000166684
0.000267436
5.64663e-05
7.48178e-05
9.94256e-05
0.000129431
0.000168771
0.000275813
4.5402e-05
6.33202e-05
8.98209e-05
0.000124764
0.000174316
0.000281712
3.91796e-05
5.73482e-05
8.53818e-05
0.000124454
0.000185251
0.000283185
3.85179e-05
5.90253e-05
8.96395e-05
0.000132487
0.000199172
0.000279648
4.55423e-05
6.98972e-05
0.00010473
0.000150693
0.000210846
0.000271219
6.06598e-05
8.87678e-05
0.000128938
0.000172852
0.00021494
0.000258322
8.21853e-05
0.000112341
0.000154493
0.000188749
0.000206747
0.000240894
0.00010793
0.000137859
0.000174485
0.000193445
0.000194226
0.000219932
0.000132159
0.000159136
0.000183481
0.000188083
0.000183806
0.000194279
0.00020298
0.000257288
0.000253361
0.000252659
0.000247922
0.000236152
0.00023761
0.00028519
0.000266316
0.000252408
0.000231553
0.000206469
0.000269622
0.000303857
0.000253585
0.000220034
0.000185363
0.000152812
0.000294826
0.000291046
0.000214471
0.000168366
0.000130749
0.000100076
0.000310351
0.000251872
0.00016672
0.000119557
8.65763e-05
6.1508e-05
0.000318218
0.000207013
0.000128794
8.74952e-05
6.03315e-05
3.96989e-05
0.000318081
0.000172556
0.00010675
7.26478e-05
5.00007e-05
3.15174e-05
0.000316208
0.000154083
9.88767e-05
7.1712e-05
5.24053e-05
3.34406e-05
0.000310636
0.000150326
0.000102362
8.19145e-05
6.56792e-05
4.37653e-05
0.000301309
0.00015686
0.000113771
9.99814e-05
8.94587e-05
6.58937e-05
0.000286546
0.000168717
0.000130581
0.000120834
0.000116673
9.88291e-05
0.000266237
0.000181286
0.000149379
0.000140846
0.00014057
0.000131003
0.000240509
0.00018811
0.000166131
0.00015839
0.000158706
0.00015474
0.000210993
0.000185575
0.000176382
0.000172863
0.000175649
0.000174912
0.000209859
0.000246286
0.000251064
0.000253254
0.000242844
0.00022373
0.000241882
0.000278565
0.000266893
0.000249304
0.000219605
0.000189486
0.00026829
0.000300693
0.000251799
0.000210726
0.000169203
0.000135964
0.000287015
0.000288483
0.000208694
0.000156208
0.000115195
8.58452e-05
0.000296516
0.000247063
0.000157387
0.000107115
7.35278e-05
4.99042e-05
0.00029948
0.000200646
0.000118078
7.52649e-05
4.8646e-05
2.99539e-05
0.000297473
0.000164614
9.68368e-05
6.14376e-05
3.89651e-05
2.27716e-05
0.000292631
0.00014407
9.05953e-05
6.14565e-05
4.09259e-05
2.42234e-05
0.000285594
0.000138091
9.56092e-05
7.22422e-05
5.22509e-05
3.20844e-05
0.000277933
0.000141586
0.000107648
9.17295e-05
7.40554e-05
4.87681e-05
0.000267602
0.000151225
0.000123179
0.000114799
0.000103603
7.87092e-05
0.000252507
0.000163959
0.000140182
0.000136735
0.000132506
0.000113028
0.000231986
0.000172901
0.000156232
0.000155371
0.000156043
0.000144078
0.00020729
0.000173826
0.000168398
0.000172886
0.00018031
0.000175583
0.000211676
0.000235073
0.000236422
0.000226895
0.000198369
0.000169034
0.000241982
0.000266039
0.000241743
0.000206063
0.000163538
0.000132732
0.000263374
0.000282144
0.000218141
0.000163052
0.000117802
9.07287e-05
0.000276345
0.000266093
0.000175665
0.000117149
7.81186e-05
5.58871e-05
0.000281273
0.000225523
0.000130533
7.97334e-05
5.02304e-05
3.23078e-05
0.000281616
0.000184242
9.89103e-05
5.73882e-05
3.45316e-05
1.96888e-05
0.000278949
0.000153797
8.50589e-05
4.97892e-05
2.93341e-05
1.56469e-05
0.000272807
0.000137681
8.45289e-05
5.26965e-05
3.18858e-05
1.70339e-05
0.000265054
0.000133917
9.2764e-05
6.31956e-05
4.02605e-05
2.22757e-05
0.000256833
0.000138617
0.000107087
8.13451e-05
5.63405e-05
3.30952e-05
0.000247462
0.000147815
0.000123854
0.000104128
8.10224e-05
5.53883e-05
0.000234175
0.000160517
0.000142091
0.000128844
0.000108943
8.28725e-05
0.00021641
0.00017078
0.000159286
0.000152248
0.000136878
0.0001133
0.000194835
0.000173993
0.000174514
0.000177897
0.000170004
0.000148957
0.000194498
0.000251659
0.000233658
0.000218456
0.000208799
0.000203748
0.000225717
0.000269138
0.000243752
0.000229601
0.000219419
0.000211853
0.00025609
0.00028595
0.000244571
0.000225131
0.000209101
0.000194602
0.000281666
0.000284195
0.000224897
0.000197273
0.000174355
0.000154585
0.000298749
0.000259606
0.000187574
0.000154267
0.000129842
0.000110602
0.00030815
0.000227307
0.000150072
0.000115503
9.33718e-05
7.69777e-05
0.00031242
0.000200881
0.000125331
9.26578e-05
7.29893e-05
5.82363e-05
0.000311948
0.000186542
0.000116531
8.69924e-05
6.95196e-05
5.49831e-05
0.000308565
0.00018658
0.000122125
9.67716e-05
8.16722e-05
6.52683e-05
0.000298495
0.000199636
0.000140423
0.000119524
0.000107683
8.9816e-05
0.000282436
0.000216707
0.000166884
0.000149418
0.000140607
0.000124256
0.000260202
0.000230516
0.000194354
0.000180341
0.000174768
0.000162063
0.000233273
0.000235066
0.000216249
0.000207638
0.000205823
0.000197276
0.000203145
0.000232306
0.000231732
0.000233527
0.0002392
0.00023633
0.000205893
0.000234476
0.00022527
0.000218006
0.0002109
0.000205861
0.000234647
0.000257409
0.000242777
0.000232285
0.000219986
0.000209445
0.000258826
0.000279167
0.000246508
0.000225598
0.000204014
0.000185662
0.000276733
0.000280914
0.000226303
0.0001936
0.000165006
0.000143437
0.000287018
0.000257353
0.000186155
0.000147796
0.00011983
0.000100464
0.000291345
0.000222727
0.000145003
0.000107571
8.39327e-05
6.79399e-05
0.000291889
0.000191818
0.000117303
8.34519e-05
6.32877e-05
4.95472e-05
0.000291149
0.000171325
0.000105782
7.62792e-05
5.87151e-05
4.55716e-05
0.000288361
0.000163516
0.000108194
8.41955e-05
6.87718e-05
5.40117e-05
0.000282752
0.000169765
0.000122293
0.000105222
9.29856e-05
7.54143e-05
0.000272998
0.00018542
0.000145874
0.000134552
0.00012642
0.000108334
0.000257764
0.000203112
0.000174024
0.000167202
0.000163153
0.000147336
0.000236616
0.00021392
0.000200228
0.00019884
0.000198415
0.000185885
0.000209928
0.000216002
0.000221323
0.000231538
0.000238829
0.00023078
0.000209435
0.000214147
0.000215086
0.000211777
0.000199665
0.000186535
0.000237659
0.000242119
0.000233906
0.00021578
0.000191533
0.000172325
0.000257868
0.000265816
0.000232311
0.000196853
0.000163252
0.000140808
0.000269544
0.000267545
0.000207496
0.000161751
0.000126052
0.000104774
0.000274148
0.000243784
0.000167028
0.000121491
9.08141e-05
7.26474e-05
0.000274739
0.000209918
0.000128718
8.84855e-05
6.43989e-05
4.94382e-05
0.000273175
0.000179806
0.000104388
6.95572e-05
4.98107e-05
3.69799e-05
0.000269723
0.000157098
9.47334e-05
6.47952e-05
4.73328e-05
3.49404e-05
0.000263916
0.000146192
9.67604e-05
7.14827e-05
5.48903e-05
4.13723e-05
0.000258407
0.000146165
0.000108534
8.91445e-05
7.31117e-05
5.67508e-05
0.000251864
0.000157776
0.000128802
0.000114855
9.96453e-05
8.03683e-05
0.000242708
0.000176248
0.00015531
0.000146485
0.000132567
0.000111021
0.000228746
0.000192799
0.000183568
0.000180439
0.00016845
0.000145989
0.000208629
0.000202009
0.000210703
0.000219666
0.000213368
0.000190687
6.82002e-05
5.19337e-05
3.81454e-05
2.82173e-05
2.19096e-05
1.76863e-05
1.50801e-05
1.4142e-05
1.68265e-05
2.51087e-05
3.95998e-05
6.00387e-05
8.62446e-05
0.000116524
4.33447e-05
3.21386e-05
2.27849e-05
1.64581e-05
1.26564e-05
1.00845e-05
8.46702e-06
8.00563e-06
1.02739e-05
1.72427e-05
2.98169e-05
4.72258e-05
6.81436e-05
9.06938e-05
2.49385e-05
1.70423e-05
1.1472e-05
8.09959e-06
6.15113e-06
4.84736e-06
4.08722e-06
4.14914e-06
6.18268e-06
1.17996e-05
2.19486e-05
3.60423e-05
5.27764e-05
7.08394e-05
1.26676e-05
7.40078e-06
4.59821e-06
3.17786e-06
2.40739e-06
1.91057e-06
1.70988e-06
2.10126e-06
3.90734e-06
8.34531e-06
1.62981e-05
2.75413e-05
4.10987e-05
5.59119e-05
6.06097e-06
2.78153e-06
1.48162e-06
9.71761e-07
7.3754e-07
6.20486e-07
6.86777e-07
1.2068e-06
2.79632e-06
6.36693e-06
1.2683e-05
2.17711e-05
3.29487e-05
4.53672e-05
3.46482e-06
1.21717e-06
4.72823e-07
2.50488e-07
1.84456e-07
1.95173e-07
3.53639e-07
8.99155e-07
2.32115e-06
5.31538e-06
1.04968e-05
1.7999e-05
2.73689e-05
3.79264e-05
2.90174e-06
9.12264e-07
2.70344e-07
9.22383e-08
5.97972e-08
1.04049e-07
2.92865e-07
8.42126e-07
2.15795e-06
4.7884e-06
9.21586e-06
1.56132e-05
2.37158e-05
3.31271e-05
3.28016e-06
1.05631e-06
3.15948e-07
1.05907e-07
6.90899e-08
1.25595e-07
3.37905e-07
9.03432e-07
2.16794e-06
4.5729e-06
8.50054e-06
1.41277e-05
2.13411e-05
3.00238e-05
4.34801e-06
1.4869e-06
5.26191e-07
2.42766e-07
1.80692e-07
2.47874e-07
4.93568e-07
1.09621e-06
2.3553e-06
4.63848e-06
8.27387e-06
1.34693e-05
2.03552e-05
2.93723e-05
6.40504e-06
2.37392e-06
1.07086e-06
6.56792e-07
5.39765e-07
6.13503e-07
9.12146e-07
1.58661e-06
2.90072e-06
5.19409e-06
8.83256e-06
1.41991e-05
2.1838e-05
3.21436e-05
1.07461e-05
4.34873e-06
2.33771e-06
1.70148e-06
1.48763e-06
1.56998e-06
1.97714e-06
2.84564e-06
4.45442e-06
7.22687e-06
1.17463e-05
1.86989e-05
2.80963e-05
3.98688e-05
1.99256e-05
9.3951e-06
4.9899e-06
3.96848e-06
3.65895e-06
3.80685e-06
4.46233e-06
5.8001e-06
8.2022e-06
1.22499e-05
1.87675e-05
2.79607e-05
3.95584e-05
5.25992e-05
3.47922e-05
1.8716e-05
1.05633e-05
8.21885e-06
7.90869e-06
8.27175e-06
9.41325e-06
1.15761e-05
1.52634e-05
2.11261e-05
2.98067e-05
4.14136e-05
5.58546e-05
7.06873e-05
4.99903e-05
3.202e-05
2.12636e-05
1.61771e-05
1.51101e-05
1.58211e-05
1.76438e-05
2.08776e-05
2.60422e-05
3.38124e-05
4.45167e-05
5.87656e-05
7.66457e-05
9.63147e-05
3.17114e-05
2.54781e-05
2.01188e-05
1.59108e-05
1.34344e-05
1.17362e-05
1.05923e-05
9.89884e-06
1.04553e-05
1.35932e-05
2.05188e-05
3.13753e-05
4.61051e-05
6.57045e-05
1.89592e-05
1.43245e-05
1.08096e-05
8.41681e-06
7.0689e-06
6.1145e-06
5.47396e-06
5.19102e-06
5.94015e-06
8.89434e-06
1.52775e-05
2.54236e-05
3.89688e-05
5.58599e-05
1.03514e-05
6.83054e-06
4.81891e-06
3.69455e-06
3.10206e-06
2.67056e-06
2.41171e-06
2.45203e-06
3.31663e-06
5.92864e-06
1.13531e-05
2.00787e-05
3.18659e-05
4.64581e-05
5.24744e-06
2.77866e-06
1.74342e-06
1.30132e-06
1.09217e-06
9.52583e-07
9.19145e-07
1.1333e-06
1.99597e-06
4.21874e-06
8.68249e-06
1.59429e-05
2.60003e-05
3.85577e-05
2.81397e-06
1.10706e-06
5.45327e-07
3.70472e-07
3.05231e-07
2.84179e-07
3.45075e-07
6.1958e-07
1.42958e-06
3.34136e-06
7.07736e-06
1.31994e-05
2.18348e-05
3.28209e-05
1.92909e-06
5.99783e-07
2.01777e-07
9.79739e-08
7.3948e-08
8.85222e-08
1.77996e-07
4.66603e-07
1.23332e-06
2.95026e-06
6.20849e-06
1.15128e-05
1.90599e-05
2.87552e-05
1.74181e-06
5.14982e-07
1.41943e-07
4.32485e-08
2.68996e-08
5.15218e-08
1.53153e-07
4.53882e-07
1.20821e-06
2.8243e-06
5.79625e-06
1.05584e-05
1.73264e-05
2.61164e-05
1.94422e-06
5.95619e-07
1.68059e-07
5.33658e-08
3.50435e-08
6.56798e-08
1.81795e-07
5.05714e-07
1.27616e-06
2.85365e-06
5.65697e-06
1.00544e-05
1.62529e-05
2.43473e-05
2.45996e-06
8.04206e-07
2.74241e-07
1.25272e-07
9.66605e-08
1.34391e-07
2.72879e-07
6.34566e-07
1.4463e-06
3.03272e-06
5.75189e-06
9.93262e-06
1.57892e-05
2.35126e-05
3.39761e-06
1.24684e-06
5.77763e-07
3.61634e-07
3.05595e-07
3.49395e-07
5.21589e-07
9.38672e-07
1.81181e-06
3.43458e-06
6.13217e-06
1.02096e-05
1.59231e-05
2.36624e-05
5.17288e-06
2.25563e-06
1.34792e-06
1.01047e-06
8.93089e-07
9.37767e-07
1.16935e-06
1.69304e-06
2.70688e-06
4.49544e-06
7.40253e-06
1.17683e-05
1.79792e-05
2.63048e-05
9.0205e-06
4.39144e-06
3.03301e-06
2.53919e-06
2.33363e-06
2.38486e-06
2.73071e-06
3.47875e-06
4.84172e-06
7.14313e-06
1.08007e-05
1.62326e-05
2.34417e-05
3.22653e-05
1.61399e-05
8.62457e-06
6.2161e-06
5.59377e-06
5.36628e-06
5.50505e-06
6.10103e-06
7.30024e-06
9.3811e-06
1.27448e-05
1.78915e-05
2.49236e-05
3.34474e-05
4.22322e-05
2.50468e-05
1.61119e-05
1.20248e-05
1.08958e-05
1.08142e-05
1.1281e-05
1.23661e-05
1.43065e-05
1.74719e-05
2.23502e-05
2.93912e-05
3.8434e-05
4.91514e-05
5.89471e-05
1.33192e-05
1.06601e-05
8.89577e-06
7.60471e-06
7.01137e-06
6.62279e-06
6.3756e-06
6.18119e-06
6.27803e-06
7.20275e-06
9.88659e-06
1.50525e-05
2.3137e-05
3.49674e-05
7.32961e-06
5.24625e-06
4.14189e-06
3.48391e-06
3.23467e-06
3.0627e-06
2.95108e-06
2.90589e-06
3.16951e-06
4.21299e-06
6.83917e-06
1.18275e-05
1.96999e-05
3.08809e-05
3.81794e-06
2.24436e-06
1.60854e-06
1.32257e-06
1.22898e-06
1.16707e-06
1.14679e-06
1.21268e-06
1.56562e-06
2.59185e-06
4.9514e-06
9.40806e-06
1.65838e-05
2.68978e-05
2.06997e-06
9.0233e-07
5.29061e-07
4.10027e-07
3.75247e-07
3.61219e-07
3.84407e-07
4.97855e-07
8.60337e-07
1.79087e-06
3.8385e-06
7.71524e-06
1.40947e-05
2.3421e-05
1.32473e-06
4.24743e-07
1.7111e-07
1.08263e-07
9.33961e-08
9.64031e-08
1.32837e-07
2.56112e-07
6.03859e-07
1.45581e-06
3.28782e-06
6.74442e-06
1.24769e-05
2.09247e-05
1.0444e-06
2.91731e-07
8.27027e-08
3.1593e-08
2.21524e-08
3.02477e-08
7.00139e-08
1.95438e-07
5.37626e-07
1.35754e-06
3.08384e-06
6.2836e-06
1.15281e-05
1.92212e-05
9.77844e-07
2.74809e-07
7.07941e-08
1.86481e-08
1.00037e-08
2.03139e-08
6.42117e-08
1.99019e-07
5.57978e-07
1.39471e-06
3.10233e-06
6.17481e-06
1.10956e-05
1.82214e-05
1.08013e-06
3.15914e-07
8.38422e-08
2.50295e-08
1.58817e-08
2.91079e-08
8.14292e-08
2.35815e-07
6.31784e-07
1.51938e-06
3.25989e-06
6.27828e-06
1.09812e-05
1.76512e-05
1.32261e-06
4.11082e-07
1.33264e-07
6.02955e-08
4.77279e-08
6.53533e-08
1.31756e-07
3.16967e-07
7.67649e-07
1.72951e-06
3.53311e-06
6.54797e-06
1.11148e-05
1.74695e-05
1.73475e-06
6.26292e-07
2.90276e-07
1.84803e-07
1.59794e-07
1.82481e-07
2.70919e-07
4.99544e-07
1.01671e-06
2.05785e-06
3.92371e-06
6.93466e-06
1.1365e-05
1.74423e-05
2.5073e-06
1.17129e-06
7.32178e-07
5.5685e-07
4.94755e-07
5.16888e-07
6.40916e-07
9.3723e-07
1.54574e-06
2.68887e-06
4.64647e-06
7.69772e-06
1.20903e-05
1.81208e-05
4.12972e-06
2.40637e-06
1.79485e-06
1.51e-06
1.37238e-06
1.3786e-06
1.55369e-06
1.96083e-06
2.72165e-06
4.04155e-06
6.1913e-06
9.44719e-06
1.40884e-05
2.04004e-05
7.13275e-06
4.7991e-06
3.95216e-06
3.57644e-06
3.36207e-06
3.3601e-06
3.62922e-06
4.24325e-06
5.31882e-06
7.06579e-06
9.75869e-06
1.36657e-05
1.89637e-05
2.54543e-05
1.21101e-05
8.95265e-06
7.69911e-06
7.33634e-06
7.21643e-06
7.35211e-06
7.85446e-06
8.86662e-06
1.05413e-05
1.31621e-05
1.70208e-05
2.22936e-05
2.85382e-05
3.51682e-05
5.42916e-06
4.09149e-06
3.43354e-06
3.11258e-06
3.12047e-06
3.20916e-06
3.30957e-06
3.37966e-06
3.49045e-06
3.84363e-06
4.93832e-06
7.35844e-06
1.16783e-05
1.86474e-05
2.82588e-06
1.8004e-06
1.40127e-06
1.24659e-06
1.25772e-06
1.30497e-06
1.36166e-06
1.41914e-06
1.55426e-06
1.96329e-06
3.06227e-06
5.39264e-06
9.54636e-06
1.6179e-05
1.48788e-06
7.21682e-07
4.84001e-07
4.14257e-07
4.15203e-07
4.32557e-07
4.64485e-07
5.2189e-07
6.72888e-07
1.08321e-06
2.08327e-06
4.16589e-06
7.96639e-06
1.42334e-05
8.95469e-07
3.06297e-07
1.49092e-07
1.13471e-07
1.10235e-07
1.16284e-07
1.36598e-07
1.89802e-07
3.34239e-07
7.07241e-07
1.58446e-06
3.42244e-06
6.87521e-06
1.27478e-05
6.48719e-07
1.75199e-07
5.44141e-08
2.84226e-08
2.44106e-08
2.78306e-08
4.3523e-08
9.15802e-08
2.26717e-07
5.75257e-07
1.39165e-06
3.1097e-06
6.35819e-06
1.1913e-05
5.43991e-07
1.4073e-07
3.50682e-08
1.01725e-08
5.90869e-09
9.00005e-09
2.37362e-08
7.12265e-08
2.07682e-07
5.60581e-07
1.38084e-06
3.08501e-06
6.24349e-06
1.15231e-05
5.22019e-07
1.39747e-07
3.3529e-08
7.75679e-09
3.47924e-09
7.11364e-09
2.36877e-08
7.73665e-08
2.30852e-07
6.21424e-07
1.50327e-06
3.26983e-06
6.41881e-06
1.14947e-05
5.8182e-07
1.60336e-07
3.93609e-08
1.08488e-08
6.56838e-09
1.16103e-08
3.27964e-08
9.93635e-08
2.83702e-07
7.35249e-07
1.70808e-06
3.56183e-06
6.72283e-06
1.16329e-05
7.06964e-07
2.04104e-07
6.13815e-08
2.69331e-08
2.16501e-08
2.9174e-08
5.84546e-08
1.45531e-07
3.73736e-07
9.02283e-07
1.97922e-06
3.92867e-06
7.11785e-06
1.19139e-05
9.05527e-07
3.10291e-07
1.39107e-07
8.80767e-08
7.72348e-08
8.83066e-08
1.31078e-07
2.47464e-07
5.28804e-07
1.13783e-06
2.31274e-06
4.34539e-06
7.55455e-06
1.22421e-05
1.29764e-06
6.12096e-07
3.81585e-07
2.87709e-07
2.55065e-07
2.66103e-07
3.30623e-07
4.90225e-07
8.3602e-07
1.5293e-06
2.80126e-06
4.91746e-06
8.14295e-06
1.2756e-05
2.20212e-06
1.36277e-06
1.02041e-06
8.43993e-07
7.55703e-07
7.51153e-07
8.44841e-07
1.07214e-06
1.51063e-06
2.31031e-06
3.69439e-06
5.91683e-06
9.22989e-06
1.39205e-05
3.98497e-06
2.91432e-06
2.42117e-06
2.14202e-06
1.9694e-06
1.93388e-06
2.06845e-06
2.40787e-06
3.01526e-06
4.02364e-06
5.62904e-06
8.07692e-06
1.16251e-05
1.6575e-05
7.03635e-06
5.64725e-06
4.96744e-06
4.66355e-06
4.48129e-06
4.46451e-06
4.69129e-06
5.22472e-06
6.13936e-06
7.58422e-06
9.71069e-06
1.27175e-05
1.67326e-05
2.17671e-05
2.38516e-06
1.64684e-06
1.32115e-06
1.20158e-06
1.24339e-06
1.35097e-06
1.48253e-06
1.60186e-06
1.72758e-06
1.9464e-06
2.52104e-06
3.82935e-06
6.31384e-06
1.05621e-05
1.20026e-06
6.60455e-07
4.7812e-07
4.26055e-07
4.41892e-07
4.82762e-07
5.3603e-07
5.91633e-07
6.76057e-07
8.79549e-07
1.416e-06
2.61054e-06
4.88516e-06
8.77232e-06
6.49781e-07
2.54262e-07
1.47964e-07
1.24908e-07
1.28191e-07
1.40104e-07
1.59773e-07
1.90713e-07
2.60379e-07
4.44225e-07
9.06022e-07
1.9227e-06
3.91595e-06
7.48863e-06
4.19872e-07
1.16828e-07
4.41503e-08
3.06158e-08
3.00064e-08
3.32519e-08
4.1758e-08
6.29164e-08
1.21083e-07
2.77315e-07
6.65083e-07
1.53565e-06
3.31644e-06
6.67018e-06
3.2132e-07
7.76855e-08
1.94865e-08
7.74499e-09
6.06763e-09
7.32717e-09
1.27487e-08
2.99709e-08
8.13911e-08