/*--------------------------------*- C++ -*----------------------------------*\
| =========                 |                                                 |
| \\      /  F ield         | OpenFOAM: The Open Source CFD Toolbox           |
|  \\    /   O peration     | Version:  v2106                                 |
|   \\  /    A nd           | Website:  www.openfoam.com                      |
|    \\/     M anipulation  |                                                 |
\*---------------------------------------------------------------------------*/
FoamFile
{
    version     2.0;
    format      ascii;
    arch        "LSB;label=32;scalar=64";
    class       volScalarField;
    location    "0.000179";
    object      p;
}
// * * * * * * * * * * * * * * * * * * * * * * * * * * * * * * * * * * * * * //

dimensions      [1 -1 -2 0 0 0 0];

internalField   nonuniform List<scalar> 
144746
(
200689
200280
199483
199007
198879
198791
198802
198767
198671
198607
198178
197942
197635
197979
200501
199976
199330
198928
198789
198646
198634
198523
198271
198082
197569
197370
197178
197625
200490
199941
199452
199026
198823
198646
198565
198378
198040
197714
197148
196831
196431
196642
200492
199899
199477
199048
198795
198603
198484
198255
197886
197480
196918
196529
196141
196175
200267
199752
199377
199025
198785
198595
198410
198132
197769
197297
196774
196349
196000
196034
200086
199647
199272
198940
198715
198524
198309
198003
197601
197142
196694
196318
196031
196052
199753
199404
199092
198827
198623
198413
198153
197818
197387
196980
196574
196271
196125
196214
199502
199185
198925
198686
198468
198230
197934
197583
197171
196797
196459
196204
196023
196038
199109
198885
198707
198503
198252
197984
197658
197304
196914
196560
196227
195996
195832
195990
198830
198625
198478
198291
198024
197721
197363
196997
196625
196273
195945
195761
195539
195676
198585
198361
198313
198071
197816
197475
197083
196686
196292
195909
195536
195305
195137
195394
198587
198162
198154
197919
197654
197328
196883
196429
196004
195613
195284
195123
195108
195327
198747
198092
198019
197822
197531
197249
196801
196261
195742
195255
194877
194677
194898
194952
198840
197967
198084
197943
197646
197325
196867
196282
195762
195329
195081
195165
195695
195907
201068
200926
200498
200252
200270
200213
200288
200243
200115
199918
199498
199116
198700
198720
200883
200753
200509
200352
200316
200187
200211
200086
199874
199591
199102
198687
198299
198437
201077
200861
200757
200560
200392
200243
200179
199995
199735
199382
198901
198436
197903
197793
201177
200890
200753
200585
200394
200210
200108
199905
199622
199280
198811
198308
197786
197535
201107
200847
200721
200544
200365
200204
200054
199825
199534
199211
198776
198330
197891
197638
200968
200757
200619
200467
200310
200144
199984
199745
199472
199140
198784
198432
198084
197844
200713
200582
200489
200370
200246
200083
199892
199641
199364
199046
198746
198527
198312
198197
200508
200416
200344
200243
200127
199972
199774
199533
199254
198973
198719
198571
198375
198303
200214
200196
200172
200094
199989
199844
199622
199402
199114
198863
198623
198511
198361
198407
199969
200009
200045
200010
199867
199705
199448
199259
198964
198692
198443
198342
198235
198371
199739
199810
199966
199891
199802
199600
199263
199088
198750
198467
198184
198026
197909
198162
199741
199627
199835
199770
199708
199499
199141
198895
198494
198178
197888
197764
197695
197949
199837
199538
199742
199750
199705
199442
199019
198652
198169
197767
197385
197166
197189
197326
199811
199521
199799
199810
199709
199367
198954
198477
197917
197500
197158
197114
197378
197447
204306
204031
203550
203237
203192
203011
203052
202910
202675
202196
201589
200717
200029
199391
204350
204110
203707
203434
203295
203095
203017
202780
202478
201950
201252
200401
199643
199090
204483
204332
204033
203683
203426
203126
202962
202647
202277
201711
201007
200176
199232
198506
204602
204352
204052
203716
203391
203107
202856
202475
202073
201506
200819
199979
198994
198167
204602
204357
204025
203683
203349
203030
202724
202323
201901
201347
200722
199933
199032
198161
204416
204198
203892
203577
203256
202926
202588
202177
201747
201201
200632
199910
199157
198336
204134
203956
203695
203418
203101
202778
202431
202038
201604
201141
200599
199995
199335
198622
203824
203683
203481
203217
202919
202591
202249
201869
201452
201039
200553
200038
199466
198813
203386
203292
203168
202972
202721
202391
202035
201658
201268
200898
200472
200034
199550
198971
203046
202982
202871
202687
202422
202099
201774
201396
201032
200659
200256
199851
199425
198912
202643
202620
202641
202474
202196
201848
201454
201042
200658
200247
199846
199431
198991
198604
202419
202280
202374
202168
201838
201461
201033
200570
200182
199734
199308
198905
198416
198067
202160
202005
202083
201870
201523
201119
200599
200074
199571
198994
198465
198047
197667
197328
201891
201532
201609
201437
201078
200621
200030
199468
198854
198294
197773
197469
197269
196823
199684
201306
201798
202933
204057
206090
196992
198663
199872
202169
203182
205708
196897
198495
199354
201562
202529
205592
196297
197772
198776
201152
202195
205508
196300
197527
198601
200862
201805
205519
196275
197310
198311
200447
201377
205614
196383
197259
198114
200107
201058
206211
196123
197035
197935
199860
200579
206081
196183
197060
198115
200193
201235
204469
195969
196954
198129
200089
201057
203699
195943
196942
198085
199833
201092
203873
196020
196966
198098
199545
200930
203596
196257
197021
198329
199782
201170
203240
196193
196939
198446
200094
201479
202811
200007
201408
201694
202461
202732
204316
197642
198636
199504
201375
201650
204272
197567
198507
199034
200837
200945
204276
197228
198004
198491
200321
200495
204143
197452
198005
198431
200129
200078
204258
197697
198135
198573
200200
200208
203824
198108
198458
198899
200391
200754
203665
198194
198629
199169
200428
200745
203637
198478
198915
199466
200590
200882
203313
198456
198951
199459
200553
200707
202888
198410
198878
199395
200369
200390
202815
198217
198568
199087
199905
200148
202663
198160
198307
198819
199606
199989
202252
197120
197063
198021
199343
199902
201197
200450
201745
201991
202784
203527
205272
197954
198565
199113
200807
202131
205611
197655
197961
198468
200042
201221
205039
197147
197097
197476
199112
200219
204094
197277
196882
197077
198672
199644
203059
197528
196945
196883
198125
198900
202106
197909
197314
197083
197972
198421
200355
198163
197596
197296
197759
197973
198949
198418
197869
197549
197648
197593
198147
198348
197802
197528
197489
197430
197480
198066
197542
197400
197413
197334
197280
197525
197018
196872
197065
196992
197940
197261
196766
196724
197064
197148
199016
195967
195194
195525
196409
197513
198600
197236
198742
199220
200612
201469
203187
194928
196684
197601
199773
200717
203410
195043
196618
197365
199612
200518
203654
194927
196242
197032
199401
200361
203884
195360
196405
197261
199532
200438
204246
195866
196764
197585
199726
200513
204659
196435
197296
198076
200133
200731
205266
197076
197893
198484
200398
201203
205505
197367
198235
198875
200757
201354
205501
197852
198693
199309
200986
201576
205041
198158
198937
199743
201289
201919
204916
198392
199135
200008
201362
202319
205048
198793
199450
200364
201629
202794
204988
198441
199054
200305
202002
203265
204643
197980
199112
199037
199781
199803
201497
196243
197020
197364
198964
198956
201710
196406
196913
197207
198806
198708
202056
196500
196704
197030
198640
198647
202321
197040
197038
197401
198892
198916
202629
197611
197604
197936
199249
199207
203113
198259
198316
198592
199745
199525
203854
198903
199172
199278
200532
200705
203774
199295
199637
199865
201171
201238
203801
199723
200187
200355
201547
201647
203746
199895
200339
200674
201810
201751
203700
199878
200291
200667
201661
201625
204014
199944
200277
200647
201491
201657
203700
199118
199161
199851
201157
201605
203274
197123
197711
197733
197985
198501
199919
195822
195774
195706
196783
197637
200529
196262
195864
195642
196678
197540
201027
196625
196045
195671
196667
197520
201411
197336
196605
196226
197103
197868
201656
198031
197254
196904
197720
198306
201645
198834
198106
197707
198347
198792
201751
199456
198960
198654
199063
199423
201176
200162
199747
199475
199766
199970
200683
200743
200494
200234
200285
200232
200620
201131
200906
200643
200806
200709
200966
201229
200946
200667
200965
200685
201842
201365
201078
200922
201305
201203
203264
200354
200068
200220
201000
201763
203262
207033
205166
203824
202495
201356
200924
207593
204162
204183
202952
202181
201615
206764
204327
203968
202554
201846
201115
206448
204438
203812
202416
201805
201019
206108
204241
203614
202155
201557
200676
206309
204140
203223
201822
201152
200429
205950
203627
203053
201550
200915
200170
206677
202588
202567
201073
200403
199813
205922
202648
202187
200548
199858
199358
205792
202602
201935
200126
199475
198957
205572
202424
201740
199813
199222
198498
205418
202591
201908
199994
199440
198372
205205
202726
201945
200111
199335
198012
204985
203455
202791
201723
201417
199865
205650
204333
203428
201866
200945
200648
206938
203252
203488
202465
202007
201642
206005
203319
203351
202244
201888
201385
205600
203419
203280
202257
201961
201466
205063
203169
203033
202181
201804
201312
204894
202933
202675
201762
201483
201110
204692
202348
202390
201474
201176
200848
205142
201420
201687
200794
200682
200595
204336
201314
201365
200320
200184
200218
204108
201159
201067
199824
199719
199833
203880
200846
200804
199451
199355
199383
203714
200892
200954
199551
199408
199202
203456
201063
200976
199629
199399
198968
203483
201929
201952
201401
201417
200448
207902
206547
205450
204163
203601
203717
207778
205635
205718
205132
204901
204926
205499
205205
205123
204877
204714
204709
204778
204982
204956
205035
204909
204863
204169
204677
204623
204981
204822
204788
203994
204559
204375
204612
204633
204540
204758
204414
204146
204182
204220
204210
205418
204261
203791
203705
203782
203856
205811
204089
203540
203211
203265
203387
205876
203599
203135
202602
202683
202904
205636
202882
202585
201940
202054
202207
204976
202502
202289
201625
201775
201798
204471
202397
202072
201400
201496
201288
204204
202963
202837
202787
202848
202399
206550
203520
201868
200617
199222
198651
207096
202606
201949
201016
199928
199263
206118
202900
202356
200878
199783
198983
205527
203269
202602
200982
199920
199000
205514
203630
202594
201033
200024
199175
205714
203672
202618
201009
199999
199152
205994
203507
202435
200847
199976
199111
206105
203394
202449
200669
199856
199096
207137
202750
202291
200512
199795
199026
206647
203319
202582
200607
199859
199002
206815
203652
202824
200759
200058
199000
206922
204073
203317
201416
200758
199501
207015
204629
203681
201737
200913
199712
207301
205034
204675
203954
203689
202082
204254
202717
201789
200360
199124
198907
205454
201878
201917
200894
200227
199935
204930
201946
201951
200751
200205
199737
204620
202416
202122
201012
200488
200003
204497
202797
202135
201184
200672
200281
204741
202894
202189
201349
200786
200376
204766
202717
202220
201298
200729
200348
205358
202556
202293
201043
200638
200347
206439
202082
202178
200874
200423
200203
206015
202641
202408
200786
200282
200088
206140
202833
202522
200710
200281
199948
206105
203148
202978
201267
200801
200156
205970
203652
203232
201470
200869
200173
205557
204448
204440
203721
203540
202186
204167
202462
201225
199998
199077
199337
203539
202073
201940
201377
200898
200945
202297
201790
201803
201537
201176
201092
202035
202115
202157
202237
201906
201917
202120
202470
202457
202749
202398
202456
202983
203110
203004
203192
202846
202859
204304
203803
203480
203208
202960
202977
206269
204279
203613
203107
202963
202994
207181
204880
204008
203123
202885
202920
208177
205232
204272
203117
202840
202909
208992
205514
204594
203252
202918
202835
209451
206037
205180
203880
203453
203104
209595
206552
205498
204219
203862
203317
208917
207589
207309
206789
206418
205405
206464
206188
205972
205682
205430
205126
204982
204738
204501
204130
203650
202936
202247
201447
206305
206070
205741
205402
205192
204913
204730
204458
204171
203774
203255
202544
201793
200960
206195
205955
205676
205371
205050
204746
204497
204184
203845
203430
202933
202258
201400
200516
206196
205852
205547
205225
204907
204574
204265
203911
203556
203127
202618
201910
201060
200104
206119
205725
205404
205050
204737
204393
204056
203680
203301
202856
202350
201680
200946
200049
205978
205581
205247
204876
204552
204197
203848
203469
203085
202644
202128
201505
200804
199999
205755
205376
205038
204671
204352
204002
203653
203276
202892
202463
201978
201418
200791
200079
205500
205147
204817
204463
204148
203800
203450
203080
202704
202279
201834
201305
200723
200097
205166
204848
204546
204224
203907
203579
203229
202873
202512
202102
201704
201204
200676
200078
204867
204527
204249
203956
203640
203322
202969
202619
202251
201844
201467
200981
200485
199929
204572
204229
203962
203671
203354
203036
202666
202313
201932
201549
201157
200695
200199
199610
204328
203859
203620
203354
203023
202685
202301
201923
201516
201136
200733
200292
199775
199140
203996
203494
203256
203003
202681
202315
201902
201469
201011
200562
200046
199524
199000
198450
203336
202845
202759
202569
202242
201880
201426
200944
200420
199910
199356
198900
198411
198003
208191
207894
207618
207271
207069
206805
206592
206352
206115
205788
205404
204835
204214
203497
208050
207724
207403
207091
206787
206469
206212
205940
205653
205287
204863
204284
203662
202858
207918
207528
207185
206835
206508
206181
205870
205550
205229
204872
204443
203855
203170
202443
207770
207316
206951
206583
206247
205894
205547
205199
204853
204457
204017
203428
202695
201960
207562
207108
206718
206327
205975
205607
205246
204878
204521
204122
203676
203093
202397
201718
207328
206895
206486
206088
205724
205345
204977
204597
204228
203823
203383
202820
202178
201520
207068
206639
206225
205827
205460
205081
204714
204336
203969
203569
203143
202625
202065
201476
206775
206356
205955
205557
205190
204814
204450
204081
203718
203324
202913
202437
201933
201397
206417
206010
205639
205254
204896
204533
204177
203822
203467
203093
202699
202274
201802
201304
206059
205658
205304
204929
204574
204224
203874
203530
203175
202811
202439
202032
201570
201086
205650
205271
204936
204591
204230
203882
203525
203181
202822
202457
202096
201690
201229
200750
205286
204871
204525
204182
203823
203469
203113
202768
202387
202010
201627
201214
200719
200213
204808
204439
204115
203797
203436
203065
202657
202264
201832
201434
201006
200566
200008
199483
204134
203837
203580
203296
202965
202591
202146
201714
201219
200794
200335
200005
199480
199010
209488
209204
209079
208835
208606
208288
208055
207792
207538
207229
206885
206443
205925
205337
209392
209035
208771
208453
208162
207857
207559
207263
206966
206650
206306
205871
205359
204733
209250
208798
208459
208085
207760
207424
207109
206811
206530
206209
205866
205455
204930
204312
209069
208568
208185
207772
207412
207052
206711
206381
206081
205756
205412
205003
204488
203843
208826
208315
207894
207463
207087
206708
206359
206025
205719
205394
205044
204633
204118
203475
208589
208062
207620
207183
206793
206404
206045
205701
205375
205040
204685
204265
203758
203167
208291
207759
207314
206879
206484
206096
205738
205395
205060
204719
204359
203934
203437
202927
207968
207444
207006
206574
206179
205798
205441
205099
204757
204407
204043
203612
203149
202684
207573
207075
206655
206237
205856
205489
205141
204802
204457
204101
203738
203317
202883
202440
207154
206676
206279
205876
205510
205157
204815
204477
204128
203771
203401
203000
202561
202121
206682
206230
205867
205486
205135
204794
204458
204122
203767
203417
203026
202646
202158
201688
206197
205722
205373
205045
204716
204398
204061
203722
203360
202993
202582
202197
201676
201155
205617
205240
204959
204622
204276
203935
203589
203262
202886
202494
202074
201634
201088
200575
204891
204607
204377
204134
203834
203517
203154
202775
202328
201906
201470
201057
200460
199946
210550
210263
210071
209830
209649
209415
209179
208922
208689
208427
208118
207737
207277
206691
210449
210028
209734
209409
209148
208867
208601
208338
208092
207789
207480
207134
206750
206217
210267
209782
209422
209037
208722
208412
208123
207845
207607
207343
207076
206757
206401
205928
210052
209533
209122
208701
208347
208005
207700
207416
207164
206892
206631
206325
205991
205547
209780
209264
208823
208383
208006
207645
207329
207047
206793
206525
206272
205968
205624
205172
209486
208967
208518
208073
207687
207318
206995
206706
206437
206155
205890
205579
205214
204743
209154
208638
208201
207758
207372
207002
206674
206377
206098
205806
205524
205198
204796
204323
208790
208281
207868
207434
207056
206692
206362
206054
205757
205451
205140
204804
204377
203960
208360
207873
207494
207080
206723
206370
206042
205724
205410
205090
204754
204417
203981
203611
207881
207424
207079
206695
206362
206025
205705
205383
205056
204723
204361
204018
203577
203206
207341
206936
206629
206282
205976
205654
205338
205009
204665
204321
203933
203585
203121
202730
206753
206382
206116
205825
205549
205253
204942
204610
204253
203894
203466
203082
202588
202141
206124
205853
205637
205371
205113
204836
204522
204182
203786
203383
202914
202483
201954
201473
205383
205211
205072
204868
204633
204370
204041
203680
203265
202830
202346
201918
201290
200694
211326
211037
210843
210650
210508
210341
210175
209983
209767
209493
209201
208818
208373
207867
211239
210858
210567
210280
210044
209803
209570
209328
209088
208826
208537
208195
207869
207454
211070
210605
210248
209890
209594
209314
209071
208839
208622
208395
208167
207893
207630
207288
210816
210333
209931
209539
209209
208898
208633
208391
208179
207963
207755
207523
207303
207027
210539
210061
209629
209219
208867
208542
208268
208027
207822
207618
207432
207220
207008
206720
210203
209742
209308
208899
208543
208214
207932
207686
207474
207266
207075
206857
206635
206300
209847
209404
208984
208579
208228
207900
207614
207360
207133
206909
206697
206453
206184
205820
209449
209022
208637
208244
207909
207586
207295
207026
206775
206524
206282
206009
205676
205312
208994
208586
208253
207882
207573
207256
206960
206673
206390
206108
205825
205539
205140
204840
208485
208107
207833
207495
207214
206904
206605
206300
205991
205684
205359
205056
204610
204336
207922
207594
207382
207086
206831
206527
206224
205904
205567
205229
204852
204535
204071
203772
207285
207040
206884
206650
206421
206134
205826
205492
205127
204758
204331
203981
203492
203156
206625
206491
206394
206205
205996
205728
205408
205052
204644
204229
203760
203345
202846
202436
205894
205893
205868
205742
205562
205316
204973
204589
204153
203697
203183
202718
202139
201577
211989
211729
211564
211433
211335
211228
211117
210958
210763
210512
210237
209851
209438
208910
211909
211557
211305
211083
210903
210725
210552
210357
210140
209880
209596
209250
208925
208501
211747
211338
211033
210733
210486
210257
210056
209852
209651
209433
209225
208975
208742
208436
211497
211075
210716
210387
210111
209852
209627
209410
209213
209011
208827
208626
208454
208248
211221
210812
210420
210072
209769
209493
209259
209046
208859
208678
208526
208363
208222
208045
210873
210477
210084
209739
209434
209157
208919
208704
208515
208334
208183
208025
207885
207706
210499
210117
209743
209404
209108
208835
208597
208378
208181
207993
207825
207644
207474
207241
210062
209706
209372
209050
208776
208509
208267
208034
207814
207599
207392
207178
206946
206670
209559
209241
208969
208670
208428
208165
207915
207660
207407
207155
206901
206651
206341
206074
209014
208740
208542
208271
208064
207801
207538
207256
206965
206676
206370
206093
205692
205460
208433
208212
208092
207859
207679
207411
207128
206816
206482
206152
205786
205490
205049
204828
207795
207663
207605
207430
207276
207014
206710
206369
205996
205625
205199
204874
204404
204178
207168
207120
207112
206978
206842
206591
206251
205880
205458
205031
204557
204182
203713
203425
206467
206579
206637
206569
206399
206157
205788
205393
204937
204462
203951
203505
202975
202573
212638
212443
212347
212282
212238
212191
212118
211988
211811
211578
211323
210942
210546
210024
212610
212313
212148
211989
211870
211750
211619
211452
211256
211010
210722
210360
210007
209570
212471
212137
211917
211687
211503
211321
211153
210964
210763
210544
210323
210061
209809
209483
212225
211883
211598
211339
211120
210908
210718
210520
210326
210114
209908
209697
209510
209297
211966
211631
211310
211028
210776
210542
210340
210142
209957
209771
209606
209444
209304
209154
211605
211263
210942
210660
210407
210175
209972
209778
209596
209417
209259
209120
209005
208892
211197
210871
210566
210291
210045
209818
209618
209426
209241
209059
208896
208755
208626
208518
210712
210428
210158
209904
209682
209461
209260
209058
208855
208652
208460
208287
208113
207973
210168
209940
209729
209499
209311
209094
208885
208664
208430
208196
207958
207746
207509
207353
209597
209421
209291
209087
208938
208718
208494
208242
207972
207701
207408
207156
206824
206657
209021
208886
208832
208664
208546
208319
208072
207787
207468
207148
206789
206518
206121
205959
208412
208351
208364
208237
208139
207920
207636
207309
206942
206584
206171
205870
205430
205286
207816
207820
207890
207803
207700
207469
207141
206783
206368
205950
205487
205148
204709
204517
207198
207342
207436
207381
207214
206996
206630
206240
205783
205324
204839
204438
203979
203704
213384
213270
213262
213286
213316
213333
213316
213231
213080
212851
212602
212227
211820
211260
213409
213193
213141
213075
213037
212983
212904
212765
212580
212335
212030
211641
211228
210738
213314
213082
212967
212828
212723
212603
212473
212298
212094
211852
211589
211285
210969
210574
213082
212843
212652
212483
212341
212188
212029
211833
211628
211388
211132
210868
210618
210339
212841
212594
212362
212162
211977
211794
211618
211419
211218
210998
210790
210581
210389
210189
212459
212192
211955
211750
211560
211373
211193
210999
210804
210598
210412
210235
210093
209961
212003
211758
211533
211331
211143
210957
210782
210596
210406
210211
210030
209875
209749
209658
211458
211264
211073
210887
210722
210542
210369
210181
209980
209779
209582
209425
209273
209177
210859
210721
210589
210426
210293
210120
209947
209750
209530
209308
209081
208899
208700
208594
210247
210164
210102
209965
209874
209702
209517
209292
209036
208784
208505
208288
208013
207913
209637
209581
209590
209489
209431
209255
209046
208802
208515
208218
207875
207644
207294
207219
209035
209039
209117
209037
208991
208838
208605
208308
207959
207625
207239
206966
206568
206495
208454
208453
208605
208592
208514
208349
208063
207740
207355
206963
206522
206209
205815
205707
207895
208023
208160
208132
208014
207842
207506
207136
206708
206276
205828
205466
205064
204886
214325
214278
214326
214391
214485
214540
214566
214529
214399
214178
213932
213582
213195
212659
214351
214215
214235
214234
214271
214272
214236
214128
213956
213720
213416
213026
212607
212112
214267
214134
214094
214032
213997
213940
213862
213718
213521
213265
212975
212635
212276
211844
214031
213889
213781
213693
213621
213534
213422
213249
213035
212777
212484
212161
211845
211503
213795
213637
213490
213369
213251
213126
212989
212806
212592
212351
212093
211819
211552
211275
213398
213217
213060
212931
212802
212663
212517
212335
212128
211904
211666
211433
211220
211026
212914
212757
212604
212469
212339
212198
212056
211884
211689
211482
211263
211063
210883
210754
212342
212229
212104
211978
211867
211732
211595
211426
211233
211030
210814
210631
210476
210372
211716
211654
211583
211471
211392
211267
211136
210969
210771
210566
210336
210154
209995
209893
211078
211062
211067
210979
210940
210823
210684
210507
210284
210056
209784
209591
209382
209308
210448
210443
210520
210478
210468
210361
210208
210007
209756
209497
209176
208989
208711
208704
209842
209884
210033
210015
210007
209928
209739
209510
209204
208908
208547
208315
207968
207967
209244
209271
209494
209544
209502
209413
209183
208919
208581
208232
207816
207531
207176
207171
208703
208866
209031
209058
208993
208883
208605
208286
207894
207506
207102
206766
206384
206265
207454
208051
208352
208443
208915
208816
205853
206291
206544
206923
208145
209051
205678
206032
206285
206882
208295
209432
205514
205772
205980
206681
208480
209812
205526
205822
206140
206921
208938
210401
205346
205720
206195
207193
209329
210995
205264
205626
206132
207184
209351
211305
205052
205377
205841
206875
208965
211317
204864
205162
205557
206408
208280
210589
204493
204691
205106
205657
207562
209600
203971
204044
204570
204872
206805
208496
203200
203107
203644
203936
205839
206865
202865
202587
203055
203394
204911
205316
201138
200430
201051
202011
203351
203877
208956
209487
209532
209776
209707
210047
207964
208185
208289
208660
208984
209983
207886
208064
208237
208547
208851
210028
207588
207826
207960
208249
208808
210184
207406
207787
208068
208473
209307
210660
207176
207603
208057
208717
209926
211503
207061
207576
208140
208970
210259
212139
206860
207429
208052
208973
210300
212414
206667
207241
207902
208726
210106
211678
206339
206861
207537
208262
209325
210507
205954
206344
206960
207414
208410
209188
205273
205449
205984
206272
207226
207710
204788
204676
205088
205283
205975
206415
203044
202582
202960
203417
204082
204805
209823
210360
210546
210758
210645
210723
209313
209693
209770
210030
210231
210610
209300
209784
209998
210277
210480
210903
209116
209628
209930
210249
210531
211149
209059
209641
210078
210520
210895
211733
208875
209481
210074
210632
211319
212463
208699
209407
210118
210826
211789
213084
208432
209204
210013
210894
212055
213496
208173
208944
209795
210766
211983
213489
207854
208551
209361
210247
211391
212418
207452
207975
208674
209334
210170
210911
206914
207181
207701
208065
208693
209165
206413
206322
206728
206807
207310
207606
204987
204556
204840
204970
205461
205851
210676
210913
211052
211135
210997
210914
210514
210676
210743
210855
210904
211011
210447
210732
210937
211052
211139
211208
210305
210691
211003
211230
211440
211605
210223
210792
211254
211673
211988
212285
210048
210713
211354
211938
212407
212944
209903
210657
211433
212122
212746
213537
209662
210472
211296
212072
212901
213932
209382
210201
211014
211847
212774
213870
209048
209783
210547
211333
212241
213157
208672
209203
209825
210431
211059
211752
208185
208457
208881
209185
209557
209967
207666
207602
207807
207891
208135
208282
206545
206178
206137
206114
206281
206501
211375
211507
211490
211528
211382
211254
211282
211406
211401
211412
211329
211319
211200
211454
211588
211702
211684
211700
211124
211481
211734
211943
212075
212173
211115
211658
212094
212462
212737
212978
211018
211685
212263
212801
213223
213586
210924
211689
212420
213091
213662
214152
210742
211533
212366
213105
213765
214503
210499
211283
212126
212852
213554
214482
210153
210862
211629
212322
213039
213899
209746
210319
210924
211494
212080
212756
209226
209619
209984
210312
210632
211084
208717
208777
208869
208923
209042
209190
207831
207551
207404
207278
207244
207333
211987
212070
212093
212095
211939
211745
211898
211989
211946
211859
211605
211495
211825
212012
212075
212060
211929
211762
211810
212104
212263
212325
212287
212232
211844
212325
212667
212913
213084
213210
211821
212419
212886
213301
213604
213898
211790
212502
213110
213705
214159
214628
211651
212404
213090
213745
214348
214915
211457
212202
212931
213615
214247
214945
211139
211803
212499
213135
213779
214595
210746
211287
211831
212357
212924
213638
210206
210564
210907
211282
211677
212244
209680
209799
209892
210004
210131
210384
208882
208766
208619
208525
208457
208472
212578
212668
212703
212661
212574
212390
212571
212583
212511
212384
212106
211952
212514
212603
212570
212465
212262
212082
212544
212716
212777
212708
212564
212326
212615
212943
213169
213270
213315
213259
212652
213093
213439
213697
213893
214067
212659
213230
213722
214171
214583
214953
212574
213199
213760
214329
214849
215373
212426
213080
213683
214297
214878
215446
212157
212764
213369
213966
214532
215181
211803
212302
212811
213329
213862
214550
211285
211634
211992
212399
212801
213355
210782
210970
211099
211247
211408
211699
210031
209988
209863
209820
209864
209901
213237
213298
213277
213231
213141
212765
213317
213224
213132
212904
212578
212200
213317
213284
213174
212944
212561
212279
213442
213459
213389
213166
212862
212518
213575
213731
213796
213701
213549
213259
213675
213947
214134
214188
214163
214049
213734
214138
214481
214718
214938
215116
213699
214176
214592
214958
215322
215713
213594
214116
214582
215025
215470
215998
213361
213867
214332
214821
215280
215821
213041
213464
213863
214296
214719
215285
212541
212849
213144
213484
213831
214358
212037
212244
212381
212528
212654
212957
211285
211270
211198
211178
211227
211436
214147
214171
214071
214030
213913
213665
214259
214130
213992
213685
213418
212903
214297
214182
214042
213697
213331
212701
214464
214385
214211
213911
213400
212946
214636
214664
214586
214316
214000
213657
214777
214908
214928
214804
214640
214336
214853
215101
215274
215334
215369
215301
214857
215174
215439
215635
215841
216012
214780
215153
215481
215794
216133
216562
214578
214961
215305
215692
216107
216659
214300
214629
214929
215290
215661
216210
213863
214114
214325
214599
214872
215375
213387
213580
213685
213807
213900
214189
212710
212725
212639
212611
212643
212812
201970
202509
202542
202532
203043
203346
199985
199968
199825
200403
201457
202499
199479
199216
199056
199662
200750
201994
198988
198368
198052
198668
200252
201580
199014
198192
197757
198200
199952
201321
199075
198197
197685
198079
199871
201272
199212
198390
197788
198069