/*--------------------------------*- C++ -*----------------------------------*\
| =========                 |                                                 |
| \\      /  F ield         | OpenFOAM: The Open Source CFD Toolbox           |
|  \\    /   O peration     | Version:  v2106                                 |
|   \\  /    A nd           | Website:  www.openfoam.com                      |
|    \\/     M anipulation  |                                                 |
\*---------------------------------------------------------------------------*/
FoamFile
{
    version     2.0;
    format      ascii;
    arch        "LSB;label=32;scalar=64";
    class       volScalarField;
    location    "0.000186";
    object      epsilon;
}
// * * * * * * * * * * * * * * * * * * * * * * * * * * * * * * * * * * * * * //

dimensions      [0 2 -3 0 0 0 0];

internalField   nonuniform List<scalar> 
18109
(
249.227
150.532
94.0477
64.7238
52.9388
52.2918
61.7308
91.2585
44.2259
25.1424
16.8611
13.9229
14.0725
17.2638
36.0668
12.3667
5.87752
3.78019
3.16855
3.332
4.47464
17.2815
4.05564
1.34402
0.752105
0.633437
0.728885
1.21683
11.2168
2.18823
0.461701
0.15942
0.120022
0.174633
0.441359
9.96055
1.95917
0.345345
0.0638675
0.0301692
0.0678635
0.258977
11.4715
2.28497
0.380987
0.0566693
0.0202521
0.0568435
0.241756
15.4122
2.97674
0.478409
0.0825593
0.0461218
0.0984092
0.335387
203.948
124.314
75.9424
48.6257
35.3308
30.3781
32.0742
41.8116
68.1727
129.853
266.844
554.487
1131.97
2305.68
69.4204
33.9911
18.7889
11.5074
8.28801
7.2311
8.04937
11.7816
23.0796
53.9239
132.75
319.324
733.848
1636.16
25.359
8.71782
3.99745
2.29588
1.646
1.4933
1.90401
3.6161
9.3956
27.0451
76.3751
202.425
501.641
1186.29
11.7094
2.71452
0.843477
0.402903
0.282486
0.289136
0.51191
1.42766
4.71783
15.3979
46.9966
132.809
349.696
874.749
7.97131
1.56504
0.311371
0.0843097
0.0475
0.0673823
0.200246
0.757082
2.84271
9.91087
31.7919
94.2952
261.105
684.556
7.74527
1.53807
0.266671
0.0430461
0.0130856
0.0283956
0.12067
0.515878
2.03992
7.37624
24.4805
75.1105
214.8
577.413
9.63484
1.90118
0.311241
0.0440812
0.0113735
0.0253285
0.107647
0.460924
1.83553
6.70616
22.4947
69.5671
199.554
534.056
13.5918
2.56577
0.401051
0.066905
0.0328721
0.054517
0.157067
0.573858
2.14984
7.61139
24.9147
75.1354
209.586
543.534
20.1069
3.71563
0.642669
0.192717
0.1634
0.222885
0.413872
1.07509
3.36926
10.8447
33.2249
94.6533
250.528
618.046
31.3197
6.44863
1.62604
0.824669
0.794962
1.0042
1.51107
2.87652
6.90778
18.7544
51.4624
135.057
333.552
774.318
54.8195
15.124
5.76547
3.57252
3.38554
4.09556
5.69551
9.17261
17.5288
38.7955
91.8698
217.28
494.873
1074.58
112.568
43.1394
20.9426
13.8143
12.6076
14.6947
19.6858
29.3203
48.5867
90.191
182.276
382.263
797.211
1619.92
250.088
121.594
67.4708
46.4376
41.5182
46.9313
61.2702
87.6286
134.169
220.739
388.693
719.77
1363.07
2579.12
554.647
311.282
188.083
135.944
122.055
135.365
172.712
239.683
348.773
528.25
831.006
1361.31
2326.97
4117.12
687.725
1536.09
3317.17
6924.8
14405.8
31530.3
593.535
1363.26
3009.57
6370.75
13386.5
29059.3
398.176
1046.8
2554.24
5856.73
13013.5
29233
259.778
767.909
2064.55
5129.67
12096.6
28277.2
173.591
563.388
1644.98
4393.77
10960.4
27104.7
128.277
440.693
1360.73
3838.06
10068.9
26179.3
109.874
384.929
1220.5
3555.21
9685.07
26153
113.082
391.266
1235.46
3612.77
9988.05
27516.5
139.808
464.777
1414.24
4017.5
10945.3
29814.1
208.395
651.409
1862.22
5005.18
13065.3
34215.8
350.475
1010.84
2666.23
6651.94
16272.8
40131.3
625.256
1639.66
3958.72
9126.65
20807.6
47843.4
1129.54
2677.12
5937.06
12773.4
27384.1
58495.9
2017.99
4345.7
8989.61
18352.2
37285.2
73964.9
3612.12
7102.9
13811.3
26627
50578.3
92690.6
4851.5
9018.21
16862.8
31517
57968.6
102559
3663.7
7367.2
14689.1
28856.2
55465.7
102472
2768.69
6058.79
12874.8
26464.2
52598.5
99965.6
2132.22
5011.2
11199.4
23785
48407.4
94046.5
1722.8
4245.7
9795.68
21237.1
43998.4
87763.9
1467.24
3696.33
8656.73
18973.2
39903.4
82118.7
1337.93
3357.84
7849.17
17267.8
36676.7
78925.4
1315.2
3212.84
7377.99
16152.9
34872.4
79873.1
1426.13
3333.15
7439.74
16210.9
36238.3
88209.6
1696.62
3759.74
8110.85
17612.7
40698.5
102233
2225.11
4641.33
9639.67
20742.3
48065.8
118610
3167.86
6174.69
12254.5
25675.4
57726.8
134479
4738.62
8618.84
16236.5
32444.7
69025
149589
7247.39
12264
21629
40305.3
79075.7
157472
5020.95
8621.96
16650.2
33873.3
70365.5
141018
3510.87
6692.19
13593
28017.8
58103.9
119607
2527.76
5236.64
10947.5
22853.7
47883.4
101788
1819.88
3987.26
8594.01
18377.4
39332.2
85892.1
1291.59
2964.36
6647.72
14715.5
32321.1
72898.3
909.211
2175.09
5083.6
11676.5
26407.7
61381.1
645.87
1606.18
3902.3
9274.92
21502.8
51108.2
472.276
1213.12
3046.96
7429.85
17522
42675.3
370.65
970.788
2486.72
6151.16
14699.2
37441.6
329.835
861.183
2200.17
5410.36
12965.6
34315.4
354.687
890.283
2188.06
5210.04
12228.5
33032.6
464.164
1078.36
2453.93
5515.32
12324.1
34086.1
717.445
1529.94
3201.36
6717.22
14792.9
40581.3
1174.38
2320.13
4564.67
9114.54
19248.9
47749.9
69.4302
243.727
802.623
2492.16
7346.07
23221.8
98.7006
297.854
932.586
2826.74
8259.43
24879.8
161.484
403.267
1175.2
3462.14
9764.05
27554.6
315.373
690.251
1772.35
4735.59
12092.7
30805.5
918.776
1909.01
4388.07
9710.49
20879.3
49198.6
565.376
1493.21
3808.38
8753.49
19369.3
46357.8
354.556
1126.35
3046.53
7233.61
16738.1
41391.7
232.1
811.321
2284.31
5678.46
13909.6
35888.2
155.381
558.974
1631.03
4304.82
11278.7
30688.7
103.514
374.655
1133.49
3210.41
9025.55
26018.3
68.0016
250.285
797.734
2439.48
7300.42
21932.7
46.5805
176.978
603.001
1967.27
6093.98
18643
37.5451
146.527
521.578
1736.87
5338.83
16211.2
38.4732
147.909
519.78
1673.9
4918.55
14800
48.3603
172.061
570.818
1747.6
5041.51
15434.5
71.0344
218.131
678.438
2032.08
5841.56
17577.6
122.985
312.197
916.82
2704.95
7643.36
21667.2
256.019
575.501
1518.41
4136.48
10567
26571.8
65064.3
288298
1.14688e+06
978190
603910
69631.3
316455
1.08697e+06
927974
593727
74860.5
330647
1.02844e+06
890757
607367
78140.2
330363
993580
904663
647034
79342.6
320741
955102
919237
678728
77259.4
297451
887118
905814
686186
75081.1
278392
838961
867395
681026
78016.5
268059
803752
824938
684546
948754
86113.8
288425
794622
773506
686376
1.03354e+06
95582.4
313853
786103
684395
645943
1.07045e+06
105900
339362
755672
580751
560445
1.02577e+06
1.71662e+06
118521
361898
727849
509409
460135
877523
1.94252e+06
2.73792e+06
136562
389462
741630
499189
406646
654407
1.77529e+06
5.95875e+06
156720
417152
794424
548155
429034
561026
914173
3.4255e+06
170635
426913
849696
619790
478926
583270
858052
3.5949e+06
175760
418521
861181
670664
517101
633390
915900
2.7163e+06
174571
415355
862099
720828
566146
697534
949852
3.27202e+06
169804
412003
902915
795267
633008
782406
906315
1.26306e+06
167354
420336
983804
853936
688541
872224
975340
787042
162913
440218
1.09633e+06
869522
706182
956175
1.07975e+06
688160
163594
479960
1.24717e+06
831756
714504
1.05466e+06
1.23798e+06
1.19177e+06
180289
550396
1.38484e+06
784969
744788
1.1756e+06
1.47167e+06
933874
213194
662723
1.4009e+06
726075
767608
1.28348e+06
247767
762279
1.23998e+06
643471
740969
1.30125e+06
271732
786139
1.03649e+06
548410
641652
1.24872e+06
284263
775351
932388
499986
520405
1.06067e+06
291532
753413
878632
505241
440991
777657
286863
747345
887146
590514
450584
264746
724174
905059
706411
518720
246307
638271
872275
784863
569416
232605
536618
833021
853980
613423
209613
453940
841016
966360
677848
187671
402149
906805
1.09242e+06
724759
163935
365583
1.02677e+06
1.18685e+06
719183
142971
343352
1.21783e+06
1.21207e+06
674668
125873
339036
1.50826e+06
1.23726e+06
661531
111684
352737
1.82213e+06
1.2352e+06
632354
101437
390676
1.95806e+06
1.16371e+06
574335
97736.7
452380
1.82258e+06
1.06723e+06
533171
103249
525297
1.60561e+06
1.0262e+06
530978
117183
581467
1.40913e+06
1.01121e+06
575624
129839
613585
1.34271e+06
1.05128e+06
638326
134892
606317
1.26757e+06
1.06784e+06
671776
136567
553295
1.10804e+06
1.01192e+06
667404
133051
471756
960527
979735
678648
123663
393039
863071
1.01102e+06
719349
112816
337102
802657
1.0747e+06
746412
99906.5
289216
751140
1.12217e+06
725708
86272.3
247383
719541
1.13262e+06
670919
72989.2
211817
739363
1.15594e+06
636351
61035.2
185989
819180
1.16671e+06
599780
52481.1
177579
920316
1.10734e+06
553204
48643.3
188792
998967
1.00196e+06
515787
49857.8
206863
1.06047e+06
944244
504419
55440.6
228150
1.11973e+06
931129
537615
61894.7
252628
1.16432e+06
961553
581707
183.875
115.483
71.1491
44.2276
29.5639
22.2859
20.5227
24.5579
39.5559
78.4911
171.422
380.271
824.746
1761.72
58.9104
30.3367
17.0098
10.0034
6.52428
4.91241
4.77935
6.62671
13.4969
33.9102
89.2584
227.395
548.474
1267.12
19.9463
7.31669
3.45313
1.88954
1.2072
0.931881
1.0679
2.07253
5.82637
17.8976
53.0552
146.666
377.692
921.211
8.8267
2.13202
0.684497
0.310646
0.190611
0.167307
0.29166
0.878739
3.08299
10.4692
33.036
96.5871
263.262
678.262
6.23336
1.23959
0.247042
0.0628171
0.0298015
0.038385
0.121178
0.484141
1.88356
6.76746
22.3787
68.5498
195.957
528.083
6.47203
1.2803
0.219354
0.0340515
0.0084477
0.0164752
0.0727654
0.321944
1.31554
4.91813
16.8914
53.6366
158.35
437.37
8.48145
1.64388
0.263791
0.0363943
0.00813615
0.0150065
0.0623715
0.273548
1.12983
4.2926
14.9733
48.0605
142.45
391.917
12.4081
2.28504
0.347568
0.0561577
0.0261298
0.0379787
0.0953786
0.334427
1.27707
4.69303
15.9984
50.1571
144.843
386.58
18.8959
3.38016
0.559462
0.161932
0.136557
0.178433
0.295882
0.687441
2.07153
6.749
21.3186
62.8249
171.787
435.58
29.9265
5.8531
1.3885
0.69198
0.674364
0.846277
1.20921
2.10546
4.68432
12.3747
34.2201
91.7859
232.368
551.981
51.9554
13.3554
4.84337
2.99785
2.88583
3.51552
4.79443
7.3703
13.2506
28.0403
65.3886
155.601
359.722
794.214
103.906
37.271
17.4859
11.5883
10.7715
12.7264
16.966
24.7431
39.5897
70.8149
139.693
291.405
611.996
1260.74
225.631
104.389
56.3137
38.9683
35.548
40.9275
53.615
76.1166
114.655
184.532
318.489
584.268
1109.75
2129.92
498.868
268.849
157.638
114.301
104.856
118.937
153.344
213.08
308.548
462.815
719.125
1165.27
1984.76
3544.77
119.454
81.8736
53.7174
34.5424
22.9334
15.9794
12.4957
11.7434
15.2743
28.4659
66.9967
167.332
409.506
968.616
32.2219
19.2217
11.8175
7.18678
4.59913
3.13094
2.50414
2.62758
4.52336
11.8293
35.551
103.912
282.879
719.122
8.64958
3.85517
2.11745
1.22156
0.7588
0.512082
0.44927
0.666364
1.85917
6.51827
22.3681
70.4084
202.704
541.858
3.65057
0.962832
0.353576
0.172994
0.102006
0.0726426
0.0918093
0.259896
1.04073
4.11392
14.8648
48.8291
147.368
414.596
3.31045
0.65388
0.12678
0.0307974
0.0126994
0.0115968
0.0325926
0.149198
0.682734
2.83299
10.6077
36.1705
113.623
332.412
4.28102
0.804412
0.128793
0.0180457
0.0031591
0.00397281
0.0196882
0.10344
0.492568
2.10435
8.12982
28.6433
92.707
277.195
6.3369
1.13322
0.166497
0.0205497
0.00340782
0.00402421
0.0168006
0.08468
0.405166
1.76101
6.94005
24.8725
81.363
243.679
9.87088
1.65778
0.225447
0.0313051
0.012542
0.0151335
0.030054
0.0994953
0.417935
1.75413
6.82599
24.1818
77.9104
228.753
15.489
2.48603
0.350034
0.0865405
0.0716339
0.0892756
0.127708
0.24335
0.684358
2.38696
8.48888
28.2834
86.5294
242.564
24.6694
4.10845
0.789933
0.371365
0.377203
0.472796
0.637575
0.969616
1.86064
4.67292
13.5999
40.1117
112.462
294.777
41.1658
8.49188
2.6079
1.65876
1.70796
2.12372
2.84441
4.08182
6.56607
12.6045
28.6986
71.4271
178.041
428.184
76.9895
22.4066
9.48645
6.66044
6.71553
8.22403
10.9621
15.4386
23.1043
38.0781
71.1569
148.806
326.216
716.675
158.907
63.3625
31.7684
23.4023
23.282
28.1234
37.1914
51.7817
74.9592
114.299
187.896
338.739
655.022
1319.85
353.23
172.674
94.218
72.2337
72.1406
86.716
113.863
156.77
221.694
321.438
480.971
756.475
1274.92
2344.64
47.0675
31.1146
20.5097
13.1149
8.74685
6.09112
4.80767
4.41765
5.34436
9.36047
22.0807
58.5448
155.801
398.917
11.0676
6.3693
4.00869
2.42237
1.54125
1.01447
0.783164
0.759663
1.19201
3.14383
10.3185
33.6848
101.969
282.633
2.75537
1.11714
0.617444
0.352051
0.215511
0.136527
0.109546
0.146173
0.42136
1.66811
6.48679
22.8436
72.3607
208.636
1.55173
0.339432
0.100415
0.042707
0.0235227
0.0149272
0.0168712
0.050902
0.238586
1.08784
4.43015
16.0734
52.7041
159.481
1.89342
0.34294
0.0562988
0.00968874
0.00261543
0.00178916
0.00546578
0.030222
0.162154
0.768862
3.22347
12.1158
41.603
133.18
2.77511
0.480269
0.0704657
0.00859436
0.00103029
0.000627551
0.00342577
0.0213092
0.117809
0.5736
2.48799
9.75603
35.1285
117.586
4.39188
0.718873
0.0968565
0.0106925
0.00147496
0.0010813
0.00335545
0.0175077
0.0952997
0.474378
2.12874
8.66718
32.307
110.791
7.1311
1.09396
0.134639
0.0161317
0.00591036
0.00670576
0.010066
0.024328
0.0983159
0.461947
2.07998
8.57809
32.2307
110.327
11.5157
1.67578
0.204833
0.0427611
0.0360444
0.0459998
0.0609326
0.091816
0.201139
0.675458
2.67944
10.4198
37.4626
123.079
18.6833
2.74974
0.433705
0.187511
0.202129
0.262872
0.349021
0.482446
0.771182
1.67144
4.88284
16.0455
51.6984
156.331
31.0946
5.5004
1.40928
0.891593
0.973855
1.25446
1.67902
2.30832
3.37824
5.77733
12.4481
32.2987
88.4221
237.719
57.4024
14.4818
5.39146
3.85162
4.0745
5.13763
6.8608
9.43126
13.4021
20.6042
36.361
75.9852
175.216
416.057
116.921
42.4886
19.455
14.6326
15.0974
18.6178
24.5925
33.6146
47.0634
68.9199
108.706
192.569
379.317
804.668
262.837
123.673
62.7799
49.0035
50.1821
61.1294
79.8969
108.181
149.331
212.001
310.82
480.227
797.322
1474.44
10.7773
6.54557
4.30144
2.77932
1.86604
1.31483
1.04347
0.940292
1.04059
1.62846
3.82527
11.1842
34.13
100.139
2.32242
1.11902
0.696154
0.431911
0.278218
0.186412
0.141208
0.12624
0.169335
0.436388
1.63198
6.2517
21.9652
69.228
0.77838
0.20396
0.0891624
0.0498231
0.0305684
0.0197774
0.0150261
0.0173461
0.0496332
0.231321
1.07115
4.40287
15.9263
51.231
0.764235
0.134301
0.0232882
0.0059579
0.00256766
0.00155065
0.00159099
0.00514116
0.0294646
0.162134
0.776514
3.23567
11.8941
39.3459
1.11241
0.18864
0.0262075
0.00336621
0.000450428
0.000146499
0.00046318
0.0032796
0.0215692
0.121555
0.590849
2.51709
9.59254
33.5361
1.71157
0.278857
0.0360625
0.00401785
0.000395029
8.95506e-05
0.000341661
0.00248583
0.0164629
0.0941426
0.469349
2.0782
8.35138
31.137
2.76208
0.426207
0.0502944
0.00505326
0.000652141
0.000398464
0.000666908
0.00244555
0.0139393
0.0796812
0.411741
1.91856
8.16943
32.173
4.49988
0.653001
0.070295
0.00763833
0.00292861
0.00345271
0.004534
0.00703462
0.018852
0.0845849
0.425706
2.02975
8.88141
35.5761
7.25749
1.00253
0.10799
0.0215964
0.0193697
0.0256068
0.0335522
0.0444647
0.0691273
0.168182
0.634289
2.74188
11.4428
44.0818
11.9239
1.65419
0.236311
0.103381
0.114616
0.152133
0.202128
0.268012
0.370655
0.62169
1.49725
4.91529
17.5993
61.2369
20.4175
3.32175
0.801014
0.523076
0.577885
0.749067
0.997389
1.33423
1.81249
2.68755
4.86655
11.6956
33.3562
99.4407
37.5632
8.77457
3.20405
2.39626
2.54112
3.17862
4.1822
5.58889
7.55012
10.7042
16.7962
31.9462
72.4532
182.077
72.5641
26.1822
12.2166
9.74145
10.0336
12.1216
15.5924
20.539
27.4262
37.9865
55.4792
90.814
170.335
366.511
157.533
79.6201
42.308
35.1861
35.849
42.3965
53.4676
69.1825
90.7668
122.877
171.112
251.879
396.437
709.691
1.27697
0.659993
0.419478
0.27279
0.181962
0.126768
0.0988934
0.0850895
0.0861294
0.123817
0.304056
1.03378
3.7514
13.0186
0.334971
0.0994745
0.0507911
0.0312681
0.020328
0.0139077
0.0107197
0.00919129
0.0110625
0.0292718
0.130602
0.600781
2.48857
9.10619
0.228776
0.0398504
0.00806599
0.00282506
0.00155112
0.00102083
0.000805141
0.000919784
0.00294542
0.0168679
0.0941348
0.456773
1.9182
7.03973
0.316379
0.0544274
0.00783947
0.00103525
0.000172727
5.72552e-05
5.90283e-05
0.000259597
0.0019139
0.0128306
0.0731194
0.356118
1.49999
5.54413
0.495178
0.0831665
0.0116431
0.00135873
0.000146769
1.55665e-05
2.08627e-05
0.000186357
0.00151608
0.0102985
0.059049
0.290097
1.24129
4.71745
0.800828
0.12546
0.0164329
0.00173378
0.000173474
2.45477e-05
2.80109e-05
0.000160145
0.001221
0.00829768
0.0482205
0.242327
1.07385
4.29566
1.32778
0.192391
0.0230733
0.00220835
0.00028606
0.000155897
0.000186538
0.000318562
0.00121756
0.00723923
0.0422924
0.221011
1.0365
4.44565
2.15276
0.292371
0.0320798
0.00330524
0.00119284
0.00136743
0.00171155
0.00213864
0.00328269
0.00946313
0.0453527
0.236459
1.15686
5.21084
3.37785
0.458184
0.0485425
0.00872579
0.00736435
0.00964811
0.0123539
0.0153616
0.0195193
0.0309506
0.0835333
0.350369
1.61819
7.14598
5.24929
0.769789
0.102166
0.0394788
0.0423162
0.0555253
0.0717817
0.0908094
0.114128
0.154371
0.272288
0.760529
2.83938
11.2052
8.28862
1.50655
0.334279
0.199422
0.214305
0.272328
0.350358
0.44736
0.566818
0.742155
1.10098
2.21457
6.17948
20.2672
14.2646
3.81098
1.34016
0.945858
0.975557
1.18384
1.49233
1.89642
2.40879
3.13098
4.33669
7.17107
15.3442
40.7171
27.5436
11.1645
5.31404
4.08281
4.07967
4.72198
5.75657
7.15939
8.99692
11.6188
15.6202
23.2197
40.7249
88.7468
62.9559
34.2337
19.6263
15.9964
15.8169
17.6961
20.84
25.069
30.6786
38.9113
51.1601
71.5305
108.16
193.1
0.123736
0.0401705
0.0217746
0.0138719
0.0095026
0.00699749
0.00586615
0.0051267
0.00471887
0.00583152
0.0153533
0.0654017
0.290557
1.18872
0.0593637
0.00957339
0.00227664
0.00100104
0.000634604
0.000468942
0.000405297
0.000370766
0.000454325
0.00143031
0.00802189
0.0441065
0.212057
0.886305
0.0649149
0.0103273
0.00154424
0.000220263
4.45978e-05
1.99679e-05
1.72591e-05
2.69976e-05
0.000132999
0.000972977
0.00643273
0.0362005
0.174253
0.72431
0.0976911
0.0163535
0.00251618
0.00032692
3.79357e-05
4.05617e-06
1.47244e-06
1.02672e-05
9.71707e-05
0.000777842
0.00519992
0.0293603
0.14171
0.590862
0.150055
0.0251566
0.00371851
0.000462904
5.02318e-05
4.79906e-06
1.2484e-06
8.23332e-06
7.89355e-05
0.000638225
0.0043048
0.0245142
0.119479
0.505029
0.229928
0.0379209
0.00511816
0.000582332
5.91857e-05
8.08301e-06
4.96788e-06
1.09056e-05
6.80583e-05
0.000524445
0.00356031
0.0205933
0.102537
0.446629
0.354848
0.0572512
0.00693969
0.000722718
8.83825e-05
4.20708e-05
4.74498e-05
5.88129e-05
0.000111344
0.000502718
0.00313975
0.0183794
0.0948522
0.434999
0.537437
0.0846225
0.00930077
0.000996615
0.000292574
0.000320346
0.000400806
0.000477097
0.000583013
0.00101071
0.00364394
0.0191983
0.101051
0.488401
0.789405
0.122186
0.0131263
0.00215695
0.00162551
0.00214872
0.00274697
0.00332489
0.00392205
0.00497268
0.00902044
0.030738
0.143636
0.684126
1.14519
0.183362
0.0243633
0.00851169
0.00912496
0.0122025
0.0156752
0.0192807
0.0230308
0.0279798
0.0389814
0.0830823
0.284921
1.18513
1.70933
0.327931
0.0725031
0.0417456
0.0463227
0.0600399
0.0765732
0.094992
0.11506
0.140177
0.181479
0.298494
0.732786
2.44237
2.8828
0.803423
0.287694
0.20083
0.213554
0.263208
0.328585
0.406545
0.496275
0.610188
0.774497
1.12232
2.12906
5.57185
5.85313
2.43215
1.18075
0.897256
0.91057
1.05819
1.27348
1.54834
1.88481
2.33169
2.95236
4.02999
6.41752
13.4464
14.5026
7.81156
4.59435
3.69493
3.6387
4.00501
4.59743
5.40292
6.45805
7.95624
10.0714
13.4105
19.1447
33.0549
0.0200473
0.00392484
0.00130813
0.000712648
0.000482295
0.000378469
0.000348576
0.000326207
0.000304465
0.000369435
0.00112369
0.00588659
0.030312
0.137959
0.0124015
0.0019467
0.000292011
5.20452e-05
1.893e-05
1.39661e-05
1.4463e-05
1.59332e-05
2.43982e-05
0.00010227
0.000686396
0.00428783
0.022949
0.105507
0.0155102
0.00275005
0.000443869
6.16968e-05
7.8998e-06
1.09909e-06
5.08181e-07
1.23804e-06
8.67986e-06
7.42114e-05
0.000556231
0.0035257
0.0189597
0.0872319
0.0233366
0.00429227
0.000718731
0.000101576
1.25872e-05
1.32707e-06
1.82181e-07
6.23165e-07
6.47837e-06
5.87554e-05
0.000444837
0.00283676
0.0153866
0.0715461
0.0345564
0.00624788
0.00101641
0.00013791
1.62412e-05
1.67141e-06
2.74846e-07
5.90517e-07
5.27885e-06
4.77672e-05
0.000365901
0.00236106
0.0129643
0.0611746
0.0505761
0.00881028
0.00133606
0.000167416
1.86772e-05
2.61434e-06
1.40729e-06
1.78098e-06
5.60709e-06
4.00291e-05
0.000301651
0.00197119
0.0110225
0.0532582
0.0740559
0.0124252
0.00172561
0.000200215
2.57724e-05
1.09505e-05
1.20051e-05
1.39573e-05
1.8356e-05
4.80815e-05
0.000271471
0.00172571
0.00985228
0.0493646
0.106429
0.0171764
0.0022054
0.000261265
7.10874e-05
7.33231e-05
9.1721e-05
0.000108006
0.000124316
0.000163062
0.000385444
0.00181047
0.0100043
0.0518148
0.149051
0.0233766
0.00295103
0.000502051
0.000350939
0.000461989
0.000591333
0.000709182
0.00081956
0.000958157
0.00133799
0.00331112
0.0141912
0.0700776
0.207324
0.0333842
0.00506092
0.00175199
0.0018717
0.00253565
0.00325918
0.0039674
0.00465902
0.00543575
0.00671018
0.0110858
0.0312623
0.127067
0.300283
0.0580193
0.0139256
0.00806225
0.00921994
0.0122163
0.0156227
0.0191982
0.02287
0.027022
0.0326241
0.0459237
0.0932254
0.290151
0.509498
0.143027
0.0534036
0.0375635
0.0414615
0.052615
0.0662284
0.0815032
0.0980264
0.117364
0.14185
0.186786
0.307163
0.741022
1.0988
0.446426
0.218162
0.164935
0.172531
0.206986
0.25309
0.308542
0.372086
0.450212
0.548693
0.70325
1.01388
1.96293
2.8849
1.47462
0.854058
0.675054
0.674428
0.761084
0.891498
1.06096
1.26914
1.54254
1.89766
2.42123
3.24366
5.27607
0.00431156
0.000761374
0.000165477
6.52532e-05
4.17643e-05
3.60119e-05
3.73463e-05
3.81587e-05
3.66277e-05
4.02267e-05
0.00011214
0.000631308
0.00351442
0.0169439
0.00293991
0.000517933
7.91802e-05
1.13986e-05
2.29161e-06
1.36527e-06
1.68795e-06
2.18334e-06
3.2233e-06
1.10285e-05
7.32636e-05
0.000484051
0.002752
0.0133519
0.00393038
0.000777358
0.000133804
1.98283e-05
2.65136e-06
3.45672e-07
1.14295e-07
1.87825e-07
9.22459e-07
7.61834e-06
6.00756e-05
0.000404696
0.00231356
0.0112741
0.00592734
0.00120335
0.000213124
3.19292e-05
4.19125e-06
4.708e-07
6.30151e-08
7.72927e-08
6.40942e-07
6.02537e-06
4.8593e-05
0.000330812
0.00191189
0.00944899
0.00864041
0.00171923
0.000296913
4.27688e-05
5.35457e-06
5.82362e-07
9.0492e-08
8.92145e-08
5.37357e-07
4.90756e-06
4.00828e-05
0.00027719
0.00162732
0.00817709
0.0123182
0.00234899
0.000382558
5.12264e-05
6.06471e-06
8.06205e-07
3.56952e-07
3.8144e-07
7.55298e-07
4.28444e-06
3.31877e-05
0.000231904
0.00138798
0.0071358
0.0174849
0.00317548
0.000482718
6.00881e-05
7.68353e-06
2.60845e-06
2.66604e-06
3.02264e-06
3.56565e-06
6.63099e-06
3.11087e-05
0.000202153
0.00122353
0.00647423
0.0243558
0.00420953
0.000602433
7.4789e-05
1.71569e-05
1.5614e-05
1.93082e-05
2.24424e-05
2.51452e-05
2.96685e-05
5.39725e-05
0.000216976
0.00120675
0.0064831
0.0330772
0.00549262
0.000774461
0.000125232
7.40158e-05
9.5106e-05
0.000121349
0.000143601
0.000162745
0.000182647
0.000227353
0.000450127
0.0017145
0.00843922
0.0445911
0.0074545
0.0012072
0.000372337
0.000379231
0.000516229
0.000662129
0.000794786
0.000915369
0.00103742
0.00120876
0.00173308
0.00410705
0.0156834
0.0624758
0.0121441
0.00291755
0.00159027
0.0018422
0.00248008
0.00317154
0.00384736
0.00449646
0.00518026
0.00600915
0.00776951
0.0136589
0.0387277
0.104245
0.0284719
0.0104388
0.00720704
0.00820292
0.0106666
0.0134892
0.0164398
0.0194276
0.0227267
0.0265873
0.0331199
0.0491823
0.108189
0.228636
0.0878508
0.0417673
0.0311756
0.0336769
0.0416974
0.0516355
0.0627746
0.0746823
0.0885186
0.104821
0.129055
0.173357
0.309818
0.615445
0.292164
0.163144
0.126545
0.129465
0.151067
0.180711
0.216489
0.257313
0.307834
0.369308
0.456233
0.581637
0.890491
0.00091088
0.000163326
3.23055e-05
1.08378e-05
6.78981e-06
6.402e-06
7.24752e-06
7.89991e-06
7.81206e-06
7.34457e-06
1.2732e-05
6.33135e-05
0.000368447
0.00186624
0.000671906
0.000126054
2.0574e-05
3.10152e-06
5.93914e-07
3.31207e-07
4.23226e-07
5.60621e-07
7.09771e-07
1.39095e-06
7.26976e-06
4.9239e-05
0.000296137
0.00151439
0.000935474
0.000195938
3.55026e-05
5.55567e-06
7.86307e-07
1.14443e-07
4.30137e-08
5.17157e-08
1.2178e-07
7.35769e-07
5.84242e-06
4.16491e-05
0.000252691
0.00130253
0.00141701
0.000304566
5.64629e-05
8.89138e-06
1.23096e-06
1.52865e-07
2.85596e-08
2.17004e-08
7.01912e-08
5.64779e-07
4.74177e-06
3.43583e-05
0.00021143
0.00110988
0.00204442
0.000432319
7.81353e-05
1.18566e-05
1.56805e-06
1.85277e-07
3.44986e-08
2.47487e-08
6.25777e-08
4.6217e-07
3.90593e-06
2.87985e-05
0.000180618
0.000967887
0.00285371
0.000580863
9.92311e-05
1.4084e-05
1.75586e-06
2.2843e-07
8.33955e-08
7.88278e-08
1.11266e-07
4.31127e-07
3.24362e-06
2.40157e-05
0.000153776
0.000844759
0.00394495
0.00076796
0.000122854
1.62654e-05
2.07171e-06
5.4626e-07
4.92811e-07
5.42566e-07
6.03591e-07
8.79883e-07
3.23593e-06
2.08855e-05
0.000133883
0.000753788
0.00534996
0.000996407
0.000150316
1.94623e-05
3.74941e-06
2.82021e-06
3.39684e-06
3.88497e-06
4.26156e-06
4.71431e-06
7.04013e-06
2.34249e-05
0.000129241
0.000724796
0.00706901
0.00126942
0.000186775
2.87781e-05
1.36476e-05
1.6687e-05
2.11312e-05
2.46323e-05
2.74116e-05
2.98038e-05
3.43662e-05
5.6299e-05
0.000185855
0.000904423
0.00924826
0.0016565
0.000266715
7.14772e-05
6.67067e-05
9.05082e-05
0.0001156
0.000136696
0.00015452
0.000170511
0.000190105
0.000244054
0.000487037
0.00170888
0.0124702
0.00249168
0.000556776
0.000277299
0.000321297
0.000437789
0.000558923
0.000668687
0.000766837
0.000861118
0.000963987
0.00116141
0.00179159
0.00454495
0.0199515
0.00530689
0.00180794
0.00121673
0.00142771
0.00189868
0.00240755
0.00290067
0.00336486
0.00383782
0.00434553
0.00514213
0.00696628
0.0138225
0.0429307
0.0155768
0.00699548
0.00518556
0.00582784
0.00745445
0.00932432
0.0112648
0.0131831
0.0152455
0.0174944
0.0206631
0.0260132
0.0426547
0.115763
0.051239
0.0271107
0.0208456
0.022152
0.0269103
0.0328299
0.0393889
0.0462629
0.05412
0.0629981
0.0750194
0.0911159
0.130555
0.00017369
3.21448e-05
6.50048e-06
2.16276e-06
1.40432e-06
1.40798e-06
1.66521e-06
1.8786e-06
1.90502e-06
1.68271e-06
1.78121e-06
5.98802e-06
3.4921e-05
0.000186375
0.000137308
2.69526e-05
4.65903e-06
7.51004e-07
1.56639e-07
9.28653e-08
1.17532e-07
1.54433e-07
1.84176e-07
2.34524e-07
7.08228e-07
4.50995e-06
2.85723e-05
0.000154911
0.000199607
4.33537e-05
8.19265e-06
1.35086e-06
2.07837e-07
4.03472e-08
2.19164e-08
2.3448e-08
3.0885e-08
8.14096e-08
5.22235e-07
3.83719e-06
2.4716e-05
0.000135404
0.000306135
6.80278e-05
1.30934e-05
2.16221e-06
3.20133e-07
5.03771e-08
1.79526e-08
1.53208e-08
1.90324e-08
5.9446e-08
4.23154e-07
3.18739e-06
2.08943e-05
0.000116998
0.000441026
9.63679e-05
1.80744e-05
2.8808e-06
4.06019e-07
5.87571e-08
1.90395e-08
1.56905e-08
1.84025e-08
5.09554e-08
3.50943e-07
2.67786e-06
1.79215e-05
0.000102788
0.000608415
0.00012791
2.27132e-05
3.40165e-06
4.50535e-07
6.59824e-08
2.6444e-08
2.39022e-08
2.62995e-08
5.21084e-08
2.96416e-07
2.23552e-06
1.52704e-05
8.99608e-05
0.000826847
0.00016618
2.76874e-05
3.87662e-06
5.04435e-07
1.12778e-07
8.74562e-08
9.25377e-08
9.85504e-08
1.20126e-07
3.22725e-07
1.95692e-06
1.3208e-05
7.94955e-05
0.00110221
0.000211988
3.33382e-05
4.49679e-06
7.58422e-07
4.50568e-07
5.18769e-07
5.83262e-07
6.27376e-07
6.63837e-07
8.58335e-07
2.33807e-06
1.25921e-05
7.40734e-05
0.00143013
0.000265052
4.03372e-05
6.01368e-06
2.23831e-06
2.52571e-06
3.16538e-06
3.63951e-06
3.97929e-06
4.20958e-06
4.595e-06
6.49801e-06
1.84897e-05
8.86289e-05
0.00183038
0.00033499
5.36163e-05
1.2441e-05
1.02176e-05
1.37084e-05
1.74355e-05
2.03374e-05
2.25735e-05
2.42846e-05
2.61086e-05
3.08559e-05
5.29007e-05
0.000168874
0.00237595
0.000467755
9.66828e-05
4.27683e-05
4.883e-05
6.71365e-05
8.55641e-05
0.000101013
0.00011368
0.000124452
0.000134911
0.000153593
0.000212276
0.000480403
0.00356988
0.000891367
0.000277811
0.000180478
0.000217924
0.000295642
0.00037541
0.000446866
0.000508667
0.000565454
0.00062069
0.00070222
0.000879913
0.00157819
0.00724283
0.00243383
0.00102577
0.000759399
0.00089187
0.0011758
0.00148088
0.00177282
0.00203807
0.00229725
0.00255602
0.00290274
0.00345127
0.00521178
0.0191352
0.00784237
0.0039287
0.00302887
0.00337686
0.00427165
0.005292
0.00632768
0.00732137
0.00835523
0.0094312
0.0108217
0.012566
0.016882
2.96141e-05
5.64721e-06
1.19599e-06
4.19361e-07
2.93166e-07
3.10422e-07
3.7694e-07
4.34473e-07
4.50178e-07
3.96127e-07
3.22007e-07
5.91124e-07
3.08552e-06
1.72463e-05
2.50249e-05
5.08937e-06
9.27128e-07
1.65892e-07
4.50383e-08
3.22754e-08
3.85076e-08
4.76461e-08
5.45731e-08
5.77036e-08
8.77997e-08
3.98425e-07
2.55253e-06
1.46473e-05
3.79741e-05
8.46699e-06
1.65847e-06
2.92851e-07
5.57946e-08
2.00106e-08
1.60107e-08
1.63938e-08
1.74657e-08
2.13803e-08
5.57955e-08
3.36258e-07
2.23375e-06
1.29911e-05
5.91904e-05
1.34635e-05
2.67322e-06
4.66584e-07
8.05682e-08
2.22537e-08
1.50009e-08
1.43499e-08
1.46133e-08
1.76177e-08
4.6398e-08
2.81748e-07
1.90378e-06
1.13526e-05
8.54472e-05
1.909e-05
3.69227e-06
6.20493e-07
9.97985e-08
2.41802e-08
1.51774e-08
1.43448e-08
1.44876e-08
1.6875e-08
4.05441e-08
2.38293e-07
1.63561e-06
1.00202e-05
0.000116882
2.50916e-05
4.60214e-06
7.27964e-07
1.09234e-07
2.52827e-08
1.61078e-08
1.53743e-08
1.5497e-08
1.73496e-08
3.65016e-08
2.00586e-07
1.39253e-06
8.77653e-06
0.000156612
3.20972e-05
5.53433e-06
8.18698e-07
1.17392e-07
3.10622e-08
2.38173e-08
2.40061e-08
2.44678e-08
2.58417e-08
4.13985e-08
1.7821e-07
1.19715e-06
7.68981e-06
0.000205715
4.03111e-05
6.56582e-06
9.25268e-07
1.5057e-07
7.42257e-08
7.90416e-08
8.61674e-08
9.03385e-08
9.21749e-08
1.05846e-07
2.26003e-07
1.13171e-06
6.98002e-06
0.00026273
4.95766e-05
7.77099e-06
1.14509e-06
3.4297e-07
3.44462e-07
4.22961e-07
4.78497e-07
5.13e-07
5.28674e-07
5.52292e-07
6.95873e-07
1.70354e-06
8.02514e-06
0.000329954
6.10351e-05
9.76697e-06
1.99883e-06
1.39478e-06
1.82896e-06
2.31295e-06
2.66196e-06
2.89994e-06
3.04313e-06
3.16706e-06
3.51194e-06
5.28836e-06
1.53308e-05
0.000414196
7.99911e-05
1.54404e-05
5.94874e-06
6.56482e-06
9.07346e-06
1.15393e-05
1.34454e-05
1.48484e-05
1.58551e-05
1.66765e-05
1.81191e-05
2.28503e-05
4.63533e-05
0.000582791
0.000136089
3.85718e-05
2.39e-05
2.95451e-05
4.07473e-05
5.17592e-05
6.08444e-05
6.79578e-05
7.36639e-05
7.8479e-05
8.53372e-05
0.000100008
0.000163333
0.00109439
0.000339445
0.000133914
9.94774e-05
0.000122184
0.000165289
0.000208966
0.000247362
0.000279104
0.000306646
0.000331022
0.000362463
0.000409394
0.000573641
0.00279136
0.00106042
0.000504492
0.00039496
0.000464765
0.000609671
0.000762863
0.000905242
0.0010296
0.00114522
0.00125345
0.00138757
0.00154482
0.0019557
4.53061e-06
8.94978e-07
2.07292e-07
8.45448e-08
6.66702e-08
7.30207e-08
8.81335e-08