/*--------------------------------*- C++ -*----------------------------------*\
| =========                 |                                                 |
| \\      /  F ield         | OpenFOAM: The Open Source CFD Toolbox           |
|  \\    /   O peration     | Version:  v2106                                 |
|   \\  /    A nd           | Website:  www.openfoam.com                      |
|    \\/     M anipulation  |                                                 |
\*---------------------------------------------------------------------------*/
FoamFile
{
    version     2.0;
    format      ascii;
    arch        "LSB;label=32;scalar=64";
    class       volScalarField;
    location    "0.000186";
    object      p;
}
// * * * * * * * * * * * * * * * * * * * * * * * * * * * * * * * * * * * * * //

dimensions      [1 -1 -2 0 0 0 0];

internalField   nonuniform List<scalar> 
18109
(
210451
210213
209936
209630
209267
208872
208506
210185
209889
209523
209136
208713
208281
207900
209899
209482
209064
208625
208173
207733
207354
209581
209079
208599
208118
207650
207212
206834
209153
208605
208090
207598
207141
206723
206356
208638
208081
207558
207081
206648
206253
205894
208090
207540
207032
206577
206168
205794
205447
207545
207012
206535
206104
205714
205348
205004
211261
211057
210846
210595
210277
209919
209573
209252
208980
208713
208432
208042
207563
206882
211023
210763
210464
210136
209760
209363
208997
208673
208388
208098
207799
207426
207003
206448
210723
210360
210016
209634
209235
208833
208470
208153
207880
207604
207314
206953
206514
206009
210350
209932
209538
209126
208719
208323
207964
207645
207356
207061
206754
206401
205983
205518
209859
209422
209001
208595
208204
207833
207487
207171
206872
206562
206234
205867
205458
205020
209302
208878
208456
208069
207701
207352
207016
206695
206379
206046
205701
205317
204910
204488
208738
208321
207911
207545
207200
206874
206551
206229
205907
205560
205204
204809
204399
203992
208179
207772
207389
207039
206709
206392
206075
205756
205431
205085
204721
204327
203902
203504
207642
207250
206880
206530
206208
205898
205591
205282
204961
204623
204248
203861
203422
203040
207104
206728
206377
206036
205719
205409
205106
204810
204498
204175
203802
203424
202981
202606
206585
206219
205884
205550
205244
204941
204653
204363
204059
203744
203381
202992
202523
202182
206048
205683
205388
205084
204805
204512
204235
203959
203653
203339
202975
202582
202116
201735
205481
205156
204901
204623
204387
204131
203869
203599
203287
202964
202591
202173
201673
201258
204836
204595
204430
204235
204039
203810
203554
203281
202950
202607
202204
201788
201322
200783
210607
210808
211024
211263
211427
211655
211320
211429
211526
211645
211633
211679
211381
211534
211626
211686
211690
211772
211257
211566
211770
211894
211994
212100
211102
211562
211918
212190
212405
212581
210859
211451
211962
212410
212799
213156
210556
211245
211896
212505
213093
213675
210244
211000
211772
212536
213408
214308
209917
210682
211536
212479
213527
214522
209598
210315
211130
212086
213139
214165
209261
209881
210557
211364
212238
213184
208872
209356
209835
210405
210994
211791
208367
208676
208922
209218
209523
210024
207807
207974
207977
207949
207848
207947
207017
206887
206728
206434
206154
206076
206413
206203
205898
205556
205114
204794
205995
205664
205184
204647
204100
203682
205491
205139
204606
204017
203410
202876
204987
204599
204046
203481
202904
202333
204521
204136
203591
203095
202611
202126
204009
203635
203146
202753
202402
202033
203526
203151
202738
202424
202238
202043
203034
202625
202269
201978
201879
201760
202547
202097
201735
201443
201254
201155
202057
201578
201143
200790
200461
200319
201588
201080
200571
200119
199639
199196
201117
200588
199965
199348
198689
198043
200764
200218
199614
198947
198132
197293
200217
199512
198747
197943
197196
196528
200276
199656
199104
198322
197494
196694
200823
200114
199453
198686
197852
197081
201328
200672
200072
199332
198556
197839
201802
201209
200648
199998
199341
198743
202265
201789
201321
200839
200362
199952
202651
202277
201911
201631
201325
201177
203012
202730
202483
202361
202233
202232
203292
203061
202906
202837
202817
202976
203537
203329
203192
203144
203107
203270
203718
203500
203322
203240
203141
203181
203863
203611
203385
203197
202978
202859
204007
203748
203440
203109
202791
202477
204209
203947
203593
203200
202741
202223
204410
204149
203766
203346
202859
202375
210064
210785
211430
212181
212849
213944
210275
210871
211341
211879
212363
213234
210435
210881
211195
211565
211863
212392
210869
211163
211305
211396
211580
211761
204689
204411
204201
203937
203513
203116
205550
205325
205188
204903
204554
204249
206238
206099
206100
205939
205740
205556
206900
206913
207080
207073
207070
207131
207494
207688
208019
208264
208523
208917
208080
208443
208927
209422
209983
210746
208665
209179
209790
210504
211361
212443
209264
209894
210599
211495
212556
213787
209839
210545
211308
212289
213386
214612
210356
211080
211806
212723
213687
214868
210752
211420
212045
212804
213547
214559
211023
211593
212054
212610
213071
213861
211216
211653
211922
212259
212498
212975
211554
211836
211933
211989
211982
212116
211927
212921
215638
222145
232882
211828
212461
214466
221213
232445
212080
212464
214459
221913
235919
212758
213155
215081
221310
232896
213665
214545
216808
222014
229764
214491
215854
218463
223380
229990
215511
217328
220381
226012
235107
215938
217934
221309
226756
234686
244630
215636
217925
221533
226577
233120
241179
214643
216825
220658
225769
233176
242126
212922
214868
219085
224786
234660
246055
254773
210544
212279
216530
223830
236963
252345
269253
282345
208187
209496
213571
221956
238375
259965
291374
327109
206141
207004
210736
219439
234897
255444
282100
300479
204342
204877
207960
215636
226525
240671
257205
266265
202933
203214
205799
213260
224877
240514
250015
258865
202014
202057
204972
212734
227365
248702
273175
280284
201581
201549
204412
211162
224066
242620
264307
293488
201631
201800
204901
210160
218623
229263
242434
248670
201845
202491
205727
210931
218435
227893
232662
237346
202112
203165
206474
212625
223364
238008
251089
251812
201794
203145
206022
211566
220950
234082
249171
273135
201141
202432
204795
208483
213960
219980
200267
200759
202925
205901
210973
216624
198705
198666
200647
204905
212812
222334
197252
196713
198977
204823
216278
230130
196078
195192
197411
204070
219067
240591
195376
194249
196248
203173
217258
195193
193793
195308
201450
210682
195685
194512
195926
202217
211390
196722
196063
198115
204598
217414
198046
197914
200464
206056
218090
199638
199860
202886
207464
216133
201202
201771
205049
209533
216459
202526
203499
206814
212108
221271
203497
204647
207158
212207
220643
203713
204519
206452
210052
215806
203354
203984
205548
208509
214329
202705
202830
204450
207777
215717
202066
201650
203398
207289
218477
201647
200906
202450
206817
219826
201560
200473
201432
205891
217623
202100
200741
201109
205635
213513
203342
202159
202723
207845
216105
205103
204559
205572
211235
223744
207223
207339
208798
213952
225222
209565
210437
212500
216568
224401
211870
213258
215724
219542
225297
214030
215811
218728
223322
230941
215592
217733
220673
225571
232722
216519
218845
221519
226445
232676
216596
218696
221504
226607
233876
215850
217895
220771
226187
235556
214671
216551
219588
225539
237201
213429
215114
218277
224453
237713
212499
213843
217020
223551
236506
212917
212736
212613
212473
212275
212032
211763
211463
211158
210857
210572
210216
209809
209208
212678
212453
212272
212074
211827
211536
211227
210897
210575
210245
209939
209578
209203
208690
212348
212079
211871
211626
211352
211038
210719
210387
210083
209773
209486
209145
208771
208272
211878
211631
211402
211142
210852
210535
210214
209885
209579
209268
208968
208633
208262
207809
211364
211129
210871
210608
210322
210028
209728
209419
209119
208807
208492
208137
207743
207303
210799
210564
210305
210051
209781
209508
209228
208935
208639
208318
207983
207609
207195
206749
210237
209984
209731
209480
209229
208983
208727
208455
208166
207841
207487
207101
206661
206211
209625
209386
209127
208888
208654
208430
208195
207945
207667
207348
206980
206601
206139
205684
209004
208782
208519
208294
208071
207864
207644
207418
207162
206866
206502
206121
205652
205205
208366
208158
207910
207693
207486
207284
207081
206879
206647
206383
206039
205662
205192
204765
207724
207509
207304
207092
206908
206715
206526
206347
206134
205892
205570
205196
204712
204346
207061
206855
206720
206526
206368
206184
206005
205839
205632
205401
205099
204739
204277
203893
206403
206239
206141
205980
205866
205708
205533
205368
205153
204915
204615
204235
203766
203344
205761
205664
205661
205547
205446
205293
205107
204924
204682
204427
204118
203763
203314
202751
215962
215826
215825
215770
215727
215607
215444
215232
214967
214670
214407
214063
213720
213210
215643
215504
215469
215406
215343
215206
215005
214728
214438
214120
213808
213434
213097
212620
215349
215242
215204
215122
215014
214828
214599
214305
213994
213670
213374
213019
212693
212228
214883
214835
214777
214691
214556
214358
214117
213821
213513
213185
212877
212519
212184
211730
214452
214406
214324
214223
214073
213880
213652
213375
213084
212764
212447
212077
211721
211263
213964
213890
213807
213691
213549
213360
213157
212903
212627
212311
211977
211593
211204
210752
213419
213342
213243
213117
212987
212819
212652
212430
212175
211870
211524
211130
210704
210255
212810
212739
212645
212512
212409
212263
212125
211937
211702
211409
211051
210650
210183
209734
212173
212085
212010
211878
211803
211685
211566
211414
211205
210936
210582
210192
209697
209255
211499
211396
211364
211240
211190
211100
210994
210873
210691
210447
210094
209709
209171
208739
210812
210678
210700
210598
210558
210490
210391
210294
210126
209901
209560
209190
208638
208278
210106
209992
210064
209986
209948
209895
209801
209717
209558
209350
209034
208655
208101
207712
209424
209318
209413
209372
209337
209303
209200
209111
208941
208722
208402
207999
207473
207047
208777
208795
208903
208872
208801
208754
208627
208512
208318
208095
207786
207396
206892
206334
220437
220367
220491
220506
220571
220566
220535
220439
220293
220108
219905
219642
219411
219006
220072
220107
220186
220212
220243
220216
220142
220006
219833
219612
219361
219057
218805
218412
219733
219802
219879
219917
219945
219897
219791
219623
219419
219187
218939
218645
218379
217993
219355
219461
219523
219555
219554
219478
219348
219165
218949
218704
218443
218141
217854
217471
218930
219052
219104
219130
219107
219016
218886
218707
218494
218252
217988
217686
217383
217008
218479
218592
218639
218649
218616
218522
218402
218236
218032
217792
217518
217209
216883
216502
217983
218070
218120
218116
218085
218010
217911
217769
217582
217351
217071
216757
216406
216026
217444
217502
217566
217556
217541
217490
217413
217295
217122
216898
216608
216287
215903
215525
216877
216891
216969
216961
216965
216947
216892
216801
216648
216440
216146
215826
215409
215039
216280
216259
216368
216369
216391
216400
216361
216291
216153
215953
215645
215317
214849
214486
215685
215622
215744
215765
215788
215820
215793
215731
215601
215408
215098
214776
214273
213950
215058
215025
215147
215179
215195
215237
215207
215145
215012
214817
214511
214159
213629
213297
214449
214418
214523
214576
214587
214625
214574
214492
214334
214117
213808
213430
212943
212564
213861
213932
214026
214051
214014
214014
213922
213808
213625
213405
213103
212693
212208
211704
226100
226036
226129
226159
226228
226254
226279
226272
226238
226167
226073
225942
225819
225621
225668
225717
225813
225860
225928
225950
225960
225930
225862
225753
225618
225444
225279
225045
225319
225418
225504
225567
225626
225641
225632
225578
225485
225354
225201
225017
224831
224584
224943
225076
225161
225228
225273
225278
225246
225168
225053
224902
224728
224524
224315
224059
224561
224702
224792
224854
224888
224879
224830
224741
224614
224453
224267
224054
223831
223575
224161
224293
224387
224439
224462
224444
224389
224295
224163
223996
223799
223575
223339
223081
223732
223843
223941
223985
224003
223985
223935
223846
223716
223548
223345
223115
222867
222612
223283
223365
223468
223508
223523
223511
223468
223388
223260
223092
222881
222647
222384
222135
222801
222849
222949
222992
223010
223012
222981
222912
222792
222628
222415
222180
221897
221657
222311
222336
222431
222481
222499
222509
222482
222419
222299
222135
221913
221677
221366
221142
221798
221815
221883
221940
221954
221970
221945
221883
221767
221610
221390
221164
220818
220626
221289
221318
221359
221419
221421
221432
221397
221326
221199
221033
220804
220569
220194
220025
220760
220813
220818
220875
220859
220854
220796
220704
220559
220384
220160
219919
219585
219386
220263
220348
220351
220380
220309
220271
220179
220063
219899
219714
219473
219198
218875
218576
231671
231635
231687
231702
231734
231762
231796
231825
231852
231872
231892
231898
231924
231908
231230
231267
231333
231369
231417
231459
231500
231527
231540
231537
231524
231496
231467
231430
230870
230946
231008
231061
231119
231168
231211
231231
231231
231211
231174
231124
231067
231003
230519
230607
230678
230742
230804
230852
230886
230894
230877
230836
230777
230703
230622
230540
230179
230269
230348
230415
230475
230518
230540
230536
230505
230449
230374
230289
230196
230102
229846
229927
230011
230074
230125
230157
230168
230151
230105
230038
229952
229859
229758
229665
229515
229584
229666
229720
229757
229778
229777
229749
229694
229620
229528
229433
229330
229244
229183
229233
229305
229348
229370
229377
229366
229332
229268
229188
229092
228997
228895
228823
228847
228875
228930
228958
228963
228962
228942
228901
228832
228749
228651
228559
228458
228404
228509
228516
228547
228561
228551
228538
228506
228459
228385
228299
228198
228108
228001
227969
228142
228144
228141
228146
228122
228098
228056
228002
227925
227838
227736
227647
227531
227530
227803
227791
227753
227742
227699
227659
227602
227536
227451
227359
227250
227157
227026
227046
227394
227408
227335
227316
227252
227193
227120
227041
226951
226859
226754
226666
226542
226559
227038
227035
226952
226911
226809
226729
226641
226549
226447
226347
226225
226119
225975
225980
236161
236166
236189
236191
236200
236209
236235
236279
236342
236424
236530
236642
236798
236892
235764
235785
235817
235833
235857
235886
235931
235988
236060
236145
236241
236343
236452
236539
235418
235455
235486
235509
235543
235586
235646
235713
235790
235874
235961
236049
236138
236202
235090
235128
235166
235196
235238
235290
235356
235426
235501
235580
235654
235729
235795
235857
234794
234826
234867
234900
234944
234999
235065
235133
235204
235277
235341
235407
235463
235522
234517
234543
234585
234615
234655
234705
234763
234824
234885
234949
235004
235066
235113
235178
234262
234281
234316
234341
234371
234408
234454
234504
234553
234609
234657
234717
234763
234837
234025
234030
234055
234069
234084
234104
234133
234169
234206
234253
234294
234353
234398
234482
233798
233790
233797
233798
233795
233793
233803
233827
233851
233888
233922
233981
234023
234119
233574
233554
233538
233520
233497
233476
233469
233479
233492
233520
233546
233603
233640
233744
233348
233316
233271
233235
233191
233155
233131
233128
233131
233151
233170
233225
233254
233366
233118
233076
232999
232943
232880
232831
232793
232779
232775
232788
232799
232850
232865
232984
232851
232809
232705
232637
232558
232499
232450
232427
232418
232427
232436
232484
232498
232618
232628
232533
232416
232331
232235
232169
232115
232089
232077
232083
232081
232111
232099
232239
239193
239213
239219
239212
239205
239210
239242
239301
239395
239524
239696
239884
240131
240313
238865
238874
238881
238879
238876
238890
238936
239012
239123
239270
239448
239643
239862
240047
238570
238588
238585
238580
238577
238595
238650
238737
238859
239012
239193
239382
239597
239763
238294
238305
238303
238297
238297
238321
238384
238480
238609
238769
238945
239134
239331
239497
238056
238059
238052
238043
238042
238069
238136
238237
238369
238530
238705
238890
239078
239243
237843
237833
237824
237812
237809
237836
237903
238003
238133
238293
238463
238648
238826
238996
237658
237636
237621
237604
237596
237619
237681
237777
237901
238059
238224
238410
238583
238760
237493
237460
237437
237412
237396
237411
237465
237553
237669
237821
237981
238168
238337
238524
237341
237299
237265
237231
237204
237209
237251
237329
237435
237580
237734
237921
238087
238286
237192
237143
237096
237051
237014
237008
237039
237106
237201
237337
237483
237669
237831
238041
237043
236988
236926
236872
236824
236808
236828
236884
236966
237092
237229
237413
237568
237787
236882
236821
236746
236685
236631
236609
236621
236667
236738
236854
236982
237160
237305
237528
236709
236646
236559
236497
236442
236417
236422
236459
236520
236627
236744
236914
237051
237275
236544
236450
236367
236305
236254
236230
236233
236265
236317
236413
236516
236670
236782
237023
240985
241015
241011
241007
241012
241036
241081
241158
241267
241409
241594
241787
242040
242236
240737
240754
240745
240736
240737
240760
240807
240891
241010
241167
241362
241570
241813
242014
240521
240534
240511
240493
240484
240502
240550
240635
240755
240912
241109
241313
241561
241756
240310
240312
240283
240259
240246
240263
240313
240402
240526
240688
240883
241091
241327
241526
240135
240119
240081
240050
240031
240045
240096
240186
240311
240475
240668
240875
241103
241302
239969
239937
239893
239857
239836
239849
239900
239991
240118
240285
240475
240684
240901
241104
239822
239774
239724
239684
239660
239671
239721
239813
239940
240109
240299
240511
240721
240927
239681
239621
239565
239522
239497
239507
239556
239648
239775
239947
240136
240353
240559
240771
239546
239476
239416
239369
239344
239354
239401
239492
239618
239792
239983
240205
240412
240632
239409
239333
239271
239222
239198
239209
239254
239344
239470
239646
239837
240064
240273
240503
239271
239194
239131
239083
239059
239072
239115
239204
239328
239506
239697
239928
240138
240379
239129
239055
238993
238948
238928
238941
238983
239071
239194
239371
239561
239794
240005
240253
238983
238917
238857
238822
238807
238822
238863
238952
239073
239247
239435
239670
239880
240134
238854
238779
238734
238708
238700
238717
238761
238843
238953
239113
239286
239504
239712
239972
242112
242121
242114
242118
242131
242163
242210
242285
242381
242499
242644
242793
242985
243137
241918
241930
241916
241914
241922
241948
241992
242065
242163
242286
242437
242597
242788
242947
241764
241765
241738
241727
241728
241747
241785
241851
241943
242060
242209
242364
242561
242722
241598
241588
241555
241538
241534
241551
241585
241649
241740
241858
242005
242162
242353
242520
241456
241429
241388
241364
241354
241365
241396
241456
241544
241661
241805
241962
242147
242317
241305
241268
241222
241192
241179
241188
241219
241280
241369
241489
241632
241791
241968
242142
241159
241111
241061
241029
241014
241023
241055
241119
241211
241335
241478
241641
241814
241992
241008
240953
240903
240870
240857
240869
240904
240973
241071
241201
241347
241515
241686
241868
240853
240793
240746
240717
240709
240726
240767
240845
240949
241088
241239
241414
241587
241775
240699
240640
240596
240575
240573
240596
240646
240731
240843
240989
241147
241329
241508
241702
240544
240489
240453
240440
240447
240479
240539
240635
240755
240912
241078
241271
241456
241657
240399
240354
240328
240325
240340
240382
240451
240554
240680
240843
241016
241219
241413
241625
240252
240228
240207
240218
240242
240296
240375
240491
240626
240798
240979
241191
241393
241614
240143
240121
240119
240139
240175
240238
240324
240439
240573
240744
240922
241128
241339
241561
242697
242697
242696
242707
242726
242765
242813
242881
242960
243053
243159
243267
243400
243505
242536
242553
242547
242550
242562
242594
242638
242704
242781
242874
242983
243097
243233
243344
242419
242425
242410
242406
242411
242435
242471
242529
242599
242685
242790
242901
243043
243161
242273
242276
242257
242250
242252
242271
242304
242358
242425
242510
242613
242725
242865
242991
242141
242133
242109
242100
242098
242113
242144
242193
242258
242340
242439
242552
242689
242821
241994
241978
241954
241945
241944
241960
241990
242040
242104
242186
242284
242397
242530
242668
241844
241821
241799
241791
241793
241812
241847
241900
241967
242052
242151
242267
242396
242539
241692
241666
241648
241645
241653
241678
241719
241777
241848
241938
242039
242157
242286
242430
241533
241508
241497
241501
241518
241553
241603
241672
241752
241851
241958
242083
242211
242357
241385
241367
241365
241379
241407
241451
241510
241586
241674
241779
241891
242021
242154
242302
241234
241226
241233
241259
241300
241358
241430
241520
241619
241736
241855
241992
242127
242278
241109
241113
241133
241172
241226
241295
241376
241472
241578
241700
241827
241970
242112
242265
240989
241011
241036
241088
241154
241237
241333
241443
241560
241693
241828
241979
242125
242281
240905
240940
240985
241048
241123
241215
241317
241432
241552
241687
241821
241971
242116
242276
242889
242906
242929
242963
243003
243055
243110
243176
243243
243317
243389
243465
243547
243616
242764
242793
242811
242838
242874
242924
242980
243046
243116
243191
243268
243350
243437
243511
242665
242690
242701
242728
242761
242808
242860
242922
242987
243058
243134
243216
243310
243393
242542
242565
242578
242606
242638
242684
242735
242795
242859
242929
243005
243088
243183
243271
242420
242440
242456
242484
242517
242562
242612
242670
242733
242802
242878
242961
243057
243153
242291
242312
242333
242364
242399
242443
242493
242550
242611
242679
242754
242838
242933
243035
242156
242179
242205
242240
242279
242326
242379
242438
242501
242571
242647
242732
242827
242933
242030
242057
242090
242129
242173
242223
242279
242340
242404
242476
242552
242640
242733
242842
241900
241930
241972
242017
242070
242128
242190
242257
242326
242402
242480
242570
242661
242769
241794
241829
241879
241932
241993
242057
242124
242194
242265
242343
242421
242512
242601
242709
241690
241731
241788
241851
241922
241995
242071
242149
242225
242307
242387
242479
242566
242670
241616
241668
241733
241803
241881
241961
242041
242122
242200
242283
242364
242454
242542
242642
241548
241609
241680
241762
241849
241936
242023
242111
242195
242284
242367
242458
242544
242638
241512
241598
241677
241764
241850
241939
242027
242115
242199
242285
242366
242451
242531
242626
242900
242948
242998
243047
243096
243148
243199
243252
243304
243357
243405
243458
243505
243560
242806
242865
242916
242969
243021
243077
243131
243186
243240
243294
243346
243401
243455
243510
242722
242786
242839
242898
242953
243010
243065
243122
243176
243231
243286
243343
243401
243458
242632
242699
242757
242820
242879
242939
242996
243053
243109
243165
243221
243279
243340
243403
242535
242607
242671
242739
242802
242866
242926
242985
243043
243101
243158
243219
243283
243349
242444
242520
242591
242664
242732
242797
242859
242919
242977
243035
243094
243155
243220
243290
242354
242434
242512
242589
242662
242730
242795
242856
242914
242972
243030
243092
243157
243228
242281
242364
242448
242528
242604
242674
242738
242799
242856
242913
242970
243030
243093
243165
242214
242301
242389
242473
242552
242624
242689
242749
242805
242860
242913
242972
243031
243102
242168
242258
242348
242435
242515
242587
242651
242709
242762
242814
242864
242920
242974
243043
242134
242228
242319
242409
242488
242559
242621
242676
242725
242774
242819
242872
242920
242985
242121
242220
242310
242399
242476
242545
242602
242652
242696
242741
242782
242830
242871
242931
242109
242212
242305
242394
242471
242538
242592
242639
242679
242720
242756
242797
242832
242884
242140
242246
242332
242416
242487
242547
242595
242635
242667
242698
242727
242758
242787
242832
242830
242899
242959
243020
243073
243125
243173
243217
243258
243296
243332
243370
243405
243452
242761
242842
242908
242976
243038
243096
243148
243196
243242
243285
243326
243369
243408
243454
242700
242789
242864
242939
243006
243069
243127
243181
243231
243277
243320
243363
243404
243450
242647
242742
242826
242907
242979
243046
243106
243162
243215
243264
243310
243355
243399
243447
242599
242697
242788
242873
242951
243021
243086
243145
243200
243250
243298
243344
243389
243436
242562
242664
242759
242848
242929
243002
243069
243130
243186
243238
243287
243334
243380
243427
242534
242638
242736
242827
242910
242985
243053
243113
243169
243221
243270
243317
243363
243410
242517
242623
242722
242813
242897
242971
243038
243098
243152
243201
243247
243292
243336
243382
242508
242616
242715
242806
242887
242960
243023
243078
243127
243172
243213
243255
243295
243340
242512
242620
242715
242803
242880
242949
243007
243057
243101
243141
243177
243215
243249
243291
242526
242632
242721
242805
242877
242939
242990
243034
243070
243103
243131
243162
243189
243228
242554
242654
242736
242811
242875
242928
242972
243007
243034
243059
243078
243100
243119
243154
242584
242677
242752
242819
242872
242916
242950
242974
242992
243006
243017
243031
243045
243076
242634
242717
242779
242835
242877
242908
242928
242940
242946
242949
242951
242956
242964
242981
242582
242683
242766
242847
242917
242983
243041
243091
243135
243174
243210
243244
243277
243319
242561
242665
242756
242844
242923
242995
243058
243113
243164
243209
243250
243289
243326
243372
242546
242654
242751
242843
242928
243004
243073
243134
243190
243237
243282
243323
243361
243405
242540
242649
242752
242847
242936
243016
243089
243153
243213
243264
243312
243355
243395
243438
242541
242651
242757
242854
242945
243028
243104
243171
243232
243286
243335
243378
243419
243459
242548
242660
242766
242864
242956
243040
243117
243186
243248
243303
243353
243396
243437
243475
242566
242677
242782
242879
242969
243052
243128
243195
243256
243310
243359
243403
243443
243480
242591
242699
242800
242894
242982
243061
243134
243200
243260
243313
243360
243403
243441
243477
242620
242725
242821
242911
242993
243068
243137
243198
243252
243301
243344
243384
243420
243456
242655
242755
242843
242925
243001
243070
243131
243186
243233
243276
243313
243350
243381
243416
242692
242785
242863
242937
243004
243064
243116
243163
243204
243239
243270
243300
243326
243360
242731
242815
242882
242944
243001
243050
243094
243133
243165
243192
243215
243239
243260
243291
242769
242840
242895
242945
242990
243028
243061
243088
243109
243127
243143
243162
243180
243211
242815
242871
242911
242947
242977
243002
243022
243037
243046
243055
243065
243076
243087
243110
242300
242409
242509
242604
242685
242758
242821
242877
242926
242969
243008
243041
243074
243113
242321
242434
242538
242633
242721
242800
242871
242933
242989
243037
243081
243120
243155
243199
242348
242461
242570
242670
242762
242844
242920
242986
243046
243097
243144
243184
243221
243262
242376
242490
242603
242704
242800
242886
242966
243036
243099
243154
243204
243246
243285
243325
242411
242527
242640
242743
242840
242928
243009
243080
243145
243201
243252
243295
243335
243372
242451
242566
242678
242780
242876
242964
243045
243118
243183
243240
243292
243336
243376
243411
242495
242608
242717
242817
242910
242996
243075
243146
243210
243266
243316
243360
243399
243433
242543
242651
242753
242848
242938
243020
243096
243165
243227
243282
243330
243374
243410
243444
242591
242692
242787
242876
242960
243036
243108
243173
243232
243285
243331
243373
243408
243441
242638
242731
242817
242897
242973
243045
243110
243170
243224
243273
243315
243355
243388
243424
242681
242765
242840
242912
242980
243043
243099
243150
243196
243239
243278
243317
243350
243387
242721
242795
242858
242919
242976
243026
243075
243121
243161
243199
243234
243270
243300
243337
242754
242816
242866
242915
242960
243001
243039
243075
243108
243140
243171
243204
243233
243271
242794
242839
242873
242904
242936
242967
242995
243022
243048
243075
243100
243128
243154
243190
241903
242019
242122
242215
242298
242374
242443
242504
242560
242608
242652
242688
242723
242761
241961
242065
242171
242268
242358
242440
242515
242581
242642
242695
242743
242784
242821
242865
242024
242129
242238
242335
242427
242510
242587
242656
242718
242773
242823
242865
242903
242944
242087
242190
242299
242397
242491
242576
242655
242726
242791
242848
242900
242944
242985
243024
242153
242257
242364
242461
242555
242640
242719
242791
242857
242914
242967
243012
243054
243091
242220
242322
242425
242521
242613
242697
242777
242848
242914
242972
243026
243071
243114
243150
242287
242386
242485
242577
242666
242748
242825
242896
242961
243019
243072
243118
243160
243196
242351
242445
242538
242626
242710
242790
242864
242933
242997
243054
243106
243154
243195
243232
242410
242499
242584
242666
242746
242820
242891
242957
243017
243074
243125
243173
243215
243255
242465
242545
242622
242697
242769
242838
242905
242968
243027
243082
243132
243180
243222
243265
242511
242584
242651
242718
242782
242845
242906
242964
243020
243073
243123
243172
243215
243262
242552
242615
242670
242727
242783
242840
242896
242950
243002
243054
243103
243153
243197
243249
242582
242636
242681
242730
242777
242825
242872
242920
242967
243016
243064
243114
243159
243214
242613
242652
242686
242722
242759
242799
242839
242882
242926
242972
243019
243069
243117
243182
241689
241764
241835
241901
241962
242017
242068
242114
242158
242202
241416
241502
241597
241684
241768
241846
241920
241989
242052
242110
242163
242212
242259
242311
241507
241593
241686
241772
241854
241932
242005
242073
242136
242194
242249
242298
242345
242396
241596
241678
241768
241853
241935
242012
242086
242155
242219
242278
242334
242385
242434
242484
241682
241764
241852
241934
242014
242090
242163
242231
242295
242355
242411
242463
242514
242561
241768
241847
241930
242009
242087
242162
242234
242302
242367
242427
242484
242537
242589