/*--------------------------------*- C++ -*----------------------------------*\
| =========                 |                                                 |
| \\      /  F ield         | OpenFOAM: The Open Source CFD Toolbox           |
|  \\    /   O peration     | Version:  v2106                                 |
|   \\  /    A nd           | Website:  www.openfoam.com                      |
|    \\/     M anipulation  |                                                 |
\*---------------------------------------------------------------------------*/
FoamFile
{
    version     2.0;
    format      ascii;
    arch        "LSB;label=32;scalar=64";
    class       volScalarField;
    location    "0.000186";
    object      rho;
}
// * * * * * * * * * * * * * * * * * * * * * * * * * * * * * * * * * * * * * //

dimensions      [1 -3 0 0 0 0 0];

internalField   nonuniform List<scalar> 
18109
(
2.46894
2.46678
2.46425
2.46143
2.45813
2.4546
2.45142
2.46682
2.46432
2.46119
2.45783
2.45412
2.4503
2.44692
2.46435
2.46099
2.45761
2.45398
2.45014
2.44632
2.44297
2.4615
2.45757
2.45382
2.44996
2.44607
2.44234
2.43906
2.45772
2.45354
2.44958
2.44567
2.44191
2.43839
2.43525
2.45329
2.44914
2.44514
2.44133
2.43775
2.43443
2.43141
2.44871
2.44465
2.44076
2.43709
2.43367
2.43052
2.42761
2.44422
2.4403
2.43662
2.43311
2.42983
2.42674
2.42386
2.47574
2.47393
2.47202
2.46973
2.46687
2.4637
2.46067
2.45795
2.45579
2.45382
2.4518
2.44882
2.44487
2.43892
2.47384
2.47169
2.46918
2.46638
2.46313
2.45965
2.45643
2.45359
2.45115
2.44879
2.44641
2.44337
2.43975
2.43475
2.47126
2.4684
2.46567
2.46254
2.45917
2.45572
2.45255
2.44975
2.44735
2.445
2.44255
2.43944
2.4355
2.43071
2.46797
2.46478
2.46175
2.45845
2.45508
2.45173
2.44863
2.44586
2.44335
2.4408
2.43811
2.43493
2.43099
2.42636
2.46371
2.46047
2.45727
2.45403
2.45081
2.44769
2.44475
2.44206
2.43953
2.43687
2.43396
2.43055
2.42651
2.42199
2.459
2.45593
2.45271
2.44961
2.44655
2.44361
2.44079
2.43811
2.43549
2.43266
2.42957
2.42592
2.42178
2.41732
2.45433
2.45133
2.44818
2.4452
2.4423
2.43953
2.43683
2.43418
2.43152
2.42858
2.42536
2.42153
2.41731
2.41297
2.44975
2.44681
2.44383
2.44094
2.43815
2.43546
2.4328
2.43017
2.42748
2.42451
2.42117
2.41731
2.41296
2.40877
2.4453
2.44244
2.43954
2.43665
2.43394
2.43134
2.42876
2.42619
2.42348
2.42053
2.41705
2.41326
2.40886
2.40498
2.44076
2.43795
2.43519
2.43241
2.42981
2.42725
2.42475
2.42226
2.41956
2.41667
2.4132
2.40953
2.40527
2.40174
2.43629
2.43345
2.43077
2.42808
2.42564
2.42324
2.42091
2.41849
2.41583
2.41297
2.40959
2.40594
2.40172
2.39885
2.43165
2.42867
2.42622
2.42373
2.42154
2.41927
2.41711
2.41487
2.41224
2.40941
2.4061
2.4026
2.3987
2.39583
2.42684
2.42401
2.42174
2.41935
2.41742
2.4154
2.41337
2.41125
2.40869
2.40592
2.40269
2.3992
2.39526
2.39229
2.42152
2.41931
2.4176
2.41571
2.41392
2.41195
2.40984
2.40766
2.40502
2.40224
2.39899
2.39577
2.39233
2.38837
2.47006
2.47182
2.47397
2.47687
2.48085
2.48775
2.47607
2.47707
2.47809
2.47963
2.48143
2.48607
2.47643
2.47772
2.47868
2.48001
2.48278
2.48877
2.47513
2.47761
2.47959
2.48178
2.48604
2.49263
2.47354
2.47731
2.48076
2.48459
2.49017
2.49698
2.47128
2.47624
2.48129
2.48697
2.49398
2.50161
2.4686
2.47452
2.48107
2.4884
2.49674
2.50539
2.46597
2.47265
2.48048
2.48918
2.49946
2.51008
2.46337
2.47036
2.47896
2.48901
2.50032
2.51141
2.46103
2.46777
2.47599
2.48582
2.49669
2.50775
2.45866
2.46465
2.4715
2.47958
2.48831
2.49833
2.4559
2.46066
2.4655
2.47103
2.47687
2.4854
2.45202
2.4551
2.45755
2.46038
2.46371
2.47001
2.4474
2.44901
2.44911
2.44914
2.44937
2.45382
2.4404
2.43922
2.43792
2.4364
2.43665
2.44154
2.43458
2.43251
2.43037
2.42956
2.43036
2.43493
2.43039
2.42714
2.42375
2.42234
2.42385
2.42857
2.42561
2.42207
2.41859
2.4176
2.41956
2.42343
2.42101
2.41718
2.41393
2.41366
2.41595
2.4188
2.41687
2.41326
2.41046
2.41094
2.41337
2.41566
2.41246
2.40931
2.40728
2.4084
2.41088
2.41263
2.40843
2.40574
2.40456
2.40581
2.4085
2.41069
2.40451
2.40198
2.40136
2.4021
2.40449
2.40663
2.4009
2.39832
2.3975
2.39754
2.39826
2.40027
2.39755
2.39482
2.39293
2.39175
2.39075
2.39233
2.3945
2.39138
2.38831
2.38565
2.38333
2.38298
2.39129
2.38765
2.38319
2.37897
2.37565
2.37487
2.38868
2.38451
2.38006
2.3759
2.37242
2.37138
2.38392
2.37819
2.3725
2.36805
2.36666
2.36798
2.38395
2.37879
2.37492
2.37141
2.37062
2.37168
2.38779
2.38166
2.37707
2.37438
2.37436
2.37614
2.39135
2.38552
2.38149
2.37923
2.38011
2.38271
2.39484
2.38937
2.3857
2.38417
2.38586
2.38904
2.39838
2.39374
2.3909
2.39067
2.39319
2.39682
2.40141
2.39763
2.39564
2.3969
2.39993
2.40429
2.40437
2.40162
2.40073
2.40288
2.40633
2.41065
2.40681
2.40489
2.40496
2.40709
2.41038
2.41511
2.40917
2.40783
2.40811
2.41004
2.41234
2.41654
2.41107
2.40995
2.40984
2.41104
2.41229
2.41517
2.41267
2.41136
2.41073
2.41073
2.4107
2.41218
2.41428
2.41284
2.41129
2.40983
2.40904
2.40946
2.41634
2.4147
2.41253
2.41052
2.40905
2.40883
2.41824
2.41641
2.41381
2.41173
2.41079
2.41194
2.46545
2.47183
2.47797
2.48524
2.49194
2.50307
2.46744
2.4727
2.47717
2.48239
2.48735
2.49645
2.46889
2.47278
2.47577
2.47947
2.48305
2.48985
2.4725
2.47509
2.4766
2.47794
2.48114
2.48637
2.42043
2.4184
2.41745
2.41714
2.41731
2.41952
2.42748
2.42579
2.42542
2.425
2.42611
2.42966
2.43314
2.43206
2.43264
2.43311
2.43551
2.44055
2.43867
2.43867
2.44042
2.44203
2.44593
2.45276
2.44356
2.44486
2.44802
2.4518
2.45745
2.46614
2.44837
2.45096
2.45554
2.46155
2.46923
2.4799
2.45316
2.45707
2.46282
2.47071
2.48059
2.49303
2.45814
2.4632
2.46982
2.4791
2.49034
2.50331
2.46304
2.46891
2.47605
2.48577
2.49689
2.50948
2.46756
2.47374
2.48051
2.48931
2.49881
2.5111
2.47115
2.47691
2.48274
2.48988
2.49714
2.50752
2.47364
2.47857
2.48288
2.48812
2.49263
2.5007
2.47538
2.47918
2.48174
2.48497
2.48767
2.49321
2.47821
2.48071
2.48175
2.48251
2.48345
2.4874
2.50018
2.52584
2.5683
2.66144
2.84156
2.50041
2.52041
2.55511
2.65145
2.84526
2.50213
2.51738
2.551
2.65879
2.88517
2.50609
2.51928
2.55323
2.66051
2.88197
2.51178
2.52788
2.56953
2.68121
2.88113
2.51711
2.53779
2.58868
2.71103
2.90695
2.52491
2.5516
2.61373
2.75167
2.9687
2.52848
2.56012
2.63272
2.77311
2.9721
3.17746
2.52635
2.56445
2.64484
2.77876
2.95378
3.13555
2.51847
2.56051
2.64538
2.77032
2.93381
3.11238
2.50516
2.54942
2.63441
2.75142
2.92262
3.11697
3.26477
2.48768
2.53196
2.60959
2.72787
2.92214
3.1554
3.38714
3.54465
2.47178
2.51108
2.57842
2.69675
2.92031
3.21521
3.58595
3.9438
2.45864
2.49015
2.54693
2.66144
2.87406
3.18096
3.51461
3.75148
2.44595
2.46961
2.51711
2.62503
2.80855
3.07166
3.33118
3.47075
2.43485
2.45192
2.49331
2.60151
2.79705
3.08196
3.28847
3.41936
2.42644
2.4384
2.4821
2.59578
2.82467
3.16673
3.51846
3.65127
2.42101
2.43111
2.47609
2.5898
2.81549
3.13877
3.46901
3.82915
2.41872
2.43071
2.48282
2.59383
2.78901
3.04188
3.29318
3.42242
2.41763
2.43634
2.49799
2.61872
2.80516
3.03753
3.20779
3.31494
2.41829
2.44447
2.51467
2.64798
2.85962
3.13579
3.38002
3.45673
2.41525
2.44918
2.5216
2.64783
2.83678
3.08683
3.35384
3.67202
2.41023
2.44801
2.51754
2.62259
2.77
2.9478
2.40411
2.43718
2.5018
2.59345
2.73295
2.90165
2.39257
2.41997
2.47563
2.56984
2.72656
2.92111
2.38249
2.4016
2.45111
2.55297
2.74245
2.97439
2.37492
2.38633
2.42821
2.53153
2.75465
3.0678
2.37115
2.37634
2.41115
2.51131
2.72102
2.37072
2.37112
2.39926
2.4893
2.6592
2.37523
2.37561
2.3997
2.48918
2.66288
2.38286
2.3855
2.41362
2.50966
2.72228
2.39128
2.39714
2.43214
2.52436
2.73154
2.40107
2.41049
2.45521
2.54908
2.73888
2.4106
2.42477
2.47822
2.58208
2.76074
2.41906
2.43911
2.49791
2.61389
2.81273
2.42597
2.45015
2.50563
2.61728
2.7995
2.42717
2.45065
2.50177
2.59604
2.75156
2.42423
2.44724
2.4931
2.57479
2.72368
2.41937
2.43873
2.48143
2.55743
2.7158
2.41605
2.4306
2.46937
2.54327
2.72581
2.41534
2.4258
2.4583
2.53191
2.72615
2.41677
2.42267
2.4475
2.51881
2.70153
2.42232
2.42502
2.4421
2.51272
2.66923
2.4331
2.43508
2.45143
2.52994
2.70279
2.44684
2.4516
2.47174
2.56062
2.77809
2.46223
2.47135
2.49712
2.58781
2.79792
2.47884
2.49436
2.53023
2.62319
2.82027
2.49544
2.51613
2.56202
2.66736
2.85676
2.51167
2.5369
2.59233
2.71578
2.92851
2.5237
2.55364
2.6139
2.74599
2.95379
2.531
2.56362
2.62434
2.75365
2.94478
2.53132
2.56379
2.62561
2.74622
2.92989
2.52498
2.55931
2.61919
2.72848
2.91378
2.51557
2.551
2.60832
2.70983
2.90058
2.50696
2.54197
2.59603
2.69099
2.88777
2.50229
2.5335
2.58311
2.67653
2.86616
2.48956
2.48802
2.48692
2.48566
2.48391
2.48176
2.47941
2.47682
2.47426
2.47183
2.46963
2.46683
2.46349
2.4583
2.48761
2.48584
2.48439
2.48276
2.48067
2.47815
2.47545
2.47257
2.46978
2.46699
2.46446
2.46147
2.45827
2.45369
2.4848
2.48279
2.48123
2.47928
2.477
2.47434
2.47158
2.4687
2.46606
2.46339
2.46095
2.45802
2.45469
2.45007
2.48077
2.47904
2.47737
2.47533
2.47295
2.47028
2.46754
2.46473
2.46211
2.45946
2.45687
2.45391
2.45048
2.44611
2.47642
2.47485
2.47294
2.47086
2.46851
2.46603
2.4635
2.4609
2.45839
2.45577
2.45306
2.44987
2.44613
2.44175
2.47173
2.47017
2.46823
2.46618
2.46392
2.46161
2.45926
2.45683
2.4544
2.45174
2.44886
2.44545
2.44145
2.43694
2.46713
2.4654
2.46345
2.46138
2.45924
2.45715
2.45501
2.45277
2.45042
2.44773
2.44466
2.4411
2.43681
2.43224
2.4621
2.46045
2.45842
2.45641
2.45441
2.4525
2.45053
2.44847
2.44621
2.44355
2.44032
2.43677
2.43226
2.42766
2.45691
2.45538
2.45331
2.45142
2.44953
2.44778
2.44594
2.44407
2.44195
2.43944
2.4362
2.43262
2.42805
2.4236
2.45146
2.45006
2.44809
2.44631
2.44461
2.44296
2.44128
2.4396
2.43763
2.43532
2.43223
2.42869
2.42421
2.42009
2.44598
2.44442
2.44278
2.44107
2.43964
2.43813
2.43663
2.43515
2.43331
2.43114
2.42821
2.42475
2.42034
2.417
2.44034
2.43866
2.43754
2.43598
2.43481
2.43343
2.43207
2.43074
2.42898
2.4269
2.42415
2.42091
2.41692
2.41377
2.4347
2.43324
2.43232
2.43097
2.43011
2.42892
2.4276
2.42634
2.42457
2.42252
2.41989
2.41662
2.41279
2.40954
2.42924
2.42829
2.42808
2.42699
2.42604
2.42474
2.42324
2.42182
2.41989
2.41782
2.41528
2.41242
2.40894
2.40457
2.51486
2.51377
2.51378
2.51334
2.51297
2.51192
2.51047
2.5086
2.50628
2.50376
2.50159
2.4988
2.496
2.49161
2.51228
2.51126
2.5111
2.51068
2.5102
2.50902
2.50725
2.50483
2.5023
2.49956
2.4969
2.49375
2.4909
2.48671
2.50975
2.5091
2.50898
2.50843
2.5076
2.50605
2.50408
2.50156
2.49889
2.49611
2.49358
2.49056
2.48772
2.48355
2.50581
2.50575
2.50547
2.50487
2.50379
2.50214
2.50011
2.49761
2.49502
2.49226
2.48965
2.48658
2.4836
2.4794
2.50227
2.50223
2.50173
2.50095
2.49972
2.49809
2.49618
2.49387
2.49146
2.48882
2.48618
2.483
2.47977
2.47543
2.49832
2.49801
2.49744
2.4965
2.49529
2.49367
2.49197
2.48987
2.48763
2.48506
2.48229
2.47897
2.47539
2.47103
2.49387
2.49351
2.49276
2.4917
2.49056
2.48911
2.4877
2.48588
2.48382
2.48136
2.47849
2.47504
2.47109
2.4667
2.48884
2.48851
2.48779
2.48665
2.48573
2.48447
2.48331
2.48176
2.47986
2.47748
2.47448
2.47094
2.46657
2.46215
2.48353
2.48302
2.48246
2.48135
2.48068
2.47967
2.47868
2.47743
2.47572
2.4735
2.47048
2.467
2.46236
2.45799
2.47787
2.47715
2.47697
2.47597
2.47556
2.47483
2.47396
2.47298
2.47146
2.46939
2.46632
2.46285
2.45787
2.45366
2.47204
2.47099
2.47124
2.47046
2.47022
2.46972
2.46895
2.46817
2.46677
2.46479
2.46177
2.45841
2.45342
2.44997
2.46598
2.46504
2.46567
2.46511
2.46492
2.46459
2.4639
2.46327
2.46196
2.4601
2.45725
2.45385
2.44899
2.44556
2.4601
2.45915
2.45992
2.45962
2.45943
2.45926
2.45853
2.45789
2.45651
2.45461
2.45177
2.44826
2.44378
2.44023
2.45462
2.45454
2.45532
2.45505
2.45446
2.45411
2.45311
2.45226
2.4507
2.44883
2.44621
2.44295
2.4388
2.43423
2.55186
2.55136
2.55248
2.55272
2.55329
2.55319
2.55287
2.55198
2.55065
2.54901
2.54728
2.54513
2.54327
2.53976
2.54887
2.54931
2.55016
2.55055
2.55088
2.55062
2.54995
2.54875
2.54721
2.54527
2.54312
2.54057
2.53843
2.53488
2.54603
2.54681
2.54768
2.54817
2.54845
2.54804
2.54714
2.5457
2.54397
2.54199
2.53988
2.53739
2.53508
2.53158
2.54293
2.54405
2.54477
2.54515
2.54516
2.54453
2.54344
2.54192
2.54012
2.53809
2.53592
2.53336
2.53086
2.52737
2.5395
2.54077
2.54134
2.5416
2.54141
2.54064
2.53954
2.53807
2.53634
2.53437
2.5322
2.52966
2.527
2.52354
2.53588
2.53707
2.53752
2.53759
2.53729
2.53648
2.53547
2.53411
2.53247
2.53055
2.52832
2.5257
2.5228
2.51924
2.53185
2.53281
2.53324
2.53316
2.53287
2.5322
2.53137
2.53021
2.52871
2.52687
2.52459
2.52192
2.51875
2.51513
2.52739
2.5281
2.52866
2.52852
2.52835
2.5279
2.52725
2.52628
2.52489
2.5231
2.52071
2.51794
2.51444
2.5108
2.52268
2.52297
2.52367
2.52358
2.5236
2.52344
2.52297
2.52223
2.52099
2.51928
2.5168
2.51401
2.51019
2.50661
2.51769
2.51762
2.5186
2.51865
2.51885
2.51894
2.51863
2.51807
2.51692
2.51522
2.51256
2.50965
2.50542
2.50194
2.51263
2.51218
2.51329
2.51355
2.51381
2.51412
2.51393
2.51347
2.51238
2.51067
2.50793
2.50503
2.50055
2.49751
2.50726
2.50703
2.50813
2.50851
2.50874
2.50916
2.50899
2.50855
2.50744
2.50571
2.50296
2.49981
2.49517
2.49221
2.50202
2.50176
2.50266
2.50318
2.50338
2.50378
2.50345
2.50288
2.50158
2.49969
2.49695
2.49364
2.48947
2.48622
2.49703
2.49752
2.49824
2.49845
2.49817
2.49821
2.49752
2.49667
2.49519
2.49332
2.49074
2.48727
2.48322
2.479
2.5985
2.59806
2.59893
2.59931
2.59992
2.60014
2.60029
2.60016
2.5998
2.59912
2.59828
2.59719
2.59618
2.59452
2.59496
2.5955
2.59645
2.59699
2.59761
2.59779
2.59786
2.59757
2.59694
2.59598
2.5948
2.59332
2.59191
2.58984
2.5921
2.59306
2.59396
2.59462
2.59515
2.59528
2.59519
2.59473
2.59394
2.59283
2.59154
2.58997
2.58836
2.5861
2.58906
2.59033
2.5912
2.59183
2.59223
2.59225
2.59199
2.59134
2.5904
2.58916
2.58772
2.58601
2.5842
2.58186
2.58603
2.58738
2.58821
2.58875
2.58902
2.58893
2.58852
2.58778
2.58676
2.58547
2.58396
2.58218
2.58026
2.57791
2.58284
2.58411
2.58493
2.58533
2.58549
2.58532
2.58485
2.58408
2.58303
2.5817
2.5801
2.57825
2.57619
2.57381
2.57936
2.58044
2.58127
2.58158
2.58169
2.58153
2.5811
2.58038
2.57934
2.578
2.57635
2.57444
2.57225
2.56985
2.57565
2.57649
2.57737
2.57765
2.57775
2.57764
2.57728
2.57661
2.57559
2.57423
2.57251
2.57053
2.56818
2.56581
2.57164
2.57221
2.57309
2.57341
2.57354
2.57355
2.5733
2.57274
2.57175
2.57041
2.56862
2.56659
2.56406
2.56176
2.56755
2.56792
2.56877
2.56919
2.56935
2.56945
2.56924
2.56873
2.56773
2.56633
2.56442
2.56234
2.55956
2.55743
2.56323
2.56351
2.56415
2.56467
2.56484
2.56501
2.56484
2.56436
2.56337
2.56199
2.56004
2.558
2.55494
2.55313
2.55888
2.55924
2.55967
2.56023
2.56032
2.56049
2.56028
2.55973
2.55865
2.55719
2.55513
2.553
2.54973
2.54819
2.55435
2.55484
2.55497
2.55549
2.55543
2.55551
2.55513
2.55442
2.55321
2.55169
2.5497
2.54756
2.54467
2.54294
2.55013
2.55082
2.55085
2.55109
2.55054
2.5503
2.54962
2.54873
2.5474
2.54585
2.54378
2.54142
2.53868
2.53617
2.6442
2.644
2.6445
2.6447
2.64501
2.64526
2.64553
2.64573
2.6459
2.646
2.64611
2.64611
2.6463
2.64617
2.6406
2.64101
2.64166
2.64205
2.64249
2.64284
2.64317
2.64337
2.64345
2.64339
2.64324
2.64297
2.64269
2.64237
2.63768
2.63841
2.63905
2.63956
2.64007
2.64047
2.64081
2.64097
2.64096
2.64078
2.64045
2.64001
2.63951
2.63895
2.63487
2.6357
2.63639
2.63696
2.63748
2.63787
2.63813
2.63819
2.63805
2.63772
2.63724
2.63663
2.63593
2.63516
2.63217
2.63302
2.63374
2.6343
2.63478
2.63511
2.63528
2.63525
2.635
2.63455
2.63396
2.63327
2.63247
2.63155
2.62951
2.6303
2.63101
2.63152
2.63191
2.63215
2.63223
2.63208
2.63172
2.63119
2.63051
2.62976
2.62888
2.62794
2.62684
2.6275
2.62819
2.62861
2.62889
2.62904
2.62902
2.6288
2.62836
2.62777
2.62705
2.62627
2.62535
2.62447
2.62413
2.62463
2.62524
2.62557
2.62573
2.62578
2.62568
2.62539
2.62488
2.62424
2.62347
2.62267
2.62174
2.62097
2.62135
2.62167
2.62216
2.62238
2.62242
2.6224
2.62223
2.6219
2.62133
2.62065
2.61984
2.61903
2.61808
2.61748
2.61856
2.61868
2.61897
2.61911
2.61905
2.61896
2.61871
2.61831
2.61769
2.61697
2.61609
2.61524
2.61425
2.61386
2.61548
2.61555
2.61558
2.61568
2.61554
2.61538
2.61504
2.6146
2.61395
2.6132
2.61227
2.61138
2.6103
2.61021
2.61257
2.61251
2.61227
2.61229
2.61201
2.61174
2.6113
2.61077
2.61005
2.60925
2.60824
2.60731
2.6061
2.60619
2.60908
2.6092
2.60866
2.60862
2.60818
2.60777
2.60723
2.60661
2.60586
2.60507
2.60412
2.60324
2.6021
2.60217
2.60604
2.60601
2.60534
2.60505
2.60427
2.60369
2.60304
2.60233
2.60152
2.60069
2.59964
2.59866
2.59739
2.5974
2.6809
2.68101
2.68124
2.6813
2.6814
2.68148
2.6817
2.68205
2.68254
2.68317
2.684
2.68487
2.68611
2.68685
2.6777
2.67794
2.67826
2.67842
2.67862
2.67887
2.67923
2.67969
2.68027
2.68094
2.68169
2.68249
2.68335
2.68403
2.67492
2.67529
2.6756
2.67581
2.67609
2.67643
2.67691
2.67745
2.67807
2.67875
2.67944
2.68013
2.68084
2.68134
2.6723
2.67266
2.67302
2.67327
2.6736
2.67401
2.67454
2.6751
2.67571
2.67635
2.67695
2.67755
2.67808
2.67857
2.66993
2.67023
2.6706
2.67087
2.67121
2.67164
2.67217
2.67272
2.67329
2.67388
2.6744
2.67495
2.6754
2.67585
2.66769
2.66795
2.66831
2.66855
2.66886
2.66925
2.66971
2.6702
2.67069
2.67122
2.67167
2.67218
2.67256
2.67305
2.66562
2.66582
2.66612
2.66631
2.66654
2.66683
2.6672
2.66759
2.66799
2.66845
2.66886
2.66935
2.66972
2.67025
2.6637
2.66377
2.66398
2.6641
2.66421
2.66436
2.66459
2.66488
2.66518
2.66556
2.6659
2.66639
2.66673
2.66733
2.66184
2.66179
2.66187
2.66188
2.66186
2.66184
2.66192
2.6621
2.66229
2.6626
2.66288
2.66335
2.66365
2.66433
2.65998
2.65984
2.65973
2.65962
2.65945
2.65928
2.65922
2.65929
2.65938
2.6596
2.65981
2.66024
2.66048
2.66122
2.65808
2.65785
2.65753
2.65728
2.65696
2.65667
2.65648
2.65645
2.65646
2.6566
2.65673
2.65713
2.65729
2.65808
2.65614
2.65581
2.65525
2.65486
2.6544
2.65402
2.65372
2.6536
2.65356
2.65363
2.65369
2.65403
2.65406
2.65491
2.65387
2.65353
2.65273
2.65226
2.65169
2.65125
2.65088
2.6507
2.65062
2.65067
2.6507
2.65101
2.65101
2.65189
2.65197
2.65115
2.65023
2.64961
2.64889
2.64841
2.64802
2.64783
2.64775
2.6478
2.64775
2.64793
2.64772
2.64879
2.70564
2.70581
2.70587
2.70583
2.70578
2.70583
2.70609
2.70657
2.70732
2.70835
2.70973
2.71123
2.7132
2.71466
2.703
2.7031
2.70316
2.70314
2.70312
2.70323
2.7036
2.70422
2.70511
2.7063
2.70772
2.70929
2.71104
2.71252
2.70064
2.7008
2.70077
2.70073
2.7007
2.70085
2.70128
2.70198
2.70297
2.70421
2.70566
2.70718
2.70891
2.71024
2.69843
2.69852
2.6985
2.69845
2.69843
2.69862
2.69913
2.6999
2.70094
2.70223
2.70366
2.70518
2.70677
2.70811
2.69651
2.69653
2.69647
2.69639
2.69637
2.69658
2.69712
2.69793
2.69899
2.7003
2.70171
2.7032
2.70473
2.70606
2.69479
2.69471
2.69462
2.69451
2.69448
2.6947
2.69523
2.69604
2.69708
2.69838
2.69975
2.70125
2.7027
2.70407
2.69329
2.69311
2.69297
2.69283
2.69276
2.69294
2.69343
2.6942
2.69521
2.69648
2.69782
2.69933
2.70073
2.70216
2.69193
2.69167
2.69147
2.69127
2.69114
2.69125
2.69168
2.69239
2.69333
2.69456
2.69585
2.69737
2.69874
2.70024
2.69068
2.69034
2.69007
2.68979
2.68958
2.68961
2.68995
2.69058
2.69143
2.6926
2.69385
2.69537
2.69671
2.69829
2.68944
2.68906
2.68869
2.68834
2.68804
2.68799
2.68824
2.68878
2.68953
2.69063
2.69181
2.69331
2.69461
2.69627
2.6882
2.68778
2.6873
2.68688
2.6865
2.68638
2.68654
2.68698
2.68763
2.68864
2.68975
2.69122
2.69245
2.69417
2.68686
2.68639
2.6858
2.68534
2.68493
2.68476
2.68486
2.68523
2.68579
2.68671
2.68773
2.68915
2.69029
2.69204
2.6854
2.6849
2.68424
2.68377
2.68337
2.68318
2.68323
2.68354
2.68402
2.68486
2.68579
2.68714
2.6882
2.68996
2.68401
2.68324
2.6826
2.68214
2.68177
2.68161
2.68166
2.68193
2.68236
2.68311
2.68393
2.68514
2.686
2.6879
2.7202
2.72044
2.7204
2.72037
2.72041
2.7206
2.72096
2.72159
2.72246
2.72361
2.72509
2.72665
2.72867
2.73024
2.7182
2.71834
2.71826
2.71818
2.71818
2.71836
2.71875
2.71943
2.72038
2.72165
2.72321
2.72489
2.72684
2.72846
2.71647
2.71657
2.71637
2.71621
2.71614
2.71629
2.71667
2.71735
2.71833
2.71959
2.72117
2.72281
2.72481
2.72638
2.71478
2.71477
2.71453
2.71432
2.71422
2.71435
2.71476
2.71548
2.71648
2.71778
2.71935
2.72102
2.72293
2.72453
2.71336
2.71321
2.71289
2.71264
2.71249
2.7126
2.71301
2.71373
2.71474
2.71606
2.71762
2.71928
2.72112
2.72273
2.71202
2.71174
2.71138
2.71108
2.71091
2.71101
2.71142
2.71216
2.71318
2.71452
2.71606
2.71774
2.7195
2.72113
2.71082
2.71042
2.71001
2.70968
2.70948
2.70957
2.70998
2.71072
2.71174
2.7131
2.71463
2.71634
2.71804
2.71971
2.70967
2.70918
2.70873
2.70837
2.70817
2.70825
2.70864
2.70938
2.7104
2.71179
2.71332
2.71507
2.71674
2.71845
2.70857
2.708
2.70752
2.70714
2.70693
2.70701
2.70739
2.70812
2.70914
2.71054
2.71208
2.71387
2.71554
2.71733
2.70745
2.70684
2.70634
2.70595
2.70575
2.70584
2.7062
2.70693
2.70794
2.70936
2.7109
2.71273
2.71442
2.71627
2.70632
2.70571
2.70521
2.70482
2.70464
2.70473
2.70508
2.70579
2.70679
2.70823
2.70977
2.71163
2.71332
2.71525
2.70516
2.70457
2.70408
2.70373
2.70357
2.70368
2.70402
2.70472
2.70571
2.70713
2.70866
2.71054
2.71223
2.71423
2.70396
2.70344
2.70297
2.7027
2.7026
2.70272
2.70306
2.70377
2.70474
2.70614
2.70764
2.70953
2.71121
2.71325
2.7029
2.7023
2.70196
2.70177
2.70172
2.70187
2.70223
2.7029
2.70378
2.70506
2.70644
2.70819
2.70985
2.71194
2.7293
2.72937
2.72931
2.72934
2.72944
2.72969
2.73008
2.73068
2.73144
2.7324
2.73356
2.73476
2.7363
2.73753
2.72774
2.72783
2.72771
2.72769
2.72775
2.72796
2.72832
2.72891
2.72969
2.73068
2.7319
2.73318
2.73472
2.736
2.7265
2.7265
2.72628
2.72618
2.72619
2.72634
2.72665
2.72718
2.72792
2.72887
2.73006
2.73131
2.7329
2.73419
2.72516
2.72507
2.7248
2.72466
2.72463
2.72476
2.72504
2.72556
2.72628
2.72724
2.72842
2.72968
2.73122
2.73256
2.72402
2.72379
2.72345
2.72326
2.72318
2.72327
2.72352
2.724
2.72471
2.72565
2.72681
2.72807
2.72956
2.73093
2.7228
2.72249
2.72211
2.72188
2.72177
2.72184
2.72209
2.72259
2.7233
2.72427
2.72541
2.72669
2.72812
2.72952
2.72162
2.72123
2.72082
2.72056
2.72044
2.72051
2.72077
2.72128
2.72202
2.72302
2.72418
2.72549
2.72688
2.72831
2.7204
2.71995
2.71954
2.71928
2.71917
2.71927
2.71955
2.72011
2.72089
2.72194
2.72312
2.72447
2.72585
2.72732
2.71915
2.71866
2.71828
2.71805
2.71798
2.71812
2.71845
2.71907
2.71991
2.72103
2.72225
2.72366
2.72505
2.72657
2.7179
2.71742
2.71707
2.7169
2.71689
2.71707
2.71747
2.71815
2.71905
2.72023
2.7215
2.72297
2.72441
2.72598
2.71665
2.7162
2.71591
2.71581
2.71586
2.71612
2.7166
2.71738
2.71835
2.71961
2.72095
2.7225
2.72399
2.72561
2.71547
2.71512
2.71491
2.71489
2.715
2.71534
2.7159
2.71672
2.71774
2.71905
2.72045
2.72208
2.72365
2.72536
2.71429
2.7141
2.71393
2.71402
2.71422
2.71466
2.71529
2.71623
2.71731
2.71869
2.72015
2.72186
2.72349
2.72526
2.71341
2.71324
2.71323
2.71339
2.71369
2.7142
2.7149
2.71582
2.71689
2.71826
2.71969
2.72135
2.72304
2.72483
2.73401
2.734
2.734
2.73408
2.73424
2.73455
2.73493
2.73548
2.73611
2.73686
2.73771
2.73858
2.73965
2.74049
2.73271
2.73284
2.73279
2.73282
2.73292
2.73317
2.73353
2.73405
2.73467
2.73542
2.73629
2.73722
2.7383
2.7392
2.73177
2.73181
2.73169
2.73166
2.7317
2.73189
2.73219
2.73265
2.73321
2.73391
2.73475
2.73564
2.73678
2.73773
2.73059
2.73062
2.73046
2.7304
2.73042
2.73057
2.73084
2.73127
2.73182
2.7325
2.73332
2.73423
2.73535
2.73636
2.72953
2.72946
2.72927
2.72919
2.72918
2.72931
2.72955
2.72995
2.73047
2.73113
2.73193
2.73283
2.73393
2.735
2.72835
2.72822
2.72803
2.72795
2.72794
2.72807
2.72832
2.72872
2.72923
2.72989
2.73068
2.73159
2.73266
2.73377
2.72714
2.72695
2.72677
2.72671
2.72673
2.72688
2.72716
2.72759
2.72813
2.72882
2.72961
2.73054
2.73158
2.73273
2.72592
2.72571
2.72557
2.72554
2.7256
2.7258
2.72613
2.7266
2.72717
2.72789
2.7287
2.72966
2.73069
2.73185
2.72464
2.72444
2.72435
2.72438
2.72452
2.7248
2.7252
2.72575
2.7264
2.7272
2.72805
2.72905
2.73008
2.73126
2.72344
2.7233
2.72329
2.72339
2.72362
2.72397
2.72445
2.72506
2.72577
2.72661
2.72752
2.72856
2.72962
2.73082
2.72223
2.72216
2.72222
2.72243
2.72276
2.72322
2.7238
2.72452
2.72532
2.72626
2.72722
2.72833
2.72941
2.73063
2.72122
2.72125
2.72141
2.72173
2.72216
2.72271
2.72337
2.72415
2.725
2.72598
2.727
2.72815
2.72929
2.73053
2.72025
2.72043
2.72064
2.72106
2.72159
2.72226
2.72303
2.72391
2.72486
2.72593
2.72701
2.72823
2.7294
2.73065
2.71959
2.71987
2.72023
2.72074
2.72135
2.72208
2.72291
2.72383
2.72479
2.72588
2.72696
2.72816
2.72933
2.73062
2.73555
2.73568
2.73587
2.73614
2.73646
2.73688
2.73733
2.73785
2.73839
2.73898
2.73956
2.74018
2.74084
2.74139
2.73455
2.73477
2.73492
2.73514
2.73542
2.73583
2.73628
2.73681
2.73737
2.73797
2.73859
2.73925
2.73995
2.74055
2.73375
2.73394
2.73403
2.73425
2.73452
2.7349
2.73531
2.73581
2.73633
2.7369
2.73752
2.73818
2.73893
2.7396
2.73276
2.73294
2.73305
2.73327
2.73353
2.7339
2.73431
2.73479
2.7353
2.73587
2.73648
2.73714
2.73791
2.73862
2.73178
2.73194
2.73206
2.73229
2.73256
2.73292
2.73332
2.73379
2.7343
2.73485
2.73546
2.73613
2.7369
2.73767
2.73074
2.73091
2.73107
2.73132
2.73161
2.73196
2.73236
2.73282
2.73332
2.73386
2.73447
2.73514
2.73591
2.73673
2.72965
2.72984
2.73005
2.73033
2.73064
2.73102
2.73145
2.73193
2.73243
2.733
2.7336
2.73429
2.73505
2.7359
2.72864
2.72886
2.72913
2.72944
2.72979
2.7302
2.73064
2.73113
2.73165
2.73223
2.73284
2.73355
2.7343
2.73517
2.7276
2.72784
2.72817
2.72854
2.72896
2.72943
2.72993
2.73047
2.73103
2.73164
2.73226
2.73298
2.73371
2.73458
2.72674
2.72703
2.72743
2.72785
2.72834
2.72886
2.7294
2.72996
2.73053
2.73116
2.73179
2.73251
2.73323
2.7341
2.7259
2.72623
2.72669
2.7272
2.72777
2.72836
2.72897
2.7296
2.73021
2.73087
2.73151
2.73225
2.73295
2.73379
2.72531
2.72573
2.72625
2.72681
2.72744
2.72808
2.72873
2.72938
2.73001
2.73068
2.73132
2.73205
2.73275
2.73356
2.72476
2.72526
2.72582
2.72648
2.72718
2.72789
2.72858
2.72929
2.72997
2.73069
2.73136
2.73209
2.73278
2.73354
2.72447
2.72517
2.7258
2.7265
2.72719
2.72791
2.72862
2.72933
2.73
2.7307
2.73134
2.73203
2.73268
2.73344
2.73563
2.73602
2.73642
2.73682
2.73721
2.73763
2.73804
2.73847
2.73888
2.7393
2.73969
2.74012
2.74049
2.74094
2.73488
2.73535
2.73576
2.73619
2.73661
2.73706
2.73749
2.73794
2.73837
2.7388
2.73922
2.73966
2.74009
2.74054
2.73421
2.73472
2.73515
2.73562
2.73606
2.73652
2.73696
2.73742
2.73786
2.7383
2.73874
2.7392
2.73966
2.74012
2.73348
2.73402
2.73449
2.73499
2.73547
2.73595
2.73641
2.73687
2.73732
2.73777
2.73822
2.73869
2.73918
2.73968
2.7327
2.73328
2.73379
2.73434
2.73485
2.73536
2.73585
2.73633
2.73679
2.73725
2.73772
2.7382
2.73871
2.73925
2.73197
2.73258
2.73316
2.73374
2.73428
2.73481
2.73531
2.73579
2.73626
2.73673
2.7372
2.73769
2.73822
2.73877
2.73124
2.73189
2.73252
2.73314
2.73372
2.73427
2.73479
2.73529
2.73576
2.73622
2.73669
2.73718
2.7377
2.73828
2.73066
2.73133
2.732
2.73265
2.73326
2.73382
2.73434
2.73483
2.73529
2.73575
2.7362
2.73669
2.73719
2.73777
2.73013
2.73082
2.73153
2.73221
2.73284
2.73342
2.73395
2.73443
2.73487
2.73532
2.73575
2.73622
2.73669
2.73727
2.72975
2.73047
2.7312
2.7319
2.73254
2.73312
2.73364
2.73411
2.73453
2.73495
2.73535
2.7358
2.73623
2.73678
2.72948
2.73023
2.73097
2.73169
2.73233
2.7329
2.7334
2.73384
2.73423
2.73462
2.73499
2.73542
2.7358
2.73632
2.72938
2.73017
2.7309
2.73161
2.73223
2.73278
2.73324
2.73365
2.734
2.73436
2.73469
2.73507
2.7354
2.73589
2.72928
2.73011
2.73085
2.73157
2.73219
2.73273
2.73316
2.73354
2.73386
2.73419
2.73448
2.73481
2.73509
2.73551
2.72953
2.73038
2.73107
2.73174
2.73231
2.7328
2.73319
2.73351
2.73376
2.73402
2.73425
2.7345
2.73473
2.7351
2.73507
2.73563
2.73611
2.7366
2.73703
2.73745
2.73783
2.73819
2.73852
2.73882
2.73911
2.73941
2.7397
2.74007
2.73452
2.73517
2.7357
2.73625
2.73674
2.73721
2.73763
2.73802
2.73839
2.73873
2.73907
2.7394
2.73972
2.74009
2.73402
2.73474
2.73535
2.73595
2.73649
2.737
2.73746
2.7379
2.7383
2.73867
2.73902
2.73936
2.73969
2.74006
2.7336
2.73436
2.73504
2.73569
2.73627
2.73681
2.7373
2.73775
2.73817
2.73856
2.73893
2.7393
2.73965
2.74003
2.73321
2.73401
2.73473
2.73542
2.73605
2.73662
2.73714
2.73761
2.73805
2.73846
2.73884
2.73921
2.73957
2.73995
2.73292
2.73374
2.7345
2.73522
2.73587
2.73646
2.737
2.73749
2.73794
2.73835
2.73875
2.73913
2.7395
2.73988
2.73269
2.73353
2.73432
2.73505
2.73572
2.73633
2.73687
2.73736
2.7378
2.73822
2.73861
2.73899
2.73936
2.73974
2.73256
2.73341
2.73421
2.73494
2.73561
2.73621
2.73675
2.73723
2.73766
2.73806
2.73843
2.73879
2.73914
2.73952
2.73249
2.73336
2.73415
2.73488
2.73554
2.73612
2.73663
2.73707
2.73746
2.73783
2.73816
2.73849
2.73882
2.73918
2.73252
2.73339
2.73415
2.73486
2.73548
2.73603
2.7365
2.73691
2.73725
2.73758
2.73787
2.73817
2.73844
2.73878
2.73263
2.73348
2.7342
2.73488
2.73545
2.73595
2.73636
2.73671
2.737
2.73727
2.7375
2.73775
2.73796
2.73828
2.73285
2.73366
2.73432
2.73492
2.73544
2.73587
2.73622
2.7365
2.73672
2.73691
2.73707
2.73725
2.7374
2.73768
2.73309
2.73384
2.73444
2.73499
2.73542
2.73577
2.73604
2.73624
2.73638
2.7365
2.73658
2.7367
2.73681
2.73705
2.7335
2.73417
2.73466
2.73511
2.73545
2.7357
2.73586
2.73596
2.73601
2.73603
2.73605
2.73609
2.73615
2.73629
2.73307
2.73389
2.73456
2.73521
2.73578
2.7363
2.73677
2.73717
2.73753
2.73784
2.73813
2.7384
2.73867
2.73901
2.73291
2.73375
2.73448
2.73519
2.73582
2.7364
2.73691
2.73735
2.73776
2.73812
2.73845
2.73877
2.73906
2.73943
2.73279
2.73366
2.73444
2.73518
2.73586
2.73648
2.73703
2.73752
2.73797
2.73835
2.73871
2.73904
2.73934
2.7397
2.73274
2.73362
2.73445
2.73522
2.73593
2.73657
2.73716
2.73768
2.73815
2.73857
2.73895
2.7393
2.73962
2.73996
2.73275
2.73363
2.73448
2.73527
2.736
2.73667
2.73728
2.73782
2.73831
2.73874
2.73913
2.73948
2.73981
2.74013
2.73281
2.73371
2.73456
2.73535
2.73609
2.73676
2.73738
2.73794
2.73844
2.73888
2.73928
2.73963
2.73996
2.74026
2.73295
2.73385
2.73469
2.73547
2.7362
2.73686
2.73747
2.73801
2.7385
2.73894
2.73933
2.73968
2.74
2.7403
2.73315
2.73402
2.73484
2.73559
2.73629
2.73693
2.73752
2.73805
2.73853
2.73896
2.73934
2.73968
2.73999
2.74028
2.73338
2.73423
2.73501
2.73572
2.73639
2.73699
2.73754
2.73803
2.73847
2.73886
2.73921
2.73953
2.73982
2.74011
2.73367
2.73447
2.73518
2.73584
2.73645
2.737
2.7375
2.73794
2.73831
2.73866
2.73896
2.73925
2.73951
2.73978
2.73396
2.73472
2.73534
2.73593
2.73647
2.73695
2.73737
2.73775
2.73808
2.73837
2.73861
2.73885
2.73907
2.73933
2.73428
2.73496
2.73549
2.73599
2.73645
2.73684
2.7372
2.73751
2.73777
2.73799
2.73817
2.73836
2.73853
2.73878
2.73458
2.73516
2.7356
2.736
2.73636
2.73667
2.73693
2.73715
2.73732
2.73747
2.7376
2.73774
2.73789
2.73814
2.73496
2.7354
2.73573
2.73602
2.73626
2.73645
2.73661
2.73674
2.73681
2.73689
2.73696
2.73706
2.73714
2.73733
2.73081
2.73169
2.73249
2.73326
2.73391
2.73449
2.735