/*--------------------------------*- C++ -*----------------------------------*\
| =========                 |                                                 |
| \\      /  F ield         | OpenFOAM: The Open Source CFD Toolbox           |
|  \\    /   O peration     | Version:  v2106                                 |
|   \\  /    A nd           | Website:  www.openfoam.com                      |
|    \\/     M anipulation  |                                                 |
\*---------------------------------------------------------------------------*/
FoamFile
{
    version     2.0;
    format      ascii;
    arch        "LSB;label=32;scalar=64";
    class       volScalarField;
    location    "0.000192";
    object      alphat;
}
// * * * * * * * * * * * * * * * * * * * * * * * * * * * * * * * * * * * * * //

dimensions      [1 -1 -1 0 0 0 0];

internalField   nonuniform List<scalar> 
17924
(
1.00275e-16
9.91148e-17
9.88588e-17
9.88154e-17
9.88108e-17
9.87075e-17
9.86956e-17
9.87035e-17
9.87145e-17
9.87268e-17
9.87397e-17
9.89629e-17
9.87341e-17
9.86898e-17
9.86906e-17
9.8699e-17
9.87089e-17
9.87188e-17
9.9235e-17
9.87917e-17
9.86919e-17
9.86808e-17
9.86872e-17
9.86966e-17
9.87063e-17
9.95753e-17
9.88619e-17
9.86954e-17
9.86699e-17
9.86744e-17
9.86842e-17
9.86947e-17
9.98908e-17
9.89194e-17
9.86947e-17
9.86579e-17
9.8661e-17
9.86711e-17
9.86818e-17
1.00118e-16
9.89462e-17
9.86858e-17
9.86444e-17
9.86478e-17
9.86586e-17
9.86697e-17
1.0029e-16
9.89566e-17
9.86746e-17
9.86322e-17
9.86358e-17
9.86464e-17
9.86567e-17
1.00419e-16
9.89568e-17
9.86621e-17
9.86206e-17
9.86246e-17
9.86348e-17
9.86441e-17
1.00494e-16
9.8949e-17
9.86513e-17
9.86114e-17
9.86149e-17
9.86241e-17
9.86323e-17
1.00516e-16
9.89356e-17
9.86429e-17
9.86054e-17
9.86093e-17
9.86181e-17
9.86252e-17
1.00455e-16
9.89139e-17
9.86399e-17
9.86096e-17
9.86188e-17
9.86309e-17
9.86387e-17
1.00352e-16
9.89014e-17
9.86599e-17
9.86559e-17
9.86941e-17
9.87302e-17
9.87489e-17
1.00394e-16
9.89615e-17
9.87722e-17
9.88739e-17
9.90437e-17
9.9192e-17
9.92647e-17
1.01364e-16
9.93087e-17
9.92177e-17
9.97297e-17
1.00431e-16
1.01042e-16
1.01344e-16
9.84983e-17
9.852e-17
9.85443e-17
9.85685e-17
9.85885e-17
9.86061e-17
9.86214e-17
9.86344e-17
9.86459e-17
9.86557e-17
9.86646e-17
9.86719e-17
9.86778e-17
9.8684e-17
9.85186e-17
9.85259e-17
9.85477e-17
9.85703e-17
9.85911e-17
9.86097e-17
9.86263e-17
9.86406e-17
9.86536e-17
9.86653e-17
9.86764e-17
9.86856e-17
9.86938e-17
9.87024e-17
9.85486e-17
9.85337e-17
9.85503e-17
9.85725e-17
9.85943e-17
9.86137e-17
9.86313e-17
9.86462e-17
9.86601e-17
9.86725e-17
9.86843e-17
9.86943e-17
9.87039e-17
9.87144e-17
9.85851e-17
9.85413e-17
9.85514e-17
9.85726e-17
9.85951e-17
9.86153e-17
9.8634e-17
9.86499e-17
9.86645e-17
9.86773e-17
9.86895e-17
9.86997e-17
9.87101e-17
9.87212e-17
9.86189e-17
9.85483e-17
9.85527e-17
9.85732e-17
9.85959e-17
9.86162e-17
9.86346e-17
9.86505e-17
9.86648e-17
9.86774e-17
9.86892e-17
9.86994e-17
9.87097e-17
9.87206e-17
9.86421e-17
9.85515e-17
9.8552e-17
9.8572e-17
9.85944e-17
9.86148e-17
9.86333e-17
9.86492e-17
9.86637e-17
9.86764e-17
9.86881e-17
9.86986e-17
9.87086e-17
9.8719e-17
9.86607e-17
9.85551e-17
9.85527e-17
9.8572e-17
9.85934e-17
9.8613e-17
9.86307e-17
9.86465e-17
9.86605e-17
9.86732e-17
9.86845e-17
9.86949e-17
9.8704e-17
9.87143e-17
9.86746e-17
9.85571e-17
9.85524e-17
9.85711e-17
9.85913e-17
9.86104e-17
9.86271e-17
9.86421e-17
9.86551e-17
9.86671e-17
9.86775e-17
9.86877e-17
9.86961e-17
9.87066e-17
9.86838e-17
9.85594e-17
9.85532e-17
9.85705e-17
9.85891e-17
9.86068e-17
9.86216e-17
9.86352e-17
9.86467e-17
9.86577e-17
9.86672e-17
9.8677e-17
9.86851e-17
9.86953e-17
9.86883e-17
9.8561e-17
9.85537e-17
9.85695e-17
9.85859e-17
9.86016e-17
9.86149e-17
9.86271e-17
9.86373e-17
9.86471e-17
9.86554e-17
9.86646e-17
9.86718e-17
9.86819e-17
9.86848e-17
9.85619e-17
9.85545e-17
9.85684e-17
9.85829e-17
9.85967e-17
9.8608e-17
9.86183e-17
9.86267e-17
9.86348e-17
9.86419e-17
9.86502e-17
9.86565e-17
9.86665e-17
9.86749e-17
9.85624e-17
9.85561e-17
9.85693e-17
9.85839e-17
9.85974e-17
9.86074e-17
9.86154e-17
9.86211e-17
9.86262e-17
9.86306e-17
9.86362e-17
9.86395e-17
9.86476e-17
9.86702e-17
9.85668e-17
9.85641e-17
9.85833e-17
9.86059e-17
9.86253e-17
9.86367e-17
9.86412e-17
9.86408e-17
9.86384e-17
9.86353e-17
9.8634e-17
9.86303e-17
9.8633e-17
9.8721e-17
9.85936e-17
9.8601e-17
9.86515e-17
9.87153e-17
9.87695e-17
9.87958e-17
9.87949e-17
9.87757e-17
9.87474e-17
9.87166e-17
9.86892e-17
9.86626e-17
9.86479e-17
9.82419e-17
9.82826e-17
9.83196e-17
9.83511e-17
9.83779e-17
9.84015e-17
9.84221e-17
9.84397e-17
9.84549e-17
9.84678e-17
9.84794e-17
9.84885e-17
9.84967e-17
9.85059e-17
9.82608e-17
9.82968e-17
9.8333e-17
9.8365e-17
9.83941e-17
9.84198e-17
9.84427e-17
9.84622e-17
9.84795e-17
9.84946e-17
9.85083e-17
9.85193e-17
9.85287e-17
9.85413e-17
9.82808e-17
9.83145e-17
9.83504e-17
9.83825e-17
9.84124e-17
9.84389e-17
9.8463e-17
9.84835e-17
9.85022e-17
9.85182e-17
9.8533e-17
9.85448e-17
9.85557e-17
9.85681e-17
9.82988e-17
9.83291e-17
9.83648e-17
9.83974e-17
9.84283e-17
9.84558e-17
9.84809e-17
9.85026e-17
9.85223e-17
9.85391e-17
9.85546e-17
9.85671e-17
9.85793e-17
9.8592e-17
9.83171e-17
9.83453e-17
9.83802e-17
9.8413e-17
9.84441e-17
9.84718e-17
9.84971e-17
9.85191e-17
9.85389e-17
9.8556e-17
9.85716e-17
9.85844e-17
9.8597e-17
9.86089e-17
9.83341e-17
9.83604e-17
9.83939e-17
9.84265e-17
9.84573e-17
9.8485e-17
9.85104e-17
9.85326e-17
9.85526e-17
9.85699e-17
9.85857e-17
9.85988e-17
9.86113e-17
9.86228e-17
9.83515e-17
9.83761e-17
9.84081e-17
9.84399e-17
9.84696e-17
9.84966e-17
9.85208e-17
9.85423e-17
9.85615e-17
9.85786e-17
9.85939e-17
9.86076e-17
9.86197e-17
9.86313e-17
9.83678e-17
9.839e-17
9.84198e-17
9.84504e-17
9.84785e-17
9.85044e-17
9.85276e-17
9.85485e-17
9.85669e-17
9.85838e-17
9.85986e-17
9.86124e-17
9.86238e-17
9.86362e-17
9.83829e-17
9.84028e-17
9.84304e-17
9.84591e-17
9.8485e-17
9.85092e-17
9.85308e-17
9.85507e-17
9.85682e-17
9.85844e-17
9.85986e-17
9.86125e-17
9.86239e-17
9.86367e-17
9.83965e-17
9.84134e-17
9.84384e-17
9.84645e-17
9.84883e-17
9.8511e-17
9.85314e-17
9.85502e-17
9.85665e-17
9.8582e-17
9.85954e-17
9.86093e-17
9.86202e-17
9.86336e-17
9.84078e-17
9.84221e-17
9.84444e-17
9.84681e-17
9.84898e-17
9.85103e-17
9.85283e-17
9.85451e-17
9.85599e-17
9.85742e-17
9.8587e-17
9.86007e-17
9.86112e-17
9.86255e-17
9.84155e-17
9.84278e-17
9.84478e-17
9.84691e-17
9.84881e-17
9.85058e-17
9.85218e-17
9.85371e-17
9.85506e-17
9.85638e-17
9.85757e-17
9.85886e-17
9.85978e-17
9.86113e-17
9.84194e-17
9.84304e-17
9.84488e-17
9.84674e-17
9.84842e-17
9.84999e-17
9.85135e-17
9.85262e-17
9.85379e-17
9.85496e-17
9.85606e-17
9.85722e-17
9.85803e-17
9.85924e-17
9.8426e-17
9.84333e-17
9.84496e-17
9.84667e-17
9.84843e-17
9.85005e-17
9.85136e-17
9.8524e-17
9.85324e-17
9.85404e-17
9.85478e-17
9.85547e-17
9.85603e-17
9.85702e-17
9.79143e-17
9.79558e-17
9.79941e-17
9.80279e-17
9.80584e-17
9.80859e-17
9.81108e-17
9.81329e-17
9.81527e-17
9.81704e-17
9.81867e-17
9.82008e-17
9.82141e-17
9.82265e-17
9.7943e-17
9.79803e-17
9.80194e-17
9.80541e-17
9.80866e-17
9.8116e-17
9.81429e-17
9.81669e-17
9.81886e-17
9.82081e-17
9.82264e-17
9.82424e-17
9.82571e-17
9.82746e-17
9.79756e-17
9.8012e-17
9.80506e-17
9.8085e-17
9.81177e-17
9.81475e-17
9.81752e-17
9.82e-17
9.82227e-17
9.8243e-17
9.82622e-17
9.82789e-17
9.8295e-17
9.83126e-17
9.80048e-17
9.80401e-17
9.80784e-17
9.81131e-17
9.81465e-17
9.81772e-17
9.82058e-17
9.82316e-17
9.82552e-17
9.82764e-17
9.82964e-17
9.83139e-17
9.83314e-17
9.8349e-17
9.80337e-17
9.80694e-17
9.8107e-17
9.81416e-17
9.8175e-17
9.82058e-17
9.82346e-17
9.82607e-17
9.82848e-17
9.83066e-17
9.83271e-17
9.83452e-17
9.83631e-17
9.83799e-17
9.80623e-17
9.80976e-17
9.81338e-17
9.81681e-17
9.82011e-17
9.82319e-17
9.82607e-17
9.82871e-17
9.83116e-17
9.83339e-17
9.83549e-17
9.83738e-17
9.83921e-17
9.84088e-17
9.80899e-17
9.81246e-17
9.81593e-17
9.81928e-17
9.8225e-17
9.82552e-17
9.82836e-17
9.83098e-17
9.83342e-17
9.83569e-17
9.83783e-17
9.8398e-17
9.84165e-17
9.84333e-17
9.81163e-17
9.81495e-17
9.81822e-17
9.82147e-17
9.82456e-17
9.82751e-17
9.83029e-17
9.83289e-17
9.83533e-17
9.83762e-17
9.83978e-17
9.84183e-17
9.8437e-17
9.84551e-17
9.814e-17
9.81716e-17
9.82024e-17
9.82335e-17
9.82629e-17
9.82913e-17
9.83181e-17
9.83437e-17
9.83677e-17
9.83908e-17
9.84125e-17
9.84336e-17
9.84526e-17
9.84721e-17
9.81619e-17
9.81912e-17
9.82195e-17
9.82488e-17
9.82766e-17
9.83038e-17
9.83297e-17
9.83547e-17
9.83784e-17
9.84015e-17
9.84234e-17
9.84453e-17
9.84649e-17
9.84857e-17
9.81807e-17
9.82075e-17
9.82334e-17
9.82608e-17
9.82869e-17
9.83125e-17
9.83371e-17
9.8361e-17
9.83841e-17
9.84073e-17
9.84298e-17
9.84531e-17
9.84739e-17
9.84966e-17
9.81955e-17
9.82199e-17
9.82433e-17
9.82684e-17
9.82924e-17
9.83165e-17
9.83403e-17
9.83639e-17
9.8387e-17
9.84104e-17
9.84336e-17
9.84578e-17
9.84785e-17
9.85019e-17
9.82057e-17
9.82281e-17
9.82494e-17
9.82723e-17
9.82944e-17
9.83173e-17
9.83397e-17
9.83623e-17
9.83851e-17
9.84084e-17
9.8432e-17
9.84563e-17
9.84764e-17
9.8499e-17
9.82121e-17
9.8233e-17
9.82518e-17
9.82726e-17
9.82933e-17
9.83152e-17
9.83373e-17
9.83596e-17
9.83824e-17
9.84056e-17
9.84286e-17
9.84507e-17
9.84709e-17
9.84957e-17
9.75276e-17
9.75608e-17
9.75946e-17
9.76259e-17
9.76561e-17
9.76846e-17
9.77121e-17
9.77381e-17
9.77629e-17
9.77867e-17
9.78095e-17
9.7831e-17
9.78515e-17
9.78704e-17
9.75687e-17
9.75971e-17
9.76311e-17
9.76625e-17
9.76935e-17
9.77227e-17
9.77512e-17
9.77784e-17
9.78046e-17
9.78297e-17
9.7854e-17
9.78771e-17
9.78988e-17
9.79231e-17
9.76122e-17
9.76395e-17
9.76727e-17
9.7703e-17
9.77336e-17
9.77626e-17
9.7791e-17
9.78183e-17
9.78448e-17
9.78704e-17
9.78953e-17
9.79189e-17
9.79414e-17
9.79663e-17
9.76527e-17
9.76791e-17
9.77113e-17
9.77413e-17
9.77719e-17
9.78011e-17
9.783e-17
9.7858e-17
9.78853e-17
9.79117e-17
9.79373e-17
9.79618e-17
9.79853e-17
9.80105e-17
9.76919e-17
9.77189e-17
9.77502e-17
9.77797e-17
9.78099e-17
9.7839e-17
9.7868e-17
9.78963e-17
9.79241e-17
9.79511e-17
9.79774e-17
9.80025e-17
9.80266e-17
9.80511e-17
9.7731e-17
9.77579e-17
9.77878e-17
9.78168e-17
9.78465e-17
9.78756e-17
9.79049e-17
9.79337e-17
9.79621e-17
9.79899e-17
9.8017e-17
9.80429e-17
9.80679e-17
9.80922e-17
9.7768e-17
9.7795e-17
9.78235e-17
9.78521e-17
9.78813e-17
9.79104e-17
9.79397e-17
9.7969e-17
9.79979e-17
9.80264e-17
9.80543e-17
9.80812e-17
9.81069e-17
9.81311e-17
9.78042e-17
9.78307e-17
9.78577e-17
9.78859e-17
9.79145e-17
9.79436e-17
9.7973e-17
9.80026e-17
9.80322e-17
9.80614e-17
9.80902e-17
9.8118e-17
9.81448e-17
9.81698e-17
9.78371e-17
9.78632e-17
9.78891e-17
9.79169e-17
9.7945e-17
9.79742e-17
9.80038e-17
9.80339e-17
9.8064e-17
9.80939e-17
9.81235e-17
9.81522e-17
9.81801e-17
9.8206e-17
9.78689e-17
9.78943e-17
9.79189e-17
9.79462e-17
9.79738e-17
9.8003e-17
9.80327e-17
9.80631e-17
9.80937e-17
9.81242e-17
9.81548e-17
9.81845e-17
9.82139e-17
9.82409e-17
9.78976e-17
9.7922e-17
9.79456e-17
9.79723e-17
9.79997e-17
9.80289e-17
9.8059e-17
9.80899e-17
9.81213e-17
9.81526e-17
9.81843e-17
9.82154e-17
9.82462e-17
9.82742e-17
9.79238e-17
9.79476e-17
9.79704e-17
9.79968e-17
9.80238e-17
9.8053e-17
9.80833e-17
9.81145e-17
9.81465e-17
9.81785e-17
9.82112e-17
9.82435e-17
9.82751e-17
9.83048e-17
9.79451e-17
9.79689e-17
9.79916e-17
9.80177e-17
9.80447e-17
9.8074e-17
9.81049e-17
9.81369e-17
9.817e-17
9.82033e-17
9.82371e-17
9.82706e-17
9.8302e-17
9.83328e-17
9.79632e-17
9.79867e-17
9.80098e-17
9.80362e-17
9.80638e-17
9.80934e-17
9.81248e-17
9.81572e-17
9.81908e-17
9.82246e-17
9.82588e-17
9.82928e-17
9.83246e-17
9.83581e-17
9.7172e-17
9.71877e-17
9.72097e-17
9.72314e-17
9.72557e-17
9.72811e-17
9.73078e-17
9.73352e-17
9.73628e-17
9.73903e-17
9.74171e-17
9.74435e-17
9.74679e-17
9.74926e-17
9.7222e-17
9.72339e-17
9.72552e-17
9.72751e-17
9.72987e-17
9.73236e-17
9.73504e-17
9.73783e-17
9.74065e-17
9.74349e-17
9.74625e-17
9.749e-17
9.75151e-17
9.75438e-17
9.72705e-17
9.72819e-17
9.73024e-17
9.73216e-17
9.73445e-17
9.73687e-17
9.7395e-17
9.74222e-17
9.745e-17
9.74782e-17
9.7506e-17
9.75337e-17
9.75592e-17
9.75883e-17
9.73178e-17
9.73293e-17
9.73489e-17
9.73678e-17
9.73903e-17
9.74144e-17
9.74406e-17
9.74679e-17
9.74959e-17
9.75245e-17
9.75526e-17
9.75808e-17
9.7607e-17
9.7636e-17
9.7363e-17
9.7376e-17
9.7395e-17
9.74143e-17
9.74368e-17
9.74609e-17
9.74869e-17
9.75141e-17
9.75421e-17
9.75708e-17
9.75992e-17
9.76277e-17
9.76544e-17
9.76831e-17
9.74092e-17
9.74234e-17
9.74416e-17
9.74611e-17
9.74836e-17
9.75079e-17
9.75341e-17
9.75616e-17
9.75901e-17
9.76192e-17
9.76482e-17
9.7677e-17
9.77046e-17
9.77328e-17
9.74537e-17
9.74692e-17
9.74872e-17
9.75075e-17
9.75302e-17
9.7555e-17
9.75815e-17
9.76094e-17
9.76383e-17
9.76678e-17
9.76974e-17
9.77266e-17
9.77551e-17
9.77828e-17
9.74985e-17
9.75148e-17
9.75329e-17
9.75542e-17
9.75771e-17
9.76025e-17
9.76295e-17
9.76581e-17
9.76876e-17
9.77176e-17
9.77481e-17
9.77778e-17
9.78074e-17
9.78349e-17
9.75412e-17
9.75584e-17
9.75772e-17
9.75995e-17
9.76232e-17
9.76495e-17
9.76773e-17
9.77066e-17
9.7737e-17
9.77676e-17
9.77988e-17
9.7829e-17
9.78596e-17
9.78868e-17
9.75842e-17
9.76023e-17
9.76216e-17
9.76449e-17
9.76694e-17
9.76966e-17
9.77253e-17
9.77554e-17
9.77865e-17
9.78178e-17
9.785e-17
9.78808e-17
9.7913e-17
9.79399e-17
9.76244e-17
9.76435e-17
9.76636e-17
9.7688e-17
9.77138e-17
9.77423e-17
9.77723e-17
9.78035e-17
9.78358e-17
9.78681e-17
9.79013e-17
9.79332e-17
9.79664e-17
9.79928e-17
9.76642e-17
9.76848e-17
9.77059e-17
9.77314e-17
9.77584e-17
9.77878e-17
9.78188e-17
9.78508e-17
9.78839e-17
9.79169e-17
9.79511e-17
9.7984e-17
9.80182e-17
9.80455e-17
9.76987e-17
9.77212e-17
9.77441e-17
9.77709e-17
9.77996e-17
9.78305e-17
9.78632e-17
9.78969e-17
9.79316e-17
9.79664e-17
9.80018e-17
9.8036e-17
9.80699e-17
9.80971e-17
9.77325e-17
9.77573e-17
9.77828e-17
9.78113e-17
9.78417e-17
9.78734e-17
9.7907e-17
9.79411e-17
9.79763e-17
9.80113e-17
9.80465e-17
9.80805e-17
9.81143e-17
9.81463e-17
9.69373e-17
9.69364e-17
9.69439e-17
9.69547e-17
9.6968e-17
9.69841e-17
9.70026e-17
9.70232e-17
9.70452e-17
9.70685e-17
9.70922e-17
9.7116e-17
9.71382e-17
9.71616e-17
9.69888e-17
9.69838e-17
9.69909e-17
9.70002e-17
9.70127e-17
9.70284e-17
9.70466e-17
9.70671e-17
9.70889e-17
9.71122e-17
9.71358e-17
9.716e-17
9.71822e-17
9.7208e-17
9.70354e-17
9.70304e-17
9.70375e-17
9.70471e-17
9.70597e-17
9.70753e-17
9.70931e-17
9.71128e-17
9.71338e-17
9.71563e-17
9.71792e-17
9.72033e-17
9.72253e-17
9.72513e-17
9.70825e-17
9.70788e-17
9.70858e-17
9.70956e-17
9.71083e-17
9.71238e-17
9.71415e-17
9.71611e-17
9.71821e-17
9.72044e-17
9.72273e-17
9.72512e-17
9.72734e-17
9.72989e-17
9.71273e-17
9.71272e-17
9.71346e-17
9.71451e-17
9.71583e-17
9.7174e-17
9.71917e-17
9.72112e-17
9.72321e-17
9.72542e-17
9.72769e-17
9.73005e-17
9.73229e-17
9.73479e-17
9.71737e-17
9.71777e-17
9.71855e-17
9.71964e-17
9.72098e-17
9.72259e-17
9.72439e-17
9.72637e-17
9.72847e-17
9.7307e-17
9.73299e-17
9.73533e-17
9.73762e-17
9.74005e-17
9.72209e-17
9.72273e-17
9.7236e-17
9.7248e-17
9.72623e-17
9.72789e-17
9.72975e-17
9.73176e-17
9.73389e-17
9.73612e-17
9.73844e-17
9.74078e-17
9.74311e-17
9.74543e-17
9.72694e-17
9.72776e-17
9.72874e-17
9.73005e-17
9.73156e-17
9.73332e-17
9.73525e-17
9.73732e-17
9.7395e-17
9.74177e-17
9.74414e-17
9.74648e-17
9.74889e-17
9.75112e-17
9.73168e-17
9.73269e-17
9.73382e-17
9.73529e-17
9.73693e-17
9.73881e-17
9.74083e-17
9.74298e-17
9.74522e-17
9.74752e-17
9.74993e-17
9.75228e-17
9.75476e-17
9.7569e-17
9.73649e-17
9.73769e-17
9.73896e-17
9.74059e-17
9.74237e-17
9.74437e-17
9.74649e-17
9.74872e-17
9.75104e-17
9.75341e-17
9.7559e-17
9.75828e-17
9.76088e-17
9.76291e-17
9.74111e-17
9.7425e-17
9.74396e-17
9.74577e-17
9.74775e-17
9.7499e-17
9.75216e-17
9.7545e-17
9.75692e-17
9.75936e-17
9.76193e-17
9.76437e-17
9.76703e-17
9.76892e-17
9.74579e-17
9.74741e-17
9.74906e-17
9.75104e-17
9.75319e-17
9.75546e-17
9.75785e-17
9.76029e-17
9.7628e-17
9.76532e-17
9.76798e-17
9.7705e-17
9.77324e-17
9.77506e-17
9.75003e-17
9.75184e-17
9.7538e-17
9.75599e-17
9.75837e-17
9.76085e-17
9.76344e-17
9.76604e-17
9.76871e-17
9.77136e-17
9.7741e-17
9.77672e-17
9.77944e-17
9.78124e-17
9.75447e-17
9.75656e-17
9.75879e-17
9.76116e-17
9.76372e-17
9.76631e-17
9.76901e-17
9.77171e-17
9.77445e-17
9.77715e-17
9.77987e-17
9.78247e-17
9.78513e-17
9.78729e-17
9.68351e-17
9.68261e-17
9.68242e-17
9.68246e-17
9.68272e-17
9.68323e-17
9.68394e-17
9.68488e-17
9.68594e-17
9.6872e-17
9.68856e-17
9.69003e-17
9.69147e-17
9.69296e-17
9.68772e-17
9.68664e-17
9.68653e-17
9.68651e-17
9.68673e-17
9.6872e-17
9.68788e-17
9.6888e-17
9.68984e-17
9.69108e-17
9.69239e-17
9.69384e-17
9.69518e-17
9.69678e-17
9.69158e-17
9.69067e-17
9.69059e-17
9.69061e-17
9.69085e-17
9.69134e-17
9.69201e-17
9.6929e-17
9.69389e-17
9.69506e-17
9.6963e-17
9.69766e-17
9.69893e-17
9.70055e-17
9.69561e-17
9.69491e-17
9.69485e-17
9.6949e-17
9.69516e-17
9.69566e-17
9.69633e-17
9.69721e-17
9.69819e-17
9.69933e-17
9.70054e-17
9.70186e-17
9.70311e-17
9.70474e-17
9.6996e-17
9.69915e-17
9.69914e-17
9.69926e-17
9.69959e-17
9.70013e-17
9.70082e-17
9.7017e-17
9.70268e-17
9.7038e-17
9.70499e-17
9.70627e-17
9.70753e-17
9.70907e-17
9.70381e-17
9.70355e-17
9.7036e-17
9.70381e-17
9.7042e-17
9.70478e-17
9.7055e-17
9.7064e-17
9.7074e-17
9.70852e-17
9.70971e-17
9.71098e-17
9.71227e-17
9.71367e-17
9.708e-17
9.70793e-17
9.70809e-17
9.70843e-17
9.70892e-17
9.70957e-17
9.71034e-17
9.71126e-17
9.71229e-17
9.71342e-17
9.71462e-17
9.71586e-17
9.71718e-17
9.71845e-17
9.71225e-17
9.71241e-17
9.7127e-17
9.71315e-17
9.71374e-17
9.71447e-17
9.71532e-17
9.71629e-17
9.71736e-17
9.71852e-17
9.71973e-17
9.72097e-17
9.72233e-17
9.7235e-17
9.7165e-17
9.71688e-17
9.71731e-17
9.71793e-17
9.71864e-17
9.71947e-17
9.72041e-17
9.72146e-17
9.72259e-17
9.72377e-17
9.72498e-17
9.7262e-17
9.72761e-17
9.72869e-17
9.72087e-17
9.72145e-17
9.722e-17
9.72277e-17
9.72362e-17
9.72456e-17
9.72561e-17
9.72675e-17
9.72797e-17
9.72919e-17
9.73044e-17
9.73165e-17
9.73313e-17
9.73411e-17
9.72521e-17
9.72598e-17
9.72669e-17
9.72764e-17
9.72865e-17
9.72973e-17
9.73091e-17
9.73214e-17
9.73344e-17
9.73472e-17
9.736e-17
9.73718e-17
9.73872e-17
9.73953e-17
9.7297e-17
9.73065e-17
9.73153e-17
9.73262e-17
9.73377e-17
9.73498e-17
9.73628e-17
9.73761e-17
9.73899e-17
9.74035e-17
9.7417e-17
9.74293e-17
9.74454e-17
9.74521e-17
9.73396e-17
9.73506e-17
9.7362e-17
9.73748e-17
9.73884e-17
9.74022e-17
9.74167e-17
9.74312e-17
9.7446e-17
9.74602e-17
9.74742e-17
9.7487e-17
9.75027e-17
9.75091e-17
9.7386e-17
9.7398e-17
9.74117e-17
9.74257e-17
9.74409e-17
9.74557e-17
9.74711e-17
9.74865e-17
9.75019e-17
9.75167e-17
9.75308e-17
9.75444e-17
9.75596e-17
9.75687e-17
9.6813e-17
9.68023e-17
9.67952e-17
9.67891e-17
9.67847e-17
9.67814e-17
9.67795e-17
9.67791e-17
9.67798e-17
9.67819e-17
9.67848e-17
9.67892e-17
9.67942e-17
9.68003e-17
9.68445e-17
9.68325e-17
9.68258e-17
9.68195e-17
9.6815e-17
9.68115e-17
9.68094e-17
9.68087e-17
9.68091e-17
9.68109e-17
9.68135e-17
9.68176e-17
9.6821e-17
9.68286e-17
9.68735e-17
9.68623e-17
9.6856e-17
9.68503e-17
9.6846e-17
9.68427e-17
9.68406e-17
9.68397e-17
9.68397e-17
9.6841e-17
9.68429e-17
9.6846e-17
9.68488e-17
9.6856e-17
9.6904e-17
9.68938e-17
9.6888e-17
9.68824e-17
9.68783e-17
9.68751e-17
9.6873e-17
9.68719e-17
9.68717e-17
9.68726e-17
9.6874e-17
9.68767e-17
9.68792e-17
9.68855e-17
9.69334e-17
9.69249e-17
9.69198e-17
9.69148e-17
9.69111e-17
9.69083e-17
9.69064e-17
9.69054e-17
9.69051e-17
9.69057e-17
9.69069e-17
9.69091e-17
9.69113e-17
9.69162e-17
9.69642e-17
9.69572e-17
9.69528e-17
9.69484e-17
9.69451e-17
9.69427e-17
9.6941e-17
9.69401e-17
9.69399e-17
9.69404e-17
9.69414e-17
9.69433e-17
9.69454e-17
9.69487e-17
9.69951e-17
9.69898e-17
9.69862e-17
9.69827e-17
9.69801e-17
9.69781e-17
9.69768e-17
9.69762e-17
9.69761e-17
9.69765e-17
9.69775e-17
9.69789e-17
9.69809e-17
9.69831e-17
9.70272e-17
9.70238e-17
9.70208e-17
9.70183e-17
9.70163e-17
9.70149e-17
9.70139e-17
9.70135e-17
9.70136e-17
9.7014e-17
9.70151e-17
9.70162e-17
9.70183e-17
9.70194e-17
9.70596e-17
9.70583e-17
9.70562e-17
9.70547e-17
9.70535e-17
9.70527e-17
9.70523e-17
9.70523e-17
9.70526e-17
9.7053e-17
9.70541e-17
9.70552e-17
9.70577e-17
9.70572e-17
9.70933e-17
9.70939e-17
9.70926e-17
9.70922e-17
9.70917e-17
9.70916e-17
9.70919e-17
9.70923e-17
9.7093e-17
9.70935e-17
9.70949e-17
9.7096e-17
9.70989e-17
9.70975e-17
9.71279e-17
9.71299e-17
9.71297e-17
9.71306e-17
9.71312e-17
9.71318e-17
9.71327e-17
9.71336e-17
9.71346e-17
9.71353e-17
9.7137e-17
9.71384e-17
9.71414e-17
9.7139e-17
9.71643e-17
9.71675e-17
9.7168e-17
9.71698e-17
9.71714e-17
9.7173e-17
9.71746e-17
9.71761e-17
9.71776e-17
9.71788e-17
9.71809e-17
9.7183e-17
9.7186e-17
9.71828e-17
9.72005e-17
9.72045e-17
9.72067e-17
9.72099e-17
9.72126e-17
9.72152e-17
9.72175e-17
9.72194e-17
9.72212e-17
9.72228e-17
9.72249e-17
9.72271e-17
9.72293e-17
9.72255e-17
9.72411e-17
9.72434e-17
9.72474e-17
9.72511e-17
9.72548e-17
9.72581e-17
9.72612e-17
9.72637e-17
9.72661e-17
9.72681e-17
9.727e-17
9.72726e-17
9.72749e-17
9.72732e-17
9.68242e-17
9.6812e-17
9.68027e-17
9.67935e-17
9.67851e-17
9.67768e-17
9.67694e-17
9.67624e-17
9.67563e-17
9.67506e-17
9.67457e-17
9.67416e-17
9.67373e-17
9.67342e-17
9.68439e-17
9.68318e-17
9.68226e-17
9.68129e-17
9.68043e-17
9.67959e-17
9.67882e-17
9.67808e-17
9.67743e-17
9.67682e-17
9.67629e-17
9.67583e-17
9.67535e-17
9.67519e-17
9.68612e-17
9.68495e-17
9.68409e-17
9.68318e-17
9.68233e-17
9.68151e-17
9.68074e-17
9.68e-17
9.67934e-17
9.67871e-17
9.67813e-17
9.67762e-17
9.67707e-17
9.67687e-17
9.68803e-17
9.68694e-17
9.6861e-17
9.68519e-17
9.68435e-17
9.68352e-17
9.68275e-17
9.682e-17
9.68131e-17
9.68065e-17
9.68004e-17
9.67948e-17
9.67887e-17
9.67857e-17
9.68989e-17
9.6889e-17
9.6881e-17
9.68723e-17
9.68641e-17
9.6856e-17
9.68483e-17
9.68408e-17
9.68337e-17
9.68269e-17
9.68203e-17
9.68143e-17
9.68078e-17
9.68035e-17
9.69184e-17
9.69096e-17
9.69018e-17
9.68935e-17
9.68855e-17
9.68775e-17
9.68698e-17
9.68622e-17
9.6855e-17
9.68479e-17
9.68411e-17
9.68346e-17
9.6828e-17
9.68225e-17
9.69382e-17
9.69304e-17
9.6923e-17
9.69152e-17
9.69075e-17
9.68997e-17
9.68921e-17
9.68846e-17
9.68772e-17
9.687e-17
9.68631e-17
9.68562e-17
9.68494e-17
9.68429e-17
9.69591e-17
9.69524e-17
9.69453e-17
9.6938e-17
9.69305e-17
9.6923e-17
9.69153e-17
9.69078e-17
9.69003e-17
9.68929e-17
9.68858e-17
9.68785e-17
9.68716e-17
9.68643e-17
9.69807e-17
9.69748e-17
9.69681e-17
9.69613e-17
9.69541e-17
9.6947e-17
9.69395e-17
9.69321e-17
9.69246e-17
9.6917e-17
9.69097e-17
9.69018e-17
9.68949e-17
9.68863e-17
9.70033e-17
9.69985e-17
9.69921e-17
9.69859e-17
9.6979e-17
9.69721e-17
9.69647e-17
9.69572e-17
9.69495e-17
9.69416e-17
9.6934e-17
9.69256e-17
9.69186e-17
9.69094e-17
9.70267e-17
9.70228e-17
9.70168e-17
9.70111e-17
9.70045e-17
9.69978e-17
9.69906e-17
9.69832e-17
9.69754e-17
9.69672e-17
9.69593e-17
9.69504e-17
9.69434e-17
9.69336e-17
9.70515e-17
9.70481e-17
9.70424e-17
9.70371e-17
9.70309e-17
9.70244e-17
9.70173e-17
9.70099e-17
9.70019e-17
9.69936e-17
9.69856e-17
9.69765e-17
9.69693e-17
9.69595e-17
9.7077e-17
9.70742e-17
9.70692e-17
9.70643e-17
9.70583e-17
9.70518e-17
9.70447e-17
9.70371e-17
9.70291e-17
9.70205e-17
9.70122e-17
9.70027e-17
9.69951e-17
9.69853e-17
9.71057e-17
9.71004e-17
9.70955e-17
9.70908e-17
9.70854e-17
9.70794e-17
9.70728e-17
9.70653e-17
9.70576e-17
9.70491e-17
9.70405e-17
9.7031e-17
9.7023e-17
9.70139e-17
9.68376e-17
9.6825e-17
9.68145e-17
9.68036e-17
9.67927e-17
9.67818e-17
9.67711e-17
9.67603e-17
9.67499e-17
9.6739e-17
9.67291e-17
9.67187e-17
9.6709e-17
9.6699e-17
9.68466e-17
9.68349e-17
9.68249e-17
9.68138e-17
9.68028e-17
9.67915e-17
9.67804e-17
9.6769e-17
9.67581e-17
9.67468e-17
9.67364e-17
9.67258e-17
9.67159e-17
9.67061e-17
9.68542e-17
9.68428e-17
9.6833e-17
9.68221e-17
9.68114e-17
9.68003e-17
9.67893e-17
9.67779e-17
9.6767e-17
9.67557e-17
9.67451e-17
9.67344e-17
9.67239e-17
9.6714e-17
9.6863e-17
9.68521e-17
9.68423e-17
9.68314e-17
9.68207e-17
9.68096e-17
9.67984e-17
9.67871e-17
9.6776e-17
9.67646e-17
9.67538e-17
9.67427e-17
9.67319e-17
9.67215e-17
9.68717e-17
9.68616e-17
9.68518e-17
9.68412e-17
9.68305e-17
9.68194e-17
9.68082e-17
9.67966e-17
9.67853e-17
9.67737e-17
9.67624e-17
9.67509e-17
9.67395e-17
9.67286e-17
9.68813e-17
9.68717e-17
9.6862e-17
9.68515e-17
9.68408e-17
9.68296e-17
9.68182e-17
9.68064e-17
9.67947e-17
9.67828e-17
9.67711e-17
9.67592e-17
9.67474e-17
9.67357e-17
9.6891e-17
9.68819e-17
9.68723e-17
9.6862e-17
9.68512e-17
9.684e-17
9.68284e-17
9.68166e-17
9.68046e-17
9.67923e-17
9.67802e-17
9.67678e-17
9.67555e-17
9.6743e-17
9.69013e-17
9.68926e-17
9.6883e-17
9.68728e-17
9.68619e-17
9.68507e-17
9.68388e-17
9.68267e-17
9.68143e-17
9.68017e-17
9.67891e-17
9.67763e-17
9.67635e-17
9.67506e-17
9.6912e-17
9.69036e-17
9.68938e-17
9.68837e-17
9.68726e-17
9.68613e-17
9.68493e-17
9.6837e-17
9.68242e-17
9.68113e-17
9.67983e-17
9.6785e-17
9.67718e-17
9.67582e-17
9.69232e-17
9.6915e-17
9.69052e-17
9.68951e-17
9.68839e-17
9.68724e-17
9.686e-17
9.68474e-17
9.68342e-17
9.68209e-17
9.68074e-17
9.67938e-17
9.67803e-17
9.67662e-17
9.69346e-17
9.69265e-17
9.69167e-17
9.69065e-17
9.68951e-17
9.68832e-17
9.68707e-17
9.6858e-17
9.68446e-17
9.6831e-17
9.68172e-17
9.68029e-17
9.67889e-17
9.67737e-17
9.69462e-17
9.69382e-17
9.69284e-17
9.69183e-17
9.69068e-17
9.68948e-17
9.68819e-17
9.68686e-17
9.68547e-17
9.68406e-17
9.68263e-17
9.68117e-17
9.67974e-17
9.67813e-17
9.69584e-17
9.69503e-17
9.69406e-17
9.69299e-17
9.69182e-17
9.69057e-17
9.68927e-17
9.68794e-17
9.68653e-17
9.68507e-17
9.68357e-17
9.68203e-17
9.6805e-17
9.67886e-17
9.69711e-17
9.69618e-17
9.69517e-17
9.6941e-17
9.69296e-17
9.69172e-17
9.6904e-17
9.68903e-17
9.6876e-17
9.68611e-17
9.6846e-17
9.68299e-17
9.68143e-17
9.67974e-17
9.68343e-17
9.68225e-17
9.68118e-17
9.68004e-17
9.67884e-17
9.67757e-17
9.67625e-17
9.67488e-17
9.67356e-17
9.67217e-17
9.67087e-17
9.66942e-17
9.66811e-17
9.66658e-17
9.68354e-17
9.68241e-17
9.68138e-17
9.6802e-17
9.67898e-17
9.67769e-17
9.67636e-17
9.67497e-17
9.67358e-17
9.67214e-17
9.67078e-17
9.66931e-17
9.66798e-17
9.66652e-17
9.68346e-17
9.68243e-17
9.68138e-17
9.6802e-17
9.67899e-17
9.67772e-17
9.67641e-17
9.67503e-17
9.67364e-17
9.67218e-17
9.67079e-17
9.66932e-17
9.66793e-17
9.66645e-17
9.68348e-17
9.68247e-17
9.68141e-17
9.68023e-17
9.67901e-17
9.67773e-17
9.6764e-17
9.67502e-17
9.67363e-17
9.67217e-17
9.67075e-17
9.66926e-17
9.66784e-17
9.66635e-17
9.68343e-17
9.68246e-17
9.6814e-17
9.68023e-17
9.679e-17
9.67771e-17
9.67637e-17
9.67497e-17
9.67355e-17
9.67207e-17
9.67061e-17
9.66909e-17
9.66762e-17
9.66609e-17
9.68339e-17
9.68243e-17
9.68136e-17
9.68019e-17
9.67894e-17
9.67763e-17
9.67627e-17
9.67485e-17
9.67339e-17
9.67189e-17
9.6704e-17
9.66886e-17
9.66734e-17
9.66578e-17
9.68336e-17
9.68239e-17
9.68131e-17
9.68014e-17
9.67887e-17
9.67754e-17
9.67614e-17
9.67469e-17
9.6732e-17
9.67167e-17
9.67013e-17
9.66856e-17
9.667e-17
9.6654e-17
9.6833e-17
9.68233e-17
9.68122e-17
9.68003e-17
9.67873e-17
9.67738e-17
9.67595e-17
9.67447e-17
9.67295e-17
9.67139e-17
9.66981e-17
9.66822e-17
9.66661e-17
9.66498e-17
9.68327e-17
9.68228e-17
9.68113e-17
9.67992e-17
9.67859e-17
9.67719e-17
9.67572e-17
9.67421e-17
9.67263e-17
9.67104e-17
9.66941e-17
9.66779e-17
9.66612e-17
9.66449e-17
9.6832e-17
9.68216e-17
9.68098e-17
9.67973e-17
9.67837e-17
9.67694e-17
9.67544e-17
9.67389e-17
9.67228e-17
9.67066e-17
9.66899e-17
9.66734e-17
9.66561e-17
9.66398e-17
9.68315e-17
9.68204e-17
9.68083e-17
9.67955e-17
9.67815e-17
9.67668e-17
9.67512e-17
9.67353e-17
9.67186e-17
9.67019e-17
9.66847e-17
9.66678e-17
9.66501e-17
9.66337e-17
9.68304e-17
9.68186e-17
9.68062e-17
9.67928e-17
9.67785e-17
9.67635e-17
9.67476e-17
9.67313e-17
9.67142e-17
9.66972e-17
9.66795e-17
9.66622e-17
9.6644e-17
9.66274e-17
9.68295e-17
9.68166e-17
9.68038e-17
9.67899e-17
9.67753e-17
9.67599e-17
9.67436e-17
9.67268e-17
9.67092e-17
9.66915e-17
9.66734e-17
9.66556e-17
9.66371e-17
9.66195e-17
9.68282e-17
9.68145e-17
9.68014e-17
9.67869e-17
9.67718e-17
9.67558e-17
9.67391e-17
9.67222e-17
9.67048e-17
9.66873e-17
9.66692e-17
9.66513e-17
9.66325e-17
9.66142e-17
9.67952e-17
9.67848e-17
9.67742e-17
9.67624e-17
9.67499e-17
9.67365e-17
9.67222e-17
9.67072e-17
9.66918e-17
9.66756e-17
9.666e-17
9.66431e-17
9.66279e-17
9.66095e-17
9.67873e-17
9.6777e-17
9.67667e-17
9.6755e-17
9.67424e-17
9.67289e-17
9.67146e-17
9.66994e-17
9.66839e-17
9.66676e-17
9.66517e-17
9.66346e-17
9.66189e-17
9.66014e-17
9.67775e-17
9.67683e-17
9.67577e-17
9.6746e-17
9.67335e-17
9.67202e-17
9.6706e-17
9.6691e-17
9.66755e-17
9.66592e-17
9.66431e-17
9.66261e-17
9.661e-17
9.65927e-17
9.67682e-17
9.67592e-17
9.67484e-17
9.67367e-17
9.67241e-17
9.67107e-17
9.66965e-17
9.66814e-17
9.66659e-17
9.66495e-17
9.66334e-17
9.66165e-17
9.66003e-17
9.65832e-17
9.67584e-17
9.67494e-17
9.67386e-17
9.67269e-17
9.67141e-17
9.67006e-17
9.66863e-17
9.66712e-17
9.66555e-17
9.66392e-17
9.66228e-17
9.66059e-17
9.65895e-17
9.65722e-17
9.67484e-17
9.67391e-17
9.67281e-17
9.67162e-17
9.67032e-17
9.66895e-17
9.6675e-17
9.66597e-17
9.6644e-17
9.66275e-17
9.66111e-17
9.6594e-17
9.65774e-17
9.65601e-17
9.67384e-17
9.67287e-17
9.67174e-17
9.67052e-17
9.66919e-17
9.66778e-17
9.6663e-17
9.66476e-17
9.66316e-17
9.66151e-17
9.65984e-17
9.65814e-17
9.65645e-17
9.65471e-17
9.67274e-17
9.67172e-17
9.67055e-17
9.6693e-17
9.66794e-17
9.66651e-17
9.665e-17
9.66344e-17
9.66182e-17
9.66016e-17
9.65847e-17
9.65677e-17
9.65504e-17
9.65332e-17
9.67168e-17
9.67059e-17
9.66938e-17
9.66808e-17
9.66667e-17
9.6652e-17
9.66364e-17
9.66204e-17
9.66039e-17
9.65871e-17
9.65699e-17
9.65529e-17
9.65354e-17
9.65187e-17
9.6705e-17
9.66933e-17
9.66807e-17
9.66672e-17
9.66528e-17
9.66377e-17
9.66219e-17
9.66057e-17
9.65889e-17
9.65721e-17
9.65546e-17
9.65375e-17
9.65195e-17
9.65033e-17
9.66937e-17
9.66808e-17
9.66679e-17
9.66538e-17
9.66389e-17
9.66233e-17
9.6607e-17
9.65903e-17
9.6573e-17
9.65558e-17
9.6538e-17
9.65209e-17
9.65027e-17
9.64871e-17
9.66808e-17
9.66669e-17
9.66536e-17
9.6639e-17
9.66237e-17
9.66078e-17
9.65913e-17
9.65744e-17
9.6557e-17
9.65397e-17
9.65217e-17
9.65045e-17
9.6486e-17
9.64706e-17
9.66684e-17
9.66536e-17
9.66398e-17
9.66247e-17
9.6609e-17
9.65926e-17
9.65754e-17
9.65578e-17
9.65397e-17
9.65218e-17
9.65036e-17
9.64861e-17
9.64677e-17
9.64523e-17
9.66542e-17
9.66385e-17
9.66243e-17
9.66087e-17
9.65925e-17
9.65758e-17
9.65586e-17