/*--------------------------------*- C++ -*----------------------------------*\
| =========                 |                                                 |
| \\      /  F ield         | OpenFOAM: The Open Source CFD Toolbox           |
|  \\    /   O peration     | Version:  v2106                                 |
|   \\  /    A nd           | Website:  www.openfoam.com                      |
|    \\/     M anipulation  |                                                 |
\*---------------------------------------------------------------------------*/
FoamFile
{
    version     2.0;
    format      ascii;
    arch        "LSB;label=32;scalar=64";
    class       volScalarField;
    location    "0.000192";
    object      T;
}
// * * * * * * * * * * * * * * * * * * * * * * * * * * * * * * * * * * * * * //

dimensions      [0 0 0 1 0 0 0];

internalField   nonuniform List<scalar> 
17924
(
308.531
308.533
308.534
308.537
308.429
308.444
308.456
308.467
308.476
308.485
308.493
308.413
308.43
308.443
308.455
308.466
308.475
308.484
308.399
308.417
308.43
308.443
308.454
308.464
308.473
308.383
308.402
308.416
308.429
308.441
308.451
308.461
308.369
308.387
308.403
308.416
308.428
308.438
308.448
308.354
308.373
308.388
308.402
308.415
308.426
308.436
308.343
308.36
308.376
308.39
308.403
308.414
308.424
308.332
308.349
308.366
308.379
308.392
308.402
308.411
308.324
308.341
308.357
308.37
308.381
308.39
308.398
308.32
308.336
308.35
308.362
308.372
308.38
308.386
308.318
308.333
308.346
308.356
308.364
308.37
308.375
308.319
308.332
308.343
308.351
308.357
308.362
308.364
308.322
308.333
308.342
308.348
308.352
308.354
308.354
308.331
308.339
308.344
308.348
308.348
308.347
308.345
308.273
308.301
308.324
308.346
308.365
308.38
308.394
308.405
308.415
308.424
308.432
308.44
308.446
308.456
308.272
308.3
308.325
308.347
308.367
308.384
308.399
308.412
308.424
308.434
308.443
308.452
308.46
308.47
308.27
308.299
308.325
308.348
308.369
308.387
308.403
308.416
308.429
308.439
308.449
308.458
308.467
308.477
308.268
308.297
308.324
308.347
308.369
308.388
308.405
308.419
308.432
308.443
308.454
308.463
308.473
308.483
308.267
308.296
308.324
308.347
308.369
308.388
308.405
308.419
308.431
308.443
308.453
308.463
308.472
308.482
308.267
308.295
308.322
308.346
308.367
308.386
308.403
308.417
308.43
308.441
308.452
308.461
308.471
308.48
308.268
308.296
308.322
308.345
308.365
308.383
308.399
308.414
308.426
308.437
308.448
308.457
308.466
308.474
308.27
308.297
308.321
308.343
308.363
308.38
308.395
308.409
308.421
308.431
308.441
308.449
308.457
308.466
308.273
308.298
308.321
308.341
308.359
308.376
308.389
308.402
308.412
308.422
308.43
308.438
308.446
308.454
308.277
308.3
308.321
308.34
308.355
308.37
308.382
308.393
308.402
308.411
308.418
308.425
308.432
308.44
308.282
308.303
308.32
308.337
308.35
308.363
308.373
308.382
308.39
308.397
308.403
308.41
308.415
308.424
308.287
308.305
308.32
308.333
308.345
308.355
308.363
308.371
308.376
308.382
308.386
308.391
308.396
308.404
308.292
308.307
308.318
308.329
308.338
308.345
308.351
308.356
308.36
308.364
308.367
308.371
308.375
308.383
308.299
308.311
308.319
308.326
308.331
308.335
308.338
308.341
308.342
308.344
308.346
308.348
308.35
308.356
308.05
308.086
308.119
308.147
308.172
308.193
308.212
308.228
308.242
308.253
308.264
308.272
308.28
308.292
308.063
308.096
308.129
308.159
308.186
308.21
308.231
308.248
308.264
308.277
308.289
308.299
308.308
308.322
308.076
308.11
308.145
308.175
308.202
308.227
308.249
308.267
308.284
308.298
308.311
308.321
308.331
308.343
308.089
308.123
308.157
308.188
308.216
308.241
308.264
308.284
308.302
308.317
308.33
308.342
308.353
308.365
308.102
308.137
308.171
308.202
308.23
308.256
308.278
308.298
308.316
308.331
308.345
308.357
308.369
308.38
308.116
308.15
308.184
308.214
308.242
308.267
308.29
308.31
308.328
308.344
308.358
308.37
308.381
308.392
308.131
308.164
308.196
308.225
308.252
308.277
308.299
308.318
308.336
308.351
308.365
308.377
308.388
308.399
308.145
308.176
308.206
308.234
308.26
308.283
308.304
308.323
308.34
308.355
308.368
308.381
308.391
308.402
308.157
308.187
308.215
308.241
308.265
308.287
308.307
308.325
308.34
308.355
308.368
308.38
308.39
308.401
308.169
308.197
308.222
308.245
308.267
308.288
308.306
308.323
308.338
308.352
308.364
308.376
308.385
308.397
308.179
308.204
308.226
308.248
308.268
308.286
308.303
308.318
308.331
308.344
308.355
308.366
308.376
308.388
308.187
308.209
308.229
308.248
308.265
308.281
308.296
308.309
308.321
308.333
308.343
308.354
308.362
308.375
308.193
308.212
308.229
308.245
308.259
308.273
308.285
308.296
308.307
308.318
308.327
308.337
308.347
308.36
308.199
308.215
308.227
308.239
308.251
308.262
308.272
308.282
308.291
308.3
308.309
308.318
308.328
308.341
307.751
307.788
307.822
307.852
307.88
307.905
307.928
307.948
307.966
307.982
307.997
308.01
308.022
308.037
307.775
307.808
307.844
307.875
307.905
307.932
307.957
307.979
307.998
308.016
308.032
308.047
308.061
308.078
307.803
307.836
307.872
307.903
307.934
307.961
307.986
308.008
308.029
308.047
308.064
308.079
308.094
308.11
307.829
307.862
307.897
307.929
307.959
307.987
308.013
308.037
308.058
308.077
308.095
308.111
308.127
308.143
307.855
307.888
307.923
307.955
307.985
308.013
308.039
308.063
308.084
308.104
308.122
308.139
308.155
308.171
307.882
307.914
307.948
307.979
308.009
308.036
308.062
308.086
308.108
308.128
308.147
308.165
308.182
308.197
307.907
307.938
307.97
308.001
308.03
308.057
308.083
308.106
308.128
308.149
308.168
308.186
308.203
308.219
307.93
307.961
307.991
308.02
308.048
308.075
308.1
308.123
308.145
308.166
308.186
308.204
308.221
308.237
307.951
307.981
308.009
308.036
308.063
308.089
308.113
308.136
308.158
308.179
308.198
308.217
308.235
308.252
307.97
307.998
308.024
308.05
308.075
308.1
308.123
308.146
308.167
308.188
308.208
308.227
308.245
308.263
307.986
308.012
308.035
308.06
308.084
308.107
308.129
308.151
308.172
308.192
308.213
308.233
308.251
308.271
308
308.023
308.044
308.067
308.088
308.11
308.132
308.153
308.174
308.195
308.215
308.236
308.255
308.276
308.01
308.032
308.049
308.07
308.09
308.111
308.131
308.151
308.172
308.192
308.213
308.234
308.254
308.276
308.018
308.038
308.052
308.07
308.088
308.108
308.127
308.147
308.168
308.189
308.21
308.231
308.252
308.277
307.398
307.427
307.457
307.486
307.513
307.539
307.564
307.588
307.611
307.632
307.653
307.673
307.692
307.712
307.434
307.459
307.49
307.519
307.547
307.574
307.6
307.625
307.649
307.671
307.693
307.714
307.734
307.758
307.473
307.497
307.528
307.556
307.584
307.61
307.636
307.661
307.685
307.708
307.73
307.751
307.772
307.795
307.51
307.534
307.563
307.59
307.618
307.645
307.671
307.696
307.721
307.745
307.768
307.791
307.812
307.835
307.546
307.57
307.599
307.625
307.653
307.679
307.705
307.731
307.756
307.781
307.804
307.827
307.849
307.872
307.582
307.606
307.633
307.659
307.686
307.712
307.739
307.765
307.79
307.816
307.84
307.864
307.887
307.909
307.615
307.639
307.665
307.691
307.717
307.743
307.77
307.796
307.823
307.848
307.874
307.898
307.922
307.944
307.648
307.672
307.696
307.721
307.747
307.773
307.8
307.827
307.853
307.88
307.906
307.931
307.956
307.979
307.678
307.701
307.724
307.749
307.774
307.801
307.828
307.855
307.882
307.909
307.936
307.962
307.987
308.011
307.706
307.729
307.751
307.775
307.8
307.827
307.854
307.881
307.909
307.936
307.964
307.99
308.017
308.041
307.731
307.754
307.775
307.799
307.823
307.85
307.877
307.905
307.934
307.962
307.99
308.018
308.046
308.07
307.755
307.777
307.797
307.821
307.845
307.871
307.899
307.927
307.956
307.985
308.014
308.042
308.071
308.097
307.775
307.797
307.816
307.84
307.864
307.89
307.918
307.947
307.977
308.007
308.037
308.067
308.097
308.125
307.794
307.815
307.834
307.857
307.881
307.908
307.936
307.965
307.996
308.026
308.057
308.088
308.12
308.152
307.074
307.087
307.106
307.126
307.148
307.171
307.196
307.221
307.246
307.271
307.296
307.32
307.343
307.367
307.118
307.128
307.147
307.166
307.187
307.21
307.235
307.26
307.286
307.312
307.337
307.362
307.385
307.412
307.162
307.172
307.191
307.208
307.229
307.251
307.275
307.3
307.325
307.351
307.376
307.401
307.424
307.452
307.205
307.215
307.233
307.25
307.271
307.293
307.317
307.341
307.367
307.393
307.418
307.444
307.468
307.495
307.247
307.258
307.275
307.293
307.313
307.335
307.359
307.383
307.409
307.435
307.461
307.487
307.511
307.538
307.289
307.302
307.318
307.335
307.356
307.378
307.401
307.426
307.452
307.479
307.505
307.531
307.557
307.583
307.33
307.343
307.359
307.378
307.398
307.42
307.444
307.47
307.496
307.523
307.55
307.576
307.602
307.628
307.37
307.385
307.401
307.42
307.441
307.464
307.488
307.514
307.541
307.568
307.596
307.623
307.65
307.675
307.409
307.424
307.441
307.461
307.482
307.506
307.531
307.558
307.586
307.613
307.642
307.669
307.697
307.722
307.448
307.464
307.481
307.502
307.524
307.549
307.575
307.602
307.63
307.659
307.688
307.716
307.745
307.769
307.484
307.501
307.519
307.541
307.564
307.59
307.617
307.646
307.675
307.704
307.735
307.763
307.793
307.816
307.52
307.539
307.558
307.581
307.605
307.632
307.66
307.689
307.719
307.749
307.779
307.808
307.84
307.863
307.552
307.573
307.592
307.616
307.642
307.67
307.7
307.731
307.762
307.794
307.825
307.856
307.887
307.912
307.585
307.607
307.628
307.654
307.681
307.71
307.74
307.771
307.803
307.834
307.866
307.897
307.929
307.96
306.859
306.858
306.864
306.874
306.886
306.9
306.917
306.936
306.956
306.978
306.999
307.021
307.042
307.065
306.905
306.9
306.906
306.915
306.927
306.941
306.958
306.976
306.996
307.017
307.039
307.061
307.082
307.106
306.948
306.943
306.949
306.958
306.97
306.984
307
307.018
307.037
307.058
307.079
307.1
307.121
307.145
306.991
306.987
306.994
307.003
307.014
307.028
307.044
307.062
307.081
307.102
307.122
307.144
307.165
307.188
307.032
307.032
307.038
307.048
307.06
307.074
307.09
307.108
307.127
307.147
307.168
307.189
307.21
307.233
307.075
307.078
307.085
307.095
307.107
307.121
307.138
307.156
307.175
307.195
307.216
307.237
307.258
307.281
307.118
307.123
307.131
307.142
307.155
307.17
307.187
307.205
307.224
307.245
307.266
307.287
307.308
307.33
307.162
307.169
307.178
307.19
307.203
307.219
307.237
307.256
307.275
307.296
307.318
307.339
307.361
307.381
307.206
307.214
307.224
307.237
307.252
307.269
307.288
307.307
307.327
307.348
307.37
307.392
307.415
307.434
307.249
307.26
307.271
307.286
307.302
307.32
307.339
307.359
307.381
307.402
307.425
307.446
307.47
307.488
307.291
307.304
307.317
307.333
307.351
307.37
307.391
307.412
307.434
307.456
307.479
307.501
307.526
307.542
307.333
307.348
307.363
307.381
307.4
307.421
307.443
307.465
307.488
307.51
307.534
307.557
307.582
307.597
307.372
307.389
307.406
307.426
307.447
307.47
307.493
307.517
307.541
307.565
307.59
307.613
307.638
307.654
307.415
307.433
307.452
307.473
307.496
307.52
307.544
307.569
307.593
307.618
307.643
307.666
307.691
307.712
306.766
306.757
306.755
306.755
306.757
306.762
306.768
306.777
306.787
306.798
306.811
306.824
306.838
306.852
306.804
306.793
306.792
306.792
306.794
306.798
306.805
306.813
306.822
306.834
306.846
306.859
306.871
306.886
306.839
306.83
306.829
306.83
306.832
306.836
306.842
306.85
306.859
306.87
306.881
306.894
306.905
306.92
306.876
306.869
306.869
306.869
306.871
306.876
306.882
306.89
306.899
306.909
306.92
306.932
306.944
306.959
306.913
306.908
306.908
306.909
306.912
306.917
306.923
306.931
306.94
306.95
306.961
306.973
306.984
306.998
306.951
306.949
306.949
306.951
306.954
306.959
306.966
306.974
306.983
306.993
307.004
307.016
307.028
307.041
306.99
306.989
306.99
306.993
306.997
307.003
307.01
307.019
307.028
307.038
307.049
307.06
307.072
307.084
307.029
307.03
307.032
307.036
307.042
307.048
307.056
307.065
307.074
307.085
307.096
307.107
307.12
307.13
307.068
307.071
307.074
307.08
307.086
307.094
307.102
307.112
307.122
307.133
307.144
307.155
307.168
307.178
307.107
307.112
307.117
307.124
307.132
307.14
307.15
307.16
307.171
307.182
307.194
307.205
307.218
307.227
307.147
307.154
307.16
307.168
307.178
307.187
307.198
307.209
307.221
307.233
307.244
307.255
307.269
307.276
307.187
307.196
307.204
307.214
307.224
307.235
307.247
307.259
307.272
307.284
307.296
307.307
307.322
307.327
307.227
307.237
307.247
307.258
307.271
307.283
307.296
307.309
307.323
307.336
307.348
307.359
307.374
307.379
307.27
307.281
307.292
307.305
307.318
307.332
307.346
307.36
307.374
307.387
307.4
307.412
307.427
307.435
306.746
306.735
306.728
306.722
306.718
306.715
306.713
306.713
306.714
306.715
306.718
306.722
306.727
306.733
306.774
306.762
306.756
306.75
306.746
306.743
306.741
306.74
306.741
306.742
306.744
306.748
306.751
306.759
306.8
306.79
306.784
306.779
306.775
306.772
306.77
306.769
306.769
306.77
306.771
306.774
306.777
306.783
306.828
306.819
306.813
306.808
306.804
306.801
306.799
306.798
306.798
306.799
306.8
306.802
306.805
306.81
306.855
306.847
306.842
306.838
306.834
306.832
306.83
306.829
306.829
306.829
306.83
306.832
306.834
306.839
306.884
306.877
306.873
306.869
306.866
306.863
306.862
306.861
306.86
306.861
306.862
306.863
306.865
306.868
306.912
306.907
306.903
306.9
306.898
306.896
306.894
306.894
306.894
306.894
306.895
306.896
306.898
306.9
306.941
306.938
306.935
306.933
306.931
306.929
306.928
306.928
306.928
306.928
306.929
306.93
306.932
306.933
306.971
306.97
306.968
306.966
306.965
306.964
306.964
306.963
306.964
306.964
306.965
306.966
306.968
306.968
307.002
307.002
307.001
307
307
307
307
307
307.001
307.001
307.002
307.003
307.006
307.004
307.033
307.035
307.035
307.035
307.036
307.036
307.037
307.038
307.039
307.039
307.041
307.042
307.044
307.042
307.067
307.069
307.07
307.071
307.073
307.074
307.075
307.077
307.078
307.079
307.081
307.083
307.085
307.082
307.1
307.103
307.105
307.108
307.11
307.113
307.115
307.116
307.118
307.119
307.121
307.123
307.125
307.121
307.138
307.139
307.143
307.146
307.149
307.152
307.154
307.157
307.159
307.16
307.162
307.165
307.167
307.166
306.755
306.743
306.735
306.726
306.718
306.71
306.703
306.697
306.691
306.686
306.682
306.678
306.674
306.672
306.773
306.761
306.752
306.744
306.736
306.728
306.721
306.714
306.708
306.702
306.697
306.693
306.689
306.687
306.788
306.777
306.769
306.761
306.753
306.746
306.739
306.732
306.725
306.72
306.714
306.709
306.704
306.703
306.806
306.796
306.788
306.78
306.772
306.764
306.757
306.75
306.744
306.737
306.732
306.726
306.721
306.718
306.823
306.814
306.806
306.798
306.791
306.783
306.776
306.769
306.763
306.756
306.75
306.745
306.739
306.735
306.841
306.833
306.826
306.818
306.81
306.803
306.796
306.789
306.782
306.775
306.769
306.763
306.757
306.752
306.859
306.852
306.845
306.838
306.831
306.823
306.816
306.809
306.803
306.796
306.789
306.783
306.777
306.771
306.878
306.872
306.865
306.859
306.852
306.845
306.838
306.831
306.824
306.817
306.81
306.803
306.797
306.79
306.898
306.893
306.886
306.88
306.873
306.867
306.86
306.853
306.846
306.839
306.832
306.825
306.818
306.811
306.919
306.914
306.908
306.902
306.896
306.89
306.883
306.876
306.869
306.861
306.854
306.847
306.84
306.832
306.94
306.937
306.931
306.926
306.919
306.913
306.907
306.9
306.892
306.885
306.877
306.869
306.863
306.854
306.963
306.96
306.954
306.949
306.944
306.938
306.931
306.924
306.917
306.909
306.902
306.893
306.886
306.877
306.987
306.984
306.979
306.974
306.969
306.963
306.956
306.949
306.942
306.934
306.926
306.917
306.91
306.901
307.014
307.008
307.003
306.999
306.993
306.988
306.982
306.975
306.968
306.96
306.952
306.943
306.936
306.928
306.766
306.754
306.745
306.734
306.724
306.714
306.704
306.694
306.685
306.675
306.665
306.656
306.647
306.638
306.774
306.763
306.754
306.744
306.734
306.723
306.713
306.702
306.692
306.682
306.672
306.662
306.653
306.644
306.781
306.77
306.761
306.751
306.741
306.731
306.721
306.71
306.7
306.69
306.68
306.67
306.661
306.651
306.789
306.779
306.77
306.76
306.75
306.74
306.729
306.719
306.709
306.698
306.688
306.678
306.668
306.658
306.797
306.788
306.779
306.769
306.759
306.749
306.738
306.728
306.717
306.706
306.696
306.685
306.675
306.665
306.806
306.797
306.788
306.778
306.769
306.758
306.748
306.737
306.726
306.715
306.704
306.693
306.682
306.671
306.815
306.807
306.798
306.788
306.778
306.768
306.757
306.746
306.735
306.724
306.712
306.701
306.69
306.678
306.824
306.816
306.807
306.798
306.788
306.778
306.767
306.755
306.744
306.732
306.721
306.709
306.697
306.685
306.834
306.826
306.817
306.808
306.798
306.787
306.776
306.765
306.753
306.741
306.729
306.717
306.705
306.692
306.845
306.837
306.828
306.818
306.808
306.797
306.786
306.774
306.762
306.75
306.737
306.725
306.712
306.699
306.855
306.847
306.838
306.829
306.818
306.807
306.796
306.784
306.772
306.759
306.746
306.733
306.72
306.706
306.866
306.858
306.849
306.84
306.829
306.818
306.806
306.794
306.781
306.768
306.755
306.741
306.728
306.713
306.877
306.869
306.86
306.85
306.839
306.828
306.816
306.804
306.791
306.777
306.763
306.749
306.735
306.72
306.889
306.88
306.87
306.86
306.85
306.838
306.826
306.814
306.8
306.787
306.773
306.758
306.744
306.729
306.762
306.751
306.741
306.73
306.719
306.707
306.695
306.683
306.67
306.658
306.646
306.632
306.621
306.607
306.763
306.752
306.742
306.732
306.721
306.709
306.696
306.684
306.671
306.657
306.645
306.631
306.619
306.606
306.762
306.752
306.743
306.732
306.721
306.709
306.697
306.684
306.671
306.658
306.645
306.631
306.618
306.605
306.762
306.753
306.743
306.732
306.721
306.709
306.697
306.684
306.671
306.658
306.644
306.631
306.618
306.604
306.762
306.753
306.743
306.732
306.721
306.709
306.697
306.684
306.67
306.657
306.643
306.629
306.616
306.602
306.761
306.753
306.743
306.732
306.72
306.708
306.696
306.682
306.669
306.655
306.641
306.627
306.613
306.599
306.761
306.752
306.742
306.731
306.72
306.707
306.694
306.681
306.667
306.653
306.639
306.624
306.61
306.595
306.761
306.752
306.741
306.73
306.718
306.706
306.693
306.679
306.665
306.651
306.636
306.621
306.606
306.591
306.76
306.751
306.74
306.729
306.717
306.704
306.691
306.677
306.662
306.647
306.632
306.617
306.602
306.587
306.76
306.75
306.739
306.727
306.715
306.702
306.688
306.674
306.659
306.644
306.628
306.613
306.597
306.582
306.759
306.749
306.738
306.726
306.713
306.699
306.685
306.67
306.655
306.639
306.623
306.608
306.592
306.576
306.758
306.747
306.736
306.723
306.71
306.696
306.682
306.667
306.651
306.635
306.619
306.603
306.586
306.571
306.758
306.746
306.734
306.721
306.707
306.693
306.678
306.662
306.646
306.63
306.613
306.597
306.58
306.564
306.757
306.744
306.731
306.718
306.704
306.689
306.674
306.658
306.642
306.626
306.609
306.593
306.576
306.559
306.725
306.715
306.705
306.694
306.683
306.67
306.657
306.643
306.629
306.614
306.6
306.584
306.57
306.554
306.717
306.708
306.698
306.687
306.676
306.663
306.65
306.636
306.622
306.607
306.592
306.576
306.562
306.546
306.708
306.7
306.69
306.679
306.668
306.655
306.642
306.628
306.614
306.599
306.584
306.568
306.554
306.538
306.699
306.691
306.681
306.671
306.659
306.647
306.633
306.62
306.605
306.59
306.575
306.56
306.545
306.529
306.691
306.682
306.672
306.662
306.65
306.637
306.624
306.61
306.596
306.581
306.566
306.55
306.535
306.519
306.681
306.673
306.663
306.652
306.64
306.627
306.614
306.6
306.585
306.57
306.555
306.539
306.524
306.508
306.672
306.663
306.653
306.642
306.629
306.616
306.603
306.589
306.574
306.559
306.543
306.527
306.512
306.496
306.662
306.653
306.642
306.63
306.618
306.605
306.591
306.576
306.561
306.546
306.531
306.515
306.499
306.483
306.653
306.642
306.631
306.619
306.606
306.593
306.578
306.564
306.548
306.533
306.517
306.501
306.485
306.47
306.642
306.631
306.619
306.607
306.593
306.579
306.565
306.55
306.534
306.519
306.503
306.487
306.47
306.456
306.631
306.619
306.607
306.594
306.581
306.566
306.551
306.536
306.52
306.504
306.488
306.472
306.455
306.441
306.619
306.606
306.594
306.581
306.567
306.552
306.537
306.521
306.505
306.489
306.473
306.457
306.44
306.426
306.608
306.594
306.582
306.568
306.553
306.538
306.522
306.506
306.489
306.473
306.456
306.44
306.423
306.409
306.596
306.581
306.567
306.553
306.538
306.523
306.507
306.491
306.474
306.458
306.441
306.425
306.408
306.394
306.622
306.614
306.604
306.595
306.584
306.573
306.561
306.547
306.534
306.519
306.504
306.489
306.474
306.457
306.606
306.599
306.59
306.581
306.57
306.559
306.546
306.533
306.519
306.504
306.49
306.474
306.459
306.443
306.59
306.584
306.575
306.565
306.555
306.543
306.531
306.518
306.504
306.49
306.475
306.46
306.445
306.429
306.575
306.568
306.559
306.549
306.539
306.527
306.515
306.502
306.488
306.474
306.459
306.444
306.429
306.414
306.559
306.552
306.542
306.533
306.522
306.51
306.498
306.485
306.471
306.457
306.443
306.428
306.413
306.398
306.543
306.535
306.525
306.515
306.504
306.493
306.48
306.467
306.453
306.439
306.425
306.41
306.396
306.381
306.526
306.518
306.508
306.497
306.486
306.474
306.462
306.448
306.435
306.421
306.407
306.392
306.378
306.363
306.509
306.5
306.489
306.479
306.467
306.455
306.442
306.429
306.415
306.402
306.387
306.373
306.359
306.344
306.492
306.482
306.471
306.46
306.448
306.435
306.422
306.409
306.395
306.381
306.367
306.353
306.339
306.325
306.473
306.462
306.452
306.44
306.428
306.415
306.402
306.389
306.375
306.361
306.346
306.333
306.318
306.305
306.455
306.443
306.432
306.42
306.408
306.395
306.381
306.368
306.353
306.339
306.325
306.311
306.297
306.285
306.436
306.423
306.412
306.399
306.386
306.373
306.36
306.346
306.332
306.318
306.304
306.29
306.275
306.264
306.417
306.404
306.392
306.379
306.366
306.352
306.338
306.324
306.31
306.296
306.281
306.267
306.253
306.242
306.396
306.382
306.37
306.357
306.344
306.33
306.316
306.302
306.288
306.274
306.26
306.247
306.233
306.222
306.433
306.427
306.42
306.413
306.405
306.397
306.387
306.377
306.367
306.355
306.344
306.331
306.319
306.305
306.413
306.409
306.402
306.395
306.387
306.378
306.369
306.359
306.348
306.336
306.324
306.312
306.3
306.286
306.394
306.39
306.382
306.375
306.367
306.358
306.349
306.339
306.329
306.318
306.306
306.294
306.282
306.269
306.374
306.37
306.362
306.355
306.347
306.338
306.329
306.319
306.309
306.298
306.286
306.274
306.263
306.25
306.355
306.35
306.342
306.335
306.327
306.318
306.308
306.299
306.288
306.277
306.266
306.255
306.244
306.231
306.335
306.33
306.322
306.314
306.306
306.297
306.287
306.277
306.267
306.256
306.246
306.234
306.223
306.212
306.315
306.309
306.301
306.293
306.284
306.275
306.266
306.256
306.246
306.235
306.224
306.213
306.203
306.192
306.295
306.287
306.279
306.271
306.262
306.253
306.244
306.234
306.224
306.213
306.203
306.192
306.181
306.171
306.274
306.266
306.258
306.249
306.24
306.231
306.221
306.211
306.201
306.191
306.181
306.17
306.16
306.15
306.252
306.243
306.235
306.226
306.217
306.208
306.198
306.189
306.179
306.168
306.158
306.148
306.137
306.129
306.231
306.222
306.213
306.204
306.195
306.185
306.176
306.166
306.156
306.146
306.135
306.125
306.115
306.108
306.209
306.199
306.19
306.181
306.172
306.162
306.152
306.143
306.133
306.123
306.112
306.103
306.093
306.086
306.188
306.177
306.168
306.159
306.149
306.139
306.129
306.119
306.109
306.099
306.089
306.08
306.07
306.064
306.163
306.154
306.144
306.135
306.126
306.116
306.106
306.096
306.086
306.077
306.067
306.058
306.048
306.042
306.163
306.16
306.156
306.153
306.149
306.145
306.14
306.135
306.129
306.123
306.117
306.11
306.102
306.095
306.143
306.142
306.138
306.135
306.131
306.127
306.122
306.117
306.111
306.105
306.098
306.091
306.084
306.075
306.126
306.125
306.12
306.117
306.112
306.108
306.103
306.098
306.092
306.086
306.08
306.073
306.066
306.058
306.107
306.106
306.101
306.098
306.093
306.089
306.084
306.079
306.073
306.067
306.061
306.054
306.048
306.04
306.089
306.087
306.083
306.079
306.074
306.069
306.064
306.059
306.054
306.048
306.042
306.036
306.03
306.022
306.071
306.068
306.063
306.059
306.055
306.05
306.045
306.04
306.034
306.029
306.023
306.017
306.011
306.004
306.052
306.048
306.044
306.04
306.035
306.03
306.025
306.02
306.015
306.01
306.004
305.998
305.992
305.986
306.033
306.028
306.024
306.02
306.015
306.01
306.005
306
305.995
305.99
305.984
305.979
305.973
305.967
306.013
306.008
306.004
306
305.995
305.99
305.986
305.981
305.975
305.97
305.965
305.959
305.954
305.949
305.994
305.988
305.984
305.98
305.975
305.97
305.965
305.961
305.955
305.95
305.945
305.94
305.935
305.931
305.974
305.968
305.964
305.959
305.955
305.95
305.945
305.941
305.935
305.93
305.925
305.921
305.915
305.913
305.954
305.948
305.944
305.939
305.935
305.93
305.925
305.92
305.915
305.91
305.905
305.901
305.896
305.894
305.935
305.929
305.924
305.919
305.915
305.91
305.905
305.9
305.895
305.891
305.886
305.881
305.877
305.877
305.913
305.908
305.903
305.899
305.894
305.89
305.885
305.88
305.876
305.871
305.866
305.862
305.858
305.857
305.839
305.839
305.838
305.838
305.839
305.839
305.839
305.839
305.839
305.838
305.838
305.837
305.836
305.835
305.824
305.825
305.825
305.825
305.825
305.825
305.825
305.825
305.825
305.825
305.824
305.823
305.821
305.819
305.812
305.812
305.812
305.812
305.811
305.812
305.811
305.811
305.811
305.811
305.81
305.809
305.808
305.805
305.798
305.799
305.798
305.798
305.798
305.798
305.798
305.798
305.797
305.797
305.796
305.795
305.794
305.791
305.785
305.785
305.785
305.784
305.784
305.784
305.784
305.784
305.783
305.783
305.782
305.781
305.78
305.778
305.771
305.771
305.771
305.771
305.77
305.77
305.77
305.77
305.77
305.769
305.769
305.768
305.767
305.765
305.757
305.757
305.757
305.756
305.756
305.756
305.756
305.756
305.756
305.755
305.755
305.754
305.753
305.752
305.743
305.742
305.742
305.742
305.742
305.742
305.742
305.742
305.742
305.742
305.741
305.741
305.74
305.739
305.728
305.728
305.728
305.728
305.728
305.728
305.728
305.728
305.728
305.728
305.728
305.727
305.727
305.727
305.714
305.713
305.713
305.714
305.714
305.714
305.714
305.714
305.714
305.714
305.714
305.714
305.713
305.714
305.7
305.699
305.699
305.699
305.699
305.7
305.7
305.7
305.7
305.7
305.7
305.7
305.7
305.701
305.686
305.684
305.685
305.685
305.685
305.686
305.686
305.686
305.686
305.686
305.687
305.687
305.686
305.688
305.673
305.67
305.671
305.671
305.671
305.671
305.672
305.672
305.672
305.673
305.673
305.673
305.673
305.676
305.658
305.657
305.657
305.657
305.657
305.657
305.658
305.658
305.659
305.659
305.66
305.66
305.661
305.662
305.489
305.491
305.494
305.497
305.501
305.504
305.508
305.512
305.515
305.519
305.523
305.527
305.531
305.535
305.482
305.485
305.488
305.491
305.494
305.498
305.501
305.505
305.509
305.513
305.516
305.52
305.523
305.526
305.475
305.478
305.481
305.484
305.487
305.491
305.494
305.498
305.502
305.506
305.509
305.513
305.516
305.519
305.468
305.472
305.474
305.478
305.481
305.484
305.488
305.491
305.495
305.499
305.502
305.506
305.509
305.512
305.462
305.465
305.467
305.471
305.474
305.477
305.481
305.485
305.488
305.492
305.495
305.499
305.502
305.505
305.454
305.458
305.461
305.464
305.467
305.471
305.474
305.478
305.481
305.485
305.488
305.492
305.495
305.498
305.447
305.45
305.453
305.457
305.46
305.464
305.467
305.471
305.475
305.478
305.482
305.485
305.489
305.492
305.44
305.443
305.446
305.45
305.453
305.457
305.461
305.464
305.468
305.471
305.475
305.478
305.482
305.485
305.433
305.436
305.439
305.443
305.446
305.45
305.454
305.457
305.461
305.465
305.468
305.472
305.475
305.479
305.425
305.428
305.432
305.436
305.439
305.443
305.447
305.451
305.454
305.458
305.462
305.466
305.469
305.473
305.418
305.421
305.425
305.429
305.432
305.436
305.44
305.444
305.448
305.452
305.455
305.459
305.463
305.467
305.411
305.414
305.418
305.422
305.425
305.429
305.433
305.437
305.441
305.445
305.449
305.453
305.457
305.461
305.404
305.407
305.411
305.415
305.418
305.422
305.426
305.431
305.435
305.439
305.443
305.447
305.451
305.456
305.398
305.401
305.404
305.408
305.412
305.416
305.42
305.424
305.428
305.432
305.436
305.441
305.445
305.45
305.135
305.14
305.144
305.148
305.153
305.158
305.163
305.169
305.175
305.181
305.187
305.193
305.134
305.139
305.143
305.148
305.153
305.158
305.163
305.169
305.174
305.18
305.187
305.193
305.134
305.138
305.142
305.147
305.152
305.157
305.163
305.168
305.174
305.18
305.186
305.192
305.133
305.137
305.142
305.147
305.152
305.157
305.162
305.168
305.174
305.179
305.185
305.191
305.132
305.137
305.141
305.146
305.151
305.157
305.162
305.168
305.173
305.179
305.184
305.19
305.131
305.136
305.141
305.146
305.151
305.156
305.162
305.167
305.173
305.178
305.184
305.19
305.131
305.135
305.14
305.145
305.151
305.156
305.161
305.167
305.172
305.178
305.184
305.189
305.13
305.135
305.14
305.145
305.15
305.155
305.161
305.166
305.172
305.178
305.183
305.189
305.129
305.134
305.139
305.144
305.15
305.155
305.161
305.166
305.172
305.177
305.183
305.189
305.129
305.134
305.139
305.144
305.149
305.155
305.16
305.166
305.172
305.177
305.183
305.189
305.128
305.133
305.138
305.143
305.149
305.154
305.16
305.166
305.171
305.177
305.183
305.189
305.128
305.133
305.138
305.143
305.149
305.154
305.16
305.166
305.171
305.177
305.183
305.189
305.127
305.132
305.137
305.143
305.148
305.154
305.16
305.166
305.172
305.178
305.184
305.19
305.127
305.133
305.138
305.143
305.148
305.154
305.16
305.166
305.171
305.177
305.183
305.189
308.551
308.562
308.573
308.584
308.593
308.602
308.549
308.564
308.578
308.591
308.602
308.612
308.553
308.57
308.586
308.599
308.61
308.619
308.557
308.575
308.591
308.605
308.616
308.624
308.441
308.44
308.444
308.448
308.452
308.456
308.454
308.457
308.462
308.468
308.473
308.479
308.466
308.471
308.477
308.483
308.489
308.494
308.476
308.483
308.489
308.494
308.499
308.502
308.485
308.492
308.498
308.501
308.504
308.504
308.493
308.5
308.504
308.506
308.506
308.502
308.501
308.507
308.51
308.51
308.507
308.501
308.273
308.261
308.253
308.244
308.238
308.231
308.3
308.29
308.283
308.277
308.274
308.271
308.321
308.313
308.307
308.302
308.3
308.299
308.341
308.334
308.328
308.322
308.319
308.316