/*--------------------------------*- C++ -*----------------------------------*\
| =========                 |                                                 |
| \\      /  F ield         | OpenFOAM: The Open Source CFD Toolbox           |
|  \\    /   O peration     | Version:  v2106                                 |
|   \\  /    A nd           | Website:  www.openfoam.com                      |
|    \\/     M anipulation  |                                                 |
\*---------------------------------------------------------------------------*/
FoamFile
{
    version     2.0;
    format      ascii;
    arch        "LSB;label=32;scalar=64";
    class       volScalarField;
    location    "0.000164";
    object      epsilon;
}
// * * * * * * * * * * * * * * * * * * * * * * * * * * * * * * * * * * * * * //

dimensions      [0 2 -3 0 0 0 0];

internalField   nonuniform List<scalar> 
17924
(
1.8248e-08
1.82457e-08
1.82431e-08
1.82408e-08
1.82237e-08
1.82216e-08
1.82194e-08
1.82177e-08
1.82161e-08
1.82148e-08
1.82138e-08
1.82184e-08
1.82167e-08
1.82144e-08
1.82126e-08
1.8211e-08
1.82097e-08
1.82085e-08
1.8213e-08
1.82112e-08
1.82089e-08
1.82072e-08
1.82056e-08
1.82043e-08
1.82032e-08
1.82075e-08
1.82057e-08
1.82035e-08
1.82018e-08
1.82003e-08
1.8199e-08
1.81979e-08
1.8202e-08
1.82001e-08
1.8198e-08
1.81964e-08
1.81949e-08
1.81936e-08
1.81925e-08
1.81964e-08
1.81945e-08
1.81926e-08
1.8191e-08
1.81895e-08
1.81883e-08
1.81873e-08
1.8191e-08
1.81891e-08
1.81872e-08
1.81857e-08
1.81843e-08
1.81831e-08
1.81821e-08
1.81856e-08
1.81836e-08
1.81819e-08
1.81804e-08
1.81791e-08
1.8178e-08
1.81771e-08
1.81803e-08
1.81783e-08
1.81767e-08
1.81753e-08
1.8174e-08
1.8173e-08
1.81722e-08
1.81751e-08
1.81731e-08
1.81716e-08
1.81703e-08
1.81692e-08
1.81682e-08
1.81675e-08
1.81703e-08
1.81681e-08
1.81668e-08
1.81655e-08
1.81645e-08
1.81637e-08
1.81631e-08
1.81652e-08
1.81632e-08
1.81621e-08
1.81609e-08
1.816e-08
1.81593e-08
1.81588e-08
1.81605e-08
1.81588e-08
1.81578e-08
1.81566e-08
1.81558e-08
1.81552e-08
1.81547e-08
1.81554e-08
1.81541e-08
1.81531e-08
1.81522e-08
1.81516e-08
1.81512e-08
1.81509e-08
1.81961e-08
1.81952e-08
1.81942e-08
1.81936e-08
1.8193e-08
1.81927e-08
1.81925e-08
1.81925e-08
1.81927e-08
1.81931e-08
1.81937e-08
1.81944e-08
1.81957e-08
1.81965e-08
1.8191e-08
1.81907e-08
1.81899e-08
1.81893e-08
1.81887e-08
1.81884e-08
1.81882e-08
1.81882e-08
1.81885e-08
1.81889e-08
1.81895e-08
1.81902e-08
1.81913e-08
1.81919e-08
1.81865e-08
1.81862e-08
1.81853e-08
1.81848e-08
1.81843e-08
1.8184e-08
1.81839e-08
1.8184e-08
1.81843e-08
1.81848e-08
1.81854e-08
1.81861e-08
1.81872e-08
1.81877e-08
1.8182e-08
1.81816e-08
1.81809e-08
1.81804e-08
1.81799e-08
1.81798e-08
1.81797e-08
1.81798e-08
1.81802e-08
1.81806e-08
1.81813e-08
1.81819e-08
1.8183e-08
1.81834e-08
1.81776e-08
1.81771e-08
1.81764e-08
1.8176e-08
1.81756e-08
1.81755e-08
1.81755e-08
1.81757e-08
1.81761e-08
1.81766e-08
1.81773e-08
1.8178e-08
1.81789e-08
1.81795e-08
1.81732e-08
1.81727e-08
1.81721e-08
1.81718e-08
1.81715e-08
1.81714e-08
1.81715e-08
1.81717e-08
1.81721e-08
1.81726e-08
1.81733e-08
1.8174e-08
1.81749e-08
1.81756e-08
1.8169e-08
1.81685e-08
1.8168e-08
1.81677e-08
1.81675e-08
1.81675e-08
1.81676e-08
1.81679e-08
1.81683e-08
1.81688e-08
1.81695e-08
1.81703e-08
1.8171e-08
1.81719e-08
1.8165e-08
1.81644e-08
1.8164e-08
1.81637e-08
1.81636e-08
1.81636e-08
1.81638e-08
1.81641e-08
1.81646e-08
1.81651e-08
1.81658e-08
1.81666e-08
1.81673e-08
1.81682e-08
1.81611e-08
1.81605e-08
1.81602e-08
1.816e-08
1.81599e-08
1.816e-08
1.81602e-08
1.81605e-08
1.8161e-08
1.81616e-08
1.81623e-08
1.81631e-08
1.81638e-08
1.81648e-08
1.81573e-08
1.81567e-08
1.81565e-08
1.81563e-08
1.81563e-08
1.81564e-08
1.81567e-08
1.81571e-08
1.81576e-08
1.81582e-08
1.81589e-08
1.81597e-08
1.81604e-08
1.81615e-08
1.81539e-08
1.81531e-08
1.81529e-08
1.81528e-08
1.81529e-08
1.81531e-08
1.81534e-08
1.81539e-08
1.81544e-08
1.8155e-08
1.81557e-08
1.81566e-08
1.81573e-08
1.81585e-08
1.81504e-08
1.81496e-08
1.81496e-08
1.81495e-08
1.81496e-08
1.81499e-08
1.81503e-08
1.81508e-08
1.81514e-08
1.8152e-08
1.81527e-08
1.81536e-08
1.81543e-08
1.81554e-08
1.81471e-08
1.81464e-08
1.81465e-08
1.81464e-08
1.81466e-08
1.81469e-08
1.81474e-08
1.81479e-08
1.81486e-08
1.81493e-08
1.815e-08
1.81509e-08
1.81517e-08
1.81528e-08
1.81437e-08
1.81431e-08
1.81432e-08
1.81434e-08
1.81437e-08
1.81441e-08
1.81447e-08
1.81453e-08
1.8146e-08
1.81467e-08
1.81475e-08
1.81483e-08
1.81491e-08
1.81499e-08
1.81662e-08
1.81668e-08
1.81672e-08
1.81678e-08
1.81684e-08
1.81691e-08
1.81698e-08
1.81706e-08
1.81714e-08
1.81723e-08
1.81734e-08
1.81745e-08
1.81759e-08
1.81771e-08
1.81632e-08
1.81639e-08
1.81644e-08
1.81651e-08
1.81657e-08
1.81665e-08
1.81672e-08
1.8168e-08
1.81689e-08
1.81699e-08
1.8171e-08
1.81722e-08
1.81734e-08
1.81744e-08
1.81604e-08
1.81612e-08
1.81616e-08
1.81624e-08
1.8163e-08
1.81638e-08
1.81646e-08
1.81655e-08
1.81664e-08
1.81675e-08
1.81686e-08
1.81698e-08
1.81711e-08
1.81722e-08
1.81576e-08
1.81585e-08
1.8159e-08
1.81598e-08
1.81604e-08
1.81612e-08
1.8162e-08
1.81629e-08
1.81639e-08
1.8165e-08
1.81662e-08
1.81673e-08
1.81687e-08
1.81697e-08
1.81549e-08
1.81558e-08
1.81563e-08
1.81571e-08
1.81578e-08
1.81586e-08
1.81594e-08
1.81604e-08
1.81614e-08
1.81625e-08
1.81637e-08
1.8165e-08
1.81663e-08
1.81675e-08
1.81523e-08
1.81531e-08
1.81537e-08
1.81545e-08
1.81552e-08
1.81561e-08
1.81569e-08
1.81579e-08
1.81589e-08
1.81601e-08
1.81613e-08
1.81625e-08
1.81638e-08
1.81651e-08
1.81498e-08
1.81505e-08
1.81512e-08
1.81519e-08
1.81527e-08
1.81536e-08
1.81545e-08
1.81555e-08
1.81566e-08
1.81577e-08
1.81589e-08
1.81602e-08
1.81614e-08
1.81627e-08
1.81473e-08
1.8148e-08
1.81487e-08
1.81495e-08
1.81504e-08
1.81512e-08
1.81522e-08
1.81532e-08
1.81543e-08
1.81554e-08
1.81566e-08
1.81578e-08
1.8159e-08
1.81604e-08
1.81449e-08
1.81456e-08
1.81464e-08
1.81472e-08
1.81481e-08
1.8149e-08
1.81499e-08
1.81509e-08
1.8152e-08
1.81531e-08
1.81543e-08
1.81556e-08
1.81567e-08
1.81581e-08
1.81427e-08
1.81433e-08
1.81441e-08
1.8145e-08
1.81459e-08
1.81468e-08
1.81478e-08
1.81488e-08
1.81498e-08
1.81509e-08
1.81521e-08
1.81533e-08
1.81544e-08
1.81559e-08
1.81406e-08
1.81411e-08
1.8142e-08
1.81428e-08
1.81437e-08
1.81447e-08
1.81457e-08
1.81467e-08
1.81477e-08
1.81488e-08
1.815e-08
1.81512e-08
1.81523e-08
1.81537e-08
1.81385e-08
1.8139e-08
1.81399e-08
1.81407e-08
1.81417e-08
1.81426e-08
1.81436e-08
1.81446e-08
1.81457e-08
1.81468e-08
1.81479e-08
1.81491e-08
1.81502e-08
1.81516e-08
1.81365e-08
1.81371e-08
1.8138e-08
1.81388e-08
1.81398e-08
1.81407e-08
1.81417e-08
1.81428e-08
1.81438e-08
1.81449e-08
1.8146e-08
1.81472e-08
1.81484e-08
1.81496e-08
1.81345e-08
1.81351e-08
1.8136e-08
1.81369e-08
1.81379e-08
1.81389e-08
1.81399e-08
1.8141e-08
1.81421e-08
1.81431e-08
1.81442e-08
1.81453e-08
1.81463e-08
1.81474e-08
1.81331e-08
1.81349e-08
1.81364e-08
1.8138e-08
1.81395e-08
1.81409e-08
1.81422e-08
1.81435e-08
1.81448e-08
1.8146e-08
1.81473e-08
1.81486e-08
1.81499e-08
1.81509e-08
1.81323e-08
1.81341e-08
1.81357e-08
1.81373e-08
1.81388e-08
1.81402e-08
1.81416e-08
1.81429e-08
1.81443e-08
1.81455e-08
1.81469e-08
1.81482e-08
1.81495e-08
1.81507e-08
1.81315e-08
1.81334e-08
1.81349e-08
1.81365e-08
1.8138e-08
1.81394e-08
1.81408e-08
1.81422e-08
1.81436e-08
1.81449e-08
1.81463e-08
1.81476e-08
1.81491e-08
1.81503e-08
1.81307e-08
1.81325e-08
1.81341e-08
1.81357e-08
1.81372e-08
1.81386e-08
1.81401e-08
1.81415e-08
1.81429e-08
1.81443e-08
1.81457e-08
1.8147e-08
1.81485e-08
1.81498e-08
1.813e-08
1.81317e-08
1.81333e-08
1.81349e-08
1.81364e-08
1.81378e-08
1.81393e-08
1.81407e-08
1.81421e-08
1.81436e-08
1.8145e-08
1.81464e-08
1.81478e-08
1.81492e-08
1.81291e-08
1.81308e-08
1.81324e-08
1.8134e-08
1.81355e-08
1.8137e-08
1.81385e-08
1.81399e-08
1.81414e-08
1.81428e-08
1.81442e-08
1.81457e-08
1.81471e-08
1.81485e-08
1.81283e-08
1.813e-08
1.81316e-08
1.81332e-08
1.81347e-08
1.81362e-08
1.81377e-08
1.81391e-08
1.81405e-08
1.8142e-08
1.81434e-08
1.81448e-08
1.81462e-08
1.81476e-08
1.81274e-08
1.81291e-08
1.81307e-08
1.81323e-08
1.81338e-08
1.81353e-08
1.81368e-08
1.81383e-08
1.81397e-08
1.81411e-08
1.81425e-08
1.81439e-08
1.81453e-08
1.81468e-08
1.81266e-08
1.81282e-08
1.81298e-08
1.81314e-08
1.81329e-08
1.81344e-08
1.81359e-08
1.81373e-08
1.81388e-08
1.81402e-08
1.81415e-08
1.8143e-08
1.81443e-08
1.81458e-08
1.81258e-08
1.81273e-08
1.81289e-08
1.81305e-08
1.8132e-08
1.81335e-08
1.8135e-08
1.81364e-08
1.81378e-08
1.81391e-08
1.81405e-08
1.81419e-08
1.81432e-08
1.81447e-08
1.8125e-08
1.81265e-08
1.81281e-08
1.81296e-08
1.81311e-08
1.81326e-08
1.8134e-08
1.81354e-08
1.81368e-08
1.81381e-08
1.81395e-08
1.81409e-08
1.81422e-08
1.81437e-08
1.81242e-08
1.81257e-08
1.81273e-08
1.81288e-08
1.81302e-08
1.81317e-08
1.8133e-08
1.81344e-08
1.81358e-08
1.81371e-08
1.81384e-08
1.81398e-08
1.8141e-08
1.81425e-08
1.81235e-08
1.8125e-08
1.81266e-08
1.8128e-08
1.81294e-08
1.81308e-08
1.81322e-08
1.81335e-08
1.81348e-08
1.81361e-08
1.81374e-08
1.81388e-08
1.81401e-08
1.81414e-08
1.81228e-08
1.81242e-08
1.81258e-08
1.81272e-08
1.81286e-08
1.813e-08
1.81313e-08
1.81326e-08
1.81339e-08
1.81352e-08
1.81364e-08
1.81376e-08
1.81388e-08
1.814e-08
1.80951e-08
1.80972e-08
1.80992e-08
1.81011e-08
1.8103e-08
1.81047e-08
1.81064e-08
1.81079e-08
1.81094e-08
1.81107e-08
1.8112e-08
1.81132e-08
1.81144e-08
1.81156e-08
1.80958e-08
1.80979e-08
1.81e-08
1.8102e-08
1.81039e-08
1.81057e-08
1.81074e-08
1.8109e-08
1.81105e-08
1.8112e-08
1.81133e-08
1.81145e-08
1.81158e-08
1.8117e-08
1.80969e-08
1.8099e-08
1.8101e-08
1.8103e-08
1.8105e-08
1.81068e-08
1.81085e-08
1.81101e-08
1.81116e-08
1.8113e-08
1.81144e-08
1.81157e-08
1.8117e-08
1.81181e-08
1.80977e-08
1.80998e-08
1.81019e-08
1.81039e-08
1.81058e-08
1.81077e-08
1.81094e-08
1.8111e-08
1.81126e-08
1.81141e-08
1.81155e-08
1.81168e-08
1.81181e-08
1.81194e-08
1.80986e-08
1.81007e-08
1.81028e-08
1.81048e-08
1.81067e-08
1.81085e-08
1.81103e-08
1.81119e-08
1.81135e-08
1.8115e-08
1.81164e-08
1.81177e-08
1.8119e-08
1.81203e-08
1.80993e-08
1.81014e-08
1.81035e-08
1.81055e-08
1.81074e-08
1.81093e-08
1.8111e-08
1.81127e-08
1.81143e-08
1.81158e-08
1.81172e-08
1.81186e-08
1.81199e-08
1.81212e-08
1.80999e-08
1.81021e-08
1.81042e-08
1.81062e-08
1.81081e-08
1.81099e-08
1.81117e-08
1.81134e-08
1.81149e-08
1.81164e-08
1.81179e-08
1.81192e-08
1.81205e-08
1.81218e-08
1.81005e-08
1.81026e-08
1.81047e-08
1.81067e-08
1.81086e-08
1.81105e-08
1.81122e-08
1.81139e-08
1.81155e-08
1.8117e-08
1.81184e-08
1.81198e-08
1.81211e-08
1.81224e-08
1.8101e-08
1.81032e-08
1.81052e-08
1.81072e-08
1.81091e-08
1.81109e-08
1.81126e-08
1.81143e-08
1.81158e-08
1.81173e-08
1.81187e-08
1.81201e-08
1.81214e-08
1.81228e-08
1.81015e-08
1.81036e-08
1.81056e-08
1.81076e-08
1.81094e-08
1.81112e-08
1.81129e-08
1.81145e-08
1.81161e-08
1.81175e-08
1.8119e-08
1.81203e-08
1.81216e-08
1.8123e-08
1.81021e-08
1.81041e-08
1.8106e-08
1.81079e-08
1.81097e-08
1.81115e-08
1.81132e-08
1.81147e-08
1.81162e-08
1.81177e-08
1.81191e-08
1.81204e-08
1.81218e-08
1.81232e-08
1.81024e-08
1.81044e-08
1.81063e-08
1.81082e-08
1.811e-08
1.81117e-08
1.81133e-08
1.81149e-08
1.81164e-08
1.81178e-08
1.81191e-08
1.81205e-08
1.81218e-08
1.81231e-08
1.81029e-08
1.81049e-08
1.81067e-08
1.81086e-08
1.81103e-08
1.81119e-08
1.81135e-08
1.8115e-08
1.81164e-08
1.81178e-08
1.81191e-08
1.81204e-08
1.81217e-08
1.8123e-08
1.81033e-08
1.81052e-08
1.81071e-08
1.81089e-08
1.81105e-08
1.81121e-08
1.81136e-08
1.81151e-08
1.81164e-08
1.81177e-08
1.8119e-08
1.81202e-08
1.81214e-08
1.81227e-08
1.80528e-08
1.80545e-08
1.80563e-08
1.8058e-08
1.80597e-08
1.80613e-08
1.80629e-08
1.80643e-08
1.80656e-08
1.80668e-08
1.8068e-08
1.80691e-08
1.80701e-08
1.80712e-08
1.80544e-08
1.80561e-08
1.8058e-08
1.80598e-08
1.80616e-08
1.80633e-08
1.80649e-08
1.80664e-08
1.80678e-08
1.80691e-08
1.80702e-08
1.80713e-08
1.80724e-08
1.80735e-08
1.80564e-08
1.80581e-08
1.80601e-08
1.80619e-08
1.80637e-08
1.80654e-08
1.8067e-08
1.80685e-08
1.80699e-08
1.80712e-08
1.80724e-08
1.80735e-08
1.80745e-08
1.80756e-08
1.80582e-08
1.806e-08
1.8062e-08
1.80638e-08
1.80656e-08
1.80674e-08
1.8069e-08
1.80705e-08
1.8072e-08
1.80733e-08
1.80745e-08
1.80756e-08
1.80767e-08
1.80778e-08
1.806e-08
1.80619e-08
1.80639e-08
1.80657e-08
1.80676e-08
1.80693e-08
1.8071e-08
1.80725e-08
1.80739e-08
1.80752e-08
1.80765e-08
1.80776e-08
1.80787e-08
1.80798e-08
1.80617e-08
1.80637e-08
1.80656e-08
1.80675e-08
1.80694e-08
1.80711e-08
1.80728e-08
1.80743e-08
1.80758e-08
1.80771e-08
1.80784e-08
1.80796e-08
1.80807e-08
1.80817e-08
1.80633e-08
1.80654e-08
1.80674e-08
1.80693e-08
1.80711e-08
1.80728e-08
1.80745e-08
1.80761e-08
1.80775e-08
1.80789e-08
1.80801e-08
1.80813e-08
1.80824e-08
1.80834e-08
1.80649e-08
1.8067e-08
1.80689e-08
1.80709e-08
1.80727e-08
1.80744e-08
1.80761e-08
1.80776e-08
1.80791e-08
1.80805e-08
1.80817e-08
1.80829e-08
1.8084e-08
1.80851e-08
1.80665e-08
1.80685e-08
1.80705e-08
1.80724e-08
1.80742e-08
1.80759e-08
1.80776e-08
1.80791e-08
1.80805e-08
1.80819e-08
1.80832e-08
1.80843e-08
1.80855e-08
1.80865e-08
1.8068e-08
1.807e-08
1.80719e-08
1.80738e-08
1.80756e-08
1.80773e-08
1.80789e-08
1.80804e-08
1.80819e-08
1.80832e-08
1.80844e-08
1.80856e-08
1.80868e-08
1.80879e-08
1.80694e-08
1.80714e-08
1.80733e-08
1.80751e-08
1.80769e-08
1.80786e-08
1.80802e-08
1.80817e-08
1.80831e-08
1.80844e-08
1.80856e-08
1.80868e-08
1.8088e-08
1.80891e-08
1.80708e-08
1.80727e-08
1.80746e-08
1.80764e-08
1.80782e-08
1.80798e-08
1.80814e-08
1.80828e-08
1.80842e-08
1.80855e-08
1.80867e-08
1.80879e-08
1.8089e-08
1.80901e-08
1.80722e-08
1.80741e-08
1.80759e-08
1.80777e-08
1.80793e-08
1.80809e-08
1.80824e-08
1.80839e-08
1.80852e-08
1.80864e-08
1.80876e-08
1.80888e-08
1.80899e-08
1.80911e-08
1.80735e-08
1.80754e-08
1.80771e-08
1.80789e-08
1.80805e-08
1.8082e-08
1.80835e-08
1.80848e-08
1.80861e-08
1.80873e-08
1.80884e-08
1.80896e-08
1.80907e-08
1.80918e-08
1.80098e-08
1.80108e-08
1.8012e-08
1.80132e-08
1.80144e-08
1.80155e-08
1.80166e-08
1.80176e-08
1.80186e-08
1.80195e-08
1.80203e-08
1.80212e-08
1.8022e-08
1.80228e-08
1.80116e-08
1.80127e-08
1.8014e-08
1.80152e-08
1.80164e-08
1.80176e-08
1.80187e-08
1.80198e-08
1.80208e-08
1.80217e-08
1.80226e-08
1.80235e-08
1.80243e-08
1.80252e-08
1.80136e-08
1.80147e-08
1.80161e-08
1.80173e-08
1.80186e-08
1.80198e-08
1.80209e-08
1.8022e-08
1.8023e-08
1.80239e-08
1.80248e-08
1.80257e-08
1.80265e-08
1.80273e-08
1.80156e-08
1.80168e-08
1.80181e-08
1.80194e-08
1.80207e-08
1.80219e-08
1.80231e-08
1.80242e-08
1.80252e-08
1.80262e-08
1.80271e-08
1.8028e-08
1.80288e-08
1.80295e-08
1.80176e-08
1.80188e-08
1.80202e-08
1.80215e-08
1.80228e-08
1.80241e-08
1.80253e-08
1.80264e-08
1.80274e-08
1.80284e-08
1.80293e-08
1.80302e-08
1.8031e-08
1.80317e-08
1.80196e-08
1.80209e-08
1.80223e-08
1.80236e-08
1.80249e-08
1.80262e-08
1.80274e-08
1.80285e-08
1.80296e-08
1.80306e-08
1.80315e-08
1.80323e-08
1.80332e-08
1.80339e-08
1.80215e-08
1.80229e-08
1.80243e-08
1.80257e-08
1.8027e-08
1.80282e-08
1.80294e-08
1.80306e-08
1.80316e-08
1.80326e-08
1.80336e-08
1.80344e-08
1.80352e-08
1.8036e-08
1.80235e-08
1.80249e-08
1.80263e-08
1.80277e-08
1.8029e-08
1.80302e-08
1.80314e-08
1.80326e-08
1.80336e-08
1.80346e-08
1.80356e-08
1.80364e-08
1.80373e-08
1.8038e-08
1.80254e-08
1.80269e-08
1.80282e-08
1.80296e-08
1.80309e-08
1.80322e-08
1.80334e-08
1.80345e-08
1.80356e-08
1.80366e-08
1.80375e-08
1.80384e-08
1.80392e-08
1.80399e-08
1.80273e-08
1.80288e-08
1.80301e-08
1.80315e-08
1.80328e-08
1.80341e-08
1.80352e-08
1.80364e-08
1.80374e-08
1.80384e-08
1.80393e-08
1.80402e-08
1.8041e-08
1.80418e-08
1.80292e-08
1.80306e-08
1.8032e-08
1.80334e-08
1.80346e-08
1.80359e-08
1.8037e-08
1.80381e-08
1.80392e-08
1.80402e-08
1.80411e-08
1.80419e-08
1.80428e-08
1.80435e-08
1.8031e-08
1.80325e-08
1.80338e-08
1.80351e-08
1.80364e-08
1.80376e-08
1.80388e-08
1.80398e-08
1.80409e-08
1.80418e-08
1.80427e-08
1.80436e-08
1.80444e-08
1.80452e-08
1.80328e-08
1.80342e-08
1.80355e-08
1.80368e-08
1.8038e-08
1.80392e-08
1.80404e-08
1.80414e-08
1.80424e-08
1.80434e-08
1.80443e-08
1.80451e-08
1.8046e-08
1.80468e-08
1.80345e-08
1.80359e-08
1.80372e-08
1.80385e-08
1.80397e-08
1.80408e-08
1.80419e-08
1.80429e-08
1.80439e-08
1.80448e-08
1.80456e-08
1.80465e-08
1.80473e-08
1.80482e-08
1.79697e-08
1.797e-08
1.79706e-08
1.79712e-08
1.79717e-08
1.79723e-08
1.79728e-08
1.79734e-08
1.79739e-08
1.79744e-08
1.79749e-08
1.79753e-08
1.79758e-08
1.79764e-08
1.79711e-08
1.79715e-08
1.79721e-08
1.79727e-08
1.79733e-08
1.79739e-08
1.79744e-08
1.7975e-08
1.79755e-08
1.7976e-08
1.79765e-08
1.7977e-08
1.79775e-08
1.79781e-08
1.79726e-08
1.79731e-08
1.79738e-08
1.79744e-08
1.79749e-08
1.79755e-08
1.79761e-08
1.79766e-08
1.79772e-08
1.79777e-08
1.79782e-08
1.79787e-08
1.79791e-08
1.79797e-08
1.79742e-08
1.79747e-08
1.79754e-08
1.7976e-08
1.79766e-08
1.79772e-08
1.79778e-08
1.79783e-08
1.79789e-08
1.79794e-08
1.79799e-08
1.79804e-08
1.79808e-08
1.79814e-08
1.79759e-08
1.79764e-08
1.79771e-08
1.79777e-08
1.79783e-08
1.79789e-08
1.79795e-08
1.798e-08
1.79806e-08
1.79811e-08
1.79816e-08
1.79821e-08
1.79826e-08
1.7983e-08
1.79775e-08
1.79781e-08
1.79788e-08
1.79794e-08
1.798e-08
1.79806e-08
1.79812e-08
1.79817e-08
1.79823e-08
1.79828e-08
1.79834e-08
1.79838e-08
1.79843e-08
1.79847e-08
1.79792e-08
1.79798e-08
1.79805e-08
1.79811e-08
1.79817e-08
1.79823e-08
1.79829e-08
1.79835e-08
1.7984e-08
1.79846e-08
1.79851e-08
1.79856e-08
1.7986e-08
1.79864e-08
1.79809e-08
1.79815e-08
1.79822e-08
1.79828e-08
1.79834e-08
1.7984e-08
1.79846e-08
1.79852e-08
1.79858e-08
1.79863e-08
1.79868e-08
1.79873e-08
1.79877e-08
1.79881e-08
1.79825e-08
1.79833e-08
1.79839e-08
1.79845e-08
1.79852e-08
1.79858e-08
1.79863e-08
1.79869e-08
1.79875e-08
1.7988e-08
1.79885e-08
1.7989e-08
1.79894e-08
1.79898e-08
1.79842e-08
1.7985e-08
1.79856e-08
1.79862e-08
1.79869e-08
1.79875e-08
1.79881e-08
1.79886e-08
1.79892e-08
1.79897e-08
1.79902e-08
1.79907e-08
1.79911e-08
1.79914e-08
1.79859e-08
1.79866e-08
1.79872e-08
1.79879e-08
1.79885e-08
1.79891e-08
1.79897e-08
1.79903e-08
1.79909e-08
1.79914e-08
1.79919e-08
1.79923e-08
1.79928e-08
1.79931e-08
1.79875e-08
1.79883e-08
1.79889e-08
1.79895e-08
1.79901e-08
1.79908e-08
1.79914e-08
1.79919e-08
1.79925e-08
1.7993e-08
1.79935e-08
1.79939e-08
1.79944e-08
1.79947e-08
1.79891e-08
1.79899e-08
1.79904e-08
1.79911e-08
1.79917e-08
1.79923e-08
1.79929e-08
1.79935e-08
1.7994e-08
1.79946e-08
1.7995e-08
1.79955e-08
1.79959e-08
1.79963e-08
1.79908e-08
1.79914e-08
1.7992e-08
1.79926e-08
1.79932e-08
1.79938e-08
1.79944e-08
1.79949e-08
1.79955e-08
1.7996e-08
1.79964e-08
1.79969e-08
1.79974e-08
1.79979e-08
1.79329e-08
1.7933e-08
1.79331e-08
1.79332e-08
1.79333e-08
1.79334e-08
1.79336e-08
1.79337e-08
1.79338e-08
1.79339e-08
1.79341e-08
1.79342e-08
1.79343e-08
1.79345e-08
1.79339e-08
1.79339e-08
1.7934e-08
1.79341e-08
1.79343e-08
1.79344e-08
1.79345e-08
1.79346e-08
1.79348e-08
1.79349e-08
1.7935e-08
1.79352e-08
1.79353e-08
1.79355e-08
1.79349e-08
1.79349e-08
1.7935e-08
1.79351e-08
1.79352e-08
1.79354e-08
1.79355e-08
1.79356e-08
1.79357e-08
1.79358e-08
1.7936e-08
1.79361e-08
1.79362e-08
1.79364e-08
1.79359e-08
1.79359e-08
1.7936e-08
1.79361e-08
1.79363e-08
1.79364e-08
1.79365e-08
1.79366e-08
1.79367e-08
1.79368e-08
1.79369e-08
1.79371e-08
1.79372e-08
1.79373e-08
1.7937e-08
1.7937e-08
1.79371e-08
1.79372e-08
1.79373e-08
1.79374e-08
1.79375e-08
1.79376e-08
1.79377e-08
1.79378e-08
1.79379e-08
1.79381e-08
1.79382e-08
1.79383e-08
1.7938e-08
1.7938e-08
1.79381e-08
1.79382e-08
1.79383e-08
1.79384e-08
1.79385e-08
1.79386e-08
1.79387e-08
1.79389e-08
1.7939e-08
1.79391e-08
1.79392e-08
1.79393e-08
1.79391e-08
1.79391e-08
1.79392e-08
1.79393e-08
1.79394e-08
1.79395e-08
1.79396e-08
1.79397e-08
1.79398e-08
1.79399e-08
1.794e-08
1.79401e-08
1.79402e-08
1.79403e-08
1.79401e-08
1.79402e-08
1.79403e-08
1.79404e-08
1.79405e-08
1.79406e-08
1.79407e-08
1.79408e-08
1.79409e-08
1.7941e-08
1.79411e-08
1.79412e-08
1.79413e-08
1.79413e-08
1.79412e-08
1.79413e-08
1.79414e-08
1.79415e-08
1.79416e-08
1.79417e-08
1.79418e-08
1.79419e-08
1.7942e-08
1.79421e-08
1.79422e-08
1.79423e-08
1.79423e-08
1.79423e-08
1.79423e-08
1.79424e-08
1.79425e-08
1.79426e-08
1.79427e-08
1.79428e-08
1.79429e-08
1.7943e-08
1.79431e-08
1.79432e-08
1.79433e-08
1.79434e-08
1.79434e-08
1.79434e-08
1.79433e-08
1.79435e-08
1.79436e-08
1.79437e-08
1.79438e-08
1.79439e-08
1.7944e-08
1.79441e-08
1.79442e-08
1.79443e-08
1.79444e-08
1.79445e-08
1.79445e-08
1.79445e-08
1.79444e-08
1.79446e-08
1.79446e-08
1.79447e-08
1.79448e-08
1.79449e-08
1.79451e-08
1.79452e-08
1.79453e-08
1.79454e-08
1.79455e-08
1.79455e-08
1.79456e-08
1.79456e-08
1.79454e-08
1.79456e-08
1.79456e-08
1.79457e-08
1.79458e-08
1.7946e-08
1.79461e-08
1.79462e-08
1.79463e-08
1.79465e-08
1.79465e-08
1.79466e-08
1.79467e-08
1.79466e-08
1.79464e-08
1.79465e-08
1.79466e-08
1.79467e-08
1.79468e-08
1.7947e-08
1.79471e-08
1.79472e-08
1.79474e-08
1.79475e-08
1.79476e-08
1.79477e-08
1.79477e-08
1.79478e-08
1.78981e-08
1.78981e-08
1.7898e-08
1.78979e-08
1.78978e-08
1.78977e-08
1.78976e-08
1.78974e-08
1.78973e-08
1.78972e-08
1.78971e-08
1.78969e-08
1.78967e-08
1.78966e-08
1.78987e-08
1.78986e-08
1.78985e-08
1.78984e-08
1.78983e-08
1.78981e-08
1.7898e-08
1.78979e-08
1.78978e-08
1.78976e-08
1.78975e-08
1.78973e-08
1.78972e-08
1.7897e-08
1.78992e-08
1.78991e-08
1.7899e-08
1.78989e-08
1.78987e-08
1.78986e-08
1.78985e-08
1.78984e-08
1.78982e-08
1.78981e-08
1.78979e-08
1.78978e-08
1.78976e-08
1.78974e-08
1.78998e-08
1.78996e-08
1.78995e-08
1.78994e-08
1.78992e-08
1.78991e-08
1.78989e-08
1.78988e-08
1.78987e-08
1.78985e-08
1.78983e-08
1.78982e-08
1.7898e-08
1.78978e-08
1.79003e-08
1.79001e-08
1.79e-08
1.78999e-08
1.78997e-08
1.78996e-08
1.78994e-08
1.78993e-08
1.78991e-08
1.78989e-08
1.78988e-08
1.78986e-08
1.78984e-08
1.78982e-08
1.79008e-08
1.79006e-08
1.79005e-08
1.79003e-08
1.79002e-08
1.79e-08
1.78999e-08
1.78997e-08
1.78996e-08
1.78994e-08
1.78992e-08
1.7899e-08
1.78988e-08
1.78986e-08
1.79013e-08
1.79011e-08
1.7901e-08
1.79008e-08
1.79007e-08
1.79005e-08
1.79003e-08
1.79002e-08
1.79e-08
1.78998e-08
1.78997e-08
1.78995e-08
1.78993e-08
1.7899e-08
1.79018e-08
1.79016e-08
1.79015e-08
1.79013e-08
1.79011e-08
1.7901e-08
1.79008e-08
1.79006e-08
1.79005e-08
1.79003e-08
1.79001e-08
1.78999e-08
1.78997e-08
1.78995e-08
1.79022e-08
1.79021e-08
1.79019e-08
1.79018e-08
1.79016e-08
1.79014e-08
1.79013e-08
1.79011e-08
1.79009e-08
1.79008e-08
1.79006e-08
1.79004e-08
1.79001e-08
1.78999e-08
1.79027e-08
1.79025e-08
1.79024e-08
1.79022e-08
1.79021e-08
1.79019e-08
1.79017e-08
1.79016e-08
1.79014e-08
1.79012e-08
1.7901e-08
1.79008e-08
1.79006e-08
1.79003e-08
1.79031e-08
1.7903e-08
1.79028e-08
1.79026e-08
1.79025e-08
1.79023e-08
1.79022e-08
1.7902e-08
1.79019e-08
1.79017e-08
1.79015e-08
1.79013e-08
1.7901e-08
1.79007e-08
1.79034e-08
1.79033e-08
1.79032e-08
1.7903e-08
1.79029e-08
1.79027e-08
1.79026e-08
1.79025e-08
1.79023e-08
1.79021e-08
1.79019e-08
1.79017e-08
1.79015e-08
1.79012e-08
1.79038e-08
1.79037e-08
1.79035e-08
1.79034e-08
1.79033e-08
1.79032e-08
1.7903e-08
1.79029e-08
1.79027e-08
1.79026e-08
1.79024e-08
1.79022e-08
1.79019e-08
1.79016e-08
1.79041e-08
1.7904e-08
1.79039e-08
1.79037e-08
1.79036e-08
1.79035e-08
1.79034e-08
1.79033e-08
1.79032e-08
1.7903e-08
1.79028e-08
1.79026e-08
1.79024e-08
1.79021e-08
1.78637e-08
1.78637e-08
1.78635e-08
1.78634e-08
1.78633e-08
1.78631e-08
1.78629e-08
1.78627e-08
1.78625e-08
1.78622e-08
1.78619e-08
1.78616e-08
1.78613e-08
1.7861e-08
1.7864e-08
1.78639e-08
1.78638e-08
1.78636e-08
1.78635e-08
1.78633e-08
1.78631e-08
1.78629e-08
1.78626e-08
1.78624e-08
1.78621e-08
1.78618e-08
1.78615e-08
1.78611e-08
1.78642e-08
1.78641e-08
1.7864e-08
1.78639e-08
1.78637e-08
1.78635e-08
1.78633e-08
1.78631e-08
1.78628e-08
1.78626e-08
1.78623e-08
1.78619e-08
1.78616e-08
1.78612e-08
1.78645e-08
1.78643e-08
1.78642e-08
1.7864e-08
1.78639e-08
1.78637e-08
1.78635e-08
1.78632e-08
1.7863e-08
1.78627e-08
1.78624e-08
1.78621e-08
1.78617e-08
1.78614e-08
1.78646e-08
1.78645e-08
1.78644e-08
1.78642e-08
1.7864e-08
1.78638e-08
1.78636e-08
1.78634e-08
1.78631e-08
1.78628e-08
1.78625e-08
1.78622e-08
1.78618e-08
1.78615e-08
1.78648e-08
1.78646e-08
1.78645e-08
1.78643e-08
1.78641e-08
1.78639e-08
1.78637e-08
1.78635e-08
1.78632e-08
1.78629e-08
1.78626e-08
1.78623e-08
1.78619e-08
1.78615e-08
1.78649e-08
1.78647e-08
1.78646e-08
1.78644e-08
1.78642e-08
1.7864e-08
1.78638e-08
1.78635e-08
1.78633e-08
1.7863e-08
1.78627e-08
1.78623e-08
1.7862e-08
1.78616e-08
1.78649e-08
1.78648e-08
1.78646e-08
1.78645e-08
1.78643e-08
1.78641e-08
1.78638e-08
1.78636e-08
1.78633e-08
1.7863e-08
1.78627e-08
1.78624e-08
1.7862e-08
1.78616e-08
1.7865e-08
1.78648e-08
1.78647e-08
1.78645e-08
1.78643e-08
1.78641e-08
1.78639e-08
1.78636e-08
1.78633e-08
1.7863e-08
1.78627e-08
1.78624e-08
1.7862e-08
1.78616e-08
1.7865e-08
1.78648e-08
1.78647e-08
1.78645e-08
1.78643e-08
1.78641e-08
1.78639e-08
1.78636e-08
1.78634e-08
1.78631e-08
1.78627e-08
1.78624e-08
1.7862e-08
1.78616e-08
1.78649e-08
1.78648e-08
1.78646e-08
1.78645e-08
1.78643e-08
1.78641e-08
1.78639e-08
1.78636e-08
1.78633e-08
1.7863e-08
1.78627e-08
1.78624e-08
1.7862e-08
1.78616e-08
1.78648e-08
1.78647e-08
1.78645e-08
1.78644e-08
1.78642e-08
1.7864e-08
1.78638e-08
1.78636e-08
1.78633e-08
1.7863e-08
1.78627e-08
1.78623e-08
1.7862e-08
1.78616e-08
1.78647e-08
1.78646e-08
1.78644e-08
1.78643e-08
1.78641e-08
1.7864e-08
1.78638e-08
1.78635e-08
1.78633e-08
1.7863e-08
1.78627e-08
1.78623e-08
1.7862e-08
1.78615e-08
1.78645e-08
1.78644e-08
1.78643e-08
1.78642e-08
1.7864e-08
1.78639e-08
1.78637e-08
1.78635e-08
1.78633e-08
1.7863e-08
1.78627e-08
1.78623e-08
1.7862e-08
1.78616e-08
1.78292e-08
1.78292e-08
1.78291e-08
1.7829e-08
1.78289e-08
1.78288e-08
1.78286e-08
1.78284e-08
1.78282e-08
1.78279e-08
1.78276e-08
1.78273e-08
1.78269e-08
1.78265e-08
1.78293e-08
1.78293e-08
1.78292e-08
1.78291e-08
1.7829e-08
1.78289e-08
1.78287e-08
1.78285e-08
1.78282e-08
1.7828e-08
1.78277e-08
1.78273e-08
1.7827e-08
1.78266e-08
1.78294e-08
1.78294e-08
1.78293e-08
1.78292e-08
1.78291e-08
1.7829e-08
1.78288e-08
1.78286e-08
1.78283e-08
1.7828e-08
1.78277e-08
1.78274e-08
1.7827e-08
1.78266e-08
1.78294e-08
1.78294e-08
1.78293e-08
1.78292e-08
1.78291e-08
1.7829e-08
1.78288e-08
1.78286e-08
1.78283e-08
1.78281e-08
1.78278e-08
1.78274e-08
1.7827e-08
1.78266e-08
1.78294e-08
1.78294e-08
1.78293e-08
1.78292e-08
1.78291e-08
1.7829e-08
1.78288e-08
1.78286e-08
1.78283e-08
1.78281e-08
1.78277e-08
1.78274e-08
1.7827e-08
1.78266e-08
1.78294e-08
1.78293e-08
1.78293e-08
1.78292e-08
1.78291e-08
1.78289e-08
1.78288e-08
1.78285e-08
1.78283e-08
1.7828e-08
1.78277e-08
1.78273e-08
1.7827e-08
1.78266e-08
1.78293e-08
1.78292e-08
1.78292e-08
1.78291e-08
1.7829e-08
1.78289e-08
1.78287e-08
1.78285e-08
1.78282e-08
1.78279e-08
1.78276e-08
1.78272e-08
1.78269e-08
1.78265e-08
1.78291e-08
1.78291e-08
1.78291e-08
1.7829e-08
1.78289e-08
1.78287e-08
1.78285e-08
1.78283e-08
1.78281e-08
1.78278e-08
1.78275e-08
1.78271e-08
1.78267e-08
1.78263e-08
1.7829e-08
1.78289e-08
1.78289e-08
1.78288e-08
1.78287e-08
1.78286e-08
1.78284e-08
1.78282e-08
1.78279e-08
1.78276e-08
1.78273e-08
1.7827e-08
1.78266e-08
1.78262e-08
1.78288e-08
1.78287e-08
1.78287e-08
1.78286e-08
1.78285e-08
1.78284e-08
1.78282e-08
1.7828e-08
1.78277e-08
1.78274e-08
1.78271e-08
1.78268e-08
1.78264e-08
1.7826e-08
1.78285e-08
1.78285e-08
1.78285e-08
1.78284e-08
1.78283e-08
1.78281e-08
1.7828e-08
1.78277e-08
1.78275e-08
1.78272e-08
1.78269e-08
1.78265e-08
1.78262e-08
1.78258e-08
1.78283e-08
1.78282e-08
1.78282e-08
1.78281e-08
1.7828e-08
1.78279e-08
1.78277e-08
1.78275e-08
1.78272e-08
1.7827e-08
1.78266e-08
1.78263e-08
1.78259e-08
1.78255e-08
1.7828e-08
1.78279e-08
1.78279e-08
1.78278e-08
1.78277e-08
1.78276e-08
1.78274e-08
1.78272e-08
1.7827e-08
1.78267e-08
1.78264e-08
1.7826e-08
1.78257e-08
1.78253e-08
1.78276e-08
1.78276e-08
1.78275e-08
1.78275e-08
1.78274e-08
1.78273e-08
1.78271e-08
1.78269e-08
1.78267e-08
1.78264e-08
1.78261e-08
1.78258e-08
1.78254e-08
1.78251e-08
1.77953e-08
1.77954e-08
1.77953e-08
1.77953e-08
1.77952e-08
1.77951e-08
1.7795e-08
1.77949e-08
1.77947e-08
1.77945e-08
1.77943e-08
1.7794e-08
1.77938e-08
1.77935e-08
1.77954e-08
1.77953e-08
1.77953e-08
1.77953e-08
1.77953e-08
1.77952e-08
1.77951e-08
1.77949e-08
1.77947e-08
1.77945e-08
1.77943e-08
1.7794e-08
1.77938e-08
1.77935e-08
1.77953e-08
1.77954e-08
1.77954e-08
1.77953e-08
1.77953e-08
1.77952e-08
1.77951e-08
1.77949e-08
1.77948e-08
1.77946e-08
1.77943e-08
1.77941e-08
1.77938e-08
1.77935e-08
1.77953e-08
1.77953e-08
1.77953e-08
1.77953e-08
1.77953e-08
1.77952e-08
1.77951e-08
1.77949e-08
1.77948e-08
1.77945e-08
1.77943e-08
1.7794e-08
1.77938e-08
1.77935e-08
1.77952e-08
1.77953e-08
1.77953e-08
1.77953e-08
1.77952e-08
1.77951e-08
1.7795e-08
1.77949e-08
1.77947e-08
1.77945e-08
1.77943e-08
1.7794e-08
1.77937e-08
1.77934e-08
1.77951e-08
1.77952e-08
1.77952e-08
1.77952e-08
1.77951e-08
1.77951e-08
1.7795e-08
1.77948e-08
1.77946e-08
1.77944e-08
1.77942e-08
1.77939e-08
1.77937e-08
1.77934e-08
1.7795e-08
1.7795e-08
1.77951e-08
1.77951e-08
1.7795e-08
1.77949e-08
1.77948e-08
1.77947e-08
1.77945e-08
1.77943e-08
1.77941e-08
1.77938e-08
1.77935e-08
1.77933e-08
1.77948e-08
1.77949e-08
1.77949e-08
1.77949e-08
1.77949e-08
1.77948e-08
1.77947e-08
1.77945e-08
1.77944e-08
1.77942e-08
1.77939e-08
1.77937e-08
1.77934e-08
1.77931e-08
1.77947e-08
1.77947e-08
1.77947e-08
1.77947e-08
1.77947e-08
1.77946e-08
1.77945e-08
1.77944e-08
1.77942e-08
1.7794e-08
1.77938e-08
1.77935e-08
1.77932e-08
1.7793e-08
1.77945e-08
1.77945e-08
1.77945e-08
1.77945e-08
1.77945e-08
1.77944e-08
1.77943e-08
1.77942e-08
1.7794e-08
1.77938e-08
1.77936e-08
1.77933e-08
1.7793e-08
1.77928e-08
1.77943e-08
1.77943e-08
1.77943e-08
1.77943e-08
1.77942e-08
1.77942e-08
1.77941e-08
1.77939e-08
1.77937e-08
1.77935e-08
1.77933e-08
1.77931e-08
1.77928e-08
1.77926e-08
1.7794e-08
1.7794e-08
1.7794e-08
1.7794e-08
1.7794e-08
1.77939e-08
1.77938e-08
1.77937e-08
1.77935e-08
1.77933e-08
1.77931e-08
1.77928e-08
1.77926e-08
1.77923e-08
1.77938e-08
1.77937e-08
1.77937e-08
1.77937e-08
1.77937e-08
1.77936e-08
1.77935e-08
1.77934e-08
1.77932e-08
1.7793e-08
1.77928e-08
1.77925e-08
1.77923e-08
1.77921e-08
1.77935e-08
1.77935e-08
1.77935e-08
1.77934e-08
1.77934e-08
1.77933e-08
1.77932e-08
1.77931e-08