/*--------------------------------*- C++ -*----------------------------------*\
| =========                 |                                                 |
| \\      /  F ield         | OpenFOAM: The Open Source CFD Toolbox           |
|  \\    /   O peration     | Version:  v2106                                 |
|   \\  /    A nd           | Website:  www.openfoam.com                      |
|    \\/     M anipulation  |                                                 |
\*---------------------------------------------------------------------------*/
FoamFile
{
    version     2.0;
    format      ascii;
    arch        "LSB;label=32;scalar=64";
    class       volScalarField;
    location    "0.000175";
    object      epsilon;
}
// * * * * * * * * * * * * * * * * * * * * * * * * * * * * * * * * * * * * * //

dimensions      [0 2 -3 0 0 0 0];

internalField   nonuniform List<scalar> 
18109
(
324.087
135.038
73.309
51.0224
45.5414
47.6714
55.8494
161.077
42.3402
15.0928
9.35176
8.37731
8.80948
10.3408
91.0153
16.8153
3.20947
1.3582
1.14632
1.20563
1.4527
60.4963
10.1765
1.46301
0.275615
0.127716
0.123935
0.184252
45.9785
8.32693
1.36713
0.208354
0.033172
0.0160753
0.0468508
41.7756
8.35524
1.49317
0.224279
0.0285589
0.00949417
0.0369101
47.0545
9.89381
1.74137
0.251127
0.0375852
0.0212641
0.0600019
61.5147
12.7749
2.17982
0.353106
0.113007
0.109368
0.18939
187.783
69.4048
32.7874
19.6615
15.0999
13.9941
15.2426
18.0294
23.5988
35.2977
66.4669
157.311
400.086
965.548
89.5168
20.4137
5.77986
2.88422
2.21349
2.07982
2.30947
2.84533
4.36766
9.49105
27.6908
86.4663
249.796
639.567
47.8912
8.19397
1.28089
0.356835
0.234008
0.220771
0.264154
0.426941
1.13603
4.09201
15.175
51.6649
156.731
424.624
31.7871
5.4859
0.819154
0.12324
0.0279417
0.0185029
0.033037
0.116061
0.524569
2.30026
9.1114
32.3368
103.539
303.648
26.0778
5.05204
0.879618
0.133935
0.0170639
0.00373081
0.0112773
0.0635442
0.332528
1.54755
6.41228
23.9292
81.5985
258.706
26.7042
5.57536
1.00729
0.149568
0.0176295
0.00340146
0.00940941
0.0532482
0.284019
1.35516
5.78856
22.398
79.6239
263.385
33.431
7.03277
1.21313
0.170528
0.0237778
0.0103561
0.0187112
0.0718573
0.347079
1.62256
6.91807
26.7903
94.9361
310.143
46.1705
9.36237
1.54163
0.238904
0.0720071
0.0643053
0.0861298
0.18125
0.621367
2.55253
10.2475
37.8964
127.884
394.666
65.2176
13.1748
2.4417
0.618143
0.370242
0.38359
0.471065
0.721945
1.61247
5.02138
17.4726
58.9156
183.382
522.163
96.4001
22.7153
6.25151
2.62379
1.88978
1.9301
2.30379
3.17173
5.38983
12.1002
33.3214
96.9767
270.507
699.788
162.278
53.6999
22.0938
11.7419
8.53807
8.3029
9.66066
12.79
19.1396
33.8515
71.9281
172.201
418.936
975.052
325.494
149.486
77.9151
46.5563
33.8112
31.3223
35.2157
45.3373
63.8681
98.7438
170.992
333.541
690.72
1428.54
699.769
398.872
239.89
157.197
117.101
105.65
114.55
142.558
192.763
277.014
422.15
695.955
1225.27
2241.51
1452.1
944.451
628.847
451.654
355.577
323.015
342.025
409.085
529.814
723.875
1020.65
1487.25
2249.6
3594.28
740.218
1711.55
3821.9
8042.73
16821
36931.6
443.982
1108.15
2639.71
5743.66
11980.6
25783.8
247.456
780.784
2159.87
5270.41
12150.6
28899.8
152.188
564.536
1749.05
4746.45
12288.6
32750.4
99.8926
414.121
1428.16
4352.15
12605.9
36221.5
77.3248
341.975
1272.88
4209.48
13065.9
38976.3
71.3097
322.292
1240.45
4269.75
13556.7
40426
76.9745
344.913
1319.72
4505.13
13982
40376
90.5719
393.692
1458.26
4778.31
14125.3
38698.5
116.077
477.92
1668.01
5108.15
14049.4
35718.7
158.204
603.239
1931.04
5386.42
13470.3
31174.3
231.52
794.472
2282.99
5703.94
12797.2
26606.1
373.564
1119.25
2835.71
6290.38
12639
23703.6
654.399
1668.07
3715.71
7396.26
13601.2
23762.3
1177.27
2502.97
4918.1
9016.68
15914.5
27771.6
2163.49
3776.71
6477.31
11088.6
19504.5
35752.9
1470.31
2918.28
5690
11196.9
22724.8
46998.7
1054.56
2418.24
5452.48
12369
28200.4
62968.7
835.325
2224.36
5758.67
14507.2
35106.3
80172.5
776.566
2294.51
6400.6
16799.1
41120
93185.8
817.439
2508.03
7105.73
18568.9
44745.1
98933.8
937.075
2807.47
7705.5
19358.9
44897.1
95761
1118.2
3149.42
8128.6
19295.9
42531.7
87347.2
1367.09
3549.07
8476.55
18738.8
38777.1
76240.7
1677.61
3955.92
8657.75
17734.3
34545.7
65265.9
2132.85
4533.56
9050.95
17162.1
31609.7
57478.2
2850.79
5483.55
10049.6
17830.4
31624.2
57003.1
4109.66
7200.24
12309.3
21028.3
36957.2
67437.5
6140.06
9940.87
16184.7
27173.8
47877.8
88600.9
5600.35
10077.7
17711.6
31737.8
58912.6
111518
4341.5
8298.98
15854.8
31576.8
64933.2
132893
3258.42
6763.48
14315.5
31799.5
71673.2
157102
2428.72
5537.91
12986.9
31387.7
74862
169902
1825.11
4565.66
11660.3
29703
73422.2
172360
1400.46
3786.43
10218.2
26649.2
66199.5
157565
1121.76
3184.15
8808.03
23053.1
57125
135625
955.188
2772.19
7705.14
19912.7
47984
112566
889.396
2544.15
6895.78
17391.5
40482.6
93215
931.339
2511.67
6458.31
15521.2
34656.3
76540.2
1096.21
2659.28
6354.8
14302.6
29982.6
63436.3
1406.6
3042.85
6544.02
13673.6
26866
56232.3
1953.97
3817.27
7392.99
14043.1
27022.1
58117.3
2798.76
5039.57
9009.1
16110.5
30746.4
66380.1
287.992
992.206
2957.13
7697.92
17801.9
40894.8
344.881
1040
2796.52
6718.16
14689.3
32463.5
401.498
1047.99
2629.61
6012.32
12770.8
29081.2
482.94
1091.79
2638.42
5946.7
13348.7
31379.6
1880.03
3788.12
8326.14
16957.8
33778.7
73503.6
1149.5
2880.58
7022.95
15165.6
33154.9
78511.3
755.421
2260.32
5729.35
12792.1
30372.8
80207
532.503
1702.44
4434.69
10709.2
27906.1
79679.5
386.118
1248.8
3392.28
9004.57
25705.8
78364.6
277.107
909.167
2626.44
7775.5
23847.9
74379.2
197.014
677.307
2147.33
6956.11
22017.1
67208.8
144.702
537.948
1887.28
6414.58
19970.3
57889.7
122.04
487.475
1798.73
6066.54
17876.6
48158.9
127.536
508.535
1814.69
5722.11
15546.5
38614.5
157.081
576.006
1866.65
5305.64
13151.5
30443.8
204.109
658.619
1896.45
4851.7
11101.2
24542.7
255.359
717.119
1890.62
4492.17
9743.45
21607.1
300.973
742.502
1897.47
4417.29
9873.26
22685.7
58205.1
231145
905355
787786
504202
72427.8
284688
966230
735872
477039
89088.8
328633
974040
711479
485281
102436
367169
969610
729014
515382
111316
395070
935404
738726
536329
111793
385140
855669
722002
537821
105688
335700
725756
682992
547672
94576.7
272764
599566
669698
576790
723351
79824.9
212414
482598
660364
602804
789480
63316.3
159938
372629
616453
589442
813070
48984.7
118671
293294
551761
523882
780300
1.25118e+06
40039.1
96702
258108
505179
437388
657622
1.42744e+06
1.79124e+06
38771.8
101703
283317
496887
388341
483607
1.32935e+06
4.39436e+06
47474.4
139755
377005
515024
396866
431830
656806
2.58796e+06
66583.3
206671
503149
514065
402656
449954
646396
2.93473e+06
94656.9
279214
578741
478306
388739
484624
710982
2.40302e+06
131281
351092
618658
464304
406230
539669
749359
2.98456e+06
165304
405287
642867
490553
449523
606051
707141
1.12523e+06
186782
422642
640619
525183
489933
665516
743596
680669
191581
402401
618325
556713
518142
724683
818915
563426
179469
352264
578437
590757
557521
804620
950687
888163
159200
305296
560856
647996
602883
898460
1.14118e+06
651600
133449
265405
551832
694439
640788
997130
111321
239944
564325
695308
630111
1.05279e+06
98698.3
235281
599926
642098
559575
1.02851e+06
101037
266425
664715
566707
462215
868507
121698
339117
737689
487574
392264
662133
160229
447414
785405
441813
370816
207357
564497
778327
425440
381616
258631
667132
732040
426146
394484
312464
753204
705651
449614
430290
342471
767719
700487
509463
485618
353943
708896
697274
577860
531999
332947
589802
672978
638782
557760
283947
470349
647698
700080
587513
227596
377648
656162
787550
617993
179999
311923
698004
864464
627987
144281
267113
782663
882039
585904
120482
255207
900885
814763
516617
109624
296972
1.03507e+06
726709
456848
116091
389921
1.15916e+06
661528
437707
138841
524784
1.18539e+06
654414
458260
166673
651785
1.13587e+06
673229
473971
193959
762210
1.07193e+06
664960
476006
223242
845820
1.03981e+06
659807
493332
246597
841042
1.01612e+06
692527
532745
258398
765443
967061
722041
561689
247349
629596
869721
734652
577125
214210
479250
728449
734544
599602
171381
354047
594823
756941
623499
130666
258057
480659
783735
637508
96753.2
184291
388722
777090
607020
71253.1
133367
342909
744315
548242
54112.4
108123
372672
730020
503529
46102
115596
502346
750268
502843
48109.3
161846
714296
787718
518957
124.752
43.6513
19.6269
11.0034
7.58569
6.15758
5.88713
6.29733
8.17676
13.9344
31.7312
86.8173
241.552
621.118
57.8387
12.2053
3.08567
1.35082
0.900914
0.735141
0.716268
0.816958
1.39389
3.92591
13.8713
48.1103
149.005
402.967
30.4076
5.04755
0.732886
0.154076
0.0731901
0.0570433
0.0628914
0.120629
0.442102
1.93258
7.89726
28.6312
91.2503
257.011
21.0907
3.75504
0.585399
0.0849002
0.0125861
0.00403123
0.00857867
0.0431571
0.229408
1.09507
4.60314
17.1244
56.8288
170.669
18.933
3.79221
0.674909
0.103707
0.0127191
0.0017583
0.00392025
0.0243298
0.136995
0.678386
2.96341
11.5311
40.5073
130.897
21.0397
4.4266
0.795312
0.11743
0.0136858
0.00210195
0.0034478
0.0183152
0.102026
0.515795
2.32627
9.42138
34.7424
118.79
27.7544
5.77701
0.978491
0.135937
0.0190973
0.00823909
0.0106262
0.0265189
0.111846
0.533822
2.40691
9.88971
37.1267
128.769
39.3194
7.82409
1.25347
0.190119
0.0583551
0.054255
0.0666003
0.0999679
0.23464
0.840878
3.42455
13.4417
48.6979
161.941
56.5887
11.0975
1.94063
0.467746
0.288468
0.3157
0.386522
0.516477
0.855127
2.04482
6.53448
22.5805
74.9005
229.455
84.4111
18.7118
4.67292
1.87937
1.41148
1.53072
1.86922
2.45709
3.60232
6.53008
15.5251
43.8159
126.558
346.103
140.008
42.3195
15.9234
8.19445
6.16292
6.35901
7.65115
10.0391
14.1505
22.3586
42.1169
94.951
231.571
557.321
272.836
115.098
55.8359
32.1934
23.7859
23.2495
27.2113
35.4151
49.0494
72.5209
117.701
217.965
443.856
930.943
576.042
306.789
172.984
108.856
81.239
76.5188
86.5961
110.415
150.117
213.754
318.391
510.698
882.021
1614.14
1198.9
735.648
460.095
315.927
245.472
229.608
253
313.258
414.222
571.183
805.333
1166.04
1743.89
2764.28
37.4052
15.9934
9.27747
5.6572
3.64766
2.6176
2.15664
1.92795
2.01787
2.88851
6.59754
20.6677
68.3206
207.408
14.3968
3.21051
1.15384
0.614851
0.378251
0.269525
0.226265
0.20936
0.269439
0.701693
2.86323
11.9093
43.9405
139.859
8.07373
1.367
0.22998
0.0577895
0.025418
0.0170725
0.0153342
0.0209296
0.0708949
0.367505
1.82164
7.86473
29.3053
94.6432
7.69931
1.44501
0.235568
0.0349642
0.00482234
0.000951008
0.00111479
0.00586594
0.0388325
0.228971
1.15954
5.0654
19.2583
64.4656
9.06137
1.81234
0.3115
0.0462669
0.00555575
0.000554672
0.000457153
0.00342768
0.0241891
0.145987
0.756693
3.40413
13.4693
47.6936
11.7603
2.36238
0.393652
0.0545913
0.00614652
0.000746865
0.00057024
0.00264882
0.0172753
0.10437
0.551295
2.55494
10.5498
39.6303
16.7712
3.27234
0.507837
0.0649718
0.00829281
0.00305764
0.00327877
0.00530332
0.0175052
0.0893413
0.465715
2.21478
9.53303
37.6245
24.7821
4.60668
0.66193
0.0867322
0.022809
0.0209453
0.0251557
0.031385
0.0494233
0.133102
0.552619
2.50338
10.7392
42.4185
36.6794
6.56151
0.948141
0.181399
0.110067
0.127595
0.158286
0.197244
0.263271
0.439147
1.1287
4.04971
15.6838
57.7497
54.7478
10.009
1.84893
0.653675
0.549736
0.649329
0.81549
1.04033
1.37279
1.97135
3.54898
8.95603
27.9519
89.3528
84.7664
18.6385
5.45188
2.81388
2.47042
2.8319
3.54939
4.60373
6.13496
8.48605
12.9624
24.6452
59.2469
157.248
146.867
45.1962
19.0129
11.4299
9.87739
10.8762
13.4319
17.4782
23.4036
32.0194
45.5749
73.04
139.546
304.363
286.5
121.652
62.6398
41.063
35.2907
37.634
45.4505
58.4761
77.7181
105.347
145.194
211.894
341.64
622.807
599.643
315.317
182.756
129.469
113.361
119.448
141.41
178.214
232.056
308.649
415.052
571.317
815.264
1256.92
9.4064
4.02322
2.37032
1.44465
0.888869
0.566668
0.423757
0.343313
0.313751
0.372111
0.828467
3.0374
12.2279
45.1693
3.30027
0.683071
0.240371
0.129329
0.0767023
0.0486765
0.0374314
0.030998
0.0325916
0.0746402
0.355601
1.81334
8.09855
30.8053
2.36389
0.39724
0.0616698
0.0121828
0.00415143
0.0022664
0.00181188
0.00199341
0.00624466
0.0390823
0.240824
1.26976
5.66906
21.5147
2.91686
0.541746
0.0872217
0.0122193
0.00153726
0.000179479
7.12685e-05
0.000411929
0.00357081
0.0267034
0.167045
0.879574
3.93209
15.0592
3.92647
0.750991
0.125132
0.0172892
0.00202692
0.000192063
4.07447e-05
0.000271982
0.00244437
0.0184185
0.116004
0.616176
2.78973
10.91
5.5424
1.03797
0.166612
0.0213178
0.00229997
0.000249721
9.85998e-05
0.000265627
0.00181535
0.0132505
0.0837358
0.450463
2.0833
8.4235
8.35896
1.5073
0.22582
0.0263783
0.00293293
0.00083762
0.000823965
0.00104743
0.00229321
0.0110165
0.0651061
0.352677
1.68253
7.15372
12.8422
2.20059
0.301559
0.0339546
0.0065932
0.00556933
0.0068189
0.00811711
0.0102455
0.0188024
0.067521
0.330011
1.59656
7.1143
19.5554
3.19728
0.41287
0.0580808
0.0293783
0.0356177
0.045561
0.0556688
0.0675423
0.0882795
0.161595
0.513173
2.17482
9.36964
29.1601
4.71731
0.667861
0.17378
0.15152
0.1934
0.250791
0.314911
0.390708
0.491627
0.696673
1.4051
4.32554
15.8626
42.8307
7.74628
1.6113
0.738081
0.722594
0.90271
1.16995
1.49627
1.89816
2.41264
3.20396
5.11102
11.4214
33.1173
67.8725
16.8279
5.50217
3.23241
3.10186
3.71074
4.74136
6.09946
7.83711
10.0922
13.2004
18.9096
33.5553
77.0758
122.517
45.4909
19.9196
13.016
12.1015
13.7908
17.1373
21.8328
28.0302
36.3112
47.4218
64.6717
98.7004
184.162
257.547
128.045
66.9234
47.1449
43.373
47.5327
56.9818
70.7427
89.1501
114.446
148.827
198.279
276.229
430.893
2.03791
0.628989
0.311446
0.187631
0.114902
0.076009
0.0579127
0.0466881
0.0392307
0.0361126
0.0611863
0.237682
1.15387
5.18635
0.957801
0.149506
0.0301545
0.0126636
0.0071599
0.00481625
0.003882
0.0032604
0.00298482
0.00491105
0.0241571
0.149729
0.812595
3.71393
0.852954
0.139365
0.0186778
0.00256852
0.000421445
0.000140417
0.000104286
0.000109354
0.000308857
0.00228485
0.0175429
0.11355
0.613003
2.77794
1.12631
0.207095
0.0304504
0.00416829
0.000486283
4.91568e-05
5.24391e-06
1.5509e-05
0.000176804
0.0016976
0.0132998
0.0858514
0.461238
2.08444
1.56287
0.298092
0.0439782
0.00586136
0.00064703
6.19031e-05
6.25751e-06
1.21919e-05
0.000131792
0.00126478
0.00993925
0.0643945
0.347633
1.58228
2.20781
0.42094
0.0592607
0.00722271
0.000723746
7.47307e-05
2.12201e-05
2.65818e-05
0.000116391
0.000963182
0.00747074
0.0485726
0.264483
1.22036
3.24293
0.611062
0.080876
0.00880807
0.000861516
0.000203436
0.000188899
0.000218519
0.000302711
0.000953397
0.00590644
0.0374427
0.206115
0.976099
4.74483
0.873759
0.108252
0.010841
0.00163316
0.00127497
0.00159133
0.00188646
0.00216739
0.00285578
0.00700639
0.0330996
0.176414
0.863399
6.76269
1.21885
0.145239
0.0161308
0.00663715
0.00836919
0.0109664
0.01337
0.015569
0.0180402
0.0242943
0.0556157
0.22373
1.04737
9.44439
1.691
0.213899
0.0404913
0.0347259
0.0473995
0.0628054
0.0783963
0.0937838
0.109733
0.132516
0.200436
0.505085
1.88949
13.05
2.49818
0.426263
0.163532
0.172346
0.231169
0.305716
0.387971
0.474795
0.568316
0.682864
0.910233
1.67688
4.70206
19.3908
4.78471
1.32696
0.747765
0.775939
0.990404
1.28993
1.64776
2.0476
2.50195
3.04573
3.90011
6.01772
13.1653
34.1614
12.4416
5.00174
3.27901
3.20908
3.82772
4.82374
6.11193
7.63249
9.46549
11.7134
14.8623
20.6968
37.0154
76.0868
37.0287
18.6728
13.2819
12.4077
13.7558
16.4455
20.2428
25.0054
31.1488
39.0478
49.7544
65.6491
100.373
0.389316
0.0839141
0.027218
0.0143828
0.00872065
0.00598921
0.00503558
0.00437523
0.00371819
0.00302426
0.00358244
0.0132241
0.0768697
0.41635
0.200226
0.0325104
0.00442896
0.000764769
0.000296917
0.000207634
0.000205452
0.000204715
0.000198996
0.000261508
0.00118509
0.00875834
0.0574092
0.314062
0.204962
0.0391238
0.00605852
0.000762135
9.3541e-05
1.08093e-05
3.08517e-06
3.90526e-06
1.16404e-05
9.50841e-05
0.000893721
0.00706908
0.0460458
0.24892
0.282551
0.0587011
0.00988799
0.00130708
0.000160763
1.60252e-05
1.4487e-06
6.2025e-07
5.98451e-06
7.15293e-05
0.00070191
0.00558274
0.0364138
0.197067
0.400294
0.0847438
0.0144232
0.00186037
0.000217666
2.03392e-05
1.80235e-06
5.9375e-07
4.61981e-06
5.52712e-05
0.000547361
0.00439024
0.0288573
0.157389
0.56809
0.118887
0.019585
0.00234196
0.000250297
2.30858e-05
4.30391e-06
3.31332e-06
6.35858e-06
4.49256e-05
0.000424218
0.00341841
0.0227032
0.125283
0.821693
0.168245
0.0264467
0.00288745
0.000288892
4.38435e-05
3.10838e-05
3.34979e-05
3.71807e-05
6.69118e-05
0.000358794
0.00268596
0.0178765
0.100133
1.17283
0.232959
0.0347639
0.00352197
0.000428095
0.000217675
0.000255122
0.000292117
0.000316542
0.000352271
0.000588768
0.00244117
0.0146898
0.0826879
1.62271
0.312553
0.0448171
0.00467937
0.00126168
0.0013957
0.0017841
0.00210186
0.00233841
0.00253538
0.00289715
0.00489574
0.0175387
0.088465
2.20461
0.417252
0.0609445
0.0090579
0.00599763
0.00809486
0.0105312
0.0126904
0.0145057
0.0160809
0.0177647
0.0220986
0.0433931
0.155244
2.9585
0.58286
0.102866
0.0298747
0.0296962
0.040797
0.0532646
0.0653663
0.0764763
0.0868783
0.0973645
0.114479
0.171557
0.434651
4.29295
1.03548
0.271989
0.129074
0.135594
0.18033
0.234097
0.290889
0.346676
0.402653
0.460913
0.539156
0.717439
1.42108
7.56187
2.59046
0.971446
0.568895
0.567997
0.712163
0.907287
1.13174
1.36594
1.61714
1.89312
2.23946
2.80779
4.61774
17.5442
7.87822
3.68317
2.38196
2.22225
2.57412
3.15558
3.8961
4.72178
5.67214
6.782
8.17928
10.0235
14.4312
0.0698378
0.0127017
0.00265667
0.00100373
0.000601365
0.000470202
0.00047004
0.000467215
0.000432315
0.000352712
0.000330051
0.0010647
0.00700759
0.0431685
0.038708
0.00681765
0.00100425
0.00012964
2.47264e-05
1.45039e-05
1.792e-05
2.24624e-05
2.53118e-05
2.9291e-05
9.5103e-05
0.000744027
0.00551048
0.0339394
0.043534
0.00901702
0.00157749
0.000224288
2.80562e-05
3.33265e-06
8.66847e-07
9.83819e-07
1.64823e-06
7.05521e-06
6.71047e-05
0.000609205
0.00453773
0.0278237
0.0625996
0.0138173
0.00256649
0.000383253
4.77677e-05
5.03667e-06
4.75926e-07
1.09551e-07
3.85966e-07
4.53431e-06
5.17926e-05
0.000481087
0.00362058
0.0224309
0.0895956
0.0198924
0.00368751
0.000541566
6.44165e-05
6.40676e-06
5.68272e-07
9.68164e-08
2.74714e-07
3.41164e-06
3.99111e-05
0.000376978
0.00288326
0.0181444
0.126273
0.027447
0.00489073
0.000675019
7.38285e-05
7.00662e-06
9.3781e-07
5.06651e-07
6.27139e-07
2.95147e-06
3.07421e-05
0.000292298
0.00227523
0.0145802
0.179805
0.0379411
0.00641651
0.00081885
8.26659e-05
9.96641e-06
4.83654e-06
4.90107e-06
5.10987e-06
6.79393e-06
2.79844e-05
0.000231367
0.0017999
0.0117093
0.252703
0.0514702
0.00823927
0.000979751
0.00010584
3.54346e-05
3.79053e-05
4.26896e-05
4.51983e-05
4.72583e-05
6.36658e-05
0.000223767
0.00147407
0.00949835
0.343423
0.0674911
0.0103158
0.00121092
0.000232491
0.000213537
0.000269582
0.000313135
0.000340873
0.000358521
0.000382765
0.000546452
0.0017617
0.00953684
0.456954
0.0873741
0.013252
0.00191777
0.000965039
0.00126818
0.00164694
0.00195337
0.00218147
0.00235296
0.00249557
0.00285598
0.00477901
0.0162092
0.594849
0.115549
0.0198103
0.00508567
0.0047467
0.00665587
0.00869462
0.0104918
0.0119815
0.013241
0.0143154
0.0159686
0.0212717
0.0488846
0.828915
0.188075
0.0453466
0.0201866
0.0221427
0.0307133
0.0400562
0.048983
0.056978
0.0643402
0.0711412
0.079944
0.0979905
0.17794
1.41915
0.44284
0.152955
0.0875939
0.0943778
0.125802
0.162583
0.200575
0.23684
0.272753
0.308641
0.352794
0.416702
0.640027
3.32327
1.34902
0.583
0.369559
0.371576
0.464786
0.587479
0.725216
0.864956
1.01338
1.17319
1.37121
1.60738
2.203
0.0130728
0.00240586
0.000480237
0.000157146
9.01482e-05
7.63192e-05
8.26853e-05
8.78538e-05
8.56856e-05
7.11127e-05
5.39034e-05
0.000102441
0.000645075
0.00431094
0.00765569
0.00142168
0.000227002
3.23104e-05
5.86134e-06
3.19658e-06
4.11315e-06
5.4437e-06
6.36814e-06
6.45758e-06
1.04059e-05
6.54131e-05
0.000521221
0.00351352
0.00936951
0.00201963
0.000374296
5.82111e-05
7.83668e-06
9.94115e-07
2.6925e-07
3.00818e-07
4.21798e-07
8.37714e-07
5.59912e-06
5.38291e-05
0.000440967
0.00296885
0.0139052
0.00315076
0.000611946
9.84695e-05
1.32407e-05
1.49462e-06
1.56363e-07
4.15273e-08
5.83527e-08
3.62081e-07
4.17955e-06
4.28082e-05
0.000356437
0.00243713
0.0200132
0.00453173
0.000873046
0.00013748
1.77785e-05
1.89926e-06
1.81396e-07
3.42929e-08
3.76883e-08
2.6527e-07
3.22707e-06
3.37681e-05
0.000286898
0.00200267
0.0279373
0.0061551
0.00113444
0.000167906
2.0202e-05
2.03799e-06
2.39603e-07
9.86671e-08
9.69013e-08
2.61062e-07
2.51339e-06
2.62927e-05
0.000228164
0.00162988
0.0390619
0.00830369
0.00144542
0.000197895
2.20767e-05
2.48273e-06
8.51506e-07
7.82491e-07
7.82511e-07
8.7182e-07
2.55998e-06
2.10806e-05
0.000181661
0.00131946
0.0538259
0.0109973
0.00180586
0.000230128
2.61675e-05
6.54801e-06
6.12637e-06
6.68735e-06
6.89137e-06
6.86113e-06
7.94518e-06
2.22549e-05
0.000149513
0.00106394
0.0718046
0.0141228
0.00220875
0.000273967
4.73068e-05
3.56856e-05
4.37073e-05
4.95706e-05
5.25146e-05
5.32891e-05
5.38846e-05
6.6736e-05
0.000184354
0.00102859
0.0939304
0.0179083
0.00275081
0.00039646
0.000170564
0.000212534
0.000272448
0.000315664
0.000342754
0.000357297
0.000363824
0.000387065
0.000555199
0.00170763
0.119853
0.0229365
0.0038441
0.00092273
0.000818066
0.00114198
0.00147768
0.00174233
0.00193375
0.00206656
0.00214913
0.00227012
0.00271317
0.005477
0.161525
0.0349963
0.00790103
0.00341743
0.00385273
0.00542273
0.00702406
0.00840028
0.00949747
0.0103725
0.0110311
0.01182
0.0133859
0.0217714
0.267667
0.0774482
0.0250119
0.0145016
0.016604
0.0228392
0.029473
0.0356536
0.0409684
0.0456447
0.0496511
0.0542816
0.0603089
0.0849413
0.624933
0.232504
0.0943416
0.0605906
0.0655493
0.0862079
0.10994
0.133806
0.155705
0.176616
0.196505
0.219842
0.244923
0.314238
0.00212925
0.0003986
8.16166e-05
2.66765e-05
1.60353e-05
1.48353e-05
1.70906e-05
1.90156e-05
1.92828e-05
1.64263e-05
1.14265e-05
1.17272e-05
5.5059e-05
0.000388448
0.00134338
0.000259856
4.41493e-05
6.82337e-06
1.3209e-06
7.48379e-07
9.91686e-07
1.34973e-06
1.61922e-06
1.60514e-06
1.58203e-06
5.56637e-06
4.48258e-05
0.000328304
0.00179653
0.000397914
7.6744e-05
1.26552e-05
1.83414e-06
2.57584e-07
8.38892e-08
9.45941e-08
1.24551e-07
1.60743e-07
4.91921e-07
4.36493e-06
3.8829e-05
0.000285737
0.00275588
0.000635826
0.000127344
2.15066e-05
3.09537e-06
3.79004e-07
5.21886e-08
2.29025e-08
2.38153e-08
4.48118e-08
3.23856e-07
3.46557e-06
3.1725e-05
0.000238581
0.00399713
0.000917907
0.000181671
2.99701e-05
4.15787e-06
4.80819e-07
5.82098e-08
2.0128e-08
1.81773e-08
3.30898e-08
2.49999e-07
2.74141e-06
2.57024e-05
0.00019843
0.00553155
0.00123045
0.000232452
3.61553e-05
4.69848e-06
5.11038e-07
6.54563e-08
2.80081e-08
2.54784e-08
3.5503e-08
1.99083e-07
2.13424e-06
2.04828e-05
0.000162695
0.00759947
0.00162385
0.000289142
4.17776e-05
5.0425e-06
5.60896e-07
1.41419e-07
1.13375e-07
1.09409e-07
1.09779e-07
2.27145e-07
1.72773e-06
1.63303e-05
0.000132217
0.0102721
0.00210386
0.000352975
4.76278e-05
5.64361e-06
1.08171e-06
8.23213e-07
8.62927e-07
8.65145e-07
8.25645e-07
8.62464e-07
1.98011e-06
1.34276e-05
0.000105704
0.0134509
0.00264935
0.000422822
5.51021e-05
8.53922e-06
4.97521e-06
5.81274e-06
6.43483e-06
6.63142e-06
6.48274e-06
6.25763e-06
7.01242e-06
1.70077e-05
9.86024e-05
0.0172714
0.00328998
0.000511385
7.33958e-05
2.5666e-05
2.93906e-05
3.7124e-05
4.20449e-05
4.43704e-05
4.46077e-05
4.36971e-05
4.40147e-05
5.61199e-05
0.000158269
0.0215275
0.00406782
0.000666703
0.000147007
0.000117918
0.000162239
0.000207994
0.000239742
0.00025848
0.000266694
0.000267213
0.000270032
0.000296678
0.000532327
0.027801
0.00574425
0.00120638
0.00049511
0.000562953
0.000797745
0.00102569
0.0011993
0.00131711
0.00138996
0.00142418
0.00146454
0.00155395
0.00228612
0.0433612
0.0115618
0.00347674
0.00204703
0.002479
0.00348384
0.00447583
0.00529985
0.00591938
0.00637641
0.0066773
0.00700895
0.00737831
0.00959794
0.0979594
0.0333441
0.0127718
0.0084921
0.00994496
0.0135986
0.0173734
0.0207541
0.0235048
0.0257799
0.0275849
0.0296013
0.0314417
0.0378924
0.000307844
5.8757e-05
1.25518e-05
4.31137e-06
2.84954e-06
2.89541e-06
3.50589e-06
4.04045e-06
4.21852e-06
3.68403e-06
2.52721e-06
1.74797e-06
4.55055e-06
3.20522e-05
0.000212295
4.2546e-05
7.61051e-06
1.26793e-06
2.7617e-07
1.76425e-07
2.37138e-07
3.24105e-07
3.92614e-07
3.919e-07
3.20619e-07
5.20367e-07
3.55403e-06
2.79681e-05
0.000308779
6.98671e-05
1.38891e-05
2.40186e-06
3.74993e-07
6.67284e-08
3.21655e-08
3.56146e-08
4.31038e-08
4.77255e-08
6.54588e-08
3.42931e-07
3.12578e-06
2.5025e-05
0.000488842
0.000114496
2.34709e-05
4.12063e-06
6.28669e-07
9.1464e-08
2.39451e-08
1.7678e-08
1.77886e-08
1.9311e-08
3.76764e-08
2.69074e-07
2.57743e-06
2.12172e-05
0.000715466
0.000166201
3.35673e-05
5.75029e-06
8.43592e-07
1.13356e-07
2.52183e-08
1.68737e-08
1.62992e-08
1.71776e-08
3.1548e-08
2.15271e-07
2.09716e-06
1.7806e-05
0.000982107
0.000220134
4.23961e-05
6.87616e-06
9.47823e-07
1.19431e-07
2.59917e-08
1.76625e-08
1.70144e-08
1.75154e-08
2.82057e-08
1.69927e-07
1.66944e-06
1.46481e-05
0.00132532
0.000284202
5.15417e-05
7.81035e-06
1.00061e-06
1.23111e-07
3.37348e-08
2.66775e-08
2.57262e-08
2.50883e-08
3.21696e-08
1.41136e-07
1.33135e-06
1.1927e-05
0.00175648
0.000360129
6.15056e-05
8.72974e-06
1.07398e-06
1.78826e-07
1.08835e-07
1.08101e-07
1.05846e-07
9.85764e-08
9.60184e-08
1.73052e-07
1.09565e-06
9.46898e-06
0.00225531
0.000444264
7.21285e-05
9.81516e-06
1.41242e-06
6.25728e-07
6.78607e-07
7.3176e-07
7.3487e-07
6.9548e-07
6.45938e-07
6.69733e-07
1.42679e-06
8.57176e-06
0.00283882
0.000540002
8.4901e-05
1.21912e-05
3.47352e-06
3.5411e-06
4.38302e-06
4.85731e-06
4.99395e-06
4.8586e-06
4.59376e-06
4.41826e-06
5.10199e-06
1.32662e-05
0.00345307
0.000645893
0.000104331
2.11705e-05
1.49153e-05
2.00137e-05
2.53868e-05
2.86541e-05
3.00952e-05
3.00635e-05
2.90895e-05
2.82122e-05
2.88287e-05
4.63459e-05
0.00427283
0.000847938
0.000167176
6.39873e-05
7.20359e-05
0.000102072
0.000130165
0.000149072
0.000159457
0.00016295
0.000161152
0.000159179
0.000159166
0.000213213
0.006207
0.001532
0.000431088
0.000257175
0.000325957
0.000463865
0.000592214
0.000687048
0.000747318
0.000779411
0.000786781
0.000792716
0.000792423
0.000956041
0.0132532
0.0041489
0.00151981
0.00106366
0.00134175
0.00188429
0.00240056
0.00281226
0.00310161
0.00329057
0.00338759
0.00348352
0.00352916
0.00399756
3.95337e-05
7.72621e-06
1.75118e-06
6.64125e-07
4.99425e-07
5.51859e-07
6.89889e-07
8.1274e-07
8.64112e-07
7.69598e-07
5.34735e-07
3.18643e-07
4.08415e-07
2.4647e-06
3.01201e-05
6.23033e-06
1.16848e-06
2.16535e-07
6.21532e-08
4.8478e-08
6.219e-08
8.09828e-08
9.60525e-08
9.65738e-08
7.80073e-08
7.27171e-08
2.78796e-07
2.20051e-06
4.73566e-05
1.08866e-05
2.21683e-06
4.06058e-07
7.6601e-08
2.51422e-08
1.9419e-08
2.0375e-08
2.20676e-08
2.28946e-08
2.30539e-08
4.01575e-08
2.44994e-07
2.02092e-06
7.73151e-05
1.82888e-05
3.81199e-06
6.97569e-07
1.20566e-07
2.93612e-08
1.74928e-08
1.63627e-08
1.64044e-08
1.65567e-08
1.76344e-08
3.31544e-08
2.05368e-07
1.73948e-06
0.000114305
2.67274e-05
5.47364e-06
9.7321e-07
1.58211e-07
3.34012e-08
1.77277e-08
1.61721e-08
1.60606e-08
1.61124e-08
1.69848e-08
2.93598e-08
1.70115e-07
1.47371e-06
0.0001558
3.50558e-05
6.84696e-06
1.1539e-06
1.75764e-07
3.45096e-08
1.78123e-08
1.62427e-08
1.61208e-08
1.61412e-08
1.67814e-08
2.62539e-08
1.37989e-07
1.21789e-06
0.000206618
4.43437e-05
8.15912e-06
1.2874e-06
1.82509e-07
3.4513e-08
1.84635e-08
1.70787e-08
1.69194e-08
1.68207e-08
1.71903e-08
2.43994e-08
1.12788e-07
9.95586e-07
0.000268526
5.49749e-05
9.52749e-06
1.40905e-06
1.89527e-07
3.94782e-08
2.57037e-08
2.48811e-08
2.4419e-08
2.34872e-08
2.28194e-08
2.75453e-08
9.5272e-08
7.88386e-07
0.000338061
6.64079e-05
1.09402e-05
1.54186e-06
2.23238e-07
8.45136e-08
8.31078e-08
8.66251e-08
8.51492e-08
7.92725e-08
7.23742e-08
7.0882e-08
1.226e-07
6.95666e-07
0.000416991
7.89975e-05
1.25651e-05
1.81034e-06
4.41633e-07
3.92236e-07
4.7052e-07
5.09851e-07
5.11008e-07
4.82074e-07
4.40697e-07
4.07464e-07
4.3208e-07
1.0275e-06
0.000494918
9.16402e-05
1.47204e-05
2.7762e-06
1.69829e-06
2.19964e-06
2.7539e-06
3.04647e-06
3.11832e-06
3.01566e-06
2.8162e-06
2.6269e-06
2.52036e-06
3.66177e-06
0.000588077
0.000112899
2.11949e-05
7.47552e-06
8.20846e-06
1.15743e-05
1.46228e-05
1.6417e-05
1.71106e-05
1.69254e-05
1.61494e-05
1.53387e-05
1.45266e-05
1.78581e-05
0.000793267
0.000183031
4.84884e-05
2.91355e-05
3.82093e-05
5.47011e-05
6.92781e-05
7.87592e-05
8.344e-05
8.42247e-05
8.19634e-05
7.93227e-05
7.54627e-05
8.48815e-05
0.00156972
0.000457965
0.000162181
0.000120808
0.000162286
0.000231574
0.000293117
0.000336437
0.000361193
0.000370525
0.000367081
0.000361777
0.000349634
0.000373287
4.56986e-06
9.28931e-07
2.35835e-07
1.08617e-07
9.46749e-08
1.09507e-07
1.36432e-07
1.60653e-07
1.71601e-07
1.55753e-07
1.12916e-07
6.94974e-08
5.5144e-08
1.90459e-07
3.88891e-06
8.33271e-07
1.71686e-07
4.43557e-08
2.33919e-08
2.20248e-08
2.4788e-08
2.84037e-08
3.12961e-08
3.14558e-08
2.77743e-08
2.39609e-08
3.50781e-08
1.72711e-07
6.55002e-06
1.52693e-06
3.2514e-07
7.17745e-08
2.48578e-08
1.74332e-08
1.66463e-08
1.68737e-08
1.72141e-08
1.73709e-08
1.72034e-08
1.79471e-08
3.16354e-08
1.6356e-07
1.09976e-05
2.61921e-06
5.60361e-07
1.15118e-07
3.14681e-08
1.80336e-08
1.62435e-08
1.6074e-08
1.60898e-08
1.61151e-08
1.61705e-08
1.71094e-08
2.8884e-08
1.44574e-07
1.64128e-05
3.85203e-06
8.04286e-07
1.56155e-07
3.72219e-08
1.86809e-08
1.62848e-08
1.60394e-08
1.60246e-08
1.60316e-08
1.60838e-08
1.68464e-08
2.64844e-08
1.25489e-07
2.22162e-05
5.00771e-06
9.95881e-07
1.81818e-07
3.98285e-08
1.88649e-08
1.63012e-08
1.60513e-08
1.60348e-08
1.60385e-08
1.6077e-08
1.66563e-08
2.42614e-08
1.06368e-07
2.89543e-05
6.21136e-06
1.16357e-06
1.98389e-07
4.05426e-08
1.8812e-08
1.63495e-08
1.61264e-08
1.61067e-08
1.60992e-08
1.61181e-08
1.65537e-08
2.25351e-08
8.96343e-08
3.687e-05
7.52839e-06
1.32818e-06
2.11866e-07
4.0964e-08
1.91613e-08
1.6968e-08
1.67953e-08
1.67349e-08
1.66404e-08
1.65606e-08
1.68171e-08
2.13378e-08
7.36438e-08
4.54436e-05
8.88798e-06
1.48899e-06
2.25131e-07
4.37122e-08
2.31615e-08
2.21069e-08
2.22324e-08
2.19467e-08
2.12712e-08
2.05181e-08
2.01658e-08
2.33405e-08
6.53487e-08
5.4842e-05
1.03338e-05
1.66567e-06
2.50979e-07
6.41079e-08
5.20526e-08
5.81245e-08
6.08342e-08
5.97862e-08
5.58829e-08
5.09889e-08
4.69835e-08
4.66385e-08
8.62017e-08
6.34792e-05
1.16524e-05
1.87055e-06
3.42268e-07
1.86905e-07
2.28508e-07