/*--------------------------------*- C++ -*----------------------------------*\
| =========                 |                                                 |
| \\      /  F ield         | OpenFOAM: The Open Source CFD Toolbox           |
|  \\    /   O peration     | Version:  v2106                                 |
|   \\  /    A nd           | Website:  www.openfoam.com                      |
|    \\/     M anipulation  |                                                 |
\*---------------------------------------------------------------------------*/
FoamFile
{
    version     2.0;
    format      ascii;
    arch        "LSB;label=32;scalar=64";
    class       volScalarField;
    location    "0.000175";
    object      nut;
}
// * * * * * * * * * * * * * * * * * * * * * * * * * * * * * * * * * * * * * //

dimensions      [0 2 -1 0 0 0 0];

internalField   nonuniform List<scalar> 
18109
(
1.59342e-07
7.23862e-08
4.24972e-08
3.08722e-08
2.70373e-08
2.64015e-08
2.82121e-08
7.94552e-08
2.29222e-08
9.06222e-09
5.99046e-09
5.36963e-09
5.35705e-09
5.79156e-09
4.70597e-08
9.97272e-09
2.17946e-09
9.45252e-10
7.83315e-10
7.88583e-10
8.85946e-10
3.60479e-08
7.65519e-09
1.39774e-09
2.7262e-10
1.01477e-10
8.70906e-11
1.22937e-10
3.28164e-08
7.57352e-09
1.49551e-09
2.50932e-10
3.84304e-11
1.3426e-11
3.49781e-11
3.38383e-08
8.02281e-09
1.59343e-09
2.56279e-10
3.39068e-11
8.84186e-12
2.78681e-11
3.94285e-08
9.18807e-09
1.73474e-09
2.65496e-10
4.14908e-11
2.01254e-11
4.3779e-11
4.9466e-08
1.10124e-08
1.98205e-09
3.40753e-10
1.17704e-10
1.07423e-10
1.48453e-10
9.45595e-08
3.82306e-08
1.99466e-08
1.30304e-08
1.044e-08
9.50437e-09
9.56248e-09
1.01328e-08
1.20658e-08
1.74881e-08
3.37728e-08
8.19497e-08
2.08412e-07
4.92954e-07
4.57553e-08
1.14582e-08
3.63596e-09
2.00649e-09
1.63167e-09
1.53428e-09
1.59824e-09
1.7762e-09
2.50225e-09
5.36625e-09
1.58817e-08
4.94796e-08
1.40402e-07
3.47954e-07
2.69138e-08
5.43092e-09
1.00116e-09
2.86528e-10
1.84427e-10
1.72868e-10
1.9492e-10
2.8762e-10
7.32903e-10
2.62795e-09
9.64941e-09
3.21323e-08
9.40133e-08
2.40161e-07
2.21505e-08
4.88592e-09
9.05738e-10
1.50185e-10
2.94915e-11
1.56356e-11
2.52309e-11
8.48064e-11
3.77162e-10
1.62397e-09
6.25281e-09
2.12539e-08
6.36824e-08
1.68401e-07
2.19906e-08
5.17042e-09
1.022e-09
1.67951e-10
2.2234e-11
3.90732e-12
9.19668e-12
5.02892e-11
2.55813e-10
1.14541e-09
4.49561e-09
1.55367e-08
4.7534e-08
1.29712e-07
2.41509e-08
5.66552e-09
1.10359e-09
1.73549e-10
2.1488e-11
3.7204e-12
8.03871e-12
4.26896e-11
2.15739e-10
9.63349e-10
3.77832e-09
1.31007e-08
4.05652e-08
1.13572e-07
2.94558e-08
6.69101e-09
1.2252e-09
1.82199e-10
2.69549e-11
1.11678e-11
1.64743e-11
5.35669e-11
2.34108e-10
9.99979e-10
3.85115e-09
1.32515e-08
4.10567e-08
1.1588e-07
3.78888e-08
8.16096e-09
1.41283e-09
2.33216e-10
7.77488e-11
6.82932e-11
7.96337e-11
1.32546e-10
3.70942e-10
1.34138e-09
4.85677e-09
1.61947e-08
4.90216e-08
1.35258e-07
4.89076e-08
1.02212e-08
1.92072e-09
5.31003e-10
3.73359e-10
3.9312e-10
4.40973e-10
5.63127e-10
9.81714e-10
2.50415e-09
7.6774e-09
2.35301e-08
6.7092e-08
1.75248e-07
6.46614e-08
1.48931e-08
4.01632e-09
1.94468e-09
1.7218e-09
1.86892e-09
2.11561e-09
2.57112e-09
3.61061e-09
6.53858e-09
1.52641e-08
3.98499e-08
1.02377e-07
2.45732e-07
9.57607e-08
2.98627e-08
1.22741e-08
7.57895e-09
6.8373e-09
7.39963e-09
8.49644e-09
1.03396e-08
1.35706e-08
2.03143e-08
3.66125e-08
7.74252e-08
1.72345e-07
3.72286e-07
1.72374e-07
7.51676e-08
3.94154e-08
2.6436e-08
2.33065e-08
2.48454e-08
2.88293e-08
3.54284e-08
4.56777e-08
6.29022e-08
9.57515e-08
1.66062e-07
3.13154e-07
5.99081e-07
3.44578e-07
1.87738e-07
1.12353e-07
7.92165e-08
6.8697e-08
7.18502e-08
8.37462e-08
1.0382e-07
1.33507e-07
1.77738e-07
2.47351e-07
3.7103e-07
5.98709e-07
1.01222e-06
6.7633e-07
4.19529e-07
2.73867e-07
2.03633e-07
1.7733e-07
1.82448e-07
2.11569e-07
2.62405e-07
3.36973e-07
4.42659e-07
5.89898e-07
8.04226e-07
1.13425e-06
1.68528e-06
3.59837e-07
8.05192e-07
1.69532e-06
3.1972e-06
5.45611e-06
8.71215e-06
2.20829e-07
5.35508e-07
1.21493e-06
2.42541e-06
4.29305e-06
6.93844e-06
1.34219e-07
4.0521e-07
1.03913e-06
2.21076e-06
4.00802e-06
6.65896e-06
8.91161e-08
3.08972e-07
8.54441e-07
1.90278e-06
3.61408e-06
6.55647e-06
6.21208e-08
2.33016e-07
6.82629e-07
1.60966e-06
3.31174e-06
6.66455e-06
4.8845e-08
1.88413e-07
5.69946e-07
1.41526e-06
3.15917e-06
6.93178e-06
4.31517e-08
1.6515e-07
5.04714e-07
1.3113e-06
3.13243e-06
7.26339e-06
4.2296e-08
1.58363e-07
4.84456e-07
1.29725e-06
3.21271e-06
7.56912e-06
4.4448e-08
1.6284e-07
4.97463e-07
1.3453e-06
3.3434e-06
7.73727e-06
5.21933e-08
1.85531e-07
5.55661e-07
1.47159e-06
3.53909e-06
7.78008e-06
6.92082e-08
2.34742e-07
6.69433e-07
1.67435e-06
3.75896e-06
7.6335e-06
1.03964e-07
3.25595e-07
8.57518e-07
1.96866e-06
4.02718e-06
7.41603e-06
1.758e-07
4.89623e-07
1.15748e-06
2.38855e-06
4.39186e-06
7.28731e-06
3.20062e-07
7.66599e-07
1.6006e-06
2.94901e-06
4.87825e-06
7.34314e-06
5.86016e-07
1.17522e-06
2.14277e-06
3.53764e-06
5.35614e-06
7.57505e-06
1.05609e-06
1.72692e-06
2.67909e-06
3.939e-06
5.59842e-06
7.92642e-06
7.53262e-07
1.35199e-06
2.25725e-06
3.55618e-06
5.49645e-06
8.63646e-06
5.3851e-07
1.05813e-06
1.91946e-06
3.32846e-06
5.7538e-06
1.00729e-05
3.94657e-07
8.53137e-07
1.72098e-06
3.34723e-06
6.40377e-06
1.1988e-05
3.19632e-07
7.57322e-07
1.67925e-06
3.55245e-06
7.19484e-06
1.3799e-05
2.91752e-07
7.37299e-07
1.73382e-06
3.8255e-06
7.90535e-06
1.5098e-05
3.01142e-07
7.76375e-07
1.85019e-06
4.07941e-06
8.33431e-06
1.55574e-05
3.42906e-07
8.63673e-07
2.00367e-06
4.28841e-06
8.47903e-06
1.5329e-05
4.21782e-07
1.00736e-06
2.21662e-06
4.50599e-06
8.47966e-06
1.46899e-05
5.48245e-07
1.21305e-06
2.48753e-06
4.74521e-06
8.44194e-06
1.39408e-05
7.59166e-07
1.53354e-06
2.89668e-06
5.13538e-06
8.56607e-06
1.3356e-05
1.11209e-06
2.04457e-06
3.54421e-06
5.8021e-06
9.00751e-06
1.32574e-05
1.71911e-06
2.85831e-06
4.52658e-06
6.83384e-06
9.89292e-06
1.39089e-05
2.65135e-06
3.97111e-06
5.733e-06
8.00834e-06
1.09882e-05
1.53167e-05
2.53712e-06
4.05987e-06
5.95851e-06
8.33117e-06
1.16526e-05
1.69285e-05
2.08504e-06
3.45711e-06
5.24181e-06
7.72615e-06
1.17418e-05
1.86824e-05
1.63999e-06
2.84363e-06
4.53813e-06
7.23895e-06
1.21393e-05
2.10579e-05
1.26447e-06
2.30532e-06
3.93418e-06
6.85612e-06
1.25059e-05
2.29087e-05
9.67901e-07
1.86268e-06
3.42655e-06
6.46401e-06
1.25678e-05
2.40086e-05
7.43848e-07
1.51209e-06
2.98287e-06
5.98242e-06
1.20818e-05
2.36708e-05
5.8291e-07
1.24428e-06
2.59973e-06
5.45138e-06
1.13059e-05
2.2354e-05
4.73517e-07
1.05609e-06
2.31246e-06
4.98199e-06
1.03687e-05
2.04043e-05
4.11248e-07
9.45034e-07
2.12148e-06
4.61551e-06
9.51514e-06
1.84071e-05
3.99316e-07
9.18424e-07
2.0555e-06
4.41014e-06
8.87093e-06
1.65431e-05
4.47065e-07
9.79241e-07
2.12137e-06
4.38473e-06
8.39299e-06
1.49823e-05
5.71837e-07
1.15913e-06
2.32743e-06
4.53849e-06
8.17817e-06
1.40547e-05
8.20302e-07
1.52787e-06
2.80515e-06
4.98185e-06
8.5101e-06
1.3951e-05
1.23818e-06
2.13639e-06
3.61167e-06
5.90404e-06
9.28994e-06
1.41057e-05
1.3949e-07
4.1702e-07
1.0993e-06
2.586e-06
5.43753e-06
1.0588e-05
1.60537e-07
4.44342e-07
1.10154e-06
2.45914e-06
4.95203e-06
9.32202e-06
1.89343e-07
4.67972e-07
1.10737e-06
2.38711e-06
4.66762e-06
8.72973e-06
2.34142e-07
5.1143e-07
1.17599e-06
2.48739e-06
4.8882e-06
8.75019e-06
8.75278e-07
1.7082e-06
3.48763e-06
6.15428e-06
9.38435e-06
1.3824e-05
5.76029e-07
1.4087e-06
3.139e-06
5.59411e-06
8.65474e-06
1.35248e-05
4.13697e-07
1.18922e-06
2.70113e-06
4.7757e-06
7.6462e-06
1.32644e-05
3.19271e-07
9.61107e-07
2.19317e-06
3.96547e-06
6.79217e-06
1.31521e-05
2.52248e-07
7.54276e-07
1.73299e-06
3.26179e-06
6.12696e-06
1.31743e-05
1.95768e-07
5.79542e-07
1.34287e-06
2.69626e-06
5.63283e-06
1.30384e-05
1.48568e-07
4.39898e-07
1.04492e-06
2.28665e-06
5.25252e-06
1.25266e-05
1.12461e-07
3.35274e-07
8.39967e-07
2.02007e-06
4.91579e-06
1.1621e-05
9.00146e-08
2.71692e-07
7.2924e-07
1.8837e-06
4.63372e-06
1.05278e-05
8.12101e-08
2.49095e-07
6.984e-07
1.82805e-06
4.35089e-06
9.34187e-06
8.45588e-08
2.59119e-07
7.1854e-07
1.80534e-06
4.05043e-06
8.21353e-06
9.98403e-08
2.90826e-07
7.60894e-07
1.79187e-06
3.78269e-06
7.32222e-06
1.23409e-07
3.26046e-07
8.06367e-07
1.8028e-06
3.63258e-06
6.8674e-06
1.48911e-07
3.5358e-07
8.605e-07
1.89313e-06
3.81079e-06
6.97197e-06
1.06356e-05
2.50659e-05
6.91889e-05
6.60303e-05
5.24867e-05
1.12328e-05
2.93873e-05
7.48987e-05
6.36085e-05
5.06227e-05
1.25196e-05
3.37344e-05
7.64907e-05
6.22863e-05
5.05772e-05
1.39299e-05
3.79217e-05
7.61228e-05
6.25941e-05
5.16548e-05
1.52492e-05
4.12631e-05
7.41048e-05
6.27499e-05
5.24795e-05
1.60444e-05
4.19146e-05
7.02908e-05
6.21225e-05
5.27147e-05
1.62441e-05
3.9594e-05
6.43422e-05
6.09646e-05
5.35655e-05
1.57978e-05
3.56045e-05
5.77371e-05
6.07793e-05
5.54862e-05
5.87237e-05
1.47732e-05
3.10439e-05
5.09606e-05
6.06293e-05
5.73219e-05
6.16894e-05
1.33442e-05
2.65549e-05
4.41884e-05
5.92347e-05
5.7833e-05
6.36501e-05
1.18514e-05
2.24739e-05
3.85179e-05
5.70417e-05
5.6682e-05
6.43621e-05
7.55989e-05
1.06461e-05
1.94097e-05
3.49342e-05
5.54676e-05
5.47297e-05
6.23682e-05
8.68029e-05
8.55245e-05
9.96768e-06
1.82837e-05
3.52975e-05
5.55094e-05
5.35495e-05
5.86799e-05
8.80173e-05
0.000182126
1.01539e-05
2.02883e-05
4.12937e-05
5.68741e-05
5.41499e-05
5.73656e-05
6.52754e-05
0.000183951
1.14115e-05
2.53596e-05
5.07503e-05
5.7106e-05
5.44457e-05
5.78285e-05
6.32245e-05
0.000166198
1.38076e-05
3.16161e-05
5.75501e-05
5.55195e-05
5.36739e-05
5.91054e-05
6.40143e-05
0.000155551
1.73449e-05
3.83098e-05
6.14148e-05
5.49958e-05
5.46382e-05
6.12456e-05
6.42855e-05
9.00076e-05
2.10944e-05
4.38849e-05
6.34347e-05
5.67179e-05
5.72096e-05
6.38098e-05
6.28122e-05
0.000121336
2.40365e-05
4.66845e-05
6.36282e-05
5.92235e-05
5.97748e-05
6.57547e-05
6.12644e-05
0.000123617
2.56097e-05
4.6467e-05
6.25447e-05
6.18109e-05
6.17342e-05
6.74754e-05
6.07634e-05
9.76164e-05
2.55573e-05
4.36756e-05
6.02951e-05
6.46425e-05
6.40617e-05
6.98518e-05
6.30939e-05
4.1166e-05
2.43768e-05
4.02304e-05
5.85808e-05
6.84372e-05
6.64795e-05
7.30334e-05
6.78097e-05
4.24182e-05
2.24029e-05
3.67487e-05
5.72948e-05
7.14989e-05
6.81564e-05
7.52439e-05
2.04187e-05
3.38771e-05
5.75304e-05
7.21909e-05
6.73378e-05
7.63043e-05
1.88746e-05
3.22299e-05
5.97481e-05
7.00814e-05
6.44347e-05
7.6401e-05
1.82733e-05
3.33149e-05
6.4398e-05
6.6424e-05
6.08062e-05
7.34903e-05
1.91485e-05
3.81242e-05
7.04995e-05
6.18983e-05
5.78007e-05
6.9186e-05
2.17617e-05
4.6234e-05
7.52971e-05
5.84526e-05
5.60685e-05
2.55541e-05
5.55429e-05
7.59183e-05
5.66804e-05
5.58726e-05
3.01701e-05
6.43831e-05
7.34104e-05
5.62604e-05
5.61564e-05
3.53579e-05
7.21647e-05
7.1312e-05
5.74567e-05
5.79463e-05
3.90797e-05
7.49867e-05
7.03282e-05
6.07759e-05
6.08713e-05
4.13966e-05
7.19933e-05
6.93133e-05
6.44097e-05
6.32431e-05
4.13349e-05
6.44042e-05
6.68589e-05
6.75306e-05
6.4462e-05
3.85348e-05
5.59277e-05
6.38202e-05
7.05714e-05
6.56922e-05
3.42657e-05
4.83151e-05
6.2017e-05
7.4594e-05
6.6702e-05
2.99063e-05
4.20608e-05
6.2116e-05
7.806e-05
6.64401e-05
2.60698e-05
3.69814e-05
6.52524e-05
7.89883e-05
6.36457e-05
2.29574e-05
3.37465e-05
7.15761e-05
7.61786e-05
5.95826e-05
2.06604e-05
3.4221e-05
8.01811e-05
7.16878e-05
5.61758e-05
1.95516e-05
3.91713e-05
8.90546e-05
6.76744e-05
5.41234e-05
1.99839e-05
4.80586e-05
9.27131e-05
6.59326e-05
5.38297e-05
2.15266e-05
5.77555e-05
9.06969e-05
6.56682e-05
5.35474e-05
2.37594e-05
6.73052e-05
8.71093e-05
6.45541e-05
5.29441e-05
2.67255e-05
7.46244e-05
8.47473e-05
6.36614e-05
5.32944e-05
2.97569e-05
7.55002e-05
8.26419e-05
6.42958e-05
5.47018e-05
3.19242e-05
7.12482e-05
7.91571e-05
6.46305e-05
5.5628e-05
3.21348e-05
6.31445e-05
7.34538e-05
6.43325e-05
5.61441e-05
3.01805e-05
5.36549e-05
6.57839e-05
6.37668e-05
5.71995e-05
2.68065e-05
4.47122e-05
5.78972e-05
6.41269e-05
5.8501e-05
2.29748e-05
3.69289e-05
5.04702e-05
6.47768e-05
5.93657e-05
1.92787e-05
3.02973e-05
4.39169e-05
6.47179e-05
5.86204e-05
1.60636e-05
2.48988e-05
3.93544e-05
6.41636e-05
5.68315e-05
1.35095e-05
2.09577e-05
3.8962e-05
6.42455e-05
5.51838e-05
1.17583e-05
1.92194e-05
4.51988e-05
6.52743e-05
5.44709e-05
1.08161e-05
2.08282e-05
5.72405e-05
6.65602e-05
5.41372e-05
6.35688e-08
2.43378e-08
1.21684e-08
7.56363e-09
5.6715e-09
4.82611e-09
4.53521e-09
4.41921e-09
4.95045e-09
7.55553e-09
1.68125e-08
4.62943e-08
1.28371e-07
3.24655e-07
3.02027e-08
7.01164e-09
1.98833e-09
9.74121e-10
7.16817e-10
6.25715e-10
6.10528e-10
6.35453e-10
9.2235e-10
2.37548e-09
8.23306e-09
2.82472e-08
8.60734e-08
2.27221e-07
1.82045e-08
3.64214e-09
6.36117e-10
1.39242e-10
6.39395e-11
5.16554e-11
5.56327e-11
9.22225e-11
3.04428e-10
1.29135e-09
5.1892e-09
1.84437e-08
5.72219e-08
1.54811e-07
1.63355e-08
3.68092e-09
6.89598e-10
1.10849e-10
1.62514e-11
4.11967e-12
7.00486e-12
3.29911e-11
1.71695e-10
8.05684e-10
3.31353e-09
1.19499e-08
3.78797e-08
1.05854e-07
1.73376e-08
4.06247e-09
7.97748e-10
1.30696e-10
1.68419e-11
2.12517e-12
3.37412e-12
2.02798e-11
1.11898e-10
5.39597e-10
2.27085e-09
8.37093e-09
2.71503e-08
7.79668e-08
1.97816e-08
4.56872e-09
8.75095e-10
1.36165e-10
1.66774e-11
2.48142e-12
3.27578e-12
1.62862e-11
8.71728e-11
4.20026e-10
1.77573e-09
6.58387e-09
2.15412e-08
6.29154e-08
2.47599e-08
5.51932e-09
9.88849e-10
1.44996e-10
2.16936e-11
9.24646e-12
1.06525e-11
2.33923e-11
9.01723e-11
3.98057e-10
1.63707e-09
6.00211e-09
1.96109e-08
5.78361e-08
3.23581e-08
6.82882e-09
1.14987e-09
1.85742e-10
6.35793e-11
5.88358e-11
6.62722e-11
8.6618e-11
1.70688e-10
5.30298e-10
1.9279e-09
6.75213e-09
2.16084e-08
6.29507e-08
4.24348e-08
8.63871e-09
1.53929e-09
4.06506e-10
2.96035e-10
3.29091e-10
3.75889e-10
4.468e-10
6.19847e-10
1.20184e-09
3.25956e-09
1.0005e-08
2.99195e-08
8.28269e-08
5.67359e-08
1.2394e-08
3.0375e-09
1.42009e-09
1.32139e-09
1.51256e-09
1.76022e-09
2.10187e-09
2.68261e-09
4.02971e-09
7.91092e-09
1.93957e-08
5.06344e-08
1.26911e-07
8.31422e-08
2.37383e-08
8.89453e-09
5.39978e-09
5.11457e-09
5.82612e-09
6.88457e-09
8.3772e-09
1.06005e-08
1.4542e-08
2.32456e-08
4.53247e-08
9.92714e-08
2.1908e-07
1.45489e-07
5.80859e-08
2.83438e-08
1.8652e-08
1.70882e-08
1.91454e-08
2.2881e-08
2.83558e-08
3.61637e-08
4.81559e-08
6.91603e-08
1.13229e-07
2.07684e-07
3.99164e-07
2.85174e-07
1.44761e-07
8.1352e-08
5.58945e-08
4.97249e-08
5.45109e-08
6.55718e-08
8.24568e-08
1.06206e-07
1.40195e-07
1.91157e-07
2.78977e-07
4.40176e-07
7.41378e-07
5.60919e-07
3.27818e-07
2.01501e-07
1.4496e-07
1.27454e-07
1.36612e-07
1.63979e-07
2.07816e-07
2.696e-07
3.55268e-07
4.72253e-07
6.39205e-07
8.91027e-07
1.31411e-06
1.97795e-08
9.17412e-09
5.81058e-09
3.88838e-09
2.73325e-09
2.10126e-09
1.78848e-09
1.55479e-09
1.43768e-09
1.70454e-09
3.53648e-09
1.10404e-08
3.64579e-08
1.09118e-07
8.1468e-09
1.99495e-09
7.64914e-10
4.41157e-10
2.9923e-10
2.34117e-10
2.08427e-10
1.90545e-10
2.08952e-10
4.46712e-10
1.72418e-09
7.07328e-09
2.57039e-08
8.01168e-08
6.02113e-09
1.25672e-09
2.34522e-10
5.39341e-11
2.22101e-11
1.58003e-11
1.49322e-11
1.84096e-11
5.13693e-11
2.5008e-10
1.21573e-09
5.15636e-09
1.87851e-08
5.88274e-08
7.42151e-09
1.65738e-09
3.0205e-10
4.75592e-11
6.562e-12
1.10066e-12
9.9161e-13
4.61652e-12
2.96195e-11
1.71814e-10
8.54444e-10
3.64332e-09
1.33863e-08
4.257e-08
9.22046e-09
2.04819e-09
3.77474e-10
5.90637e-11
7.42612e-12
7.47589e-13
4.15832e-13
2.92696e-12
2.03185e-11
1.20245e-10
6.06849e-10
2.62687e-09
9.81014e-09
3.17827e-08
1.14601e-08
2.47689e-09
4.3662e-10
6.36199e-11
7.51335e-12
9.25259e-13
5.89968e-13
2.48947e-12
1.5723e-11
9.19253e-11
4.638e-10
2.01097e-09
7.53474e-09
2.46285e-08
1.51304e-08
3.14343e-09
5.15131e-10
6.94986e-11
9.48035e-12
3.54127e-12
3.49131e-12
5.16378e-12
1.60734e-11
7.78067e-11
3.76013e-10
1.60957e-09
6.02435e-09
1.9948e-08
2.04896e-08
4.03908e-09
6.11713e-10
8.55697e-11
2.55191e-11
2.34669e-11
2.61418e-11
2.97103e-11
4.21076e-11
1.01499e-10
3.7635e-10
1.49987e-09
5.54494e-09
1.85654e-08
2.76811e-08
5.1976e-09
7.76542e-10
1.63625e-10
1.18288e-10
1.37736e-10
1.59726e-10
1.81826e-10
2.17368e-10
3.11131e-10
6.63069e-10
2.02376e-09
6.84129e-09
2.2132e-08
3.7473e-08
6.95354e-09
1.2655e-09
5.22636e-10
5.45061e-10
6.65973e-10
7.93666e-10
9.31961e-10
1.1134e-09
1.40452e-09
2.10482e-09
4.36041e-09
1.17305e-08
3.34573e-08
5.20977e-08
1.09955e-08
3.13165e-09
1.96151e-09
2.18321e-09
2.69636e-09
3.28604e-09
3.9756e-09
4.85396e-09
6.0443e-09
8.0396e-09
1.28824e-08
2.65489e-08
6.26584e-08
8.10951e-08
2.33034e-08
9.74156e-09
6.9276e-09
7.53251e-09
9.28506e-09
1.1532e-08
1.43083e-08
1.78355e-08
2.23892e-08
2.87294e-08
4.05649e-08
6.79841e-08
1.32363e-07
1.44763e-07
5.76177e-08
2.94708e-08
2.16991e-08
2.26267e-08
2.75476e-08
3.46857e-08
4.39166e-08
5.56956e-08
7.07661e-08
9.02332e-08
1.20072e-07
1.75025e-07
2.88909e-07
2.83007e-07
1.40144e-07
7.95864e-08
6.00688e-08
6.0334e-08
7.17827e-08
9.06285e-08
1.16218e-07
1.49365e-07
1.92014e-07
2.45891e-07
3.17704e-07
4.21375e-07
6.00555e-07
5.14702e-09
2.37758e-09
1.53254e-09
1.03395e-09
7.07425e-10
5.02279e-10
4.09232e-10
3.45975e-10
3.01032e-10
2.84638e-10
4.85255e-10
1.66241e-09
6.63135e-09
2.41348e-08
2.06942e-09
4.7096e-10
1.6937e-10
9.64736e-11
6.33411e-11
4.53089e-11
3.85507e-11
3.38419e-11
3.25408e-11
5.41018e-11
2.22845e-10
1.10583e-09
4.85909e-09
1.8146e-08
2.14972e-09
4.44192e-10
7.62954e-11
1.37062e-11
4.01784e-12
2.24264e-12
1.952e-12
2.07079e-12
4.94006e-12
2.75727e-11
1.65513e-10
8.57693e-10
3.75742e-09
1.39493e-08
3.16406e-09
6.72499e-10
1.1774e-10
1.74506e-11
2.26995e-12
2.58765e-13
7.28709e-14
3.35152e-13
2.80441e-12
2.06439e-11
1.27139e-10
6.57278e-10
2.87295e-09
1.06923e-08
4.22788e-09
8.81855e-10
1.5578e-10
2.263e-11
2.77291e-12
2.72372e-13
4.4336e-14
2.40327e-13
2.12322e-12
1.57622e-11
9.75328e-11
5.06597e-10
2.22588e-09
8.33872e-09
5.57664e-09
1.11704e-09
1.88713e-10
2.53748e-11
2.87024e-12
3.2124e-13
1.12151e-13
2.63615e-13
1.73637e-12
1.2434e-11
7.67093e-11
3.99111e-10
1.75814e-09
6.60141e-09
7.72172e-09
1.47989e-09
2.33259e-10
2.8725e-11
3.41234e-12
1.00929e-12
9.1748e-13
1.07131e-12
2.25709e-12
1.08013e-11
6.19254e-11
3.17048e-10
1.38862e-09
5.2095e-09
1.08413e-08
1.97048e-09
2.84367e-10
3.4144e-11
7.60859e-12
6.52672e-12
7.39796e-12
8.06786e-12
9.39455e-12
1.65527e-11
5.78951e-11
2.61902e-10
1.11861e-09
4.22337e-09
1.50643e-08
2.60193e-09
3.51472e-10
5.45534e-11
3.34869e-11
4.03854e-11
4.80495e-11
5.38267e-11
5.95736e-11
7.05295e-11
1.14928e-10
3.19715e-10
1.1779e-09
4.35255e-09
2.04667e-08
3.43352e-09
4.90687e-10
1.48984e-10
1.6179e-10
2.09371e-10
2.5557e-10
2.95668e-10
3.3517e-10
3.81361e-10
4.73053e-10
7.91203e-10
2.03318e-09
6.46647e-09
2.72251e-08
4.86871e-09
9.78519e-10
5.52874e-10
6.92675e-10
9.12921e-10
1.13802e-09
1.35535e-09
1.58035e-09
1.82918e-09
2.1696e-09
2.95731e-09
5.50961e-09
1.37595e-08
3.88267e-08
9.06862e-09
2.88209e-09
2.07172e-09
2.56038e-09
3.385e-09
4.30139e-09
5.25718e-09
6.28429e-09
7.43862e-09
8.83779e-09
1.12236e-08
1.72095e-08
3.44098e-08
6.33874e-08
2.19445e-08
9.40092e-09
7.10234e-09
8.26859e-09
1.07927e-08
1.39185e-08
1.74088e-08
2.12803e-08
2.57443e-08
3.10102e-08
3.84434e-08
5.24581e-08
8.71176e-08
1.2276e-07
5.71339e-08
2.88972e-08
2.20276e-08
2.39159e-08
3.01663e-08
3.89788e-08
4.9593e-08
6.1838e-08
7.63423e-08
9.35925e-08
1.15667e-07
1.47604e-07
2.09443e-07
1.16677e-09
3.91267e-10
2.12789e-10
1.42343e-10
9.76854e-11
7.28304e-11
6.17881e-11
5.42105e-11
4.75033e-11
3.95075e-11
4.53118e-11
1.40553e-10
6.59196e-10
2.91124e-09
6.53585e-10
1.193e-10
2.52146e-11
1.03992e-11
6.35076e-12
4.82755e-12
4.3644e-12
4.01816e-12
3.73002e-12
4.48042e-12
1.64023e-11
9.64101e-11
5.13636e-10
2.30645e-09
8.46907e-10
1.72032e-10
2.6786e-11
3.8586e-12
5.76488e-13
1.64205e-13
1.24997e-13
1.32928e-13
2.76712e-13
1.7119e-12
1.27085e-11
8.08399e-11
4.28742e-10
1.90552e-09
1.2784e-09
2.68221e-10
4.29775e-11
6.21485e-12
7.57944e-13
7.94221e-14
7.79473e-15
1.34995e-14
1.45911e-13
1.37784e-12
1.06358e-11
6.75577e-11
3.56462e-10
1.57806e-09
1.74504e-09
3.62602e-10
5.69706e-11
7.97448e-12
9.20783e-13
9.15183e-14
8.82213e-15
1.15984e-14
1.20046e-13
1.13583e-12
8.79656e-12
5.60484e-11
2.96699e-10
1.31839e-09
2.3091e-09
4.68979e-10
6.97211e-11
8.92518e-12
9.38893e-13
1.00389e-13
2.61131e-14
2.85249e-14
1.1703e-13
9.54467e-13
7.2927e-12
4.6506e-11
2.46991e-10
1.10158e-09
3.12863e-09
6.21411e-10
8.66385e-11
9.94219e-12
1.03858e-12
2.56889e-13
2.20955e-13
2.33728e-13
3.04515e-13
9.83422e-13
6.17408e-12
3.83148e-11
2.02783e-10
9.04491e-10
4.20321e-09
8.11634e-10
1.05843e-10
1.12846e-11
1.96097e-12
1.57556e-12
1.81547e-12
1.96926e-12
2.07727e-12
2.61435e-12
6.74309e-12
3.24221e-11
1.63437e-10
7.21349e-10
5.48927e-09
1.03293e-09
1.28995e-10
1.58068e-11
8.08584e-12
1.00647e-11
1.21983e-11
1.36203e-11
1.44963e-11
1.5395e-11
1.93547e-11
4.26481e-11
1.60391e-10
6.6355e-10
7.00871e-09
1.29615e-09
1.67937e-10
3.74245e-11
4.04318e-11
5.48631e-11
6.78445e-11
7.78191e-11
8.51303e-11
9.08544e-11
9.93319e-11
1.32059e-10
2.84857e-10
9.22572e-10
8.78368e-09
1.68177e-09
2.80055e-10
1.3485e-10
1.83096e-10
2.53208e-10
3.18126e-10
3.73839e-10
4.19703e-10
4.58727e-10
5.00178e-10
5.89162e-10
9.16343e-10
2.17385e-09
1.1707e-08
2.75094e-09
7.35194e-10
5.26274e-10
7.19101e-10
9.97571e-10
1.27281e-09
1.52912e-09
1.75648e-09
1.96676e-09
2.18331e-09
2.51317e-09
3.37788e-09
6.35241e-09
1.84148e-08
6.25578e-09
2.44978e-09
1.93343e-09
2.4704e-09
3.38505e-09
4.37882e-09
5.3714e-09
6.30201e-09
7.22076e-09
8.19615e-09
9.46152e-09
1.17885e-08
1.86264e-08
3.73224e-08
1.69574e-08
8.26764e-09
6.56005e-09
7.61537e-09
1.00353e-08
1.30371e-08
1.62906e-08
1.95167e-08
2.28672e-08
2.65604e-08
3.10813e-08
3.72933e-08
5.13905e-08
2.37763e-10
5.57706e-11
1.99291e-11
1.17106e-11
8.02295e-12
6.28261e-12
5.9152e-12
5.65393e-12
5.20205e-12
4.31109e-12
3.72022e-12
8.83533e-12
4.70981e-11
2.49507e-10
1.62475e-10
3.18247e-11
5.12175e-12
8.76449e-13
3.12054e-13
2.35251e-13
2.60057e-13
2.86143e-13
2.95895e-13
3.12366e-13
8.96576e-13
6.02836e-12
3.8663e-11
2.07663e-10
2.37999e-10
5.3311e-11
9.31672e-12
1.27593e-12
1.64246e-13
1.91521e-14
4.93456e-15
5.93258e-15
1.27065e-14
7.73435e-14
6.8773e-13
5.33918e-12
3.41942e-11
1.81517e-10
3.58539e-10
8.12874e-11
1.46142e-11
2.04017e-12
2.6151e-13
2.70948e-14
2.51171e-15
7.49734e-16
5.37261e-15
6.14501e-14
5.93266e-13
4.64853e-12
2.98315e-11
1.58556e-10
4.88484e-10
1.09369e-10
1.95422e-11
2.64703e-12
3.22994e-13
3.1443e-14
2.83037e-15
6.99663e-16
4.4754e-15
5.23649e-14
5.11631e-13
4.04447e-12
2.61531e-11
1.39984e-10
6.42119e-10
1.40215e-10
2.40981e-11
3.02334e-12
3.37966e-13
3.25398e-14
5.77265e-15
3.87769e-15
6.77345e-15
4.6875e-14
4.38199e-13
3.47988e-12
2.27038e-11
1.22597e-10
8.52188e-10
1.8108e-10
2.96316e-11
3.39884e-12
3.59655e-13
5.83099e-14
3.88967e-14
3.82288e-14
3.9091e-14
7.00213e-14
3.96739e-13
2.97181e-12
1.93808e-11
1.05293e-10
1.11403e-09
2.29214e-10
3.55892e-11
3.81145e-12
5.21475e-13
2.87201e-13
3.11682e-13
3.26237e-13
3.23449e-13
3.3553e-13
5.83483e-13
2.67214e-12
1.61165e-11
8.66214e-11
1.41039e-09
2.81049e-10
4.1872e-11
4.75003e-12
1.61817e-12
1.811e-12
2.13243e-12
2.29714e-12
2.33469e-12
2.31863e-12
2.47615e-12
4.23767e-12
1.58394e-11
7.64349e-11
1.75144e-09
3.41019e-10
5.12452e-11
8.91551e-12
7.69259e-12
1.02132e-11
1.2288e-11
1.356e-11
1.41596e-11
1.43376e-11
1.4487e-11
1.64414e-11
2.93906e-11
9.59662e-11
2.1321e-09
4.22573e-10
7.45432e-11
2.77277e-11
3.59498e-11
4.94952e-11
6.04088e-11
6.81568e-11
7.29407e-11
7.56506e-11
7.73992e-11
8.22604e-11
1.07386e-10
2.3267e-10
2.76949e-09
6.43648e-10
1.66458e-10
1.0565e-10
1.48431e-10
2.06676e-10
2.55964e-10
2.94902e-10
3.22605e-10
3.42342e-10
3.57892e-10
3.80324e-10
4.48171e-10
7.64949e-10
4.32862e-09
1.39412e-09
5.20046e-10
3.94565e-10
5.36376e-10
7.47812e-10
9.41269e-10
1.10716e-09
1.23619e-09
1.34097e-09
1.43542e-09
1.54889e-09
1.74899e-09
2.54464e-09
9.08965e-09
3.83144e-09
1.77033e-09
1.37737e-09
1.72046e-09
2.35908e-09
3.01459e-09
3.62174e-09
4.12709e-09
4.57506e-09
5.01707e-09
5.53531e-09
6.16626e-09
7.9912e-09
4.63303e-11
9.19304e-12
2.11296e-12
8.80536e-13
6.00838e-13
5.41001e-13
6.04228e-13
6.59991e-13
6.66228e-13
5.78281e-13
4.4221e-13
7.91055e-13
4.51205e-12
2.71003e-11
3.71762e-11
7.84161e-12
1.37671e-12
2.01047e-13
3.59443e-14
1.93731e-14
2.54949e-14
3.47637e-14
4.21129e-14
4.45042e-14
8.2931e-14
5.37715e-13
3.87385e-12
2.34482e-11
5.80695e-11
1.35174e-11
2.58106e-12
3.92339e-13
5.13807e-14
6.19664e-15
1.47388e-15
1.65872e-15
2.55152e-15
6.88877e-15
5.42728e-14
4.78481e-13
3.50722e-12
2.11529e-11
8.72094e-11
2.04652e-11
3.99534e-12
6.24329e-13
8.10278e-14
8.87119e-15
8.68286e-16
1.87817e-16
4.23124e-16
4.10119e-15
4.54296e-14
4.1591e-13
3.08499e-12
1.88086e-11
1.17705e-10
2.72516e-11
5.25762e-12
8.04893e-13
9.97633e-14
1.03265e-14
9.47456e-16
1.48581e-16
2.96259e-16
3.36051e-15
3.86541e-14
3.60384e-13
2.71758e-12
1.68286e-11
1.52442e-10
3.42866e-11
6.33503e-12
9.10783e-13
1.04059e-13
1.03068e-14
1.36054e-15
6.41889e-16
7.12887e-16
3.18865e-15
3.28999e-14
3.09091e-13
2.37101e-12
1.49328e-11
1.9854e-10
4.32251e-11
7.5712e-12
1.00734e-12
1.06994e-13
1.37326e-14
6.39248e-15
5.89452e-15
5.63272e-15
7.19167e-15
3.1712e-14
2.66978e-13
2.05079e-12
1.30637e-11
2.55302e-10
5.3621e-11
8.89103e-12
1.10664e-12
1.31104e-13
4.87544e-14
4.87734e-14
5.02106e-14
4.86146e-14
4.69186e-14
6.34728e-14
2.55195e-13
1.74411e-12
1.09927e-11
3.17514e-10
6.43524e-11
1.01921e-11
1.27714e-12
3.04258e-13
2.92504e-13
3.4001e-13
3.6095e-13
3.5894e-13
3.45545e-13
3.42661e-13
4.94563e-13
1.77347e-12
9.73736e-12
3.86509e-10
7.60237e-11
1.19157e-11
1.97881e-12
1.32015e-12
1.70241e-12
2.03407e-12
2.20593e-12
2.2496e-12
2.21651e-12
2.15389e-12
2.27133e-12
3.58477e-12
1.17694e-11
4.57379e-10
9.00389e-11
1.57567e-11
5.23633e-12
6.33496e-12
8.68005e-12
1.04908e-11
1.15965e-11
1.20971e-11
1.22009e-11
1.20579e-11
1.22579e-11
1.45203e-11
2.91419e-11
5.71161e-10
1.26597e-10
3.09819e-11
1.93348e-11
2.76414e-11
3.85036e-11
4.7019e-11
5.28976e-11
5.62907e-11
5.79923e-11
5.85624e-11
6.00318e-11
6.5899e-11
1.04114e-10
8.65189e-10
2.56701e-10
9.13844e-11
7.32559e-11
1.06001e-10
1.48875e-10
1.84131e-10
2.10861e-10
2.28619e-10
2.40376e-10
2.48341e-10
2.59241e-10
2.77157e-10
3.78879e-10
1.82704e-09
7.0253e-10
3.1162e-10
2.60189e-10
3.58119e-10
5.03198e-10
6.31774e-10
7.36761e-10
8.13283e-10
8.72307e-10
9.22569e-10
9.85259e-10
1.05085e-09
1.30102e-09
9.33685e-12
1.87932e-12
4.10672e-13
1.46532e-13
9.58439e-14
9.33441e-14
1.12328e-13
1.30714e-13
1.39242e-13
1.25674e-13
9.12608e-14
9.36325e-14
4.35785e-13
2.8097e-12
8.43918e-12
1.84814e-12
3.43731e-13
5.45029e-14
9.48283e-15
4.586e-15
6.1335e-15
8.76317e-15
1.10914e-14
1.16263e-14
1.23361e-14
5.02947e-14
3.78851e-13
2.51056e-12
1.37429e-11
3.24077e-12
6.431e-13
1.05532e-13
1.47932e-14
1.90484e-15
4.75197e-16
5.28322e-16
7.60421e-16
1.14145e-15
4.90179e-15
4.36455e-14
3.51423e-13
2.33132e-12
2.05884e-11
4.89692e-12
9.91979e-13
1.66044e-13
2.31691e-14
2.71471e-15
2.97403e-16
8.1961e-17
9.48731e-17
3.69518e-16
3.79011e-15
3.80577e-14
3.12796e-13
2.10916e-12
2.76278e-11
6.485e-12
1.29498e-12
2.11665e-13
2.84249e-14
3.15958e-15
3.18164e-16
6.4563e-17
5.83938e-17
2.83151e-16
3.21743e-15
3.31646e-14
2.78341e-13
1.91659e-12
3.53099e-11
8.02322e-12
1.5292e-12
2.34917e-13
2.94115e-14
3.09661e-15
3.7303e-16
1.41965e-16
1.26942e-16
3.01347e-16
2.76668e-15
2.8566e-14
2.44877e-13
1.72461e-12
4.51092e-11
9.87087e-12
1.77577e-12
2.52636e-13
2.94767e-14
3.51037e-15
1.17827e-15
9.85913e-16
9.04508e-16
9.48333e-16
2.93366e-15
2.49979e-14
2.13973e-13
1.53032e-12
5.68773e-11
1.19595e-11
2.03038e-12
2.69782e-13
3.30066e-14
9.20668e-15
8.16792e-15
8.15933e-15
7.69846e-15
7.05634e-15
7.96799e-15
2.57129e-14
1.84955e-13
1.30705e-12
6.94948e-11
1.40748e-11
2.27805e-12
2.99401e-13
6.21563e-14
5.05198e-14
5.71441e-14
5.92786e-14
5.74353e-14
5.33921e-14
4.99864e-14
6.16582e-14
1.96464e-13
1.1671e-12
8.32766e-11
1.63315e-11
2.59723e-12
4.24321e-13
2.41029e-13
2.96781e-13
3.495e-13
3.7033e-13
3.67538e-13
3.50411e-13
3.27485e-13
3.22386e-13
4.43969e-13
1.39498e-12
9.68401e-11
1.88653e-11
3.26652e-12
1.01884e-12
1.15795e-12
1.55893e-12
1.85748e-12
2.00453e-12
2.03319e-12
1.98513e-12
1.89067e-12
1.83018e-12
1.97474e-12
3.55899e-12
1.17244e-10
2.50756e-11
5.8935e-12
3.67789e-12
5.22499e-12
7.18654e-12
8.63219e-12
9.46978e-12
9.78993e-12
9.76097e-12
9.494e-12
9.31464e-12
9.53879e-12
1.36565e-11
1.71744e-10
4.77227e-11
1.64749e-11
1.41065e-11
2.09111e-11
2.90661e-11
3.5253e-11
3.93099e-11
4.13752e-11
4.20758e-11
4.18179e-11
4.18409e-11
4.23082e-11
5.34222e-11
3.60775e-10
1.28221e-10
5.57047e-11
5.07898e-11
7.38482e-11
1.03373e-10
1.26903e-10
1.4377e-10
1.53864e-10
1.5943e-10
1.61992e-10
1.65721e-10
1.68489e-10
1.96165e-10
1.63627e-12
3.35665e-13
7.47003e-14
2.63064e-14
1.79585e-14
1.89533e-14
2.40698e-14
2.92082e-14
3.22982e-14
3.01629e-14
2.19997e-14
1.50857e-14
3.99273e-14
2.61947e-13
1.67335e-12
3.74763e-13
7.24426e-14
1.22102e-14
2.25932e-15
1.1242e-15
1.52795e-15
2.22911e-15
2.88989e-15
3.09062e-15
2.64042e-15
4.87767e-15
3.36567e-14
2.41429e-13
2.83402e-12
6.73458e-13
1.37218e-13
2.36577e-14
3.55276e-15
5.06749e-16
1.55142e-16
1.73697e-16
2.38791e-16
2.94224e-16
5.30323e-16
3.67946e-15
3.17712e-14
2.30563e-13
4.27916e-12
1.0282e-12
2.13651e-13
3.73674e-14
5.56454e-15
7.09382e-16
1.05002e-16
4.90695e-17
5.00322e-17
6.88689e-17
3.20148e-16
3.16786e-15
2.85365e-14
2.11935e-13
5.74807e-12
1.36337e-12
2.78833e-13
4.75795e-14
6.83552e-15
8.25667e-16
1.09863e-16
4.32045e-17
3.88798e-17
5.21652e-17
2.69107e-16
2.76449e-15
2.55366e-14
1.9479e-13
7.26987e-12
1.66427e-12
3.24407e-13
5.22077e-14
7.03896e-15
8.03307e-16
1.13214e-16
5.20401e-17
4.65733e-17
5.61782e-17
2.37073e-16
2.38132e-15
2.25145e-14
1.76657e-13
9.12378e-12
2.00358e-12
3.68027e-13
5.50919e-14
6.92605e-15
8.17311e-16
2.12349e-16
1.58909e-16
1.42963e-16
1.35385e-16
2.74436e-16
2.10339e-15
1.97449e-14
1.57917e-13
1.12897e-11
2.37614e-12
4.11455e-13
5.76788e-14
7.25021e-15
1.54419e-15
1.13962e-15
1.09624e-15
1.00931e-15
8.88621e-16
8.89333e-16
2.31444e-15
1.71743e-14
1.35504e-13
1.35553e-11
2.74568e-12
4.52832e-13
6.20328e-14
1.11488e-14
7.21638e-15
7.83919e-15
7.94706e-15
7.50181e-15
6.72821e-15
6.00743e-15
6.61789e-15
1.88722e-14
1.20971e-13
1.59691e-11
3.12849e-12
5.03611e-13
8.03027e-14
3.67611e-14
4.23512e-14
4.91506e-14