/*--------------------------------*- C++ -*----------------------------------*\
| =========                 |                                                 |
| \\      /  F ield         | OpenFOAM: The Open Source CFD Toolbox           |
|  \\    /   O peration     | Version:  v2106                                 |
|   \\  /    A nd           | Website:  www.openfoam.com                      |
|    \\/     M anipulation  |                                                 |
\*---------------------------------------------------------------------------*/
FoamFile
{
    version     2.0;
    format      ascii;
    arch        "LSB;label=32;scalar=64";
    class       volScalarField;
    location    "0.000175";
    object      rho;
}
// * * * * * * * * * * * * * * * * * * * * * * * * * * * * * * * * * * * * * //

dimensions      [1 -3 0 0 0 0 0];

internalField   nonuniform List<scalar> 
18109
(
2.49539
2.4948
2.49548
2.49528
2.49501
2.49403
2.49287
2.4947
2.49447
2.49532
2.49553
2.4956
2.49475
2.49339
2.49308
2.49363
2.49476
2.49542
2.49565
2.49488
2.49349
2.49104
2.49212
2.49356
2.49439
2.49462
2.49386
2.49247
2.48841
2.48973
2.49149
2.49255
2.49292
2.4923
2.49102
2.48559
2.4871
2.48889
2.48991
2.49028
2.48976
2.48856
2.48197
2.48374
2.4854
2.48636
2.48678
2.4864
2.4853
2.47767
2.47945
2.48111
2.48192
2.48238
2.48213
2.48113
2.50217
2.50242
2.50389
2.50443
2.50484
2.50446
2.50358
2.50225
2.5008
2.49946
2.49856
2.4977
2.49815
2.49781
2.501
2.50169
2.50322
2.50404
2.50468
2.50449
2.50369
2.50216
2.50038
2.49843
2.49678
2.49514
2.49435
2.49281
2.49934
2.50059
2.50232
2.50362
2.50439
2.5043
2.50352
2.50192
2.49987
2.49759
2.49539
2.49315
2.49179
2.48957
2.49748
2.49903
2.50095
2.50235
2.50313
2.50307
2.50232
2.50078
2.49875
2.49635
2.49391
2.49121
2.48905
2.48623
2.49504
2.49674
2.49893
2.50044
2.50135
2.50143
2.50078
2.49935
2.49736
2.49489
2.49231
2.48935
2.4866
2.48347
2.49236
2.49418
2.49638
2.49779
2.49877
2.49899
2.49844
2.49719
2.49531
2.49287
2.49013
2.48694
2.48375
2.48048
2.48884
2.49095
2.49303
2.49438
2.49549
2.49587
2.49547
2.49439
2.49263
2.49027
2.4874
2.48407
2.48069
2.47745
2.48482
2.48689
2.48896
2.49026
2.49143
2.49195
2.49175
2.49083
2.48917
2.48689
2.48392
2.48055
2.47707
2.474
2.48008
2.48186
2.48406
2.48537
2.48657
2.48725
2.48725
2.4865
2.48498
2.4828
2.47984
2.4766
2.4731
2.47031
2.47498
2.47616
2.47837
2.47968
2.48092
2.48178
2.48193
2.48137
2.48001
2.47797
2.47509
2.47216
2.46856
2.46632
2.46908
2.4699
2.472
2.47348
2.47471
2.47572
2.47599
2.47571
2.47461
2.47289
2.47029
2.46782
2.46422
2.46281
2.46297
2.46373
2.46539
2.46672
2.46777
2.46885
2.46945
2.46955
2.46874
2.46731
2.46498
2.46303
2.45978
2.45934
2.45693
2.45758
2.45899
2.46038
2.46141
2.46263
2.46306
2.46308
2.46236
2.46127
2.45973
2.45851
2.45615
2.45632
2.4529
2.45394
2.45454
2.45505
2.45515
2.45584
2.45615
2.45614
2.45578
2.45522
2.45433
2.45359
2.45192
2.45222
2.49457
2.49547
2.49533
2.496
2.49597
2.49697
2.5019
2.50293
2.50301
2.50399
2.50369
2.50467
2.50162
2.50171
2.50089
2.50023
2.49862
2.49785
2.5026
2.50145
2.49954
2.49717
2.49483
2.49504
2.50332
2.50175
2.49957
2.49676
2.49558
2.49638
2.50369
2.50197
2.50003
2.49749
2.49772
2.50074
2.5034
2.50191
2.50058
2.49925
2.5006
2.50734
2.50283
2.50221
2.50141
2.50129
2.50568
2.51458
2.50203
2.50219
2.50256
2.50416
2.51074
2.52015
2.50137
2.50237
2.50424
2.50821
2.51667
2.52595
2.50094
2.50301
2.50645
2.51243
2.52131
2.52941
2.50093
2.50407
2.50884
2.51605
2.52404
2.53105
2.50049
2.50448
2.50991
2.51685
2.52359
2.53024
2.5008
2.50515
2.51007
2.51588
2.52096
2.52701
2.49991
2.50411
2.50729
2.51117
2.51466
2.52021
2.49967
2.50373
2.50589
2.50816
2.50953
2.51207
2.49236
2.49426
2.49484
2.49624
2.49772
2.50174
2.48746
2.48782
2.48702
2.48728
2.48708
2.49199
2.48327
2.48195
2.47994
2.47891
2.47828
2.48604
2.47996
2.47761
2.47484
2.47382
2.47474
2.48326
2.47689
2.47422
2.47158
2.47056
2.47409
2.48184
2.47399
2.47104
2.46905
2.46967
2.47549
2.4823
2.47078
2.46817
2.46699
2.46987
2.47643
2.48282
2.4675
2.46538
2.46545
2.46956
2.47644
2.48277
2.46422
2.46264
2.46411
2.46872
2.47515
2.48056
2.46139
2.46049
2.46301
2.46702
2.47234
2.47743
2.45794
2.45828
2.4611
2.46432
2.46823
2.47336
2.45543
2.45637
2.45778
2.45947
2.46182
2.46567
2.45103
2.45065
2.45014
2.45052
2.45251
2.45585
2.45007
2.45006
2.44934
2.44795
2.44626
2.44696
2.44792
2.44434
2.44041
2.43631
2.43356
2.4351
2.44733
2.44122
2.43494
2.42975
2.42733
2.42939
2.44712
2.43966
2.43214
2.42636
2.4241
2.4258
2.44735
2.43915
2.43135
2.42588
2.42432
2.42555
2.44774
2.43923
2.43213
2.4283
2.42794
2.42967
2.44819
2.4402
2.43492
2.43314
2.4355
2.43839
2.44889
2.44233
2.43846
2.43907
2.44415
2.44694
2.44946
2.44455
2.44299
2.4471
2.45283
2.45718
2.44973
2.4466
2.44774
2.45297
2.45921
2.46362
2.45066
2.44909
2.45151
2.45643
2.46128
2.46547
2.45074
2.45048
2.45302
2.45655
2.46019
2.46336
2.45127
2.45146
2.45329
2.45514
2.45717
2.45861
2.45033
2.4505
2.45063
2.45006
2.44944
2.4501
2.49064
2.49203
2.4961
2.50433
2.51281
2.52098
2.49318
2.49516
2.49902
2.50569
2.51231
2.51946
2.49451
2.49653
2.49952
2.5043
2.50892
2.514
2.49522
2.49736
2.49861
2.50107
2.50255
2.50504
2.4512
2.45023
2.4492
2.4482
2.44661
2.44587
2.45421
2.45151
2.44811
2.44472
2.44138
2.44067
2.45905
2.45474
2.45019
2.44527
2.44243
2.44403
2.46507
2.45997
2.45482
2.44985
2.44754
2.45088
2.47103
2.46591
2.46062
2.45658
2.45536
2.4601
2.47646
2.47158
2.46717
2.46375
2.46588
2.47157
2.48173
2.47759
2.47415
2.47324
2.47823
2.48473
2.4859
2.48309
2.4811
2.4831
2.49009
2.49774
2.48965
2.48823
2.48799
2.49258
2.5013
2.51056
2.49294
2.49265
2.49437
2.50057
2.51009
2.51955
2.49624
2.49672
2.49946
2.5065
2.51483
2.52321
2.49884
2.50001
2.50296
2.50911
2.51556
2.52271
2.50052
2.50196
2.50452
2.50902
2.51389
2.51867
2.50159
2.50331
2.50471
2.50731
2.50913
2.51157
2.5129
2.5433
2.60323
2.71834
2.89646
2.50557
2.53738
2.58687
2.69112
2.86981
2.50778
2.53544
2.57758
2.68414
2.89924
2.51018
2.53163
2.56745
2.66963
2.87393
2.515
2.53027
2.56161
2.65389
2.8343
2.52015
2.52974
2.55288
2.63655
2.79753
2.5264
2.53331
2.55681
2.65071
2.84159
2.53083
2.53944
2.56505
2.65884
2.84606
3.09833
2.53541
2.54597
2.57297
2.65473
2.81723
3.03786
2.53838
2.554
2.58816
2.67364
2.83038
3.02424
2.54074
2.56234
2.6066
2.70103
2.86797
3.05884
3.18653
2.54223
2.56989
2.62489
2.73508
2.91813
3.12799
3.32939
3.44957
2.54144
2.57154
2.63628
2.76283
2.96998
3.2352
3.55964
3.90966
2.53576
2.5693
2.64298
2.7728
2.97273
3.23035
3.51874
3.70969
2.52597
2.56885
2.64344
2.75443
2.91549
3.12196
3.32714
3.43381
2.51527
2.56075
2.62326
2.72479
2.88628
3.11674
3.28943
3.41147
2.51145
2.54995
2.5988
2.69815
2.89156
3.18331
3.47704
3.61249
2.50331
2.53017
2.56974
2.66731
2.85543
3.14414
3.43753
3.75465
2.49628
2.51164
2.5462
2.6365
2.80005
3.04822
3.29647
3.43593
2.49041
2.49765
2.52857
2.61931
2.78175
3.01961
3.21068
3.32063
2.48763
2.49235
2.52772
2.6284
2.82779
3.12166
3.37207
3.46075
2.48604
2.49247
2.5326
2.63485
2.82712
3.09515
3.38189
3.71096
2.48694
2.50014
2.54802
2.65054
2.81106
3.00742
2.48876
2.51271
2.57234
2.68315
2.84238
3.02252
2.49061
2.52477
2.59846
2.72334
2.88841
3.07932
2.48973
2.52907
2.61526
2.74994
2.9337
3.14706
2.48265
2.52669
2.6147
2.75064
2.9749
3.26939
2.47161
2.51422
2.59195
2.71404
2.94211
2.45952
2.49031
2.55118
2.65862
2.84736
2.44602
2.46455
2.51257
2.62527
2.82558
2.43357
2.44096
2.4838
2.60587
2.84548
2.42287
2.42182
2.45801
2.57431
2.80874
2.41799
2.41362
2.44119
2.5364
2.72339
2.42116
2.41518
2.43836
2.52933
2.71253
2.43218
2.42627
2.45671
2.56424
2.79402
2.44362
2.44267
2.48042
2.58755
2.80363
2.45688
2.46317
2.50909
2.61683
2.79807
2.46733
2.48434
2.53967
2.66159
2.84319
2.47382
2.49926
2.56678
2.70224
2.89831
2.47388
2.50209
2.57816
2.71692
2.94482
2.4688
2.49928
2.57375
2.70354
2.95543
2.46005
2.48982
2.55451
2.67493
2.91544
2.45509
2.47833
2.53022
2.63851
2.83879
2.45122
2.46943
2.51076
2.61565
2.82583
2.45203
2.4631
2.5021
2.62
2.86835
2.45472
2.45893
2.49191
2.60408
2.83603
2.4616
2.46087
2.48607
2.58472
2.78597
2.47366
2.47046
2.49263
2.58339
2.76789
2.48855
2.48737
2.51421
2.61528
2.84041
2.50295
2.50705
2.53743
2.63559
2.85842
2.51685
2.52644
2.55826
2.64718
2.84404
2.528
2.5432
2.58108
2.67588
2.87896
2.53392
2.55398
2.59977
2.708
2.92511
2.53538
2.55937
2.61115
2.73817
2.97913
2.53096
2.55477
2.61601
2.75612
3.01556
2.52149
2.54984
2.61601
2.75103
2.98957
2.51945
2.52058
2.52257
2.52388
2.52492
2.52519
2.52518
2.52466
2.52396
2.52335
2.52299
2.52315
2.52409
2.52523
2.51765
2.51926
2.52113
2.52255
2.52371
2.52422
2.52431
2.52388
2.52311
2.52226
2.52148
2.52086
2.52106
2.52096
2.51536
2.51738
2.51963
2.52151
2.52279
2.52343
2.5235
2.52295
2.52198
2.52082
2.51972
2.51874
2.51829
2.51771
2.51304
2.51534
2.51769
2.51958
2.52088
2.52165
2.52179
2.52125
2.52028
2.51902
2.51772
2.51641
2.5153
2.51392
2.51051
2.51299
2.51536
2.51726
2.51864
2.51961
2.51988
2.5194
2.51845
2.51713
2.51571
2.5142
2.51265
2.51084
2.50754
2.51017
2.51247
2.51439
2.51589
2.51706
2.51753
2.51721
2.51635
2.51503
2.51347
2.51175
2.50983
2.50767
2.50409
2.50675
2.50911
2.51107
2.51273
2.51408
2.51478
2.51468
2.51396
2.51271
2.51107
2.50919
2.5071
2.50485
2.50028
2.50276
2.50525
2.50721
2.50901
2.51051
2.51149
2.51167
2.51108
2.50994
2.50822
2.50622
2.50401
2.5019
2.49588
2.49814
2.5008
2.50283
2.50475
2.50644
2.50768
2.50811
2.50768
2.50667
2.50493
2.50291
2.50063
2.49863
2.4912
2.49312
2.49582
2.49786
2.4998
2.50165
2.50308
2.50378
2.50356
2.50268
2.50087
2.49886
2.49641
2.49476
2.48577
2.48756
2.49029
2.49255
2.49451
2.49653
2.49807
2.499
2.49898
2.49824
2.49641
2.49448
2.4917
2.49077
2.48059
2.48233
2.48462
2.48677
2.48849
2.49062
2.49234
2.49354
2.49371
2.493
2.49105
2.48916
2.48604
2.48613
2.47533
2.477
2.47907
2.48132
2.48309
2.48524
2.48685
2.48784
2.4878
2.48707
2.48543
2.48387
2.4809
2.48152
2.47239
2.47404
2.47484
2.47605
2.47715
2.47887
2.48025
2.4812
2.48129
2.48101
2.47966
2.47798
2.47529
2.4752
2.55853
2.5606
2.5626
2.5644
2.56594
2.56703
2.56779
2.56819
2.56844
2.56855
2.56887
2.56949
2.571
2.5724
2.55605
2.55858
2.56059
2.56264
2.56421
2.56543
2.56627
2.56678
2.56706
2.56719
2.56742
2.56781
2.56859
2.56941
2.55306
2.55622
2.5584
2.56067
2.56231
2.56365
2.56454
2.56507
2.56528
2.56533
2.56539
2.56562
2.56625
2.56688
2.55071
2.554
2.5561
2.55831
2.55999
2.56141
2.56238
2.56296
2.56317
2.56316
2.56309
2.56311
2.56337
2.56355
2.54811
2.55139
2.55353
2.55572
2.55745
2.55896
2.56005
2.56073
2.56095
2.56087
2.56073
2.56052
2.56044
2.56024
2.54541
2.5485
2.55075
2.5529
2.55472
2.55634
2.55758
2.55842
2.55871
2.5586
2.55836
2.55796
2.55754
2.5569
2.54242
2.54533
2.54772
2.54986
2.55179
2.55354
2.55497
2.55601
2.55644
2.55635
2.55603
2.55547
2.55478
2.55389
2.53912
2.54184
2.54436
2.54653
2.54858
2.55047
2.55211
2.55339
2.55399
2.55396
2.55357
2.55288
2.55199
2.55099
2.53533
2.53789
2.54053
2.54283
2.54501
2.54708
2.54893
2.55043
2.5512
2.55125
2.5508
2.54999
2.54895
2.54797
2.53133
2.53375
2.53632
2.53876
2.54103
2.54324
2.54528
2.54697
2.54788
2.54799
2.54742
2.54649
2.54529
2.54452
2.52672
2.52931
2.53174
2.53432
2.53665
2.53898
2.54116
2.54299
2.54397
2.54408
2.54332
2.54227
2.54084
2.54043
2.52295
2.5253
2.52726
2.52979
2.53202
2.53432
2.53656
2.53844
2.53938
2.53936
2.53827
2.537
2.53501
2.53536
2.51921
2.52134
2.52286
2.52501
2.52692
2.52915
2.53136
2.53312
2.5339
2.53378
2.53264
2.53137
2.5292
2.53013
2.51734
2.51878
2.51926
2.52084
2.52224
2.52396
2.52574
2.52716
2.52773
2.52757
2.52617
2.52462
2.52236
2.5223
2.60007
2.602
2.60413
2.6059
2.6076
2.60913
2.61048
2.61168
2.61277
2.61373
2.61474
2.61583
2.61719
2.61845
2.59734
2.59993
2.60195
2.60383
2.60551
2.60707
2.60848
2.60977
2.61092
2.61194
2.61296
2.61401
2.61517
2.61645
2.59479
2.59775
2.59975
2.60175
2.60349
2.60512
2.60659
2.60789
2.60905
2.61006
2.61106
2.6121
2.61329
2.61461
2.59261
2.59554
2.59756
2.59956
2.60132
2.60298
2.60449
2.60581
2.60696
2.60793
2.60885
2.6098
2.61089
2.61214
2.59041
2.59323
2.59529
2.59728
2.59908
2.60079
2.60235
2.6037
2.60483
2.60576
2.60659
2.60743
2.60839
2.60947
2.58825
2.59089
2.59298
2.59493
2.59675
2.5985
2.60014
2.60155
2.60269
2.60358
2.60432
2.60503
2.60579
2.60665
2.58597
2.58844
2.59054
2.59248
2.59434
2.59616
2.59789
2.59939
2.60058
2.60145
2.60209
2.60267
2.60323
2.60386
2.58355
2.58585
2.58795
2.58989
2.5918
2.59369
2.59552
2.59713
2.59838
2.59925
2.59981
2.60027
2.60064
2.60111
2.58081
2.583
2.58511
2.58711
2.5891
2.59109
2.59304
2.59476
2.59607
2.59693
2.59741
2.59775
2.59796
2.59836
2.57811
2.58018
2.58217
2.5842
2.58623
2.58831
2.59036
2.59218
2.59351
2.59434
2.59471
2.59494
2.59498
2.59543
2.57525
2.57726
2.57911
2.58117
2.58322
2.58535
2.58746
2.58932
2.59063
2.59136
2.59158
2.59168
2.59153
2.59215
2.57311
2.57485
2.57632
2.57818
2.58007
2.58217
2.58427
2.58613
2.58735
2.58791
2.5879
2.58784
2.58735
2.58829
2.57071
2.57225
2.57335
2.575
2.57674
2.57873
2.5807
2.58243
2.58343
2.58379
2.58358
2.58342
2.58274
2.58403
2.5694
2.57053
2.57087
2.57203
2.57329
2.57493
2.57663
2.57816
2.57898
2.5792
2.57877
2.57841
2.57749
2.57836
2.64121
2.64336
2.64508
2.64688
2.64856
2.65023
2.65185
2.65338
2.65483
2.65614
2.65739
2.65861
2.65997
2.66119
2.63908
2.64149
2.64327
2.64507
2.64678
2.6485
2.65017
2.65178
2.65329
2.65468
2.65598
2.65728
2.65857
2.66006
2.63705
2.6396
2.6415
2.64337
2.64515
2.6469
2.64861
2.65025
2.65178
2.65319
2.65452
2.65585
2.65721
2.65882
2.63525
2.63777
2.63979
2.64171
2.64354
2.64531
2.64703
2.64866
2.65017
2.65154
2.65282
2.65413
2.65551
2.65719
2.6336
2.63603
2.63809
2.64004
2.64191
2.64371
2.64544
2.64705
2.64851
2.64981
2.65103
2.65229
2.65365
2.65533
2.63198
2.63427
2.63634
2.63829
2.64019
2.64204
2.64378
2.64537
2.64677
2.648
2.64913
2.65032
2.65161
2.65325
2.63036
2.6325
2.63455
2.63649
2.63843
2.6403
2.64207
2.64365
2.645
2.64616
2.6472
2.64831
2.64952
2.65108
2.62875
2.63074
2.63272
2.63465
2.6366
2.6385
2.64029
2.64187
2.64319
2.64429
2.64526
2.6463
2.64742
2.64892
2.62718
2.62902
2.63092
2.63283
2.63477
2.63669
2.6385
2.64009
2.64139
2.64246
2.64337
2.64436
2.64541
2.64688
2.62578
2.62745
2.62922
2.63108
2.63299
2.63491
2.63673
2.63833
2.63961
2.64063
2.64148
2.64243
2.64341
2.64491
2.62463
2.62614
2.62771
2.62948
2.63132
2.6332
2.63499
2.63656
2.63778
2.63875
2.63953
2.64044
2.64135
2.64296
2.62381
2.6251
2.62635
2.62795
2.62967
2.63148
2.63321
2.63473
2.63587
2.63675
2.63743
2.63831
2.63912
2.64096
2.62298
2.62408
2.62506
2.62649
2.62801
2.62967
2.63126
2.63265
2.63366
2.63444
2.63503
2.6359
2.63665
2.63883
2.62298
2.62346
2.62379
2.62486
2.62603
2.62748
2.62892
2.6302
2.63113
2.63185
2.63237
2.63322
2.63397
2.63622
2.67399
2.67573
2.67715
2.67875
2.68037
2.68205
2.68375
2.68541
2.68697
2.68843
2.6898
2.69118
2.69261
2.69414
2.6727
2.67451
2.67595
2.6775
2.67912
2.6808
2.68251
2.68418
2.68576
2.68725
2.68866
2.69013
2.69155
2.6934
2.67147
2.67329
2.67481
2.67639
2.67803
2.6797
2.6814
2.68305
2.68462
2.68612
2.68756
2.68908
2.6906
2.6925
2.67049
2.67223
2.67378
2.67537
2.67702
2.6787
2.68038
2.68201
2.68355
2.68503
2.68646
2.68801
2.68959
2.69158
2.6696
2.67125
2.67281
2.67441
2.67608
2.67776
2.67942
2.681
2.68249
2.68393
2.68534
2.6869
2.68853
2.69058
2.66882
2.67035
2.6719
2.67349
2.67516
2.67684
2.67847
2.67999
2.68141
2.68279
2.68415
2.6857
2.68734
2.68944
2.66815
2.66955
2.67105
2.67263
2.67429
2.67595
2.67753
2.67899
2.68033
2.68164
2.68294
2.68446
2.68612
2.68827
2.66763
2.66888
2.67031
2.67185
2.67346
2.67508
2.6766
2.67799
2.67925
2.6805
2.68176
2.68327
2.68494
2.68712
2.66731
2.66839
2.66973
2.67119
2.67273
2.67428
2.67573
2.67706
2.67826
2.67945
2.68067
2.68218
2.68387
2.68608
2.66716
2.6681
2.6693
2.67067
2.67214
2.6736
2.67497
2.67624
2.67738
2.67853
2.67973
2.68122
2.68293
2.68519
2.66714
2.66799
2.66904
2.6703
2.67167
2.67304
2.67433
2.67552
2.6766
2.6777
2.67886
2.68037
2.68209
2.68445
2.66716
2.66788
2.66878
2.66994
2.67122
2.67253
2.67375
2.67488
2.67589
2.67695
2.67809
2.67961
2.68137
2.6839
2.66716
2.66781
2.66853
2.66958
2.67076
2.67199
2.67313
2.67417
2.67512
2.67615
2.67727
2.67887
2.68066
2.68355
2.66708
2.66751
2.66792
2.66884
2.66994
2.67112
2.67225
2.67328
2.67423
2.67524
2.67637
2.67797
2.67994
2.68279
2.69669
2.69793
2.69905
2.70028
2.70156
2.70287
2.70418
2.70548
2.70673
2.70803
2.70931
2.71083
2.71247
2.71445
2.69638
2.69758
2.69863
2.6998
2.70105
2.70232
2.70358
2.70484
2.70607
2.70739
2.70872
2.71034
2.71198
2.71427
2.69609
2.69722
2.69826
2.69939
2.7006
2.70182
2.70304
2.70426
2.70547
2.70678
2.70815
2.70979
2.71153
2.71383
2.69593
2.69696
2.69795
2.69905
2.70023
2.70143
2.70263
2.70383
2.70504
2.70636
2.70776
2.70947
2.71131
2.71368
2.69583
2.69676
2.69771
2.69877
2.69992
2.70109
2.70226
2.70345
2.70467
2.70602
2.7075
2.70929
2.71123
2.71366
2.69585
2.69668
2.69756
2.69857
2.69967
2.70081
2.70196
2.70315
2.70438
2.70578
2.70731
2.70916
2.71117
2.71364
2.69599
2.69672
2.69753
2.69848
2.69953
2.70063
2.70175
2.70293
2.70417
2.70559
2.70717
2.70906
2.71116
2.71365
2.6963
2.6969
2.69762
2.6985
2.69949
2.70054
2.70162
2.70277
2.704
2.70543
2.70705
2.70899
2.71116
2.71367
2.69677
2.69721
2.69784
2.69863
2.69955
2.70054
2.70156
2.70268
2.7039
2.70534
2.70699
2.70896
2.71122
2.71375
2.69729
2.69763
2.69818
2.69889
2.69973
2.70064
2.70162
2.7027
2.70391
2.70536
2.70704
2.70905
2.71138
2.71396
2.69787
2.69814
2.69862
2.69927
2.70003
2.70088
2.70179
2.70284
2.70404
2.7055
2.70721
2.7093
2.7117
2.71439
2.69834
2.6986
2.69901
2.69963
2.70035
2.70116
2.70205
2.70308
2.70428
2.70575
2.70751
2.70966
2.71215
2.71494
2.69872
2.69901
2.69937
2.7
2.70072
2.70152
2.7024
2.70343
2.70461
2.70611
2.7079
2.71019
2.71273
2.71583
2.69872
2.69917
2.69947
2.70013
2.70088
2.70173
2.70265
2.70369
2.70488
2.70635
2.70815
2.71038
2.71309
2.71613
2.71094
2.71172
2.71243
2.71321
2.714
2.7148
2.71562
2.7165
2.71741
2.71854
2.71972
2.72136
2.7231
2.72543
2.71154
2.71218
2.71278
2.71346
2.71415
2.71487
2.7156
2.71642
2.71731
2.71845
2.71972
2.72144
2.72321
2.72566
2.712
2.71255
2.7131
2.71369
2.7143
2.71494
2.71561
2.7164
2.71726
2.71839
2.71967
2.72138
2.72323
2.7257
2.7125
2.71295
2.71342
2.71394
2.7145
2.71509
2.71573
2.71651
2.7174
2.71856
2.71989
2.72165
2.72357
2.72605
2.713
2.71336
2.71375
2.71422
2.71472
2.71528
2.71592
2.7167
2.71763
2.71884
2.72025
2.72207
2.72408
2.72659
2.71352
2.7138
2.71412
2.71453
2.71499
2.71554
2.71619
2.71701
2.71801
2.71929
2.72079
2.72269
2.7248
2.72733
2.71409
2.71428
2.71454
2.71491
2.71534
2.71588
2.71656
2.71743
2.71851
2.71987
2.72149
2.72347
2.72568
2.72821
2.7147
2.71483
2.71505
2.71536
2.71578
2.71632
2.71704
2.71797
2.71913
2.72059
2.72233
2.72438
2.7267
2.7292
2.71537
2.71546
2.71563
2.71591
2.71632
2.71688
2.71763
2.71863
2.71987
2.72143
2.72329
2.72541
2.72783
2.7303
2.71606
2.71615
2.71628
2.71656
2.71697
2.71756
2.71835
2.7194
2.72074
2.72238
2.72436
2.72653
2.72905
2.7315
2.71676
2.71687
2.717
2.71729
2.71773
2.71836
2.7192
2.72033
2.72175
2.72349
2.72556
2.72781
2.7304
2.73286
2.71745
2.71762
2.71776
2.7181
2.71858
2.71926
2.72016
2.72134
2.72283
2.72462
2.72678
2.72909
2.73177
2.73421
2.71813
2.71835
2.71853
2.71895
2.7195
2.72026
2.72123
2.7225
2.72407
2.72596
2.72818
2.7306
2.73326
2.73582
2.71865
2.71911
2.71931
2.71984
2.72049
2.72134
2.72238
2.72368
2.72525
2.72711
2.7293
2.73166
2.73438
2.73693
2.71911
2.71957
2.72001
2.72046
2.72092
2.72145
2.72203
2.72279
2.72364
2.72479
2.72602
2.72767
2.72931
2.7315
2.72003
2.72036
2.72067
2.72101
2.72137
2.72182
2.72234
2.72305
2.7239
2.72506
2.72636
2.72808
2.72981
2.73197
2.72086
2.72111
2.72134
2.7216
2.72188
2.72225
2.72271
2.72336
2.72416
2.72529
2.72658
2.72827
2.73004
2.73223
2.72171
2.72186
2.72201
2.7222
2.72243
2.72275
2.72318
2.7238
2.72461
2.72574
2.72707
2.72877
2.73059
2.73277
2.72254
2.72262
2.7227
2.72284
2.72303
2.72332
2.72374
2.72438
2.72521
2.72637
2.72775
2.72948
2.73134
2.73354
2.72335
2.72338
2.72342
2.72352
2.72369
2.72398
2.72443
2.7251
2.726
2.72721
2.72865
2.73042
2.73234
2.73453
2.72416
2.72414
2.72415
2.72424
2.72442
2.72474
2.72524
2.72599
2.72697
2.72826
2.72979
2.73159
2.73358
2.73576
2.72497
2.72495
2.72495
2.72504
2.72524
2.72562
2.7262
2.72703
2.72812
2.72949
2.73112
2.73297
2.73503
2.73715
2.72575
2.72577
2.72578
2.72591
2.72616
2.72661
2.72729
2.72823
2.72944
2.73091
2.73264
2.73452
2.73664
2.7387
2.72659
2.72667
2.72671
2.72688
2.72721
2.72774
2.72852
2.72956
2.73088
2.73243
2.73427
2.73618
2.73835
2.74033
2.7274
2.72756
2.72764
2.72791
2.72832
2.72896
2.72985
2.73101
2.73245
2.73411
2.73602
2.73798
2.74015
2.74206
2.72831
2.72858
2.72872
2.72908
2.72959
2.73033
2.7313
2.73254
2.73406
2.73577
2.73775
2.73973
2.74193
2.74374
2.72921
2.72956
2.72977
2.73025
2.73087
2.73172
2.73281
2.73416
2.73578
2.7376
2.73961
2.74164
2.74376
2.74553
2.73021
2.73076
2.73104
2.73163
2.73234
2.73328
2.73443
2.73581
2.73744
2.73922
2.74121
2.74317
2.74527
2.74697
2.72408
2.72441
2.72465
2.72491
2.72522
2.72563
2.72613
2.72685
2.72768
2.72877
2.72993
2.73133
2.73267
2.73427
2.72503
2.72521
2.72536
2.72553
2.72577
2.72613
2.72661
2.72731
2.72814
2.72923
2.73042
2.73183
2.73321
2.73474
2.72595
2.72601
2.7261
2.72622
2.72642
2.72675
2.7272
2.72788
2.72869
2.72976
2.73093
2.73231
2.7337
2.73525
2.72688
2.72687
2.72691
2.72699
2.72716
2.72747
2.72791
2.72857
2.72938
2.73045
2.73163
2.73301
2.73439
2.73594
2.72782
2.72777
2.72779
2.72785
2.728
2.7283
2.72875
2.72942
2.73025
2.73132
2.73252
2.7339
2.7353
2.73683
2.72879
2.72872
2.72874
2.72879
2.72895
2.72927
2.72975
2.73043
2.73129
2.73237
2.73359
2.73498
2.73639
2.73791
2.72976
2.7297
2.72972
2.7298
2.73
2.73036
2.73089
2.73162
2.73253
2.73364
2.73488
2.73626
2.73769
2.73917
2.73074
2.73073
2.73078
2.73091
2.73116
2.73158
2.73218
2.73296
2.73393
2.73506
2.73634
2.7377
2.73915
2.74057
2.7317
2.73177
2.73186
2.73207
2.7324
2.7329
2.73359
2.73444
2.73548
2.73665
2.73795
2.7393
2.74073
2.74207
2.73272
2.73288
2.73302
2.73332
2.73373
2.73432
2.73509
2.73601
2.73711
2.73831
2.73964
2.74097
2.7424
2.74364
2.73368
2.73395
2.73416
2.73457
2.73509
2.73577
2.73663
2.73762
2.73879
2.74003
2.74139
2.7427
2.74409
2.74523
2.73476
2.73515
2.73542
2.73592
2.73652
2.73728
2.73821
2.73926
2.74046
2.74173
2.74309
2.74438
2.74575
2.74681
2.73574
2.73625
2.73659
2.7372
2.7379
2.73875
2.73977
2.74089
2.74215
2.74346
2.74482
2.7461
2.74741
2.74845
2.73687
2.73752
2.73793
2.73861
2.73937
2.74029
2.74134
2.74248
2.74373
2.74501
2.74632
2.74756
2.74888
2.74991
2.72509
2.72542
2.7257
2.72602
2.72638
2.72684
2.72738
2.72807
2.72884
2.72976
2.73075
2.73185
2.7329
2.7341
2.72608
2.72627
2.72648
2.72675
2.72708
2.72753
2.72807
2.72877
2.72955
2.73048
2.73147
2.73256
2.73361
2.73476
2.72708
2.72716
2.72734
2.72758
2.72789
2.72834
2.72888
2.72957
2.73035
2.73128
2.73225
2.73333
2.73437
2.73551
2.7281
2.72814
2.7283
2.72853
2.72884
2.72928
2.72981
2.7305
2.73128
2.7322
2.73316
2.73422
2.73525
2.73637
2.72918
2.72918
2.72935
2.72958
2.72989
2.73033
2.73088
2.73156
2.73234
2.73325
2.73421
2.73525
2.73627
2.73736
2.73028
2.73029
2.73049
2.73072
2.73106
2.73152
2.73207
2.73276
2.73355
2.73445
2.7354
2.73642
2.73744
2.73849
2.7314
2.73145
2.73167
2.73194
2.73232
2.7328
2.73339
2.73409
2.73489
2.73579
2.73673
2.73772
2.73872
2.73974
2.73254
2.73265
2.73291
2.73322
2.73365
2.73417
2.73479
2.73552
2.73634
2.73723
2.73817
2.73914
2.74013
2.74109
2.73365
2.73386
2.73415
2.73453
2.73502
2.73558
2.73626
2.73702
2.73787
2.73876
2.7397
2.74063
2.74161
2.74249
2.73478
2.73511
2.73544
2.73589
2.73643
2.73704
2.73777
2.73856
2.73943
2.74033
2.74126
2.74217
2.74313
2.74392
2.73587
2.73632
2.73669
2.73721
2.73781
2.73848
2.73927
2.7401
2.741
2.74191
2.74284
2.74371
2.74463
2.74534
2.737
2.73756
2.73797
2.73856
2.73921
2.73994
2.74076
2.74162
2.74254
2.74344
2.74437
2.74521
2.7461
2.74673
2.73801
2.73868
2.73913
2.7398
2.74051
2.74131
2.74219
2.7431
2.74404
2.74496
2.74587
2.74669
2.74753
2.74813
2.73912
2.73982
2.74035
2.74106
2.74182
2.74266
2.74356
2.74449
2.74543
2.74633
2.74721
2.74802
2.74884
2.74941
2.72392
2.72431
2.7247
2.72513
2.72557
2.72609
2.72665
2.72728
2.72794
2.72862
2.72932
2.73002
2.73068
2.7314
2.72499
2.72526
2.72558
2.72598
2.72642
2.72695
2.72752
2.72817
2.72886
2.72956
2.73028
2.731
2.73166
2.73241
2.72604
2.72627
2.72659
2.72697
2.7274
2.72793
2.72851
2.72917
2.72986
2.73057
2.73128
2.732
2.73265
2.73338
2.72711
2.72732
2.72763
2.72802
2.72847
2.72901
2.72961
2.73027
2.73097
2.73168
2.73239
2.7331
2.73375
2.73446
2.72821
2.72842
2.72877
2.72917
2.72965
2.7302
2.73081
2.73148
2.73217
2.73287
2.73357
2.73425
2.73489
2.73557
2.72935
2.72958
2.72996
2.73038
2.73089
2.73147
2.7321
2.73277
2.73345
2.73415
2.73483
2.7355
2.73613
2.73677
2.73049
2.73075
2.73117
2.73163
2.73218
2.73278
2.73343
2.7341
2.73479
2.73547
2.73613
2.73678
2.73739
2.73799
2.73165
2.73195
2.7324
2.7329
2.73349
2.73412
2.73479
2.73547
2.73615
2.73682
2.73747
2.7381
2.7387
2.73925
2.73274
2.73313
2.73361
2.73415
2.73479
2.73544
2.73613
2.73682
2.73751
2.73817
2.73881
2.73941
2.74
2.7405
2.73381
2.73428
2.7348
2.7354
2.73607
2.73675
2.73745
2.73815
2.73885
2.73951
2.74014
2.74071
2.74129
2.74174
2.73483
2.73538
2.73593
2.73658
2.73728
2.73799
2.73873
2.73945
2.74015
2.74081
2.74143
2.74198
2.74256
2.74295
2.73583
2.73646
2.73705
2.73775
2.73847
2.73922
2.73997
2.7407
2.74141
2.74207
2.74269
2.74323
2.74379
2.74411
2.73675
2.73744
2.73806
2.7388
2.73956
2.74035
2.74115
2.74191
2.74264
2.7433
2.74392
2.74445
2.74497
2.74525
2.73768
2.73842
2.73908
2.73986
2.74066
2.74147
2.74229
2.74306
2.7438
2.74446
2.74508
2.7456
2.74608
2.74634
2.72027
2.72058
2.72094
2.72137
2.72184
2.72238
2.72294
2.72354
2.72414
2.72472
2.72529
2.72582
2.72631
2.72676
2.72135
2.7216
2.72198
2.72241
2.7229
2.72345
2.72403
2.72465
2.72526
2.72585
2.72642
2.72695
2.72743
2.72792
2.72248
2.72273
2.72314
2.72358
2.72409
2.72464
2.72523
2.72584
2.72644
2.72703
2.72758
2.72809
2.72854
2.72902
2.72359
2.72386
2.72431
2.72477
2.72531
2.72588
2.7265
2.72712
2.72772
2.7283
2.72884
2.72933
2.72978
2.73023
2.72473
2.72503
2.72552
2.72601
2.72658
2.72718
2.72781
2.72843
2.72903
2.72959
2.73011
2.73059
2.73101
2.73142
2.72589
2.72623
2.72674
2.72726
2.72786
2.72849
2.72913
2.72976
2.73036
2.73091
2.73142
2.73187
2.73228
2.73266
2.72703
2.72742
2.72794
2.7285
2.72913
2.72978
2.73044
2.73107
2.73166
2.73221
2.73269
2.73313
2.73352
2.73387
2.72816
2.7286
2.72914
2.72974
2.73039
2.73105
2.73172
2.73235
2.73294
2.73347
2.73394
2.73436
2.73474
2.73506
2.72924
2.72972
2.73029
2.73092
2.73159
2.73227
2.73294
2.73357
2.73416
2.73467
2.73513
2.73553
2.7359
2.73617
2.73029
2.73083
2.73141
2.73208
2.73277
2.73345
2.73412
2.73474
2.73531
2.73582
2.73627
2.73664
2.73701
2.73724
2.73126
2.73184
2.73246
2.73315
2.73386
2.73455
2.73523
2.73585
2.73642
2.73691
2.73735
2.7377
2.73806
2.73825
2.73218
2.73282
2.73348
2.7342
2.73492
2.73562
2.7363
2.73691
2.73747
2.73794
2.73837
2.73872
2.73907
2.73923
2.73301
2.73369
2.73438
2.73513
2.73588
2.7366
2.73729
2.73791
2.73848
2.73896
2.73938
2.73972
2.74006
2.7402
2.73375
2.73452
2.73528
2.73607
2.73684
2.73757
2.73826
2.73888
2.73944
2.73991
2.74033
2.74068
2.741
2.74117
2.71563
2.71585
2.71623
2.71664
2.71709
2.71756
2.71803
2.7185
2.71895
2.71937
2.71976
2.72012
2.72046
2.72075
2.71682
2.71695
2.71734
2.71775
2.71823
2.71871
2.71921
2.71968
2.72013
2.72055
2.72093
2.72129
2.72161
2.7219
2.71795
2.7181
2.71851
2.71894
2.71943
2.71993
2.72042
2.7209
2.72134
2.72175
2.72211
2.72245
2.72275
2.72303
2.71903
2.71923
2.71965
2.72009
2.72061
2.72113
2.72165
2.72214
2.72259
2.723
2.72336
2.72369
2.72397
2.72425
2.72006
2.72033
2.72077
2.72125
2.7218
2.72234
2.72287
2.72338
2.72383
2.72424
2.72459
2.72491
2.72519
2.72546
2.72108
2.72143
2.72189
2.7224
2.72296
2.72353
2.72407
2.72459
2.72505
2.72547
2.72582
2.72614
2.72641
2.72668
2.72207
2.72248
2.72297
2.72352
2.7241
2.72467
2.72523
2.72576
2.72623
2.72665
2.72701
2.72732
2.72759
2.72785
2.72307
2.72354
2.72406
2.72462
2.72521
2.7258
2.72636
2.72689
2.72737
2.72778
2.72815
2.72846
2.72874
2.72898
2.72403
2.72454
2.72509
2.72568
2.72628
2.72687
2.72744
2.72797
2.72845
2.72887
2.72924
2.72954
2.72983
2.73005
2.72498
2.72554
2.72612
2.72672
2.72733
2.72793
2.7285
2.72902
2.7295
2.7299
2.73027
2.73058
2.73089
2.73108
2.72587
2.72647
2.72708
2.7277
2.72833
2.72893
2.72951
2.73003
2.73051
2.73091
2.73128
2.73158
2.73191
2.73207
2.72675
2.7274
2.72804
2.7287
2.72933
2.72994
2.73051
2.73101
2.73148
2.73188
2.73225
2.73255
2.73289
2.73304
2.72756
2.72823
2.72891
2.72959
2.73026
2.73088
2.73146
2.73198
2.73246
2.73286
2.73323
2.73354
2.73389
2.73404
2.72836
2.72913
2.72985
2.73056
2.73123
2.73185
2.73243
2.73294
2.7334
2.7338
2.73417
2.73449
2.73483
2.73506
2.71082
2.71081
2.71103
2.71132
2.71167
2.71205
2.71243
2.71279
2.71314
2.71346
2.71377
2.71406
2.71434
2.71461
2.71199
2.71193
2.71218
2.71247
2.71283
2.71321
2.71358
2.71394
2.71427
2.71458
2.71486
2.71512
2.71537
2.71563
2.713
2.71304
2.71331
2.71362
2.71399
2.71436
2.71473
2.71507
2.71539
2.71568
2.71593
2.71619
2.71641
2.71667
2.71399
2.71413
2.71442
2.71475
2.71512
2.71549
2.71586
2.7162
2.71651
2.7168
2.71706
2.7173
2.71751
2.71776
2.71494
2.71516
2.71548
2.71584
2.71621
2.71659
2.71696
2.7173
2.71762
2.7179
2.71816
2.7184
2.71862
2.71887
2.71591
2.7162
2.71654
2.71691
2.71729
2.71767
2.71804
2.71839
2.71872
2.71901
2.71928
2.71953
2.71975
2.72
2.71684
2.71718
2.71756
2.71795
2.71834
2.71873
2.71911
2.71947
2.7198
2.7201
2.72038
2.72063
2.72086
2.72111
2.71778
2.71817
2.71857
2.71898
2.71938
2.71978
2.72016
2.72053
2.72087
2.72118
2.72147
2.72173
2.72199
2.72223
2.71869
2.71912
2.71955
2.71998
2.7204
2.72081
2.7212
2.72158
2.72193
2.72224
2.72254
2.72281
2.72309
2.72331
2.7196
2.72008
2.72053
2.72098
2.72142
2.72184
2.72224
2.72262
2.72298
2.7233
2.72362
2.72389
2.7242
2.72441
2.72049
2.721
2.72148
2.72196
2.72242
2.72285
2.72327
2.72366
2.72403
2.72436
2.72468
2.72497
2.7253
2.72547
2.72142
2.72197
2.72248
2.72297
2.72344
2.72388
2.72431
2.7247
2.72507
2.7254
2.72574
2.72604
2.72639
2.72656
2.72229
2.72287
2.72341
2.72393
2.72443
2.7249
2.72534
2.72575
2.72613
2.72648
2.72682
2.72713
2.7275
2.72769
2.72331
2.72392
2.72447
2.725
2.7255
2.72596
2.7264
2.72679
2.72717
2.72752
2.72787
2.72819
2.72856
2.72883
2.70765