/*--------------------------------*- C++ -*----------------------------------*\
| =========                 |                                                 |
| \\      /  F ield         | OpenFOAM: The Open Source CFD Toolbox           |
|  \\    /   O peration     | Version:  v2106                                 |
|   \\  /    A nd           | Website:  www.openfoam.com                      |
|    \\/     M anipulation  |                                                 |
\*---------------------------------------------------------------------------*/
FoamFile
{
    version     2.0;
    format      ascii;
    arch        "LSB;label=32;scalar=64";
    class       volScalarField;
    location    "0.000175";
    object      Ttot;
}
// * * * * * * * * * * * * * * * * * * * * * * * * * * * * * * * * * * * * * //

dimensions      [0 0 0 1 0 0 0];

internalField   nonuniform List<scalar> 
18109
(
300.232
300.224
300.278
300.283
300.286
300.268
300.267
300.285
300.279
300.293
300.278
300.253
300.214
300.182
300.288
300.29
300.279
300.258
300.229
300.186
300.133
300.264
300.25
300.226
300.207
300.184
300.145
300.086
300.183
300.138
300.123
300.127
300.13
300.108
300.054
300.043
299.991
299.996
300.018
300.037
300.026
299.978
299.836
299.808
299.829
299.867
299.9
299.894
299.848
299.609
299.597
299.638
299.673
299.71
299.702
299.655
300.403
300.42
300.483
300.492
300.501
300.488
300.472
300.442
300.412
300.37
300.318
300.256
300.238
300.2
300.416
300.434
300.462
300.457
300.446
300.425
300.388
300.342
300.299
300.25
300.201
300.137
300.084
299.99
300.4
300.417
300.425
300.425
300.417
300.401
300.353
300.295
300.222
300.145
300.069
299.991
299.936
299.874
300.358
300.351
300.356
300.364
300.368
300.359
300.314
300.248
300.154
300.046
299.94
299.84
299.779
299.741
300.262
300.234
300.255
300.283
300.308
300.313
300.278
300.208
300.099
299.969
299.842
299.731
299.671
299.649
300.119
300.091
300.129
300.173
300.215
300.229
300.201
300.132
300.019
299.878
299.74
299.621
299.558
299.542
299.925
299.925
299.974
300.031
300.089
300.106
300.083
300.017
299.907
299.769
299.63
299.516
299.452
299.432
299.724
299.736
299.803
299.856
299.914
299.931
299.913
299.854
299.756
299.631
299.499
299.392
299.325
299.3
299.51
299.53
299.612
299.655
299.702
299.721
299.71
299.66
299.578
299.473
299.357
299.265
299.193
299.156
299.305
299.315
299.396
299.415
299.449
299.47
299.465
299.43
299.363
299.281
299.186
299.117
299.026
298.973
299.068
299.092
299.172
299.181
299.19
299.214
299.209
299.19
299.138
299.086
299.022
298.981
298.862
298.807
298.832
298.889
298.944
298.946
298.929
298.947
298.949
298.946
298.906
298.871
298.805
298.768
298.628
298.571
298.553
298.66
298.729
298.762
298.746
298.774
298.759
298.737
298.689
298.656
298.594
298.545
298.407
298.35
298.309
298.453
298.544
298.594
298.578
298.61
298.6
298.576
298.526
298.479
298.379
298.264
298.111
298.047
300.103
300.094
300
300.016
300.023
299.985
300.326
300.331
300.249
300.272
300.269
300.29
300.336
300.318
300.273
300.303
300.257
300.035
300.408
300.377
300.356
300.367
300.168
299.592
300.461
300.481
300.514
300.461
300.107
299.031
300.522
300.582
300.649
300.511
299.982
298.543
300.553
300.628
300.67
300.5
299.762
298.183
300.568
300.652
300.64
300.398
299.557
297.93
300.547
300.615
300.576
300.246
299.306
297.834
300.518
300.553
300.468
300.056
299.173
298.095
300.466
300.466
300.334
299.904
299.223
298.65
300.392
300.365
300.228
299.91
299.56
299.383
300.303
300.296
300.2
300.066
300.008
300.061
300.269
300.317
300.286
300.321
300.42
300.521
300.196
300.306
300.32
300.472
300.624
300.719
300.188
300.345
300.406
300.606
300.729
300.76
299.918
300.056
300.126
300.288
300.325
300.134
299.833
299.98
300.04
300.091
299.823
298.945
299.741
299.85
299.846
299.726
299.019
297.502
299.655
299.73
299.655
299.311
298.165
296.15
299.539
299.578
299.422
298.809
297.378
295.17
299.41
299.38
299.121
298.328
296.79
294.724
299.249
299.136
298.779
297.912
296.421
294.799
299.068
298.863
298.421
297.557
296.34
295.298
298.842
298.562
298.075
297.297
296.484
295.98
298.626
298.271
297.794
297.187
296.777
296.586
298.327
297.964
297.581
297.212
297.089
297.051
298.102
297.816
297.527
297.338
297.304
297.274
297.807
297.568
297.333
297.204
297.195
297.049
297.864
297.732
297.545
297.379
297.049
296.315
297.873
297.682
297.427
297.059
296.295
294.803
297.99
297.787
297.472
296.831
295.483
293.291
298.128
297.895
297.449
296.511
294.655
292.124
298.259
298.006
297.472
296.294
294.174
291.567
298.353
298.105
297.534
296.275
294.107
291.597
298.426
298.178
297.596
296.326
294.298
292.102
298.462
298.22
297.552
296.303
294.606
292.874
298.463
298.16
297.504
296.401
294.964
293.871
298.39
298.037
297.42
296.468
295.492
294.887
298.338
297.945
297.393
296.694
296.112
295.807
298.192
297.785
297.35
296.865
296.608
296.459
298.084
297.707
297.352
297.016
296.92
296.824
297.929
297.626
297.307
297.02
296.923
296.752
300.245
300.205
299.97
299.554
299.181
299.087
300.254
300.195
299.981
299.721
299.537
299.535
300.204
300.137
299.973
299.822
299.769
299.788
300.135
300.112
299.964
299.925
299.929
299.927
298.016
297.791
297.569
297.382
297.173
296.632
298.264
298.029
297.783
297.521
297.016
295.993
298.571
298.351
298.146
297.779
296.94
295.304
298.901
298.734
298.559
298.077
296.909
294.912
299.216
299.128
298.97
298.386
296.939
294.821
299.488
299.457
299.333
298.638
297.142
295.087
299.749
299.768
299.63
298.94
297.509
295.627
299.958
300.008
299.861
299.219
297.912
296.404
300.137
300.172
300.031
299.452
298.343
297.334
300.253
300.267
300.131
299.611
298.805
298.25
300.337
300.324
300.154
299.756
299.262
299.05
300.368
300.336
300.164
299.905
299.65
299.624
300.35
300.304
300.177
300.02
299.949
299.953
300.315
300.315
300.192
300.152
300.17
300.168
299.365
296.495
294.062
299.159
306.949
298.146
294.37
293.088
300.067
309.932
296.948
293.089
293.881
302.639
311.863
296.029
292.818
295.294
305.405
314.784
295.544
293.326
297.517
308.265
316.122
295.427
294.373
299.682
310.751
317.768
295.737
295.822
301.368
310.843
315.919
296.431
297.483
302.909
310.907
315.339
313.067
297.529
299.149
304.182
310.389
313.342
311.91
298.722
300.648
304.867
309.086
311.698
311.69
299.824
301.696
304.739
307.217
309.402
310.821
310.443
300.65
302.106
304.144
305.172
306.823
309.113
310.381
307.823
301.039
301.928
302.456
302.533
304.99
306.854
307.697
311.913
300.991
300.746
299.832
300.011
303.796
307.373
308.899
307.638
300.116
298.172
296.781
299.812
306.365
310.434
309.879
305.591
298.132
294.941
294.433
300.698
309.276
313.194
311.263
308.734
295.967
292.734
294.487
302.562
311.132
313.895
312.866
308.236
294.002
291.828
295.735
305.357
314.477
316.495
313.056
305.827
292.882
292.195
297.628
307.375
314.51
314.761
311.847
303.972
292.538
293.05
299.559
309.424
316.198
315.829
311.295
306.053
292.861
294.453
301.072
308.646
313.61
313.074
310.694
305.923
293.828
296.194
302.452
309.049
312.752
311.85
308.132
305.067
295.103
297.822
303.007
307.583
310.088
309.921
296.288
298.881
302.769
305.982
308.623
310.276
297.082
298.998
300.96
302.943
306.012
309.19
297.375
298.035
298.359
300.605
305.631
308.836
296.913
296.001
295.305
298.93
305.64
308.254
295.601
293.244
293.147
298.832
307.306
293.651
290.608
292.521
300.595
309.268
291.583
289.002
292.792
301.961
311.036
289.848
288.383
293.672
303.067
311.394
288.734
288.207
294.204
304.067
311.359
288.473
288.687
295.348
305.046
310.691
288.941
289.913
296.824
305.58
310.741
290.315
292.197
298.861
304.84
307.685
292.009
294.554
300.24
304.332
305.69
293.804
296.499
300.878
302.663
302.736
295.262
297.339
299.831
300.376
301.306
296.207
297.284
297.553
297.406
299.183
296.521
296.16
294.875
296.196
300.801
296.283
294.355
292.518
295.866
302.269
295.42
292.16
291.198
297.387
306.103
294.208
290.36
291.265
300.155
309.82
292.912
289.409
291.892
302.138
312.325
291.814
289.161
293.148
304.007
313.011
291.334
289.502
294.486
305.936
314.244
291.48
290.449
296.412
307.77
313.964
292.318
292.051
298.319
308.767
314.424
293.649
294.22
300.215
307.828
311.222
295.246
296.526
301.823
307.262
309.902
296.886
298.618
303.04
306.082
306.489
298.339
300.138
303.41
304.498
304.484
299.368
300.942
303.015
302.749
302.349
299.99
301.155
301.759
301.238
301.52
300.185
300.35
299.387
299.311
302.001
299.966
298.868
296.549
298.049
302.884
300.856
300.884
300.943
300.962
300.977
300.978
300.98
300.97
300.965
300.969
300.975
300.999
301.035
301.068
300.816
300.846
300.87
300.885
300.885
300.888
300.883
300.871
300.857
300.852
300.851
300.85
300.87
300.871
300.739
300.765
300.79
300.825
300.842
300.857
300.847
300.824
300.786
300.751
300.724
300.703
300.703
300.703
300.632
300.648
300.683
300.733
300.768
300.799
300.795
300.766
300.716
300.656
300.601
300.554
300.531
300.521
300.498
300.515
300.565
300.633
300.686
300.731
300.737
300.706
300.65
300.574
300.5
300.437
300.404
300.397
300.336
300.368
300.43
300.512
300.581
300.637
300.654
300.629
300.572
300.487
300.398
300.324
300.284
300.277
300.158
300.208
300.287
300.376
300.457
300.521
300.548
300.531
300.478
300.392
300.298
300.223
300.184
300.182
299.989
300.037
300.13
300.214
300.3
300.367
300.406
300.404
300.358
300.28
300.189
300.116
300.078
300.084
299.809
299.857
299.959
300.036
300.119
300.192
300.243
300.254
300.219
300.156
300.075
300.012
299.976
299.973
299.641
299.676
299.773
299.831
299.901
299.979
300.039
300.066
300.046
300.001
299.933
299.884
299.835
299.821
299.447
299.489
299.585
299.64
299.691
299.767
299.827
299.864
299.859
299.834
299.784
299.754
299.675
299.667
299.277
299.341
299.403
299.445
299.465
299.536
299.593
299.645
299.652
299.634
299.577
299.544
299.428
299.439
299.07
299.174
299.241
299.299
299.311
299.374
299.415
299.449
299.439
299.416
299.359
299.315
299.185
299.213
298.938
299.068
299.113
299.16
299.156
299.208
299.234
299.26
299.249
299.228
299.145
299.038
298.886
298.863
302.071
302.112
302.139
302.172
302.205
302.237
302.258
302.278
302.3
302.332
302.387
302.459
302.559
302.645
301.966
302.012
302.026
302.071
302.104
302.143
302.165
302.185
302.2
302.225
302.266
302.323
302.399
302.474
301.821
301.877
301.906
301.973
302.02
302.071
302.099
302.117
302.125
302.134
302.155
302.191
302.256
302.323
301.687
301.745
301.785
301.867
301.928
301.989
302.024
302.044
302.05
302.048
302.05
302.063
302.101
302.145
301.543
301.611
301.668
301.758
301.83
301.897
301.94
301.964
301.969
301.958
301.949
301.944
301.958
301.986
301.413
301.485
301.554
301.644
301.724
301.795
301.846
301.876
301.885
301.869
301.849
301.829
301.829
301.85
301.283
301.356
301.436
301.525
301.609
301.685
301.745
301.783
301.797
301.78
301.752
301.724
301.716
301.741
301.15
301.217
301.306
301.392
301.479
301.559
301.628
301.678
301.7
301.686
301.656
301.625
301.616
301.649
301.005
301.067
301.161
301.246
301.332
301.418
301.498
301.56
301.592
301.584
301.557
301.529
301.521
301.561
300.868
300.918
301.001
301.081
301.163
301.254
301.343
301.419
301.46
301.463
301.44
301.419
301.41
301.458
300.711
300.775
300.838
300.914
300.988
301.079
301.173
301.258
301.307
301.318
301.301
301.292
301.277
301.32
300.599
300.672
300.696
300.762
300.817
300.899
300.992
301.08
301.131
301.143
301.12
301.113
301.067
301.118
300.469
300.573
300.576
300.625
300.659
300.73
300.813
300.889
300.929
300.939
300.918
300.911
300.853
300.924
300.4
300.511
300.496
300.548
300.563
300.609
300.666
300.718
300.743
300.744
300.692
300.639
300.552
300.56
303.33
303.342
303.381
303.427
303.479
303.536
303.587
303.641
303.698
303.763
303.843
303.933
304.038
304.14
303.178
303.225
303.262
303.321
303.38
303.441
303.496
303.55
303.603
303.66
303.729
303.807
303.904
304.008
303.039
303.098
303.145
303.221
303.291
303.361
303.423
303.479
303.532
303.583
303.644
303.713
303.801
303.899
302.917
302.979
303.039
303.124
303.201
303.277
303.344
303.402
303.455
303.503
303.554
303.61
303.683
303.767
302.808
302.876
302.943
303.029
303.111
303.19
303.262
303.323
303.376
303.419
303.462
303.508
303.564
303.636
302.71
302.781
302.853
302.937
303.02
303.101
303.175
303.239
303.293
303.333
303.368
303.403
303.445
303.509
302.615
302.684
302.761
302.844
302.927
303.009
303.088
303.156
303.212
303.249
303.276
303.302
303.334
303.396
302.521
302.586
302.664
302.744
302.827
302.911
302.995
303.069
303.127
303.163
303.185
303.204
303.23
303.298
302.421
302.482
302.56
302.638
302.721
302.808
302.897
302.978
303.039
303.076
303.095
303.112
303.138
303.217
302.336
302.389
302.453
302.524
302.603
302.693
302.789
302.876
302.942
302.981
302.999
303.018
303.046
303.139
302.254
302.305
302.349
302.412
302.485
302.575
302.673
302.764
302.832
302.874
302.893
302.916
302.947
303.053
302.211
302.258
302.268
302.313
302.37
302.454
302.55
302.642
302.709
302.751
302.77
302.797
302.82
302.939
302.148
302.202
302.193
302.229
302.274
302.347
302.43
302.511
302.57
302.607
302.623
302.656
302.678
302.804
302.116
302.177
302.153
302.184
302.209
302.261
302.326
302.393
302.439
302.465
302.469
302.488
302.49
302.569
304.69
304.732
304.78
304.846
304.911
304.982
305.052
305.122
305.193
305.264
305.342
305.426
305.524
305.623
304.567
304.624
304.682
304.757
304.831
304.907
304.981
305.054
305.126
305.196
305.27
305.35
305.441
305.548
304.459
304.525
304.594
304.677
304.759
304.84
304.92
304.996
305.07
305.14
305.213
305.29
305.379
305.484
304.367
304.44
304.517
304.604
304.691
304.775
304.858
304.935
305.009
305.078
305.147
305.22
305.304
305.403
304.289
304.365
304.447
304.536
304.625
304.712
304.795
304.873
304.945
305.011
305.076
305.145
305.222
305.316
304.218
304.294
304.379
304.468
304.558
304.647
304.731
304.808
304.878
304.94
305
305.062
305.131
305.221
304.152
304.227
304.312
304.401
304.491
304.58
304.665
304.742
304.81
304.868
304.922
304.977
305.04
305.129
304.093
304.163
304.246
304.332
304.421
304.51
304.596
304.674
304.741
304.796
304.845
304.895
304.954
305.046
304.041
304.105
304.183
304.264
304.351
304.44
304.528
304.608
304.674
304.728
304.773
304.822
304.88
304.98
304.005
304.059
304.125
304.199
304.281
304.37
304.459
304.542
304.609
304.663
304.707
304.756
304.818
304.93
303.988
304.032
304.079
304.143
304.219
304.305
304.393
304.476
304.545
304.6
304.644
304.698
304.765
304.892
303.992
304.024
304.047
304.097
304.163
304.244
304.329
304.411
304.478
304.535
304.582
304.642
304.713
304.857
303.986
304.017
304.027
304.068
304.123
304.193
304.269
304.342
304.405
304.461
304.512
304.581
304.656
304.817
304.014
304.033
304.021
304.054
304.093
304.151
304.216
304.28
304.335
304.388
304.439
304.512
304.589
304.745
305.912
305.963
306.018
306.087
306.159
306.235
306.315
306.393
306.471
306.547
306.623
306.704
306.793
306.893
305.838
305.893
305.953
306.025
306.101
306.18
306.261
306.341
306.419
306.496
306.572
306.654
306.74
306.851
305.774
305.833
305.898
305.973
306.051
306.132
306.214
306.294
306.373
306.45
306.527
306.611
306.7
306.81
305.726
305.786
305.853
305.928
306.009
306.09
306.172
306.253
306.33
306.407
306.484
306.568
306.658
306.769
305.686
305.745
305.814
305.89
305.971
306.053
306.134
306.213
306.289
306.364
306.44
306.525
306.615
306.725
305.655
305.713
305.781
305.857
305.937
306.019
306.099
306.175
306.248
306.321
306.394
306.477
306.566
306.676
305.633
305.687
305.754
305.828
305.907
305.987
306.065
306.139
306.208
306.278
306.348
306.428
306.516
306.627
305.624
305.671
305.733
305.803
305.879
305.957
306.032
306.104
306.17
306.237
306.304
306.382
306.469
306.582
305.626
305.664
305.719
305.784
305.856
305.93
306.003
306.073
306.137
306.202
306.267
306.344
306.431
306.55
305.637
305.667
305.713
305.772
305.838
305.909
305.979
306.047
306.111
306.174
306.238
306.315
306.405
306.531
305.656
305.682
305.718
305.768
305.828
305.894
305.961
306.027
306.09
306.153
306.217
306.296
306.39
306.528
305.681
305.702
305.727
305.769
305.822
305.884
305.947
306.012
306.074
306.138
306.204
306.289
306.388
306.54
305.704
305.723
305.74
305.775
305.822
305.878
305.937
305.998
306.058
306.123
306.194
306.287
306.391
306.562
305.726
305.739
305.746
305.778
305.821
305.873
305.929
305.986
306.045
306.111
306.186
306.286
306.4
306.567
306.898
306.947
306.996
307.052
307.111
307.173
307.237
307.301
307.365
307.433
307.503
307.587
307.677
307.787
306.876
306.923
306.971
307.026
307.085
307.146
307.209
307.273
307.336
307.406
307.478
307.566
307.655
307.778
306.859
306.904
306.952
307.006
307.064
307.124
307.184
307.246
307.309
307.379
307.453
307.541
307.636
307.759
306.852
306.893
306.939
306.992
307.049
307.108
307.167
307.229
307.292
307.362
307.437
307.529
307.628
307.754
306.851
306.888
306.932
306.983
307.038
307.095
307.154
307.215
307.279
307.35
307.429
307.525
307.629
307.756
306.858
306.891
306.931
306.979
307.032
307.088
307.146
307.206
307.271
307.345
307.427
307.524
307.631
307.758
306.874
306.901
306.937
306.982
307.032
307.086
307.142
307.203
307.268
307.344
307.428
307.527
307.636
307.764
306.898
306.92
306.95
306.99
307.037
307.089
307.144
307.204
307.269
307.345
307.431
307.532
307.644
307.772
306.93
306.945
306.97
307.005
307.049
307.097
307.15
307.209
307.275
307.352
307.439
307.541
307.657
307.785
306.965
306.975
306.995
307.026
307.066
307.111
307.162
307.221
307.287
307.364
307.453
307.557
307.677
307.809
307.003
307.01
307.026
307.053
307.089
307.132
307.181
307.239
307.305
307.385
307.475
307.583
307.706
307.846
307.038
307.044
307.056
307.081
307.115
307.156
307.204
307.263
307.33
307.411
307.505
307.617
307.744
307.893
307.073
307.08
307.089
307.113
307.146
307.186
307.235
307.293
307.361
307.445
307.542
307.661
307.791
307.956
307.099
307.113
307.118
307.141
307.174
307.216
307.265
307.323
307.392
307.476
307.575
307.697
307.836
308
307.613
307.648
307.681
307.717
307.754
307.793
307.833
307.878
307.925
307.985
308.049
308.136
308.226
308.346
307.639
307.667
307.695
307.727
307.759
307.795
307.831
307.874
307.922
307.983
308.05
308.14
308.232
308.357
307.66
307.684
307.71
307.737
307.766
307.798
307.832
307.873
307.919
307.979
308.047
308.137
308.234
308.361
307.685
307.705
307.726
307.75
307.777
307.806
307.839
307.88
307.928
307.989
308.06
308.152
308.252
308.379
307.711
307.727
307.744
307.766
307.79
307.818
307.851
307.892
307.942
308.005
308.08
308.175
308.279
308.407
307.741
307.752
307.766
307.785
307.807
307.834
307.868
307.911
307.963
308.03
308.109
308.208
308.316
308.445
307.773
307.78
307.791
307.807
307.828
307.856
307.891
307.936
307.993
308.064
308.148
308.25
308.364
308.491
307.809
307.813
307.821
307.835
307.856
307.883
307.92
307.968
308.029
308.105
308.195
308.3
308.419
308.545
307.848
307.851
307.856
307.869
307.888
307.917
307.956
308.008
308.073
308.154
308.25
308.358
308.482
308.606
307.89
307.892
307.895
307.907
307.927
307.957
307.999
308.054
308.124
308.209
308.311
308.422
308.55
308.673
307.932
307.936
307.938
307.951
307.972
308.005
308.049
308.108
308.182
308.272
308.379
308.495
308.626
308.749
307.976
307.982
307.985
307.999
308.023
308.058
308.105
308.167
308.245
308.338
308.449
308.568
308.703
308.827
308.02
308.027
308.032
308.05
308.078
308.116
308.168
308.234
308.317
308.415
308.529
308.653
308.786
308.916
308.059
308.079
308.085
308.108
308.139
308.182
308.236
308.304
308.386
308.483
308.596
308.718
308.854
308.985
308.077
308.098
308.117
308.137
308.158
308.184
308.213
308.251
308.295
308.355
308.418
308.503
308.588
308.698
308.119
308.135
308.148
308.163
308.179
308.201
308.227
308.264
308.308
308.368
308.435
308.524
308.611
308.72
308.159
308.17
308.18
308.191
308.203
308.221
308.245
308.279
308.321
308.379
308.446
308.532
308.623
308.733
308.2
308.206
308.212
308.22
308.23
308.246
308.268
308.301
308.343
308.402
308.47
308.557
308.65
308.76
308.241
308.243
308.246
308.252
308.261
308.275
308.297
308.33
308.374
308.433
308.504
308.593
308.687
308.798
308.283
308.282
308.283
308.287
308.295
308.31
308.333
308.368
308.414
308.476
308.55
308.639
308.737
308.848
308.324
308.322
308.321
308.325
308.333
308.35
308.375
308.414
308.464
308.53
308.608
308.699
308.8
308.91
308.368
308.366
308.364
308.368
308.378
308.396
308.426
308.468
308.524
308.593
308.676
308.769
308.874
308.981
308.411
308.411
308.409
308.415
308.427
308.45
308.484
308.531
308.592
308.666
308.755
308.85
308.958
309.062
308.459
308.462
308.461
308.469
308.484
308.51
308.549
308.601
308.668
308.746
308.839
308.937
309.048
309.147
308.506
308.512
308.514
308.526
308.545
308.576
308.621
308.678
308.75
308.834
308.931
309.031
309.142
309.238
308.559
308.57
308.574
308.591
308.615
308.65
308.698
308.759
308.835
308.921
309.021
309.123
309.235
309.327
308.61
308.625
308.633
308.655
308.685
308.726
308.78
308.846
308.927
309.018
309.119
309.222
309.33
309.419
308.668
308.692
308.704
308.731
308.765
308.81
308.867
308.935
309.015
309.104
309.204
309.304
309.409
309.496
308.376
308.39
308.399
308.41
308.423
308.443
308.468
308.504
308.545
308.601
308.659
308.73
308.797
308.877
308.419
308.428
308.433
308.44
308.45
308.467
308.491
308.526
308.567
308.622
308.682
308.754
308.823
308.899
308.464
308.466
308.469
308.473
308.481
308.497
308.519
308.553
308.594
308.648
308.707
308.777
308.847
308.925
308.509
308.507
308.508
308.511
308.518
308.532
308.554
308.587
308.628
308.681
308.74
308.811
308.881
308.959
308.555
308.551
308.551
308.552
308.559
308.573
308.596
308.629
308.67
308.724
308.784
308.854
308.925
309.003
308.603
308.598
308.598
308.599
308.607
308.622
308.645
308.679
308.722
308.776
308.838
308.907
308.979
309.056
308.651
308.647
308.647
308.65
308.659
308.676
308.702
308.738
308.784
308.839
308.902
308.971
309.044
309.119
308.702
308.701
308.702
308.707
308.718
308.738
308.768
308.806
308.854
308.91
308.975
309.044
309.118
309.19
308.752
308.755
308.757
308.767
308.782
308.805
308.839
308.88
308.932
308.99
309.056
309.125
309.199
309.266
308.807
308.814
308.819
308.832
308.851
308.878
308.915
308.96
309.015
309.075
309.143
309.211
309.285
309.347
308.86
308.872
308.88
308.898
308.921
308.953
308.995
309.043
309.101
309.163
309.232
309.3
309.372
309.43
308.919
308.937
308.947
308.97
308.997
309.032
309.077
309.127
309.187
309.25
309.32
309.387
309.458
309.512
308.973
308.996
309.01
309.038
309.07
309.11
309.158
309.213
309.275
309.34
309.409
309.475
309.542
309.594
309.034
309.063
309.081
309.112
309.148
309.191
309.241
309.296
309.357
309.421
309.487
309.55
309.616
309.667
308.459
308.474
308.486
308.5
308.517
308.539
308.565
308.599
308.636
308.682
308.731
308.786
308.838
308.898
308.505
308.515
308.524
308.536
308.552
308.573
308.598
308.632
308.67
308.715
308.764
308.819
308.871
308.929
308.553
308.558
308.566
308.577
308.591
308.612
308.638
308.672
308.709
308.755
308.803
308.857
308.909
308.966
308.604
308.606
308.613
308.623
308.637
308.658
308.684
308.717
308.755
308.8
308.847
308.9
308.951
309.008
308.657
308.656
308.664
308.674
308.689
308.71
308.736
308.769
308.807
308.852
308.899
308.951
309.002
309.057
308.711
308.711
308.72
308.731
308.746
308.768
308.795
308.828
308.867
308.911
308.958
309.009
309.06
309.113
308.766
308.768
308.778
308.79
308.808
308.831
308.859
308.893
308.933
308.976
309.023
309.073
309.123
309.175
308.823
308.828
308.84
308.855
308.874
308.899
308.929
308.964
309.004
309.048
309.095
309.143
309.194
309.242
308.879
308.889
308.902
308.92
308.943
308.969
309.002
309.038
309.08
309.124
309.171
309.218
309.268
309.313
308.938
308.953
308.968
308.989
309.014
309.043
309.077
309.115
309.158
309.202
309.249
309.296
309.346
309.387
308.995
309.016
309.032
309.057
309.084
309.116
309.153
309.193
309.237
309.282
309.329
309.374
309.422
309.46
309.055
309.08
309.099
309.126
309.156
309.189
309.229
309.27
309.314
309.359
309.407
309.45
309.497
309.531
309.108
309.139
309.159
309.19
309.223
309.26
309.302
309.345
309.391
309.437
309.483
309.526
309.57
309.601
309.164
309.197
309.222
309.255
309.29
309.33
309.373
309.417
309.462
309.507
309.551
309.593
309.635
309.664
308.422
308.44
308.458
308.478
308.499
308.524
308.551
308.581
308.614
308.648
308.683
308.719
308.752
308.788
308.473
308.486
308.501
308.52
308.54
308.565
308.593
308.625
308.658
308.692
308.728
308.765
308.798
308.835
308.523
308.535
308.55
308.568
308.588
308.613
308.641
308.673
308.706
308.741
308.777
308.813
308.846
308.882
308.576
308.586
308.601
308.619
308.64
308.666
308.694
308.726
308.76
308.795
308.83
308.866
308.9
308.935
308.63
308.641
308.656
308.675
308.697
308.723
308.753
308.785
308.818
308.853
308.888
308.923
308.956
308.99
308.687
308.697
308.714
308.734
308.758
308.785
308.815
308.848
308.881
308.916
308.95
308.984
309.016
309.049
308.743
308.754
308.774
308.795
308.821
308.849
308.88
308.913
308.947
308.98
309.014
309.047
309.078
309.108
308.8
308.814
308.835
308.858
308.886
308.915
308.947
308.98
309.014
309.047
309.08
309.111
309.142
309.17
308.855
308.872
308.895
308.92
308.95
308.981
309.014
309.047
309.081
309.114
309.146
309.177
309.207
309.233
308.909
308.931
308.955
308.983
309.014
309.046
309.08
309.113
309.147
309.18
309.212
309.242
309.272
309.295
308.962
308.987
309.012
309.042
309.075
309.109
309.144
309.178
309.213
309.245
309.277
309.306
309.335
309.356
309.013
309.042
309.069
309.102
309.135
309.17
309.206
309.241
309.276
309.308
309.34
309.368
309.397
309.415
309.06
309.092
309.121
309.155
309.191
309.228
309.265
309.302
309.337
309.37
309.401
309.429
309.455
309.471
309.106
309.141
309.172
309.209
309.246
309.285
309.323
309.36
309.396
309.428
309.458
309.485
309.509
309.523
308.254
308.269
308.286
308.307
308.33
308.355
308.383
308.411
308.44
308.468
308.496
308.522
308.547
308.568
308.305
308.318
308.336
308.357
308.381
308.407
308.435
308.464
308.493
308.522
308.55
308.576
308.6
308.623
308.359
308.372
308.392
308.414
308.438
308.465
308.493
308.522
308.551
308.579
308.605
308.631
308.653
308.677
308.414
308.427
308.449
308.471
308.497
308.524
308.554
308.583
308.612
308.64
308.666
308.691
308.713
308.736
308.47
308.484
308.508
308.531
308.558
308.587
308.617
308.647
308.675
308.703
308.728
308.752
308.773
308.794
308.527
308.543
308.567
308.591
308.62
308.65
308.681
308.711
308.74
308.767
308.792
308.814
308.835
308.854
308.582
308.6
308.625
308.652
308.682
308.712
308.744
308.774
308.803
308.83
308.854
308.876
308.895
308.913
308.638
308.658
308.684
308.712
308.743
308.774
308.806
308.836
308.865
308.891
308.914
308.935
308.954
308.971
308.69
308.713
308.74
308.77
308.802
308.834
308.866
308.896
308.924
308.95
308.973
308.993
309.011
309.026
308.743
308.768
308.795
308.827
308.859
308.892
308.924
308.953
308.981
309.006
309.028
309.048
309.066
309.079
308.791
308.819
308.847
308.88
308.913
308.946
308.978
309.008
309.035
309.06
309.082
309.1
309.119
309.13
308.838
308.867
308.898
308.932
308.966
308.999
309.031
309.06
309.087
309.111
309.132
309.151
309.169
309.179
308.879
308.911
308.943
308.978
309.014
309.048
309.081
309.11
309.137
309.161
309.183
309.2
309.218
309.226
308.915
308.951
308.987
309.025
309.061
309.096
309.129
309.159
309.185
309.209
309.23
309.247
309.263
309.272
308.031
308.042
308.06
308.08
308.101
308.124
308.147
308.169
308.191
308.211
308.23
308.248
308.265
308.279
308.087
308.094
308.113
308.133
308.156
308.179
308.203
308.226
308.247
308.267
308.286
308.304
308.32
308.334
308.142
308.149
308.17
308.19
308.214
308.237
308.261
308.284
308.305
308.325
308.343
308.36
308.374
308.388
308.194
308.204
308.224
308.246
308.271
308.295
308.32
308.344
308.366
308.385
308.403
308.419
308.434
308.448
308.245
308.257
308.279
308.302
308.328
308.354
308.379
308.403
308.425
308.445
308.463
308.479
308.492
308.506
308.295
308.311
308.333
308.357
308.384
308.411
308.437
308.462
308.485
308.505
308.522
308.538
308.552
308.565
308.342
308.362
308.385
308.411
308.439
308.466
308.493
308.519
308.542
308.562
308.58
308.595
308.609
308.622
308.391
308.413
308.438
308.465
308.493
308.521
308.548
308.573
308.597
308.617
308.635
308.65
308.665
308.677
308.438
308.462
308.488
308.516
308.545
308.573
308.601
308.626
308.649
308.67
308.688
308.703
308.718
308.729
308.485
308.511
308.539
308.567
308.596
308.624
308.652
308.677
308.7
308.72
308.738
308.754
308.77
308.78
308.529
308.557
308.586
308.615
308.645
308.674
308.701
308.726
308.749
308.769
308.788
308.803
308.82
308.829
308.572
308.603
308.633
308.664
308.694
308.723
308.75
308.774
308.797
308.816
308.835
308.851
308.868
308.877
308.612
308.644
308.676
308.708
308.739
308.769
308.797
308.822
308.845
308.864
308.883
308.899
308.917
308.926
308.651
308.687
308.722
308.755
308.787
308.817
308.844
308.869
308.891
308.911
308.93
308.946
308.962
308.974
307.795
307.796
307.806
307.82
307.837
307.855
307.873
307.891
307.908
307.923
307.938
307.953
307.967
307.98
307.851
307.849
307.862
307.876
307.893
307.911
307.929
307.946
307.962
307.977
307.99
308.004
308.016
308.028
307.9
307.903
307.916
307.931
307.948
307.966
307.984
308
308.016
308.03
308.042
308.055
308.066
308.079
307.948
307.955
307.969
307.985
308.002
308.02
308.038
308.055
308.07
308.084
308.097
308.109
308.12
308.132
307.994
308.005
308.021
308.037
308.055
308.073
308.091
308.108
308.123
308.137
308.15
308.162
308.173
308.185
308.041
308.055
308.071
308.089
308.107
308.126
308.144
308.161
308.177
308.191
308.204
308.216
308.228
308.24
308.086
308.103
308.121
308.139
308.158
308.177
308.195
308.213
308.229
308.244
308.257
308.27
308.281
308.294
308.132
308.15
308.17
308.189
308.209
308.228
308.246
308.264
308.281
308.296
308.31
308.323
308.336
308.348
308.176
308.197
308.217
308.238
308.258
308.278
308.297
308.315
308.332
308.347
308.362
308.375
308.389
308.401
308.221
308.244
308.265
308.287
308.307
308.328
308.347
308.365
308.383
308.398
308.414
308.428
308.443
308.454
308.264
308.289
308.312
308.334
308.356
308.377
308.397
308.416
308.434
308.45
308.466
308.48
308.497
308.506
308.31
308.336
308.36
308.384
308.406
308.427
308.447
308.466
308.484
308.5
308.517
308.532
308.55
308.56
308.353
308.38
308.406
308.43
308.454
308.476
308.498
308.517
308.536
308.553
308.57
308.585
308.604
308.615
308.401
308.43
308.457
308.482
308.506
308.528
308.549
308.568
308.587
308.604
308.621
308.637
308.655
308.669
307.639
307.633
307.636
307.641
307.647
307.654