/*--------------------------------*- C++ -*----------------------------------*\
| =========                 |                                                 |
| \\      /  F ield         | OpenFOAM: The Open Source CFD Toolbox           |
|  \\    /   O peration     | Version:  v2106                                 |
|   \\  /    A nd           | Website:  www.openfoam.com                      |
|    \\/     M anipulation  |                                                 |
\*---------------------------------------------------------------------------*/
FoamFile
{
    version     2.0;
    format      ascii;
    arch        "LSB;label=32;scalar=64";
    class       volScalarField;
    location    "0.000144";
    object      nut;
}
// * * * * * * * * * * * * * * * * * * * * * * * * * * * * * * * * * * * * * //

dimensions      [0 2 -1 0 0 0 0];

internalField   nonuniform List<scalar> 
144746
(
4.46846e-05
3.92122e-05
3.36676e-05
2.70907e-05
2.07841e-05
1.45923e-05
1.01002e-05
6.86767e-06
4.79696e-06
3.8663e-06
4.60019e-06
7.63319e-06
1.33928e-05
2.19283e-05
3.69511e-05
3.14057e-05
2.60789e-05
2.00064e-05
1.44923e-05
9.4606e-06
6.26364e-06
4.0783e-06
2.78296e-06
2.33569e-06
3.25768e-06
6.22019e-06
1.14285e-05
1.87079e-05
2.74587e-05
2.21635e-05
1.74735e-05
1.23754e-05
7.88006e-06
4.67468e-06
2.82563e-06
1.72224e-06
1.17229e-06
1.14182e-06
2.13354e-06
4.89001e-06
9.56703e-06
1.59027e-05
1.83974e-05
1.38856e-05
9.81037e-06
5.89568e-06
2.99018e-06
1.55709e-06
8.07343e-07
4.47824e-07
3.23614e-07
4.54242e-07
1.28934e-06
3.57392e-06
7.55481e-06
1.2948e-05
1.22315e-05
8.50511e-06
5.21744e-06
2.65205e-06
1.27033e-06
5.42467e-07
2.07173e-07
8.12763e-08
6.2721e-08
1.81471e-07
7.78747e-07
2.49033e-06
5.68046e-06
1.00749e-05
9.66375e-06
6.87336e-06
4.51497e-06
2.67333e-06
1.29974e-06
5.04186e-07
1.53305e-07
4.02188e-08
2.23241e-08
9.43361e-08
4.84772e-07
1.68393e-06
4.09667e-06
7.58197e-06
1.01709e-05
8.12832e-06
6.02492e-06
3.67005e-06
1.75796e-06
6.61954e-07
2.08938e-07
7.88e-08
5.35817e-08
9.52003e-08
3.53735e-07
1.19663e-06
2.98182e-06
5.67575e-06
1.29402e-05
1.11443e-05
8.59552e-06
5.38635e-06
2.68127e-06
1.06768e-06
4.03196e-07
2.30283e-07
2.02316e-07
2.38283e-07
4.15285e-07
9.93944e-07
2.26467e-06
4.27935e-06
1.71795e-05
1.5152e-05
1.19171e-05
7.82567e-06
4.15733e-06
1.8148e-06
8.32255e-07
6.23596e-07
6.44655e-07
7.47949e-07
9.3717e-07
1.38056e-06
2.25423e-06
3.67705e-06
2.30564e-05
2.04747e-05
1.62352e-05
1.10452e-05
6.25417e-06
3.01061e-06
1.62715e-06
1.43983e-06
1.64817e-06
1.9836e-06
2.36247e-06
2.86079e-06
3.49447e-06
4.46562e-06
2.98062e-05
2.66196e-05
2.13023e-05
1.48812e-05
8.92746e-06
4.74271e-06
2.91614e-06
2.83102e-06
3.42933e-06
4.25167e-06
5.07497e-06
5.87579e-06
6.4863e-06
7.19848e-06
3.72447e-05
3.34573e-05
2.69666e-05
1.91956e-05
1.20971e-05
7.0463e-06
4.78159e-06
4.81206e-06
5.93792e-06
7.49573e-06
9.05494e-06
1.04806e-05
1.14321e-05
1.22321e-05
4.34948e-05
3.93356e-05
3.21925e-05
2.33503e-05
1.53258e-05
9.69481e-06
7.13747e-06
7.23764e-06
8.8624e-06
1.12735e-05
1.38958e-05
1.64004e-05
1.8252e-05
1.97757e-05
4.95548e-05
4.47787e-05
3.7046e-05
2.73357e-05
1.85378e-05
1.25253e-05
9.79142e-06
9.91333e-06
1.19534e-05
1.52689e-05
1.92034e-05
2.31556e-05
2.63031e-05
2.91219e-05
5.12829e-05
4.38473e-05
3.66286e-05
2.872e-05
2.16224e-05
1.49715e-05
1.01145e-05
6.69735e-06
4.95143e-06
5.22378e-06
8.28331e-06
1.45854e-05
2.42511e-05
3.66196e-05
4.7358e-05
3.91756e-05
3.15923e-05
2.35793e-05
1.66849e-05
1.0517e-05
6.52191e-06
4.00878e-06
2.86686e-06
3.29632e-06
6.10241e-06
1.17194e-05
1.97312e-05
2.9426e-05
3.92888e-05
3.09087e-05
2.37439e-05
1.64522e-05
1.01688e-05
5.59017e-06
3.02938e-06
1.68048e-06
1.21977e-06
1.77773e-06
4.19816e-06
9.02376e-06
1.5681e-05
2.34184e-05
2.87611e-05
2.13317e-05
1.49571e-05
8.89996e-06
4.32771e-06
1.98188e-06
8.76477e-07
4.26667e-07
3.5885e-07
8.29005e-07
2.60383e-06
6.36736e-06
1.17349e-05
1.79218e-05
1.95802e-05
1.33332e-05
7.99786e-06
3.83533e-06
1.65944e-06
6.61362e-07
2.23425e-07
7.64644e-08
8.91902e-08
3.86263e-07
1.53138e-06
4.21249e-06
8.39311e-06
1.32588e-05
1.37542e-05
9.0757e-06
5.43841e-06
3.12249e-06
1.54203e-06
5.94027e-07
1.72204e-07
4.52088e-08
4.27193e-08
2.06246e-07
8.89536e-07
2.65069e-06
5.69424e-06
9.49306e-06
1.20164e-05
9.10927e-06
6.69132e-06
4.32511e-06
2.14083e-06
8.12789e-07
2.59008e-07
1.11079e-07
9.48423e-08
1.91685e-07
6.13025e-07
1.75876e-06
3.88697e-06
6.77008e-06
1.37196e-05
1.20757e-05
9.86456e-06
6.59213e-06
3.44243e-06
1.40641e-06
5.48995e-07
3.49768e-07
3.44007e-07
4.46963e-07
7.51562e-07
1.53019e-06
3.02167e-06
5.20729e-06
1.74192e-05
1.63891e-05
1.39709e-05
9.93865e-06
5.62691e-06
2.53977e-06
1.18356e-06
9.46276e-07
1.05998e-06
1.33671e-06
1.76472e-06
2.50556e-06
3.68531e-06
5.37743e-06
2.27706e-05
2.20534e-05
1.92533e-05
1.44338e-05
8.86672e-06
4.45111e-06
2.36026e-06
2.11353e-06
2.57595e-06
3.33175e-06
4.24059e-06
5.34491e-06
6.55955e-06
8.08097e-06
2.90834e-05
2.86136e-05
2.55551e-05
1.99429e-05
1.31498e-05
7.32143e-06
4.27493e-06
3.96248e-06
5.01164e-06
6.60724e-06
8.37492e-06
1.02592e-05
1.19254e-05
1.3675e-05
3.69878e-05
3.6588e-05
3.32065e-05
2.64214e-05
1.83461e-05
1.11566e-05
7.0508e-06
6.45062e-06
8.02781e-06
1.06393e-05
1.35578e-05
1.67055e-05
1.95085e-05
2.22507e-05
4.45744e-05
4.43718e-05
4.09577e-05
3.31798e-05
2.38877e-05
1.5631e-05
1.05788e-05
9.42357e-06
1.1133e-05
1.45496e-05
1.88262e-05
2.37347e-05
2.85118e-05
3.34086e-05
5.30462e-05
5.29334e-05
4.89349e-05
4.01783e-05
2.96413e-05
2.04008e-05
1.44835e-05
1.26224e-05
1.41075e-05
1.80445e-05
2.36525e-05
3.0478e-05
3.73253e-05
4.47452e-05
4.39847e-05
3.71631e-05
3.13255e-05
2.51114e-05
1.94382e-05
1.37893e-05
9.40982e-06
6.44047e-06
5.80187e-06
8.2459e-06
1.42722e-05
2.35281e-05
3.50196e-05
4.70587e-05
4.47022e-05
3.69975e-05
3.01459e-05
2.29437e-05
1.63617e-05
1.02926e-05
6.12844e-06
3.71893e-06
3.2516e-06
5.22811e-06
1.03415e-05
1.81777e-05
2.73037e-05
3.603e-05
4.18928e-05
3.32858e-05
2.57006e-05
1.8053e-05
1.1106e-05
5.80327e-06
2.84799e-06
1.50137e-06
1.39275e-06
2.91871e-06
7.03885e-06
1.35891e-05
2.08922e-05
2.73599e-05
3.50975e-05
2.61675e-05
1.82753e-05
1.10026e-05
5.25298e-06
2.10895e-06
8.0074e-07
3.65807e-07
4.49562e-07
1.42962e-06
4.28076e-06
9.28436e-06
1.51423e-05
2.02467e-05
2.6846e-05
1.80723e-05
1.05353e-05
5.00974e-06
1.90261e-06
6.6597e-07
1.94755e-07
6.5246e-08
1.41439e-07
6.72594e-07
2.38774e-06
5.85031e-06
1.04269e-05
1.46821e-05
1.91456e-05
1.17681e-05
6.25486e-06
3.17687e-06
1.52294e-06
5.61532e-07
1.49647e-07
4.08811e-08
6.93789e-08
3.38233e-07
1.27801e-06
3.41552e-06
6.69231e-06
1.02649e-05
1.47248e-05
9.9277e-06
6.63143e-06
4.24942e-06
2.09226e-06
7.7655e-07
2.41264e-07
1.14435e-07
1.21254e-07
2.85049e-07
8.5378e-07
2.20378e-06
4.47384e-06
7.32205e-06
1.45973e-05
1.2168e-05
9.83639e-06
6.66658e-06
3.502e-06
1.42337e-06
5.59244e-07
3.89304e-07
4.22499e-07
6.14675e-07
1.08067e-06
2.09441e-06
3.82412e-06
6.18995e-06
1.69831e-05
1.59907e-05
1.40795e-05
1.03479e-05
6.01245e-06
2.73468e-06
1.284e-06
1.09274e-06
1.31067e-06
1.79785e-06
2.56763e-06
3.79805e-06
5.57297e-06
7.91537e-06
2.06879e-05
2.06682e-05
1.91707e-05
1.53539e-05
9.99679e-06
5.13726e-06
2.67944e-06
2.46654e-06
3.16139e-06
4.35909e-06
5.93836e-06
7.9282e-06
1.02386e-05
1.30082e-05
2.45031e-05
2.55054e-05
2.48231e-05
2.12989e-05
1.53747e-05
9.02087e-06
5.12788e-06
4.59417e-06
6.00098e-06
8.26699e-06
1.0994e-05
1.4111e-05
1.73702e-05
2.10598e-05
2.95533e-05
3.14037e-05
3.13681e-05
2.80602e-05
2.18452e-05
1.43695e-05
8.90997e-06
7.45747e-06
9.18547e-06
1.25377e-05
1.64186e-05
2.09586e-05
2.5806e-05
3.11173e-05
3.48203e-05
3.75157e-05
3.83834e-05
3.52385e-05
2.89239e-05
2.08108e-05
1.39877e-05
1.11442e-05
1.22509e-05
1.59233e-05
2.07205e-05
2.68335e-05
3.38673e-05
4.19607e-05
4.2033e-05
4.52734e-05
4.6198e-05
4.29267e-05
3.63617e-05
2.7631e-05
1.96785e-05
1.53239e-05
1.51857e-05
1.83389e-05
2.34946e-05
3.0741e-05
3.9448e-05
5.05488e-05
3.16979e-05
3.98394e-05
4.5779e-05
4.85259e-05
5.77969e-05
3.40489e-05
2.69297e-05
3.57541e-05
4.49226e-05
5.1942e-05
6.36529e-05
3.50686e-05
2.32882e-05
3.25044e-05
4.37085e-05
5.5622e-05
7.39988e-05
3.73564e-05
1.93949e-05
2.82011e-05
4.02253e-05
5.65404e-05
8.48983e-05
4.05738e-05
1.53713e-05
2.28756e-05
3.39821e-05
5.31624e-05
9.34605e-05
4.40444e-05
1.18104e-05
1.77236e-05
2.68156e-05
4.6512e-05
9.72815e-05
4.7283e-05
9.0299e-06
1.35536e-05
2.07855e-05
3.88386e-05
9.4739e-05
5.02235e-05
6.94122e-06
1.05562e-05
1.65337e-05
3.22597e-05
8.84484e-05
5.21437e-05
5.75912e-06
8.9011e-06
1.42215e-05
2.79443e-05
7.99246e-05
5.27877e-05
6.06003e-06
9.1048e-06
1.43357e-05
2.65051e-05
7.10352e-05
5.19572e-05
8.48317e-06
1.18816e-05
1.75719e-05
2.81757e-05
6.2792e-05
5.02984e-05
1.33968e-05
1.75298e-05
2.40156e-05
3.26294e-05
5.58066e-05
4.81403e-05
2.08257e-05
2.58537e-05
3.29705e-05
3.87814e-05
5.15645e-05
4.51145e-05
2.97923e-05
3.58081e-05
4.25945e-05
4.54935e-05
5.31749e-05
3.91487e-05
4.77796e-05
5.63673e-05
6.1546e-05
6.43734e-05
6.46279e-05
3.59862e-05
3.84085e-05
4.82498e-05
5.79197e-05
6.69472e-05
7.35832e-05
4.08124e-05
3.1192e-05
4.08673e-05
5.24339e-05
6.59478e-05
8.04204e-05
4.56872e-05
2.43278e-05
3.27003e-05
4.38064e-05
5.99091e-05
8.30759e-05
4.96783e-05
1.82626e-05
2.47901e-05
3.39421e-05
5.04209e-05
8.17481e-05
5.22785e-05
1.3426e-05
1.83377e-05
2.52976e-05
4.03564e-05
7.72341e-05
5.33905e-05
9.92016e-06
1.37358e-05
1.92109e-05
3.20408e-05
7.04783e-05
5.32977e-05
7.78038e-06
1.118e-05
1.62302e-05
2.71635e-05
6.25911e-05
5.27241e-05
7.55216e-06
1.11471e-05
1.66074e-05
2.68006e-05
5.60814e-05
5.1914e-05
1.00487e-05
1.44879e-05
2.12574e-05
3.14418e-05
5.24334e-05
5.04151e-05
1.57897e-05
2.18157e-05
3.04378e-05
4.03022e-05
5.07581e-05
4.84239e-05
2.45997e-05
3.23154e-05
4.23248e-05
5.08568e-05
5.08613e-05
4.60586e-05
3.56516e-05
4.4163e-05
5.41877e-05
6.04773e-05
5.4007e-05
4.30023e-05
4.63087e-05
5.46198e-05
6.3013e-05
6.68613e-05
6.16348e-05
3.78909e-05
5.50279e-05
6.15962e-05
6.61989e-05
6.99109e-05
6.58707e-05
4.71049e-05
4.14847e-05
4.80917e-05
5.49851e-05
6.27273e-05
6.70806e-05
5.1597e-05
3.19646e-05
3.75634e-05
4.4223e-05
5.29642e-05
6.33538e-05
5.44567e-05
2.40484e-05
2.85046e-05
3.39747e-05
4.21277e-05
5.57529e-05
5.55984e-05
1.79378e-05
2.15931e-05
2.58407e-05
3.29378e-05
4.84686e-05
5.52139e-05
1.32858e-05
1.65028e-05
2.01614e-05
2.65024e-05
4.23111e-05
5.37621e-05
1.01397e-05
1.33795e-05
1.73024e-05
2.3744e-05
3.88756e-05
5.21965e-05
8.93949e-06
1.28287e-05
1.78748e-05
2.5343e-05
4.00699e-05
5.16394e-05
1.07826e-05
1.60704e-05
2.3299e-05
3.2873e-05
4.72449e-05
5.28309e-05
1.63585e-05
2.40093e-05
3.44805e-05
4.63099e-05
5.84313e-05
5.51232e-05
2.51498e-05
3.55488e-05
4.89938e-05
6.17985e-05
6.81569e-05
5.67923e-05
3.52695e-05
4.72814e-05
6.18151e-05
7.48927e-05
7.41876e-05
5.69017e-05
4.51611e-05
5.62296e-05
6.94016e-05
8.20934e-05
7.67307e-05
5.44072e-05
5.21927e-05
6.0702e-05
7.05185e-05
8.01056e-05
7.54737e-05
4.87602e-05
3.86506e-05
4.51778e-05
4.93998e-05
5.07344e-05
5.83972e-05
3.43525e-05
3.43036e-05
4.23479e-05
5.05538e-05
5.71022e-05
6.81298e-05
3.53629e-05
2.99834e-05
3.88091e-05
4.96746e-05
6.20528e-05
8.09637e-05
3.76855e-05
2.47775e-05
3.3044e-05
4.49203e-05
6.24582e-05
9.24822e-05
4.07876e-05
1.94906e-05
2.63278e-05
3.73143e-05
5.79871e-05
9.9504e-05
4.3768e-05
1.52181e-05
2.07376e-05
3.0227e-05
5.15433e-05
0.000101527
4.6014e-05
1.27662e-05
1.75154e-05
2.57158e-05
4.58988e-05
9.9901e-05
4.74185e-05
1.25671e-05
1.70801e-05
2.4575e-05
4.27388e-05
9.54573e-05
4.81921e-05
1.51664e-05
1.98458e-05
2.71552e-05
4.30535e-05
8.89882e-05
4.83417e-05
2.07083e-05
2.59149e-05
3.31365e-05
4.63548e-05
8.14233e-05
4.78715e-05
2.85563e-05
3.43672e-05
4.12148e-05
5.09704e-05
7.28948e-05
4.75267e-05
3.7295e-05
4.30524e-05
4.93912e-05
5.52797e-05
6.50144e-05
4.71038e-05
4.52532e-05
5.0428e-05
5.63837e-05
5.92877e-05
6.18528e-05
4.43631e-05
5.0335e-05
5.49361e-05
6.02309e-05
6.25237e-05
6.44983e-05
3.76016e-05
5.31488e-05
6.0331e-05
6.5438e-05
6.89727e-05
7.00424e-05
3.64916e-05
4.43886e-05
5.31925e-05
6.28847e-05
7.28948e-05
8.08928e-05
4.15712e-05
3.6324e-05
4.48031e-05
5.60054e-05
7.07766e-05
8.718e-05
4.64527e-05
2.80516e-05
3.4925e-05
4.53509e-05
6.27462e-05
8.76442e-05
5.01967e-05
2.12877e-05
2.66531e-05
3.55416e-05
5.31159e-05
8.39438e-05
5.24733e-05
1.70333e-05
2.17741e-05
2.95995e-05
4.59283e-05
7.86392e-05
5.34643e-05
1.58697e-05
2.08202e-05
2.84043e-05
4.30137e-05
7.39596e-05
5.36809e-05
1.82233e-05
2.39349e-05
3.20757e-05
4.51618e-05
7.07032e-05
5.35294e-05
2.44757e-05
3.12521e-05
4.03179e-05
5.19835e-05
6.84672e-05
5.31281e-05
3.36777e-05
4.15508e-05
5.10405e-05
6.13585e-05
6.70303e-05
5.24446e-05
4.32988e-05
5.16962e-05
6.07791e-05
7.00694e-05
6.69566e-05
5.17189e-05
5.08457e-05
5.82284e-05
6.66965e-05
7.47542e-05
6.89906e-05
5.06206e-05
5.47829e-05
6.06974e-05
6.87865e-05
7.58255e-05
7.41345e-05
4.73969e-05
5.49698e-05
6.01958e-05
6.8156e-05
7.55756e-05
8.09337e-05
4.13361e-05
5.51832e-05
6.06863e-05
6.60096e-05
7.07513e-05
6.83949e-05
4.77451e-05
4.24919e-05
4.77572e-05
5.44851e-05
6.2834e-05
6.90367e-05
5.21407e-05
3.28496e-05
3.66639e-05
4.2482e-05
5.16276e-05
6.36738e-05
5.48391e-05
2.51029e-05
2.79649e-05
3.26668e-05
4.14079e-05
5.65573e-05
5.62013e-05
2.01571e-05
2.31432e-05
2.76372e-05
3.60358e-05
5.21315e-05
5.70487e-05
1.80893e-05
2.21475e-05
2.75664e-05
3.6354e-05
5.17978e-05
5.84671e-05
1.96972e-05
2.54444e-05
3.26118e-05
4.22583e-05
5.65498e-05
6.11282e-05
2.52766e-05
3.29197e-05
4.22516e-05
5.30958e-05
6.48592e-05
6.46437e-05
3.39105e-05
4.29897e-05
5.39837e-05
6.55141e-05
7.25799e-05
6.79361e-05
4.2462e-05
5.16276e-05
6.27507e-05
7.52635e-05
7.74154e-05
6.99619e-05
4.76961e-05
5.56026e-05
6.56074e-05
7.93901e-05
7.9228e-05
6.96225e-05
4.89512e-05
5.45733e-05
6.26981e-05
7.61113e-05
7.75953e-05
6.60334e-05
4.71402e-05
5.07307e-05
5.69953e-05
6.75836e-05
7.25014e-05
5.92001e-05
4.32147e-05
4.60937e-05
5.12108e-05
5.91376e-05
6.74687e-05
5.0234e-05
3.77986e-05
6.03369e-05
5.78523e-05
5.53929e-05
5.01981e-05
4.53866e-05
4.61157e-05
6.1209e-05
5.545e-05
5.08817e-05
4.39271e-05
3.86336e-05
5.07428e-05
6.62785e-05
5.26366e-05
4.4341e-05
3.59299e-05
3.00924e-05
5.2803e-05
7.40263e-05
4.89694e-05
3.70634e-05
2.80799e-05
2.19642e-05
5.34823e-05
8.23834e-05
4.47081e-05
3.03158e-05
2.1657e-05
1.5973e-05
5.35751e-05
8.96682e-05
4.13774e-05
2.55153e-05
1.76545e-05
1.27559e-05
5.26531e-05
9.64487e-05
4.05784e-05
2.34265e-05
1.63033e-05
1.22977e-05
5.02337e-05
0.000102659
4.31864e-05
2.43094e-05
1.75342e-05
1.42424e-05
4.72352e-05
0.000106419
4.89419e-05
2.8552e-05
2.14105e-05
1.82332e-05
4.43954e-05
0.000105702
5.67504e-05
3.62937e-05
2.81309e-05
2.43553e-05
4.129e-05
0.000100791
6.45428e-05
4.61465e-05
3.68894e-05
3.17771e-05
3.803e-05
9.2312e-05
6.94008e-05
5.51229e-05
4.58295e-05
3.97104e-05
3.51261e-05
8.08582e-05
6.88322e-05
6.01179e-05
5.23651e-05
4.63582e-05
3.30786e-05
6.94936e-05
6.48699e-05
6.12183e-05
5.68182e-05
5.23805e-05
4.03076e-05
6.83352e-05
6.74132e-05
6.31132e-05
5.72395e-05
5.23739e-05
4.71172e-05
6.58343e-05
6.79694e-05
6.2482e-05
5.52958e-05
4.94973e-05
5.17341e-05
6.5264e-05
6.76381e-05
5.95579e-05
5.02657e-05
4.27737e-05
5.42087e-05
6.68866e-05
6.47621e-05
5.39065e-05
4.28068e-05
3.38968e-05
5.5654e-05
6.93266e-05
5.82925e-05
4.5739e-05
3.41966e-05
2.54063e-05
5.65039e-05
7.15482e-05
5.03928e-05
3.71151e-05
2.67195e-05
1.89494e-05
5.62342e-05
7.39721e-05
4.37795e-05
3.0377e-05
2.16809e-05
1.56123e-05
5.52796e-05
7.66542e-05
4.05659e-05
2.67598e-05
1.96646e-05
1.54589e-05
5.40599e-05
7.96497e-05
4.13469e-05
2.67531e-05
2.065e-05
1.78404e-05
5.25782e-05
8.3507e-05
4.61639e-05
3.05421e-05
2.45584e-05
2.24327e-05
5.05152e-05
8.74792e-05
5.44017e-05
3.8254e-05
3.14601e-05
2.87626e-05
4.75759e-05
9.08136e-05
6.45334e-05
4.9124e-05
4.10631e-05
3.69932e-05
4.37163e-05
8.97837e-05
7.27101e-05
5.99234e-05
5.09741e-05
4.53411e-05
3.90718e-05
8.4366e-05
7.51678e-05
6.6552e-05
5.87815e-05
5.31231e-05
4.90548e-05
5.89648e-05
5.54831e-05
5.06407e-05
4.71685e-05
4.44125e-05
5.79122e-05
6.59296e-05
6.24972e-05
5.47038e-05
4.97155e-05
4.60639e-05
6.50063e-05
7.29031e-05
6.95842e-05
5.83412e-05
5.07841e-05
4.46721e-05
6.92938e-05
7.65344e-05
7.30888e-05
6.01845e-05
4.97975e-05
4.06252e-05
7.07274e-05
7.70151e-05
7.08332e-05
5.79516e-05
4.561e-05
3.46067e-05
6.98589e-05
7.50012e-05
6.42557e-05
5.10142e-05
3.83572e-05
2.73096e-05
6.73117e-05
6.98932e-05
5.45916e-05
4.15726e-05
3.05169e-05
2.11493e-05
6.3749e-05
6.27628e-05
4.47587e-05
3.32824e-05
2.47958e-05
1.82261e-05
6.01325e-05
5.65588e-05
3.75018e-05
2.78775e-05
2.18912e-05
1.81184e-05
5.71349e-05
5.35157e-05
3.39308e-05
2.55817e-05
2.16106e-05
2.00726e-05
5.48104e-05
5.40945e-05
3.44042e-05
2.6545e-05
2.35733e-05
2.30528e-05
5.27395e-05
5.80101e-05
3.88738e-05
3.08873e-05
2.79354e-05
2.74465e-05
5.03895e-05
6.26063e-05
4.64404e-05
3.84947e-05
3.44868e-05
3.28403e-05
4.72834e-05
6.38939e-05
5.33612e-05
4.67264e-05
4.21394e-05
3.95508e-05
4.03582e-05
5.54708e-05
4.41907e-05
3.85721e-05
2.99239e-05
2.36366e-05
4.80016e-05
5.43876e-05
3.75359e-05
2.91597e-05
2.06576e-05
1.56788e-05
5.25112e-05
5.68733e-05
3.12315e-05
2.11782e-05
1.38315e-05
9.76605e-06
5.53141e-05
6.12642e-05
2.65435e-05
1.58726e-05
9.82584e-06
6.49289e-06
5.68329e-05
6.71388e-05
2.44138e-05
1.35086e-05
8.5072e-06
5.65945e-06
5.71195e-05
7.4294e-05
2.53395e-05
1.38691e-05
9.44279e-06
6.7841e-06
5.58234e-05
8.23041e-05
2.92323e-05
1.65061e-05
1.21957e-05
9.39904e-06
5.2872e-05
9.05046e-05
3.59261e-05
2.12096e-05
1.65441e-05
1.3358e-05
4.88057e-05
9.61717e-05
4.49468e-05
2.82335e-05
2.24561e-05
1.85713e-05
4.49868e-05
9.56146e-05
5.44462e-05
3.74887e-05
2.99418e-05
2.50815e-05
4.12253e-05
9.00398e-05
6.15384e-05
4.66535e-05
3.78207e-05
3.1744e-05
3.75844e-05
8.11914e-05
6.4119e-05
5.31605e-05
4.47562e-05
3.8248e-05
3.45764e-05
7.03928e-05
6.21095e-05
5.58992e-05
4.95191e-05
4.35947e-05
3.25221e-05
6.16185e-05
5.88932e-05
5.66965e-05
5.36183e-05
4.92218e-05
3.83197e-05
6.01061e-05
6.33503e-05
5.83217e-05
4.80595e-05
3.88906e-05
4.47913e-05
5.55709e-05
5.73889e-05
4.88805e-05
3.66539e-05
2.78515e-05
4.92319e-05
5.30723e-05
4.84155e-05
3.75847e-05
2.57232e-05
1.80305e-05
5.23036e-05
5.15547e-05
3.85661e-05
2.70578e-05
1.72656e-05
1.1246e-05
5.4089e-05
5.12786e-05
3.00609e-05
1.94991e-05
1.22012e-05
7.73195e-06
5.4863e-05
5.25891e-05
2.51508e-05
1.59131e-05
1.05727e-05
7.18372e-06
5.47726e-05
5.62717e-05
2.44221e-05
1.58288e-05
1.17457e-05
9.00692e-06
5.41239e-05
6.22789e-05
2.72525e-05
1.83496e-05
1.50939e-05
1.27058e-05
5.32775e-05
6.8896e-05
3.35726e-05
2.33964e-05
2.00667e-05
1.77211e-05
5.20034e-05
7.43127e-05
4.27251e-05
3.10415e-05
2.66006e-05
2.40204e-05
4.99216e-05
7.81607e-05
5.28393e-05
4.05616e-05
3.44446e-05
3.08447e-05
4.68919e-05
7.98732e-05
6.1877e-05
5.03885e-05
4.30017e-05
3.8273e-05
4.30783e-05
7.6147e-05
6.67204e-05
5.7797e-05
5.04573e-05
4.51334e-05
3.85063e-05
6.98086e-05
6.68153e-05
6.17833e-05
5.66678e-05
5.20656e-05
4.82514e-05
7.46499e-05
7.82107e-05
6.95337e-05
5.88576e-05
4.88807e-05
5.42637e-05
7.79897e-05
7.95932e-05
6.71203e-05
5.17404e-05
3.91734e-05
5.75107e-05
7.69393e-05
7.3001e-05
5.92378e-05
4.17605e-05
2.8397e-05
5.83065e-05
7.17114e-05
6.12503e-05
4.62366e-05
3.04004e-05
1.9069e-05
5.72289e-05
6.23217e-05
4.6788e-05
3.27383e-05
2.05491e-05
1.22954e-05
5.50067e-05
5.11276e-05
3.39433e-05
2.28467e-05
1.46566e-05
9.00595e-06
5.2938e-05
4.21529e-05
2.58718e-05
1.81933e-05
1.28675e-05
9.03109e-06
5.18571e-05
3.76366e-05
2.269e-05
1.74369e-05
1.41637e-05
1.16509e-05
5.17608e-05
3.76705e-05
2.30044e-05
1.91322e-05
1.71657e-05
1.56305e-05
5.20144e-05
4.05964e-05
2.60125e-05
2.24122e-05
2.11283e-05
2.0389e-05
5.1975e-05
4.52975e-05
3.12865e-05
2.71313e-05
2.56614e-05
2.50044e-05
5.11935e-05
5.14145e-05
3.84319e-05
3.32786e-05
3.10286e-05
3.00641e-05
4.93512e-05
5.50795e-05
4.56656e-05
4.02318e-05
3.70032e-05
3.5237e-05
4.64185e-05
5.46873e-05
5.06129e-05
4.6596e-05
4.36871e-05
4.14637e-05
3.61914e-05
3.06492e-05
2.64621e-05
2.17418e-05
1.71376e-05
1.20726e-05
8.14888e-06
5.86781e-06
6.23354e-06
9.954e-06
1.66978e-05
2.5026e-05
3.38085e-05
4.35599e-05
3.64326e-05
3.0671e-05
2.53036e-05
1.97654e-05
1.40284e-05
8.49871e-06
4.81144e-06
2.93829e-06
3.0792e-06
5.74595e-06
1.12964e-05
1.87689e-05
2.63506e-05
3.27432e-05
3.44919e-05
2.83015e-05
2.18751e-05
1.54073e-05
9.2398e-06
4.57005e-06
2.0332e-06
1.03306e-06
1.20241e-06
3.01437e-06
7.30861e-06
1.36912e-05
2.02161e-05
2.50717e-05
3.13368e-05
2.37001e-05
1.60801e-05
9.30793e-06
4.28322e-06
1.6176e-06
5.24319e-07
2.19329e-07
3.56043e-07
1.37691e-06
4.22649e-06
9.11912e-06
1.4617e-05
1.87188e-05
2.65592e-05
1.74971e-05
9.76604e-06
4.414e-06
1.64238e-06
5.29535e-07
1.3015e-07
3.79532e-08
1.10523e-07
5.90571e-07
2.21363e-06
5.50601e-06
9.74763e-06
1.3478e-05
2.04071e-05
1.1872e-05
5.96202e-06
2.80107e-06
1.24308e-06
4.23573e-07
1.01401e-07
2.55389e-08
5.00199e-08
2.61188e-07
1.01914e-06
2.82521e-06
5.74391e-06
9.14709e-06
1.57652e-05
9.62126e-06
5.86615e-06
3.42893e-06
1.58449e-06
5.50605e-07
1.62204e-07
7.6878e-08
8.61985e-08
2.18616e-07
6.75818e-07
1.79526e-06
3.80166e-06
6.59344e-06
1.48083e-05
1.1193e-05
8.36414e-06
5.22163e-06
2.58716e-06
1.00603e-06
3.90615e-07
2.75965e-07
3.06559e-07
4.76121e-07
8.87722e-07
1.8177e-06
3.48915e-06
6.04439e-06
1.66613e-05
1.45279e-05
1.18823e-05
8.18745e-06
4.51711e-06
1.99786e-06
9.47478e-07
8.10596e-07
9.80315e-07
1.41597e-06
2.14886e-06
3.44613e-06
5.45909e-06
8.41114e-06
1.96536e-05
1.84894e-05
1.62376e-05
1.23989e-05
7.76328e-06
3.94316e-06
2.09109e-06
1.91277e-06
2.45142e-06
3.52416e-06
5.05511e-06
7.24059e-06
1.00434e-05
1.38095e-05
2.23131e-05
2.22582e-05
2.0917e-05
1.74835e-05
1.23731e-05
7.23119e-06
4.1735e-06
3.74137e-06
4.88186e-06
6.91725e-06
9.52927e-06
1.27973e-05
1.64925e-05
2.11442e-05
2.56894e-05
2.65331e-05
2.59376e-05
2.31975e-05
1.82696e-05
1.2167e-05
7.61739e-06
6.3494e-06
7.90484e-06
1.08898e-05
1.44418e-05
1.86993e-05
2.33983e-05
2.89935e-05
2.86665e-05
3.07022e-05
3.11858e-05
2.92317e-05
2.49803e-05
1.85528e-05
1.27093e-05
1.00337e-05
1.08745e-05
1.42916e-05
1.83825e-05
2.34699e-05
2.94947e-05
3.6882e-05
3.38092e-05
3.6158e-05
3.65665e-05
3.52858e-05
3.18851e-05
2.58039e-05
1.90764e-05
1.47957e-05
1.42022e-05
1.6694e-05
2.06213e-05
2.63426e-05
3.3711e-05
4.46102e-05
3.15291e-05
2.7418e-05
2.36232e-05
1.90871e-05
1.46071e-05
9.90348e-06
6.45518e-06
4.46748e-06
4.40174e-06
6.75423e-06
1.12825e-05
1.68984e-05
2.23715e-05
2.72793e-05
2.97688e-05
2.56446e-05
2.09301e-05
1.59007e-05
1.08327e-05
6.24726e-06
3.38737e-06
2.02989e-06
1.99718e-06
3.5912e-06
7.29118e-06
1.2662e-05
1.83598e-05
2.29737e-05
2.75711e-05
2.22819e-05
1.64879e-05
1.09578e-05
6.19651e-06
2.92638e-06
1.24837e-06
6.35039e-07
7.14164e-07
1.74058e-06
4.48298e-06
9.13927e-06
1.45702e-05
1.90765e-05
2.45825e-05
1.76031e-05
1.10041e-05
5.85333e-06
2.54924e-06
9.20296e-07
2.85976e-07
1.20127e-07
1.91744e-07
7.46009e-07
2.47685e-06
5.92441e-06
1.04922e-05
1.47144e-05
2.02469e-05
1.23844e-05
6.33002e-06
2.69607e-06
1.02727e-06
3.30998e-07
7.87442e-08
2.08189e-08
5.67307e-08
3.18312e-07
1.28521e-06
3.50533e-06
6.93506e-06
1.05918e-05
1.5418e-05
8.47201e-06
4.17784e-06
2.0148e-06
8.57386e-07
2.76969e-07
6.30547e-08
1.42198e-08
2.59175e-08
1.42747e-07
5.9306e-07
1.78293e-06
3.95574e-06
6.90255e-06
1.23867e-05
7.4738e-06
4.53119e-06
2.43277e-06
1.03745e-06
3.36839e-07
9.43717e-08
4.21733e-08
4.43784e-08
1.15812e-07
3.89265e-07
1.11865e-06
2.56488e-06
4.81848e-06
1.25703e-05
9.21898e-06
6.29347e-06
3.55721e-06
1.59683e-06
5.77919e-07
2.23972e-07
1.5765e-07
1.63599e-07
2.44669e-07
4.78724e-07
1.06736e-06
2.22439e-06
4.16033e-06
1.49435e-05
1.22177e-05
8.98453e-06
5.53616e-06
2.73257e-06
1.13176e-06
5.61005e-07
4.87499e-07
5.50223e-07
7.57034e-07
1.14878e-06
1.93567e-06
3.28227e-06
5.4695e-06
1.8053e-05
1.57785e-05
1.25757e-05
8.60724e-06
4.80073e-06
2.27104e-06
1.28282e-06
1.21798e-06
1.46819e-06
2.03197e-06
2.90781e-06
4.29481e-06
6.22261e-06
8.97474e-06
2.08016e-05
1.93038e-05
1.6592e-05
1.25779e-05
7.9768e-06
4.31729e-06
2.61112e-06
2.52985e-06
3.16687e-06
4.37193e-06
6.03595e-06
8.24376e-06
1.07945e-05
1.4002e-05
2.41184e-05
2.31017e-05
2.09209e-05
1.73587e-05
1.25013e-05
7.73005e-06
4.9111e-06
4.50414e-06
5.61733e-06
7.60189e-06
1.00742e-05
1.30035e-05
1.59526e-05
1.92919e-05
2.63992e-05
2.65027e-05
2.52094e-05
2.25263e-05
1.81127e-05
1.27065e-05
8.58061e-06
7.2726e-06
8.40047e-06
1.09824e-05
1.3974e-05
1.73934e-05
2.05513e-05
2.39368e-05
2.97306e-05
2.98617e-05
2.90535e-05
2.74589e-05
2.4064e-05
1.87957e-05
1.37105e-05
1.11041e-05
1.13485e-05
1.37009e-05
1.68415e-05
2.05642e-05
2.38879e-05
2.77461e-05
2.72544e-05
2.31237e-05
1.91256e-05
1.48523e-05
1.0829e-05
6.94625e-06
4.28087e-06
2.77036e-06
2.29797e-06
3.07745e-06
5.41364e-06
9.10929e-06
1.3552e-05
1.82426e-05
2.32379e-05
1.90041e-05
1.4709e-05
1.0504e-05
6.7545e-06
3.78087e-06
1.95703e-06
1.12886e-06
9.55833e-07
1.44803e-06
3.12581e-06
6.33539e-06
1.07415e-05
1.53374e-05
1.98366e-05
1.45578e-05
9.85153e-06
6.01512e-06
3.23184e-06
1.48627e-06
6.18907e-07
3.09319e-07
2.99051e-07
6.26827e-07
1.78532e-06
4.37335e-06
8.32915e-06
1.26917e-05
1.59926e-05
1.01317e-05
5.66741e-06
2.74684e-06
1.16373e-06
4.15986e-07
1.2777e-07
5.10421e-08
6.58793e-08
2.43561e-07
9.41281e-07
2.72722e-06
5.7987e-06
9.58512e-06
1.20262e-05
6.5989e-06
3.17056e-06
1.38115e-06
5.54247e-07
1.8543e-07
4.40092e-08
9.13922e-09
1.65688e-08
1.02352e-07
4.86485e-07
1.58893e-06
3.72167e-06
6.7316e-06
8.99634e-06
4.85357e-06
2.53388e-06
1.25563e-06
5.18936e-07
1.65927e-07
3.691e-08
7.03481e-09
8.32133e-09
5.05639e-08
2.42153e-07
8.23577e-07
2.10402e-06
4.19387e-06
8.04794e-06
5.04094e-06
3.00715e-06
1.50946e-06
6.13136e-07
1.95474e-07
5.19601e-08
2.08502e-08
1.85179e-08
4.45884e-08
1.65171e-07
5.30453e-07
1.3537e-06
2.8198e-06
9.41648e-06
6.70951e-06
4.12119e-06
2.13391e-06
8.99076e-07
3.14132e-07
1.18653e-07
7.99069e-08
7.56736e-08
1.01911e-07
1.99557e-07
4.81015e-07
1.09687e-06
2.233e-06
1.19835e-05
8.97542e-06
5.87862e-06
3.24469e-06
1.47082e-06
5.90673e-07
3.0099e-07
2.57333e-07
2.67601e-07
3.33558e-07
4.75334e-07
8.0141e-07
1.42207e-06
2.57818e-06
1.50285e-05
1.18443e-05
8.34688e-06
5.01101e-06
2.50986e-06
1.16038e-06
7.0788e-07
6.75191e-07
7.55378e-07
9.60509e-07
1.29055e-06
1.86428e-06
2.74035e-06
4.2349e-06
1.78421e-05
1.48557e-05
1.12372e-05
7.40436e-06
4.14879e-06
2.16892e-06
1.46703e-06
1.48157e-06
1.74818e-06
2.2653e-06
2.99937e-06
4.03655e-06
5.3307e-06
7.26468e-06
2.11187e-05
1.81833e-05
1.46496e-05
1.06419e-05
6.72463e-06
3.9153e-06
2.74861e-06
2.78661e-06
3.38426e-06
4.39113e-06
5.69876e-06
7.2994e-06
8.96987e-06
1.11518e-05
2.36779e-05
2.13727e-05
1.83548e-05
1.46393e-05
1.0382e-05
6.70404e-06
4.78244e-06
4.63889e-06
5.58561e-06
7.13594e-06
8.99524e-06
1.11108e-05
1.3003e-05
1.51618e-05
2.67672e-05
2.44298e-05
2.20778e-05
1.91054e-05
1.4977e-05
1.0689e-05
7.83669e-06
7.14985e-06
8.04405e-06
9.99675e-06
1.21533e-05
1.46608e-05
1.6677e-05
1.89073e-05
2.03284e-05
1.61882e-05
1.26239e-05
9.03854e-06
5.96903e-06
3.55492e-06
2.11669e-06
1.36157e-06
1.03178e-06
1.07126e-06
1.76553e-06
3.44496e-06
6.32133e-06
1.04416e-05
1.53282e-05
1.09954e-05
7.68744e-06
4.87028e-06
2.83723e-06
1.4882e-06
7.72394e-07
4.64083e-07
3.7675e-07
4.39958e-07
8.74867e-07
2.1152e-06
4.58335e-06
8.34408e-06
1.12429e-05
6.89509e-06
4.03483e-06
2.13518e-06
1.04294e-06
4.50375e-07
1.91607e-07
1.04784e-07
9.668e-08
1.60013e-07
4.56466e-07
1.3795e-06
3.37796e-06
6.56888e-06
7.89876e-06
4.184e-06
2.03507e-06
8.8916e-07
3.54247e-07
1.20321e-07
3.61496e-08
1.54432e-08
1.72775e-08
5.20212e-08
2.26124e-07
8.19031e-07
2.22414e-06
4.66487e-06
5.61954e-06
2.84928e-06
1.36354e-06
6.19178e-07
2.47893e-07
7.92839e-08
1.77062e-08
3.17672e-09
3.46035e-09
2.09176e-08
1.17137e-07
4.71526e-07
1.37771e-06
3.09925e-06
4.63926e-06
2.58379e-06
1.36892e-06
6.39415e-07
2.44126e-07
7.23062e-08
1.50969e-08
2.58619e-09
1.81749e-09
1.08641e-08
6.23324e-08
2.52755e-07
7.72981e-07
1.85437e-06
4.86448e-06
2.97169e-06
1.60365e-06
7.24744e-07
2.67461e-07
7.83136e-08
1.93542e-08
7.20632e-09
5.46081e-09
1.07459e-08
4.38281e-08
1.66787e-07
5.008e-07
1.21754e-06
6.16169e-06
3.90207e-06
2.10003e-06
9.53164e-07
3.58129e-07
1.15494e-07
4.29064e-08
2.87441e-08
2.52282e-08
2.9185e-08
5.38693e-08
1.44714e-07
3.84991e-07
9.11024e-07
8.19347e-06
5.28806e-06
2.94234e-06
1.38482e-06
5.534e-07
2.12681e-07
1.15049e-07
9.97724e-08
9.69365e-08
1.08229e-07
1.39993e-07
2.33642e-07
4.46914e-07
9.24214e-07
1.0701e-05
7.22078e-06
4.23359e-06
2.12301e-06
9.35225e-07
4.32942e-07
2.93843e-07
2.84697e-07
2.97772e-07
3.46334e-07
4.2913e-07
5.91753e-07
8.66524e-07
1.4557e-06
1.32388e-05
9.42638e-06
5.89962e-06
3.21514e-06
1.58402e-06
8.54398e-07
6.61193e-07
6.8107e-07
7.54889e-07
9.1302e-07
1.14444e-06
1.48718e-06
1.9336e-06
2.79161e-06
1.61175e-05
1.20514e-05
8.15674e-06
4.91706e-06
2.71676e-06
1.62435e-06
1.32612e-06
1.40215e-06
1.61934e-06
2.00651e-06
2.53352e-06
3.19696e-06
3.90533e-06
5.0882e-06
1.87263e-05
1.48378e-05
1.09783e-05
7.35565e-06
4.52416e-06
2.91011e-06
2.41076e-06
2.55017e-06
2.99906e-06
3.74971e-06
4.70718e-06
5.81838e-06
6.83622e-06
8.25871e-06
2.18001e-05
1.80149e-05
1.44895e-05
1.0716e-05
7.27076e-06
4.95487e-06
4.0518e-06
4.18787e-06
4.85565e-06
6.05523e-06
7.47852e-06
9.08213e-06
1.04407e-05
1.20693e-05
1.28961e-05
8.88769e-06
6.1456e-06
3.92922e-06
2.37332e-06
1.37361e-06
8.35317e-07
5.62697e-07
4.26759e-07
3.58198e-07
4.38998e-07
8.99582e-07
2.09147e-06
4.47008e-06
8.26032e-06
4.71592e-06
2.75055e-06
1.51363e-06
7.99931e-07
4.12661e-07
2.33398e-07
1.56953e-07
1.31859e-07
1.25298e-07
1.78189e-07
4.67063e-07
1.33952e-06
3.31492e-06
5.03681e-06
2.39837e-06
1.13004e-06
5.08489e-07
2.21534e-07
9.33498e-08
4.47866e-08
2.95927e-08
2.76527e-08
3.43724e-08
7.71388e-08
2.79416e-07
9.23069e-07
2.43593e-06
3.21e-06
1.43361e-06
6.21333e-07
2.58785e-07
9.86956e-08
3.23193e-08
9.41739e-09
4.09271e-09
4.02594e-09
7.66867e-09
3.31443e-08
1.56631e-07
5.75236e-07
1.61935e-06
2.47135e-06
1.23408e-06
6.02914e-07
2.70985e-07
1.02792e-07
3.0693e-08
6.55574e-09
1.04128e-09
5.51295e-10
2.47871e-09