/*--------------------------------*- C++ -*----------------------------------*\
| =========                 |                                                 |
| \\      /  F ield         | OpenFOAM: The Open Source CFD Toolbox           |
|  \\    /   O peration     | Version:  v2106                                 |
|   \\  /    A nd           | Website:  www.openfoam.com                      |
|    \\/     M anipulation  |                                                 |
\*---------------------------------------------------------------------------*/
FoamFile
{
    version     2.0;
    format      ascii;
    arch        "LSB;label=32;scalar=64";
    class       volScalarField;
    location    "0.000144";
    object      p;
}
// * * * * * * * * * * * * * * * * * * * * * * * * * * * * * * * * * * * * * //

dimensions      [1 -1 -2 0 0 0 0];

internalField   nonuniform List<scalar> 
144746
(
201169
200882
200561
200258
200144
200163
200348
200598
200899
201205
201571
201967
202374
202495
201300
201158
200813
200656
200489
200536
200725
200939
201229
201537
201850
202167
202445
202529
201279
201255
201036
200971
200875
200910
201085
201246
201511
201752
201988
202208
202410
202422
201087
201163
201078
201076
201102
201198
201387
201527
201757
201952
202142
202296
202398
202290
200826
200926
200989
201084
201198
201346
201547
201722
201937
202109
202256
202352
202356
202160
200396
200635
200817
200989
201191
201414
201655
201860
202036
202184
202295
202376
202287
202079
200235
200473
200677
200890
201154
201436
201710
201951
202139
202277
202376
202341
202301
202036
199846
200159
200488
200810
201136
201466
201751
201995
202186
202319
202403
202345
202352
202049
199662
199961
200389
200788
201150
201489
201768
202000
202195
202338
202435
202378
202416
202071
199543
199839
200344
200800
201163
201488
201752
201978
202167
202304
202419
202402
202501
202192
199630
199991
200515
200969
201273
201538
201746
201922
202099
202300
202447
202487
202651
202433
199916
200184
200614
201041
201283
201490
201642
201808
201967
202154
202323
202412
202642
202493
200330
200830
201090
201427
201521
201588
201586
201654
201793
202008
202269
202454
202721
202780
200509
201023
201126
201396
201353
201352
201245
201307
201408
201619
201855
202157
202440
202521
200953
201249
201187
201082
201209
201242
201622
201908
202109
201981
201893
201558
201386
201435
200180
200612
200634
200972
201329
201618
202071
202258
202434
202383
202224
202101
201881
202008
200240
200737
200864
201234
201603
201854
202240
202387
202591
202619
202512
202501
202236
202362
200243
200732
200994
201303
201743
202040
202432
202559
202750
202789
202680
202635
202420
202458
200587
200850
201101
201378
201762
202011
202368
202530
202737
202834
202860
202845
202735
202688
200550
200800
201051
201345
201673
201958
202317
202506
202700
202838
202859
202820
202705
202681
200490
200679
200836
201146
201480
201805
202150
202409
202637
202813
202906
202892
202820
202724
200023
200153
200438
200811
201203
201622
201972
202259
202480
202655
202783
202831
202777
202659
199699
199673
200012
200387
200933
201340
201757
202085
202313
202503
202631
202651
202595
202344
199742
199428
199590
199951
200636
201055
201520
201847
202047
202278
202358
202382
202356
202017
199834
199374
199438
199671
200297
200768
201267
201559
201785
202032
202110
202126
202119
201640
200161
199313
199209
199395
200011
200558
201052
201296
201506
201657
201698
201663
201705
201175
200541
199722
199471
199449
199863
200382
200884
201129
201370
201494
201585
201517
201604
201239
200367
199479
199175
199079
199438
200011
200606
200891
201207
201413
201602
201795
201815
201376
197914
199216
199932
200967
202432
203607
204594
205099
205158
204805
204028
202958
201491
200424
197119
198795
199879
201325
202844
203910
204994
205565
205758
205506
204765
204068
202925
202342
197949
199571
200743
202033
203286
204223
205227
205806
206095
206032
205603
205078
204120
203452
198871
200195
201368
202496
203636
204562
205424
205963
206301
206338
206049
205636
204875
204139
199902
200895
201936
202874
203833
204595
205430
205979
206363
206547
206472
206235
205672
205184
200664
201504
202312
203075
203895
204627
205373
205877
206267
206536
206575
206420
205987
205621
200972
201714
202385
203065
203813
204465
205177
205717
206173
206529
206718
206711
206414
206088
201085
201461
201968
202604
203411
204128
204875
205430
205857
206245
206484
206485
206317
205956
200301
200728
201302
201973
202913
203626
204460
205074
205492
205929
206122
206100
205914
205517
199273
199545
200263
201080
202238
203097
204002
204654
204991
205443
205491
205423
205083
204662
198203
198302
199184
200109
201401
202412
203431
204093
204466
204834
204770
204608
204182
203680
197463
197121
198016
199049
200604
201777
202881
203483
203804
204019
203880
203650
203169
202172
197120
196692
197467
198268
199757
201050
202280
202875
203264
203290
202923
202507
202048
200974
196519
195689
196267
197245
198947
200405
201646
202277
202788
202791
202355
201996
201417
199993
202756
202867
202943
202804
202917
202996
202517
202374
202517
202473
202552
202746
202418
202266
202305
202173
202225
202487
202156
201934
201954
201832
201885
202193
201998
201693
201688
201568
201644
201875
201903
201534
201508
201357
201485
201596
201896
201502
201492
201323
201438
201401
201970
201549
201537
201320
201431
201497
202015
201691
201729
201512
201725
201786
202239
201990
202091
201981
202178
202222
202541
202420
202572
202467
202629
202570
202718
202646
202844
202732
202891
202774
202991
202940
203098
202970
203098
203026
202669
202537
202726
202628
202850
202997
202245
202301
202741
202506
203032
203173
202040
202197
202785
202996
203560
204075
202524
202644
203174
203423
204033
204601
202532
202644
203240
203544
204259
204782
202650
202585
203127
203369
204081
204467
202619
202469
202890
202959
203597
203797
202676
202308
202497
202310
202813
202796
202669
202071
202141
201643
202041
201538
202382
201550
201552
200795
201182
200465
202110
201146
201169
200299
200710
199746
201687
200780
200856
200004
200472
199606
201315
200597
200919
200366
200880
200276
201611
201301
201726
201377
201853
201406
201341
201190
201863
201995
202634
202521
200327
199446
198577
197117
197094
194418
200924
199749
199718
199257
199681
198756
202365
201264
201292
201093
201580
201584
203268
202372
202517
202269
202771
202772
204498
203648
203468
202803
202946
202301
205131
204497
204083
202803
202174
200134
205505
204683
203841
201862
200491
197038
205327
204020
202854
200197
198372
192829
204740
203188
201601
198371
196165
189311
203831
201880
200302
196930
194986
186877
202892
200620
199028
195631
194057
185705
201561
199218
197966
194979
193824
186285
201075
198942
197992
195634
194745
188846
199234
197480
197442
196328
196052
192403
202784
202762
202782
202705
202781
202797
202326
202209
202384
202287
202381
202541
202076
201838
201923
201857
201907
202195
201664
201434
201503
201438
201539
201757
201442
201132
201198
201123
201260
201362
201263
200913
200996
200867
200981
201057
201229
200849
200931
200740
200919
201071
201248
200911
201085
200978
201209
201287
201531
201341
201577
201479
201694
201808
201638
201507
201813
201774
201981
202089
201845
201802
202162
202150
202342
202417
201692
201643
202024
202053
202293
202468
201689
201655
202057
202133
202372
202579
201040
200982
201601
201899
202192
202556
202440
202509
202894
202831
203442
203690
202132
202496
203209
203399
203995
204424
202255
202448
203205
203515
204196
204685
201809
202064
202907
203249
204040
204411
201546
201688
202449
202698
203492
203738
201324
201252
201862
201945
202679
202629
200973
200714
201136
200871
201685
201574
200584
199993
200428
200087
200856
200594
200034
199428
199872
199464
200307
200259
199573
199062
199658
199470
200256
200506
199523
199327
200064
200131
200856
201279
199860
199918
200715
200996
201797
202194
200557
200981
201861
202372
203092
203641
201256
201829
202895
203683
204382
204941
200373
200032
199476
198737
198831
197007
200330
200104
200445
200208
200729
200303
201292
201022
201457
201469
202033
202122
201934
201731
202073
201787
202247
201922
202512
202121
202190
201450
201476
200061
202465
201785
201506
200272
199928
197020
201738
200898
200336
198609
197983
193826
200911
199669
198947
197076
196538
191356
199604
198218
197593
195746
195555
190078
198231
196712
196393
194757
194889
190373
196927
195749
195837
194801
195278
192345
196275
195538
196018
195773
196535
195373
196732
196529
197340
197823
198723
198833
196933
197049
198278
199601
200688
201765
202876
202503
202090
201732
201297
201237
203121
202830
202473
202255
201859
201709
203141
202789
202447
202199
201749
201542
203106
202801
202436
202089
201569
201311
202737
202391
201989
201635
201174
200978
202225
201911
201413
201006
200558
200479
201419
201082
200628
200438
200161
200237
200945
200639
200310
200119
199840
199836
200864
200541
200231
199929
199600
199574
201008
200660
200308
199951
199561
199414
201306
200852
200504
200097
199710
199459
201652
201080
200830
200443
200069
199839
201912
201386
201140
200840
200506
200044
202191
201740
201593
201379
201433
201155
204544
203836
203078
202123
201135
200622
203947
203199
202398
201877
201115
200850
202916
202281
201394
201043
200377
200385
202377
201773
200937
200658
200047
200248
201853
201471
200526
200462
200018
200459
201967
201856
200801
200816
200276
200503
202155
202147
201100
200965
200426
200558
203003
202788
201786
201435
200708
200328
203912
203581
202548
201876
200823
200148
205100
204503
203490
202565
201243
200317
206000
205163
204049
202971
201513
200415
206420
205519
204511
203454
202034
200829
206410
205454
204534
203467
202305
200865
206128
205123
204611
203625
202951
202082
199774
199064
197980
197079
196255
196613
197105
197635
196874
196834
196563
197360
193999
195739
195010
195602
195707
197136
191464
194722
194340
195651
196131
197889
189686
194193
194151
195984
196812
198727
189404
194563
195009
197083
198148
199724
190597
195448
196174
198020
198793
200102
193272
197022
197504
198964
199676
200643
196518
198870
198909
199696
199593
199993
200098
200783
200270
200216
199395
199271
202947
202261
200974
200027
198710
198181
204691
203241
201603
200055
198618
197669
205130
203222
201567
199715
198285
196924
204714
202653
201611
200255
199574
198507
203030
202919
202666
202723
202548
202524
202823
202886
202699
202729
202543
202492
202497
202561
202326
202312
202094
202010
202119
202085
201820
201774
201526
201576
201566
201386
201057
201028
200935
201083
200869
200705
200554
200602
200561
200751
200431
200248
200113
200116
200112
200364
200211
200060
199921
199846
199820
200053
200296
199966
199799
199661
199616
199805
200562
200019
199873
199700
199646
199777
200949
200256
200150
199894
199823
199855
201390
200688
200616
200355
200282
200242
201862
201270
201162
200825
200652
200497
202361
201884
201967
201806
201863
201472
201864
202089
201270
201251
200790
201114
201032
201550
200994
201284
200963
201523
200027
200749
200157
200671
200532
201387
199577
200480
199949
200752
200814
201726
199826
200599
200134
200802
200895
201715
200539
200983
200580
201066
201278
201905
201364
201497
201070
201265
201304
201678
202481
202303
201810
201657
201360
201393
203764
203120
202426
201967
201401
201114
204682
203843
203082
202390
201700
201223
205430
204309
203501
202522
201756
201056
205798
204613
203910
202737
201977
201228
205832
204607
203979
202694
201913
200959
205615
204423
204084
203262
203051
202132
189584
193950
194401
195909
196405
198696
186192
192807
194015
196826
198255
200946
183610
191714
193383
196932
198875
201662
183038
191811
194080
197923
200190
202728
184253
192527
195281
199158
201528
203578
186998
194063
196768
200167
202346
204188
190580
196113
198517
201505
203228
204413
194755
198306
199870
201876
202915
204030
198554
200108
200647
201645
202008
202895
201471
201519
201118
201136
201005
201528
203405
202213
201221
200418
200042
200083
204480
202435
201286
200033
199511
199257
204028
201781
200735
199277
198549
197964
203156
201131
200600
200059
199880
199095
200339
201923
203392
205016
207085
208640
210407
211424
211964
211828
211054
209741
208324
206843
199928
201611
203303
205205
207162
208703
210317
211261
211828
211764
211251
210251
209090
207966
201193
202767
204397
206052
207600
208893
210224
211117
211668
211858
211652
210878
210096
209249
202810
203890
205041
206419
207729
208896
210026
210851
211338
211619
211596
211154
210704
209761
204073
204832
205899
206914
207945
208835
209850
210634
211200
211621
211779
211712
211464
210921
205209
205766
206401
207091
207907
208641
209515
210213
210781
211326
211596
211806
211751
211536
205618
206021
206495
207055
207722
208427
209244
209945
210570
211279
211704
212121
212320
212384
205511
205647
205962
206483
207245
208013
208865
209608
210220
211033
211493
212024
212353
212577
204353
204427
204986
205742
206675
207525
208441
209240
209854
210709
211117
211707
211960
212218
203206
203251
203875
204843
206015
207095
208113
208978
209528
210315
210580
211127
211224
211438
201546
201574
202533
203816
205218
206520
207670
208606
209122
209754
209826
210123
210071
210163
200208
200082
201227
202704
204416
206033
207318
208254
208628
209138
209108
209190
209046
208804
199192
199086
200246
201690
203680
205452
206927
207905
208138
208309
207911
207844
207457
207138
198276
197838
199106
201044
203305
205132
206594
207589
207721
207747
207097
207122
206517
205949
201834
203959
205889
207726
209994
211810
213723
214925
215730
215887
215458
214227
212942
211292
202322
204128
206107
208068
210084
211674
213324
214464
215122
215330
215045
214233
213107
212037
204082
205599
207203
208776
210395
211663
212991
214050
214716
215121
215079
214643
213846
213148
205897
206575
207731
209052
210364
211482
212628
213582
214210
214633
214765
214633
214206
213563
207402
207755
208521
209396
210410
211309
212333
213230
213941
214492
214830
214932
214877
214549
208547
208599
208962
209538
210330
211050
211968
212786
213501
214142
214568
214947
215084
215163
208971
208912
209069
209467
210123
210797
211664
212468
213229
214019
214551
215207
215585
215930
208721
208520
208619
209006
209698
210443
211317
212144
212918
213791
214382
215158
215691
216268
207293
207382
207765
208378
209197
210058
210956
211814
212596
213503
214084
214932
215403
216097
206062
206198
206736
207607
208637
209728
210722
211642
212391
213213
213676
214436
214752
215478
204015
204451
205399
206638
207886
209220
210327
211288
211977
212700
213052
213610
213797
214374
202424
202780
204009
205662
207248
208913
210170
211146
211707
212309
212425
212709
212725
212906
200867
201332
202791
204752
206587
208577
210034
211039
211406
211710
211531
211638
211391
211392
199198
199810
201515
204139
206416
208585
210108
211066
211258
211279
210677
210685
210044
209806
206941
208899
210706
212249
214380
216067
217810
219095
219984
220512
220396
219821
218708
217529
208024
209408
211088
212645
214382
215769
217271
218478
219242
219714
219722
219379
218575
217929
209729
210637
211766
212949
214400
215587
216821
217909
218746
219298
219520
219476
219067
218613
210914
211356
212221
213124
214254
215241
216355
217337
218137
218699
219043
219232
219059
218973
212310
212216
212644
213232
214133
214962
215974
216918
217763
218440
218910
219297
219516
219562
213106
212867
212944
213266
213978
214654
215581
216460
217301
218050
218635
219132
219595
219886
213333
213027
212925
213142
213788
214389
215266
216117
216967
217806
218491
219205
219815
220327
212902
212543
212464
212737
213397
214051
214930
215794
216660
217562
218266
219145
219785
220518
211718
211741
211861
212284
212976
213726
214611
215499
216379
217310
218007
218958
219545
220415
210524
210743
211075
211739
212552
213460
214411
215340
216206
217078
217708
218608
219074
219986
208847
209338
210037
210970
211973
213076
214153
215120
215962
216788
217349
218110
218459
219292
207446
207937
209099
210382
211653
212963
214166
215126
215893
216588
216937
217501
217696
218221
205764
206449
208127
209700
211260
212818
214213
215207
215862
216387
216535
216876
216825
217126
203919
205168
207259
209443
211359
213080
214498
215426
215914
216184
216056
216303
215893
215743
211249
212775
214434
215850
217742
219233
220771
222025
222939
223579
223793
223533
222793
221875
212517
213328
214834
216094
217574
218839
220181
221342
222212
222727
222998
222977
222441
222078
213833
214202
215232
216161
217401
218486
219642
220706
221639
222300
222678
222877
222648
222599
215116
215064
215646
216218
217163
218042
219100
220083
220960
221665
222131
222559
222673
222786
215949
215662
215916
216228
216973
217710
218658
219610
220504
221313
221922
222455
222902
223129
216518
216118
216056
216163
216784
217380
218250
219142
220019
220864
221557
222197
222785
223211
216606
216212
215977
216007
216572
217095
217931
218789
219671
220572
221341
222130
222825
223418
216088
215720
215556
215679
216251
216794
217628
218485
219381
220332
221118
222033
222719
223473
215354
215197
215106
215336
215913
216521
217352
218227
219142
220122
220916
221885
222512
223393
214357
214338
214494
214941
215588
216347
217224
218141
219050
219982
220732
221653
222165
223126
212868
213070
213637
214391
215196
216122
217100
218051
218933
219804
220514
221324
221734
222650
211653
211951
212895
213945
215020
216130
217248
218196
219013
219769
220287
220949
221237
221991
210115
210740
212154
213461
214827
216096
217357
218345
219110
219742
220097
220528
220609
221171
208515
209862
211708
213387
215096
216497
217766
218684
219302
219704
219811
220165
220064
220213
215606
216754
218143
219370
220890
222141
223400
224548
225431
226078
226523
226451
225867
225144
216731
217199
218365
219333
220591
221698
222842
223908
224789
225346
225731
225922
225670
225485
217873
217919
218706
219347
220335
221263
222305
223311
224224
224975
225454
225796
225783
225742
218724
218451
218886
219281
220060
220838
221773
222708
223573
224360
224916
225437
225718
225892
219364
218902
219052
219193
219835
220480
221329
222234
223103
223962
224626
225232
225752
226098
219668
219152
219058
219068
219585
220141
220925
221777
222629
223497
224239
224885
225598
226027
219649
219183
218901
218879
219352
219850
220611
221430
222280
223170
223954
224733
225460
226058
219169
218757
218562
218623
219099
219582
220331
221135
221992
222909
223703
224576
225269
225982
218706
218365
218209
218341
218821
219339
220080
220893
221768
222716
223519
224433
225049
225866
217905
217693
217758
218066
218590
219211
219976
220820
221692
222607
223389
224257
224743
225637
216763
216752
217104
217640
218282
219037
219884
220773
221630
222492
223238
224002
224405
225281
215735
215978
216632
217399
218231
219133
220075
220964
221770
222500
223102
223775
224096
224790
214371
214924
215926
216937
218052
219132
220228
221172
221955
222614
223006
223408
223653
224130
213065
214245
215691
217025
218435
219586
220690
221558
222249
222795
223015
223276
223261
223393
219376
220411
221378
222366
223530
224518
225543
226523
227310
227965
228428
228551
228190
227702
220386
220712
221561
222343
223260
224159
225069
225997
226782
227397
227797
228129
228134
227962
221222
221237
221806
222260
222986
223706
224593
225471
226282
227034
227555
227976
228125
228171
221873
221504
221829
222097
222696
223321
224098
224927
225708
226475
227069
227634
228027
228231
222313
221797
221893
221946
222438
222961
223674
224468
225252
226067
226742
227372
227920
228243
222438
221904
221789
221751
222144
222605
223280
224028
224796
225615
226343
227013
227677
228125
222276
221813
221570
221541
221897
222314
222972
223687
224449
225271
226012
226766
227424
228011
221910
221513
221310
221338
221685
222083
222719
223412
224173
225002
225740
226539
227184
227832
221486
221102
220984
221082
221447
221868
222492
223186
223961
224812
225546
226367
226947
227671
220864
220621
220689
220887
221306
221782
222416
223126
223897
224729
225435
226220
226695
227484
219951
219938
220228
220590
221086
221649
222342
223090
223849
224644
225324
226014
226422
227214
219078
219344
219900
220445
221086
221768
222530
223277
223997
224682
225262
225849
226227
226824
217989
218516
219293
220077
220935
221807
222700
223511
224214
224823
225312
225685
225958
226239
216774
217898
219122
220258
221307
222258
223129
223891
224563
225129
225425
225615
225651
225697
222805
223650
224372
225138
226000
226795
227600
228401
229065
229658
230104
230332
230181
229822
223575
223896
224461
225062
225779
226477
227209
227983
228640
229213
229612
229979
230106
230042
224309
224273
224613
224965
225513
226073
226802
227536
228221
228900
229399
229839
230076
230174
224784
224419
224634
224789
225244
225726
226363
227068
227731
228416
228970
229520
229952
230183
225063
224587
224624
224598
224973
225379
225973
226643
227314
228035
228657
229255
229779
230118
225070
224612
224475
224396
224685
225037
225597
226230
226891
227615
228276
228921
229497
229967
224868
224455
224246
224193
224443
224762
225302
225905
226559
227284
227950
228638
229220
229778
224578
224209
224019
224006
224240
224550
225067
225649
226298
227018
227672
228383
228958
229549
224163
223822
223715
223773
224022
224355
224858
225438
226092
226821
227462
228188
228714
229362
223681
223461
223485
223608
223912
224285
224793
225380
226026
226730
227338
228033
228480
229170
222970
222940
223122
223363
223720
224161
224715
225331
225965
226650
227241
227873
228256
228944
222271
222470
222870
223248
223736
224268
224870
225480
226081
226687
227224
227724
228076
228646
221480
221849
222413
222950
223624
224320
225034
225696
226281
226797
227260
227617
227897
228164
220319
221261
222196
223135
223972
224723
225407
226032
226600
227113
227403
227559
227612
227632
225720
226375
226922
227520
228157
228775
229396
230032
230567
231073
231454
231722
231676
231452
226358
226616
226983
227439
227974
228500
229085
229714
230242
230741
231085
231419
231589
231604
226959
226859
227089
227329
227739
228183
228753
229355
229911
230489
230920
231320
231568
231695
227278
226929
227079
227155
227499
227869
228382
228965
229514
230095
230570
231055
231451
231685
227423
227019
227024
226969
227247
227549
228027
228583
229147
229761
230298
230824
231275
231610
227382
227001
226860
226770
226974
227231
227681
228205
228762
229381
229951
230523
231003
231466
227160
226815
226635
226571
226737
226969
227397
227895
228448
229069
229644
230237
230738
231249
226926
226594
226424
226384
226533
226764
227173
227649
228189
228797
229358
229968
230466
230994
226536
226238
226134
226154
226324
226579
226979
227451
227986
228587
229128
229746
230207
230778
226148
225956
225924
225995
226213
226509
226915
227386
227903
228468
228970
229565
229966
230580
225564
225540
225621
225767
226044
226386
226824
227312
227819
228374
228860
229407
229748
230365
224958
225127
225385
225675
226056
226468
226933
227411
227888
228386
228829
229271
229578
230123
224388
224633
225055
225455
225971
226515
227073
227589
228044
228457
228847
229183
229451
229742
223426
224133
224884
225618
226262
226843
227377
227872
228304
228704
228950
229116
229223
229320
228288
228835
229279
229759
230239
230708
231163
231626
232018
232406
232690
232932
232934
232778
228795
229001
229295
229661
230065
230454
230914
231377
231763
232152
232410
232683
232844
232886
229273
229163
229363
229544
229871
230212
230631
231093
231510
231966
232301
232634
232842
232966
229503
229208
229338
229382
229652
229935
230327
230777
231199
231665
232040
232434
232744
232955
229593
229273
229278
229221
229434
229649
230013
230451
230897
231392
231822
232251
232605
232892
229558
229252
229131
229048
229190
229370
229713
230125
230570
231072
231531
231991
232380
232771
229370
229088
228930
228861
228968
229130
229454
229846
230288
230791
231256
231732
232148
232570
229185
228903
228742
228687
228777
228940
229249
229621
230047
230535
230985
231474
231884
232325
228845
228597
228482
228465
228580
228766
229072
229440
229856
230327
230754
231250
231630
232107
228521
228346
228256
228301
228462
228690
229004
229367
229762
230196
230586
231065
231397
231911
228009
227965
227987
228079
228290
228559
228901
229279
229675
230101
230470
230912
231186
231705
227490
227570
227750
227963
228271
228597
228960
229335
229706
230086
230420
230781
231024
231504
226944
227147
227450
227746
228160
228602
229052
229460
229815
230138
230425
230698
230914
231190
226148
226708
227315
227865
228364
228841
229280
229677
229997
230273
230468
230621
230727
230855
201620
202544
202884
203482
204911
206501
200245
200880
201868
203459
205677
207636
202449
202524
203323
204933
207293
209514
204313
204229
205144
206797
209092
211267
206715
206705
207532
208619
210800
212835
208799
208960
209410
209943
211895
213884
210461
210557
210928
211140
212909
214855
211555
211389
210889
210524
211906
214262
211786
211321
210457
209937
211105
213788
211267
210433
209248
208629
209911
212868
210183
209009
207784
207174
208736
211987
208875
207238
206273
205886
207697
211167
207935
205954
205419
205260
206976
209951
205427
203909
204342
204928
206754
209287
202487
202555
202221
202416
203509
205246
201947
201392
201382
202418
204205
206502
204485
203646
203656
204680
206772
209110
206848
206151
206501
207615
209985
212085
209754
209352
209873
210905
213282
215030
211932
212132
213056
214008
216257
217663
214188
214625
215443
216281
218415
219582
215479
216001
216684
217436
219407
220557
216178
216550
216969
217682
219569
220852
215993
216125
216254
216921
218728
220410
215191
215008
215042
215700
217287
219064
213771
213328
213128
213616
214998
216693
212827
211562
211305
211435
212423
213494
210238
208698
209050
209444
210515
211439
206728
205899
205067
204512
204747
205595
207203
205579
204734
204563
205226
206886
209629
207868
207129
207132
207940
209947
211747
210402
210066
210444
211567
213710
214293
213621
213666
214316
215524
217536
216291
216285
216897
217784
219161
221019
218429
218973
219825
220872
222051
223732
219816
220648
221512
222488
223742
225344
220751
221595
222272
223153
224249
225709
220922
221523
221916
222589
223518
224874
220473
220743
220778
221223
221891
222964
219556
219396
219076
219056
219313
220043
218408
217926
217201
216713
216416
216554
216391
214869
214402
214080
213971
214046
210344
209209
207820
206382
205675
205372
211401
209822
208441
207031
206488
206671
213505
212016
210734
209707
209375
209855
215342
214321
213561
213099
213179
213951
217772
217197
217011
217010
217470
218340
219617
219678
220022
220505
221298
222343
221447
222032
222826
223586
224616
225654
222811
223672
224577
225515
226592
227654
223741
224731
225559
226557
227594
228623
224162
224949
225573
226441
227195
228072
224047
224562
224788
225327
225735
226360
223384
223766
223763
223738
223484
223581
222829
222495
221909
221218
220386
219834
220924
219862
218958
218277
217469
216707
214213
213309
211354
209545
207700
206678
215599
214224
212553
210857
209021
208438
217433
216087
214773
213385
212000
211737
218975
217999
217283
216451
215689
215782
220987
220486
220263
219948
219755
220140
222536
222626
222912
223078
223473
224059
224026
224576
225234
225842
226583
227357
225255
226036
226834
227665
228581
229539
226118
227033
227832
228752
229654
230722
226633
227353
227949
228708
229431
230414
226692
227157
227428
227742
228099
228788
226230
226391
226418
226382
226191
226387
225909
225785
225086
224356
223409
222736
224271
223432
222516
221657
220542
219587
217873
216832
215110
213140
211032
209095
219268
217872
216346
214510
212541
210895
220630
219495
218239
216861
215265
214043
221922
221143
220370
219478
218516
217802
223546
223171
222803
222445
222108
221837
224839
224922
225081
225207
225396
225791
226044
226505
227030
227549
228200
228881
227104
227772
228467
229231
230116
231055
227862
228621
229373
230301
231254
232350
228381
229033
229646
230463
231257
232316
228585
229011
229391
229845
230252
231001
228359
228498
228600
228665
228663
228867
228170
228247
227735
227070
226295
225647
227259
226561
225719
224810
223735
222631
221532
220548
218946
217266
215246
213132
222796
221531
220109
218344
216464
214411
223839
222787
221599
220293
218810
217183
224845
224133
223392
222490
221547
220545
226033
225706
225402
224918
224532
224157
227028
227089
227201
227227
227327
227454
227989
228338
228759
229190
229713
230326
228867
229407
229995
230673
231467
232351
229512
230117
230759
231587
232510
233598
229971
230556
231118
231879
232665
233786
230226
230654
231048
231544
232007
232866
230175
230353
230421
230555
230666
230991
230064
230220
229876
229455
228916
228403
229586
229142
228431
227674
226802
225715
224734
223897
222727
221163
219582
217624
225861
224751
223690
222131
220414
218485
226600
225768
224876
223593
222208
220635
227396
226789
226190
225272
224349
223295
228245
227964
227699
227216
226750
226273
228971
228997
229056
229037
229057
229106
229701
229952
230261
230608
231007
231518
230392
230811
231278
231853
232536
233343
230917
231389
231912
232615
233458
234480
231307
231799
232297
232999
233770
234867
231567
231944
232328
232880
233438
234383
231602
231808
231936
232136
232346
232863
231543
231763
231620
231430
231159
231021
231349
231111
230612
230111
229450
228680
227512
226865
225988
224841
223468
221931
228465
227620
226722
225565
224034
222501
229032
228438
227730
226763
225510
224178
229690
229257
228769
228040
227161
226253
230336
230148
229950
229553
229094
228610
230881
230905
230954
230916
230873
230878
231417
231611
231854
232119
232417
232822
231914
232237
232615
233081
233644
234344
232289
232647
233075
233655
234390
235291
232575
232969
233400
234009
234742
235741
232787
233102
233446
233981
234571
235509
232847
233044
233209
233486
233777
234337
232818
233047
233018
232992
232936
233073
232741
232640
232304
232028
231619
231232
206708
206493
206269
206581
207980
210112
206346
205759
206078
206905
208590
210873
207801
207083
207126
208218
210006
212401
208617
208176
208449
209771
211926
214115
210327
209872
210176
211251
213327
215483
211342
211204
211830
212631
214594
216589
212294
212187
212329
212503