/*--------------------------------*- C++ -*----------------------------------*\
| =========                 |                                                 |
| \\      /  F ield         | OpenFOAM: The Open Source CFD Toolbox           |
|  \\    /   O peration     | Version:  v2106                                 |
|   \\  /    A nd           | Website:  www.openfoam.com                      |
|    \\/     M anipulation  |                                                 |
\*---------------------------------------------------------------------------*/
FoamFile
{
    version     2.0;
    format      ascii;
    arch        "LSB;label=32;scalar=64";
    class       surfaceScalarField;
    location    "0.000152";
    object      phi;
}
// * * * * * * * * * * * * * * * * * * * * * * * * * * * * * * * * * * * * * //

dimensions      [1 0 -1 0 0 0 0];

internalField   nonuniform List<scalar> 
52267
(
-1.81933e-09
-1.82356e-09
-1.62069e-07
1.89782e-09
1.89515e-09
-1.49364e-09
-1.85698e-09
-1.61958e-07
1.75583e-09
-1.19313e-09
-1.93699e-09
-1.61822e-07
1.94615e-09
-9.22234e-10
-2.02367e-09
-1.61688e-07
2.11542e-09
-6.38875e-10
-2.15325e-09
-1.61565e-07
2.27218e-09
-3.29412e-10
-2.20309e-09
-1.61485e-07
2.32626e-09
-2.27924e-09
-1.61467e-07
2.40218e-09
-1.85296e-09
-1.49857e-09
-1.61957e-07
1.7528e-09
-1.71279e-09
-1.71783e-09
-1.6185e-07
-1.49771e-09
-1.78066e-09
-1.61644e-07
-1.20546e-09
-1.87643e-09
-1.61468e-07
-8.44288e-10
-2.01066e-09
-1.61318e-07
-4.32362e-10
-2.06687e-09
-1.61216e-07
-2.12988e-09
-1.61186e-07
-1.93311e-09
-1.19883e-09
-1.61822e-07
1.94415e-09
-1.77568e-09
-1.50338e-09
-1.61644e-07
-1.53346e-09
-1.539e-09
-1.61433e-07
-1.22165e-09
-1.63252e-09
-1.61244e-07
-8.53025e-10
-1.74545e-09
-1.61091e-07
-4.36726e-10
-1.80162e-09
-1.60981e-07
-1.8476e-09
-1.60944e-07
-2.0195e-09
-9.28125e-10
-1.61687e-07
2.11319e-09
-1.87108e-09
-1.21124e-09
-1.61468e-07
-1.62679e-09
-1.22713e-09
-1.61244e-07
-1.31275e-09
-1.31815e-09
-1.61031e-07
-9.2669e-10
-1.40987e-09
-1.60873e-07
-4.79086e-10
-1.4642e-09
-1.60754e-07
-1.49193e-09
-1.60703e-07
-2.14884e-09
-6.44447e-10
-1.61564e-07
2.26962e-09
-2.00524e-09
-8.49602e-10
-1.61317e-07
-1.73996e-09
-8.57976e-10
-1.6109e-07
-1.40491e-09
-9.31395e-10
-1.60872e-07
-9.97059e-10
-1.00106e-09
-1.6071e-07
-5.2765e-10
-1.05101e-09
-1.60585e-07
-1.06788e-09
-1.60522e-07
-2.19886e-09
-3.34593e-10
-1.61484e-07
2.32394e-09
-2.06157e-09
-4.37185e-10
-1.61215e-07
-1.79633e-09
-4.41267e-10
-1.60981e-07
-1.45936e-09
-4.83283e-10
-1.60754e-07
-1.04686e-09
-5.31274e-10
-1.60585e-07
-5.6852e-10
-5.72349e-10
-1.6045e-07
-5.81652e-10
-1.60377e-07
-2.27503e-09
-3.99322e-12
-1.61466e-07
2.39967e-09
-2.12501e-09
-4.41441e-12
-1.61185e-07
-1.84308e-09
-4.55227e-12
-1.60943e-07
-1.48798e-09
-4.39529e-12
-1.60703e-07
-1.06405e-09
-4.07381e-12
-1.60521e-07
-5.77745e-10
-3.13148e-12
-1.60377e-07
-2.00846e-12
-1.60299e-07
-2.27564e-09
3.26821e-10
-1.61466e-07
2.40068e-09
-2.12524e-09
4.28534e-10
-1.61184e-07
-1.84272e-09
4.32175e-10
-1.60943e-07
-1.48698e-09
4.74549e-10
-1.60702e-07
-1.0631e-09
5.23741e-10
-1.60521e-07
-5.7689e-10
5.6668e-10
-1.60377e-07
5.78037e-10
-1.60299e-07
-2.19983e-09
-1.61483e-07
2.32577e-09
-2.06156e-09
-1.61214e-07
-1.79527e-09
-1.6098e-07
-1.4575e-09
-1.60753e-07
-1.04421e-09
-1.60584e-07
-5.65543e-10
-1.60448e-07
-1.60376e-07
-8.0777e-10
-8.11335e-10
-1.69535e-07
8.6219e-10
8.59618e-10
-5.63549e-10
-6.65499e-10
-1.69323e-07
5.88133e-10
-3.34661e-10
-5.6131e-10
-1.69076e-07
5.32415e-10
-2.01566e-10
-4.777e-10
-1.68843e-07
5.55394e-10
-1.16216e-10
-4.52952e-10
-1.6864e-07
5.79346e-10
-5.63716e-11
-4.01871e-10
-1.68505e-07
5.56476e-10
1.68497e-13
-4.28885e-10
-1.6846e-07
5.96087e-10
5.66797e-11
-4.29032e-10
-1.6846e-07
5.96656e-10
1.16613e-10
-4.02283e-10
-1.68506e-07
5.57958e-10
2.02497e-10
-4.53826e-10
-1.6864e-07
5.8159e-10
3.36301e-10
-4.79042e-10
-1.68844e-07
5.58353e-10
5.66105e-10
-5.62912e-10
-1.69077e-07
5.35486e-10
8.11852e-10
-6.67327e-10
-1.69325e-07
5.90476e-10
-8.13174e-10
-1.69537e-07
8.65429e-10
8.63448e-10
-6.62374e-10
-5.67358e-10
-1.69323e-07
5.8591e-10
-5.69846e-10
-5.73402e-10
-1.69112e-07
-4.57331e-10
-4.75834e-10
-1.68776e-07
-3.60148e-10
-3.88701e-10
-1.68486e-07
-2.46739e-10
-3.82309e-10
-1.68238e-07
-1.23682e-10
-3.32727e-10
-1.68074e-07
3.49163e-14
-3.36352e-10
-1.6802e-07
1.23802e-10
-3.36049e-10
-1.68021e-07
2.47247e-10
-3.32104e-10
-1.68074e-07
3.61346e-10
-3.81578e-10
-1.68239e-07
4.59357e-10
-3.88151e-10
-1.68487e-07
5.725e-10
-4.7539e-10
-1.68777e-07
6.65461e-10
-5.73513e-10
-1.69114e-07
-5.67013e-10
-1.69325e-07
5.88216e-10
-5.58572e-10
-3.38598e-10
-1.69076e-07
5.31032e-10
-4.7229e-10
-4.61188e-10
-1.68776e-07
-3.59967e-10
-3.63891e-10
-1.68426e-07
-2.4964e-10
-2.93274e-10
-1.68119e-07
-1.58275e-10
-2.85611e-10
-1.6787e-07
-7.5657e-11
-2.38218e-10
-1.67695e-07
9.31405e-14
-2.19367e-10
-1.67635e-07
7.5887e-11
-2.18623e-10
-1.67635e-07
1.58932e-10
-2.36755e-10
-1.67695e-07
2.50934e-10
-2.83421e-10
-1.6787e-07
3.61963e-10
-2.91014e-10
-1.68119e-07
4.74599e-10
-3.61524e-10
-1.68427e-07
5.60724e-10
-4.59559e-10
-1.68777e-07
-3.36954e-10
-1.69078e-07
5.32331e-10
-4.7487e-10
-2.05273e-10
-1.68842e-07
5.53965e-10
-3.85075e-10
-3.63789e-10
-1.68486e-07
-2.89413e-10
-2.53338e-10
-1.68119e-07
-2.01864e-10
-2.05399e-10
-1.67774e-07
-1.34454e-10
-1.9974e-10
-1.67517e-07
-6.70719e-11
-1.68001e-10
-1.67328e-07
4.28321e-13
-1.34818e-10
-1.67258e-07
6.79395e-11
-1.33675e-10
-1.67258e-07
1.35703e-10
-1.66066e-10
-1.67328e-07
2.03578e-10
-1.96658e-10
-1.67517e-07
2.91466e-10
-2.02122e-10
-1.67775e-07
3.87007e-10
-2.49875e-10
-1.6812e-07
4.76084e-10
-3.61206e-10
-1.68488e-07
-2.03315e-10
-1.68845e-07
5.54152e-10
-4.49695e-10
-1.19422e-10
-1.68639e-07
5.77346e-10
-3.78351e-10
-2.49769e-10
-1.68238e-07
-2.81641e-10
-1.61256e-10
-1.6787e-07
-1.96319e-10
-1.37135e-10
-1.67517e-07
-1.2798e-10
-1.3037e-10
-1.67268e-07
-6.73286e-11
-1.12049e-10
-1.67076e-07
1.12253e-12
-8.09376e-11
-1.66995e-07
6.95901e-11
-7.95646e-11
-1.66996e-07
1.30403e-10
-1.10024e-10
-1.67076e-07
1.98857e-10
-1.27191e-10
-1.67269e-07
2.84078e-10
-1.33865e-10
-1.67518e-07
3.80227e-10
-1.57816e-10
-1.67871e-07
4.50485e-10
-2.47204e-10
-1.6824e-07
-1.17772e-10
-1.68641e-07
5.76868e-10
-3.98818e-10
-5.92793e-11
-1.68505e-07
5.54586e-10
-3.29119e-10
-1.26321e-10
-1.68074e-07
-2.34702e-10
-7.82209e-11
-1.67695e-07
-1.64983e-10
-6.92721e-11
-1.67329e-07
-1.0972e-10
-6.91254e-11
-1.67076e-07
-6.54286e-11
-6.74289e-11
-1.66875e-07
2.09922e-12
-5.42109e-11
-1.66793e-07
6.95893e-11
-5.28284e-11
-1.66793e-07
1.13529e-10
-6.55494e-11
-1.66876e-07
1.68269e-10
-6.6414e-11
-1.67076e-07
2.37093e-10
-6.63624e-11
-1.6733e-07
3.30208e-10
-7.51603e-11
-1.67696e-07
3.98287e-10
-1.24025e-10
-1.68076e-07
-5.80557e-11
-1.68507e-07
5.52535e-10
-4.25642e-10
-2.35334e-12
-1.6846e-07
5.93573e-10
-3.33014e-10
-2.25263e-12
-1.6802e-07
-2.16561e-10
-2.11504e-12
-1.67636e-07
-1.32542e-10
-1.60143e-12
-1.67258e-07
-7.88357e-11
-1.04316e-12
-1.66996e-07
-5.21475e-11
-4.84563e-13
-1.66793e-07
2.56779e-12
-1.88457e-13
-1.6671e-07
5.71764e-11
7.76197e-13
-1.6671e-07
8.31324e-11
7.21664e-13
-1.66793e-07
1.35808e-10
8.01254e-13
-1.66997e-07
2.18167e-10
3.84568e-13
-1.67259e-07
3.3313e-10
-4.27429e-13
-1.67637e-07
4.24663e-10
-1.54876e-12
-1.68022e-07
-2.86908e-12
-1.68462e-07
5.9193e-10
-4.25733e-10
5.44017e-11
-1.6846e-07
5.94029e-10
-3.32759e-10
1.21649e-10
-1.6802e-07
-2.15999e-10
7.37259e-11
-1.67635e-07
-1.3169e-10
6.56613e-11
-1.67258e-07
-7.77463e-11
6.65617e-11
-1.66996e-07
-5.10051e-11
6.59833e-11
-1.66793e-07
3.57582e-12
5.33872e-11
-1.6671e-07
5.7731e-11
5.3629e-11
-1.6671e-07
8.29437e-11
6.60862e-11
-1.66794e-07
1.34986e-10
6.71228e-11
-1.66997e-07
2.16993e-10
6.6479e-11
-1.6726e-07
3.3185e-10
7.39243e-11
-1.67637e-07
4.23135e-10
1.21072e-10
-1.68023e-07
5.33886e-11
-1.68462e-07
5.89759e-10
-3.98444e-10
1.14475e-10
-1.68505e-07
5.54676e-10
-3.28174e-10
2.44777e-10
-1.68074e-07
-2.33233e-10
1.56182e-10
-1.67695e-07
-1.63278e-10
1.3273e-10
-1.67329e-07
-1.07839e-10
1.26609e-10
-1.67076e-07
-6.36865e-11
1.09224e-10
-1.66875e-07
3.38281e-12
7.86175e-11
-1.66793e-07
6.99285e-11
7.82189e-11
-1.66793e-07
1.12426e-10
1.08247e-10
-1.66876e-07
1.66081e-10
1.25452e-10
-1.67077e-07
2.34113e-10
1.3209e-10
-1.6733e-07
3.27089e-10
1.55267e-10
-1.67697e-07
3.9569e-10
2.43515e-10
-1.68076e-07
1.13267e-10
-1.68507e-07
5.50733e-10
-4.49392e-10
2.00202e-10
-1.68639e-07
5.78122e-10
-3.76928e-10
3.58447e-10
-1.68238e-07
-2.79224e-10
2.47738e-10
-1.6787e-07
-1.93304e-10
2.00248e-10
-1.67517e-07
-1.24673e-10
1.9483e-10
-1.67269e-07
-6.4321e-11
1.63801e-10
-1.67076e-07
3.181e-12
1.30947e-10
-1.66996e-07
7.01352e-11
1.30064e-10
-1.66996e-07
1.28875e-10
1.62056e-10
-1.67077e-07
1.95694e-10
1.92479e-10
-1.6727e-07
2.79727e-10
1.98257e-10
-1.67518e-07
3.7564e-10
2.4574e-10
-1.67872e-07
4.4657e-10
3.56575e-10
-1.6824e-07
1.98745e-10
-1.68641e-07
5.74412e-10
-4.74868e-10
3.34295e-10
-1.68842e-07
5.55132e-10
-3.83765e-10
4.56478e-10
-1.68486e-07
-2.86974e-10
3.58764e-10
-1.68119e-07
-1.98729e-10
2.88178e-10
-1.67774e-07
-1.3107e-10
2.80103e-10
-1.67517e-07
-6.39248e-11
2.32772e-10
-1.67329e-07
2.80533e-12
2.13645e-10
-1.67258e-07
6.90784e-11
2.1265e-10
-1.67259e-07
1.34905e-10
2.30707e-10
-1.67329e-07
2.00984e-10
2.7719e-10
-1.67518e-07
2.87653e-10
2.85491e-10
-1.67775e-07
3.82985e-10
3.56135e-10
-1.6812e-07
4.72716e-10
4.54357e-10
-1.68488e-07
3.32738e-10
-1.68844e-07
5.52209e-10
-5.59211e-10
5.64883e-10
-1.69076e-07
5.32996e-10
-4.71429e-10
5.70517e-10
-1.68776e-07
-3.57643e-10
4.72128e-10
-1.68426e-07
-2.46289e-10
3.84446e-10
-1.68119e-07
-1.54593e-10
3.77048e-10
-1.6787e-07
-7.23934e-11
3.26911e-10
-1.67696e-07
2.2699e-12
3.29751e-10
-1.67636e-07
7.66909e-11
3.28773e-10
-1.67636e-07
1.58008e-10
3.24854e-10
-1.67696e-07
2.48478e-10
3.74094e-10
-1.67871e-07
3.58428e-10
3.81784e-10
-1.6812e-07
4.70862e-10
4.69542e-10
-1.68428e-07
5.57522e-10
5.68408e-10
-1.68778e-07
5.63306e-10
-1.69078e-07
5.3065e-10
-6.64165e-10
8.11712e-10
-1.69323e-07
5.88807e-10
-5.69845e-10
6.64969e-10
-1.69113e-07
-4.55791e-10
5.59822e-10
-1.68776e-07
-3.57647e-10
4.75221e-10
-1.68487e-07
-2.43915e-10
4.49054e-10
-1.68239e-07
-1.21276e-10
3.96986e-10
-1.68075e-07
1.48532e-12
4.22865e-10
-1.68021e-07
1.24415e-10
4.21627e-10
-1.68021e-07
2.46424e-10
3.95346e-10
-1.68075e-07
3.59367e-10
4.46331e-10
-1.68239e-07
4.56749e-10
4.72696e-10
-1.68488e-07
5.69986e-10
5.57369e-10
-1.68778e-07
6.63592e-10
6.62778e-10
-1.69115e-07
8.1016e-10
-1.69326e-07
5.87455e-10
-8.10274e-10
-1.69536e-07
8.6536e-10
8.63161e-10
-5.63743e-10
-1.69324e-07
5.89865e-10
-3.3359e-10
-1.69077e-07
5.3392e-10
-1.99839e-10
-1.68843e-07
5.55751e-10
-1.14315e-10
-1.6864e-07
5.77956e-10
-5.5131e-11
-1.68506e-07
5.53954e-10
4.00049e-13
-1.6846e-07
5.92199e-10
5.68456e-11
-1.68461e-07
5.90217e-10
1.15902e-10
-1.68506e-07
5.5277e-10
2.01141e-10
-1.6864e-07
5.75662e-10
3.34713e-10
-1.68844e-07
5.5361e-10
5.64755e-10
-1.69077e-07
5.31699e-10
8.11276e-10
-1.69325e-07
5.87426e-10
-1.69538e-07
8.63894e-10
8.63751e-10
1.15418e-09
1.15169e-09
-1.76153e-07
-1.16637e-09
-1.16835e-09
1.19165e-09
1.49523e-09
-1.75867e-07
-1.56114e-09
1.21144e-09
1.90074e-09
-1.7553e-07
-1.97818e-09
1.07408e-09
2.18858e-09
-1.75244e-07
-2.15733e-09
8.04794e-10
2.4406e-09
-1.74984e-07
-2.34021e-09
4.25687e-10
2.64665e-09
-1.74822e-07
-2.48302e-09
-4.34359e-13
2.69983e-09
-1.74769e-07
-2.50709e-09
-4.26407e-10
2.70015e-09
-1.74769e-07
-2.50734e-09
-8.05771e-10
2.64712e-09
-1.74822e-07
-2.48242e-09
-1.07501e-09
2.44084e-09
-1.74985e-07
-2.33927e-09
-1.21216e-09
2.1887e-09
-1.75244e-07
-2.15602e-09
-1.19197e-09
1.90086e-09
-1.75531e-07
-1.97701e-09
-1.1539e-09
1.4953e-09
-1.75868e-07
-1.56017e-09
1.15122e-09
-1.76154e-07
-1.16473e-09
-1.1679e-09
1.49752e-09
1.18887e-09
-1.75867e-07
-1.56248e-09
1.47365e-09
1.47069e-09
-1.75617e-07
1.39264e-09
1.83895e-09
-1.75184e-07
1.16193e-09
2.1736e-09
-1.74842e-07
8.46242e-10
2.39383e-09
-1.74523e-07
4.46152e-10
2.61116e-09
-1.74327e-07
-2.74908e-13
2.6877e-09
-1.74271e-07
-4.46672e-10
2.68821e-09
-1.74271e-07
-8.46768e-10
2.6123e-09
-1.74327e-07
-1.16258e-09
2.39518e-09
-1.74524e-07
-1.39329e-09
2.17498e-09
-1.74843e-07
-1.47422e-09
1.84032e-09
-1.75185e-07
-1.49774e-09
1.47173e-09
-1.75618e-07
1.18991e-09
-1.75869e-07
-1.56309e-09
1.90286e-09
1.20868e-09
-1.7553e-07
-1.97889e-09
1.84207e-09
1.3894e-09
-1.75184e-07
1.69942e-09
1.6959e-09
-1.74721e-07
1.4398e-09
2.01142e-09
-1.74385e-07
1.05732e-09
2.20178e-09
-1.74086e-07
5.63407e-10
2.42389e-09
-1.73895e-07
-9.42236e-14
2.52855e-09
-1.73848e-07
-5.63639e-10
2.52933e-09
-1.73848e-07
-1.05751e-09
2.42534e-09
-1.73895e-07
-1.44017e-09
2.20385e-09
-1.74086e-07
-1.69997e-09
2.01359e-09
-1.74385e-07
-1.84292e-09
1.69817e-09
-1.74722e-07
-1.90381e-09
1.39109e-09
-1.75185e-07
1.2105e-09
-1.75532e-07
-1.98026e-09
2.19063e-09
1.07166e-09
-1.75244e-07
-2.15778e-09
2.1766e-09
1.15896e-09
-1.74842e-07
2.01472e-09
1.43651e-09
-1.74385e-07
1.71321e-09
1.71012e-09
-1.74021e-07
1.24615e-09
1.86866e-09
-1.73721e-07
6.59115e-10
2.0655e-09
-1.7352e-07
3.20125e-13
2.18059e-09
-1.73468e-07
-6.58759e-10
2.18172e-09
-1.73468e-07
-1.24593e-09
2.06701e-09
-1.7352e-07
-1.71343e-09
1.87098e-09
-1.73721e-07
-2.01539e-09
1.71245e-09
-1.74022e-07
-2.17787e-09
1.43902e-09
-1.74386e-07
-2.19234e-09
1.16067e-09
-1.74843e-07
1.07333e-09
-1.75245e-07
-2.15992e-09
2.44274e-09
8.02886e-10
-1.74984e-07
-2.34091e-09
2.39698e-09
8.43847e-10
-1.74524e-07
2.20525e-09
1.05477e-09
-1.74086e-07
1.87197e-09
1.24385e-09
-1.73721e-07
1.36061e-09
1.35815e-09
-1.73469e-07
7.18415e-10
1.50705e-09
-1.73284e-07
8.89248e-13
1.60805e-09
-1.73231e-07
-7.17041e-10
1.60939e-09
-1.73232e-07
-1.35956e-09
1.5082e-09
-1.73284e-07
-1.87142e-09
1.36003e-09
-1.7347e-07
-2.2054e-09
1.24567e-09
-1.73722e-07
-2.39795e-09
1.05684e-09
-1.74087e-07
-2.44451e-09
8.45243e-10
-1.74525e-07
8.04012e-10
-1.74986e-07
-2.34327e-09
2.64826e-09
4.24022e-10
-1.74822e-07
-2.48323e-09
2.61355e-09
4.44398e-10
-1.74327e-07
2.4266e-09
5.61622e-10
-1.73895e-07
2.06824e-09
6.57595e-10
-1.7352e-07
1.50931e-09
7.16737e-10
-1.73284e-07
7.97824e-10
7.96053e-10
-1.73098e-07
1.55918e-12
8.53631e-10
-1.73045e-07
-7.95177e-10
8.549e-10
-1.73045e-07
-1.50733e-09
7.96729e-10
-1.73099e-07
-2.06711e-09
7.18025e-10
-1.73285e-07
-2.4267e-09
6.5894e-10
-1.73521e-07
-2.6149e-09
5.63192e-10
-1.73897e-07
-2.6509e-09
4.45576e-10
-1.74329e-07
4.24842e-10
-1.74824e-07
-2.48685e-09
2.70081e-09
-1.84981e-12
-1.74769e-07
-2.50726e-09
2.68916e-09
-1.69019e-12
-1.74271e-07
2.53019e-09
-1.47015e-12
-1.73849e-07
2.18241e-09
-9.83648e-13
-1.73468e-07
1.60988e-09
-4.81133e-13
-1.73232e-07
8.55376e-10
1.30061e-14
-1.73045e-07
1.08773e-12
-2.47909e-13
-1.72993e-07
-8.53213e-10
8.90684e-13
-1.72993e-07
-1.60814e-09
2.32871e-13
-1.73046e-07
-2.18162e-09
1.73228e-13
-1.73233e-07
-2.531e-09
-4.67459e-14
-1.7347e-07
-2.69137e-09
-5.68158e-13
-1.7385e-07
-2.70393e-09
-1.28752e-12
-1.74273e-07
-1.99046e-12
-1.74771e-07
-2.51076e-09
2.70094e-09
-4.28015e-10
-1.7477e-07
-2.50708e-09
2.68952e-09
-4.48e-10
-1.74271e-07
2.5308e-09
-5.64975e-10
-1.73849e-07
2.1833e-09
-6.60169e-10
-1.73468e-07
1.61114e-09
-7.1854e-10
-1.73232e-07
8.56926e-10
-7.96965e-10
-1.73045e-07
2.34343e-12
-8.5484e-10
-1.72993e-07
-8.5235e-10
-8.53999e-10
-1.72994e-07
-1.60767e-09
-7.96814e-10
-1.73046e-07
-2.18149e-09
-7.18202e-10
-1.73233e-07
-2.53123e-09
-6.59421e-10
-1.7347e-07
-2.69181e-09
-5.64522e-10
-1.73851e-07
-2.70494e-09
-4.47789e-10
-1.74273e-07
-4.27679e-10
-1.74772e-07
-2.51264e-09
2.6488e-09
-8.07276e-10
-1.74822e-07
-2.48344e-09
2.61447e-09
-8.48055e-10
-1.74328e-07
2.42781e-09
-1.05893e-09
-1.73896e-07
2.06952e-09
-1.24743e-09
-1.73521e-07
1.51066e-09
-1.36129e-09
-1.73285e-07
7.99125e-10
-1.50958e-09
-1.73099e-07
1.79532e-12
-1.61059e-09
-1.73046e-07
-7.95578e-10
-1.6105e-09
-1.73046e-07
-1.50816e-09
-1.50994e-09
-1.731e-07
-2.06839e-09
-1.3618e-09
-1.73286e-07
-2.4284e-09
-1.24745e-09
-1.73522e-07
-2.6166e-09
-1.05929e-09
-1.73897e-07
-2.65227e-09
-8.48358e-10
-1.74329e-07
-8.07188e-10
-1.74824e-07
-2.48777e-09
2.4434e-09
-1.07652e-09
-1.74985e-07
-2.34077e-09
2.39836e-09
-1.16388e-09
-1.74524e-07
2.20731e-09
-1.44164e-09
-1.74087e-07
1.87439e-09
-1.71489e-09
-1.73722e-07
1.36309e-09
-1.87316e-09
-1.73471e-07
7.20529e-10
-2.06952e-09
-1.73285e-07
1.68493e-12
-2.18442e-09
-1.73233e-07
-7.17313e-10
-2.18485e-09
-1.73234e-07
-1.36092e-09
-2.07051e-09
-1.73286e-07
-1.87361e-09
-1.87466e-09
-1.73472e-07
-2.20819e-09
-1.71581e-09
-1.73724e-07
-2.40074e-09
-1.44277e-09
-1.74088e-07
-2.447e-09
-1.16466e-09
-1.74526e-07
-1.07676e-09
-1.74986e-07
-2.34506e-09
2.19098e-09
-1.21348e-09
-1.75244e-07
-2.15718e-09
2.17796e-09
-1.3945e-09
-1.74843e-07
2.0169e-09
-1.70134e-09
-1.74386e-07
1.7158e-09
-2.01679e-09
-1.74023e-07
1.24874e-09
-2.20723e-09
-1.73723e-07
6.61372e-10
-2.42919e-09
-1.73522e-07
1.61077e-12
-2.53385e-09
-1.7347e-07
-6.58401e-10
-2.53452e-09
-1.7347e-07
-1.24683e-09
-2.43053e-09
-1.73522e-07
-1.71524e-09
-2.2093e-09
-1.73723e-07
-2.0178e-09
-2.01835e-09
-1.74024e-07
-2.18007e-09
-1.70315e-09
-1.74387e-07
-2.19406e-09
-1.39572e-09
-1.74845e-07
-1.21404e-09
-1.75246e-07
-2.16077e-09
1.90305e-09
-1.19269e-09
-1.75531e-07
-1.97793e-09
1.8433e-09
-1.47487e-09
-1.75185e-07
1.70156e-09
-1.84377e-09
-1.74722e-07
1.44249e-09
-2.17882e-09
-1.74386e-07
1.06005e-09
-2.3995e-09
-1.74087e-07
5.65679e-10
-2.61699e-09
-1.73897e-07
1.31164e-12
-2.69383e-09
-1.7385e-07
-5.63221e-10
-2.69461e-09
-1.7385e-07
-1.05847e-09
-2.61839e-09
-1.73897e-07
-1.44203e-09
-2.4017e-09
-1.74088e-07
-1.70247e-09
-2.18048e-09
-1.74387e-07
-1.84536e-09
-1.84582e-09
-1.74724e-07
-1.90579e-09
-1.47649e-09
-1.75187e-07
-1.19357e-09
-1.75533e-07
-1.981e-09
1.49689e-09
-1.15378e-09
-1.75868e-07
-1.56059e-09
1.47427e-09
-1.49776e-09
-1.75618e-07
1.39422e-09
-1.90399e-09
-1.75185e-07
1.16406e-09
-2.19265e-09
-1.74843e-07
8.48501e-10
-2.44548e-09
-1.74525e-07
4.4802e-10
-2.652e-09
-1.74329e-07
8.29123e-13
-2.70574e-09
-1.74272e-07
-4.46082e-10
-2.70699e-09
-1.74273e-07
-8.47345e-10
-2.6532e-09
-1.74329e-07
-1.16384e-09
-2.44749e-09
-1.74526e-07
-1.39496e-09
-2.19413e-09
-1.74844e-07
-1.47578e-09
-1.90593e-09
-1.75187e-07
-1.4987e-09
-1.49953e-09
-1.7562e-07
-1.15446e-09
-1.7587e-07
-1.56302e-09
1.15311e-09
-1.76154e-07
-1.16651e-09
-1.16589e-09
1.19234e-09
-1.75868e-07
-1.56188e-09
1.21329e-09
-1.75531e-07
-1.97925e-09
1.0765e-09
-1.75245e-07
-2.15927e-09
8.07282e-10
-1.74986e-07
-2.34321e-09
4.27437e-10
-1.74824e-07
-2.48655e-09
3.60299e-13
-1.74771e-07
-2.51136e-09
-4.26066e-10
-1.74771e-07
-2.51322e-09
-8.06561e-10
-1.74824e-07
-2.48713e-09
-1.07636e-09
-1.74986e-07
-2.34462e-09
-1.21372e-09
-1.75246e-07
-2.15991e-09
-1.19322e-09
-1.75532e-07
-1.98037e-09
-1.15397e-09
-1.75869e-07
-1.56312e-09
-1.76156e-07
-1.16667e-09
-1.16688e-09
4.64543e-09
4.64198e-09
-1.81773e-07
-4.8377e-09
-4.84089e-09
4.26964e-09
5.17985e-09
-1.81358e-07
-5.37304e-09
3.8358e-09
5.99893e-09
-1.80949e-07
-6.22944e-09
3.15685e-09
6.51424e-09
-1.80603e-07
-6.66549e-09
2.27128e-09
7.04941e-09
-1.80304e-07
-7.13123e-09
1.18428e-09
7.43549e-09
-1.80129e-07
-7.42626e-09
-1.63334e-12
7.58347e-09
-1.80078e-07
-7.53217e-09
-1.18733e-09
7.5846e-09
-1.80078e-07
-7.53335e-09
-2.2746e-09
7.43638e-09
-1.80129e-07
-7.42634e-09
-3.15998e-09
7.05039e-09
-1.80304e-07
-7.13163e-09
-3.83881e-09
6.51533e-09
-1.80603e-07
-6.66575e-09
-4.27249e-09
6.00053e-09
-1.80949e-07
-6.23036e-09
-4.64833e-09
5.1815e-09
-1.81357e-07
-5.3739e-09
4.6428e-09
-1.81772e-07
-4.8382e-09
-4.84358e-09
5.18287e-09
4.26644e-09
-1.81358e-07
-5.37525e-09
4.83569e-09
4.83238e-09
-1.8106e-07
4.3622e-09
5.57936e-09
-1.80569e-07
3.56453e-09
6.17653e-09
-1.80189e-07
2.55593e-09
6.68443e-09
-1.79835e-07
1.33094e-09
7.10918e-09
-1.79631e-07
-1.14045e-12
7.27393e-09
-1.79584e-07
-1.33331e-09
7.27515e-09
-1.79584e-07
-2.5585e-09
7.11048e-09
-1.79631e-07
-3.56747e-09
6.686e-09
-1.79835e-07
-4.36522e-09
6.17792e-09
-1.80189e-07
-4.83867e-09
5.58105e-09
-1.80569e-07
-5.1856e-09
4.83386e-09
-1.8106e-07
4.26754e-09
-1.81357e-07
-5.37847e-09
6.00145e-09
3.83314e-09
-1.80949e-07
-6.23082e-09
5.58269e-09
4.3589e-09
-1.80569e-07
4.98079e-09
4.97699e-09
-1.80038e-07
4.0577e-09
5.56738e-09
-1.79706e-07
2.90054e-09
6.00006e-09
-1.7941e-07
1.51617e-09
6.42181e-09
-1.79246e-07
-8.36568e-13
6.59647e-09
-1.79228e-07
-1.51792e-09
6.5977e-09
-1.79229e-07
-2.90252e-09
6.42298e-09
-1.79246e-07
-4.06018e-09
6.00165e-09
-1.79411e-07
-4.98373e-09
5.56872e-09
-1.79706e-07
-5.58608e-09
4.97857e-09
-1.80038e-07
-6.00499e-09
4.36002e-09
-1.80569e-07
3.83417e-09
-1.80949e-07
-6.23491e-09
6.51581e-09
3.15446e-09
-1.80603e-07
-6.66534e-09
6.17922e-09
3.56141e-09
-1.80189e-07
5.57075e-09
4.0538e-09
-1.79705e-07
4.59906e-09
4.59544e-09
-1.79385e-07
3.30174e-09
4.94319e-09
-1.79098e-07
1.72975e-09
5.32226e-09
-1.78912e-07
-4.87318e-13
5.48572e-09
-1.78892e-07
-1.73112e-09
5.48696e-09
-1.78892e-07
-3.30351e-09
5.32304e-09
-1.78913e-07
-4.60152e-09
4.94444e-09
-1.79098e-07
-5.57396e-09
4.5964e-09
-1.79386e-07
-6.18314e-09
4.05505e-09
-1.79706e-07
-6.52008e-09
3.56196e-09
-1.80188e-07
3.15512e-09
-1.80602e-07
-6.6702e-09
7.05088e-09
2.26936e-09
-1.80303e-07
-7.13126e-09
6.68734e-09
2.55302e-09
-1.79835e-07
6.00386e-09
2.89694e-09
-1.7941e-07
4.94734e-09
3.29853e-09
-1.79098e-07
3.52744e-09
3.52386e-09
-1.78871e-07
1.84063e-09
3.79657e-09
-1.7871e-07
-2.99788e-13
3.92019e-09
-1.78705e-07
-1.84157e-09
3.92138e-09
-1.78706e-07
-3.52872e-09
3.79685e-09
-1.7871e-07
-4.94914e-09
3.5244e-09
-1.78872e-07
-6.00642e-09
3.29881e-09
-1.79098e-07
-6.6907e-09
2.89764e-09
-1.79411e-07
-7.05503e-09
2.55329e-09
-1.79835e-07
2.2697e-09
-1.80303e-07
-7.13606e-09
7.43608e-09
1.18235e-09
-1.80128e-07
-7.42507e-09
7.11109e-09
1.32847e-09
-1.79631e-07
6.42457e-09
1.51323e-09
-1.79246e-07
5.32553e-09
1.72713e-09
-1.78912e-07
3.79943e-09
1.83781e-09
-1.7871e-07
1.98158e-09
1.97896e-09
-1.78545e-07
3.00736e-15
2.04457e-09
-1.78537e-07
-1.98188e-09
2.04572e-09
-1.78537e-07
-3.80007e-09
1.97905e-09
-1.78546e-07
-5.32667e-09
1.83795e-09
-1.78711e-07
-6.42671e-09
1.72714e-09
-1.78913e-07
-7.11434e-09
1.51372e-09
-1.79247e-07
-7.4406e-09
1.32895e-09
-1.79631e-07
1.18285e-09
-1.80128e-07
-7.43065e-09
7.58348e-09
-3.23199e-12
-1.80077e-07
-7.53098e-09
7.27511e-09
-3.15358e-12
-1.79584e-07
6.59845e-09
-3.02691e-12
-1.79228e-07
5.48841e-09
-2.70346e-12
-1.78892e-07
3.92279e-09
-2.55136e-12
-1.78705e-07
2.0473e-09
-2.42187e-12
-1.78537e-07
-5.6604e-13
-3.03457e-12
-1.78524e-07
-2.04836e-09
-2.26689e-12
-1.78524e-07
-3.92396e-09
-2.70195e-12
-1.78538e-07
-5.49004e-09
-2.65246e-12
-1.78706e-07
-6.60116e-09
-2.59064e-12
-1.78893e-07
-7.27894e-09
-2.63445e-12
-1.79229e-07
-7.58864e-09
-2.61396e-12
-1.79584e-07
-2.86728e-12
-1.80078e-07
-7.5371e-09
7.58345e-09
-1.18884e-09
-1.80077e-07
-7.53075e-09
7.27506e-09
-1.33464e-09
-1.79584e-07
6.59866e-09
-1.51962e-09
-1.79228e-07
5.48885e-09
-1.73301e-09
-1.78892e-07
3.92355e-09
-1.84351e-09
-1.78705e-07
2.04831e-09
-1.98435e-09
-1.78537e-07
2.08502e-13
-2.05079e-09
-1.78524e-07
-2.04768e-09
-2.05028e-09
-1.78524e-07
-3.92317e-09
-1.98436e-09
-1.78538e-07
-5.48913e-09
-1.84317e-09
-1.78706e-07
-6.60029e-09
-1.73227e-09
-1.78893e-07
-7.27815e-09
-1.51896e-09
-1.79229e-07
-7.58834e-09
-1.33378e-09
-1.79585e-07
-1.18776e-09
-1.80078e-07
-7.53753e-09
7.43631e-09
-2.2756e-09
-1.80128e-07
-7.42508e-09
7.11156e-09
-2.55912e-09
-1.79631e-07
6.42531e-09
-2.9036e-09
-1.79247e-07
5.32635e-09
-3.30488e-09
-1.78913e-07
3.80016e-09
-3.53001e-09
-1.78711e-07
1.98219e-09
-3.80233e-09
-1.78546e-07
-3.07622e-13
-3.92615e-09
-1.78538e-07
-1.98247e-09
-3.92581e-09
-1.78538e-07
-3.80041e-09
-3.80198e-09
-1.78547e-07
-5.32679e-09
-3.5295e-09
-1.78711e-07
-6.4268e-09
-3.30393e-09
-1.78914e-07
-7.11436e-09
-2.90304e-09
-1.79247e-07
-7.44068e-09
-2.55827e-09
-1.79631e-07
-2.27453e-09
-1.80128e-07
-7.43081e-09
7.05094e-09
-3.16076e-09
-1.80303e-07
-7.13031e-09
6.6881e-09
-3.5676e-09
-1.79835e-07
6.0051e-09
-4.0607e-09
-1.79411e-07
4.94872e-09
-4.60221e-09
-1.79099e-07
3.52865e-09
-4.94977e-09
-1.78872e-07
1.84159e-09
-5.32839e-09
-1.78712e-07
-3.35477e-13
-5.49161e-09
-1.78707e-07
-1.84198e-09
-5.49151e-09
-1.78707e-07
-3.5291e-09
-5.3281e-09
-1.78712e-07
-4.94955e-09
-4.94957e-09
-1.78873e-07
-6.00695e-09
-4.60161e-09
-1.79099e-07
-6.69116e-09
-4.06062e-09
-1.79411e-07
-7.05534e-09
-3.56717e-09
-1.79835e-07
-3.16009e-09
-1.80303e-07
-7.13586e-09
6.51558e-09
-3.83902e-09
-1.80603e-07
-6.66419e-09
6.17991e-09
-4.36487e-09
-1.80189e-07
5.57207e-09
-4.98363e-09
-1.79706e-07
4.60062e-09
-5.57403e-09
-1.79386e-07
3.30323e-09
-6.0067e-09
-1.79099e-07
1.73091e-09
-6.42811e-09
-1.78914e-07
-2.92816e-14
-6.60263e-09
-1.78893e-07
-1.73088e-09
-6.60286e-09
-1.78894e-07
-3.30359e-09
-6.42817e-09
-1.78914e-07
-4.60184e-09
-6.00697e-09
-1.79099e-07
-5.5745e-09
-5.57407e-09
-1.79387e-07
-6.18347e-09
-4.98436e-09
-1.79707e-07
-6.52018e-09
-4.3652e-09
-1.80189e-07
-3.83899e-09
-1.80603e-07
-6.66973e-09
6.00083e-09
-4.27174e-09
-1.80949e-07
-6.22892e-09
5.58312e-09
-4.83764e-09
-1.80569e-07
4.98202e-09
-5.58517e-09
-1.80039e-07
4.0593e-09
-6.18247e-09
-1.79707e-07
2.90208e-09
-6.69047e-09
-1.79411e-07
1.51742e-09
-7.11509e-09
-1.79247e-07
4.9812e-14
-7.28013e-09
-1.79229e-07
-1.51728e-09
-7.28079e-09
-1.7923e-07
-2.90242e-09
-7.11575e-09
-1.79248e-07
-4.0606e-09
-6.69136e-09
-1.79412e-07
-4.98468e-09
-6.18309e-09
-1.79707e-07
-5.58701e-09
-5.58661e-09
-1.80039e-07
-6.00561e-09
-4.83877e-09
-1.80569e-07
-4.27239e-09
-1.80949e-07
-6.23441e-09
5.18139e-09
-4.64645e-09
-1.81357e-07
-5.37254e-09
4.83534e-09
-5.18403e-09
-1.8106e-07
4.36275e-09
-6.00343e-09
-1.80569e-07
3.56553e-09
-6.5188e-09
-1.80189e-07
2.55721e-09
-7.05433e-09
-1.79836e-07
1.3323e-09
-7.44062e-09
-1.79632e-07
1.48952e-13
-7.58934e-09
-1.79585e-07
-1.33182e-09
-7.59064e-09
-1.79585e-07
-2.55755e-09
-7.44157e-09
-1.79632e-07
-3.56712e-09
-7.05538e-09
-1.79836e-07
-4.3655e-09
-6.51966e-09
-1.80189e-07
-4.839e-09
-6.00517e-09
-1.80569e-07
-5.18558e-09
-5.18548e-09
-1.8106e-07
-4.647e-09
-1.81357e-07
-5.37752e-09
4.64322e-09
-1.81772e-07
-4.84127e-09
-4.83743e-09
4.26915e-09
-1.81357e-07
-5.37622e-09
3.83671e-09
-1.80949e-07
-6.2325e-09
3.15847e-09
-1.80603e-07
-6.66825e-09
2.27333e-09
-1.80304e-07
-7.13451e-09
1.18611e-09
-1.80129e-07
-7.42973e-09
-1.40246e-13
-1.80078e-07
-7.53662e-09
-1.18621e-09
-1.80078e-07
-7.53845e-09
-2.27429e-09
-1.80129e-07
-7.4304e-09
-3.16026e-09
-1.80304e-07
-7.13542e-09
-3.83947e-09
-1.80603e-07
-6.66853e-09
-4.27269e-09
-1.80949e-07
-6.23357e-09
-4.64728e-09
-1.81357e-07
-5.37677e-09
-1.81772e-07
-4.84143e-09
-4.84101e-09
8.14889e-09
8.14646e-09
-1.86349e-07
-8.63057e-09
-8.63249e-09
7.35689e-09
8.8389e-09
-1.85845e-07
-9.24982e-09
6.41314e-09
1.00336e-08
-1.85352e-07
-1.05062e-08
5.16287e-09
1.07271e-08
-1.84956e-07
-1.11396e-08
3.64831e-09
1.15035e-08
-1.84632e-07
-1.18604e-08
1.88595e-09
1.2035e-08
-1.8446e-07
-1.22966e-08
-1.55301e-12
1.22723e-08
-1.84426e-07
-1.24902e-08
-1.88895e-09
1.22736e-08
-1.84426e-07
-1.24916e-08
-3.65149e-09
1.20357e-08
-1.84459e-07
-1.22971e-08
-5.16553e-09
1.15046e-08
-1.84632e-07
-1.18617e-08
-6.41567e-09
1.07286e-08
-1.84955e-07
-1.11408e-08
-7.35928e-09
1.00354e-08
-1.8535e-07
-1.05079e-08
-8.15175e-09
8.84054e-09
-1.85842e-07
-9.25093e-09
8.14717e-09
-1.86346e-07
-8.6316e-09
-8.63532e-09
8.84125e-09
7.35494e-09
-1.85845e-07
-9.25125e-09
8.13977e-09
8.13757e-09
-1.85534e-07
7.21359e-09
9.21709e-09
-1.84985e-07
5.84844e-09
1.0011e-08
-1.84573e-07
4.17107e-09
1.07223e-08
-1.84206e-07
2.1688e-09
1.12833e-08
-1.83995e-07
-1.26006e-12
1.15304e-08
-1.83961e-07
-2.17165e-09
1.15319e-08
-1.83961e-07
-4.17399e-09
1.12838e-08
-1.83994e-07
-5.85139e-09
1.0723e-08
-1.84206e-07
-7.2162e-09
1.0012e-08
-1.84572e-07
-8.14208e-09
9.21811e-09
-1.84983e-07
-8.8433e-09
8.13821e-09
-1.85531e-07
7.35511e-09
-1.85842e-07
-9.25404e-09
1.00356e-08
6.41193e-09
-1.85351e-07
-1.05071e-08
9.21953e-09
7.21178e-09
-1.84984e-07
8.10399e-09
8.1014e-09
-1.84413e-07
6.50204e-09
8.88353e-09
-1.84093e-07
4.58535e-09
9.48422e-09
-1.83836e-07
2.37965e-09
1.00065e-08
-1.83688e-07
-1.08959e-12
1.02248e-08
-1.83669e-07
-2.38179e-09
1.02261e-08
-1.83669e-07
-4.5877e-09
1.00068e-08
-1.83688e-07
-6.50472e-09
9.48454e-09
-1.83836e-07
-8.10682e-09
8.88355e-09
-1.84092e-07
-9.2224e-09
8.10171e-09
-1.84412e-07
-1.00384e-08
7.21154e-09
-1.84982e-07
6.41134e-09
-1.85348e-07
-1.05105e-08
1.07281e-08
5.16175e-09
-1.84955e-07
-1.1139e-08
1.00129e-08
5.84692e-09
-1.84573e-07
8.88581e-09
6.4995e-09
-1.84092e-07
7.21805e-09
7.21566e-09
-1.83835e-07
5.14218e-09
7.7302e-09
-1.83532e-07
2.68459e-09
8.19897e-09
-1.83309e-07
-1.06343e-12
8.37092e-09
-1.83286e-07
-2.68702e-09
8.37195e-09
-1.83286e-07
-5.14487e-09
8.19899e-09
-1.83308e-07
-7.22108e-09
7.73032e-09
-1.83532e-07
-8.88913e-09
7.21524e-09
-1.83834e-07
-1.00165e-08
6.499e-09
-1.84091e-07
-1.07317e-08
5.84603e-09
-1.84571e-07
5.16081e-09
-1.84953e-07
-1.1143e-08
1.15036e-08
3.64737e-09
-1.84631e-07
-1.18592e-08
1.07237e-08
4.16943e-09
-1.84205e-07
9.48657e-09
4.58267e-09
-1.83836e-07
7.73304e-09
5.13977e-09
-1.83532e-07
5.47725e-09
5.47444e-09
-1.83269e-07
2.85211e-09
5.8166e-09
-1.83067e-07
-1.16123e-12
5.93815e-09
-1.83076e-07
-2.85454e-09
5.93886e-09
-1.83075e-07
-5.47986e-09
5.81633e-09
-1.83066e-07
-7.73592e-09
5.47422e-09
-1.83269e-07
-9.48964e-09
5.13931e-09
-1.83531e-07
-1.07269e-08
4.58193e-09
-1.83835e-07
-1.15073e-08
4.16867e-09
-1.84204e-07
3.64649e-09
-1.84629e-07
-1.18635e-08
1.20337e-08
1.88451e-09
-1.84458e-07
-1.22934e-08
1.12836e-08
2.16689e-09
-1.83993e-07
1.00079e-08
2.37688e-09
-1.83687e-07
8.2012e-09
2.68208e-09
-1.83308e-07
5.81903e-09
2.84928e-09
-1.83066e-07
3.03552e-09
3.03275e-09
-1.82848e-07
-1.03662e-12
3.09944e-09
-1.82855e-07
-3.03765e-09
3.09984e-09
-1.82854e-07
-5.82125e-09
3.03235e-09
-1.82847e-07
-8.20356e-09
2.84888e-09
-1.83065e-07
-1.00108e-08
2.68178e-09
-1.83307e-07
-1.12869e-08
2.37698e-09
-1.83686e-07
-1.20379e-08
2.16692e-09
-1.83992e-07
1.88441e-09
-1.84456e-07
-1.22984e-08
1.22703e-08
-3.1346e-12
-1.84424e-07
-1.24865e-08
1.15306e-08