/*--------------------------------*- C++ -*----------------------------------*\
| =========                 |                                                 |
| \\      /  F ield         | OpenFOAM: The Open Source CFD Toolbox           |
|  \\    /   O peration     | Version:  v2106                                 |
|   \\  /    A nd           | Website:  www.openfoam.com                      |
|    \\/     M anipulation  |                                                 |
\*---------------------------------------------------------------------------*/
FoamFile
{
    version     2.0;
    format      ascii;
    arch        "LSB;label=32;scalar=64";
    class       volScalarField;
    location    "0.000137";
    object      rho;
}
// * * * * * * * * * * * * * * * * * * * * * * * * * * * * * * * * * * * * * //

dimensions      [1 -3 0 0 0 0 0];

internalField   nonuniform List<scalar> 
144746
(
2.37774
2.38022
2.38186
2.38346
2.38497
2.3861
2.38788
2.38991
2.39215
2.39433
2.3957
2.39566
2.39434
2.39135
2.37997
2.38342
2.38555
2.38748
2.38911
2.39063
2.39288
2.39484
2.3969
2.39862
2.39967
2.39939
2.39742
2.39279
2.37976
2.38497
2.38763
2.39029
2.39259
2.3948
2.39711
2.39868
2.40015
2.40129
2.40188
2.40109
2.39884
2.39353
2.38056
2.38576
2.38875
2.39217
2.3951
2.3979
2.40027
2.40178
2.40285
2.40337
2.40349
2.40234
2.3999
2.39429
2.37979
2.38531
2.3887
2.39301
2.3965
2.39968
2.40212
2.40325
2.40407
2.40439
2.40406
2.40266
2.4001
2.39459
2.37895
2.38441
2.38824
2.39296
2.39675
2.40016
2.40295
2.40399
2.40472
2.40478
2.40421
2.4027
2.4002
2.39521
2.37802
2.38351
2.38772
2.39264
2.39676
2.40018
2.40302
2.40391
2.40457
2.40448
2.40388
2.4025
2.40003
2.39557
2.37739
2.38326
2.3876
2.39243
2.39663
2.40005
2.40237
2.40362
2.4042
2.40407
2.4035
2.40206
2.39949
2.39527
2.37676
2.3824
2.38658
2.39156
2.39565
2.39903
2.40134
2.40269
2.40339
2.40346
2.40289
2.40126
2.39867
2.39463
2.37641
2.38148
2.38536
2.3903
2.39421
2.39766
2.39983
2.40124
2.40158
2.40195
2.40127
2.39962
2.39731
2.39331
2.37543
2.37992
2.38316
2.38807
2.39193
2.39527
2.3975
2.39897
2.39945
2.39973
2.3988
2.39724
2.39515
2.3913
2.37431
2.37772
2.38036
2.38513
2.3887
2.39163
2.39363
2.3949
2.39552
2.39555
2.39478
2.39325
2.39134
2.38757
2.37261
2.37555
2.37751
2.38177
2.38522
2.38767
2.38962
2.39078
2.39122
2.39084
2.38999
2.38856
2.38703
2.38416
2.37009
2.37266
2.37248
2.37617
2.37934
2.38143
2.38334
2.38456
2.38508
2.3845
2.38358
2.38238
2.38137
2.38016
2.35565
2.36238
2.36924
2.37484
2.3812
2.38507
2.38982
2.39258
2.39512
2.39599
2.39487
2.39012
2.38442
2.37524
2.35772
2.36329
2.36997
2.37615
2.38296
2.38762
2.39301
2.39601
2.39928
2.39982
2.3988
2.39442
2.38863
2.3793
2.36066
2.36741
2.37468
2.38074
2.38693
2.39159
2.39654
2.39931
2.40171
2.40232
2.40138
2.39744
2.39204
2.38257
2.36627
2.37248
2.37896
2.38485
2.39033
2.39457
2.39877
2.40156
2.40414
2.40419
2.40336
2.39982
2.3947
2.3864
2.36927
2.37613
2.38259
2.38825
2.39334
2.39749
2.40093
2.40356
2.40514
2.40605
2.40502
2.40172
2.39713
2.38961
2.37148
2.37771
2.38394
2.3895
2.39452
2.39876
2.40199
2.40446
2.40597
2.40598
2.40506
2.40245
2.39872
2.39218
2.37044
2.37646
2.38281
2.38872
2.39401
2.39834
2.40211
2.40492
2.40635
2.40683
2.40582
2.40333
2.40013
2.3942
2.36968
2.37571
2.38137
2.38802
2.39289
2.39793
2.40154
2.40453
2.40572
2.40606
2.40514
2.40276
2.40057
2.3951
2.36814
2.37242
2.37763
2.38576
2.39093
2.39634
2.40009
2.40322
2.40419
2.40455
2.40389
2.40171
2.39951
2.3944
2.36681
2.36987
2.37497
2.38279
2.38828
2.39386
2.39765
2.40084
2.40161
2.40176
2.40133
2.3992
2.39724
2.39197
2.36288
2.36536
2.37016
2.37859
2.38492
2.39067
2.3944
2.39729
2.39768
2.39765
2.39718
2.39491
2.39254
2.38642
2.35874
2.3601
2.36547
2.37422
2.38105
2.38668
2.39023
2.39264
2.39288
2.39243
2.39118
2.38859
2.38561
2.37867
2.35327
2.35635
2.36122
2.36973
2.37714
2.38284
2.38622
2.38724
2.38642
2.38545
2.38289
2.37981
2.37607
2.36897
2.34663
2.35001
2.35276
2.36121
2.369
2.37518
2.37925
2.38024
2.37924
2.37699
2.3733
2.36898
2.36446
2.35892
2.3668
2.38072
2.39065
2.39692
2.40678
2.41528
2.42768
2.43557
2.44116
2.44195
2.43841
2.42852
2.41377
2.39285
2.37567
2.38603
2.3963
2.40459
2.41517
2.4235
2.43382
2.44074
2.44723
2.44826
2.44461
2.43481
2.42081
2.40484
2.3865
2.39453
2.40484
2.41227
2.42191
2.43042
2.44017
2.44594
2.45105
2.45213
2.4492
2.44154
2.42886
2.41473
2.39568
2.40338
2.41294
2.42106
2.42945
2.43696
2.44448
2.4498
2.45471
2.45547
2.45276
2.44578
2.43333
2.42123
2.40315
2.4115
2.41981
2.42734
2.43471
2.44129
2.4479
2.45247
2.45613
2.45706
2.45465
2.44899
2.43835
2.42783
2.40569
2.41417
2.42223
2.42975
2.43725
2.44347
2.44962
2.45394
2.45703
2.45795
2.45584
2.45071
2.44103
2.43124
2.40275
2.41125
2.41937
2.42761
2.4357
2.44259
2.44913
2.4542
2.45681
2.45802
2.45626
2.45177
2.44428
2.43481
2.39813
2.40766
2.41635
2.42607
2.43382
2.44181
2.44821
2.45348
2.45546
2.45657
2.45493
2.45092
2.44465
2.43546
2.38903
2.39831
2.40909
2.42018
2.42945
2.43876
2.44563
2.45146
2.45304
2.45454
2.45327
2.44967
2.44365
2.43532
2.38234
2.39182
2.40393
2.41456
2.42522
2.43499
2.44171
2.44762
2.44847
2.44957
2.4479
2.44375
2.43781
2.42957
2.37445
2.38344
2.3962
2.40734
2.41969
2.43028
2.43692
2.44226
2.44218
2.44255
2.44009
2.43534
2.42864
2.42025
2.37039
2.37599
2.38928
2.40097
2.41336
2.42368
2.43029
2.43482
2.43351
2.43262
2.42839
2.42319
2.41482
2.40606
2.36316
2.37058
2.38154
2.39281
2.40551
2.41582
2.42229
2.42514
2.42352
2.42124
2.41498
2.4093
2.39958
2.38862
2.34957
2.36
2.37047
2.38374
2.39592
2.40571
2.41229
2.4137
2.41079
2.40711
2.39991
2.39249
2.38196
2.36734
2.38952
2.38676
2.38579
2.38418
2.38521
2.38313
2.38898
2.3855
2.38492
2.38348
2.38443
2.38298
2.38942
2.38523
2.38506
2.38355
2.38419
2.38316
2.38994
2.3853
2.3849
2.38318
2.38412
2.3832
2.39019
2.38506
2.38434
2.38238
2.38311
2.38274
2.39074
2.3848
2.38344
2.38104
2.38138
2.38103
2.391
2.38459
2.38241
2.37962
2.37993
2.37931
2.39081
2.38442
2.38187
2.37872
2.3792
2.3779
2.39031
2.38401
2.38129
2.37769
2.37849
2.37697
2.3892
2.38379
2.38151
2.37858
2.38018
2.37877
2.38757
2.38196
2.37945
2.376
2.37726
2.37663
2.3843
2.37997
2.37853
2.3765
2.37825
2.37735
2.38133
2.3779
2.37725
2.37555
2.377
2.3754
2.37815
2.37631
2.37629
2.37487
2.37692
2.3754
2.37004
2.36179
2.35989
2.35429
2.35722
2.34938
2.37296
2.36491
2.36429
2.36004
2.36418
2.35644
2.37592
2.36931
2.36949
2.36641
2.37095
2.3653
2.38021
2.37429
2.37514
2.37163
2.37596
2.37151
2.3835
2.37816
2.37876
2.37494
2.37929
2.37587
2.38698
2.38143
2.38104
2.37672
2.38033
2.37719
2.38947
2.38315
2.38113
2.37636
2.37889
2.37521
2.39107
2.38326
2.37955
2.37351
2.37469
2.36922
2.38995
2.38082
2.37565
2.36744
2.36684
2.36084
2.38704
2.37693
2.37025
2.3591
2.35707
2.34761
2.38125
2.36948
2.36213
2.34869
2.34568
2.33504
2.37321
2.36098
2.35376
2.34006
2.33764
2.32671
2.36451
2.35243
2.34685
2.33451
2.33351
2.32314
2.35428
2.34434
2.342
2.33125
2.33253
2.32348
2.37437
2.35051
2.32853
2.29716
2.28004
2.21059
2.38573
2.36304
2.34402
2.31674
2.3068
2.24207
2.3933
2.37257
2.35411
2.33204
2.32858
2.27781
2.40104
2.38199
2.36601
2.34746
2.3462
2.30708
2.40852
2.39069
2.37624
2.35956
2.35707
2.3271
2.41495
2.3986
2.38514
2.36793
2.36217
2.33696
2.42136
2.4051
2.39143
2.37247
2.36201
2.33564
2.42475
2.40858
2.39422
2.37186
2.35658
2.32518
2.42522
2.40716
2.39088
2.36344
2.34212
2.30192
2.42016
2.39857
2.3797
2.34724
2.32135
2.26837
2.40934
2.38636
2.36352
2.32486
2.2947
2.23328
2.39385
2.36808
2.34343
2.30429
2.27579
2.20587
2.37934
2.35026
2.3255
2.28683
2.26109
2.18622
2.35079
2.32146
2.30235
2.27002
2.24882
2.1737
2.37839
2.37717
2.3768
2.37612
2.37734
2.37532
2.37768
2.37516
2.37569
2.37457
2.37665
2.37545
2.37897
2.37598
2.37626
2.37466
2.37636
2.37512
2.37927
2.37531
2.37494
2.37306
2.37477
2.37401
2.37983
2.37456
2.37335
2.37093
2.37208
2.3716
2.37963
2.37269
2.3702
2.36718
2.36805
2.3672
2.37889
2.371
2.36788
2.36494
2.36559
2.36386
2.37762
2.36915
2.36556
2.36221
2.36284
2.36131
2.3758
2.3676
2.36472
2.36163
2.36331
2.36133
2.37425
2.36653
2.36338
2.36028
2.36179
2.36146
2.37198
2.36637
2.36482
2.36281
2.36469
2.36375
2.37
2.36633
2.36635
2.3651
2.36681
2.36556
2.37146
2.3694
2.37014
2.36923
2.37069
2.36904
2.36905
2.36708
2.36814
2.36677
2.36935
2.36889
2.35367
2.34604
2.34527
2.33818
2.34002
2.33178
2.35838
2.35111
2.3512
2.3453
2.34827
2.34056
2.36336
2.35739
2.35866
2.35391
2.35756
2.35063
2.36805
2.36287
2.36424
2.35932
2.36315
2.35722
2.37177
2.36669
2.36715
2.36154
2.36529
2.36022
2.3744
2.36848
2.36696
2.36012
2.36305
2.35784
2.37536
2.36729
2.364
2.35554
2.35757
2.35102
2.37414
2.36325
2.35852
2.34831
2.34883
2.34057
2.36941
2.35774
2.3516
2.3384
2.33795
2.32713
2.36349
2.34989
2.34301
2.32905
2.32795
2.31662
2.35635
2.34423
2.33914
2.32581
2.32494
2.31253
2.3499
2.33901
2.33651
2.32636
2.32737
2.3182
2.35028
2.34225
2.34205
2.33623
2.33877
2.33304
2.34432
2.33803
2.3399
2.33875
2.3446
2.34159
2.35288
2.3286
2.30961
2.2779
2.25936
2.18711
2.36603
2.34315
2.32688
2.29904
2.28575
2.21903
2.3748
2.35463
2.33847
2.31574
2.30706
2.25311
2.38335
2.36453
2.35025
2.33043
2.32241
2.27871
2.39129
2.37249
2.35798
2.33813
2.3291
2.29178
2.39641
2.37776
2.36316
2.34181
2.32976
2.29416
2.39972
2.38069
2.36507
2.33936
2.32314
2.28411
2.39901
2.37907
2.36112
2.33119
2.31039
2.26269
2.39242
2.37029
2.35071
2.31598
2.29094
2.23093
2.38268
2.3584
2.33721
2.30168
2.27698
2.21013
2.37208
2.34714
2.32916
2.29723
2.27852
2.20477
2.36243
2.33947
2.32609
2.29842
2.28636
2.21498
2.36087
2.34051
2.32956
2.30854
2.30321
2.24369
2.34362
2.32464
2.32021
2.30985
2.31349
2.26786
2.3761
2.37654
2.37396
2.37502
2.37426
2.37586
2.37473
2.37576
2.37426
2.37546
2.37518
2.3778
2.37176
2.37226
2.37066
2.37211
2.37274
2.37627
2.36834
2.36775
2.36571
2.36781
2.37019
2.37628
2.3651
2.36355
2.36148
2.36487
2.36869
2.37512
2.36041
2.36042
2.35971
2.36344
2.36707
2.37425
2.35946
2.35981
2.35934
2.36285
2.36614
2.37309
2.36169
2.36118
2.36076
2.36338
2.36558
2.37231
2.36533
2.36378
2.36311
2.36518
2.36652
2.37219
2.36913
2.3669
2.36613
2.36779
2.36832
2.37285
2.37099
2.36928
2.36849
2.36948
2.36954
2.37256
2.37121
2.37033
2.36972
2.37125
2.37098
2.37317
2.37084
2.36911
2.36741
2.36851
2.36753
2.37086
2.37231
2.37282
2.37197
2.37315
2.37218
2.37206
2.35411
2.3568
2.34908
2.35019
2.34763
2.35188
2.34718
2.35231
2.34744
2.35131
2.3504
2.35685
2.3338
2.34202
2.3387
2.3463
2.34803
2.35658
2.32821
2.33804
2.33721
2.34744
2.35092
2.36077
2.33182
2.33941
2.33931
2.34998
2.35463
2.36438
2.34144
2.34762
2.34739
2.35564
2.35903
2.36721
2.35545
2.35756
2.3557
2.36131
2.36181
2.36702
2.36629
2.36664
2.36382
2.36735
2.36474
2.36705
2.37513
2.37353
2.36959
2.37193
2.36779
2.36778
2.3816
2.3782
2.37383
2.3746
2.36918
2.36843
2.38393
2.38009
2.37511
2.37387
2.36739
2.36499
2.38201
2.3781
2.37263
2.36968
2.36289
2.3617
2.37502
2.37215
2.36552
2.36304
2.35566
2.35365
2.35891
2.36024
2.35485
2.35546
2.35236
2.35317
2.28684
2.33277
2.32756
2.3364
2.33913
2.35566
2.26785
2.32469
2.32657
2.3446
2.35401
2.37275
2.24218
2.30816
2.3165
2.34138
2.35578
2.37617
2.23161
2.29924
2.31762
2.34698
2.36454
2.38367
2.23587
2.29556
2.31943
2.35118
2.37237
2.39172
2.25664
2.30846
2.33289
2.36345
2.3807
2.39526
2.28892
2.32523
2.34345
2.36737
2.38091
2.39401
2.31634
2.34041
2.35111
2.36859
2.37683
2.38823
2.3376
2.35057
2.35399
2.36565
2.36978
2.37884
2.35019
2.35684
2.35543
2.36214
2.36312
2.37079
2.35335
2.35993
2.35623
2.35915
2.35757
2.36364
2.34648
2.3575
2.35344
2.35537
2.35502
2.36156
2.33198
2.35263
2.34704
2.34975
2.34825
2.35235
2.30397
2.33577
2.33019
2.33785
2.34667
2.35301
2.38292
2.38391
2.38265
2.38523
2.38631
2.3896
2.38331
2.3841
2.38324
2.38578
2.38737
2.39127
2.38253
2.3826
2.38191
2.38526
2.38757
2.39257
2.38279
2.38318
2.38238
2.38557
2.38848
2.39238
2.37947
2.38004
2.38011
2.38374
2.38594
2.39066
2.37814
2.37867
2.37889
2.38181
2.38363
2.38836
2.37731
2.37717
2.37731
2.37957
2.38083
2.38591
2.37792
2.37654
2.3766
2.37827
2.37919
2.38404
2.37891
2.37673
2.37653
2.37801
2.37868
2.38276
2.3793
2.37733
2.37702
2.37853
2.37899
2.38221
2.37923
2.37773
2.37718
2.3782
2.3783
2.38092
2.37864
2.37767
2.37708
2.37835
2.37823
2.37999
2.37811
2.37664
2.37559
2.37625
2.37598
2.3782
2.37854
2.37904
2.37808
2.37907
2.37819
2.37861
2.34153
2.35008
2.34851
2.35811
2.36129
2.37055
2.34208
2.3512
2.35177
2.36316
2.36898
2.37938
2.34606
2.35445
2.35663
2.36916
2.37552
2.38574
2.35562
2.36256
2.36548
2.37691
2.3834
2.39125
2.36852
2.37341
2.37548
2.383
2.38668
2.39311
2.3808
2.38259
2.38229
2.38662
2.38768
2.39224
2.38775
2.38826
2.38644
2.38854
2.3869
2.3896
2.39256
2.39086
2.38782
2.38855
2.38569
2.38732
2.39492
2.39163
2.38795
2.38713
2.3833
2.38405
2.39492
2.39102
2.38699
2.38503
2.38138
2.38178
2.39302
2.38818
2.38394
2.38084
2.37642
2.37593
2.38972
2.38339
2.37884
2.37609
2.37106
2.37087
2.38235
2.37818
2.37193
2.36812
2.36193
2.36188
2.36886
2.37044
2.36474
2.36525
2.36177
2.36047
2.19834
2.27007
2.29243
2.325
2.34639
2.37274
2.20872
2.28196
2.30986
2.34787
2.37317
2.39922
2.22985
2.2976
2.32921
2.36816
2.39355
2.41493
2.26016
2.31974
2.35078
2.38629
2.41041
2.42842
2.29611
2.3446
2.37315
2.40397
2.42045
2.43497
2.33041
2.36455
2.38394
2.40703
2.42255
2.43459
2.35423
2.37701
2.38904
2.4064
2.41813
2.42968
2.3728
2.38384
2.3889
2.40108
2.40933
2.42142
2.38245
2.38658
2.38621
2.39349
2.39823
2.40951
2.38265
2.38499
2.38227
2.38644
2.38885
2.40004
2.37625
2.38152
2.37721
2.37927
2.37991
2.38956
2.36129
2.37579
2.37054
2.37438
2.37573
2.38363
2.34217
2.36842
2.36222
2.36559
2.36522
2.37156
2.31779
2.35212
2.34649
2.35507
2.36157
2.36762
2.44584
2.44781
2.45361
2.4513
2.45648
2.46223
2.47292
2.48272
2.49209
2.49795
2.50038
2.4967
2.48637
2.47373
2.44839
2.44769
2.45125
2.45367
2.46102
2.46806
2.47816
2.48631
2.49504
2.49937
2.50016
2.49507
2.48511
2.47267
2.45254
2.45147
2.45482
2.45769
2.46443
2.47114
2.48151
2.48968
2.49707
2.50034
2.501
2.49717
2.48876
2.47794
2.45684
2.45677
2.46026
2.46409
2.47055
2.47696
2.48529
2.49144
2.49784
2.50057
2.50078
2.49643
2.48761
2.47693
2.45926
2.46134
2.46487
2.46916
2.47466
2.48054
2.4874
2.49278
2.49806
2.5004
2.50086
2.49783
2.49059
2.48145
2.45806
2.46138
2.46554
2.47071
2.47629
2.48215
2.48822
2.49326
2.49761
2.49969
2.49987
2.49726
2.49096
2.48359
2.45003
2.45646
2.46253
2.46892
2.47486
2.48143
2.48763
2.49315
2.49723
2.49971
2.50004
2.4987
2.49415
2.48859
2.44527
2.45327
2.46078
2.46775
2.47425
2.48121
2.48751
2.49301
2.49636
2.49907
2.49929
2.49885
2.4958
2.49105
2.43583
2.44528
2.45562
2.46221
2.47083
2.47897
2.48584
2.49197
2.49493
2.49841
2.49889
2.4994
2.49772
2.49338
2.43212
2.44262
2.45354
2.46066
2.47001
2.47844
2.48483
2.49067
2.49277
2.4964
2.49651
2.4973
2.49564
2.49254
2.42819
2.43836
2.44899
2.45741
2.46779
2.47695
2.48313
2.4884
2.48935
2.49264
2.49192
2.49303
2.49071
2.48976
2.43393
2.4386
2.44789
2.45712
2.46717
2.47576
2.48105
2.48528
2.48481
2.48667
2.48453
2.48544
2.48201
2.4821
2.4302
2.43638
2.44556
2.45439
2.46474
2.47312
2.47739
2.48051
2.47901
2.47888
2.47512
2.47524
2.47034
2.47004
2.42886
2.43721
2.44621
2.45491
2.4633
2.4697
2.47286
2.47425
2.47213
2.47203
2.46718
2.46626
2.45733
2.4548
2.50174
2.49636
2.49857
2.49251
2.49487
2.4982
2.50788
2.51877
2.52996
2.53839
2.54437
2.54456
2.54057
2.53451
2.49743
2.48998
2.49005
2.48833
2.49325
2.49997
2.51045
2.52025
2.53046
2.53719
2.5409
2.53931
2.53428
2.52768
2.4971
2.49016
2.49051
2.49122
2.49652
2.50277
2.51226
2.52148
2.53
2.53548
2.5387
2.53803
2.53326
2.52679
2.4981
2.49311
2.49351
2.49523
2.50025
2.50608
2.51443
2.52174
2.52889
2.53355
2.53594
2.53431
2.52851
2.52089
2.49818
2.496
2.49656
2.49885
2.50337
2.50868
2.51556
2.52169
2.52776
2.53164
2.53405
2.53303
2.52833
2.52089
2.49475
2.49482
2.49628
2.49946
2.5042
2.50948
2.51565
2.5213
2.52638
2.52962
2.53153
2.53078
2.52703
2.5205
2.4858
2.48933
2.49286
2.49727
2.50242
2.50831
2.51457
2.52037
2.52518
2.52858
2.53033
2.53055
2.52802
2.52356
2.48047
2.48509
2.48986
2.49493
2.50103
2.50746
2.51384
2.51965
2.52398
2.52756
2.529
2.53032
2.529
2.52638
2.47353
2.47902
2.48491
2.49018
2.49759
2.50505
2.51188
2.51821
2.52243
2.52658
2.52811
2.53057
2.53061
2.52861
2.47293
2.47891
2.48329
2.48913
2.49688
2.5047
2.51118
2.51718
2.52072
2.52511
2.52653
2.52966
2.5298
2.5296
2.47171
2.47703
2.48112
2.48736
2.49555
2.50382
2.51018
2.51593
2.51871
2.52289
2.52385
2.52737
2.52709
2.52966
2.47996
2.48018
2.48321
2.48921
2.49672
2.50432
2.50989
2.51451
2.51594
2.51898
2.51914
2.52257
2.52209
2.52669
2.47796
2.48116
2.48483
2.48965
2.49673
2.50399
2.5086
2.51226
2.51223
2.51374
2.51317
2.51663
2.51627
2.52055
2.48364
2.48865
2.4923
2.49597
2.50004
2.50445
2.50697
2.50862
2.50818
2.50979
2.50857
2.51257
2.5104
2.51402
2.54708
2.53891
2.5385
2.53109
2.53231
2.53397
2.54177
2.55192
2.56344
2.57315
2.58152
2.58532
2.58553
2.58315
2.53908
2.53003
2.52854
2.52564
2.52814
2.53313
2.54225
2.55223
2.56212
2.57046
2.57644
2.57809
2.57739
2.57466
2.53812
2.52841
2.52694
2.52598
2.52954
2.53486
2.54276
2.55124
2.55983
2.56686
2.57243
2.57449
2.57415
2.57166
2.53791
2.53032
2.52872
2.52842
2.53151
2.5364
2.54331
2.55056
2.55803
2.56408
2.56837
2.56943
2.56784
2.56446
2.53621
2.53169
2.53
2.53021
2.53299
2.53746
2.54337
2.54962
2.55595
2.56128
2.56524
2.5669
2.56534
2.56234
2.53146
2.52936
2.52858
2.52977
2.53319
2.53756
2.54302
2.54886
2.55437
2.55901
2.56218
2.56393
2.56264
2.56042
2.52439
2.52475
2.52601
2.52792
2.53205
2.53675
2.54234
2.54802
2.55317
2.55767
2.5606
2.56282
2.56225
2.56077
2.52003
2.5208
2.52312
2.5258
2.53094
2.53618
2.54191
2.54752
2.55233
2.55679
2.55963
2.5622
2.56249
2.56257
2.51527
2.51673
2.51899
2.52301
2.5288
2.53494
2.54102
2.54692
2.55159
2.55626
2.55913
2.56235
2.56354
2.56505
2.51736
2.51749
2.51836
2.52256
2.52859
2.5351
2.54114
2.54691
2.55109
2.55583
2.55854
2.56259
2.56439
2.56636
2.51882
2.51647
2.51799
2.5221
2.52872
2.53568
2.5416
2.54715
2.55084
2.55551
2.55786
2.56249
2.56418
2.56834
2.52632
2.52063
2.5215
2.52503
2.53117
2.53764
2.54295
2.54776
2.55034
2.5543
2.55598
2.5607
2.56214
2.56821
2.52626
2.52284
2.52423
2.52765
2.53345
2.53987
2.54441
2.54793
2.54919
2.55228
2.55354
2.55829
2.56023
2.56643
2.53295
2.53351
2.53461
2.53633
2.53894
2.54288
2.54564
2.54825
2.54828
2.55046
2.55148
2.55753
2.5583
2.56358
2.56439
2.55585
2.55535
2.5502
2.55216
2.55678
2.56482
2.57498
2.58604
2.5955
2.60428
2.60884
2.61139
2.61159
2.55918
2.55146
2.54982
2.54792
2.55158
2.5568
2.56551
2.57462
2.58423
2.59236
2.59946
2.60204
2.6036
2.60251
2.56152
2.5522
2.5507
2.55012
2.5537
2.55816
2.56522
2.57269
2.58111
2.58841
2.59502
2.59802
2.59966
2.59895
2.56241
2.55494
2.55293
2.55212
2.55458
2.55874
2.56483
2.57149
2.57882
2.58536
2.59083
2.59314
2.59333
2.59245
2.56067
2.55575
2.55346
2.55316
2.55516
2.55905
2.56423
2.57007
2.57639
2.58227
2.58725
2.59025
2.5904
2.58955
2.55596
2.55344
2.55214
2.55258
2.55469
2.55844
2.56332
2.56883
2.57453
2.57982
2.58395
2.58705
2.58742
2.5871
2.55068
2.54941
2.54925
2.55029
2.55329
2.55739
2.56235
2.56774
2.57314
2.57822
2.582
2.58537
2.58601
2.58644
2.54592
2.54503
2.54657
2.54825
2.5524
2.55684
2.56194
2.56724
2.57231
2.57727
2.58088
2.5844
2.58498
2.58731
2.54038
2.54042
2.54247
2.54573
2.55076
2.55592
2.56131
2.56679
2.57173
2.57675
2.58032
2.58409
2.58584
2.58835
2.54019
2.53936
2.54166
2.5456
2.55106
2.55653
2.56184
2.56716
2.57164
2.57658
2.57996
2.58432
2.58678
2.5894
2.54078
2.53777
2.5406
2.54529
2.55149
2.55756
2.56286
2.56805
2.57209
2.5769
2.57993
2.58474
2.58703
2.5913
2.54622
2.54062
2.54314
2.54798
2.55417
2.56006
2.56492
2.56943
2.5726
2.57686
2.57926
2.58406
2.58601
2.59165
2.5465
2.54288
2.54563
2.55066
2.55691
2.56274
2.56715
2.57072
2.57294
2.57629
2.57817
2.58297
2.58518
2.59104
2.55249
2.55312
2.55521
2.55851
2.5628
2.56679
2.56977
2.57258
2.57314
2.57527
2.57699
2.58218
2.58354
2.58939
2.57583
2.56939
2.57055
2.56865
2.5718
2.57688
2.58472
2.59356
2.60327
2.61196
2.62016
2.62503
2.62859
2.62915
2.57663
2.57002
2.56928
2.56816
2.57208
2.57715
2.58494
2.59313
2.6017
2.60915
2.61612
2.61963
2.62141
2.62182
2.58082
2.57325
2.57232
2.5715
2.57441
2.5784
2.58432
2.59069
2.59806
2.60533
2.61191
2.6162
2.61794
2.61894
2.5827
2.57618
2.57404
2.57284
2.57462
2.5783
2.58346
2.58952
2.59609
2.60252
2.60808
2.61189
2.61256
2.61341
2.58029
2.57578
2.57351
2.57295
2.57444
2.5779
2.5825
2.58785
2.59371
2.59956
2.60467
2.60894
2.60983
2.61049
2.57722
2.57442
2.57269
2.57256
2.57391
2.57717
2.58138
2.58638
2.59188
2.59722
2.60165
2.60573
2.6068
2.60784
2.57214
2.5702
2.56959
2.57008
2.5724
2.57581
2.5802
2.58513
2.59039
2.59552
2.59971
2.60372
2.60509
2.60665
2.56702
2.56614
2.56729
2.5682
2.57184
2.57541
2.57983
2.58458
2.58948
2.59443
2.59843
2.60237
2.60367
2.60635
2.56128
2.56097
2.56342
2.56599
2.57034
2.57443
2.57913
2.58409
2.58891
2.59385
2.59766
2.60161
2.6035
2.60668
2.5591
2.55921
2.56229
2.56584
2.57068
2.57508
2.5797
2.58457
2.58898
2.59371
2.59717
2.60138
2.60382
2.60681
2.55688
2.55637
2.56072
2.56527
2.57106
2.57611
2.58079
2.58559
2.58963
2.59412
2.59717
2.60164
2.60383
2.60771
2.55949
2.55805
2.56228
2.56756
2.57351
2.57857
2.5829
2.5872
2.59063
2.59454
2.59682
2.60115
2.60279
2.60775
2.55831
2.55913
2.56375
2.5696
2.57586
2.58124
2.58517
2.5885
2.59092
2.59417
2.59619
2.60054
2.60231
2.60758
2.56269
2.56621
2.57126
2.5765
2.5813
2.58542
2.5886
2.59127
2.59232
2.59485
2.59627
2.59965
2.60052
2.60557
2.59103
2.58582
2.5865
2.58589
2.58967
2.59415
2.60106
2.60836
2.61635
2.62386
2.63078
2.63624
2.63919
2.64067
2.59504
2.58813
2.58813
2.58767
2.5911
2.59517
2.60122
2.6079
2.61496
2.62148
2.62756
2.63201
2.6333
2.63517
2.59837
2.59224
2.59133
2.59034
2.59239
2.59558
2.60026
2.60522
2.61159
2.61817
2.62398
2.62893
2.63071
2.63306
2.59943
2.59419
2.59214
2.59096
2.59209
2.595
2.59914
2.60413
2.6098
2.61559
2.62069
2.6252
2.62646
2.62848
2.59646
2.59282
2.59067
2.58997
2.59095
2.59388
2.5977
2.60224
2.60741
2.61284
2.61767
2.62244
2.62402
2.62569
2.59433
2.59163
2.58973
2.58933
2.59019
2.59293
2.59642
2.60071
2.60562
2.61062
2.61501
2.61942
2.62132
2.6228
2.58941
2.58772
2.58679
2.5869
2.58856
2.59134
2.59503
2.59931
2.60407
2.60888
2.61312
2.61726
2.61937
2.62103
2.58478
2.58434
2.58477
2.58517
2.58803
2.59078
2.59448
2.59862
2.60305
2.60762
2.61162
2.61557
2.61763
2.62029
2.57943
2.57971
2.58142
2.58315
2.58663
2.58975
2.59367
2.59802
2.6024
2.60689
2.6106
2.61437
2.61651
2.61967
2.57667
2.57746
2.58053
2.58307
2.58691
2.59023
2.59405
2.59832
2.60229
2.60655
2.60983
2.61359
2.61596
2.61891
2.57341
2.57419
2.57874
2.58253
2.58717
2.59111
2.59497
2.59918
2.6027
2.60671
2.60955
2.61344
2.61549
2.61885
2.57398
2.57473
2.5797
2.58444
2.58917
2.59321
2.59679
2.60069
2.60368
2.60723
2.60937
2.61313
2.61448
2.61875
2.57154
2.57501
2.58039
2.58619
2.59131
2.59571
2.599
2.60229
2.60461
2.60732
2.60891
2.61239
2.61357
2.61856
2.5752
2.57986
2.58635
2.59198
2.59596
2.59956
2.60236
2.60487
2.60625
2.60805
2.60937
2.61198
2.61249
2.61671
2.60874
2.60414
2.60443
2.60407
2.60733
2.61105
2.61652
2.62209
2.62856
2.63486
2.64046
2.64586
2.64816
2.65062
2.61281
2.6068
2.60695
2.60628
2.60862
2.6117
2.61633
2.62149
2.62725
2.63279
2.63784
2.64241
2.64357
2.64619
2.61528
2.61013
2.60911
2.60795
2.6092
2.61166
2.61528
2.61922
2.62437
2.62992
2.63479
2.63969
2.64149
2.64466
2.61512
2.61091
2.60898
2.60787
2.6086
2.6108
2.61401
2.61794
2.62264
2.6276
2.63199
2.63651
2.63811
2.64077
2.61246
2.60936
2.60739
2.60656
2.60714
2.60937
2.61239
2.61605
2.62042
2.62512
2.62938
2.63401
2.636
2.638
2.61031
2.60782
2.60607
2.60555
2.6061
2.60824
2.61106
2.61459
2.61874
2.62308
2.62705
2.63125
2.63356
2.63534
2.60597
2.6044
2.60338
2.60326
2.60443
2.60657
2.60957
2.61314
2.61721
2.62141
2.62528
2.62921
2.63162
2.63366
2.60196
2.60138
2.60134
2.60157
2.6037
2.60585
2.60888
2.61234
2.61614
2.62013
2.62375
2.62739
2.62965
2.63241
2.59709
2.59737
2.59843
2.59969
2.60233
2.60479
2.60801
2.61165
2.61533
2.6192
2.62252
2.62593
2.62821
2.63117
2.59395
2.59535
2.59769
2.59958
2.60247
2.60503
2.60816
2.61168
2.61501
2.61863
2.62151
2.62482
2.62707
2.62992
2.59008
2.5924
2.59612
2.59893
2.60248
2.60556
2.60871
2.61216
2.61505
2.61845
2.62095
2.62426
2.62611
2.62923
2.58977
2.59203
2.59677
2.60035
2.60397
2.60715
2.6101
2.61336
2.61578
2.61885
2.62078
2.62393
2.62512
2.62883
2.58794
2.59162
2.59716
2.60183
2.60584
2.60931
2.612
2.61488
2.61685
2.61923
2.62053
2.62324
2.62392
2.62823
2.59042
2.59668
2.60191
2.60679
2.60975
2.61273
2.61496
2.6172
2.61848
2.62008
2.62126
2.62334
2.62339
2.62669
2.62592
2.6217
2.62158
2.62105
2.62319
2.62602
2.62999
2.63434
2.63938
2.6445
2.64898
2.65389
2.65591
2.65885
2.62898
2.62379
2.62352
2.62252
2.62384
2.62616
2.62966
2.63354
2.63809
2.64273
2.64685
2.65112
2.65233
2.65511
2.63002
2.62556
2.62438
2.62318
2.62384
2.62572
2.62849
2.63156
2.6358
2.64035
2.64436
2.64882
2.65062
2.65385
2.62886
2.62533
2.62347
2.62245
2.62283
2.62451
2.62711
2.6302
2.63413
2.63829
2.64204
2.6462
2.64799
2.65059
2.62668
2.624
2.62214
2.62129
2.62158
2.62316
2.62555
2.62847
2.63211
2.63608
2.63978
2.64396
2.64616
2.64823
2.62409
2.62182
2.62031
2.61975
2.62016
2.62179
2.62411
2.627
2.63046
2.63419
2.6377
2.64151
2.64393
2.64589
2.62058
2.61904
2.61803
2.61782
2.61862
2.62026
2.62266
2.62558
2.62896
2.63257
2.63599
2.63955
2.64204
2.64423
2.61698
2.61623
2.61596
2.61618
2.61771
2.61939
2.62183
2.6247
2.62789
2.63127
2.63444
2.63768
2.63995
2.6426
2.61272
2.61283
2.61346
2.61443
2.6164
2.61841
2.621
2.62397
2.62703
2.63025
2.63313
2.63612
2.63832
2.64106
2.60995
2.61105
2.6128
2.61426
2.61637
2.61845
2.62095
2.62381
2.62658
2.62955
2.63201
2.63484
2.63692
2.63953
2.60667
2.60885
2.61154
2.61361
2.61625
2.6187
2.62128
2.62408
2.62642
2.6292
2.6313
2.63404
2.63573
2.63851
2.60578
2.60853
2.61219
2.61469
2.61738
2.61989
2.62234
2.62504
2.62697
2.62947
2.63109
2.63367
2.63469
2.63801
2.60503
2.60814
2.61262
2.61593
2.61903
2.6217
2.62393
2.62638
2.6279
2.62983
2.63086
2.63296
2.63331
2.63713
2.60749
2.61248
2.61662
2.6199
2.62227
2.62458
2.6264
2.62831
2.62931
2.63057
2.63149
2.63308
2.63297
2.63586
2.64136
2.63745
2.63733
2.63661
2.63784
2.64006
2.64307
2.6464
2.65024
2.6541
2.65746
2.66153
2.66317
2.66599
2.64323
2.63877
2.63829
2.6373
2.63806
2.63982
2.64251
2.64526
2.64891
2.65259
2.65582
2.65933
2.66049
2.66291
2.64336
2.63957
2.63841
2.63734
2.63772
2.63914
2.64145
2.64387
2.6472
2.65073
2.65391
2.65752
2.65908
2.66184
2.64179
2.63889
2.63723
2.63632
2.63652
2.63783
2.64001
2.64249
2.64568
2.64904
2.65211
2.65549
2.65706
2.65928
2.64003
2.63764
2.63601
2.63526
2.63545
2.63669
2.63865
2.64102
2.64398
2.6472
2.65025
2.65367
2.65555
2.6574
2.63732
2.63541
2.63413
2.63365
2.63396
2.63525
2.63715
2.63953
2.6424
2.6455
2.64843
2.65159
2.65371
2.65542
2.63455
2.63313
2.63213
2.63197
2.63256
2.63386
2.63579
2.63818
2.64098
2.64397
2.64682
2.64977
2.65196
2.65382
2.63145
2.63071
2.63023
2.63053
2.63163
2.63296
2.63493
2.63726
2.6399
2.64268
2.64532
2.64796
2.64997
2.65208
2.62797
2.62792
2.62818
2.62895
2.63042
2.63204
2.63414
2.63653
2.63905
2.64166
2.64402
2.64641
2.64829
2.65047
2.62556
2.62633
2.62757
2.62863
2.63027
2.63196
2.63401
2.63632
2.63859
2.64095
2.64293
2.64514
2.64682
2.64895
2.62303
2.62445
2.62643
2.62799
2.63005
2.63208
2.63421
2.63645
2.63839
2.64057
2.64218
2.64428
2.64559
2.64783
2.62199
2.62417
2.62693
2.6288
2.63092
2.63299
2.63507
2.6372
2.63876
2.64068
2.64185
2.64383
2.64459
2.64725
2.62146
2.62385
2.62726
2.62975
2.63222
2.63439
2.63631
2.63825
2.63939
2.64083
2.64152
2.64313
2.64331
2.64636
2.62382
2.62748
2.63049
2.63282
2.63479
2.63665
2.63817
2.63966
2.64034
2.64126
2.64187
2.64307
2.643
2.64534
2.4536
2.4597
2.46692
2.47834
2.50611
2.55057
2.4407
2.44328
2.44986
2.46068
2.48159
2.51858
2.44565
2.44419
2.44364
2.4488
2.46289
2.48979
2.44027
2.43618
2.43595
2.44366
2.45698
2.48059
2.44611
2.44051
2.43993
2.4464
2.45697
2.47564
2.45448
2.44926
2.45036
2.4555
2.46526
2.48119
2.46747
2.4634
2.46416
2.46579
2.47442
2.48874
2.47899
2.47739
2.47845
2.47677
2.48598
2.49954
2.48857
2.48737
2.48625
2.48378
2.49462
2.51095
2.49584
2.49523
2.4905
2.48597
2.49545
2.51951
2.49664
2.49358
2.48579
2.48172
2.49395
2.52598
2.49015
2.48472
2.47652
2.47403
2.49152
2.53435
2.4801
2.47314
2.46815
2.47186
2.49738
2.54533
2.45997
2.4571
2.45914
2.4706
2.5023
2.55438
2.51186
2.52616
2.53657
2.54834
2.5681
2.59197
2.49235
2.49719
2.50254
2.51246
2.5299
2.55143
2.49153
2.49012
2.48545
2.48784
2.49978
2.51876
2.48146
2.47639
2.46984
2.47295
2.48506
2.50234
2.48492
2.47769
2.47045
2.47159
2.48212
2.4952
2.49233
2.48528
2.48021
2.48148
2.49287
2.50246
2.5052
2.50045
2.49906
2.50035
2.51168
2.51783
2.51728
2.51584
2.51843
2.52155
2.5337
2.53894
2.52954
2.53108
2.5345
2.53939
2.5545
2.56298
2.53943
2.54384
2.54742
2.55414
2.57047
2.58207
2.54525
2.54904
2.55284
2.56181
2.58093
2.59852
2.54427
2.54836
2.55393
2.56662
2.58974
2.6138
2.54088
2.54514
2.55474
2.57332
2.60095
2.62968
2.52693
2.53731
2.55304
2.57588
2.60531
2.63534
2.55914
2.58162
2.5937
2.60234
2.61037
2.62165
2.54101
2.55325
2.56023
2.56549
2.57141
2.58185
2.53774
2.5422
2.5406
2.53813
2.53886
2.54742
2.52645
2.52644
2.5205
2.51732
2.51927
2.52906
2.52746
2.52487
2.51656
2.51193
2.51302
2.52149
2.53171
2.5291
2.52207
2.51905
2.52157
2.5304
2.54237
2.54066
2.53814
2.53786
2.54104
2.54955
2.5533
2.55358
2.55467
2.55934
2.56583
2.57518
2.56552
2.56972
2.57396
2.58118
2.59021
2.6015
2.57664
2.58445
2.59109
2.60066
2.61177
2.62521
2.58557
2.59448
2.60141
2.61241
2.6256
2.64194
2.58831
2.59692
2.60526
2.61845
2.63388
2.65281
2.5892
2.59651
2.60669
2.62285
2.64081
2.66187
2.57997
2.59026
2.60491
2.62445
2.64392
2.66411
2.57529
2.60116
2.61534
2.62809
2.63357
2.63738
2.5587
2.5765
2.58756
2.59472
2.59516
2.59572
2.55657
2.5671
2.57031
2.57146
2.5659
2.56173
2.54947
2.55442
2.55356
2.55211
2.54565
2.54317
2.55063
2.55241
2.55043
2.54691
2.54044
2.53824
2.55494
2.55526
2.55412
2.55102
2.54744
2.54692
2.56536
2.5663
2.56663
2.56609
2.5661
2.56655
2.57673
2.57905
2.58146
2.58397
2.58816
2.59149
2.58886
2.594
2.59892
2.60512
2.61205
2.61804
2.59986
2.60799
2.61502
2.62406
2.63334
2.64208
2.60912
2.6184
2.62646
2.63741
2.64811
2.65926
2.61301
2.62281
2.63099
2.64286
2.65426
2.66725