/*--------------------------------*- C++ -*----------------------------------*\
| =========                 |                                                 |
| \\      /  F ield         | OpenFOAM: The Open Source CFD Toolbox           |
|  \\    /   O peration     | Version:  v2106                                 |
|   \\  /    A nd           | Website:  www.openfoam.com                      |
|    \\/     M anipulation  |                                                 |
\*---------------------------------------------------------------------------*/
FoamFile
{
    version     2.0;
    format      ascii;
    arch        "LSB;label=32;scalar=64";
    class       volScalarField;
    location    "0.000198";
    object      p;
}
// * * * * * * * * * * * * * * * * * * * * * * * * * * * * * * * * * * * * * //

dimensions      [1 -1 -2 0 0 0 0];

internalField   nonuniform List<scalar> 
144746
(
195531
195680
195373
195220
195105
194918
194730
194456
194111
193813
193555
193723
193684
194461
195125
195348
195295
195285
195215
195115
194921
194698
194395
194113
193900
194001
193957
194709
195360
195495
195466
195461
195393
195333
195142
194963
194714
194438
194192
194113
194007
194407
195498
195617
195648
195647
195616
195527
195394
195235
195024
194782
194555
194424
194305
194471
195831
195900
195907
195894
195818
195746
195639
195496
195304
195076
194850
194690
194576
194616
196231
196248
196204
196122
196054
195986
195891
195752
195559
195335
195123
194951
194850
194792
196600
196584
196496
196386
196302
196222
196122
195986
195792
195579
195353
195163
195044
194927
196977
196882
196745
196611
196516
196436
196348
196220
196030
195811
195599
195372
195208
195048
197164
197056
196933
196812
196708
196621
196533
196415
196250
196023
195763
195504
195321
195136
197365
197228
197092
196965
196855
196763
196676
196571
196430
196252
196027
195762
195533
195283
197438
197307
197193
197090
196970
196866
196784
196710
196618
196472
196269
196007
195779
195471
197660
197421
197302
197179
197080
196973
196902
196851
196791
196672
196511
196317
196157
195846
197879
197470
197371
197262
197178
197074
197043
197021
196992
196883
196745
196536
196387
196019
197927
197390
197401
197297
197268
197193
197221
197227
197220
197142
197069
197050
197285
196982
195557
196011
195990
196140
196095
196225
196177
196090
195880
195695
195436
195392
195102
195525
195650
195968
196067
196250
196243
196343
196324
196263
196104
195957
195795
195774
195628
196005
195930
196146
196216
196371
196358
196452
196454
196415
196298
196144
195981
195919
195797
195944
196120
196249
196338
196455
196495
196568
196594
196573
196489
196373
196252
196187
196077
196130
196343
196432
196492
196537
196605
196665
196708
196710
196665
196590
196502
196442
196363
196410
196594
196625
196629
196684
196740
196794
196838
196851
196825
196767
196731
196665
196631
196661
196785
196821
196813
196848
196889
196933
196975
196991
196977
196935
196903
196872
196856
196861
196954
196997
196974
196991
197024
197059
197097
197109
197099
197073
197060
196986
196952
196952
197079
197129
197113
197116
197140
197166
197205
197224
197210
197193
197185
197111
197056
196989
197191
197222
197235
197241
197265
197285
197312
197329
197321
197311
197299
197201
197125
197005
197304
197325
197347
197368
197393
197418
197437
197448
197435
197436
197430
197339
197245
197053
197478
197449
197471
197492
197537
197571
197593
197585
197573
197591
197574
197486
197399
197192
197671
197574
197625
197657
197702
197743
197770
197773
197754
197747
197705
197587
197490
197196
197787
197654
197774
197837
197915
197993
198019
198022
197975
197918
197879
197884
197969
197873
194809
195585
195800
195898
196026
196056
196025
195901
195705
195459
195174
194953
194681
194812
195430
195908
196229
196327
196443
196443
196402
196287
196114
195935
195793
195696
195534
195704
195986
196341
196581
196677
196763
196751
196705
196611
196496
196373
196219
196105
195930
195954
196474
196718
196904
197003
197067
197052
197007
196921
196815
196697
196585
196492
196334
196275
196904
197063
197219
197289
197338
197323
197286
197210
197117
197007
196882
196792
196693
196649
197282
197396
197535
197597
197633
197610
197562
197484
197390
197290
197181
197099
197024
197046
197623
197738
197844
197895
197914
197882
197829
197749
197657
197566
197471
197410
197370
197405
197971
198090
198168
198202
198205
198164
198102
198020
197931
197847
197769
197719
197711
197757
198278
198401
198463
198484
198483
198446
198387
198311
198230
198152
198086
198043
198052
198081
198588
198713
198773
198788
198783
198752
198702
198639
198570
198499
198447
198400
198401
198389
198863
199000
199075
199100
199099
199087
199058
199017
198965
198893
198840
198783
198754
198682
199152
199277
199394
199437
199462
199464
199452
199424
199374
199304
199250
199200
199126
199002
199494
199615
199728
199791
199833
199859
199864
199860
199818
199767
199710
199603
199491
199182
199647
199859
200059
200149
200229
200296
200318
200307
200246
200199
200172
200160
200151
199869
196042
197181
197318
198006
198076
200062
194130
195242
195864
197240
197728
199804
194383
195338
195925
197314
197871
200078
194493
195159
195697
197035
197660
199870
194724
195273
195850
197172
197881
200039
194840
195253
195790
197018
197900
199731
194951
195360
195886
197163
197968
200019
195035
195374
195828
197059
197866
200256
195097
195431
195975
197305
198043
200421
195226
195605
196192
197527
198235
200530
195558
195969
196489
197789
198452
200562
195889
196271
196804
198073
198687
200651
196450
196943
197406
198518
199049
201152
196053
196675
197513
199112
199738
200705
196776
197698
197569
197943
197572
199285
195331
195934
196190
197168
197246
199119
195767
196288
196516
197591
197645
199725
196057
196384
196583
197601
197661
199849
196452
196763
196981
198044
198163
200313
196696
196968
197190
198120
198261
200082
196875
197179
197377
198288
198388
200303
196959
197240
197376
198183
198172
200263
196970
197199
197309
198136
198125
200354
196956
197064
197164
198004
198025
200223
197014
197072
197212
197962
198108
200034
197137
197135
197247
197951
198213
199964
197296
197388
197513
198136
198426
200306
196443
196656
196969
198298
198835
200003
196003
196312
196195
195828
195396
195805
194943
194958
194770
195203
195097
196188
195523
195456
195332
195981
196062
197773
196078
195964
195951
196582
196619
198317
196628
196604
196723
197481
197665
200283
197097
197201
197401
198165
198500
200699
197501
197722
197986
198778
199151
201479
197861
198110
198372
199083
199425
201659
198182
198416
198653
199265
199534
202052
198443
198610
198783
199349
199593
202023
198699
198806
198978
199484
199791
201777
199074
199076
199202
199590
199897
201420
199517
199361
199544
199936
200191
201411
198844
198842
198930
199512
200160
201425
198198
199257
199275
199940
200153
201186
196533
197620
197928
199131
199247
201222
196947
197834
198075
199299
199277
201772
197133
197716
197925
199036
199124
201444
197339
197823
198082
199134
199292
201454
197419
197814
198052
199014
199188
201037
197414
197739
197950
198914
199101
201021
197338
197619
197807
198678
198815
200710
197310
197568
197763
198598
198778
200782
197304
197487
197689
198473
198810
200675
197399
197618
197870
198524
198865
200603
197502
197658
197875
198389
198674
200927
197740
197971
198214
198802
199078
200140
197266
197461
197869
198783
199250
199932
198864
199486
199357
199824
199708
200433
197426
198024
197939
198771
198614
200386
197725
198125
198062
198997
198749
200949
197889
198155
198103
198846
198794
200519
198058
198326
198417
199165
199130
200802
198181
198508
198616
199267
199257
200496
198269
198557
198660
199394
199354
200822
198220
198580
198800
199589
199790
200371
198223
198588
198893
199567
199681
200401
198149
198462
198786
199314
199407
200354
198095
198383
198719
199102
199242
200071
198032
198253
198521
198813
199018
199637
198007
198094
198292
198562
198811
199529
197326
197252
197412
197850
198277
198888
200958
201495
201512
201675
201399
201800
199991
200409
200339
200863
200783
202031
200197
200542
200469
201187
201214
202762
200351
200719
200773
201529
201677
202555
200562
200933
201116
201776
201935
202820
200668
201162
201419
202042
202211
203098
200784
201266
201596
202188
202360
203024
200817
201357
201693
202236
202398
202882
200783
201319
201664
202120
202342
202589
200692
201152
201480
201751
201849
201852
200587
200921
201203
201248
201180
200808
200454
200617
200775
200640
200361
199647
200346
200177
200182
199889
199587
198667
199534
199128
198918
198429
198302
197192
198343
197447
196949
195924
195303
194937
198498
197248
196847
196190
195849
195675
198263
196784
196452
195830
195543
195481
199359
196533
196405
195901
195656
195596
198957
196894
196591
195956
195808
195822
198913
197285
197064
196421
196249
196205
198692
197853
197485
196783
196651
196572
199278
198100
197855
197209
197131
196998
199464
198193
198115
197500
197425
197220
199806
198451
198363
197701
197663
197450
199804
198487
198500
197866
197809
197518
200374
198755
198821
198154
198126
197676
200296
198627
198868
198211
198175
197519
200853
199812
199763
199305
199340
198605
196617
195789
195251
194583
194418
194911
197000
196133
195936
195637
195586
196019
196848
196084
195900
195736
195734
196036
197409
196449
196260
196060
196000
196208
197397
196471
196337
196245
196202
196349
197499
196813
196694
196549
196472
196575
197503
196943
196794
196662
196646
196747
197792
197124
196900
196757
196795
196909
198049
197317
197092
196872
196910
197015
198361
197598
197329
197008
197074
197126
198412
197665
197502
197165
197233
197212
198848
198046
197873
197437
197487
197349
198898
198125
198050
197585
197636
197371
199365
198841
198836
198673
198672
198240
187975
190325
190346
191273
192038
193619
188682
191375
192038
193381
194081
195397
189187
191829
192573
194019
194701
195811
190388
192598
193377
194708
195296
196269
191584
193405
194153
195328
195866
196633
192786
194321
194995
195951
196444
197043
193832
195086
195674
196509
196987
197401
194582
195710
196218
197014
197444
197769
195073
196201
196601
197408
197807
198096
195400
196588
196915
197730
198154
198403
195504
196837
197210
197991
198449
198652
195857
197277
197677
198381
198786
198974
196235
197642
197991
198711
199118
199216
197055
198435
199091
199734
199937
199954
199235
198078
197389
195967
194884
194145
198910
197747
196987
195778
195044
194476
199270
197148
196365
195124
194373
193949
199061
196912
196180
194926
194221
193737
198945
196657
195952
194706
194034
193783
198898
196618
195845
194740
194263
194028
198596
196672
195950
194956
194546
194345
198669
196703
196135
195176
194850
194637
198460
196698
196358
195384
195112
194866
198772
197016
196632
195551
195312
195007
198650
196876
196703
195601
195502
195173
199156
197065
196959
195980
195818
195253
199123
196855
196921
195979
195804
195145
199229
198051
198030
197411
197304
196529
198252
197029
196456
195050
194509
194420
198453
196494
196302
195616
195420
195534
198250
196219
195877
195242
195154
195390
198201
196155
195948
195317
195201
195370
198262
196099
195992
195406
195367
195559
198221
196319
196220
195728
195664
195755
197882
196570
196431
195981
195909
195968
197686
196723
196627
196134
196062
196067
197771
196779
196634
196058
196078
196103
197867
196529
196418
195843
195929
195959
197514
196192
196183
195620
195783
195953
197591
196365
196252
195669
195702
195737
197406
196125
196150
195536
195512
195460
197358
196675
196724
196701
196749
196284
193628
193820
192672
192140
192099
193044
193407
193841
193176
193427
193675
194652
192751
193320
192834
193242
193617
194630
193044
193297
193114
193473
193857
194759
193450
193390
193341
193766
194202
195003
193568
193915
193859
194246
194614
195262
193449
194190
194012
194494
194867
195463
193357
194058
193926
194547
195005
195589
192850
193587
193577
194346
194917
195578
192115
192978
193113
194032
194716
195477
190960
192190
192577
193638
194438
195281
190245
191776
192296
193442
194221
195011
189146
191223
191855
193164
193969
194654
188767
191201
192298
193920
194505
195087
197735
197932
197835
197711
197596
197378
197188
196946
196693
196381
196017
195650
195282
195270
197990
198061
198019
197948
197823
197647
197460
197226
196986
196708
196417
196149
195961
195999
198248
198245
198212
198148
198037
197884
197706
197495
197271
197025
196775
196554
196350
196301
198458
198434
198406
198331
198234
198092
197918
197720
197509
197286
197073
196880
196717
196625
198683
198648
198611
198531
198433
198298
198134
197951
197756
197550
197358
197182
197020
196911
198934
198889
198839
198751
198647
198513
198353
198177
197995
197806
197632
197477
197339
197243
199200
199147
199086
198992
198882
198744
198586
198415
198244
198071
197913
197772
197658
197588
199506
199439
199364
199260
199140
198997
198840
198675
198516
198358
198216
198081
197987
197935
199811
199734
199649
199542
199421
199282
199134
198982
198835
198688
198556
198422
198345
198294
200209
200110
200000
199880
199753
199619
199483
199344
199209
199069
198942
198810
198739
198667
200603
200497
200383
200262
200138
200017
199896
199771
199644
199511
199388
199242
199170
199044
201166
201013
200875
200746
200612
200498
200383
200263
200129
199984
199850
199692
199626
199468
201627
201544
201396
201271
201133
201017
200898
200773
200626
200465
200306
200150
200078
199914
202360
202219
202071
201932
201777
201636
201501
201353
201184
201010
200845
200718
200659
200426
199033
198888
198711
198467
198290
198032
197766
197467
197162
196823
196441
196068
195696
195503
199157
198972
198814
198610
198444
198226
197990
197718
197426
197116
196794
196486
196186
196028
199328
199113
198958
198767
198601
198405
198190
197951
197694
197419
197135
196841
196545
196384
199519
199289
199128
198942
198774
198589
198388
198170
197935
197686
197434
197172
196871
196660
199703
199486
199327
199146
198971
198784
198586
198381
198166
197940
197704
197459
197182
196963
199914
199715
199556
199376
199193
199002
198806
198608
198406
198195
197969
197740
197477
197245
200139
199959
199802
199623
199437
199244
199050
198856
198659
198456
198236
198016
197776
197556
200414
200242
200077
199897
199711
199518
199328
199137
198943
198744
198529
198314
198092
197889
200730
200559
200385
200206
200023
199836
199653
199467
199276
199077
198867
198656
198452
198263
201148
200958
200765
200580
200398
200217
200041
199859
199670
199470
199262
199052
198861
198671
201621
201423
201217
201029
200846
200671
200497
200315
200126
199925
199722
199502
199322
199113
202245
202013
201775
201575
201382
201206
201030
200846
200651
200440
200233
199994
199824
199590
202817
202637
202399
202196
201991
201798
201604
201404
201191
200967
200753
200503
200346
200083
203673
203451
203168
202919
202674
202451
202236
202021
201788
201552
201313
201089
200902
200627
200950
200480
200182
199785
199460
199111
198745
198371
198002
197630
197237
196806
196351
196017
200989
200530
200185
199822
199508
199192
198863
198526
198181
197822
197449
197082
196703
196389
201030
200598
200256
199910
199600
199300
198998
198697
198384
198054
197701
197340
196950
196687
201108
200714
200383
200045
199733
199439
199153
198876
198587
198277
197940
197591
197224
196899
201203
200849
200533
200209
199900
199610
199335
199071
198798
198505
198178
197841
197481
197166
201306
200991
200695
200387
200086
199803
199535
199280
199016
198734
198414
198085
197728
197413
201449
201160
200874
200578
200290
200017
199759
199510
199249
198971
198656
198333
197983
197669
201652
201368
201083
200799
200523
200263
200014
199770
199510
199231
198919
198598
198261
197948
201926
201638
201348
201073
200810
200560
200318
200074
199814
199532
199223
198904
198585
198285
202304
201996
201692
201421
201166
200923
200685
200440
200178
199891
199584
199264
198964
198677
202780
202468
202154
201878
201618
201370
201123
200869
200602
200311
200010
199691
199416
199126
203384
203046
202706
202418
202150
201895
201640
201376
201100
200800
200500
200175
199909
199609
204063
203732
203383
203074
202777
202490
202204
201914
201619
201308
201006
200683
200426
200125
204854
204496
204095
203747
203418
203106
202800
202495
202182
201861
201541
201224
200956
200646
202198
201728
201244
200768
200333
199904
199495
199097
198703
198301
197866
197414
196941
196524
202281
201780
201280
200809
200380
199968
199576
199201
198822
198440
198031
197610
197179
196792
202236
201786
201318
200866
200443
200045
199672
199323
198972
198614
198225
197823
197394
197047
202240
201816
201382
200946
200535
200150
199797
199470
199143
198803
198429
198033
197614
197255
202249
201852
201449
201035
200641
200275
199941
199632
199324
199001
198638
198252
197842
197480
202274
201897
201518
201130
200762
200422
200110
199817
199522
199208
198851
198471
198063
197691
202358
201983
201616
201249
200907
200593
200304
200025
199737
199426
199069
198690
198280
197904
202512
202131
201765
201416
201096
200804
200532
200263
199976
199660
199300
198916
198509
198120
202758
202367
201996
201659
201353
201073
200808
200538
200246
199921
199555
199166
198763
198373
203103
202702
202324
201996
201699
201424
201155
200874
200568
200229
199854
199459
199061
198672
203575
203179
202792
202460
202153
201862
201572
201269
200945
200592
200212
199812
199426
199039
204140
203741
203341
203003
202686
202381
202071
201746
201399
201026
200638
200230
199856
199464
204817
204430
204011
203643
203291
202948
202603
202246
201877
201492
201094
200701
200331
199953
205502
205101
204642
204251
203877
203515
203153
202780
202395
201995
201595
201209
200845
200462
203341
202831
202310
201795
201296
200814
200345
199900
199468
199052
198601
198143
197673
197188
203339
202860
202351
201844
201351
200877
200422
199994
199574
199165
198740
198301
197840
197430
203253
202811
202332
201853
201384
200934
200502
200096
199700
199307
198896
198461
198007
197586
203198
202787
202344
201887
201434
201000
200590
200207
199833
199455
199054
198627
198182
197761
203153
202745
202324
201891
201469
201063
200681
200321
199968
199608
199216
198800
198352
197953
203145
202728
202320
201911
201518
201142
200788
200451
200116
199768
199382
198973
198534
198142
203200
202769
202362
201968
201599
201252
200926
200610
200285
199942
199560
199151
198718
198313
203321
202884
202471
202088
201737
201414
201110
200805
200483
200136
199749
199334
198902
198481
203533
203098
202681
202305
201965
201650
201350
201042
200712
200353
199955
199533
199096
198668
203835
203406
202992
202628
202293
201975
201664
201337
200986
200607
200192
199761
199317
198890
204256
203841
203428
203066
202722
202382
202040
201682
201305
200905
200477
200043
199598
199162
204749
204343
203929
203565
203212
202852
202484
202097
201692
201269
200828
200380
199945
199498
205341
204950
204519
204127
203741
203345
202942
202524
202099
201664
201220
200779
200356
199892
205924
205501
205044
204636
204232
203819
203406
202980
202545
202100
201659
201231
200786
200328
204235
203809
203352
202889
202399
201885
201363
200836
200329
199838
199356
198860
198403
197943
204170
203804
203369
202910
202426
201923
201404
200897
200403
199929
199462
198991
198550
198128
204062
203687
203282
202846
202387
201914
201429
200949
200478
200024
199568
199109
198650
198211
203998
203616
203219
202798
202354
201896
201431
200978
200534
200102
199661
199214
198759
198323
203931
203523
203119
202705
202283
201855
201424
201000
200582
200173
199749
199318
198869
198456
203909
203474
203060
202651
202244
201837
201433
201036
200642
200252
199846
199429
198995
198587
203945
203492
203067
202656
202262
201874
201492
201117
200741
200362
199966
199557
199135
198729
204044
203589
203157
202748
202360
201987
201622
201259
200890
200511
200114
199706
199288
198878
204230
203782
203350
202946
202561
202189
201826
201458
201083
200695
200292
199880
199460
199038
204499
204068
203644
203249
202866
202484
202105
201717
201323
200917
200498
200078
199649
199218
204864
204449
204029
203637
203245
202839
202430
202012
201596
201171
200740
200311
199879
199430
205273
204862
204445
204056
203656
203233
202802
202358
201920
201476
201037
200597
200158
199683
205761
205351
204914
204496
204073
203626
203174
202711
202261
201812
201374
200927
200498
199995
206219
205755
205304
204875
204445
203994
203546
203091
202644
202195
201754
201317
200859
200347
204941
204617
204253
203867
203440
202956
202419
201851
201289
200743
200215
199694
199209
198786
204876
204567
204219
203840
203415
202933
202396
201842
201290
200769
200269
199799
199317
198876
204761
204423
204078
203708
203294
202835
202329
201803
201281
200788
200316
199855
199403
198971
204702
204328
203960
203582
203170
202721
202233
201734
201241
200773
200320
199878
199437
199025
204629
204215
203823
203434
203026
202593
202127
201653
201187
200745
200312
199884
199461
199061
204615
204174
203755
203344
202928
202495
202043
201592
201151
200729
200314
199904
199498
199110
204663
204204
203767
203335
202907
202472
202029
201591
201166
200756
200352
199953
199558
199180
204766
204305
203864
203427
202991
202555
202115
201679
201254
200844
200445
200050
199664
199276
204948
204497
204053
203615
203173
202727
202281
201840
201409
200992
200587
200194
199807
199420
205206
204771
204329
203887
203437
202976
202518
202063
201622
201193
200780
200381
199986
199587
205539
205111
204663
204208
203745
203264
202786
202315
201865
201428
201011
200606
200202
199785
205871
205440
204991
204531
204057
203565
203080
202601
202147
201707
201287
200875
200463
200002
206236
205785
205309
204830
204350
203854
203368
202888
202439
202006
201595
201178
200763
200256
206492
205991
205520
205052
204592
204117
203656
203203
202772
202348
201938
201508
201075
200545
205536
205234
204924
204586
204213
203781
203292
202750
202188
201636
201101
200560
200048
199534
205463
205134
204822
204491
204125
203700
203205
202675
202129
201597
201088
200597
200124
199657
205352
204989
204653
204319
203956
203548
203081
202575
202053
201550
201071
200617
200170
199751
205275
204877
204516
204164
203795
203389
202931
202442
201943
201464
201004
200568
200139
199736
205200
204778
204393
204023
203644
203234
202778
202298
201815
201356
200912
200487
200075
199693
205196
204761
204354
203954
203547
203118
202658
202182
201712
201266
200836
200423
200025
199659
205262
204817
204393
203970
203524
203068
202599
202126
201663
201224
200802
200398
200005
199642
205388
204943
204503
204049
203587
203111
202625
202144
201677
201236
200816
200414
200032
199655
205586
205142
204689
204219
203735
203239
202737
202243
201767
201319
200896
200494
200111
199740
205827
205386
204926
204442
203941
203426
202912
202410
201930
201477
201051
200644
200256
199874
206108
205657
205180
204679
204167
203640
203120
202618
202141
201689
201262
200852
200452
200052
206373
205903
205412
204901
204384
203858
203348
202857
202392
201947
201524
201108
200695
200257
206589
206100
205598
205079
204570
204061
203571
203099
202652
202222
201810
201398
200979
200496
206585
206097
205629
205159
204703
204245
203801
203370
202955
202543
202137
201702
201267
200724
206162
205814
205489
205146
204792
204397
203960
203476
202964
202446
201926
201380
200855
200230
206051
205674
205350
205017
204673
204292
203856
203382
202887
202388
201892
201389
200882
200401
205920
205526
205177
204843
204504
204139
203729
203281
202805
202331
201862
201403
200933
200490
205806
205402
205045
204704
204359
203995
203589
203152
202694
202238
201785
201345
200897
200470
205732
205321
204950
204593
204235
203857
203445
203008
202555
202110
201669
201238
200807
200403
205741
205321
204927
204539
204153
203748
203320
202876
202424
201983
201546
201119
200700
200310
205816
205386
204969
204557
204127
203688
203236
202779
202323
201881
201444
201019
200604
200224
205962
205523
205076
204611
204142
203677
203205
202737
202277
201831
201391
200966
200556
200167
206144
205691
205219
204734
204238
203734
203237
202755
202289
201840
201397
200967
200552
200153
206332
205878
205391
204885
204364
203844
203334
202842
202370
201913
201464
201027
200609
200204
206506
206040
205547
205034
204509
203985
203474
202984
202515
202058
201609
201163
200733
200313
206639
206160
205673
205168
204655
204142
203644
203171
202714
202265
201818
201367
200918
200461
206724
206239
205768
205275
204786
204297
203823
203374
202932
202494
202053
201603
201152
200658
206598
206146
205729
205290
204860
204435
204017
203614
203201
202778
202341
201873
201394
200832
198398
198936
199249
199449
200664
202158
197447
197405
197152
197376
198783
200723
197475
197166
196745
196707
197740
199668
197326
196832
196188
195847
196652
198281
197169
196595
195882
195395
196056
197299
196922
196323
195610
195042
195566
196436
196744
196162
195533
194984
195375
195956
196516
195952
195436
194956
195235
195544
196266
195674
195282
194860
195089
195289
195938
195236
194872
194498
194803
195239
195586
194797
194427
194065
194553
195443
195293
194383
193965
193621
194339
195427
195195
194262
193876
193648
194616
195412
193800
192780
192470
192662
194082
194989
199724
200402
201031
201497
202009
203064
198785
199082
199281
199874
200754
202054
198683
198800
198911
199317
200022
201253
198367
198340
198245
198399
198831
199866
198128
197944
197666
197589
197773
198540
197797
197471
197053
196806
196803
197349
197492
197085
196650
196363
196311
196790
197155
196715
196334
196063
196023
196557
196834
196374
196099
195858
195864
196415
196482
195961
195765
195497
195594
196251
196134
195513
195299
194957
195081
195737
195765
195041
194705
194295
194391
194999
195588
194817
194412
194057
194248
194824
194404
193509
193092
192942
193481
194392
201477
202212
202943
203662
204215
204997
200606
201047
201437
202081
202993
204096
200342
200761
201149
201714
202367
203350
199857
200199
200421
200809
201210
201900
199470
199695
199692
199836
199913
200325
199004
199075
198819
198727
198545
198779
198554
198482
198080
197896
197679
197877
198135
197934
197536
197351
197201
197380
197761
197472
197201
197058
197045
197249
197389
197034
196891
196758
196873
197151
197017
196593
196520
196296
196458
196776
196603
196058
195896
195537
195601
195930
196312
195647
195419
195075
195155
195445
195233
194463
194129
193916
194095
194596
202657
203218
203775
204466
204989
205617
201907
202349
202735
203349
204071
205011
201477
201922
202401
202992
203573
204380
200931
201301
201716
202193
202649
203217
200457
200731
201001
201271
201452
201730
199929
200064
200121
200151
200015
199997
199421
199431
199278
199131
198830
198707
198931
198828
198539
198304
197953
197784
198487
198286
197983
197740
197481
197365
198080
197781
197540
197282
197150
197111
197678
197309
197154
196883
196903
196979
197220
196760
196612
196269
196255
196309
196856
196305
196130
195766
195763
195834
195965
195338
195016
194746
194753
194977
203709
204129
204591
205222
205707
206252
203031
203479
203842
204403
204972
205758
202558
202964
203378
203929
204462
205146
201962
202317
202716
203247
203738
204343
201421
201712
202057
202490
202803
203211
200866
201042
201274
201509
201576
201669
200326
200374
200449
200429
200280
200133
199790
199720
199594
199378
199091
198778
199285
199120
198851
198572
198241
197935
198830
198581
198274
197970
197641
197329
198406
198089
197820
197527
197315
197146
197975
197562
197332
196984
196839
196794
197583
197073
196877
196538
196495
196486
196738
196117
195789
195466
195426
195507
204541
204894
205304
205824
206315
206812
204015
204393
204740
205235
205730
206407
203571
203884
204225
204689
205182
205786
203030
203290
203608
204047
204527
205124
202493
202712
202986
203381
203751
204260
201920
202071
202271
202561
202780
203094
201342
201390
201482
201604
201643
201702
200754
200674
200626
200531
200391
200251
200178
199990
199790
199512
199324
199030
199632
199347
199060
198753
198442
198057
199125
198820
198510
198186
197886
197613
198703
198325
198012
197660
197344
197150
198323
197845
197584
197283
197144
197059
197580
197015
196722
196409
196309
196290
205220
205497
205841
206269
206694
207144
204831
205144
205452
205908
206375
206967
204487
204752
205056
205481
205924
206449
204046
204270
204535
204914
205351
205876
203567
203747
203965
204293
204677
205127
203022
203145
203297
203558
203834
204158
202430
202477
202551
202697
202817
202985
201799
201743
201705
201674
201628
201644
201169
200993
200840
200635
200457
200290
200546
200284
200008
199662
199426
199065
200005
199646
199307
198918
198657
198322
199484
199111
198764
198345
198000
197685
199100
198657
198314
197958
197732
197524
198435
197901
197577
197239
197039
196907
205766
205977
206223
206550
206878
207256
205440
205710
205977
206377
206795
207310
205170
205419
205710
206121
206558
207059
204805
205048
205313
205696
206130
206616
204397
204619
204840
205153
205532
205968
203913
204087
204251
204503
204808
205172
203370
203468
203576
203744
203940
204148
202765
202771
202785
202814
202866
202994
202141
202032
201934
201811
201748
201710
201507
201271
201066
200780
200562
200361
200925
200602
200261
199863
199582
199351
200329
199937
199583
199151
198804
198525
199866
199447
199082
198667
198411
198162
199264
198732
198391
197987
197775
197568
206359
206565
206745
206922
207054
207259
206009
206257
206504
206801
207083
207450
205736
205987
206283
206650
207012
207419
205382
205643
205942
206354
206776
207198
205004
205258
205516
205881
206278
206658
204559
204776
204984
205291
205642
206044
204067
204211
204360
204587
204853
205131
203520
203575
203637
203738
203857
203999
202952
202906
202862
202811
202798
202772
202361
202180
202022
201815
201660
201406
201786
201513
201236
200863
200521
200244
201158
200765
200407
199975
199586
199282
200639
200203
199831
199392
199033
198731
199999
199452
199092
198635
198309
198055
196240
196329
196354
195736
196014
195431
195466
195348
195193
194924
195696
195405
195834
195556
195412
195142
196063
195674
196260
195960
195874
195639
196358
195655
196693
196473
196449
196277
196866
196027
197095
196994
197064
197011
197489
196443
197507
197521
197722
197801