/*--------------------------------*- C++ -*----------------------------------*\
| =========                 |                                                 |
| \\      /  F ield         | OpenFOAM: The Open Source CFD Toolbox           |
|  \\    /   O peration     | Version:  v2106                                 |
|   \\  /    A nd           | Website:  www.openfoam.com                      |
|    \\/     M anipulation  |                                                 |
\*---------------------------------------------------------------------------*/
FoamFile
{
    version     2.0;
    format      ascii;
    arch        "LSB;label=32;scalar=64";
    class       volScalarField;
    location    "0.000198";
    object      T;
}
// * * * * * * * * * * * * * * * * * * * * * * * * * * * * * * * * * * * * * //

dimensions      [0 0 0 1 0 0 0];

internalField   nonuniform List<scalar> 
144746
(
288.527
288.629
288.588
288.731
288.919
289.059
289.15
289.174
289.078
288.83
288.506
288.338
288.141
288.264
288.366
288.534
288.687
288.924
289.142
289.322
289.433
289.499
289.443
289.226
288.907
288.654
288.348
288.43
288.519
288.718
288.936
289.199
289.417
289.61
289.729
289.814
289.806
289.652
289.359
289.023
288.641
288.433
288.729
289.013
289.283
289.533
289.743
289.904
290.029
290.11
290.127
290.028
289.784
289.453
289.056
288.7
289.071
289.413
289.683
289.896
290.052
290.19
290.297
290.366
290.385
290.306
290.087
289.776
289.399
288.994
289.423
289.782
290.027
290.191
290.32
290.426
290.513
290.566
290.573
290.492
290.283
289.978
289.614
289.19
289.683
290.022
290.242
290.394
290.507
290.591
290.656
290.696
290.686
290.596
290.375
290.057
289.688
289.273
289.828
290.124
290.319
290.475
290.602
290.692
290.75
290.777
290.754
290.643
290.419
290.088
289.71
289.301
289.813
290.109
290.319
290.494
290.636
290.735
290.793
290.814
290.785
290.658
290.407
290.063
289.68
289.275
289.761
290.052
290.275
290.462
290.623
290.737
290.8
290.82
290.787
290.663
290.415
290.049
289.633
289.212
289.568
289.874
290.14
290.371
290.562
290.696
290.771
290.801
290.778
290.648
290.369
289.963
289.526
289.101
289.346
289.614
289.922
290.195
290.432
290.595
290.692
290.732
290.715
290.575
290.271
289.838
289.414
289.029
289.164
289.298
289.61
289.917
290.19
290.383
290.514
290.567
290.554
290.409
290.09
289.624
289.208
288.9
289.046
289.022
289.24
289.502
289.798
290.016
290.179
290.24
290.229
290.1
289.825
289.49
289.339
289.091
288.583
288.877
288.982
289.19
289.306
289.459
289.503
289.52
289.409
289.186
288.839
288.546
288.238
288.298
288.675
288.968
289.213
289.468
289.607
289.758
289.826
289.856
289.769
289.567
289.262
288.954
288.64
288.644
288.961
289.262
289.524
289.777
289.908
290.05
290.124
290.156
290.096
289.914
289.636
289.336
288.998
288.746
289.295
289.61
289.865
290.078
290.211
290.325
290.392
290.421
290.384
290.248
290.018
289.736
289.385
289.042
289.669
289.982
290.193
290.332
290.446
290.533
290.595
290.626
290.614
290.523
290.337
290.075
289.738
289.392
290.018
290.291
290.437
290.539
290.619
290.685
290.741
290.776
290.775
290.708
290.563
290.313
289.999
289.65
290.258
290.508
290.616
290.681
290.729
290.779
290.831
290.865
290.869
290.815
290.679
290.447
290.136
289.781
290.383
290.62
290.714
290.757
290.785
290.82
290.868
290.904
290.907
290.857
290.73
290.473
290.152
289.798
290.413
290.65
290.754
290.799
290.82
290.841
290.883
290.919
290.919
290.868
290.738
290.479
290.139
289.749
290.379
290.622
290.761
290.828
290.855
290.87
290.897
290.924
290.919
290.862
290.714
290.424
290.052
289.627
290.261
290.537
290.73
290.839
290.884
290.905
290.921
290.93
290.907
290.827
290.648
290.32
289.914
289.465
290.088
290.384
290.642
290.809
290.895
290.931
290.944
290.931
290.88
290.765
290.527
290.154
289.744
289.335
289.92
290.177
290.486
290.717
290.853
290.912
290.931
290.913
290.828
290.654
290.353
289.937
289.555
289.207
289.788
289.937
290.243
290.51
290.704
290.81
290.842
290.823
290.711
290.48
290.15
289.807
289.596
289.369
288.501
288.989
289.24
289.387
289.492
289.506
289.477
289.382
289.206
288.94
288.586
288.218
287.888
287.824
288.985
289.472
289.789
289.922
290.003
289.991
289.942
289.837
289.667
289.434
289.153
288.848
288.541
288.42
289.589
290.009
290.269
290.376
290.425
290.396
290.323
290.21
290.064
289.875
289.622
289.338
288.99
288.696
290.125
290.467
290.66
290.727
290.745
290.705
290.624
290.513
290.385
290.228
290.028
289.775
289.425
289.054
290.55
290.807
290.934
290.953
290.947
290.9
290.827
290.738
290.643
290.52
290.346
290.12
289.81
289.45
290.866
291.041
291.12
291.113
291.086
291.028
290.963
290.898
290.831
290.742
290.604
290.409
290.137
289.823
291.096
291.218
291.255
291.231
291.182
291.116
291.059
291.016
290.975
290.914
290.805
290.643
290.407
290.108
291.27
291.367
291.382
291.345
291.278
291.204
291.151
291.121
291.097
291.055
290.968
290.822
290.603
290.298
291.385
291.483
291.494
291.456
291.384
291.308
291.258
291.236
291.223
291.188
291.108
290.963
290.734
290.392
291.461
291.584
291.615
291.589
291.524
291.45
291.401
291.381
291.369
291.328
291.242
291.078
290.815
290.427
291.484
291.654
291.732
291.736
291.693
291.634
291.588
291.565
291.543
291.481
291.367
291.166
290.859
290.431
291.477
291.684
291.84
291.891
291.883
291.847
291.809
291.776
291.726
291.629
291.469
291.223
290.88
290.452
291.47
291.698
291.897
292.005
292.042
292.041
292.019
291.983
291.906
291.769
291.55
291.226
290.861
290.437
291.4
291.607
291.872
292.032
292.122
292.158
292.156
292.119
292.012
291.838
291.593
291.285
291.002
290.651
288.572
288.651
288.178
287.826
287.381
288.004
287.817
287.82
287.454
287.478
287.181
287.792
288.011
287.835
287.453
287.501
287.226
287.862
288.212
287.822
287.409
287.442
287.184
287.812
288.511
288.086
287.723
287.765
287.539
288.165
288.734
288.362
288.092
288.167
288.067
288.569
288.884
288.622
288.45
288.66
288.648
289.305
288.949
288.735
288.591
288.873
288.996
289.877
288.953
288.795
288.708
289.041
289.192
290.099
288.92
288.814
288.752
289.062
289.17
290.047
288.873
288.776
288.707
288.961
288.959
289.711
288.766
288.62
288.52
288.686
288.559
289.165
288.828
288.637
288.335
288.354
288.144
288.779
288.494
288.31
287.984
288.037
287.85
288.084
288.527
288.452
287.982
287.647
287.211
287.874
287.976
287.711
287.245
287.199
286.89
287.576
288.265
287.901
287.366
287.265
286.915
287.622
288.571
288.099
287.506
287.296
286.854
287.588
288.95
288.482
287.935
287.759
287.322
288.014
289.218
288.794
288.333
288.189
287.797
288.339
289.365
289.012
288.643
288.645
288.358
288.973
289.4
289.095
288.799
288.883
288.692
289.459
289.358
289.096
288.858
289.033
288.945
289.816
289.252
288.997
288.814
289.043
289.002
289.877
289.124
288.888
288.769
288.977
288.923
289.668
289.017
288.76
288.612
288.745
288.628
289.232
288.969
288.712
288.479
288.453
288.259
288.89
288.546
288.316
288.039
288.139
287.973
288.343
288.14
287.851
287.346
286.643
286.004
285.906
287.725
287.281
286.65
286.195
285.551
285.649
288.11
287.572
286.884
286.39
285.705
286.015
288.55
287.962
287.254
286.639
285.854
286.126
289.008
288.446
287.786
287.218
286.472
287.12
289.407
288.892
288.297
287.807
287.191
287.725
289.701
289.236
288.738
288.406
287.94
288.559
289.876
289.439
289.049
288.874
288.565
289.204
289.955
289.549
289.263
289.232
289.067
289.924
289.977
289.599
289.372
289.435
289.371
290.26
289.989
289.641
289.463
289.531
289.515
290.277
290.074
289.724
289.529
289.513
289.457
289.975
290.228
289.864
289.649
289.511
289.299
289.63
289.961
289.647
289.338
289.17
288.964
289.259
289.221
289.072
288.403
287.92
287.531
287.763
288.619
288.386
287.616
287.317
286.82
287.401
288.926
288.459
287.551
287.151
286.559
287.341
289.205
288.476
287.479
286.965
286.37
287.087
289.466
288.619
287.568
286.98
286.379
286.998
289.583
288.696
287.625
286.966
286.357
286.852
289.602
288.728
287.715
287.128
286.564
287.109
289.53
288.709
287.845
287.388
286.896
287.456
289.4
288.696
288.055
287.803
287.435
288.062
289.212
288.644
288.217
288.153
287.948
288.555
289.033
288.654
288.402
288.421
288.314
288.902
288.894
288.633
288.473
288.497
288.395
289.183
288.895
288.746
288.632
288.664
288.559
288.873
288.625
288.508
288.466
288.587
288.54
288.742
289.578
289.388
288.844
288.457
288.05
288.194
289.051
288.792
288.048
287.742
287.254
287.829
289.353
288.902
288.028
287.58
286.984
287.746
289.72
289.127
288.132
287.463
286.825
287.372
290.1
289.462
288.42
287.624
286.935
287.43
290.372
289.739
288.672
287.801
287.082
287.363
290.501
289.862
288.844
288.076
287.382
287.746
290.491
289.906
289.05
288.461
287.959
288.005
290.464
289.92
289.241
288.826
288.446
288.599
290.353
289.858
289.359
289.094
288.833
289.108
290.191
289.803
289.466
289.279
289.106
289.354
289.99
289.708
289.466
289.316
289.212
289.41
289.794
289.565
289.4
289.3
289.242
289.507
289.401
289.137
289.01
289.012
289.024
289.239
290.97
290.837
290.374
289.811
289.18
289.052
290.688
290.465
289.837
289.316
288.63
288.804
291
290.677
289.952
289.357
288.584
288.845
291.394
291.071
290.308
289.554
288.696
288.646
291.766
291.482
290.738
289.841
288.872
288.758
292.001
291.796
291.081
290.149
289.18
289.063
292.142
291.936
291.267
290.396
289.534
289.391
292.175
291.985
291.351
290.607
289.939
289.832
292.153
291.941
291.364
290.77
290.351
290.271
292.085
291.834
291.339
290.872
290.595
290.506
291.968
291.7
291.324
290.959
290.744
290.544
291.799
291.546
291.274
290.994
290.778
290.453
291.618
291.378
291.16
290.898
290.719
290.294
291.233
290.944
290.691
290.31
290.02
289.398
289.245
288.824
288.632
288.336
288.25
288.214
289.356
288.851
288.68
288.492
288.495
288.539
289.132
288.574
288.492
288.331
288.356
288.454
289.181
288.119
288.228
288.196
288.315
288.521
288.339
287.651
287.846
287.94
288.259
288.676
287.468
287.034
287.424
287.768
288.326
288.917
286.795
286.669
287.086
287.61
288.405
289.131
286.823
286.52
287.004
287.631
288.544
289.292
286.841
286.519
287.057
287.714
288.623
289.304
287.096
286.755
287.272
287.839
288.678
289.291
287.418
287.064
287.542
287.978
288.665
289.142
288.071
287.577
287.941
288.187
288.716
288.969
288.542
287.976
288.275
288.346
288.727
288.734
289.036
288.703
288.86
288.958
289.18
289.122
289.267
288.809
288.482
288.164
288.082
288.255
289.618
289.083
288.784
288.585
288.578
288.774
289.425
288.927
288.62
288.487
288.564
288.839
289.175
288.637
288.442
288.42
288.619
289.017
288.318
287.932
288.002
288.262
288.698
289.256
287.463
287.303
287.645
288.198
288.864
289.548
286.838
286.797
287.322
288.14
289.019
289.777
286.676
286.63
287.223
288.163
289.145
289.921
286.724
286.675
287.31
288.261
289.229
289.965
286.998
286.955
287.565
288.401
289.297
289.949
287.375
287.313
287.884
288.552
289.3
289.84
288.057
287.926
288.336
288.744
289.317
289.685
288.671
288.477
288.747
288.903
289.297
289.502
289.268
289.117
289.3
289.479
289.694
289.781
285.968
286.916
286.884
287.162
287.288
287.886
286.707
287.672
287.597
287.952
288.138
288.741
286.789
287.649
287.513
287.945
288.389
289.175
286.785
287.475
287.429
288.003
288.691
289.624
286.375
287.054
287.346
288.164
289.063
290.023
285.854
286.648
287.376
288.466
289.499
290.41
285.504
286.38
287.46
288.827
289.951
290.73
285.362
286.322
287.635
289.2
290.32
290.976
285.387
286.444
287.879
289.52
290.567
291.127
285.589
286.738
288.194
289.78
290.73
291.206
285.931
287.157
288.576
289.991
290.818
291.216
286.622
287.821
289.078
290.233
290.894
291.232
287.51
288.603
289.595
290.472
290.959
291.194
288.616
289.548
290.396
291.009
291.273
291.431
288.003
287.727
287.885
287.873
288.018
288.011
288.424
288.143
288.238
288.176
288.264
288.319
289.309
288.563
288.522
288.271
288.206
288.26
289.822
288.97
288.782
288.426
288.366
288.389
289.985
289.05
288.807
288.463
288.448
288.581
289.823
288.936
288.733
288.463
288.572
288.777
289.266
288.625
288.604
288.458
288.608
288.859
288.787
288.199
288.36
288.322
288.564
288.845
288.385
287.88
288.161
288.162
288.485
288.785
288.447
287.922
288.156
288.093
288.414
288.661
288.416
287.873
288.147
288.05
288.374
288.542
288.753
288.053
288.288
288.198
288.448
288.427
289.07
288.228
288.411
288.22
288.411
288.315
289.407
288.948
288.982
288.87
288.997
288.856
287.684
287.29
287.359
287.195
287.319
287.618
288.284
287.59
287.733
287.694
287.909
288.213
288.885
288.067
288.018
287.867
288.031
288.352
289.346
288.44
288.337
288.148
288.282
288.581
289.425
288.509
288.498
288.349
288.524
288.858
289.215
288.466
288.543
288.492
288.708
289.057
288.61
288.181
288.373
288.46
288.762
289.152
287.975
287.733
288.086
288.344
288.745
289.14
287.597
287.363
287.794
288.156
288.681
289.104
287.48
287.111
287.578
287.974
288.548
288.971
287.367
287.015
287.524
287.887
288.442
288.871
287.672
287.358
287.78
288.039
288.432
288.687
288.252
287.897
288.232
288.227
288.406
288.503
289.009
288.785
288.886
288.959
288.999
288.848
285.556
285.766
285.624
285.754
286.09
286.791
286.081
286.356
286.209
286.509
286.902
287.599
286.429
286.708
286.534
286.796
287.138
287.809
286.872
287.007
286.932
287.147
287.461
288.098
287.052
287.062
287.095
287.377
287.763
288.405
286.825
287.072
287.194
287.54
287.997
288.653
286.261
286.767
286.978
287.514
288.119
288.821
285.615
286.201
286.629
287.434
288.189
288.916
284.912
285.586
286.247
287.289
288.166
288.935
284.288
285.096
285.974
287.168
288.098
288.886
283.799
284.825
285.887
287.128
288.02
288.767
283.869
285.026
286.154
287.316
288.025
288.593
284.224
285.611
286.644
287.6
288.033
288.385
285.292
286.621
287.429
288.183
288.336
288.552
290.278
290.5
290.566
290.584
290.56
290.442
290.31
290.139
289.931
289.65
289.279
288.852
288.432
288.284
290.553
290.844
290.962
290.983
290.933
290.815
290.672
290.505
290.328
290.104
289.813
289.464
289.121
288.886
290.957
291.201
291.297
291.296
291.228
291.102
290.95
290.788
290.632
290.461
290.245
289.97
289.624
289.256
291.296
291.47
291.525
291.493
291.406
291.277
291.13
290.983
290.849
290.722
290.572
290.357
290.046
289.646
291.547
291.643
291.647
291.588
291.486
291.363
291.236
291.119
291.019
290.927
290.82
290.648
290.377
290.007
291.717
291.75
291.719
291.634
291.523
291.405
291.298
291.209
291.142
291.083
291.008
290.875
290.656
290.343
291.845
291.838
291.783
291.679
291.558
291.442
291.349
291.284
291.245
291.213
291.166
291.061
290.883
290.614
291.973
291.944
291.867
291.748
291.617
291.5
291.416
291.369
291.351
291.338
291.311
291.222
291.064
290.81
292.09
292.056
291.973
291.849
291.715
291.6
291.524
291.489
291.483
291.479
291.459
291.371
291.213
290.947
292.237
292.206
292.124
292.003
291.871
291.759
291.689
291.66
291.656
291.65
291.623
291.524
291.348
291.048
292.373
292.363
292.305
292.201
292.081
291.979
291.914
291.885
291.875
291.858
291.815
291.688
291.481
291.13
292.568
292.57
292.535
292.454
292.348
292.258
292.195
292.159
292.131
292.09
292.015
291.851
291.613
291.226
292.706
292.765
292.755
292.713
292.635
292.56
292.497
292.446
292.392
292.313
292.188
291.983
291.722
291.336
292.936
292.966
292.976
292.969
292.928
292.869
292.804
292.733
292.639
292.504
292.309
292.068
291.822
291.473
291.26
291.29
291.311
291.254
291.172
291.035
290.885
290.713
290.517
290.267
289.933
289.539
289.105
288.849
291.423
291.523
291.544
291.487
291.396
291.269
291.134
290.987
290.834
290.656
290.424
290.123
289.753
289.399
291.64
291.707
291.717
291.654
291.555
291.431
291.303
291.176
291.058
290.939
290.794
290.571
290.233
289.815
291.819
291.84
291.822
291.741
291.637
291.521
291.406
291.299
291.207
291.127
291.04
290.892
290.593
290.175
291.946
291.932
291.885
291.786
291.673
291.562
291.461
291.376
291.312
291.263
291.209
291.104
290.86
290.498
292.058
292.019
291.941
291.823
291.7
291.589
291.499
291.434
291.393
291.368
291.334
291.259
291.059
290.751
292.161
292.106
292.005
291.87
291.737
291.624
291.542
291.491
291.467
291.457
291.437
291.378
291.217
290.955
292.277
292.213
292.094
291.945
291.803
291.687
291.61
291.568
291.554
291.553
291.54
291.488
291.348
291.113
292.41
292.343
292.216
292.061
291.914
291.798
291.723
291.686
291.675
291.674
291.66
291.605
291.47
291.244
292.588
292.516
292.386
292.233
292.087
291.972
291.898
291.859
291.844
291.835
291.812
291.742
291.598
291.36
292.782
292.721
292.601
292.458
292.318
292.208
292.134
292.09
292.066
292.043
292.004
291.908
291.744
291.476
293.025
292.978
292.869
292.738
292.606
292.501
292.427
292.376
292.337
292.292
292.231
292.1
291.911
291.606
293.232
293.24
293.162
293.052
292.933
292.833
292.751
292.685
292.62
292.544
292.452
292.285
292.074
291.738
293.535
293.538
293.469
293.379
293.276
293.179
293.089
293.005
292.907
292.788
292.629
292.427
292.189
291.854
292.296
292.183
292.094
291.938
291.789
291.616
291.434
291.251
291.061
290.848
290.584
290.249
289.869
289.55
292.373
292.312
292.208
292.055
291.904
291.747
291.584
291.42
291.258
291.09
290.902
290.677
290.38
290.013
292.456
292.386
292.275
292.125
291.976
291.831
291.684
291.54
291.402
291.275
291.146
290.985
290.718
290.354
292.525
292.439
292.31
292.153
292.004
291.867
291.736
291.614
291.501
291.402
291.308
291.191
290.977
290.63
292.576
292.475
292.331
292.167
292.015
291.882
291.765
291.663
291.574
291.5
291.429
291.339
291.161
290.88
292.623
292.513
292.357
292.186
292.03
291.898
291.789
291.702
291.633
291.579
291.524
291.453
291.302
291.064
292.688
292.567
292.399
292.219
292.058
291.926
291.823
291.747
291.692
291.651
291.606
291.547
291.417
291.208
292.779
292.643
292.463
292.278
292.113
291.981
291.883
291.814
291.765
291.73
291.69
291.633
291.516
291.323
292.9
292.755
292.57
292.382
292.216
292.084
291.987
291.918
291.87
291.833
291.791
291.727
291.614
291.427
293.064
292.913
292.726
292.542
292.378
292.247
292.148
292.076
292.022
291.975
291.922
291.844
291.725
291.532
293.261
293.121
292.942
292.764
292.603
292.471
292.368
292.288
292.225
292.163
292.095
291.997
291.87
291.654
293.5
293.375
293.203
293.032
292.877
292.748
292.644
292.557
292.479
292.397
292.31
292.188
292.043
291.799
293.769
293.673
293.519
293.357
293.204
293.071
292.956
292.853
292.754
292.648
292.535
292.389
292.226
291.954
294.073
293.981
293.834
293.685
293.538
293.405
293.282
293.164
293.042
292.904
292.746
292.563
292.36
292.07
292.922
292.771
292.586
292.389
292.199
291.998
291.798
291.605
291.418
291.222
290.998
290.745
290.458
290.148
292.987
292.852
292.657
292.457
292.269
292.082
291.896
291.709
291.525
291.353
291.183
291.007
290.794
290.502
293
292.866
292.677
292.48
292.296
292.123
291.953
291.783
291.615
291.464
291.326
291.195
291.014
290.759
293.019
292.865
292.671
292.473
292.294
292.132
291.979
291.831
291.687
291.557
291.441
291.33
291.177
290.955
293.024
292.856
292.657
292.459
292.284
292.129
291.989
291.861
291.743
291.638
291.542
291.447
291.315
291.126
293.031
292.855
292.654
292.456
292.282
292.133
292.004
291.892
291.794
291.71
291.63
291.549
291.431
291.262
293.066
292.879
292.672
292.471
292.298
292.153
292.033
291.933
291.849
291.779
291.71
291.637
291.527
291.369
293.134
292.932
292.717
292.515
292.342
292.202
292.089
291.996
291.918
291.853
291.788
291.715
291.608
291.45
293.242
293.032
292.811
292.608
292.437
292.297
292.185
292.092
292.013
291.945
291.874
291.794
291.683
291.522
293.39
293.18
292.96
292.762
292.592
292.452
292.335
292.236
292.149
292.068
291.985
291.889
291.768
291.599
293.585
293.389
293.174
292.98
292.809
292.664
292.539
292.429
292.329
292.232
292.131
292.016
291.882
291.697
293.814
293.634
293.427
293.24
293.074
292.929
292.799
292.679
292.562
292.443
292.321
292.184
292.037
291.821
294.091
293.935
293.737
293.553
293.383
293.232
293.092
292.957
292.823
292.683
292.536
292.385
292.222
291.979
294.364
294.22
294.03
293.857
293.694
293.543
293.399
293.253
293.102
292.937
292.761
292.577
292.381
292.131
293.439
293.259
293.054
292.842
292.628
292.41
292.188
291.973
291.772
291.582
291.379
291.174
290.956
290.672
293.461
293.301
293.091
292.88
292.673
292.468
292.259
292.049
291.841
291.652
291.481
291.326
291.151
290.929
293.438
293.272
293.066
292.861
292.666
292.479
292.288
292.094
291.9
291.722
291.566
291.429
291.279
291.08
293.412
293.231
293.026
292.826
292.64
292.463
292.289
292.117
291.945
291.785
291.645
291.52
291.387
291.215
293.385
293.185
292.976
292.776
292.597
292.433
292.277
292.124
291.977
291.842
291.72
291.609
291.485
291.342
293.376
293.165
292.953
292.753
292.576
292.417
292.272
292.135
292.008
291.894
291.789
291.693
291.581
291.451
293.397
293.176
292.959
292.756
292.579
292.425
292.287
292.162
292.048
291.948
291.856
291.768
291.664
291.533
293.45
293.22
292.992
292.786
292.611
292.462
292.331
292.213
292.106
292.012
291.924
291.836
291.732
291.593
293.545
293.312
293.078
292.871
292.696
292.546
292.416
292.297
292.188
292.091
291.998
291.902
291.789
291.642
293.678
293.449
293.218
293.015
292.84
292.687
292.55
292.422
292.304
292.194
292.086
291.977
291.848
291.693
293.856
293.64
293.415
293.217
293.041
292.88
292.731
292.589
292.456
292.33
292.204
292.077
291.934
291.762
294.06
293.86
293.645
293.455
293.281
293.117
292.96
292.807
292.658
292.511
292.364
292.214
292.058
291.865
294.305
294.127
293.92
293.732
293.554
293.383
293.217
293.051
292.888
292.723
292.556
292.39
292.221
291.998
294.542
294.368
294.171
293.993
293.821
293.651
293.485
293.316
293.142
292.96
292.772
292.582
292.375
292.142
293.824
293.671
293.495
293.31
293.105
292.878
292.638
292.391
292.154
291.931
291.726
291.525
291.346
291.123
293.813
293.681
293.503
293.317
293.121
292.908
292.675
292.434
292.196
291.974
291.779
291.613
291.469
291.287
293.765
293.612
293.436
293.256
293.072
292.879
292.668
292.447
292.222
292.013
291.828
291.674
291.534
291.371
293.723
293.542
293.357
293.175
292.997
292.816
292.626
292.428
292.226
292.038
291.87
291.729
291.6
291.457
293.683
293.477
293.277
293.089
292.912
292.74
292.567
292.391
292.216
292.053
291.907
291.784
291.665
291.544
293.668
293.448
293.238
293.043
292.863
292.693
292.528
292.367
292.21
292.068
291.944
291.838
291.733
291.62
293.683
293.452
293.234
293.033
292.853
292.685
292.524
292.371
292.225
292.097
291.988
291.894
291.799
291.685
293.728
293.491
293.264
293.059
292.877
292.712
292.556
292.406
292.268
292.147
292.044
291.953
291.857
291.737
293.814
293.576
293.344
293.136
292.951
292.784
292.627
292.477
292.338
292.216
292.111
292.015
291.91
291.776
293.935
293.703
293.474
293.268
293.082
292.908
292.744
292.585
292.439
292.308
292.191
292.082
291.961
291.814
294.093
293.871
293.648
293.447
293.258
293.075
292.897
292.726
292.568
292.424
292.291
292.163
292.027
291.864
294.265
294.055
293.842
293.649
293.463
293.275
293.09
292.909
292.739
292.578
292.426
292.277
292.124
291.94
294.468
294.274
294.066
293.873
293.686
293.495
293.306
293.117
292.939
292.764
292.596
292.425
292.26
292.052
294.658
294.457
294.262
294.08
293.9
293.715
293.532
293.349
293.168
292.983
292.797
292.606
292.404
292.179
294.118
294.001
293.867
293.721
293.547
293.338
293.095
292.832
292.572
292.323
292.095
291.891
291.715
291.542
294.098
293.983
293.842
293.694
293.526
293.327
293.091
292.835
292.574
292.33
292.116
291.943
291.788
291.629
294.039
293.893
293.742
293.591
293.429
293.247
293.036
292.802
292.559
292.332
292.133
291.971
291.837
291.702
293.994
293.814
293.643
293.48
293.315
293.138
292.942
292.732
292.515
292.312
292.132
291.987
291.866
291.752
293.952
293.745
293.554
293.378
293.207
293.033
292.846
292.651
292.456
292.277
292.121
291.993
291.889
291.789
293.942
293.721
293.514
293.321
293.139
292.958
292.773
292.588
292.409
292.25
292.115
292.006
291.916
291.826
293.963
293.731
293.513
293.308
293.118
292.933
292.748
292.567
292.396
292.248
292.126
292.03
291.948
291.858
294.01
293.773
293.548
293.339
293.144
292.958
292.773
292.591
292.421
292.276
292.161
292.07
291.989
291.887
294.095
293.857
293.627
293.413
293.212
293.019
292.83
292.647
292.478
292.334
292.218
292.125
292.034
291.922
294.212
293.978
293.747
293.53
293.324
293.123
292.927
292.738
292.566
292.417
292.295
292.19
292.084
291.957
294.357
294.129
293.899
293.679
293.468
293.257
293.052
292.855
292.678
292.523
292.39
292.269
292.147
292.003
294.499
294.28
294.058
293.842
293.629
293.415
293.207
293.008
292.826
292.661
292.514
292.375
292.235
292.067
294.653
294.439
294.219
294.006
293.799
293.588
293.383
293.185
293.003
292.831
292.672
292.513
292.357
292.162
294.763
294.542
294.34
294.145
293.956
293.761
293.572
293.387
293.212
293.038
292.865
292.68
292.495
292.278
294.36
294.249
294.139
294.017
293.871
293.688
293.468
293.219
292.958
292.706
292.471
292.255
292.073
291.886
294.333
294.205
294.079
293.951
293.808
293.636
293.425
293.186
292.931
292.685
292.462
292.271
292.117
291.968
294.271
294.11
293.964
293.826
293.683
293.522
293.33
293.112
292.878
292.651
292.446
292.279
292.144
292.031
294.217
294.027
293.86
293.708
293.559
293.398
293.214
293.012
292.798
292.592
292.407
292.259
292.142
292.044
294.175
293.966
293.78
293.613
293.455
293.29
293.107
292.91
292.71
292.522
292.357
292.227
292.128
292.045
294.17
293.953
293.753
293.569
293.392
293.215
293.027
292.832
292.639
292.463
292.315
292.202
292.117
292.046
294.198
293.973
293.764
293.569
293.373
293.182
292.988
292.791
292.601
292.434
292.297
292.194
292.113
292.039
294.256
294.027
293.806
293.595
293.395
293.195
292.991
292.79
292.6
292.435
292.303
292.202
292.122
292.033
294.348
294.114
293.884
293.663
293.451
293.242
293.031
292.825
292.633
292.469
292.337
292.234
292.145
292.046
294.456
294.221
293.987
293.76
293.539
293.32
293.102
292.892
292.7
292.535
292.4
292.288
292.185
292.07
294.579
294.343
294.106
293.873
293.647
293.42
293.198
292.987
292.795
292.628
292.486
292.36
292.241
292.111
294.693
294.462
294.228
293.995
293.766
293.539
293.321
293.114
292.925
292.754
292.602
292.46
292.322
292.171
294.787
294.559
294.332
294.106
293.888
293.673
293.466
293.268
293.085
292.912
292.751
292.594
292.439
292.263
294.79
294.571
294.373
294.182
293.998
293.811
293.628
293.452
293.283
293.113
292.944
292.761
292.584
292.375
294.614
294.484
294.368
294.243
294.106
293.942
293.749
293.526
293.288
293.052
292.822
292.6
292.412
292.191
294.568
294.416
294.285
294.154
294.019
293.865
293.682
293.473
293.247
293.019
292.8
292.598
292.426
292.281
294.494
294.318
294.166
294.029
293.894
293.749
293.582
293.392
293.183
292.972
292.773
292.6
292.452
292.336
294.427
294.233
294.069
293.922
293.782
293.637
293.475
293.295
293.1
292.907
292.725
292.572
292.445
292.343
294.386
294.183
294.004
293.844
293.695
293.543
293.378
293.199
293.011
292.828
292.662
292.525
292.416
292.33
294.387
294.177
293.984
293.807
293.642
293.476
293.302
293.12
292.933
292.757
292.6
292.475
292.38
292.304
294.418
294.2
293.998
293.81
293.624
293.441
293.255
293.066
292.878
292.705
292.555
292.438
292.346
292.271
294.485
294.259
294.04
293.828
293.628
293.434
293.238
293.042
292.853
292.683
292.536
292.419
292.325
292.235
294.57
294.334
294.101
293.879
293.666
293.456
293.249
293.047
292.857
292.688
292.541
292.42
292.315
292.207
294.656
294.417
294.177
293.946
293.721
293.502
293.288
293.082
292.89
292.718
292.568
292.438
292.322
292.202
294.733
294.493
294.254
294.021
293.793
293.57
293.352
293.145
292.955
292.781
292.625
292.483
292.351
292.219
294.792
294.559
294.333
294.105
293.879
293.659
293.446
293.246
293.058
292.883
292.719
292.56
292.409
292.257
294.834
294.608
294.398
294.185
293.975
293.769
293.569
293.38
293.197
293.02
292.847
292.674
292.508
292.335
294.788
294.585
294.404
294.228
294.058
293.887
293.716
293.551
293.383
293.209
293.029
292.837
292.648
292.438
290.445
290.573
290.676
290.652
290.701
290.278
290.046
289.849
289.546
289.273
289.041
288.495
290.108
289.673
289.09
288.41
287.741
287.084
290.086
289.495
288.674
287.7
286.839
286.137
290.039
289.349
288.397
287.299
286.458
285.829
289.908
289.159
288.15
287.063
286.356
285.803
289.766
288.986
288.016
287.074
286.546
286.1
289.571
288.775
287.916
287.204
286.879
286.465
289.327
288.526
287.83
287.334
287.201
286.847
289.011
288.209
287.657
287.331
287.361
287.236
288.64
287.879
287.457
287.221
287.351
287.438
288.286
287.534
287.131
286.909
287.089
287.121
288.023
287.279
286.831
286.576
286.698
286.404
287.304
286.593
286.104
285.877
285.951
285.436
291.383
291.443
291.533
291.545
291.4
291.09
291.006
290.897
290.712
290.627
290.383
289.826
291.051
290.81
290.476
290.073
289.421
288.536
290.964
290.632
290.129
289.45
288.478
287.429
290.863
290.436
289.777
288.885
287.771
286.78
290.692
290.168
289.371
288.36
287.289
286.515
290.504
289.893
289.025
288.028
287.15
286.638
290.275
289.586
288.706
287.808
287.172
286.931
290.01
289.251
288.43
287.685
287.287
287.221
289.678
288.86
288.148
287.578
287.377
287.422
289.313
288.463
287.854
287.44
287.363
287.398
288.933
288.1
287.53
287.158
287.082
287.059
288.621
287.856
287.318
286.955
286.808
286.603
287.98
287.258
286.736
286.374
286.236
285.951
292.323
292.39
292.458
292.555
292.524
292.356
292.002
291.935
291.827
291.819
291.795
291.478
291.958
291.879
291.736
291.573
291.199
290.44
291.785
291.682
291.439
291.096
290.407
289.308
291.621
291.467
291.09
290.538
289.582
288.369
291.404
291.175
290.638
289.897
288.812
287.71
291.182
290.86
290.197
289.364
288.341
287.48
290.959
290.528
289.794
288.946
288.078
287.45
290.726
290.192
289.455
288.658
287.992
287.545
290.448
289.825
289.129
288.42
287.952
287.639
290.125
289.433
288.791
288.163
287.849
287.617
289.753
289.004
288.389
287.815
287.542
287.319
289.4
288.649
288.089
287.618
287.368
287.06
288.801
288.075
287.54
287.135
286.897
286.578
292.957
292.986
292.98
293.067
293.093
293.083
292.672
292.636
292.565
292.608
292.654
292.619
292.527
292.494
292.459
292.459
292.339
291.943
292.318
292.266
292.198
292.1
291.782
291.006
292.121
292.039
291.896
291.639
291.05
289.983
291.886
291.752
291.496
291.057
290.221
289.013
291.65
291.462
291.082
290.49
289.536
288.383
291.418
291.163
290.677
289.983
289.013
287.977
291.198
290.863
290.31
289.567
288.67
287.784
290.967
290.545
289.955
289.175
288.385
287.642
290.702
290.197
289.591
288.81
288.175
287.61
290.373
289.774
289.162
288.418
287.875
287.368
290.042
289.378
288.791
288.168