/*--------------------------------*- C++ -*----------------------------------*\
| =========                 |                                                 |
| \\      /  F ield         | OpenFOAM: The Open Source CFD Toolbox           |
|  \\    /   O peration     | Version:  v2106                                 |
|   \\  /    A nd           | Website:  www.openfoam.com                      |
|    \\/     M anipulation  |                                                 |
\*---------------------------------------------------------------------------*/
FoamFile
{
    version     2.0;
    format      ascii;
    arch        "LSB;label=32;scalar=64";
    class       volScalarField;
    location    "0.000216";
    object      T;
}
// * * * * * * * * * * * * * * * * * * * * * * * * * * * * * * * * * * * * * //

dimensions      [0 0 0 1 0 0 0];

internalField   nonuniform List<scalar> 
17920
(
306.827
306.842
306.86
306.877
306.888
306.905
306.918
306.935
306.945
306.961
306.971
306.987
306.995
307.01
307.019
307.033
307.04
307.054
307.06
307.074
307.078
307.092
307.095
307.109
307.111
307.126
307.125
307.142
306.454
306.464
306.479
306.492
306.506
306.519
306.531
306.544
306.556
306.567
306.578
306.589
306.6
306.612
306.481
306.492
306.507
306.521
306.536
306.549
306.563
306.576
306.589
306.601
306.613
306.625
306.636
306.65
306.51
306.521
306.537
306.551
306.566
306.581
306.594
306.608
306.621
306.634
306.646
306.658
306.669
306.683
306.538
306.55
306.566
306.581
306.597
306.611
306.626
306.64
306.653
306.666
306.679
306.692
306.703
306.718
306.566
306.58
306.596
306.611
306.627
306.642
306.657
306.671
306.685
306.698
306.711
306.724
306.736
306.75
306.594
306.609
306.625
306.641
306.656
306.672
306.687
306.702
306.716
306.73
306.743
306.756
306.769
306.782
306.622
306.638
306.654
306.67
306.685
306.701
306.717
306.732
306.746
306.76
306.774
306.787
306.8
306.813
306.651
306.666
306.682
306.698
306.714
306.73
306.745
306.761
306.775
306.79
306.804
306.817
306.831
306.843
306.678
306.694
306.709
306.726
306.742
306.757
306.773
306.789
306.804
306.818
306.832
306.846
306.86
306.872
306.705
306.721
306.737
306.753
306.768
306.784
306.8
306.816
306.831
306.845
306.86
306.874
306.888
306.9
306.731
306.747
306.762
306.778
306.794
306.81
306.826
306.841
306.857
306.872
306.886
306.9
306.915
306.926
306.757
306.773
306.788
306.804
306.819
306.835
306.85
306.866
306.881
306.896
306.911
306.925
306.94
306.952
306.781
306.797
306.811
306.827
306.842
306.858
306.874
306.89
306.905
306.92
306.936
306.95
306.965
306.978
306.807
306.822
306.836
306.851
306.866
306.881
306.896
306.912
306.927
306.942
306.957
306.972
306.988
307.004
306.326
306.328
306.334
306.341
306.348
306.355
306.361
306.368
306.375
306.382
306.388
306.395
306.402
306.41
306.351
306.353
306.36
306.366
306.374
306.381
306.388
306.396
306.403
306.41
306.418
306.425
306.433
306.442
306.375
306.378
306.386
306.393
306.401
306.409
306.416
306.424
306.432
306.439
306.447
306.455
306.462
306.472
306.401
306.405
306.413
306.42
306.428
306.437
306.445
306.453
306.461
306.469
306.477
306.486
306.493
306.504
306.427
306.432
306.44
306.448
306.456
306.465
306.474
306.482
306.491
306.499
306.508
306.516
306.525
306.534
306.453
306.46
306.468
306.476
306.485
306.494
306.503
306.512
306.521
306.53
306.539
306.548
306.557
306.566
306.48
306.487
306.495
306.504
306.513
306.523
306.532
306.542
306.551
306.561
306.57
306.579
306.588
306.597
306.507
306.516
306.524
306.533
306.542
306.552
306.562
306.572
306.582
306.591
306.601
306.611
306.62
306.629
306.535
306.543
306.551
306.561
306.57
306.581
306.591
306.601
306.612
306.622
306.632
306.641
306.652
306.66
306.562
306.571
306.579
306.588
306.599
306.609
306.62
306.631
306.641
306.652
306.662
306.672
306.683
306.691
306.589
306.598
306.606
306.616
306.626
306.637
306.648
306.659
306.67
306.681
306.692
306.702
306.714
306.721
306.616
306.625
306.633
306.643
306.654
306.665
306.676
306.688
306.699
306.71
306.721
306.732
306.744
306.752
306.641
306.649
306.658
306.669
306.68
306.692
306.703
306.715
306.727
306.738
306.75
306.761
306.774
306.782
306.669
306.676
306.686
306.696
306.707
306.718
306.73
306.742
306.754
306.765
306.777
306.789
306.801
306.813
306.24
306.238
306.237
306.236
306.236
306.237
306.237
306.239
306.24
306.242
306.244
306.246
306.249
306.254
306.259
306.256
306.255
306.255
306.255
306.256
306.256
306.258
306.259
306.261
306.263
306.266
306.269
306.275
306.277
306.274
306.274
306.274
306.275
306.275
306.276
306.278
306.28
306.282
306.284
306.287
306.29
306.296
306.297
306.295
306.295
306.295
306.295
306.296
306.298
306.299
306.301
306.304
306.306
306.309
306.312
306.318
306.318
306.316
306.316
306.316
306.317
306.318
306.32
306.322
306.324
306.327
306.329
306.333
306.336
306.341
306.339
306.338
306.338
306.339
306.34
306.341
306.343
306.345
306.348
306.351
306.354
306.357
306.361
306.365
306.361
306.36
306.361
306.361
306.363
306.365
306.367
306.369
306.372
306.375
306.379
306.383
306.387
306.39
306.383
306.383
306.384
306.385
306.387
306.389
306.391
306.394
306.397
306.401
306.405
306.409
306.413
306.417
306.405
306.407
306.407
306.409
306.411
306.413
306.416
306.42
306.423
306.427
306.431
306.436
306.44
306.443
306.428
306.43
306.431
306.433
306.435
306.438
306.442
306.445
306.45
306.454
306.459
306.463
306.468
306.471
306.451
306.454
306.455
306.457
306.46
306.464
306.468
306.472
306.476
306.481
306.486
306.491
306.496
306.498
306.475
306.478
306.479
306.482
306.485
306.489
306.493
306.498
306.503
306.508
306.514
306.519
306.525
306.527
306.498
306.501
306.503
306.506
306.51
306.515
306.519
306.524
306.53
306.536
306.541
306.546
306.553
306.555
306.524
306.525
306.528
306.531
306.535
306.54
306.545
306.551
306.557
306.563
306.569
306.574
306.581
306.586
306.184
306.177
306.171
306.166
306.161
306.157
306.153
306.15
306.148
306.146
306.145
306.143
306.142
306.143
306.197
306.189
306.183
306.178
306.173
306.168
306.164
306.161
306.158
306.156
306.154
306.153
306.151
306.152
306.209
306.201
306.195
306.189
306.184
306.18
306.176
306.172
306.169
306.167
306.165
306.164
306.162
306.162
306.221
306.214
306.208
306.202
306.197
306.193
306.188
306.185
306.182
306.179
306.177
306.176
306.174
306.174
306.235
306.227
306.222
306.216
306.211
306.206
306.202
306.198
306.195
306.193
306.191
306.189
306.188
306.187
306.249
306.242
306.236
306.23
306.225
306.221
306.217
306.213
306.21
306.207
306.205
306.204
306.202
306.202
306.263
306.257
306.251
306.246
306.241
306.236
306.232
306.229
306.225
306.223
306.221
306.219
306.218
306.217
306.278
306.272
306.267
306.261
306.257
306.252
306.249
306.245
306.242
306.24
306.238
306.236
306.235
306.234
306.294
306.288
306.283
306.278
306.273
306.269
306.266
306.263
306.26
306.257
306.255
306.254
306.253
306.252
306.309
306.305
306.299
306.295
306.291
306.287
306.284
306.281
306.278
306.276
306.274
306.272
306.272
306.27
306.326
306.322
306.317
306.313
306.309
306.305
306.302
306.3
306.297
306.295
306.293
306.292
306.292
306.29
306.343
306.339
306.334
306.331
306.327
306.324
306.321
306.319
306.317
306.315
306.314
306.312
306.313
306.311
306.36
306.357
306.353
306.349
306.346
306.344
306.341
306.339
306.337
306.335
306.334
306.333
306.334
306.331
306.38
306.375
306.371
306.367
306.365
306.363
306.361
306.36
306.358
306.357
306.356
306.356
306.356
306.355
306.14
306.129
306.121
306.113
306.105
306.098
306.092
306.086
306.081
306.077
306.073
306.069
306.065
306.061
306.145
306.135
306.127
306.118
306.11
306.103
306.096
306.09
306.084
306.079
306.074
306.07
306.065
306.062
306.15
306.14
306.132
306.123
306.115
306.107
306.1
306.094
306.088
306.082
306.077
306.073
306.068
306.064
306.156
306.147
306.138
306.129
306.121
306.113
306.105
306.098
306.092
306.086
306.081
306.076
306.071
306.067
306.163
306.153
306.144
306.135
306.127
306.119
306.111
306.104
306.097
306.091
306.085
306.08
306.075
306.071
306.169
306.16
306.151
306.142
306.133
306.125
306.117
306.11
306.103
306.097
306.091
306.085
306.08
306.075
306.176
306.167
306.158
306.149
306.14
306.132
306.124
306.117
306.109
306.103
306.097
306.091
306.086
306.081
306.183
306.174
306.165
306.156
306.148
306.14
306.132
306.124
306.117
306.11
306.104
306.098
306.092
306.087
306.191
306.182
306.173
306.164
306.156
306.148
306.14
306.132
306.125
306.118
306.112
306.105
306.1
306.094
306.199
306.19
306.182
306.173
306.165
306.156
306.148
306.141
306.133
306.126
306.12
306.114
306.108
306.102
306.207
306.199
306.19
306.182
306.174
306.166
306.158
306.15
306.143
306.136
306.13
306.123
306.118
306.111
306.216
306.208
306.199
306.191
306.183
306.175
306.168
306.16
306.153
306.146
306.139
306.133
306.127
306.121
306.225
306.217
306.209
306.201
306.193
306.185
306.178
306.17
306.163
306.156
306.15
306.143
306.137
306.131
306.235
306.226
306.218
306.21
306.203
306.196
306.189
306.181
306.174
306.168
306.161
306.155
306.149
306.143
306.085
306.074
306.064
306.055
306.047
306.039
306.031
306.023
306.016
306.01
306.003
305.997
305.991
305.985
306.085
306.074
306.065
306.055
306.046
306.038
306.029
306.021
306.014
306.007
306
305.993
305.987
305.98
306.084
306.074
306.064
306.054
306.045
306.036
306.028
306.02
306.012
306.004
305.997
305.99
305.983
305.976
306.083
306.073
306.063
306.054
306.044
306.035
306.026
306.018
306.01
306.002
305.994
305.987
305.98
305.972
306.082
306.073
306.063
306.053
306.044
306.034
306.025
306.016
306.008
306
305.992
305.984
305.976
305.969
306.082
306.072
306.062
306.053
306.043
306.033
306.024
306.015
306.006
305.998
305.989
305.981
305.974
305.966
306.082
306.072
306.062
306.052
306.043
306.033
306.023
306.014
306.005
305.996
305.988
305.979
305.971
305.963
306.081
306.072
306.062
306.052
306.042
306.032
306.023
306.013
306.004
305.995
305.986
305.977
305.969
305.961
306.082
306.072
306.062
306.052
306.042
306.032
306.022
306.012
306.003
305.994
305.985
305.976
305.967
305.959
306.081
306.071
306.062
306.052
306.042
306.032
306.022
306.012
306.002
305.993
305.984
305.975
305.966
305.957
306.082
306.072
306.062
306.052
306.042
306.032
306.022
306.012
306.002
305.992
305.983
305.974
305.965
305.956
306.082
306.072
306.062
306.052
306.042
306.032
306.022
306.012
306.002
305.992
305.982
305.973
305.964
305.955
306.083
306.072
306.062
306.052
306.042
306.032
306.022
306.012
306.002
305.992
305.982
305.973
305.964
305.954
306.082
306.072
306.063
306.053
306.043
306.033
306.023
306.013
306.003
305.993
305.984
305.974
305.965
305.955
305.996
305.987
305.978
305.969
305.96
305.952
305.944
305.935
305.927
305.919
305.911
305.903
305.896
305.888
305.99
305.981
305.972
305.964
305.955
305.946
305.938
305.929
305.92
305.912
305.903
305.895
305.887
305.879
305.984
305.975
305.966
305.957
305.949
305.94
305.931
305.922
305.914
305.905
305.896
305.888
305.88
305.871
305.977
305.969
305.96
305.951
305.942
305.933
305.925
305.916
305.907
305.898
305.889
305.88
305.872
305.863
305.971
305.963
305.954
305.945
305.936
305.927
305.918
305.909
305.9
305.89
305.881
305.872
305.864
305.855
305.964
305.956
305.947
305.938
305.929
305.92
305.911
305.901
305.892
305.883
305.874
305.864
305.855
305.846
305.958
305.949
305.94
305.931
305.922
305.913
305.903
305.894
305.884
305.875
305.866
305.856
305.847
305.837
305.951
305.942
305.933
305.924
305.915
305.905
305.896
305.886
305.877
305.867
305.857
305.848
305.838
305.829
305.944
305.935
305.926
305.917
305.908
305.898
305.888
305.878
305.868
305.859
305.849
305.839
305.829
305.82
305.937
305.928
305.919
305.909
305.9
305.89
305.88
305.87
305.86
305.85
305.84
305.831
305.82
305.811
305.93
305.92
305.911
305.902
305.892
305.882
305.872
305.862
305.852
305.842
305.831
305.822
305.811
305.802
305.922
305.912
305.903
305.894
305.884
305.874
305.864
305.854
305.844
305.833
305.823
305.813
305.803
305.794
305.915
305.905
305.896
305.886
305.876
305.866
305.856
305.845
305.835
305.825
305.814
305.804
305.794
305.784
305.907
305.897
305.888
305.878
305.868
305.858
305.847
305.837
305.827
305.817
305.806
305.796
305.786
305.777
305.848
305.84
305.833
305.826
305.819
305.811
305.804
305.796
305.788
305.779
305.771
305.762
305.755
305.746
305.836
305.83
305.823
305.817
305.809
305.802
305.794
305.786
305.778
305.769
305.761
305.752
305.744
305.735
305.826
305.82
305.813
305.806
305.799
305.792
305.784
305.776
305.768
305.76
305.751
305.742
305.734
305.725
305.815
305.81
305.803
305.796
305.789
305.781
305.774
305.766
305.758
305.749
305.74
305.731
305.723
305.714
305.804
305.799
305.792
305.785
305.778
305.771
305.763
305.755
305.747
305.738
305.729
305.721
305.712
305.703
305.793
305.788
305.781
305.774
305.767
305.759
305.752
305.743
305.735
305.727
305.718
305.709
305.701
305.691
305.782
305.776
305.769
305.762
305.755
305.748
305.74
305.732
305.723
305.715
305.706
305.697
305.688
305.679
305.77
305.764
305.758
305.75
305.743
305.735
305.728
305.719
305.711
305.702
305.694
305.685
305.676
305.667
305.759
305.752
305.745
305.738
305.731
305.723
305.715
305.707
305.698
305.69
305.681
305.672
305.663
305.654
305.746
305.739
305.733
305.725
305.718
305.71
305.702
305.694
305.685
305.677
305.667
305.659
305.649
305.641
305.734
305.727
305.72
305.713
305.705
305.697
305.689
305.68
305.672
305.663
305.654
305.645
305.636
305.628
305.721
305.713
305.707
305.699
305.691
305.683
305.675
305.667
305.658
305.649
305.64
305.632
305.622
305.615
305.71
305.701
305.694
305.686
305.678
305.67
305.662
305.653
305.644
305.635
305.626
305.617
305.608
305.601
305.696
305.687
305.68
305.672
305.664
305.656
305.648
305.639
305.631
305.622
305.613
305.604
305.595
305.588
305.619
305.615
305.611
305.607
305.603
305.598
305.592
305.586
305.58
305.574
305.567
305.56
305.553
305.546
305.605
305.603
305.6
305.596
305.592
305.587
305.581
305.576
305.569
305.563
305.556
305.549
305.542
305.535
305.594
305.592
305.588
305.585
305.58
305.575
305.57
305.564
305.558
305.552
305.545
305.538
305.532
305.524
305.581
305.58
305.576
305.572
305.568
305.563
305.558
305.552
305.546
305.54
305.534
305.527
305.52
305.513
305.569
305.567
305.564
305.56
305.556
305.551
305.546
305.54
305.534
305.528
305.522
305.515
305.509
305.501
305.557
305.554
305.551
305.547
305.543
305.538
305.533
305.527
305.521
305.515
305.509
305.502
305.496
305.489
305.544
305.541
305.538
305.534
305.529
305.524
305.519
305.514
305.508
305.502
305.496
305.489
305.483
305.476
305.531
305.528
305.524
305.52
305.515
305.511
305.506
305.5
305.494
305.489
305.482
305.476
305.47
305.463
305.518
305.514
305.51
305.506
305.502
305.497
305.492
305.486
305.48
305.475
305.468
305.462
305.456
305.45
305.504
305.5
305.496
305.492
305.487
305.482
305.477
305.472
305.466
305.46
305.454
305.448
305.441
305.436
305.49
305.485
305.482
305.477
305.473
305.468
305.463
305.457
305.452
305.446
305.44
305.434
305.427
305.423
305.476
305.47
305.467
305.462
305.458
305.453
305.448
305.442
305.437
305.431
305.425
305.419
305.412
305.408
305.462
305.456
305.452
305.448
305.443
305.438
305.433
305.427
305.422
305.416
305.41
305.404
305.398
305.394
305.447
305.442
305.437
305.433
305.428
305.423
305.418
305.413
305.407
305.401
305.396
305.39
305.384
305.38
305.314
305.315
305.314
305.314
305.313
305.311
305.309
305.307
305.304
305.301
305.297
305.293
305.29
305.285
305.304
305.305
305.304
305.304
305.303
305.302
305.3
305.298
305.295
305.292
305.288
305.284
305.281
305.276
305.294
305.295
305.294
305.294
305.293
305.292
305.29
305.288
305.285
305.282
305.279
305.275
305.272
305.267
305.284
305.285
305.284
305.284
305.283
305.281
305.28
305.277
305.275
305.272
305.269
305.266
305.262
305.258
305.273
305.274
305.274
305.273
305.272
305.271
305.269
305.267
305.264
305.262
305.259
305.256
305.253
305.249
305.263
305.263
305.263
305.262
305.261
305.26
305.258
305.256
305.254
305.251
305.248
305.245
305.242
305.239
305.252
305.252
305.251
305.251
305.25
305.248
305.247
305.245
305.243
305.24
305.237
305.235
305.232
305.228
305.241
305.24
305.24
305.239
305.238
305.237
305.235
305.233
305.231
305.229
305.226
305.223
305.221
305.218
305.229
305.229
305.228
305.227
305.226
305.225
305.223
305.222
305.219
305.217
305.215
305.212
305.209
305.207
305.218
305.217
305.216
305.215
305.214
305.213
305.211
305.21
305.208
305.205
305.203
305.2
305.198
305.196
305.206
305.205
305.204
305.203
305.202
305.201
305.199
305.198
305.196
305.193
305.191
305.189
305.186
305.185
305.195
305.192
305.192
305.191
305.19
305.189
305.187
305.186
305.184
305.181
305.179
305.177
305.174
305.174
305.183
305.181
305.18
305.179
305.178
305.177
305.175
305.173
305.171
305.169
305.167
305.165
305.162
305.163
305.171
305.169
305.168
305.167
305.166
305.164
305.163
305.161
305.159
305.157
305.155
305.153
305.151
305.151
304.961
304.965
304.967
304.97
304.972
304.974
304.975
304.977
304.977
304.978
304.978
304.977
304.977
304.976
304.956
304.96
304.962
304.965
304.967
304.969
304.97
304.971
304.972
304.972
304.973
304.972
304.972
304.971
304.951
304.954
304.957
304.959
304.961
304.963
304.964
304.966
304.966
304.967
304.967
304.967
304.967
304.966
304.945
304.949
304.951
304.953
304.955
304.957
304.958
304.96
304.961
304.961
304.962
304.962
304.962
304.961
304.94
304.943
304.945
304.947
304.949
304.951
304.952
304.953
304.954
304.955
304.956
304.956
304.956
304.956
304.933
304.936
304.938
304.941
304.943
304.944
304.946
304.947
304.948
304.949
304.95
304.95
304.95
304.95
304.927
304.93
304.932
304.934
304.936
304.938
304.939
304.941
304.942
304.943
304.943
304.944
304.944
304.944
304.92
304.923
304.925
304.927
304.929
304.931
304.933
304.934
304.935
304.936
304.937
304.937
304.938
304.938
304.914
304.916
304.918
304.92
304.922
304.924
304.926
304.927
304.928
304.929
304.93
304.931
304.932
304.932
304.907
304.909
304.911
304.913
304.915
304.917
304.919
304.92
304.921
304.922
304.923
304.924
304.925
304.926
304.9
304.902
304.904
304.906
304.908
304.91
304.912
304.913
304.914
304.916
304.917
304.918
304.918
304.919
304.893
304.895
304.897
304.899
304.901
304.903
304.904
304.906
304.907
304.908
304.91
304.911
304.911
304.913
304.886
304.888
304.89
304.892
304.894
304.896
304.897
304.899
304.9
304.901
304.902
304.904
304.904
304.906
304.879
304.881
304.883
304.885
304.887
304.889
304.89
304.892
304.893
304.894
304.895
304.896
304.897
304.898
304.597
304.601
304.606
304.61
304.613
304.617
304.621
304.624
304.627
304.63
304.632
304.635
304.636
304.638
304.597
304.601
304.605
304.609
304.613
304.617
304.62
304.624
304.627
304.63
304.632
304.634
304.636
304.638
304.596
304.601
304.605
304.609
304.612
304.616
304.62
304.623
304.626
304.629
304.632
304.634
304.636
304.638
304.596
304.6
304.604
304.608
304.612
304.616
304.619
304.622
304.626
304.628
304.631
304.633
304.636
304.637
304.595
304.599
304.603
304.607
304.611
304.615
304.618
304.622
304.625
304.628
304.63
304.633
304.635
304.637
304.594
304.598
304.602
304.606
304.61
304.614
304.617
304.62
304.624
304.627
304.629
304.632
304.634
304.636
304.593
304.597
304.601
304.605
304.609
304.612
304.616
304.619
304.622
304.625
304.628
304.631
304.633
304.635
304.591
304.596
304.6
304.604
304.607
304.611
304.614
304.618
304.621
304.624
304.627
304.629
304.632
304.634
304.59
304.594
304.598
304.602
304.606
304.609
304.613
304.616
304.619
304.622
304.625
304.628
304.63
304.633
304.588
304.592
304.596
304.6
304.604
304.608
304.611
304.615
304.618
304.621
304.624
304.626
304.629
304.631
304.586
304.59
304.594
304.598
304.602
304.606
304.609
304.613
304.616
304.619
304.622
304.625
304.627
304.63
304.584
304.589
304.592
304.596
304.6
304.604
304.607
304.611
304.614
304.617
304.62
304.623
304.625
304.628
304.583
304.587
304.59
304.594
304.598
304.602
304.605
304.609
304.612
304.615
304.618
304.621
304.623
304.626
304.581
304.585
304.589
304.593
304.596
304.6
304.603
304.606
304.61
304.613
304.615
304.618
304.621
304.624
304.247
304.25
304.255
304.259
304.262
304.266
304.27
304.274
304.277
304.281
304.284
304.287
304.29
304.293
304.25
304.254
304.258
304.262
304.266
304.27
304.274
304.278
304.281
304.285
304.288
304.291
304.293
304.296
304.253
304.257
304.261
304.265
304.269
304.273
304.277
304.281
304.284
304.288
304.291
304.294
304.296
304.299
304.256
304.26
304.264
304.268
304.273
304.277
304.281
304.284
304.288
304.291
304.294
304.297
304.3
304.302
304.259
304.263
304.267
304.272
304.276
304.28
304.284
304.287
304.291
304.294
304.297
304.3
304.302
304.305
304.262
304.266
304.27
304.274
304.279
304.283
304.287
304.29
304.294
304.297
304.3
304.303
304.305
304.308
304.264
304.268
304.273
304.277
304.281
304.285
304.289
304.293
304.296
304.3
304.303
304.305
304.308
304.31
304.266
304.271
304.275
304.28
304.284
304.288
304.292
304.295
304.299
304.302
304.305
304.308
304.311
304.313
304.269
304.273
304.278
304.282
304.286
304.29
304.294
304.298
304.301
304.304
304.307
304.31
304.313
304.315
304.27
304.275
304.28
304.284
304.288
304.292
304.296
304.3
304.303
304.306
304.31
304.312
304.315
304.317
304.272
304.277
304.281
304.286
304.29
304.294
304.298
304.302
304.305
304.308
304.311
304.314
304.317
304.319
304.274
304.279
304.283
304.287
304.292
304.296
304.299
304.303
304.307
304.31
304.313
304.316
304.319
304.321
304.275
304.28
304.284
304.289
304.293
304.297
304.301
304.305
304.308
304.312
304.315
304.318
304.32
304.323
304.277
304.282
304.286
304.29
304.294
304.298
304.302
304.306
304.309
304.313
304.316
304.319
304.322
304.324
303.923
303.925
303.928
303.931
303.934
303.936
303.939
303.942
303.945
303.947
303.95
303.952
303.954
303.956
303.927
303.929
303.932
303.935
303.938
303.941
303.944
303.947
303.95
303.952
303.955
303.957
303.959
303.961
303.931
303.934
303.937
303.94
303.943
303.946
303.949
303.952
303.954
303.957
303.959
303.961
303.963
303.965
303.935
303.938
303.941
303.945
303.948
303.951
303.954
303.957
303.959
303.962
303.964
303.966
303.968
303.97
303.939
303.943
303.946
303.949
303.952
303.955
303.958
303.961
303.964
303.966
303.968
303.97
303.972
303.974
303.944
303.947
303.95
303.954
303.957
303.96
303.963
303.966
303.968
303.971
303.973
303.975
303.976
303.978
303.948
303.951
303.954
303.958
303.961
303.964
303.967
303.97
303.972
303.975
303.977
303.979
303.981
303.982
303.951
303.955
303.958
303.962
303.965
303.968
303.971
303.974
303.976
303.979
303.981
303.983
303.985
303.986
303.955
303.959
303.962
303.966
303.969
303.972
303.975
303.978
303.98
303.983
303.985
303.987
303.988
303.99
303.958
303.962
303.966
303.969
303.972
303.976
303.978
303.981
303.984
303.986
303.988
303.99
303.992
303.993
303.962
303.966
303.969
303.973
303.976
303.979
303.982
303.985
303.987
303.99
303.992
303.994
303.995
303.997
303.965
303.969
303.972
303.976
303.979
303.982
303.985
303.988
303.99
303.993
303.995
303.997
303.999
304
303.968
303.972
303.975
303.979
303.982
303.985
303.988
303.991
303.993
303.996
303.998
304
304.002
304.003
303.971
303.975
303.978
303.982
303.985
303.988
303.991
303.994
303.996
303.999
304.001
304.003
304.005
304.007
303.627
303.628
303.629
303.631
303.632
303.633
303.635
303.636
303.637
303.639
303.64
303.641
303.642
303.643
303.631
303.632
303.633
303.634
303.636
303.637
303.639
303.64
303.641
303.643
303.644
303.645
303.646
303.647
303.634
303.635
303.637
303.638
303.64
303.641
303.642
303.644
303.645
303.646
303.647
303.648
303.649
303.65
303.638
303.639
303.64
303.642
303.643
303.645
303.646
303.648
303.649
303.65
303.651
303.652
303.653
303.654
303.641
303.642
303.644
303.646
303.647
303.649
303.65
303.651
303.653
303.654
303.655
303.656
303.657
303.658
303.644
303.646
303.648
303.649
303.651
303.652
303.654
303.655
303.656
303.658
303.659
303.659
303.66
303.661
303.648
303.65
303.651
303.653
303.655
303.656
303.658
303.659
303.66
303.661
303.662
303.663
303.664
303.665
303.651
303.653
303.655
303.656
303.658
303.66
303.661
303.662
303.664
303.665
303.666
303.667
303.667
303.668
303.654
303.656
303.658
303.66
303.662
303.663
303.665
303.666
303.667
303.668
303.669
303.67
303.671
303.671
303.658
303.66
303.661
303.663
303.665
303.666
303.668
303.669
303.67
303.672
303.672
303.673
303.674
303.674
303.661
303.663
303.665
303.666
303.668
303.67
303.671
303.672
303.674
303.675
303.676
303.677
303.677
303.678
303.664
303.666
303.668
303.669
303.671
303.673
303.674
303.676
303.677
303.678
303.679
303.68
303.68
303.681
303.667
303.669
303.671
303.672
303.674
303.676
303.677
303.679
303.68
303.681
303.682
303.683
303.683
303.684
303.67
303.672
303.673
303.675
303.677
303.678
303.68
303.681
303.683
303.684
303.685
303.686
303.687
303.687
303.359
303.359
303.359
303.359
303.359
303.359
303.359
303.359
303.359
303.359
303.36
303.36
303.36
303.36
303.361
303.361
303.361
303.361
303.361
303.361
303.361
303.361
303.361
303.361
303.361
303.362
303.362
303.362
303.362
303.362
303.362
303.362
303.362
303.362
303.362
303.363
303.363
303.363
303.363
303.363
303.364
303.364
303.364
303.364
303.364
303.364
303.364
303.364
303.364
303.364
303.365
303.365
303.365
303.365
303.366
303.366
303.366
303.366
303.366
303.366
303.366
303.366
303.366
303.366
303.366
303.367
303.367
303.367
303.367
303.368
303.368
303.368
303.368
303.368
303.368
303.368
303.368
303.368
303.368
303.369
303.369
303.369
303.369
303.37
303.37
303.37
303.37
303.37
303.37
303.37
303.37
303.37
303.371
303.371
303.371
303.371
303.371
303.372
303.372
303.372
303.372
303.372
303.372
303.372
303.372
303.372
303.373
303.373
303.373
303.373
303.374
303.374
303.374
303.374
303.374
303.374
303.374
303.374
303.375
303.375
303.375
303.375
303.375
303.375
303.376
303.376
303.376
303.376
303.376
303.376
303.376
303.377
303.377
303.377
303.377
303.377
303.377
303.377
303.378
303.378
303.378
303.378
303.378
303.378
303.379
303.379
303.379
303.379
303.379
303.379
303.379
303.38
303.38
303.38
303.38
303.38
303.38
303.381
303.381
303.381
303.381
303.381
303.381
303.381
303.382
303.382
303.382
303.382
303.382
303.383
303.383
303.383
303.383
303.383
303.383
303.383
303.384
303.384
303.384
303.384
303.384
303.384
303.385
303.385
303.385
303.385
303.385
303.385
303.385
303.386
303.386
303.386
303.386
303.386
303.386
303.386
303.117
303.116
303.115
303.114
303.114
303.113
303.113
303.112
303.112
303.111
303.111
303.111
303.111
303.111
303.117
303.116
303.115
303.114
303.114
303.113
303.112
303.112
303.111
303.111
303.111
303.111
303.111
303.111
303.117
303.116
303.115
303.114
303.114
303.113
303.112
303.112
303.111
303.111
303.111
303.111
303.111
303.111
303.117
303.116
303.115
303.114
303.114
303.113
303.112
303.112
303.112
303.111
303.111
303.111
303.111
303.111
303.118
303.117
303.116
303.115
303.114
303.113
303.113
303.112
303.112
303.112
303.111
303.111
303.112
303.112
303.118
303.117
303.116
303.115
303.114
303.114
303.113
303.113
303.112
303.112
303.112
303.112
303.112
303.112
303.119
303.118
303.117
303.116
303.115
303.114
303.113
303.113
303.113
303.112
303.112
303.112
303.113
303.113
303.119
303.118
303.117
303.116
303.115
303.115
303.114
303.114
303.113
303.113
303.113
303.113
303.113
303.113
303.12
303.119
303.118
303.117
303.116
303.116
303.115
303.114
303.114
303.114
303.114
303.114
303.114
303.114
303.121
303.12
303.119
303.118
303.117
303.116
303.116
303.115
303.115
303.115
303.115
303.115
303.115
303.115
303.122
303.121
303.12
303.119
303.118
303.118
303.117
303.116
303.116
303.116
303.116
303.115
303.116
303.115
303.123
303.122
303.121
303.12
303.119
303.119
303.118
303.118
303.117
303.117
303.117
303.117
303.116
303.116
303.124
303.123
303.122
303.121
303.121
303.12
303.119
303.119
303.118
303.118
303.118
303.118
303.118
303.117
303.125
303.124
303.123
303.122
303.122
303.121
303.121
303.12
303.12
303.119
303.119
303.119
303.119
303.118
302.899
302.898
302.897
302.896
302.896
302.895
302.894
302.894
302.893
302.893
302.892
302.892
302.892
302.892
302.898
302.897
302.896
302.896
302.895
302.894
302.893
302.893
302.892
302.892
302.892
302.891
302.891
302.891
302.898
302.897
302.896
302.895
302.894
302.893
302.892
302.892
302.891
302.891
302.891
302.891
302.891
302.891
302.897
302.896
302.895
302.894
302.893
302.892
302.892
302.891
302.891
302.89
302.89
302.89
302.89
302.89
302.897
302.896
302.894
302.893
302.893
302.892
302.891
302.891
302.89
302.89
302.89
302.89
302.89
302.89
302.896
302.895
302.894
302.893
302.892
302.891
302.891
302.89
302.89
302.889
302.889
302.889
302.889
302.889
302.896
302.895
302.894
302.893
302.892
302.891
302.89
302.89
302.889
302.889
302.889
302.889
302.889
302.889
302.896
302.895
302.894
302.892
302.892
302.891
302.89
302.889
302.889
302.889
302.889
302.889
302.889
302.889
302.896
302.895
302.893
302.892
302.891
302.891
302.89
302.889
302.889
302.889
302.888
302.888
302.888
302.889
302.896
302.895
302.894
302.893
302.892
302.891
302.89
302.889
302.889
302.889
302.888
302.888
302.888
302.889
302.896
302.895
302.894
302.893
302.892
302.891
302.89
302.89
302.889
302.889
302.889
302.888
302.889
302.889
302.896
302.895
302.894
302.893
302.892
302.891
302.891
302.89
302.889
302.889
302.889
302.889
302.889
302.889
302.897
302.896
302.894
302.893
302.893
302.892
302.891
302.89
302.89
302.89
302.889
302.889
302.889
302.889
302.897
302.896
302.895
302.894
302.893
302.892
302.892
302.891
302.89
302.89
302.89
302.889
302.889
302.889
306.801
306.779
306.754
306.728
306.701
306.673
306.814
306.8
306.78
306.762
306.744
306.724
306.424
306.393
306.365
306.338
306.314
306.29
306.435
306.402
306.372
306.341
306.313
306.285
306.446
306.408
306.374
306.341
306.311
306.282
306.458
306.417
306.381
306.345
306.313
306.282
306.469
306.427
306.388
306.351
306.317
306.285
306.481
306.438
306.398
306.359
306.323
306.29
306.493
306.45
306.408
306.369
306.332
306.298
306.506
306.463
306.421
306.381
306.343
306.308
306.518
306.476
306.435
306.396
306.357
306.321
306.53
306.492
306.452
306.414
306.376
306.34
306.543
306.508
306.472
306.436
306.4
306.365
306.556
306.526
306.493
306.461
306.429
306.396
306.572
306.547
306.519
306.491
306.464
306.436
306.581
306.564
306.542
306.522
306.501
306.48
306.301
306.278
306.258
306.239
306.223
306.207
306.306
306.281
306.258
306.235
306.214
306.195
306.308
306.28
306.254
306.23
306.207
306.186
306.313
306.282
306.254
306.228
306.203
306.181
306.318
306.286
306.255
306.228
306.202
306.18
306.324
306.29
306.259
306.23