/*--------------------------------*- C++ -*----------------------------------*\
| =========                 |                                                 |
| \\      /  F ield         | OpenFOAM: The Open Source CFD Toolbox           |
|  \\    /   O peration     | Version:  v2106                                 |
|   \\  /    A nd           | Website:  www.openfoam.com                      |
|    \\/     M anipulation  |                                                 |
\*---------------------------------------------------------------------------*/
FoamFile
{
    version     2.0;
    format      ascii;
    arch        "LSB;label=32;scalar=64";
    class       volVectorField;
    location    "0.000216";
    object      U;
}
// * * * * * * * * * * * * * * * * * * * * * * * * * * * * * * * * * * * * * //

dimensions      [0 1 -1 0 0 0 0];

internalField   nonuniform List<vector> 
17920
(
(0.183499 -0.779917 21.4725)
(0.222168 -0.802454 21.478)
(0.170952 -0.800964 21.5399)
(0.208802 -0.808517 21.5438)
(0.175327 -0.773399 21.6205)
(0.212625 -0.775109 21.628)
(0.168606 -0.777557 21.7058)
(0.206495 -0.775561 21.7194)
(0.163005 -0.754444 21.7805)
(0.203007 -0.748103 21.7979)
(0.154744 -0.746768 21.848)
(0.194275 -0.737306 21.8709)
(0.149551 -0.728167 21.9067)
(0.183138 -0.716122 21.9368)
(0.146463 -0.709111 21.9638)
(0.168806 -0.698575 22.0015)
(0.150607 -0.681932 22.0212)
(0.16534 -0.677069 22.0649)
(0.149354 -0.654307 22.0816)
(0.161209 -0.647551 22.1274)
(0.150425 -0.621435 22.1423)
(0.160906 -0.621783 22.195)
(0.136348 -0.592574 22.2017)
(0.149621 -0.591966 22.256)
(0.121216 -0.553774 22.2478)
(0.140363 -0.569751 22.2973)
(0.100441 -0.520663 22.2833)
(0.122242 -0.540791 22.299)
(0.0771547 -0.478049 20.4037)
(0.110455 -0.468498 20.433)
(0.111727 -0.468834 20.4718)
(0.131108 -0.464573 20.5034)
(0.145301 -0.46522 20.5353)
(0.161504 -0.461846 20.5654)
(0.17697 -0.459323 20.5957)
(0.194745 -0.455326 20.6241)
(0.211869 -0.452893 20.6526)
(0.233098 -0.450546 20.6787)
(0.255212 -0.44495 20.7063)
(0.279531 -0.443488 20.7326)
(0.302406 -0.441198 20.7571)
(0.337335 -0.457583 20.7573)
(0.0843793 -0.451108 20.4613)
(0.119124 -0.450414 20.5023)
(0.114912 -0.450888 20.5465)
(0.137893 -0.451282 20.5772)
(0.149899 -0.451184 20.6109)
(0.168064 -0.451311 20.6415)
(0.181824 -0.452612 20.6737)
(0.199535 -0.454127 20.7035)
(0.214425 -0.457728 20.7337)
(0.233663 -0.461486 20.7606)
(0.250332 -0.463758 20.7888)
(0.274554 -0.467458 20.8108)
(0.290167 -0.466539 20.8352)
(0.325407 -0.470757 20.8365)
(0.0718178 -0.433879 20.5395)
(0.108629 -0.438408 20.5793)
(0.107708 -0.442284 20.6237)
(0.132074 -0.448715 20.6533)
(0.144774 -0.449645 20.6878)
(0.164731 -0.449204 20.7189)
(0.179562 -0.448465 20.7524)
(0.199383 -0.447966 20.7831)
(0.216362 -0.449299 20.8146)
(0.237747 -0.451638 20.8428)
(0.255423 -0.452417 20.8731)
(0.281111 -0.453312 20.8977)
(0.294661 -0.449927 20.9267)
(0.331133 -0.452418 20.9338)
(0.0732242 -0.423564 20.6252)
(0.105845 -0.431008 20.6586)
(0.108555 -0.433882 20.7)
(0.131823 -0.439739 20.7296)
(0.143787 -0.44059 20.7645)
(0.163233 -0.441821 20.7967)
(0.17812 -0.443568 20.8312)
(0.198018 -0.446558 20.863)
(0.214955 -0.45078 20.8955)
(0.235977 -0.455651 20.9248)
(0.253144 -0.459582 20.9568)
(0.27855 -0.461815 20.9852)
(0.291789 -0.459403 21.0184)
(0.32623 -0.458408 21.0296)
(0.0726551 -0.402187 20.705)
(0.10411 -0.415097 20.7345)
(0.109878 -0.42107 20.7743)
(0.130291 -0.429315 20.8059)
(0.142183 -0.431945 20.8412)
(0.160656 -0.434202 20.8743)
(0.175631 -0.43619 20.9093)
(0.194972 -0.438742 20.942)
(0.211666 -0.441887 20.975)
(0.231862 -0.446233 21.0053)
(0.248644 -0.450026 21.0376)
(0.272297 -0.451965 21.068)
(0.286985 -0.449632 21.1028)
(0.323253 -0.443757 21.1181)
(0.0746901 -0.390088 20.7802)
(0.103215 -0.404356 20.8093)
(0.112232 -0.407618 20.8476)
(0.129026 -0.414816 20.8811)
(0.140858 -0.418484 20.9165)
(0.157691 -0.422503 20.9508)
(0.172764 -0.42654 20.9862)
(0.191223 -0.431365 21.02)
(0.207902 -0.436049 21.0537)
(0.226879 -0.441411 21.0849)
(0.243491 -0.446042 21.1171)
(0.264514 -0.448647 21.1482)
(0.28222 -0.449586 21.1818)
(0.316723 -0.441994 21.2018)
(0.076498 -0.372548 20.8498)
(0.0976171 -0.388024 20.8825)
(0.110402 -0.3902 20.9198)
(0.12424 -0.398285 20.955)
(0.137455 -0.403744 20.9906)
(0.153053 -0.40915 21.0258)
(0.168754 -0.413985 21.0614)
(0.186294 -0.418929 21.0959)
(0.203158 -0.423223 21.1299)
(0.220942 -0.428112 21.1622)
(0.238246 -0.432707 21.1943)
(0.257072 -0.437182 21.2262)
(0.279495 -0.44383 21.2566)
(0.308066 -0.43418 21.2828)
(0.0790905 -0.354832 20.917)
(0.0896944 -0.36903 20.9538)
(0.106705 -0.370418 20.9901)
(0.117636 -0.37819 21.0269)
(0.132496 -0.384939 21.0624)
(0.146819 -0.391933 21.0986)
(0.163718 -0.398528 21.1344)
(0.180603 -0.40522 21.17)
(0.198528 -0.410679 21.2044)
(0.215653 -0.41613 21.2379)
(0.234503 -0.421159 21.2703)
(0.251884 -0.427471 21.3032)
(0.278471 -0.43627 21.33)
(0.296537 -0.426101 21.3627)
(0.073648 -0.335737 20.9843)
(0.0771416 -0.348466 21.0222)
(0.0967911 -0.351145 21.0585)
(0.107279 -0.35868 21.0971)
(0.125055 -0.366373 21.1325)
(0.139207 -0.374536 21.1697)
(0.157828 -0.381987 21.2054)
(0.174663 -0.388725 21.2417)
(0.194233 -0.394105 21.276)
(0.211595 -0.399216 21.3103)
(0.233503 -0.405063 21.3427)
(0.251067 -0.414529 21.3775)
(0.281714 -0.424063 21.4037)
(0.292852 -0.418294 21.4414)
(0.0663603 -0.306689 21.0519)
(0.0659687 -0.319437 21.0887)
(0.0867527 -0.326184 21.1249)
(0.0957682 -0.335073 21.1647)
(0.115421 -0.343943 21.1999)
(0.129428 -0.353393 21.238)
(0.149746 -0.362618 21.2739)
(0.166927 -0.371134 21.311)
(0.188217 -0.378043 21.3452)
(0.206048 -0.384227 21.3801)
(0.230589 -0.39144 21.412)
(0.247822 -0.401271 21.4493)
(0.281886 -0.407401 21.4781)
(0.28881 -0.40053 21.5191)
(0.0510885 -0.284698 21.1248)
(0.0501089 -0.297804 21.1594)
(0.0733826 -0.305944 21.1925)
(0.0831233 -0.315094 21.2321)
(0.105194 -0.324998 21.2668)
(0.120563 -0.334867 21.3052)
(0.142202 -0.344294 21.3409)
(0.160287 -0.351796 21.3778)
(0.182904 -0.358128 21.4114)
(0.201766 -0.363572 21.4462)
(0.229198 -0.371404 21.4776)
(0.245515 -0.383542 21.5191)
(0.283553 -0.389997 21.5545)
(0.287975 -0.389117 21.6029)
(0.0444333 -0.246249 21.1956)
(0.0433039 -0.260809 21.2277)
(0.0680016 -0.273149 21.2583)
(0.0755729 -0.284887 21.2974)
(0.0960911 -0.297791 21.3314)
(0.111315 -0.308893 21.369)
(0.132377 -0.320666 21.4047)
(0.150654 -0.330826 21.4418)
(0.173118 -0.339899 21.4756)
(0.191857 -0.347709 21.5107)
(0.219463 -0.356106 21.5427)
(0.23409 -0.367422 21.5879)
(0.273629 -0.370268 21.631)
(0.276697 -0.366687 21.6869)
(0.0328618 -0.231485 21.2653)
(0.0312527 -0.245827 21.2957)
(0.0553908 -0.256897 21.3259)
(0.0652102 -0.264581 21.3639)
(0.0844639 -0.27877 21.3965)
(0.102181 -0.28852 21.4322)
(0.122259 -0.299167 21.4673)
(0.141659 -0.30586 21.5027)
(0.162955 -0.311716 21.5359)
(0.182484 -0.31599 21.57)
(0.209811 -0.321282 21.6038)
(0.224221 -0.335217 21.652)
(0.264175 -0.343021 21.7004)
(0.272415 -0.356934 21.7568)
(0.0386481 -0.189745 21.3073)
(0.0343959 -0.194068 21.3376)
(0.0469558 -0.209702 21.3759)
(0.0606764 -0.219873 21.4152)
(0.0743153 -0.238948 21.4506)
(0.0938801 -0.252179 21.4861)
(0.11056 -0.267394 21.5235)
(0.130382 -0.279869 21.5607)
(0.151229 -0.291779 21.5973)
(0.173794 -0.302641 21.6338)
(0.200317 -0.309527 21.6717)
(0.216892 -0.323557 21.7166)
(0.239571 -0.32886 21.756)
(0.251918 -0.345575 21.78)
(0.16633 -0.2059 19.9626)
(0.191347 -0.187808 19.9767)
(0.199679 -0.186792 19.9947)
(0.217052 -0.185494 20.0058)
(0.23325 -0.18105 20.0184)
(0.248747 -0.176311 20.0321)
(0.263096 -0.170623 20.047)
(0.278895 -0.164278 20.0603)
(0.294256 -0.15904 20.0754)
(0.313457 -0.153974 20.087)
(0.332849 -0.147084 20.1015)
(0.356077 -0.139426 20.1135)
(0.377457 -0.13042 20.1263)
(0.40639 -0.141498 20.1245)
(0.17082 -0.185786 20.0227)
(0.198976 -0.183203 20.0408)
(0.206095 -0.177365 20.0589)
(0.226544 -0.174656 20.0676)
(0.243698 -0.169481 20.0813)
(0.261062 -0.165627 20.095)
(0.275057 -0.161276 20.1114)
(0.290472 -0.157591 20.126)
(0.303973 -0.155667 20.1427)
(0.320612 -0.154163 20.1562)
(0.335635 -0.152404 20.1726)
(0.356713 -0.151865 20.1837)
(0.373364 -0.14558 20.1978)
(0.402822 -0.147354 20.1977)
(0.166905 -0.159228 20.0904)
(0.1948 -0.161173 20.1067)
(0.204539 -0.16113 20.1236)
(0.225296 -0.162957 20.1319)
(0.242455 -0.159792 20.147)
(0.260688 -0.156351 20.1613)
(0.275625 -0.152141 20.1788)
(0.292781 -0.148553 20.1944)
(0.308181 -0.146399 20.2121)
(0.326536 -0.145602 20.2269)
(0.342865 -0.143732 20.2446)
(0.364267 -0.143005 20.258)
(0.378045 -0.134887 20.2769)
(0.408956 -0.133511 20.2812)
(0.169501 -0.146799 20.1628)
(0.195214 -0.153955 20.1746)
(0.208081 -0.153127 20.1896)
(0.228207 -0.153743 20.1986)
(0.24473 -0.150846 20.2148)
(0.263246 -0.148273 20.23)
(0.278745 -0.145992 20.2485)
(0.296347 -0.144931 20.2652)
(0.311815 -0.144747 20.2839)
(0.329494 -0.145457 20.2998)
(0.344709 -0.145277 20.3182)
(0.364494 -0.145446 20.3339)
(0.377306 -0.13878 20.3559)
(0.406892 -0.136232 20.3637)
(0.172609 -0.125605 20.2282)
(0.198358 -0.135691 20.2383)
(0.212335 -0.138199 20.2548)
(0.231076 -0.141206 20.2664)
(0.246564 -0.14063 20.2839)
(0.264297 -0.139257 20.3002)
(0.27947 -0.137939 20.3194)
(0.296567 -0.137289 20.3371)
(0.311665 -0.136932 20.3565)
(0.328709 -0.137932 20.3734)
(0.343585 -0.137783 20.3921)
(0.361932 -0.137836 20.4087)
(0.37552 -0.133403 20.4312)
(0.405564 -0.128714 20.4418)
(0.174674 -0.113398 20.2926)
(0.199132 -0.122992 20.3041)
(0.214696 -0.124009 20.3215)
(0.232616 -0.127105 20.3353)
(0.247787 -0.128317 20.3534)
(0.264764 -0.128884 20.3711)
(0.279891 -0.129767 20.3911)
(0.296562 -0.131307 20.4101)
(0.311678 -0.132404 20.4303)
(0.328107 -0.134405 20.4485)
(0.34269 -0.134684 20.4676)
(0.359667 -0.13496 20.4849)
(0.375345 -0.132931 20.5062)
(0.402231 -0.127042 20.5199)
(0.175518 -0.0977983 20.356)
(0.196605 -0.107232 20.3712)
(0.214256 -0.108285 20.3889)
(0.231465 -0.112632 20.405)
(0.247142 -0.115976 20.4235)
(0.263477 -0.118213 20.4425)
(0.278735 -0.120341 20.4632)
(0.29477 -0.122381 20.4834)
(0.309856 -0.123536 20.5042)
(0.32561 -0.125542 20.5238)
(0.340362 -0.126191 20.5435)
(0.356567 -0.128066 20.5622)
(0.375448 -0.130898 20.5817)
(0.398356 -0.123785 20.5991)
(0.174989 -0.0808254 20.4202)
(0.191371 -0.0915217 20.4392)
(0.211432 -0.0917659 20.4562)
(0.227538 -0.0963747 20.4744)
(0.244167 -0.101185 20.4931)
(0.260161 -0.105287 20.5137)
(0.276346 -0.109402 20.535)
(0.292283 -0.113279 20.5568)
(0.308285 -0.115694 20.5783)
(0.323909 -0.118409 20.5992)
(0.339534 -0.119667 20.6195)
(0.355216 -0.123343 20.6398)
(0.376679 -0.129029 20.6573)
(0.392594 -0.119839 20.6791)
(0.17076 -0.0641605 20.4856)
(0.182571 -0.0762238 20.5064)
(0.204623 -0.076286 20.523)
(0.220587 -0.0813997 20.5437)
(0.239321 -0.0874268 20.5627)
(0.255535 -0.0930867 20.5848)
(0.272963 -0.0983818 20.6066)
(0.289176 -0.102695 20.6297)
(0.306503 -0.105393 20.6516)
(0.322619 -0.107968 20.6736)
(0.340146 -0.110211 20.6939)
(0.35619 -0.116878 20.7157)
(0.380324 -0.124451 20.7327)
(0.390506 -0.116717 20.7588)
(0.166298 -0.0405879 20.5511)
(0.17285 -0.055669 20.5719)
(0.195785 -0.0591774 20.5888)
(0.210809 -0.0655205 20.6121)
(0.231394 -0.0722809 20.6314)
(0.248074 -0.0791446 20.6549)
(0.267111 -0.0858336 20.6774)
(0.284181 -0.0916825 20.7018)
(0.303237 -0.0955951 20.7243)
(0.320277 -0.0988546 20.7468)
(0.339741 -0.101967 20.7668)
(0.356038 -0.109342 20.79)
(0.382775 -0.114713 20.8086)
(0.388126 -0.106352 20.8384)
(0.15463 -0.0231317 20.6204)
(0.159829 -0.0389358 20.6394)
(0.184931 -0.0430884 20.6551)
(0.201344 -0.0501412 20.68)
(0.224304 -0.0580791 20.6999)
(0.242201 -0.0664178 20.7245)
(0.262375 -0.0740609 20.7479)
(0.280334 -0.0799175 20.7732)
(0.300614 -0.0842603 20.7958)
(0.318825 -0.0875285 20.8185)
(0.340291 -0.0920574 20.8379)
(0.355761 -0.102121 20.8636)
(0.385101 -0.107356 20.8867)
(0.386726 -0.102597 20.9227)
(0.150338 0.00498246 20.69)
(0.154715 -0.0140159 20.7084)
(0.17969 -0.0232818 20.7235)
(0.194052 -0.0328297 20.7483)
(0.215513 -0.0420784 20.7683)
(0.233234 -0.0508701 20.793)
(0.253545 -0.0595881 20.8171)
(0.272165 -0.0670367 20.843)
(0.292896 -0.0729247 20.8661)
(0.311664 -0.0771227 20.8886)
(0.333483 -0.0815907 20.9079)
(0.348304 -0.0892643 20.9365)
(0.380959 -0.0907686 20.966)
(0.379692 -0.0854801 21.0117)
(0.137535 0.00965616 20.7572)
(0.145497 -0.00314946 20.778)
(0.169419 -0.00778663 20.7928)
(0.186747 -0.0147656 20.8157)
(0.208053 -0.0261288 20.8362)
(0.227849 -0.036071 20.8606)
(0.247884 -0.0454709 20.8858)
(0.26698 -0.0517832 20.9116)
(0.286797 -0.0570897 20.9351)
(0.30574 -0.0601701 20.9575)
(0.327711 -0.0642027 20.9783)
(0.341713 -0.0749967 21.0098)
(0.376728 -0.0789045 21.045)
(0.379848 -0.0842378 21.0971)
(0.146522 0.0350825 20.8071)
(0.149627 0.0352223 20.8295)
(0.161913 0.0236138 20.8547)
(0.178721 0.0125508 20.8782)
(0.195821 -0.00267354 20.9007)
(0.21635 -0.0140726 20.9245)
(0.234823 -0.0254298 20.951)
(0.25441 -0.0346197 20.9774)
(0.274492 -0.0427941 21.0028)
(0.295711 -0.049105 21.0267)
(0.318638 -0.0532584 21.0507)
(0.33383 -0.0641324 21.082)
(0.354982 -0.0692074 21.1139)
(0.356233 -0.0829153 21.1408)
(0.174864 0.00871082 19.623)
(0.199766 0.0194088 19.6282)
(0.217867 0.0199384 19.621)
(0.236317 0.0223961 19.6174)
(0.253486 0.0301084 19.6148)
(0.27135 0.0361761 19.6131)
(0.288671 0.0434264 19.6135)
(0.305663 0.0507525 19.6118)
(0.323605 0.0573415 19.6138)
(0.342713 0.063076 19.6119)
(0.363309 0.0707336 19.6138)
(0.385684 0.0794955 19.6113)
(0.406737 0.0919875 19.613)
(0.431891 0.0855753 19.612)
(0.175633 0.0249087 19.6773)
(0.204736 0.0294626 19.6799)
(0.225187 0.03507 19.6688)
(0.247179 0.0386485 19.6616)
(0.267426 0.0468832 19.6582)
(0.286542 0.0537333 19.6554)
(0.303988 0.0615376 19.6563)
(0.320408 0.0681472 19.655)
(0.336868 0.0735452 19.6582)
(0.353611 0.078124 19.6574)
(0.371225 0.0830572 19.6612)
(0.391149 0.086521 19.6608)
(0.409918 0.0954372 19.6639)
(0.434815 0.0961786 19.6659)
(0.175693 0.0570602 19.726)
(0.206026 0.0559652 19.7256)
(0.227841 0.0595876 19.7138)
(0.249827 0.0603518 19.7064)
(0.26995 0.0668977 19.7043)
(0.288799 0.0731367 19.7014)
(0.306935 0.0803963 19.7029)
(0.324808 0.0862684 19.702)
(0.34278 0.0912148 19.7054)
(0.361081 0.094307 19.7054)
(0.379547 0.0982713 19.7097)
(0.399265 0.100208 19.7108)
(0.416783 0.108631 19.7161)
(0.440428 0.113143 19.7203)
(0.179734 0.0757241 19.7753)
(0.209954 0.0721199 19.7731)
(0.232348 0.0766731 19.7626)
(0.25407 0.0783213 19.755)
(0.274749 0.0836547 19.7537)
(0.294193 0.0888043 19.751)
(0.313153 0.0943316 19.7531)
(0.331659 0.0984443 19.7528)
(0.349719 0.102209 19.7566)
(0.367472 0.104823 19.7571)
(0.384655 0.108565 19.7617)
(0.402443 0.110426 19.7633)
(0.418425 0.117903 19.7691)
(0.44115 0.122845 19.7751)
(0.187274 0.0977201 19.8203)
(0.215682 0.0954837 19.8169)
(0.238224 0.0973711 19.8113)
(0.259063 0.0971977 19.8056)
(0.279277 0.100436 19.8051)
(0.298404 0.104536 19.803)
(0.317063 0.109199 19.8052)
(0.3352 0.112925 19.8054)
(0.3527 0.116864 19.8092)
(0.369947 0.119053 19.8104)
(0.386462 0.122589 19.815)
(0.40324 0.124583 19.8166)
(0.419072 0.130295 19.8222)
(0.441244 0.133727 19.8281)
(0.191562 0.116343 19.8684)
(0.218253 0.115444 19.865)
(0.241502 0.116526 19.8625)
(0.262492 0.116622 19.8577)
(0.282682 0.118168 19.8576)
(0.301929 0.120543 19.8567)
(0.320635 0.123151 19.8593)
(0.338828 0.124963 19.8608)
(0.356162 0.127701 19.865)
(0.373048 0.129005 19.8674)
(0.388853 0.132354 19.8722)
(0.40506 0.134695 19.8741)
(0.421426 0.139365 19.8795)
(0.442506 0.142529 19.8846)
(0.193833 0.135049 19.9188)
(0.219439 0.134027 19.9165)
(0.243413 0.134078 19.9156)
(0.26476 0.133774 19.9121)
(0.285039 0.133704 19.9122)
(0.304297 0.134932 19.9125)
(0.32287 0.136631 19.9154)
(0.340858 0.138132 19.918)
(0.357822 0.141007 19.9225)
(0.374204 0.142301 19.9261)
(0.38947 0.14528 19.9311)
(0.405557 0.146435 19.934)
(0.423121 0.147467 19.9401)
(0.442768 0.151252 19.9456)
(0.193402 0.155259 19.9698)
(0.218471 0.151915 19.9701)
(0.242874 0.152566 19.9693)
(0.264516 0.152465 19.967)
(0.285177 0.151216 19.9673)
(0.30492 0.150797 19.9693)
(0.324061 0.150655 19.9727)
(0.342474 0.150443 19.9771)
(0.359864 0.152052 19.982)
(0.376179 0.1524 19.9872)
(0.391505 0.154501 19.9922)
(0.407704 0.154041 19.9961)
(0.42622 0.152463 20.0023)
(0.443114 0.158263 20.0089)
(0.191302 0.172756 20.0224)
(0.215018 0.166731 20.0248)
(0.24037 0.168266 20.0242)
(0.262669 0.167853 20.024)
(0.28415 0.165583 20.0244)
(0.304541 0.164006 20.028)
(0.324408 0.163055 20.0316)
(0.343369 0.162688 20.0374)
(0.361397 0.164092 20.0425)
(0.377959 0.164663 20.0486)
(0.394039 0.165857 20.0533)
(0.410998 0.163219 20.058)
(0.430971 0.158604 20.0642)
(0.44478 0.166173 20.0724)
(0.189451 0.194391 20.0743)
(0.209936 0.184051 20.0779)
(0.235212 0.185076 20.0785)
(0.257656 0.183853 20.081)
(0.280218 0.18104 20.0818)
(0.301662 0.17837 20.0869)
(0.322898 0.175999 20.0913)
(0.34289 0.174083 20.0987)
(0.362019 0.174117 20.1042)
(0.379165 0.174138 20.1111)
(0.396213 0.174562 20.1153)
(0.413913 0.170308 20.1201)
(0.435774 0.165788 20.1266)
(0.445564 0.176283 20.1368)
(0.183307 0.210707 20.1307)
(0.203433 0.200982 20.1316)
(0.229747 0.201665 20.1338)
(0.253272 0.198868 20.1391)
(0.277445 0.194886 20.1407)
(0.299913 0.190487 20.147)
(0.322045 0.186923 20.1524)
(0.342752 0.184782 20.1609)
(0.36272 0.184071 20.1667)
(0.380672 0.184337 20.1737)
(0.398534 0.183303 20.1776)
(0.415977 0.177327 20.1827)
(0.439058 0.172884 20.1904)
(0.44432 0.181989 20.2059)
(0.182779 0.231626 20.19)
(0.202129 0.218938 20.1891)
(0.227113 0.215681 20.1925)
(0.248641 0.21131 20.1986)
(0.271929 0.207296 20.2006)
(0.294551 0.202887 20.2074)
(0.317387 0.19872 20.2139)
(0.338696 0.195594 20.2235)
(0.359158 0.194033 20.2299)
(0.377713 0.194115 20.2367)
(0.395824 0.193669 20.2407)
(0.413488 0.190593 20.2465)
(0.43905 0.189917 20.2567)
(0.440719 0.198106 20.2807)
(0.173212 0.234801 20.2499)
(0.196563 0.236853 20.2502)
(0.222417 0.236828 20.2524)
(0.245685 0.23132 20.2573)
(0.270221 0.224343 20.2604)
(0.29383 0.216453 20.2682)
(0.316706 0.210008 20.2763)
(0.337728 0.206737 20.2862)
(0.357329 0.204163 20.2937)
(0.375466 0.204241 20.3004)
(0.393219 0.203041 20.3054)
(0.410172 0.197652 20.3139)
(0.436418 0.193597 20.3282)
(0.441279 0.194973 20.3599)
(0.189305 0.250847 20.2948)
(0.200528 0.260272 20.3067)
(0.217631 0.252499 20.3146)
(0.237073 0.243471 20.318)
(0.259861 0.235547 20.3216)
(0.283652 0.229077 20.329)
(0.306246 0.223919 20.3379)
(0.327502 0.220324 20.3476)
(0.348022 0.217363 20.3563)
(0.368411 0.216618 20.3636)
(0.388085 0.216613 20.3703)
(0.405677 0.215114 20.3809)
(0.422925 0.212145 20.398)
(0.421381 0.199454 20.4176)
(0.129313 0.146363 19.3454)
(0.158548 0.146193 19.3422)
(0.176343 0.147526 19.3229)
(0.19906 0.149785 19.3078)
(0.220933 0.158066 19.2939)
(0.2433 0.164242 19.281)
(0.265617 0.170972 19.2702)
(0.285746 0.177383 19.2573)
(0.30794 0.18302 19.2488)
(0.328378 0.187633 19.2369)
(0.351127 0.193394 19.2302)
(0.372402 0.198206 19.2178)
(0.393683 0.210253 19.211)
(0.421005 0.207458 19.2068)
(0.124891 0.169795 19.386)
(0.162494 0.168745 19.3784)
(0.184529 0.174183 19.3526)
(0.210272 0.176481 19.3315)
(0.234985 0.18464 19.3165)
(0.257416 0.191511 19.3021)
(0.279697 0.198922 19.2919)
(0.299269 0.204917 19.2797)
(0.320463 0.209977 19.2723)
(0.339276 0.214185 19.2608)
(0.360372 0.219406 19.2547)
(0.380043 0.22278 19.2439)
(0.399505 0.230667 19.2378)
(0.423217 0.233713 19.2358)
(0.127658 0.200133 19.4158)
(0.163054 0.200656 19.4009)
(0.188216 0.205295 19.3777)
(0.21286 0.206001 19.3569)
(0.23757 0.212944 19.3429)
(0.259444 0.219486 19.3278)
(0.282453 0.226874 19.3169)
(0.303316 0.232722 19.3036)
(0.325991 0.237793 19.2952)
(0.346408 0.241015 19.2836)
(0.368205 0.245477 19.2776)
(0.388198 0.247931 19.2678)
(0.405826 0.254677 19.2614)
(0.428429 0.257471 19.2607)
(0.131603 0.225586 19.4441)
(0.164561 0.226871 19.4268)
(0.191816 0.231771 19.4061)
(0.216574 0.233625 19.3849)
(0.242417 0.239235 19.3709)
(0.26504 0.24488 19.3554)
(0.288917 0.250957 19.3446)
(0.310387 0.255576 19.3317)
(0.333065 0.260092 19.3233)
(0.353081 0.263146 19.3116)
(0.374068 0.268019 19.3049)
(0.393073 0.271198 19.2946)
(0.409856 0.277933 19.2869)
(0.430709 0.281898 19.2838)
(0.139698 0.251097 19.4697)
(0.16963 0.254904 19.4515)
(0.197765 0.257482 19.4352)
(0.222199 0.259117 19.4157)
(0.247772 0.263408 19.4017)
(0.270126 0.268598 19.3859)
(0.293629 0.27439 19.3744)
(0.314786 0.279053 19.361)
(0.336832 0.284226 19.3516)
(0.356524 0.287239 19.3396)
(0.37702 0.292244 19.3319)
(0.395637 0.295345 19.3211)
(0.413096 0.301511 19.3135)
(0.433092 0.304517 19.308)
(0.144643 0.275458 19.4988)
(0.17341 0.281135 19.4806)
(0.202269 0.282528 19.4658)
(0.226807 0.285008 19.4469)
(0.252286 0.288254 19.4328)
(0.275028 0.292437 19.4176)
(0.298426 0.296949 19.4061)
(0.319817 0.300349 19.3936)
(0.341446 0.304872 19.3842)
(0.360983 0.307155 19.3729)
(0.380736 0.312073 19.3648)
(0.398601 0.314961 19.3538)
(0.41665 0.320751 19.3465)
(0.435768 0.323386 19.3392)
(0.148346 0.298316 19.5301)
(0.177337 0.304857 19.5134)
(0.206492 0.305435 19.499)
(0.231453 0.308194 19.4811)
(0.256655 0.310411 19.4667)
(0.279658 0.313936 19.4523)
(0.302493 0.318032 19.4403)
(0.323768 0.321335 19.4281)
(0.34449 0.326213 19.4181)
(0.363671 0.328616 19.4074)
(0.38245 0.333563 19.399)
(0.399966 0.335408 19.3885)
(0.41892 0.33914 19.3817)
(0.43849 0.340329 19.375)
(0.149354 0.322076 19.5611)
(0.179064 0.327918 19.5478)
(0.20795 0.329488 19.5326)
(0.233753 0.332673 19.5156)
(0.258909 0.333996 19.5009)
(0.282822 0.336221 19.4877)
(0.305649 0.338916 19.4758)
(0.327548 0.340948 19.4649)
(0.348038 0.345035 19.4548)
(0.367657 0.34694 19.4454)
(0.3861 0.351605 19.4363)
(0.403911 0.352347 19.4263)
(0.423197 0.354364 19.4188)
(0.442215 0.354127 19.4137)
(0.150306 0.34252 19.5945)
(0.179727 0.346561 19.5845)
(0.20837 0.349568 19.5693)
(0.235323 0.352902 19.5535)
(0.260726 0.353684 19.5384)
(0.285617 0.355149 19.5261)
(0.308543 0.357384 19.5136)
(0.331096 0.359568 19.5034)
(0.351593 0.363817 19.4925)
(0.371827 0.366482 19.4836)
(0.390507 0.370752 19.4735)
(0.408748 0.370672 19.4637)
(0.428593 0.369283 19.4564)
(0.444875 0.369848 19.4504)
(0.151 0.365775 19.6256)
(0.178303 0.367487 19.6183)
(0.206206 0.370977 19.6043)
(0.234086 0.374013 19.5908)
(0.259923 0.37448 19.5757)
(0.286033 0.374882 19.5647)
(0.309798 0.37563 19.5526)
(0.333548 0.376408 19.5437)
(0.35478 0.37936 19.5329)
(0.375951 0.381938 19.5246)
(0.395388 0.38541 19.5135)
(0.413703 0.384821 19.503)
(0.433612 0.38174 19.4955)
(0.446588 0.385653 19.4864)
(0.150943 0.385864 19.6606)
(0.176676 0.386264 19.6533)
(0.204946 0.389325 19.6413)
(0.234033 0.390806 19.6304)
(0.260585 0.390815 19.6159)
(0.287496 0.390336 19.6057)
(0.311793 0.390708 19.5939)
(0.33629 0.392061 19.5855)
(0.358204 0.39494 19.5742)
(0.379941 0.398607 19.5653)
(0.400225 0.400708 19.5536)
(0.417293 0.399927 19.5418)
(0.436045 0.395807 19.5353)
(0.44526 0.40079 19.526)
(0.153573 0.406501 19.6992)
(0.17756 0.405703 19.6909)
(0.204706 0.406097 19.6806)
(0.232968 0.40633 19.6709)
(0.259281 0.406804 19.6567)
(0.28644 0.406404 19.6469)
(0.311532 0.406078 19.6363)
(0.336443 0.406484 19.6291)
(0.358701 0.408383 19.6183)
(0.380649 0.412091 19.6089)
(0.401498 0.413841 19.5968)
(0.41799 0.414365 19.584)
(0.43659 0.413497 19.5785)
(0.445368 0.419562 19.5722)
(0.150609 0.418519 19.7443)
(0.176747 0.428283 19.7349)
(0.204957 0.429649 19.7225)
(0.234337 0.426892 19.7126)
(0.261779 0.424791 19.6992)
(0.28928 0.42138 19.6904)
(0.314304 0.419352 19.681)
(0.338204 0.420167 19.6736)
(0.359943 0.420717 19.6636)
(0.38066 0.423928 19.6536)
(0.400834 0.423727 19.6425)
(0.416385 0.423836 19.6308)
(0.433832 0.421369 19.6295)
(0.44386 0.426488 19.6282)
(0.166708 0.429959 19.7822)
(0.182554 0.44195 19.785)
(0.203268 0.437654 19.7727)
(0.230193 0.43379 19.7597)
(0.257412 0.433678 19.7456)
(0.284728 0.433426 19.7359)
(0.309364 0.433952 19.7265)
(0.332374 0.435581 19.7183)
(0.354456 0.436667 19.7088)
(0.376023 0.439525 19.6985)
(0.397511 0.440738 19.6881)
(0.415479 0.443536 19.6784)
(0.431543 0.448197 19.6774)
(0.437842 0.439172 19.6828)
(0.0567666 0.21844 19.0866)
(0.0854303 0.207775 19.0768)
(0.104635 0.209877 19.0529)
(0.130822 0.210841 19.0312)
(0.157471 0.216498 19.0102)
(0.184268 0.220275 18.9902)
(0.211187 0.223836 18.9718)
(0.235063 0.226861 18.9515)
(0.26111 0.229211 18.9353)
(0.283641 0.231059 18.9163)
(0.309998 0.233639 18.9037)
(0.330648 0.234643 18.8844)
(0.356345 0.239918 18.8734)
(0.378224 0.241546 18.8579)
(0.0461507 0.241823 19.1121)
(0.0843253 0.239909 19.0914)
(0.110022 0.243295 19.0588)
(0.138409 0.242795 19.0318)
(0.167059 0.248544 19.0118)
(0.19318 0.253109 18.9919)
(0.220116 0.257862 18.9756)
(0.244217 0.261364 18.9578)
(0.270275 0.263897 18.9444)
(0.292303 0.265585 18.9264)
(0.317812 0.268156 18.9143)
(0.337767 0.269306 18.8957)
(0.361386 0.273655 18.8848)
(0.380721 0.276128 18.87)
(0.0492267 0.270921 19.1245)
(0.0810896 0.273151 19.0966)
(0.112889 0.276436 19.0708)
(0.139147 0.276388 19.0434)
(0.167949 0.281608 19.0236)
(0.193592 0.286341 19.0019)
(0.221095 0.29136 18.9834)
(0.245955 0.294874 18.9625)
(0.273188 0.29741 18.9463)
(0.296255 0.298415 18.9268)
(0.322174 0.300548 18.9137)
(0.342251 0.301621 18.8951)
(0.36453 0.305777 18.8834)
(0.382963 0.308434 18.8693)
(0.0519048 0.300258 19.1332)
(0.0811845 0.305218 19.104)
(0.114384 0.308022 19.08)
(0.141226 0.309289 19.0517)
(0.171183 0.313603 19.0311)
(0.197364 0.318024 19.0087)
(0.225477 0.322596 18.9905)
(0.250763 0.325716 18.9703)
(0.27784 0.328557 18.9543)
(0.300639 0.329722 18.9349)
(0.32588 0.332638 18.9207)
(0.345639 0.334302 18.9013)
(0.367379 0.339237 18.8875)
(0.384979 0.341505 18.8717)
(0.0580843 0.329776 19.1394)
(0.0861235 0.337081 19.1115)
(0.119528 0.338317 19.0908)
(0.146216 0.340365 19.064)
(0.175677 0.34399 19.0429)
(0.201357 0.348281 19.0197)
(0.228799 0.352733 19.0001)
(0.253525 0.35587 18.9786)
(0.27979 0.359351 18.9607)
(0.302346 0.360644 18.9402)
(0.326981 0.364113 18.9241)
(0.346825 0.365726 18.9038)
(0.368746 0.371121 18.8889)
(0.386545 0.372042 18.8719)
(0.0621499 0.358658 19.1492)
(0.0904251 0.367799 19.1222)
(0.123587 0.368163 19.1015)
(0.15037 0.371192 19.0751)
(0.179439 0.374244 19.0533)
(0.20538 0.378067 19.0303)
(0.232442 0.382015 19.0104)
(0.257283 0.384717 18.9894)
(0.282872 0.388454 18.9711)
(0.305592 0.389637 18.9511)
(0.329346 0.393732 18.9342)
(0.349081 0.394956 18.9138)
(0.371115 0.400749 18.8984)
(0.389004 0.400189 18.8799)
(0.0652934 0.385946 19.1601)
(0.0957658 0.396006 19.1359)
(0.128137 0.396459 19.1143)
(0.155361 0.40017 19.0887)
(0.183704 0.402759 19.0663)
(0.209769 0.406215 19.0435)
(0.236008 0.410006 19.0224)
(0.260691 0.412714 19.0011)
(0.285111 0.416938 18.9814)
(0.307617 0.418387 18.9614)
(0.329898 0.423014 18.9434)
(0.349451 0.423365 18.9234)
(0.371481 0.428243 18.9077)
(0.391499 0.425817 18.8903)
(0.0660508 0.412432 19.1698)
(0.0990967 0.422474 19.1502)
(0.130087 0.424535 19.1265)
(0.158248 0.428943 19.1016)
(0.186079 0.431103 19.0785)
(0.212856 0.433932 19.0565)
(0.238712 0.437121 19.0351)
(0.264028 0.439434 19.0146)
(0.287869 0.443663 18.9945)
(0.311242 0.445248 18.9754)
(0.332574 0.450209 18.9561)
(0.353599 0.44947 18.9365)
(0.374133 0.452639 18.9176)
(0.397557 0.448242 18.9047)
(0.0679544 0.43645 19.1834)
(0.102199 0.444963 19.1676)
(0.132063 0.449491 19.1427)
(0.161439 0.454412 19.1183)
(0.189065 0.456579 19.0941)
(0.216701 0.459104 19.0722)
(0.242292 0.462131 19.0498)
(0.268204 0.46465 19.029)
(0.291476 0.469083 19.0074)
(0.315529 0.471393 18.9882)
(0.335942 0.476037 18.9669)
(0.358007 0.474622 18.9475)
(0.377416 0.474785 18.9272)
(0.400293 0.471447 18.916)
(0.0699247 0.46151 19.1922)
(0.103309 0.468618 19.18)
(0.131712 0.47468 19.1557)
(0.162318 0.479583 19.1328)
(0.189757 0.4817 19.1082)
(0.218195 0.483683 19.0872)
(0.243868 0.485891 19.0648)
(0.270757 0.487847 19.0452)
(0.294301 0.491504 19.0233)
(0.319587 0.494073 19.0045)
(0.340011 0.497772 18.9815)
(0.36359 0.496059 18.9618)
(0.382113 0.494422 18.9393)
(0.403379 0.494568 18.9249)
(0.0725208 0.48495 19.2051)
(0.104731 0.490108 19.1954)
(0.132563 0.496411 19.1723)
(0.164705 0.500181 19.1514)
(0.192575 0.502621 19.1264)
(0.221922 0.504347 19.1053)
(0.247783 0.506581 19.0821)
(0.275011 0.509213 19.0617)
(0.298295 0.512951 19.0384)
(0.323413 0.516665 19.0183)
(0.343266 0.519175 18.9936)
(0.365911 0.51817 18.9727)
(0.383555 0.514698 18.9501)
(0.400603 0.517765 18.9329)
(0.0769509 0.5094 19.2156)
(0.107168 0.513767 19.2071)
(0.133786 0.519061 19.1854)
(0.166119 0.521656 19.1663)
(0.193934 0.524455 19.1419)
(0.223069 0.525652 19.1214)
(0.248872 0.526931 19.0996)
(0.275915 0.528597 19.0807)
(0.298957 0.53116 19.0577)
(0.324338 0.535213 19.037)
(0.344886 0.536948 19.0111)
(0.367839 0.538104 18.9882)
(0.38549 0.535501 18.9647)
(0.398775 0.541353 18.9454)
(0.0790369 0.532313 19.2363)
(0.110105 0.538238 19.2273)
(0.135838 0.541543 19.2046)
(0.168948 0.541016 19.1857)
(0.197769 0.543119 19.162)
(0.227306 0.543282 19.1417)
(0.253432 0.544341 19.1202)
(0.278952 0.547507 19.0999)
(0.301142 0.549946 19.0765)
(0.324176 0.554359 19.054)
(0.34465 0.554564 19.0286)
(0.364432 0.557305 19.005)
(0.383109 0.554706 18.9858)
(0.392107 0.560067 18.9687)
(0.0911831 0.540743 19.2631)
(0.117155 0.552573 19.2581)
(0.140177 0.552399 19.2332)
(0.171465 0.552415 19.2102)
(0.199383 0.557376 19.1849)
(0.227476 0.559986 19.1628)
(0.252281 0.562639 19.141)
(0.276214 0.56611 19.1205)
(0.298177 0.568818 19.0975)
(0.32101 0.573671 19.0739)
(0.34313 0.574958 19.0487)
(0.364094 0.579289 19.025)
(0.386154 0.578951 19.0079)
(0.39982 0.581222 18.9948)
(-0.0297076 0.228402 18.7954)
(-0.00225844 0.214654 18.7817)
(0.020857 0.217162 18.7562)
(0.0493719 0.216164 18.7314)
(0.0793043 0.218595 18.7078)
(0.109345 0.219414 18.6849)
(0.139198 0.219403 18.6625)
(0.16624 0.218643 18.6384)
(0.194557 0.217084 18.6175)
(0.219119 0.215385 18.5944)
(0.24788 0.213826 18.577)
(0.269396 0.211257 18.5526)
(0.298357 0.21075 18.5377)
(0.31512 0.210564 18.515)
(-0.0426439 0.252762 18.8056)
(-0.00770417 0.24981 18.7744)
(0.0229338 0.249897 18.7427)
(0.0523874 0.247522 18.7149)
(0.0835752 0.250382 18.6933)
(0.112713 0.252332 18.6714)