/*--------------------------------*- C++ -*----------------------------------*\
| =========                 |                                                 |
| \\      /  F ield         | OpenFOAM: The Open Source CFD Toolbox           |
|  \\    /   O peration     | Version:  v2106                                 |
|   \\  /    A nd           | Website:  www.openfoam.com                      |
|    \\/     M anipulation  |                                                 |
\*---------------------------------------------------------------------------*/
FoamFile
{
    version     2.0;
    format      ascii;
    arch        "LSB;label=32;scalar=64";
    class       volScalarField;
    location    "0.000167";
    object      alphat;
}
// * * * * * * * * * * * * * * * * * * * * * * * * * * * * * * * * * * * * * //

dimensions      [1 -1 -1 0 0 0 0];

internalField   nonuniform List<scalar> 
18109
(
7.58523e-07
2.36105e-07
9.38887e-08
6.41106e-08
6.2162e-08
6.91291e-08
8.14381e-08
4.99704e-07
1.13136e-07
2.32241e-08
1.01446e-08
9.64185e-09
1.12975e-08
1.38663e-08
3.65079e-07
7.26711e-08
1.07599e-08
2.00261e-09
1.07746e-09
1.20605e-09
1.54266e-09
2.98288e-07
6.29779e-08
1.12088e-08
1.85058e-09
3.20725e-10
1.06202e-10
1.08267e-10
2.59941e-07
6.04255e-08
1.24282e-08
2.18606e-09
3.28265e-10
4.36228e-11
1.16349e-11
2.48684e-07
6.14203e-08
1.29953e-08
2.2276e-09
3.14345e-10
4.2602e-11
1.25861e-11
2.66602e-07
6.73837e-08
1.38076e-08
2.23861e-09
3.33476e-10
8.7358e-11
6.56116e-11
3.14253e-07
7.76805e-08
1.51357e-08
2.52457e-09
6.15701e-10
4.143e-10
4.28781e-10
3.94487e-07
1.06159e-07
3.29785e-08
1.8885e-08
1.69234e-08
1.83441e-08
2.12951e-08
2.48821e-08
2.96e-08
3.67445e-08
4.91843e-08
7.78887e-08
1.60343e-07
4.15306e-07
2.37513e-07
4.88615e-08
8.13291e-09
2.44614e-09
2.02376e-09
2.36231e-09
2.94255e-09
3.58785e-09
4.30623e-09
5.59254e-09
9.65975e-09
2.59856e-08
8.6568e-08
2.76041e-07
1.64874e-07
3.24882e-08
4.92275e-09
7.36368e-10
2.14641e-10
1.95536e-10
2.55302e-10
3.31944e-10
4.59184e-10
9.81772e-10
3.52994e-09
1.45756e-08
5.49598e-08
1.79246e-07
1.38861e-07
3.07727e-08
5.77233e-09
9.32274e-10
1.32346e-10
2.20802e-11
1.38734e-11
2.38019e-11
7.89659e-11
4.00795e-10
2.04101e-09
9.19075e-09
3.57391e-08
1.19695e-07
1.29437e-07
3.11123e-08
6.40538e-09
1.09929e-09
1.49852e-10
1.66544e-11
2.32061e-12
5.78864e-12
3.98986e-11
2.51691e-10
1.3739e-09
6.44922e-09
2.60858e-08
9.12705e-08
1.32271e-07
3.2672e-08
6.75896e-09
1.12308e-09
1.43329e-10
1.64144e-11
3.59732e-12
6.26741e-12
3.4825e-11
2.17192e-10
1.20677e-09
5.78341e-09
2.38558e-08
8.49521e-08
1.50373e-07
3.70354e-08
7.32362e-09
1.14131e-09
1.48807e-10
3.24492e-11
2.20937e-11
2.57358e-11
5.9353e-11
2.71913e-10
1.41309e-09
6.63183e-09
2.69905e-08
9.51254e-08
1.83998e-07
4.35747e-08
8.08469e-09
1.24995e-09
2.54342e-10
1.58881e-10
1.58432e-10
1.69515e-10
2.25784e-10
5.43105e-10
2.15452e-09
9.265e-09
3.62947e-08
1.25249e-07
2.27782e-07
5.1231e-08
9.51476e-09
1.92511e-09
9.03186e-10
8.76757e-10
9.32871e-10
1.0001e-09
1.16003e-09
1.78034e-09
4.5047e-09
1.57858e-08
5.70341e-08
1.8829e-07
2.79789e-07
6.39267e-08
1.49905e-08
5.39051e-09
4.02962e-09
4.21388e-09
4.53671e-09
4.93858e-09
5.6237e-09
7.27689e-09
1.26946e-08
3.26976e-08
1.01241e-07
3.05214e-07
3.60094e-07
1.04748e-07
3.88592e-08
2.07656e-08
1.69555e-08
1.73584e-08
1.86506e-08
2.05724e-08
2.35761e-08
2.89735e-08
4.12793e-08
7.84819e-08
1.94853e-07
5.12564e-07
5.74616e-07
2.48331e-07
1.27718e-07
7.94905e-08
6.36817e-08
6.20021e-08
6.57957e-08
7.30757e-08
8.44142e-08
1.02386e-07
1.33251e-07
2.03186e-07
3.94436e-07
8.74435e-07
1.14318e-06
6.40988e-07
3.93346e-07
2.66211e-07
2.09879e-07
1.93983e-07
2.00987e-07
2.23083e-07
2.58804e-07
3.12987e-07
3.93664e-07
5.29136e-07
8.25363e-07
1.50927e-06
2.28162e-06
1.48795e-06
1.03184e-06
7.54542e-07
6.05718e-07
5.42087e-07
5.41361e-07
5.9047e-07
6.81718e-07
8.2043e-07
1.02048e-06
1.30065e-06
1.74989e-06
2.64107e-06
1.13392e-06
2.24935e-06
4.68599e-06
8.88636e-06
1.49592e-05
2.29015e-05
5.85857e-07
1.2755e-06
2.96661e-06
6.19157e-06
1.12293e-05
1.80514e-05
2.55484e-07
8.03924e-07
2.27228e-06
5.17011e-06
9.72536e-06
1.59469e-05
1.48986e-07
5.89738e-07
1.80435e-06
4.28298e-06
8.34627e-06
1.41954e-05
1.07692e-07
4.58945e-07
1.46199e-06
3.61687e-06
7.36758e-06
1.3533e-05
9.45377e-08
4.06002e-07
1.30562e-06
3.30482e-06
7.09325e-06
1.46058e-05
9.65738e-08
4.01893e-07
1.26824e-06
3.27404e-06
7.54352e-06
1.71159e-05
1.06292e-07
4.26659e-07
1.33666e-06
3.57286e-06
8.7311e-06
2.04631e-05
1.20628e-07
4.73221e-07
1.49715e-06
4.10037e-06
1.01754e-05
2.33873e-05
1.43752e-07
5.55013e-07
1.76023e-06
4.79346e-06
1.15799e-05
2.52286e-05
1.80921e-07
6.78041e-07
2.08049e-06
5.41795e-06
1.23304e-05
2.49236e-05
2.37632e-07
8.37801e-07
2.41193e-06
5.86172e-06
1.23476e-05
2.30021e-05
3.27912e-07
1.04677e-06
2.74634e-06
6.11385e-06
1.18832e-05
2.04972e-05
4.68979e-07
1.32906e-06
3.12936e-06
6.35052e-06
1.1388e-05
1.82867e-05
6.75719e-07
1.6787e-06
3.57083e-06
6.67957e-06
1.11536e-05
1.67814e-05
1.09127e-06
2.16596e-06
4.00636e-06
6.80098e-06
1.05828e-05
1.51535e-05
7.54472e-07
1.62953e-06
3.19933e-06
5.67951e-06
9.16253e-06
1.35718e-05
4.99663e-07
1.17795e-06
2.48554e-06
4.68516e-06
7.96901e-06
1.25702e-05
3.47902e-07
8.94084e-07
2.02844e-06
4.08125e-06
7.49592e-06
1.32966e-05
2.78312e-07
7.67779e-07
1.85249e-06
4.01917e-06
8.244e-06
1.663e-05
2.6336e-07
7.5863e-07
1.94116e-06
4.59591e-06
1.03431e-05
2.20384e-05
2.94213e-07
8.77599e-07
2.37294e-06
5.89932e-06
1.34866e-05
2.81096e-05
3.84147e-07
1.15772e-06
3.1293e-06
7.62395e-06
1.67538e-05
3.29205e-05
5.55911e-07
1.60058e-06
4.0947e-06
9.35114e-06
1.92262e-05
3.53397e-05
8.31387e-07
2.18166e-06
5.09963e-06
1.07111e-05
2.02856e-05
3.47307e-05
1.2533e-06
2.92103e-06
6.13906e-06
1.17114e-05
2.03768e-05
3.24297e-05
1.88749e-06
3.88087e-06
7.31405e-06
1.26808e-05
2.02997e-05
3.00793e-05
2.86014e-06
5.18553e-06
8.78481e-06
1.39404e-05
2.07101e-05
2.88293e-05
4.50602e-06
7.18841e-06
1.09535e-05
1.58461e-05
2.18197e-05
2.85912e-05
4.39614e-06
7.44023e-06
1.14796e-05
1.62971e-05
2.1729e-05
2.79129e-05
3.56832e-06
6.32709e-06
1.00491e-05
1.46795e-05
2.02749e-05
2.78833e-05
2.86831e-06
5.28372e-06
8.66614e-06
1.31414e-05
1.96183e-05
3.11785e-05
2.2881e-06
4.3857e-06
7.52865e-06
1.24241e-05
2.14017e-05
3.91983e-05
1.85748e-06
3.73794e-06
6.95515e-06
1.30587e-05
2.55427e-05
4.96123e-05
1.56819e-06
3.37392e-06
7.00306e-06
1.4667e-05
3.05607e-05
5.96994e-05
1.39374e-06
3.2492e-06
7.39691e-06
1.6418e-05
3.44942e-05
6.57447e-05
1.32803e-06
3.298e-06
7.82529e-06
1.75044e-05
3.59938e-05
6.64738e-05
1.36882e-06
3.45216e-06
8.15309e-06
1.77209e-05
3.51635e-05
6.27608e-05
1.51846e-06
3.7022e-06
8.37366e-06
1.73437e-05
3.28145e-05
5.62968e-05
1.79377e-06
4.04834e-06
8.55037e-06
1.68594e-05
3.02684e-05
4.912e-05
2.24863e-06
4.58161e-06
8.98993e-06
1.65661e-05
2.77008e-05
4.23575e-05
2.90923e-06
5.32873e-06
9.75876e-06
1.64302e-05
2.56274e-05
3.7531e-05
4.02408e-06
6.76953e-06
1.10716e-05
1.695e-05
2.49364e-05
3.51776e-05
1.10026e-06
3.14233e-06
7.7042e-06
1.62451e-05
2.97733e-05
4.98277e-05
1.25072e-06
3.18683e-06
7.11849e-06
1.40674e-05
2.46643e-05
3.95856e-05
1.3806e-06
3.13288e-06
6.41447e-06
1.19441e-05
2.02009e-05
3.15807e-05
1.33065e-06
2.72026e-06
5.45278e-06
1.00402e-05
1.6835e-05
2.60843e-05
2.82397e-06
5.24625e-06
9.92423e-06
1.62763e-05
2.3844e-05
3.27505e-05
1.81138e-06
4.38106e-06
8.9542e-06
1.48545e-05
2.18808e-05
3.06605e-05
1.45627e-06
3.8825e-06
7.78888e-06
1.28788e-05
1.95753e-05
3.07182e-05
1.19937e-06
3.19054e-06
6.47029e-06
1.10981e-05
1.8557e-05
3.44547e-05
9.80701e-07
2.6001e-06
5.45821e-06
1.00934e-05
1.93486e-05
4.07079e-05
7.79383e-07
2.10136e-06
4.65889e-06
9.81613e-06
2.15064e-05
4.7848e-05
6.20283e-07
1.73443e-06
4.18988e-06
9.93345e-06
2.3506e-05
5.25794e-05
5.12015e-07
1.50787e-06
4.00257e-06
1.0154e-05
2.43104e-05
5.30644e-05
4.61696e-07
1.42721e-06
4.02107e-06
1.03517e-05
2.41614e-05
5.0225e-05
4.62211e-07
1.44925e-06
4.10576e-06
1.03184e-05
2.28534e-05
4.45453e-05
5.09088e-07
1.54071e-06
4.16843e-06
9.89593e-06
2.04817e-05
3.73432e-05
6.04712e-07
1.67799e-06
4.16174e-06
9.14977e-06
1.77142e-05
3.04837e-05
7.48694e-07
1.83878e-06
4.09757e-06
8.27592e-06
1.50518e-05
2.48155e-05
7.92114e-07
1.75949e-06
3.74344e-06
7.29102e-06
1.28626e-05
2.07429e-05
2.68485e-05
4.01482e-05
8.01169e-05
0.000143621
0.000151909
2.37157e-05
4.17217e-05
0.000103981
0.000159021
0.000155558
2.25589e-05
5.10185e-05
0.000133381
0.000164656
0.000156308
2.50873e-05
6.72914e-05
0.000153465
0.000161598
0.000152275
3.09858e-05
8.46852e-05
0.000158752
0.000151993
0.00014182
3.8459e-05
9.80911e-05
0.000154601
0.000141296
0.000131827
4.47787e-05
0.000103491
0.000146207
0.00013386
0.000126884
4.81032e-05
0.000101806
0.000138398
0.000131142
0.000125297
0.000149346
4.7945e-05
9.4419e-05
0.000128947
0.000129234
0.000123588
0.000146848
4.3922e-05
8.20592e-05
0.000115434
0.000125502
0.000123076
0.000146338
3.7616e-05
6.78252e-05
9.91897e-05
0.000119189
0.000122574
0.000146906
0.000183709
3.09781e-05
5.45093e-05
8.265e-05
0.000110804
0.000121415
0.000147328
0.000219722
0.000221071
2.55039e-05
4.40604e-05
6.89453e-05
0.000103274
0.000122182
0.000144131
0.000244745
0.000563705
2.20133e-05
3.74416e-05
6.09295e-05
0.000101466
0.000126742
0.000143587
0.000174603
0.000582691
1.9961e-05
3.42911e-05
6.1118e-05
0.000111539
0.000136459
0.000151763
0.000172152
0.000500059
1.87337e-05
3.47183e-05
7.0349e-05
0.000126615
0.000144909
0.000161602
0.00018234
0.000487913
1.92529e-05
4.18726e-05
9.13842e-05
0.000139314
0.0001512
0.000171901
0.000195304
0.000296167
2.38575e-05
5.82491e-05
0.000117926
0.000144363
0.000152479
0.00017659
0.000191202
0.00042453
3.28561e-05
7.8439e-05
0.000132118
0.000137642
0.000144649
0.000171652
0.000178453
0.00041004
4.35952e-05
9.41025e-05
0.000132226
0.000127741
0.000137149
0.000170471
0.00017419
0.000323182
5.25291e-05
0.000100837
0.000127031
0.000122525
0.000136394
0.000177388
0.000184563
0.000140541
5.73067e-05
9.99609e-05
0.000122326
0.000123523
0.000138701
0.000180319
0.00019259
0.000151242
5.70938e-05
9.3132e-05
0.000116786
0.000126762
0.000142463
0.000178197
5.25225e-05
8.23296e-05
0.000108633
0.000130527
0.000147855
0.00018207
4.61728e-05
7.06944e-05
9.89554e-05
0.000133661
0.00015221
0.000190381
4.01542e-05
6.0633e-05
9.08481e-05
0.000138788
0.000159018
0.00019509
3.64266e-05
5.45244e-05
9.1177e-05
0.000148071
0.000167496
0.000197345
3.5006e-05
5.51041e-05
0.000108964
0.000162829
0.000175477
3.56351e-05
6.63664e-05
0.000140552
0.000174894
0.000178909
4.0507e-05
8.94255e-05
0.000168897
0.000169522
0.000173052
5.31652e-05
0.000120701
0.000177371
0.000154925
0.000167053
7.14966e-05
0.000146969
0.000169103
0.000140227
0.000158909
8.91145e-05
0.000160292
0.000155314
0.000128802
0.00015086
0.000101586
0.000159064
0.000141848
0.000123046
0.000148102
0.000105158
0.000147989
0.000132624
0.000124345
0.000151182
0.000100682
0.000133848
0.000128539
0.000131349
0.000153687
9.05159e-05
0.000117325
0.000123392
0.000139747
0.000156195
7.77066e-05
9.9052e-05
0.00011495
0.000148272
0.000162146
6.54993e-05
8.23816e-05
0.000105533
0.000154899
0.000166704
5.56846e-05
6.96019e-05
0.000101882
0.000161929
0.000171809
4.88769e-05
6.2798e-05
0.000113454
0.000170653
0.000177436
4.44894e-05
6.56918e-05
0.000146246
0.000182922
0.000180332
4.21892e-05
8.19206e-05
0.000187862
0.000186172
0.000174321
4.49478e-05
0.000111133
0.00020372
0.000171564
0.000162172
5.55245e-05
0.000144001
0.000194577
0.000155677
0.000156066
7.10221e-05
0.000169868
0.000180183
0.000144073
0.000149073
8.59363e-05
0.000182318
0.000167755
0.000135002
0.000140704
9.71007e-05
0.000180035
0.000156923
0.000127515
0.000133413
0.000101422
0.000166089
0.00014792
0.000124166
0.000131501
9.81862e-05
0.000146813
0.000141438
0.000124772
0.00012986
8.8076e-05
0.000124558
0.000132553
0.00012629
0.000127504
7.41865e-05
0.00010164
0.000118335
0.000126723
0.00012879
5.97605e-05
8.12605e-05
0.000100348
0.000124011
0.000130112
4.72682e-05
6.4588e-05
8.32629e-05
0.00011912
0.000131024
3.7944e-05
5.21556e-05
7.0902e-05
0.000115747
0.00013389
3.14606e-05
4.3981e-05
6.8195e-05
0.000123682
0.000141132
2.3927e-07
5.76261e-08
1.42229e-08
6.43367e-09
4.96974e-09
5.17324e-09
5.96459e-09
6.73038e-09
7.33729e-09
8.36335e-09
1.19392e-08
2.46452e-08
6.8805e-08
2.16133e-07
1.31384e-07
2.5319e-08
3.74932e-09
7.40639e-10
4.32631e-10
4.81059e-10
6.10773e-10
7.38291e-10
8.40053e-10
1.09626e-09
2.54388e-09
9.77668e-09
3.99283e-08
1.43917e-07
8.94218e-08
1.80855e-08
2.94633e-09
4.27484e-10
6.79018e-11
2.92557e-11
3.5094e-11
4.69765e-11
7.51727e-11
2.4407e-10
1.22922e-09
6.03121e-09
2.5561e-08
9.18453e-08
8.08232e-08
1.89284e-08
3.70733e-09
6.14704e-10
8.28512e-11
9.32757e-12
1.61594e-12
2.95784e-12
1.80813e-11
1.22831e-10
7.31116e-10
3.69561e-09
1.58487e-08
5.79998e-08
8.13175e-08
2.00385e-08
4.16033e-09
7.20379e-10
9.66911e-11
1.00144e-11
9.98823e-13
1.32514e-12
1.0357e-11
7.47313e-11
4.58935e-10
2.39119e-09
1.06182e-08
4.04485e-08
8.74651e-08
2.1659e-08
4.46621e-09
7.41897e-10
9.33219e-11
9.92214e-12
1.94622e-12
2.06837e-12
8.64237e-12
5.66356e-11
3.49056e-10
1.85454e-09
8.43695e-09
3.29518e-08
1.03562e-07
2.52566e-08
4.93238e-09
7.63155e-10
9.60182e-11
1.89671e-11
1.27599e-11
1.30944e-11
1.93213e-11
6.53175e-11
3.47031e-10
1.80004e-09
8.14633e-09
3.16171e-08
1.29767e-07
3.01952e-08
5.47997e-09
8.22277e-10
1.50719e-10
9.01267e-11
9.19668e-11
9.61827e-11
1.06745e-10
1.66657e-10
5.11085e-10
2.22535e-09
9.50565e-09
3.57184e-08
1.6317e-07
3.58527e-08
6.34997e-09
1.16446e-09
4.99431e-10
4.97182e-10
5.44712e-10
5.84465e-10
6.35037e-10
7.66535e-10
1.32372e-09
3.82723e-09
1.40189e-08
4.95961e-08
2.03519e-07
4.44289e-08
9.17168e-09
2.87582e-09
2.18319e-09
2.40128e-09
2.66758e-09
2.9297e-09
3.24952e-09
3.76453e-09
5.06185e-09
9.76111e-09
2.77597e-08
8.74482e-08
2.64106e-07
6.8917e-08
2.14078e-08
1.04752e-08
9.07202e-09
9.92774e-09
1.10458e-08
1.23501e-08
1.40293e-08
1.64006e-08
2.04788e-08
3.11231e-08
6.76528e-08
1.80156e-07
4.17942e-07
1.57883e-07
6.96835e-08
3.99369e-08
3.34758e-08
3.53281e-08
3.92177e-08
4.44216e-08
5.14511e-08
6.12123e-08
7.53719e-08
1.01893e-07
1.77002e-07
3.88839e-07
8.2623e-07
4.16484e-07
2.23055e-07
1.36799e-07
1.08748e-07
1.08944e-07
1.20291e-07
1.37736e-07
1.61784e-07
1.95282e-07
2.41702e-07
3.1042e-07
4.57928e-07
8.27244e-07
1.69295e-06
1.00722e-06
6.16955e-07
4.05352e-07
3.13865e-07
2.96426e-07
3.20878e-07
3.69651e-07
4.38396e-07
5.33127e-07
6.64577e-07
8.38845e-07
1.11314e-06
1.67331e-06
5.35111e-08
1.19995e-08
3.79133e-09
2.06244e-09
1.39499e-09
1.23729e-09
1.32267e-09
1.40358e-09
1.45251e-09
1.39521e-09
1.50284e-09
3.09198e-09
1.13291e-08
4.64195e-08
2.76534e-08
5.07922e-09
8.37015e-10
1.99302e-10
1.00752e-10
9.4004e-11
1.13005e-10
1.29802e-10
1.41574e-10
1.51671e-10
3.04291e-10
1.44295e-09
7.50121e-09
3.33397e-08
2.40389e-08
5.17984e-09
9.17467e-10
1.41226e-10
2.03944e-11
5.30431e-12
5.28609e-12
6.67798e-12
9.28818e-12
2.71804e-11
1.67341e-10
1.03956e-09
5.44119e-09
2.36678e-08
2.89122e-08
6.80127e-09
1.30106e-09
2.14731e-10
2.91394e-11
3.03708e-12
3.04768e-13
2.37215e-13
1.65959e-12
1.48057e-11
1.13377e-10
7.16044e-10
3.7404e-09
1.63183e-08
3.41766e-08
8.07572e-09
1.57726e-09
2.63847e-10
3.51713e-11
3.4953e-12
2.74515e-13
1.15457e-13
1.0403e-12
9.79029e-12
7.61735e-11
4.88383e-10
2.60139e-09
1.16374e-08
4.01827e-08
9.37495e-09
1.7765e-09
2.80106e-10
3.47188e-11
3.38814e-12
4.59131e-13
3.03437e-13
9.55677e-13
7.35171e-12
5.65934e-11
3.67055e-10
1.98939e-09
9.07601e-09
5.0247e-08
1.14577e-08
2.04537e-09
2.96877e-10
3.5174e-11
5.18947e-12
2.84096e-12
2.68669e-12
3.10049e-12
8.10394e-12
4.79996e-11
3.01674e-10
1.63746e-09
7.50316e-09
6.51063e-08
1.42504e-08
2.34476e-09
3.16641e-10
4.62835e-11
2.16698e-11
2.21085e-11
2.24493e-11
2.27182e-11
2.68921e-11
6.3762e-11
2.99036e-10
1.52897e-09
6.84326e-09
8.39176e-08
1.7662e-08
2.70675e-09
3.90316e-10
1.27734e-10
1.26242e-10
1.43408e-10
1.5082e-10
1.55737e-10
1.63629e-10
2.08715e-10
4.71629e-10
1.82558e-09
7.56048e-09
1.06767e-07
2.18663e-08
3.35463e-09
7.43712e-10
5.58303e-10
6.63034e-10
7.67996e-10
8.31218e-10
8.87607e-10
9.47201e-10
1.05621e-09
1.45128e-09
3.41245e-09
1.15491e-08
1.33293e-07
2.80354e-08
5.48102e-09
2.34776e-09
2.44555e-09
2.97886e-09
3.46647e-09
3.84261e-09
4.23166e-09
4.65996e-09
5.1754e-09
6.12472e-09
1.01262e-08
2.60683e-08
1.81759e-07
4.72085e-08
1.48249e-08
8.83955e-09
9.46144e-09
1.14543e-08
1.33782e-08
1.51321e-08
1.70881e-08
1.93628e-08
2.19553e-08
2.52128e-08
3.47756e-08
6.97988e-08
3.03339e-07
1.11842e-07
4.94536e-08
3.16566e-08
3.17723e-08
3.77366e-08
4.44105e-08
5.12119e-08
5.90125e-08
6.84004e-08
7.95019e-08
9.20706e-08
1.16183e-07
1.89617e-07
6.17669e-07
2.96071e-07
1.5566e-07
1.02025e-07
9.40993e-08
1.0724e-07
1.27039e-07
1.49525e-07
1.75425e-07
2.06832e-07
2.45752e-07
2.90827e-07
3.54472e-07
4.91696e-07
1.04085e-08
2.43159e-09
8.93684e-10
5.16511e-10
3.41818e-10
2.53511e-10
2.45053e-10
2.40993e-10
2.38016e-10
2.13782e-10
1.79398e-10
2.65507e-10
1.08698e-09
5.67514e-09
5.73446e-09
1.06136e-09
1.77789e-10
4.32969e-11
2.10411e-11
1.62202e-11
1.80772e-11
1.97055e-11
2.06301e-11
1.95039e-11
2.63679e-11
1.26289e-10
8.13756e-10
4.50443e-09
6.56027e-09
1.47388e-09
2.58061e-10
3.86354e-11
5.43051e-12
9.7819e-13
6.91514e-13
8.4659e-13
1.04598e-12
2.02546e-12
1.26659e-11
9.89472e-11
6.51074e-10
3.51311e-09
9.04219e-09
2.14875e-09
4.00595e-10
6.27062e-11
8.56356e-12
9.25976e-13
7.94063e-14
1.76278e-14
8.58596e-14
9.53176e-13
9.53996e-12
7.73743e-11
5.07686e-10
2.72245e-09
1.13499e-08
2.72053e-09
5.20492e-10
8.08753e-11
1.06569e-11
1.09794e-12
8.57848e-14
9.81967e-15
5.65638e-14
7.03762e-13
7.16803e-12
5.85597e-11
3.87182e-10
2.09723e-09
1.38272e-08
3.28081e-09
6.16404e-10
8.98611e-11
1.0904e-11
1.06479e-12
1.06877e-13
3.76455e-14
6.90709e-14
5.60076e-13
5.54385e-12
4.55275e-11
3.0419e-10
1.67e-09
1.76263e-08
4.12794e-09
7.51276e-10
1.00541e-10
1.11836e-11
1.28566e-12
4.51579e-13
3.87112e-13
3.82853e-13
7.31527e-13
4.69282e-12
3.6888e-11
2.46921e-10
1.36684e-09
2.28066e-08
5.19154e-09
8.98625e-10
1.10281e-10
1.2852e-11
3.83485e-12
3.54241e-12
3.53505e-12
3.39024e-12
3.39667e-12
6.32388e-12
3.22245e-11
2.03381e-10
1.11817e-09
2.90384e-08
6.41793e-09
1.06118e-09
1.27395e-10
2.61717e-11
2.1939e-11
2.50494e-11
2.60648e-11
2.58271e-11
2.48458e-11
2.64623e-11
4.90594e-11
2.06258e-10
1.04149e-09
3.64996e-08
7.8181e-09
1.2614e-09
1.87641e-10
1.04348e-10
1.25043e-10
1.48042e-10
1.58584e-10
1.62749e-10
1.61738e-10
1.61836e-10
1.82363e-10
3.51775e-10
1.25284e-09
4.43344e-08
9.33755e-09
1.62126e-09
4.57755e-10
4.83463e-10
6.19235e-10
7.398e-10
8.12126e-10
8.60011e-10
8.86468e-10
9.04547e-10
9.38788e-10
1.2335e-09
2.82772e-09
5.63251e-08
1.31329e-08
3.097e-09
1.63168e-09
2.03804e-09
2.63599e-09
3.16511e-09
3.54923e-09
3.85868e-09
4.1082e-09
4.3162e-09
4.50314e-09
5.26512e-09
9.20555e-09
8.38938e-08
2.65436e-08
9.05085e-09
6.02758e-09
7.43292e-09
9.63692e-09
1.16714e-08
1.33555e-08
1.48422e-08
1.62402e-08
1.75767e-08
1.88173e-08
2.12105e-08
3.10978e-08
1.69576e-07
7.0891e-08
3.02291e-08
2.06108e-08
2.34261e-08
3.01854e-08
3.71036e-08
4.34089e-08
4.92228e-08
5.51344e-08
6.14019e-08
6.79217e-08
7.64291e-08
9.86669e-08
1.97226e-09
4.54668e-10
1.4768e-10
7.6738e-11
4.83272e-11
3.74759e-11
3.63611e-11
3.61542e-11
3.50585e-11
3.02135e-11
2.2502e-11
2.17411e-11
7.91931e-11
4.89762e-10
1.19069e-09
2.39716e-10
4.21894e-11
7.88549e-12
2.64926e-12
1.97495e-12
2.24798e-12
2.58507e-12
2.78616e-12
2.57293e-12
2.37459e-12
8.43021e-12
6.31063e-11
4.21039e-10
1.59621e-09
3.74598e-10
7.16564e-11
1.11365e-11
1.44896e-12
1.95239e-13
7.27703e-14
8.88586e-14
1.16645e-13
1.61995e-13
7.39481e-13
6.8273e-12
5.50609e-11
3.60249e-10
2.29631e-09
5.51868e-10
1.10335e-10
1.80957e-11
2.34427e-12
2.60889e-13
2.36299e-14
3.8649e-15
5.97935e-15
4.61319e-14
5.58824e-13
5.69907e-12
4.63268e-11
3.0273e-10
2.93097e-09
7.05335e-10
1.42471e-10
2.3372e-11
2.90997e-12
3.07435e-13
2.5518e-14
2.01231e-15
2.4314e-15
3.38794e-14
4.44267e-13
4.59645e-12
3.77475e-11
2.49177e-10
3.59059e-09
8.49923e-10
1.66564e-10
2.58991e-11
2.95352e-12
2.91982e-13
2.66801e-14
5.74929e-15
5.40322e-15
2.95835e-14
3.57807e-13
3.72141e-12
3.09096e-11
2.06623e-10
4.54094e-09
1.05129e-09
1.97033e-10
2.85342e-11
2.94217e-12
3.0488e-13
7.33246e-14
5.54974e-14
5.01336e-14
6.25585e-14
3.22652e-13
3.06573e-12
2.54269e-11
1.71318e-10
5.7543e-09
1.2887e-09
2.28583e-10
3.07059e-11
3.09235e-12
6.65539e-13
5.35681e-13
5.28691e-13
4.92418e-13
4.4957e-13
5.99762e-13
2.74042e-12
2.06403e-11
1.38263e-10
7.11086e-09
1.54122e-09
2.60043e-10
3.35777e-11
5.02501e-12
3.53325e-12
3.995e-12
4.14254e-12
3.99611e-12
3.68142e-12
3.48751e-12
5.01299e-12
2.01616e-11
1.21782e-10
8.72007e-09
1.82875e-09
2.98597e-10
4.34462e-11
1.78624e-11
2.12416e-11
2.53237e-11
2.69814e-11
2.69015e-11
2.56535e-11
2.40815e-11
2.4082e-11
3.71701e-11
1.33601e-10
1.0237e-08
2.09388e-09
3.54765e-10
8.74891e-11
8.54566e-11
1.13081e-10
1.36295e-10
1.48579e-10
1.52627e-10
1.50512e-10
1.4525e-10
1.40444e-10
1.54971e-10
3.06192e-10
1.23887e-08
2.67754e-09
5.77057e-10
2.91351e-10
3.86602e-10
5.19713e-10
6.29166e-10
6.99941e-10
7.38067e-10
7.50191e-10
7.45979e-10
7.33874e-10
7.58553e-10
1.1477e-09
1.71995e-08
4.77588e-09
1.50687e-09
1.09485e-09
1.52828e-09
2.06297e-09
2.51032e-09
2.84568e-09
3.07049e-09
3.20723e-09
3.28503e-09
3.32671e-09
3.4171e-09
4.49624e-09
3.40796e-08
1.25048e-08
5.0158e-09
3.86523e-09
5.20838e-09
7.06447e-09
8.68052e-09
1.00263e-08
1.10451e-08
1.18286e-08
1.24771e-08
1.30794e-08
1.36623e-08
1.63858e-08
3.38641e-10
7.50869e-11
2.11499e-11
9.74939e-12
6.18211e-12
5.1565e-12
5.49373e-12
5.88687e-12
5.95341e-12
5.24834e-12
3.76574e-12
2.71877e-12
7.03079e-12
4.77524e-11
2.36687e-10
5.14041e-11
9.70352e-12
1.68064e-12
3.68291e-13
2.24673e-13
2.87504e-13
3.76857e-13
4.48582e-13
4.46852e-13
3.56741e-13
7.22739e-13
5.55939e-12
4.2753e-11
3.59421e-10
8.71529e-11
1.78694e-11
3.09902e-12
4.41933e-13
5.32455e-14
1.20954e-14
1.33661e-14
1.94799e-14
2.48321e-14
5.88374e-14
5.33929e-13
5.02946e-12
3.8371e-11
5.29353e-10
1.30385e-10
2.75831e-11
4.93772e-12
7.12946e-13
7.89253e-14
7.56928e-15
1.24467e-15
1.28401e-15
3.47986e-15
3.65245e-14
4.43922e-13
4.30819e-12
3.3219e-11
6.93477e-10
1.70619e-10
3.61163e-11
6.39494e-12
8.98742e-13
9.42253e-14
8.27894e-15
6.9837e-16
2.76453e-16
1.88413e-15
2.87312e-14
3.64068e-13
3.6036e-12
2.82831e-11
8.66106e-10
2.08041e-10
4.2418e-11
7.11787e-12
9.35526e-13
9.09123e-14
8.0894e-15
1.196e-15
7.17755e-16
1.8481e-15
2.31431e-14
2.95984e-13
2.99089e-12
2.39674e-11
1.09982e-09
2.56207e-10
4.96688e-11
7.77737e-12
9.41408e-13
8.87207e-14
1.43966e-14
8.45176e-15
7.14974e-15
6.89287e-15
2.30602e-14
2.46068e-13
2.48573e-12
2.01873e-11
1.39057e-09
3.11937e-10
5.71901e-11
8.35815e-12
9.68077e-13
1.405e-13
8.41666e-14
7.90569e-14
7.1367e-14
6.19445e-14
6.52501e-14
2.34818e-13
2.02796e-12
1.63833e-11
1.70187e-09
3.6788e-10
6.41148e-11
8.96568e-12
1.26778e-12
5.9507e-13
6.275e-13
6.35229e-13
5.94837e-13
5.31109e-13
4.72632e-13
5.63416e-13
2.02355e-12
1.42242e-11
2.0681e-09
4.32076e-10
7.27562e-11
1.0864e-11
3.40784e-12
3.55111e-12
4.13108e-12
4.30048e-12
4.15876e-12
3.84492e-12
3.47348e-12
3.27328e-12
4.29376e-12
1.52075e-11
2.40111e-09
4.8963e-10
8.42283e-11
1.88162e-11
1.52227e-11
1.96711e-11
2.33155e-11
2.48159e-11
2.47215e-11
2.36082e-11
2.19766e-11
2.05098e-11
2.04682e-11
3.56474e-11
2.82548e-09
5.93785e-10
1.23071e-10
5.63067e-11
7.09284e-11
9.53064e-11
1.13703e-10
1.2343e-10
1.26209e-10
1.24029e-10
1.1886e-10
1.13077e-10
1.08608e-10
1.45947e-10
3.74797e-09
9.57882e-10
2.83936e-10
2.09622e-10
2.96098e-10
4.01842e-10
4.82287e-10
5.33583e-10
5.58695e-10
5.63587e-10
5.55264e-10
5.4195e-10
5.23349e-10
6.26828e-10
6.99458e-09
2.32077e-09
8.89463e-10
7.53236e-10
1.07955e-09
1.47704e-09
1.78814e-09
2.01399e-09
2.15204e-09
2.22196e-09
2.24821e-09
2.25981e-09
2.23378e-09
2.49688e-09
5.87194e-11
1.26015e-11
3.20047e-12
1.30596e-12
8.53728e-13
7.96548e-13
9.36293e-13
1.07628e-12
1.14987e-12
1.04959e-12
7.51646e-13
4.57822e-13
6.7889e-13
4.55094e-12
4.81383e-11
1.08536e-11
2.1356e-12
3.76298e-13
7.26822e-14
3.64353e-14
4.87756e-14
6.9412e-14
8.89731e-14
9.41961e-14
7.47539e-14
8.11395e-14
5.04399e-13
4.22966e-12
7.92104e-11
1.93863e-11
4.08294e-12
7.40117e-13
1.13192e-13
1.4762e-14
3.45109e-15
3.78693e-15
5.56082e-15
6.85994e-15
8.29779e-15
4.61692e-14
4.68148e-13
3.97652e-12
1.18785e-10
2.9563e-11
6.40748e-12
1.19027e-12
1.82896e-13
2.20689e-14
2.25154e-15
4.45218e-16
4.39399e-16
6.39402e-16
2.96995e-15
3.69617e-14
4.0544e-13
3.52213e-12
1.57772e-10
3.90993e-11
8.42612e-12
1.54019e-12
2.29924e-13
2.65414e-14
2.46959e-15
2.80395e-16
1.32611e-16
2.2325e-16
2.15365e-15
3.02076e-14
3.4144e-13
3.04567e-12
1.97276e-10
4.74207e-11
9.80002e-12
1.69785e-12
2.38378e-13
2.58024e-14
2.34836e-15
3.35101e-16
1.83239e-16
2.32081e-16
1.73252e-15
2.43414e-14
2.82914e-13
2.5995e-12
2.47974e-10
5.73847e-11
1.12279e-11
1.81603e-12
2.35999e-13
2.4249e-14
3.09127e-15
1.36073e-15
1.0807e-15
9.26681e-16
1.95726e-15
2.02967e-14
2.35444e-13
2.20642e-12
3.09547e-10
6.86564e-11
1.26773e-11
1.91563e-12
2.36152e-13
3.08687e-14
1.33507e-14
1.16715e-14
1.01932e-14
8.44597e-15
7.65677e-15
2.09523e-14
1.92852e-13
1.79905e-12
3.73273e-10
7.95726e-11
1.39534e-11
2.00951e-12
2.78451e-13
9.99992e-14
9.63962e-14
9.49537e-14
8.61791e-14
7.38554e-14
6.18469e-14
6.39631e-14
1.97753e-13
1.544e-12
4.44433e-10
9.12999e-11
1.54075e-11
2.30305e-12
6.185e-13
5.72254e-13
6.50561e-13
6.61425e-13
6.19309e-13
5.49705e-13
4.72389e-13
4.18769e-13
4.7884e-13
1.6213e-12
5.04945e-10
1.00942e-10
1.71784e-11
3.5982e-12
2.58983e-12
3.25364e-12
3.80649e-12
3.95519e-12
3.81102e-12
3.4932e-12
3.09761e-12
2.75387e-12
2.52367e-12
3.8883e-12
5.71399e-10
1.16092e-10
2.31433e-11
1.00489e-11
1.23279e-11
1.6424e-11
1.93641e-11
2.04973e-11
2.02508e-11
1.90907e-11
1.74217e-11
1.58098e-11
1.41828e-11
1.70846e-11
7.16922e-10
1.71143e-10
4.88461e-11
3.77801e-11
5.38103e-11
7.27064e-11
8.61483e-11
9.28053e-11
9.38324e-11
9.0766e-11
8.50911e-11
7.91322e-11
7.1878e-11
7.88764e-11
1.26794e-09
3.86108e-10
1.47165e-10
1.40412e-10
2.07548e-10
2.82862e-10
3.37085e-10
3.68783e-10
3.80071e-10
3.75916e-10
3.61483e-10
3.45254e-10
3.22163e-10
3.36184e-10
8.69602e-12
1.86197e-12
4.60645e-13
1.80473e-13
1.27316e-13
1.33905e-13
1.69558e-13
2.05224e-13
2.28801e-13
2.16361e-13
1.58523e-13
9.16912e-14
7.0849e-14
3.77017e-13
8.51595e-12
1.96124e-12
3.9632e-13
7.22616e-14
1.44868e-14
7.60474e-15
1.05242e-14
1.55109e-14
2.04756e-14
2.23507e-14
1.80797e-14
1.26951e-14
4.08216e-14
3.58132e-13
1.48393e-11
3.63114e-12
7.74109e-13
1.44046e-13
2.30784e-14
3.35127e-15
9.31991e-16
1.05835e-15
1.53191e-15
1.88025e-15
1.78272e-15
3.9191e-15
3.73582e-14
3.51212e-13
2.26411e-11
5.64297e-12
1.23484e-12
2.33977e-13
3.73722e-14
4.92647e-15
6.04986e-16
1.88851e-16
1.90151e-16
2.24399e-16
3.47304e-16
2.72324e-15
3.25248e-14
3.17539e-13
3.04262e-11
7.52957e-12
1.631e-12
3.0305e-13
4.69407e-14
5.91274e-15
6.54429e-16
1.44574e-16
1.07473e-16
1.11471e-16
2.22486e-16
2.21482e-15
2.76369e-14
2.79437e-13
3.79351e-11
9.05932e-12
1.87636e-12
3.30584e-13
4.83106e-14
5.73229e-15
6.15948e-16
1.46589e-16
1.10258e-16
1.0949e-16
1.94905e-16
1.78837e-15
2.29079e-14
2.4072e-13
4.69382e-11
1.0721e-11
2.09578e-12
3.45003e-13
4.68406e-14
5.24158e-15
6.62829e-16
2.63031e-16
2.11364e-16
1.84457e-16
2.32776e-16
1.51491e-15
1.91002e-14
2.05924e-13
5.74168e-11
1.25113e-11
2.30412e-12
3.54678e-13
4.55005e-14
5.80275e-15
1.91182e-15
1.52049e-15
1.29403e-15
1.04282e-15
8.64757e-16
1.72107e-15
1.56917e-14
1.68285e-13
6.79407e-11
1.42007e-11
2.48258e-12
3.63396e-13
4.98915e-14
1.45978e-14
1.25696e-14
1.19766e-14
1.05598e-14
8.70879e-15
6.93302e-15
6.42089e-15
1.66644e-14
1.42623e-13
7.91428e-11
1.59339e-11
2.67805e-12
3.99677e-13
9.52893e-14
7.81264e-14
8.61694e-14
8.53749e-14
7.75457e-14
6.61697e-14
5.42979e-14
4.56371e-14
4.62968e-14
1.47211e-13
8.81568e-11
1.72445e-11
2.89769e-12
5.7595e-13
3.72666e-13
4.52856e-13
5.21222e-13
5.2817e-13
4.9317e-13
4.34594e-13
3.68403e-13
3.12871e-13
2.66846e-13
3.6436e-13
9.65949e-11
1.90334e-11
3.66616e-12
1.51027e-12
1.80477e-12
2.37221e-12
2.75871e-12
2.84715e-12
2.72336e-12
2.46829e-12
2.15351e-12
1.86787e-12
1.57822e-12
1.71379e-12
1.14248e-10
2.57641e-11
7.15131e-12
5.74507e-12
8.21011e-12
1.09852e-11
1.28375e-11
1.34735e-11
1.31798e-11
1.22587e-11
1.09833e-11
9.75247e-12
8.37538e-12
8.44754e-12
1.89128e-10
5.36172e-11
2.09011e-11
2.22585e-11
3.33639e-11
4.50334e-11
5.28396e-11
5.62343e-11
5.60199e-11
5.32406e-11
4.88636e-11
4.4432e-11
3.92388e-11
3.82255e-11
1.12265e-12
2.41795e-13
6.00379e-14
2.43744e-14
1.97064e-14
2.33884e-14
3.14341e-14
3.96724e-14
4.56224e-14
4.4371e-14
3.32863e-14
1.92556e-14
9.85552e-15
2.89698e-14
1.33031e-12
3.08092e-13
6.29733e-14
1.18027e-14
2.59566e-15
1.59682e-15
2.27557e-15
3.373e-15
4.47803e-15
4.95683e-15
4.10083e-15
2.58851e-15
3.42388e-15
2.72046e-14
2.42437e-12
5.89285e-13
1.25842e-13
2.37144e-14
3.95425e-15
6.80064e-16
2.77137e-16
3.19815e-16
4.30942e-16
5.1388e-16
4.758e-16
4.82741e-16
2.76567e-15
2.76998e-14
3.78029e-12
9.37091e-13
2.0483e-13
3.90498e-14
6.40736e-15
9.48193e-16
1.95517e-16
1.19114e-16
1.20874e-16
1.28618e-16
1.33078e-16
2.6459e-16
2.39567e-15
2.55574e-14
5.13837e-12
1.2611e-12
2.7191e-13
5.07039e-14
8.0477e-15
1.12558e-15
2.04057e-16
1.08632e-16
1.01322e-16
1.0159e-16
1.06585e-16
2.23892e-16
2.05749e-15
2.28541e-14
6.36882e-12
1.50283e-12
3.09438e-13
5.48138e-14
8.23783e-15
1.09291e-15
1.95546e-16
1.07969e-16
1.00964e-16
1.00493e-16
1.04374e-16
1.97636e-16
1.71233e-15
1.98039e-14
7.72938e-12
1.73682e-12
3.37272e-13
5.59736e-14
7.85678e-15
9.89695e-16
1.91806e-16
1.18263e-16
1.10117e-16
1.0687e-16
1.07876e-16
1.82782e-16
1.43884e-15
1.70311e-14
9.23502e-12
1.97371e-12
3.61058e-13
5.61513e-14
7.44425e-15
9.99049e-16
3.15738e-16
2.44652e-16
2.14974e-16
1.85154e-16
1.61717e-16
2.06424e-16
1.19343e-15
1.38961e-14
1.06882e-11
2.18794e-12
3.80033e-13
5.61418e-14
7.69151e-15
1.92888e-15
1.46775e-15
1.35194e-15
1.16699e-15
9.39775e-16
7.28487e-16
6.29181e-16
1.3019e-15
1.16126e-14
1.21509e-11
2.39628e-12
4.00055e-13
5.94086e-14
1.27276e-14
9.15093e-15