/*--------------------------------*- C++ -*----------------------------------*\
| =========                 |                                                 |
| \\      /  F ield         | OpenFOAM: The Open Source CFD Toolbox           |
|  \\    /   O peration     | Version:  v2106                                 |
|   \\  /    A nd           | Website:  www.openfoam.com                      |
|    \\/     M anipulation  |                                                 |
\*---------------------------------------------------------------------------*/
FoamFile
{
    version     2.0;
    format      ascii;
    arch        "LSB;label=32;scalar=64";
    class       volScalarField;
    location    "0.000167";
    object      p;
}
// * * * * * * * * * * * * * * * * * * * * * * * * * * * * * * * * * * * * * //

dimensions      [1 -1 -2 0 0 0 0];

internalField   nonuniform List<scalar> 
18109
(
211528
211618
211749
211811
211921
212046
212256
211384
211564
211743
211893
212038
212220
212428
211180
211465
211704
211915
212106
212321
212529
210966
211322
211596
211858
212086
212328
212547
210701
211120
211433
211741
212001
212264
212497
210417
210862
211216
211553
211846
212132
212387
210097
210554
210944
211307
211633
211943
212224
209755
210214
210631
211011
211366
211705
212021
213293
213465
213667
213815
213985
214176
214406
214652
214925
215208
215492
215812
216179
216552
213164
213431
213675
213898
214109
214332
214559
214815
215086
215369
215653
215952
216206
216418
213009
213358
213650
213937
214181
214435
214667
214919
215167
215420
215658
215893
216103
216304
212837
213250
213572
213897
214172
214449
214693
214945
215183
215419
215633
215835
216009
216118
212612
213079
213441
213800
214107
214400
214655
214904
215130
215344
215531
215689
215816
215886
212378
212861
213263
213645
213982
214292
214563
214816
215039
215243
215415
215550
215655
215695
212091
212591
213032
213436
213802
214133
214424
214688
214917
215117
215276
215387
215468
215478
211789
212297
212764
213184
213576
213932
214251
214538
214784
214991
215145
215245
215307
215290
211484
211997
212487
212930
213345
213727
214073
214386
214654
214872
215028
215127
215181
215147
211225
211734
212229
212684
213115
213515
213885
214225
214520
214757
214932
215044
215110
215079
211090
211556
212031
212482
212912
213313
213691
214048
214369
214638
214849
214995
215106
215089
211014
211466
211888
212311
212714
213097
213466
213833
214186
214503
214779
214964
215161
215206
210939
211382
211775
212151
212510
212862
213210
213577
213948
214312
214653
214947
215203
215408
210982
211354
211678
211990
212287
212574
212883
213231
213617
214034
214446
214895
215175
215490
211721
211866
212036
212283
212583
212989
213441
213530
213649
213874
214143
214511
213422
213454
213501
213789
214073
214546
213584
213552
213544
213725
213840
214161
213660
213510
213393
213394
213281
213351
213781
213541
213327
213166
212846
212621
213922
213607
213293
212927
212359
211992
214140
213773
213374
212875
212286
211816
214392
214038
213646
213119
212583
211993
214716
214404
214066
213542
213019
212492
215051
214815
214502
214097
213730
213298
215463
215316
215099
214863
214612
214403
215870
215792
215739
215672
215679
215734
216188
216271
216395
216530
216758
217036
216553
216797
216968
217253
217627
218035
216843
217099
217459
217840
218343
218926
216656
216988
217359
217855
218457
219197
216524
216849
217208
217656
218219
218870
216263
216500
216777
217129
217588
218080
215978
216151
216274
216458
216703
217016
215704
215710
215715
215747
215782
215690
215422
215306
215197
214973
214708
214275
215181
214977
214755
214394
213974
213343
215032
214809
214501
214070
213663
212857
214999
214789
214504
214173
213643
213094
215133
214976
214781
214495
214286
213999
215306
215256
215263
215189
215203
215255
215548
215617
215766
215907
216152
216395
215510
215685
215895
216166
216574
217016
215818
216097
216347
216569
216840
217192
215215
215418
215580
215774
215952
216079
214832
214890
214913
214826
214643
214327
214201
214022
213793
213384
212937
212455
213656
213290
212805
212044
211186
210298
213166
212647
211904
210879
209681
208610
212744
212117
211193
210114
208628
207318
212424
211773
210791
209648
208116
206731
212159
211512
210726
209540
208413
207122
211965
211400
210738
210028
209288
208436
211783
211301
210931
210489
210125
209808
211580
211259
211117
210959
211034
211114
211427
211238
211287
211301
211591
211919
210755
210755
210851
211108
211491
212033
210613
210212
209782
209372
208995
208758
210897
210662
210482
210364
210367
210507
211244
211149
211194
211303
211473
211781
211296
211396
211486
211797
212092
212561
211013
211154
211207
211315
211415
211599
210571
210466
210311
210341
210351
210348
210598
210297
209885
209673
209327
209033
210547
210032
209437
208915
208118
207133
210624
209976
209239
208375
207294
205935
210830
210071
209256
208126
206911
205438
211151
210358
209461
208261
206944
205492
211500
210783
209936
208794
207336
205973
211848
211186
210405
209307
208166
206969
212158
211597
210910
210067
209262
208300
212451
212007
211484
210969
210454
210013
212705
212396
212110
211887
211722
211716
212968
212797
212760
212778
212864
213052
213017
213069
213094
213316
213519
213893
215688
218044
222357
227903
236468
215763
217887
221768
228204
238718
214972
216260
220489
227935
242783
213631
214493
217478
224980
239265
211949
212177
213829
220335
230914
211123
210600
211534
217120
225684
210772
209894
211051
217726
229155
210986
210174
211640
217840
227786
241091
211659
211064
212309
217057
222997
231346
212854
212712
214305
218945
223881
230174
214352
214863
217208
222348
228395
235607
239629
216050
217243
220264
226141
233636
244233
256007
264251
217647
219572
223100
229717
239878
257802
282201
316985
219241
221492
225268
231050
240099
253461
274921
293676
220369
222962
227319
232350
240151
249718
261440
267475
220854
223844
228057
233620
241883
253862
262874
271201
220500
223048
227242
233704
244855
261702
282027
288962
219197
221573
225195
230993
241618
256946
275017
299561
217251
219000
221219
226220
234138
244290
255265
260688
215397
215930
217309
222727
231121
241699
248032
253749
213776
213489
214887
221290
232608
249381
261903
264467
212770
212234
214324
220945
231144
245291
259977
283921
212310
211776
214027
219472
225840
233214
212655
212619
215417
221106
227766
234993
213892
214556
218196
224448
232256
242017
215564
217129
221181
228583
238942
253155
217210
219500
223912
231905
245683
267463
218194
220736
225307
232699
245987
218297
220677
225320
232952
244010
216826
218477
223055
230852
243117
214528
215758
219384
227735
243548
211518
211710
214470
222844
236448
209117
208660
211150
217907
226875
207003
206177
209148
215938
225611
205383
204285
207923
216214
230053
204867
204087
208257
215788
227537
205623
205061
208687
214478
221229
207485
207663
211814
217525
223826
209571
210925
215732
222245
230504
211640
213982
219255
227190
238907
213141
216036
221393
230199
246389
213385
216023
221163
229733
245217
212740
214807
219645
227613
239493
210616
211838
215725
223953
237317
208273
208439
211530
221817
239925
206035
205164
208000
218634
236170
204741
203403
206511
215219
227840
203770
202137
204990
211967
222011
203539
201937
205457
214013
227367
204146
202806
206315
214173
225465
205645
204468
207209
212933
218843
207555
207047
210195
215683
220935
209762
210040
213710
219566
226431
211873
213031
217072
223350
232347
213572
215485
219519
225560
237145
214924
216966
220618
225750
235677
216756
217019
217255
217475
217683
217904
218138
218410
218701
219001
219286
219561
219839
220126
216663
216988
217250
217536
217780
218040
218290
218579
218871
219171
219452
219728
219989
220209
216529
216935
217239
217570
217852
218144
218412
218698
218980
219259
219512
219740
219954
220135
216390
216840
217187
217550
217863
218177
218462
218748
219021
219284
219522
219731
219923
220084
216229
216709
217105
217499
217837
218160
218449
218728
218990
219236
219460
219653
219820
219943
216042
216544
216980
217399
217762
218097
218394
218666
218917
219148
219360
219540
219691
219795
215824
216350
216821
217260
217642
217990
218296
218568
218813
219035
219236
219400
219531
219615
215613
216146
216635
217083
217481
217843
218162
218444
218693
218914
219106
219255
219372
219444
215413
215957
216461
216919
217326
217698
218028
218321
218578
218799
218984
219120
219227
219284
215289
215822
216314
216764
217171
217548
217889
218195
218464
218693
218877
219008
219114
219154
215208
215728
216202
216638
217032
217401
217743
218060
218346
218593
218791
218932
219047
219071
215232
215687
216122
216518
216879
217228
217565
217896
218209
218491
218725
218889
219040
219053
215189
215648
216032
216389
216719
217044
217370
217711
218049
218372
218651
218862
219063
219148
215220
215634
215949
216248
216519
216794
217097
217446
217816
218193
218536
218843
219067
219267
222973
223325
223582
223860
224083
224316
224537
224791
225060
225334
225609
225865
226114
226281
222921
223308
223573
223874
224128
224393
224647
224923
225206
225482
225748
225996
226242
226466
222819
223238
223550
223878
224166
224456
224735
225022
225307
225572
225816
226030
226242
226439
222727
223155
223506
223859
224176
224485
224781
225070
225351
225606
225836
226034
226228
226415
222609
223052
223441
223824
224169
224493
224796
225079
225347
225587
225803
225992
226175
226341
222475
222934
223357
223765
224137
224477
224784
225061
225316
225543
225750
225933
226105
226259
222344
222813
223266
223693
224083
224434
224747
225020
225266
225482
225680
225855
226020
226166
222251
222724
223190
223625
224022
224377
224693
224965
225205
225413
225604
225773
225931
226072
222211
222682
223152
223584
223978
224330
224642
224911
225145
225349
225534
225696
225846
225977
222219
222679
223137
223557
223941
224285
224592
224857
225089
225291
225471
225626
225769
225889
222248
222706
223140
223546
223910
224241
224541
224805
225037
225240
225417
225567
225707
225818
222347
222761
223164
223526
223863
224177
224471
224741
224984
225196
225377
225527
225671
225764
222395
222805
223161
223487
223793
224086
224374
224656
224918
225154
225350
225514
225674
225776
222465
222841
223115
223396
223661
223932
224221
224524
224820
225096
225330
225503
225684
225741
228830
229141
229354
229594
229782
229965
230137
230323
230529
230749
230996
231254
231535
231768
228772
229069
229303
229550
229766
229975
230173
230380
230600
230825
231063
231314
231573
231863
228658
228977
229244
229514
229758
229991
230212
230431
230654
230874
231098
231325
231566
231832
228555
228881
229179
229473
229745
230001
230241
230468
230689
230901
231110
231318
231542
231795
228449
228786
229112
229432
229732
230010
230267
230500
230715
230915
231109
231304
231516
231755
228353
228701
229055
229401
229727
230024
230293
230528
230738
230930
231113
231298
231500
231728
228300
228660
229034
229399
229743
230052
230325
230560
230766
230951
231128
231308
231503
231719
228295
228663
229052
229427
229780
230093
230365
230595
230794
230974
231148
231327
231522
231733
228331
228709
229109
229491
229844
230153
230419
230641
230833
231007
231178
231357
231554
231764
228414
228798
229200
229581
229928
230226
230481
230693
230876
231046
231215
231394
231593
231804
228546
228930
229323
229690
230021
230304
230544
230746
230922
231087
231253
231432
231634
231846
228691
229077
229442
229787
230099
230367
230596
230794
230966
231131
231298
231479
231683
231892
228835
229227
229569
229886
230170
230418
230635
230827
231000
231172
231344
231534
231743
231967
228988
229375
229661
229942
230193
230425
230640
230845
231032
231213
231397
231582
231792
231970
233751
234061
234292
234517
234692
234833
234944
235038
235138
235259
235416
235617
235860
236139
233695
233990
234230
234457
234647
234805
234936
235049
235162
235294
235457
235666
235898
236212
233608
233909
234171
234410
234616
234789
234934
235059
235182
235318
235479
235679
235910
236207
233562
233854
234128
234377
234596
234782
234939
235075
235204
235342
235499
235693
235916
236204
233549
233832
234112
234370
234600
234797
234963
235106
235238
235376
235529
235716
235933
236211
233570
233849
234133
234398
234636
234840
235011
235157
235290
235428
235578
235760
235971
236242
233630
233906
234192
234461
234705
234912
235084
235231
235365
235504
235653
235833
236041
236303
233740
234013
234299
234568
234810
235015
235184
235329
235462
235600
235750
235931
236139
236393
233891
234162
234445
234710
234946
235143
235305
235446
235577
235716
235868
236051
236262
236512
234076
234346
234624
234880
235106
235292
235445
235579
235706
235845
235999
236185
236401
236649
234298
234565
234829
235067
235276
235446
235587
235714
235837
235976
236133
236325
236544
236792
234525
234790
235032
235249
235438
235593
235725
235847
235970
236110
236271
236466
236687
236935
234760
235020
235234
235424
235589
235727
235848
235967
236091
236234
236400
236600
236821
237082
234958
235226
235393
235556
235696
235822
235942
236070
236203
236353
236524
236715
236941
237178
237064
237372
237616
237830
238003
238124
238208
238265
238313
238377
238468
238606
238782
239032
237091
237383
237616
237817
237984
238107
238197
238263
238321
238399
238504
238664
238847
239118
237118
237393
237627
237825
237986
238107
238198
238269
238335
238422
238533
238696
238889
239154
237193
237444
237666
237857
238013
238130
238219
238294
238367
238460
238578
238747
238942
239207
237292
237522
237732
237914
238062
238175
238262
238339
238415
238514
238637
238807
239007
239267
237421
237632
237828
237998
238137
238245
238329
238406
238486
238589
238716
238888
239089
239344
237575
237770
237952
238110
238239
238340
238421
238499
238581
238688
238819
238992
239194
239442
237758
237938
238106
238250
238368
238460
238537
238615
238701
238812
238946
239120
239322
239562
237963
238128
238280
238408
238513
238596
238670
238748
238838
238954
239093
239269
239471
239704
238180
238332
238468
238580
238672
238747
238817
238897
238992
239113
239258
239437
239639
239865
238409
238546
238662
238755
238833
238900
238968
239050
239150
239279
239430
239614
239816
240040
238639
238759
238847
238921
238984
239044
239112
239200
239308
239446
239606
239794
239999
240216
238873
238966
239026
239079
239129
239183
239252
239346
239462
239609
239775
239971
240175
240405
239075
239155
239177
239204
239239
239292
239368
239474
239604
239759
239932
240124
240337
240552
239149
239407
239598
239766
239910
240026
240121
240203
240270
240351
240434
240551
240679
240857
239301
239514
239683
239837
239967
240074
240160
240238
240305
240390
240481
240613
240750
240943
239454
239639
239798
239936
240049
240139
240211
240279
240342
240426
240522
240656
240802
240997
239632
239791
239931
240050
240146
240220
240280
240339
240400
240486
240585
240725
240877
241074
239824
239961
240083
240181
240257
240314
240361
240412
240470
240554
240658
240799
240958
241155
240023
240140
240241
240319
240375
240416
240452
240496
240552
240637
240745
240887
241051
241246
240222
240320
240399
240457
240495
240523
240552
240592
240647
240733
240844
240987
241154
241347
240416
240493
240551
240590
240614
240632
240656
240695
240753
240841
240956
241099
241268
241456
240594
240652
240689
240714
240726
240739
240762
240803
240865
240957
241076
241220
241390
241574
240753
240791
240812
240825
240829
240839
240866
240913
240984
241082
241205
241350
241521
241701
240892
240915
240919
240922
240923
240935
240968
241025
241105
241212
241340
241491
241661
241841
241009
241022
241010
241002
241003
241022
241066
241135
241228
241344
241481
241635
241809
241983
241128
241119
241093
241078
241082
241113
241167
241250
241355
241484
241627
241791
241964
242154
241207
241200
241160
241144
241155
241196
241265
241362
241480
241616
241767
241930
242114
242290
240472
240608
240709
240811
240899
240982
241059
241137
241209
241297
241373
241470
241561
241678
240688
240781
240861
240943
241015
241084
241149
241217
241283
241364
241441
241539
241629
241746
240883
240953
241026
241089
241142
241194
241243
241298
241352
241423
241494
241587
241677
241796
241066
241118
241179
241224
241263
241302
241339
241382
241429
241493
241561
241654
241746
241866
241236
241277
241325
241358
241386
241412
241438
241471
241510
241568
241635
241725
241820
241941
241390
241425
241461
241486
241503
241518
241534
241559
241595
241649
241717
241806
241905
242026
241530
241561
241587
241603
241612
241618
241628
241648
241682
241734
241804
241894
241997
242119
241657
241684
241700
241708
241708
241710
241717
241736
241770
241823
241897
241988
242097
242218
241765
241786
241793
241795
241793
241793
241801
241823
241861
241917
241996
242089
242203
242325
241856
241871
241870
241869
241866
241868
241881
241907
241951
242013
242097
242192
242313
242436
241925
241935
241930
241928
241928
241937
241957
241993
242046
242115
242205
242306
242432
242557
241977
241987
241980
241981
241987
242004
242034
242079
242142
242217
242314
242419
242552
242678
242030
242032
242024
242028
242043
242070
242113
242172
242246
242333
242437
242553
242687
242826
242061
242073
242069
242082
242106
242146
242202
242271
242354
242446
242556
242671
242815
242946
240922
240929
240959
241004
241054
241108
241167
241235
241306
241391
241466
241557
241636
241729
241083
241076
241102
241133
241170
241212
241260
241318
241380
241457
241528
241617
241692
241785
241225
241215
241238
241261
241287
241317
241354
241401
241453
241518
241581
241661
241733
241828
241352
241343
241361
241376
241393
241415
241443
241481
241525
241582
241641
241716
241788
241883
241466
241462
241474
241483
241494
241509
241530
241560
241598
241649
241705
241776
241850
241946
241568
241569
241576
241581
241588
241597
241613
241637
241671
241718
241773
241843
241921
242018
241659
241664
241667
241670
241673
241679
241691
241712
241745
241790
241847
241917
242002
242100
241739
241747
241747
241749
241750
241754
241764
241784
241817
241862
241923
241996
242090
242192
241806
241814
241813
241816
241817
241822
241834
241856
241891
241939
242007
242084
242188
242294
241866
241875
241874
241878
241880
241887
241902
241926
241966
242016
242092
242174
242290
242401
241911
241923
241924
241931
241937
241949
241970
242000
242047
242105
242190
242281
242406
242521
241957
241976
241981
241992
242002
242018
242044
242079
242132
242196
242289
242387
242523
242642
242006
242027
242034
242051
242068
242091
242125
242172
242237
242314
242414
242524
242661
242790
242060
242092
242109
242130
242153
242183
242224
242277
242348
242430
242534
242646
242789
242921
240758
240723
240719
240711
240726
240758
240806
240864
240928
241004
241077
241170
241247
241352
240861
240823
240818
240810
240822
240853
240894
240946
241005
241076
241147
241234
241315
241415
240948
240916
240909
240904
240914
240941
240976
241023
241074
241139
241204
241285
241362
241461
241021
240996
240989
240987
240998
241021
241052
241094
241142
241202
241264
241342
241418
241513
241089
241070
241064
241063
241075
241095
241123
241161
241204
241261
241322
241398
241475
241570
241149
241137
241133
241135
241146
241165
241190
241225
241268
241322
241384
241461
241541
241637
241205
241199
241196
241202
241212
241231
241256
241289
241332
241387
241452
241530
241617
241715
241260
241261
241261
241270
241279
241297
241322
241355
241400
241456
241528
241609
241705
241807
241311
241319
241323
241335
241344
241365
241390
241425
241475
241535
241614
241701
241807
241912
241373
241388
241394
241408
241418
241439
241466
241503
241557
241620
241709
241802
241921
242031
241430
241453
241462
241480
241494
241518
241550
241592
241654
241726
241823
241924
242052
242164
241507
241538
241551
241571
241588
241613
241649
241694
241761
241838
241943
242051
242190
242305
241583
241621
241637
241661
241685
241716
241760
241816
241895
241985
242097
242212
242354
242471
241682
241730
241755
241780
241810
241845
241894
241956
242038
242130
242241
242357
242500
242627
240237
240184
240151
240121
240109
240111
240132
240173
240227
240298
240377
240477
240583
240719
240284
240235
240208
240186
240180
240188
240217
240259
240315
240387
240470
240572
240674
240795
240325
240287
240265
240250
240250
240268
240297
240341
240396
240466
240546
240644
240744
240863
240368
240340
240324
240317
240323
240343
240376
240421
240478
240549
240630
240727
240825
240940
240419
240397
240387
240385
240397
240420
240454
240501
240557
240629
240711
240807
240905
241017
240474
240459
240453
240458
240473
240498
240535
240583
240642
240716
240800
240896
240995
241106
240538
240528
240526
240536
240553
240582
240620
240670
240732
240808
240894
240990
241092
241200
240610
240608
240609
240623
240641
240672
240713
240764
240830
240908
240999
241096
241201
241307
240690
240697
240700
240718
240738
240771
240814
240868
240938
241019
241114
241211
241320
241424
240787
240801
240806
240826
240847
240881
240926
240984
241057
241141
241238
241337
241453
241554
240884
240908
240917
240940
240965
241002
241052
241114
241192
241278
241379
241479
241599
241696
241005
241039
241052
241077
241105
241143
241195
241258
241338
241425
241527
241630
241754
241851
241130
241171
241188
241217
241253
241295
241352
241420
241504
241596
241701
241807
241931
242025
241297
241333
241364
241390
241429
241472
241528
241595
241677
241767
241869
241974
242096
242202
239875
239839
239817
239795
239777
239766
239762
239773
239798
239840
239900
239978
240070
240183
239900
239875
239858
239842
239830
239826
239832
239850
239884
239936
240003
240088
240182
240289
239930
239912
239901
239892
239888
239891
239903
239929
239970
240027
240096
240180
240271
240378
239971
239959
239951
239948
239950
239960
239980
240015
240063
240125
240198
240285
240376
240481
240023
240013
240010
240012
240019
240035
240064
240105
240159
240225
240301
240388
240476
240577
240083
240078
240078
240083
240095
240119
240155
240203
240262
240332
240410
240496
240583
240680
240157
240155
240158
240166
240184
240214
240256
240308
240371
240443
240522
240606
240691
240781
240244
240246
240251
240263
240285
240320
240366
240422
240486
240559
240638
240720
240805
240888
240342
240351
240358
240375
240400
240439
240487
240543
240609
240681
240759
240838
240922
240998
240458
240472
240482
240502
240529
240568
240616
240673
240739
240810
240887
240962
241045
241114
240583
240604
240616
240640
240667
240708
240756
240813
240879
240948
241023
241094
241174
241234
240731
240756
240768
240792
240819
240859
240907
240963
241026
241092
241164
241233
241313
241366
240886
240910
240925
240949
240979
241020
241069
241124
241185
241248
241316
241383
241459
241508
241078
241089
241109
241129
241158
241195
241240
241291
241346
241404
241467
241533
241607
241665
239802
239787
239771
239752
239737
239723
239713
239708
239708
239718
239738
239766
239805
239862
239809
239801
239791
239783
239775
239770
239769
239773
239783
239802
239831
239868
239912
239979
239828
239826
239820
239819
239818
239822
239829
239842
239860
239887
239919
239961
240006
240072
239858
239859
239859
239864
239870
239881
239894
239915
239940
239973
240010
240055
240104
240169
239905
239907
239912
239920
239932
239947
239967
239993
240024
240060
240100
240147
240196
240258
239967
239969
239978
239987
240001
240021
240045
240076
240110
240150
240191
240239
240288
240346
240044
240047
240056
240066
240082
240104
240132
240166
240203
240244
240286
240331
240379
240431
240134
240137
240144
240154
240172
240196
240226
240262
240299
240340
240381
240424
240469
240515
240233
240238
240243
240255
240273
240298
240329
240364
240401
240440
240479
240518
240560
240598
240343
240350
240354
240367
240385
240409
240438
240471
240506
240542
240580
240615
240653
240684
240461
240473
240475
240489
240505
240527
240554
240583
240616
240650
240684
240714
240749
240769
240597
240608
240606
240616
240630
240650
240674
240701
240731
240762
240794
240820
240851
240859
240739
240745
240741
240750
240762
240779
240801
240825
240851
240877
240905
240928
240952
240949
240907
240892
240887
240891
240900
240914
240932
240951
240974
240995
241017
241037
241058
241058
239860
239857
239846
239834
239819
239802
239784
239765
239746
239727
239712
239697
239688
239691
239855
239857
239849
239841
239832
239823
239811
239799
239787
239775
239767
239762
239762
239772
239862
239865
239862
239860
239855
239850
239844
239839
239835
239831
239829
239832
239835
239847
239886
239887
239888
239888
239887
239886
239885
239885
239885
239887
239890
239896
239903
239918
239922
239922
239925
239928
239930
239931
239932
239935
239939
239945
239951
239960
239968
239985
239970
239970
239974
239977
239980
239983
239986
239990
239995
240002
240010
240020
240031
240047
240031
240031
240033
240035
240037
240041
240045
240050
240056
240063
240072
240082
240093
240105
240102
240100
240100
240100
240101
240104
240108
240114
240120
240127
240135
240142
240152
240160
240180
240177
240173
240172
240172
240174
240178
240184
240189
240195
240200
240204
240210
240213
240264
240260
240252
240250
240248
240249
240252
240256
240259
240262
240264
240265
240266
240262
240353
240350
240339
240334
240331
240330
240331
240332
240332
240331
240328
240324
240320
240308
240452
240446
240430
240423
240416
240413
240410
240408
240405
240399
240392
240382
240373
240353
240555
240546
240527
240517
240507
240499
240492
240486
240478
240468
240455
240437
240420
240392
240674
240647
240623
240608
240594
240583
240573
240563
240551
240538
240521
240498
240476
240439
239928
239929
239921
239909
239890
239869
239844
239815
239782
239745
239707
239662
239616
239567
239915
239920
239912
239903
239888
239870
239846
239818
239786
239751
239716
239680
239642
239603
239914
239917
239909
239900
239886
239869
239849
239825
239798
239769
239740
239711
239679
239646
239921
239923
239915
239907
239893
239878
239859
239839
239815
239790
239763
239736
239709
239684
239940
239938
239930
239921
239908
239893
239876
239858
239837
239816
239793
239769
239745
239722
239965
239960
239951
239942
239929
239916
239900
239882
239863
239843
239822
239800
239778
239756
239997
239990
239980
239970
239957
239944
239928
239911
239892
239872
239851
239829
239807
239785
240037
240028
240016
240005
239991
239977
239959
239941
239920
239899
239877
239854
239832
239808
240083
240072
240058
240045
240029
240012
239993
239973
239951
239928
239903
239877
239851
239825
240134
240121
240104
240088
240069
240049
240027
240005
239979
239954
239926
239897
239866
239837
240187
240172
240151
240132
240110
240087
240062
240037
240009
239979
239947
239914
239876
239841
240242
240222
240198
240176
240151
240125
240096
240067
240035
240002
239965
239927
239884
239842
240298
240276
240248
240221
240192
240162
240130
240096
240060
240021
239979
239932
239884
239834
240359
240323
240289
240257
240226
240193
240157
240119
240077
240034
239989
239941
239890
239832
239950
239945
239932
239916
239892
239865
239832
239793
239750
239699
239645
239582
239518
239439
239922
239921
239908
239893
239871
239844
239811
239772
239729
239679
239624
239562
239499
239428
239907
239905
239891
239874
239851
239823
239791
239755
239713
239666
239615
239557
239497
239430
239896
239892
239877
239859
239836
239809
239778
239742
239700
239654
239604
239549
239492
239430
239893
239885
239869
239850
239826
239798
239766
239730
239690
239645
239597
239544
239489
239430
239893
239882
239865
239844
239819
239790
239757
239721
239680
239635
239587
239536
239482
239426
239897
239883
239863
239841
239814
239784
239750
239712
239670
239625
239577
239527
239475
239421
239903
239886
239864
239839
239810
239778
239742
239702
239659
239613
239564
239514
239463
239410
239911
239891
239866
239838
239807
239772
239733
239692
239646
239598
239548
239497
239444
239393
239918
239895
239866
239836
239801
239763
239722
239678
239630
239580
239528
239475
239419
239368
239928
239901
239868
239834
239796
239754
239709
239662
239609
239556
239500
239445
239386
239336
239932
239902
239865
239827
239784
239740
239691
239641
239586
239530
239470
239412
239348
239297
239937
239902
239860
239818
239772
239724
239671
239615
239555
239494
239431
239368
239301
239246
239930
239888
239845
239798
239748
239697
239641
239584
239523
239461
239395
239330
239261
239193
239851
239838
239817
239795
239768
239736
239699
239656
239607
239551
239489
239419
239345
239257
239817
239803
239781
239758
239729
239696
239656
239610
239558
239499
239433
239361
239285
239203
239787
239773
239748
239722
239690
239654
239613
239566
239512
239453
239388
239316
239242
239161
239757
239741
239714
239686
239652
239614
239571
239522
239467
239406
239341
239270
239196
239116
239730
239710
239681
239650
239614
239574
239528
239478
239422
239362
239296
239226
239154
239075
239701
239677
239647
239613
239575
239532
239485
239433
239376
239314
239249
239179
239108
239032
239672
239644
239612
239576
239535
239490
239440
239387
239328
239266
239201
239133
239062
238989
239638
239607
239573
239534
239491
239444
239392
239337
239277
239214
239149
239081
239011
238941
239605
239570
239533
239491
239446
239396
239342
239284
239222
239159
239093
239026
238957
238891
239563
239526
239486
239441
239393
239341
239285
239226
239163
239099
239032
238966
238897
238835
239524
239482
239439
239391
239340
239284
239225
239163
239098
239032
238964
238899
238830
238774
239473
239427
239382
239331
239277
239219
239158
239095
239029
238963
238894
238829
238759
238706
239426
239375
239326
239272
239214
239152
239088
239021
238952
238882
238812
238746
238676
238626
239361
239306
239254
239198
239138
239075
239010
238943
238874
238805
238736
238670
238600
238542
239462
239426
239387
239345
239298
239248
239192
239131
239066
238995
239531
239506
239472
239440
239404
239365
239321
239274
239223
239167
239107
239041
238973
238900
239482
239456
239418
239382
239342
239300
239253
239204
239150
239092
239030
238963
238895
238822
239431
239402
239361
239322
239279
239233
239184
239131
239074
239014
238950
238882
238813
238738
239378
239344
239301
239259
239213
239165
239112
239058
238999
238937
238872
238804
238735
238661
239319
239281
239237
239192
239143
239093
239038
238981
238921
238857
238792
238723
238655