/*--------------------------------*- C++ -*----------------------------------*\
| =========                 |                                                 |
| \\      /  F ield         | OpenFOAM: The Open Source CFD Toolbox           |
|  \\    /   O peration     | Version:  v2106                                 |
|   \\  /    A nd           | Website:  www.openfoam.com                      |
|    \\/     M anipulation  |                                                 |
\*---------------------------------------------------------------------------*/
FoamFile
{
    version     2.0;
    format      ascii;
    arch        "LSB;label=32;scalar=64";
    class       volScalarField;
    location    "0.000167";
    object      rho;
}
// * * * * * * * * * * * * * * * * * * * * * * * * * * * * * * * * * * * * * //

dimensions      [1 -3 0 0 0 0 0];

internalField   nonuniform List<scalar> 
18109
(
2.47702
2.47811
2.4795
2.48026
2.4813
2.48236
2.48406
2.47528
2.47732
2.47934
2.48099
2.48247
2.48412
2.48588
2.47332
2.47645
2.47909
2.4813
2.48314
2.48504
2.4868
2.47167
2.47557
2.47849
2.48103
2.48307
2.48513
2.48696
2.46978
2.4743
2.47745
2.48023
2.48244
2.48461
2.48654
2.46772
2.47242
2.4758
2.47873
2.48114
2.48348
2.48559
2.46531
2.46997
2.47355
2.47664
2.47932
2.48188
2.48421
2.46271
2.46716
2.47085
2.47407
2.47704
2.47988
2.48253
2.4916
2.49351
2.49557
2.49709
2.4987
2.50038
2.50228
2.50424
2.50632
2.50841
2.51048
2.5129
2.5158
2.51899
2.4902
2.49308
2.49565
2.49787
2.49984
2.50181
2.50374
2.50586
2.50802
2.51016
2.51216
2.51426
2.51616
2.518
2.48889
2.49261
2.49561
2.49834
2.50051
2.50269
2.50464
2.50675
2.50877
2.51074
2.51243
2.51405
2.51564
2.5174
2.48773
2.49211
2.49527
2.49818
2.5005
2.50282
2.50484
2.50694
2.50891
2.5108
2.51245
2.51399
2.51537
2.51627
2.48621
2.49103
2.49441
2.49748
2.5
2.50239
2.5045
2.50658
2.50846
2.51025
2.5118
2.51312
2.51417
2.51458
2.48455
2.48938
2.49299
2.49619
2.49894
2.50147
2.5037
2.50581
2.5077
2.50945
2.51097
2.51218
2.51298
2.51294
2.48242
2.48719
2.49104
2.49439
2.4974
2.50013
2.50254
2.50475
2.50669
2.50845
2.5099
2.51089
2.51138
2.51087
2.48012
2.48473
2.4887
2.49221
2.49548
2.49845
2.50112
2.50352
2.50561
2.50743
2.50882
2.50961
2.50979
2.50893
2.4777
2.48211
2.48622
2.48997
2.49351
2.49676
2.49968
2.5023
2.50455
2.50642
2.50775
2.5084
2.50841
2.50741
2.47552
2.47964
2.4838
2.48775
2.49152
2.495
2.49816
2.50099
2.50343
2.50539
2.50675
2.50743
2.50753
2.5067
2.47421
2.47778
2.48178
2.48582
2.48972
2.4933
2.49655
2.49952
2.50213
2.50426
2.50581
2.50671
2.50726
2.50675
2.47335
2.47663
2.48021
2.48409
2.48784
2.49134
2.49458
2.49767
2.50052
2.50297
2.50499
2.5062
2.50759
2.50786
2.47262
2.47564
2.47889
2.48231
2.48568
2.48896
2.49213
2.4953
2.49836
2.50121
2.50377
2.50594
2.50793
2.50981
2.47313
2.47545
2.47783
2.48041
2.48306
2.48574
2.48865
2.49183
2.49521
2.49866
2.50199
2.50567
2.50803
2.51087
2.47942
2.48206
2.48564
2.48972
2.49313
2.49653
2.49344
2.49537
2.49855
2.50269
2.50634
2.50974
2.49354
2.49479
2.49635
2.49952
2.50197
2.50594
2.49505
2.49531
2.49565
2.49703
2.49726
2.49963
2.49575
2.4944
2.49307
2.49243
2.49081
2.49115
2.4967
2.49408
2.49122
2.48859
2.48548
2.48553
2.49773
2.49413
2.49004
2.48538
2.48104
2.48358
2.4994
2.49511
2.49017
2.48484
2.48201
2.48772
2.50132
2.49701
2.49208
2.48755
2.48749
2.49543
2.50378
2.49991
2.49582
2.49245
2.49493
2.5052
2.50635
2.50333
2.50025
2.49931
2.50487
2.51565
2.50967
2.50785
2.50642
2.5082
2.51558
2.52613
2.51308
2.51243
2.51326
2.51735
2.52606
2.53501
2.5159
2.51708
2.52018
2.52601
2.53416
2.54087
2.51926
2.52216
2.52585
2.53173
2.53807
2.54333
2.52194
2.525
2.52936
2.53404
2.53922
2.54418
2.5204
2.52374
2.52728
2.53153
2.5361
2.54191
2.5194
2.52216
2.52483
2.52771
2.53145
2.53708
2.51729
2.51873
2.52004
2.52162
2.5246
2.52938
2.51475
2.51505
2.51457
2.51477
2.51663
2.52204
2.51205
2.51056
2.50904
2.50851
2.50986
2.51591
2.50922
2.50665
2.50448
2.50262
2.50402
2.51181
2.50684
2.50389
2.50132
2.49968
2.50292
2.5122
2.50557
2.5029
2.50047
2.49999
2.50587
2.51412
2.50541
2.50341
2.50221
2.50433
2.51055
2.51912
2.50683
2.50594
2.50667
2.51052
2.51907
2.52663
2.50887
2.50952
2.51295
2.51896
2.52734
2.53302
2.51157
2.51373
2.51867
2.52524
2.53187
2.53607
2.5118
2.51521
2.51994
2.52485
2.53004
2.53448
2.51436
2.51826
2.52234
2.52569
2.52868
2.53208
2.50913
2.5121
2.51477
2.51715
2.51876
2.52008
2.50553
2.50654
2.50707
2.5064
2.50519
2.50493
2.49989
2.49818
2.49575
2.4922
2.49049
2.49416
2.49503
2.49109
2.48606
2.48061
2.47924
2.48553
2.49058
2.4848
2.47776
2.47251
2.47303
2.48159
2.48659
2.4797
2.47222
2.46938
2.47102
2.47777
2.48345
2.47668
2.47034
2.46915
2.47148
2.47603
2.48094
2.47508
2.47186
2.47128
2.47656
2.47991
2.47935
2.47521
2.4742
2.47812
2.48546
2.48891
2.47827
2.47581
2.47825
2.48439
2.49267
2.49661
2.47753
2.47725
2.48189
2.48926
2.4979
2.50228
2.4775
2.47875
2.4843
2.49074
2.49763
2.5019
2.47275
2.4756
2.48042
2.48614
2.4913
2.49633
2.46761
2.4647
2.46535
2.47189
2.4819
2.48807
2.47046
2.46955
2.47244
2.48054
2.49086
2.49751
2.47416
2.47483
2.47946
2.48735
2.49528
2.50099
2.47549
2.47812
2.48225
2.48888
2.49437
2.49946
2.47483
2.47846
2.48198
2.485
2.48658
2.48821
2.47098
2.47225
2.47307
2.47426
2.47443
2.47418
2.47092
2.4697
2.46699
2.46512
2.4623
2.46204
2.4702
2.46618
2.46082
2.45583
2.45066
2.44985
2.47044
2.46444
2.45718
2.44995
2.44579
2.44772
2.47164
2.46413
2.45608
2.4483
2.44696
2.45211
2.47378
2.46559
2.45717
2.45087
2.45188
2.45885
2.47622
2.46859
2.46132
2.45707
2.45866
2.46551
2.4787
2.47173
2.46605
2.46341
2.46789
2.474
2.48093
2.47518
2.47132
2.47165
2.47835
2.48392
2.48321
2.47911
2.47732
2.48069
2.48866
2.49553
2.48549
2.48327
2.48394
2.48946
2.49834
2.50545
2.48827
2.48775
2.49065
2.49717
2.50503
2.51064
2.48941
2.49128
2.49455
2.50057
2.50585
2.51079
2.52142
2.5484
2.60958
2.73125
2.94977
2.51974
2.5518
2.63168
2.78996
3.03041
2.51295
2.55028
2.65451
2.82783
3.08892
2.5052
2.55358
2.65365
2.81389
3.0535
2.49895
2.54931
2.62749
2.75822
2.95137
2.50184
2.54378
2.59896
2.70309
2.87459
2.50726
2.53821
2.57705
2.67076
2.85543
2.51436
2.53586
2.56253
2.63972
2.80387
3.04428
2.52127
2.53398
2.55051
2.60801
2.7304
2.9325
2.5286
2.53657
2.54995
2.6007
2.70425
2.88658
2.53572
2.54316
2.56082
2.61456
2.72246
2.89888
3.04651
2.54312
2.55273
2.57592
2.63792
2.75896
2.95836
3.17476
3.31759
2.54845
2.56281
2.59319
2.66747
2.81515
3.07736
3.40082
3.77044
2.55371
2.57189
2.61021
2.68404
2.83202
3.07516
3.36665
3.61848
2.55687
2.58255
2.63216
2.71449
2.87432
3.09608
3.31092
3.4174
2.55847
2.5922
2.65355
2.76417
2.94331
3.17704
3.35216
3.47005
2.55583
2.59471
2.67537
2.81094
3.00916
3.26474
3.53552
3.63993
2.54899
2.60083
2.69007
2.81843
2.99918
3.23768
3.49086
3.76631
2.54276
2.60077
2.67488
2.77669
2.92087
3.11794
3.31721
3.42357
2.53984
2.58778
2.63823
2.72628
2.87058
3.07802
3.25013
3.35898
2.53594
2.56748
2.60241
2.68414
2.84947
3.12436
3.35808
3.46102
2.5318
2.54898
2.57803
2.65642
2.80945
3.05857
3.33043
3.65005
2.52741
2.5342
2.55887
2.62593
2.74923
2.94076
2.52669
2.52946
2.55544
2.62312
2.74844
2.93689
2.53104
2.53449
2.56765
2.64596
2.78773
2.99214
2.53723
2.54772
2.58818
2.68602
2.85884
3.09611
2.54331
2.5644
2.61507
2.72785
2.93949
3.24219
2.54682
2.57642
2.64075
2.76837
2.99013
2.54623
2.58347
2.66785
2.81469
3.01501
2.53666
2.58169
2.67866
2.82266
3.02065
2.5258
2.57938
2.66385
2.79531
3.01794
2.5126
2.55519
2.61551
2.73459
2.93765
2.50271
2.52751
2.57205
2.67265
2.84352
2.49033
2.49849
2.53835
2.63855
2.82017
2.47699
2.47462
2.51643
2.6282
2.84994
2.47061
2.46579
2.50993
2.61316
2.8138
2.47345
2.46604
2.50323
2.59091
2.75341
2.48399
2.48015
2.51963
2.609
2.77355
2.49505
2.50045
2.54685
2.65104
2.84003
2.50537
2.52217
2.57883
2.70197
2.92868
2.51169
2.54
2.6061
2.74778
3.01777
2.51058
2.54431
2.62692
2.79086
3.06762
2.50335
2.54499
2.64824
2.82032
3.05931
2.48793
2.53811
2.64175
2.80498
3.04776
2.47615
2.52539
2.61135
2.77647
3.05914
2.4679
2.5041
2.57074
2.7239
2.99677
2.46665
2.48709
2.54088
2.67087
2.90414
2.46465
2.47142
2.51238
2.6228
2.83333
2.46425
2.46282
2.50327
2.61986
2.85307
2.46684
2.46134
2.49898
2.60288
2.80808
2.47451
2.46616
2.49435
2.5753
2.73364
2.485
2.47894
2.50847
2.58244
2.72694
2.4979
2.49606
2.528
2.60559
2.76448
2.50901
2.51382
2.5495
2.63335
2.80802
2.51577
2.52893
2.56849
2.65319
2.84946
2.51993
2.5389
2.58174
2.67014
2.86998
2.52056
2.52329
2.52562
2.52766
2.52954
2.53146
2.53343
2.53568
2.53801
2.54034
2.54248
2.54451
2.54662
2.54888
2.51974
2.52309
2.52567
2.52829
2.53043
2.53265
2.53476
2.53717
2.53959
2.54199
2.54412
2.54609
2.54798
2.54967
2.51879
2.52292
2.5258
2.5287
2.53108
2.53352
2.53576
2.53815
2.54049
2.54276
2.54472
2.54636
2.54789
2.54929
2.51794
2.52243
2.52558
2.52864
2.53121
2.5338
2.53615
2.53853
2.54081
2.54296
2.54486
2.54648
2.54796
2.54924
2.51688
2.5215
2.52499
2.52826
2.53101
2.53364
2.53603
2.53835
2.54053
2.54257
2.54441
2.54601
2.54739
2.54836
2.51554
2.52019
2.52395
2.52741
2.53037
2.53311
2.53555
2.53781
2.5399
2.54184
2.54365
2.54521
2.54651
2.54726
2.51392
2.5186
2.52258
2.5262
2.52935
2.53222
2.53473
2.53699
2.53905
2.54094
2.54269
2.54416
2.54526
2.5457
2.51229
2.51688
2.52096
2.52468
2.52799
2.531
2.53364
2.53598
2.53807
2.53996
2.54166
2.54298
2.54388
2.54408
2.51065
2.51518
2.51938
2.52324
2.52668
2.52982
2.53257
2.535
2.53713
2.53901
2.54062
2.54178
2.54247
2.54247
2.50949
2.51384
2.51797
2.52184
2.52537
2.5286
2.53146
2.53398
2.53619
2.53809
2.53964
2.54067
2.54127
2.54113
2.50862
2.51278
2.51682
2.52068
2.52418
2.5274
2.53028
2.53288
2.53519
2.53718
2.53875
2.53979
2.54045
2.54026
2.50859
2.51214
2.51592
2.51954
2.52282
2.52591
2.52878
2.5315
2.53401
2.53624
2.53802
2.53917
2.54018
2.54008
2.508
2.51154
2.51493
2.51819
2.52122
2.52415
2.527
2.52986
2.5326
2.53514
2.53724
2.53876
2.54025
2.54089
2.50825
2.51125
2.51389
2.51651
2.51899
2.52154
2.52429
2.52734
2.53045
2.5335
2.53619
2.53856
2.54029
2.54199
2.57224
2.57559
2.57799
2.58044
2.58238
2.58438
2.58625
2.58837
2.59058
2.59279
2.59494
2.59687
2.59874
2.59994
2.57202
2.57577
2.57814
2.58069
2.58283
2.58504
2.58716
2.58946
2.59181
2.59408
2.5962
2.59807
2.59988
2.60153
2.57143
2.57544
2.57813
2.58084
2.58318
2.58556
2.58786
2.59023
2.59259
2.59478
2.59675
2.59841
2.59998
2.60143
2.57089
2.57486
2.57785
2.58074
2.58329
2.58579
2.58821
2.5906
2.59293
2.59503
2.59691
2.59848
2.59998
2.60143
2.57011
2.57406
2.57732
2.58044
2.58323
2.58586
2.58833
2.59066
2.59287
2.59486
2.59663
2.59818
2.59967
2.60102
2.56914
2.5731
2.5766
2.57993
2.58295
2.58571
2.58823
2.5905
2.5926
2.59448
2.5962
2.59774
2.59921
2.6005
2.56813
2.57209
2.5758
2.57929
2.58248
2.58536
2.58792
2.59017
2.59219
2.59398
2.59565
2.59717
2.59861
2.59983
2.56738
2.57129
2.57511
2.57869
2.58197
2.5849
2.5875
2.58973
2.5917
2.59344
2.59506
2.59655
2.59795
2.59907
2.56701
2.57085
2.57472
2.57832
2.58161
2.58454
2.58711
2.5893
2.59122
2.59292
2.59451
2.59594
2.59722
2.5982
2.56694
2.57067
2.57449
2.57805
2.58131
2.5842
2.58673
2.58888
2.59076
2.59243
2.59397
2.5953
2.59647
2.59729
2.56693
2.57068
2.57439
2.57791
2.58106
2.58387
2.58634
2.58847
2.59033
2.59197
2.59344
2.59468
2.59576
2.59645
2.56747
2.57091
2.57444
2.57769
2.58066
2.58335
2.58578
2.58795
2.58987
2.59156
2.59299
2.59417
2.59522
2.59573
2.56762
2.57107
2.5743
2.57726
2.57999
2.58254
2.58496
2.58723
2.58931
2.59114
2.59266
2.5939
2.59504
2.59563
2.56809
2.57121
2.57371
2.57621
2.57859
2.58101
2.5835
2.58603
2.58843
2.59059
2.59242
2.59372
2.595
2.59523
2.62067
2.62358
2.62549
2.62754
2.62913
2.63068
2.63212
2.63368
2.63539
2.63718
2.63917
2.64123
2.64342
2.64518
2.62048
2.62327
2.62526
2.62729
2.62905
2.63077
2.63241
2.63412
2.63594
2.63779
2.63973
2.64172
2.64375
2.64597
2.61976
2.62266
2.62489
2.62706
2.62901
2.6309
2.6327
2.63449
2.63634
2.63815
2.63998
2.6418
2.64369
2.64575
2.61907
2.62192
2.62438
2.62674
2.62892
2.63098
2.63293
2.63478
2.63659
2.63833
2.64005
2.64174
2.64351
2.64551
2.6183
2.62116
2.62381
2.62639
2.62881
2.63105
2.63313
2.63503
2.63679
2.63844
2.64003
2.64161
2.64334
2.64527
2.61757
2.62045
2.62331
2.62611
2.62875
2.63116
2.63334
2.63526
2.63697
2.63854
2.64005
2.64157
2.64324
2.64514
2.61716
2.62009
2.62311
2.62608
2.62887
2.63139
2.63361
2.63552
2.6372
2.63871
2.64017
2.64167
2.64332
2.64514
2.6171
2.62006
2.62321
2.62628
2.62917
2.63172
2.63394
2.63581
2.63743
2.6389
2.64035
2.64186
2.64354
2.64531
2.6173
2.62035
2.62362
2.62678
2.6297
2.63224
2.6344
2.6362
2.63775
2.63918
2.64061
2.64214
2.64383
2.64558
2.61782
2.62096
2.62432
2.62751
2.6304
2.63287
2.63494
2.63665
2.63812
2.6395
2.64091
2.64244
2.64413
2.64585
2.61869
2.62191
2.62526
2.62838
2.63118
2.63354
2.63549
2.6371
2.63849
2.63983
2.64121
2.64272
2.6444
2.64605
2.61968
2.62298
2.62615
2.62913
2.63181
2.63407
2.63595
2.63751
2.63885
2.64016
2.64152
2.64302
2.64466
2.64624
2.62068
2.62407
2.62707
2.62983
2.63231
2.63444
2.63623
2.63777
2.63913
2.64046
2.64182
2.64333
2.64497
2.64664
2.62181
2.62508
2.62762
2.63011
2.63233
2.63436
2.63619
2.63786
2.63934
2.64075
2.64216
2.64356
2.64514
2.64643
2.66118
2.66387
2.66584
2.66773
2.66917
2.67033
2.67126
2.67205
2.67288
2.67388
2.67516
2.67679
2.67873
2.68093
2.66094
2.66349
2.66547
2.66731
2.66884
2.67012
2.67118
2.67211
2.67305
2.67414
2.67548
2.67717
2.67903
2.68151
2.66036
2.66291
2.66504
2.66696
2.6686
2.66999
2.67116
2.67218
2.67318
2.6743
2.67562
2.67724
2.67909
2.68146
2.66005
2.66248
2.66469
2.66669
2.66844
2.66993
2.67119
2.67229
2.67335
2.67447
2.67576
2.67733
2.67912
2.68143
2.65998
2.6623
2.66455
2.66662
2.66847
2.67005
2.67138
2.67254
2.67361
2.67473
2.67598
2.6775
2.67926
2.6815
2.66017
2.66242
2.6647
2.66683
2.66875
2.6704
2.67177
2.67295
2.67403
2.67515
2.67637
2.67786
2.67958
2.68178
2.66066
2.66285
2.66515
2.66733
2.6693
2.67097
2.67237
2.67355
2.67464
2.67576
2.67697
2.67845
2.68016
2.68232
2.6615
2.66367
2.66598
2.66817
2.67015
2.67181
2.67318
2.67435
2.67542
2.67654
2.67777
2.67925
2.68098
2.68309
2.66264
2.66483
2.66715
2.66932
2.67125
2.67286
2.67417
2.67531
2.67636
2.67748
2.67872
2.68024
2.682
2.68407
2.66404
2.66628
2.66859
2.6707
2.67257
2.67409
2.67532
2.67639
2.67741
2.67853
2.67979
2.68134
2.68313
2.68518
2.66573
2.668
2.67023
2.67223
2.67396
2.67536
2.67649
2.6775
2.67848
2.67959
2.68088
2.68247
2.68428
2.6863
2.66747
2.66976
2.67183
2.67368
2.67528
2.67657
2.67764
2.6786
2.67955
2.68067
2.68198
2.68359
2.68541
2.68737
2.66929
2.67155
2.67341
2.67505
2.67647
2.67766
2.67867
2.6796
2.68054
2.68166
2.68298
2.68461
2.6864
2.68845
2.67079
2.67307
2.67457
2.67601
2.67726
2.67839
2.67943
2.68044
2.68144
2.68259
2.68393
2.68544
2.68722
2.68907
2.68844
2.69094
2.69292
2.69466
2.69607
2.69706
2.69773
2.69821
2.6986
2.69913
2.69987
2.70099
2.70241
2.70442
2.68869
2.69107
2.69296
2.69459
2.69592
2.69692
2.69764
2.69818
2.69866
2.6993
2.70015
2.70145
2.70293
2.7051
2.68895
2.69119
2.69307
2.69466
2.69595
2.69692
2.69765
2.69822
2.69876
2.69946
2.70037
2.70169
2.70325
2.70538
2.68958
2.69161
2.6934
2.69492
2.69617
2.69711
2.69782
2.69842
2.699
2.69976
2.70072
2.70209
2.70367
2.7058
2.69037
2.69223
2.69392
2.69537
2.69656
2.69747
2.69816
2.69877
2.69939
2.70019
2.70118
2.70256
2.70418
2.70628
2.69141
2.6931
2.69467
2.69604
2.69716
2.69802
2.6987
2.69931
2.69996
2.70079
2.70182
2.70321
2.70484
2.70691
2.69264
2.69419
2.69565
2.69693
2.69798
2.69879
2.69944
2.70006
2.70072
2.70159
2.70265
2.70405
2.70569
2.70771
2.69409
2.69553
2.69689
2.69805
2.69901
2.69975
2.70037
2.701
2.70169
2.70258
2.70367
2.70508
2.70673
2.70869
2.69571
2.69705
2.69829
2.69933
2.70018
2.70086
2.70145
2.70208
2.7028
2.70373
2.70486
2.70629
2.70794
2.70984
2.69742
2.69869
2.69981
2.70073
2.70147
2.70208
2.70264
2.70329
2.70404
2.70502
2.70619
2.70764
2.7093
2.71115
2.69923
2.7004
2.70137
2.70214
2.70278
2.70333
2.70387
2.70453
2.70532
2.70636
2.70758
2.70908
2.71073
2.71256
2.70106
2.70211
2.70286
2.70349
2.70402
2.70451
2.70505
2.70574
2.7066
2.70771
2.709
2.71053
2.7122
2.71396
2.70294
2.70376
2.7043
2.70476
2.70519
2.70565
2.70621
2.70694
2.70785
2.70902
2.71035
2.71194
2.7136
2.71544
2.70456
2.70525
2.70548
2.70575
2.70607
2.70653
2.70715
2.70799
2.709
2.71022
2.7116
2.71313
2.71485
2.71657
2.70541
2.70749
2.70902
2.71037
2.71153
2.71247
2.71323
2.7139
2.71443
2.71509
2.71575
2.7167
2.71774
2.71917
2.70665
2.70835
2.70971
2.71094
2.71199
2.71285
2.71354
2.71417
2.71471
2.7154
2.71613
2.7172
2.71831
2.71986
2.70787
2.70936
2.71064
2.71174
2.71265
2.71337
2.71395
2.7145
2.715
2.71568
2.71645
2.71753
2.71872
2.72029
2.70931
2.71058
2.7117
2.71266
2.71343
2.71402
2.7145
2.71498
2.71547
2.71615
2.71696
2.71809
2.71932
2.72091
2.71085
2.71194
2.71292
2.71371
2.71432
2.71478
2.71515
2.71556
2.71602
2.7167
2.71754
2.71868
2.71997
2.72156
2.71245
2.71338
2.71419
2.71481
2.71527
2.71559
2.71588
2.71624
2.71669
2.71737
2.71824
2.71939
2.72071
2.72229
2.71405
2.71483
2.71546
2.71592
2.71623
2.71646
2.71668
2.717
2.71745
2.71814
2.71904
2.7202
2.72155
2.7231
2.7156
2.71622
2.71668
2.717
2.71719
2.71734
2.71752
2.71783
2.7183
2.71901
2.71994
2.7211
2.72246
2.72399
2.71703
2.71749
2.7178
2.718
2.71809
2.71819
2.71837
2.7187
2.71921
2.71995
2.7209
2.72207
2.72344
2.72494
2.7183
2.71862
2.71878
2.71889
2.71892
2.719
2.71921
2.71959
2.72016
2.72095
2.72194
2.72311
2.7245
2.72596
2.71941
2.71961
2.71965
2.71968
2.71968
2.71978
2.72004
2.7205
2.72114
2.722
2.72303
2.72425
2.72562
2.72709
2.72035
2.72048
2.72039
2.72033
2.72033
2.72049
2.72084
2.72139
2.72213
2.72307
2.72417
2.72541
2.72682
2.72823
2.72131
2.72127
2.72107
2.72095
2.72099
2.72123
2.72166
2.72232
2.72316
2.72419
2.72535
2.72667
2.72807
2.7296
2.72196
2.72192
2.72161
2.72149
2.72158
2.72191
2.72247
2.72324
2.72417
2.72526
2.72648
2.72778
2.72927
2.73068
2.7161
2.71719
2.718
2.71882
2.71953
2.7202
2.72081
2.72144
2.72202
2.72273
2.72334
2.72413
2.72486
2.72581
2.71784
2.71857
2.71922
2.71988
2.72046
2.72102
2.72154
2.72208
2.72261
2.72327
2.72388
2.72468
2.7254
2.72635
2.71941
2.71996
2.72055
2.72105
2.72148
2.7219
2.72229
2.72273
2.72317
2.72374
2.72431
2.72506
2.72579
2.72675
2.72088
2.72129
2.72177
2.72213
2.72245
2.72276
2.72306
2.72341
2.72378
2.7243
2.72485
2.7256
2.72634
2.72731
2.72224
2.72257
2.72295
2.72322
2.72344
2.72365
2.72386
2.72412
2.72444
2.7249
2.72545
2.72617
2.72694
2.72791
2.72349
2.72376
2.72405
2.72424
2.72438
2.7245
2.72463
2.72483
2.72512
2.72555
2.7261
2.72682
2.72762
2.72859
2.72461
2.72486
2.72506
2.72519
2.72525
2.7253
2.72538
2.72555
2.72582
2.72624
2.7268
2.72752
2.72836
2.72934
2.72563
2.72585
2.72597
2.72603
2.72603
2.72604
2.7261
2.72625
2.72652
2.72695
2.72755
2.72828
2.72916
2.73014
2.7265
2.72667
2.72672
2.72674
2.72671
2.72671
2.72678
2.72695
2.72725
2.72771
2.72834
2.72909
2.73001
2.731
2.72723
2.72735
2.72734
2.72733
2.7273
2.72731
2.72741
2.72763
2.72798
2.72847
2.72915
2.72992
2.7309
2.73188
2.72778
2.72786
2.72782
2.7278
2.7278
2.72787
2.72803
2.72832
2.72875
2.7293
2.73002
2.73083
2.73185
2.73286
2.7282
2.72829
2.72823
2.72823
2.72828
2.72841
2.72865
2.72902
2.72952
2.73012
2.7309
2.73174
2.73282
2.73383
2.72863
2.72865
2.72858
2.72862
2.72873
2.72895
2.7293
2.72977
2.73036
2.73106
2.7319
2.73282
2.73391
2.73503
2.72889
2.72899
2.72895
2.72906
2.72925
2.72957
2.73001
2.73057
2.73123
2.73197
2.73286
2.73379
2.73494
2.736
2.71972
2.71978
2.72002
2.72038
2.72079
2.72122
2.72169
2.72224
2.72281
2.72349
2.7241
2.72483
2.72547
2.72621
2.72102
2.72096
2.72117
2.72142
2.72172
2.72205
2.72244
2.72291
2.72341
2.72402
2.72459
2.72531
2.72591
2.72667
2.72216
2.72207
2.72226
2.72245
2.72265
2.7229
2.7232
2.72357
2.72399
2.72451
2.72502
2.72566
2.72624
2.72701
2.72318
2.7231
2.72325
2.72337
2.72351
2.72369
2.72391
2.72422
2.72457
2.72503
2.7255
2.72611
2.72669
2.72745
2.7241
2.72406
2.72416
2.72423
2.72432
2.72444
2.72461
2.72485
2.72516
2.72557
2.72602
2.72659
2.72719
2.72796
2.72492
2.72493
2.72498
2.72502
2.72508
2.72515
2.72528
2.72547
2.72575
2.72612
2.72657
2.72713
2.72776
2.72854
2.72565
2.72569
2.72571
2.72574
2.72577
2.72581
2.72591
2.72608
2.72634
2.7267
2.72716
2.72772
2.7284
2.7292
2.72631
2.72636
2.72636
2.72638
2.72638
2.72641
2.72649
2.72666
2.72692
2.72728
2.72777
2.72836
2.72911
2.72994
2.72685
2.72691
2.7269
2.72691
2.72692
2.72696
2.72705
2.72723
2.72752
2.7279
2.72844
2.72906
2.7299
2.73075
2.72732
2.7274
2.72738
2.72741
2.72743
2.72748
2.7276
2.7278
2.72811
2.72852
2.72912
2.72979
2.73072
2.73161
2.72769
2.72778
2.72778
2.72784
2.72788
2.72798
2.72815
2.72839
2.72877
2.72923
2.72991
2.73064
2.73165
2.73258
2.72806
2.72821
2.72824
2.72833
2.72841
2.72854
2.72874
2.72903
2.72945
2.72997
2.73071
2.7315
2.73259
2.73355
2.72845
2.72862
2.72867
2.72881
2.72894
2.72913
2.7294
2.72978
2.7303
2.73092
2.73173
2.73261
2.73371
2.73474
2.72888
2.72914
2.72928
2.72945
2.72963
2.72988
2.73021
2.73063
2.7312
2.73186
2.7327
2.73359
2.73474
2.7358
2.7184
2.71812
2.71808
2.71802
2.71814
2.7184
2.71879
2.71925
2.71977
2.72038
2.72097
2.72172
2.72234
2.72318
2.71923
2.71892
2.71888
2.71882
2.71892
2.71916
2.7195
2.71992
2.72039
2.72096
2.72153
2.72223
2.72288
2.72369
2.71993
2.71967
2.71961
2.71957
2.71966
2.71987
2.72016
2.72053
2.72095
2.72146
2.72199
2.72264
2.72326
2.72406
2.72052
2.72031
2.72026
2.72024
2.72034
2.72052
2.72077
2.72111
2.72149
2.72197
2.72247
2.7231
2.72371
2.72448
2.72106
2.72091
2.72086
2.72086
2.72096
2.72112
2.72134
2.72164
2.722
2.72245
2.72294
2.72355
2.72417
2.72494
2.72155
2.72145
2.72142
2.72143
2.72152
2.72168
2.72188
2.72217
2.72251
2.72295
2.72345
2.72406
2.72471
2.72548
2.722
2.72196
2.72193
2.72198
2.72206
2.72221
2.72241
2.72268
2.72303
2.72347
2.72399
2.72462
2.72531
2.72611
2.72245
2.72246
2.72245
2.72253
2.7226
2.72275
2.72294
2.72321
2.72357
2.72402
2.7246
2.72525
2.72603
2.72685
2.72287
2.72293
2.72295
2.72305
2.72313
2.72329
2.72349
2.72378
2.72418
2.72466
2.7253
2.72599
2.72684
2.72769
2.72336
2.72348
2.72352
2.72364
2.72372
2.72389
2.7241
2.7244
2.72483
2.72535
2.72605
2.7268
2.72776
2.72864
2.72382
2.724
2.72407
2.72421
2.72433
2.72452
2.72478
2.72512
2.72562
2.72619
2.72698
2.72778
2.72882
2.72971
2.72444
2.72469
2.72479
2.72495
2.72508
2.72529
2.72557
2.72594
2.72648
2.7271
2.72794
2.7288
2.72992
2.73085
2.72505
2.72535
2.72548
2.72567
2.72586
2.72611
2.72647
2.72692
2.72756
2.72828
2.72918
2.7301
2.73124
2.73218
2.72584
2.72623
2.72643
2.72663
2.72687
2.72715
2.72755
2.72805
2.72871
2.72945
2.73035
2.73128
2.73243
2.73344
2.71419
2.71377
2.71351
2.71327
2.71317
2.71319
2.71335
2.71368
2.71411
2.71469
2.71533
2.71613
2.71699
2.71808
2.71457
2.71418
2.71396
2.71379
2.71374
2.71381
2.71404
2.71437
2.71483
2.71541
2.71608
2.7169
2.71772
2.7187
2.71491
2.7146
2.71443
2.71431
2.71431
2.71445
2.71468
2.71504
2.71548
2.71605
2.71669
2.71748
2.71829
2.71924
2.71526
2.71502
2.7149
2.71484
2.71489
2.71506
2.71532
2.71569
2.71614
2.71672
2.71737
2.71815
2.71894
2.71986
2.71566
2.71549
2.71541
2.71539
2.71549
2.71567
2.71595
2.71633
2.71679
2.71737
2.71802
2.7188
2.71958
2.72049
2.71611
2.71599
2.71594
2.71598
2.7161
2.71631
2.71661
2.71699
2.71747
2.71806
2.71874
2.71952
2.72031
2.7212
2.71662
2.71655
2.71653
2.71662
2.71675
2.71699
2.71729
2.71769
2.71819
2.7188
2.7195
2.72027
2.72109
2.72196
2.71721
2.7172
2.7172
2.71731
2.71746
2.71771
2.71804
2.71846
2.71898
2.71961
2.72034
2.72112
2.72197
2.72282
2.71785
2.71791
2.71794
2.71808
2.71824
2.71851
2.71885
2.71929
2.71986
2.72051
2.72127
2.72205
2.72293
2.72376
2.71864
2.71875
2.71879
2.71895
2.71912
2.71939
2.71976
2.72022
2.72082
2.72149
2.72227
2.72307
2.72399
2.72481
2.71942
2.71961
2.71968
2.71987
2.72007
2.72037
2.72077
2.72127
2.7219
2.7226
2.72341
2.72421
2.72517
2.72595
2.7204
2.72067
2.72076
2.72097
2.7212
2.7215
2.72192
2.72243
2.72307
2.72377
2.7246
2.72542
2.72642
2.7272
2.7214
2.72172
2.72186
2.7221
2.72238
2.72273
2.72319
2.72374
2.72441
2.72515
2.726
2.72685
2.72785
2.7286
2.72274
2.72303
2.72328
2.72349
2.7238
2.72415
2.7246
2.72514
2.72581
2.72653
2.72735
2.72819
2.72917
2.73002
2.71128
2.71099
2.71081
2.71063
2.71049
2.7104
2.71037
2.71046
2.71065
2.71099
2.71148
2.71211
2.71285
2.71376
2.71148
2.71127
2.71114
2.71101
2.71092
2.71089
2.71093
2.71108
2.71135
2.71177
2.71231
2.713
2.71376
2.71462
2.71172
2.71158
2.71149
2.71141
2.71138
2.71141
2.71151
2.71172
2.71205
2.71251
2.71306
2.71374
2.71448
2.71534
2.71205
2.71196
2.7119
2.71187
2.71188
2.71196
2.71213
2.71241
2.71279
2.7133
2.71389
2.71459
2.71532
2.71616
2.71247
2.71239
2.71237
2.71238
2.71244
2.71257
2.71281
2.71314
2.71357
2.71411
2.71472
2.71542
2.71613
2.71694
2.71296
2.71291
2.71291
2.71296
2.71306
2.71325
2.71354
2.71393
2.7144
2.71497
2.7156
2.71629
2.71699
2.71777
2.71355
2.71354
2.71356
2.71363
2.71378
2.71402
2.71435
2.71478
2.71528
2.71587
2.7165
2.71717
2.71786
2.71859
2.71425
2.71427
2.71431
2.71441
2.71459
2.71487
2.71524
2.71569
2.71621
2.7168
2.71743
2.71809
2.71878
2.71945
2.71505
2.71512
2.71517
2.71531
2.71552
2.71583
2.71622
2.71667
2.7172
2.71778
2.71841
2.71904
2.71972
2.72033
2.71598
2.7161
2.71617
2.71634
2.71655
2.71687
2.71726
2.71772
2.71825
2.71882
2.71944
2.72005
2.72072
2.72127
2.71699
2.71716
2.71726
2.71745
2.71767
2.71799
2.71838
2.71885
2.71938
2.71993
2.72053
2.72111
2.72176
2.72224
2.71818
2.71838
2.71848
2.71867
2.71889
2.71921
2.7196
2.72005
2.72056
2.72109
2.72167
2.72223
2.72287
2.7233
2.71943
2.71962
2.71974
2.71993
2.72018
2.72051
2.7209
2.72135
2.72184
2.72235
2.7229
2.72344
2.72405
2.72444
2.72097
2.72106
2.72122
2.72138
2.72162
2.72192
2.72228
2.72269
2.72314
2.7236
2.72411
2.72464
2.72524
2.72571
2.71069
2.71056
2.71044
2.71029
2.71017
2.71006
2.70997
2.70993
2.70993
2.71001
2.71018
2.7104
2.71072
2.71117
2.71075
2.71068
2.7106
2.71053
2.71047
2.71043
2.71042
2.71045
2.71054
2.71069
2.71092
2.71122
2.71158
2.71212
2.7109
2.71088
2.71084
2.71082
2.71082
2.71085
2.71091
2.71101
2.71116
2.71138
2.71164
2.71197
2.71234
2.71287
2.71114
2.71115
2.71115
2.71119
2.71124
2.71133
2.71144
2.7116
2.71181
2.71207
2.71237
2.71274
2.71313
2.71365
2.71152
2.71153
2.71158
2.71165
2.71174
2.71186
2.71202
2.71223
2.71248
2.71277
2.71309
2.71348
2.71387
2.71437
2.71202
2.71204
2.71211
2.71218
2.7123
2.71246
2.71266
2.7129
2.71318
2.7135
2.71383
2.71422
2.71461
2.71508
2.71264
2.71267
2.71274
2.71282
2.71295
2.71313
2.71336
2.71363
2.71393
2.71425
2.71459
2.71496
2.71534
2.71576
2.71337
2.7134
2.71345
2.71353
2.71367
2.71387
2.71411
2.7144
2.7147
2.71503
2.71536
2.71571
2.71607
2.71644
2.71417
2.71421
2.71425
2.71435
2.71449
2.71469
2.71494
2.71522
2.71552
2.71584
2.71615
2.71647
2.71681
2.71711
2.71505
2.71511
2.71514
2.71524
2.71539
2.71559
2.71582
2.71608
2.71637
2.71666
2.71696
2.71724
2.71756
2.7178
2.71601
2.7161
2.71612
2.71623
2.71636
2.71654
2.71675
2.71699
2.71726
2.71753
2.71781
2.71805
2.71833
2.71849
2.7171
2.71719
2.71717
2.71726
2.71737
2.71753
2.71772
2.71794
2.71818
2.71843
2.71869
2.7189
2.71915
2.71922
2.71824
2.7183
2.71826
2.71833
2.71843
2.71857
2.71874
2.71893
2.71915
2.71936
2.71958
2.71977
2.71996
2.71994
2.71959
2.71948
2.71944
2.71947
2.71954
2.71965
2.7198
2.71995
2.72013
2.72031
2.72049
2.72064
2.72081
2.72081
2.71116
2.71114
2.71105
2.71095
2.71083
2.71069
2.71054
2.71039
2.71024
2.71009
2.70996
2.70984
2.70977
2.7098
2.71111
2.71113
2.71107
2.71101
2.71093
2.71086
2.71077
2.71067
2.71057
2.71047
2.71041
2.71037
2.71036
2.71045
2.71117
2.7112
2.71118
2.71116
2.71112
2.71108
2.71103
2.71099
2.71095
2.71093
2.71091
2.71093
2.71096
2.71105
2.71137
2.71138
2.71138
2.71139
2.71138
2.71137
2.71136
2.71136
2.71136
2.71138
2.7114
2.71145
2.7115
2.71162
2.71166
2.71166
2.71168
2.71171
2.71172
2.71173
2.71174
2.71176
2.7118
2.71184
2.71189
2.71196
2.71203
2.71217
2.71205
2.71205
2.71207
2.7121
2.71212
2.71215
2.71217
2.71221
2.71225
2.7123
2.71237
2.71245
2.71254
2.71266
2.71253
2.71254
2.71255
2.71257
2.71259
2.71262
2.71265
2.71269
2.71274
2.7128
2.71287
2.71295
2.71303
2.71313
2.71311
2.7131
2.71309
2.71309
2.7131
2.71313
2.71316
2.71321
2.71325
2.71331
2.71337
2.71344
2.71351
2.71358
2.71374
2.71372
2.71368
2.71367
2.71367
2.71369
2.71372
2.71377
2.71381
2.71386
2.7139
2.71394
2.71398
2.714
2.71441
2.71438
2.71432
2.7143
2.71429
2.7143
2.71432
2.71435
2.71438
2.7144
2.71442
2.71442
2.71443
2.7144
2.71513
2.71511
2.71502
2.71498
2.71495
2.71495
2.71496
2.71497
2.71496
2.71496
2.71493
2.7149
2.71487
2.71477
2.71593
2.71588
2.71576
2.7157
2.71565
2.71562
2.7156
2.71558
2.71555
2.71551
2.71545
2.71537
2.71529
2.71514
2.71676
2.71669
2.71654
2.71646
2.71637
2.71631
2.71626
2.7162
2.71614
2.71606
2.71596
2.71581
2.71567
2.71545
2.71772
2.71751
2.71731
2.71719
2.71707
2.71699
2.7169
2.71682
2.71673
2.71662
2.71649
2.7163
2.71612
2.71583
2.71171
2.71172
2.71165
2.71155
2.7114
2.71123
2.71103
2.71079
2.71053
2.71023
2.70992
2.70956
2.70919
2.70879
2.71161
2.71164
2.71158
2.7115
2.71138
2.71124
2.71105
2.71082
2.71056
2.71028
2.71
2.70971
2.7094
2.70909
2.71159
2.71162
2.71156
2.71148
2.71137
2.71123
2.71107
2.71088
2.71065
2.71042
2.71019
2.70996
2.70969
2.70943
2.71165
2.71166
2.7116
2.71154
2.71143
2.7113
2.71115
2.71098
2.7108
2.71059
2.71037
2.71016
2.70994
2.70974
2.71181
2.71179
2.71172
2.71165
2.71154
2.71143
2.71129
2.71114
2.71097
2.7108
2.71061
2.71042
2.71023
2.71005
2.712
2.71197
2.71189
2.71182
2.71172
2.71161
2.71148
2.71134
2.71118
2.71102
2.71085
2.71067
2.7105
2.71032
2.71226
2.71221
2.71212
2.71205
2.71194
2.71184
2.71171
2.71157
2.71141
2.71125
2.71108
2.71091
2.71073
2.71055
2.71258
2.71251
2.71242
2.71233
2.71222
2.7121
2.71196
2.71181
2.71164
2.71147
2.7113
2.71111
2.71093
2.71074
2.71296
2.71287
2.71276
2.71265
2.71252
2.71238
2.71223
2.71207
2.71189
2.7117
2.7115
2.7113
2.71109
2.71088
2.71337
2.71326
2.71313
2.713
2.71284
2.71268
2.7125
2.71232
2.71212
2.71191
2.71169
2.71146
2.71121
2.71097
2.71379
2.71367
2.71351
2.71335
2.71317
2.71299
2.71279
2.71259
2.71236
2.71212
2.71186
2.71159
2.71129
2.711
2.71424
2.71408
2.71388
2.71371
2.7135
2.7133
2.71306
2.71283
2.71257
2.7123
2.712
2.7117
2.71135
2.71102
2.71469
2.71451
2.71428
2.71407
2.71384
2.7136
2.71333
2.71306
2.71277
2.71246
2.71211
2.71174
2.71135
2.71095
2.71518
2.71489
2.71461
2.71436
2.71411
2.71384
2.71355
2.71325
2.71291
2.71256
2.7122
2.71181
2.7114
2.71093
2.71188
2.71185
2.71174
2.71161