/*--------------------------------*- C++ -*----------------------------------*\
| =========                 |                                                 |
| \\      /  F ield         | OpenFOAM: The Open Source CFD Toolbox           |
|  \\    /   O peration     | Version:  v2106                                 |
|   \\  /    A nd           | Website:  www.openfoam.com                      |
|    \\/     M anipulation  |                                                 |
\*---------------------------------------------------------------------------*/
FoamFile
{
    version     2.0;
    format      ascii;
    arch        "LSB;label=32;scalar=64";
    class       volScalarField;
    location    "0.000211";
    object      Ttot;
}
// * * * * * * * * * * * * * * * * * * * * * * * * * * * * * * * * * * * * * //

dimensions      [0 0 0 1 0 0 0];

internalField   nonuniform List<scalar> 
18273
(
295.016
294.838
294.789
294.93
294.849
294.669
294.388
294.07
293.694
293.331
293.037
292.856
292.722
292.896
294.972
295.27
295.299
295.52
295.571
295.485
295.305
295.068
294.761
294.374
293.996
293.681
293.256
292.808
295.144
295.579
295.694
295.919
295.996
295.966
295.858
295.7
295.47
295.139
294.724
294.275
293.721
293.137
295.4
295.839
296.013
296.223
296.308
296.309
296.244
296.126
295.947
295.696
295.363
294.928
294.406
293.784
295.651
296.092
296.296
296.466
296.535
296.527
296.473
296.384
296.248
296.054
295.791
295.438
294.999
294.396
295.885
296.316
296.532
296.668
296.693
296.661
296.594
296.515
296.417
296.282
296.088
295.809
295.445
294.834
296.085
296.485
296.698
296.791
296.787
296.736
296.658
296.574
296.495
296.404
296.27
296.045
295.7
295.091
296.272
296.623
296.817
296.874
296.856
296.792
296.706
296.617
296.542
296.473
296.377
296.193
295.854
295.219
296.393
296.708
296.885
296.923
296.896
296.829
296.745
296.663
296.591
296.523
296.437
296.277
295.953
295.332
296.436
296.747
296.915
296.951
296.925
296.865
296.793
296.721
296.655
296.58
296.478
296.306
295.989
295.388
296.407
296.735
296.895
296.948
296.933
296.891
296.838
296.781
296.721
296.636
296.508
296.289
295.968
295.396
296.303
296.633
296.838
296.916
296.925
296.906
296.875
296.835
296.781
296.68
296.502
296.218
295.885
295.352
296.247
296.52
296.729
296.843
296.881
296.882
296.872
296.848
296.792
296.656
296.402
296.014
295.646
295.296
296.251
296.313
296.519
296.667
296.744
296.762
296.773
296.756
296.696
296.535
296.24
295.859
295.549
295.473
295.05
295.119
295.18
295.308
295.319
295.247
295.087
294.878
294.587
294.278
293.989
293.762
293.647
293.903
294.975
295.438
295.612
295.763
295.829
295.808
295.72
295.569
295.345
295.076
294.817
294.582
294.306
293.934
295.19
295.686
295.874
296.052
296.125
296.121
296.065
295.956
295.791
295.56
295.298
295.013
294.683
294.233
295.463
295.879
296.071
296.226
296.311
296.306
296.265
296.173
296.052
295.88
295.685
295.435
295.17
294.764
295.69
296.054
296.249
296.384
296.433
296.415
296.36
296.275
296.176
296.069
295.946
295.791
295.59
295.262
295.885
296.231
296.421
296.524
296.539
296.492
296.419
296.33
296.251
296.178
296.119
296.043
295.931
295.625
296.086
296.399
296.55
296.603
296.583
296.523
296.448
296.372
296.309
296.256
296.231
296.196
296.122
295.858
296.267
296.543
296.659
296.686
296.64
296.573
296.497
296.434
296.385
296.347
296.323
296.308
296.231
295.979
296.384
296.632
296.726
296.734
296.681
296.617
296.55
296.504
296.476
296.458
296.434
296.412
296.308
296.074
296.453
296.698
296.791
296.799
296.754
296.699
296.643
296.61
296.591
296.582
296.56
296.528
296.404
296.141
296.49
296.722
296.813
296.825
296.8
296.768
296.735
296.721
296.716
296.712
296.691
296.652
296.518
296.228
296.505
296.75
296.849
296.88
296.873
296.858
296.845
296.843
296.839
296.825
296.796
296.728
296.607
296.302
296.529
296.719
296.845
296.901
296.907
296.907
296.917
296.928
296.929
296.904
296.833
296.715
296.592
296.36
296.5
296.624
296.802
296.886
296.925
296.942
296.958
296.97
296.963
296.922
296.811
296.65
296.523
296.418
295.168
295.258
295.176
295.154
295.127
295.098
295.022
294.913
294.725
294.5
294.244
293.971
293.737
294.018
295.334
295.56
295.639
295.648
295.606
295.558
295.478
295.355
295.198
295.024
294.864
294.697
294.539
294.344
295.762
295.938
296.034
296.046
295.995
295.93
295.838
295.707
295.552
295.38
295.237
295.062
294.925
294.7
296.102
296.249
296.313
296.318
296.261
296.175
296.072
295.941
295.808
295.668
295.55
295.431
295.331
295.147
296.365
296.502
296.542
296.516
296.443
296.344
296.232
296.111
296.007
295.903
295.825
295.745
295.693
295.555
296.603
296.718
296.739
296.683
296.595
296.487
296.371
296.257
296.166
296.097
296.055
296.023
296.006
295.897
296.835
296.914
296.903
296.824
296.725
296.614
296.506
296.41
296.33
296.273
296.253
296.253
296.26
296.173
297.085
297.133
297.092
296.995
296.879
296.763
296.658
296.575
296.509
296.464
296.445
296.458
296.464
296.394
297.284
297.319
297.26
297.155
297.031
296.918
296.818
296.75
296.702
296.676
296.659
296.663
296.652
296.588
297.478
297.507
297.443
297.339
297.216
297.108
297.014
296.953
296.914
296.895
296.877
296.868
296.846
296.776
297.631
297.655
297.581
297.483
297.379
297.291
297.218
297.175
297.145
297.132
297.113
297.1
297.065
296.987
297.82
297.826
297.764
297.676
297.582
297.504
297.446
297.414
297.384
297.366
297.336
297.32
297.287
297.196
297.975
297.993
297.928
297.807
297.704
297.642
297.613
297.603
297.585
297.569
297.53
297.497
297.481
297.458
298.001
298.179
298.13
298.025
297.924
297.852
297.811
297.794
297.767
297.736
297.668
297.613
297.645
297.584
292.457
292.152
291.356
290.971
290.526
290.951
291.69
291.323
290.592
290.494
290.253
290.582
292.284
291.673
290.898
290.755
290.459
290.817
292.821
291.907
291.004
290.786
290.507
290.865
293.418
292.286
291.286
291.062
290.749
291.226
293.772
292.498
291.454
291.272
290.989
291.56
293.994
292.752
291.746
291.619
291.342
291.896
294.143
292.973
291.998
291.893
291.582
292.113
294.331
293.308
292.353
292.189
291.766
292.204
294.509
293.634
292.663
292.372
291.835
292.35
294.677
293.953
292.998
292.654
292.098
292.134
294.717
294.049
293.146
292.784
292.332
292.125
294.824
294.269
293.362
292.9
292.485
292.421
294.567
294.128
293.26
292.991
292.693
292.271
293.428
292.722
291.652
291.064
290.511
290.954
292.825
292.092
291.037
290.696
290.324
290.682
293.434
292.647
291.58
291.188
290.646
291.014
294.006
293.111
292.051
291.51
290.947
291.127
294.586
293.644
292.543
291.958
291.373
291.422
294.949
293.969
292.863
292.27
291.723
291.583
295.191
294.246
293.167
292.564
292.085
291.857
295.351
294.474
293.438
292.815
292.306
292.109
295.505
294.713
293.726
293.058
292.559
292.235
295.629
294.916
293.981
293.255
292.748
292.228
295.789
295.163
294.279
293.474
292.886
292.309
295.919
295.325
294.455
293.658
293.084
292.385
296.061
295.528
294.677
293.91
293.349
292.569
295.867
295.388
294.525
293.874
293.464
292.502
293.932
293.044
291.942
291.003
290.271
290.379
293.609
292.749
291.561
290.919
290.455
290.759
294.104
293.308
292.293
291.827
291.345
291.137
294.629
293.91
293.024
292.456
291.872
291.501
295.146
294.526
293.74
293.111
292.475
291.931
295.579
295.024
294.258
293.566
292.961
292.133
295.932
295.429
294.687
293.946
293.346
292.317
296.22
295.773
295.082
294.315
293.692
292.428
296.479
296.085
295.468
294.689
294.09
292.554
296.723
296.391
295.856
295.065
294.451
292.72
296.978
296.721
296.252
295.476
294.827
292.975
297.179
297.037
296.606
295.877
295.208
293.245
297.483
297.362
296.959
296.254
295.635
293.587
297.535
297.407
296.955
296.316
295.783
293.754
295.144
294.904
293.923
293.523
292.939
292.746
294.771
294.472
293.448
293.115
292.531
292.273
295.237
294.764
293.714
293.365
292.79
292.415
295.679
295.045
293.998
293.479
292.972
292.054
296.1
295.446
294.427
293.75
293.116
292.175
296.307
295.661
294.681
293.921
293.299
292.183
296.396
295.767
294.844
294.157
293.639
292.545
296.432
295.824
294.998
294.373
294.012
292.804
296.449
295.885
295.189
294.632
294.304
293.152
296.463
295.936
295.371
294.828
294.513
293.25
296.451
295.952
295.458
294.882
294.547
293.202
296.342
295.878
295.315
294.709
294.293
292.948
296.099
295.655
294.916
294.383
293.885
292.706
295.571
295.091
294.263
293.858
293.267
292.165
296.26
295.923
295.032
294.427
293.797
292.904
296.029
295.686
294.798
294.248
293.586
292.767
296.297
295.924
295.078
294.529
293.908
292.848
296.554
296.186
295.412
294.731
294.121
292.655
296.76
296.42
295.749
294.993
294.404
292.685
296.853
296.525
295.923
295.141
294.615
292.77
296.879
296.561
295.993
295.295
294.912
293.024
296.875
296.57
296.039
295.398
295.194
293.264
296.859
296.543
296.098
295.537
295.393
293.469
296.845
296.522
296.176
295.634
295.457
293.476
296.82
296.483
296.204
295.565
295.289
293.225
296.734
296.361
296.024
295.25
294.794
292.697
296.54
296.097
295.581
294.784
294.219
292.252
296.023
295.516
294.87
294.098
293.547
291.659
297.862
297.847
297.515
296.969
296.371
294.14
297.7
297.689
297.41
296.904
296.354
294.206
297.759
297.766
297.571
297.15
296.723
294.479
297.812
297.881
297.809
297.468
297.03
294.765
297.89
297.995
298.014
297.724
297.264
294.954
297.908
298.045
298.126
297.869
297.381
295
297.923
298.079
298.197
297.901
297.438
294.937
297.94
298.105
298.228
297.861
297.382
294.673
297.995
298.147
298.213
297.81
297.163
294.201
298.069
298.213
298.221
297.688
296.731
293.531
298.168
298.264
298.218
297.354
296.063
292.614
298.279
298.194
298.064
296.762
295.113
291.513
298.408
298.012
297.665
296.01
294.229
290.698
298.028
297.382
296.751
295.024
293.412
290.072
292.626
292.089
292.577
292.711
293.386
294.059
292.787
292.677
293.09
293.409
294.163
294.763
292.551
292.863
293.27
293.695
294.453
295.057
293.02
292.795
293.383
293.869
294.576
295.204
293.35
292.65
293.259
293.79
294.527
295.273
293.031
292.818
293.299
293.81
294.555
295.39
292.64
292.64
293.218
293.838
294.648
295.515
292.217
292.444
293.153
293.876
294.796
295.664
291.528
292.079
292.929
293.817
294.903
295.766
291.177
291.992
292.906
293.797
294.973
295.798
290.936
291.879
292.867
293.683
294.928
295.719
291.238
292.221
293.217
293.814
295.015
295.602
291.414
292.451
293.412
293.961
295.07
295.506
292.148
293.29
294.178
294.664
295.487
295.863
291.217
291.311
291.722
292.132
293.004
294.014
291.477
291.658
292.207
292.921
293.885
294.743
291.468
292.045
292.596
293.39
294.209
295.018
291.968
292.427
293.013
293.753
294.462
295.252
292.296
292.678
293.16
293.928
294.62
295.385
292.427
292.779
293.223
294.075
294.798
295.518
292.244
292.714
293.23
294.166
294.932
295.631
291.938
292.668
293.235
294.203
295.044
295.789
291.447
292.455
293.13
294.163
295.12
295.902
291.181
292.448
293.164
294.173
295.197
295.955
290.956
292.382
293.175
294.141
295.233
295.967
291.138
292.625
293.44
294.266
295.327
295.964
291.191
292.787
293.656
294.509
295.509
296.003
291.767
293.579
294.423
295.229
295.932
296.324
288.369
289.841
290.522
291.747
292.885
294.212
288.458
290.258
291.224
292.809
293.959
295.242
288.468
290.744
291.845
293.595
294.434
295.563
289.05
291.414
292.602
294.275
294.881
295.825
289.765
292.051
293.215
294.737
295.313
296.056
290.428
292.585
293.688
295.127
295.755
296.345
290.766
292.865
294.06
295.44
296.121
296.621
290.999
293.173
294.483
295.793
296.482
296.902
291.067
293.376
294.805
296.037
296.746
297.114
291.127
293.602
295.071
296.255
296.972
297.322
290.985
293.563
295.109
296.358
297.116
297.496
290.68
293.472
295.11
296.543
297.323
297.718
290.394
293.206
294.96
296.694
297.556
297.928
290.375
293.53
295.304
297.105
297.867
298.183
290.994
290.543
290.882
290.91
291.447
291.899
291.002
290.651
291.023
291.217
291.821
292.334
291.099
290.683
291.036
291.117
291.72
292.379
291.32
290.809
291.143
291.088
291.609
292.342
291.602
290.975
291.201
290.948
291.415
292.321
291.829
291.14
291.257
290.908
291.372
292.396
291.893
291.172
291.236
290.912
291.487
292.687
291.814
291.193
291.253
291.043
291.771
293.041
291.702
291.169
291.255
291.234
292.099
293.405
291.823
291.275
291.5
291.607
292.525
293.716
291.778
291.322
291.698
291.932
292.888
293.934
292.119
291.662
292.112
292.316
293.233
293.965
292.11
291.68
292.135
292.322
293.304
293.791
292.743
292.378
292.961
293.324
294.174
294.53
290.611
290.305
290.591
290.858
291.694
292.612
290.496
290.24
290.643
291.182
292.189
293.14
290.445
290.097
290.509
291.053
292.113
293.192
290.57
290.101
290.51
290.972
292.019
293.213
290.792
290.179
290.516
290.847
291.937
293.268
291.027
290.319
290.586
290.877
292.031
293.466
291.138
290.454
290.692
291.038
292.281
293.757
291.181
290.649
290.861
291.315
292.587
294.017
291.207
290.727
290.993
291.591
292.911
294.257
291.237
290.928
291.315
291.956
293.222
294.413
291.125
290.995
291.548
292.191
293.397
294.47
291.299
291.136
291.759
292.285
293.432
294.379
291.13
290.836
291.486
292.089
293.255
294.132
291.476
291.494
292.249
292.874
293.909
294.611
289.538
289.54
289.849
290.612
291.724
292.835
289.114
289.146
289.781
290.845
292.064
293.273
288.754
288.876
289.514
290.659
291.992
293.319
288.855
288.941
289.582
290.715
292.091
293.456
289.221
289.112
289.704
290.828
292.316
293.691
289.654
289.365
289.986
291.162
292.676
293.971
289.952
289.639
290.313
291.551
293.023
294.207
290.22
289.977
290.639
291.875
293.273
294.352
290.235
290.187
290.963
292.202
293.501
294.47
290.313
290.474
291.293
292.415
293.588
294.495
290.097
290.387
291.27
292.366
293.494
294.434
289.881
290.312
291.205
292.301
293.438
294.398
289.157
289.947
290.897
292.262
293.45
294.388
288.991
290.233
291.402
292.878
293.973
294.902
295.271
295.31
295.297
295.262
295.208
295.143
295.054
294.922
294.773
294.607
294.435
294.269
294.045
294.103
295.542
295.634
295.638
295.614
295.55
295.483
295.393
295.271
295.145
295.001
294.873
294.781
294.674
294.58
295.876
295.963
295.953
295.918
295.842
295.746
295.635
295.514
295.404
295.292
295.196
295.111
295.056
294.975
296.197
296.242
296.198
296.133
296.04
295.929
295.813
295.703
295.611
295.529
295.465
295.413
295.39
295.344
296.452
296.44
296.377
296.288
296.185
296.065
295.95
295.848
295.77
295.71
295.68
295.667
295.686
295.67
296.677
296.609
296.534
296.427
296.311
296.188
296.079
295.989
295.92
295.877
295.871
295.894
295.947
295.973
296.883
296.788
296.691
296.568
296.437
296.313
296.211
296.131
296.072
296.043
296.056
296.107
296.187
296.251
297.095
296.984
296.863
296.725
296.577
296.452
296.353
296.282
296.233
296.221
296.248
296.321
296.411
296.517
297.28
297.162
297.028
296.88
296.724
296.602
296.508
296.447
296.41
296.413
296.451
296.536
296.627
296.758
297.516
297.383
297.229
297.071
296.913
296.79
296.698
296.639
296.609
296.619
296.661
296.752
296.84
296.974
297.707
297.563
297.404
297.244
297.101
296.993
296.914
296.863
296.841
296.856
296.896
296.985
297.059
297.174
298.038
297.836
297.647
297.472
297.339
297.241
297.174
297.13
297.108
297.117
297.145
297.222
297.277
297.364
298.265
298.077
297.851
297.671
297.551
297.471
297.431
297.409
297.401
297.412
297.427
297.48
297.511
297.592
298.689
298.538
298.282
298.064
297.917
297.819
297.773
297.744
297.726
297.728
297.73
297.775
297.781
297.889
295.205
295.201
295.182
295.151
295.12
295.064
294.992
294.886
294.756
294.604
294.456
294.334
294.172
294.128
295.432
295.472
295.447
295.435
295.394
295.337
295.264
295.176
295.079
294.971
294.876
294.799
294.71
294.627
295.692
295.738
295.71
295.691
295.637
295.556
295.467
295.38
295.3
295.223
295.157
295.107
295.067
295.025
295.989
295.983
295.951
295.91
295.841
295.745
295.647
295.562
295.496
295.442
295.404
295.389
295.39
295.373
296.235
296.2
296.163
296.106
296.019
295.913
295.811
295.728
295.667
295.627
295.612
295.621
295.663
295.673
296.466
296.41
296.356
296.282
296.18
296.074
295.976
295.902
295.847
295.819
295.822
295.856
295.922
295.968
296.69
296.627
296.547
296.448
296.331
296.226
296.136
296.071
296.027
296.015
296.035
296.09
296.174
296.247
296.903
296.832
296.728
296.612
296.487
296.384
296.302
296.247
296.213
296.216
296.251
296.322
296.414
296.509
297.103
297.028
296.91
296.784
296.657
296.557
296.481
296.433
296.406
296.419
296.463
296.544
296.636
296.742
297.294
297.214
297.095
296.97
296.847
296.75
296.678
296.633
296.61
296.628
296.675
296.759
296.845
296.945
297.458
297.372
297.258
297.145
297.042
296.959
296.9
296.86
296.842
296.859
296.902
296.976
297.047
297.127
297.661
297.549
297.434
297.335
297.26
297.195
297.151
297.115
297.095
297.104
297.136
297.191
297.242
297.298
297.799
297.692
297.587
297.508
297.468
297.432
297.413
297.395
297.381
297.381
297.395
297.423
297.447
297.486
298.127
298
297.881
297.792
297.757
297.726
297.713
297.695
297.675
297.664
297.657
297.66
297.662
297.729
295.117
295.093
295.076
295.051
295.025
294.981
294.929
294.867
294.78
294.677
294.553
294.441
294.32
294.236
295.343
295.362
295.341
295.314
295.271
295.219
295.163
295.109
295.045
294.98
294.914
294.849
294.769
294.694
295.583
295.604
295.598
295.573
295.513
295.438
295.36
295.297
295.241
295.196
295.157
295.121
295.079
295.053
295.869
295.863
295.846
295.81
295.735
295.643
295.55
295.475
295.419
295.388
295.366
295.362
295.361
295.346
296.127
296.116
296.075
296.02
295.931
295.831
295.731
295.65
295.595
295.57
295.56
295.573
295.603
295.627
296.384
296.354
296.287
296.209
296.106
296.002
295.904
295.828
295.778
295.757
295.762
295.794
295.848
295.905
296.634
296.583
296.489
296.387
296.271
296.167
296.075
296.01
295.968
295.954
295.971
296.02
296.093
296.174
296.874
296.803
296.691
296.573
296.449
296.343
296.256
296.198
296.162
296.159
296.186
296.247
296.333
296.428
297.091
297.005
296.884
296.759
296.635
296.531
296.45
296.396
296.367
296.37
296.404
296.472
296.562
296.661
297.281
297.194
297.079
296.96
296.843
296.741
296.663
296.61
296.581
296.586
296.623
296.692
296.78
296.872
297.437
297.352
297.252
297.15
297.051
296.963
296.896
296.848
296.82
296.822
296.854
296.911
296.988
297.059
297.59
297.512
297.439
297.359
297.286
297.212
297.155
297.108
297.078
297.071
297.092
297.132
297.195
297.239
297.732
297.665
297.612
297.547
297.507
297.463
297.43
297.396
297.366
297.349
297.354
297.37
297.413
297.432
297.967
297.889
297.83
297.771
297.754
297.731
297.715
297.687
297.658
297.634
297.627
297.62
297.64
297.649
295.037
295.015
295.019
294.985
294.941
294.89
294.849
294.803
294.749
294.672
294.572
294.452
294.314
294.209
295.283
295.289
295.28
295.246
295.187
295.123
295.064
295.011
294.954
294.91
294.858
294.804
294.725
294.638
295.531
295.551
295.537
295.499
295.427
295.344
295.263
295.196
295.137
295.099
295.067
295.044
295.004
294.981
295.832
295.824
295.788
295.733
295.647
295.551
295.457
295.378
295.316
295.284
295.267
295.266
295.27
295.264
296.116
296.082
296.019
295.943
295.843
295.74
295.642
295.559
295.5
295.474
295.465
295.48
295.507
295.54
296.387
296.328
296.235
296.136
296.024
295.918
295.821
295.744
295.693
295.674
295.676
295.705
295.755
295.812
296.64
296.561
296.444
296.325
296.203
296.096
296.004
295.935
295.895
295.883
295.895
295.938
296.004
296.081
296.878
296.782
296.653
296.522
296.394
296.286
296.196
296.135
296.103
296.098
296.123
296.175
296.251
296.341
297.085
296.98
296.852
296.723
296.598
296.492
296.406
296.35
296.323
296.321
296.35
296.406
296.486
296.582
297.264
297.165
297.049
296.933
296.816
296.711
296.626
296.572
296.548
296.546
296.578
296.634
296.711
296.803
297.415
297.329
297.234
297.139
297.04
296.949
296.871
296.819
296.792
296.785
296.811
296.857
296.924
296.998
297.571
297.503
297.432
297.356
297.276
297.196
297.128
297.078
297.05
297.035
297.052
297.084
297.14
297.188
297.735
297.681
297.627
297.566
297.512
297.455
297.407
297.365
297.332
297.307
297.308
297.319
297.363
297.384
297.954
297.909
297.851
297.788
297.754
297.717
297.687
297.652
297.62
297.588
297.578
297.571
297.596
297.61
295.032
295.021
295.012
294.967
294.92
294.872
294.836
294.806
294.776
294.725
294.644
294.53
294.399
294.256
295.285
295.288
295.272
295.223
295.156
295.09
295.036
294.993
294.956
294.918
294.874
294.821
294.742
294.648
295.555
295.543
295.514
295.459
295.382
295.302
295.228
295.17
295.125
295.089
295.055
295.029
294.981
294.948
295.872
295.825
295.765
295.69
295.596
295.502
295.416
295.344
295.292
295.256
295.234
295.228
295.216
295.214
296.165
296.085
295.996
295.899
295.791
295.689
295.599
295.523
295.468
295.436
295.423
295.427
295.438
295.457
296.431
296.338
296.218
296.1
295.981
295.874
295.783
295.709
295.656
295.632
295.627
295.643
295.673
295.712
296.666
296.566
296.431
296.299
296.172
296.063
295.972
295.903
295.857
295.836
295.842
295.87
295.914
295.965
296.882
296.775
296.638
296.502
296.373
296.262
296.172
296.105
296.067
296.053
296.066
296.102
296.158
296.216
297.069
296.964
296.835
296.707
296.584
296.475
296.385
296.32
296.286
296.276
296.292
296.332
296.391
296.453
297.243
297.147
297.031
296.916
296.8
296.695
296.607
296.542
296.509
296.501
296.52
296.562
296.619
296.675
297.404
297.326
297.226
297.13
297.027
296.929
296.846
296.781
296.745
296.732
296.749
296.784
296.834
296.872
297.581
297.522
297.436
297.351
297.259
297.169
297.092
297.03
296.991
296.972
296.987
297.014
297.055
297.066
297.784
297.736
297.66
297.581
297.501
297.423
297.358
297.303
297.259
297.231
297.239
297.25
297.275
297.255
298.03
297.977
297.898
297.812
297.742
297.678
297.623
297.574
297.534
297.505
297.506
297.503
297.509
297.485
295.115
295.11
295.084
295.025
294.964
294.914
294.881
294.85
294.822
294.768
294.69
294.567
294.442
294.295
295.395
295.369
295.33
295.259
295.18
295.107
295.055
295.014
294.976
294.928
294.874
294.805
294.723
294.627
295.669
295.612
295.551
295.469
295.378
295.298
295.23
295.174
295.127
295.08
295.034
294.99
294.929
294.88
295.965
295.874
295.781
295.681
295.577
295.483
295.403
295.336
295.282
295.234
295.196
295.168
295.134
295.12
296.228
296.113
295.992
295.877
295.764
295.664
295.578
295.505
295.448
295.403
295.372
295.355
295.341
295.345
296.454
296.333
296.195
296.07
295.952
295.848
295.76
295.686
295.628
295.589
295.567
295.561
295.567
295.586
296.649
296.529
296.389
296.262
296.145
296.041
295.952
295.879
295.824
295.788
295.776
295.78
295.8
295.836
296.831
296.714
296.582
296.46
296.347
296.245
296.158
296.086
296.033
296.002
295.996
296.009
296.041
296.088
297.001
296.891
296.771
296.661
296.557
296.46
296.377
296.305
296.253
296.225
296.222
296.24
296.28
296.324
297.173
297.075
296.965
296.867
296.772
296.681
296.6
296.529
296.478
296.451
296.451
296.473
296.514
296.548
297.355
297.273
297.17
297.083
296.996
296.911
296.834
296.763
296.709
296.68
296.678
296.696
296.733
296.753
297.564
297.492
297.392
297.306
297.222
297.143
297.07
297.002
296.948
296.916
296.913
296.926
296.959
296.958
297.81
297.742
297.639
297.545
297.46
297.385
297.318
297.257
297.201
297.162
297.152
297.153
297.177
297.154
298.081
297.994
297.883
297.778
297.697
297.628
297.567
297.511
297.464
297.426
297.409
297.407
297.421
297.399
295.252
295.22
295.177
295.108
295.047
294.991
294.955
294.911
294.87
294.81
294.732
294.611
294.503
294.378
295.533
295.473
295.413
295.326
295.244
295.171
295.113
295.061
295.009
294.95
294.889
294.817
294.74
294.658
295.771
295.687
295.612
295.52
295.429
295.348
295.28
295.215
295.156
295.097
295.04
294.989
294.924
294.877
296.018
295.913
295.814
295.713
295.615
295.526
295.447
295.375
295.312
295.252
295.201
295.162
295.118
295.093
296.234
296.119
296.002
295.894
295.794
295.702
295.621
295.546
295.482
295.425
295.381
295.349
295.319
295.304
296.424
296.306
296.182
296.077
295.979
295.889
295.806
295.731
295.667
295.615
295.578
295.553
295.538
295.532
296.598
296.482
296.361
296.261
296.169
296.083
296.003
295.929
295.866
295.817
295.785
295.767
295.762
295.771
296.773
296.659
296.547
296.453
296.368
296.287
296.21
296.138
296.077
296.03
296.001
295.989
295.991
296.011
296.949
296.84
296.736
296.65
296.573
296.497
296.424
296.353
296.293
296.245
296.216
296.209
296.216
296.241
297.137
297.038
296.934
296.854
296.78
296.708
296.638
296.568
296.508
296.459
296.429
296.423
296.438
296.454
297.347
297.254
297.145
297.066
296.992
296.922
296.853
296.782
296.72
296.667
296.634
296.628
296.644
296.64
297.574
297.482
297.366
297.281
297.203
297.133
297.065
296.996
296.934
296.881
296.848
296.84
296.857
296.836
297.836
297.736
297.608
297.507
297.421
297.35
297.285
297.221
297.157
297.102
297.066
297.052
297.064
297.023
298.095
297.97
297.836
297.723
297.638
297.569
297.508
297.453
297.4
297.354
297.32
297.308
297.311
297.276
294.989
294.917
294.834
294.745
294.623
294.538
294.44
295.126
295.046
294.963
294.888
294.81
294.74
294.68
295.275
295.194
295.112
295.039
294.978
294.916
294.88
295.438
295.356
295.275
295.206
295.154
295.104
295.083
295.611
295.532
295.457
295.394
295.345
295.304
295.288
295.797
295.721
295.652
295.595
295.55
295.52
295.505
295.992
295.919
295.854
295.802
295.761
295.739
295.726
296.193
296.122
296.058
296.01
295.971
295.954
295.948
296.903
296.798
296.706
296.647
296.594
296.536
296.47
296.396
296.325
296.26
296.211
296.174
296.16
296.163
297.106
297.007
296.912
296.851
296.795
296.736
296.671
296.595
296.524
296.458
296.406
296.37
296.359
296.36
297.336
297.238
297.13
297.061
296.997
296.935
296.868
296.791
296.717
296.647
296.591
296.555
296.545
296.533
297.573
297.466
297.345
297.264
297.192
297.127
297.058
296.983
296.91
296.841
296.787
296.753
296.745
296.716
297.83
297.708
297.571
297.474
297.391
297.323
297.255
297.184
297.112
297.044
296.99
296.956
296.943
296.902
298.064
297.914
297.772
297.667
297.587
297.523
297.461
297.401
297.34
297.286
297.24
297.213
297.195
297.159
295.162
294.538
293.448
292.175
290.973
289.607
294.716
293.936
292.779
291.585
290.574
289.507
294.688
293.877
292.837
291.757
290.782
289.676
294.677
293.907
292.919
291.804
290.69
289.572
294.686
293.97
293.01
291.821
290.614
289.385
294.652
293.928
292.926
291.646
290.419
289.207
294.576
293.784
292.721
291.365
290.131
289.114
294.446
293.598
292.488
291.026
289.761
288.818
294.277
293.362
292.178
290.615
289.398
288.439
294.07
293.081
291.8
290.165
289.071
287.916
293.851
292.813
291.522
289.872
288.817
287.435
293.694
292.591
291.333
289.642
288.638
287.191
293.634
292.578
291.472
289.918
288.974
287.611
293.384
292.4
291.228
289.994
289.576
288.57
295.153
294.811
294.011
293.039
291.774
290.701
294.85
294.401
293.529
292.604
291.451
290.599
294.804
294.278
293.455
292.621
291.564
290.702
294.734
294.171
293.367
292.539
291.492
290.738
294.702
294.141
293.372
292.533
291.484
290.765
294.644
294.069
293.283
292.345
291.208
290.356
294.572
293.95
293.09
291.996
290.704
289.723
294.459
293.762
292.824
291.53
290.028
288.969
294.32
293.55
292.548
291.065
289.403
288.343
294.157
293.311
292.247
290.645
288.954
287.912
293.975
293.11
292.03
290.448
288.764
287.646
293.816
292.95
291.87
290.378
288.786
287.704
293.763
292.974
292.025
290.716
289.222
288.264
293.526
292.792
291.784
290.719
289.817
289.192
295.066
294.877
294.438
293.802
292.909
291.976
294.846
294.558
293.982
293.291
292.522
291.691
294.805
294.449
293.851
293.164
292.377
291.557
294.732
294.337
293.687
292.986
292.205
291.418
294.698
294.285
293.634
292.927
292.125
291.278
294.646
294.211
293.541
292.781
291.867
290.775
294.588
294.117
293.401
292.508
291.358
289.988
294.516
293.974
293.208
292.111
290.691
289.156
294.423
293.821
292.994
291.718
290.116
288.501
294.311
293.621
292.75
291.38
289.73
288.123
294.165
293.445
292.588
291.236
289.608
288.05
294.026
293.308
292.484
291.209
289.752
288.381
293.988
293.336
292.624
291.524
290.191
288.986
293.753
293.171
292.432
291.521
290.707
289.893
294.955
294.849
294.628
294.235
293.539
292.858
294.795
294.615
294.26
293.841
293.25
292.561
294.78
294.541
294.146
293.663
292.921
292.135
294.711
294.43
293.968
293.413
292.593
291.76
294.65
294.358
293.862
293.237
292.348
291.451
294.593
294.289
293.749
293.048
292.105
291.04
294.559
294.225
293.623
292.835
291.756
290.372
294.516
294.115
293.488
292.569
291.248
289.594
294.454
293.994
293.315
292.255
290.771
288.982
294.372
293.823
293.096
291.956
290.468
288.669
294.26
293.657
292.92
291.807
290.351
288.593
294.105
293.467
292.753
291.71
290.389
288.858
293.997
293.416
292.817
291.911
290.675
289.361
293.745
293.225
292.627
291.832
291.03
290.175
294.99
294.895
294.708
294.533
294.107
293.71
294.859
294.737
294.477
294.29
293.872
293.39
294.822
294.666
294.368
294.124
293.55
292.848
294.742
294.549
294.196
293.874
293.17
292.292
294.67
294.448
294.056
293.617
292.8
291.789
294.606
294.366
293.957
293.391
292.475
291.321
294.583
294.324
293.873
293.203
292.178
290.792
294.559
294.259
293.751
292.993
291.794
290.136
294.528
294.17
293.619
292.741
291.401
289.652
294.47
294.031
293.423
292.456
291.138
289.44
294.392
293.9
293.255
292.275
291
289.357
294.252
293.683
293.026
292.082
290.946
289.538
294.11
293.546
292.992
292.188
291.142
289.921
293.81
293.267
292.734
291.994
291.292
290.576
295.052
294.956
294.787
294.664
294.395
294.209
294.949
294.833
294.615
294.513
294.203
293.891
294.898
294.763
294.526
294.385
293.956
293.419
294.826
294.678
294.412
294.206
293.653
292.912
294.756
294.596
294.298
293.996
293.294
292.359
294.691
294.501
294.183
293.75
292.918
291.758
294.663
294.448
294.09
293.528
292.595
291.232
294.637
294.385
293.972
293.315
292.227
290.654
294.61
294.321
293.849
293.082
291.863
290.22
294.548
294.173
293.643
292.804
291.594
290.049
294.469
294.056
293.492
292.616
291.428
289.948
294.33
293.841
293.247
292.369
291.321
290.089
294.191
293.675
293.144
292.394
291.483
290.398
293.891
293.354
292.832
292.146
291.487
290.851
295.172
295.077
294.917
294.816
294.6
294.544
295.057
294.94
294.734
294.671
294.436
294.306
295.002
294.881
294.671
294.595
294.267
293.913
294.93
294.808
294.588
294.469
294.031
293.457
294.872
294.747
294.512
294.305
293.734
292.907
294.806
294.658
294.405
294.078
293.373
292.293
294.765
294.596
294.308
293.856
293.049
291.779
294.723
294.523
294.187
293.635
292.688
291.255
294.691
294.457
294.064
293.41
292.338
290.84
294.624
294.307
293.855
293.127
292.055
290.672
294.544
294.2
293.72
292.941
291.871
290.539
294.416
293.999
293.472
292.667
291.698
290.596
294.293