/*--------------------------------*- C++ -*----------------------------------*\
| =========                 |                                                 |
| \\      /  F ield         | OpenFOAM: The Open Source CFD Toolbox           |
|  \\    /   O peration     | Version:  v2106                                 |
|   \\  /    A nd           | Website:  www.openfoam.com                      |
|    \\/     M anipulation  |                                                 |
\*---------------------------------------------------------------------------*/
FoamFile
{
    version     2.0;
    format      ascii;
    arch        "LSB;label=32;scalar=64";
    class       volScalarField;
    location    "0.00021";
    object      alphat;
}
// * * * * * * * * * * * * * * * * * * * * * * * * * * * * * * * * * * * * * //

dimensions      [1 -1 -1 0 0 0 0];

internalField   nonuniform List<scalar> 
144746
(
7.97027e-05
6.2444e-05
5.00898e-05
4.34666e-05
4.34263e-05
4.82383e-05
5.61268e-05
6.4402e-05
7.13593e-05
7.7247e-05
8.12294e-05
8.68494e-05
9.6977e-05
0.000109385
5.93889e-05
4.40168e-05
3.30484e-05
2.58489e-05
2.31777e-05
2.4175e-05
2.84761e-05
3.49817e-05
4.25266e-05
4.98137e-05
5.8086e-05
6.50059e-05
7.36543e-05
8.82341e-05
4.51445e-05
3.28057e-05
2.36819e-05
1.72788e-05
1.39676e-05
1.30994e-05
1.47279e-05
1.86436e-05
2.43635e-05
3.10567e-05
3.81617e-05
4.68959e-05
5.34251e-05
6.70194e-05
3.59177e-05
2.51703e-05
1.75225e-05
1.2107e-05
8.97273e-06
7.59948e-06
7.92751e-06
1.00338e-05
1.39095e-05
1.91536e-05
2.5001e-05
3.03671e-05
3.66734e-05
4.88425e-05
2.86875e-05
1.9191e-05
1.2543e-05
8.15502e-06
5.62261e-06
4.40646e-06
4.29936e-06
5.39335e-06
7.90059e-06
1.17652e-05
1.64695e-05
2.11571e-05
2.6308e-05
3.59467e-05
2.24532e-05
1.38469e-05
8.33404e-06
5.03921e-06
3.24852e-06
2.40337e-06
2.2557e-06
2.86333e-06
4.48605e-06
7.26685e-06
1.098e-05
1.50795e-05
1.95262e-05
2.82393e-05
1.67925e-05
9.27573e-06
5.04678e-06
2.80778e-06
1.69535e-06
1.2034e-06
1.12922e-06
1.52051e-06
2.61564e-06
4.63893e-06
7.57129e-06
1.11564e-05
1.55169e-05
2.45457e-05
1.20454e-05
5.87259e-06
2.83946e-06
1.43076e-06
8.05645e-07
5.60002e-07
5.6137e-07
8.63621e-07
1.66994e-06
3.21717e-06
5.60627e-06
8.79638e-06
1.32782e-05
2.34593e-05
8.80285e-06
3.83732e-06
1.64306e-06
7.3687e-07
3.82845e-07
2.7163e-07
3.22631e-07
5.96217e-07
1.26529e-06
2.55254e-06
4.62385e-06
7.64835e-06
1.26678e-05
2.45306e-05
7.54523e-06
3.14894e-06
1.26461e-06
5.28298e-07
2.66112e-07
2.04853e-07
2.81436e-07
5.56361e-07
1.18546e-06
2.3837e-06
4.38413e-06
7.64327e-06
1.38986e-05
2.73734e-05
8.54013e-06
3.83502e-06
1.63965e-06
7.31568e-07
4.03755e-07
3.252e-07
4.08584e-07
7.06342e-07
1.37182e-06
2.64429e-06
4.88898e-06
9.01747e-06
1.70813e-05
3.15789e-05
1.25681e-05
6.71458e-06
3.40185e-06
1.68647e-06
9.6197e-07
7.38493e-07
7.96154e-07
1.13841e-06
1.92188e-06
3.45946e-06
6.36413e-06
1.20201e-05
2.23426e-05
3.7317e-05
1.97843e-05
1.24267e-05
7.51791e-06
4.30519e-06
2.53774e-06
1.80636e-06
1.71116e-06
2.09573e-06
3.07541e-06
5.04988e-06
8.88916e-06
1.63482e-05
2.87109e-05
4.39171e-05
2.88201e-05
2.01231e-05
1.40905e-05
9.55122e-06
6.31732e-06
4.45687e-06
3.7966e-06
4.0638e-06
5.227e-06
7.66681e-06
1.22646e-05
2.1183e-05
3.47814e-05
4.97326e-05
6.90096e-05
5.07375e-05
3.87748e-05
3.18097e-05
2.9619e-05
3.05315e-05
3.35829e-05
3.72034e-05
4.07026e-05
4.36855e-05
4.93923e-05
5.79786e-05
7.35377e-05
9.08181e-05
4.49018e-05
3.19649e-05
2.38886e-05
1.88605e-05
1.6602e-05
1.64761e-05
1.81796e-05
2.10439e-05
2.46378e-05
2.83411e-05
3.26114e-05
3.99933e-05
5.13264e-05
6.78773e-05
2.85285e-05
2.05948e-05
1.54072e-05
1.18274e-05
9.84096e-06
9.21185e-06
9.89858e-06
1.17357e-05
1.45869e-05
1.81021e-05
2.22523e-05
2.73364e-05
3.55829e-05
4.78189e-05
2.00187e-05
1.42556e-05
1.0336e-05
7.63399e-06
6.00182e-06
5.27307e-06
5.42548e-06
6.47334e-06
8.47376e-06
1.1339e-05
1.49236e-05
1.90463e-05
2.40557e-05
3.3556e-05
1.53147e-05
1.02438e-05
6.96849e-06
4.84646e-06
3.58739e-06
2.97295e-06
2.92868e-06
3.49563e-06
4.82937e-06
6.99896e-06
9.91119e-06
1.34254e-05
1.75931e-05
2.4548e-05
1.20391e-05
7.31215e-06
4.53951e-06
2.91404e-06
2.01486e-06
1.58193e-06
1.51015e-06
1.83051e-06
2.70916e-06
4.29576e-06
6.60476e-06
9.56302e-06
1.32099e-05
1.8817e-05
9.34171e-06
5.05676e-06
2.79935e-06
1.62599e-06
1.03975e-06
7.75939e-07
7.33486e-07
9.36333e-07
1.53179e-06
2.69269e-06
4.51131e-06
7.01184e-06
1.0291e-05
1.54879e-05
7.25262e-06
3.4709e-06
1.67508e-06
8.55031e-07
4.94819e-07
3.51551e-07
3.4399e-07
4.95991e-07
9.29728e-07
1.81414e-06
3.28773e-06
5.44383e-06
8.49962e-06
1.375e-05
5.9504e-06
2.55679e-06
1.07221e-06
4.66056e-07
2.34043e-07
1.58727e-07
1.75795e-07
3.11114e-07
6.68009e-07
1.40222e-06
2.67438e-06
4.64488e-06
7.67894e-06
1.32864e-05
5.68071e-06
2.32349e-06
8.97393e-07
3.44832e-07
1.51551e-07
1.01079e-07
1.31538e-07
2.68547e-07
6.06475e-07
1.2942e-06
2.51072e-06
4.49246e-06
7.79673e-06
1.39784e-05
6.54243e-06
2.76699e-06
1.10442e-06
4.40047e-07
2.05658e-07
1.45225e-07
1.80252e-07
3.32635e-07
6.9694e-07
1.43023e-06
2.7475e-06
4.9963e-06
8.86298e-06
1.57501e-05
9.20102e-06
4.34154e-06
1.97784e-06
8.98243e-07
4.69712e-07
3.39367e-07
3.65187e-07
5.48174e-07
9.87146e-07
1.86717e-06
3.47646e-06
6.28906e-06
1.09577e-05
1.90109e-05
1.39048e-05
7.41447e-06
3.96522e-06
2.11167e-06
1.20819e-06
8.62478e-07
8.34963e-07
1.0606e-06
1.62679e-06
2.75738e-06
4.84908e-06
8.55541e-06
1.50033e-05
2.4406e-05
2.02827e-05
1.18261e-05
7.25568e-06
4.54199e-06
2.91638e-06
2.11051e-06
1.90584e-06
2.15586e-06
2.89251e-06
4.35629e-06
7.0324e-06
1.20218e-05
2.08155e-05
3.17976e-05
5.32643e-05
3.78533e-05
2.78023e-05
2.17946e-05
1.90472e-05
1.84078e-05
1.92891e-05
2.08869e-05
2.3145e-05
2.53754e-05
2.75655e-05
3.04532e-05
4.0881e-05
6.06406e-05
2.87158e-05
2.07621e-05
1.53318e-05
1.19513e-05
1.02618e-05
9.79518e-06
1.03171e-05
1.14731e-05
1.32329e-05
1.527e-05
1.76279e-05
2.05435e-05
2.64666e-05
4.11406e-05
1.65038e-05
1.15668e-05
8.53335e-06
6.63805e-06
5.60746e-06
5.24802e-06
5.48536e-06
6.20831e-06
7.44229e-06
9.09663e-06
1.124e-05
1.39693e-05
1.85996e-05
2.72654e-05
1.13945e-05
7.16938e-06
4.99646e-06
3.76693e-06
3.09419e-06
2.81489e-06
2.88712e-06
3.29224e-06
4.10538e-06
5.35695e-06
7.12764e-06
9.52694e-06
1.31906e-05
1.91106e-05
8.61589e-06
4.84053e-06
3.05918e-06
2.15324e-06
1.68411e-06
1.47567e-06
1.47718e-06
1.69153e-06
2.20772e-06
3.11714e-06
4.5133e-06
6.52464e-06
9.50475e-06
1.40895e-05
6.73752e-06
3.4101e-06
1.90748e-06
1.20959e-06
8.78649e-07
7.34509e-07
7.18409e-07
8.33395e-07
1.15872e-06
1.80349e-06
2.88095e-06
4.53059e-06
6.98726e-06
1.07759e-05
5.3875e-06
2.47592e-06
1.2069e-06
6.63748e-07
4.32433e-07
3.39808e-07
3.27529e-07
3.96447e-07
6.08902e-07
1.06835e-06
1.89814e-06
3.24854e-06
5.32572e-06
8.58395e-06
4.62797e-06
1.9492e-06
8.21802e-07
3.75271e-07
2.06196e-07
1.47028e-07
1.42367e-07
1.92125e-07
3.44622e-07
6.90291e-07
1.3516e-06
2.48448e-06
4.30152e-06
7.22708e-06
4.31826e-06
1.7089e-06
6.42633e-07
2.43369e-07
1.05816e-07
6.44091e-08
6.57155e-08
1.09737e-07
2.36875e-07
5.2707e-07
1.09818e-06
2.10893e-06
3.7873e-06
6.55626e-06
4.56025e-06
1.76615e-06
6.32972e-07
2.15877e-07
7.78713e-08
4.01425e-08
4.4621e-08
9.04307e-08
2.15555e-07
4.96151e-07
1.04826e-06
2.03315e-06
3.69563e-06
6.47194e-06
5.24925e-06
2.06184e-06
7.58204e-07
2.68472e-07
1.02422e-07
5.63897e-08
6.1543e-08
1.14856e-07
2.55937e-07
5.64612e-07
1.16232e-06
2.21556e-06
3.9877e-06
6.94262e-06
6.90125e-06
2.85745e-06
1.15306e-06
4.69373e-07
2.14386e-07
1.3507e-07
1.35548e-07
2.03759e-07
3.81814e-07
7.59616e-07
1.47154e-06
2.69294e-06
4.69753e-06
7.99324e-06
9.4841e-06
4.20925e-06
1.94272e-06
9.47201e-07
5.15348e-07
3.55999e-07
3.38627e-07
4.31488e-07
6.73916e-07
1.17068e-06
2.08231e-06
3.62161e-06
6.10763e-06
1.00006e-05
1.33149e-05
6.23257e-06
3.24663e-06
1.8748e-06
1.18966e-06
8.8716e-07
8.28263e-07
9.61727e-07
1.31413e-06
2.01055e-06
3.25868e-06
5.41052e-06
9.08513e-06
1.45562e-05
0.000127673
0.000151482
0.000169186
0.000178413
0.000179824
0.000233008
0.000108644
0.000139621
0.000165138
0.000179998
0.000189796
0.000258795
9.09163e-05
0.000129727
0.000161731
0.000178839
0.000194612
0.000282514
7.51105e-05
0.000121375
0.000158694
0.000174914
0.000193943
0.000302843
6.29427e-05
0.000114254
0.000154224
0.000169145
0.000190007
0.000320204
5.42649e-05
0.000107817
0.000147541
0.000162071
0.000184595
0.000333682
5.13407e-05
9.96729e-05
0.000137549
0.000154354
0.000179529
0.000343183
5.07555e-05
9.19436e-05
0.000125678
0.000146435
0.000174896
0.000347384
5.01972e-05
8.30881e-05
0.000113424
0.000138199
0.000170443
0.000345574
4.94734e-05
7.46404e-05
0.00010185
0.000129843
0.000165748
0.000336595
4.93832e-05
6.86878e-05
9.2851e-05
0.000122503
0.000161487
0.000320868
5.08838e-05
6.62781e-05
8.76878e-05
0.000117244
0.000157196
0.000297981
5.36445e-05
6.67781e-05
8.66827e-05
0.000114965
0.000152631
0.000268492
5.59632e-05
6.88381e-05
8.87249e-05
0.000115876
0.000150732
0.00023601
0.000111134
0.000136889
0.000158337
0.000173918
0.000180127
0.000215132
8.5509e-05
0.00011322
0.00014267
0.000167678
0.000186071
0.000238595
6.48767e-05
9.43857e-05
0.000130283
0.000162048
0.000187899
0.000260044
4.8861e-05
7.92941e-05
0.000120286
0.000156792
0.00018567
0.000277838
3.83473e-05
6.84673e-05
0.000112274
0.000151067
0.000180611
0.000292324
3.11602e-05
6.11889e-05
0.000105833
0.000144786
0.000175147
0.000302987
2.74644e-05
5.56543e-05
9.91491e-05
0.000137154
0.000169925
0.00031222
2.59612e-05
5.2283e-05
9.14901e-05
0.000129058
0.000166353
0.000318196
2.56159e-05
4.88797e-05
8.31351e-05
0.000120865
0.000163863
0.000318299
2.59291e-05
4.52822e-05
7.4736e-05
0.000112483
0.000161186
0.000310698
2.6871e-05
4.26556e-05
6.80029e-05
0.000104918
0.000157656
0.000295315
2.90374e-05
4.23716e-05
6.45908e-05
9.95565e-05
0.000152915
0.000272496
3.30125e-05
4.50453e-05
6.54072e-05
9.78607e-05
0.000149018
0.000244685
3.73328e-05
4.93202e-05
6.91624e-05
9.89481e-05
0.000146331
0.000213251
8.46597e-05
0.000114821
0.000141624
0.000159606
0.000173693
0.000189371
5.97699e-05
8.51903e-05
0.000113072
0.000140184
0.000168742
0.000210111
4.13829e-05
6.30078e-05
9.08643e-05
0.000124354
0.000164673
0.000228145
2.857e-05
4.75585e-05
7.45072e-05
0.000111998
0.000158694
0.000243184
2.16256e-05
3.72785e-05
6.30863e-05
0.000102042
0.000150767
0.000256186
1.71851e-05
3.05197e-05
5.5889e-05
9.51451e-05
0.00014403
0.000267022
1.42751e-05
2.61789e-05
5.10185e-05
8.97616e-05
0.000138793
0.000277059
1.25281e-05
2.38269e-05
4.7569e-05
8.45639e-05
0.000136196
0.000284489
1.17334e-05
2.26147e-05
4.44466e-05
7.95968e-05
0.00013492
0.000286143
1.16272e-05
2.16648e-05
4.11334e-05
7.4811e-05
0.000133033
0.000279677
1.20598e-05
2.09821e-05
3.82021e-05
7.04156e-05
0.00012978
0.000264543
1.31143e-05
2.10707e-05
3.66317e-05
6.721e-05
0.000125109
0.000241905
1.53117e-05
2.29938e-05
3.78316e-05
6.6767e-05
0.000121281
0.000214276
1.82605e-05
2.64034e-05
4.17896e-05
6.91448e-05
0.000117772
0.000183073
5.69609e-05
7.24187e-05
9.42134e-05
0.000121438
0.000155399
0.000239668
4.10087e-05
5.53458e-05
7.87595e-05
0.000111184
0.00015452
0.00026034
2.73879e-05
4.05118e-05
6.47827e-05
0.000100961
0.000151563
0.000277633
1.80232e-05
2.97904e-05
5.41544e-05
9.24474e-05
0.000147493
0.000290348
1.30384e-05
2.3811e-05
4.71424e-05
8.46961e-05
0.000140417
0.00030144
1.03411e-05
2.14193e-05
4.42243e-05
7.91276e-05
0.000133491
0.000310567
9.32477e-06
2.09797e-05
4.32872e-05
7.54686e-05
0.000128516
0.000318689
9.69439e-06
2.17851e-05
4.28697e-05
7.26897e-05
0.000126479
0.000326175
1.12529e-05
2.3041e-05
4.19848e-05
7.01859e-05
0.000128501
0.000330531
1.37394e-05
2.43478e-05
4.09004e-05
6.89777e-05
0.000134782
0.000329017
1.68036e-05
2.59214e-05
4.0918e-05
7.09876e-05
0.000144425
0.00032004
2.04778e-05
2.8795e-05
4.42701e-05
7.87019e-05
0.000157053
0.000303183
2.54453e-05
3.47844e-05
5.39588e-05
9.47063e-05
0.000175588
0.000279319
3.26305e-05
4.60741e-05
7.25553e-05
0.000120521
0.000202144
0.000248877
4.02437e-05
5.42915e-05
7.43625e-05
0.00010329
0.000148108
0.000213509
2.74935e-05
3.91651e-05
5.78054e-05
8.76787e-05
0.000137159
0.0002299
1.73408e-05
2.68769e-05
4.37553e-05
7.38311e-05
0.000126599
0.00024261
1.11928e-05
1.86255e-05
3.35216e-05
6.24502e-05
0.000115598
0.000251554
7.81684e-06
1.41625e-05
2.73431e-05
5.40007e-05
0.000105301
0.000258695
5.89288e-06
1.17642e-05
2.41742e-05
4.89366e-05
9.86319e-05
0.000265231
4.93071e-06
1.06611e-05
2.27384e-05
4.61453e-05
9.57269e-05
0.000273035
4.72004e-06
1.05023e-05
2.23203e-05
4.49964e-05
9.74333e-05
0.000282034
5.20256e-06
1.09808e-05
2.23582e-05
4.53815e-05
0.000105572
0.0002902
6.34649e-06
1.19186e-05
2.29152e-05
4.82499e-05
0.000120039
0.000293994
8.09309e-06
1.3436e-05
2.49202e-05
5.53988e-05
0.000139451
0.000290646
1.06418e-05
1.63376e-05
3.02851e-05
6.86506e-05
0.00016119
0.000278739
1.48893e-05
2.26433e-05
4.21733e-05
8.98064e-05
0.000183915
0.000258832
2.2553e-05
3.56515e-05
6.39933e-05
0.000119473
0.000207883
0.000230975
2.06664e-05
3.07627e-05
4.6969e-05
7.3623e-05
0.000117402
0.000178068
1.40654e-05
2.21224e-05
3.56594e-05
5.94822e-05
0.00010244
0.000189251
8.8186e-06
1.51212e-05
2.61151e-05
4.71097e-05
8.83653e-05
0.000196995
5.82053e-06
1.04436e-05
1.91834e-05
3.73374e-05
7.67605e-05
0.000202688
4.03451e-06
7.79151e-06
1.50221e-05
3.08323e-05
6.86359e-05
0.00020747
2.95582e-06
6.13018e-06
1.24768e-05
2.69601e-05
6.45864e-05
0.00021347
2.35902e-06
5.16648e-06
1.10635e-05
2.51849e-05
6.53752e-05
0.000222326
2.10421e-06
4.72109e-06
1.05443e-05
2.54858e-05
7.27264e-05
0.000234533
2.16909e-06
4.76368e-06
1.09303e-05
2.86394e-05
8.80728e-05
0.000248048
2.56168e-06
5.29162e-06
1.24937e-05
3.59201e-05
0.000111289
0.000258592
3.31302e-06
6.47249e-06
1.61222e-05
4.86037e-05
0.000140726
0.000262037
4.6206e-06
8.89e-06
2.2962e-05
6.69221e-05
0.000172302
0.000255815
7.27806e-06
1.41576e-05
3.50335e-05
9.12338e-05
0.000199633
0.000239758
1.35655e-05
2.64221e-05
5.68132e-05
0.000120299
0.000215393
0.000213275
0.000243282
0.000233419
0.000193146
0.000149209
0.000111593
8.69424e-05
0.000275138
0.000223039
0.000167066
0.000120127
8.68408e-05
6.80227e-05
0.000302712
0.000215583
0.000148814
0.000100393
6.95547e-05
5.33706e-05
0.000326761
0.000211876
0.000139136
9.10152e-05
6.09587e-05
4.46752e-05
0.000342419
0.000208488
0.000136443
8.90444e-05
5.76678e-05
3.89927e-05
0.000349636
0.000208761
0.000137805
8.98627e-05
5.56113e-05
3.43323e-05
0.00035149
0.000215475
0.000140056
8.95214e-05
5.23231e-05
2.91259e-05
0.000350112
0.000227075
0.000141928
8.58396e-05
4.6746e-05
2.35803e-05
0.000344648
0.000240953
0.000142632
8.00795e-05
4.06377e-05
1.90111e-05
0.000335211
0.000252443
0.000142827
7.55882e-05
3.68799e-05
1.68746e-05
0.000320598
0.000257642
0.000145042
7.62288e-05
3.77486e-05
1.80495e-05
0.000301722
0.000255137
0.000148049
8.19995e-05
4.379e-05
2.32374e-05
0.000277563
0.000244399
0.000150655
9.0515e-05
5.33972e-05
3.19896e-05
0.000250705
0.000227506
0.000151667
9.98623e-05
6.50175e-05
4.30411e-05
0.000229005
0.000257269
0.000198608
0.00014545
0.000102597
7.49941e-05
0.000259992
0.000249377
0.000175376
0.000116219
7.49593e-05
5.22642e-05
0.000285436
0.000244132
0.000158705
9.5331e-05
5.59022e-05
3.63941e-05
0.000306111
0.000241351
0.000147546
8.38605e-05
4.62311e-05
2.77146e-05
0.000320376
0.00023798
0.00013986
7.66508e-05
4.12813e-05
2.34127e-05
0.000328613
0.000233605
0.00013244
7.26171e-05
3.82367e-05
2.03109e-05
0.000331104
0.000229556
0.000126884
6.82211e-05
3.4858e-05
1.73933e-05
0.000329387
0.000228921
0.000123352
6.40061e-05
3.15464e-05
1.4843e-05
0.000323303
0.000232082
0.000122464
6.14192e-05
2.92445e-05
1.31557e-05
0.000313604
0.000237171
0.000124589
6.16413e-05
2.91013e-05
1.2972e-05
0.000299549
0.000241072
0.000130028
6.5723e-05
3.17433e-05
1.46189e-05
0.000281611
0.000241447
0.000137739
7.40035e-05
3.81738e-05
1.9025e-05
0.000258543
0.000236884
0.000144883
8.39951e-05
4.71783e-05
2.61156e-05
0.00023264
0.000228755
0.000152343
9.57436e-05
5.85316e-05
3.56396e-05
0.000210838
0.00026463
0.00020209
0.000139389
8.98057e-05
5.65444e-05
0.000241111
0.000265484
0.000183175
0.000111135
6.26815e-05
3.49562e-05
0.000266025
0.000263959
0.000169237
9.17976e-05
4.65875e-05
2.49767e-05
0.000286725
0.000260626
0.000155093
8.02912e-05
3.99317e-05
2.02124e-05
0.000301596
0.000251503
0.000142304
7.20867e-05
3.49206e-05
1.67183e-05
0.000310704
0.000238309
0.00012967
6.44513e-05
3.04624e-05
1.39183e-05
0.000313261
0.000223631
0.000117852
5.75386e-05
2.66425e-05
1.17373e-05
0.00031015
0.000211941
0.000109813
5.32389e-05
2.44584e-05
1.0554e-05
0.000302219
0.000205397
0.000106554
5.18839e-05
2.38528e-05
1.02076e-05
0.00029077
0.000204164
0.000108353
5.38704e-05
2.51838e-05
1.09213e-05
0.000276083
0.000206366
0.000114407
5.86454e-05
2.80701e-05
1.2531e-05
0.000258195
0.000208258
0.000124198
6.71228e-05
3.37444e-05
1.59712e-05
0.000236535
0.000210531
0.000134849
7.70091e-05
4.11547e-05
2.10549e-05
0.000211949
0.000213995
0.000149137
9.05365e-05
5.17675e-05
2.87315e-05
0.000228723
0.000176135
0.0001707
0.000156155
0.000136662
0.000117725
0.000258726
0.000174304
0.000163753
0.00014569
0.000125471
0.000108557
0.000285768
0.00017343
0.000158402
0.000138679
0.000117586
0.000100108
0.000308684
0.000174118
0.000156366
0.000137059
0.000115657
9.73127e-05
0.00032712
0.000177209
0.000157799
0.000141433
0.000121446
9.96985e-05
0.000340753
0.000182643
0.000162864
0.000151378
0.000132801
0.000103242
0.000348861
0.000190606
0.000171444
0.000165002
0.000144378
0.000104353
0.000350361
0.000201789
0.000184206
0.000178999
0.000151073
0.000100344
0.000344388
0.000215833
0.000199019
0.0001886
0.000149354
9.17448e-05
0.000332882
0.000231887
0.000211475
0.000189057
0.000139793
8.25586e-05
0.00031636
0.000246706
0.000219532
0.000183305
0.000129373
7.74456e-05
0.000296469
0.000254991
0.000222058
0.000177755
0.000125711
8.0484e-05
0.000271782
0.000252901
0.000223235
0.000179336
0.000131488
9.14667e-05
0.000245307
0.000243815
0.000220715
0.000184424
0.000144251
0.000109023
0.000211435
0.000179699
0.00016971
0.000150839
0.000124957
0.000101273
0.000239562
0.000181167
0.000167224
0.000142301
0.000112201
8.916e-05
0.000264537
0.000182904
0.000165663
0.000135958
0.000101192
7.55796e-05
0.000285849
0.000185938
0.000167045
0.000135172
9.65821e-05
6.87726e-05
0.000303091
0.000189851
0.000171149
0.000139669
9.89519e-05
6.61368e-05
0.000316174
0.000194982
0.000177277
0.000147867
0.000103607
6.41966e-05
0.000324381
0.000201778
0.000184864
0.000155836
0.000105543
6.30077e-05
0.00032706
0.000211026
0.000193487
0.000159758
0.000105146
6.02271e-05
0.000322534
0.000223915
0.000200733
0.000158996
0.000101423
5.64782e-05
0.00031186
0.000240457
0.000203899
0.000153268
9.6274e-05
5.41182e-05
0.000297675
0.000256843
0.000205706
0.000148624
9.42786e-05
5.53497e-05
0.000279418
0.000267022
0.000208343
0.000150513
0.000100099
6.31739e-05
0.000255818
0.000266738
0.000214697
0.00016082
0.000113645
7.76429e-05
0.000229719
0.000263862
0.00022194
0.000177071
0.000135195
9.9665e-05
0.000189455
0.000180777
0.000165591
0.000139159
0.000101654
7.1637e-05
0.000218303
0.000190269
0.000169002
0.000128393
8.4932e-05
5.75178e-05
0.000244415
0.00019925
0.000172621
0.0001232
7.57914e-05
4.64793e-05
0.000267527
0.00020855
0.000178722
0.000124301
7.26708e-05
4.23032e-05
0.000286825
0.000217029
0.000185253
0.000125543
7.18591e-05
4.15703e-05
0.000301724
0.000224322
0.000188555
0.000124046
7.20502e-05
3.9912e-05
0.000310749
0.000229201
0.000185908
0.00012154
6.96666e-05
3.745e-05
0.000312793
0.00023184
0.000181423
0.000117944
6.70041e-05
3.55587e-05
0.000307705
0.000235314
0.000177217
0.000114292
6.48225e-05
3.44045e-05
0.000297573
0.000242153
0.000174364
0.000112217
6.49658e-05
3.52873e-05
0.000281634
0.000249061
0.000177481
0.000115876
6.96104e-05
3.93639e-05
0.000261651
0.000254644
0.00018651
0.00012703
8.10922e-05
4.89649e-05
0.000236782
0.000255362
0.000200128
0.000144901
9.91218e-05
6.48043e-05
0.000210434
0.000258975
0.000218353
0.000169303
0.000124544
8.80276e-05
2.99314e-05
2.10166e-05
1.49855e-05
1.14911e-05
9.87606e-06
9.41488e-06
9.7761e-06
1.06465e-05
1.20566e-05
1.37909e-05
1.57052e-05
1.75487e-05
1.95516e-05
2.39081e-05
1.56343e-05
1.03693e-05
7.28091e-06
5.54839e-06
4.75313e-06
4.55384e-06
4.79149e-06
5.335e-06
6.21838e-06
7.38923e-06
8.82094e-06
1.04146e-05
1.23731e-05
1.61075e-05
9.85055e-06
5.5453e-06
3.59034e-06
2.66057e-06
2.26604e-06
2.17808e-06
2.31092e-06
2.61553e-06
3.12603e-06
3.85865e-06
4.84412e-06
6.0817e-06
7.80197e-06
1.08963e-05
7.05697e-06
3.34621e-06
1.8747e-06
1.28971e-06
1.07116e-06
1.02626e-06
1.09284e-06
1.25064e-06
1.52687e-06
1.96114e-06
2.61475e-06
3.55214e-06
4.99208e-06
7.53526e-06
5.2622e-06
2.1963e-06
1.04342e-06
6.33384e-07
4.97356e-07
4.70176e-07
5.00961e-07
5.78698e-07
7.23409e-07
9.76973e-07
1.40933e-06
2.1186e-06
3.29757e-06
5.38571e-06
4.02807e-06
1.539e-06
6.25368e-07
3.18881e-07
2.254e-07
2.06238e-07
2.19324e-07
2.57071e-07
3.339e-07
4.8618e-07
7.80094e-07
1.32069e-06
2.28232e-06
4.0006e-06
3.19408e-06
1.1529e-06
4.12938e-07
1.71421e-07
1.01134e-07
8.59461e-08
9.08737e-08
1.10022e-07
1.54114e-07
2.52787e-07
4.63591e-07
8.84624e-07
1.67202e-06
3.10017e-06
2.73141e-06
9.52841e-07
3.12984e-07
1.06777e-07
4.79646e-08
3.46142e-08
3.60425e-08
4.72332e-08
7.67942e-08
1.49216e-07
3.13701e-07
6.57713e-07
1.32164e-06
2.54058e-06
2.51107e-06
8.61619e-07
2.71133e-07
8.14675e-08
2.74799e-08
1.47756e-08
1.48801e-08
2.32911e-08
4.78028e-08
1.10264e-07
2.54721e-07
5.60131e-07
1.1557e-06
2.25138e-06
2.58468e-06
8.87184e-07
2.77045e-07
7.95535e-08
2.2739e-08
9.05871e-09
8.77038e-09
1.7232e-08
4.25133e-08
1.06377e-07
2.51464e-07
5.52548e-07
1.13366e-06
2.19133e-06
2.82589e-06
9.68867e-07
3.05668e-07
9.02661e-08
2.72375e-08
1.17616e-08
1.17149e-08
2.22894e-08
5.2887e-08
1.27479e-07
2.91202e-07
6.20502e-07
1.24169e-06
2.34693e-06
3.57316e-06
1.23358e-06
4.02548e-07
1.3078e-07
4.91408e-08
2.84344e-08
2.88718e-08
4.44173e-08
8.64263e-08
1.83113e-07
3.85585e-07
7.77568e-07
1.49255e-06
2.72452e-06
4.67448e-06
1.63549e-06
5.77598e-07
2.26312e-07
1.13662e-07
8.2031e-08
8.30294e-08
1.08994e-07
1.73057e-07
3.09133e-07
5.7712e-07
1.0747e-06
1.94398e-06
3.39135e-06
6.71936e-06
2.44332e-06
9.91534e-07
4.84052e-07
2.98312e-07
2.36013e-07
2.34904e-07
2.83001e-07
3.93906e-07
6.08607e-07
9.96806e-07
1.68148e-06
2.80549e-06
4.57179e-06
1.64957e-05
1.16235e-05
8.59016e-06
6.8185e-06
6.06092e-06
5.98482e-06
6.45389e-06
7.30813e-06
8.52414e-06
9.99894e-06
1.16657e-05
1.34405e-05
1.53632e-05
1.83692e-05
9.41405e-06
5.9798e-06
4.21027e-06
3.26213e-06
2.85367e-06
2.80469e-06
3.04679e-06
3.53068e-06
4.26009e-06
5.22266e-06
6.41204e-06
7.79236e-06
9.45536e-06
1.1992e-05
6.30721e-06
3.37466e-06
2.13219e-06
1.56894e-06
1.3381e-06
1.302e-06
1.41527e-06
1.66454e-06
2.06567e-06
2.64302e-06
3.42542e-06
4.42652e-06
5.76673e-06
7.85928e-06
4.59192e-06
2.08816e-06
1.12999e-06
7.58949e-07
6.20742e-07
5.94948e-07
6.44458e-07
7.64565e-07
9.71337e-07
1.29819e-06
1.79034e-06
2.49983e-06
3.55231e-06
5.25953e-06
3.45185e-06
1.38304e-06
6.29483e-07
3.68158e-07
2.81218e-07
2.63739e-07
2.84659e-07
3.40439e-07
4.43561e-07
6.24471e-07
9.31204e-07
1.43345e-06
2.25461e-06
3.64053e-06
2.65364e-06
9.70913e-07
3.75704e-07
1.82436e-07
1.24113e-07
1.11995e-07
1.20471e-07
1.46147e-07
1.97943e-07
3.0006e-07
4.95984e-07
8.56816e-07
1.49788e-06
2.62516e-06
2.09273e-06
7.22902e-07
2.46695e-07
9.70685e-08
5.45328e-08
4.5387e-08
4.84967e-08
6.07319e-08
8.84735e-08
1.50237e-07
2.82424e-07
5.493e-07
1.05504e-06
1.97926e-06
1.72308e-06
5.77862e-07
1.82976e-07
5.99874e-08
2.56663e-08
1.79483e-08
1.87989e-08
2.53621e-08
4.25101e-08
8.47899e-08
1.82386e-07
3.91386e-07
8.05438e-07
1.58452e-06
1.50483e-06
5.02843e-07
1.55284e-07
4.58176e-08
1.49494e-08
7.68163e-09
7.64005e-09
1.21391e-08
2.53936e-08
5.99184e-08
1.42228e-07
3.22517e-07
6.87082e-07
1.38205e-06
1.44624e-06
4.928e-07
1.54114e-07
4.43651e-08
1.2598e-08
4.87251e-09
4.55326e-09
8.86865e-09
2.21077e-08
5.65962e-08
1.37975e-07
3.14185e-07
6.68922e-07
1.34177e-06
1.48627e-06
5.18172e-07
1.67559e-07
5.04722e-08
1.54155e-08
6.70486e-09
6.54415e-09
1.20531e-08
2.83316e-08
6.92083e-08
1.62346e-07
3.5802e-07
7.43394e-07
1.45918e-06
1.74709e-06
6.24242e-07
2.12361e-07
7.14842e-08
2.77881e-08
1.67762e-08
1.73613e-08
2.62208e-08
4.99124e-08
1.05467e-07
2.25382e-07
4.66923e-07
9.25823e-07
1.74993e-06
2.13091e-06
7.90636e-07
2.9908e-07
1.24066e-07
6.52296e-08
4.93267e-08
5.18029e-08
6.8698e-08
1.0828e-07
1.92302e-07
3.6075e-07
6.8301e-07
1.26693e-06
2.27321e-06
2.8781e-06
1.15349e-06
5.19077e-07
2.70864e-07
1.73229e-07
1.42736e-07
1.48564e-07
1.84127e-07
2.58864e-07
4.0026e-07
6.55739e-07
1.11102e-06
1.88146e-06
3.14044e-06
8.90331e-06
6.39652e-06
4.88097e-06
3.99618e-06
3.65678e-06
3.75035e-06
4.22425e-06
5.00764e-06
6.05104e-06
7.31113e-06
8.75561e-06
1.0379e-05
1.22196e-05
1.48032e-05
5.37411e-06
3.47822e-06
2.51448e-06
1.97641e-06
1.73786e-06
1.73471e-06
1.94182e-06
2.34579e-06
2.94212e-06
3.73481e-06
4.72827e-06
5.93094e-06
7.40317e-06
9.48629e-06
3.63262e-06
2.00958e-06
1.31356e-06
9.74551e-07
8.2104e-07
7.94938e-07
8.77378e-07
1.06877e-06
1.38137e-06
1.83853e-06
2.46871e-06
3.30447e-06
4.4254e-06
6.07686e-06
2.62648e-06
1.23153e-06
6.9415e-07
4.71732e-07
3.78433e-07
3.56117e-07
3.87269e-07
4.73088e-07
6.27162e-07
8.76052e-07
1.25761e-06
1.82213e-06
2.65981e-06
3.95837e-06
1.97208e-06
8.00291e-07
3.76527e-07
2.2389e-07
1.67789e-07
1.53506e-07
1.65227e-07
2.02709e-07
2.76173e-07
4.08392e-07
6.36627e-07
1.01689e-06
1.63959e-06
2.6618e-06
1.51171e-06
5.5011e-07
2.16056e-07
1.06648e-07
7.15981e-08
6.29886e-08
6.74137e-08
8.38081e-08
1.19047e-07
1.90424e-07
3.29786e-07
5.89854e-07
1.0544e-06
1.86269e-06
1.17674e-06
3.99313e-07
1.35857e-07
5.39281e-08
3.01449e-08
2.45774e-08
2.61678e-08
3.36437e-08
5.15831e-08
9.25905e-08
1.82018e-07
3.65206e-07
7.16606e-07
1.36131e-06
9.44028e-07
3.10686e-07
9.72842e-08
3.18053e-08
1.35617e-08
9.3543e-09
9.80645e-09
1.36368e-08
2.40725e-08
5.04949e-08
1.12942e-07
2.49541e-07
5.26102e-07
1.05566e-06
8.00648e-07
2.65368e-07
8.13449e-08
2.37882e-08
7.67121e-09
3.88806e-09
3.88827e-09
6.37803e-09
1.39308e-08
3.41956e-08
8.40597e-08
1.96811e-07
4.3239e-07
8.95192e-07
7.47673e-07
2.58144e-07
8.11818e-08
2.32502e-08
6.53434e-09
2.5291e-09
2.38935e-09
4.69548e-09
1.19209e-08
3.13581e-08
7.89935e-08
1.86418e-07
4.11757e-07
8.56418e-07
7.65276e-07
2.78013e-07
9.16291e-08
2.75962e-08
8.48276e-09
3.89356e-09
3.90474e-09
6.94017e-09
1.59179e-08
3.90594e-08
9.3763e-08
2.13691e-07
4.6043e-07
9.38984e-07
8.7956e-07
3.36947e-07
1.18834e-07
4.05783e-08
1.62872e-08
1.05713e-08
1.13762e-08
1.68161e-08
3.07976e-08
6.38747e-08
1.37316e-07
2.9094e-07
5.94986e-07
1.16368e-06
1.06857e-06
4.37369e-07
1.73317e-07
7.3057e-08
3.97002e-08
3.19937e-08
3.52897e-08
4.72392e-08
7.31745e-08
1.27479e-07
2.37859e-07
4.54831e-07
8.61931e-07
1.58709e-06
1.40083e-06
6.41503e-07
3.04132e-07
1.5985e-07
1.0524e-07
9.21085e-08
1.01688e-07
1.30242e-07
1.84432e-07
2.83535e-07
4.62722e-07
7.85817e-07
1.3498e-06
2.29733e-06
5.75311e-06
4.25639e-06
3.26539e-06
2.65998e-06
2.40409e-06
2.46639e-06
2.82265e-06
3.43903e-06
4.29075e-06
5.36175e-06
6.63423e-06
8.11551e-06
9.8427e-06
1.21482e-05
3.46854e-06
2.36345e-06
1.73748e-06
1.35371e-06
1.15785e-06
1.13118e-06
1.26504e-06
1.55924e-06
2.02178e-06
2.66732e-06
3.50983e-06
4.56877e-06
5.88747e-06
7.70777e-06
2.25329e-06
1.33266e-06
9.05311e-07
6.71025e-07
5.47626e-07
5.11703e-07
5.56221e-07
6.86378e-07
9.17831e-07
1.2762e-06
1.79174e-06
2.50243e-06
3.47055e-06
4.87097e-06
1.55041e-06
7.72687e-07
4.62622e-07
3.19266e-07
2.48952e-07
2.24412e-07
2.37944e-07
2.92927e-07
4.0252e-07
5.9111e-07
8.93336e-07
1.3566e-06
2.05434e-06
3.12229e-06
1.11438e-06
4.69587e-07
2.36579e-07
1.46013e-07
1.07427e-07
9.38897e-08
9.79409e-08
1.20879e-07
1.7151e-07
2.68716e-07
4.43997e-07
7.45089e-07
1.24484e-06
2.06413e-06
8.22717e-07
3.02996e-07
1.25817e-07
6.56975e-08
4.40835e-08
3.71444e-08
3.8453e-08
4.82137e-08
7.19243e-08
1.22955e-07
2.26647e-07
4.25299e-07
7.85615e-07
1.4166e-06
6.20574e-07
2.09617e-07
7.34925e-08
3.08514e-08
1.76324e-08
1.39181e-08
1.43831e-08
1.88011e-08
3.06242e-08
5.90872e-08
1.23333e-07
2.58131e-07
5.21597e-07
1.01121e-06
4.87595e-07
1.59365e-07
5.03314e-08
1.6968e-08
7.46001e-09
5.07834e-09
5.22445e-09
7.48843e-09
1.41624e-08
3.17737e-08
7.4705e-08
1.71011e-07
3.70777e-07
7.6115e-07
4.14189e-07
1.37835e-07
4.23083e-08
1.24036e-08
4.03275e-09
2.04177e-09
2.04074e-09
3.48538e-09
8.07666e-09
2.08507e-08
5.33519e-08
1.29234e-07
2.93053e-07
6.25028e-07
4.00285e-07
1.40297e-07
4.40053e-08
1.24353e-08
3.47279e-09
1.38122e-09
1.33737e-09
2.6384e-09
6.8137e-09
1.84538e-08
4.81289e-08
1.17861e-07
2.70415e-07
5.84189e-07
4.37702e-07
1.61238e-07
5.25266e-08
1.55367e-08
4.85526e-09
2.447e-09
2.55982e-09
4.33335e-09
9.53508e-09
2.33001e-08
5.71179e-08
1.34599e-07
3.01525e-07
6.40651e-07
5.29927e-07
2.03903e-07
7.05895e-08
2.38377e-08
1.00453e-08
7.22224e-09
8.12918e-09
1.17146e-08
2.04394e-08
4.11421e-08
8.8404e-08
1.91124e-07
4.03399e-07
8.18298e-07
6.70433e-07
2.73531e-07
1.06461e-07
4.49389e-08
2.57892e-08
2.25293e-08
2.60272e-08
3.4989e-08
5.30783e-08
9.02296e-08
1.66628e-07
3.20663e-07
6.20052e-07
1.17283e-06
8.94849e-07
4.08084e-07
1.89737e-07
1.00288e-07
6.93516e-08
6.51991e-08
7.57573e-08
9.91019e-08
1.40489e-07
2.14253e-07
3.47662e-07
5.911e-07
1.0283e-06
1.78359e-06
4.42871e-06
3.3436e-06
2.55655e-06
2.04181e-06
1.77232e-06
1.74124e-06
1.94474e-06
2.38226e-06
3.05581e-06
3.95747e-06
5.0769e-06
6.42093e-06
8.02397e-06
1.01316e-05
2.59882e-06
1.84957e-06
1.37497e-06
1.05766e-06
8.70449e-07
8.06732e-07
8.65228e-07
1.05684e-06
1.40213e-06
1.92364e-06
2.63687e-06
3.56499e-06
4.75366e-06
6.38565e-06
1.59411e-06
1.00768e-06
7.0819e-07
5.24002e-07
4.13299e-07
3.65177e-07
3.76656e-07
4.55549e-07
6.20511e-07
8.99451e-07
1.32275e-06
1.92801e-06
2.77651e-06
4.00551e-06
1.02004e-06
5.49712e-07
3.50769e-07
2.45913e-07
1.86371e-07
1.58569e-07
1.5856e-07
1.90172e-07
2.65765e-07
4.08269e-07
6.50262e-07
1.03575e-06
1.63187e-06
2.55355e-06
6.78131e-07
3.0711e-07
1.69782e-07
1.09449e-07
7.90945e-08
6.51784e-08
6.38587e-08
7.66977e-08
1.11055e-07
1.83144e-07