/*--------------------------------*- C++ -*----------------------------------*\
| =========                 |                                                 |
| \\      /  F ield         | OpenFOAM: The Open Source CFD Toolbox           |
|  \\    /   O peration     | Version:  v2106                                 |
|   \\  /    A nd           | Website:  www.openfoam.com                      |
|    \\/     M anipulation  |                                                 |
\*---------------------------------------------------------------------------*/
FoamFile
{
    version     2.0;
    format      ascii;
    arch        "LSB;label=32;scalar=64";
    class       volScalarField;
    location    "0.00021";
    object      epsilon;
}
// * * * * * * * * * * * * * * * * * * * * * * * * * * * * * * * * * * * * * //

dimensions      [0 2 -3 0 0 0 0];

internalField   nonuniform List<scalar> 
144746
(
144430
99434.6
74742
64082.4
66620.3
77045.7
91651.3
104606
113397
120525
128308
150613
186078
217491
96696.3
60447.8
40948.1
30451.9
27826.2
30380.8
37225.2
46399.5
56120.2
64655.4
76653.2
92568.9
117248
157998
62586.5
38231.9
24695.7
16787.9
13475.2
13148.4
15639.2
20554
27222.5
34637.4
42426.9
55506.8
69875.5
107584
42880.3
25753.2
16134.3
10310.6
7407.21
6392.75
7077.6
9478.11
13508.5
18691.3
24277.9
29465.4
38107.3
67888.8
31180.8
18358.9
10827
6480.99
4244.96
3299.78
3365.08
4499.63
6846.45
10285.1
14316.2
18338.6
23860.2
42803.3
23265.5
12818.6
6986.57
3879.08
2342.99
1678.83
1607.98
2163.47
3535.61
5791.52
8704.84
11960.9
16283.2
30749.3
16963.1
8396.15
4148.29
2119.52
1191.09
805.274
752.701
1057.8
1892.4
3401.47
5546.85
8252.57
12351.9
26762.2
11894
5170.83
2269.76
1053.07
551.769
361.519
353.145
555.951
1110.23
2176.06
3828.86
6176.1
10459.5
26652.4
8437.69
3236
1245.86
512.852
247.948
164.466
187.94
352.788
773.149
1602.31
2987.32
5259.98
10391.3
29202.6
7055.69
2527.77
885.626
328.182
149.57
107.383
146.789
302.426
675.248
1421.97
2779.83
5438.33
12461.6
33495
8000.57
3030.03
1110.9
425.987
206.119
155.885
199.906
367.077
761.438
1577.55
3220.51
7026.82
16780.7
38831.1
12555.7
5702.08
2558.65
1122.61
553.266
380.254
402.977
604.489
1096.68
2157.58
4504.91
10399.6
23693.7
47324.9
22045
11897.8
6527.95
3440.29
1798.65
1102.69
955.813
1180.01
1837.55
3290.31
6569.66
14613.8
31214.6
57481.1
36750.4
22065.1
14002.4
8901.25
5454.43
3421.1
2560.03
2567.47
3357.9
5282.79
9434.35
19533.9
39372.2
66900.1
145947
91255.5
63205.3
48841.3
44892.4
46252.3
50872.3
55382.4
58798.6
61676.1
73352.9
99937.8
152330
206822
83364.4
49383
32913.2
24083.5
20648.5
20508.3
22850.4
26359.4
30396.8
34402.3
39778.4
54223.3
82848
128913
43561.3
26678.3
17841.5
12638.9
10169.8
9541.35
10478.2
12615
15718.5
19407
23944.8
30853.5
45542.1
74297.7
25680.7
15869.1
10327
7050.77
5325.71
4669.35
4941.42
6088.58
8112.04
10895.4
14374.5
18759.9
24897.4
42816.5
17636.9
10363.1
6351.23
4076.31
2868.28
2341.27
2361.35
2938.86
4183.15
6120.16
8674.47
11888.1
16173.7
26791
13106.1
7030.08
3945.7
2332.3
1515.68
1151.96
1110.03
1403.21
2155.52
3463.64
5322.16
7757.61
11118.5
18488.8
9876.8
4728.4
2370.01
1266.63
755.575
537.498
503.594
664.517
1128.23
2013.56
3377.5
5294.29
8136.86
14528.7
7585.71
3193.42
1388.5
650.956
350.466
234.809
223.43
327.819
633.852
1258.62
2300.47
3883.51
6471.67
12837.9
6239.37
2328.29
865.437
341.663
159.022
100.848
106.85
190.296
420.32
904.518
1766.9
3199.28
5828.89
12727.3
6092.21
2120.72
704.904
237.155
93.1238
56.8229
71.8747
151.096
355.598
790.451
1609.49
3103.43
6164.12
13943.6
7214.82
2538.72
851.776
287.371
114.487
72.6101
90.3593
177.011
394.969
863.48
1790.26
3627.3
7492.12
16308.4
10772.8
4172.83
1604.12
625.347
278.476
177.063
185.691
293.212
567.674
1162.01
2381.99
4921.15
10020.6
21055
17774.6
7763.29
3554.07
1676.99
834.07
510.716
457.499
592.007
966.704
1772.79
3450.59
7038.43
14916.2
29847.8
29437.7
14040.6
7357.63
4127.95
2366.32
1481.14
1182.57
1291.69
1794.31
2890.96
5142.37
10341.8
22797.7
43359
125113
76111.8
49913.3
35817.8
29584.6
27545.4
28312
30224.1
33281.4
36071.3
38848.2
44599.7
76234.3
143723
57876.7
36217.9
23621.5
16694.4
13479.2
12415.7
12862.1
14137.3
16204
18537.4
21347.6
25787.8
38497.4
76167.1
27764.3
16957.4
11040
7788.6
6201.4
5639.35
5847.75
6602.05
7914.47
9643.71
11964.7
15422
22941.9
39642.4
16974
9065.73
5509.76
3764.78
2922.09
2595.36
2661.06
3061.08
3857.78
5058.34
6783.39
9346.98
14000.5
23007.3
11781.1
5531.31
3015.09
1914.75
1409.27
1201.16
1202.06
1399.13
1866.04
2670.04
3903.03
5771.35
8890.52
14692.4
8601.09
3650.5
1761.07
1003.63
680.088
547.032
530.549
626.106
896.117
1422.27
2294.95
3669.88
5905.09
10105.6
6545.59
2551.75
1078.2
531.084
319.733
238.596
225.102
275.593
436.268
782.517
1406.17
2447.48
4186.72
7481.07
5543.66
1996.22
729.009
295.504
148.359
99.1541
92.51
124.846
229.735
470.9
937.534
1765.55
3217.21
6022.39
5235.3
1771.21
572.483
189.438
73.946
41.5157
40.128
66.4393
146.831
335.956
719.835
1436.38
2754.51
5358.16
5749.73
1886.2
571.903
166.155
51.6676
23.4134
24.5049
50.5161
125.09
299.674
661.49
1356.88
2675.87
5299.55
6885.84
2246.89
683.764
200.993
63.389
29.2058
30.3624
59.9674
142.371
332.863
728.293
1491.03
2937.43
5798.67
9636.6
3257.43
1069.1
358.039
134.572
70.8906
66.4003
104.324
210.582
450.644
939.897
1867.37
3586.27
6992.08
14173.1
5065.39
1888.04
765.657
349.248
202.946
175.279
225.552
374.982
702.746
1357.47
2603.89
4973.05
9562.05
22217.3
8289.15
3440.61
1651.22
888.172
561.401
466.205
527.6
748.116
1223.24
2161.17
4074.98
8462.24
17211.1
257598
308945
331320
368262
623141
2.58065e+06
207026
278292
314697
329903
505984
2.07099e+06
170321
265936
314766
311919
428049
1.76046e+06
138465
258968
319845
300729
376176
1.5722e+06
112658
249401
316314
290079
335268
1.46591e+06
93760.7
234434
300650
278775
314431
1.4205e+06
87771
207529
272443
267855
315208
1.42652e+06
84462.5
177880
239145
258571
326641
1.47349e+06
78093.8
146173
206593
248925
340574
1.55831e+06
70813.6
119270
177670
238225
355538
1.67211e+06
66544.1
102621
156665
227592
373334
1.83018e+06
68187.4
97682.2
145748
218937
391532
2.03617e+06
73221.5
99721.8
143787
214814
408850
2.26572e+06
78438.3
105424
148568
218980
440682
2.65085e+06
271753
349738
386716
394742
531752
2.03747e+06
176290
255979
325583
354226
444504
1.62563e+06
119153
202832
294958
336744
391617
1.36916e+06
80828.7
165688
275486
329196
361225
1.20655e+06
57864.5
139831
258422
319391
343147
1.10624e+06
43173.3
121621
240727
304705
337491
1.05811e+06
36866
106013
218078
284988
337184
1.06965e+06
34505.1
94540.6
191159
265937
347553
1.12879e+06
33057.3
81705.9
163245
248919
366118
1.21848e+06
31980
69175
138227
233016
387078
1.32259e+06
32130
61061.7
120579
218872
405846
1.43762e+06
35797.7
60964.3
113869
209559
418236
1.56561e+06
43915.7
68495
117400
206494
428827
1.73285e+06
53351
79674.6
127304
208733
436819
1.97957e+06
233015
348439
434469
447400
508644
1.39833e+06
126971
205374
292654
355568
441850
1.10746e+06
70848.6
129749
212126
297907
410019
922579
40470.6
86727.2
162911
261751
383212
806122
26914.1
61958
132231
234216
356417
740171
19389.4
47116.5
114513
215618
338063
717583
15049
38127.5
102533
199622
327858
741790
12708.9
33655.3
92310.5
183479
334107
803060
11699.5
30982.5
81516
169757
349967
882495
11425.6
28020
70572.2
158970
364576
962223
11606.9
25437.9
62394.4
150527
372467
1.03141e+06
12851.4
25345.4
59614.2
145714
372261
1.09308e+06
16770.2
30182.4
64106.6
147191
372029
1.16206e+06
22659.4
38701.9
75315.7
155392
366855
1.24939e+06
79638.6
110609
157673
237844
509816
2.74722e+06
47706.8
72757.4
116527
186013
375844
2.05684e+06
26495.8
47057.2
89207.8
155706
320616
1.61697e+06
14912.6
31409.4
72003.4
137463
288969
1.33771e+06
10164.3
24390.8
61756.9
121533
245498
1.17701e+06
8013.88
22565.6
57988
111069
219754
1.10492e+06
7615.28
22903.2
56644.4
104531
214536
1.10826e+06
8550.24
24244.1
55241.9
100182
224755
1.19411e+06
10543.5
25429.1
52578.7
97913.7
253530
1.34732e+06
13313.1
26278.4
49992.3
100715
301944
1.55858e+06
16679.2
27851.6
50779.2
113107
369591
1.82532e+06
21304.6
32739.8
60129
141707
463878
2.15614e+06
29159.4
45065.7
85165.5
196609
614993
2.57648e+06
42947.3
70416.5
134907
292931
852332
3.14294e+06
59604.3
89841.2
136342
217540
451062
1.97085e+06
31675.5
52212.2
89271.6
157648
326052
1.43645e+06
15640.2
29457.7
59360.1
120444
265817
1.09744e+06
8605.48
17283.1
41189.8
95266.8
220423
882888
5569.41
12368.5
32022.1
78336.6
186897
757292
4055.25
10282.8
28159.7
68969.9
170294
701009
3462.42
9676.42
26779.1
64202.1
166700
711347
3574.44
9984.42
26523.6
62985.6
178521
789386
4325.37
10787.4
26661.3
66050.1
213460
934469
5696.55
11988.8
27932.1
76612.5
273056
1.14107e+06
7761.7
14233.6
33047
99521.3
357424
1.40345e+06
11214.9
19584.7
46535.3
140111
467355
1.71963e+06
18287.1
32710.1
76396.2
207360
615293
2.10108e+06
33375.8
62377.3
134897
314546
827518
2.57863e+06
28015.6
48856.2
87743.1
168128
367393
1.14193e+06
14487.1
27118.9
53406.6
112038
256321
800293
7037.61
14701.4
32664.7
77080.8
187637
590418
4029.98
8422.9
20550
54566.9
145514
464702
2577.78
5811.13
14825.2
41857.2
120522
394367
1799.28
4416.69
11911.8
35256.3
108534
370409
1425.15
3750.43
10668.3
33003.2
109989
391811
1333.4
3585.43
10669.2
35228.6
129731
466573
1517.73
3919.03
12199
44539.9
174211
605780
2020.03
4925.31
16430
65205.3
247847
814304
2983.31
7264.36
25854.8
101492
349420
1.0865e+06
4938.82
12384.7
43361.8
154927
470657
1.40899e+06
9663.63
23977
74422
229679
598299
1.76748e+06
22541.1
53013
133707
330788
740534
2.14918e+06
2.93022e+06
812216
467735
329171
226454
161896
2.47324e+06
730836
386653
248507
161081
115061
2.16598e+06
660358
327087
191534
114516
78681.5
1.95197e+06
598223
289484
160109
89379.3
57695.4
1.77071e+06
533627
268639
146936
78486.8
46230
1.62095e+06
487687
256783
142509
73758.5
39443.9
1.52361e+06
476291
249766
138870
69118.3
33143
1.49734e+06
491863
246940
131043
61376.2
26555.3
1.53508e+06
538136
247785
120768
52725.9
21053
1.63881e+06
605741
254488
114383
47785.3
18562.4
1.81965e+06
691841
275635
119691
50277.8
20288.7
2.10092e+06
791153
309242
138484
62351.9
27985.6
2.52286e+06
913276
358423
169072
83272.8
42540.4
3.17959e+06
1.08466e+06
428553
213563
115003
65209
2.49656e+06
958143
555835
379675
246539
162541
2.12234e+06
871412
472491
285251
163257
101192
1.84813e+06
795239
410579
217139
107748
60564.8
1.64299e+06
733679
366469
178201
80096.4
40251.3
1.49071e+06
679766
331892
152539
66425.3
31163.1
1.37754e+06
633413
298383
137012
58584.7
25678.7
1.30297e+06
599768
271863
122354
51356.3
21337.8
1.27605e+06
585835
254128
110380
45426.5
18001.1
1.29669e+06
599386
248600
104376
42044.5
16053.2
1.37563e+06
638695
257577
106811
43092.3
16358.6
1.52156e+06
701710
283136
119474
49334.9
19313
1.75069e+06
783795
324509
144654
63789.5
27038.3
2.08808e+06
897994
378667
178761
85491.1
40513.3
2.60178e+06
1.05651e+06
457983
228757
118735
62363.4
2.07131e+06
981027
643606
416472
244758
134410
1.80397e+06
896573
557285
308830
153752
73296.6
1.60022e+06
827854
496491
238851
103548
47297.5
1.44561e+06
780612
443357
199740
84047
35758.9
1.32818e+06
741858
395774
171695
69459.1
27549.8
1.23117e+06
700560
347208
145499
56826.7
21368
1.1544e+06
650366
300704
122257
46635.4
16976.7
1.1067e+06
606554
267680
107813
41201.8
14881.2
1.09734e+06
582413
252469
102901
39923.3
14481.1
1.13843e+06
586381
257218
108504
43462.8
16134.1
1.23863e+06
619509
280310
122969
50813.2
19472.9
1.40884e+06
666319
321082
149355
65269.2
26656.3
1.672e+06
752047
374101
182651
85158.7
37847
2.07986e+06
883956
456577
234638
117910
57467.6
2.44172e+06
511409
341914
315832
283568
237483
2.05499e+06
444091
324493
295248
253098
211105
1.79968e+06
400740
309254
276234
225540
180766
1.63259e+06
371030
297306
264065
209056
163767
1.53244e+06
352161
289161
264378
214588
165421
1.48525e+06
338992
285522
278401
241588
180856
1.4784e+06
330619
288206
307604
281685
196353
1.49814e+06
337673
305452
347455
314786
196507
1.53814e+06
363259
338342
383846
322292
179610
1.61857e+06
400829
374804
393679
298581
156265
1.76608e+06
467161
406564
377728
263346
138830
2.00922e+06
569911
431074
358183
244185
140048
2.38728e+06
692683
475669
371539
257401
163022
2.98843e+06
885011
542211
416903
306869
214774
1.94558e+06
487802
410377
394714
323429
241048
1.64632e+06
463908
417040
369486
272260
196226
1.44609e+06
445376
414041
341877
223665
145497
1.31537e+06
431528
410130
326339
196120
118420
1.23854e+06
420224
409629
328495
196283
109876
1.20558e+06
411677
412254
345693
211509
109302
1.2058e+06
407022
418852
369863
224663
112453
1.23369e+06
410114
433974
387123
230949
110627
1.27603e+06
432933
453893
388628
223971
104162
1.34701e+06
483799
463628
367902
208546
99143.3
1.48729e+06
561389
468026
344316
198233
100692
1.69919e+06
674881
481459
343356
210715
118377
2.0107e+06
795044
532934
383080
251885
155947
2.49104e+06
999467
624610
468074
338884
230135
1.41627e+06
529677
511456
451398
296464
176784
1.26512e+06
553375
531672
391731
215821
120506
1.16515e+06
567144
540830
355532
170071
80979.2
1.10352e+06
581475
553968
347218
153833
69977.4
1.07441e+06
599103
571492
347045
153140
70687.2
1.07134e+06
618808
579049
340600
157341
69135.1
1.08233e+06
630254
562099
329560
152104
65179.8
1.09954e+06
630366
535309
313651
145326
62380
1.12938e+06
633512
507198
295852
139255
61037.4
1.19122e+06
658521
480309
281788
139639
64348.6
1.28962e+06
707542
479667
287667
152225
74781.7
1.43872e+06
779308
512790
323740
186771
99896.8
1.65832e+06
867385
583862
393611
247148
145319
2.00924e+06
1.03304e+06
706924
513527
355013
229181
72209.2
44596.5
28374.1
19787.9
15890.1
14414.6
14495.5
15452.3
17419.6
19906
22532.2
24786.5
27342.7
36945.9
32262.7
18820.9
11674.5
8035.17
6436.64
5902.61
6032.35
6560.19
7558.71
8925.46
10588.7
12368.7
14706.6
21264.8
18236.2
8685.88
4825.65
3194.77
2558.23
2380.74
2474.52
2745.44
3236.6
3953.15
4918.69
6119.36
7936.92
12260.5
12261.3
4751.64
2179.65
1302.42
1016.2
952.398
1002.63
1131.23
1362.47
1725.68
2272.6
3062.44
4392.62
7328.86
8558.47
2899.37
1099.79
559.916
407.691
378.451
400.749
457.97
564.32
748.72
1063.65
1593.55
2564.2
4638.59
6113.21
1910.16
622.725
260.156
166.178
148.44
156.823
181.618
231.572
329.978
522.509
892.928
1621.56
3150.82
4567.26
1365.79
400.573
135.891
70.0111
57.0466
59.5527
70.8003
96.724
155.439
285.032
559.76
1126.62
2307.44
3790.12
1107.34
303.246
85.5895
32.5541
21.7482
22.053
28.0908
44.4587
85.8811
184.44
404.319
868.883
1829.68
3467.06
999.146
263.549
66.2519
18.7504
8.915
8.52364
12.8959
26.1993
61.5563
147.552
341.107
750.331
1585.4
3666.11
1050.88
272.779
65.1799
15.4742
5.13172
4.53001
8.88541
22.5076
58.4121
144.086
332.72
724.617
1507.79
4152.44
1169.31
299.483
71.6313
17.2451
5.75068
5.17315
10.5288
26.7429
67.9409
162.77
364.817
773.543
1568.45
5639.47
1576.99
405.786
101.893
28.7295
12.63
11.6867
19.1881
40.7913
92.7234
206.763
440.703
897.731
1759.6
7922.27
2206.49
589.851
168.851
62.4034
36.3246
33.8735
45.3256
76.9329
147.909
295.139
585.502
1130.09
2128.86
12753.8
3645.81
1083.81
373.872
171.144
112.926
103.394
122.452
175.345
286.1
499.981
907.28
1642.14
2934.88
35346
21958.4
14608
10712
9098.62
8743.39
9281.34
10355.4
11958.1
13864.1
15928.8
18016.3
20264.8
25073.9
17300.9
9387.94
5823.99
4157.85
3515.72
3415.45
3690.61
4233.65
5048.59
6096.71
7362.97
8805.35
10597.2
13994.6
10672.9
4620.92
2442.8
1625.56
1351.49
1321.84
1447.75
1698.57
2086.31
2624.08
3336.82
4241.39
5512.47
7870.59
7388.91
2654.36
1137.83
662.744
525.14
510.913
562.858
670.357
844.219
1106.65
1491.51
2045.51
2917.91
4568.29
5265.83
1674.67
591.989
286.578
207.008
196.897
216.742
260.648
336.026
461.815
669.816
1014.28
1620.45
2805.68
3841.82
1132.82
344.796
134.47
83.0862
75.0954
82.0946
99.7222
132.695
194.94
313.158
538.304
975.319
1861.25
2893.3
818.605
225.46
71.1568
34.6666
28.169
30.3159
37.6455
53.2764
87.3884
161.692
320.392
651.525
1341.89
2303.72
638.575
166.434
44.617
16.0754
10.5531
10.9655
14.4668
23.3976
45.7291
99.5289
222.774
490.566
1055.94
1962.77
541.317
138.296
33.9156
9.31469
4.31236
4.16093
6.41842
13.1871
31.4797
77.3975
184.775
420.202
914.772
1865.95
518.618
132.974
31.7855
7.57585
2.51054
2.21545
4.36306
11.1852
29.7126
75.644
181.138
408.791
877.892
1902.87
527.451
136.768
33.6163
8.37628
2.92286
2.68419
5.40575
13.7612
35.6158
87.7689
203.47
446.039
931.776
2323.92
640.264
168.57
44.6134
13.6234
6.62254
6.48341
10.6341
22.4316
51.3347
116.64
255.362
535.291
1076.99
2984.2
819.452
228.43
72.0214
30.2355
19.5933
19.4091
26.5395
45.1895
87.1492
175.615
354.454
699.2
1342.56
4557.94
1301.24
410.909
159.597
83.7591
61.1075
59.5611
73.0674
106.328
174.357
305.207
553.98
1005.62
1810.71
14023.7
8944.83
6399.82
5132.49
4776.36
5030.07
5782.26
6880.52
8240.77
9755.39
11377.6
13161.4
15230.2
18769.3
7337.81
3978.46
2613.97
2012.67
1830.45
1917.41
2228.36
2731.23
3408.31
4238.79
5221.83
6397.04
7887.79
10336.7
4641.7
2038.47
1141.81
811.665
709.731
730.959
848.812
1059.42
1368.56
1784.99
2328.51
3040.57
4036.85
5699.12
3269.2
1196.27
544.617
338.475
277.828
278.546
320.376
403.101
535.295
731.761
1017.03
1434.33
2084.22
3214.42
2429.11
777.691
286.74
146.848
108.98
105.273
119.515
150.798
205.154
295.307
443.409
689.597
1117.47
1908.1
1848.25
541.343
167.322
67.6903
42.8149
39.0649
43.7354
55.4658
77.875
120.106
199.941
351.83
644.875
1223.47
1415.35
392.945
107.564
34.463
17.1839
14.1462
15.5721
20.141
30.0412
51.6544
98.7981
200.065
412.983
856.474
1100.74
297.929
76.4399
20.4839
7.53866
5.08002
5.42997
7.45977
12.6627
25.7848
57.8928
132.944
299.82
658.46
884.387
239.269
60.3731
14.7475
4.10737
1.97909
1.99569
3.20922
6.86545
16.9784
43.1635
106.523
250.4
561.756
763.755
212.166
54.7933
13.2372
3.2181
1.13134
1.07574
2.19054
5.75998
15.7596
41.5224
103.201
241.859
537.892
707.733
203.72
55.1479
14.1127
3.71253
1.45852
1.46817
2.93513
7.41322
19.4375
49.2028
118.011
268.261
580.07
746.696
224.44
65.3366
19.1435
6.59788
3.71795
3.93961
6.4147
13.1972
30.0003
69.053
155.002
334.926
694.118
849.517
270.322
89.3695
33.1314
16.0191
11.611
12.322
17.1957
29.0258
55.4049
111.865
228.94
461.744
906.527
1115.5
389.132
155.417
73.997
44.8444
36.0606
37.7915
48.4754
71.6917
117.633
206.16
376.134
693.452
1271.83
6465.89
4361.37
3276.93
2766.27
2695.1
2998.81
3644.68
4557.25
5680.35
6941.33
8310.28
9853.36
11688.6
14501.4
3411.71
2007.39
1405.56
1125.75
1043.07
1123.15
1359.34
1745.03
2278.19
2947.65
3756.8
4746.77
6009.02
7961.56
2135.4
1026.25
630.388
468.67
410.309
423.274
502.652
652.888
884.49
1208.45
1642.36
2225.91
3043.53
4350.02
1500.8
587.014
297.484
197.215
161.59
159.305
184.307
239.603
334.154
481.57
702.384
1033.34
1549.17
2417.8
1123.92
371.096
149.983
83.677
62.7065
59.0348
66.6232
86.4246
123.805
189.09
299.953
487.92
814.685
1408.91
854.414
250.708
82.083
36.4525
23.8639
21.2671
23.5375
30.6619
45.5637
75.0574
132.54
243.694
459.174
883.623
642.14
175.671
49.2572
17.0496
9.0608
7.40936
8.08089
10.7822
17.1502
31.631
64.0506
134.882
285.838
603.515
480.862
127.847
32.9494
9.24028
3.66723
2.5385
2.72393
3.89856
7.09577
15.4261
36.3562
86.4616
200.673
451.639
367.84
98.8868
25.0895
6.27066
1.84212
0.940118
0.978857
1.65702
3.77023
9.81352
26.01
66.596
162.15
376.03
304.449
86.0798
22.7095
5.60685
1.41357
0.540131
0.552534
1.15889
3.13547
8.87905
24.3096
62.9043
153.592
355.519
281.476
85.2853
24.1162
6.40707
1.79758
0.815258
0.887561
1.72
4.24457
11.2146
29.167
72.5563
171.755
386.943
300.081
98.3817
30.6679
9.56053
3.63802
2.3526
2.65628
4.23186
8.36844
18.695
43.4031
99.8823
223.197
479.566
353.698
127.186
46.0727
18.4022
9.68771
7.69802
8.65863
12.2169
20.2768
38.0151
76.5404
158.512
327.275
660.272
462.56
190.578
84.6019
43.151
27.8909
24.1367
26.8607
35.551
52.9812
86.6415
151.687
278.226
521.391
975.714
3998.3
2838.28
2160.95
1812.87
1723.81
1890.17
2317.15
2990.68
3894.09
4957.83
6147.59
7500.75
9118.19
11473.5
2113.03
1356.89
984.034
782.128
696.272
718.988
854.767
1114.72
1514.97
2054.28
2729.72
3571.32
4659.62
6291.76
1271.56
681.774
450.739
337.796
283.369
275.641
314.654
408.611
572.82
822.421
1172.86
1655.77
2344.39
3426.67
844.244
365.319
207.53
143.29
113.464
104.651
114.75
147.419
211.658
321.077
494.402
762.178
1186.86
1900.61
592.407
210.043
97.3699
59.359
43.9346
38.6634
41.0272
52.3042
77.0648
124.299
209.267
358.387
622.524
1106.62
421.346
128.247
47.664
24.2824
16.35
13.7263
14.2438
18.2483
28.0458
49.0951
92.3468
178.918
350.368
692.715
297.651
82.2552
25.1941
10.1887
5.90569
4.65817
4.77952
6.31795
10.5241
20.7748
44.7542
98.8358
216.9
469.828
212.492
56.4408
15.2156
4.80756
2.1799
1.53025
1.56899
2.25958
4.36814
10.1603
25.2552
62.5336
149.906
346.415
160.409
43.4495
11.2535
2.9683
0.968686
0.531988
0.550671
0.957543
2.31347
6.35935
17.6157
46.854
118.073
282.435
137.852
39.9463
10.6848
2.67443
0.707127
0.300969
0.32553
0.690133
1.91374
5.61294
15.9828
43.0495
109.271
262.293
138.962
43.5835
12.4522
3.33087
0.992464
0.526495
0.61265
1.14078
2.72534
7.21946
19.2583
49.6198
121.987
285.213
162.643
54.9886
17.2735
5.48726
2.28151
1.68484
2.00618
3.12393
5.91976
12.9239
30.1343
70.8671
163.204
362.129
207.81
76.7186
28.0344
11.5033
6.54582
5.70909
6.75699
9.58027
15.5798
28.5885
57.1849
119.491
251.755
520.326
286.16
121.511
54.5272
28.443
19.4634
18.1036
21.206
28.6576
42.6919
69.2383
120.643
222.019
421.59
802.657
3077.31
2254.18
1709.96
1383.7
1233.33
1263.31
1490.46
1934.27
2609.2
3472.84
4491.82
5690.38
7163.02
9262.55
1583.97
1089.22
804.061
624.53
523.846
498.946
555.928
711.348
990.296
1406.05
1962.38
2682.9
3646.23
5080.52
882.401
527.898
368.62
275.296
219.848
196.994
207.647
259.516
368.347
553.016
832.769
1235.83
1831.03
2772.78
527.425
260.752
164.65
116.72
89.1678
76.0351
76.5214
93.5426
134.916
213.789
349.064
569.091
930.644
1550.62
329.582
133.036
72.2969
47.3886
34.503
28.2223
27.4445
33.1633
49.046
82.8735
148.585
270.414
494.445
916.141
209.48
70.7203
31.7763
18.5069
12.6674
9.97083
9.48918
11.5596
17.9797
33.2556
66.8789
137.75
283.452
582.527
135.001
40.0033
14.6038
7.13165
4.43562
3.34057
3.15561
4.00982
6.88105
14.5065
33.3762
77.8402
178.316
399.171
92.0342
25.5459
7.74724
2.94869
1.5335
1.07146
1.02477
1.44889
2.94841
7.33756
19.2837
49.8846
123.891
294.48
71.6708
20.0495
5.47058
1.59672
0.60325
0.355263
0.357337
0.627985
1.60513
4.65693
13.4694
37.1617
96.6983
237.677
68.8105
20.282
5.45441
1.3899
0.39761
0.194864
0.222117
0.473148
1.34227
4.07049
12.0144
33.5215
87.9225
217.251
79.2894
24.6704
6.89402
1.83493
0.596156
0.37907
0.470733
0.853106
1.98787
5.28616
14.4316
38.334
97.2389
234.113
102.451
33.7429
10.2995
3.31545
1.54704
1.31035
1.63561
2.51406
4.62266
9.92411
23.2597
55.7655
131.705
299.998
139.729
50.1488
17.974
7.61252
4.78052
4.57548
5.64479
8.03243
12.8661
23.2327
46.2855
97.5927
209.377
442.038
200.892
83.9486
37.385
20.0872
14.759
14.7277
17.9541
24.5722
36.4902
58.696
101.825
188.111
361.925
701.003
2603.55
1952.16
1479.96
1167.15
984.592
937.007
1036.32
1311.48
1794.08
2475.09
3339.26
4400.78
5756.59
7689.93
1290.69
937.261
702.489
539.366
434.105
386.003
398.698
487.136
676.963
991.888
1448.15
2068.96
2933.93
4232.34
666.369
439.462
319.538
239.209
185.598
156.532
152.772
180.096
252.032
388.526
612.919
954.67
1480.21
2328.04
358.392
203.894
139.496
100.926
75.7038
61.2206
57.2246
65.6795
92.8518
150.756
258.283
443.858
761.792
1322.8
197.762
94.4692
58.6784
40.3994
29.23
22.8152
20.6852
23.4868
34.1121
59.2808
111.913
215.326
413.82
799.721
110.864
44.315
24.0158
15.3566
10.643
8.04645
7.16474
8.24523
12.7307
24.4607
51.9909
113.089
243.794
520.602
64.5982
21.9667
9.90014
5.61984
3.66209
2.68
2.37972
2.88907
5.01787
11.1133
26.9937
66.0202
157.258
363.355
42.5012
12.8172
4.57876
2.10118
1.21508
0.848826
0.771548
1.06362
2.23897
5.8675
16.1373
43.3389
111.033
270.76
35.1552
10.1114
2.92936
0.971068
0.430155
0.271906
0.269008
0.473987
1.26237
3.8186
11.4395
32.5314
86.9124
218.427
37.9492
11.003
2.90431
0.754897
0.243771
0.142008
0.17156
0.368375
1.06759
3.33235
10.1347
29.0915
78.2807
197.7
48.4451
14.3893
3.83255
1.01709
0.379023
0.293822
0.387267
0.695245
1.60629
4.31799
12.0613
32.89
85.5609
210.624
66.9492
20.8431
6.09823
2.03479
1.11231
1.07539
1.39476
2.13464
3.86699
8.26327
19.5768
47.8733
115.654
269.154
95.8122
32.8167
11.5565
5.2126
3.70159
3.85731
4.90823
7.0049
11.1188
19.923
39.7935
84.9859
185.823
400.101
144.065
58.8249
26.2001
14.8556
11.8845
12.6312
15.8407
21.8285
32.2926
51.6517
89.5567
166.756
325.818
642.46
2318.1
1770.09
1348.13
1050.77
857.001
768.726
792.873
956.502
1296.88
1829.9
2561.77
3507.49
4773.24
6603.93
1106.19
836.2
634.893
486.153
383.035
325.382
315.259
364.107
494.617
735.211
1112.23
1653.56
2442.54
3649.31
535.049
380.445
284.189
213.725
163.761
133.429
123.276
137.313
186.459
289.839
472.99
768.055
1241.7
2025.06
262.55
168.391
121.284
88.9671
66.3323
52.2188
46.5994
50.732
69.5635
113.739
201.575
361.819
648.277
1170.08
129.432
72.848
49.4283
35.0084
25.3444
19.3606
16.8689
18.2733
25.8915
45.5388
89.1933
179.462
360.162
723.701
64.4441
31.1791
19.3303
13.0217
9.11628
6.77626
5.8257
6.44267
9.82444
19.3118
42.7526
97.1106
217.903
482.044
34.1769
13.8535
7.42401
4.60994
3.0887
2.23718
1.92663
2.27162
3.96976
9.0991
23.0257
58.4962
144.106
342.989
21.959
7.33446
3.06968
1.61373
0.997104
0.700737
0.622788
0.848123
1.83227
4.98999
14.2213
39.3872
103.709
259.167
19.3802
5.61704
1.72219
0.648765
0.328176
0.219411
0.217352
0.386844
1.06573
3.33258
10.277
29.9834
82.0059
210.462
22.8548
6.28421
1.59456
0.427829
0.161732
0.111009
0.141137
0.307312
0.911018
2.91989
9.1166
26.8175
73.806
190.13
31.0313
8.51334
2.11611
0.570298
0.258653
0.240468
0.330842
0.593334
1.37484
3.7581
10.751
30.052
80.0058
200.947
44.706
12.8376
3.57637
1.28651
0.850007
0.917051
1.22083
1.86558
3.36014
7.21092
17.3639
43.4087
107.284
254.781
66.6475
21.5173
7.5124
3.72998
3.01315
3.36198
4.3676
6.24173
9.85359
17.6257
35.497
77.0992
172.129
377.992
105.362
41.9266
18.8571
11.492
10.0092
11.1943
14.309
19.7811
29.1533
46.4754
80.8049
152.134
302.502
607.852
2122.03
1638.07
1254.02
973.32
781.135
677.196
664.897
764.787
1013.29
1440.18
2068.74
2921.03
4115.27
5877.41
978.964
758.163
580.616
445.09
348.001
289.226
270.068
298.494
393.89
584.896
903.772
1383.58
2112.55
3251.84
449.562
335.605
254.478
192.257
146.999
118.197
106.36
114.157
150.557
232.904
387.099
646.876
1079.89
1814.59
205.513
143.214
105.991
78.4264
58.5968
45.7936
40.1111
42.3742
56.658
92.3044
166.636
307.917
569.735
1061.72
92.77
59.0345
41.9808
30.1895
21.9901
16.7478
14.405
15.2398
21.2048
37.3856
74.8548
155.229
321.836
668.427
41.9216
23.7202
15.8509
10.965
7.76373
5.77494
4.92214
5.34989
8.09463
16.1116
36.6458
85.8288
198.703
453.598
20.4439
9.7034
5.79134
3.77104
2.57963
1.87833
1.61039
1.88095
3.30823
7.76121
20.2352
52.9185
134.117
328.319
12.7357
4.6637
2.19816
1.25817
0.812204
0.579555
0.516195
0.704992
1.55631
4.36296
12.7962
36.376
98.2391
251.661
11.6925
3.35073
1.07894
0.454333
0.254177
0.1782
0.179718
0.325704
0.923476
2.96983
9.40142
28.0998
78.6839
206.518
14.5835
3.72724
0.901099
0.254298
0.114268
0.0897419
0.118834
0.262467
0.795142
2.6146
8.37802
25.2614
71.17
187.306
20.6689
5.16399
1.19217
0.33857
0.192622
0.204769
0.288158
0.51524
1.20025
3.34582
9.82336
28.1933
76.9139
197.371
30.7906
8.09003
2.17027
0.878512
0.693144
0.805008
1.08574
1.65212
2.96344
6.41271
15.7599
40.4075
102.381
248.441
47.7563
14.5383
5.12904
2.85502
2.56819
3.00124
3.94277
5.62385
8.83099
15.8125
32.2308
71.4487
163.297
366.295
79.6649
31.0238
14.2421
9.38029
8.75702
10.1472
13.1112
18.1206
26.5806
42.2846
73.8825
141.003
285.941
586.286
164994
278717
433664
601379
740115
810875
95869.1
181863
315966
492957
690539
852183
63514.5
131871
251964
435826
681278
928467
46107.1
101750
211668
400828
685362
1.00739e+06
38025.5
88458.1
194421
392851
712080
1.08574e+06
34514.8
83036.2
191342
410185
772842
1.14328e+06
34361.1
84626.6
202486
453002
863525
1.16918e+06
36009.3
89688.7
220841
506167
935278
1.13101e+06
39826.9
98897.4
243311
549528
944108
1.0367e+06
43903.7
105367
253359
558154
888480
924008
47115
105919
247172
546565
814281
825820
48345.9
100108
238819
529841
741003
748527
49484.7
100584
243574
508780
669749
694365
64360.4
139649
297312
490493
573915
636749
84419.5
157927
269018
420594
604993
827738
51101.1
103045
196327
343492
553067
833270
35322.2
77372.6
160023
307114
543963
884173
26655.3
62313.6
138347
289700
559605
972783
23023.1
56659.5
133340
296736
608170
1.09936e+06
21986.3
55687.8
136477
319609
683828
1.22223e+06
22926.7
58815.6
148020
357748
779575
1.30424e+06
24858.8
63407
161249
397447
860553
1.30359e+06
27808.3
69527.8
175585
428400
888109
1.21717e+06
30912.4
73953.8
181238
430831
842076
1.08298e+06
33622
74998.4
175648
407950
765207
955669
35699.8
73071.7
163051
378423
682015
839695
37605.2
70683.7
153667
352750
595696
726297
44880.8
82896.5
173305
336619
489964
599396
31845.9
64532.4
122295
214874
353196
551302
21641.1
46095.5
93692.2
181025
328821
563463
16133.6
37151.5
81776.4
170909
337865
621010
13299.6
32684.9
77123.7
173728
370326
720263
12582.9
32486.2
80803.3
191912
429606
873019
13167.2
34837
89326.3
220112
510441
1.05367e+06
14772
39166
101503
254860
600792
1.20546e+06
16883.4
43782.3
112465
284241
671803
1.2718e+06
19334.6
48313.6
121487
303948
702243
1.23008e+06
21760.6
51463.3
124665
303446
672474
1.09728e+06
23973.3
52702.6
121305
285705
606343
942085
26109.3
52824.8
114478
258587
524266
784592
28431.3
52681
107104
232089
445406
639394
33507.1
57411.2
109231
210664
353265
489604
14094.7
28219.1
55418.1
105734
194720
349773
10179.8
21659.8
45678.4
94590.5
191302
373173
7995.96
18461.1
42090.5
94142.6
206754
434563
7076.21
17660.5
43335.1
104119
244233
536370
7168.56
18991.9
49090.9
123503
300728
673368
8070.61
22055.5
58527.7
150952
373161
835535
9631.7
26323.5
70049.4
181650
447931
986345
11533.6
30609.8
79803.3
205034
502575
1.07351e+06
13635.4
34509.7
86993.4
219133
526672
1.07274e+06
15705.3
37248.8
89401.1
217292
505751
973308
17652.2
38634.9
87372.4
203888
457066
831459
19626.4
39392.4
83360.7
184374
390004
672760
21866.3
40105.2
79024.8
164564
323521