/*--------------------------------*- C++ -*----------------------------------*\
| =========                 |                                                 |
| \\      /  F ield         | OpenFOAM: The Open Source CFD Toolbox           |
|  \\    /   O peration     | Version:  v2106                                 |
|   \\  /    A nd           | Website:  www.openfoam.com                      |
|    \\/     M anipulation  |                                                 |
\*---------------------------------------------------------------------------*/
FoamFile
{
    version     2.0;
    format      ascii;
    arch        "LSB;label=32;scalar=64";
    class       volScalarField;
    location    "0.00021";
    object      nut;
}
// * * * * * * * * * * * * * * * * * * * * * * * * * * * * * * * * * * * * * //

dimensions      [0 2 -1 0 0 0 0];

internalField   nonuniform List<scalar> 
144746
(
3.38902e-05
2.65749e-05
2.13571e-05
1.85596e-05
1.85711e-05
2.06539e-05
2.40626e-05
2.76416e-05
3.06533e-05
3.31881e-05
3.48875e-05
3.72697e-05
4.16105e-05
4.6825e-05
2.52931e-05
1.87444e-05
1.40958e-05
1.10388e-05
9.91145e-06
1.03497e-05
1.22053e-05
1.50101e-05
1.82622e-05
2.13984e-05
2.49464e-05
2.78997e-05
3.15926e-05
3.77811e-05
1.92261e-05
1.39729e-05
1.01009e-05
7.37789e-06
5.97117e-06
5.60575e-06
6.30911e-06
7.99429e-06
1.04553e-05
1.3334e-05
1.63859e-05
2.01305e-05
2.29255e-05
2.87257e-05
1.52974e-05
1.07229e-05
7.47333e-06
5.16821e-06
3.8339e-06
3.24996e-06
3.39297e-06
4.29793e-06
5.96238e-06
8.21525e-06
1.07277e-05
1.30318e-05
1.57367e-05
2.09463e-05
1.22159e-05
8.17594e-06
5.34847e-06
3.47978e-06
2.40078e-06
1.88272e-06
1.83823e-06
2.30758e-06
3.38261e-06
5.0404e-06
7.05975e-06
9.07324e-06
1.12847e-05
1.54152e-05
9.55841e-06
5.89811e-06
3.5523e-06
2.14881e-06
1.38588e-06
1.02577e-06
9.63244e-07
1.22347e-06
1.91816e-06
3.10936e-06
4.70112e-06
6.45994e-06
8.36826e-06
1.21032e-05
7.14552e-06
3.94952e-06
2.14987e-06
1.19639e-06
7.22559e-07
5.13033e-07
4.81583e-07
6.48773e-07
1.11678e-06
1.98215e-06
3.23752e-06
4.77347e-06
6.64216e-06
1.05089e-05
5.12199e-06
2.49876e-06
1.20855e-06
6.09086e-07
3.43012e-07
2.38462e-07
2.39101e-07
3.67981e-07
7.11959e-07
1.37266e-06
2.39396e-06
3.75866e-06
5.67616e-06
1.00301e-05
3.73987e-06
1.63126e-06
6.98663e-07
3.13383e-07
1.62831e-07
1.15536e-07
1.37249e-07
2.53715e-07
5.38726e-07
1.0876e-06
1.97173e-06
3.26363e-06
5.40756e-06
1.04726e-05
3.20228e-06
1.33725e-06
5.37202e-07
2.24451e-07
1.13063e-07
8.70375e-08
1.19587e-07
2.36473e-07
5.04111e-07
1.01433e-06
1.86685e-06
3.25669e-06
5.92421e-06
1.16689e-05
3.61995e-06
1.62672e-06
6.95791e-07
3.10507e-07
1.71376e-07
1.38032e-07
1.73435e-07
2.99904e-07
5.82724e-07
1.12387e-06
2.07897e-06
3.83607e-06
7.26759e-06
1.34366e-05
5.32053e-06
2.84528e-06
1.44214e-06
7.15149e-07
4.07953e-07
3.13178e-07
3.37639e-07
4.82889e-07
8.1554e-07
1.46863e-06
2.70258e-06
5.10489e-06
9.48773e-06
1.58467e-05
8.36524e-06
5.26036e-06
3.18409e-06
1.82396e-06
1.07529e-06
7.65385e-07
7.25058e-07
8.88173e-07
1.30375e-06
2.14134e-06
3.76944e-06
6.93156e-06
1.21701e-05
1.86211e-05
1.21786e-05
8.5142e-06
5.96257e-06
4.04263e-06
2.67415e-06
1.88664e-06
1.6071e-06
1.72042e-06
2.21323e-06
3.24645e-06
5.19157e-06
8.96079e-06
1.47038e-05
2.10218e-05
2.94521e-05
2.163e-05
1.65366e-05
1.35688e-05
1.26391e-05
1.3032e-05
1.4341e-05
1.58947e-05
1.7396e-05
1.86714e-05
2.11057e-05
2.47639e-05
3.14087e-05
3.87246e-05
1.91786e-05
1.36387e-05
1.01963e-05
8.0519e-06
7.08974e-06
7.03723e-06
7.76669e-06
8.99289e-06
1.05305e-05
1.21129e-05
1.39341e-05
1.70785e-05
2.19099e-05
2.89366e-05
1.21831e-05
8.78858e-06
6.57925e-06
5.05158e-06
4.20402e-06
3.93594e-06
4.2302e-06
5.01609e-06
6.23494e-06
7.73708e-06
9.50944e-06
1.16778e-05
1.51953e-05
2.03985e-05
8.54823e-06
6.08518e-06
4.4148e-06
3.26147e-06
2.5645e-06
2.25337e-06
2.31865e-06
2.76665e-06
3.62182e-06
4.84645e-06
6.378e-06
8.13822e-06
1.02748e-05
1.43211e-05
6.53823e-06
4.37369e-06
2.9768e-06
2.07068e-06
1.53283e-06
1.2703e-06
1.25135e-06
1.49358e-06
2.06363e-06
2.99085e-06
4.23554e-06
5.7363e-06
7.5144e-06
1.04781e-05
5.1388e-06
3.12235e-06
1.93917e-06
1.24483e-06
8.60651e-07
6.75649e-07
6.44922e-07
7.81679e-07
1.15691e-06
1.83477e-06
2.82138e-06
4.08486e-06
5.64047e-06
8.03001e-06
3.98711e-06
2.15925e-06
1.1956e-06
6.94384e-07
4.43938e-07
3.31229e-07
3.13049e-07
3.99583e-07
6.53681e-07
1.14921e-06
1.92577e-06
2.99313e-06
4.39175e-06
6.60529e-06
3.09512e-06
1.48173e-06
7.15147e-07
3.64952e-07
2.11143e-07
1.49967e-07
1.46709e-07
2.1151e-07
3.96467e-07
7.73662e-07
1.40227e-06
2.32173e-06
3.62431e-06
5.85911e-06
2.53853e-06
1.09103e-06
4.57519e-07
1.98812e-07
9.98075e-08
6.76674e-08
7.49254e-08
1.32581e-07
2.84661e-07
5.97551e-07
1.13975e-06
1.97915e-06
3.2713e-06
5.65549e-06
2.42194e-06
9.90862e-07
3.82667e-07
1.47002e-07
6.4587e-08
4.30633e-08
5.60265e-08
1.14366e-07
2.58268e-07
5.51129e-07
1.06916e-06
1.91249e-06
3.31804e-06
5.94387e-06
2.78724e-06
1.17922e-06
4.70638e-07
1.87483e-07
8.75986e-08
6.18389e-08
7.67355e-08
1.41582e-07
2.96612e-07
6.08645e-07
1.16906e-06
2.12509e-06
3.76772e-06
6.68982e-06
3.91716e-06
1.84887e-06
8.42249e-07
3.82448e-07
1.99945e-07
1.44426e-07
1.55379e-07
2.33195e-07
4.19867e-07
7.94033e-07
1.47784e-06
2.67225e-06
4.6529e-06
8.06665e-06
5.91574e-06
3.15565e-06
1.68757e-06
8.98592e-07
5.14023e-07
3.66852e-07
3.55059e-07
4.50906e-07
6.9145e-07
1.17164e-06
2.05933e-06
3.63102e-06
6.36271e-06
1.0347e-05
8.62686e-06
5.03128e-06
3.08594e-06
1.93147e-06
1.23992e-06
8.97087e-07
8.09867e-07
9.1583e-07
1.22839e-06
1.84916e-06
2.9829e-06
5.09437e-06
8.81206e-06
1.34574e-05
2.28347e-05
1.61969e-05
1.18922e-05
9.31976e-06
8.14442e-06
7.8701e-06
8.24674e-06
8.93036e-06
9.89643e-06
1.08494e-05
1.17845e-05
1.30148e-05
1.74687e-05
2.58691e-05
1.22984e-05
8.88066e-06
6.55758e-06
5.11069e-06
4.38807e-06
4.18824e-06
4.411e-06
4.90464e-06
5.65576e-06
6.52464e-06
7.53014e-06
8.77039e-06
1.12917e-05
1.75235e-05
7.05821e-06
4.94333e-06
3.64716e-06
2.83694e-06
2.39654e-06
2.24281e-06
2.34388e-06
2.65222e-06
3.17875e-06
3.88483e-06
4.79851e-06
5.96171e-06
7.93301e-06
1.16116e-05
4.86643e-06
3.06111e-06
2.13341e-06
1.60834e-06
1.32112e-06
1.20183e-06
1.23245e-06
1.40507e-06
1.7518e-06
2.28559e-06
3.04071e-06
4.063e-06
5.62264e-06
8.13589e-06
3.67515e-06
2.06458e-06
1.30476e-06
9.18281e-07
7.1817e-07
6.29209e-07
6.29704e-07
7.20918e-07
9.40785e-07
1.32828e-06
1.9232e-06
2.78009e-06
4.04824e-06
5.99481e-06
2.87086e-06
1.45293e-06
8.12608e-07
5.1521e-07
3.74174e-07
3.12719e-07
3.0578e-07
3.54641e-07
4.93017e-07
7.67349e-07
1.22589e-06
1.9279e-06
2.97251e-06
4.58057e-06
2.29359e-06
1.05389e-06
5.13585e-07
2.82361e-07
1.83894e-07
1.44453e-07
1.39188e-07
1.68435e-07
2.58667e-07
4.53836e-07
8.06388e-07
1.38015e-06
2.26217e-06
3.64401e-06
1.96811e-06
8.2873e-07
3.49268e-07
1.59421e-07
8.75555e-08
6.24033e-08
6.04038e-08
8.14948e-08
1.46165e-07
2.92767e-07
5.73252e-07
1.05372e-06
1.82401e-06
3.0634e-06
1.83461e-06
7.2576e-07
2.72788e-07
1.0325e-07
4.4868e-08
2.72965e-08
2.78393e-08
4.64751e-08
1.00308e-07
2.23184e-07
4.65e-07
8.92863e-07
1.60309e-06
2.7746e-06
1.93543e-06
7.49208e-07
2.68352e-07
9.14633e-08
3.29732e-08
1.69881e-08
1.88756e-08
3.82425e-08
9.11438e-08
2.09768e-07
4.4316e-07
8.59342e-07
1.56159e-06
2.73451e-06
2.22612e-06
8.73774e-07
3.21096e-07
1.13614e-07
4.33163e-08
2.38343e-08
2.6001e-08
4.85081e-08
1.0807e-07
2.38365e-07
4.90614e-07
9.34938e-07
1.68222e-06
2.92855e-06
2.9254e-06
1.21011e-06
4.8785e-07
1.98424e-07
9.05692e-08
5.70275e-08
5.7202e-08
8.5952e-08
1.61014e-07
3.20245e-07
6.20221e-07
1.13464e-06
1.97846e-06
3.36589e-06
4.01964e-06
1.78206e-06
8.21579e-07
4.00196e-07
2.1756e-07
1.50185e-07
1.42774e-07
1.81829e-07
2.83871e-07
4.92913e-07
8.76417e-07
1.5237e-06
2.56831e-06
4.20346e-06
5.64819e-06
2.63921e-06
1.3727e-06
7.91595e-07
5.01786e-07
3.7387e-07
3.4882e-07
4.04786e-07
5.52831e-07
8.45359e-07
1.3695e-06
2.27255e-06
3.81307e-06
6.10959e-06
5.43944e-05
6.424e-05
7.16414e-05
7.52888e-05
7.58065e-05
9.76609e-05
4.65628e-05
5.95811e-05
7.02601e-05
7.61961e-05
8.01504e-05
0.000108762
3.89645e-05
5.54141e-05
6.8904e-05
7.5831e-05
8.23057e-05
0.000118875
3.22041e-05
5.1914e-05
6.77384e-05
7.4335e-05
8.22031e-05
0.000127764
2.6981e-05
4.88812e-05
6.5871e-05
7.19574e-05
8.06737e-05
0.000135198
2.3248e-05
4.61205e-05
6.30319e-05
6.8989e-05
7.84528e-05
0.000140946
2.1976e-05
4.26033e-05
5.87186e-05
6.56531e-05
7.62448e-05
0.000144826
2.16988e-05
3.92514e-05
5.35879e-05
6.22068e-05
7.41815e-05
0.0001464
2.14262e-05
3.5412e-05
4.8279e-05
5.85987e-05
7.21441e-05
0.000145365
2.10805e-05
3.1751e-05
4.32584e-05
5.49356e-05
7.00122e-05
0.000141257
2.09961e-05
2.91433e-05
3.93228e-05
5.16768e-05
6.80144e-05
0.000134391
2.15863e-05
2.80624e-05
3.70471e-05
4.93283e-05
6.60153e-05
0.000124754
2.27101e-05
2.82067e-05
3.65224e-05
4.82569e-05
6.39425e-05
0.000112046
2.37106e-05
2.90929e-05
3.73975e-05
4.86087e-05
6.30627e-05
9.85227e-05
4.71919e-05
5.78864e-05
6.68786e-05
7.32866e-05
7.59413e-05
9.02481e-05
3.6481e-05
4.81426e-05
6.05486e-05
7.08743e-05
7.85507e-05
0.000100304
2.76684e-05
4.01312e-05
5.5294e-05
6.84963e-05
7.93657e-05
0.000109292
2.08401e-05
3.37394e-05
5.10964e-05
6.63561e-05
7.8457e-05
0.000116943
1.63531e-05
2.91352e-05
4.76986e-05
6.39592e-05
7.63813e-05
0.000123053
1.32838e-05
2.60345e-05
4.49619e-05
6.13166e-05
7.40775e-05
0.000127738
1.17023e-05
2.36685e-05
4.21028e-05
5.80722e-05
7.18541e-05
0.000131554
1.1053e-05
2.22162e-05
3.88184e-05
5.46091e-05
7.02875e-05
0.000133941
1.08936e-05
2.07453e-05
3.52248e-05
5.10549e-05
6.91205e-05
0.000133896
1.10131e-05
1.91941e-05
3.16203e-05
4.74358e-05
6.78538e-05
0.000130592
1.13978e-05
1.80537e-05
2.87175e-05
4.41741e-05
6.62586e-05
0.00012394
1.2302e-05
1.79174e-05
2.72563e-05
4.18939e-05
6.42207e-05
0.000114239
1.39712e-05
1.90305e-05
2.75677e-05
4.11238e-05
6.24975e-05
0.000102419
1.58155e-05
2.08562e-05
2.91828e-05
4.16222e-05
6.13956e-05
8.93377e-05
3.59602e-05
4.86567e-05
5.98559e-05
6.7288e-05
7.32503e-05
7.96062e-05
2.54659e-05
3.61975e-05
4.7961e-05
5.92515e-05
7.12462e-05
8.82448e-05
1.76163e-05
2.67489e-05
3.85075e-05
5.24846e-05
6.94316e-05
9.5787e-05
1.21541e-05
2.01829e-05
3.1562e-05
4.72774e-05
6.69254e-05
0.000102196
9.19289e-06
1.58109e-05
2.67048e-05
4.30512e-05
6.35349e-05
0.000107593
7.2971e-06
1.29325e-05
2.36396e-05
4.01229e-05
6.06621e-05
0.000112203
6.05302e-06
1.10806e-05
2.15596e-05
3.78321e-05
5.84188e-05
0.000116419
5.30388e-06
1.0072e-05
2.00804e-05
3.56257e-05
5.73057e-05
0.000119531
4.95901e-06
9.54623e-06
1.87384e-05
3.35102e-05
5.67338e-05
0.000120196
4.90563e-06
9.1311e-06
1.73147e-05
3.14556e-05
5.58649e-05
0.0001174
5.07935e-06
8.82753e-06
1.60503e-05
2.95524e-05
5.44012e-05
0.000110897
5.51498e-06
8.84902e-06
1.53654e-05
2.81623e-05
5.23739e-05
0.000101287
6.42751e-06
9.64294e-06
1.58467e-05
2.7938e-05
5.06923e-05
8.9589e-05
7.6644e-06
1.10726e-05
1.7511e-05
2.89442e-05
4.92656e-05
7.65872e-05
2.39958e-05
3.03944e-05
3.94784e-05
5.06979e-05
6.47838e-05
9.96887e-05
1.7333e-05
2.32994e-05
3.3073e-05
4.64839e-05
6.45104e-05
0.000108463
1.15699e-05
1.70501e-05
2.71993e-05
4.22e-05
6.32885e-05
0.000115489
7.61623e-06
1.25481e-05
2.27503e-05
3.86643e-05
6.15669e-05
0.000121003
5.51111e-06
1.00351e-05
1.98102e-05
3.54452e-05
5.86366e-05
0.000125607
4.37154e-06
9.03084e-06
1.85942e-05
3.31498e-05
5.5813e-05
0.00012959
3.94177e-06
8.84779e-06
1.82114e-05
3.16506e-05
5.37931e-05
0.000133129
4.09782e-06
9.1893e-06
1.80454e-05
3.05221e-05
5.30207e-05
0.000136502
4.75675e-06
9.72167e-06
1.76822e-05
2.95013e-05
5.39448e-05
0.00013851
5.80808e-06
1.02764e-05
1.72325e-05
2.90139e-05
5.66331e-05
0.000138023
7.10219e-06
1.09425e-05
1.72449e-05
2.98722e-05
6.07155e-05
0.000134319
8.65155e-06
1.21535e-05
1.8659e-05
3.31188e-05
6.60318e-05
0.000127223
1.07436e-05
1.46708e-05
2.27295e-05
3.98222e-05
7.37497e-05
0.00011701
1.38052e-05
1.94734e-05
3.06194e-05
5.07364e-05
8.49747e-05
0.00010432
1.69825e-05
2.28488e-05
3.12416e-05
4.32655e-05
6.19565e-05
8.91915e-05
1.1632e-05
1.65206e-05
2.43303e-05
3.67739e-05
5.74475e-05
9.61746e-05
7.33959e-06
1.13431e-05
1.84243e-05
3.09736e-05
5.30185e-05
0.000101434
4.74113e-06
7.86899e-06
1.41292e-05
2.62329e-05
4.84481e-05
0.000105297
3.31335e-06
5.98903e-06
1.15341e-05
2.27081e-05
4.41668e-05
0.000108389
2.49909e-06
4.97854e-06
1.02058e-05
2.06047e-05
4.14312e-05
0.000111319
2.09197e-06
4.51444e-06
9.6071e-06
1.94537e-05
4.02759e-05
0.00011482
2.00342e-06
4.45006e-06
9.43836e-06
1.8997e-05
4.1078e-05
0.000118914
2.20909e-06
4.65618e-06
9.46408e-06
1.91886e-05
4.45968e-05
0.000122627
2.69562e-06
5.05768e-06
9.71043e-06
2.04307e-05
5.07901e-05
0.000124429
3.43812e-06
5.70573e-06
1.05694e-05
2.34827e-05
5.90567e-05
0.000123088
4.5212e-06
6.94126e-06
1.28525e-05
2.91143e-05
6.82787e-05
0.000118013
6.32478e-06
9.61968e-06
1.78947e-05
3.80603e-05
7.77975e-05
0.000109339
9.60359e-06
1.51842e-05
2.722e-05
5.07176e-05
8.80225e-05
9.76706e-05
8.64812e-06
1.28543e-05
1.96047e-05
3.07031e-05
4.8956e-05
7.43176e-05
5.89478e-06
9.2558e-06
1.48983e-05
2.48311e-05
4.27583e-05
7.90965e-05
3.69769e-06
6.33048e-06
1.09186e-05
1.96847e-05
3.69163e-05
8.24617e-05
2.44239e-06
4.3752e-06
8.02707e-06
1.56173e-05
3.21071e-05
8.4989e-05
1.69377e-06
3.26605e-06
6.2907e-06
1.29105e-05
2.87545e-05
8.71922e-05
1.2417e-06
2.57155e-06
5.22941e-06
1.13049e-05
2.71217e-05
9.0014e-05
9.91687e-07
2.16931e-06
4.64256e-06
1.0583e-05
2.75366e-05
9.417e-05
8.85327e-07
1.98488e-06
4.43272e-06
1.07419e-05
3.07457e-05
9.98684e-05
9.13557e-07
2.00585e-06
4.60677e-06
1.21157e-05
3.73876e-05
0.00010621
1.08024e-06
2.2322e-06
5.28102e-06
1.52502e-05
4.74359e-05
0.000111264
1.39897e-06
2.73601e-06
6.83242e-06
2.07026e-05
6.01458e-05
0.000113074
1.95359e-06
3.76632e-06
9.75129e-06
2.8564e-05
7.36997e-05
0.00011047
3.08105e-06
6.01145e-06
1.48987e-05
3.89514e-05
8.53e-05
0.000103254
5.76414e-06
1.12719e-05
2.42698e-05
5.15234e-05
9.21973e-05
9.19489e-05
0.00010189
9.86317e-05
8.17073e-05
6.33439e-05
4.74868e-05
3.70561e-05
0.000115401
9.40164e-05
7.05453e-05
5.08786e-05
3.68467e-05
2.88992e-05
0.000127396
9.10985e-05
6.29615e-05
4.25972e-05
2.95566e-05
2.26962e-05
0.000137346
8.97119e-05
5.89637e-05
3.86616e-05
2.592e-05
1.90063e-05
0.000144025
8.83952e-05
5.78846e-05
3.78395e-05
2.45219e-05
1.6589e-05
0.000147336
8.84055e-05
5.84026e-05
3.81544e-05
2.36327e-05
1.46002e-05
0.000148083
9.11355e-05
5.92846e-05
3.79637e-05
2.22115e-05
1.23786e-05
0.000147218
9.58081e-05
5.99309e-05
3.63249e-05
1.98128e-05
1.00138e-05
0.000144659
0.000101416
6.00938e-05
3.38251e-05
1.71992e-05
8.06629e-06
0.000140324
0.000105989
6.00381e-05
3.18691e-05
1.55854e-05
7.15192e-06
0.00013414
0.000108114
6.09031e-05
3.21046e-05
1.59335e-05
7.64107e-06
0.000126086
0.000106952
6.20855e-05
3.44978e-05
1.84599e-05
9.82689e-06
0.000116157
0.000102557
6.32177e-05
3.80897e-05
2.25007e-05
1.35199e-05
0.000104702
9.52919e-05
6.35152e-05
4.1905e-05
2.73357e-05
1.81446e-05
9.66102e-05
0.000109047
8.44655e-05
6.21263e-05
4.39232e-05
3.21082e-05
0.000109688
0.000105637
7.44801e-05
4.95026e-05
3.19729e-05
2.22843e-05
0.000120865
0.00010373
6.7572e-05
4.0678e-05
2.3872e-05
1.55289e-05
0.000129713
0.000102743
6.29076e-05
3.58042e-05
1.97418e-05
1.18259e-05
0.000136024
0.000101424
5.96576e-05
3.27173e-05
1.76201e-05
9.98839e-06
0.000139582
9.95234e-05
5.6455e-05
3.09663e-05
1.63072e-05
8.66202e-06
0.000140588
9.77313e-05
5.40343e-05
2.90602e-05
1.48539e-05
7.41668e-06
0.0001396
9.72283e-05
5.24209e-05
2.72231e-05
1.34318e-05
6.32782e-06
0.000136761
9.83527e-05
5.1952e-05
2.60925e-05
1.24437e-05
5.60691e-06
0.000132378
0.000100293
5.27642e-05
2.61598e-05
1.23734e-05
5.526e-06
0.000126374
0.000101872
5.50193e-05
2.78741e-05
1.34872e-05
6.22383e-06
0.000118644
0.000101919
5.82225e-05
3.13682e-05
1.62105e-05
8.09628e-06
0.000109057
0.000100062
6.12879e-05
3.5622e-05
2.00346e-05
1.11111e-05
9.79376e-05
9.64507e-05
6.43203e-05
4.05026e-05
2.48118e-05
1.51332e-05
9.08196e-05
0.000113697
8.71353e-05
6.01639e-05
3.87892e-05
2.43432e-05
0.000103937
0.000113948
7.87929e-05
4.77293e-05
2.69221e-05
1.49575e-05
0.000115234
0.000113611
7.29723e-05
3.94564e-05
1.99982e-05
1.06792e-05
0.000124337
0.000112269
6.68686e-05
3.4479e-05
1.7114e-05
8.63172e-06
0.00013094
0.000108319
6.12676e-05
3.09055e-05
1.49398e-05
7.13186e-06
0.000134516
0.000102399
5.566e-05
2.75628e-05
1.30062e-05
5.93123e-06
0.000135102
9.57864e-05
5.04283e-05
2.45513e-05
1.13548e-05
4.99716e-06
0.000133207
9.0486e-05
4.6849e-05
2.26679e-05
1.04065e-05
4.48882e-06
0.00012943
8.7517e-05
4.53733e-05
2.20612e-05
1.01364e-05
4.33766e-06
0.000124335
8.68942e-05
4.60911e-05
2.28864e-05
1.06921e-05
4.63671e-06
0.000118033
8.78178e-05
4.86542e-05
2.49085e-05
1.19132e-05
5.31678e-06
0.000110383
8.8592e-05
5.2816e-05
2.85082e-05
1.43215e-05
6.77518e-06
0.000101296
8.96537e-05
5.744e-05
3.2742e-05
1.74778e-05
8.93476e-06
9.0923e-05
9.11904e-05
6.35196e-05
3.84854e-05
2.19905e-05
1.219e-05
9.58715e-05
7.42733e-05
7.21971e-05
6.64793e-05
5.84539e-05
5.05131e-05
0.000108471
7.34539e-05
6.92304e-05
6.19468e-05
5.3564e-05
4.64681e-05
0.000119737
7.31426e-05
6.70437e-05
5.90619e-05
5.02685e-05
4.28997e-05
0.000129361
7.35101e-05
6.62354e-05
5.84144e-05
4.948e-05
4.17449e-05
0.000137191
7.49281e-05
6.69494e-05
6.03703e-05
5.2008e-05
4.27965e-05
0.000143032
7.72986e-05
6.91648e-05
6.4657e-05
5.68914e-05
4.43335e-05
0.000146539
8.07267e-05
7.28591e-05
7.04976e-05
6.18358e-05
4.4781e-05
0.000147197
8.5413e-05
7.82453e-05
7.64087e-05
6.46256e-05
4.30079e-05
0.000144734
9.13003e-05
8.44789e-05
8.0402e-05
6.37958e-05
3.92624e-05
0.000139742
9.80043e-05
8.96274e-05
8.04606e-05
5.96078e-05
3.52796e-05
0.000132817
0.000104204
9.29339e-05
7.79126e-05
5.50883e-05
3.30488e-05
0.000124232
0.000107525
9.38038e-05
7.5391e-05
5.34128e-05
3.42941e-05
0.000114042
0.000106671
9.41843e-05
7.59504e-05
5.57894e-05
3.8943e-05
0.000102561
0.000102517
9.27783e-05
7.77035e-05
6.0825e-05
4.61707e-05
8.88707e-05
7.58795e-05
7.1894e-05
6.42562e-05
5.34073e-05
4.33451e-05
0.000100738
7.65107e-05
7.07852e-05
6.0483e-05
4.78111e-05
3.8014e-05
0.000111316
7.73895e-05
7.0235e-05
5.78734e-05
4.31639e-05
3.22525e-05
0.000120373
7.87808e-05
7.0872e-05
5.75763e-05
4.12168e-05
2.93682e-05
0.000127792
8.05862e-05
7.27135e-05
5.95495e-05
4.22453e-05
2.82551e-05
0.000133424
8.28412e-05
7.53589e-05
6.3054e-05
4.42262e-05
2.74249e-05
0.000136915
8.5716e-05
7.85714e-05
6.64219e-05
4.50225e-05
2.69039e-05
0.000137974
8.95225e-05
8.21505e-05
6.80128e-05
4.48049e-05
2.5698e-05
0.000136007
9.48982e-05
8.51229e-05
6.75985e-05
4.31686e-05
2.40798e-05
0.000131456
0.000101751
8.63279e-05
6.50836e-05
4.0942e-05
2.30638e-05
0.000125433
0.000108589
8.70502e-05
6.30974e-05
4.00859e-05
2.35837e-05
0.000117486
0.000112815
8.81176e-05
6.38881e-05
4.25563e-05
2.69218e-05
0.000107705
0.000112843
9.08751e-05
6.83099e-05
4.83569e-05
3.31113e-05
9.65309e-05
0.000111372
9.36693e-05
7.49276e-05
5.72981e-05
4.23776e-05
7.99494e-05
7.65808e-05
7.04672e-05
5.94491e-05
4.35097e-05
3.06774e-05
9.2276e-05
8.07031e-05
7.18641e-05
5.47432e-05
3.62714e-05
2.4543e-05
0.000103595
8.47209e-05
7.36002e-05
5.26295e-05
3.24055e-05
1.98549e-05
0.000113555
8.88089e-05
7.627e-05
5.31496e-05
3.10886e-05
1.80851e-05
0.000121919
9.26292e-05
7.91754e-05
5.37381e-05
3.07559e-05
1.77798e-05
0.000128337
9.58451e-05
8.06151e-05
5.30934e-05
3.08331e-05
1.70717e-05
0.000132154
9.7874e-05
7.94276e-05
5.1984e-05
2.97958e-05
1.60152e-05
0.000132872
9.88397e-05
7.74141e-05
5.03891e-05
2.86321e-05
1.51996e-05
0.000130664
0.000100192
7.55105e-05
4.87721e-05
2.76815e-05
1.47021e-05
0.000126244
0.000103001
7.42612e-05
4.78795e-05
2.77447e-05
1.50815e-05
0.000119669
0.000106083
7.56765e-05
4.94764e-05
2.97484e-05
1.68319e-05
0.000111204
0.000108458
7.95759e-05
5.42841e-05
3.46916e-05
2.09564e-05
0.000101056
0.000108927
8.55252e-05
6.19897e-05
4.24535e-05
2.77694e-05
8.99011e-05
0.000110533
9.32129e-05
7.22206e-05
5.32255e-05
3.76294e-05
1.28053e-05
8.9831e-06
6.40541e-06
4.91253e-06
4.22322e-06
4.02685e-06
4.18171e-06
4.55452e-06
5.15773e-06
5.89912e-06
6.71672e-06
7.50291e-06
8.35719e-06
1.02053e-05
6.67933e-06
4.42766e-06
3.10977e-06
2.37014e-06
2.0311e-06
1.94637e-06
2.04804e-06
2.28037e-06
2.65771e-06
3.15783e-06
3.76912e-06
4.44776e-06
5.2812e-06
6.86407e-06
4.20249e-06
2.36498e-06
1.53172e-06
1.13529e-06
9.67254e-07
9.29918e-07
9.86676e-07
1.1167e-06
1.33452e-06
1.6471e-06
2.06744e-06
2.59472e-06
3.32734e-06
4.64044e-06
3.00614e-06
1.42533e-06
7.98698e-07
5.49592e-07
4.56585e-07
4.37521e-07
4.6591e-07
5.33168e-07
6.50876e-07
8.35919e-07
1.11443e-06
1.51364e-06
2.1265e-06
3.20589e-06
2.23774e-06
9.34162e-07
4.4388e-07
2.69499e-07
2.11655e-07
2.00104e-07
2.13202e-07
2.4628e-07
3.07848e-07
4.15723e-07
5.99675e-07
9.01384e-07
1.40268e-06
2.28848e-06
1.71012e-06
6.53591e-07
2.65625e-07
1.35462e-07
9.57539e-08
8.76122e-08
9.31661e-08
1.09195e-07
1.4182e-07
2.06489e-07
3.31314e-07
5.6088e-07
9.69029e-07
1.69702e-06
1.354e-06
4.88861e-07
1.75116e-07
7.26958e-08
4.28852e-08
3.64406e-08
3.85261e-08
4.66398e-08
6.53257e-08
1.07146e-07
1.96496e-07
3.74921e-07
7.08439e-07
1.31249e-06
1.15592e-06
4.03342e-07
1.32498e-07
4.51991e-08
2.03003e-08
1.46473e-08
1.52495e-08
1.99818e-08
3.24848e-08
6.3117e-08
1.32687e-07
2.78152e-07
5.58747e-07
1.07327e-06
1.06103e-06
3.64141e-07
1.14587e-07
3.44236e-08
1.16086e-08
6.24028e-09
6.28324e-09
9.83327e-09
2.01797e-08
4.65439e-08
1.07512e-07
2.36358e-07
4.87487e-07
9.48936e-07
1.09016e-06
3.74263e-07
1.16869e-07
3.35514e-08
9.58734e-09
3.81834e-09
3.69602e-09
7.2606e-09
1.79104e-08
4.48101e-08
1.0591e-07
2.32637e-07
4.77088e-07
9.21482e-07
1.19018e-06
4.08061e-07
1.2872e-07
3.80008e-08
1.14629e-08
4.94841e-09
4.92757e-09
9.37343e-09
2.22365e-08
5.3589e-08
1.22385e-07
2.60664e-07
5.21329e-07
9.84615e-07
1.50217e-06
5.18619e-07
1.69204e-07
5.49551e-08
2.06429e-08
1.19411e-08
1.21214e-08
1.8643e-08
3.62661e-08
7.68168e-08
1.61701e-07
3.25902e-07
6.25168e-07
1.14032e-06
1.96317e-06
6.86639e-07
2.42432e-07
9.49532e-08
4.76705e-08
3.43917e-08
3.47974e-08
4.56628e-08
7.24745e-08
1.29408e-07
2.41487e-07
4.49385e-07
8.12333e-07
1.41589e-06
2.81682e-06
1.02383e-06
4.15287e-07
2.02645e-07
1.24835e-07
9.8731e-08
9.82351e-08
1.18311e-07
1.64613e-07
2.54204e-07
4.16129e-07
7.01333e-07
1.16939e-06
1.90316e-06
7.03797e-06
4.95844e-06
3.66606e-06
2.91216e-06
2.59047e-06
2.55959e-06
2.76139e-06
3.12804e-06
3.64959e-06
4.28184e-06
4.99564e-06
5.75326e-06
6.57381e-06
7.85024e-06
4.0104e-06
2.54766e-06
1.79481e-06
1.39142e-06
1.21801e-06
1.19781e-06
1.30176e-06
1.50899e-06
1.82113e-06
2.23286e-06
2.74125e-06
3.33011e-06
4.03889e-06
5.11563e-06
2.68262e-06
1.43568e-06
9.07618e-07
6.68226e-07
5.70251e-07
5.55151e-07
6.03673e-07
7.10191e-07
8.81506e-07
1.12801e-06
1.46196e-06
1.88877e-06
2.45952e-06
3.34794e-06
1.94948e-06
8.87017e-07
4.80262e-07
3.22731e-07
2.64092e-07
2.53218e-07
2.74369e-07
3.25565e-07
4.13675e-07
5.52925e-07
7.62548e-07
1.06455e-06
1.51224e-06
2.23666e-06
1.46269e-06
5.86473e-07
2.67084e-07
1.56282e-07
1.19424e-07
1.12034e-07
1.20946e-07
1.44666e-07
1.88506e-07
2.65401e-07
3.95766e-07
6.09163e-07
9.57843e-07
1.54531e-06
1.12238e-06
4.10971e-07
1.59119e-07
7.72975e-08
5.26026e-08
4.7476e-08
5.10765e-08
6.19673e-08
8.3933e-08
1.27233e-07
2.1031e-07
3.63283e-07
6.34922e-07
1.11196e-06
8.83521e-07
3.05418e-07
1.0428e-07
4.1045e-08
2.30643e-08
1.91986e-08
2.05161e-08
2.56928e-08
3.74287e-08
6.3556e-08
1.19474e-07
2.32349e-07
4.46148e-07
8.36444e-07
7.26108e-07
2.43672e-07
7.71912e-08
2.53129e-08
1.0832e-08
7.57531e-09
7.93477e-09
1.07049e-08
1.7942e-08
3.57853e-08
7.69714e-08
1.65154e-07
3.39763e-07
6.67998e-07
6.32963e-07
2.11628e-07
6.53771e-08
1.92931e-08
6.29539e-09
3.23487e-09
3.21741e-09
5.11187e-09
1.06927e-08
2.52287e-08
5.98803e-08
1.35761e-07
2.89113e-07
5.81178e-07
6.07145e-07
2.06986e-07
6.47497e-08
1.86414e-08
5.29348e-09
2.0473e-09
1.91312e-09
3.72607e-09
9.28746e-09
2.37737e-08
5.79498e-08
1.31926e-07
2.80753e-07
5.62789e-07
6.22813e-07
2.17217e-07
7.02545e-08
2.11631e-08
6.46351e-09
2.81108e-09
2.74352e-09
5.05257e-09
1.18748e-08
2.90035e-08
6.80213e-08
1.49959e-07
3.11202e-07
6.10451e-07
7.30591e-07
2.61118e-07
8.88444e-08
2.99079e-08
1.16256e-08
7.01804e-09
7.26211e-09
1.09667e-08
2.0872e-08
4.40942e-08
9.42025e-08
1.9508e-07
3.86553e-07
7.30134e-07
8.89631e-07
3.30097e-07
1.24876e-07
5.18018e-08
2.72329e-08
2.05911e-08
2.16214e-08
2.86678e-08
4.51752e-08
8.02064e-08
1.50405e-07
2.84617e-07
5.27562e-07
9.45853e-07
1.19835e-06
4.80271e-07
2.16131e-07
1.12786e-07
7.21283e-08
5.94303e-08
6.18519e-08
7.66475e-08
1.07735e-07
1.66524e-07
2.72692e-07
4.61719e-07
7.81343e-07
1.3029e-06
3.78526e-06
2.72105e-06
2.07769e-06
1.70282e-06
1.55983e-06
1.60138e-06
1.8053e-06
2.14156e-06
2.58925e-06
3.12967e-06
3.74908e-06
4.44432e-06
5.23237e-06
6.33528e-06
2.2809e-06
1.47747e-06
1.06899e-06
8.40998e-07
7.40171e-07
7.3948e-07
8.28423e-07
1.00138e-06
1.25657e-06
1.59561e-06
2.02043e-06
2.53439e-06
3.1633e-06
4.05089e-06
1.5391e-06
8.52333e-07
5.57609e-07
4.1405e-07
3.49112e-07
3.38264e-07
3.73593e-07
4.55321e-07
5.88751e-07
7.83831e-07
1.05274e-06
1.40921e-06
1.88712e-06
2.58952e-06
1.11063e-06
5.2141e-07
2.94166e-07
2.00074e-07
1.60622e-07
1.51245e-07
1.64564e-07
2.01112e-07
2.66704e-07
3.72636e-07
5.35039e-07
7.75241e-07
1.13161e-06
1.6831e-06
8.32254e-07
3.38164e-07
1.59259e-07
9.47744e-08
7.10746e-08
6.50602e-08
7.00599e-08
8.59807e-08
1.17174e-07
1.73304e-07
2.70198e-07
4.31615e-07
6.9591e-07
1.12928e-06
6.3671e-07
2.31966e-07
9.11942e-08
4.50492e-08
3.02634e-08
2.66378e-08
2.85207e-08
3.54661e-08
5.03901e-08
8.06128e-08
1.39625e-07
2.49745e-07
4.46428e-07
7.88383e-07
4.94659e-07
1.68026e-07
5.72193e-08
2.2729e-08
1.27128e-08
1.03697e-08
1.10448e-08
1.42036e-08
2.17812e-08
3.91006e-08
7.68717e-08
1.54244e-07
3.02642e-07
5.74748e-07
3.96063e-07
1.30458e-07
4.08825e-08
1.3374e-08
5.70571e-09
3.93729e-09
4.129e-09
5.74312e-09
1.01397e-08
2.1271e-08
4.75793e-08
1.05128e-07
2.21614e-07
4.44552e-07
3.35259e-07
1.11196e-07
3.41087e-08
9.97984e-09
3.21982e-09
1.63256e-09
1.63314e-09
2.67948e-09
5.85327e-09
1.43688e-08
3.53221e-08
8.27015e-08
1.81659e-07
3.75967e-07
3.12437e-07
1.07933e-07
3.39627e-08
9.73115e-09
2.73602e-09
1.05934e-09
1.00108e-09
1.96771e-09
4.99617e-09
1.31432e-08
3.31082e-08
7.81297e-08
1.72521e-07
3.58694e-07
3.19121e-07
1.15982e-07
3.82461e-08
1.15233e-08
3.54341e-09
1.62693e-09
1.63198e-09
2.90118e-09
6.6547e-09
1.633e-08
3.91984e-08
8.93274e-08
1.92389e-07
3.92208e-07
3.65898e-07
1.40222e-07
4.94782e-08
1.69023e-08
6.78658e-09
4.40631e-09
4.74288e-09
7.01213e-09
1.2843e-08
2.66369e-08
5.72568e-08
1.21296e-07
2.4792e-07
4.84712e-07
4.43422e-07
1.81563e-07
7.19821e-08
3.03563e-08
1.65016e-08
1.33027e-08
1.46762e-08
1.9649e-08
3.04384e-08
5.30258e-08
9.89217e-08
1.89117e-07
3.58166e-07
6.59262e-07
5.79567e-07
2.65516e-07
1.25938e-07
6.62324e-08
4.36231e-08
3.81955e-08
4.21789e-08
5.40326e-08
7.65181e-08
1.17626e-07
1.91915e-07
3.2581e-07
5.59301e-07
9.51594e-07
2.43876e-06
1.80605e-06
1.38677e-06
1.13104e-06
1.02346e-06
1.05131e-06
1.20455e-06
1.46899e-06
1.8341e-06
2.2932e-06
2.8389e-06
3.47427e-06
4.21524e-06
5.20368e-06
1.46762e-06
1.00132e-06
7.36874e-07
5.74765e-07
4.9216e-07
4.81355e-07
5.38856e-07
6.64722e-07
8.62471e-07
1.13838e-06
1.49863e-06
1.95153e-06
2.51583e-06
3.2937e-06
9.51615e-07
5.63641e-07
3.83342e-07
2.84458e-07
2.32391e-07
2.17357e-07
2.36472e-07
2.92009e-07
3.90695e-07
5.43484e-07
7.63376e-07
1.06657e-06
1.47972e-06
2.0765e-06
6.53425e-07
3.26168e-07
1.95529e-07
1.35095e-07
1.05449e-07
9.51393e-08
1.00952e-07
1.24354e-07
1.7096e-07
2.51155e-07
3.79718e-07
5.76828e-07
8.73721e-07
1.32794e-06
4.68711e-07
1.97811e-07
9.97858e-08
6.1657e-08
4.54086e-08
3.97201e-08
4.14632e-08
5.12012e-08
7.26781e-08
1.13907e-07
1.88272e-07
3.16041e-07
5.28143e-07
8.75764e-07
3.45361e-07
1.27365e-07
5.29524e-08
2.76802e-08
1.85917e-08
1.56781e-08
1.62416e-08
2.03744e-08
3.04062e-08
5.19951e-08
9.58722e-08
1.7995e-07
3.32473e-07
5.99544e-07
2.60016e-07
8.79282e-08
3.08622e-08
1.29685e-08
7.4187e-09
5.86059e-09
6.06037e-09
7.9258e-09
1.29148e-08
2.49254e-08
5.20406e-08
1.08944e-07
2.20178e-07
4.26874e-07
2.03914e-07
6.6709e-08
2.10887e-08
7.11578e-09
3.13116e-09
2.13311e-09
2.19588e-09
3.14895e-09
5.95759e-09
1.33698e-08
3.14418e-08
7.19901e-08
1.56102e-07
3.20464e-07
1.72878e-07
5.75738e-08
1.76871e-08
5.18936e-09
1.68853e-09
8.55487e-10
8.5556e-10
1.46188e-09
3.38881e-09
8.75111e-09
2.23966e-08
5.42615e-08
1.23048e-07
2.62447e-07
1.66715e-07
5.84678e-08
1.83534e-08
5.1901e-09
1.45049e-09
5.77269e-10
5.59248e-10
1.10379e-09
2.85147e-09
7.72491e-09
2.01506e-08
4.93534e-08
1.13228e-07
2.44615e-07
1.81873e-07
6.70318e-08
2.1854e-08
6.46852e-09
2.02285e-09
1.02011e-09
1.06769e-09
1.80819e-09
3.98001e-09
9.7283e-09
2.38513e-08
5.62131e-08
1.25912e-07
2.6753e-07
2.19618e-07
8.45423e-08
2.92922e-08
9.89897e-09
4.17447e-09
3.00315e-09
3.382e-09
4.87571e-09
8.50956e-09
1.7133e-08
3.68176e-08
7.96048e-08
1.67988e-07
3.40779e-07
2.77076e-07
1.13099e-07
4.40567e-08
1.86118e-08
1.06887e-08
9.34371e-09
1.08001e-08
1.45254e-08
2.2042e-08
3.74794e-08
6.92172e-08
1.33212e-07
2.57526e-07
4.87149e-07
3.68762e-07
1.68243e-07
7.82908e-08
4.14205e-08
2.86656e-08
2.69686e-08
3.13535e-08
4.10347e-08
5.81901e-08
8.8766e-08
1.4404e-07
2.44896e-07
4.25932e-07
7.38798e-07
1.87284e-06
1.41599e-06
1.08385e-06
8.66776e-07
7.53332e-07
7.41119e-07
8.28736e-07
1.01624e-06
1.30459e-06
1.6906e-06
2.17011e-06
2.7462e-06
3.43412e-06
4.33911e-06
1.09674e-06
7.81899e-07
5.82006e-07
4.48294e-07
3.69409e-07
3.42796e-07
3.6805e-07
4.49963e-07
5.97376e-07
8.20021e-07
1.12465e-06
1.52136e-06
2.03007e-06
2.72828e-06
6.71454e-07
4.25217e-07
2.99261e-07
2.21734e-07
1.75103e-07
1.54891e-07
1.59917e-07
1.93564e-07
2.63812e-07
3.82601e-07
5.62948e-07
8.21017e-07
1.18316e-06
1.70754e-06
4.28801e-07
2.31495e-07
1.47932e-07
1.03855e-07
7.88057e-08
6.71234e-08
6.71821e-08
8.06345e-08
1.12748e-07
1.73286e-07
2.7613e-07
4.40059e-07
6.93752e-07
1.0861e-06
2.84548e-07
1.29069e-07
7.14545e-08
4.61245e-08
3.33725e-08
2.75302e-08
2.69972e-08
3.24484e-08
4.70082e-08
7.75576e-08
1.35884e-07
2.40095e-07