/*--------------------------------*- C++ -*----------------------------------*\
| =========                 |                                                 |
| \\      /  F ield         | OpenFOAM: The Open Source CFD Toolbox           |
|  \\    /   O peration     | Version:  v2106                                 |
|   \\  /    A nd           | Website:  www.openfoam.com                      |
|    \\/     M anipulation  |                                                 |
\*---------------------------------------------------------------------------*/
FoamFile
{
    version     2.0;
    format      ascii;
    arch        "LSB;label=32;scalar=64";
    class       volScalarField;
    location    "0.00021";
    object      p;
}
// * * * * * * * * * * * * * * * * * * * * * * * * * * * * * * * * * * * * * //

dimensions      [1 -1 -2 0 0 0 0];

internalField   nonuniform List<scalar> 
144746
(
195449
195274
194924
194711
194439
194219
193947
193683
193425
193267
193181
193207
193103
193563
195156
195266
195005
194855
194630
194424
194184
193937
193708
193527
193420
193389
193337
193609
195220
195322
195130
195027
194847
194664
194458
194246
194039
193851
193697
193583
193440
193489
195289
195377
195262
195199
195074
194928
194773
194601
194424
194238
194045
193864
193674
193557
195391
195463
195409
195372
195296
195193
195064
194921
194767
194599
194409
194186
193953
193765
195496
195579
195573
195571
195512
195441
195343
195225
195082
194920
194738
194526
194275
194026
195623
195707
195736
195742
195716
195669
195599
195504
195374
195215
195031
194826
194584
194315
195792
195874
195923
195926
195915
195889
195844
195765
195648
195489
195302
195101
194873
194608
195977
196061
196106
196109
196108
196099
196071
196006
195892
195732
195547
195351
195142
194903
196156
196248
196284
196292
196301
196307
196291
196233
196125
195969
195791
195596
195391
195158
196346
196428
196449
196455
196475
196493
196488
196435
196330
196184
196022
195846
195672
195447
196502
196530
196573
196582
196611
196643
196654
196610
196514
196381
196231
196082
195935
195712
196655
196613
196640
196666
196704
196751
196770
196734
196654
196538
196419
196278
196138
195882
196682
196529
196635
196704
196765
196818
196852
196829
196770
196684
196627
196598
196595
196497
194823
195130
195053
195064
195031
195005
194911
194787
194636
194518
194429
194385
194300
194684
194668
195019
195043
195084
195074
195063
195018
194937
194842
194760
194699
194685
194631
194870
194763
195081
195065
195136
195149
195134
195092
195039
194995
194939
194873
194825
194741
194823
194856
195111
195123
195187
195211
195198
195183
195156
195112
195066
195014
194959
194900
194896
194980
195167
195206
195266
195290
195295
195291
195274
195228
195190
195134
195111
195083
195063
195108
195246
195297
195367
195407
195429
195439
195433
195407
195347
195293
195267
195286
195272
195226
195335
195395
195465
195520
195560
195589
195596
195586
195550
195485
195468
195474
195500
195329
195446
195515
195600
195662
195719
195759
195780
195778
195756
195711
195699
195685
195725
195447
195570
195651
195739
195805
195871
195921
195955
195969
195965
195935
195944
195910
195973
195594
195712
195809
195901
195971
196041
196098
196141
196162
196171
196164
196189
196162
196195
195746
195843
195948
196038
196115
196195
196262
196316
196351
196371
196383
196417
196420
196437
195862
195979
196085
196181
196268
196351
196426
196485
196529
196559
196609
196636
196664
196653
195962
196040
196162
196270
196370
196468
196560
196632
196690
196741
196803
196847
196895
196816
195937
196000
196203
196345
196471
196579
196680
196768
196836
196915
197008
197108
197236
197171
193824
194372
194473
194565
194603
194646
194649
194608
194532
194464
194407
194405
194376
194828
194174
194640
194767
194861
194880
194896
194903
194894
194889
194891
194892
194967
195047
195426
194700
195042
195156
195225
195229
195235
195247
195253
195247
195225
195258
195270
195341
195652
195178
195422
195530
195589
195588
195583
195595
195607
195613
195606
195597
195628
195687
195923
195596
195785
195892
195948
195957
195963
195986
196008
196018
196011
195998
195991
196053
196241
195962
196127
196233
196291
196326
196354
196389
196419
196437
196440
196425
196418
196470
196620
196277
196432
196545
196621
196684
196743
196795
196837
196864
196879
196880
196884
196940
197047
196631
196783
196897
196987
197068
197147
197210
197265
197298
197323
197342
197366
197422
197479
196944
197113
197240
197349
197447
197543
197620
197689
197736
197779
197814
197862
197915
197918
197260
197454
197600
197729
197839
197946
198033
198113
198173
198232
198280
198340
198390
198352
197509
197750
197921
198078
198206
198328
198429
198526
198602
198679
198746
198811
198861
198806
197680
197962
198204
198399
198553
198695
198815
198933
199026
199118
199193
199264
199328
199291
197767
198065
198347
198582
198788
198973
199136
199291
199409
199518
199601
199668
199758
199788
197577
198049
198435
198782
199052
199291
199483
199655
199787
199906
199983
200063
200218
200144
194563
195357
195229
195599
195520
196972
193031
193721
193961
194835
195126
196299
193196
193640
193827
194645
194978
196220
193292
193497
193577
194335
194693
195799
193535
193604
193626
194320
194518
195873
193798
193769
193712
194335
194447
195977
194045
194008
193947
194571
194667
196251
194311
194276
194198
194835
194929
196511
194627
194609
194525
195157
195264
196770
194935
194937
194879
195455
195511
197092
195294
195372
195335
195900
195955
197316
195618
195651
195659
196250
196387
197112
195969
196125
196205
196622
196765
197724
195608
195855
195963
196636
196944
197460
195587
196237
196010
196093
195648
196941
194338
194758
194696
195318
195348
196403
194563
194899
194836
195486
195392
196662
194745
194927
194875
195445
195552
196498
194999
195132
195103
195625
195631
196760
195241
195336
195301
195775
195844
196595
195450
195554
195531
195947
196035
196900
195675
195802
195785
196143
196258
197170
195941
196092
196112
196526
196601
197245
196208
196367
196407
196819
196970
197280
196504
196699
196818
197113
197230
197475
196773
196887
196937
197149
197280
197606
197025
197116
197220
197447
197575
197953
196701
196820
196865
197124
197410
197661
195875
196108
196207
196206
195684
196404
195096
195393
195246
195625
195555
196870
195483
195753
195655
196264
196226
197272
195866
196100
196078
196574
196516
197350
196264
196503
196556
197019
197014
197811
196714
196926
196976
197361
197385
197871
197181
197345
197365
197660
197702
197999
197651
197759
197743
197878
197877
198082
198123
198171
198143
198131
198095
198178
198596
198613
198607
198521
198483
198349
199076
199125
199162
199051
198964
198692
199507
199639
199638
199505
199332
199010
200003
200049
200048
199915
199810
199482
200038
200055
199951
199850
199675
199449
197111
197675
197483
197839
197857
198375
196254
196813
196798
197381
197409
197888
196522
196926
196851
197440
197347
198302
196644
196874
196829
197359
197482
197808
196762
196925
196950
197355
197513
197971
196836
196967
197000
197297
197423
197842
196884
196988
197013
197282
197445
197880
196901
196983
197018
197227
197387
197781
196875
196940
196983
197160
197295
197749
196823
196857
196932
197075
197202
197645
196796
196777
196850
196964
197088
197542
196792
196736
196753
196870
196942
197431
196799
196766
196715
196874
196981
197624
196119
196041
196036
196368
196546
197247
197784
198165
198084
198276
198217
198428
197130
197539
197551
197916
197872
198036
197146
197495
197519
197899
197926
198208
197114
197392
197431
197697
197805
197934
197074
197311
197411
197592
197750
197822
197011
197214
197343
197440
197568
197608
196922
197107
197239
197299
197444
197457
196813
196958
197093
197109
197263
197206
196688
196770
196876
196885
197060
196994
196567
196557
196636
196639
196804
196761
196453
196334
196409
196382
196544
196524
196335
196122
196162
196097
196209
196238
196226
195966
195977
195946
196144
196351
195451
195135
195114
195232
195564
195737
200874
201115
201151
201031
200679
200207
200484
200773
200898
200790
200479
199910
200427
200691
200808
200672
200401
199643
200318
200623
200745
200589
200276
199379
200254
200548
200669
200475
200057
198984
200117
200400
200523
200245
199647
198350
199948
200191
200279
199819
199083
197438
199721
199879
199877
199162
198339
196284
199448
199504
199281
198337
197417
194958
199124
199052
198594
197500
196371
193621
198774
198528
197961
196612
195424
192503
198458
197942
197353
195790
194642
191628
198164
197314
196757
195203
194177
191573
197166
195985
195312
193970
193244
190858
198217
195904
195807
195096
194789
194678
197917
196654
196409
195884
195728
195659
197166
196143
196065
195597
195483
195501
197719
195840
195848
195454
195396
195435
197746
195684
195694
195382
195363
195426
197238
195998
195933
195547
195456
195500
197064
196101
196014
195645
195582
195599
197145
196276
196202
195856
195799
195737
197041
196326
196250
195951
195969
195882
197256
196491
196416
196107
196163
196051
197134
196385
196462
196189
196312
196199
197484
196680
196800
196432
196568
196322
197308
196621
196820
196476
196678
196369
198094
197366
197583
197408
197352
197033
196029
194896
194395
193713
193542
193860
196196
195246
194991
194710
194740
195058
195551
194805
194691
194537
194596
194937
195845
194773
194702
194585
194658
194952
195714
194799
194757
194693
194752
194987
195703
194952
194909
194856
194891
195073
195644
194956
194954
194946
195005
195137
195738
195188
195130
195090
195133
195236
195731
195276
195181
195149
195225
195324
195873
195448
195313
195236
195354
195424
195789
195420
195382
195312
195487
195539
196143
195720
195683
195489
195634
195609
195972
195741
195723
195556
195744
195658
196744
196519
196529
196479
196359
196210
189916
190949
190639
191004
191386
192593
189887
191445
191584
192622
193099
194368
189019
191212
191528
192866
193410
194635
189355
191623
192044
193398
193912
194990
189694
192177
192662
193905
194441
195341
190744
192955
193441
194530
195032
195713
191650
193664
194149
195073
195565
196059
192486
194290
194802
195608
196061
196412
192956
194586
195167
195936
196426
196709
193093
194665
195345
196156
196712
197002
192899
194528
195359
196268
196878
197227
192712
194494
195396
196383
196996
197364
192247
194227
195048
196285
197007
197393
191981
194248
195298
196568
197125
197561
196913
195458
195100
193920
193234
192757
196876
195665
195286
194381
193864
193509
197152
195596
195128
194041
193570
193324
197396
195603
195175
194028
193522
193220
197575
195576
195087
193882
193455
193222
197695
195655
195132
193950
193543
193262
197731
195688
195150
194034
193718
193502
197727
195895
195317
194299
194032
193801
197615
196016
195429
194541
194306
194110
197802
196130
195692
194828
194616
194372
197626
196126
195821
194998
194826
194594
198056
196460
196244
195421
195268
194838
197674
196341
196427
195635
195492
194896
198671
197178
197385
197034
197108
196288
196305
195207
194764
193812
193417
193436
196241
195220
195043
194514
194334
194528
196217
194861
194719
194182
194117
194364
196311
194753
194742
194156
194100
194306
196360
194622
194669
194101
194143
194332
196473
194700
194791
194256
194329
194470
196616
194940
195013
194516
194598
194663
196784
195352
195331
194845
194869
194837
196835
195519
195538
195081
195088
194989
196753
195761
195786
195251
195208
195035
196594
195760
195717
195163
195166
195026
196987
195743
195714
195129
195169
194951
196523
195296
195445
194934
194968
194771
197073
195959
196274
196076
196126
195624
195126
194343
193658
193228
193225
193506
194629
194001
193909
193811
193877
194474
193972
193448
193299
193366
193596
194210
193893
193322
193280
193269
193542
194081
193975
193111
193165
193170
193543
194064
194198
193159
193308
193346
193700
194144
194435
193488
193626
193626
193920
194263
194754
193929
193948
193906
194142
194390
194729
194144
194224
194145
194283
194451
194785
194230
194191
194069
194195
194380
194106
193602
193633
193704
193930
194213
193693
193294
193260
193401
193648
193976
192295
192705
192788
193168
193435
193703
192006
192592
193186
194067
194171
194439
194597
194901
194927
194904
194850
194801
194766
194700
194639
194589
194570
194582
194583
194925
195036
195298
195323
195323
195246
195186
195151
195109
195081
195052
195046
195146
195236
195610
195535
195750
195759
195747
195670
195598
195558
195526
195517
195510
195523
195588
195656
195973
196034
196174
196192
196159
196089
196023
195987
195965
195967
195979
195992
196037
196112
196390
196555
196606
196609
196567
196515
196465
196438
196427
196438
196460
196484
196523
196588
196835
197048
197034
197023
196983
196948
196919
196909
196915
196935
196966
197000
197050
197142
197372
197503
197469
197446
197421
197402
197394
197400
197422
197454
197496
197542
197613
197729
197953
198005
197957
197920
197900
197888
197893
197911
197943
197984
198035
198100
198199
198338
198564
198475
198426
198394
198384
198383
198401
198431
198475
198527
198591
198675
198805
198958
199194
199016
198961
198924
198916
198920
198944
198978
199026
199086
199164
199267
199422
199593
199829
199456
199441
199434
199443
199460
199492
199533
199590
199663
199756
199877
200053
200241
200466
200012
199977
199981
199998
200027
200068
200122
200189
200273
200381
200514
200707
200906
201114
200344
200399
200422
200474
200539
200612
200698
200794
200905
201036
201175
201379
201571
201796
200926
200994
201064
201139
201220
201296
201381
201472
201580
201720
201856
202089
202262
202599
195480
195582
195511
195350
195191
195034
194909
194779
194652
194534
194457
194496
194533
194784
195924
195991
195910
195806
195654
195504
195383
195276
195189
195121
195090
195145
195222
195509
196413
196446
196361
196253
196110
195971
195858
195771
195704
195659
195643
195688
195776
196052
196967
196900
196809
196696
196568
196451
196358
196293
196249
196229
196232
196285
196371
196624
197523
197391
197275
197157
197041
196943
196868
196824
196800
196800
196820
196873
196973
197188
198059
197899
197765
197647
197541
197461
197406
197383
197380
197400
197434
197497
197605
197804
198596
198432
198288
198170
198070
198005
197964
197959
197974
198010
198059
198135
198259
198459
199143
198980
198833
198719
198629
198575
198546
198552
198582
198631
198695
198787
198931
199141
199690
199534
199395
199290
199212
199169
199150
199165
199205
199264
199343
199454
199616
199836
200256
200111
199983
199890
199824
199789
199778
199797
199844
199913
200007
200138
200320
200544
200788
200673
200568
200493
200443
200419
200418
200445
200500
200581
200690
200836
201039
201253
201384
201285
201199
201137
201102
201089
201099
201130
201190
201278
201399
201557
201774
201982
201848
201816
201774
201745
201745
201756
201788
201836
201908
202008
202139
202306
202526
202741
202598
202590
202571
202548
202549
202549
202572
202611
202677
202778
202902
203083
203280
203548
196481
196370
196259
196033
195788
195529
195294
195094
194915
194774
194649
194579
194509
194569
196985
196837
196671
196470
196246
196018
195802
195626
195480
195383
195311
195278
195253
195351
197510
197298
197116
196916
196707
196504
196316
196169
196046
195966
195907
195887
195887
196044
198093
197818
197599
197389
197188
197008
196849
196730
196632
196575
196538
196541
196557
196703
198678
198375
198123
197904
197705
197539
197399
197304
197229
197193
197173
197186
197221
197342
199254
198960
198691
198463
198262
198102
197976
197898
197842
197825
197823
197849
197896
198012
199820
199551
199280
199053
198855
198700
198585
198517
198477
198473
198487
198522
198585
198705
200386
200146
199891
199674
199483
199333
199224
199161
199132
199136
199164
199207
199292
199425
200948
200736
200504
200305
200126
199985
199885
199827
199807
199817
199858
199911
200021
200170
201538
201357
201146
200965
200801
200668
200575
200517
200504
200519
200570
200638
200776
200932
202140
201989
201796
201632
201485
201362
201278
201227
201218
201235
201293
201371
201538
201682
202817
202688
202511
202356
202220
202099
202019
201968
201962
201982
202048
202134
202324
202452
203510
203387
203236
203082
202965
202853
202782
202736
202728
202750
202821
202908
203104
203215
204340
204223
204087
203913
203791
203671
203596
203546
203535
203559
203634
203733
203910
204008
197286
197075
196903
196619
196320
195991
195687
195424
195225
195060
194901
194751
194597
194465
197851
197567
197338
197062
196773
196478
196203
195973
195790
195660
195539
195438
195312
195245
198432
198091
197810
197519
197236
196966
196721
196523
196364
196245
196135
196052
195961
195975
199054
198661
198336
198023
197736
197480
197260
197085
196948
196846
196756
196693
196647
196652
199651
199255
198902
198574
198281
198032
197824
197666
197546
197463
197391
197343
197316
197334
200221
199850
199494
199166
198872
198625
198424
198277
198167
198097
198043
198010
198001
198021
200765
200436
200096
199783
199495
199253
199057
198916
198817
198755
198713
198695
198700
198732
201308
201023
200710
200420
200144
199911
199721
199584
199491
199434
199406
199398
199423
199467
201868
201622
201336
201071
200812
200593
200414
200281
200195
200138
200119
200119
200166
200215
202486
202272
201998
201750
201504
201296
201126
200999
200920
200867
200859
200869
200937
200990
203151
202963
202695
202458
202223
202026
201864
201740
201662
201608
201606
201619
201701
201743
203894
203729
203455
203213
202978
202779
202620
202497
202423
202372
202379
202394
202485
202503
204680
204522
204254
204004
203772
203568
203408
203278
203195
203136
203142
203152
203243
203233
205494
205359
205102
204824
204591
204380
204217
204082
203995
203927
203930
203941
204014
204013
197977
197639
197388
197061
196739
196388
196068
195791
195578
195401
195232
195060
194851
194612
198608
198191
197878
197533
197197
196860
196565
196317
196128
195976
195840
195701
195514
195355
199198
198743
198380
198010
197673
197355
197077
196853
196685
196544
196417
196284
196115
196007
199797
199332
198939
198550
198201
197887
197619
197408
197250
197120
197003
196888
196753
196650
200339
199906
199508
199122
198771
198460
198199
197990
197839
197717
197608
197501
197385
197298
200855
200468
200087
199721
199378
199075
198818
198613
198458
198342
198239
198139
198042
197970
201352
201021
200670
200336
200012
199724
199474
199274
199116
198999
198899
198806
198724
198671
201879
201594
201271
200970
200669
200399
200160
199963
199806
199687
199590
199505
199441
199403
202459
202210
201906
201630
201350
201099
200872
200681
200525
200401
200305
200227
200181
200148
203115
202889
202582
202317
202048
201811
201596
201412
201261
201137
201043
200975
200948
200915
203823
203615
203302
203039
202772
202543
202333
202153
202001
201872
201780
201712
201705
201660
204579
204379
204051
203777
203506
203277
203069
202891
202743
202614
202528
202461
202470
202401
205371
205163
204831
204542
204265
204028
203815
203631
203475
203337
203252
203177
203184
203087
206139
205919
205594
205284
205009
204768
204557
204370
204215
204076
203990
203921
203911
203839
198631
198218
197885
197513
197162
196797
196470
196168
195928
195717
195525
195313
195088
194806
199303
198805
198414
198013
197644
197277
196959
196680
196460
196270
196102
195913
195701
195475
199825
199333
198921
198508
198139
197789
197479
197215
197008
196827
196664
196481
196261
196059
200328
199864
199451
199046
198677
198332
198029
197773
197572
197396
197232
197060
196851
196657
200774
200351
199969
199594
199239
198907
198614
198362
198162
197987
197822
197649
197451
197266
201222
200852
200496
200153
199822
199511
199230
198984
198781
198605
198439
198265
198082
197910
201700
201373
201045
200737
200432
200145
199879
199638
199432
199252
199083
198912
198739
198585
202250
201951
201636
201353
201070
200805
200553
200319
200110
199925
199755
199590
199432
199301
202871
202593
202279
202010
201739
201489
201248
201018
200808
200616
200443
200286
200143
200031
203552
203287
202959
202692
202423
202182
201947
201723
201514
201320
201148
201000
200877
200771
204272
204015
203672
203398
203123
202883
202650
202428
202216
202019
201849
201706
201602
201486
205006
204742
204383
204095
203814
203574
203340
203123
202915
202722
202558
202421
202331
202194
205752
205470
205102
204796
204507
204261
204025
203808
203597
203402
203239
203098
203010
202851
206434
206124
205768
205453
205171
204929
204700
204490
204287
204099
203936
203802
203705
203588
199187
198747
198364
197959
197596
197222
196888
196560
196270
195995
195747
195465
195218
194954
199768
199289
198881
198464
198091
197721
197386
197076
196804
196549
196319
196065
195819
195566
200199
199741
199350
198952
198593
198243
197922
197622
197362
197116
196889
196645
196375
196133
200625
200194
199824
199456
199117
198787
198480
198193
197939
197699
197468
197234
196963
196717
201034
200640
200297
199963
199653
199350
199061
198788
198540
198302
198068
197830
197562
197311
201479
201116
200799
200501
200212
199934
199666
199406
199162
198924
198687
198441
198191
197938
201982
201647
201344
201067
200798
200542
200290
200040
199799
199559
199321
199075
198829
198588
202568
202253
201946
201678
201418
201174
200931
200687
200447
200206
199968
199724
199486
199260
203218
202913
202594
202326
202065
201823
201582
201339
201097
200853
200615
200376
200150
199943
203901
203605
203267
202993
202722
202477
202233
201989
201746
201503
201267
201038
200823
200624
204595
204304
203948
203663
203379
203129
202879
202633
202387
202143
201909
201687
201485
201281
205269
204973
204603
204308
204015
203761
203509
203265
203023
202786
202558
202345
202154
201951
205934
205622
205245
204939
204641
204385
204135
203893
203649
203409
203181
202967
202780
202584
206519
206178
205822
205519
205236
204992
204755
204526
204290
204058
203833
203632
203451
203297
199550
199148
198779
198387
198036
197685
197365
197034
196706
196361
196030
195648
195335
195044
200029
199616
199240
198858
198518
198179
197867
197555
197241
196913
196595
196249
195914
195627
200408
199996
199654
199306
198998
198691
198398
198098
197795
197480
197161
196836
196490
196193
200824
200419
200097
199779
199496
199216
198941
198656
198362
198056
197737
197424
197082
196786
201249
200864
200556
200265
200005
199749
199491
199221
198939
198641
198327
198016
197680
197378
201724
201360
201064
200795
200547
200304
200058
199799
199525
199233
198926
198615
198296
197992
202263
201918
201622
201358
201112
200876
200636
200383
200114
199827
199529
199222
198916
198621
202871
202543
202235
201965
201710
201468
201225
200972
200707
200425
200136
199835
199543
199265
203521
203205
202880
202598
202327
202074
201822
201563
201297
201018
200734
200442
200168
199900
204177
203870
203526
203234
202946
202682
202419
202155
201888
201612
201335
201053
200796
200535
204819
204521
204162
203860
203557
203285
203015
202746
202475
202200
201927
201653
201407
201151
205422
205126
204757
204450
204143
203869
203598
203334
203066
202793
202523
202254
202019
201772
206011
205709
205338
205033
204729
204457
204189
203921
203646
203368
203094
202825
202591
202358
206547
206214
205861
205568
205285
205030
204771
204511
204239
203965
203695
203444
203210
203028
199835
199447
199090
198711
198373
198048
197757
197452
197138
196783
196413
195971
195570
195206
200282
199877
199518
199158
198846
198543
198264
197978
197668
197324
196957
196553
196128
195781
200649
200241
199917
199593
199317
199046
198786
198506
198200
197864
197496
197118
196700
196342
201092
200688
200376
200073
199817
199563
199310
199034
198730
198397
198034
197672
197271
196924
201549
201159
200853
200569
200323
200080
199830
199556
199255
198927
198573
198219
197835
197495
202057
201691
201390
201113
200863
200615
200358
200081
199780
199457
199115
198768
198408
198079
202625
202280
201972
201686
201419
201158
200892
200610
200311
199993
199665
199327
198990
198672
203240
202911
202587
202284
201993
201715
201435
201148
200852
200542
200228
199902
199585
199280
203877
203557
203213
202892
202578
202283
201991
201698
201404
201100
200797
200481
200183
199894
204493
204176
203814
203484
203156
202852
202552
202257
201966
201668
201375
201070
200793
200515
205070
204766
204395
204063
203731
203423
203120
202823
202531
202236
201945
201646
201383
201105
205600
205302
204927
204602
204273
203971
203674
203385
203095
202799
202505
202207
201960
201684
206123
205827
205452
205137
204814
204520
204228
203936
203639
203335
203034
202734
202491
202217
206621
206290
205924
205622
205323
205046
204761
204474
204178
203878
203575
203291
203049
202818
195060
195135
195014
194573
194929
195297
194280
194007
193761
193558
194166
194682
194385
193961
193624
193485
194038
194548
194393
193957
193589
193400
193826
194212
194420
194031
193718
193564
193888
193989
194420
194065
193794
193601
193703
193188
194417
194039
193719
193384
193214
192532
194326
193842
193410
192942
192631
192021
194216
193627
193125
192578
192277
191905
194111
193467
192944
192391
192299
191883
194091
193477
193045
192573
192752
192045
194229
193544
193199
192687
193191
192389
194554
193856
193833
193435
193978
192952
194034
193486
193291
193253
194253
193909
195768
196003
195926
195803
195559
195730
195163
195107
194949
194961
194917
195339
195074
194830
194559
194540
194545
194996
194888
194514
194135
194000
193984
194479
194740
194312
193919
193753
193777
194372
194583
194140
193785
193576
193550
194108
194473
194023
193685
193396
193228
193589
194338
193810
193401
192930
192534
192671
194189
193563
193065
192445
191898
191897
194057
193339
192778
192083
191520
191428
193998
193291
192760
192111
191563
191323
194035
193326
192792
192189
191789
191450
194307
193681
193359
192872
192468
191946
193934
193352
192856
192576
192693
192734
196555
196659
196692
196594
196382
196380
196069
195950
195749
195675
195671
195755
195927
195723
195491
195344
195200
195204
195622
195307
194922
194664
194488
194542
195336
194940
194497
194199
194041
194225
195044
194579
194143
193851
193773
194136
194804
194310
193898
193608
193575
193901
194596
194036
193617
193229
192994
193034
194414
193790
193308
192756
192312
192191
194273
193544
192991
192320
191828
191656
194163
193405
192872
192206
191653
191334
194079
193303
192750
192078
191589
191307
194183
193491
193079
192531
192009
191621
193777
193148
192648
192240
192152
192146
197166
197117
197129
196999
196740
196632
196791
196568
196340
196217
196140
196094
196606
196408
196166
195942
195660
195519
196269
196018
195652
195332
194938
194698
195898
195562
195103
194691
194212
193950
195482
195051
194511
194098
193665
193542
195124
194620
194066
193677
193352
193412
194847
194267
193754
193340
192962
192945
194647
194037
193494
192964
192482
192345
194507
193810
193217
192571
192080
191881
194389
193644
193050
192394
191837
191476
194253
193461
192838
192152
191594
191257
194195
193480
192983
192364
191726
191318
193689
192983
192439
191896
191634
191569
197801
197692
197583
197480
197124
196952
197338
197193
196911
196777
196551
196473
197074
196905
196649
196467
196161
195998
196731
196517
196209
195975
195595
195281
196353
196054
195652
195292
194797
194359
195915
195512
195008
194540
193989
193534
195519
195033
194465
193984
193436
193095
195192
194636
194037
193564
192993
192640
194972
194353
193729
193208
192610
192255
194803
194130
193500
192845
192259
191943
194697
193983
193350
192665
192060
191616
194558
193776
193137
192409
191817
191399
194451
193704
193174
192515
191842
191353
193887
193106
192525
191880
191527
191361
198396
198289
198132
198027
197784
197623
197851
197685
197383
197238
196990
196869
197522
197327
197037
196849
196527
196332
197150
196922
196627
196418
196081
195849
196775
196499
196164
195902
195517
195201
196351
195986
195576
195199
194732
194311
195953
195496
194995
194538
194034
193576
195599
195053
194473
193958
193367
192863
195335
194760
194109
193518
192881
192396
195111
194433
193771
193145
192517
192087
194956
194283
193645
192994
192364
191814
194817
194095
193474
192772
192181
191679
194689
193999
193503
192900
192269
191690
194168
193456
192914
192309
191918
191624
199000
198907
198795
198737
198573
198464
198397
198253
197964
197816
197581
197429
197994
197793
197487
197286
196970
196717
197560
197305
196988
196783
196428
196156
197174
196873
196541
196307
195933
195642
196762
196398
196022
195702
195282
194925
196377
195932
195482
195082
194629
194197
196001
195476
194938
194455
193891
193387
195690
195121
194511
193922
193286
192786
195395
194722
194070
193451
192843
192407
195165
194504
193891
193272
192656
192094
194974
194278
193688
193029
192441
191937
194828
194162
193687
193138
192569
191985
194346
193693
193196
192653
192249
191924
199477
199425
199378
199406
199354
199306
198902
198843
198660
198579
198423
198334
198476
198339
198088
197912
197634
197397
198010
197780
197474
197264
196951
196660
197606
197297
196947
196704
196347
196057
197205
196822
196426
196120
195756
195454
196845
196378
195926
195548
195163
194822
196469
195934
195403
194942
194449
193993
196125
195542
194936
194377
193796
193326
195759
195081
194421
193823
193264
192871
195445
194762
194152
193552
192987
192484
195154
194439
193861
193222
192669
192215
194931
194254
193790
193272
192769
192244
194440
193811
193371
192889
192517
192202
199816
199805
199791
199827
199777
199713
199274
199275
199185
199161
199070
198987
198840
198784
198619
198493
198274
198038
198368
198191
197937
197735
197434
197104
197953
197658
197315
197049
196703
196324
197559
197160
196739
196420
196035
195644
197223
196728
196248
195854
195435
195077
196878
196317
195770
195297
194777
194297
196550
195947
195325
194745
194117
193615
196179
195492
194801
194161
193525
193090
195829
195113
194460
193802
193173
192658
195456
194698
194059
193371
192763
192299
195152
194434
193899
193338
192806
192297
194600
193915
193444
192945
192560
192254
195856
196072
196404
196049
196267
195397
195572
195799
196002
196070
196708
196542
196055
196231
196488
196800
197662
198088
196583
196793
197188
197667
198645
199329
197134
197420
197968
198552
199678
200554
197685
198082
198734
199421
200585
201604
198315
198793
199519
200293