/*--------------------------------*- C++ -*----------------------------------*\
| =========                 |                                                 |
| \\      /  F ield         | OpenFOAM: The Open Source CFD Toolbox           |
|  \\    /   O peration     | Version:  v2106                                 |
|   \\  /    A nd           | Website:  www.openfoam.com                      |
|    \\/     M anipulation  |                                                 |
\*---------------------------------------------------------------------------*/
FoamFile
{
    version     2.0;
    format      ascii;
    arch        "LSB;label=32;scalar=64";
    class       volScalarField;
    location    "0.000217";
    object      T;
}
// * * * * * * * * * * * * * * * * * * * * * * * * * * * * * * * * * * * * * //

dimensions      [0 0 0 1 0 0 0];

internalField   nonuniform List<scalar> 
144746
(
288.254
288.252
288.276
288.427
288.577
288.71
288.793
288.833
288.837
288.823
288.748
288.653
288.518
288.547
288.32
288.482
288.568
288.744
288.885
289.008
289.099
289.148
289.163
289.142
289.071
288.948
288.751
288.649
288.505
288.704
288.835
289.006
289.127
289.238
289.321
289.367
289.386
289.375
289.324
289.202
288.984
288.775
288.686
288.884
289.024
289.178
289.29
289.379
289.442
289.485
289.513
289.523
289.507
289.428
289.247
288.999
288.818
289.017
289.153
289.275
289.361
289.42
289.464
289.506
289.548
289.581
289.597
289.574
289.463
289.237
288.895
289.099
289.242
289.336
289.385
289.418
289.447
289.485
289.534
289.584
289.62
289.628
289.575
289.405
288.925
289.141
289.29
289.367
289.391
289.4
289.41
289.436
289.483
289.546
289.599
289.623
289.6
289.474
288.939
289.17
289.32
289.384
289.393
289.388
289.382
289.393
289.428
289.487
289.546
289.578
289.569
289.464
288.94
289.185
289.332
289.388
289.387
289.375
289.363
289.367
289.389
289.431
289.478
289.506
289.506
289.42
288.921
289.179
289.325
289.377
289.371
289.358
289.348
289.354
289.374
289.402
289.423
289.431
289.407
289.314
288.87
289.145
289.294
289.348
289.347
289.339
289.337
289.348
289.364
289.379
289.383
289.365
289.303
289.169
288.794
289.059
289.216
289.285
289.304
289.31
289.321
289.339
289.352
289.353
289.331
289.278
289.181
289.008
288.741
288.962
289.105
289.194
289.237
289.26
289.284
289.304
289.312
289.29
289.231
289.131
289.008
288.832
288.677
288.797
288.94
289.051
289.125
289.164
289.19
289.214
289.206
289.163
289.061
288.933
288.806
288.723
288.663
288.875
288.937
289.054
289.174
289.283
289.357
289.409
289.447
289.476
289.464
289.455
289.411
289.551
288.651
288.975
289.16
289.336
289.464
289.556
289.621
289.674
289.727
289.772
289.788
289.782
289.688
289.72
288.811
289.155
289.366
289.541
289.665
289.741
289.807
289.859
289.913
289.962
289.986
289.987
289.9
289.835
288.966
289.285
289.492
289.666
289.792
289.861
289.922
289.972
290.026
290.075
290.11
290.129
290.085
290.017
289.064
289.35
289.562
289.738
289.853
289.924
289.984
290.036
290.086
290.137
290.185
290.212
290.202
290.167
289.12
289.398
289.616
289.784
289.887
289.959
290.013
290.065
290.12
290.175
290.226
290.259
290.261
290.246
289.136
289.427
289.635
289.783
289.877
289.948
290.006
290.068
290.132
290.198
290.256
290.287
290.293
290.272
289.159
289.454
289.662
289.792
289.874
289.937
289.996
290.063
290.136
290.21
290.271
290.304
290.303
290.273
289.178
289.472
289.676
289.789
289.859
289.912
289.969
290.04
290.122
290.208
290.276
290.313
290.311
290.271
289.172
289.469
289.668
289.772
289.835
289.887
289.945
290.018
290.102
290.192
290.265
290.307
290.304
290.255
289.145
289.44
289.638
289.738
289.802
289.86
289.926
290.003
290.087
290.172
290.232
290.273
290.264
290.211
289.089
289.368
289.56
289.673
289.753
289.828
289.909
289.995
290.075
290.139
290.173
290.208
290.177
290.103
289.039
289.258
289.456
289.584
289.683
289.776
289.873
289.964
290.036
290.075
290.084
290.079
290.036
289.928
288.886
289.059
289.292
289.455
289.576
289.684
289.79
289.879
289.939
289.953
289.939
289.899
289.844
289.78
288.908
289.333
289.488
289.657
289.797
289.943
290.069
290.194
290.299
290.383
290.439
290.47
290.449
290.587
289.063
289.524
289.729
289.919
290.065
290.197
290.312
290.428
290.536
290.647
290.741
290.793
290.769
290.84
289.338
289.697
289.94
290.138
290.285
290.407
290.512
290.619
290.725
290.829
290.925
290.98
290.972
290.997
289.521
289.826
290.074
290.278
290.424
290.544
290.645
290.745
290.845
290.95
291.048
291.114
291.141
291.161
289.644
289.924
290.174
290.373
290.519
290.637
290.739
290.838
290.938
291.038
291.138
291.217
291.273
291.297
289.752
290.018
290.266
290.455
290.596
290.71
290.811
290.909
291.009
291.111
291.214
291.304
291.376
291.409
289.837
290.11
290.345
290.52
290.652
290.762
290.865
290.968
291.072
291.179
291.286
291.379
291.455
291.499
289.946
290.22
290.437
290.594
290.71
290.81
290.909
291.015
291.128
291.244
291.356
291.454
291.526
291.57
290.059
290.329
290.528
290.666
290.765
290.852
290.946
291.054
291.175
291.304
291.426
291.531
291.596
291.64
290.145
290.404
290.591
290.72
290.816
290.904
290.999
291.108
291.23
291.363
291.489
291.597
291.656
291.702
290.193
290.435
290.612
290.74
290.844
290.947
291.054
291.171
291.297
291.428
291.545
291.644
291.687
291.732
290.23
290.44
290.608
290.739
290.854
290.976
291.103
291.235
291.363
291.483
291.58
291.656
291.681
291.695
290.261
290.429
290.577
290.706
290.835
290.977
291.128
291.274
291.404
291.51
291.59
291.65
291.655
291.657
290.135
290.368
290.522
290.679
290.834
290.987
291.147
291.297
291.423
291.514
291.574
291.597
291.581
291.536
288.568
288.449
287.906
287.538
287.154
287.503
288.147
287.985
287.516
287.35
287.067
287.368
288.365
288.111
287.666
287.552
287.272
287.471
288.608
288.255
287.792
287.671
287.401
287.556
288.867
288.451
287.961
287.795
287.498
287.659
289.065
288.629
288.089
287.865
287.537
287.748
289.167
288.743
288.164
287.893
287.554
287.765
289.188
288.776
288.177
287.825
287.465
287.709
289.165
288.766
288.16
287.739
287.34
287.512
289.059
288.657
288.043
287.554
287.167
287.266
288.899
288.492
287.898
287.373
287.026
287.077
288.727
288.302
287.712
287.189
286.894
286.891
288.557
288.145
287.59
287.123
286.847
286.827
288.262
287.868
287.332
286.885
286.669
286.713
289.695
289.522
289.022
288.707
288.377
288.494
289.339
289.181
288.699
288.532
288.338
288.369
289.534
289.33
288.892
288.724
288.532
288.553
289.77
289.526
289.113
288.864
288.666
288.659
289.98
289.731
289.345
289.036
288.802
288.75
290.099
289.845
289.459
289.105
288.824
288.748
290.142
289.888
289.49
289.091
288.777
288.73
290.145
289.895
289.484
289.036
288.693
288.657
290.137
289.87
289.448
288.956
288.593
288.542
290.111
289.821
289.384
288.85
288.493
288.412
290.052
289.735
289.296
288.735
288.41
288.304
289.948
289.598
289.156
288.596
288.305
288.179
289.777
289.408
288.963
288.491
288.272
288.15
289.449
289.079
288.671
288.287
288.116
288.026
290.792
290.64
290.267
289.97
289.709
289.675
290.571
290.441
290.045
289.888
289.741
289.793
290.771
290.595
290.261
290.13
290.013
290.025
291.012
290.839
290.552
290.372
290.211
290.118
291.225
291.084
290.844
290.6
290.348
290.126
291.381
291.286
291.095
290.801
290.416
290.042
291.474
291.427
291.273
290.94
290.456
289.934
291.535
291.524
291.377
291.001
290.455
289.82
291.606
291.574
291.408
291.036
290.444
289.738
291.663
291.594
291.407
291.051
290.425
289.689
291.68
291.606
291.42
291.051
290.401
289.633
291.648
291.569
291.403
290.977
290.29
289.479
291.611
291.494
291.356
290.865
290.172
289.318
291.405
291.234
291.066
290.531
289.819
288.984
288.563
288.291
287.686
287.244
286.928
287.013
288.388
288.066
287.448
287.057
286.763
286.746
288.539
288.149
287.52
287.11
286.823
286.878
288.714
288.285
287.656
287.182
286.89
286.89
288.878
288.454
287.88
287.421
287.194
287.259
288.965
288.577
288.098
287.724
287.563
287.671
288.995
288.657
288.293
288.04
287.978
288.135
288.993
288.7
288.431
288.247
288.213
288.357
288.984
288.716
288.489
288.328
288.305
288.417
288.968
288.707
288.484
288.281
288.226
288.308
288.926
288.654
288.38
288.11
287.971
288.038
288.836
288.525
288.163
287.831
287.592
287.616
288.663
288.304
287.86
287.515
287.262
287.386
288.233
287.818
287.362
287.087
286.919
287.052
289.668
289.383
288.915
288.524
288.318
288.288
289.556
289.258
288.786
288.42
288.216
288.065
289.631
289.303
288.851
288.486
288.337
288.265
289.703
289.379
288.945
288.599
288.491
288.418
289.746
289.441
289.051
288.782
288.763
288.76
289.748
289.472
289.156
288.977
289.029
289.02
289.704
289.464
289.23
289.121
289.241
289.238
289.632
289.413
289.248
289.174
289.307
289.269
289.539
289.31
289.184
289.128
289.272
289.173
289.437
289.171
289.045
288.942
289.004
288.871
289.325
289.022
288.868
288.664
288.557
288.399
289.189
288.847
288.627
288.313
288.05
287.831
289.026
288.654
288.327
287.964
287.698
287.554
288.57
288.171
287.794
287.477
287.252
287.118
291.519
291.429
291.329
290.743
289.973
289.027
291.52
291.426
291.314
290.75
290.04
289.046
291.525
291.416
291.343
290.882
290.247
289.157
291.53
291.441
291.375
291.013
290.461
289.289
291.48
291.413
291.352
291.063
290.572
289.316
291.397
291.347
291.297
291.023
290.557
289.204
291.273
291.231
291.186
290.893
290.37
288.898
291.12
291.086
291.025
290.665
290.035
288.399
290.952
290.918
290.818
290.315
289.522
287.734
290.791
290.717
290.577
289.842
288.865
286.966
290.663
290.479
290.269
289.281
288.16
286.27
290.546
290.178
289.83
288.654
287.48
285.646
290.434
289.831
289.301
288.047
286.92
285.381
289.857
289.072
288.406
287.243
286.332
284.989
287.596
287.125
287.288
287.252
287.465
287.769
287.563
287.374
287.617
287.77
288.047
288.301
287.386
287.229
287.5
287.72
288.094
288.4
287.865
287.304
287.629
287.863
288.242
288.54
288.319
287.488
287.794
287.996
288.308
288.615
288.175
287.854
288.042
288.139
288.36
288.656
288.23
287.906
288.069
288.131
288.348
288.659
288.175
287.81
287.963
288.052
288.306
288.643
287.904
287.564
287.686
287.822
288.169
288.582
287.55
287.279
287.383
287.563
288.007
288.495
287.175
286.965
287.094
287.342
287.865
288.391
287.162
286.921
287.104
287.343
287.867
288.312
287.062
286.908
287.125
287.365
287.907
288.27
287.35
287.223
287.472
287.788
288.195
288.5
287.227
286.796
287.08
287.309
287.66
288.085
287.04
286.875
287.305
287.793
288.265
288.655
286.883
286.746
287.207
287.746
288.275
288.712
287.154
286.891
287.42
287.955
288.427
288.815
287.394
287.2
287.711
288.137
288.5
288.85
287.693
287.542
287.955
288.285
288.563
288.861
287.881
287.689
288.019
288.293
288.542
288.83
287.899
287.728
287.981
288.228
288.487
288.803
287.793
287.625
287.821
288.059
288.374
288.774
287.617
287.478
287.639
287.9
288.28
288.74
287.385
287.29
287.475
287.799
288.23
288.703
287.319
287.317
287.516
287.823
288.238
288.665
287.26
287.299
287.544
287.889
288.329
288.661
287.471
287.645
287.951
288.343
288.628
288.852
285.419
285.761
286.155
286.75
287.413
288.196
285.033
285.787
286.438
287.327
288.094
288.942
284.539
285.543
286.373
287.479
288.289
289.123
284.528
285.706
286.663
287.816
288.528
289.245
284.591
286.075
287.081
288.149
288.743
289.326
285.017
286.548
287.514
288.445
288.946
289.399
285.43
286.913
287.786
288.609
289.068
289.485
285.742
287.132
287.915
288.699
289.172
289.595
285.93
287.226
287.953
288.744
289.259
289.707
286.044
287.227
287.982
288.808
289.351
289.803
285.967
287.107
287.934
288.832
289.407
289.871
285.839
287.007
287.909
288.887
289.472
289.929
285.596
286.811
287.72
288.862
289.541
289.978
285.362
286.756
287.82
289.018
289.704
290.095
287.298
287
287.245
287.368
287.737
287.979
287.166
286.93
287.295
287.614
288.037
288.331
287.1
286.824
287.207
287.513
287.989
288.353
287.205
286.856
287.263
287.565
288.048
288.418
287.388
286.953
287.35
287.569
288.072
288.458
287.686
287.191
287.543
287.656
288.109
288.466
287.961
287.438
287.71
287.728
288.105
288.449
288.077
287.605
287.816
287.785
288.091
288.416
288.036
287.601
287.782
287.759
288.052
288.36
287.919
287.529
287.716
287.723
287.987
288.256
287.656
287.461
287.634
287.619
287.853
288.095
287.756
287.412
287.562
287.511
287.777
287.952
287.668
287.208
287.405
287.368
287.659
287.792
287.914
287.523
287.735
287.913
288.232
288.319
287.991
287.887
288.018
288.212
288.613
288.898
287.738
287.595
287.908
288.33
288.838
289.225
287.498
287.265
287.659
288.094
288.681
289.159
287.594
287.182
287.649
288.082
288.66
289.128
287.675
287.238
287.701
288.057
288.636
289.106
287.929
287.424
287.848
288.107
288.636
289.078
288.179
287.638
287.997
288.177
288.641
289.053
288.281
287.825
288.11
288.251
288.649
289.015
288.213
287.885
288.131
288.276
288.622
288.957
288.112
287.841
288.089
288.221
288.537
288.847
287.848
287.746
287.943
288.042
288.364
288.691
287.905
287.546
287.747
287.828
288.238
288.542
287.612
287.233
287.536
287.649
288.106
288.406
287.675
287.42
287.77
288.129
288.586
288.797
288.943
288.881
288.96
289.257
289.688
290.052
288.5
288.432
288.815
289.336
289.844
290.279
288.044
287.954
288.455
289.082
289.688
290.155
287.943
287.8
288.407
289.032
289.625
290.069
288.033
287.841
288.399
288.973
289.554
290.003
288.241
287.982
288.503
288.97
289.478
289.923
288.376
288.066
288.536
288.948
289.407
289.831
288.348
288.15
288.54
288.907
289.32
289.724
288.177
288.148
288.492
288.818
289.195
289.592
288.029
288.014
288.318
288.608
288.996
289.414
287.686
287.582
287.872
288.242
288.724
289.212
287.306
287.152
287.458
287.883
288.471
288.998
286.585
286.714
287.138
287.674
288.313
288.805
286.287
286.566
287.215
288.021
288.572
289.037
289.485
289.82
289.987
290.147
290.287
290.433
290.576
290.711
290.835
290.953
291.057
291.162
291.235
291.357
289.633
289.978
290.162
290.344
290.494
290.639
290.775
290.908
291.04
291.174
291.303
291.434
291.526
291.639
289.825
290.109
290.301
290.487
290.637
290.776
290.906
291.033
291.163
291.295
291.432
291.571
291.692
291.798
289.959
290.201
290.388
290.574
290.724
290.861
290.991
291.119
291.254
291.395
291.543
291.69
291.822
291.941
290.091
290.3
290.476
290.646
290.791
290.924
291.053
291.183
291.32
291.464
291.616
291.768
291.917
292.055
290.227
290.41
290.572
290.725
290.857
290.982
291.107
291.238
291.378
291.528
291.686
291.847
292.006
292.156
290.375
290.539
290.687
290.821
290.936
291.048
291.166
291.295
291.436
291.588
291.749
291.917
292.08
292.237
290.546
290.693
290.82
290.93
291.026
291.122
291.231
291.355
291.496
291.652
291.817
291.991
292.155
292.318
290.708
290.838
290.948
291.038
291.119
291.204
291.306
291.428
291.568
291.726
291.893
292.073
292.235
292.404
290.876
290.979
291.07
291.144
291.216
291.297
291.398
291.519
291.659
291.819
291.986
292.17
292.331
292.504
291.008
291.093
291.167
291.235
291.311
291.4
291.51
291.637
291.779
291.939
292.104
292.287
292.443
292.617
291.171
291.225
291.276
291.336
291.417
291.521
291.648
291.787
291.934
292.095
292.254
292.432
292.574
292.747
291.284
291.345
291.371
291.424
291.519
291.648
291.798
291.955
292.113
292.275
292.426
292.597
292.723
292.911
291.423
291.515
291.56
291.627
291.724
291.854
292.006
292.167
292.327
292.492
292.635
292.807
292.895
293.121
289.878
290.135
290.317
290.488
290.639
290.777
290.908
291.025
291.128
291.222
291.3
291.378
291.427
291.511
289.985
290.231
290.423
290.627
290.793
290.941
291.074
291.197
291.313
291.428
291.536
291.65
291.743
291.827
290.13
290.36
290.55
290.748
290.915
291.062
291.196
291.317
291.433
291.548
291.663
291.791
291.915
292.023
290.294
290.486
290.663
290.848
291.008
291.151
291.283
291.408
291.532
291.659
291.792
291.931
292.065
292.193
290.46
290.627
290.788
290.951
291.098
291.233
291.363
291.49
291.619
291.752
291.89
292.033
292.179
292.321
290.632
290.787
290.927
291.07
291.198
291.322
291.445
291.572
291.704
291.842
291.987
292.138
292.292
292.439
290.814
290.959
291.08
291.199
291.308
291.417
291.533
291.657
291.79
291.931
292.079
292.234
292.392
292.542
291.005
291.133
291.233
291.329
291.421
291.518
291.627
291.748
291.881
292.023
292.173
292.332
292.494
292.65
291.188
291.296
291.378
291.456
291.535
291.624
291.728
291.849
291.98
292.123
292.274
292.436
292.6
292.761
291.351
291.436
291.506
291.572
291.647
291.735
291.842
291.963
292.095
292.239
292.39
292.556
292.72
292.884
291.475
291.548
291.616
291.681
291.763
291.86
291.975
292.101
292.235
292.38
292.532
292.697
292.857
293.023
291.584
291.653
291.724
291.795
291.892
292.006
292.135
292.271
292.41
292.557
292.708
292.872
293.022
293.183
291.641
291.734
291.817
291.912
292.035
292.175
292.323
292.473
292.619
292.769
292.914
293.074
293.209
293.373
291.805
291.905
292.008
292.122
292.257
292.405
292.557
292.709
292.858
293.012
293.153
293.308
293.409
293.595
290.247
290.418
290.568
290.73
290.878
291.01
291.124
291.223
291.305
291.37
291.415
291.447
291.459
291.507
290.357
290.509
290.672
290.847
291.005
291.146
291.268
291.378
291.475
291.569
291.655
291.729
291.774
291.823
290.527
290.664
290.812
290.976
291.127
291.265
291.389
291.502
291.604
291.702
291.795
291.889
291.973
292.052
290.727
290.839
290.969
291.112
291.248
291.377
291.497
291.611
291.719
291.828
291.939
292.055
292.162
292.258
290.935
291.039
291.146
291.265
291.379
291.494
291.607
291.72
291.831
291.946
292.063
292.186
292.312
292.438
291.151
291.248
291.332
291.426
291.519
291.618
291.724
291.834
291.948
292.067
292.192
292.324
292.463
292.603
291.364
291.452
291.515
291.587
291.663
291.749
291.848
291.956
292.071
292.192
292.321
292.457
292.603
292.752
291.568
291.642
291.689
291.745
291.808
291.885
291.977
292.083
292.198
292.321
292.453
292.593
292.748
292.898
291.755
291.811
291.847
291.893
291.95
292.023
292.113
292.218
292.333
292.458
292.593
292.735
292.894
293.045
291.918
291.958
291.992
292.037
292.096
292.171
292.263
292.369
292.485
292.611
292.747
292.89
293.051
293.202
292.058
292.09
292.128
292.177
292.246
292.33
292.429
292.541
292.661
292.79
292.926
293.069
293.228
293.375
292.187
292.22
292.269
292.333
292.419
292.518
292.628
292.747
292.87
293
293.137
293.277
293.433
293.575
292.313
292.356
292.42
292.504
292.611
292.729
292.854
292.985
293.116
293.252
293.387
293.526
293.669
293.808
292.509
292.564
292.642
292.741
292.859
292.985
293.115
293.248
293.382
293.517
293.652
293.787
293.925
294.059
290.537
290.623
290.752
290.903
291.044
291.167
291.273
291.362
291.427
291.456
291.457
291.461
291.448
291.462
290.693
290.767
290.886
291.028
291.169
291.3
291.415
291.514
291.596
291.662
291.707
291.742
291.752
291.774
290.889
290.96
291.061
291.187
291.312
291.436
291.549
291.65
291.738
291.815
291.873
291.921
291.959
292.01
291.127
291.18
291.258
291.359
291.463
291.572
291.677
291.777
291.867
291.953
292.031
292.105
292.169
292.233
291.361
291.407
291.463
291.538
291.621
291.713
291.809
291.904
291.996
292.085
292.172
292.263
292.349
292.441
291.589
291.627
291.661
291.714
291.778
291.858
291.946
292.037
292.129
292.22
292.315
292.419
292.53
292.641
291.803
291.83
291.846
291.885
291.937
292.006
292.088
292.176
292.268
292.362
292.461
292.573
292.698
292.826
292
292.015
292.023
292.052
292.097
292.16
292.236
292.321
292.413
292.509
292.614
292.728
292.866
293.003
292.178
292.188
292.193
292.22
292.262
292.322
292.395
292.478
292.569
292.667
292.775
292.891
293.035
293.175
292.345
292.356
292.364
292.392
292.437
292.497
292.569
292.651
292.742
292.841
292.951
293.066
293.214
293.354
292.503
292.519
292.535
292.571
292.622
292.687
292.764
292.85
292.944
293.045
293.155
293.267
293.415
293.547
292.665
292.694
292.721
292.769
292.831
292.903
292.986
293.077
293.175
293.278
293.387
293.493
293.64
293.76
292.829
292.877
292.917
292.981
293.058
293.144
293.24
293.342
293.449
293.558
293.669
293.771
293.902
294.005
293.033
293.112
293.166
293.241
293.326
293.419
293.52
293.629
293.74
293.851
293.963
294.058
294.178
294.259
290.757
290.792
290.881
291.001
291.131
291.245
291.344
291.419
291.461
291.462
291.437
291.414
291.384
291.387
290.968
290.991
291.061
291.161
291.275
291.385
291.488
291.575
291.63
291.663
291.676
291.686
291.682
291.691
291.187
291.213
291.267
291.345
291.44
291.536
291.633
291.718
291.779
291.826
291.854
291.874
291.886
291.919
291.425
291.441
291.478
291.538
291.609
291.691
291.777
291.859
291.925
291.98
292.024
292.07
292.109
292.147
291.657
291.663
291.684
291.725
291.779
291.849
291.925
292.001
292.069
292.13
292.186
292.246
292.304
292.369
291.87
291.868
291.877
291.904
291.946
292.006
292.075
292.145
292.213
292.28
292.347
292.422
292.503
292.591
292.069
292.061
292.057
292.078
292.114
292.168
292.231
292.296
292.362
292.432
292.509
292.595
292.692
292.798
292.255
292.245
292.236
292.256
292.288
292.337
292.393
292.454
292.519
292.589
292.673
292.768
292.879
292.994
292.435
292.432
292.423
292.442
292.472
292.517
292.568
292.624
292.687
292.758
292.844
292.943
293.063
293.18
292.615
292.626
292.62
292.64
292.669
292.711
292.757
292.81
292.872
292.944
293.03
293.126
293.252
293.37
292.798
292.822
292.823
292.848
292.879
292.92
292.966
293.02
293.084
293.158
293.244
293.332
293.457
293.569
292.986
293.028
293.038
293.069
293.105
293.148
293.198
293.257
293.326
293.399
293.485
293.561
293.681
293.784
293.179
293.239
293.26
293.3
293.345
293.398
293.461
293.531
293.607
293.683
293.766
293.832
293.938
294.024
293.395
293.475
293.51
293.558
293.611
293.674
293.747
293.826
293.906
293.98
294.058
294.12
294.209
294.273
290.973
290.971
291.022
291.097
291.191
291.28
291.36
291.415
291.442
291.428
291.38
291.315
291.272
291.256
291.214
291.203
291.234
291.285
291.359
291.434
291.508
291.565
291.606
291.611
291.597
291.575
291.556
291.563
291.42
291.421
291.443
291.479
291.536
291.598
291.663
291.715
291.751
291.775
291.777
291.773
291.769
291.784
291.635
291.631
291.643
291.668
291.71
291.761
291.817
291.866
291.903
291.932
291.956
291.979
292
292.021
291.846
291.83
291.831
291.849
291.88
291.924
291.974
292.02
292.06
292.094
292.13
292.172
292.213
292.25
292.046
292.019
292.014
292.025
292.048
292.086
292.132
292.176
292.22
292.262
292.309
292.366
292.428
292.488
292.237
292.21
292.197
292.206
292.223
292.256
292.295
292.338
292.384
292.432
292.489
292.555
292.632
292.711
292.43
292.407
292.39
292.396
292.408
292.435
292.468
292.507
292.553
292.608
292.671
292.743
292.832
292.922
292.627
292.616
292.596
292.599
292.606
292.627
292.653
292.688
292.732
292.79
292.858
292.93
293.026
293.119
292.832
292.837
292.816
292.814
292.817
292.831
292.851
292.881
292.925
292.983
293.054
293.125
293.225
293.316
293.041
293.061
293.043
293.036
293.035
293.047
293.064
293.095
293.138
293.197
293.267
293.336
293.436
293.516
293.259
293.291
293.273
293.266
293.265
293.276
293.296
293.331
293.377
293.434
293.502
293.567
293.663
293.729
293.475
293.513
293.501
293.497
293.504
293.523
293.554
293.596
293.645
293.702
293.766
293.825
293.91
293.961
293.694
293.742
293.739
293.746
293.762
293.792
293.833
293.882
293.932
293.986
294.046
294.098
294.171
294.211
291.166
291.142
291.155
291.174
291.216
291.259
291.307
291.34
291.358
291.341
291.29
291.193
291.12
291.085
291.397
291.369
291.371
291.374
291.399
291.427
291.462
291.491
291.513
291.51
291.485
291.433
291.381
291.381
291.578
291.56
291.563
291.562
291.58
291.6
291.626
291.648
291.665
291.671
291.657
291.627
291.601
291.609
291.769
291.746
291.742
291.74
291.753
291.77
291.792
291.811
291.825
291.835
291.841
291.839
291.839
291.851
291.964
291.927
291.915
291.913
291.924
291.94
291.959
291.977
291.994
292.01
292.028
292.048
292.065
292.085
292.159
292.115
292.095
292.091
292.096
292.11
292.128
292.149
292.171
292.196
292.227
292.262
292.295
292.328
292.353
292.314
292.289
292.282
292.28
292.289
292.305
292.327
292.355
292.388
292.428
292.471
292.517
292.561
292.56
292.53
292.5
292.486
292.475
292.477
292.488
292.511
292.544
292.584
292.632
292.681
292.735
292.784
292.777
292.758
292.723
292.7
292.68
292.676
292.681
292.701
292.737
292.781
292.833
292.888
292.947
292.99
293.003
292.992
292.95
292.916
292.89
292.882
292.882
292.9
292.937
292.983
293.038
293.098
293.16
293.191
293.231
293.223
293.175
293.133
293.104
293.095
293.094
293.113
293.149
293.195
293.252
293.312
293.375
293.391
293.461
293.45
293.395
293.349
293.322
293.316
293.318
293.341
293.377
293.423
293.478
293.536
293.6
293.604
293.678
293.665
293.612
293.572
293.554
293.553
293.563
293.59
293.626
293.67
293.72
293.773
293.832
293.83
293.884
293.884
293.841
293.812
293.803
293.81
293.827
293.857
293.892
293.932
293.977
294.024
294.077
294.091
291.341
291.31
291.291
291.264
291.251
291.233
291.229
291.22
291.224
291.202
291.161
291.069
290.982
290.933
291.555
291.518
291.492
291.457
291.433
291.406
291.392
291.38
291.376
291.362
291.339
291.287
291.222
291.209
291.714
291.682
291.663
291.632
291.609
291.583
291.567
291.55
291.539
291.526
291.507
291.472
291.437
291.44
291.889
291.846
291.824
291.798
291.779
291.759
291.744
291.727
291.715
291.707
291.699
291.689
291.676
291.682
292.068
292.017
291.99
291.967
291.951
291.937
291.923
291.911
291.905
291.904
291.906
291.91
291.91
291.919
292.261
292.205
292.171
292.147
292.129
292.116
292.106
292.103
292.107
292.115
292.128
292.142
292.155
292.165
292.465
292.412
292.371
292.344
292.319
292.305
292.299
292.303
292.314
292.33
292.35
292.371
292.393
292.408
292.686
292.637
292.588
292.551
292.517
292.5
292.497
292.505
292.523
292.547
292.572
292.598
292.625
292.642
292.916
292.869
292.809
292.759
292.719
292.702
292.701
292.71
292.732
292.76
292.786
292.816
292.848
292.857
293.147
293.097
293.023
292.961
292.919
292.906
292.905
292.915
292.94
292.969
292.996
293.03
293.066
293.062
293.366
293.311
293.229
293.161
293.121
293.114
293.114
293.127
293.152
293.179
293.206
293.24
293.277
293.261
293.576
293.517
293.431
293.364
293.329
293.325
293.328
293.345
293.369
293.394
293.422
293.456
293.488
293.466
293.776
293.719
293.64
293.582
293.553
293.55
293.556
293.575
293.594
293.617
293.643
293.672
293.702
293.678
293.978
293.931
293.865
293.817
293.794
293.792
293.799
293.815
293.831
293.852
293.877
293.907
293.933
293.928
291.467
291.424
291.386
291.329
291.276
291.212
291.163
291.111
291.076
291.03
290.982
290.913
290.838
290.793
291.667
291.613
291.566
291.505
291.446
291.382
291.327
291.269
291.225
291.181
291.147
291.115
291.062
291.052
291.81
291.758
291.718
291.665
291.613
291.556
291.501
291.442
291.393
291.35
291.32
291.298
291.27
291.274
291.97
291.909
291.868
291.821
291.778
291.731
291.681
291.628
291.582
291.547
291.529
291.519
291.505
291.51
292.145
292.076
292.031
291.989
291.95
291.91
291.867
291.826
291.793
291.77
291.758
291.751
291.743
291.745
292.343
292.268
292.214
292.171
292.13
292.095
292.064
292.039
292.021
292.009
292.004
292
291.996
291.991
292.554
292.478
292.416
292.367
292.324
292.294
292.273
292.26
292.253
292.25
292.249
292.246
292.243
292.235
292.779
292.701
292.629
292.573
292.527
292.499
292.486
292.482
292.482
292.485
292.487
292.486
292.481
292.473
293.004
292.922
292.84
292.778
292.731
292.708
292.702
292.702
292.703
292.707
292.707
292.706
292.705
292.692
293.22
293.134
293.043
292.976
292.932
292.917
292.915
292.916
292.915
292.916
292.913
292.913
292.918
292.899
293.418
293.332
293.238
293.174
293.136
293.126
293.125
293.125
293.121
293.118
293.111
293.11
293.118
293.09
293.613
293.529
293.436
293.376
293.34
293.332
293.331
293.33
293.324
293.318
293.309
293.304
293.315
293.285
293.811
293.736
293.649
293.593
293.557
293.545
293.54
293.536
293.528
293.519
293.508
293.5
293.512
293.488
294.023
293.957
293.878
293.82
293.781
293.764
293.754
293.749
293.741
293.731
293.722
293.72
293.727
293.724
289.603
289.348
288.984
288.46
288.016
287.47
289.427
289.08
288.626
288.216
287.931
287.554
289.597
289.16
288.701
288.324
288.084
287.682
289.779
289.328
288.871
288.478
288.195
287.655
289.964
289.536
289.12
288.735
288.419
287.673
290.142
289.737
289.349
288.92
288.452
287.424
290.309
289.907
289.509
288.983
288.369
287.231
290.463
290.046
289.616
289.006
288.321
287.127
290.595
290.167
289.682
289.009
288.325
287.088
290.701
290.27
289.731
288.951
288.232
287.058
290.783
290.354
289.808
288.988
288.299
287.284
290.881
290.44
289.89
289.084
288.671
287.995
291.012
290.584
290.211
289.649
289.419
288.947
291.007
290.707
290.392
290.146
290.167
290.019
289.991
289.89
289.715
289.424
289.032
288.581
289.911
289.758
289.51
289.268
288.984
288.746
290.058
289.821
289.537
289.294
289.031
288.799
290.201
289.903
289.542
289.216
288.89
288.564
290.348
290.011
289.603
289.248
288.908
288.489
290.493
290.146
289.724
289.301
288.821
288.158
290.645
290.29
289.842
289.323
288.656
287.75
290.789
290.412
289.928
289.308
288.493
287.42
290.914
290.519
290.033
289.355
288.46
287.32
291.006
290.604
290.104
289.383
288.48
287.378
291.069
290.68
290.18
289.497
288.695
287.675
291.122
290.737
290.226
289.57
288.998
288.244
291.2
290.84
290.484
290.011
289.59
289.061
291.17
290.918
290.627
290.326
290.112
289.928
290.296
290.253
290.194
289.993
289.651
289.152
290.282
290.182
290.032
289.858
289.676
289.334
290.419
290.28
290.128
289.956
289.713
289.324
290.549
290.355
290.123
289.846
289.505
289.027
290.667
290.421
290.096
289.748
289.352
288.779
290.778
290.496
290.118
289.712
289.214
288.443
290.891
290.593
290.177
289.686
289.023
287.996
291.006
290.685
290.227
289.632
288.811
287.628
291.109
290.758
290.299
289.647
288.739
287.516
291.182
290.798
290.344
289.66
288.765
287.622
291.204
290.83
290.406
289.765
288.921
287.924
291.199
290.819
290.381
289.786
289.15
288.424
291.264
290.911
290.562
290.129
289.624
289.086
291.235
290.982
290.695
290.366
290.073
289.843
290.514
290.461
290.421
290.27
289.986
289.527
290.503
290.408
290.312
290.176
289.971
289.66
290.633
290.524
290.407
290.221
289.966
289.57
290.758
290.612
290.423
290.165
289.796
289.201
290.875
290.685
290.409
290.055
289.558
288.77
290.969
290.737
290.397
289.963
289.366
288.411
291.057
290.796
290.402
289.921
289.214
288.084
291.14
290.848
290.406
289.855
289.021
287.784
291.212
290.888
290.43
289.826
288.926
287.665
291.244
290.878
290.425
289.806
288.932
287.737
291.251
290.878
290.466
289.871
289.019
287.966
291.226
290.851
290.428
289.849
289.167
288.361
291.266
290.927
290.561
290.076