/*--------------------------------*- C++ -*----------------------------------*\
| =========                 |                                                 |
| \\      /  F ield         | OpenFOAM: The Open Source CFD Toolbox           |
|  \\    /   O peration     | Version:  v2106                                 |
|   \\  /    A nd           | Website:  www.openfoam.com                      |
|    \\/     M anipulation  |                                                 |
\*---------------------------------------------------------------------------*/
FoamFile
{
    version     2.0;
    format      ascii;
    arch        "LSB;label=32;scalar=64";
    class       volScalarField;
    location    "0.000168";
    object      epsilon;
}
// * * * * * * * * * * * * * * * * * * * * * * * * * * * * * * * * * * * * * //

dimensions      [0 2 -3 0 0 0 0];

internalField   nonuniform List<scalar> 
17924
(
1.7374e-08
1.73736e-08
1.73727e-08
1.73713e-08
1.73664e-08
1.73654e-08
1.73638e-08
1.73621e-08
1.73602e-08
1.73583e-08
1.73563e-08
1.73644e-08
1.73631e-08
1.73612e-08
1.73591e-08
1.7357e-08
1.73549e-08
1.73527e-08
1.7362e-08
1.73603e-08
1.73581e-08
1.73559e-08
1.73537e-08
1.73514e-08
1.73491e-08
1.73593e-08
1.73572e-08
1.73549e-08
1.73526e-08
1.73502e-08
1.73479e-08
1.73454e-08
1.7356e-08
1.73539e-08
1.73515e-08
1.73492e-08
1.73467e-08
1.73442e-08
1.73416e-08
1.73527e-08
1.73504e-08
1.7348e-08
1.73456e-08
1.7343e-08
1.73404e-08
1.73377e-08
1.73493e-08
1.73468e-08
1.73443e-08
1.73418e-08
1.73391e-08
1.73364e-08
1.73336e-08
1.73455e-08
1.73429e-08
1.73404e-08
1.73378e-08
1.7335e-08
1.73322e-08
1.73294e-08
1.73416e-08
1.73389e-08
1.73363e-08
1.73336e-08
1.73308e-08
1.73279e-08
1.7325e-08
1.73373e-08
1.73345e-08
1.73319e-08
1.7329e-08
1.73262e-08
1.73233e-08
1.73204e-08
1.7333e-08
1.733e-08
1.73274e-08
1.73245e-08
1.73216e-08
1.73186e-08
1.73157e-08
1.7328e-08
1.7325e-08
1.73224e-08
1.73195e-08
1.73166e-08
1.73136e-08
1.73107e-08
1.73231e-08
1.73202e-08
1.73175e-08
1.73146e-08
1.73116e-08
1.73086e-08
1.73056e-08
1.73168e-08
1.73144e-08
1.73118e-08
1.7309e-08
1.73062e-08
1.73033e-08
1.73005e-08
1.735e-08
1.73484e-08
1.73464e-08
1.73445e-08
1.73427e-08
1.73409e-08
1.73392e-08
1.73376e-08
1.7336e-08
1.73345e-08
1.73329e-08
1.73313e-08
1.73296e-08
1.73279e-08
1.73467e-08
1.7345e-08
1.73428e-08
1.73407e-08
1.73387e-08
1.73367e-08
1.73348e-08
1.7333e-08
1.73312e-08
1.73294e-08
1.73277e-08
1.7326e-08
1.73243e-08
1.73224e-08
1.7343e-08
1.73411e-08
1.73386e-08
1.73365e-08
1.73343e-08
1.73323e-08
1.73303e-08
1.73284e-08
1.73266e-08
1.73247e-08
1.73229e-08
1.73211e-08
1.73194e-08
1.73175e-08
1.7339e-08
1.73369e-08
1.73344e-08
1.73322e-08
1.733e-08
1.73279e-08
1.73258e-08
1.73237e-08
1.73217e-08
1.73198e-08
1.73179e-08
1.73159e-08
1.73142e-08
1.73123e-08
1.73347e-08
1.73325e-08
1.733e-08
1.73278e-08
1.73255e-08
1.73233e-08
1.73211e-08
1.7319e-08
1.7317e-08
1.7315e-08
1.7313e-08
1.73111e-08
1.73093e-08
1.73074e-08
1.73303e-08
1.7328e-08
1.73255e-08
1.73232e-08
1.73209e-08
1.73186e-08
1.73164e-08
1.73142e-08
1.73121e-08
1.73101e-08
1.73082e-08
1.73062e-08
1.73044e-08
1.73025e-08
1.73259e-08
1.73234e-08
1.73209e-08
1.73185e-08
1.73162e-08
1.73138e-08
1.73116e-08
1.73094e-08
1.73073e-08
1.73053e-08
1.73034e-08
1.73015e-08
1.72997e-08
1.72979e-08
1.73211e-08
1.73185e-08
1.73161e-08
1.73137e-08
1.73113e-08
1.7309e-08
1.73068e-08
1.73046e-08
1.73025e-08
1.73005e-08
1.72986e-08
1.72968e-08
1.7295e-08
1.72934e-08
1.73163e-08
1.73137e-08
1.73113e-08
1.73088e-08
1.73064e-08
1.73041e-08
1.73019e-08
1.72997e-08
1.72977e-08
1.72958e-08
1.72939e-08
1.72922e-08
1.72904e-08
1.72891e-08
1.73112e-08
1.73085e-08
1.73062e-08
1.73037e-08
1.73014e-08
1.72991e-08
1.72969e-08
1.72949e-08
1.72929e-08
1.7291e-08
1.72893e-08
1.72876e-08
1.7286e-08
1.72848e-08
1.73062e-08
1.73035e-08
1.73012e-08
1.72987e-08
1.72964e-08
1.72942e-08
1.7292e-08
1.729e-08
1.72881e-08
1.72863e-08
1.72847e-08
1.72832e-08
1.72817e-08
1.72809e-08
1.73008e-08
1.72982e-08
1.72959e-08
1.72935e-08
1.72913e-08
1.72891e-08
1.72871e-08
1.72851e-08
1.72833e-08
1.72817e-08
1.72802e-08
1.72789e-08
1.72775e-08
1.72769e-08
1.72957e-08
1.72931e-08
1.7291e-08
1.72886e-08
1.72864e-08
1.72842e-08
1.72822e-08
1.72803e-08
1.72786e-08
1.7277e-08
1.72757e-08
1.72746e-08
1.72734e-08
1.7273e-08
1.72894e-08
1.72874e-08
1.72853e-08
1.72832e-08
1.72811e-08
1.72792e-08
1.72774e-08
1.72757e-08
1.72741e-08
1.72727e-08
1.72714e-08
1.72703e-08
1.72693e-08
1.7269e-08
1.73269e-08
1.73252e-08
1.73233e-08
1.73217e-08
1.73203e-08
1.73191e-08
1.7318e-08
1.7317e-08
1.73162e-08
1.73155e-08
1.73151e-08
1.73147e-08
1.73145e-08
1.7314e-08
1.73226e-08
1.73211e-08
1.73191e-08
1.73175e-08
1.73159e-08
1.73146e-08
1.73134e-08
1.73123e-08
1.73114e-08
1.73106e-08
1.731e-08
1.73095e-08
1.73094e-08
1.73086e-08
1.73181e-08
1.73165e-08
1.73145e-08
1.73129e-08
1.73113e-08
1.731e-08
1.73088e-08
1.73077e-08
1.73067e-08
1.73059e-08
1.73052e-08
1.73046e-08
1.73045e-08
1.73037e-08
1.73135e-08
1.73119e-08
1.731e-08
1.73083e-08
1.73067e-08
1.73054e-08
1.73041e-08
1.7303e-08
1.7302e-08
1.73011e-08
1.73004e-08
1.72997e-08
1.72995e-08
1.72987e-08
1.73089e-08
1.73073e-08
1.73053e-08
1.73036e-08
1.73021e-08
1.73007e-08
1.72994e-08
1.72983e-08
1.72973e-08
1.72965e-08
1.72957e-08
1.72951e-08
1.72947e-08
1.72941e-08
1.73043e-08
1.73025e-08
1.73006e-08
1.7299e-08
1.72974e-08
1.7296e-08
1.72948e-08
1.72937e-08
1.72927e-08
1.72918e-08
1.72911e-08
1.72905e-08
1.729e-08
1.72895e-08
1.72997e-08
1.72978e-08
1.7296e-08
1.72943e-08
1.72928e-08
1.72914e-08
1.72902e-08
1.72891e-08
1.72881e-08
1.72873e-08
1.72866e-08
1.72861e-08
1.72856e-08
1.72851e-08
1.72949e-08
1.7293e-08
1.72913e-08
1.72896e-08
1.72882e-08
1.72868e-08
1.72856e-08
1.72846e-08
1.72837e-08
1.72829e-08
1.72822e-08
1.72817e-08
1.72812e-08
1.72809e-08
1.72903e-08
1.72883e-08
1.72866e-08
1.7285e-08
1.72836e-08
1.72823e-08
1.72812e-08
1.72802e-08
1.72793e-08
1.72786e-08
1.7278e-08
1.72775e-08
1.72771e-08
1.7277e-08
1.72856e-08
1.72836e-08
1.7282e-08
1.72804e-08
1.72791e-08
1.72779e-08
1.72768e-08
1.72759e-08
1.72751e-08
1.72745e-08
1.72739e-08
1.72735e-08
1.72731e-08
1.72732e-08
1.72811e-08
1.72791e-08
1.72775e-08
1.7276e-08
1.72747e-08
1.72736e-08
1.72726e-08
1.72718e-08
1.72711e-08
1.72705e-08
1.72701e-08
1.72698e-08
1.72695e-08
1.72697e-08
1.72765e-08
1.72745e-08
1.72731e-08
1.72717e-08
1.72705e-08
1.72694e-08
1.72685e-08
1.72678e-08
1.72672e-08
1.72667e-08
1.72664e-08
1.72662e-08
1.7266e-08
1.72663e-08
1.72721e-08
1.72703e-08
1.7269e-08
1.72676e-08
1.72665e-08
1.72654e-08
1.72646e-08
1.7264e-08
1.72635e-08
1.72631e-08
1.72629e-08
1.72629e-08
1.72628e-08
1.72631e-08
1.72671e-08
1.72658e-08
1.72645e-08
1.72634e-08
1.72624e-08
1.72615e-08
1.72609e-08
1.72604e-08
1.72601e-08
1.72598e-08
1.72597e-08
1.72596e-08
1.72596e-08
1.72599e-08
1.72992e-08
1.72982e-08
1.72971e-08
1.72963e-08
1.72957e-08
1.72952e-08
1.72949e-08
1.72947e-08
1.72947e-08
1.72948e-08
1.72952e-08
1.72957e-08
1.72966e-08
1.72972e-08
1.72949e-08
1.72942e-08
1.72932e-08
1.72925e-08
1.72918e-08
1.72913e-08
1.7291e-08
1.72908e-08
1.72907e-08
1.72909e-08
1.72912e-08
1.72916e-08
1.72924e-08
1.72927e-08
1.72908e-08
1.72901e-08
1.72891e-08
1.72885e-08
1.72878e-08
1.72874e-08
1.72871e-08
1.72869e-08
1.72869e-08
1.7287e-08
1.72873e-08
1.72877e-08
1.72885e-08
1.72887e-08
1.72867e-08
1.7286e-08
1.72851e-08
1.72845e-08
1.72839e-08
1.72835e-08
1.72832e-08
1.7283e-08
1.7283e-08
1.72832e-08
1.72834e-08
1.72838e-08
1.72845e-08
1.72847e-08
1.72827e-08
1.7282e-08
1.72812e-08
1.72805e-08
1.728e-08
1.72796e-08
1.72793e-08
1.72792e-08
1.72792e-08
1.72794e-08
1.72797e-08
1.72801e-08
1.72807e-08
1.7281e-08
1.72788e-08
1.7278e-08
1.72772e-08
1.72766e-08
1.72761e-08
1.72758e-08
1.72756e-08
1.72755e-08
1.72755e-08
1.72757e-08
1.7276e-08
1.72764e-08
1.72769e-08
1.72773e-08
1.7275e-08
1.72741e-08
1.72734e-08
1.72728e-08
1.72723e-08
1.72721e-08
1.72719e-08
1.72719e-08
1.72719e-08
1.72721e-08
1.72724e-08
1.72729e-08
1.72733e-08
1.72739e-08
1.72712e-08
1.72703e-08
1.72696e-08
1.72691e-08
1.72687e-08
1.72684e-08
1.72683e-08
1.72683e-08
1.72684e-08
1.72687e-08
1.7269e-08
1.72694e-08
1.72698e-08
1.72705e-08
1.72676e-08
1.72666e-08
1.7266e-08
1.72655e-08
1.72651e-08
1.72649e-08
1.72648e-08
1.72649e-08
1.72651e-08
1.72653e-08
1.72657e-08
1.72662e-08
1.72666e-08
1.72673e-08
1.7264e-08
1.7263e-08
1.72624e-08
1.7262e-08
1.72617e-08
1.72615e-08
1.72615e-08
1.72616e-08
1.72618e-08
1.72621e-08
1.72625e-08
1.7263e-08
1.72635e-08
1.72643e-08
1.72606e-08
1.72596e-08
1.72591e-08
1.72587e-08
1.72585e-08
1.72583e-08
1.72584e-08
1.72585e-08
1.72588e-08
1.72592e-08
1.72596e-08
1.72602e-08
1.72607e-08
1.72616e-08
1.72573e-08
1.72563e-08
1.72558e-08
1.72555e-08
1.72554e-08
1.72553e-08
1.72554e-08
1.72557e-08
1.7256e-08
1.72564e-08
1.72569e-08
1.72575e-08
1.72581e-08
1.7259e-08
1.72543e-08
1.72533e-08
1.72529e-08
1.72526e-08
1.72525e-08
1.72525e-08
1.72527e-08
1.7253e-08
1.72534e-08
1.72539e-08
1.72545e-08
1.72552e-08
1.72559e-08
1.72567e-08
1.72509e-08
1.72502e-08
1.72499e-08
1.72497e-08
1.72498e-08
1.72499e-08
1.72502e-08
1.72507e-08
1.72512e-08
1.72517e-08
1.72523e-08
1.7253e-08
1.72536e-08
1.72544e-08
1.72688e-08
1.72689e-08
1.72689e-08
1.72691e-08
1.72695e-08
1.72699e-08
1.72703e-08
1.72709e-08
1.72716e-08
1.72723e-08
1.72732e-08
1.72742e-08
1.72755e-08
1.72768e-08
1.72658e-08
1.72661e-08
1.72662e-08
1.72665e-08
1.72668e-08
1.72673e-08
1.72678e-08
1.72684e-08
1.72691e-08
1.72699e-08
1.72708e-08
1.72717e-08
1.72729e-08
1.72739e-08
1.72631e-08
1.72634e-08
1.72634e-08
1.72638e-08
1.72642e-08
1.72647e-08
1.72653e-08
1.72659e-08
1.72666e-08
1.72674e-08
1.72684e-08
1.72693e-08
1.72705e-08
1.72714e-08
1.72604e-08
1.72607e-08
1.72608e-08
1.72612e-08
1.72617e-08
1.72622e-08
1.72628e-08
1.72634e-08
1.72642e-08
1.7265e-08
1.72659e-08
1.72669e-08
1.7268e-08
1.72689e-08
1.72578e-08
1.7258e-08
1.72582e-08
1.72587e-08
1.72591e-08
1.72596e-08
1.72603e-08
1.7261e-08
1.72618e-08
1.72626e-08
1.72636e-08
1.72645e-08
1.72656e-08
1.72666e-08
1.72552e-08
1.72555e-08
1.72557e-08
1.72562e-08
1.72566e-08
1.72572e-08
1.72578e-08
1.72586e-08
1.72593e-08
1.72602e-08
1.72612e-08
1.72622e-08
1.72632e-08
1.72642e-08
1.72527e-08
1.7253e-08
1.72533e-08
1.72537e-08
1.72542e-08
1.72547e-08
1.72554e-08
1.72562e-08
1.7257e-08
1.72579e-08
1.72588e-08
1.72598e-08
1.72608e-08
1.72619e-08
1.72502e-08
1.72505e-08
1.72508e-08
1.72513e-08
1.72518e-08
1.72524e-08
1.72531e-08
1.72538e-08
1.72547e-08
1.72556e-08
1.72565e-08
1.72575e-08
1.72585e-08
1.72596e-08
1.72479e-08
1.72481e-08
1.72485e-08
1.72489e-08
1.72495e-08
1.72501e-08
1.72508e-08
1.72516e-08
1.72525e-08
1.72534e-08
1.72543e-08
1.72553e-08
1.72563e-08
1.72575e-08
1.72456e-08
1.72458e-08
1.72462e-08
1.72467e-08
1.72473e-08
1.7248e-08
1.72487e-08
1.72495e-08
1.72504e-08
1.72513e-08
1.72522e-08
1.72532e-08
1.72542e-08
1.72554e-08
1.72436e-08
1.72437e-08
1.72441e-08
1.72447e-08
1.72453e-08
1.7246e-08
1.72468e-08
1.72476e-08
1.72484e-08
1.72494e-08
1.72503e-08
1.72514e-08
1.72523e-08
1.72535e-08
1.72416e-08
1.72416e-08
1.72422e-08
1.72427e-08
1.72434e-08
1.72441e-08
1.72449e-08
1.72458e-08
1.72467e-08
1.72476e-08
1.72486e-08
1.72496e-08
1.72506e-08
1.72517e-08
1.72397e-08
1.72399e-08
1.72405e-08
1.7241e-08
1.72417e-08
1.72425e-08
1.72433e-08
1.72442e-08
1.72451e-08
1.72461e-08
1.72471e-08
1.72482e-08
1.72492e-08
1.72503e-08
1.72379e-08
1.72381e-08
1.72387e-08
1.72394e-08
1.72401e-08
1.7241e-08
1.72419e-08
1.72428e-08
1.72437e-08
1.72447e-08
1.72457e-08
1.72467e-08
1.72477e-08
1.72487e-08
1.7236e-08
1.72371e-08
1.72381e-08
1.72392e-08
1.72403e-08
1.72414e-08
1.72425e-08
1.72436e-08
1.72448e-08
1.72459e-08
1.72471e-08
1.72482e-08
1.72495e-08
1.72507e-08
1.72348e-08
1.7236e-08
1.72371e-08
1.72383e-08
1.72394e-08
1.72406e-08
1.72417e-08
1.72428e-08
1.7244e-08
1.72452e-08
1.72464e-08
1.72476e-08
1.72488e-08
1.725e-08
1.72338e-08
1.72351e-08
1.72361e-08
1.72373e-08
1.72384e-08
1.72396e-08
1.72408e-08
1.7242e-08
1.72432e-08
1.72444e-08
1.72456e-08
1.72468e-08
1.72481e-08
1.72493e-08
1.72328e-08
1.72341e-08
1.72352e-08
1.72364e-08
1.72375e-08
1.72387e-08
1.72399e-08
1.72411e-08
1.72423e-08
1.72435e-08
1.72447e-08
1.72459e-08
1.72472e-08
1.72484e-08
1.72319e-08
1.72331e-08
1.72341e-08
1.72353e-08
1.72365e-08
1.72377e-08
1.72389e-08
1.72401e-08
1.72414e-08
1.72426e-08
1.72438e-08
1.7245e-08
1.72463e-08
1.72475e-08
1.72308e-08
1.7232e-08
1.72331e-08
1.72343e-08
1.72355e-08
1.72367e-08
1.72379e-08
1.72391e-08
1.72404e-08
1.72416e-08
1.72428e-08
1.72441e-08
1.72453e-08
1.72465e-08
1.72298e-08
1.7231e-08
1.72321e-08
1.72333e-08
1.72344e-08
1.72356e-08
1.72369e-08
1.72381e-08
1.72393e-08
1.72406e-08
1.72418e-08
1.72431e-08
1.72443e-08
1.72455e-08
1.72288e-08
1.72299e-08
1.72311e-08
1.72322e-08
1.72334e-08
1.72346e-08
1.72358e-08
1.72371e-08
1.72383e-08
1.72395e-08
1.72408e-08
1.7242e-08
1.72432e-08
1.72445e-08
1.72278e-08
1.72289e-08
1.72301e-08
1.72312e-08
1.72324e-08
1.72336e-08
1.72348e-08
1.72361e-08
1.72373e-08
1.72385e-08
1.72397e-08
1.7241e-08
1.72422e-08
1.72435e-08
1.72269e-08
1.72279e-08
1.72291e-08
1.72303e-08
1.72315e-08
1.72327e-08
1.72339e-08
1.72351e-08
1.72363e-08
1.72375e-08
1.72387e-08
1.724e-08
1.72411e-08
1.72425e-08
1.7226e-08
1.72271e-08
1.72283e-08
1.72295e-08
1.72306e-08
1.72318e-08
1.7233e-08
1.72342e-08
1.72354e-08
1.72366e-08
1.72378e-08
1.72391e-08
1.72402e-08
1.72415e-08
1.72252e-08
1.72263e-08
1.72275e-08
1.72287e-08
1.72298e-08
1.7231e-08
1.72322e-08
1.72334e-08
1.72346e-08
1.72358e-08
1.7237e-08
1.72382e-08
1.72394e-08
1.72406e-08
1.72245e-08
1.72256e-08
1.72268e-08
1.7228e-08
1.72292e-08
1.72304e-08
1.72316e-08
1.72328e-08
1.72339e-08
1.72351e-08
1.72363e-08
1.72375e-08
1.72387e-08
1.72399e-08
1.72239e-08
1.72249e-08
1.72261e-08
1.72274e-08
1.72285e-08
1.72298e-08
1.72309e-08
1.72321e-08
1.72333e-08
1.72344e-08
1.72355e-08
1.72367e-08
1.72378e-08
1.72389e-08
1.71999e-08
1.72015e-08
1.7203e-08
1.72045e-08
1.7206e-08
1.72075e-08
1.72089e-08
1.72102e-08
1.72115e-08
1.72128e-08
1.7214e-08
1.72151e-08
1.72163e-08
1.72173e-08
1.72002e-08
1.72018e-08
1.72035e-08
1.72051e-08
1.72066e-08
1.72081e-08
1.72096e-08
1.7211e-08
1.72123e-08
1.72136e-08
1.72148e-08
1.7216e-08
1.72171e-08
1.72181e-08
1.72008e-08
1.72024e-08
1.72041e-08
1.72057e-08
1.72073e-08
1.72087e-08
1.72102e-08
1.72116e-08
1.7213e-08
1.72143e-08
1.72155e-08
1.72167e-08
1.72178e-08
1.72189e-08
1.72013e-08
1.72029e-08
1.72046e-08
1.72062e-08
1.72077e-08
1.72093e-08
1.72107e-08
1.72122e-08
1.72135e-08
1.72149e-08
1.72161e-08
1.72173e-08
1.72185e-08
1.72196e-08
1.72017e-08
1.72034e-08
1.7205e-08
1.72066e-08
1.72082e-08
1.72097e-08
1.72112e-08
1.72126e-08
1.7214e-08
1.72153e-08
1.72166e-08
1.72178e-08
1.7219e-08
1.72201e-08
1.7202e-08
1.72037e-08
1.72054e-08
1.7207e-08
1.72085e-08
1.721e-08
1.72115e-08
1.72129e-08
1.72143e-08
1.72156e-08
1.72169e-08
1.72182e-08
1.72194e-08
1.72205e-08
1.72023e-08
1.7204e-08
1.72057e-08
1.72073e-08
1.72088e-08
1.72103e-08
1.72118e-08
1.72132e-08
1.72145e-08
1.72159e-08
1.72172e-08
1.72184e-08
1.72196e-08
1.72208e-08
1.72026e-08
1.72043e-08
1.72059e-08
1.72075e-08
1.7209e-08
1.72105e-08
1.7212e-08
1.72134e-08
1.72147e-08
1.72161e-08
1.72174e-08
1.72186e-08
1.72198e-08
1.7221e-08
1.72029e-08
1.72045e-08
1.72061e-08
1.72077e-08
1.72092e-08
1.72107e-08
1.72122e-08
1.72135e-08
1.72149e-08
1.72162e-08
1.72175e-08
1.72187e-08
1.72199e-08
1.72211e-08
1.72031e-08
1.72047e-08
1.72063e-08
1.72079e-08
1.72094e-08
1.72109e-08
1.72123e-08
1.72137e-08
1.7215e-08
1.72163e-08
1.72176e-08
1.72188e-08
1.722e-08
1.72212e-08
1.72034e-08
1.7205e-08
1.72066e-08
1.72081e-08
1.72096e-08
1.72111e-08
1.72125e-08
1.72138e-08
1.72151e-08
1.72164e-08
1.72176e-08
1.72188e-08
1.722e-08
1.72212e-08
1.72036e-08
1.72052e-08
1.72068e-08
1.72083e-08
1.72098e-08
1.72112e-08
1.72126e-08
1.72139e-08
1.72152e-08
1.72164e-08
1.72176e-08
1.72188e-08
1.722e-08
1.72211e-08
1.72039e-08
1.72055e-08
1.7207e-08
1.72085e-08
1.721e-08
1.72114e-08
1.72127e-08
1.7214e-08
1.72153e-08
1.72165e-08
1.72176e-08
1.72188e-08
1.72199e-08
1.72211e-08
1.72042e-08
1.72057e-08
1.72072e-08
1.72087e-08
1.72101e-08
1.72115e-08
1.72128e-08
1.72141e-08
1.72153e-08
1.72164e-08
1.72176e-08
1.72186e-08
1.72197e-08
1.72208e-08
1.71603e-08
1.71617e-08
1.71633e-08
1.71648e-08
1.71662e-08
1.71676e-08
1.7169e-08
1.71702e-08
1.71715e-08
1.71726e-08
1.71736e-08
1.71746e-08
1.71755e-08
1.71763e-08
1.71616e-08
1.71631e-08
1.71647e-08
1.71662e-08
1.71678e-08
1.71692e-08
1.71706e-08
1.7172e-08
1.71732e-08
1.71743e-08
1.71754e-08
1.71764e-08
1.71772e-08
1.71781e-08
1.71631e-08
1.71646e-08
1.71663e-08
1.71679e-08
1.71694e-08
1.71709e-08
1.71723e-08
1.71736e-08
1.71748e-08
1.71759e-08
1.7177e-08
1.7178e-08
1.71789e-08
1.71797e-08
1.71645e-08
1.71661e-08
1.71677e-08
1.71693e-08
1.71709e-08
1.71723e-08
1.71738e-08
1.71751e-08
1.71763e-08
1.71775e-08
1.71786e-08
1.71796e-08
1.71806e-08
1.71814e-08
1.71658e-08
1.71675e-08
1.71692e-08
1.71708e-08
1.71723e-08
1.71738e-08
1.71752e-08
1.71765e-08
1.71777e-08
1.71789e-08
1.718e-08
1.71811e-08
1.7182e-08
1.71829e-08
1.71671e-08
1.71688e-08
1.71705e-08
1.71721e-08
1.71736e-08
1.71751e-08
1.71765e-08
1.71778e-08
1.71791e-08
1.71803e-08
1.71814e-08
1.71825e-08
1.71834e-08
1.71843e-08
1.71683e-08
1.71701e-08
1.71718e-08
1.71734e-08
1.71749e-08
1.71764e-08
1.71778e-08
1.71791e-08
1.71803e-08
1.71815e-08
1.71826e-08
1.71837e-08
1.71847e-08
1.71856e-08
1.71695e-08
1.71713e-08
1.71729e-08
1.71746e-08
1.71761e-08
1.71775e-08
1.71789e-08
1.71803e-08
1.71815e-08
1.71827e-08
1.71838e-08
1.71849e-08
1.71859e-08
1.71868e-08
1.71707e-08
1.71724e-08
1.71741e-08
1.71757e-08
1.71772e-08
1.71787e-08
1.718e-08
1.71814e-08
1.71826e-08
1.71838e-08
1.71849e-08
1.71859e-08
1.71869e-08
1.71879e-08
1.71718e-08
1.71735e-08
1.71752e-08
1.71768e-08
1.71783e-08
1.71797e-08
1.71811e-08
1.71824e-08
1.71836e-08
1.71848e-08
1.71859e-08
1.71869e-08
1.71879e-08
1.71888e-08
1.71729e-08
1.71746e-08
1.71762e-08
1.71778e-08
1.71793e-08
1.71807e-08
1.7182e-08
1.71833e-08
1.71845e-08
1.71857e-08
1.71867e-08
1.71878e-08
1.71887e-08
1.71897e-08
1.71739e-08
1.71756e-08
1.71772e-08
1.71787e-08
1.71802e-08
1.71816e-08
1.71829e-08
1.71842e-08
1.71853e-08
1.71865e-08
1.71875e-08
1.71885e-08
1.71895e-08
1.71904e-08
1.7175e-08
1.71766e-08
1.71781e-08
1.71796e-08
1.7181e-08
1.71824e-08
1.71837e-08
1.71849e-08
1.7186e-08
1.71871e-08
1.71882e-08
1.71891e-08
1.71901e-08
1.71911e-08
1.7176e-08
1.71776e-08
1.7179e-08
1.71805e-08
1.71819e-08
1.71832e-08
1.71844e-08
1.71856e-08
1.71867e-08
1.71877e-08
1.71887e-08
1.71897e-08
1.71906e-08
1.71916e-08
1.71197e-08
1.71207e-08
1.71218e-08
1.71229e-08
1.71239e-08
1.7125e-08
1.71259e-08
1.71269e-08
1.71278e-08
1.71286e-08
1.71293e-08
1.713e-08
1.71306e-08
1.71313e-08
1.71212e-08
1.71222e-08
1.71234e-08
1.71245e-08
1.71257e-08
1.71267e-08
1.71278e-08
1.71288e-08
1.71297e-08
1.71305e-08
1.71312e-08
1.71319e-08
1.71325e-08
1.71332e-08
1.71229e-08
1.7124e-08
1.71253e-08
1.71264e-08
1.71275e-08
1.71286e-08
1.71296e-08
1.71306e-08
1.71315e-08
1.71323e-08
1.71331e-08
1.71338e-08
1.71344e-08
1.7135e-08
1.71246e-08
1.71257e-08
1.7127e-08
1.71281e-08
1.71293e-08
1.71304e-08
1.71314e-08
1.71324e-08
1.71333e-08
1.71342e-08
1.71349e-08
1.71356e-08
1.71363e-08
1.71369e-08
1.71262e-08
1.71274e-08
1.71287e-08
1.71299e-08
1.7131e-08
1.71321e-08
1.71332e-08
1.71342e-08
1.71351e-08
1.71359e-08
1.71367e-08
1.71374e-08
1.71381e-08
1.71387e-08
1.71278e-08
1.71291e-08
1.71304e-08
1.71316e-08
1.71327e-08
1.71339e-08
1.71349e-08
1.71359e-08
1.71368e-08
1.71377e-08
1.71385e-08
1.71392e-08
1.71399e-08
1.71404e-08
1.71294e-08
1.71307e-08
1.7132e-08
1.71332e-08
1.71344e-08
1.71355e-08
1.71366e-08
1.71376e-08
1.71385e-08
1.71394e-08
1.71401e-08
1.71409e-08
1.71416e-08
1.71421e-08
1.7131e-08
1.71323e-08
1.71336e-08
1.71349e-08
1.7136e-08
1.71372e-08
1.71382e-08
1.71392e-08
1.71401e-08
1.7141e-08
1.71418e-08
1.71425e-08
1.71432e-08
1.71438e-08
1.71325e-08
1.71339e-08
1.71352e-08
1.71364e-08
1.71376e-08
1.71387e-08
1.71398e-08
1.71408e-08
1.71417e-08
1.71425e-08
1.71433e-08
1.7144e-08
1.71447e-08
1.71453e-08
1.7134e-08
1.71354e-08
1.71367e-08
1.71379e-08
1.71391e-08
1.71402e-08
1.71412e-08
1.71422e-08
1.71431e-08
1.7144e-08
1.71448e-08
1.71455e-08
1.71462e-08
1.71468e-08
1.71355e-08
1.71368e-08
1.71381e-08
1.71393e-08
1.71405e-08
1.71416e-08
1.71426e-08
1.71436e-08
1.71445e-08
1.71453e-08
1.71461e-08
1.71468e-08
1.71475e-08
1.71481e-08
1.71369e-08
1.71383e-08
1.71395e-08
1.71407e-08
1.71418e-08
1.71429e-08
1.71439e-08
1.71449e-08
1.71457e-08
1.71466e-08
1.71473e-08
1.7148e-08
1.71487e-08
1.71494e-08
1.71383e-08
1.71396e-08
1.71408e-08
1.7142e-08
1.71431e-08
1.71441e-08
1.71451e-08
1.7146e-08
1.71469e-08
1.71477e-08
1.71484e-08
1.71491e-08
1.71498e-08
1.71505e-08
1.71397e-08
1.71409e-08
1.71421e-08
1.71432e-08
1.71443e-08
1.71453e-08
1.71462e-08
1.71471e-08
1.71479e-08
1.71487e-08
1.71494e-08
1.71501e-08
1.71508e-08
1.71515e-08
1.70811e-08
1.70815e-08
1.70821e-08
1.70826e-08
1.70832e-08
1.70837e-08
1.70842e-08
1.70847e-08
1.70852e-08
1.70856e-08
1.7086e-08
1.70864e-08
1.70867e-08
1.70872e-08
1.70824e-08
1.70828e-08
1.70834e-08
1.7084e-08
1.70846e-08
1.70851e-08
1.70857e-08
1.70862e-08
1.70867e-08
1.70871e-08
1.70875e-08
1.70879e-08
1.70882e-08
1.70887e-08
1.70837e-08
1.70842e-08
1.70849e-08
1.70855e-08
1.7086e-08
1.70866e-08
1.70871e-08
1.70877e-08
1.70881e-08
1.70886e-08
1.7089e-08
1.70893e-08
1.70897e-08
1.70901e-08
1.70851e-08
1.70856e-08
1.70863e-08
1.70869e-08
1.70875e-08
1.70881e-08
1.70886e-08
1.70892e-08
1.70896e-08
1.70901e-08
1.70905e-08
1.70909e-08
1.70912e-08
1.70916e-08
1.70865e-08
1.70871e-08
1.70878e-08
1.70884e-08
1.7089e-08
1.70896e-08
1.70901e-08
1.70907e-08
1.70911e-08
1.70916e-08
1.7092e-08
1.70924e-08
1.70927e-08
1.7093e-08
1.70879e-08
1.70885e-08
1.70892e-08
1.70899e-08
1.70905e-08
1.70911e-08
1.70916e-08
1.70922e-08
1.70927e-08
1.70931e-08
1.70935e-08
1.70939e-08
1.70942e-08
1.70945e-08
1.70893e-08
1.709e-08
1.70907e-08
1.70913e-08
1.7092e-08
1.70926e-08
1.70931e-08
1.70937e-08
1.70942e-08
1.70946e-08
1.7095e-08
1.70954e-08
1.70957e-08
1.7096e-08
1.70907e-08
1.70915e-08
1.70921e-08
1.70928e-08
1.70934e-08
1.7094e-08
1.70946e-08
1.70951e-08
1.70956e-08
1.70961e-08
1.70965e-08
1.70969e-08
1.70972e-08
1.70975e-08
1.70921e-08
1.70929e-08
1.70936e-08
1.70942e-08
1.70949e-08
1.70955e-08
1.7096e-08
1.70966e-08
1.70971e-08
1.70975e-08
1.70979e-08
1.70983e-08
1.70986e-08
1.70989e-08
1.70935e-08
1.70943e-08
1.70949e-08
1.70956e-08
1.70963e-08
1.70969e-08
1.70974e-08
1.7098e-08
1.70985e-08
1.70989e-08
1.70993e-08
1.70997e-08
1.71e-08
1.71003e-08
1.70948e-08
1.70956e-08
1.70963e-08
1.7097e-08
1.70976e-08
1.70982e-08
1.70988e-08
1.70993e-08
1.70998e-08
1.71002e-08
1.71006e-08
1.7101e-08
1.71013e-08
1.71016e-08
1.70962e-08
1.7097e-08
1.70976e-08
1.70983e-08
1.70989e-08
1.70995e-08
1.71e-08
1.71006e-08
1.71011e-08
1.71015e-08
1.71019e-08
1.71022e-08
1.71026e-08
1.71029e-08
1.70974e-08
1.70982e-08
1.70988e-08
1.70995e-08
1.71001e-08
1.71007e-08
1.71012e-08
1.71018e-08
1.71022e-08
1.71027e-08
1.71031e-08
1.71034e-08
1.71038e-08
1.71041e-08
1.70988e-08
1.70995e-08
1.71001e-08
1.71007e-08
1.71013e-08
1.71019e-08
1.71024e-08
1.71029e-08
1.71033e-08
1.71037e-08
1.71041e-08
1.71045e-08
1.71048e-08
1.71053e-08
1.70455e-08
1.70456e-08
1.70457e-08
1.70458e-08
1.7046e-08
1.70461e-08
1.70462e-08
1.70463e-08
1.70465e-08
1.70466e-08
1.70466e-08
1.70467e-08
1.70468e-08
1.7047e-08
1.70464e-08
1.70464e-08
1.70466e-08
1.70467e-08
1.70468e-08
1.7047e-08
1.70471e-08
1.70472e-08
1.70473e-08
1.70474e-08
1.70475e-08
1.70476e-08
1.70477e-08
1.70479e-08
1.70472e-08
1.70473e-08
1.70475e-08
1.70476e-08
1.70477e-08
1.70479e-08
1.7048e-08
1.70481e-08
1.70482e-08
1.70483e-08
1.70484e-08
1.70485e-08
1.70486e-08
1.70487e-08
1.70482e-08
1.70482e-08
1.70484e-08
1.70485e-08
1.70487e-08
1.70488e-08
1.70489e-08
1.70491e-08
1.70492e-08
1.70493e-08
1.70493e-08
1.70494e-08
1.70495e-08
1.70496e-08
1.70491e-08
1.70491e-08
1.70493e-08
1.70495e-08
1.70496e-08
1.70498e-08
1.70499e-08
1.705e-08
1.70501e-08
1.70502e-08
1.70503e-08
1.70504e-08
1.70504e-08
1.70505e-08
1.705e-08
1.70501e-08
1.70503e-08
1.70504e-08
1.70506e-08
1.70507e-08
1.70508e-08
1.7051e-08
1.70511e-08
1.70512e-08
1.70512e-08
1.70513e-08
1.70514e-08
1.70514e-08
1.70509e-08
1.70511e-08
1.70512e-08
1.70514e-08
1.70516e-08
1.70517e-08
1.70518e-08
1.70519e-08
1.7052e-08
1.70521e-08
1.70522e-08
1.70523e-08
1.70523e-08
1.70524e-08
1.70519e-08
1.7052e-08
1.70522e-08
1.70524e-08
1.70525e-08
1.70527e-08
1.70528e-08
1.70529e-08
1.7053e-08
1.70531e-08
1.70532e-08
1.70532e-08
1.70533e-08
1.70533e-08
1.70528e-08
1.7053e-08
1.70532e-08
1.70533e-08
1.70535e-08
1.70536e-08
1.70537e-08
1.70539e-08
1.7054e-08
1.70541e-08
1.70541e-08
1.70542e-08
1.70542e-08
1.70542e-08
1.70537e-08
1.70539e-08
1.70541e-08
1.70543e-08
1.70544e-08
1.70546e-08
1.70547e-08
1.70548e-08
1.70549e-08
1.7055e-08
1.70551e-08
1.70551e-08
1.70552e-08
1.70551e-08
1.70546e-08
1.70549e-08
1.7055e-08
1.70552e-08
1.70553e-08
1.70555e-08
1.70556e-08
1.70557e-08
1.70558e-08
1.70559e-08
1.7056e-08
1.7056e-08
1.70561e-08
1.7056e-08
1.70555e-08
1.70558e-08
1.70559e-08
1.70561e-08
1.70562e-08
1.70564e-08
1.70565e-08
1.70566e-08
1.70567e-08
1.70568e-08
1.70569e-08
1.70569e-08
1.7057e-08
1.70569e-08
1.70563e-08
1.70566e-08
1.70568e-08
1.70569e-08
1.70571e-08
1.70572e-08
1.70574e-08
1.70575e-08
1.70576e-08
1.70577e-08
1.70577e-08
1.70578e-08
1.70579e-08
1.70578e-08
1.70572e-08
1.70574e-08
1.70576e-08
1.70578e-08
1.70579e-08
1.70581e-08
1.70582e-08
1.70583e-08
1.70584e-08
1.70585e-08
1.70586e-08
1.70586e-08
1.70587e-08
1.70587e-08
1.70121e-08
1.7012e-08
1.70119e-08
1.70119e-08
1.70118e-08
1.70117e-08
1.70116e-08
1.70115e-08
1.70114e-08
1.70113e-08
1.70111e-08
1.7011e-08
1.70109e-08
1.70108e-08
1.70126e-08
1.70125e-08
1.70124e-08
1.70123e-08
1.70122e-08
1.70121e-08
1.7012e-08
1.70119e-08
1.70118e-08
1.70117e-08
1.70115e-08
1.70114e-08
1.70113e-08
1.70112e-08
1.7013e-08
1.70129e-08
1.70128e-08
1.70128e-08
1.70127e-08
1.70126e-08
1.70124e-08
1.70123e-08
1.70122e-08
1.70121e-08
1.70119e-08
1.70118e-08
1.70117e-08
1.70116e-08
1.70135e-08
1.70134e-08
1.70133e-08
1.70132e-08
1.70131e-08
1.7013e-08
1.70129e-08
1.70127e-08
1.70126e-08
1.70125e-08
1.70124e-08
1.70122e-08
1.70121e-08
1.7012e-08
1.70139e-08
1.70138e-08
1.70138e-08
1.70137e-08
1.70135e-08
1.70134e-08
1.70133e-08
1.70132e-08
1.70131e-08
1.70129e-08
1.70128e-08
1.70126e-08
1.70125e-08
1.70124e-08
1.70144e-08
1.70143e-08
1.70142e-08
1.70141e-08
1.7014e-08
1.70139e-08
1.70137e-08
1.70136e-08
1.70135e-08
1.70133e-08
1.70132e-08
1.70131e-08
1.70129e-08
1.70127e-08
1.70149e-08
1.70148e-08
1.70147e-08
1.70145e-08
1.70144e-08
1.70143e-08
1.70142e-08
1.7014e-08
1.70139e-08
1.70138e-08
1.70136e-08
1.70135e-08
1.70133e-08
1.70131e-08
1.70153e-08
1.70152e-08
1.70151e-08
1.7015e-08
1.70149e-08
1.70147e-08
1.70146e-08
1.70145e-08
1.70143e-08
1.70142e-08
1.70141e-08
1.70139e-08
1.70137e-08
1.70135e-08
1.70157e-08
1.70156e-08
1.70155e-08
1.70154e-08
1.70153e-08
1.70152e-08
1.7015e-08
1.70149e-08
1.70148e-08
1.70146e-08
1.70145e-08
1.70143e-08
1.70141e-08
1.70139e-08
1.70161e-08
1.70161e-08
1.70159e-08
1.70158e-08
1.70157e-08
1.70156e-08
1.70154e-08
1.70153e-08
1.70152e-08
1.7015e-08
1.70149e-08
1.70147e-08
1.70146e-08
1.70143e-08
1.70165e-08
1.70164e-08
1.70163e-08
1.70162e-08
1.70161e-08
1.7016e-08
1.70159e-08
1.70157e-08
1.70156e-08
1.70155e-08
1.70153e-08
1.70151e-08
1.7015e-08
1.70147e-08
1.70169e-08
1.70168e-08
1.70167e-08
1.70166e-08
1.70165e-08
1.70164e-08
1.70163e-08
1.70161e-08
1.7016e-08
1.70159e-08
1.70157e-08
1.70155e-08
1.70154e-08
1.70151e-08
1.70172e-08
1.70172e-08
1.70171e-08
1.7017e-08
1.70169e-08
1.70167e-08
1.70166e-08
1.70165e-08
1.70164e-08
1.70163e-08
1.70161e-08
1.70159e-08
1.70158e-08
1.70155e-08
1.70175e-08
1.70174e-08
1.70173e-08
1.70173e-08
1.70172e-08
1.70171e-08
1.7017e-08
1.70169e-08
1.70168e-08
1.70166e-08
1.70165e-08
1.70163e-08
1.70162e-08
1.70159e-08
1.69795e-08
1.69795e-08
1.69794e-08
1.69793e-08
1.69791e-08
1.6979e-08
1.69788e-08
1.69786e-08
1.69784e-08
1.69782e-08
1.6978e-08
1.69777e-08
1.69775e-08
1.69772e-08
1.69798e-08
1.69797e-08
1.69796e-08
1.69795e-08
1.69793e-08
1.69792e-08
1.6979e-08
1.69788e-08
1.69786e-08
1.69783e-08
1.69781e-08
1.69779e-08
1.69776e-08
1.69774e-08
1.698e-08
1.69799e-08
1.69798e-08
1.69796e-08
1.69795e-08
1.69793e-08
1.69791e-08
1.69789e-08
1.69787e-08
1.69785e-08
1.69783e-08
1.6978e-08
1.69777e-08
1.69775e-08
1.69802e-08
1.698e-08
1.69799e-08
1.69798e-08
1.69796e-08
1.69795e-08
1.69793e-08
1.69791e-08
1.69788e-08
1.69786e-08
1.69784e-08
1.69781e-08
1.69779e-08
1.69776e-08
1.69803e-08
1.69802e-08
1.69801e-08
1.69799e-08
1.69798e-08
1.69796e-08
1.69794e-08
1.69792e-08
1.6979e-08
1.69787e-08
1.69785e-08
1.69782e-08
1.69779e-08
1.69777e-08
1.69804e-08
1.69803e-08
1.69802e-08
1.698e-08
1.69799e-08
1.69797e-08
1.69795e-08
1.69793e-08
1.6979e-08
1.69788e-08
1.69786e-08
1.69783e-08
1.6978e-08
1.69777e-08
1.69805e-08
1.69804e-08
1.69803e-08
1.69801e-08
1.69799e-08
1.69798e-08
1.69796e-08
1.69793e-08
1.69791e-08
1.69789e-08
1.69786e-08
1.69784e-08
1.69781e-08
1.69778e-08
1.69806e-08
1.69805e-08
1.69803e-08
1.69802e-08
1.698e-08
1.69798e-08
1.69796e-08
1.69794e-08
1.69792e-08
1.69789e-08
1.69787e-08
1.69784e-08
1.69781e-08
1.69778e-08
1.69807e-08
1.69805e-08
1.69804e-08
1.69802e-08
1.698e-08
1.69799e-08
1.69797e-08
1.69794e-08
1.69792e-08
1.6979e-08
1.69787e-08
1.69785e-08
1.69782e-08
1.69778e-08
1.69807e-08
1.69805e-08
1.69804e-08
1.69802e-08
1.69801e-08
1.69799e-08
1.69797e-08
1.69795e-08
1.69793e-08
1.6979e-08
1.69788e-08
1.69785e-08
1.69782e-08
1.69779e-08
1.69807e-08
1.69805e-08
1.69804e-08
1.69802e-08
1.69801e-08
1.69799e-08
1.69797e-08
1.69795e-08
1.69793e-08
1.6979e-08
1.69788e-08
1.69785e-08
1.69782e-08
1.69779e-08
1.69806e-08
1.69805e-08
1.69803e-08
1.69802e-08
1.698e-08
1.69799e-08
1.69797e-08
1.69795e-08
1.69793e-08
1.69791e-08
1.69788e-08
1.69785e-08
1.69782e-08
1.69779e-08
1.69805e-08
1.69804e-08
1.69803e-08
1.69802e-08
1.698e-08
1.69799e-08
1.69797e-08
1.69795e-08
1.69793e-08
1.6979e-08
1.69788e-08
1.69785e-08
1.69782e-08
1.69779e-08
1.69804e-08
1.69803e-08
1.69802e-08
1.69801e-08
1.69799e-08
1.69798e-08