/*--------------------------------*- C++ -*----------------------------------*\
| =========                 |                                                 |
| \\      /  F ield         | OpenFOAM: The Open Source CFD Toolbox           |
|  \\    /   O peration     | Version:  v2106                                 |
|   \\  /    A nd           | Website:  www.openfoam.com                      |
|    \\/     M anipulation  |                                                 |
\*---------------------------------------------------------------------------*/
FoamFile
{
    version     2.0;
    format      ascii;
    arch        "LSB;label=32;scalar=64";
    class       volScalarField;
    location    "0.000168";
    object      nut;
}
// * * * * * * * * * * * * * * * * * * * * * * * * * * * * * * * * * * * * * //

dimensions      [0 2 -1 0 0 0 0];

internalField   nonuniform List<scalar> 
17924
(
3.64251e-17
3.64247e-17
3.64239e-17
3.64228e-17
3.64113e-17
3.64105e-17
3.64092e-17
3.64078e-17
3.64063e-17
3.64047e-17
3.64031e-17
3.64097e-17
3.64086e-17
3.6407e-17
3.64054e-17
3.64037e-17
3.6402e-17
3.64001e-17
3.64077e-17
3.64063e-17
3.64045e-17
3.64027e-17
3.64009e-17
3.63991e-17
3.63972e-17
3.64055e-17
3.64038e-17
3.64019e-17
3.64e-17
3.63981e-17
3.63962e-17
3.63941e-17
3.64029e-17
3.64011e-17
3.63991e-17
3.63972e-17
3.63952e-17
3.63931e-17
3.6391e-17
3.64001e-17
3.63982e-17
3.63962e-17
3.63942e-17
3.63921e-17
3.639e-17
3.63878e-17
3.63973e-17
3.63952e-17
3.63932e-17
3.63911e-17
3.63889e-17
3.63867e-17
3.63844e-17
3.63941e-17
3.6392e-17
3.63899e-17
3.63878e-17
3.63856e-17
3.63833e-17
3.63809e-17
3.63908e-17
3.63886e-17
3.63865e-17
3.63843e-17
3.6382e-17
3.63797e-17
3.63773e-17
3.63873e-17
3.6385e-17
3.63829e-17
3.63806e-17
3.63783e-17
3.63759e-17
3.63735e-17
3.63837e-17
3.63813e-17
3.63792e-17
3.63768e-17
3.63745e-17
3.6372e-17
3.63696e-17
3.63796e-17
3.63772e-17
3.63751e-17
3.63727e-17
3.63703e-17
3.63679e-17
3.63655e-17
3.63756e-17
3.63732e-17
3.63711e-17
3.63687e-17
3.63662e-17
3.63638e-17
3.63614e-17
3.63704e-17
3.63684e-17
3.63663e-17
3.63641e-17
3.63618e-17
3.63594e-17
3.63571e-17
3.63907e-17
3.63894e-17
3.63878e-17
3.63863e-17
3.63848e-17
3.63834e-17
3.6382e-17
3.63807e-17
3.63794e-17
3.63782e-17
3.63769e-17
3.63756e-17
3.63743e-17
3.63729e-17
3.6388e-17
3.63867e-17
3.63848e-17
3.63831e-17
3.63815e-17
3.638e-17
3.63784e-17
3.63769e-17
3.63755e-17
3.63741e-17
3.63727e-17
3.63713e-17
3.63699e-17
3.63684e-17
3.63849e-17
3.63834e-17
3.63814e-17
3.63797e-17
3.6378e-17
3.63764e-17
3.63747e-17
3.63732e-17
3.63717e-17
3.63702e-17
3.63687e-17
3.63673e-17
3.63659e-17
3.63644e-17
3.63817e-17
3.638e-17
3.6378e-17
3.63762e-17
3.63744e-17
3.63727e-17
3.6371e-17
3.63694e-17
3.63677e-17
3.63662e-17
3.63646e-17
3.63631e-17
3.63617e-17
3.63602e-17
3.63782e-17
3.63764e-17
3.63744e-17
3.63726e-17
3.63707e-17
3.63689e-17
3.63672e-17
3.63655e-17
3.63638e-17
3.63622e-17
3.63607e-17
3.63591e-17
3.63577e-17
3.63561e-17
3.63746e-17
3.63727e-17
3.63707e-17
3.63688e-17
3.63669e-17
3.63651e-17
3.63633e-17
3.63616e-17
3.63599e-17
3.63583e-17
3.63567e-17
3.63551e-17
3.63536e-17
3.63521e-17
3.63709e-17
3.63689e-17
3.63669e-17
3.6365e-17
3.63631e-17
3.63612e-17
3.63594e-17
3.63577e-17
3.6356e-17
3.63543e-17
3.63528e-17
3.63513e-17
3.63498e-17
3.63484e-17
3.6367e-17
3.6365e-17
3.6363e-17
3.6361e-17
3.63591e-17
3.63572e-17
3.63554e-17
3.63537e-17
3.6352e-17
3.63504e-17
3.63488e-17
3.63474e-17
3.63459e-17
3.63446e-17
3.63631e-17
3.6361e-17
3.6359e-17
3.6357e-17
3.63551e-17
3.63532e-17
3.63514e-17
3.63497e-17
3.63481e-17
3.63465e-17
3.6345e-17
3.63436e-17
3.63422e-17
3.63411e-17
3.63589e-17
3.63567e-17
3.63548e-17
3.63529e-17
3.6351e-17
3.63491e-17
3.63474e-17
3.63457e-17
3.63441e-17
3.63426e-17
3.63412e-17
3.63399e-17
3.63385e-17
3.63376e-17
3.63548e-17
3.63526e-17
3.63507e-17
3.63488e-17
3.63469e-17
3.63451e-17
3.63434e-17
3.63417e-17
3.63402e-17
3.63388e-17
3.63375e-17
3.63363e-17
3.63351e-17
3.63344e-17
3.63504e-17
3.63482e-17
3.63464e-17
3.63445e-17
3.63427e-17
3.6341e-17
3.63393e-17
3.63377e-17
3.63363e-17
3.6335e-17
3.63338e-17
3.63327e-17
3.63316e-17
3.63311e-17
3.63462e-17
3.63441e-17
3.63424e-17
3.63405e-17
3.63386e-17
3.63369e-17
3.63353e-17
3.63338e-17
3.63324e-17
3.63311e-17
3.633e-17
3.63292e-17
3.63283e-17
3.63279e-17
3.6341e-17
3.63394e-17
3.63377e-17
3.6336e-17
3.63344e-17
3.63328e-17
3.63314e-17
3.633e-17
3.63287e-17
3.63276e-17
3.63265e-17
3.63256e-17
3.63248e-17
3.63247e-17
3.63648e-17
3.63635e-17
3.63619e-17
3.63607e-17
3.63595e-17
3.63586e-17
3.63577e-17
3.63569e-17
3.63563e-17
3.63558e-17
3.63554e-17
3.63551e-17
3.6355e-17
3.63547e-17
3.63613e-17
3.63601e-17
3.63586e-17
3.63572e-17
3.6356e-17
3.63549e-17
3.6354e-17
3.63531e-17
3.63524e-17
3.63518e-17
3.63513e-17
3.63509e-17
3.63508e-17
3.63502e-17
3.63577e-17
3.63564e-17
3.63548e-17
3.63535e-17
3.63522e-17
3.63512e-17
3.63502e-17
3.63494e-17
3.63486e-17
3.6348e-17
3.63474e-17
3.6347e-17
3.63469e-17
3.63463e-17
3.6354e-17
3.63527e-17
3.63511e-17
3.63498e-17
3.63485e-17
3.63474e-17
3.63464e-17
3.63455e-17
3.63448e-17
3.63441e-17
3.63435e-17
3.6343e-17
3.63428e-17
3.63422e-17
3.63502e-17
3.63489e-17
3.63473e-17
3.6346e-17
3.63447e-17
3.63436e-17
3.63426e-17
3.63417e-17
3.6341e-17
3.63403e-17
3.63397e-17
3.63392e-17
3.63389e-17
3.63384e-17
3.63464e-17
3.6345e-17
3.63435e-17
3.63422e-17
3.63409e-17
3.63398e-17
3.63388e-17
3.6338e-17
3.63372e-17
3.63365e-17
3.63359e-17
3.63355e-17
3.63351e-17
3.63347e-17
3.63426e-17
3.63411e-17
3.63397e-17
3.63384e-17
3.63371e-17
3.63361e-17
3.63351e-17
3.63342e-17
3.63335e-17
3.63328e-17
3.63323e-17
3.63319e-17
3.63315e-17
3.63311e-17
3.63388e-17
3.63372e-17
3.63358e-17
3.63345e-17
3.63334e-17
3.63323e-17
3.63314e-17
3.63305e-17
3.63298e-17
3.63292e-17
3.63287e-17
3.63283e-17
3.63279e-17
3.63277e-17
3.6335e-17
3.63334e-17
3.63321e-17
3.63308e-17
3.63297e-17
3.63286e-17
3.63277e-17
3.6327e-17
3.63263e-17
3.63257e-17
3.63253e-17
3.63249e-17
3.63245e-17
3.63245e-17
3.63312e-17
3.63295e-17
3.63283e-17
3.6327e-17
3.6326e-17
3.6325e-17
3.63242e-17
3.63235e-17
3.63228e-17
3.63224e-17
3.63219e-17
3.63216e-17
3.63213e-17
3.63214e-17
3.63275e-17
3.63259e-17
3.63246e-17
3.63234e-17
3.63224e-17
3.63215e-17
3.63208e-17
3.63201e-17
3.63196e-17
3.63191e-17
3.63188e-17
3.63186e-17
3.63183e-17
3.63186e-17
3.63237e-17
3.63221e-17
3.6321e-17
3.63199e-17
3.63189e-17
3.63181e-17
3.63174e-17
3.63168e-17
3.63164e-17
3.6316e-17
3.63158e-17
3.63157e-17
3.63155e-17
3.63157e-17
3.63202e-17
3.63187e-17
3.63176e-17
3.63166e-17
3.63157e-17
3.63149e-17
3.63142e-17
3.63137e-17
3.63133e-17
3.63131e-17
3.6313e-17
3.6313e-17
3.63129e-17
3.63132e-17
3.63161e-17
3.6315e-17
3.6314e-17
3.63131e-17
3.63124e-17
3.63117e-17
3.63112e-17
3.63108e-17
3.63106e-17
3.63104e-17
3.63103e-17
3.63103e-17
3.63103e-17
3.63105e-17
3.63355e-17
3.63347e-17
3.63338e-17
3.63332e-17
3.63327e-17
3.63324e-17
3.63321e-17
3.6332e-17
3.6332e-17
3.63322e-17
3.63325e-17
3.63329e-17
3.63337e-17
3.63342e-17
3.63319e-17
3.63315e-17
3.63306e-17
3.63301e-17
3.63296e-17
3.63292e-17
3.6329e-17
3.63289e-17
3.63288e-17
3.6329e-17
3.63292e-17
3.63296e-17
3.63303e-17
3.63306e-17
3.63286e-17
3.63282e-17
3.63273e-17
3.63269e-17
3.63264e-17
3.6326e-17
3.63258e-17
3.63257e-17
3.63257e-17
3.63258e-17
3.63261e-17
3.63264e-17
3.63271e-17
3.63273e-17
3.63253e-17
3.63248e-17
3.63241e-17
3.63237e-17
3.63232e-17
3.63229e-17
3.63227e-17
3.63226e-17
3.63226e-17
3.63227e-17
3.6323e-17
3.63233e-17
3.63239e-17
3.63241e-17
3.63221e-17
3.63216e-17
3.63209e-17
3.63204e-17
3.632e-17
3.63197e-17
3.63196e-17
3.63195e-17
3.63195e-17
3.63197e-17
3.632e-17
3.63203e-17
3.63208e-17
3.63211e-17
3.6319e-17
3.63183e-17
3.63177e-17
3.63173e-17
3.63169e-17
3.63167e-17
3.63165e-17
3.63165e-17
3.63166e-17
3.63167e-17
3.6317e-17
3.63173e-17
3.63177e-17
3.63181e-17
3.63159e-17
3.63152e-17
3.63146e-17
3.63142e-17
3.63138e-17
3.63136e-17
3.63135e-17
3.63135e-17
3.63136e-17
3.63138e-17
3.63141e-17
3.63145e-17
3.63149e-17
3.63153e-17
3.63128e-17
3.63121e-17
3.63116e-17
3.63111e-17
3.63109e-17
3.63107e-17
3.63106e-17
3.63107e-17
3.63108e-17
3.6311e-17
3.63113e-17
3.63117e-17
3.6312e-17
3.63126e-17
3.63099e-17
3.63091e-17
3.63086e-17
3.63082e-17
3.6308e-17
3.63079e-17
3.63078e-17
3.63079e-17
3.63081e-17
3.63083e-17
3.63086e-17
3.6309e-17
3.63094e-17
3.631e-17
3.6307e-17
3.63062e-17
3.63057e-17
3.63054e-17
3.63052e-17
3.63051e-17
3.63051e-17
3.63052e-17
3.63054e-17
3.63057e-17
3.63061e-17
3.63065e-17
3.63069e-17
3.63075e-17
3.63042e-17
3.63034e-17
3.6303e-17
3.63027e-17
3.63026e-17
3.63025e-17
3.63026e-17
3.63028e-17
3.6303e-17
3.63033e-17
3.63037e-17
3.63042e-17
3.63047e-17
3.63054e-17
3.63015e-17
3.63007e-17
3.63004e-17
3.63002e-17
3.63001e-17
3.63001e-17
3.63002e-17
3.63004e-17
3.63007e-17
3.63011e-17
3.63015e-17
3.63021e-17
3.63025e-17
3.63033e-17
3.6299e-17
3.62983e-17
3.6298e-17
3.62978e-17
3.62978e-17
3.62978e-17
3.6298e-17
3.62983e-17
3.62986e-17
3.62991e-17
3.62996e-17
3.63002e-17
3.63008e-17
3.63015e-17
3.62963e-17
3.62957e-17
3.62956e-17
3.62955e-17
3.62956e-17
3.62957e-17
3.6296e-17
3.62964e-17
3.62968e-17
3.62973e-17
3.62978e-17
3.62984e-17
3.62989e-17
3.62996e-17
3.63042e-17
3.63043e-17
3.63043e-17
3.63045e-17
3.63048e-17
3.63052e-17
3.63056e-17
3.63061e-17
3.63067e-17
3.63073e-17
3.6308e-17
3.63089e-17
3.631e-17
3.6311e-17
3.63018e-17
3.6302e-17
3.63021e-17
3.63024e-17
3.63027e-17
3.63031e-17
3.63036e-17
3.63041e-17
3.63047e-17
3.63054e-17
3.63061e-17
3.63069e-17
3.63079e-17
3.63087e-17
3.62996e-17
3.62998e-17
3.62999e-17
3.63003e-17
3.63006e-17
3.63011e-17
3.63016e-17
3.63021e-17
3.63027e-17
3.63034e-17
3.63042e-17
3.6305e-17
3.6306e-17
3.63067e-17
3.62974e-17
3.62977e-17
3.62978e-17
3.62982e-17
3.62986e-17
3.62991e-17
3.62996e-17
3.63002e-17
3.63008e-17
3.63015e-17
3.63022e-17
3.6303e-17
3.6304e-17
3.63047e-17
3.62953e-17
3.62956e-17
3.62958e-17
3.62962e-17
3.62966e-17
3.6297e-17
3.62976e-17
3.62982e-17
3.62989e-17
3.62996e-17
3.63004e-17
3.63012e-17
3.63021e-17
3.63029e-17
3.62933e-17
3.62935e-17
3.62938e-17
3.62942e-17
3.62946e-17
3.62951e-17
3.62956e-17
3.62962e-17
3.62969e-17
3.62977e-17
3.62984e-17
3.62993e-17
3.63001e-17
3.6301e-17
3.62913e-17
3.62915e-17
3.62918e-17
3.62922e-17
3.62926e-17
3.62931e-17
3.62937e-17
3.62943e-17
3.6295e-17
3.62958e-17
3.62966e-17
3.62974e-17
3.62982e-17
3.62992e-17
3.62893e-17
3.62895e-17
3.62898e-17
3.62902e-17
3.62907e-17
3.62912e-17
3.62918e-17
3.62925e-17
3.62932e-17
3.62939e-17
3.62947e-17
3.62955e-17
3.62964e-17
3.62973e-17
3.62874e-17
3.62876e-17
3.6288e-17
3.62884e-17
3.62889e-17
3.62894e-17
3.629e-17
3.62907e-17
3.62914e-17
3.62922e-17
3.6293e-17
3.62938e-17
3.62946e-17
3.62956e-17
3.62856e-17
3.62857e-17
3.62861e-17
3.62866e-17
3.62871e-17
3.62877e-17
3.62883e-17
3.6289e-17
3.62897e-17
3.62905e-17
3.62913e-17
3.62921e-17
3.62929e-17
3.62939e-17
3.62839e-17
3.6284e-17
3.62845e-17
3.62849e-17
3.62855e-17
3.62861e-17
3.62867e-17
3.62874e-17
3.62882e-17
3.6289e-17
3.62898e-17
3.62906e-17
3.62914e-17
3.62924e-17
3.62824e-17
3.62824e-17
3.62829e-17
3.62834e-17
3.6284e-17
3.62846e-17
3.62853e-17
3.6286e-17
3.62868e-17
3.62876e-17
3.62884e-17
3.62892e-17
3.629e-17
3.6291e-17
3.62809e-17
3.6281e-17
3.62815e-17
3.6282e-17
3.62826e-17
3.62833e-17
3.6284e-17
3.62848e-17
3.62855e-17
3.62863e-17
3.62872e-17
3.62881e-17
3.62889e-17
3.62898e-17
3.62794e-17
3.62796e-17
3.62801e-17
3.62807e-17
3.62814e-17
3.62821e-17
3.62828e-17
3.62836e-17
3.62844e-17
3.62852e-17
3.6286e-17
3.62869e-17
3.62877e-17
3.62886e-17
3.62712e-17
3.62721e-17
3.6273e-17
3.62739e-17
3.62748e-17
3.62757e-17
3.62767e-17
3.62776e-17
3.62786e-17
3.62795e-17
3.62805e-17
3.62814e-17
3.62825e-17
3.62834e-17
3.62702e-17
3.62713e-17
3.62722e-17
3.62732e-17
3.62741e-17
3.62751e-17
3.62761e-17
3.6277e-17
3.6278e-17
3.6279e-17
3.628e-17
3.62809e-17
3.6282e-17
3.62829e-17
3.62695e-17
3.62706e-17
3.62715e-17
3.62724e-17
3.62734e-17
3.62744e-17
3.62754e-17
3.62764e-17
3.62774e-17
3.62784e-17
3.62794e-17
3.62804e-17
3.62815e-17
3.62824e-17
3.62687e-17
3.62698e-17
3.62707e-17
3.62717e-17
3.62727e-17
3.62737e-17
3.62747e-17
3.62757e-17
3.62767e-17
3.62777e-17
3.62787e-17
3.62797e-17
3.62808e-17
3.62818e-17
3.6268e-17
3.6269e-17
3.62699e-17
3.62709e-17
3.62719e-17
3.62729e-17
3.62739e-17
3.6275e-17
3.6276e-17
3.6277e-17
3.6278e-17
3.6279e-17
3.62801e-17
3.62811e-17
3.62672e-17
3.62682e-17
3.62691e-17
3.62701e-17
3.62711e-17
3.62721e-17
3.62732e-17
3.62742e-17
3.62752e-17
3.62762e-17
3.62773e-17
3.62783e-17
3.62793e-17
3.62803e-17
3.62664e-17
3.62674e-17
3.62683e-17
3.62693e-17
3.62703e-17
3.62713e-17
3.62724e-17
3.62734e-17
3.62744e-17
3.62754e-17
3.62765e-17
3.62775e-17
3.62785e-17
3.62796e-17
3.62656e-17
3.62666e-17
3.62676e-17
3.62685e-17
3.62695e-17
3.62705e-17
3.62716e-17
3.62726e-17
3.62736e-17
3.62746e-17
3.62757e-17
3.62767e-17
3.62777e-17
3.62787e-17
3.62649e-17
3.62658e-17
3.62668e-17
3.62678e-17
3.62688e-17
3.62698e-17
3.62708e-17
3.62718e-17
3.62728e-17
3.62738e-17
3.62748e-17
3.62759e-17
3.62769e-17
3.6278e-17
3.62641e-17
3.6265e-17
3.6266e-17
3.6267e-17
3.6268e-17
3.6269e-17
3.627e-17
3.62711e-17
3.62721e-17
3.62731e-17
3.62741e-17
3.62751e-17
3.62761e-17
3.62772e-17
3.62635e-17
3.62644e-17
3.62654e-17
3.62664e-17
3.62674e-17
3.62684e-17
3.62694e-17
3.62704e-17
3.62714e-17
3.62724e-17
3.62734e-17
3.62744e-17
3.62754e-17
3.62764e-17
3.62629e-17
3.62638e-17
3.62648e-17
3.62658e-17
3.62668e-17
3.62678e-17
3.62688e-17
3.62698e-17
3.62708e-17
3.62717e-17
3.62727e-17
3.62737e-17
3.62747e-17
3.62757e-17
3.62623e-17
3.62632e-17
3.62643e-17
3.62653e-17
3.62662e-17
3.62673e-17
3.62682e-17
3.62692e-17
3.62702e-17
3.62712e-17
3.62722e-17
3.62732e-17
3.62742e-17
3.62751e-17
3.62618e-17
3.62627e-17
3.62637e-17
3.62648e-17
3.62658e-17
3.62668e-17
3.62678e-17
3.62688e-17
3.62697e-17
3.62707e-17
3.62716e-17
3.62725e-17
3.62734e-17
3.62744e-17
3.62358e-17
3.62371e-17
3.62384e-17
3.62397e-17
3.62409e-17
3.62421e-17
3.62433e-17
3.62444e-17
3.62455e-17
3.62465e-17
3.62475e-17
3.62484e-17
3.62494e-17
3.62502e-17
3.62361e-17
3.62375e-17
3.62388e-17
3.62401e-17
3.62414e-17
3.62427e-17
3.62439e-17
3.62451e-17
3.62462e-17
3.62472e-17
3.62482e-17
3.62492e-17
3.62501e-17
3.62509e-17
3.62366e-17
3.6238e-17
3.62394e-17
3.62407e-17
3.6242e-17
3.62432e-17
3.62445e-17
3.62456e-17
3.62467e-17
3.62478e-17
3.62488e-17
3.62498e-17
3.62508e-17
3.62516e-17
3.62371e-17
3.62384e-17
3.62398e-17
3.62411e-17
3.62425e-17
3.62437e-17
3.62449e-17
3.62461e-17
3.62473e-17
3.62483e-17
3.62494e-17
3.62504e-17
3.62513e-17
3.62522e-17
3.62375e-17
3.62389e-17
3.62402e-17
3.62416e-17
3.62429e-17
3.62441e-17
3.62453e-17
3.62465e-17
3.62476e-17
3.62487e-17
3.62498e-17
3.62508e-17
3.62518e-17
3.62527e-17
3.62378e-17
3.62392e-17
3.62406e-17
3.62419e-17
3.62432e-17
3.62444e-17
3.62457e-17
3.62468e-17
3.6248e-17
3.62491e-17
3.62501e-17
3.62512e-17
3.62521e-17
3.62531e-17
3.62381e-17
3.62395e-17
3.62409e-17
3.62422e-17
3.62435e-17
3.62447e-17
3.62459e-17
3.62471e-17
3.62482e-17
3.62493e-17
3.62504e-17
3.62514e-17
3.62524e-17
3.62533e-17
3.62383e-17
3.62397e-17
3.62411e-17
3.62424e-17
3.62437e-17
3.62449e-17
3.62461e-17
3.62473e-17
3.62484e-17
3.62495e-17
3.62506e-17
3.62516e-17
3.62526e-17
3.62536e-17
3.62386e-17
3.624e-17
3.62413e-17
3.62426e-17
3.62439e-17
3.62451e-17
3.62463e-17
3.62475e-17
3.62486e-17
3.62497e-17
3.62507e-17
3.62517e-17
3.62527e-17
3.62537e-17
3.62388e-17
3.62402e-17
3.62415e-17
3.62428e-17
3.62441e-17
3.62453e-17
3.62465e-17
3.62476e-17
3.62487e-17
3.62498e-17
3.62508e-17
3.62518e-17
3.62528e-17
3.62538e-17
3.62391e-17
3.62404e-17
3.62418e-17
3.6243e-17
3.62443e-17
3.62455e-17
3.62466e-17
3.62478e-17
3.62488e-17
3.62499e-17
3.62509e-17
3.62519e-17
3.62528e-17
3.62539e-17
3.62393e-17
3.62406e-17
3.62419e-17
3.62432e-17
3.62444e-17
3.62456e-17
3.62468e-17
3.62479e-17
3.62489e-17
3.625e-17
3.62509e-17
3.62519e-17
3.62529e-17
3.62538e-17
3.62396e-17
3.62409e-17
3.62422e-17
3.62434e-17
3.62446e-17
3.62458e-17
3.62469e-17
3.6248e-17
3.6249e-17
3.625e-17
3.6251e-17
3.62519e-17
3.62529e-17
3.62538e-17
3.62399e-17
3.62411e-17
3.62424e-17
3.62436e-17
3.62448e-17
3.62459e-17
3.6247e-17
3.62481e-17
3.62491e-17
3.625e-17
3.62509e-17
3.62518e-17
3.62527e-17
3.62536e-17
3.61979e-17
3.61991e-17
3.62003e-17
3.62016e-17
3.62028e-17
3.62039e-17
3.6205e-17
3.62061e-17
3.62071e-17
3.6208e-17
3.62088e-17
3.62096e-17
3.62103e-17
3.62111e-17
3.6199e-17
3.62002e-17
3.62015e-17
3.62028e-17
3.62041e-17
3.62053e-17
3.62064e-17
3.62075e-17
3.62085e-17
3.62095e-17
3.62104e-17
3.62111e-17
3.62119e-17
3.62126e-17
3.62002e-17
3.62015e-17
3.62029e-17
3.62042e-17
3.62055e-17
3.62066e-17
3.62078e-17
3.62089e-17
3.62099e-17
3.62108e-17
3.62117e-17
3.62125e-17
3.62133e-17
3.62139e-17
3.62014e-17
3.62027e-17
3.62041e-17
3.62054e-17
3.62067e-17
3.62079e-17
3.62091e-17
3.62102e-17
3.62112e-17
3.62122e-17
3.62131e-17
3.62139e-17
3.62146e-17
3.62153e-17
3.62026e-17
3.62039e-17
3.62053e-17
3.62066e-17
3.62079e-17
3.62091e-17
3.62103e-17
3.62114e-17
3.62124e-17
3.62134e-17
3.62143e-17
3.62151e-17
3.62159e-17
3.62166e-17
3.62036e-17
3.6205e-17
3.62064e-17
3.62077e-17
3.6209e-17
3.62102e-17
3.62114e-17
3.62125e-17
3.62135e-17
3.62145e-17
3.62154e-17
3.62163e-17
3.62171e-17
3.62178e-17
3.62047e-17
3.62061e-17
3.62075e-17
3.62088e-17
3.62101e-17
3.62113e-17
3.62125e-17
3.62136e-17
3.62146e-17
3.62156e-17
3.62165e-17
3.62173e-17
3.62181e-17
3.62189e-17
3.62057e-17
3.62071e-17
3.62085e-17
3.62098e-17
3.62111e-17
3.62123e-17
3.62135e-17
3.62146e-17
3.62156e-17
3.62166e-17
3.62175e-17
3.62183e-17
3.62191e-17
3.62199e-17
3.62067e-17
3.62081e-17
3.62095e-17
3.62108e-17
3.62121e-17
3.62133e-17
3.62144e-17
3.62155e-17
3.62165e-17
3.62175e-17
3.62184e-17
3.62192e-17
3.622e-17
3.62208e-17
3.62076e-17
3.6209e-17
3.62104e-17
3.62117e-17
3.6213e-17
3.62142e-17
3.62153e-17
3.62164e-17
3.62174e-17
3.62183e-17
3.62192e-17
3.622e-17
3.62209e-17
3.62216e-17
3.62085e-17
3.62099e-17
3.62113e-17
3.62126e-17
3.62138e-17
3.6215e-17
3.62161e-17
3.62171e-17
3.62181e-17
3.62191e-17
3.62199e-17
3.62208e-17
3.62216e-17
3.62224e-17
3.62094e-17
3.62108e-17
3.62121e-17
3.62134e-17
3.62146e-17
3.62157e-17
3.62168e-17
3.62179e-17
3.62188e-17
3.62197e-17
3.62206e-17
3.62214e-17
3.62222e-17
3.6223e-17
3.62103e-17
3.62116e-17
3.62129e-17
3.62142e-17
3.62153e-17
3.62164e-17
3.62175e-17
3.62185e-17
3.62194e-17
3.62203e-17
3.62212e-17
3.6222e-17
3.62228e-17
3.62236e-17
3.62111e-17
3.62125e-17
3.62137e-17
3.62149e-17
3.6216e-17
3.62171e-17
3.62181e-17
3.62191e-17
3.622e-17
3.62208e-17
3.62216e-17
3.62224e-17
3.62232e-17
3.6224e-17
3.61594e-17
3.61602e-17
3.61611e-17
3.6162e-17
3.61629e-17
3.61637e-17
3.61646e-17
3.61653e-17
3.6166e-17
3.61667e-17
3.61673e-17
3.61678e-17
3.61683e-17
3.61689e-17
3.61607e-17
3.61615e-17
3.61625e-17
3.61634e-17
3.61644e-17
3.61652e-17
3.61661e-17
3.61669e-17
3.61676e-17
3.61683e-17
3.61689e-17
3.61695e-17
3.617e-17
3.61705e-17
3.61621e-17
3.6163e-17
3.6164e-17
3.6165e-17
3.61659e-17
3.61668e-17
3.61676e-17
3.61684e-17
3.61692e-17
3.61698e-17
3.61704e-17
3.6171e-17
3.61715e-17
3.6172e-17
3.61635e-17
3.61644e-17
3.61655e-17
3.61664e-17
3.61674e-17
3.61683e-17
3.61691e-17
3.61699e-17
3.61707e-17
3.61714e-17
3.6172e-17
3.61726e-17
3.61731e-17
3.61736e-17
3.61649e-17
3.61659e-17
3.61669e-17
3.61679e-17
3.61688e-17
3.61697e-17
3.61706e-17
3.61714e-17
3.61722e-17
3.61728e-17
3.61735e-17
3.61741e-17
3.61746e-17
3.61751e-17
3.61662e-17
3.61673e-17
3.61683e-17
3.61693e-17
3.61703e-17
3.61712e-17
3.6172e-17
3.61729e-17
3.61736e-17
3.61743e-17
3.61749e-17
3.61755e-17
3.61761e-17
3.61765e-17
3.61675e-17
3.61686e-17
3.61697e-17
3.61707e-17
3.61717e-17
3.61726e-17
3.61734e-17
3.61743e-17
3.6175e-17
3.61757e-17
3.61764e-17
3.61769e-17
3.61775e-17
3.6178e-17
3.61689e-17
3.617e-17
3.6171e-17
3.6172e-17
3.6173e-17
3.61739e-17
3.61748e-17
3.61756e-17
3.61764e-17
3.61771e-17
3.61777e-17
3.61783e-17
3.61789e-17
3.61793e-17
3.61701e-17
3.61713e-17
3.61723e-17
3.61733e-17
3.61743e-17
3.61752e-17
3.61761e-17
3.61769e-17
3.61777e-17
3.61783e-17
3.6179e-17
3.61796e-17
3.61801e-17
3.61806e-17
3.61714e-17
3.61725e-17
3.61736e-17
3.61746e-17
3.61755e-17
3.61765e-17
3.61773e-17
3.61781e-17
3.61789e-17
3.61796e-17
3.61802e-17
3.61808e-17
3.61813e-17
3.61818e-17
3.61726e-17
3.61737e-17
3.61747e-17
3.61758e-17
3.61767e-17
3.61776e-17
3.61785e-17
3.61793e-17
3.618e-17
3.61807e-17
3.61813e-17
3.61819e-17
3.61824e-17
3.61829e-17
3.61738e-17
3.61749e-17
3.61759e-17
3.61769e-17
3.61778e-17
3.61787e-17
3.61796e-17
3.61803e-17
3.61811e-17
3.61817e-17
3.61823e-17
3.61829e-17
3.61835e-17
3.6184e-17
3.61749e-17
3.6176e-17
3.6177e-17
3.6178e-17
3.61789e-17
3.61797e-17
3.61805e-17
3.61813e-17
3.6182e-17
3.61826e-17
3.61833e-17
3.61838e-17
3.61844e-17
3.6185e-17
3.61761e-17
3.61771e-17
3.61781e-17
3.6179e-17
3.61799e-17
3.61807e-17
3.61815e-17
3.61822e-17
3.61829e-17
3.61835e-17
3.61841e-17
3.61846e-17
3.61852e-17
3.61858e-17
3.61229e-17
3.61232e-17
3.61237e-17
3.61241e-17
3.61246e-17
3.6125e-17
3.61255e-17
3.61259e-17
3.61262e-17
3.61266e-17
3.61269e-17
3.61272e-17
3.61275e-17
3.61279e-17
3.6124e-17
3.61243e-17
3.61248e-17
3.61253e-17
3.61258e-17
3.61262e-17
3.61267e-17
3.61271e-17
3.61275e-17
3.61278e-17
3.61281e-17
3.61285e-17
3.61287e-17
3.61291e-17
3.61251e-17
3.61255e-17
3.6126e-17
3.61265e-17
3.6127e-17
3.61275e-17
3.61279e-17
3.61283e-17
3.61287e-17
3.6129e-17
3.61294e-17
3.61297e-17
3.61299e-17
3.61303e-17
3.61262e-17
3.61267e-17
3.61272e-17
3.61277e-17
3.61282e-17
3.61287e-17
3.61291e-17
3.61296e-17
3.61299e-17
3.61303e-17
3.61306e-17
3.61309e-17
3.61312e-17
3.61315e-17
3.61274e-17
3.61279e-17
3.61284e-17
3.6129e-17
3.61295e-17
3.61299e-17
3.61304e-17
3.61308e-17
3.61312e-17
3.61316e-17
3.61319e-17
3.61322e-17
3.61324e-17
3.61327e-17
3.61286e-17
3.61291e-17
3.61297e-17
3.61302e-17
3.61307e-17
3.61312e-17
3.61316e-17
3.61321e-17
3.61325e-17
3.61328e-17
3.61331e-17
3.61334e-17
3.61337e-17
3.6134e-17
3.61297e-17
3.61303e-17
3.61309e-17
3.61314e-17
3.61319e-17
3.61324e-17
3.61329e-17
3.61333e-17
3.61337e-17
3.61341e-17
3.61344e-17
3.61347e-17
3.6135e-17
3.61352e-17
3.61309e-17
3.61315e-17
3.61321e-17
3.61326e-17
3.61331e-17
3.61336e-17
3.61341e-17
3.61345e-17
3.61349e-17
3.61353e-17
3.61356e-17
3.61359e-17
3.61362e-17
3.61364e-17
3.61321e-17
3.61327e-17
3.61333e-17
3.61338e-17
3.61343e-17
3.61348e-17
3.61353e-17
3.61357e-17
3.61361e-17
3.61365e-17
3.61368e-17
3.61371e-17
3.61374e-17
3.61376e-17
3.61332e-17
3.61339e-17
3.61344e-17
3.6135e-17
3.61355e-17
3.6136e-17
3.61364e-17
3.61369e-17
3.61373e-17
3.61376e-17
3.6138e-17
3.61382e-17
3.61385e-17
3.61387e-17
3.61343e-17
3.6135e-17
3.61355e-17
3.61361e-17
3.61366e-17
3.61371e-17
3.61375e-17
3.6138e-17
3.61384e-17
3.61387e-17
3.61391e-17
3.61393e-17
3.61396e-17
3.61398e-17
3.61354e-17
3.61361e-17
3.61366e-17
3.61372e-17
3.61377e-17
3.61381e-17
3.61386e-17
3.6139e-17
3.61394e-17
3.61398e-17
3.61401e-17
3.61404e-17
3.61406e-17
3.61408e-17
3.61365e-17
3.61371e-17
3.61376e-17
3.61382e-17
3.61387e-17
3.61391e-17
3.61396e-17
3.614e-17
3.61404e-17
3.61407e-17
3.6141e-17
3.61413e-17
3.61416e-17
3.61418e-17
3.61376e-17
3.61382e-17
3.61387e-17
3.61392e-17
3.61397e-17
3.61401e-17
3.61405e-17
3.61409e-17
3.61413e-17
3.61416e-17
3.61419e-17
3.61422e-17
3.61425e-17
3.61428e-17
3.60891e-17
3.60892e-17
3.60893e-17
3.60894e-17
3.60895e-17
3.60896e-17
3.60897e-17
3.60898e-17
3.60899e-17
3.609e-17
3.609e-17
3.60901e-17
3.60902e-17
3.60903e-17
3.60899e-17
3.60899e-17
3.609e-17
3.60901e-17
3.60903e-17
3.60904e-17
3.60905e-17
3.60905e-17
3.60906e-17
3.60907e-17
3.60908e-17
3.60909e-17
3.60909e-17
3.6091e-17
3.60906e-17
3.60906e-17
3.60908e-17
3.60909e-17
3.6091e-17
3.60911e-17
3.60912e-17
3.60913e-17
3.60914e-17
3.60915e-17
3.60915e-17
3.60916e-17
3.60916e-17
3.60917e-17
3.60914e-17
3.60914e-17
3.60915e-17
3.60917e-17
3.60918e-17
3.60919e-17
3.6092e-17
3.60921e-17
3.60922e-17
3.60922e-17
3.60923e-17
3.60923e-17
3.60924e-17
3.60925e-17
3.60921e-17
3.60922e-17
3.60923e-17
3.60924e-17
3.60926e-17
3.60927e-17
3.60928e-17
3.60929e-17
3.60929e-17
3.6093e-17
3.60931e-17
3.60931e-17
3.60932e-17
3.60932e-17
3.60929e-17
3.6093e-17
3.60931e-17
3.60932e-17
3.60934e-17
3.60935e-17
3.60936e-17
3.60937e-17
3.60937e-17
3.60938e-17
3.60939e-17
3.60939e-17
3.60939e-17
3.6094e-17
3.60936e-17
3.60938e-17
3.60939e-17
3.6094e-17
3.60942e-17
3.60943e-17
3.60944e-17
3.60945e-17
3.60945e-17
3.60946e-17
3.60947e-17
3.60947e-17
3.60947e-17
3.60947e-17
3.60944e-17
3.60946e-17
3.60947e-17
3.60948e-17
3.6095e-17
3.60951e-17
3.60952e-17
3.60953e-17
3.60953e-17
3.60954e-17
3.60955e-17
3.60955e-17
3.60955e-17
3.60955e-17
3.60952e-17
3.60954e-17
3.60955e-17
3.60956e-17
3.60958e-17
3.60959e-17
3.6096e-17
3.6096e-17
3.60961e-17
3.60962e-17
3.60962e-17
3.60963e-17
3.60963e-17
3.60963e-17
3.60959e-17
3.60961e-17
3.60963e-17
3.60964e-17
3.60965e-17
3.60966e-17
3.60967e-17
3.60968e-17
3.60969e-17
3.6097e-17
3.6097e-17
3.6097e-17
3.60971e-17
3.6097e-17
3.60967e-17
3.60969e-17
3.6097e-17
3.60972e-17
3.60973e-17
3.60974e-17
3.60975e-17
3.60976e-17
3.60977e-17
3.60977e-17
3.60978e-17
3.60978e-17
3.60978e-17
3.60978e-17
3.60974e-17
3.60976e-17
3.60978e-17
3.60979e-17
3.6098e-17
3.60981e-17
3.60982e-17
3.60983e-17
3.60984e-17
3.60985e-17
3.60985e-17
3.60985e-17
3.60986e-17
3.60985e-17
3.60981e-17
3.60983e-17
3.60985e-17
3.60986e-17
3.60987e-17
3.60988e-17
3.60989e-17
3.6099e-17
3.60991e-17
3.60992e-17
3.60992e-17
3.60993e-17
3.60993e-17
3.60992e-17
3.60989e-17
3.6099e-17
3.60991e-17
3.60993e-17
3.60994e-17
3.60995e-17
3.60996e-17
3.60997e-17
3.60998e-17
3.60998e-17
3.60999e-17
3.60999e-17
3.61e-17
3.61e-17
3.60574e-17
3.60574e-17
3.60573e-17
3.60573e-17
3.60572e-17
3.60571e-17
3.6057e-17
3.60569e-17
3.60568e-17
3.60567e-17
3.60566e-17
3.60565e-17
3.60564e-17
3.60563e-17
3.60579e-17
3.60578e-17
3.60577e-17
3.60576e-17
3.60576e-17
3.60575e-17
3.60574e-17
3.60573e-17
3.60572e-17
3.60571e-17
3.6057e-17
3.60569e-17
3.60567e-17
3.60567e-17
3.60582e-17
3.60582e-17
3.60581e-17
3.6058e-17
3.60579e-17
3.60578e-17
3.60577e-17
3.60576e-17
3.60575e-17
3.60574e-17
3.60573e-17
3.60572e-17
3.60571e-17
3.6057e-17
3.60586e-17
3.60585e-17
3.60585e-17
3.60584e-17
3.60583e-17
3.60582e-17
3.60581e-17
3.6058e-17
3.60579e-17
3.60578e-17
3.60577e-17
3.60575e-17
3.60574e-17
3.60573e-17
3.6059e-17
3.60589e-17
3.60588e-17
3.60588e-17
3.60587e-17
3.60586e-17
3.60585e-17
3.60584e-17
3.60582e-17
3.60581e-17
3.6058e-17
3.60579e-17
3.60577e-17
3.60576e-17
3.60594e-17
3.60593e-17
3.60592e-17
3.60591e-17
3.6059e-17
3.60589e-17
3.60588e-17
3.60587e-17
3.60586e-17
3.60585e-17
3.60583e-17
3.60582e-17
3.60581e-17
3.60579e-17
3.60598e-17
3.60597e-17
3.60596e-17
3.60595e-17
3.60594e-17
3.60593e-17
3.60592e-17
3.60591e-17
3.60589e-17
3.60588e-17
3.60587e-17
3.60586e-17
3.60584e-17
3.60583e-17
3.60601e-17
3.606e-17
3.60599e-17
3.60598e-17
3.60597e-17
3.60596e-17
3.60595e-17
3.60594e-17
3.60593e-17
3.60592e-17
3.6059e-17
3.60589e-17
3.60588e-17
3.60586e-17
3.60605e-17
3.60604e-17
3.60603e-17
3.60602e-17
3.60601e-17
3.606e-17
3.60599e-17
3.60598e-17
3.60596e-17
3.60595e-17
3.60594e-17
3.60592e-17
3.60591e-17
3.60589e-17
3.60608e-17
3.60607e-17
3.60606e-17
3.60605e-17
3.60604e-17
3.60603e-17
3.60602e-17
3.60601e-17
3.606e-17
3.60599e-17
3.60597e-17
3.60596e-17
3.60594e-17
3.60592e-17
3.60611e-17
3.60611e-17
3.6061e-17
3.60609e-17
3.60608e-17
3.60607e-17
3.60606e-17
3.60604e-17
3.60603e-17
3.60602e-17
3.60601e-17
3.60599e-17
3.60598e-17
3.60595e-17
3.60614e-17
3.60614e-17
3.60613e-17
3.60612e-17
3.60611e-17
3.6061e-17
3.60609e-17
3.60608e-17
3.60607e-17
3.60605e-17
3.60604e-17
3.60602e-17
3.60601e-17
3.60599e-17
3.60617e-17
3.60616e-17
3.60615e-17
3.60615e-17
3.60614e-17
3.60613e-17
3.60612e-17
3.60611e-17
3.6061e-17
3.60609e-17
3.60607e-17
3.60606e-17
3.60604e-17
3.60602e-17
3.60619e-17
3.60618e-17
3.60618e-17
3.60617e-17
3.60616e-17
3.60615e-17
3.60615e-17
3.60614e-17
3.60613e-17
3.60612e-17
3.6061e-17
3.60609e-17
3.60607e-17
3.60605e-17
3.60267e-17
3.60267e-17
3.60266e-17
3.60265e-17
3.60264e-17
3.60263e-17
3.60261e-17
3.6026e-17
3.60258e-17
3.60256e-17
3.60254e-17
3.60252e-17
3.6025e-17
3.60248e-17
3.60269e-17
3.60269e-17
3.60268e-17
3.60267e-17
3.60266e-17
3.60264e-17
3.60263e-17
3.60261e-17
3.60259e-17
3.60257e-17
3.60255e-17
3.60253e-17
3.60251e-17
3.60249e-17
3.60271e-17
3.6027e-17
3.60269e-17
3.60268e-17
3.60267e-17
3.60266e-17
3.60264e-17
3.60262e-17
3.60261e-17
3.60259e-17
3.60257e-17
3.60254e-17
3.60252e-17
3.6025e-17
3.60272e-17
3.60272e-17
3.60271e-17
3.60269e-17
3.60268e-17
3.60267e-17
3.60265e-17
3.60263e-17
3.60262e-17
3.6026e-17
3.60258e-17
3.60255e-17
3.60253e-17
3.60251e-17
3.60274e-17
3.60273e-17
3.60272e-17
3.60271e-17
3.60269e-17
3.60268e-17
3.60266e-17
3.60264e-17
3.60262e-17
3.6026e-17
3.60258e-17
3.60256e-17
3.60254e-17
3.60251e-17
3.60275e-17
3.60274e-17
3.60273e-17
3.60271e-17
3.6027e-17
3.60268e-17
3.60267e-17
3.60265e-17
3.60263e-17
3.60261e-17
3.60259e-17
3.60257e-17
3.60254e-17
3.60252e-17
3.60276e-17
3.60275e-17
3.60273e-17
3.60272e-17
3.60271e-17
3.60269e-17
3.60267e-17
3.60266e-17
3.60264e-17
3.60262e-17
3.6026e-17
3.60257e-17
3.60255e-17
3.60252e-17
3.60276e-17
3.60275e-17
3.60274e-17
3.60273e-17
3.60271e-17
3.6027e-17
3.60268e-17
3.60266e-17
3.60264e-17
3.60262e-17
3.6026e-17
3.60258e-17
3.60255e-17
3.60253e-17
3.60277e-17
3.60275e-17
3.60274e-17
3.60273e-17
3.60271e-17
3.6027e-17
3.60268e-17
3.60266e-17
3.60265e-17
3.60263e-17
3.6026e-17
3.60258e-17
3.60255e-17
3.60253e-17
3.60277e-17
3.60275e-17
3.60274e-17
3.60273e-17
3.60272e-17
3.6027e-17
3.60268e-17
3.60267e-17
3.60265e-17
3.60263e-17
3.60261e-17
3.60258e-17
3.60256e-17
3.60253e-17
3.60276e-17
3.60275e-17
3.60274e-17
3.60273e-17
3.60272e-17
3.6027e-17
3.60269e-17
3.60267e-17
3.60265e-17
3.60263e-17
3.60261e-17
3.60258e-17
3.60256e-17
3.60253e-17
3.60276e-17
3.60275e-17
3.60274e-17
3.60273e-17
3.60271e-17
3.6027e-17
3.60268e-17
3.60267e-17
3.60265e-17
3.60263e-17
3.60261e-17
3.60258e-17
3.60256e-17
3.60253e-17
3.60275e-17
3.60274e-17
3.60273e-17
3.60272e-17
3.60271e-17
3.6027e-17
3.60268e-17
3.60267e-17
3.60265e-17
3.60263e-17
3.60261e-17
3.60258e-17
3.60256e-17
3.60253e-17
3.60274e-17
3.60273e-17
3.60272e-17
3.60271e-17
3.6027e-17
3.60269e-17
3.60268e-17
3.60266e-17