/*--------------------------------*- C++ -*----------------------------------*\
| =========                 |                                                 |
| \\      /  F ield         | OpenFOAM: The Open Source CFD Toolbox           |
|  \\    /   O peration     | Version:  v2106                                 |
|   \\  /    A nd           | Website:  www.openfoam.com                      |
|    \\/     M anipulation  |                                                 |
\*---------------------------------------------------------------------------*/
FoamFile
{
    version     2.0;
    format      ascii;
    arch        "LSB;label=32;scalar=64";
    class       volScalarField;
    location    "0.000139";
    object      alphat;
}
// * * * * * * * * * * * * * * * * * * * * * * * * * * * * * * * * * * * * * //

dimensions      [1 -1 -1 0 0 0 0];

internalField   nonuniform List<scalar> 
144746
(
6.3756e-05
5.78747e-05
5.3209e-05
4.68295e-05
3.95659e-05
3.13598e-05
2.41044e-05
1.83492e-05
1.3672e-05
9.80362e-06
6.90539e-06
6.26907e-06
9.35588e-06
1.71815e-05
4.18931e-05
3.78148e-05
3.41653e-05
2.918e-05
2.38794e-05
1.83481e-05
1.39964e-05
1.0506e-05
7.79554e-06
5.66408e-06
4.1847e-06
4.64699e-06
8.61545e-06
1.67393e-05
2.56863e-05
2.23314e-05
1.89941e-05
1.51168e-05
1.145e-05
8.0843e-06
5.94227e-06
4.33329e-06
3.23297e-06
2.48798e-06
2.1516e-06
3.50208e-06
8.07914e-06
1.64922e-05
1.66203e-05
1.30286e-05
9.52843e-06
6.29736e-06
3.91053e-06
2.52384e-06
1.6614e-06
1.15136e-06
8.92015e-07
7.89748e-07
1.0149e-06
2.72949e-06
7.41464e-06
1.57341e-05
1.4622e-05
1.06793e-05
6.94453e-06
3.9304e-06
1.99005e-06
9.00295e-07
3.92176e-07
2.00952e-07
1.54481e-07
1.96333e-07
5.72956e-07
2.25846e-06
6.61447e-06
1.43027e-05
1.77196e-05
1.33477e-05
8.78896e-06
4.79038e-06
2.1863e-06
8.21851e-07
2.47584e-07
6.26683e-08
2.37093e-08
6.54162e-08
4.31735e-07
1.94916e-06
5.80286e-06
1.26045e-05
2.2979e-05
1.75082e-05
1.13789e-05
6.10197e-06
2.67348e-06
9.39523e-07
2.64789e-07
6.73652e-08
2.41884e-08
5.40212e-08
3.72741e-07
1.68304e-06
5.00365e-06
1.0872e-05
2.9916e-05
2.28211e-05
1.4984e-05
8.13711e-06
3.5682e-06
1.2662e-06
4.00874e-07
1.61861e-07
1.02061e-07
1.10185e-07
3.57154e-07
1.41493e-06
4.1359e-06
9.00892e-06
3.85293e-05
2.91337e-05
1.92133e-05
1.06362e-05
4.79935e-06
1.83771e-06
7.58983e-07
4.86098e-07
4.09079e-07
3.86168e-07
5.33305e-07
1.28358e-06
3.29447e-06
7.04425e-06
4.89243e-05
3.63928e-05
2.38955e-05
1.34098e-05
6.30379e-06
2.74833e-06
1.56278e-06
1.35633e-06
1.32436e-06
1.29895e-06
1.3298e-06
1.71475e-06
2.89817e-06
5.39711e-06
5.90296e-05
4.34482e-05
2.83576e-05
1.61369e-05
8.04728e-06
4.17063e-06
3.14958e-06
3.25112e-06
3.45998e-06
3.57801e-06
3.56425e-06
3.6092e-06
3.94941e-06
5.20393e-06
6.82845e-05
4.98386e-05
3.23223e-05
1.87271e-05
1.01084e-05
6.34109e-06
5.86673e-06
6.62751e-06
7.44057e-06
8.02979e-06
8.18805e-06
7.98118e-06
7.49148e-06
7.52326e-06
7.43232e-05
5.3858e-05
3.48588e-05
2.07811e-05
1.24323e-05
9.37723e-06
9.84015e-06
1.15975e-05
1.34638e-05
1.50213e-05
1.57893e-05
1.5598e-05
1.44629e-05
1.34162e-05
7.95705e-05
5.68722e-05
3.69229e-05
2.28256e-05
1.5245e-05
1.32812e-05
1.48983e-05
1.78952e-05
2.12285e-05
2.4321e-05
2.63792e-05
2.67416e-05
2.54645e-05
2.40388e-05
0.000102083
8.79713e-05
7.6367e-05
6.35715e-05
5.14428e-05
3.93434e-05
2.9047e-05
2.08291e-05
1.45428e-05
9.923e-06
8.01141e-06
1.08598e-05
1.99808e-05
3.68852e-05
7.45054e-05
6.40509e-05
5.47811e-05
4.45015e-05
3.47722e-05
2.54549e-05
1.81959e-05
1.25908e-05
8.57585e-06
5.91985e-06
5.40977e-06
9.19276e-06
1.87887e-05
3.43779e-05
4.86977e-05
4.13306e-05
3.39676e-05
2.60842e-05
1.87359e-05
1.2321e-05
8.1544e-06
5.3294e-06
3.60645e-06
2.69399e-06
3.28473e-06
7.60254e-06
1.71722e-05
3.17847e-05
3.0066e-05
2.3978e-05
1.75881e-05
1.17052e-05
6.90449e-06
3.99439e-06
2.29466e-06
1.38383e-06
9.65949e-07
9.15958e-07
1.93696e-06
6.10456e-06
1.49662e-05
2.82478e-05
2.08756e-05
1.5465e-05
1.00305e-05
5.75576e-06
2.94001e-06
1.29248e-06
5.2279e-07
2.29355e-07
1.59916e-07
2.90319e-07
1.28027e-06
4.84243e-06
1.24917e-05
2.39971e-05
2.07343e-05
1.60333e-05
1.10339e-05
6.42783e-06
3.05842e-06
1.16833e-06
3.46197e-07
8.05155e-08
2.88028e-08
1.38291e-07
9.39999e-07
3.78804e-06
1.00609e-05
1.96718e-05
2.60204e-05
2.11658e-05
1.49837e-05
8.56481e-06
3.90832e-06
1.40386e-06
4.00151e-07
1.08387e-07
4.76644e-08
1.19017e-07
7.24155e-07
2.92181e-06
7.87073e-06
1.564e-05
3.45236e-05
2.88001e-05
2.06938e-05
1.20756e-05
5.58623e-06
2.05617e-06
6.77168e-07
3.0423e-07
2.16278e-07
2.4383e-07
6.50006e-07
2.22519e-06
5.92161e-06
1.19419e-05
4.53121e-05
3.80396e-05
2.76619e-05
1.6675e-05
8.02068e-06
3.18969e-06
1.35141e-06
9.25793e-07
8.44456e-07
8.60399e-07
1.09513e-06
2.09425e-06
4.53176e-06
8.75293e-06
5.93268e-05
4.93516e-05
3.601e-05
2.21765e-05
1.11629e-05
4.94511e-06
2.74844e-06
2.46681e-06
2.5874e-06
2.7664e-06
2.94835e-06
3.47778e-06
4.73148e-06
7.22669e-06
7.45638e-05
6.16289e-05
4.48973e-05
2.81111e-05
1.49111e-05
7.50044e-06
5.24979e-06
5.52534e-06
6.31446e-06
7.10801e-06
7.6053e-06
7.97498e-06
8.27819e-06
9.28808e-06
9.13932e-05
7.50061e-05
5.40914e-05
3.41835e-05
1.91251e-05
1.09916e-05
9.12209e-06
1.04532e-05
1.25518e-05
1.46755e-05
1.61257e-05
1.68261e-05
1.6534e-05
1.63032e-05
0.000106084
8.64976e-05
6.18049e-05
3.94597e-05
2.34105e-05
1.52912e-05
1.42328e-05
1.69448e-05
2.08402e-05
2.50122e-05
2.83162e-05
3.02535e-05
3.03184e-05
2.95698e-05
0.000121981
9.76048e-05
6.88549e-05
4.42891e-05
2.76966e-05
2.00769e-05
1.99805e-05
2.41527e-05
3.01363e-05
3.69618e-05
4.32437e-05
4.78004e-05
4.98721e-05
5.06103e-05
0.000122015
0.000101152
8.46623e-05
6.89449e-05
5.51909e-05
4.22101e-05
3.12198e-05
2.16001e-05
1.45593e-05
1.05042e-05
1.19185e-05
2.13238e-05
3.98527e-05
6.81627e-05
0.000101938
8.50564e-05
7.05607e-05
5.63596e-05
4.31106e-05
3.09632e-05
2.10148e-05
1.33946e-05
8.63065e-06
6.4882e-06
8.85146e-06
1.8476e-05
3.59161e-05
5.99741e-05
7.54668e-05
6.27594e-05
5.06411e-05
3.82927e-05
2.65514e-05
1.66855e-05
9.90264e-06
5.73958e-06
3.59879e-06
3.14526e-06
6.06814e-06
1.52854e-05
3.12107e-05
5.15424e-05
5.0156e-05
3.97034e-05
2.92168e-05
1.94184e-05
1.12537e-05
5.6645e-06
2.78995e-06
1.44612e-06
9.51993e-07
1.26333e-06
3.96339e-06
1.18767e-05
2.56174e-05
4.27484e-05
3.20696e-05
2.33447e-05
1.50156e-05
8.43016e-06
3.99204e-06
1.59994e-06
5.91114e-07
2.2163e-07
1.65657e-07
5.48305e-07
2.64921e-06
8.8358e-06
2.00816e-05
3.42894e-05
2.52741e-05
1.87735e-05
1.24993e-05
7.38436e-06
3.57316e-06
1.36216e-06
3.87582e-07
7.87075e-08
4.02155e-08
3.12131e-07
1.81272e-06
6.35364e-06
1.5086e-05
2.65924e-05
2.80388e-05
2.31253e-05
1.68895e-05
9.99626e-06
4.65203e-06
1.67255e-06
4.65289e-07
1.26877e-07
7.10768e-08
2.42178e-07
1.27964e-06
4.52042e-06
1.10054e-05
2.00058e-05
3.59232e-05
3.18305e-05
2.43157e-05
1.48403e-05
7.07061e-06
2.6223e-06
8.61862e-07
4.15196e-07
3.27413e-07
4.25853e-07
1.0778e-06
3.21714e-06
7.68979e-06
1.43089e-05
4.56494e-05
4.20747e-05
3.34675e-05
2.16064e-05
1.0843e-05
4.3589e-06
1.83554e-06
1.32747e-06
1.30394e-06
1.46932e-06
1.91768e-06
3.26061e-06
6.03936e-06
1.04432e-05
5.80276e-05
5.44851e-05
4.46224e-05
3.02146e-05
1.6132e-05
7.18086e-06
3.83723e-06
3.53409e-06
3.95995e-06
4.62514e-06
5.30984e-06
6.36236e-06
7.95472e-06
1.061e-05
7.18977e-05
6.81114e-05
5.69385e-05
3.99494e-05
2.27415e-05
1.13037e-05
7.28324e-06
7.69217e-06
9.35924e-06
1.13828e-05
1.31492e-05
1.47156e-05
1.58084e-05
1.73344e-05
8.95351e-05
8.43326e-05
7.05424e-05
5.03672e-05
3.03086e-05
1.67856e-05
1.23499e-05
1.39224e-05
1.76375e-05
2.2023e-05
2.58587e-05
2.89667e-05
3.05349e-05
3.17801e-05
0.000108643
0.000101801
8.40846e-05
6.05794e-05
3.82498e-05
2.33235e-05
1.86814e-05
2.14284e-05
2.72701e-05
3.45539e-05
4.1511e-05
4.76968e-05
5.17919e-05
5.44399e-05
0.000132347
0.00012065
9.71208e-05
7.03204e-05
4.59333e-05
3.00643e-05
2.52191e-05
2.87576e-05
3.63989e-05
4.64897e-05
5.72557e-05
6.81236e-05
7.75303e-05
8.44088e-05
3.01714e-05
4.34261e-05
5.81991e-05
6.89362e-05
0.000107011
8.11626e-05
2.89475e-05
4.3e-05
6.05198e-05
7.56034e-05
0.000108193
7.98573e-05
2.8622e-05
4.40904e-05
6.49169e-05
8.64792e-05
0.000123636
8.06551e-05
2.76381e-05
4.42263e-05
6.76086e-05
9.64391e-05
0.000144418
8.41901e-05
2.53807e-05
4.1747e-05
6.61849e-05
0.000101914
0.000167359
8.99224e-05
2.24323e-05
3.7191e-05
6.02349e-05
0.000100703
0.000187664
9.65696e-05
1.93018e-05
3.16493e-05
5.15842e-05
9.25562e-05
0.000197558
0.000103747
1.60943e-05
2.60518e-05
4.26294e-05
8.07109e-05
0.000196417
0.000109499
1.2796e-05
2.07661e-05
3.43196e-05
6.82046e-05
0.000186238
0.000112185
9.74004e-06
1.61108e-05
2.73002e-05
5.65883e-05
0.000167794
0.000111775
8.08235e-06
1.33235e-05
2.29263e-05
4.75442e-05
0.000144057
0.000109068
9.14537e-06
1.40733e-05
2.32431e-05
4.38149e-05
0.00012092
0.000105055
1.427e-05
2.01531e-05
3.04211e-05
4.69487e-05
0.000102178
0.00010003
2.4508e-05
3.29024e-05
4.52085e-05
5.68983e-05
9.59122e-05
9.08445e-05
6.14037e-05
8.24623e-05
9.9588e-05
0.000104395
0.000107892
7.5296e-05
5.52513e-05
7.75554e-05
0.000100552
0.000116991
0.000125838
8.1127e-05
5.07389e-05
7.36782e-05
0.00010107
0.000126909
0.000146397
9.03791e-05
4.52784e-05
6.77703e-05
9.70647e-05
0.00013073
0.000164576
0.000100893
3.85884e-05
5.87406e-05
8.67318e-05
0.000125748
0.000177176
0.000109912
3.17584e-05
4.83349e-05
7.217e-05
0.000112329
0.000182414
0.000115793
2.53626e-05
3.81077e-05
5.65886e-05
9.34016e-05
0.000178551
0.000118014
1.96632e-05
2.92057e-05
4.34675e-05
7.41683e-05
0.000163234
0.000117156
1.47101e-05
2.20859e-05
3.32993e-05
5.84529e-05
0.000141037
0.000113331
1.14464e-05
1.75946e-05
2.72876e-05
4.84049e-05
0.000117198
0.000107447
1.18642e-05
1.79422e-05
2.78925e-05
4.67905e-05
9.84225e-05
0.000100823
1.78078e-05
2.57249e-05
3.80784e-05
5.54613e-05
8.78702e-05
9.45684e-05
3.08789e-05
4.26203e-05
5.84649e-05
7.31394e-05
8.46367e-05
8.89236e-05
5.15092e-05
6.75161e-05
8.54007e-05
9.4211e-05
9.15453e-05
8.02282e-05
0.000101661
0.000124259
0.00014145
0.000151735
0.000140993
9.22287e-05
8.66906e-05
0.000110481
0.000131971
0.000150556
0.000149853
0.000107028
7.35377e-05
9.59046e-05
0.000119302
0.000142342
0.000153392
0.000119115
6.08174e-05
8.05333e-05
0.00010234
0.00012732
0.00014966
0.000126985
4.88081e-05
6.5135e-05
8.36679e-05
0.000108002
0.000138536
0.000130177
3.82268e-05
5.11107e-05
6.59146e-05
8.7613e-05
0.000124439
0.00012871
2.93408e-05
3.92701e-05
5.05956e-05
6.84127e-05
0.000107767
0.000122553
2.17409e-05
2.94692e-05
3.87211e-05
5.2988e-05
9.03494e-05
0.0001126
1.62304e-05
2.2807e-05
3.12414e-05
4.39777e-05
7.65107e-05
0.000101827
1.46592e-05
2.17022e-05
3.13751e-05
4.49266e-05
7.28254e-05
9.39368e-05
1.99868e-05
2.97138e-05
4.35178e-05
6.03248e-05
8.47647e-05
9.18605e-05
3.38757e-05
4.90717e-05
6.93106e-05
8.93382e-05
0.000107244
9.27203e-05
5.60812e-05
7.74171e-05
0.000102671
0.000123614
0.000129167
9.31257e-05
8.3792e-05
0.000106474
0.000132196
0.000149032
0.000141223
8.91889e-05
4.00791e-05
5.31229e-05
6.48634e-05
6.95403e-05
0.000102308
8.21667e-05
4.04188e-05
5.5159e-05
7.15388e-05
8.25104e-05
0.000112046
8.06923e-05
4.11067e-05
5.77199e-05
7.83784e-05
9.76602e-05
0.00013362
8.16845e-05
3.96225e-05
5.70612e-05
8.10176e-05
0.000109802
0.000159689
8.55441e-05
3.57594e-05
5.22978e-05
7.68267e-05
0.000113878
0.000183865
9.11268e-05
3.05608e-05
4.47343e-05
6.71878e-05
0.000108946
0.000200592
9.65302e-05
2.53767e-05
3.6917e-05
5.61074e-05
9.85866e-05
0.000207585
0.000100538
2.10444e-05
3.05419e-05
4.6786e-05
8.67147e-05
0.000204814
0.000103179
1.83828e-05
2.64799e-05
4.05923e-05
7.66836e-05
0.000193437
0.000104805
1.8869e-05
2.64397e-05
3.94948e-05
7.148e-05
0.000177901
0.000103575
2.46879e-05
3.27576e-05
4.52744e-05
7.23385e-05
0.000158579
0.000101666
3.68902e-05
4.67332e-05
5.91342e-05
7.94531e-05
0.000137677
0.000100041
5.52337e-05
6.72985e-05
7.98619e-05
9.12771e-05
0.000121655
9.70907e-05
7.74321e-05
9.04006e-05
0.000101401
0.000104084
0.00011981
8.62595e-05
7.81454e-05
9.78161e-05
0.000109256
0.000109856
0.000108759
7.55759e-05
7.32142e-05
9.55464e-05
0.000115265
0.000128785
0.000134791
8.24092e-05
6.81528e-05
9.16969e-05
0.000117809
0.000142587
0.000161117
9.28647e-05
6.01805e-05
8.24412e-05
0.000111082
0.000145416
0.000180292
0.000103725
5.01358e-05
6.86955e-05
9.51699e-05
0.000134995
0.000188173
0.000111844
4.00039e-05
5.41646e-05
7.57343e-05
0.000115909
0.000185576
0.000115783
3.16116e-05
4.22939e-05
5.91864e-05
9.58383e-05
0.000174606
0.000115652
2.60174e-05
3.48866e-05
4.89299e-05
8.06378e-05
0.000159589
0.000112704
2.5073e-05
3.36473e-05
4.68569e-05
7.4134e-05
0.000144263
0.000109537
3.15221e-05
4.13549e-05
5.57784e-05
7.99646e-05
0.000132206
0.000105834
4.71786e-05
6.01292e-05
7.61496e-05
9.70553e-05
0.000124552
0.000102344
7.04972e-05
8.74654e-05
0.000104017
0.000120099
0.000120663
9.93309e-05
9.8129e-05
0.000116313
0.00013188
0.000140985
0.000123232
9.48347e-05
0.000122117
0.000137299
0.00014943
0.000151854
0.000133938
8.42521e-05
0.000116398
0.000136324
0.000150103
0.000158419
0.000141342
9.37584e-05
0.000102256
0.000123287
0.000141844
0.000158307
0.000153089
0.000109226
8.70301e-05
0.000106265
0.000126666
0.000148076
0.000156412
0.000120917
7.13224e-05
8.66256e-05
0.000104769
0.000127849
0.000148288
0.000127274
5.64475e-05
6.77058e-05
8.18089e-05
0.000103339
0.000131634
0.000128397
4.37884e-05
5.21418e-05
6.28191e-05
8.15528e-05
0.000114642
0.00012502
3.49067e-05
4.21169e-05
5.15152e-05
6.815e-05
0.000100523
0.000119256
3.12176e-05
3.93619e-05
4.99357e-05
6.5855e-05
9.52589e-05
0.000114369
3.61726e-05
4.69785e-05
6.06909e-05
7.76671e-05
0.000103572
0.000113823
5.23695e-05
6.71071e-05
8.53989e-05
0.000104448
0.000123487
0.000117528
7.76988e-05
9.65675e-05
0.000118346
0.000138629
0.000144326
0.000122394
0.000103995
0.000124557
0.000146414
0.000167816
0.000158205
0.000124785
0.0001252
0.000142485
0.000160574
0.000181354
0.000162578
0.000120822
0.000134207
0.000144988
0.00015762
0.000171477
0.000154902
0.000108454
8.71994e-05
0.000122171
9.96268e-05
9.15892e-05
7.69638e-05
6.377e-05
0.000101423
0.00013007
8.99469e-05
7.25606e-05
5.56591e-05
4.37797e-05
0.000108086
0.000146751
8.06053e-05
5.55635e-05
3.93217e-05
2.90325e-05
0.000111386
0.000165362
7.39646e-05
4.42273e-05
2.95142e-05
2.08212e-05
0.000112672
0.000183307
7.24829e-05
3.976e-05
2.63439e-05
1.88919e-05
0.000111759
0.000199652
7.73011e-05
4.16041e-05
2.85925e-05
2.17253e-05
0.000107853
0.000212752
8.80127e-05
4.86502e-05
3.47924e-05
2.74468e-05
0.000102068
0.000219921
0.0001034
6.08806e-05
4.4755e-05
3.57339e-05
9.65637e-05
0.00021589
0.000120057
7.78761e-05
5.84514e-05
4.66794e-05
9.08128e-05
0.000202187
0.000132997
9.6035e-05
7.41869e-05
5.95644e-05
8.50453e-05
0.000182527
0.000137994
0.000110017
8.8443e-05
7.19637e-05
8.02316e-05
0.000160154
0.000134617
0.000116836
9.96198e-05
8.32843e-05
7.74159e-05
0.000139447
0.000125308
0.000118172
0.000106402
9.23487e-05
7.70975e-05
0.000125258
0.000114261
0.000114983
0.000111148
0.000101048
8.34232e-05
0.000124193
0.00013646
0.000132545
0.000118333
0.000102384
9.61561e-05
0.000122452
0.000128261
0.000115585
9.56874e-05
7.74951e-05
0.00010361
0.000125911
0.000112481
9.23809e-05
7.07638e-05
5.36131e-05
0.000109199
0.000131578
9.40565e-05
6.98214e-05
5.00235e-05
3.59909e-05
0.000113036
0.000137686
7.82594e-05
5.31165e-05
3.69606e-05
2.64208e-05
0.000115065
0.000146341
7.09123e-05
4.55055e-05
3.2614e-05
2.48945e-05
0.000114935
0.000159181
7.367e-05
4.62608e-05
3.52325e-05
2.92397e-05
0.000115492
0.000170761
8.62515e-05
5.48605e-05
4.36252e-05
3.78244e-05
0.000115055
0.000180302
0.000105722
7.09587e-05
5.71437e-05
4.98378e-05
0.000112556
0.000185703
0.00012797
9.28039e-05
7.53194e-05
6.53335e-05
0.000107345
0.000185765
0.000147649
0.000116278
9.58972e-05
8.24902e-05
9.95162e-05
0.000179657
0.000159358
0.000135487
0.000115886
0.000100927
9.00392e-05
0.000165833
0.000159979
0.000146294
0.000131738
0.000117705
8.0658e-05
0.000145678
0.00015158
0.000150349
0.000145655
0.000136439
0.000105443
0.000146099
0.000157467
0.000145469
0.000133846
0.000121672
0.000118238
0.000156345
0.000165439
0.000145281
0.00012558
0.000105628
0.000123891
0.000156267
0.000154747
0.000132094
0.00010684
8.3135e-05
0.000124093
0.000147793
0.000132045
0.000108736
8.2556e-05
6.00017e-05
0.0001212
0.000131279
0.000104034
8.11877e-05
5.89352e-05
4.12215e-05
0.000117619
0.000112253
7.91956e-05
5.97462e-05
4.37837e-05
3.18795e-05
0.00011582
9.92161e-05
6.46607e-05
4.89242e-05
3.84953e-05
3.17134e-05
0.000116814
9.56009e-05
6.0286e-05
4.66622e-05
4.03998e-05
3.71441e-05
0.000119423
0.00010041
6.50718e-05
5.17552e-05
4.72507e-05
4.5807e-05
0.000121975
0.000110638
7.7524e-05
6.33014e-05
5.83643e-05
5.72689e-05
0.000122726
0.000122958
9.54879e-05
8.03546e-05
7.32552e-05
7.06949e-05
0.000120618
0.000134793
0.000117076
0.000102059
9.27654e-05
8.80923e-05
0.000115014
0.000140633
0.000135926
0.000124341
0.000114659
0.000107894
0.00010574
0.000137695
0.000148623
0.000145032
0.000139452
0.000133696
9.35876e-05
0.000105037
5.73844e-05
4.05016e-05
2.66661e-05
1.8969e-05
0.000107151
0.000111594
4.81126e-05
2.82724e-05
1.70078e-05
1.14496e-05
0.000114835
0.000126841
4.44232e-05
2.30241e-05
1.3523e-05
8.70116e-06
0.00011887
0.000146957
4.70115e-05
2.37913e-05
1.48782e-05
9.95289e-06
0.000120632
0.000166913
5.53095e-05
2.89715e-05
1.95399e-05
1.39024e-05
0.000119499
0.000185188
6.79584e-05
3.74266e-05
2.64769e-05
1.94651e-05
0.000115101
0.000199725
8.42427e-05
4.88311e-05
3.53013e-05
2.62099e-05
0.000106724
0.000207796
0.000102942
6.34038e-05
4.62923e-05
3.44131e-05
9.77301e-05
0.000202615
0.000119387
8.01814e-05
5.93677e-05
4.45132e-05
9.01072e-05
0.000185648
0.000128565
9.51344e-05
7.25552e-05
5.51668e-05
8.34465e-05
0.000164305
0.000128869
0.000104093
8.27559e-05
6.41644e-05
7.84242e-05
0.000143278
0.000122682
0.000107102
8.97026e-05
7.17053e-05
7.57087e-05
0.000126886
0.000113579
0.000106867
9.3802e-05
7.76116e-05
7.54449e-05
0.000119251
0.000106446
0.000105612
9.9383e-05
8.63484e-05
8.24127e-05
9.73566e-05
8.96777e-05
7.54195e-05
5.44047e-05
3.97396e-05
9.40706e-05
9.19615e-05
6.9949e-05
5.12888e-05
3.34576e-05
2.30686e-05
0.000102179
9.29318e-05
5.34133e-05
3.43338e-05
2.11413e-05
1.38471e-05
0.000108938
9.90302e-05
4.44507e-05
2.67122e-05
1.70335e-05
1.12688e-05
0.000114463
0.000111765
4.46487e-05
2.73018e-05
1.91092e-05
1.37371e-05
0.000118401
0.000129413
5.26566e-05
3.34899e-05
2.54155e-05
1.96406e-05
0.000120359
0.000148881
6.65694e-05
4.37337e-05
3.46249e-05
2.76523e-05
0.000119278
0.000167038
8.58475e-05
5.80701e-05
4.66378e-05
3.78248e-05
0.000116758
0.000175885
0.000108538
7.69382e-05
6.15263e-05
5.03451e-05
0.00011216
0.000176504
0.000128724
9.73346e-05
7.84446e-05
6.46375e-05
0.000105401
0.000170064
0.000142019
0.000115141
9.48451e-05
7.85994e-05
9.69378e-05
0.000157663
0.000146696
0.000127861
0.000109621
9.26013e-05
8.74977e-05
0.000143028
0.000143565
0.000134191
0.000120989
0.000105187
7.87079e-05
0.000128063
0.000135975
0.000137074
0.000133244
0.000122139
8.86893e-05
0.000145827
0.000143058
0.000123517
9.3068e-05
6.95936e-05
9.4099e-05
0.00013406
0.000118899
9.43527e-05
6.40699e-05
4.33723e-05
9.56082e-05
0.000112656
8.71759e-05
6.3278e-05
3.97715e-05
2.53063e-05
9.56103e-05
8.96467e-05
5.93934e-05
4.0711e-05
2.56846e-05
1.61128e-05
9.69169e-05
7.43376e-05
4.40336e-05
3.11899e-05
2.15948e-05
1.47327e-05
0.000101471
7.08623e-05
4.09009e-05
3.1419e-05
2.47311e-05
1.92505e-05
0.000108572
7.71365e-05
4.53103e-05
3.72126e-05
3.21619e-05
2.7052e-05
0.000115966
8.88992e-05
5.4918e-05
4.63838e-05
4.19607e-05
3.71656e-05
0.000121894
0.000101657
6.88201e-05
5.82196e-05
5.31135e-05
4.84083e-05
0.000124618
0.000113789
8.50722e-05
7.23355e-05
6.59787e-05
6.11488e-05
0.000123948
0.00012307
0.000101422
8.77486e-05
7.99097e-05
7.42785e-05
0.000120057
0.000129314
0.000116856
0.000104676
9.60832e-05
8.93576e-05
0.000112809
0.000130715
0.000129329
0.000120909
0.000113145
0.000105526
0.000102865
0.000128013
0.000139032
0.000137898
0.000135235
0.000129282
0.000111657
9.21363e-05
7.74384e-05
6.41426e-05
5.22041e-05
4.03138e-05
2.96732e-05
2.01516e-05
1.35952e-05
1.1227e-05
1.61592e-05
3.04936e-05
5.35747e-05
8.50378e-05
9.75507e-05
8.30152e-05
6.93339e-05
5.56822e-05
4.21588e-05
2.9359e-05
1.92409e-05
1.1562e-05
7.31825e-06
6.46502e-06
1.14926e-05
2.49596e-05
4.58066e-05
7.11079e-05
8.01884e-05
6.64591e-05
5.30329e-05
3.91887e-05
2.61256e-05
1.54359e-05
8.52165e-06
4.55316e-06
2.77519e-06
3.06561e-06
7.68662e-06
1.96713e-05
3.81475e-05
5.88652e-05
5.9125e-05
4.51733e-05
3.21047e-05
2.02838e-05
1.10828e-05
5.13199e-06
2.23896e-06
1.02754e-06
6.73552e-07
1.26237e-06
4.80475e-06
1.43359e-05
2.97583e-05
4.69641e-05
3.96005e-05
2.70721e-05
1.64741e-05
8.68831e-06
3.87807e-06
1.43434e-06
4.69728e-07
1.47007e-07
1.20401e-07
5.74876e-07
2.97829e-06
9.93945e-06
2.21884e-05
3.66742e-05
2.91268e-05
1.98074e-05
1.22316e-05
6.81305e-06
3.18471e-06
1.17787e-06
3.2086e-07
6.05513e-08
3.53804e-08
3.12058e-07
1.82254e-06
6.49406e-06
1.55907e-05
2.72025e-05
2.91847e-05
2.2444e-05
1.5633e-05
8.92146e-06
4.04778e-06
1.42477e-06
3.89534e-07
1.08076e-07
6.64003e-08
2.36567e-07
1.22401e-06
4.32583e-06
1.06855e-05
1.97862e-05
3.58149e-05
3.07353e-05
2.25131e-05
1.33622e-05
6.21814e-06
2.25951e-06
7.39856e-07
3.68892e-07
3.05964e-07
4.27562e-07
1.05804e-06
3.07267e-06
7.36147e-06
1.40084e-05
4.4034e-05
4.01003e-05
3.12919e-05
1.98744e-05
9.8146e-06
3.8784e-06
1.63192e-06
1.20662e-06
1.22504e-06
1.48804e-06
2.03592e-06
3.47466e-06
6.29693e-06
1.09194e-05
5.40107e-05
5.12282e-05
4.23592e-05
2.87795e-05
1.53602e-05
6.77892e-06
3.55501e-06
3.26643e-06
3.76e-06
4.68974e-06
5.75548e-06
7.39203e-06
9.62794e-06
1.30882e-05
6.46157e-05
6.29809e-05
5.42579e-05
3.90149e-05
2.2578e-05
1.11943e-05
6.94836e-06
7.23672e-06
9.0328e-06
1.15682e-05
1.41636e-05
1.70598e-05
1.96767e-05
2.29807e-05
7.86817e-05
7.66442e-05
6.71396e-05
5.03964e-05
3.14192e-05
1.74146e-05
1.21364e-05
1.33521e-05
1.7325e-05
2.23763e-05
2.73926e-05
3.25125e-05
3.64401e-05
4.06997e-05
9.51664e-05
9.18494e-05
8.03313e-05
6.19535e-05
4.12329e-05
2.52495e-05
1.89798e-05
2.09981e-05
2.70134e-05
3.49544e-05
4.27703e-05
5.10367e-05
5.80364e-05
6.5187e-05
0.000117948
0.000108508
9.36504e-05
7.37621e-05
5.14659e-05
3.39835e-05
2.67383e-05
2.892e-05
3.57444e-05
4.58198e-05
5.67243e-05
6.92994e-05
8.19622e-05
9.57163e-05
8.28371e-05
7.41112e-05
6.56167e-05
5.50838e-05
4.45764e-05
3.38839e-05
2.44198e-05
1.62705e-05
1.07893e-05
8.47223e-06
1.14127e-05
2.07085e-05
3.49107e-05
5.14408e-05
7.4307e-05
6.56503e-05
5.58406e-05
4.4434e-05
3.2826e-05
2.20088e-05
1.39256e-05
8.28411e-06
5.21754e-06
4.48922e-06
7.65932e-06
1.67609e-05
3.10034e-05
4.67659e-05
6.13469e-05
5.05139e-05
3.94991e-05
2.81897e-05
1.80128e-05
1.01398e-05
5.41417e-06
2.87186e-06
1.79242e-06
1.9952e-06
4.91674e-06
1.30688e-05
2.64871e-05
4.1577e-05
4.49287e-05
3.27948e-05
2.20525e-05
1.31524e-05
6.81397e-06
2.98033e-06
1.25463e-06
5.74563e-07
4.02442e-07
7.74121e-07
2.96589e-06
9.3432e-06
2.07309e-05
3.43382e-05
3.04538e-05
1.96111e-05
1.13506e-05
5.79122e-06
2.53783e-06
9.26342e-07
2.85265e-07
8.22582e-08
7.08031e-08
3.41507e-07
1.81453e-06
6.39223e-06
1.53711e-05
2.72405e-05
2.39014e-05
1.57076e-05
9.47701e-06
5.10388e-06
2.2783e-06
8.01396e-07
2.06597e-07
3.61063e-08
2.15142e-08
1.8613e-07
1.10933e-06
4.17848e-06
1.08165e-05
2.05049e-05
2.56974e-05
1.87521e-05
1.20921e-05
6.39077e-06
2.72003e-06
9.08446e-07
2.37735e-07
6.39954e-08
3.96865e-08
1.40784e-07
7.48945e-07
2.77986e-06
7.3409e-06
1.4734e-05
3.22732e-05
2.55553e-05
1.69351e-05
9.18887e-06
3.95329e-06
1.35857e-06
4.40332e-07
2.24694e-07
1.82028e-07
2.4661e-07
6.43889e-07
1.99451e-06
5.10477e-06
1.04391e-05
3.97352e-05
3.31516e-05
2.35183e-05
1.34925e-05
6.09364e-06
2.29403e-06
1.00239e-06
7.64422e-07
7.38729e-07
8.53196e-07
1.17615e-06
2.14477e-06
4.22143e-06
7.90312e-06
4.83938e-05
4.25297e-05
3.22055e-05
1.97795e-05
9.62179e-06
4.0988e-06
2.29453e-06
2.14997e-06
2.33259e-06
2.78462e-06
3.37885e-06
4.45892e-06
6.10242e-06
8.8719e-06
5.67373e-05
5.21907e-05
4.17099e-05
2.7404e-05
1.44952e-05
7.00556e-06
4.70336e-06
4.97267e-06
5.86224e-06
7.26023e-06
8.82283e-06
1.07577e-05
1.26516e-05
1.52055e-05
6.65816e-05
6.22876e-05
5.17222e-05
3.62617e-05
2.10404e-05
1.14535e-05
8.60848e-06
9.6613e-06
1.19795e-05
1.50487e-05
1.82807e-05
2.16344e-05
2.4062e-05
2.6682e-05
7.47479e-05
7.10943e-05
6.10297e-05
4.54313e-05
2.89009e-05
1.75347e-05
1.40919e-05
1.60378e-05
2.02012e-05
2.5266e-05
3.02918e-05
3.52444e-05
3.8403e-05
4.12486e-05
8.3545e-05
7.92718e-05
6.9829e-05
5.48155e-05
3.77178e-05
2.50568e-05
2.08585e-05
2.33479e-05
2.85507e-05
3.54353e-05
4.18395e-05
4.82866e-05
5.24617e-05
5.62898e-05
6.60371e-05
5.90971e-05
5.15612e-05
4.21589e-05
3.28771e-05
2.39016e-05
1.66556e-05
1.09314e-05
7.07174e-06
4.95475e-06
5.45187e-06
1.00077e-05
1.91094e-05
3.17169e-05
5.32551e-05
4.56356e-05
3.75782e-05
2.87054e-05
2.02209e-05
1.2946e-05
7.9277e-06
4.7825e-06
3.00288e-06
2.31304e-06
3.23579e-06
7.57917e-06
1.65192e-05
2.88535e-05
3.90546e-05
3.00964e-05
2.21136e-05
1.48989e-05
9.06436e-06
4.91675e-06
2.56438e-06
1.40809e-06
9.04698e-07
8.76647e-07
1.86439e-06
5.63675e-06
1.37458e-05
2.54006e-05
2.57789e-05
1.71202e-05
1.05878e-05
5.90988e-06
2.93157e-06
1.24964e-06
5.10537e-07
2.45349e-07
1.78674e-07
2.80892e-07
1.04961e-06
3.91014e-06
1.04937e-05
2.06863e-05
1.75712e-05
1.06694e-05
6.00654e-06
3.06111e-06
1.35592e-06
4.94032e-07
1.44442e-07
3.84082e-08
2.64184e-08
1.07521e-07
6.37762e-07
2.6755e-06
7.66824e-06
1.61113e-05
1.63119e-05
1.05748e-05
6.28026e-06
3.22273e-06
1.36559e-06
4.59762e-07
1.15041e-07
1.97008e-08
6.80992e-09
5.84687e-08
4.10142e-07
1.7901e-06
5.40685e-06
1.20406e-05
1.98984e-05
1.3689e-05
7.99502e-06
3.90729e-06
1.56554e-06
4.99243e-07
1.26112e-07
3.16449e-08
1.56574e-08
4.78988e-08
2.92774e-07
1.24971e-06
3.74894e-06
8.5524e-06
2.60732e-05
1.83044e-05
1.08868e-05
5.35735e-06
2.1334e-06
6.95449e-07
2.19533e-07
1.07365e-07
7.97318e-08
9.57017e-08
2.64656e-07
9.29198e-07
2.66203e-06
6.07967e-06
3.23183e-05
2.39446e-05
1.49671e-05
7.62146e-06
3.13259e-06
1.13211e-06
5.06989e-07
3.80836e-07
3.40376e-07
3.55508e-07
4.77329e-07
9.43163e-07
2.10154e-06
4.42686e-06
3.95485e-05
3.09407e-05
2.04029e-05
1.09474e-05
4.79941e-06
2.0219e-06
1.22161e-06
1.13453e-06
1.13548e-06
1.24e-06
1.41912e-06
1.86474e-06
2.69548e-06
4.33088e-06
4.68616e-05
3.82703e-05
2.65197e-05
1.50916e-05
7.17927e-06
3.55134e-06
2.66454e-06
2.79275e-06
3.04583e-06
3.50742e-06
4.05298e-06
4.84986e-06
5.7439e-06
7.20758e-06
5.50033e-05
4.58903e-05
3.32414e-05
2.02115e-05
1.05631e-05
6.00054e-06
5.15998e-06
5.81113e-06
6.74513e-06
8.0296e-06
9.44152e-06
1.10263e-05
1.22599e-05
1.37848e-05
6.11348e-05
5.24245e-05
3.99086e-05
2.60732e-05
1.50702e-05
9.57899e-06
8.90482e-06
1.04116e-05
1.25198e-05
1.50701e-05
1.77397e-05
2.04168e-05
2.21074e-05
2.36742e-05
6.71516e-05
5.85405e-05
4.67904e-05
3.29286e-05
2.08686e-05
1.4463e-05
1.38794e-05
1.62948e-05
1.96925e-05
2.36269e-05
2.74876e-05
3.13227e-05
3.36017e-05
3.54679e-05
4.45459e-05
3.83387e-05
3.19691e-05
2.48016e-05
1.81354e-05
1.23885e-05
8.29808e-06
5.42633e-06
3.56694e-06
2.40498e-06
1.9974e-06
3.18416e-06
7.23561e-06
1.5302e-05
2.95597e-05
2.34581e-05
1.81243e-05
1.29091e-05
8.47292e-06
5.11323e-06
3.10999e-06
1.93385e-06
1.2922e-06
9.58131e-07
9.83447e-07
2.17086e-06
5.9343e-06
1.34786e-05
1.79054e-05
1.22524e-05
8.21154e-06
5.08469e-06
2.88007e-06
1.46828e-06
7.77682e-07
4.59423e-07
3.30591e-07
2.94835e-07
4.67296e-07
1.5278e-06
4.77118e-06
1.14421e-05
1.08881e-05
6.43986e-06
3.629e-06
1.86281e-06
8.52696e-07
3.29819e-07
1.32318e-07
6.88153e-08
5.73408e-08
7.42151e-08
2.32898e-07
1.03885e-06
3.56689e-06
9.07465e-06
8.81697e-06
5.19283e-06
2.85366e-06
1.41033e-06
5.94117e-07
2.03685e-07
5.41757e-08
1.26746e-08
7.31764e-09
2.17356e-08
1.38852e-07
7.23362e-07
2.60343e-06
6.91115e-06
9.99629e-06
6.14818e-06
3.38732e-06
1.59163e-06
6.20885e-07
1.93522e-07
4.50941e-08
7.30508e-09
1.64108e-09
1.05699e-08
9.23442e-08
4.99239e-07
1.84827e-06
5.07498e-06
1.28579e-05
7.89567e-06
4.12722e-06
1.82485e-06
6.69403e-07
1.96916e-07
4.61756e-08
1.07698e-08
4.56867e-09
9.52315e-09
6.79747e-08
3.58936e-07
1.30387e-06
3.562e-06
1.70615e-05
1.04075e-05
5.40547e-06
2.35316e-06
8.45392e-07
2.53271e-07
7.5863e-08
3.60763e-08
2.51838e-08
2.44852e-08
6.42152e-08
2.68699e-07
9.24944e-07
2.49643e-06
2.17768e-05
1.37113e-05
7.28009e-06
3.2044e-06
1.17283e-06
3.97724e-07
1.81192e-07
1.3613e-07
1.14696e-07
1.05704e-07
1.27303e-07
2.65591e-07
7.0064e-07
1.76033e-06
2.74052e-05
1.79952e-05
9.89714e-06
4.50851e-06
1.76027e-06
7.33455e-07
4.76235e-07
4.41089e-07
4.13746e-07
4.0949e-07
4.27228e-07
5.37517e-07
8.20251e-07
1.52764e-06
3.31124e-05
2.2564e-05
1.28905e-05
6.161e-06
2.65238e-06
1.38801e-06
1.14787e-06
1.18992e-06
1.2139e-06
1.29068e-06
1.38556e-06
1.57895e-06
1.83251e-06
2.4087e-06
3.91391e-05
2.74359e-05
1.6402e-05
8.36913e-06
4.04777e-06
2.56679e-06
2.45519e-06
2.72441e-06
2.97546e-06
3.33636e-06
3.72575e-06
4.21046e-06
4.57745e-06
5.17701e-06
4.41083e-05
3.19461e-05
2.02126e-05
1.11681e-05
6.08995e-06
4.47165e-06
4.66535e-06
5.39916e-06
6.19371e-06
7.18047e-06
8.2157e-06
9.30102e-06
9.97671e-06
1.06763e-05
4.9205e-05
3.70063e-05
2.50255e-05
1.50438e-05
9.10177e-06
7.32918e-06
7.97099e-06
9.41753e-06
1.10725e-05
1.30574e-05
1.50548e-05
1.70763e-05
1.83447e-05
1.93388e-05
2.39438e-05
1.8978e-05
1.46506e-05
1.0409e-05
6.99396e-06
4.62687e-06
3.14202e-06
2.17888e-06
1.53295e-06
1.05765e-06
7.03931e-07
7.52538e-07
1.83642e-06
5.13383e-06
1.22188e-05
8.40607e-06
5.84881e-06
3.76315e-06
2.28058e-06
1.37779e-06
8.9797e-07
6.25313e-07
4.66968e-07
3.55321e-07
2.70425e-07
4.25862e-07
1.41528e-06
4.40642e-06
6.12882e-06
3.4806e-06
2.01909e-06
1.10349e-06
5.69323e-07
2.89491e-07
1.71659e-07
1.21761e-07
1.01649e-07
8.93051e-08
9.25409e-08
2.73447e-07
1.1263e-06
3.69451e-06
4.19299e-06
2.20123e-06
1.11294e-06
5.17167e-07
2.13197e-07
7.88454e-08
3.00545e-08
1.68629e-08
1.54615e-08
1.71843e-08
3.44168e-08
1.79703e-07
8.35605e-07
2.88215e-06
4.51211e-06
2.53372e-06
1.31835e-06
6.09125e-07
2.36059e-07
7.3836e-08
1.79125e-08
3.75136e-09
1.74206e-09