/*--------------------------------*- C++ -*----------------------------------*\
| =========                 |                                                 |
| \\      /  F ield         | OpenFOAM: The Open Source CFD Toolbox           |
|  \\    /   O peration     | Version:  v2106                                 |
|   \\  /    A nd           | Website:  www.openfoam.com                      |
|    \\/     M anipulation  |                                                 |
\*---------------------------------------------------------------------------*/
FoamFile
{
    version     2.0;
    format      ascii;
    arch        "LSB;label=32;scalar=64";
    class       volScalarField;
    location    "0.000174";
    object      epsilon;
}
// * * * * * * * * * * * * * * * * * * * * * * * * * * * * * * * * * * * * * //

dimensions      [0 2 -3 0 0 0 0];

internalField   nonuniform List<scalar> 
17924
(
1.61203e-08
1.61188e-08
1.6118e-08
1.61167e-08
1.61282e-08
1.61276e-08
1.61269e-08
1.61255e-08
1.6124e-08
1.61224e-08
1.61206e-08
1.6129e-08
1.61283e-08
1.61274e-08
1.6126e-08
1.61245e-08
1.61228e-08
1.61211e-08
1.61299e-08
1.61289e-08
1.61277e-08
1.61263e-08
1.61248e-08
1.61232e-08
1.61217e-08
1.61309e-08
1.61295e-08
1.61282e-08
1.61268e-08
1.61254e-08
1.61239e-08
1.61225e-08
1.61319e-08
1.61302e-08
1.61288e-08
1.61275e-08
1.61261e-08
1.61247e-08
1.61233e-08
1.6133e-08
1.61311e-08
1.61297e-08
1.61284e-08
1.6127e-08
1.61257e-08
1.61243e-08
1.61343e-08
1.61321e-08
1.61307e-08
1.61295e-08
1.61281e-08
1.61267e-08
1.61253e-08
1.61357e-08
1.61334e-08
1.6132e-08
1.61307e-08
1.61293e-08
1.61279e-08
1.61264e-08
1.61372e-08
1.61349e-08
1.61334e-08
1.6132e-08
1.61305e-08
1.61291e-08
1.61276e-08
1.6139e-08
1.61365e-08
1.6135e-08
1.61335e-08
1.61319e-08
1.61304e-08
1.61288e-08
1.61406e-08
1.61382e-08
1.61365e-08
1.6135e-08
1.61333e-08
1.61317e-08
1.61301e-08
1.61422e-08
1.61398e-08
1.61381e-08
1.61366e-08
1.61349e-08
1.61332e-08
1.61314e-08
1.61435e-08
1.61413e-08
1.61397e-08
1.61381e-08
1.61363e-08
1.61345e-08
1.61328e-08
1.61453e-08
1.6143e-08
1.61413e-08
1.61396e-08
1.6138e-08
1.61363e-08
1.61345e-08
1.61356e-08
1.61351e-08
1.61343e-08
1.61329e-08
1.61313e-08
1.61295e-08
1.61276e-08
1.61256e-08
1.61234e-08
1.61212e-08
1.6119e-08
1.61166e-08
1.61143e-08
1.61113e-08
1.61351e-08
1.61346e-08
1.61337e-08
1.61322e-08
1.61306e-08
1.61288e-08
1.61269e-08
1.6125e-08
1.61229e-08
1.61208e-08
1.61187e-08
1.61164e-08
1.61142e-08
1.61118e-08
1.61347e-08
1.6134e-08
1.61328e-08
1.61314e-08
1.61298e-08
1.61281e-08
1.61263e-08
1.61245e-08
1.61226e-08
1.61206e-08
1.61186e-08
1.61165e-08
1.61145e-08
1.61124e-08
1.61343e-08
1.61333e-08
1.61321e-08
1.61307e-08
1.61291e-08
1.61275e-08
1.61258e-08
1.6124e-08
1.61222e-08
1.61203e-08
1.61184e-08
1.61164e-08
1.61145e-08
1.61126e-08
1.61337e-08
1.61327e-08
1.61314e-08
1.61301e-08
1.61286e-08
1.6127e-08
1.61253e-08
1.61236e-08
1.61218e-08
1.61199e-08
1.61181e-08
1.61161e-08
1.61142e-08
1.61123e-08
1.61334e-08
1.61323e-08
1.6131e-08
1.61296e-08
1.61281e-08
1.61266e-08
1.61249e-08
1.61232e-08
1.61214e-08
1.61195e-08
1.61177e-08
1.61157e-08
1.61138e-08
1.61118e-08
1.61332e-08
1.6132e-08
1.61307e-08
1.61293e-08
1.61278e-08
1.61262e-08
1.61246e-08
1.61228e-08
1.6121e-08
1.61192e-08
1.61173e-08
1.61153e-08
1.61133e-08
1.61113e-08
1.61332e-08
1.61319e-08
1.61306e-08
1.61291e-08
1.61275e-08
1.61259e-08
1.61242e-08
1.61224e-08
1.61206e-08
1.61187e-08
1.61167e-08
1.61147e-08
1.61127e-08
1.61107e-08
1.61334e-08
1.6132e-08
1.61305e-08
1.6129e-08
1.61273e-08
1.61256e-08
1.61238e-08
1.6122e-08
1.61201e-08
1.61181e-08
1.61161e-08
1.61141e-08
1.61119e-08
1.61099e-08
1.61336e-08
1.61321e-08
1.61305e-08
1.61289e-08
1.61271e-08
1.61253e-08
1.61234e-08
1.61215e-08
1.61195e-08
1.61175e-08
1.61155e-08
1.61133e-08
1.61111e-08
1.6109e-08
1.61339e-08
1.61322e-08
1.61305e-08
1.61288e-08
1.61269e-08
1.6125e-08
1.6123e-08
1.61211e-08
1.6119e-08
1.61168e-08
1.61146e-08
1.61125e-08
1.61101e-08
1.6108e-08
1.61341e-08
1.61323e-08
1.61304e-08
1.61286e-08
1.61266e-08
1.61246e-08
1.61226e-08
1.61205e-08
1.61183e-08
1.61161e-08
1.61138e-08
1.61115e-08
1.6109e-08
1.61066e-08
1.61339e-08
1.6132e-08
1.61302e-08
1.61283e-08
1.61263e-08
1.61242e-08
1.61221e-08
1.61199e-08
1.61175e-08
1.61152e-08
1.61127e-08
1.61103e-08
1.61074e-08
1.61047e-08
1.61334e-08
1.61317e-08
1.613e-08
1.6128e-08
1.61259e-08
1.61237e-08
1.61215e-08
1.61192e-08
1.61169e-08
1.61144e-08
1.61118e-08
1.61091e-08
1.6106e-08
1.61031e-08
1.61385e-08
1.6138e-08
1.6137e-08
1.61357e-08
1.61341e-08
1.61324e-08
1.61304e-08
1.61282e-08
1.61259e-08
1.61234e-08
1.61208e-08
1.61179e-08
1.61151e-08
1.61115e-08
1.6137e-08
1.61365e-08
1.61354e-08
1.6134e-08
1.61324e-08
1.61306e-08
1.61286e-08
1.61265e-08
1.61242e-08
1.61217e-08
1.61191e-08
1.61164e-08
1.61136e-08
1.61107e-08
1.61356e-08
1.61349e-08
1.61336e-08
1.61322e-08
1.61305e-08
1.61288e-08
1.61269e-08
1.61249e-08
1.61226e-08
1.61202e-08
1.61177e-08
1.61151e-08
1.61125e-08
1.61097e-08
1.61342e-08
1.61332e-08
1.61319e-08
1.61304e-08
1.61288e-08
1.61271e-08
1.61252e-08
1.61231e-08
1.61209e-08
1.61186e-08
1.61161e-08
1.61136e-08
1.61111e-08
1.61085e-08
1.61326e-08
1.61315e-08
1.61301e-08
1.61287e-08
1.61271e-08
1.61254e-08
1.61235e-08
1.61215e-08
1.61193e-08
1.6117e-08
1.61146e-08
1.6112e-08
1.61095e-08
1.6107e-08
1.6131e-08
1.61299e-08
1.61285e-08
1.6127e-08
1.61254e-08
1.61236e-08
1.61217e-08
1.61197e-08
1.61175e-08
1.61152e-08
1.61129e-08
1.61104e-08
1.61078e-08
1.61053e-08
1.61296e-08
1.61284e-08
1.61269e-08
1.61254e-08
1.61237e-08
1.61219e-08
1.612e-08
1.61179e-08
1.61157e-08
1.61135e-08
1.61111e-08
1.61086e-08
1.61061e-08
1.61035e-08
1.61282e-08
1.61268e-08
1.61253e-08
1.61237e-08
1.61219e-08
1.61201e-08
1.61181e-08
1.6116e-08
1.61138e-08
1.61115e-08
1.61091e-08
1.61067e-08
1.61041e-08
1.61016e-08
1.61269e-08
1.61254e-08
1.61238e-08
1.61221e-08
1.61202e-08
1.61183e-08
1.61162e-08
1.61141e-08
1.61118e-08
1.61095e-08
1.6107e-08
1.61045e-08
1.6102e-08
1.60995e-08
1.61256e-08
1.61239e-08
1.61221e-08
1.61203e-08
1.61183e-08
1.61163e-08
1.61142e-08
1.6112e-08
1.61097e-08
1.61073e-08
1.61048e-08
1.61023e-08
1.60996e-08
1.60973e-08
1.61243e-08
1.61224e-08
1.61205e-08
1.61186e-08
1.61165e-08
1.61143e-08
1.61121e-08
1.61098e-08
1.61074e-08
1.61049e-08
1.61023e-08
1.60998e-08
1.60971e-08
1.60948e-08
1.61226e-08
1.61206e-08
1.61186e-08
1.61166e-08
1.61144e-08
1.61122e-08
1.61099e-08
1.61075e-08
1.6105e-08
1.61025e-08
1.60998e-08
1.60973e-08
1.60944e-08
1.60921e-08
1.61208e-08
1.61187e-08
1.61168e-08
1.61146e-08
1.61123e-08
1.611e-08
1.61075e-08
1.6105e-08
1.61023e-08
1.60997e-08
1.60969e-08
1.60942e-08
1.60912e-08
1.60887e-08
1.61184e-08
1.61164e-08
1.61144e-08
1.61122e-08
1.61099e-08
1.61075e-08
1.6105e-08
1.61025e-08
1.60998e-08
1.60971e-08
1.60943e-08
1.60915e-08
1.60883e-08
1.60855e-08
1.61336e-08
1.6133e-08
1.61318e-08
1.61305e-08
1.6129e-08
1.61274e-08
1.61255e-08
1.61236e-08
1.61214e-08
1.6119e-08
1.61165e-08
1.61138e-08
1.61109e-08
1.61074e-08
1.61316e-08
1.61308e-08
1.61295e-08
1.61281e-08
1.61265e-08
1.61248e-08
1.61229e-08
1.61208e-08
1.61185e-08
1.61162e-08
1.61136e-08
1.61109e-08
1.61081e-08
1.61051e-08
1.61293e-08
1.61284e-08
1.61269e-08
1.61255e-08
1.61238e-08
1.61221e-08
1.61202e-08
1.61182e-08
1.61159e-08
1.61136e-08
1.6111e-08
1.61084e-08
1.61057e-08
1.61029e-08
1.6127e-08
1.61259e-08
1.61244e-08
1.61228e-08
1.61212e-08
1.61194e-08
1.61175e-08
1.61154e-08
1.61131e-08
1.61107e-08
1.61082e-08
1.61055e-08
1.61029e-08
1.61002e-08
1.61245e-08
1.61233e-08
1.61217e-08
1.61202e-08
1.61185e-08
1.61167e-08
1.61147e-08
1.61126e-08
1.61103e-08
1.61079e-08
1.61054e-08
1.61028e-08
1.61001e-08
1.60975e-08
1.6122e-08
1.61206e-08
1.6119e-08
1.61174e-08
1.61157e-08
1.61138e-08
1.61118e-08
1.61097e-08
1.61074e-08
1.6105e-08
1.61025e-08
1.60999e-08
1.60972e-08
1.60946e-08
1.61195e-08
1.6118e-08
1.61164e-08
1.61147e-08
1.61128e-08
1.61109e-08
1.61089e-08
1.61067e-08
1.61044e-08
1.6102e-08
1.60995e-08
1.6097e-08
1.60944e-08
1.60918e-08
1.61168e-08
1.61152e-08
1.61135e-08
1.61117e-08
1.61098e-08
1.61078e-08
1.61058e-08
1.61036e-08
1.61013e-08
1.60989e-08
1.60964e-08
1.60939e-08
1.60913e-08
1.60888e-08
1.61142e-08
1.61124e-08
1.61106e-08
1.61087e-08
1.61068e-08
1.61047e-08
1.61026e-08
1.61003e-08
1.6098e-08
1.60956e-08
1.60931e-08
1.60906e-08
1.60881e-08
1.60857e-08
1.61113e-08
1.61094e-08
1.61075e-08
1.61055e-08
1.61035e-08
1.61014e-08
1.60992e-08
1.60969e-08
1.60946e-08
1.60922e-08
1.60897e-08
1.60872e-08
1.60847e-08
1.60825e-08
1.61085e-08
1.61064e-08
1.61045e-08
1.61024e-08
1.61002e-08
1.6098e-08
1.60958e-08
1.60934e-08
1.6091e-08
1.60886e-08
1.60861e-08
1.60837e-08
1.60812e-08
1.60792e-08
1.61053e-08
1.61031e-08
1.61011e-08
1.60989e-08
1.60967e-08
1.60944e-08
1.60921e-08
1.60898e-08
1.60874e-08
1.6085e-08
1.60825e-08
1.60801e-08
1.60776e-08
1.60757e-08
1.61021e-08
1.60998e-08
1.60978e-08
1.60955e-08
1.60932e-08
1.60909e-08
1.60885e-08
1.6086e-08
1.60835e-08
1.6081e-08
1.60784e-08
1.60761e-08
1.60736e-08
1.60717e-08
1.6098e-08
1.6096e-08
1.60939e-08
1.60916e-08
1.60893e-08
1.6087e-08
1.60846e-08
1.60822e-08
1.60797e-08
1.60773e-08
1.60748e-08
1.60724e-08
1.60698e-08
1.60677e-08
1.61201e-08
1.61191e-08
1.61177e-08
1.61164e-08
1.6115e-08
1.61136e-08
1.61121e-08
1.61106e-08
1.61089e-08
1.61072e-08
1.61053e-08
1.61033e-08
1.61012e-08
1.60987e-08
1.61174e-08
1.61164e-08
1.61149e-08
1.61134e-08
1.61119e-08
1.61104e-08
1.61088e-08
1.61071e-08
1.61053e-08
1.61035e-08
1.61015e-08
1.60995e-08
1.60973e-08
1.6095e-08
1.61145e-08
1.61133e-08
1.61117e-08
1.61102e-08
1.61086e-08
1.61071e-08
1.61054e-08
1.61037e-08
1.61019e-08
1.61e-08
1.6098e-08
1.6096e-08
1.60939e-08
1.60916e-08
1.61115e-08
1.61101e-08
1.61085e-08
1.61069e-08
1.61053e-08
1.61037e-08
1.6102e-08
1.61002e-08
1.60983e-08
1.60963e-08
1.60943e-08
1.60922e-08
1.60901e-08
1.6088e-08
1.61083e-08
1.61068e-08
1.61052e-08
1.61036e-08
1.61019e-08
1.61002e-08
1.60985e-08
1.60966e-08
1.60947e-08
1.60927e-08
1.60907e-08
1.60886e-08
1.60866e-08
1.60845e-08
1.6105e-08
1.61035e-08
1.61018e-08
1.61001e-08
1.60984e-08
1.60967e-08
1.60949e-08
1.6093e-08
1.6091e-08
1.60891e-08
1.6087e-08
1.6085e-08
1.60829e-08
1.60808e-08
1.61017e-08
1.61e-08
1.60983e-08
1.60966e-08
1.60948e-08
1.6093e-08
1.60912e-08
1.60893e-08
1.60873e-08
1.60854e-08
1.60834e-08
1.60813e-08
1.60793e-08
1.60773e-08
1.60981e-08
1.60963e-08
1.60946e-08
1.60929e-08
1.60911e-08
1.60892e-08
1.60874e-08
1.60855e-08
1.60835e-08
1.60816e-08
1.60796e-08
1.60776e-08
1.60756e-08
1.60738e-08
1.60945e-08
1.60927e-08
1.60909e-08
1.60891e-08
1.60873e-08
1.60854e-08
1.60835e-08
1.60816e-08
1.60796e-08
1.60777e-08
1.60758e-08
1.60739e-08
1.6072e-08
1.60703e-08
1.60907e-08
1.60888e-08
1.6087e-08
1.60851e-08
1.60833e-08
1.60814e-08
1.60795e-08
1.60776e-08
1.60757e-08
1.60738e-08
1.60719e-08
1.607e-08
1.60682e-08
1.60667e-08
1.6087e-08
1.60849e-08
1.60831e-08
1.60812e-08
1.60793e-08
1.60774e-08
1.60755e-08
1.60735e-08
1.60716e-08
1.60698e-08
1.60679e-08
1.60662e-08
1.60645e-08
1.60633e-08
1.60829e-08
1.60808e-08
1.6079e-08
1.6077e-08
1.60751e-08
1.60732e-08
1.60713e-08
1.60694e-08
1.60676e-08
1.60658e-08
1.6064e-08
1.60624e-08
1.60608e-08
1.60597e-08
1.60791e-08
1.60769e-08
1.60751e-08
1.60731e-08
1.60711e-08
1.60691e-08
1.60672e-08
1.60652e-08
1.60634e-08
1.60616e-08
1.60599e-08
1.60585e-08
1.6057e-08
1.6056e-08
1.60743e-08
1.60724e-08
1.60706e-08
1.60687e-08
1.60668e-08
1.60649e-08
1.6063e-08
1.60612e-08
1.60594e-08
1.60577e-08
1.6056e-08
1.60546e-08
1.60531e-08
1.60522e-08
1.60989e-08
1.60976e-08
1.60962e-08
1.6095e-08
1.60939e-08
1.60929e-08
1.60919e-08
1.6091e-08
1.60901e-08
1.60892e-08
1.60883e-08
1.60873e-08
1.60864e-08
1.60853e-08
1.60957e-08
1.60945e-08
1.60931e-08
1.60917e-08
1.60905e-08
1.60894e-08
1.60883e-08
1.60873e-08
1.60862e-08
1.60852e-08
1.60842e-08
1.60831e-08
1.60822e-08
1.6081e-08
1.60923e-08
1.60911e-08
1.60895e-08
1.60882e-08
1.6087e-08
1.60858e-08
1.60847e-08
1.60836e-08
1.60825e-08
1.60814e-08
1.60804e-08
1.60793e-08
1.60784e-08
1.60772e-08
1.60888e-08
1.60876e-08
1.60861e-08
1.60847e-08
1.60834e-08
1.60822e-08
1.6081e-08
1.60798e-08
1.60787e-08
1.60776e-08
1.60765e-08
1.60753e-08
1.60743e-08
1.60732e-08
1.60853e-08
1.6084e-08
1.60825e-08
1.60811e-08
1.60798e-08
1.60785e-08
1.60773e-08
1.60761e-08
1.60749e-08
1.60738e-08
1.60727e-08
1.60716e-08
1.60706e-08
1.60694e-08
1.60817e-08
1.60803e-08
1.60788e-08
1.60774e-08
1.60761e-08
1.60748e-08
1.60735e-08
1.60723e-08
1.60712e-08
1.607e-08
1.60689e-08
1.60678e-08
1.60668e-08
1.60657e-08
1.60781e-08
1.60766e-08
1.60751e-08
1.60737e-08
1.60723e-08
1.6071e-08
1.60698e-08
1.60686e-08
1.60674e-08
1.60663e-08
1.60652e-08
1.60642e-08
1.60631e-08
1.60622e-08
1.60743e-08
1.60728e-08
1.60713e-08
1.60699e-08
1.60685e-08
1.60672e-08
1.6066e-08
1.60648e-08
1.60636e-08
1.60625e-08
1.60615e-08
1.60605e-08
1.60595e-08
1.60587e-08
1.60706e-08
1.60689e-08
1.60675e-08
1.60661e-08
1.60647e-08
1.60634e-08
1.60622e-08
1.6061e-08
1.60599e-08
1.60588e-08
1.60578e-08
1.6057e-08
1.60561e-08
1.60554e-08
1.60667e-08
1.6065e-08
1.60636e-08
1.60622e-08
1.60608e-08
1.60596e-08
1.60584e-08
1.60572e-08
1.60562e-08
1.60552e-08
1.60542e-08
1.60534e-08
1.60526e-08
1.60521e-08
1.60629e-08
1.60612e-08
1.60598e-08
1.60584e-08
1.60571e-08
1.60558e-08
1.60546e-08
1.60535e-08
1.60525e-08
1.60516e-08
1.60507e-08
1.605e-08
1.60494e-08
1.60491e-08
1.6059e-08
1.60573e-08
1.60559e-08
1.60545e-08
1.60532e-08
1.6052e-08
1.60509e-08
1.60499e-08
1.60489e-08
1.60481e-08
1.60473e-08
1.60467e-08
1.60461e-08
1.6046e-08
1.60553e-08
1.60536e-08
1.60523e-08
1.60509e-08
1.60496e-08
1.60484e-08
1.60473e-08
1.60462e-08
1.60454e-08
1.60446e-08
1.60439e-08
1.60434e-08
1.6043e-08
1.60431e-08
1.60509e-08
1.60496e-08
1.60483e-08
1.6047e-08
1.60459e-08
1.60447e-08
1.60437e-08
1.60428e-08
1.6042e-08
1.60413e-08
1.60407e-08
1.60402e-08
1.60398e-08
1.604e-08
1.60719e-08
1.60709e-08
1.60698e-08
1.60691e-08
1.60685e-08
1.6068e-08
1.60676e-08
1.60674e-08
1.60673e-08
1.60672e-08
1.60672e-08
1.60673e-08
1.60676e-08
1.60676e-08
1.60686e-08
1.60678e-08
1.60667e-08
1.6066e-08
1.60653e-08
1.60648e-08
1.60643e-08
1.6064e-08
1.60638e-08
1.60637e-08
1.60637e-08
1.60636e-08
1.60639e-08
1.60636e-08
1.60653e-08
1.60645e-08
1.60634e-08
1.60627e-08
1.6062e-08
1.60614e-08
1.6061e-08
1.60607e-08
1.60604e-08
1.60603e-08
1.60602e-08
1.60602e-08
1.60604e-08
1.60601e-08
1.6062e-08
1.60612e-08
1.60602e-08
1.60594e-08
1.60587e-08
1.60582e-08
1.60577e-08
1.60573e-08
1.60571e-08
1.60569e-08
1.60568e-08
1.60567e-08
1.60568e-08
1.60566e-08
1.60588e-08
1.60579e-08
1.60569e-08
1.60562e-08
1.60554e-08
1.60549e-08
1.60544e-08
1.6054e-08
1.60538e-08
1.60536e-08
1.60535e-08
1.60535e-08
1.60535e-08
1.60533e-08
1.60555e-08
1.60546e-08
1.60537e-08
1.60529e-08
1.60522e-08
1.60516e-08
1.60511e-08
1.60508e-08
1.60505e-08
1.60504e-08
1.60503e-08
1.60502e-08
1.60502e-08
1.60502e-08
1.60523e-08
1.60513e-08
1.60504e-08
1.60496e-08
1.60489e-08
1.60484e-08
1.60479e-08
1.60476e-08
1.60473e-08
1.60472e-08
1.60471e-08
1.60471e-08
1.60472e-08
1.60472e-08
1.60491e-08
1.60481e-08
1.60472e-08
1.60464e-08
1.60457e-08
1.60452e-08
1.60448e-08
1.60445e-08
1.60442e-08
1.60441e-08
1.60441e-08
1.60441e-08
1.60442e-08
1.60443e-08
1.60459e-08
1.60449e-08
1.6044e-08
1.60433e-08
1.60426e-08
1.60421e-08
1.60417e-08
1.60414e-08
1.60413e-08
1.60412e-08
1.60412e-08
1.60413e-08
1.60414e-08
1.60417e-08
1.60428e-08
1.60417e-08
1.60409e-08
1.60402e-08
1.60396e-08
1.60391e-08
1.60387e-08
1.60385e-08
1.60384e-08
1.60383e-08
1.60384e-08
1.60386e-08
1.60387e-08
1.60391e-08
1.60398e-08
1.60386e-08
1.60379e-08
1.60372e-08
1.60367e-08
1.60362e-08
1.60359e-08
1.60357e-08
1.60356e-08
1.60356e-08
1.60358e-08
1.6036e-08
1.60363e-08
1.60368e-08
1.60367e-08
1.60356e-08
1.6035e-08
1.60344e-08
1.60339e-08
1.60334e-08
1.60332e-08
1.6033e-08
1.6033e-08
1.60331e-08
1.60333e-08
1.60336e-08
1.60339e-08
1.60345e-08
1.60339e-08
1.60329e-08
1.60323e-08
1.60317e-08
1.60312e-08
1.60308e-08
1.60306e-08
1.60305e-08
1.60305e-08
1.60306e-08
1.60309e-08
1.60314e-08
1.60318e-08
1.60325e-08
1.60308e-08
1.603e-08
1.60294e-08
1.60289e-08
1.60286e-08
1.60283e-08
1.60282e-08
1.60281e-08
1.60282e-08
1.60284e-08
1.60287e-08
1.60291e-08
1.60296e-08
1.60303e-08
1.60413e-08
1.6041e-08
1.60406e-08
1.60405e-08
1.60405e-08
1.60407e-08
1.60409e-08
1.60413e-08
1.60418e-08
1.60424e-08
1.60432e-08
1.6044e-08
1.60451e-08
1.6046e-08
1.60385e-08
1.60385e-08
1.60382e-08
1.60381e-08
1.60381e-08
1.60382e-08
1.60385e-08
1.60389e-08
1.60394e-08
1.604e-08
1.60407e-08
1.60415e-08
1.60424e-08
1.60431e-08
1.6036e-08
1.6036e-08
1.60357e-08
1.60357e-08
1.60356e-08
1.60358e-08
1.60361e-08
1.60365e-08
1.6037e-08
1.60376e-08
1.60383e-08
1.6039e-08
1.604e-08
1.60406e-08
1.60336e-08
1.60335e-08
1.60333e-08
1.60332e-08
1.60332e-08
1.60334e-08
1.60337e-08
1.60341e-08
1.60346e-08
1.60352e-08
1.60359e-08
1.60366e-08
1.60375e-08
1.60381e-08
1.60312e-08
1.60311e-08
1.60309e-08
1.60308e-08
1.60309e-08
1.6031e-08
1.60313e-08
1.60317e-08
1.60323e-08
1.60329e-08
1.60336e-08
1.60343e-08
1.60352e-08
1.60359e-08
1.60289e-08
1.60288e-08
1.60286e-08
1.60285e-08
1.60286e-08
1.60287e-08
1.6029e-08
1.60295e-08
1.603e-08
1.60306e-08
1.60313e-08
1.60321e-08
1.60329e-08
1.60336e-08
1.60267e-08
1.60265e-08
1.60263e-08
1.60263e-08
1.60263e-08
1.60265e-08
1.60268e-08
1.60273e-08
1.60278e-08
1.60285e-08
1.60292e-08
1.603e-08
1.60307e-08
1.60316e-08
1.60245e-08
1.60243e-08
1.60242e-08
1.60241e-08
1.60242e-08
1.60244e-08
1.60247e-08
1.60252e-08
1.60257e-08
1.60264e-08
1.60271e-08
1.60279e-08
1.60287e-08
1.60296e-08
1.60224e-08
1.60222e-08
1.60221e-08
1.60221e-08
1.60222e-08
1.60224e-08
1.60227e-08
1.60232e-08
1.60238e-08
1.60245e-08
1.60252e-08
1.60261e-08
1.60268e-08
1.60278e-08
1.60204e-08
1.60202e-08
1.60201e-08
1.60201e-08
1.60203e-08
1.60205e-08
1.60209e-08
1.60214e-08
1.6022e-08
1.60227e-08
1.60235e-08
1.60243e-08
1.60251e-08
1.60261e-08
1.60185e-08
1.60182e-08
1.60183e-08
1.60183e-08
1.60185e-08
1.60188e-08
1.60192e-08
1.60197e-08
1.60203e-08
1.60211e-08
1.60218e-08
1.60227e-08
1.60236e-08
1.60246e-08
1.60167e-08
1.60164e-08
1.60165e-08
1.60166e-08
1.60168e-08
1.60172e-08
1.60176e-08
1.60182e-08
1.60188e-08
1.60196e-08
1.60204e-08
1.60213e-08
1.60221e-08
1.60231e-08
1.6015e-08
1.60148e-08
1.60149e-08
1.60151e-08
1.60153e-08
1.60157e-08
1.60162e-08
1.60168e-08
1.60175e-08
1.60182e-08
1.6019e-08
1.602e-08
1.60209e-08
1.60219e-08
1.60133e-08
1.60131e-08
1.60133e-08
1.60135e-08
1.60139e-08
1.60143e-08
1.60149e-08
1.60155e-08
1.60162e-08
1.6017e-08
1.60178e-08
1.60187e-08
1.60196e-08
1.60207e-08
1.60082e-08
1.60087e-08
1.60092e-08
1.60098e-08
1.60104e-08
1.60111e-08
1.60119e-08
1.60127e-08
1.60136e-08
1.60146e-08
1.60157e-08
1.60168e-08
1.60181e-08
1.60195e-08
1.60068e-08
1.60074e-08
1.60079e-08
1.60086e-08
1.60092e-08
1.601e-08
1.60107e-08
1.60116e-08
1.60125e-08
1.60135e-08
1.60146e-08
1.60158e-08
1.6017e-08
1.60182e-08
1.60055e-08
1.60062e-08
1.60067e-08
1.60073e-08
1.6008e-08
1.60087e-08
1.60095e-08
1.60104e-08
1.60114e-08
1.60125e-08
1.60136e-08
1.60148e-08
1.6016e-08
1.60171e-08
1.60043e-08
1.6005e-08
1.60055e-08
1.60062e-08
1.60068e-08
1.60076e-08
1.60084e-08
1.60093e-08
1.60102e-08
1.60113e-08
1.60124e-08
1.60136e-08
1.60149e-08
1.6016e-08
1.60033e-08
1.60038e-08
1.60043e-08
1.6005e-08
1.60056e-08
1.60064e-08
1.60072e-08
1.60081e-08
1.60091e-08
1.60102e-08
1.60113e-08
1.60125e-08
1.60138e-08
1.60149e-08
1.60021e-08
1.60027e-08
1.60032e-08
1.60039e-08
1.60045e-08
1.60053e-08
1.60061e-08
1.6007e-08
1.6008e-08
1.60091e-08
1.60102e-08
1.60114e-08
1.60126e-08
1.60138e-08
1.60011e-08
1.60016e-08
1.60022e-08
1.60028e-08
1.60035e-08
1.60042e-08
1.60051e-08
1.6006e-08
1.6007e-08
1.60081e-08
1.60092e-08
1.60104e-08
1.60116e-08
1.60128e-08
1.60001e-08
1.60006e-08
1.60012e-08
1.60018e-08
1.60025e-08
1.60033e-08
1.60041e-08
1.60051e-08
1.60061e-08
1.60072e-08
1.60083e-08
1.60094e-08
1.60106e-08
1.60118e-08
1.59992e-08
1.59997e-08
1.60003e-08
1.60009e-08
1.60016e-08
1.60024e-08
1.60033e-08
1.60042e-08
1.60052e-08
1.60063e-08
1.60074e-08
1.60086e-08
1.60097e-08
1.60109e-08
1.59983e-08
1.59988e-08
1.59994e-08
1.60001e-08
1.60009e-08
1.60017e-08
1.60026e-08
1.60035e-08
1.60045e-08
1.60055e-08
1.60066e-08
1.60078e-08
1.60089e-08
1.60101e-08
1.59976e-08
1.59981e-08
1.59987e-08
1.59994e-08
1.60002e-08
1.6001e-08
1.60019e-08
1.60029e-08
1.60038e-08
1.60049e-08
1.6006e-08
1.60071e-08
1.60082e-08
1.60094e-08
1.59969e-08
1.59974e-08
1.59981e-08
1.59988e-08
1.59996e-08
1.60004e-08
1.60013e-08
1.60023e-08
1.60033e-08
1.60043e-08
1.60054e-08
1.60065e-08
1.60076e-08
1.60087e-08
1.59962e-08
1.59968e-08
1.59975e-08
1.59983e-08
1.59991e-08
1.6e-08
1.60009e-08
1.60019e-08
1.60029e-08
1.60039e-08
1.60049e-08
1.6006e-08
1.60071e-08
1.60082e-08
1.59956e-08
1.59961e-08
1.59969e-08
1.59977e-08
1.59986e-08
1.59995e-08
1.60005e-08
1.60014e-08
1.60025e-08
1.60035e-08
1.60045e-08
1.60055e-08
1.60066e-08
1.60077e-08
1.59732e-08
1.59743e-08
1.59753e-08
1.59763e-08
1.59774e-08
1.59784e-08
1.59794e-08
1.59805e-08
1.59815e-08
1.59826e-08
1.59837e-08
1.59849e-08
1.59861e-08
1.59873e-08
1.5973e-08
1.59741e-08
1.59752e-08
1.59763e-08
1.59774e-08
1.59784e-08
1.59795e-08
1.59806e-08
1.59817e-08
1.59828e-08
1.5984e-08
1.59851e-08
1.59863e-08
1.59874e-08
1.59731e-08
1.59742e-08
1.59752e-08
1.59763e-08
1.59774e-08
1.59785e-08
1.59796e-08
1.59807e-08
1.59818e-08
1.5983e-08
1.59841e-08
1.59853e-08
1.59865e-08
1.59876e-08
1.59731e-08
1.59742e-08
1.59753e-08
1.59764e-08
1.59775e-08
1.59785e-08
1.59797e-08
1.59808e-08
1.59819e-08
1.59831e-08
1.59843e-08
1.59855e-08
1.59867e-08
1.59878e-08
1.59733e-08
1.59743e-08
1.59754e-08
1.59764e-08
1.59775e-08
1.59786e-08
1.59797e-08
1.59808e-08
1.5982e-08
1.59831e-08
1.59843e-08
1.59855e-08
1.59868e-08
1.59879e-08
1.59733e-08
1.59743e-08
1.59754e-08
1.59765e-08
1.59776e-08
1.59787e-08
1.59798e-08
1.59809e-08
1.5982e-08
1.59832e-08
1.59844e-08
1.59856e-08
1.59868e-08
1.5988e-08
1.59734e-08
1.59744e-08
1.59755e-08
1.59766e-08
1.59776e-08
1.59787e-08
1.59798e-08
1.5981e-08
1.59821e-08
1.59833e-08
1.59844e-08
1.59856e-08
1.59868e-08
1.5988e-08
1.59734e-08
1.59745e-08
1.59756e-08
1.59766e-08
1.59777e-08
1.59788e-08
1.59799e-08
1.59811e-08
1.59822e-08
1.59833e-08
1.59845e-08
1.59857e-08
1.59868e-08
1.5988e-08
1.59735e-08
1.59746e-08
1.59757e-08
1.59768e-08
1.59779e-08
1.5979e-08
1.59801e-08
1.59812e-08
1.59823e-08
1.59834e-08
1.59845e-08
1.59857e-08
1.59868e-08
1.5988e-08
1.59737e-08
1.59747e-08
1.59758e-08
1.59769e-08
1.5978e-08
1.59791e-08
1.59802e-08
1.59813e-08
1.59824e-08
1.59835e-08
1.59846e-08
1.59857e-08
1.59868e-08
1.5988e-08
1.59738e-08
1.59749e-08
1.5976e-08
1.59771e-08
1.59782e-08
1.59793e-08
1.59804e-08
1.59815e-08
1.59826e-08
1.59836e-08
1.59847e-08
1.59858e-08
1.59869e-08
1.5988e-08
1.5974e-08
1.5975e-08
1.59761e-08
1.59773e-08
1.59784e-08
1.59795e-08
1.59806e-08
1.59817e-08
1.59828e-08
1.59838e-08
1.59849e-08
1.59859e-08
1.59869e-08
1.5988e-08
1.59742e-08
1.59753e-08
1.59764e-08
1.59775e-08
1.59786e-08
1.59797e-08
1.59808e-08
1.59819e-08
1.5983e-08
1.5984e-08
1.5985e-08
1.59861e-08
1.59871e-08
1.59881e-08
1.59745e-08
1.59755e-08
1.59766e-08
1.59777e-08
1.59788e-08
1.598e-08
1.5981e-08
1.59821e-08
1.59832e-08
1.59842e-08
1.59852e-08
1.59862e-08
1.59872e-08
1.59882e-08
1.59365e-08
1.59375e-08
1.59387e-08
1.59398e-08
1.59409e-08
1.5942e-08
1.59431e-08
1.59441e-08
1.59451e-08
1.5946e-08
1.59469e-08
1.59478e-08
1.59487e-08
1.59496e-08
1.59372e-08
1.59383e-08
1.59395e-08
1.59407e-08
1.59419e-08
1.5943e-08
1.59441e-08
1.59452e-08
1.59462e-08
1.59472e-08
1.59481e-08
1.5949e-08
1.59499e-08
1.59507e-08
1.59382e-08
1.59393e-08
1.59406e-08
1.59417e-08
1.59429e-08
1.5944e-08
1.59451e-08
1.59462e-08
1.59472e-08
1.59482e-08
1.59491e-08
1.595e-08
1.5951e-08
1.59518e-08
1.59391e-08
1.59402e-08
1.59415e-08
1.59427e-08
1.59439e-08
1.5945e-08
1.59461e-08
1.59472e-08
1.59482e-08
1.59492e-08
1.59502e-08
1.59511e-08
1.59521e-08
1.59529e-08
1.594e-08
1.59412e-08
1.59425e-08
1.59437e-08
1.59448e-08
1.5946e-08
1.59471e-08
1.59481e-08
1.59492e-08
1.59502e-08
1.59511e-08
1.59521e-08
1.5953e-08
1.59539e-08
1.59409e-08
1.59421e-08
1.59434e-08
1.59446e-08
1.59457e-08
1.59469e-08
1.5948e-08
1.59491e-08
1.59501e-08
1.59511e-08
1.59521e-08
1.5953e-08
1.59539e-08
1.59549e-08
1.59417e-08
1.5943e-08
1.59442e-08
1.59455e-08
1.59466e-08
1.59478e-08
1.59489e-08
1.59499e-08
1.5951e-08
1.59519e-08
1.59529e-08
1.59538e-08
1.59548e-08
1.59557e-08
1.59426e-08
1.59438e-08
1.59451e-08
1.59463e-08
1.59475e-08
1.59486e-08
1.59497e-08
1.59508e-08
1.59518e-08
1.59528e-08
1.59537e-08
1.59546e-08
1.59556e-08
1.59565e-08
1.59434e-08
1.59447e-08
1.59459e-08
1.59471e-08
1.59483e-08
1.59494e-08
1.59505e-08
1.59516e-08
1.59526e-08
1.59535e-08
1.59544e-08
1.59554e-08
1.59563e-08
1.59572e-08
1.59442e-08
1.59454e-08
1.59467e-08
1.59479e-08
1.59491e-08
1.59502e-08
1.59513e-08
1.59523e-08
1.59533e-08
1.59542e-08
1.59552e-08
1.5956e-08
1.59569e-08
1.59578e-08
1.5945e-08
1.59462e-08
1.59474e-08
1.59486e-08
1.59498e-08
1.59509e-08
1.5952e-08
1.5953e-08
1.5954e-08
1.59549e-08
1.59558e-08
1.59567e-08
1.59575e-08
1.59584e-08
1.59457e-08
1.5947e-08
1.59482e-08
1.59494e-08
1.59505e-08
1.59516e-08
1.59527e-08
1.59537e-08
1.59547e-08
1.59556e-08
1.59564e-08
1.59573e-08
1.59581e-08
1.5959e-08
1.59465e-08
1.59478e-08
1.59489e-08
1.59501e-08
1.59512e-08
1.59523e-08
1.59534e-08
1.59544e-08
1.59553e-08
1.59562e-08
1.5957e-08
1.59579e-08
1.59587e-08
1.59595e-08
1.59474e-08
1.59486e-08
1.59497e-08
1.59509e-08
1.59519e-08
1.5953e-08
1.5954e-08
1.5955e-08
1.59559e-08
1.59568e-08
1.59576e-08
1.59584e-08
1.59592e-08
1.59601e-08
1.58992e-08
1.59e-08
1.59009e-08
1.59018e-08
1.59027e-08
1.59036e-08
1.59044e-08
1.59052e-08
1.59059e-08
1.59066e-08
1.59072e-08
1.59077e-08
1.59082e-08
1.59088e-08
1.59004e-08
1.59012e-08
1.59022e-08
1.59031e-08
1.59041e-08
1.5905e-08
1.59058e-08
1.59066e-08
1.59074e-08
1.5908e-08
1.59087e-08
1.59092e-08
1.59097e-08
1.59103e-08
1.59017e-08
1.59026e-08
1.59036e-08
1.59045e-08
1.59055e-08
1.59064e-08
1.59072e-08
1.5908e-08
1.59088e-08
1.59094e-08
1.59101e-08
1.59106e-08
1.59111e-08
1.59117e-08
1.59029e-08
1.59039e-08
1.59049e-08
1.59059e-08
1.59069e-08
1.59078e-08
1.59086e-08
1.59094e-08
1.59102e-08
1.59109e-08
1.59115e-08
1.5912e-08
1.59126e-08
1.59131e-08
1.59042e-08
1.59052e-08
1.59062e-08
1.59072e-08
1.59082e-08
1.59091e-08
1.591e-08
1.59108e-08
1.59115e-08
1.59122e-08
1.59128e-08
1.59134e-08
1.59139e-08
1.59144e-08
1.59054e-08
1.59064e-08
1.59075e-08
1.59085e-08
1.59095e-08
1.59104e-08
1.59113e-08
1.59121e-08
1.59128e-08
1.59135e-08
1.59141e-08
1.59147e-08
1.59152e-08
1.59157e-08
1.59066e-08
1.59077e-08
1.59087e-08
1.59097e-08
1.59107e-08
1.59116e-08
1.59125e-08
1.59133e-08
1.5914e-08
1.59147e-08
1.59153e-08
1.59159e-08
1.59165e-08
1.5917e-08
1.59077e-08
1.59088e-08
1.59099e-08
1.59109e-08
1.59119e-08
1.59128e-08
1.59137e-08
1.59145e-08
1.59152e-08
1.59159e-08
1.59165e-08
1.59171e-08
1.59176e-08
1.59181e-08
1.59089e-08
1.591e-08
1.5911e-08
1.59121e-08
1.5913e-08
1.59139e-08
1.59148e-08
1.59156e-08
1.59163e-08
1.5917e-08
1.59176e-08
1.59182e-08
1.59187e-08
1.59192e-08
1.591e-08
1.59111e-08
1.59121e-08
1.59131e-08
1.59141e-08
1.5915e-08
1.59158e-08
1.59166e-08
1.59173e-08
1.5918e-08
1.59186e-08
1.59192e-08
1.59197e-08
1.59202e-08
1.5911e-08
1.59121e-08
1.59131e-08
1.59141e-08
1.59151e-08
1.5916e-08
1.59168e-08
1.59176e-08
1.59183e-08
1.59189e-08
1.59196e-08
1.59201e-08
1.59207e-08
1.59212e-08
1.59121e-08
1.59132e-08
1.59141e-08
1.59151e-08
1.59161e-08
1.59169e-08
1.59177e-08
1.59185e-08
1.59192e-08
1.59198e-08
1.59204e-08
1.5921e-08
1.59215e-08
1.59221e-08
1.59131e-08
1.59142e-08
1.59151e-08
1.59161e-08
1.5917e-08
1.59178e-08
1.59186e-08
1.59193e-08
1.592e-08
1.59206e-08
1.59212e-08
1.59218e-08
1.59224e-08
1.59229e-08
1.59142e-08
1.59152e-08
1.59161e-08
1.5917e-08
1.59179e-08
1.59187e-08
1.59194e-08
1.59201e-08
1.59208e-08
1.59214e-08
1.5922e-08
1.59225e-08
1.59231e-08
1.59237e-08
1.58634e-08
1.58638e-08
1.58644e-08
1.58649e-08
1.58654e-08
1.58659e-08
1.58664e-08
1.58668e-08
1.58672e-08
1.58675e-08
1.58678e-08
1.58681e-08
1.58683e-08
1.58686e-08
1.58645e-08
1.58649e-08
1.58655e-08
1.58661e-08
1.58666e-08
1.58671e-08
1.58676e-08
1.58681e-08
1.58685e-08
1.58688e-08
1.58691e-08
1.58693e-08
1.58695e-08
1.58699e-08
1.58656e-08
1.58661e-08
1.58668e-08
1.58673e-08
1.58679e-08
1.58684e-08
1.58689e-08
1.58693e-08
1.58697e-08
1.587e-08
1.58703e-08
1.58706e-08
1.58707e-08
1.5871e-08
1.58668e-08
1.58673e-08
1.58679e-08
1.58685e-08
1.58691e-08
1.58696e-08
1.58701e-08
1.58706e-08
1.5871e-08
1.58713e-08
1.58716e-08
1.58718e-08
1.5872e-08
1.58723e-08
1.58679e-08
1.58685e-08
1.58691e-08
1.58697e-08
1.58703e-08
1.58708e-08
1.58713e-08
1.58718e-08
1.58722e-08
1.58725e-08
1.58728e-08
1.5873e-08
1.58732e-08
1.58734e-08
1.5869e-08
1.58696e-08
1.58703e-08
1.58709e-08
1.58715e-08
1.5872e-08
1.58725e-08
1.5873e-08
1.58734e-08
1.58737e-08
1.5874e-08
1.58742e-08
1.58744e-08
1.58746e-08
1.58701e-08
1.58708e-08
1.58714e-08
1.5872e-08
1.58726e-08
1.58732e-08
1.58737e-08
1.58741e-08
1.58745e-08
1.58749e-08
1.58751e-08
1.58754e-08
1.58756e-08
1.58758e-08
1.58712e-08
1.58719e-08
1.58725e-08
1.58731e-08
1.58737e-08
1.58743e-08
1.58748e-08
1.58752e-08
1.58756e-08
1.5876e-08
1.58763e-08
1.58765e-08
1.58767e-08
1.58769e-08
1.58722e-08
1.58729e-08
1.58736e-08
1.58742e-08
1.58748e-08
1.58753e-08
1.58758e-08
1.58762e-08
1.58766e-08
1.5877e-08
1.58773e-08
1.58776e-08
1.58778e-08
1.58779e-08
1.58732e-08
1.5874e-08
1.58746e-08
1.58752e-08
1.58758e-08
1.58763e-08
1.58768e-08
1.58772e-08
1.58776e-08
1.5878e-08
1.58783e-08
1.58785e-08
1.58788e-08
1.58789e-08
1.58742e-08
1.5875e-08
1.58756e-08
1.58762e-08
1.58767e-08
1.58773e-08
1.58777e-08
1.58782e-08
1.58786e-08
1.58789e-08
1.58792e-08
1.58795e-08
1.58797e-08
1.58798e-08
1.58752e-08
1.5876e-08
1.58765e-08
1.58771e-08
1.58777e-08
1.58782e-08
1.58786e-08
1.5879e-08
1.58794e-08
1.58798e-08
1.58801e-08
1.58803e-08
1.58806e-08
1.58807e-08
1.58762e-08
1.58769e-08
1.58774e-08
1.5878e-08
1.58785e-08
1.5879e-08
1.58794e-08
1.58798e-08
1.58802e-08
1.58806e-08
1.58809e-08
1.58811e-08
1.58814e-08
1.58816e-08
1.58772e-08
1.58778e-08
1.58783e-08
1.58789e-08
1.58794e-08
1.58798e-08
1.58802e-08