/*--------------------------------*- C++ -*----------------------------------*\
| =========                 |                                                 |
| \\      /  F ield         | OpenFOAM: The Open Source CFD Toolbox           |
|  \\    /   O peration     | Version:  v2106                                 |
|   \\  /    A nd           | Website:  www.openfoam.com                      |
|    \\/     M anipulation  |                                                 |
\*---------------------------------------------------------------------------*/
FoamFile
{
    version     2.0;
    format      ascii;
    arch        "LSB;label=32;scalar=64";
    class       volScalarField;
    location    "0.000174";
    object      p;
}
// * * * * * * * * * * * * * * * * * * * * * * * * * * * * * * * * * * * * * //

dimensions      [1 -1 -2 0 0 0 0];

internalField   nonuniform List<scalar> 
17924
(
239389
239365
239343
239314
239390
239367
239344
239313
239283
239248
239213
239387
239367
239345
239318
239288
239255
239221
239386
239369
239346
239319
239290
239259
239227
239391
239376
239352
239326
239298
239268
239238
239402
239386
239362
239337
239308
239280
239250
239417
239400
239375
239350
239322
239294
239264
239437
239417
239392
239366
239338
239310
239280
239461
239439
239413
239386
239357
239328
239297
239487
239463
239435
239407
239377
239346
239315
239516
239490
239461
239431
239399
239368
239335
239547
239519
239488
239457
239423
239390
239355
239579
239548
239515
239483
239449
239414
239378
239613
239581
239546
239510
239473
239437
239400
239656
239612
239573
239535
239498
239461
239423
239357
239336
239312
239282
239249
239212
239171
239128
239083
239035
238988
238937
238890
238838
239329
239313
239289
239261
239229
239194
239154
239112
239068
239022
238975
238925
238880
238832
239306
239292
239267
239239
239208
239173
239136
239097
239055
239012
238968
238922
238879
238833
239288
239273
239247
239221
239190
239157
239120
239082
239042
239000
238959
238916
238874
238830
239275
239258
239231
239204
239173
239141
239105
239068
239029
238989
238948
238906
238865
238822
239265
239245
239218
239190
239159
239127
239091
239054
239016
238976
238936
238894
238853
238811
239258
239235
239207
239178
239147
239114
239078
239041
239003
238963
238923
238881
238840
238797
239253
239227
239198
239168
239135
239101
239065
239028
238988
238948
238907
238865
238822
238779
239251
239223
239191
239159
239125
239090
239052
239014
238973
238932
238889
238846
238800
238757
239249
239217
239184
239150
239115
239078
239039
238999
238957
238914
238869
238824
238775
238731
239249
239214
239179
239143
239105
239066
239025
238983
238938
238893
238845
238799
238746
238701
239248
239210
239172
239134
239094
239053
239010
238966
238919
238872
238821
238772
238716
238669
239248
239206
239166
239124
239082
239039
238994
238947
238898
238847
238794
238741
238682
238631
239245
239199
239158
239113
239069
239023
238975
238927
238877
238825
238771
238716
238656
238597
239227
239207
239181
239153
239121
239084
239043
238997
238948
238895
238840
238779
238722
238655
239180
239165
239140
239113
239080
239044
239003
238957
238907
238854
238799
238740
238683
238622
239140
239126
239099
239071
239038
239002
238962
238918
238870
238818
238764
238707
238651
238592
239102
239086
239058
239030
238997
238962
238922
238878
238831
238780
238727
238672
238618
238560
239068
239048
239019
238991
238957
238921
238881
238838
238792
238743
238691
238638
238584
238528
239033
239010
238981
238951
238917
238880
238840
238797
238751
238702
238652
238599
238546
238491
239001
238974
238944
238912
238877
238839
238799
238756
238709
238661
238611
238559
238506
238452
238967
238937
238905
238872
238835
238797
238755
238711
238665
238616
238565
238514
238460
238407
238935
238902
238868
238832
238794
238754
238711
238666
238618
238569
238517
238465
238411
238359
238900
238864
238828
238789
238750
238708
238664
238618
238569
238519
238466
238413
238357
238306
238868
238827
238789
238748
238706
238662
238616
238567
238516
238464
238409
238356
238297
238249
238829
238786
238745
238702
238658
238612
238564
238514
238462
238409
238352
238298
238236
238188
238793
238747
238704
238658
238611
238562
238511
238458
238403
238346
238287
238230
238167
238119
238749
238699
238653
238606
238557
238506
238454
238400
238344
238288
238229
238170
238108
238051
238935
238914
238887
238860
238829
238795
238757
238715
238669
238620
238566
238509
238451
238386
238879
238859
238832
238805
238773
238738
238698
238655
238607
238556
238501
238443
238384
238323
238824
238806
238776
238747
238714
238679
238639
238595
238548
238497
238443
238386
238329
238269
238770
238750
238719
238689
238655
238619
238578
238534
238486
238435
238381
238324
238268
238209
238718
238694
238662
238630
238595
238558
238516
238472
238424
238373
238321
238265
238210
238151
238663
238635
238602
238569
238533
238495
238453
238408
238360
238309
238256
238201
238147
238090
238608
238577
238542
238507
238470
238430
238387
238342
238294
238243
238191
238138
238084
238029
238549
238514
238479
238442
238403
238362
238319
238273
238225
238175
238122
238070
238016
237963
238489
238452
238415
238376
238336
238293
238249
238202
238153
238103
238051
238000
237946
237897
238425
238384
238346
238305
238264
238220
238175
238128
238079
238029
237977
237926
237872
237826
238362
238318
238279
238235
238192
238146
238100
238051
238001
237951
237898
237848
237795
237753
238292
238245
238204
238159
238115
238068
238021
237972
237922
237871
237819
237769
237716
237677
238227
238177
238133
238086
238039
237991
237941
237890
237838
237786
237733
237683
237631
237595
238147
238097
238051
238004
237956
237907
237857
237807
237756
237705
237653
237603
237552
237511
238467
238441
238411
238384
238356
238327
238297
238264
238229
238193
238154
238113
238070
238025
238400
238378
238347
238319
238289
238258
238225
238190
238152
238113
238072
238029
237984
237936
238334
238312
238279
238250
238218
238186
238151
238115
238077
238038
237997
237953
237909
237862
238269
238244
238211
238180
238147
238113
238077
238040
238001
237960
237918
237873
237829
237783
238202
238175
238140
238108
238073
238038
238001
237963
237924
237882
237840
237797
237754
237708
238133
238102
238066
238033
237998
237962
237924
237885
237845
237803
237761
237718
237676
237631
238061
238027
237991
237956
237920
237883
237845
237806
237765
237724
237682
237640
237599
237557
237985
237948
237912
237876
237840
237802
237763
237724
237684
237643
237602
237560
237520
237480
237907
237868
237832
237795
237758
237719
237680
237641
237601
237561
237520
237480
237442
237406
237825
237784
237748
237710
237672
237633
237595
237555
237516
237477
237437
237399
237361
237330
237744
237701
237665
237625
237587
237547
237508
237469
237430
237391
237353
237317
237282
237256
237659
237613
237576
237536
237498
237459
237420
237381
237343
237306
237269
237235
237201
237180
237578
237531
237493
237452
237412
237372
237332
237293
237254
237218
237183
237152
237120
237103
237481
237439
237399
237360
237320
237281
237243
237205
237168
237133
237100
237070
237041
237023
237846
237818
237788
237764
237741
237721
237701
237682
237664
237645
237626
237607
237588
237573
237771
237750
237720
237694
237669
237646
237625
237604
237583
237562
237541
237519
237498
237476
237700
237678
237647
237620
237594
237570
237547
237525
237502
237481
237459
237436
237416
237393
237627
237604
237573
237546
237518
237493
237469
237446
237423
237400
237377
237354
237333
237307
237555
237529
237497
237469
237441
237416
237390
237366
237342
237319
237296
237274
237253
237228
237480
237451
237420
237391
237363
237337
237311
237287
237263
237239
237216
237194
237173
237150
237403
237372
237341
237312
237284
237257
237232
237207
237183
237160
237137
237116
237096
237075
237323
237291
237261
237231
237204
237177
237152
237127
237104
237081
237059
237039
237020
237002
237243
237209
237180
237150
237123
237096
237071
237047
237024
237003
236983
236964
236946
236932
237161
237126
237098
237068
237041
237015
236991
236968
236946
236925
236906
236890
236874
236863
237081
237045
237017
236988
236961
236936
236912
236889
236869
236850
236832
236818
236804
236799
236999
236962
236935
236907
236881
236856
236833
236812
236793
236775
236760
236746
236734
236734
236921
236886
236858
236830
236804
236780
236757
236736
236719
236703
236689
236678
236668
236674
236833
236804
236776
236750
236726
236703
236682
236663
236646
236632
236620
236611
236603
236608
237117
237096
237074
237059
237046
237036
237029
237024
237022
237021
237021
237023
237030
237036
237044
237029
237008
236992
236979
236968
236960
236954
236951
236949
236949
236949
236954
236950
236977
236962
236940
236924
236910
236899
236890
236883
236879
236876
236876
236874
236880
236875
236908
236893
236871
236855
236841
236830
236820
236814
236809
236806
236805
236803
236806
236801
236841
236824
236803
236787
236772
236761
236751
236744
236739
236736
236735
236733
236736
236732
236773
236754
236735
236718
236704
236692
236683
236676
236672
236668
236667
236666
236667
236665
236705
236685
236666
236650
236636
236624
236615
236609
236605
236602
236601
236601
236602
236603
236638
236617
236599
236583
236569
236558
236550
236544
236540
236538
236537
236538
236539
236543
236571
236550
236532
236517
236504
236493
236485
236480
236477
236476
236476
236479
236481
236486
236506
236483
236467
236453
236440
236430
236423
236419
236416
236416
236418
236421
236425
236432
236442
236419
236404
236390
236379
236370
236364
236360
236359
236360
236363
236368
236373
236383
236379
236356
236343
236330
236320
236312
236307
236304
236304
236306
236310
236316
236323
236336
236319
236298
236286
236274
236264
236257
236253
236251
236252
236256
236261
236269
236278
236293
236256
236240
236227
236217
236210
236204
236201
236201
236203
236207
236214
236224
236234
236249
236321
236316
236310
236308
236307
236310
236315
236323
236334
236347
236362
236380
236402
236424
236262
236263
236258
236256
236256
236259
236265
236274
236284
236298
236313
236330
236350
236365
236213
236212
236208
236205
236205
236208
236214
236223
236233
236246
236261
236277
236297
236311
236162
236160
236156
236155
236155
236159
236165
236174
236184
236197
236212
236227
236246
236259
236113
236110
236106
236105
236105
236109
236116
236125
236136
236149
236163
236179
236197
236212
236065
236062
236058
236057
236058
236062
236068
236077
236088
236102
236116
236132
236149
236165
236019
236014
236011
236010
236011
236015
236022
236031
236043
236057
236072
236088
236105
236122
235973
235969
235966
235965
235967
235971
235978
235987
235999
236013
236029
236046
236062
236080
235929
235925
235923
235922
235925
235929
235937
235947
235959
235973
235989
236006
236023
236042
235887
235882
235882
235882
235885
235890
235898
235909
235922
235936
235952
235970
235987
236006
235847
235842
235842
235844
235848
235854
235863
235874
235887
235902
235919
235937
235954
235974
235809
235804
235806
235808
235813
235821
235830
235842
235856
235871
235888
235906
235923
235945
235773
235769
235771
235775
235782
235790
235801
235813
235828
235844
235861
235879
235898
235919
235738
235736
235739
235745
235752
235761
235772
235785
235800
235817
235835
235854
235873
235895
235485
235497
235507
235520
235533
235547
235563
235580
235599
235619
235641
235665
235690
235721
235456
235469
235480
235494
235507
235522
235539
235557
235577
235598
235621
235646
235670
235697
235432
235445
235455
235468
235482
235497
235514
235532
235553
235575
235598
235623
235648
235673
235407
235420
235431
235444
235457
235473
235490
235509
235529
235551
235575
235600
235625
235650
235384
235396
235406
235419
235433
235449
235466
235485
235506
235528
235551
235576
235601
235626
235360
235372
235383
235396
235410
235426
235443
235463
235483
235505
235529
235553
235578
235603
235339
235349
235361
235374
235388
235404
235422
235441
235462
235484
235508
235532
235557
235581
235318
235329
235341
235354
235369
235385
235403
235422
235443
235465
235488
235512
235536
235561
235299
235309
235322
235335
235350
235367
235385
235404
235425
235447
235470
235494
235518
235542
235281
235292
235305
235319
235334
235351
235370
235389
235410
235431
235454
235477
235501
235524
235265
235276
235289
235304
235320
235337
235356
235376
235396
235418
235440
235463
235485
235509
235250
235262
235276
235291
235307
235325
235344
235364
235385
235406
235428
235450
235472
235495
235235
235248
235263
235279
235296
235315
235334
235355
235376
235397
235419
235440
235461
235485
235224
235237
235252
235270
235287
235306
235325
235346
235367
235388
235409
235431
235453
235476
234622
234644
234666
234687
234708
234729
234750
234771
234793
234815
234838
234862
234886
234912
234619
234641
234663
234685
234707
234730
234752
234775
234798
234821
234844
234868
234892
234918
234621
234642
234665
234686
234709
234731
234754
234777
234800
234823
234846
234871
234895
234920
234621
234643
234665
234687
234710
234732
234755
234778
234802
234825
234849
234874
234899
234924
234623
234644
234666
234688
234711
234733
234756
234779
234803
234826
234851
234875
234900
234925
234623
234645
234667
234689
234712
234734
234757
234781
234804
234828
234852
234877
234901
234926
234625
234646
234668
234691
234713
234736
234759
234782
234805
234829
234853
234877
234901
234926
234626
234648
234670
234693
234715
234738
234761
234784
234807
234830
234854
234878
234902
234926
234628
234650
234672
234695
234718
234741
234763
234786
234809
234832
234855
234878
234902
234925
234630
234652
234675
234698
234721
234744
234766
234789
234811
234834
234856
234879
234902
234924
234633
234655
234678
234701
234724
234747
234770
234792
234814
234836
234858
234880
234902
234923
234636
234659
234681
234705
234727
234751
234773
234796
234818
234839
234861
234882
234903
234923
234639
234662
234684
234708
234731
234755
234777
234800
234822
234844
234864
234885
234905
234925
234646
234669
234691
234714
234737
234760
234782
234804
234826
234846
234867
234886
234907
234928
233733
233755
233780
233803
233826
233848
233869
233890
233910
233929
233948
233966
233982
234003
233750
233773
233798
233821
233845
233868
233891
233913
233933
233953
233972
233991
234008
234028
233771
233793
233819
233843
233867
233890
233912
233933
233954
233974
233993
234012
234029
234049
233789
233812
233838
233862
233886
233909
233932
233954
233975
233995
234015
234034
234052
234071
233807
233831
233857
233882
233906
233929
233952
233973
233994
234014
234034
234053
234071
234090
233825
233850
233875
233900
233925
233948
233971
233992
234013
234033
234053
234072
234090
234109
233842
233868
233893
233918
233943
233966
233989
234010
234031
234051
234070
234089
234107
234125
233859
233885
233910
233936
233960
233983
234006
234027
234048
234067
234086
234105
234123
234141
233875
233901
233927
233952
233976
234000
234022
234043
234063
234082
234101
234119
234138
234155
233891
233917
233942
233968
233992
234015
234037
234058
234078
234097
234115
234133
234151
234168
233906
233933
233957
233982
234006
234030
234051
234072
234092
234110
234128
234145
234163
234179
233922
233948
233972
233997
234021
234044
234065
234086
234105
234123
234141
234157
234174
234190
233937
233962
233986
234011
234034
234057
234078
234098
234117
234135
234152
234169
234185
234201
233955
233981
234003
234027
234049
234071
234091
234111
234129
234146
234163
234179
234195
234212
232847
232863
232883
232901
232919
232937
232954
232969
232984
232997
233009
233020
233030
233043
232871
232888
232908
232928
232947
232965
232983
232999
233014
233028
233040
233051
233061
233073
232898
232916
232937
232956
232976
232994
233012
233028
233042
233056
233068
233079
233089
233101
232923
232942
232964
232984
233004
233022
233040
233056
233071
233085
233097
233108
233118
233129
232948
232969
232991
233011
233031
233049
233067
233083
233098
233112
233124
233135
233145
233156
232973
232994
233016
233037
233057
233076
233093
233110
233125
233138
233150
233162
233172
233182
232997
233019
233041
233062
233082
233101
233118
233135
233149
233163
233175
233186
233197
233207
233020
233043
233065
233086
233106
233125
233142
233158
233173
233186
233199
233210
233221
233230
233043
233066
233087
233108
233128
233147
233164
233180
233195
233208
233220
233232
233243
233252
233065
233088
233109
233130
233149
233168
233185
233201
233215
233228
233241
233252
233263
233272
233086
233109
233129
233150
233169
233188
233204
233220
233234
233247
233259
233271
233281
233290
233107
233130
233150
233170
233189
233206
233222
233238
233252
233265
233277
233288
233299
233308
233126
233149
233168
233188
233206
233224
233240
233254
233268
233281
233292
233303
233314
233324
233149
233170
233189
233208
233225
233241
233256
233270
233283
233295
233306
233317
233328
233339
231999
232007
232019
232030
232040
232050
232060
232068
232076
232083
232089
232093
232097
232104
232022
232030
232043
232054
232065
232076
232085
232094
232102
232109
232115
232119
232123
232129
232045
232054
232067
232079
232091
232101
232111
232120
232127
232134
232140
232144
232147
232153
232068
232078
232092
232104
232116
232126
232136
232145
232153
232159
232165
232170
232173
232178
232090
232102
232116
232128
232140
232151
232161
232170
232178
232184
232190
232194
232198
232201
232112
232126
232139
232152
232164
232175
232185
232194
232202
232208
232214
232218
232222
232225
232134
232148
232162
232175
232187
232198
232208
232217
232225
232231
232237
232242
232245
232248
232156
232171
232184
232197
232209
232220
232230
232239
232247
232253
232259
232264
232268
232270
232177
232192
232205
232218
232230
232241
232250
232259
232267
232274
232280
232285
232289
232291
232197
232213
232225
232238
232250
232260
232270
232279
232287
232294
232300
232304
232309
232311
232217
232232
232245
232257
232269
232279
232289
232297
232305
232312
232318
232323
232327
232329
232237
232252
232264
232276
232287
232297
232306
232314
232322
232329
232335
232340
232344
232347
232255
232270
232281
232293
232304
232313
232322
232330
232338
232344
232350
232355
232359
232363
232275
232289
232300
232311
232320
232329
232337
232345
232352
232358
232364
232369
232374
232379
231209
231212
231216
231220
231223
231226
231229
231231
231233
231235
231235
231236
231235
231237
231225
231228
231232
231236
231240
231243
231246
231248
231250
231251
231252
231252
231251
231253
231240
231243
231248
231252
231256
231260
231262
231265
231266
231267
231268
231268
231267
231268
231256
231260
231265
231269
231273
231276
231279
231281
231283
231284
231284
231284
231283
231284
231271
231275
231280
231285
231289
231292
231295
231297
231299
231300
231301
231300
231299
231299
231286
231291
231296
231301
231305
231308
231311
231313
231315
231316
231317
231316
231315
231314
231301
231307
231312
231316
231320
231324
231327
231329
231331
231332
231332
231332
231331
231329
231316
231322
231327
231331
231335
231339
231342
231344
231346
231347
231347
231347
231346
231344
231330
231337
231341
231346
231350
231353
231356
231359
231360
231361
231362
231362
231361
231359
231344
231351
231355
231360
231364
231367
231370
231372
231374
231375
231376
231375
231375
231372
231358
231365
231369
231373
231377
231381
231383
231385
231387
231388
231389
231388
231388
231386
231371
231378
231382
231386
231390
231393
231395
231398
231399
231400
231401
231401
231401
231399
231384
231390
231394
231398
231402
231404
231407
231409
231410
231411
231412
231412
231412
231410
231396
231402
231406
231409
231412
231415
231417
231419
231420
231421
231422
231422
231422
231421
230470
230470
230470
230469
230468
230467
230466
230464
230463
230461
230458
230456
230453
230450
230480
230479
230478
230478
230477
230475
230474
230472
230470
230468
230466
230463
230460
230457
230487
230486
230486
230486
230485
230483
230482
230480
230478
230476
230473
230471
230467
230465
230495
230494
230494
230494
230493
230491
230490
230488
230486
230484
230481
230478
230475
230472
230503
230502
230502
230501
230500
230499
230497
230496
230494
230491
230489
230486
230482
230479
230510
230510
230510
230509
230508
230507
230505
230503
230501
230499
230496
230493
230489
230486
230517
230517
230517
230516
230515
230514
230512
230510
230508
230506
230503
230500
230496
230492
230525
230525
230524
230524
230523
230521
230520
230518
230516
230513
230510
230507
230504
230499
230531
230532
230531
230531
230530
230528
230527
230525
230522
230520
230517
230514
230510
230506
230538
230538
230538
230537
230536
230535
230533
230531
230529
230527
230524
230520
230517
230512
230544
230544
230544
230543
230542
230541
230539
230537
230535
230533
230530
230526
230523
230518
230549
230550
230549
230549
230548
230546
230545
230543
230541
230538
230535
230532
230529
230524
230554
230555
230554
230554
230553
230551
230550
230548
230546
230543
230540
230537
230534
230529
230558
230558
230558
230557
230556
230555
230554
230552
230550
230547
230545
230542
230538
230534
229764
229764
229762
229760
229758
229755
229753
229750
229747
229743
229740
229736
229732
229727
229769
229767
229766
229764
229761
229759
229756
229753
229749
229746
229742
229738
229734
229729
229771
229770
229768
229766
229764
229761
229758
229755
229752
229748
229745
229740
229736
229731
229774
229773
229771
229769
229766
229764
229761
229757
229754
229750
229747
229742
229738
229733
229777
229775
229774
229771
229769
229766
229763
229760
229756
229752
229749
229744
229740
229735
229779
229778
229776
229773
229771
229768
229765
229761
229758
229754
229750
229746
229741
229736
229781
229779
229777
229775
229772
229769
229766
229763
229759
229756
229752
229747
229742
229737
229782
229781
229779
229776
229774
229771
229768
229764
229761
229757
229753
229748
229743
229738
229783
229781
229780
229777
229775
229772
229769
229765
229762
229758
229754
229749
229744
229739
229784
229782
229780
229778
229775
229772
229769
229766
229762
229759
229754
229750
229745
229739
229783
229782
229780
229778
229775
229773
229770
229766
229763
229759
229755
229750
229745
229740
229783
229781
229779
229777
229775
229772
229770
229766
229763
229759
229755
229750
229745
229740
229781
229780
229778
229776
229774
229772
229769
229766
229762
229759
229755
229750
229745
229739
229778
229777
229776
229774
229772
229770
229768
229765
229762
229758
229754
229750
229745
229739
229081
229082
229081
229080
229079
229077
229074
229071
229068
229065
229061
229057
229053
229048
229083
229084
229083
229082
229080
229078
229076
229073
229070
229066
229062
229058
229054
229048
229084
229084
229084
229083
229081
229079
229077
229074
229070
229067
229063
229059
229054
229049
229085
229085
229084
229083
229081
229079
229077
229074
229071
229067
229063
229059
229054
229049
229085
229085
229084
229083
229081
229079
229077
229074
229071
229067
229063
229059
229054
229049
229085
229085
229084
229083
229081
229079
229076
229073
229070
229066
229062
229058
229053
229048
229084
229084
229083
229081
229080
229078
229075
229072
229069
229065
229061
229056
229052
229046
229082
229082
229081
229080
229078
229076
229073
229071
229067
229063
229059
229055
229050
229044
229080
229080
229079
229078
229076
229074
229071
229068
229065
229061
229057
229053
229048
229042
229078
229077
229076
229075
229073
229071
229069
229066
229063
229059
229055
229050
229045
229040
229075
229074
229073
229072
229070
229068
229066
229063
229060
229056
229052
229047
229042
229037
229070
229069
229069
229068
229066
229065
229062
229060
229057
229053
229049
229044
229039
229034
229066
229065
229064
229063
229062
229061
229059
229056
229053
229050
229046
229041
229036
229030
229060
229059
229059
229058
229057
229056
229054
229052
229049
229046
229042
229038
229033
229027
228426
228428
228429
228430
228430
228429
228428
228426
228423
228421
228418
228414
228410
228405
228428
228430
228431
228431
228431
228430
228429
228427
228425
228422
228419
228415
228411
228406
228429
228430
228432
228432
228432
228431
228430
228428
228426
228423
228420
228416
228412
228407
228429
228431
228432
228432
228432
228432
228431
228429
228426
228424
228420
228416
228412
228408
228429
228431
228432
228432
228432
228432
228430
228428
228426
228423
228420
228416
228412
228407
228428
228430
228431
228431
228431
228431
228429
228427
228425
228422
228419
228415
228411
228406
228427
228428
228429
228430
228430
228429
228428
228426
228424
228421
228417
228414
228409
228404
228425
228426
228427
228427
228427
228427
228426
228424
228422
228419
228415
228411
228407
228402
228422
228423
228424
228424
228425
228424
228423
228421
228419
228416
228413
228409
228404
228399
228419
228420
228421
228421
228421
228421
228420
228418
228416
228413
228409
228406
228401
228396
228415
228415
228416
228417
228417
228417
228416
228414
228412
228409
228406
228402
228397
228393
228410
228411
228412
228412
228413
228413
228412
228410
228408
228405
228402
228398
228393
228389
228405
228406
228407
228407
228408
228408
228407
228406
228404
228401
228398
228394
228389
228384
228399
228400
228401
228402
228403
228403
228402
228401
228399
228396
228393
228390
228385
228380
227813
227815
227817
227818
227819
227819
227819
227818
227817
227815
227813
227810
227814
227816
227818
227820
227821
227821
227821
227820
227819
227817
227814
227812
227815
227818
227820
227821
227822
227822
227822
227821
227820
227818
227816
227813
227816
227818
227820
227822
227822
227823
227823
227822
227821
227819
227816
227814
227816
227818
227820
227822
227823
227823
227823
227822
227821
227819
227817
227814
227816
227818
227820
227821
227822
227823
227823
227822
227821
227819
227816
227814
227815
227817
227819
227820
227821
227822
227822
227821
227820
227818
227815
227813
227813
227815
227817
227819
227820
227820
227820
227819
227818
227816
227814
227811
227811
227813
227815
227816
227817
227818
227818
227817
227816
227814
227812
227809
227809
227811
227812
227814
227815
227815
227815
227815
227814
227812
227809
227807
227806
227807
227809
227811
227812
227812
227812
227812
227811
227809
227806
227804
227802
227804
227806
227807
227808
227809
227809
227808
227807
227806
227803
227801
227798
227800
227802
227803
227805
227805
227805
227805
227804
227802
227800
227797
227794
227796
227798
227799
227800
227801
227801
227801
227800
227798
227796
227793
239378
239374
239368
239366
239363
239362
239348
239345
239339
239336
239338
239344
239321
239312
239302
239296
239299
239306
239288
239270
239253
239242
239238
239238
239404
239416
239429
239443
239458
239472
239381
239400
239420
239443
239466
239491
239358
239377
239401
239428
239458
239490
239327
239345
239368
239396
239428
239463
239292
239304
239324
239347
239375
239405
239252
239257
239268
239283
239301
239320
239209
239205
239205
239206
239211
239214
239383
239408
239430
239453
239473
239493
239365
239399
239432
239468
239502
239536
239346
239384
239427
239470
239514
239559
239317
239359
239405
239456
239506
239556
239283
239324
239371
239421
239472
239524
239242
239280
239323
239368
239415
239461
239197
239228
239264
239300
239338
239374
239147
239168
239194
239219
239243
239266
239094
239105
239117
239128
239137
239144
239038
239037
239036
239032
239024
239017
238984
238971
238956
238939
238915
238893
238928
238902
238877
238848
238813
238778
238879
238842
238809
238772
238729
238684
238823
238780
238744
238702
238657
238610
239262
239294
239323
239352
239376
239401
239246
239289
239329
239370
239408
239447
239230
239281
239332
239382
239430
239479
239205
239262
239319
239379
239435
239492
239174
239234
239294
239357
239420
239482
239135
239195
239255
239317
239379
239443
239091
239146
239202
239260
239318
239378
239041
239089
239137
239187
239238
239291
238986
239022
239061
239099
239141
239185
238927
238950
238977
239002
239032
239065
238864
238874
238887
238899
238915
238933
238797
238793
238794
238793
238795
238798
238733
238717
238705
238691
238678
238665
238659
238633
238611
238587
238563
238539
238980
239021
239058
239093
239124
239156
238963
239013
239060
239108
239149
239190
238946
239008
239063
239121
239173
239223
238923
238993
239058
239124
239185
239246
238896
238972
239044
239118
239187
239256
238864
238943
239019
239097
239173
239249
238826
238904
238982
239060
239138
239218
238782
238856
238931
239007
239084
239161
238733
238799
238868
238937
239008
239079
238679
238733
238794
238853
238913
238975
238619
238660
238709
238755
238802
238851
238557
238583
238617
238648
238681
238715
238492
238501
238519
238535
238552
238569
238422
238416
238418
238418
238420
238420
238523
238575
238620
238665
238705
238747
238498
238560
238613
238669
238717
238765
238479
238551
238613
238676
238731
238785
238457
238537
238608
238679
238744
238807
238434
238521
238601
238680
238755
238827
238409
238501
238588
238675
238759
238840
238381
238476
238568
238660
238751
238840
238349
238444
238538
238633
238727
238821
238313
238404
238496
238590
238684
238778
238273
238357
238444
238531
238619
238709
238229
238301
238378
238455
238533
238613
238184
238241
238305
238368
238431
238497
238130
238171
238219
238265
238311
238360
238084
238104
238134
238160
238186
238214
237910
237971
238025
238079
238127
238177
237881
237950
238010
238074
238132
238188
237861
237940
238008
238077
238140
238200
237842
237927
238004
238079
238148
238214
237824
237915
238000
238082
238158
238230
237807
237904
237995
238083
238167
238246
237791
237891
237988
238082
238173
238260
237773
237875
237976
238075
238171
238265
237755
237855
237956
238057
238156
238254
237734
237831
237929
238028
238126
238224
237711
237801
237891
237983
238075
238169
237688
237767
237846
237927
238007
238091
237659
237723
237787
237854
237919
237988
237644
237686
237733
237779
237824
237871
237182
237241
237292
237344
237391
237439
237155
237221
237281
237343
237401
237457
237143
237216
237285
237352
237414
237474
237132
237211
237284
237356
237423
237486
237123
237206
237285
237361
237432
237499
237115
237202
237286
237366
237442
237512
237110
237200
237288
237371
237451
237525
237107
237198
237288
237375
237458
237536
237104
237196
237286
237375
237460
237542
237102
237192
237281
237369
237456
237540
237100
237185
237270
237356
237439
237522
237098
237177