/*--------------------------------*- C++ -*----------------------------------*\
| =========                 |                                                 |
| \\      /  F ield         | OpenFOAM: The Open Source CFD Toolbox           |
|  \\    /   O peration     | Version:  v2106                                 |
|   \\  /    A nd           | Website:  www.openfoam.com                      |
|    \\/     M anipulation  |                                                 |
\*---------------------------------------------------------------------------*/
FoamFile
{
    version     2.0;
    format      ascii;
    arch        "LSB;label=32;scalar=64";
    class       surfaceScalarField;
    location    "0.000134";
    object      phi;
}
// * * * * * * * * * * * * * * * * * * * * * * * * * * * * * * * * * * * * * //

dimensions      [1 0 -1 0 0 0 0];

internalField   nonuniform List<scalar> 
51992
(
-1.15509e-06
1.85243e-06
-7.42684e-06
1.64777e-06
-2.38095e-06
-7.67936e-07
1.52609e-06
-7.54497e-06
-1.97806e-06
-3.72336e-07
1.38264e-06
-7.66034e-06
-1.84669e-06
-4.82263e-09
1.07118e-06
-7.7834e-06
-1.50484e-06
3.08049e-07
7.15293e-07
-7.89881e-06
-1.07429e-06
5.09827e-07
2.2613e-07
-7.99824e-06
-4.59607e-07
5.9656e-07
-2.89183e-07
-8.10858e-06
1.93207e-07
5.5792e-07
-7.92603e-07
-8.18784e-06
8.26924e-07
4.12588e-07
-1.22836e-06
-8.26194e-06
1.37315e-06
1.95093e-07
-1.58411e-06
-8.30186e-06
1.80372e-06
-3.16562e-08
-1.85948e-06
-8.32794e-06
2.09684e-06
-2.55591e-07
-2.02479e-06
-8.29984e-06
2.26218e-06
-4.71189e-07
-2.15456e-06
-8.19388e-06
2.39118e-06
-2.12185e-06
-7.95775e-06
-6.5124e-07
2.31039e-06
-1.00359e-06
1.42556e-06
-7.9072e-06
1.44063e-06
-5.69017e-07
1.09366e-06
-8.17578e-06
-5.81237e-08
8.66121e-07
-8.28473e-06
3.93555e-07
6.01887e-07
-8.36931e-06
7.53707e-07
3.40611e-07
-8.41526e-06
9.75754e-07
-2.0281e-08
-8.43642e-06
1.06359e-06
-3.98323e-07
-8.46613e-06
1.01864e-06
-7.76771e-07
-8.47304e-06
8.81558e-07
-1.11652e-06
-8.50109e-06
6.74336e-07
-1.39643e-06
-8.51326e-06
4.19087e-07
-1.61617e-06
-8.52176e-06
1.25805e-07
-1.73569e-06
-8.49654e-06
-2.2712e-07
-1.80336e-06
-8.37225e-06
-1.79985e-06
-8.07491e-06
-5.69025e-07
-1.01199e-06
1.0538e-06
-8.23146e-06
1.43167e-06
-5.05688e-07
6.22541e-07
-8.50136e-06
5.08999e-08
3.30241e-07
-8.61278e-06
5.23972e-07
1.28678e-07
-8.67941e-06
8.91998e-07
-3.7858e-08
-8.68342e-06
1.11735e-06
-2.73068e-07
-8.6685e-06
1.20986e-06
-5.24687e-07
-8.6505e-06
1.1803e-06
-7.88746e-07
-8.62955e-06
1.05703e-06
-1.03555e-06
-8.62433e-06
8.57676e-07
-1.23981e-06
-8.61467e-06
5.92432e-07
-1.38187e-06
-8.62247e-06
2.59626e-07
-1.42281e-06
-8.59682e-06
-1.06759e-07
-1.45105e-06
-8.47551e-06
-1.51296e-06
-8.18047e-06
-4.21011e-07
-9.90827e-07
7.37465e-07
-8.38154e-06
1.3749e-06
-5.12504e-07
1.90611e-07
-8.62944e-06
1.1807e-08
-1.68528e-07
-8.73757e-06
4.69557e-07
-3.28003e-07
-8.79167e-06
8.33762e-07
-4.12663e-07
-8.78398e-06
1.05542e-06
-5.22578e-07
-8.75901e-06
1.15402e-06
-6.63e-07
-8.72319e-06
1.14825e-06
-8.29189e-07
-8.69506e-06
1.04949e-06
-9.86006e-07
-8.67968e-06
8.72708e-07
-1.11307e-06
-8.67217e-06
6.27824e-07
-1.17903e-06
-8.68077e-06
3.3634e-07
-1.15837e-06
-8.66286e-06
1.27906e-08
-1.14378e-06
-8.55552e-06
-1.22795e-06
-8.29223e-06
-2.93347e-07
-8.174e-07
4.59564e-07
-8.41087e-06
1.16871e-06
-4.08142e-07
-1.70828e-07
-8.65108e-06
1.49827e-08
-5.71774e-07
-8.75159e-06
3.88959e-07
-7.06309e-07
-8.8042e-06
7.01525e-07
-7.43493e-07
-8.79462e-06
9.05377e-07
-7.61388e-07
-8.77095e-06
1.00912e-06
-8.09002e-07
-8.73683e-06
1.02378e-06
-8.8604e-07
-8.71419e-06
9.56966e-07
-9.58978e-07
-8.70065e-06
8.20367e-07
-1.01757e-06
-8.6947e-06
6.24897e-07
-1.01748e-06
-8.71075e-06
4.07225e-07
-9.63763e-07
-8.69628e-06
1.67889e-07
-9.19013e-07
-8.59962e-06
-1.00722e-06
-8.36759e-06
-6.67312e-08
-4.93966e-07
1.87748e-07
-8.35403e-06
8.30296e-07
-1.46824e-07
-4.70401e-07
-8.62029e-06
1.7276e-07
-8.7563e-07
-8.73153e-06
4.38658e-07
-9.73019e-07
-8.80184e-06
6.6183e-07
-9.77491e-07
-8.80583e-06
8.20424e-07
-9.46161e-07
-8.78095e-06
9.05202e-07
-9.27215e-07
-8.74503e-06
9.19518e-07
-9.36689e-07
-8.71822e-06
8.77328e-07
-9.49076e-07
-8.7038e-06
7.83731e-07
-9.49909e-07
-8.70697e-06
6.37208e-07
-8.96453e-07
-8.72048e-06
4.8677e-07
-8.30333e-07
-8.71278e-06
3.29056e-07
-7.71742e-07
-8.63333e-06
-8.63268e-07
-8.43593e-06
1.80282e-07
-5.63689e-08
-3.52986e-08
-8.24946e-06
3.25311e-07
2.07852e-07
-7.00166e-07
-8.55443e-06
4.2229e-07
-1.08406e-06
-8.69795e-06
5.98169e-07
-1.15043e-06
-8.78354e-06
7.36263e-07
-1.12147e-06
-8.8006e-06
8.28698e-07
-1.05248e-06
-8.78758e-06
8.76264e-07
-9.97233e-07
-8.75583e-06
8.71272e-07
-9.612e-07
-8.72751e-06
8.39204e-07
-9.46829e-07
-8.71482e-06
7.79415e-07
-9.06933e-07
-8.72565e-06
6.98642e-07
-8.28904e-07
-8.73912e-06
6.13928e-07
-7.52629e-07
-8.72687e-06
5.39757e-07
-6.96767e-07
-8.65475e-06
-7.93524e-07
-8.48247e-06
4.80219e-07
4.98415e-07
-1.48213e-07
-8.14337e-06
-3.5353e-07
6.32753e-07
-8.03983e-07
-8.51648e-06
7.30452e-07
-1.16897e-06
-8.71121e-06
8.15649e-07
-1.23273e-06
-8.80143e-06
8.68977e-07
-1.17237e-06
-8.825e-06
8.96675e-07
-1.0804e-06
-8.81777e-06
8.99859e-07
-1.00914e-06
-8.78819e-06
8.81163e-07
-9.56461e-07
-8.76155e-06
8.50963e-07
-9.31461e-07
-8.74791e-06
8.20998e-07
-8.82604e-07
-8.75676e-06
7.93117e-07
-8.00831e-07
-8.76757e-06
7.6464e-07
-7.20036e-07
-8.74947e-06
7.48608e-07
-6.67603e-07
-8.68206e-06
-7.63515e-07
-8.52951e-06
7.49166e-07
1.04729e-06
-1.55538e-07
-7.98892e-06
-1.04081e-06
1.05147e-06
-7.94169e-07
-8.44296e-06
1.04321e-06
-1.14467e-06
-8.70429e-06
1.03468e-06
-1.21467e-06
-8.82292e-06
1.00718e-06
-1.13452e-06
-8.85594e-06
9.73707e-07
-1.03489e-06
-8.8538e-06
9.3239e-07
-9.59105e-07
-8.83006e-06
8.92311e-07
-9.10978e-07
-8.80929e-06
8.61555e-07
-8.99744e-07
-8.79499e-06
8.57329e-07
-8.70273e-07
-8.79777e-06
8.7351e-07
-8.02015e-07
-8.80323e-06
8.979e-07
-7.25394e-07
-8.78085e-06
9.3423e-07
-6.73744e-07
-8.71784e-06
-7.54639e-07
-8.57099e-06
9.78643e-07
1.55572e-06
-5.55422e-08
-7.84601e-06
-1.67962e-06
1.43337e-06
-6.60939e-07
-8.38227e-06
1.31897e-06
-1.00242e-06
-8.70195e-06
1.21685e-06
-1.08599e-06
-8.84915e-06
1.11485e-06
-1.00744e-06
-8.89886e-06
1.01283e-06
-9.14316e-07
-8.89287e-06
9.23546e-07
-8.53284e-07
-8.86758e-06
8.76703e-07
-8.47492e-07
-8.85063e-06
8.66316e-07
-8.76059e-07
-8.833e-06
8.85438e-07
-8.6746e-07
-8.8277e-06
9.32412e-07
-8.22019e-07
-8.82449e-06
1.0005e-06
-7.59687e-07
-8.8041e-06
1.07873e-06
-7.0557e-07
-8.74088e-06
-7.59865e-07
-8.58853e-06
1.14661e-06
1.90775e-06
1.004e-07
-7.68568e-06
-2.11101e-06
1.70495e-06
-4.59044e-07
-8.29577e-06
1.50565e-06
-7.69724e-07
-8.67547e-06
1.32268e-06
-8.60613e-07
-8.85829e-06
1.15198e-06
-7.9665e-07
-8.9201e-06
1.00921e-06
-7.38232e-07
-8.91723e-06
9.13219e-07
-7.288e-07
-8.89353e-06
8.6343e-07
-7.70038e-07
-8.87044e-06
8.47067e-07
-8.36922e-07
-8.8488e-06
8.70747e-07
-8.62909e-07
-8.83843e-06
9.51349e-07
-8.63515e-07
-8.82902e-06
1.0571e-06
-8.18776e-07
-8.79803e-06
1.16898e-06
-7.62775e-07
-8.72684e-06
-7.80767e-07
-8.56339e-06
1.25656e-06
2.16248e-06
3.1563e-07
-7.5463e-06
-2.43236e-06
1.90937e-06
-2.03089e-07
-8.19794e-06
1.64223e-06
-4.56593e-07
-8.61171e-06
1.38441e-06
-5.42941e-07
-8.82037e-06
1.14851e-06
-5.06014e-07
-8.89287e-06
9.69973e-07
-5.12376e-07
-8.89586e-06
8.61288e-07
-5.80197e-07
-8.87165e-06
8.15955e-07
-6.86302e-07
-8.84574e-06
8.22659e-07
-8.0986e-07
-8.81985e-06
8.72759e-07
-8.74931e-07
-8.79724e-06
9.72178e-07
-9.13275e-07
-8.77801e-06
1.08954e-06
-8.82813e-07
-8.73375e-06
1.21062e-06
-8.25822e-07
-8.65343e-06
-8.06479e-07
-8.47569e-06
1.30432e-06
2.20361e-06
4.84962e-07
-7.41962e-06
-2.43303e-06
1.98348e-06
2.98752e-08
-8.0886e-06
1.71741e-06
-1.26088e-07
-8.52075e-06
1.46089e-06
-2.0096e-07
-8.74992e-06
1.22542e-06
-1.88618e-07
-8.83173e-06
1.03949e-06
-2.49282e-07
-8.83555e-06
9.04823e-07
-3.81678e-07
-8.79762e-06
8.25779e-07
-5.55659e-07
-8.75076e-06
8.22714e-07
-7.63405e-07
-8.7119e-06
8.88993e-07
-8.95385e-07
-8.67279e-06
1.01299e-06
-9.86052e-07
-8.62896e-06
1.15399e-06
-9.71008e-07
-8.56273e-06
1.29406e-06
-9.13375e-07
-8.47298e-06
-8.09873e-07
-8.29475e-06
1.35393e-06
2.35633e-06
-7.27859e-06
8.21081e-07
-2.74228e-06
2.01827e-06
-7.81183e-06
3.70813e-07
1.72193e-06
-8.24699e-06
2.28109e-07
1.47374e-06
-8.51423e-06
1.37664e-07
1.28291e-06
-8.62219e-06
9.68223e-08
1.14775e-06
-8.64013e-06
-1.7833e-08
1.02892e-06
-8.59942e-06
-1.8105e-07
9.48292e-07
-8.53301e-06
-4.13827e-07
9.48368e-07
-8.47572e-06
-7.10092e-07
1.02008e-06
-8.39948e-06
-9.20782e-07
1.13769e-06
-8.31262e-06
-1.06195e-06
1.24591e-06
-8.20716e-06
-1.04739e-06
1.31758e-06
-8.09789e-06
-9.64142e-07
-7.98067e-06
1.36937e-06
-8.3652e-07
-1.78769e-06
3.58185e-06
-7.14565e-06
2.48496e-06
-4.45834e-06
-1.28143e-06
3.31892e-06
-7.13708e-06
-4.126e-06
-7.58836e-07
2.79515e-06
-7.26382e-06
-3.60903e-06
-2.65532e-07
2.03068e-06
-7.37018e-06
-2.82127e-06
1.45665e-07
1.22814e-06
-7.53532e-06
-1.88977e-06
3.58528e-07
3.73812e-07
-7.62543e-06
-8.47435e-07
4.04935e-07
-4.09103e-07
-7.77318e-06
1.30367e-07
2.21897e-07
-1.17474e-06
-7.85236e-06
1.12005e-06
-1.42025e-07
-1.83899e-06
-7.99135e-06
2.01911e-06
-6.0726e-07
-2.39202e-06
-8.11416e-06
2.74471e-06
-1.00889e-06
-2.76843e-06
-8.2503e-06
3.15737e-06
-1.29485e-06
-2.99816e-06
-8.32835e-06
3.37329e-06
-1.46605e-06
-3.15559e-06
-8.26544e-06
3.45426e-06
-3.24531e-06
-8.00892e-06
-1.56032e-06
3.45227e-06
-9.68735e-07
3.01363e-06
-7.85508e-06
1.62406e-06
-2.61143e-07
2.52448e-06
-7.94597e-06
4.44047e-07
1.94148e-06
-7.99803e-06
1.03568e-06
1.20628e-06
-7.9977e-06
1.4395e-06
5.81382e-07
-8.03894e-06
1.54678e-06
-2.89576e-08
-8.01559e-06
1.45606e-06
-6.24893e-07
-8.04809e-06
1.14945e-06
-1.20401e-06
-8.03637e-06
6.97249e-07
-1.70466e-06
-8.10086e-06
1.52506e-07
-2.10457e-06
-8.1846e-06
-4.14437e-07
-2.36406e-06
-8.2961e-06
-9.48882e-07
-2.51656e-06
-8.38407e-06
-1.43004e-06
-2.65546e-06
-8.33284e-06
-2.86731e-06
-8.04988e-06
-1.77094e-06
-7.19915e-07
2.45874e-06
-8.32303e-06
1.52452e-06
1.56348e-07
1.70429e-06
-8.40077e-06
9.80708e-07
1.04291e-06
-8.38851e-06
1.63796e-06
3.49636e-07
-8.32991e-06
2.00631e-06
-5.64202e-08
-8.271e-06
2.05467e-06
-4.38765e-07
-8.17637e-06
1.86435e-06
-8.44375e-07
-8.12708e-06
1.49522e-06
-1.27847e-06
-8.08492e-06
1.03173e-06
-1.65708e-06
-8.11829e-06
4.91048e-07
-1.93474e-06
-8.1697e-06
-1.01485e-07
-2.05712e-06
-8.27305e-06
-6.93484e-07
-2.09318e-06
-8.36994e-06
-1.22914e-06
-2.18625e-06
-8.35264e-06
-2.43791e-06
-8.10942e-06
-1.67363e-06
-7.72627e-07
1.99828e-06
-8.48769e-06
1.49815e-06
1.12372e-07
9.0109e-07
-8.54773e-06
9.78543e-07
8.74188e-08
-8.4887e-06
1.63636e-06
-5.24244e-07
-8.41544e-06
1.99652e-06
-7.29226e-07
-8.32011e-06
2.06704e-06
-9.19264e-07
-8.21103e-06
1.90548e-06
-1.14525e-06
-8.13978e-06
1.54022e-06
-1.40999e-06
-8.09394e-06
1.06068e-06
-1.67267e-06
-8.09883e-06
5.50461e-07
-1.87034e-06
-8.15204e-06
1.38789e-08
-1.88404e-06
-8.25202e-06
-5.22711e-07
-1.80627e-06
-8.35383e-06
-1.03212e-06
-1.82391e-06
-8.35316e-06
-2.06455e-06
-8.16155e-06
-1.484e-06
-6.28587e-07
1.51112e-06
-8.43307e-06
1.29923e-06
1.72691e-07
1.21036e-07
-8.50485e-06
9.18858e-07
-7.9902e-07
-8.44781e-06
1.4376e-06
-1.3108e-06
-8.37296e-06
1.74832e-06
-1.41675e-06
-8.26517e-06
1.83137e-06
-1.47056e-06
-8.16209e-06
1.72739e-06
-1.55171e-06
-8.09977e-06
1.44688e-06
-1.66731e-06
-8.0689e-06
1.01593e-06
-1.77181e-06
-8.07989e-06
5.18454e-07
-1.86616e-06
-8.12616e-06
4.8038e-08
-1.83075e-06
-8.22424e-06
-3.79002e-07
-1.69148e-06
-8.32206e-06
-7.62987e-07
-1.64179e-06
-8.3409e-06
-1.85535e-06
-8.20153e-06
-1.08508e-06
-2.64657e-07
1.01969e-06
-8.30845e-06
8.66398e-07
3.97446e-07
-5.56776e-07
-8.43743e-06
9.77793e-07
-1.53525e-06
-8.41199e-06
1.33922e-06
-1.95789e-06
-8.35151e-06
1.55987e-06
-2.03123e-06
-8.25633e-06
1.61807e-06
-2.00558e-06
-8.15845e-06
1.51927e-06
-1.97697e-06
-8.08771e-06
1.28354e-06
-1.98823e-06
-8.04822e-06
9.29689e-07
-1.97427e-06
-8.05699e-06
5.3137e-07
-1.97066e-06
-8.11882e-06
1.3499e-07
-1.86365e-06
-8.21843e-06
-1.7693e-07
-1.71647e-06
-8.30971e-06
-4.18752e-07
-1.64053e-06
-8.33122e-06
-1.80379e-06
-8.23227e-06
-6.15308e-07
4.58611e-07
5.7489e-07
-8.11444e-06
-6.66821e-10
9.48955e-07
-1.12907e-06
-8.30914e-06
1.33477e-06
-2.1128e-06
-8.33836e-06
1.52547e-06
-2.44452e-06
-8.318e-06
1.60737e-06
-2.50296e-06
-8.25184e-06
1.58424e-06
-2.44033e-06
-8.17921e-06
1.43567e-06
-2.34189e-06
-8.10466e-06
1.18511e-06
-2.28573e-06
-8.06052e-06
8.6789e-07
-2.21204e-06
-8.06569e-06
5.42546e-07
-2.15093e-06
-8.13306e-06
2.58051e-07
-2.00632e-06
-8.23521e-06
7.44503e-08
-1.86136e-06
-8.3269e-06
-1.92173e-08
-1.77823e-06
-8.35644e-06
-1.87427e-06
-8.29341e-06
-7.11549e-08
1.43204e-06
3.42831e-07
-7.97976e-06
-1.22368e-06
1.67935e-06
-1.46609e-06
-8.27002e-06
1.86484e-06
-2.46705e-06
-8.37432e-06
1.9102e-06
-2.75795e-06
-8.36549e-06
1.8807e-06
-2.81118e-06
-8.32505e-06
1.74341e-06
-2.71116e-06
-8.25573e-06
1.50976e-06
-2.57819e-06
-8.17542e-06
1.22095e-06
-2.50537e-06
-8.13022e-06
9.2953e-07
-2.43921e-06
-8.13039e-06
6.77482e-07
-2.36985e-06
-8.19416e-06
4.91973e-07
-2.21964e-06
-8.2866e-06
3.96012e-07
-2.0729e-06
-8.3649e-06
3.84404e-07
-1.97815e-06
-8.39509e-06
-2.01547e-06
-8.36255e-06
4.35382e-07
2.39338e-06
2.49131e-07
-7.71921e-06
-2.43646e-06
2.4209e-06
-1.6492e-06
-8.13045e-06
2.42786e-06
-2.64482e-06
-8.36263e-06
2.3626e-06
-2.93145e-06
-8.4182e-06
2.19535e-06
-2.92219e-06
-8.41082e-06
1.92409e-06
-2.78164e-06
-8.35306e-06
1.59533e-06
-2.64676e-06
-8.28493e-06
1.26361e-06
-2.60314e-06
-8.25458e-06
9.85019e-07
-2.59981e-06
-8.25288e-06
7.93112e-07
-2.57295e-06
-8.30953e-06
6.96078e-07
-2.45574e-06
-8.3863e-06
6.8598e-07
-2.31111e-06
-8.45202e-06
7.35692e-07
-2.1817e-06
-8.48658e-06
-2.18514e-06
-8.45984e-06
8.73922e-07
3.38991e-06
3.19601e-07
-7.51806e-06
-3.6693e-06
3.14083e-06
-1.54965e-06
-8.08401e-06
2.91974e-06
-2.5452e-06
-8.41579e-06
2.69325e-06
-2.86805e-06
-8.52229e-06
2.37328e-06
-2.80699e-06
-8.52598e-06
1.9897e-06
-2.65765e-06
-8.4712e-06
1.59576e-06
-2.55678e-06
-8.41347e-06
1.2614e-06
-2.59218e-06
-8.40012e-06
1.01911e-06
-2.68741e-06
-8.39524e-06
8.7878e-07
-2.72469e-06
-8.43829e-06
8.46446e-07
-2.66975e-06
-8.4913e-06
9.0586e-07
-2.54976e-06
-8.54024e-06
1.03956e-06
-2.4057e-06
-8.57165e-06
-2.3727e-06
-8.53515e-06
1.25269e-06
4.17208e-06
4.84499e-07
-7.27149e-06
-4.63864e-06
3.73556e-06
-1.29418e-06
-7.96865e-06
3.3286e-06
-2.22251e-06
-8.42746e-06
2.92344e-06
-2.54301e-06
-8.61709e-06
2.46362e-06
-2.46075e-06
-8.64414e-06
1.98793e-06
-2.35079e-06
-8.59427e-06
1.55233e-06
-2.32986e-06
-8.53876e-06
1.23098e-06
-2.48823e-06
-8.52533e-06
1.01958e-06
-2.70406e-06
-8.50902e-06
9.14513e-07
-2.81646e-06
-8.54233e-06
9.13567e-07
-2.82748e-06
-8.5818e-06
1.01928e-06
-2.74831e-06
-8.62181e-06
1.21684e-06
-2.60421e-06
-8.64646e-06
-2.52218e-06
-8.59442e-06
1.47799e-06
4.74215e-06
8.16207e-07
-7.12722e-06
-5.38383e-06
4.18891e-06
-8.70791e-07
-7.92884e-06
3.64703e-06
-1.67399e-06
-8.46178e-06
3.09938e-06
-1.96658e-06
-8.69451e-06
2.50041e-06
-1.86957e-06
-8.73495e-06
1.96872e-06
-1.87548e-06
-8.69787e-06
1.53541e-06
-1.99609e-06
-8.63912e-06
1.26541e-06
-2.33565e-06
-8.6083e-06
1.09825e-06
-2.67484e-06
-8.5726e-06
1.02664e-06
-2.84626e-06
-8.59845e-06
1.05976e-06
-2.93027e-06
-8.62238e-06
1.21205e-06
-2.90739e-06
-8.64822e-06
1.43073e-06
-2.75036e-06
-8.65157e-06
-2.60149e-06
-8.58341e-06
1.69391e-06
4.87875e-06
1.26931e-06
-7.00096e-06
-5.65027e-06
4.29968e-06
-3.73904e-07
-7.87799e-06
3.75095e-06
-1.04359e-06
-8.45129e-06
3.21876e-06
-1.30223e-06
-8.73148e-06
2.65929e-06
-1.20794e-06
-8.79495e-06
2.17998e-06
-1.33922e-06
-8.76387e-06
1.77087e-06
-1.57314e-06
-8.69393e-06
1.43745e-06
-2.02016e-06
-8.62733e-06
1.23081e-06
-2.52257e-06
-8.56218e-06
1.23396e-06
-2.87088e-06
-8.56481e-06
1.35983e-06
-3.0538e-06
-8.54997e-06
1.55052e-06
-3.04425e-06
-8.54452e-06
1.72922e-06
-2.82368e-06
-8.51091e-06
-2.51124e-06
-8.42917e-06
1.84414e-06
5.08768e-06
-6.99414e-06
1.91347e-06
-5.92847e-06
4.36996e-06
-7.68221e-06
3.23271e-07
3.78259e-06
-8.28872e-06
-2.74799e-07
3.27282e-06
-8.63218e-06
-5.32101e-07
2.86409e-06
-8.72443e-06
-5.67911e-07
2.49672e-06
-8.69874e-06
-7.98194e-07
2.17813e-06
-8.61599e-06
-1.13515e-06
1.90012e-06
-8.51781e-06
-1.66717e-06
1.73427e-06
-8.43228e-06
-2.31446e-06
1.73957e-06
-8.37145e-06
-2.82516e-06
1.88406e-06
-8.28024e-06
-3.15534e-06
2.0556e-06
-8.20576e-06
-3.14915e-06
2.21007e-06
-8.12758e-06
-2.88384e-06
-8.08928e-06
2.32815e-06
-2.45538e-06
-4.63702e-07
1.01022e-05
1.62468e-06
-1.1617e-05
-6.64384e-06
2.92532e-07
9.23993e-06
-1.0488e-05
-6.48906e-06
8.92984e-07
7.81696e-06
-8.92393e-06
-6.59201e-06
1.15013e-06
6.05543e-06
-6.90122e-06
-6.60896e-06
1.21373e-06
4.16635e-06
-4.84477e-06
-6.75805e-06
9.00131e-07
2.33066e-06
-2.71877e-06
-6.77914e-06
2.17763e-07
7.04213e-07
-8.12394e-07
-6.86623e-06
-8.44785e-07
-7.26242e-07
9.45516e-07
-6.91761e-06
-2.17028e-06
-1.76433e-06
2.22789e-06
-7.06167e-06
-3.59464e-06
-2.41464e-06
3.01139e-06
-7.2339e-06
-4.91115e-06
-2.51911e-06
3.08216e-06
-7.45174e-06
-5.97632e-06
-2.23989e-06
2.64555e-06
-7.62476e-06
-6.68355e-06
-1.86754e-06
2.05979e-06
-7.70011e-06
-1.90303e-06
-7.63169e-06
2.41058e-06
-7.51098e-06
1.0906e-06
8.87302e-06
-3.84197e-07
-7.14707e-06
1.81673e-06
7.8207e-06
-7.06302e-06
2.51937e-06
6.40697e-06
-7.09961e-06
2.9252e-06
4.85756e-06
-7.01762e-06
3.00966e-06
3.21505e-06
-6.99973e-06
2.63717e-06
1.73115e-06
-6.89047e-06
1.86018e-06
4.34388e-07
-6.87567e-06
6.85465e-07
-6.3657e-07
-6.85002e-06
-7.70314e-07
-1.42461e-06
-6.9223e-06
-2.35146e-06
-1.90703e-06
-7.06565e-06
-3.93993e-06
-1.91053e-06
-7.28125e-06
-5.42377e-06
-1.62623e-06
-7.47903e-06
-6.6056e-06
-1.40194e-06
-7.58357e-06
-1.43512e-06
-7.6974e-06
-7.40097e-06
1.2516e-06
7.53697e-06
-4.99326e-07
-7.53756e-06
2.11459e-06
6.17912e-06
-7.41321e-06
2.96541e-06
4.72122e-06
-7.34619e-06
3.55739e-06
3.31722e-06
-7.17584e-06
3.69057e-06
2.0375e-06
-7.03715e-06
3.28135e-06
1.00638e-06
-6.87903e-06
2.41472e-06
1.04578e-07
-6.80493e-06
1.24115e-06
-7.09724e-07
-6.74507e-06
-1.24217e-07
-1.31121e-06
-6.79969e-06
-1.64225e-06
-1.6002e-06
-6.91766e-06
-3.20958e-06
-1.47914e-06
-7.1087e-06
-4.7194e-06
-1.13507e-06
-7.33128e-06
-6.03082e-06
-9.28764e-07
-7.49769e-06
-1.0019e-06
-7.15608e-06
-7.41374e-06
6.59341e-07
6.18593e-06
9.8024e-08
-7.68649e-06
1.65772e-06
4.34551e-06
-7.49711e-06
2.62486e-06
2.79111e-06
-7.31439e-06
3.28828e-06
1.544e-06
-7.10008e-06
3.43577e-06
6.77452e-07
-6.91883e-06
3.10336e-06
6.12083e-08
-6.77274e-06
2.37483e-06
-4.74234e-07
-6.70544e-06
1.32283e-06
-9.84544e-07
-6.66577e-06
3.70597e-08
-1.3682e-06
-6.69319e-06
-1.34233e-06
-1.54518e-06
-6.79001e-06
-2.74925e-06
-1.33133e-06
-6.96709e-06
-4.11469e-06
-9.17908e-07
-7.18953e-06
-5.34161e-06
-6.90518e-07
-7.35172e-06
-8.57566e-07
-6.32104e-06
-7.32523e-06
9.23771e-08
4.67557e-06
7.82925e-07
-7.60318e-06
1.13127e-06
2.40164e-06
-7.39648e-06
2.08564e-06
7.69637e-07
-7.17661e-06
2.69565e-06
-2.70017e-07
-6.96703e-06
2.83154e-06
-7.42282e-07
-6.79492e-06
2.5679e-06
-1.00357e-06
-6.67379e-06
1.96749e-06
-1.23087e-06
-6.61628e-06
1.09653e-06
-1.49422e-06
-6.58935e-06
1.7705e-09
-1.66164e-06
-6.62017e-06
-1.21705e-06
-1.70291e-06
-6.70737e-06
-2.43637e-06
-1.44647e-06
-6.86457e-06
-3.55325e-06
-1.03382e-06
-7.07454e-06
-4.51745e-06
-7.94747e-07
-7.2608e-06
-1.02216e-06
-5.23769e-06
-7.31452e-06
2.65203e-07
3.16837e-06
5.8352e-07
-7.46375e-06
1.14711e-06
5.47411e-07
-7.26621e-06
1.9196e-06
-1.14464e-06
-7.07011e-06
2.33949e-06
-1.94818e-06
-6.8924e-06
2.3924e-06
-2.13162e-06
-6.73628e-06
2.12738e-06
-2.10563e-06
-6.63057e-06
1.583e-06
-2.08034e-06
-6.56733e-06
8.38075e-07
-2.15818e-06
-6.53999e-06
-8.77294e-08
-2.14582e-06
-6.57214e-06
-1.09303e-06
-2.10305e-06
-6.66352e-06
-2.09542e-06
-1.81449e-06
-6.8127e-06
-2.97197e-06
-1.44514e-06
-6.99815e-06
-3.65767e-06
-1.25801e-06
-7.16002e-06
-1.54577e-06
-4.11887e-06
-7.23365e-06
1.22198e-06
1.75819e-06
-4.79149e-07
-7.27792e-06
1.86164e-06
-1.09543e-06
-7.12293e-06
2.31805e-06
-2.7522e-06
-6.98786e-06
2.46372e-06
-3.3604e-06
-6.84862e-06
2.38712e-06
-3.3955e-06
-6.72361e-06
2.04295e-06
-3.14706e-06
-6.6292e-06
1.47639e-06
-2.92764e-06
-6.55878e-06
7.68465e-07
-2.87671e-06
-6.53115e-06
-3.17381e-08
-2.77432e-06
-6.55754e-06
-8.62614e-07
-2.69842e-06
-6.64898e-06
-1.66303e-06
-2.41285e-06
-6.79168e-06
-2.32028e-06
-2.11084e-06
-6.9692e-06
-2.77174e-06
-1.99751e-06
-7.13343e-06
-2.33976e-06
-3.00052e-06
-7.24188e-06
2.90862e-06
5.83172e-07
-2.41798e-06
-7.12593e-06
3.20001e-06
-2.37736e-06
-7.10118e-06
3.27336e-06
-3.96461e-06
-7.03566e-06
3.1603e-06
-4.50153e-06
-6.91725e-06
2.84231e-06
-4.41324e-06
-6.80227e-06
2.31229e-06
-4.02103e-06
-6.68597e-06
1.6218e-06
-3.67623e-06
-6.60158e-06
8.76647e-07
-3.58279e-06
-6.57224e-06
1.26716e-07
-3.47788e-06
-6.59034e-06
-5.78163e-07
-3.44438e-06
-6.67483e-06
-1.19436e-06
-3.22555e-06
-6.8005e-06
-1.63024e-06
-3.02995e-06
-6.96151e-06
-1.85543e-06
-3.01093e-06
-7.11392e-06
-3.38488e-06
-1.87133e-06
-7.25567e-06
4.83933e-06
-2.5572e-07
-4.66129e-06
-6.89448e-06
4.76269e-06
-3.24053e-06
-7.00546e-06
4.44907e-06
-4.80121e-06
-7.01761e-06
4.02758e-06
-5.32922e-06
-6.96854e-06
3.37633e-06
-5.11736e-06
-6.86758e-06
2.57613e-06
-4.64682e-06
-6.75907e-06
1.72127e-06
-4.28355e-06
-6.68435e-06
9.16991e-07
-4.25285e-06
-6.67026e-06
2.07582e-07
-4.24461e-06
-6.68551e-06
-3.79113e-07
-4.32525e-06
-6.76809e-06
-8.3081e-07
-4.22052e-06
-6.87882e-06
-1.08635e-06
-4.14491e-06
-7.02785e-06
-1.12601e-06
-4.21484e-06
-7.19126e-06
-4.64738e-06
-8.90984e-07
-7.37217e-06
7.05316e-06
-6.86368e-07
-7.22113e-06
-6.76195e-06
6.51647e-06
-3.58281e-06
-7.01878e-06
5.77009e-06
-5.14966e-06
-7.13186e-06
4.89814e-06
-5.6709e-06
-7.10876e-06
3.88658e-06
-5.44382e-06
-6.99922e-06
2.82917e-06
-5.00682e-06
-6.88396e-06
1.80648e-06
-4.71558e-06
-6.81335e-06
9.1194e-07
-4.82567e-06
-6.81888e-06
2.07951e-07
-5.00741e-06
-6.83256e-06
-2.95726e-07
-5.26682e-06
-6.91321e-06
-6.05454e-07
-5.32835e-06
-7.00652e-06
-6.74936e-07
-5.40935e-06
-7.146e-06
-5.19512e-07
-5.57113e-06
-7.3107e-06
-6.01674e-06
-1.30012e-07
-7.49047e-06
8.97873e-06
-8.25886e-07
-9.42544e-06
-6.5345e-06
8.15128e-06
-3.61111e-06
-6.92659e-06
7.04804e-06
-5.10835e-06
-7.17266e-06
5.7588e-06
-5.56526e-06
-7.23085e-06
4.35445e-06
-5.34518e-06
-7.15013e-06
3.00106e-06
-5.03646e-06
-7.04377e-06
1.77998e-06
-4.90942e-06
-6.97721e-06
7.69752e-07
-5.22485e-06
-6.99922e-06
2.94142e-08
-5.66331e-06
-7.01465e-06
-4.54943e-07
-6.13986e-06
-7.10689e-06
-6.8691e-07
-6.41651e-06
-7.19504e-06
-6.58001e-07
-6.65835e-06
-7.34002e-06
-3.96473e-07
-6.92241e-06
-7.49421e-06
-7.31721e-06
2.11042e-08
-7.64112e-06
1.07317e-05
-4.85157e-07
-1.15742e-05
-6.49214e-06
9.53434e-06
-3.19122e-06
-6.96961e-06
8.12134e-06
-4.66645e-06
-7.30012e-06
6.55259e-06
-5.07836e-06
-7.41274e-06
4.84642e-06
-4.84258e-06
-7.3473e-06
3.24396e-06
-4.72057e-06
-7.24697e-06
1.86057e-06
-4.8494e-06
-7.17519e-06
7.78702e-07
-5.44413e-06
-7.19343e-06
1.59472e-08
-6.17881e-06
-7.19932e-06
-4.34062e-07
-6.91452e-06
-7.29972e-06
-6.12305e-07
-7.42829e-06
-7.36907e-06
-5.53096e-07
-7.7977e-06
-7.51079e-06
-3.85429e-07
-8.05054e-06
-7.62348e-06
-8.27019e-06
-1.76542e-07
-7.75693e-06
1.19226e-05
6.08904e-08
-1.29754e-05
-6.37674e-06
1.05973e-05
-2.64854e-06
-6.93437e-06
9.02812e-06
-4.03245e-06
-7.33077e-06
7.35062e-06
-4.39448e-06
-7.54334e-06
5.50622e-06
-4.07125e-06
-7.5456e-06
3.7729e-06
-4.1223e-06
-7.47267e-06
2.3085e-06
-4.56361e-06
-7.39072e-06
1.17777e-06
-5.47783e-06
-7.36546e-06
3.46258e-07
-6.50809e-06
-7.32547e-06
-1.25303e-07
-7.5416e-06
-7.4084e-06
-3.13512e-07
-8.29962e-06
-7.44247e-06
-2.7226e-07
-8.78815e-06
-7.559e-06
-2.15088e-07
-8.95832e-06
-7.61155e-06
-8.96481e-06
-1.55569e-07
-7.71302e-06
1.27588e-05
9.53414e-07
-1.40246e-05
-6.51299e-06
1.14633e-05
-1.92474e-06
-6.96347e-06
9.8834e-06
-3.16525e-06
-7.40036e-06
8.27013e-06
-3.55156e-06
-7.68425e-06
6.51369e-06
-3.14145e-06
-7.73833e-06
4.83488e-06
-3.30801e-06
-7.69509e-06
3.37378e-06
-4.02259e-06
-7.59255e-06
2.19819e-06
-5.22685e-06
-7.50849e-06
1.30215e-06
-6.57111e-06
-7.40753e-06
7.54253e-07
-7.91798e-06
-7.40328e-06
5.11884e-07
-8.96176e-06
-7.34719e-06
6.18326e-07
-9.67748e-06
-7.39754e-06
7.94602e-07
-9.85749e-06
-7.37501e-06
9.84817e-07
-9.71134e-06
-7.48052e-06
-4.48141e-07
-1.69905e-06
-4.8112e-06
1.47472e-06
-3.04728e-07
-1.78845e-06
-5.15804e-06
1.57822e-06
-2.06245e-07
-1.97185e-06
-5.18754e-06
1.73636e-06
-1.15004e-07
-2.14732e-06
-4.85604e-06
1.842e-06
-1.534e-08
-2.93525e-06
-3.88387e-06
2.46955e-06
-2.45301e-06
-2.08061e-06
2.19969e-06
-4.83183e-07
-1.81364e-06
-6.09977e-06
-3.90662e-07
-1.97061e-06
-6.27623e-06
-3.3926e-07
-2.18072e-06
-6.11922e-06
-3.28737e-07
-2.37986e-06
-5.57971e-06
-2.67604e-07
-3.36043e-06
-4.37696e-06
-2.99935e-06
-2.24269e-06
-5.05019e-07
-1.77549e-06
-7.24998e-06
-5.34559e-07
-2.05713e-06
-7.30218e-06
-5.30094e-07
-2.36449e-06
-7.00168e-06
-5.98917e-07
-2.54927e-06
-6.29609e-06
-6.50975e-07
-3.62338e-06
-4.9217e-06
-3.81721e-06
-2.51381e-06
-4.54571e-07
-1.65572e-06
-8.2734e-06
-5.54051e-07
-2.06483e-06
-8.25159e-06
-5.89002e-07
-2.50099e-06
-7.83945e-06
-5.70634e-07
-2.78668e-06
-7.0026e-06
-5.22021e-07
-3.91419e-06
-5.55531e-06
-4.4522e-06
-2.93667e-06
-2.36671e-07
-1.51709e-06
-9.08513e-06
-3.57893e-07
-2.0204e-06
-9.06469e-06
-4.07309e-07
-2.59375e-06
-8.60663e-06
-3.72336e-07
-3.00705e-06
-7.71906e-06
-3.56207e-07
-4.10434e-06
-6.24116e-06
-4.86003e-06
-3.42093e-06
7.79455e-08
-1.42211e-06
-9.70093e-06
-2.42179e-08
-1.94649e-06
-9.72808e-06
-7.02979e-08
-2.61538e-06
-9.32185e-06
-8.0097e-08
-3.10032e-06
-8.45894e-06
-1.77381e-07
-4.07508e-06
-6.9853e-06
-4.99919e-06
-3.94448e-06
4.7389e-07
-1.3921e-06
-1.00676e-05
4.18298e-07
-1.86292e-06
-1.01818e-05
3.72205e-07
-2.54685e-06
-9.89456e-06
2.6638e-07
-2.99936e-06
-9.12173e-06
3.21918e-08
-3.80085e-06
-7.66543e-06
-4.85109e-06
-4.43638e-06
8.13615e-07
-1.38735e-06
-1.01886e-05
7.93338e-07
-1.75479e-06
-1.03919e-05
7.44661e-07
-2.38793e-06
-1.02273e-05
5.39511e-07
-2.71444e-06
-9.55524e-06
2.12886e-07
-3.35299e-06
-8.13266e-06
-4.46046e-06
-4.79588e-06
1.06834e-06
-1.37517e-06
-1.00206e-05
1.04821e-06
-1.61089e-06
-1.02908e-05
9.56664e-07
-2.14527e-06
-1.02138e-05
6.90741e-07
-2.32275e-06
-9.63799e-06
3.3164e-07
-2.8407e-06
-8.29758e-06
-3.94712e-06
-4.97197e-06
1.24052e-06
-1.36584e-06
-9.55371e-06
1.22501e-06
-1.47833e-06
-9.86416e-06
1.10609e-06
-1.89134e-06
-9.8387e-06
8.28139e-07
-1.94773e-06
-9.34708e-06
4.6967e-07
-2.36849e-06
-8.13091e-06
-3.35135e-06
-4.94444e-06
1.32341e-06
-1.34087e-06
-8.78288e-06
1.29039e-06
-1.34314e-06
-9.12102e-06
1.07636e-06
-1.57886e-06
-9.1224e-06
7.41382e-07
-1.55535e-06
-8.7202e-06
4.91878e-07
-2.08157e-06
-7.61931e-06
-2.80261e-06
-4.65616e-06
1.35996e-06
-1.31886e-06
-7.72204e-06
1.3609e-06
-1.28186e-06
-8.06674e-06
1.19685e-06
-1.38103e-06
-8.10263e-06
9.4128e-07
-1.31561e-06
-7.77413e-06
6.21506e-07
-1.8122e-06
-6.75786e-06
-2.23022e-06
-4.02067e-06
1.30611e-06
-1.22766e-06
-6.38585e-06
1.24195e-06
-1.21304e-06
-6.7497e-06
1.06585e-06
-1.22858e-06
-6.85371e-06
8.66846e-07
-1.20329e-06
-6.57049e-06
5.81764e-07
-1.75149e-06
-5.53862e-06
-1.85473e-06
-3.12535e-06
1.27977e-06
-4.89071e-06
-1.12782e-06
1.1825e-06
-5.30424e-06
-1.14448e-06
1.05138e-06
-5.43208e-06
-1.18236e-06
8.84893e-07
-5.17661e-06
-1.20479e-06
5.5091e-07
-4.21735e-06
-1.77991e-06
-2.3296e-06
-1.5392e-06
-1.23183e-06
-2.98283e-06
-4.79686e-06
2.67525e-06
-9.46945e-07
-3.21291e-06
-5.01744e-06
2.82875e-06
-8.18317e-07
-3.39317e-06
-4.86599e-06
2.98274e-06
-7.03259e-07
-3.41428e-06
-4.39012e-06
2.86773e-06
-2.41922e-07
-3.93897e-06
-3.56888e-06
3.19068e-06
-3.42544e-06
-1.67427e-06
2.81225e-06
-1.50004e-06
-3.26236e-06
-6.04246e-06
-1.2965e-06
-3.55378e-06
-6.08892e-06
-1.16272e-06
-3.87888e-06
-5.72132e-06
-1.11534e-06
-3.9959e-06
-5.01981e-06
-6.45066e-07
-4.72791e-06
-4.04017e-06
-4.50426e-06
-1.81554e-06
-1.67091e-06
-3.32616e-06
-7.14237e-06
-1.57601e-06
-3.85114e-06
-7.05976e-06
-1.50959e-06
-4.35755e-06
-6.56037e-06
-1.54686e-06
-4.58079e-06
-5.66762e-06
-1.10381e-06
-5.56204e-06
-4.52632e-06
-6.05315e-06
-2.07318e-06
-1.70153e-06
-3.20664e-06
-8.12858e-06
-1.801e-06
-3.99663e-06
-7.97768e-06
-1.7893e-06
-4.8035e-06
-7.39329e-06
-1.74409e-06
-5.26531e-06
-6.36865e-06
-1.12549e-06
-6.56613e-06
-5.17963e-06
-7.54376e-06
-2.60823e-06
-1.3491e-06
-3.04112e-06
-8.93465e-06
-1.54218e-06
-4.03283e-06
-8.80203e-06
-1.53978e-06
-5.18819e-06
-8.20166e-06
-1.39788e-06
-5.98897e-06
-7.1277e-06
-8.54907e-07
-7.40716e-06
-5.93772e-06
-8.49743e-06
-3.35499e-06
-8.09524e-07
-2.94111e-06
-9.54409e-06
-1.00179e-06
-4.00614e-06
-9.511e-06
-1.01033e-06
-5.43865e-06
-9.01218e-06
-8.83898e-07
-6.501e-06
-8.02564e-06
-5.23847e-07
-7.85374e-06
-6.84825e-06
-8.80298e-06
-4.14736e-06
-1.3384e-07
-2.91838e-06
-9.94746e-06
-2.47842e-07
-3.93424e-06
-1.00616e-05
-2.30352e-07
-5.48567e-06
-9.78342e-06
-2.04816e-07
-6.5896e-06
-8.97589e-06
-1.09464e-07
-7.75151e-06
-7.76775e-06
-8.45534e-06
-4.81454e-06
4.99081e-07
-2.95381e-06
-1.01247e-05
4.68698e-07
-3.77199e-06
-1.04205e-05
5.09934e-07
-5.22331e-06
-1.04061e-05
3.86531e-07
-6.12863e-06
-9.75728e-06
2.1948e-07
-7.07179e-06
-8.50196e-06
-7.61954e-06
-5.2805e-06
1.0627e-06
-3.02007e-06
-1.00491e-05
1.09711e-06
-3.50649e-06
-1.04794e-05
1.08455e-06
-4.66638e-06
-1.06257e-05
8.00622e-07
-5.22929e-06
-1.00916e-05
4.06097e-07
-5.98067e-06
-8.81796e-06
-6.5612e-06
-5.45154e-06
1.51199e-06
-3.07011e-06
-9.67337e-06
1.61102e-06
-3.20482e-06
-1.01572e-05
1.53888e-06
-3.98157e-06
-1.03235e-05
1.16747e-06
-4.19089e-06
-9.85887e-06
6.83249e-07
-4.84848e-06
-8.61694e-06
-5.38306e-06
-5.2788e-06
1.70147e-06
-3.01744e-06
-8.97137e-06
1.90387e-06
-2.97209e-06
-9.45186e-06
1.91387e-06
-3.41709e-06
-9.57451e-06
1.58885e-06
-3.34379e-06
-9.08151e-06
1.07442e-06
-3.89274e-06
-7.8821e-06
-4.0805e-06
-4.69864e-06
1.88384e-06
-2.94179e-06
-7.91554e-06
2.08738e-06
-2.81067e-06
-8.34483e-06
2.08664e-06
-3.01881e-06
-8.39919e-06
1.73882e-06
-2.80616e-06
-7.84716e-06
1.04386e-06
-3.15522e-06
-6.6714e-06
-3.11678e-06
-3.78154e-06
1.87409e-06
-2.76049e-06
-6.53727e-06
2.03775e-06
-2.76144e-06