/*--------------------------------*- C++ -*----------------------------------*\
| =========                 |                                                 |
| \\      /  F ield         | OpenFOAM: The Open Source CFD Toolbox           |
|  \\    /   O peration     | Version:  v2106                                 |
|   \\  /    A nd           | Website:  www.openfoam.com                      |
|    \\/     M anipulation  |                                                 |
\*---------------------------------------------------------------------------*/
FoamFile
{
    version     2.0;
    format      ascii;
    arch        "LSB;label=32;scalar=64";
    class       volScalarField;
    location    "0.000217";
    object      Ttot;
}
// * * * * * * * * * * * * * * * * * * * * * * * * * * * * * * * * * * * * * //

dimensions      [0 0 0 1 0 0 0];

internalField   nonuniform List<scalar> 
17920
(
307.163
307.18
307.191
307.209
307.216
307.233
307.241
307.258
307.263
307.28
307.285
307.301
307.304
307.32
307.323
307.338
307.339
307.354
307.354
307.369
307.368
307.383
307.38
307.395
307.391
307.407
307.4
307.416
306.739
306.753
306.771
306.788
306.805
306.822
306.837
306.852
306.866
306.88
306.894
306.907
306.92
306.933
306.765
306.78
306.8
306.817
306.835
306.853
306.869
306.885
306.9
306.915
306.929
306.943
306.956
306.972
306.795
306.81
306.83
306.848
306.867
306.884
306.901
306.917
306.932
306.947
306.962
306.976
306.989
307.005
306.823
306.84
306.86
306.878
306.897
306.915
306.932
306.949
306.965
306.98
306.995
307.009
307.023
307.039
306.851
306.869
306.889
306.908
306.927
306.945
306.962
306.979
306.995
307.011
307.026
307.041
307.054
307.07
306.879
306.898
306.918
306.937
306.956
306.974
306.991
307.008
307.025
307.041
307.056
307.071
307.086
307.101
306.907
306.926
306.946
306.965
306.984
307.002
307.02
307.037
307.053
307.069
307.085
307.1
307.115
307.129
306.934
306.954
306.973
306.992
307.011
307.029
307.047
307.064
307.081
307.097
307.113
307.128
307.143
307.157
306.96
306.98
306.999
307.018
307.036
307.055
307.072
307.09
307.107
307.123
307.139
307.154
307.17
307.183
306.986
307.006
307.024
307.043
307.062
307.08
307.097
307.114
307.131
307.147
307.163
307.179
307.195
307.208
307.011
307.031
307.048
307.067
307.085
307.103
307.12
307.138
307.154
307.171
307.187
307.202
307.218
307.232
307.037
307.055
307.072
307.091
307.108
307.126
307.143
307.16
307.176
307.192
307.208
307.224
307.24
307.255
307.059
307.078
307.094
307.112
307.129
307.146
307.163
307.18
307.197
307.213
307.229
307.245
307.261
307.277
307.084
307.101
307.117
307.134
307.15
307.167
307.183
307.199
307.215
307.231
307.247
307.263
307.28
307.298
306.573
306.581
306.592
306.603
306.614
306.625
306.635
306.646
306.655
306.665
306.674
306.683
306.693
306.702
306.601
306.609
306.621
306.632
306.643
306.655
306.666
306.678
306.688
306.699
306.709
306.719
306.728
306.74
306.629
306.638
306.651
306.662
306.674
306.686
306.698
306.71
306.721
306.731
306.742
306.752
306.762
306.774
306.658
306.668
306.681
306.693
306.705
306.717
306.73
306.742
306.754
306.765
306.776
306.787
306.797
306.81
306.687
306.697
306.71
306.723
306.736
306.749
306.762
306.774
306.786
306.798
306.809
306.82
306.831
306.843
306.716
306.728
306.741
306.753
306.767
306.78
306.793
306.806
306.819
306.831
306.843
306.854
306.865
306.877
306.745
306.758
306.77
306.784
306.797
306.811
306.824
306.838
306.851
306.863
306.875
306.887
306.899
306.91
306.774
306.787
306.8
306.814
306.827
306.841
306.855
306.869
306.882
306.895
306.908
306.92
306.932
306.943
306.803
306.816
306.829
306.843
306.857
306.871
306.885
306.899
306.913
306.926
306.939
306.951
306.964
306.975
306.832
306.845
306.858
306.872
306.886
306.9
306.914
306.929
306.942
306.956
306.969
306.982
306.995
307.006
306.86
306.873
306.886
306.9
306.914
306.928
306.943
306.957
306.971
306.985
306.999
307.012
307.026
307.036
306.888
306.901
306.914
306.928
306.941
306.956
306.97
306.985
306.999
307.013
307.027
307.04
307.055
307.066
306.914
306.927
306.939
306.953
306.967
306.982
306.997
307.012
307.026
307.041
307.055
307.069
307.084
307.096
306.942
306.953
306.966
306.98
306.994
307.008
307.023
307.037
307.052
307.066
307.08
307.094
307.109
307.124
306.459
306.458
306.461
306.465
306.469
306.473
306.477
306.481
306.485
306.49
306.494
306.499
306.503
306.509
306.483
306.481
306.485
306.489
306.493
306.497
306.502
306.506
306.511
306.515
306.52
306.525
306.53
306.538
306.505
306.504
306.508
306.513
306.517
306.522
306.527
306.532
306.537
306.542
306.547
306.552
306.557
306.565
306.529
306.529
306.533
306.538
306.543
306.548
306.553
306.559
306.564
306.569
306.575
306.581
306.586
306.594
306.553
306.554
306.559
306.564
306.569
306.575
306.58
306.586
306.592
306.598
306.604
306.61
306.616
306.623
306.578
306.581
306.585
306.59
306.596
306.602
306.608
306.614
306.621
306.627
306.633
306.639
306.646
306.653
306.604
306.608
306.612
306.617
306.623
306.63
306.636
306.643
306.65
306.656
306.663
306.67
306.677
306.683
306.63
306.635
306.639
306.645
306.651
306.658
306.665
306.672
306.679
306.686
306.693
306.7
306.708
306.714
306.656
306.662
306.666
306.672
306.679
306.686
306.693
306.701
306.709
306.716
306.724
306.731
306.739
306.745
306.683
306.689
306.693
306.7
306.707
306.714
306.722
306.73
306.738
306.746
306.754
306.762
306.77
306.776
306.709
306.715
306.72
306.727
306.734
306.742
306.751
306.759
306.768
306.776
306.784
306.792
306.801
306.807
306.736
306.742
306.747
306.755
306.762
306.77
306.779
306.788
306.797
306.805
306.814
306.822
306.832
306.838
306.761
306.767
306.774
306.781
306.789
306.798
306.807
306.816
306.826
306.835
306.844
306.852
306.863
306.869
306.789
306.794
306.801
306.808
306.816
306.825
306.834
306.844
306.854
306.863
306.873
306.882
306.892
306.901
306.38
306.376
306.373
306.37
306.368
306.365
306.364
306.363
306.362
306.362
306.362
306.362
306.363
306.366
306.397
306.392
306.388
306.385
306.383
306.381
306.38
306.378
306.378
306.377
306.377
306.378
306.378
306.381
306.413
306.408
306.405
306.402
306.399
306.398
306.396
306.395
306.394
306.394
306.394
306.395
306.395
306.398
306.431
306.425
306.422
306.419
306.417
306.415
306.414
306.413
306.412
306.412
306.412
306.413
306.413
306.416
306.448
306.443
306.44
306.438
306.436
306.434
306.433
306.432
306.431
306.431
306.432
306.432
306.433
306.435
306.467
306.462
306.46
306.457
306.455
306.454
306.453
306.452
306.452
306.452
306.452
306.453
306.454
306.456
306.486
306.482
306.479
306.477
306.475
306.474
306.473
306.473
306.473
306.473
306.474
306.475
306.476
306.478
306.506
306.502
306.5
306.497
306.496
306.495
306.495
306.495
306.495
306.496
306.496
306.498
306.499
306.5
306.525
306.523
306.521
306.519
306.518
306.517
306.517
306.517
306.518
306.519
306.52
306.521
306.523
306.524
306.546
306.545
306.542
306.541
306.54
306.54
306.54
306.54
306.541
306.543
306.544
306.546
306.548
306.548
306.566
306.566
306.564
306.563
306.563
306.563
306.563
306.564
306.566
306.567
306.569
306.571
306.574
306.573
306.588
306.588
306.586
306.586
306.585
306.586
306.587
306.588
306.59
306.592
306.595
306.597
306.6
306.599
306.61
306.61
306.609
306.609
306.609
306.61
306.611
306.613
306.615
306.617
306.62
306.623
306.626
306.625
306.634
306.633
306.631
306.631
306.632
306.633
306.635
306.638
306.64
306.643
306.646
306.649
306.653
306.655
306.325
306.316
306.309
306.302
306.296
306.29
306.284
306.28
306.276
306.272
306.269
306.266
306.264
306.262
306.335
306.326
306.318
306.311
306.304
306.298
306.292
306.287
306.282
306.278
306.275
306.272
306.269
306.267
306.344
306.334
306.327
306.319
306.313
306.306
306.3
306.295
306.29
306.286
306.282
306.279
306.276
306.274
306.353
306.344
306.336
306.329
306.322
306.315
306.309
306.304
306.299
306.294
306.29
306.287
306.283
306.281
306.363
306.354
306.347
306.339
306.332
306.325
306.319
306.314
306.308
306.304
306.299
306.296
306.292
306.29
306.374
306.365
306.357
306.35
306.343
306.336
306.33
306.324
306.319
306.314
306.31
306.306
306.302
306.3
306.386
306.377
306.369
306.361
306.354
306.348
306.342
306.336
306.331
306.326
306.321
306.317
306.314
306.311
306.397
306.389
306.381
306.374
306.367
306.36
306.354
306.348
306.343
306.338
306.334
306.33
306.326
306.323
306.41
306.402
306.394
306.387
306.38
306.373
306.367
306.362
306.357
306.352
306.347
306.343
306.34
306.336
306.422
306.415
306.407
306.4
306.394
306.387
306.382
306.376
306.371
306.366
306.362
306.357
306.354
306.35
306.435
306.428
306.421
306.414
306.408
306.402
306.396
306.391
306.386
306.381
306.377
306.372
306.369
306.365
306.448
306.442
306.435
306.429
306.422
306.417
306.412
306.406
306.401
306.397
306.392
306.388
306.385
306.381
306.463
306.457
306.45
306.444
306.438
306.433
306.427
306.423
306.418
306.413
306.409
306.404
306.402
306.398
306.479
306.471
306.465
306.459
306.453
306.448
306.444
306.439
306.435
306.43
306.426
306.422
306.42
306.417
306.271
306.26
306.251
306.241
306.233
306.225
306.217
306.21
306.204
306.198
306.193
306.188
306.183
306.178
306.274
306.263
306.253
306.244
306.235
306.227
306.219
306.211
306.204
306.198
306.192
306.186
306.181
306.175
306.276
306.265
306.256
306.246
306.237
306.228
306.22
306.212
306.205
306.198
306.192
306.185
306.18
306.174
306.279
306.268
306.258
306.249
306.239
306.23
306.222
306.213
306.206
306.198
306.192
306.185
306.179
306.173
306.281
306.271
306.261
306.251
306.242
306.233
306.224
306.215
306.207
306.2
306.193
306.186
306.179
306.173
306.284
306.274
306.264
306.254
306.245
306.235
306.226
306.218
306.209
306.201
306.194
306.187
306.18
306.174
306.288
306.278
306.268
306.258
306.248
306.239
306.23
306.221
306.212
306.204
306.196
306.189
306.182
306.175
306.292
306.281
306.271
306.261
306.252
306.242
306.233
306.224
306.215
306.207
306.199
306.191
306.184
306.177
306.296
306.285
306.275
306.265
306.256
306.246
306.237
306.228
306.219
306.21
306.202
306.194
306.187
306.18
306.3
306.29
306.28
306.27
306.26
306.251
306.241
306.232
306.223
306.214
306.206
306.198
306.19
306.183
306.305
306.295
306.285
306.275
306.265
306.255
306.246
306.237
306.228
306.219
306.211
306.202
306.195
306.187
306.309
306.3
306.29
306.28
306.27
306.261
306.251
306.242
306.233
306.224
306.216
306.207
306.2
306.191
306.315
306.305
306.295
306.285
306.276
306.266
306.257
306.248
306.239
306.23
306.221
306.213
306.205
306.196
306.319
306.309
306.3
306.29
306.281
306.272
306.263
306.254
306.245
306.236
306.228
306.219
306.211
306.202
306.195
306.184
306.174
306.165
306.155
306.147
306.138
306.13
306.122
306.114
306.107
306.099
306.093
306.085
306.191
306.181
306.171
306.162
306.152
306.143
306.134
306.125
306.117
306.109
306.101
306.093
306.086
306.078
306.187
306.177
306.167
306.158
306.148
306.139
306.13
306.121
306.112
306.103
306.095
306.087
306.08
306.072
306.183
306.174
306.164
306.154
306.144
306.135
306.125
306.116
306.107
306.098
306.09
306.081
306.073
306.065
306.18
306.17
306.16
306.15
306.14
306.131
306.121
306.111
306.102
306.093
306.084
306.075
306.067
306.059
306.176
306.166
306.156
306.146
306.136
306.127
306.117
306.107
306.097
306.088
306.079
306.07
306.061
306.052
306.172
306.162
306.152
306.143
306.132
306.122
306.112
306.102
306.093
306.083
306.074
306.064
306.055
306.046
306.168
306.158
306.148
306.138
306.128
306.118
306.108
306.098
306.088
306.078
306.068
306.059
306.049
306.04
306.165
306.155
306.145
306.135
306.124
306.114
306.104
306.093
306.083
306.073
306.063
306.053
306.044
306.035
306.161
306.151
306.14
306.13
306.12
306.11
306.099
306.089
306.078
306.068
306.058
306.048
306.038
306.029
306.157
306.147
306.137
306.127
306.116
306.106
306.095
306.084
306.074
306.063
306.053
306.043
306.033
306.024
306.153
306.143
306.133
306.122
306.112
306.101
306.091
306.08
306.069
306.059
306.048
306.038
306.028
306.019
306.15
306.139
306.129
306.119
306.108
306.098
306.087
306.076
306.065
306.054
306.043
306.033
306.023
306.013
306.146
306.135
306.125
306.114
306.104
306.093
306.082
306.072
306.061
306.051
306.04
306.03
306.019
306.01
306.07
306.061
306.052
306.043
306.035
306.027
306.018
306.009
306.001
305.992
305.984
305.975
305.968
305.959
306.061
306.053
306.044
306.036
306.027
306.019
306.01
306.001
305.992
305.983
305.975
305.966
305.958
305.949
306.051
306.044
306.035
306.027
306.018
306.01
306.001
305.992
305.983
305.974
305.966
305.956
305.948
305.939
306.042
306.035
306.026
306.018
306.01
306.001
305.992
305.983
305.974
305.965
305.956
305.947
305.938
305.929
306.033
306.026
306.017
306.009
306
305.992
305.983
305.974
305.965
305.955
305.946
305.937
305.928
305.918
306.023
306.016
306.008
306
305.991
305.982
305.973
305.964
305.955
305.945
305.936
305.926
305.917
305.907
306.014
306.007
305.998
305.99
305.981
305.972
305.963
305.954
305.944
305.935
305.925
305.915
305.906
305.896
306.004
305.996
305.988
305.98
305.971
305.962
305.952
305.943
305.934
305.924
305.914
305.904
305.895
305.885
305.994
305.986
305.978
305.969
305.96
305.951
305.942
305.932
305.922
305.913
305.903
305.893
305.883
305.874
305.984
305.975
305.967
305.958
305.949
305.94
305.931
305.921
305.911
305.901
305.891
305.882
305.871
305.862
305.974
305.965
305.957
305.948
305.939
305.929
305.92
305.91
305.9
305.89
305.879
305.87
305.859
305.851
305.963
305.954
305.945
305.936
305.927
305.918
305.908
305.898
305.888
305.878
305.868
305.858
305.847
305.839
305.953
305.943
305.935
305.926
305.916
305.907
305.897
305.886
305.876
305.866
305.855
305.846
305.835
305.827
305.942
305.931
305.923
305.914
305.904
305.894
305.885
305.875
305.865
305.855
305.845
305.835
305.824
305.816
305.87
305.864
305.859
305.853
305.846
305.84
305.833
305.825
305.818
305.81
305.802
305.794
305.786
305.778
305.858
305.853
305.847
305.842
305.836
305.829
305.822
305.815
305.807
305.799
305.791
305.783
305.775
305.767
305.845
305.841
305.836
305.83
305.824
305.818
305.811
305.803
305.796
305.788
305.78
305.772
305.764
305.756
305.833
305.829
305.824
305.818
305.812
305.806
305.799
305.791
305.784
305.776
305.768
305.76
305.752
305.744
305.821
305.817
305.811
305.806
305.8
305.793
305.786
305.779
305.772
305.764
305.756
305.748
305.74
305.732
305.808
305.804
305.799
305.793
305.787
305.78
305.773
305.766
305.759
305.751
305.743
305.735
305.727
305.719
305.795
305.791
305.785
305.78
305.774
305.767
305.76
305.753
305.746
305.738
305.73
305.722
305.714
305.706
305.782
305.777
305.772
305.766
305.76
305.753
305.746
305.739
305.732
305.724
305.716
305.708
305.7
305.692
305.769
305.764
305.758
305.752
305.746
305.739
305.732
305.725
305.718
305.71
305.702
305.694
305.686
305.678
305.755
305.749
305.744
305.738
305.731
305.725
305.718
305.711
305.703
305.696
305.687
305.68
305.671
305.664
305.741
305.735
305.73
305.723
305.717
305.71
305.703
305.696
305.688
305.681
305.673
305.665
305.656
305.65
305.727
305.72
305.714
305.708
305.702
305.695
305.688
305.681
305.673
305.666
305.658
305.65
305.641
305.635
305.713
305.706
305.7
305.694
305.687
305.68
305.673
305.666
305.658
305.65
305.642
305.635
305.626
305.621
305.698
305.691
305.685
305.678
305.672
305.665
305.658
305.65
305.643
305.635
305.627
305.62
305.612
305.606
305.587
305.586
305.584
305.581
305.578
305.575
305.571
305.567
305.562
305.557
305.551
305.545
305.54
305.534
305.574
305.574
305.573
305.57
305.567
305.564
305.56
305.556
305.551
305.546
305.541
305.535
305.53
305.523
305.563
305.563
305.561
305.559
305.556
305.552
305.549
305.545
305.54
305.535
305.53
305.524
305.519
305.513
305.551
305.551
305.549
305.547
305.544
305.541
305.537
305.533
305.529
305.524
305.519
305.513
305.508
305.502
305.539
305.539
305.537
305.534
305.531
305.528
305.525
305.521
305.516
305.512
305.507
305.502
305.497
305.491
305.527
305.526
305.524
305.522
305.519
305.516
305.512
305.508
305.504
305.499
305.495
305.49
305.485
305.479
305.515
305.513
305.511
305.509
305.506
305.503
305.499
305.495
305.491
305.487
305.482
305.477
305.472
305.467
305.502
305.5
305.498
305.495
305.492
305.489
305.486
305.482
305.478
305.474
305.469
305.464
305.459
305.455
305.489
305.486
305.484
305.482
305.479
305.476
305.472
305.468
305.464
305.46
305.455
305.451
305.446
305.442
305.475
305.472
305.47
305.468
305.465
305.462
305.458
305.454
305.45
305.446
305.442
305.437
305.432
305.429
305.462
305.459
305.456
305.454
305.451
305.447
305.444
305.44
305.436
305.432
305.428
305.424
305.419
305.416
305.448
305.444
305.442
305.439
305.436
305.433
305.43
305.426
305.422
305.418
305.414
305.41
305.405
305.402
305.435
305.43
305.428
305.425
305.422
305.419
305.415
305.412
305.408
305.404
305.399
305.395
305.391
305.389
305.42
305.416
305.413
305.411
305.408
305.405
305.401
305.397
305.394
305.39
305.385
305.381
305.377
305.375
305.239
305.241
305.242
305.243
305.244
305.244
305.244
305.243
305.242
305.241
305.239
305.237
305.235
305.232
305.23
305.233
305.234
305.235
305.236
305.236
305.236
305.236
305.235
305.233
305.232
305.23
305.228
305.225
305.222
305.225
305.226
305.227
305.228
305.228
305.228
305.228
305.227
305.226
305.224
305.222
305.221
305.218
305.214
305.216
305.217
305.219
305.219
305.22
305.22
305.219
305.218
305.217
305.216
305.214
305.213
305.21
305.206
305.208
305.209
305.21
305.21
305.211
305.211
305.21
305.21
305.209
305.208
305.206
305.205
305.202
305.197
305.199
305.2
305.201
305.201
305.202
305.202
305.201
305.201
305.2
305.199
305.198
305.196
305.194
305.188
305.189
305.19
305.191
305.192
305.192
305.192
305.192
305.192
305.191
305.19
305.189
305.188
305.186
305.179
305.18
305.181
305.182
305.182
305.183
305.183
305.182
305.182
305.181
305.181
305.18
305.179
305.177
305.169
305.17
305.171
305.172
305.172
305.173
305.173
305.173
305.172
305.172
305.171
305.17
305.169
305.169
305.159
305.16
305.161
305.162
305.162
305.163
305.163
305.163
305.163
305.162
305.161
305.161
305.16
305.16
305.15
305.15
305.151
305.152
305.152
305.153
305.153
305.153
305.153
305.152
305.152
305.151
305.15
305.15
305.14
305.14
305.141
305.142
305.142
305.143
305.143
305.143
305.143
305.142
305.142
305.141
305.14
305.141
305.131
305.13
305.131
305.132
305.132
305.133
305.133
305.133
305.133
305.132
305.132
305.131
305.13
305.132
305.121
305.12
305.121
305.122
305.122
305.123
305.123
305.123
305.122
305.122
305.122
305.121
305.121
305.121
304.86
304.864
304.868
304.871
304.875
304.878
304.881
304.883
304.885
304.887
304.889
304.89
304.891
304.891
304.857
304.862
304.865
304.869
304.872
304.875
304.878
304.88
304.882
304.884
304.886
304.887
304.888
304.889
304.855
304.859
304.862
304.866
304.869
304.872
304.875
304.877
304.879
304.881
304.883
304.884
304.886
304.886
304.852
304.856
304.859
304.862
304.866
304.869
304.871
304.874
304.876
304.878
304.88
304.881
304.883
304.883
304.848
304.852
304.856
304.859
304.862
304.865
304.868
304.87
304.873
304.875
304.876
304.878
304.879
304.88
304.845
304.848
304.852
304.855
304.858
304.861
304.864
304.867
304.869
304.871
304.873
304.875
304.876
304.877
304.841
304.844
304.848
304.851
304.854
304.857
304.86
304.863
304.865
304.867
304.869
304.871
304.873
304.874
304.837
304.84
304.844
304.847
304.85
304.853
304.856
304.859
304.861
304.863
304.865
304.867
304.869
304.87
304.833
304.836
304.839
304.843
304.846
304.849
304.852
304.854
304.857
304.859
304.861
304.863
304.865
304.867
304.828
304.832
304.835
304.838
304.842
304.845
304.847
304.85
304.853
304.855
304.857
304.859
304.861
304.863
304.824
304.827
304.831
304.834
304.837
304.84
304.843
304.846
304.848
304.85
304.853
304.855
304.857
304.859
304.819
304.823
304.826
304.829
304.833
304.836
304.838
304.841
304.844
304.846
304.848
304.85
304.852
304.854
304.815
304.818
304.821
304.825
304.828
304.831
304.834
304.836
304.839
304.841
304.844
304.846
304.848
304.85
304.811
304.814
304.817
304.82
304.823
304.826
304.829
304.832
304.834
304.836
304.839
304.841
304.843
304.845
304.486
304.49
304.495
304.499
304.503
304.507
304.511
304.515
304.518
304.522
304.525
304.528
304.531
304.533
304.488
304.492
304.496
304.501
304.505
304.509
304.513
304.517
304.521
304.524
304.527
304.53
304.533
304.535
304.49
304.494
304.498
304.502
304.507
304.511
304.515
304.519
304.522
304.526
304.529
304.532
304.534
304.536
304.491
304.495
304.5
304.504
304.508
304.512
304.516
304.52
304.524
304.527
304.53
304.533
304.536
304.538
304.492
304.497
304.501
304.506
304.51
304.514
304.518
304.522
304.525
304.529
304.532
304.534
304.537
304.539
304.493
304.498
304.502
304.507
304.511
304.515
304.519
304.523
304.526
304.53
304.533
304.536
304.538
304.541
304.494
304.499
304.503
304.508
304.512
304.516
304.52
304.524
304.527
304.531
304.534
304.537
304.539
304.542
304.495
304.5
304.504
304.509
304.513
304.517
304.521
304.525
304.528
304.532
304.535
304.538
304.54
304.543
304.495
304.5
304.505
304.509
304.513
304.518
304.521
304.525
304.529
304.532
304.536
304.538
304.541
304.544
304.496
304.501
304.505
304.51
304.514
304.518
304.522
304.526
304.529
304.533
304.536
304.539
304.542
304.544
304.496
304.501
304.505
304.51
304.514
304.518
304.522
304.526
304.53
304.533
304.536
304.539
304.542
304.545
304.496
304.501
304.505
304.51
304.514
304.518
304.522
304.526
304.53
304.533
304.536
304.539
304.542
304.545
304.496
304.501
304.505
304.51
304.514
304.518
304.522
304.526
304.53
304.533
304.536
304.539
304.542
304.545
304.496
304.501
304.505
304.51
304.514
304.518
304.522
304.526
304.529
304.533
304.536
304.539
304.542
304.545
304.136
304.139
304.143
304.146
304.15
304.153
304.157
304.16
304.163
304.167
304.17
304.172
304.175
304.178
304.14
304.143
304.147
304.15
304.154
304.158
304.162
304.165
304.168
304.171
304.174
304.177
304.18
304.182
304.144
304.147
304.151
304.155
304.159
304.163
304.166
304.17
304.173
304.176
304.179
304.181
304.184
304.186
304.148
304.152
304.156
304.159
304.163
304.167
304.171
304.174
304.177
304.18
304.183
304.186
304.188
304.19
304.152
304.156
304.16
304.164
304.167
304.171
304.175
304.178
304.181
304.184
304.187
304.19
304.192
304.194
304.156
304.16
304.164
304.168
304.171
304.175
304.179
304.182
304.185
304.188
304.191
304.194
304.196
304.198
304.159
304.163
304.167
304.171
304.175
304.179
304.183
304.186
304.189
304.192
304.195
304.197
304.2
304.201
304.162
304.167
304.171
304.175
304.179
304.183
304.186
304.19
304.193
304.196
304.199
304.201
304.203
304.205
304.166
304.17
304.174
304.178
304.182
304.186
304.19
304.193
304.196
304.199
304.202
304.204
304.207
304.208
304.169
304.173
304.177
304.181
304.185
304.189
304.193
304.196
304.199
304.202
304.205
304.208
304.21
304.212
304.172
304.176
304.18
304.184
304.188
304.192
304.196
304.199
304.202
304.205
304.208
304.21
304.213
304.215
304.174
304.179
304.183
304.187
304.191
304.195
304.198
304.202
304.205
304.208
304.211
304.213
304.216
304.218
304.177
304.181
304.185
304.189
304.193
304.197
304.201
304.204
304.208
304.211
304.213
304.216
304.218
304.22
304.179
304.184
304.188
304.192
304.196
304.199
304.203
304.206
304.21
304.213
304.215
304.218
304.221
304.223
303.816
303.818
303.82
303.822
303.824
303.826
303.828
303.83
303.832
303.834
303.836
303.838
303.84
303.841
303.82
303.822
303.824
303.826
303.829
303.831
303.833
303.835
303.837
303.839
303.841
303.843
303.844
303.846
303.824
303.826
303.829
303.831
303.833
303.836
303.838
303.84
303.842
303.844
303.845
303.847
303.848
303.85
303.828
303.83
303.833
303.835
303.838
303.84
303.842
303.845
303.847
303.848
303.85
303.852
303.853
303.854
303.832
303.835
303.837
303.84
303.842
303.845
303.847
303.849
303.851
303.853
303.854
303.856
303.857
303.858
303.836
303.839
303.842
303.844
303.847
303.849
303.851
303.853
303.855
303.857
303.859
303.86
303.861
303.862
303.84
303.843
303.846
303.848
303.851
303.853
303.856
303.858
303.86
303.861
303.863
303.864
303.865
303.866
303.844
303.847
303.85
303.852
303.855
303.857
303.86
303.862
303.864
303.865
303.867
303.868
303.869
303.87
303.848
303.851
303.854
303.856
303.859
303.861
303.863
303.866
303.867
303.869
303.871
303.872
303.873
303.874
303.851
303.855
303.857
303.86
303.862
303.865
303.867
303.869
303.871
303.873
303.874
303.876
303.877
303.878
303.855
303.858
303.861
303.863
303.866
303.868
303.871
303.873
303.875
303.876
303.878
303.879
303.88
303.881
303.858
303.861
303.864
303.867
303.869
303.872
303.874
303.876
303.878
303.88
303.881
303.883
303.884
303.885
303.861
303.864
303.867
303.87
303.872
303.875
303.877
303.879
303.881
303.883
303.884
303.886
303.887
303.888
303.864
303.867
303.87
303.873
303.875
303.878
303.88
303.882
303.884
303.886
303.887
303.889
303.89
303.892
303.526
303.527
303.527
303.528
303.528
303.529
303.53
303.53
303.531
303.532
303.532
303.533
303.534
303.534
303.529
303.529
303.53
303.531
303.531
303.532
303.533
303.533
303.534
303.535
303.535
303.536
303.536
303.537
303.532
303.532
303.533
303.534
303.534
303.535
303.536
303.536
303.537
303.538
303.538
303.539
303.539
303.54
303.534
303.535
303.536
303.536
303.537
303.538
303.539
303.539
303.54
303.541
303.541
303.542
303.542
303.543
303.537
303.538
303.539
303.539
303.54
303.541
303.542
303.542
303.543
303.544
303.544
303.545
303.545
303.546
303.54
303.541
303.542
303.542
303.543
303.544
303.545
303.545
303.546
303.546
303.547
303.547
303.548
303.548
303.543
303.544
303.544
303.545
303.546
303.547
303.548
303.548
303.549
303.549
303.55
303.55
303.551
303.551
303.545
303.546
303.547
303.548
303.549
303.55
303.55
303.551
303.552
303.552
303.553
303.553
303.554
303.554
303.548
303.549
303.55
303.551
303.552
303.553
303.553
303.554
303.555
303.555
303.556
303.556
303.556
303.557
303.551
303.552
303.553
303.554
303.555
303.555
303.556
303.557
303.557
303.558
303.558
303.559
303.559
303.559
303.553
303.555
303.556
303.556
303.557
303.558
303.559
303.56
303.56
303.561
303.561
303.562
303.562
303.562
303.556
303.557
303.558
303.559
303.56
303.561
303.562
303.562
303.563
303.563
303.564
303.564
303.565
303.564
303.559
303.56
303.561
303.562
303.563
303.563
303.564
303.565
303.565
303.566
303.566
303.567
303.567
303.567
303.561
303.562
303.563
303.564
303.565
303.566
303.567
303.567
303.568
303.569
303.569
303.57
303.57
303.57
303.265
303.264
303.264
303.263
303.263
303.262
303.262
303.262
303.261
303.261
303.261
303.261
303.261
303.261
303.266
303.265
303.264
303.264
303.263
303.263
303.263
303.262
303.262
303.262
303.262
303.262
303.262
303.262
303.266
303.266
303.265
303.265
303.264
303.264
303.264
303.263
303.263
303.263
303.263
303.263
303.263
303.263
303.267
303.267
303.266
303.266
303.265
303.265
303.264
303.264
303.264
303.264
303.264
303.264
303.264
303.264
303.268
303.268
303.267
303.267
303.266
303.266
303.265
303.265
303.265
303.265
303.265
303.265
303.265
303.265
303.269
303.269
303.268
303.268
303.267
303.267
303.267
303.266
303.266
303.266
303.266
303.266
303.266
303.266
303.271
303.27
303.27
303.269
303.269
303.268
303.268
303.268
303.267
303.267
303.267
303.267
303.267
303.268
303.272
303.271
303.271
303.27
303.27
303.27
303.269
303.269
303.269
303.269
303.268
303.269
303.269
303.269
303.273
303.273
303.272
303.272
303.271
303.271
303.271
303.27
303.27
303.27
303.27
303.27
303.27
303.27
303.275
303.274
303.274
303.273
303.273
303.272
303.272
303.272
303.272
303.271
303.271
303.271
303.271
303.271
303.276
303.276
303.275
303.275
303.274
303.274
303.274
303.273
303.273
303.273
303.273
303.273
303.273
303.273
303.278
303.277
303.277
303.276
303.276
303.276
303.275
303.275
303.275
303.275
303.274
303.274
303.274
303.274
303.279
303.279
303.278
303.278
303.278
303.277
303.277
303.277
303.276
303.276
303.276
303.276
303.276
303.276
303.281
303.281
303.28
303.28
303.279
303.279
303.279
303.278
303.278
303.278
303.278
303.278
303.278
303.277
303.029
303.028
303.027
303.027
303.026
303.025
303.024
303.024
303.023
303.023
303.022
303.022
303.022
303.022
303.029
303.028
303.027
303.026
303.025
303.024
303.024
303.023
303.023
303.022
303.022
303.022
303.022
303.022
303.029
303.028
303.026
303.025
303.025
303.024
303.023
303.023
303.022
303.022
303.021
303.021
303.021
303.021
303.028
303.027
303.026
303.025
303.024
303.023
303.023
303.022
303.022
303.021
303.021
303.021
303.021
303.021
303.028
303.027
303.026
303.025
303.024
303.023
303.022
303.022
303.021
303.021
303.021
303.021
303.021
303.021
303.028
303.027
303.026
303.025
303.024
303.023
303.022
303.022
303.021
303.021
303.021
303.021
303.021
303.021
303.028
303.027
303.026
303.025
303.024
303.023
303.022
303.022
303.021
303.021
303.021
303.021
303.021
303.021
303.028
303.027
303.026
303.025
303.024
303.023
303.022
303.022
303.021
303.021
303.021
303.021
303.021
303.021
303.029
303.027
303.026
303.025
303.024
303.023
303.023
303.022
303.021
303.021
303.021
303.021
303.021
303.021
303.029
303.028
303.027
303.025
303.025
303.024
303.023
303.022
303.022
303.022
303.021
303.021
303.021
303.021
303.03
303.028
303.027
303.026
303.025
303.024
303.024
303.023
303.022
303.022
303.022
303.022
303.022
303.022
303.03
303.029
303.028
303.027
303.026
303.025
303.024
303.024
303.023
303.023
303.022
303.022
303.022
303.022
303.031
303.03
303.028
303.027
303.027
303.026
303.025
303.024
303.024
303.023
303.023
303.023
303.023
303.023
303.031
303.03
303.029
303.028
303.027
303.027
303.026
303.025
303.025
303.024
303.024
303.024
303.024
303.023
307.142
307.124
307.102
307.08
307.057
307.033
307.157
307.146
307.13
307.115
307.1
307.083
306.708
306.673
306.642
306.61
306.581
306.553
306.722
306.685
306.651
306.616
306.584
306.553
306.736
306.695
306.658
306.62
306.585
306.552
306.752
306.708
306.668
306.628
306.59
306.555
306.767
306.721
306.679
306.636
306.597
306.56
306.782
306.736
306.691
306.647
306.606
306.567
306.797
306.751
306.705
306.66
306.617
306.577
306.812
306.767
306.721
306.676
306.632
306.59
306.827
306.783
306.739
306.694
306.65
306.608
306.842
306.801
306.759
306.716
306.674
306.631
306.858
306.821
306.782
306.743
306.703
306.663
306.873
306.842
306.807
306.772
306.737
306.702
306.891
306.866
306.837
306.808
306.778
306.748
306.902
306.886
306.864
306.843
306.821
306.799
306.545
306.517
306.491
306.466
306.444
306.423
306.554
306.523
306.495
306.466
306.44
306.415
306.561
306.526
306.494
306.463
306.435
306.409
306.57
306.532
306.497
306.464
306.434
306.406
306.579
306.539
306.502
306.467
306.435
306.406
306.588
306.547
306.509
306.472
306.439