/*--------------------------------*- C++ -*----------------------------------*\
| =========                 |                                                 |
| \\      /  F ield         | OpenFOAM: The Open Source CFD Toolbox           |
|  \\    /   O peration     | Version:  v2106                                 |
|   \\  /    A nd           | Website:  www.openfoam.com                      |
|    \\/     M anipulation  |                                                 |
\*---------------------------------------------------------------------------*/
FoamFile
{
    version     2.0;
    format      ascii;
    arch        "LSB;label=32;scalar=64";
    class       volVectorField;
    location    "0.000129";
    object      U;
}
// * * * * * * * * * * * * * * * * * * * * * * * * * * * * * * * * * * * * * //

dimensions      [0 1 -1 0 0 0 0];

internalField   nonuniform List<vector> 
17927
(
(0.00884202 0.00884795 -0.355976)
(0.00744233 0.00881643 -0.355514)
(0.00626464 0.00924592 -0.354789)
(0.00491154 0.00930508 -0.354242)
(0.00355116 0.00943671 -0.353804)
(0.00214905 0.00945941 -0.353562)
(0.000707859 0.00946763 -0.35346)
(0.00880591 0.0074452 -0.355516)
(0.00755355 0.00755745 -0.354987)
(0.00644569 0.00788594 -0.354196)
(0.00513689 0.00800302 -0.353585)
(0.0037607 0.00814643 -0.353055)
(0.00229588 0.00822292 -0.352706)
(0.000755391 0.008265 -0.352549)
(0.00923588 0.00626326 -0.354795)
(0.00788263 0.00644369 -0.354198)
(0.00669338 0.00669024 -0.353312)
(0.00528135 0.00678225 -0.352733)
(0.00383501 0.00687354 -0.35222)
(0.00232311 0.00691639 -0.351904)
(0.00075925 0.00694375 -0.351757)
(0.00929278 0.00490745 -0.354249)
(0.00799815 0.00513055 -0.35359)
(0.00678473 0.00527336 -0.352735)
(0.00538457 0.00537644 -0.352132)
(0.00392068 0.00544285 -0.351614)
(0.00238197 0.00548572 -0.351269)
(0.00077745 0.00550946 -0.351109)
(0.00942121 0.00354548 -0.353811)
(0.00813937 0.00375267 -0.353058)
(0.00687475 0.00382586 -0.35222)
(0.00545044 0.0039113 -0.351612)
(0.00396353 0.00395447 -0.351092)
(0.00240548 0.00398398 -0.350746)
(0.000783565 0.00399887 -0.350582)
(0.00944174 0.00214272 -0.353568)
(0.00821679 0.00228821 -0.352707)
(0.00691824 0.00231459 -0.351906)
(0.00549474 0.00237319 -0.351272)
(0.0039942 0.00239651 -0.350754)
(0.00242519 0.00241562 -0.350393)
(0.00078771 0.00242335 -0.350222)
(0.00944498 0.00069976 -0.353468)
(0.00825527 0.000748247 -0.35255)
(0.00694309 0.000754585 -0.351755)
(0.00551716 0.000774121 -0.351103)
(0.00400889 0.000781356 -0.350577)
(0.00243346 0.000787226 -0.350207)
(0.000788105 0.000786802 -0.350037)
(0.00944364 -0.000705069 -0.353466)
(0.00825242 -0.00075485 -0.352548)
(0.00694041 -0.000761912 -0.351751)
(0.00551374 -0.000782873 -0.3511)
(0.00400545 -0.000790811 -0.350574)
(0.00243085 -0.000797186 -0.350204)
(0.00078608 -0.000802898 -0.350033)
(0.00944029 -0.00214621 -0.353565)
(0.00821533 -0.00229239 -0.352705)
(0.0069189 -0.00232092 -0.351897)
(0.00549368 -0.00238153 -0.351262)
(0.00399115 -0.00240688 -0.350741)
(0.00242088 -0.00242757 -0.350377)
(0.000781884 -0.00244054 -0.350206)
(0.0113457 0.011347 -0.38376)
(0.00960921 0.0113563 -0.383254)
(0.00811513 0.0119225 -0.382387)
(0.00636673 0.0120406 -0.381748)
(0.00460685 0.0122473 -0.381228)
(0.00278619 0.0122985 -0.380955)
(0.000924761 0.0123223 -0.380851)
(-0.000923166 0.0123218 -0.380852)
(-0.00278398 0.012298 -0.380959)
(-0.00460449 0.0122469 -0.381232)
(-0.00636419 0.012039 -0.381752)
(-0.00811374 0.0119199 -0.382391)
(-0.00960967 0.0113512 -0.383257)
(-0.0113479 0.011341 -0.383763)
(0.0113506 0.00960707 -0.383255)
(0.00978367 0.00978281 -0.382645)
(0.00835979 0.0102379 -0.38171)
(0.00667452 0.010424 -0.381006)
(0.00489837 0.0106358 -0.380384)
(0.00299666 0.0107495 -0.37998)
(0.000997438 0.0108128 -0.379807)
(-0.000994827 0.010813 -0.379808)
(-0.0029948 0.0107506 -0.379982)
(-0.00489676 0.0106361 -0.380388)
(-0.00667394 0.0104235 -0.381009)
(-0.0083606 0.0102358 -0.381714)
(-0.00978731 0.00977861 -0.382647)
(-0.0113567 0.00960017 -0.383258)
(0.011918 0.00811067 -0.38239)
(0.0102398 0.00835491 -0.381711)
(0.00871223 0.00870636 -0.380668)
(0.00689442 0.00885922 -0.380019)
(0.00501769 0.00900553 -0.379434)
(0.00304513 0.00907909 -0.379087)
(0.0010084 0.00912643 -0.378936)
(-0.0010058 0.00912693 -0.378936)
(-0.00304316 0.0090806 -0.379089)
(-0.00501629 0.00900645 -0.379436)
(-0.00689459 0.00885905 -0.380021)
(-0.00871438 0.00870483 -0.38067)
(-0.0102448 0.00835156 -0.381711)
(-0.0119246 0.0081054 -0.38239)
(0.0120349 0.00636109 -0.381751)
(0.0104253 0.00666789 -0.381007)
(0.00886488 0.00688666 -0.380019)
(0.007061 0.00705341 -0.379356)
(0.00515455 0.0071631 -0.378785)
(0.0031393 0.007234 -0.378414)
(0.0010393 0.00727506 -0.37825)
(-0.00103752 0.00727542 -0.378251)
(-0.00313804 0.00723419 -0.378415)
(-0.00515381 0.00716248 -0.378788)
(-0.00706218 0.0070517 -0.379358)
(-0.00886838 0.00688382 -0.38002)
(-0.010432 0.00666372 -0.381006)
(-0.0120432 0.00635572 -0.381751)
(0.0122409 0.00460159 -0.381231)
(0.0106366 0.00489268 -0.380383)
(0.00901144 0.00501186 -0.379432)
(0.00717108 0.00514957 -0.378782)
(0.00522804 0.00522328 -0.378229)
(0.00318041 0.00527285 -0.377874)
(0.00105123 0.00530157 -0.377715)
(-0.00105062 0.00530147 -0.377716)
(-0.00318009 0.00527092 -0.377876)
(-0.00522808 0.00521992 -0.378232)
(-0.00717278 0.0051447 -0.378784)
(-0.00901585 0.00500664 -0.379432)
(-0.0106444 0.00488703 -0.380381)
(-0.0122501 0.00459632 -0.38123)
(0.0122915 0.002782 -0.380956)
(0.0107519 0.00299293 -0.379977)
(0.00908671 0.00304145 -0.379086)
(0.00724341 0.00313653 -0.378415)
(0.00527839 0.00317796 -0.377881)
(0.00321189 0.00320945 -0.377525)
(0.00105996 0.0032272 -0.377367)
(-0.00106248 0.00322694 -0.377366)
(-0.00321401 0.00320629 -0.377523)
(-0.00527984 0.00317294 -0.377879)
(-0.0072452 0.0031296 -0.378413)
(-0.00909071 0.00303384 -0.379083)
(-0.0107587 0.0029851 -0.379974)
(-0.0123008 0.00277586 -0.380952)
(0.0123117 0.000921016 -0.380853)
(0.0108116 0.000995283 -0.379805)
(0.00913137 0.00100839 -0.378931)
(0.00728266 0.00104144 -0.378244)
(0.00530597 0.00105504 -0.377712)
(0.00322925 0.00106539 -0.377355)
(0.00106528 0.0010701 -0.377196)
(-0.00106884 0.00106895 -0.377197)
(-0.00323261 0.00105951 -0.377355)
(-0.00530903 0.0010463 -0.377712)
(-0.00728577 0.00103077 -0.378246)
(-0.00913585 0.000997269 -0.378931)
(-0.0108177 0.000986498 -0.379803)
(-0.0123191 0.000916243 -0.38085)
(0.0123124 -0.000924002 -0.380852)
(0.0108115 -0.00099654 -0.379805)
(0.00913126 -0.00100824 -0.37893)
(0.00728187 -0.00103989 -0.378243)
(0.00530474 -0.00105256 -0.377711)
(0.00322813 -0.00106276 -0.377354)
(0.00106412 -0.00107124 -0.377195)
(-0.00106909 -0.00107192 -0.377195)
(-0.00323306 -0.00106746 -0.377353)
(-0.00530945 -0.00105858 -0.37771)
(-0.00728632 -0.00104573 -0.378243)
(-0.00913573 -0.00101309 -0.37893)
(-0.0108158 -0.00100092 -0.379804)
(-0.0123176 -0.000928142 -0.38085)
(0.0122944 -0.002785 -0.380954)
(0.0107549 -0.00299459 -0.379977)
(0.00909052 -0.00304275 -0.379084)
(0.00724619 -0.00313707 -0.378411)
(0.00527914 -0.00317843 -0.377875)
(0.00321053 -0.00321031 -0.377517)
(0.00105577 -0.00323208 -0.377358)
(-0.00106755 -0.00323282 -0.377358)
(-0.00322045 -0.00321524 -0.377517)
(-0.00528609 -0.00318474 -0.377875)
(-0.00725021 -0.00314345 -0.378409)
(-0.00909259 -0.00304786 -0.379081)
(-0.0107554 -0.00299657 -0.379976)
(-0.0122944 -0.00278468 -0.380955)
(0.0122433 -0.00460488 -0.38123)
(0.0106402 -0.00489606 -0.380383)
(0.00901583 -0.00501556 -0.37943)
(0.00717376 -0.0051529 -0.37878)
(0.00522833 -0.00522698 -0.378227)
(0.00317751 -0.00527713 -0.377872)
(0.00104499 -0.00530968 -0.37771)
(-0.00105877 -0.00531002 -0.37771)
(-0.00318896 -0.00528077 -0.377872)
(-0.00523636 -0.00523144 -0.378225)
(-0.00717775 -0.00515687 -0.378779)
(-0.00901553 -0.0050175 -0.379431)
(-0.0106371 -0.00489431 -0.380385)
(-0.012239 -0.00460076 -0.381234)
(0.0120353 -0.00636346 -0.381751)
(0.0104263 -0.00667223 -0.381005)
(0.00886708 -0.00689341 -0.380016)
(0.00706212 -0.00706134 -0.379351)
(0.00515361 -0.00717259 -0.378779)
(0.00313474 -0.00724366 -0.378411)
(0.00103222 -0.0072876 -0.378244)
(-0.00104682 -0.00728777 -0.378243)
(-0.00314682 -0.00724625 -0.378409)
(-0.00516084 -0.00717398 -0.378779)
(-0.00706343 -0.00706055 -0.379354)
(-0.00886347 -0.00688962 -0.38002)
(-0.0104198 -0.00666451 -0.38101)
(-0.0120273 -0.00635307 -0.381759)
(0.011916 -0.00810899 -0.382391)
(0.0102376 -0.00835655 -0.381711)
(0.00871128 -0.00871159 -0.380668)
(0.00689247 -0.00886693 -0.380017)
(0.00501461 -0.00901626 -0.379428)
(0.00303915 -0.00909139 -0.379082)
(0.0010011 -0.00914 -0.378927)
(-0.00101514 -0.00913891 -0.378927)
(-0.00305 -0.00909044 -0.379084)
(-0.00502006 -0.00901299 -0.379431)
(-0.00689154 -0.00886105 -0.380021)
(-0.00870459 -0.00870215 -0.380675)
(-0.010227 -0.00834331 -0.381719)
(-0.0119049 -0.00809432 -0.382401)
(0.0113466 -0.00960023 -0.383259)
(0.00977881 -0.00977969 -0.382646)
(0.00835595 -0.0102388 -0.38171)
(0.00667035 -0.0104286 -0.381004)
(0.00489348 -0.0106433 -0.38038)
(0.0029896 -0.0107585 -0.379977)
(0.000990507 -0.0108211 -0.379801)
(-0.00100242 -0.0108192 -0.379802)
(-0.00299814 -0.0107546 -0.379979)
(-0.00489603 -0.0106354 -0.380385)
(-0.00666595 -0.0104172 -0.38101)
(-0.00834577 -0.0102236 -0.381719)
(-0.00976705 -0.00976316 -0.382656)
(-0.0113357 -0.00958114 -0.383271)
(0.0113358 -0.0113356 -0.383766)
(0.00959909 -0.0113479 -0.38326)
(0.00810727 -0.0119174 -0.382391)
(0.0063596 -0.0120382 -0.381751)
(0.0046006 -0.0122474 -0.381228)
(0.00277956 -0.0122998 -0.380954)
(0.000919474 -0.012321 -0.380848)
(-0.000928233 -0.0123188 -0.380849)
(-0.00278463 -0.0122926 -0.380959)
(-0.00460045 -0.0122361 -0.381235)
(-0.00635265 -0.012023 -0.38176)
(-0.00809558 -0.0118994 -0.382402)
(-0.00958439 -0.0113293 -0.383272)
(-0.0113207 -0.0113148 -0.383773)
(0.0142616 0.0142629 -0.411716)
(0.0121049 0.01429 -0.411149)
(0.0101926 0.0149324 -0.410107)
(0.00798155 0.0150721 -0.409352)
(0.00576226 0.0153214 -0.408734)
(0.00347314 0.0153716 -0.408428)
(0.00116111 0.0153953 -0.408326)
(-0.00116377 0.0153961 -0.408327)
(-0.00347474 0.0153726 -0.40843)
(-0.00576201 0.0153225 -0.408736)
(-0.00798026 0.0150717 -0.409356)
(-0.0101913 0.0149313 -0.410111)
(-0.0121044 0.0142864 -0.411153)
(-0.0142629 0.0142579 -0.41172)
(0.0142861 0.0121027 -0.411148)
(0.0123052 0.0123045 -0.41041)
(0.0104578 0.0128285 -0.409314)
(0.0083183 0.0130305 -0.408516)
(0.00609367 0.0132642 -0.407809)
(0.00372274 0.0133775 -0.407363)
(0.00125387 0.0134429 -0.407189)
(-0.00125506 0.0134439 -0.407189)
(-0.00372398 0.0133791 -0.407365)
(-0.00609392 0.0132656 -0.407812)
(-0.00831857 0.0130313 -0.40852)
(-0.0104585 0.0128284 -0.409319)
(-0.0123082 0.0123021 -0.410414)
(-0.0142916 0.0120982 -0.411153)
(0.0149295 0.0101884 -0.410107)
(0.0128305 0.0104539 -0.409314)
(0.0108617 0.0108573 -0.408122)
(0.00856679 0.0110201 -0.407429)
(0.00622163 0.0111798 -0.4068)
(0.00376962 0.0112484 -0.406459)
(0.0012665 0.0113006 -0.406329)
(-0.00126716 0.0113016 -0.406329)
(-0.00377034 0.0112498 -0.406461)
(-0.00622149 0.0111807 -0.406803)
(-0.00856733 0.0110204 -0.407433)
(-0.0108632 0.0108572 -0.408126)
(-0.0128343 0.0104526 -0.409317)
(-0.0149356 0.0101855 -0.41011)
(0.0150687 0.00797617 -0.409352)
(0.0130332 0.00831374 -0.408516)
(0.0110245 0.00856257 -0.407429)
(0.00875246 0.00874876 -0.40676)
(0.00637309 0.00886369 -0.406196)
(0.00387528 0.00892872 -0.405858)
(0.00130548 0.00897381 -0.405732)
(-0.00130661 0.00897472 -0.405732)
(-0.00387637 0.00892913 -0.40586)
(-0.00637336 0.00886333 -0.4062)
(-0.0087534 0.00874763 -0.406764)
(-0.0110268 0.0085612 -0.407433)
(-0.0130381 0.00831193 -0.408519)
(-0.0150761 0.00797398 -0.409356)
(0.0153188 0.0057576 -0.408733)
(0.0132677 0.00609035 -0.407807)
(0.0111855 0.00621911 -0.406798)
(0.00886802 0.0063721 -0.406193)
(0.00644622 0.00644531 -0.405695)
(0.00391329 0.00648687 -0.405422)
(0.00131892 0.00651958 -0.405327)
(-0.00132093 0.0065202 -0.405327)
(-0.0039149 0.00648611 -0.405424)
(-0.00644687 0.0064434 -0.4057)
(-0.00886927 0.00636901 -0.406197)
(-0.0111879 0.00621565 -0.406801)
(-0.0132728 0.00608675 -0.407809)
(-0.0153267 0.00575441 -0.408736)
(0.0153708 0.0034707 -0.408426)
(0.0133834 0.00372184 -0.40736)
(0.0112565 0.00376925 -0.406459)
(0.00893517 0.00387625 -0.405859)
(0.00648901 0.00391474 -0.405428)
(0.00393767 0.00393895 -0.405199)
(0.00132767 0.00396032 -0.405129)
(-0.00133131 0.00396062 -0.405128)
(-0.00394031 0.00393731 -0.405199)
(-0.00649034 0.00391209 -0.405429)
(-0.00893655 0.00387226 -0.405859)
(-0.0112591 0.00376448 -0.406459)
(-0.0133879 0.00371626 -0.407361)
(-0.0153788 0.0034659 -0.408427)
(0.0153916 0.00116062 -0.408327)
(0.013445 0.0012542 -0.407186)
(0.0113053 0.00126759 -0.406325)
(0.00897744 0.00130774 -0.405727)
(0.00651945 0.00132194 -0.405326)
(0.00395773 0.00133127 -0.40512)
(0.00133577 0.00133875 -0.405047)
(-0.00133898 0.00133816 -0.405048)
(-0.00396044 0.00132743 -0.405121)
(-0.00652176 0.00131656 -0.405328)
(-0.00898009 0.00130093 -0.405731)
(-0.0113095 0.00126003 -0.406328)
(-0.0134503 0.00124701 -0.407188)
(-0.0153987 0.00115484 -0.408327)
(0.0153932 -0.00116292 -0.408327)
(0.0134461 -0.00125418 -0.407187)
(0.0113067 -0.00126585 -0.406325)
(0.00897836 -0.00130438 -0.405727)
(0.00651988 -0.00131748 -0.405326)
(0.00395771 -0.00132595 -0.40512)
(0.00133508 -0.001336 -0.405047)
(-0.0013398 -0.00133659 -0.405048)
(-0.00396201 -0.00132947 -0.405121)
(-0.00652388 -0.0013221 -0.405328)
(-0.00898231 -0.00130999 -0.40573)
(-0.011311 -0.00127205 -0.406327)
(-0.0134508 -0.00126022 -0.407188)
(-0.0153988 -0.00116812 -0.408326)
(0.0153742 -0.00347352 -0.408426)
(0.013387 -0.00372296 -0.407361)
(0.0112604 -0.00376915 -0.40646)
(0.00893813 -0.00387464 -0.40586)
(0.00649052 -0.00391234 -0.405428)
(0.0039374 -0.0039359 -0.405197)
(0.00132502 -0.00395995 -0.405126)
(-0.00133515 -0.00396086 -0.405127)
(-0.00394599 -0.00394011 -0.405198)
(-0.00649722 -0.0039179 -0.405428)
(-0.00894306 -0.00388121 -0.405858)
(-0.0112636 -0.0037757 -0.406458)
(-0.0133887 -0.00372789 -0.407362)
(-0.0153758 -0.00347719 -0.408428)
(0.015322 -0.00576235 -0.408734)
(0.0132723 -0.00609475 -0.407808)
(0.0111906 -0.00622295 -0.406799)
(0.00887164 -0.00637449 -0.406196)
(0.00644769 -0.00644725 -0.405698)
(0.00391219 -0.00648845 -0.405426)
(0.00131508 -0.00652405 -0.405329)
(-0.00132667 -0.00652506 -0.405329)
(-0.00392241 -0.00649255 -0.405425)
(-0.00645591 -0.00645219 -0.405696)
(-0.00887689 -0.0063794 -0.406195)
(-0.0111929 -0.00622715 -0.4068)
(-0.0132723 -0.00609697 -0.40781)
(-0.0153205 -0.00576307 -0.408738)
(0.0150699 -0.00798105 -0.409353)
(0.0130365 -0.00831979 -0.408517)
(0.0110286 -0.00856932 -0.40743)
(0.0087554 -0.00875559 -0.406761)
(0.00637424 -0.00887124 -0.406196)
(0.00387348 -0.00893658 -0.40586)
(0.0013009 -0.00898427 -0.40573)
(-0.00131362 -0.00898489 -0.405729)
(-0.00388451 -0.00893942 -0.405859)
(-0.00638227 -0.00887369 -0.406196)
(-0.00875988 -0.00875741 -0.406762)
(-0.0110295 -0.00856969 -0.407432)
(-0.0130342 -0.00831754 -0.408519)
(-0.0150647 -0.00797725 -0.409359)
(0.0149296 -0.0101906 -0.410109)
(0.012832 -0.010459 -0.409317)
(0.0108642 -0.0108651 -0.408125)
(0.0085685 -0.0110292 -0.407431)
(0.00622157 -0.0111906 -0.406801)
(0.00376675 -0.0112606 -0.406461)
(0.00126113 -0.0113146 -0.406326)
(-0.00127455 -0.0113143 -0.406326)
(-0.00377795 -0.0112613 -0.406461)
(-0.0062294 -0.0111908 -0.4068)
(-0.00857175 -0.0110276 -0.407432)
(-0.0108628 -0.0108611 -0.408128)
(-0.0128264 -0.0104509 -0.409321)
(-0.0149224 -0.0101806 -0.410116)
(0.0142844 -0.0121005 -0.411152)
(0.0123036 -0.012306 -0.410412)
(0.0104578 -0.0128339 -0.409316)
(0.00831856 -0.013039 -0.408517)
(0.00609273 -0.0132744 -0.407809)
(0.00371914 -0.0133892 -0.407365)
(0.00124828 -0.0134549 -0.407187)
(-0.00126119 -0.0134542 -0.407187)
(-0.00372956 -0.0133878 -0.407365)
(-0.00609889 -0.0132712 -0.407809)
(-0.00831924 -0.0130328 -0.408519)
(-0.0104525 -0.0128246 -0.40932)
(-0.0122952 -0.0122931 -0.410418)
(-0.0142767 -0.0120846 -0.411161)
(0.0142561 -0.0142575 -0.41172)
(0.0120988 -0.0142876 -0.411154)
(0.010189 -0.0149318 -0.410111)
(0.00797906 -0.0150729 -0.409356)
(0.00575912 -0.0153254 -0.408736)
(0.00346875 -0.0153789 -0.40843)
(0.00115633 -0.0154021 -0.408325)
(-0.00116809 -0.0154006 -0.408326)
(-0.0034776 -0.0153743 -0.408432)
(-0.00576348 -0.0153181 -0.408738)
(-0.00797762 -0.0150613 -0.409359)
(-0.0101815 -0.0149188 -0.410116)
(-0.0120863 -0.0142729 -0.411161)
(-0.0142418 -0.014238 -0.411724)
(0.0184217 0.0184245 -0.438737)
(0.0156094 0.0184456 -0.438061)
(0.0130696 0.0191498 -0.436734)
(0.0101752 0.0191839 -0.435808)
(0.00730653 0.0193902 -0.435044)
(0.00438577 0.0193702 -0.4347)
(0.00147243 0.0193608 -0.434605)
(-0.00147853 0.0193627 -0.434605)
(-0.00439023 0.0193713 -0.434701)
(-0.00730918 0.0193919 -0.435046)
(-0.0101763 0.0191827 -0.43581)
(-0.0130702 0.0191482 -0.436737)
(-0.0156112 0.0184414 -0.438064)
(-0.0184259 0.018419 -0.438741)
(0.0184408 0.0156078 -0.43806)
(0.015769 0.0157697 -0.437113)
(0.013246 0.0162822 -0.435787)
(0.0104545 0.0164168 -0.434848)
(0.0076083 0.0166001 -0.434013)
(0.00462618 0.0166515 -0.433509)
(0.00157075 0.0166825 -0.433336)
(-0.00157569 0.0166839 -0.433336)
(-0.00463034 0.0166523 -0.433511)
(-0.00761144 0.0166012 -0.434015)
(-0.0104573 0.0164164 -0.434851)
(-0.0132489 0.0162815 -0.435791)
(-0.0157738 0.015767 -0.437117)
(-0.0184476 0.0156044 -0.438065)
(0.0191476 0.0130647 -0.436734)
(0.016283 0.0132433 -0.435787)
(0.0136278 0.0136247 -0.434368)
(0.0106646 0.0137127 -0.433617)
(0.00768899 0.0138108 -0.432929)
(0.00463233 0.0138178 -0.432605)
(0.00157394 0.0138416 -0.432514)
(-0.00157837 0.0138425 -0.432514)
(-0.00463618 0.0138183 -0.432607)
(-0.00769192 0.0138111 -0.432932)
(-0.0106673 0.0137122 -0.43362)
(-0.0136307 0.0136245 -0.434372)
(-0.0162878 0.0132428 -0.43579)
(-0.0191542 0.0130638 -0.436738)
(0.0191828 0.0101688 -0.435807)
(0.0164189 0.0104508 -0.434847)
(0.0137158 0.0106614 -0.433617)
(0.0107837 0.0107813 -0.432956)
(0.0077868 0.0108331 -0.432417)
(0.00470384 0.0108417 -0.432143)
(0.00160744 0.0108637 -0.432087)
(-0.0016123 0.0108645 -0.432087)
(-0.00470812 0.0108417 -0.432145)
(-0.00779004 0.0108329 -0.43242)
(-0.0107866 0.0107803 -0.432959)
(-0.0137191 0.0106606 -0.433621)
(-0.016424 0.0104499 -0.434851)
(-0.0191909 0.0101683 -0.435811)
(0.0193931 0.007301 -0.435042)
(0.0166053 0.0076053 -0.434011)
(0.0138158 0.00768702 -0.432928)
(0.0108364 0.00778619 -0.432415)
(0.00780754 0.00780676 -0.432016)
(0.00470645 0.0078043 -0.431878)
(0.00161369 0.00782113 -0.431893)
(-0.00161916 0.00782177 -0.431894)
(-0.00471115 0.00780384 -0.43188)
(-0.00781107 0.00780578 -0.432019)
(-0.0108394 0.00778439 -0.432419)
(-0.0138189 0.00768505 -0.432932)
(-0.0166097 0.00760316 -0.434015)
(-0.0193999 0.0072997 -0.435046)
(0.0193746 0.00438249 -0.434697)
(0.016659 0.00462483 -0.433507)
(0.0138249 0.00463204 -0.432606)
(0.0108465 0.00470512 -0.432145)
(0.00780612 0.00470825 -0.431884)
(0.00470193 0.00470374 -0.431852)
(0.00161634 0.00471487 -0.43193)
(-0.00162263 0.00471515 -0.43193)
(-0.00470713 0.00470245 -0.431853)
(-0.00780987 0.00470638 -0.431885)
(-0.0108495 0.00470244 -0.432146)
(-0.0138281 0.00462904 -0.432607)
(-0.016663 0.00462147 -0.43351)
(-0.0193814 0.00437955 -0.434698)
(0.0193629 0.00147254 -0.434604)
(0.0166874 0.00157154 -0.433334)
(0.0138458 0.00157535 -0.432512)
(0.0108657 0.00160992 -0.432084)
(0.00782064 0.00161649 -0.431892)
(0.00471184 0.00161938 -0.431923)
(0.00162302 0.0016251 -0.432001)
(-0.00162832 0.00162477 -0.432001)
(-0.00471663 0.00161656 -0.431925)
(-0.00782501 0.00161245 -0.431896)
(-0.01087 0.00160466 -0.432089)
(-0.0138506 0.00156959 -0.432516)
(-0.0166922 0.00156586 -0.433337)
(-0.0193692 0.0014671 -0.434604)
(0.0193639 -0.00147719 -0.434604)
(0.0166884 -0.00157438 -0.433335)
(0.0138471 -0.00157679 -0.432512)
(0.0108667 -0.00160998 -0.432085)
(0.0078214 -0.00161599 -0.431893)
(0.00471213 -0.00161784 -0.431924)
(0.00162243 -0.00162604 -0.432001)
(-0.00162905 -0.0016261 -0.432002)
(-0.00471815 -0.0016196 -0.431926)
(-0.00782688 -0.00161855 -0.431896)
(-0.0108718 -0.00161381 -0.432089)
(-0.0138519 -0.00158186 -0.432516)
(-0.016693 -0.00157991 -0.433337)
(-0.0193694 -0.00148277 -0.434604)
(0.0193779 -0.00438827 -0.434697)
(0.0166618 -0.00462893 -0.433508)
(0.0138278 -0.00463526 -0.432608)
(0.0108488 -0.004707 -0.432148)
(0.00780736 -0.00470962 -0.431886)
(0.00470193 -0.00470407 -0.431854)
(0.00161436 -0.00471757 -0.431931)
(-0.00162524 -0.00471818 -0.431932)
(-0.00471157 -0.00470697 -0.431855)
(-0.00781535 -0.00471363 -0.431886)
(-0.0108551 -0.00471229 -0.432147)
(-0.0138327 -0.00464137 -0.432608)
(-0.0166657 -0.00463489 -0.43351)
(-0.0193816 -0.00439389 -0.434698)
(0.0193966 -0.00730823 -0.435042)
(0.0166087 -0.00761183 -0.434012)
(0.0138194 -0.00769332 -0.432929)
(0.0108392 -0.00779124 -0.432418)
(0.00780893 -0.00781139 -0.432019)
(0.00470618 -0.0078082 -0.431883)
(0.00161109 -0.00782734 -0.431897)
(-0.00162311 -0.00782821 -0.431897)
(-0.00471707 -0.00781141 -0.431883)
(-0.00781816 -0.00781533 -0.432019)
(-0.0108462 -0.00779566 -0.43242)
(-0.0138243 -0.0076979 -0.432931)
(-0.0166118 -0.0076155 -0.434014)
(-0.0193989 -0.00731158 -0.435045)
(0.0191862 -0.010176 -0.435808)
(0.0164219 -0.010459 -0.434848)
(0.0137191 -0.0106703 -0.433619)
(0.0107862 -0.0107895 -0.432958)
(0.00778789 -0.0108416 -0.432419)
(0.00470325 -0.0108502 -0.432147)
(0.00160447 -0.0108742 -0.432088)
(-0.00161716 -0.0108748 -0.432088)
(-0.00471478 -0.0108524 -0.432147)
(-0.00779762 -0.0108439 -0.43242)
(-0.0107936 -0.0107918 -0.43296)
(-0.0137236 -0.0106723 -0.433621)
(-0.0164236 -0.0104594 -0.43485)
(-0.0191863 -0.0101748 -0.435811)
(0.019148 -0.0130716 -0.436735)
(0.0162846 -0.013252 -0.435788)
(0.0136308 -0.0136341 -0.43437)
(0.0106668 -0.0137224 -0.43362)
(0.00768946 -0.0138218 -0.432932)
(0.00463106 -0.0138297 -0.43261)
(0.00157043 -0.0138551 -0.432515)
(-0.00158383 -0.0138553 -0.432515)
(-0.00464305 -0.0138307 -0.43261)
(-0.00769936 -0.0138225 -0.432931)
(-0.0106738 -0.013722 -0.433621)
(-0.0136341 -0.0136329 -0.434371)
(-0.0162834 -0.0132485 -0.43579)
(-0.0191437 -0.0130652 -0.436739)
(0.0184385 -0.0156102 -0.438062)
(0.0157693 -0.015775 -0.437114)
(0.0132486 -0.0162892 -0.435787)
(0.0104557 -0.0164262 -0.434849)
(0.00760798 -0.0166119 -0.434014)
(0.00462415 -0.0166645 -0.433513)
(0.00156707 -0.0166963 -0.433336)
(-0.0015804 -0.0166963 -0.433336)
(-0.00463578 -0.0166644 -0.433512)
(-0.00761681 -0.0166105 -0.434014)
(-0.0104609 -0.0164223 -0.43485)
(-0.0132496 -0.0162822 -0.435789)
(-0.0157653 -0.0157647 -0.437117)
(-0.0184323 -0.0155963 -0.438066)
(0.0184184 -0.0184233 -0.438739)
(0.0156057 -0.0184434 -0.438064)
(0.0130681 -0.0191523 -0.436738)
(0.0101734 -0.019192 -0.43581)
(0.0073047 -0.0194013 -0.435045)
(0.0043831 -0.0193824 -0.434701)
(0.00146845 -0.019372 -0.434602)
(-0.00148179 -0.0193717 -0.434602)
(-0.00439404 -0.0193805 -0.4347)
(-0.00731216 -0.0193978 -0.435045)
(-0.0101756 -0.0191853 -0.43581)
(-0.013065 -0.0191408 -0.43674)
(-0.0155973 -0.0184288 -0.438067)
(-0.018407 -0.0184041 -0.438739)
(0.0230664 0.0230717 -0.464951)
(0.019408 0.023011 -0.463975)
(0.0161519 0.0237147 -0.462118)
(0.0125155 0.0235206 -0.460816)
(0.00893187 0.0236213 -0.459754)
(0.00533229 0.0234796 -0.459282)
(0.00179202 0.0233945 -0.459159)
(-0.00179858 0.0233972 -0.459159)
(-0.00533716 0.0234797 -0.459281)
(-0.00893588 0.0236215 -0.459753)
(-0.0125182 0.0235183 -0.460816)
(-0.0161543 0.0237128 -0.462119)
(-0.0194112 0.0230064 -0.463976)
(-0.0230718 0.0230657 -0.464953)
(0.0230054 0.0194082 -0.463976)
(0.0194524 0.019454 -0.462576)
(0.0161602 0.0198941 -0.460781)
(0.0126524 0.019844 -0.459497)
(0.00914724 0.0199107 -0.458361)
(0.0055328 0.0198649 -0.457682)
(0.00188369 0.0198393 -0.457458)
(-0.0018899 0.0198409 -0.457457)
(-0.00553792 0.0198642 -0.457682)
(-0.00915194 0.0199105 -0.45836)
(-0.0126568 0.0198417 -0.459498)
(-0.0161649 0.019892 -0.460783)
(-0.0194583 0.0194511 -0.462577)
(-0.0230119 0.0194045 -0.463977)
(0.0237124 0.0161489 -0.462118)
(0.0198931 0.0161594 -0.460782)
(0.0164585 0.0164576 -0.458878)
(0.0127429 0.0163742 -0.457843)
(0.00911281 0.0163431 -0.456915)
(0.0054513 0.0162449 -0.456495)
(0.00186072 0.0162119 -0.456397)
(-0.00186668 0.0162129 -0.456397)
(-0.0054566 0.0162445 -0.456495)
(-0.00911753 0.0163424 -0.456915)
(-0.0127472 0.0163722 -0.457844)
(-0.0164626 0.016456 -0.458879)
(-0.0198986 0.0161579 -0.460782)
(-0.0237183 0.016148 -0.46212)
(0.0235192 0.012511 -0.460815)
(0.0198442 0.0126506 -0.459497)
(0.016375 0.0127417 -0.457843)
(0.0127123 0.012712 -0.456982)
(0.00909419 0.0126495 -0.456297)
(0.00544898 0.0125816 -0.455979)
(0.00187515 0.0125645 -0.455949)
(-0.00188183 0.0125652 -0.455949)
(-0.00545496 0.012581 -0.45598)
(-0.00909936 0.0126487 -0.456298)
(-0.0127171 0.0127101 -0.456984)
(-0.0163799 0.0127402 -0.457844)
(-0.0198497 0.0126488 -0.459498)
(-0.0235263 0.012511 -0.460816)
(0.0236229 0.00892782 -0.459751)
(0.0199141 0.0091457 -0.458358)
(0.0163461 0.0091121 -0.456913)
(0.0126511 0.00909479 -0.456296)
(0.00903398 0.00903412 -0.45582)
(0.00540613 0.00898854 -0.455685)
(0.00187142 0.00898252 -0.455737)
(-0.00187882 0.008983 -0.455738)
(-0.0054127 0.00898769 -0.455687)
(-0.0090395 0.00903292 -0.455822)
(-0.0126558 0.00909271 -0.456298)
(-0.0163503 0.0091103 -0.456916)
(-0.0199178 0.00914379 -0.458361)
(-0.0236284 0.00892718 -0.459752)
(0.0234826 0.00532923 -0.459278)
(0.0198696 0.005532 -0.45768)
(0.0162493 0.00545157 -0.456495)
(0.0125841 0.00545088 -0.455981)
(0.00898872 0.00540851 -0.45569)
(0.00538034 0.00538326 -0.455673)
(0.00187055 0.00537858 -0.455808)
(-0.00187865 0.00537871 -0.455808)
(-0.00538745 0.00538176 -0.455673)
(-0.00899454 0.00540661 -0.455691)
(-0.0125889 0.00544834 -0.455982)
(-0.0162536 0.00544917 -0.456496)
(-0.0198733 0.00552964 -0.457682)
(-0.023488 0.00532742 -0.459278)
(0.0233978 0.00179143 -0.459157)
(0.0198439 0.00188431 -0.457455)
(0.0162153 0.00186193 -0.456395)
(0.0125657 0.00187743 -0.455946)
(0.00898178 0.00187409 -0.455736)
(0.00537537 0.0018739 -0.455802)
(0.00187318 0.00187568 -0.455955)
(-0.00188091 0.00187536 -0.455956)
(-0.00538232 0.00187139 -0.455803)
(-0.00898783 0.00187063 -0.455739)
(-0.0125708 0.00187311 -0.45595)
(-0.0162196 0.00185722 -0.456398)
(-0.019847 0.00187975 -0.457459)
(-0.0234025 0.00178701 -0.459157)
(0.0233979 -0.00179587 -0.459157)
(0.0198439 -0.001888 -0.457456)
(0.0162156 -0.00186518 -0.456396)
(0.0125661 -0.00187988 -0.455947)
(0.00898208 -0.00187641 -0.455737)
(0.00537549 -0.00187521 -0.455803)
(0.0018727 -0.00187917 -0.455956)
(-0.00188138 -0.00187921 -0.455956)
(-0.00538335 -0.00187645 -0.455804)
(-0.00898901 -0.00187832 -0.455739)
(-0.0125718 -0.00188273 -0.455951)
(-0.0162204 -0.00186899 -0.456399)
(-0.0198476 -0.00189232 -0.457458)
(-0.0234031 -0.00180109 -0.459157)
(0.023484 -0.00533437 -0.459277)
(0.0198708 -0.0055367 -0.45768)
(0.0162509 -0.00545614 -0.456496)
(0.0125856 -0.00545457 -0.455983)
(0.00898955 -0.00541204 -0.455692)
(0.0053804 -0.00538588 -0.455675)
(0.00186871 -0.00538313 -0.45581)
(-0.00188055 -0.00538354 -0.45581)
(-0.00539107 -0.00538777 -0.455675)
(-0.00899867 -0.00541494 -0.455692)
(-0.0125929 -0.00545841 -0.455984)
(-0.0162566 -0.00546096 -0.456496)
(-0.0198746 -0.00554145 -0.457681)
(-0.0234869 -0.00533901 -0.459277)
(0.0236243 -0.0089343 -0.45975)
(0.0199152 -0.009152 -0.458359)
(0.016348 -0.00911839 -0.456914)
(0.0126529 -0.00910024 -0.456298)
(0.00903506 -0.00903953 -0.455822)
(0.00540626 -0.00899338 -0.455689)
(0.00186888 -0.00898906 -0.45574)
(-0.00188174 -0.00898971 -0.45574)
(-0.00541791 -0.00899535 -0.455689)
(-0.00904501 -0.00904221 -0.455823)
(-0.0126607 -0.00910317 -0.4563)
(-0.0163537 -0.00912184 -0.456916)
(-0.0199185 -0.00915444 -0.458361)
(-0.0236264 -0.00893632 -0.459751)
(0.0235196 -0.0125181 -0.460814)
(0.0198453 -0.0126577 -0.459497)
(0.0163768 -0.0127489 -0.457844)
(0.0127137 -0.0127191 -0.456984)
(0.00909497 -0.0126571 -0.456299)
(0.00544897 -0.0125892 -0.455982)
(0.00187241 -0.0125734 -0.45595)
(-0.00188527 -0.0125739 -0.45595)
(-0.00546083 -0.0125903 -0.455983)
(-0.00910536 -0.0126584 -0.4563)
(-0.0127219 -0.0127199 -0.456986)
(-0.0163819 -0.0127497 -0.457845)
(-0.0198472 -0.0126567 -0.459498)
(-0.0235196 -0.0125156 -0.460815)
(0.0237123 -0.0161555 -0.462117)
(0.0198935 -0.016167 -0.460781)
(0.0164593 -0.0164647 -0.458878)
(0.0127437 -0.0163828 -0.457844)
(0.00911348 -0.0163524 -0.456916)
(0.0054512 -0.0162547 -0.456497)
(0.00185776 -0.0162227 -0.456397)
(-0.00187072 -0.016223 -0.456397)
(-0.00546299 -0.0162546 -0.456498)
(-0.00912362 -0.016352 -0.456916)
(-0.0127513 -0.0163804 -0.457845)
(-0.0164635 -0.0164623 -0.458879)
(-0.0198927 -0.0161621 -0.460782)
(-0.0237095 -0.0161483 -0.462117)
(0.0230019 -0.0194113 -0.463975)
(0.0194521 -0.0194606 -0.462575)
(0.0161608 -0.0199006 -0.46078)
(0.0126522 -0.0198522 -0.459498)
(0.00914741 -0.0199195 -0.458361)
(0.00553227 -0.0198742 -0.457684)
(0.00188085 -0.0198499 -0.457457)
(-0.00189321 -0.0198503 -0.457457)
(-0.00554313 -0.019873 -0.457683)
(-0.00915643 -0.0199173 -0.458361)
(-0.0126585 -0.0198464 -0.459498)
(-0.016163 -0.0198927 -0.460782)
(-0.0194487 -0.0194494 -0.462575)
(-0.0229959 -0.0193969 -0.463974)
(0.0230629 -0.0230702 -0.464952)
(0.0194036 -0.0230089 -0.463977)
(0.0161504 -0.0237195 -0.462119)
(0.0125149 -0.0235283 -0.460815)
(0.00893119 -0.0236308 -0.459751)
(0.00533048 -0.023489 -0.459279)
(0.00178855 -0.0234051 -0.459154)
(-0.00180043 -0.0234057 -0.459154)
(-0.00534019 -0.0234859 -0.459279)
(-0.0089382 -0.023626 -0.459751)
(-0.0125181 -0.0235197 -0.460814)
(-0.016149 -0.0237104 -0.462119)
(-0.0193958 -0.0229937 -0.463976)
(-0.0230518 -0.0230509 -0.464949)
(0.0310221 0.0310244 -0.488127)
(0.0258839 0.0305785 -0.486952)
(0.0213107 0.031148 -0.484499)
(0.0164891 0.0308984 -0.482562)
(0.0116958 0.0308204 -0.481104)
(0.00695142 0.0304832 -0.480445)
(0.0023162 0.0302728 -0.480289)
(-0.00232031 0.0302747 -0.480289)
(-0.00695504 0.0304823 -0.480443)
(-0.0116998 0.0308194 -0.481102)
(-0.0164931 0.0308959 -0.482561)
(-0.0213149 0.0311451 -0.484498)
(-0.0258892 0.0305755 -0.486951)
(-0.0310281 0.0310212 -0.488125)