/*--------------------------------*- C++ -*----------------------------------*\
| =========                 |                                                 |
| \\      /  F ield         | OpenFOAM: The Open Source CFD Toolbox           |
|  \\    /   O peration     | Version:  v2106                                 |
|   \\  /    A nd           | Website:  www.openfoam.com                      |
|    \\/     M anipulation  |                                                 |
\*---------------------------------------------------------------------------*/
FoamFile
{
    version     2.0;
    format      ascii;
    arch        "LSB;label=32;scalar=64";
    class       volScalarField;
    location    "0.000124";
    object      epsilon;
}
// * * * * * * * * * * * * * * * * * * * * * * * * * * * * * * * * * * * * * //

dimensions      [0 2 -3 0 0 0 0];

internalField   nonuniform List<scalar> 
144746
(
1625.48
1166.35
1326.58
1514.33
1891.99
2389.54
2881.4
3279.26
3548.24
3594.23
3289.35
2663.35
2044.67
1538.38
2094.73
1150.32
844.23
766.987
853.608
1057.82
1309.69
1550.25
1746.09
1839.64
1686.76
1311
955.64
666.442
2828.52
1475.9
770.44
450.75
355.302
382.259
468.386
574.8
682.843
761.711
702.742
537.086
402.374
354.509
3627.42
1941.95
913.428
390.086
180.082
122.068
128.275
159.461
202.778
243.689
227.641
183.118
172.778
241.215
4202.39
2327.41
1085.81
422.009
142.473
49.8233
29.1062
31.8835
43.5362
57.3533
56.2868
57.0339
93.0248
209.831
4283.38
2381.04
1102.72
418.617
129.616
33.0383
8.39238
4.62323
6.20949
9.23363
11.5613
25.4963
87.2709
271.731
4021.24
2165.8
963.018
350.978
102.657
23.5356
4.1644
0.73363
0.515343
1.04641
4.4743
27.354
126.456
419.658
3584.48
1849.02
784.541
268.359
72.8391
15.3242
2.42506
0.288374
0.0483159
0.456433
6.40911
45.2589
202.52
636.722
3022.2
1505.42
616.805
204.079
54.0231
11.6072
2.26841
0.539223
0.213501
1.07186
12.5389
78.0984
313.866
899.066
2397.94
1164.05
472.723
162.974
50.415
16.8865
7.27714
3.55138
1.85056
2.7208
18.7234
103.703
391.647
1072.25
1822.74
894.123
387.185
164.792
83.293
53.0487
34.9336
20.5361
11.383
9.28457
25.4547
108.655
387.777
1066.02
1429.78
748.231
393.688
258.516
218.173
186.493
138.627
87.8545
50.9904
34.3336
44.6837
108.082
318.687
886.221
1160.66
700.337
539.107
557.151
594.244
548.894
426.013
285.321
174.054
110.044
99.9891
140.28
248.623
638.541
1052.35
885.193
1021.77
1287.7
1420.22
1310.24
1038.92
733.209
473.565
297.866
226.842
246.246
252.583
478.148
3087.91
2778.78
3427.74
4211.24
5273.58
6335.51
7139.51
7569.6
7641.51
7271.08
6336.57
4906.37
3586.47
2535.23
3634.11
2310.01
1986.32
2052.24
2417.91
2936.9
3433.93
3788.62
3974.06
3924.07
3417.29
2518
1721.38
1100.73
5087.5
2857.75
1650.26
1098.53
971.875
1079.27
1273.68
1461.65
1610.33
1679.77
1468.15
1064.16
756.33
666.283
6888.73
3919.57
1967.22
905.035
458.271
336.746
352.802
413.138
486.665
546.747
483.523
371.64
349.692
524.401
8364.78
4933.12
2444.97
1010.09
360.73
133.038
78.773
82.032
103.846
128.353
119.602
121.62
220.127
549.384
9005.42
5331.86
2627.22
1060
345.629
91.8588
23.3274
11.5971
14.0873
19.8693
25.2521
65.5721
248.77
788.221
8989.76
5168.76
2448.48
941.66
289.168
69.2688
12.5995
2.02542
1.05872
2.25129
12.5343
82.3015
377.188
1199.03
8599.63
4755.64
2146.83
775.146
220.445
48.3045
7.92663
0.96985
0.140235
1.37396
19.5698
134.146
573.908
1703.96
7797.11
4140.41
1797.66
624.623
172.526
38.5369
7.94278
2.05814
0.815785
3.06697
34.5538
209.049
807.429
2200.88
6607.11
3375.69
1428.73
506.335
159.31
54.6505
24.8777
12.9401
6.7329
7.72275
47.0694
252.428
920.156
2414.23
5236.25
2627.07
1144.29
479.456
240.44
158.669
111.229
69.6881
39.2787
27.6596
62.0659
247.248
847.274
2240.5
4030.07
2083.02
1055.76
666.608
571.031
516.334
410.854
278.537
167.277
103.86
111.669
238.126
655.774
1749.12
3098.07
1779.18
1272.85
1292.79
1435.92
1413.23
1177.52
846.829
542.468
332.424
258.212
310.097
490.772
1175.94
2629.6
1965.66
2119.32
2737.38
3194.79
3150.81
2685.82
2038.41
1397.97
887.213
604.923
549.913
505.636
834.963
6577.72
7138.82
9125.92
11409.6
13748.1
15454.5
16191.9
15973.1
15023.8
13476.9
11129
8259.59
5736.93
3811.62
6173.09
4770.96
4811
5481.52
6555.72
7630.56
8359.27
8571.26
8321.04
7655.03
6254.37
4338.53
2776.74
1711.46
8411.54
5133.52
3320.18
2571.98
2543.03
2855.88
3210.3
3432.84
3493.8
3372.03
2737.82
1872.42
1300.03
1271.33
12026.4
7173.28
3768.5
1854.22
1052.59
854.523
895.745
989.348
1072.63
1110.47
909.474
675.291
690.817
1231.59
15203.2
9402.8
4822.11
2058.24
764.26
302.52
191.735
193.96
225.543
256.595
224.114
249.071
554.743
1550.4
17135.1
10669.5
5456.08
2269.28
755.254
202.605
51.5377
24.8415
27.7957
37.2284
52.8206
181.02
735.434
2298.31
18027.2
10948.6
5389.35
2130.57
664.358
159.202
28.381
4.14834
1.78654
4.82666
38.0601
255.947
1113.21
3320.05
18384.4
10783.6
5078.06
1886.23
543.494
118.637
19.137
2.31111
0.337774
4.4104
60.6622
392.669
1574.19
4346.32
17890.4
10051.5
4549.69
1616.61
450.634
100.712
21.4709
6.24462
2.62769
8.79867
94.3114
543.204
1987.49
5099.22
16322.4
8741.8
3809.3
1359.95
422.659
145.698
70.5211
39.5528
21.1287
20.9963
116.023
594.154
2063.12
5149.63
13816.9
7102.29
3077.96
1243.56
602.312
408.693
304.772
203.858
119.34
77.3569
146.529
541.056
1762.62
4465.22
10928.7
5579.23
2660.19
1556.9
1329.82
1265.25
1071.72
777.11
491.574
297.321
272.047
502.201
1280.9
3256.52
8329.51
4497.29
2848.82
2740.17
3151.2
3286.3
2919.43
2250.48
1534.26
956.715
670.362
674.395
939.556
2042.33
6846.96
4433.9
4189.26
5398.14
6638.08
6954.28
6323.9
5155.19
3792.18
2524.46
1654.57
1277.79
1050.83
1427.51
1383.97
2235.24
4253.2
11907.3
161955
102511
507.724
779.37
1527.49
4669.41
81008.8
52060.3
446.743
737.125
1363.78
3514.91
55529.6
28929.3
432.334
782.214
1461.42
3324.12
43566.2
18076.4
479.498
990.685
1932.08
4031.38
40051.8
13139.8
699.061
1504.03
2917.21
5687.74
42977.1
11230.1
1068.14
2247.77
4243.45
7982.08
51064.4
11146
1528.98
3069.66
5618.66
10422.6
62179.5
12465.1
2014.6
3826.63
6817.61
12736.1
75881.9
15280.7
2329.79
4217.92
7421.93
14282.2
90051.5
19824.7
2346.29
4120.43
7243.58
14654.8
103631
26784.3
2025.86
3534.07
6275.97
13656.4
114505
38275.3
1494.75
2699.2
5058.59
12220.7
128980
60391.9
988.122
2033.84
4433.53
12809.1
173067
110056
2152.24
3134.89
5396.46
12255.8
105119
62825.2
860.196
1285.16
2291.95
5223.72
52064.4
30956.7
903.945
1473.92
2520.45
4774.56
37789.2
17905.7
1010.5
1855.87
3274.69
5657.34
33017.8
12639.7
1313.16
2667.86
4825.89
7944.22
34887.6
11164.3
1967.95
4010.66
7148.89
11350.3
41556
11792.2
2863.87
5636.26
9769.11
15125.8
51014.8
13647
3815.96
7140.17
12001.8
18476.2
61079.7
16076.4
4631.53
8199.19
13451
21060.9
71583.9
19132.7
4965.64
8389.11
13650.5
22120.7
80512.4
22462
4708.37
7719.16
12561.5
21318.3
87352.7
26121.8
3863.57
6261.99
10261.6
18439.7
90187.6
31436.8
2674.51
4460.82
7650.03
15010.6
97038.4
42379.1
1605.24
2960.91
5787.72
13220.4
115717
68116
3072.83
3855.4
5455.17
8777.19
18088.4
26105
1622.94
2434.4
3786.86
5915.32
10245.2
15170.6
2037.18
3371.14
5256.56
7584.68
10773.2
13840.9
2646.15
4875.75
7847.27
11061.6
14394.3
17199
3765.48
7261.85
11669.6
16053.7
20062.2
23249.9
5442.28
10262.2
16028.7
21473.6
26162
29643.5
7352.55
13289.2
20043.9
26128.4
31272
33798.6
8995.14
15499
22593.8
28983.6
34959.5
35028.6
10013.9
16406
23390.1
30359.4
38833.7
34665.7
9960.14
15630.3
22221.6
29454.6
41742.9
32211.8
8900.54
13477.4
19239.1
25905.3
41654.7
28321
6903.66
10195.8
14746.6
19971.5
36110.5
24531.7
4452.96
6634.67
9896.4
13760.6
28549.9
23844.7
2444.66
3841.59
6134.09
9185.84
22592.8
28961.2
533.49
998.653
2258.43
7446.27
136547
106499
376.251
626.565
1254.68
3828.42
75598
52673.3
453.916
745.705
1350.83
3349.96
54664.9
29146.4
478.297
880.63
1618.23
3539.14
44779.6
18394
686.908
1333.08
2429.22
4763.97
43207.5
13616.6
1059.53
2049.08
3665.04
6768.81
47366.5
11871.5
1549.42
2912.4
5083.63
9130.72
55924.1
11821.8
2098.31
3788.77
6454.67
11470.1
67001.9
13039.6
2601.81
4530.86
7601.36
13667.2
80141.8
15736.5
2879.43
4886.04
8167.54
15164.4
94362
20058.4
2723.68
4587.99
7729.1
15244.6
108585
26602.5
2171.11
3675.67
6366.68
13872.3
120921
36967.2
1609.51
2757.51
5030.37
12558
137323
58497
1354.53
2457.8
4903.19
13858.7
190598
106837
942.889
1575.11
3133.29
7966.2
85523.5
62374.6
784.165
1234.62
2164.37
4754.55
48493.6
30600.2
1023.94
1661
2756.39
5157.43
37662.7
18066.5
1302.42
2342.09
3949.47
6757.54
34923.3
13352.5
1979.45
3660.49
6119.62
9836
38713
12465.6
2944.61
5360.2
8782.35
13653
46068.5
13474.7
4022.66
7078.82
11331
17207.9
55589.3
15266.9
5054.83
8533.43
13338.6
20090.2
64855.3
17433.9
5832.81
9490.38
14607.9
22311.1
74759.3
19972.1
6040.22
9554.69
14632.7
22872.9
83392.8
22580.1
5382.78
8418.11
12901.1
21128.3
88635.2
25277.6
4081.12
6365.95
9954.57
17572.5
91452.1
29397
3046.21
4743.15
7633.16
14815.5
98088.4
40346.6
2933.23
4685.79
7790.09
15581.8
125915
66784.6
1732.08
2505.63
3909.91
6524.57
13716.2
24232.5
1777.09
2688.86
4041.7
5990.79
9849.05
15162.5
2530.55
4077.39
6135.53
8568.73
11639.4
14964.8
3636.78
6314.07
9674.54
13271.6
16792.2
20082.2
5464.36
9523.17
14406.7
19281.5
23681.2
27594
7612.64
12921.7
18976.9
24797.8
29860.4
33488.1
9640.62
15761
22364.4
28591.4
33985
35726.4
11247.2
17654.7
24300.8
30948.6
37687.2
35742.8
12122.6
18327.9
24732
32043.8
41726.2
33959.9
11789.7
17225.6
22939.1
29878.4
42336.5
29884.3
9878.31
14062.7
18562.5
24251
37659.9
24593.1
7140.87
9937.75
13091.3
17278.4
28650.5
20778.1
5635.72
7714.21
10157.8
13411.5
22138.8
23010.1
6667.67
9031.31
11891.4
14978.6
23517.5
35214.9
103421
226245
23999.6
9691.55
5171.7
2770.64
61240.6
178940
22160.6
10125.2
6167.97
3914.81
39690.6
155210
23088.6
11730.8
7492.87
5035.42
27919.1
140284
24698.2
13583.7
8820.79
6068.89
20745.9
126850
25547.1
14915.4
9846.48
6741.14
16009.8
113321
24934.4
15387.4
10187.3
6809.33
13097
101722
23526.6
15126
9985.74
6550.67
11856.9
90915.2
21431.4
14051.4
9347.77
6034.39
11911.8
81565.9
19011.8
12300.6
8211.04
5272.63
13604.4
75336
15743.4
10112.9
6739.85
4318.36
18036.9
74315.5
12585.6
7744.29
5166.36
3319.23
27975
81891.4
10287.6
5841.73
3893.86
2542.7
49859.6
103837
9687.3
4768.68
3041.64
2005.28
101443
170134
13024.7
5165.66
2863.59
1722.98
68344.2
158173
26048.7
12986.7
7724.23
4510.78
46017.6
135371
26277.8
14360.9
9474.26
6405.41
34486.1
125168
29170.7
17298.5
12006
8652.92
28646.1
116492
32479
20784.8
14697.6
10820.9
24907.9
109743
35196
23741.1
17020.3
12512.2
21936.3
100124
35922.8
25763.7
18515.8
13330
19776.5
90426.2
35392.8
26735.1
19285.7
13612.8
18184.4
83545.9
34366.9
26582.2
19474.6
13424.5
17090.9
78042.9
32485.6
25018
18496
12626.6
16744.9
71971.4
29286.5
22257.9
16469.3
11146.7
17761.8
66774.1
24731.3
18366.2
13594.1
9127.41
21738.5
65344.4
19806.3
14065
10531.4
7078.41
32747.4
73589.5
16727.6
10804.8
7955.77
5390
62064.4
111031
18292
10028.4
6858.77
4505.11
37683.6
30161.6
18021.4
14100.4
10386.7
7440.82
27787.5
34662.8
19871.9
15626.1
12156.8
9406.04
25817.7
44583.3
24944.5
20148.1
16308.3
13253.4
28028.2
51900.9
31050
25676.8
21219.9
17401.6
31847.7
53506.2
36411.7
30947.2
25816.9
20918.4
36185.7
49845.2
39805.5
34725.9
29434.3
23409.2
40696.5
44828.5
40855.7
37040.9
32038.8
25124.1
45388.8
41878.4
41093
38786.4
33892.6
26325.5
50163.8
41572.2
41918.4
39821.3
34666.4
26588.4
54007.9
41796.7
42109.1
39259.9
33645.7
25411.7
53571.1
39393.3
39334.6
35830.4
30212
22547.8
46685
32877
32560.6
28972.7
24621.7
18327.8
38749.6
25611.5
24094.4
21549.4
18542.4
14111.3
40175.8
23684.1
19436.1
16912.9
14535.9
11413.4
108291
216181
22930.1
9556.47
4871.92
2655.82
64207.1
170825
21450
9888.69
5787.15
3647.01
41200.6
148710
22280.3
11204.5
6979.65
4605.64
28422.1
131998
23764.1
12915.4
8225.46
5485.72
20809.4
119809
24726
14268.4
9166.29
6040.47
15725.7
108007
24621.3
14896.9
9569.04
6145.26
12524.6
96515.7
23157.8
14692.9
9367.6
5834.91
11051
85408.8
20728.6
13613.8
8652.29
5286.09
11102.7
76292.8
17775.2
11652.6
7498.37
4526.1
12824
70407
14434.5
9252.73
6003.98
3630.48
17321.7
71322.9
11535
7060.08
4556.26
2808.92
27212.5
82261.3
10095.5
5649.29
3651.02
2323.54
48406.1
106444
9939.99
4585.45
2734.74
1685.75
96933.8
183855
16509.8
6545.93
3419.86
1891.84
71894.9
152989
23828.6
12131.6
6779.34
4067.3
48963.1
135369
25725.9
14259.9
9081.95
6129.76
36582.5
123116
28395.9
16899.3
11434.6
8059.06
29380.3
111996
31644.1
20196.9
13902.2
9912.23
24827.1
102804
34156.3
23127.8
16120
11387.9
21150.3
94489.1
35062.5
25043.7
17682.7
12288.8
18241.7
86801
34205.1
26058.7
18462.2
12520.4
16259.7
80784.9
32894
26047.1
18433.9
12177.1
14999.3
75465.3
30665.3
24266.5
17377.7
11222.8
14631.8
68773.7
27073.9
20867.1
15032.9
9638.55
15848.5
63997.4
22477
16775.9
12039
7710.45
20301.9
65335.9
18376.7
13170.3
9464.2
6115.56
31672.2
76251.7
15974.4
10281.1
7104.92
4509.8
60910.6
124167
20477.5
11404.2
7106.26
4241.3
33760.8
36851.4
14985.2
11475.2
7832.76
5620.19
29851.4
48430.3
21473.6
17014.3
12424.4
9467.61
29266.3
55099.1
26960.8
22020.8
16688.2
12988.6
30886.9
54952.4
31870.5
27196.4
21129.3
16404.2
33816.8
50223
36127.5
31743.4
25466.8
19498.2
37342.8
44973.2
38637.4
34853.3
29187.7
22063.7
40951.6
41322.8
39261.7
36980.3
31837.5
23904
44796.5
39729.5
39774.1
38488.2
33400.6
24938
48452.9
39676
40275.5
38722
33383.7
24717.9
50315.2
38907.2
39208
36795.4
31207.9
22906.6
47506.3
35345.3
35334.7
32450.7
26965.6
19559.9
41307.6
29720
29076.1
26163.7
21754.8
15732.4
35947
24476.2
22562.1
19963.7
16624.9
12094.5
39562
24836.2
19746.4
16620
13645.8
10304.8
14855.7
16815.1
21360.5
26038.5
29498.5
30955.3
30310.7
28083.4
24993.6
21580.2
17501.2
12946.9
8778.93
5492.66
10628.2
9388.78
10296.9
12095.5
14011
15324.4
15647.5
14984.8
13704.9
12085.1
9659.29
6720.66
4237.77
2715.41
12773.9
8094.92
5688.81
4900.41
5087.62
5577.34
5920.2
5917.62
5669.37
5230.59
4148.37
2844.97
2045.98
2382.24
18449.2
10845.2
5645.99
2875.18
1787.48
1547.65
1595.54
1661.3
1698.36
1675.15
1345.68
1018.66
1214.09
2722.56
23559.1
14273.8
7221.01
3052.52
1140.56
476.648
320.26
315.371
346.964
376.826
327.901
414.393
1179.28
3740.07
27203.3
16716.9
8458.58
3462.58
1134.14
302.753
79.4161
39.5705
42.1054
53.8551
84.8101
365.286
1642.73
5345.29
29981.3
18036.1
8786.65
3412.08
1041.83
245.726
43.4591
6.19129
2.33082
7.67698
74.5578
531.68
2377.54
7205.46
32482.3
18997.7
8853.82
3224.39
904.691
192.808
30.5863
3.65567
0.512153
8.5024
116.69
769.841
3136.74
8765.33
33857.3
19107.6
8532.94
2958.42
791.247
168.807
34.7648
10.3102
4.40901
15.7153
168.786
990.601
3688.44
9611.96
33250.2
17961.9
7707.62
2617.62
752.579
240.689
116.697
68.772
37.9667
36.2205
197.269
1029.53
3646.17
9232.75
30211.5
15571.4
6532.71
2396.22
1026.33
675.313
524.401
371.073
228.123
143.916
247.249
914.227
3042.57
7754.2
25135.4
12586.3
5556.51
2810.09
2221.52
2153.93
1914.9
1474.6
989.867
613.514
509.365
856.87
2176.01
5481.74
19406.8
9895.59
5428.81
4655.79
5349.27
5774.24
5386.29
4421.57
3220.39
2131.57
1441.38
1257.74
1621.97
3309.91
16165.9
9069.23
7192.41
8979.1
11417.1
12430.6
11882.6
10307.5
8111.25
5803.26
3866.59
2698.7
2027.85
2329.34
14751.1
16831.5
21029.1
25223.9
28095.3
29148.2
28309.1
26055.8
23068.7
19957.7
16322.2
12086.4
8028.82
4850.72
9781.91
8622.42
9330.72
10886.5
12497.9
13561.1
13752.7
13121
11987
10652.3
8609.27
6014.69
3704.36
2324.6
11521
7010.06
4763.9
4080.42
4256.39
4674.6
4951.8
4943.14
4737.96
4407.74
3531.4
2417.57
1668.33
1963.38
16978.9
9516.77
4742.37
2331
1426
1240.78
1286.8
1342.28
1373.65
1362.23
1098.01
814.857
960.013
2344.03
21695.9
12594.2
6135.01
2514.87
916.486
376.411
252.414
249.361
274.657
298.196
257.371
323.525
982.894
3332.78
24896.6
14672
7154.16
2854.65
922.382
244.374
63.185
30.7915
32.6185
41.5011
66.5683
301.013
1408.16
4768.17
27410.1
15756.7
7392.76
2800.9
846.431
199.643
35.3804
4.93275
1.72924
6.17916
62.1931
447.243
2041.17
6396.45
29722.3
16570.7
7430.88
2640.93
734.174
156.837
25.0951
3.0566
0.459605
7.2758
97.2183
643.437
2680
7763.24
31025.9
16693.4
7171.53
2421.53
639.318
136.477
28.7912
9.00297
3.9178
12.8624
136.736
813.925
3119.91
8457.95
30637.2
15812
6514.48
2138.3
600.166
193.005
97.1988
59.0815
32.6599
28.6649
154.451
830.711
3052.54
8058.58
28123.2
13876.2
5550.61
1934.87
805.987
543.922
434.441
312.478
192.176
115.052
184.699
713.344
2503.82
6673.41
23827.1
11383.8
4701.56
2226.05
1764.19
1762.39
1592.81
1235.25
829.09
503.57
385.996
633.44
1724.74
4569.02
18662.5
8987.45
4501.67
3722.82
4396.41
4851.91
4564.42
3746.19
2722.64
1797.22
1171.47
941.88
1211.64
2566.39
15448.6
8039.86
5887.39
7436.94
9762.44
10819
10389
8961.17
7010.2
5027.54
3330.36
2216.8
1576.49
1677.01
6300.08
7327.76
9749.04
12617.1
14983.7
16265.4
16329.4
15409.4
13854.1
12105.6
9933.99
7174.49
4643.43
2779.09
4643.1
3525.41
3693.25
4595.36
5692.17
6548.26
6936.51
6854.37
6413.02
5812.07
4751.7
3282.7
1943.14
1034.36
6628.91
3514.41
2011.24
1568.98
1683.99
1967.85
2199.81
2295.79
2268.96
2168.52
1758.35
1180.09
701.456
604.828
10338.6
5350.08
2420.71
1042.66
557.227
470.959
510.875
560.691
595.002
608.632
493.905
339.229
311.483
793.819
13413.6
7213.99
3257.11
1239.26
412.404
149.04
92.97
94.7446
108.604
121.687
102.179
106.885
326.315
1324.37
15295.2
8307.88
3755.53
1404.04
429.385
107.319
25.0689
10.9642
11.703
15.1111
21.1379
97.0608
526.203
2073.37
16637.5
8733.34
3769.69
1333.2
382.338
86.716
14.9012
1.9866
0.617805
1.80246
19.041
157.22
820.038
2946.76
17632.7
8903.28
3643.56
1201.16
315.686
64.7603
10.0582
1.18491
0.149101
1.94636
31.402
236.987
1116.47
3671.93
17834.7
8629.08
3354.07
1040.52
256.783
51.8924
10.4527
3.1243
1.25603
3.51893
45.7043
309.534
1334.1
4073.08
16903.1
7801.21
2883.18
858.506
222.986
69.9868
35.8159
21.383
11.1995
7.97675
50.8945
319.234
1320.59
3896.48
14703.7
6436.55
2280.67
718.065
296.612
212.792
171.995
120.326
70.5883
35.8694
54.7161
263.165
1070.94
3179.48
11581.2
4883.35
1784
825.134
722.057
753.887
677.296
509.822
328.039
178.5
112.595
198.676
698.094
2111.1
8475.83
3570.93
1677.46
1551.35
1997.9
2252.18
2098.82
1676.25
1171.8
717.015
404.565
261.011
399.291
1074.23
6543.16
3077.27
2415.45
3485.37
4837.62
5460.67
5210.65
4394.21
3318.6
2253.76
1362.7
744.392
441.013
544.413
1780.45
2022.52
2967.13
4158.75
5286.79
6046.68
6307.66
6114.45
5587.26
4885.42
3921.04
2656.44
1539.98
923.442
1577.14
969.831
948.583
1233.25
1641.56
1999.8
2216.59
2269.68
2179.3
1994.37
1609.8
1043.09
553.45
285.507
2630.06
1209.01
578.092
387.098
409.388
499.662
586.88
640.037
655.073
636.859
512.546
322.852
169.435
129.005
4358.91
2001.86
805.976
301.622
135.046
103.94
115.399
133.227
148.006
155.296
125.954
79.7165
60.6548
165.432
5865.91
2804.06
1133.42
389.237
115.902
35.4175
18.957
19.4597
23.5273
27.2398
22.7103
19.739
59.551
303.948
6754.53
3236.95
1303.9
439.894
123.013
28.2151
5.76442
2.06307
2.19622
2.96462
3.59141
15.3865
103.957
518.41
7232.67
3314.17
1264.95
402.077
105.413
22.223
3.60847
0.454749
0.124762
0.253823
2.4841
26.0921
172.691
784.767
7454.04
3245.96
1162.82
341.953
81.7725
15.5542
2.27667
0.253003
0.0276585
0.17789
4.24514
41.4659
245.66
1010.73
7263.39
2997.43
1010.79
277.519
61.6931
11.3161
2.03671
0.541253
0.20008
0.349266
6.43495
56.0591
301.443
1139.56
6566.79
2566.89
818.18
213.818
49.2547
13.9498
6.76644
3.87616
1.9179
1.0538
7.27099
58.3957
299.55
1084.34
5387.95
1989.09
605.544
166.892
63.9107
45.4876
36.1023
24.2166
13.3852
6.13675
7.83324
46.2023
233.134
844.769
4003.81
1421.37
446.94
192.727
174.282
183.582
161.22
116.013
70.4245
35.413
19.1658
33.0383
142.249
524.563
2771.94
987.212
421.966
412.431
555.292
629.472
573.982
438.999
290.433
164.477
84.8479
48.346
76.0994
248.86
2041.17
841.562
687.881
1076.94
1549.4
1768.25
1659.54
1347.8
966.579
612.086
344.02
172.835
93.3679
127.99
375.48
409.102
703.561
1117.5
1577.23
1921.59
2080.06
2049.43
1871.87
1593.94
1211.86
755.797
363.104
199.926
415.142
202.024
184.118
263.073
391.63
512.638
594.791
625.178
604.606
540.747
417.047
246.556
108.846
52.6946
802.47
313.624
124.261
72.3575
79.156
104.082
129.311
146.209
151.215
143.781
111.59
63.4816
27.8375
17.9436
1480.87
585.4
204.155
65.3295
24.645
17.8973
20.9
25.2844
28.5024
29.3211
22.9549
12.9079
7.64242
22.6596
2160.22
889.255
312.386
93.758
24.2423
6.20628
2.90746
3.03669
3.74147
4.23545
3.39651
2.35483
6.86999
48.8358
2580.6
1066.51
373.085
109.896
26.9334
5.40445
0.936786
0.276897
0.291176
0.38766
0.396841
1.45604
13.7197
95.4421
2775.1
1092.02
361.932
100.705
23.2064
4.31337
0.621544
0.0695494
0.0159584
0.023076
0.170946
2.61832
24.5738
153.307
2810.03
1042.56
322.909
83.0581
17.5083
2.94995
0.383301
0.0370922
0.00311255
0.00589152
0.293482
4.35305
36.0544
200.892
2646.65
922.631
267.35
63.8975
12.4317
1.96132
0.277828
0.0533894
0.0165951
0.0130651
0.446207
5.9034
44.0886
223.922
2274.59
746.048
202.956
45.5566
8.74229
1.8854
0.74592
0.400229
0.188424
0.0771543
0.491917
5.97988
42.2935
203.947
1738.22
534.373
137.29
31.1344
9.28575
5.93922
4.66162
3.0631
1.61375
0.680282
0.558372
4.31539
30.0551
144.618
1182.93
346.079
89.4674
30.9199
26.5737
28.9483
25.7028
18.1632
10.4944
4.96037
2.10141
2.81883
15.7687
77.5715
728.077
212.149
74.9699
71.514
103.358
122.755
113.469
85.2752
53.7795
28.4297
12.8198
5.80772
7.63461
32.0694
482.768
167.813
135.063
230.564
358.06
428.877
408.377
326.081
223.739
131.31
66.5531
29.5204
13.107
18.2832
61.4567
59.2649
120.33
224.686
366.286
494.917
573.715
588.049
538.712
442.415
310.851
177.314
72.1087
31.3636
90.4401
33.831
25.5305
40.073
70.1753
104.822
133.663
148.234
144.147
123.903
87.8817
47.3632
17.0813
6.93109
211.12
70.0541
22.4215
10.2047
11.3084
17.2576
24.155
29.0425
30.0932
27.1672
19.4126
9.84114
3.46777
1.855
441.753
149.465
44.9074
12.2065
3.72093
2.52642
3.28696
4.23757
4.74824
4.54923
3.28369
1.61783
0.732961
2.46277
703.665
248.878
75.8273
19.9534
4.54124
0.995444
0.409169
0.429334
0.515864
0.539691
0.411871
0.230157
0.625823
6.40444
876.876
311.928
95.0409
24.6893
5.4105
0.98474
0.154451
0.0384864
0.0359425
0.0435063
0.0383497
0.103891
1.44042
14.3128
950.504
321.898
93.3046
23.0344
4.78164
0.815704
0.110744
0.0119509
0.0021535
0.00217912
0.00703003
0.183178
2.71825
24.425
935.971
296.877
80.2793
18.3665
3.50788
0.546994
0.0674781
0.0063416
0.000480783
0.00010558
0.00883791
0.291719
3.90098
31.7042
832.723
244.986
61.4532
13.0063
2.28577
0.328748
0.0403012
0.0057348
0.00145676
0.000470768
0.0115071
0.36248
4.44891
33.3281
661.772
180.101
41.7227
8.15221
1.35697
0.232977
0.073901
0.038433
0.0184733
0.00680288
0.0122675
0.333614
3.88957
27.6595
458.037
114.958
24.5883
4.6328
1.09995
0.646693
0.526798
0.357178
0.189994
0.0771513
0.0298267
0.210184
2.41336
17.1418
279.83
65.9664
13.7438
3.85528
3.31846
3.88178
3.61785
2.61118
1.49544
0.671587
0.23641
0.148656
1.03594
7.51864
149.908
34.7985
10.0263
10.1341
16.3256
20.7234
19.944
15.1457
9.32403
4.62093
1.82066
0.618362
0.468856
2.48066
87.5312
24.8811
20.9405
41.8441
71.4443
91.0326
89.7092
71.6952
47.4735
25.855
11.4764
4.30162
1.47278
1.65871
7.43588
7.25175
17.8048
37.2587
65.521
92.4074
109.586
113.938
105.472
86.5299
59.1611
32.3604
12.2771
4.06882
12.8891
4.01638
2.80169
4.78905
9.03101
14.1545
18.8287
21.877
22.307
19.7364
13.8518
7.31105
2.45341
0.750295
38.9805
11.1543
3.00434
1.06822
1.05114
1.67272
2.51899
3.30379
3.72556
3.54635
2.55061
1.29365
0.403718
0.149692
96.9881
28.113
7.26524
1.67901
0.392137
0.193175
0.255422
0.374428
0.47133
0.485628
0.364886
0.179502
0.0610845
0.154368
168.781
50.6852
13.1948
2.97392
0.574832
0.099667
0.0279848
0.029619
0.041989
0.0489532
0.0392666
0.0197903
0.0307385
0.463821
216.716
64.2613
16.4804
3.62281
0.673478
0.104035
0.0134972
0.00261558
0.00258982
0.00344044
0.00304236
0.00404678
0.0756356
1.19273
234.948
65.0573
15.6273
3.22428
0.562927
0.0813383
0.00945013
0.000882327
0.000148032
0.000160083
0.000225369
0.00651232
0.164941
2.29557
227.631
57.86
12.7257
2.39774
0.381525
0.0501758
0.00529865
0.000433561
2.88153e-05
6.08749e-06
0.000135425
0.0116621
0.266117
3.26554
197.96
45.9879
9.21601
1.57781
0.227325
0.0271178
0.00272519
0.000289831
5.39668e-05
1.39842e-05
0.000167268
0.0149932
0.320693
3.58496
151.641
32.452
5.94759
0.925842
0.122673
0.0161642
0.00401759
0.00186084
0.000805812
0.000260751
0.000218619
0.0132345
0.277438
2.9211
98.9834
19.5122
3.28879
0.481414
0.0855212
0.0444883
0.035057
0.0222121
0.01068
0.00383286
0.0011416
0.00712005
0.153834
1.62511
56.5326
10.4696
1.68482
0.345912
0.282543
0.342402
0.311836
0.210698
0.109361
0.0436624
0.0135474
0.00552396
0.0517869
0.569694
27.5237
4.95246
1.02782
0.975899
1.77452
2.35285
2.22443
1.58957
0.892594
0.396649
0.139226
0.0401007
0.0199144
0.132792
14.6274
3.06589
2.18521
5.0855
9.87458
13.2591
12.9448
9.80904
5.9798
2.94927
1.17065
0.383997
0.108981
0.0918281
1.24786
0.892814
2.31559
5.32758
9.88163
14.5991
17.6127
17.8639
15.3973
11.22
6.7023
3.17598
1.0468
0.275927
2.43189
0.592291
0.294751
0.497193
0.990733
1.63563
2.22035
2.5055
2.36482
1.85644
1.14941
0.533986
0.156625
0.0369724
6.84478
1.57362
0.332476
0.0896016
0.0816567
0.138161
0.213047
0.270711
0.282296
0.243914
0.158005
0.0723134
0.019481
0.00569962
17.2154
3.95792
0.812559
0.149919
0.0274531
0.0112674
0.0149099
0.0214038
0.0258597
0.0251625
0.0173393
0.00789468
0.00219652
0.00768816
32.25
7.64614
1.57784
0.284957
0.0447436
0.00626215
0.00130986
0.00126176
0.00176372
0.00198046
0.00148872
0.000698135
0.000957775
0.0269197
44.8575
10.4216
2.10193
0.3671
0.0550125
0.0069824
0.000751541
0.00010818
8.89085e-05
0.000114374
9.61527e-05
7.60197e-05
0.00238352
0.0723296
51.2976
11.1851
2.11481
0.345311
0.0482572
0.00568374
0.00055233
4.41187e-05
5.48447e-06
4.85332e-06
4.55146e-06
6.76588e-05
0.0049176
0.136518
50.7375
10.2158
1.7777
0.265728
0.0338475
0.00362322
0.000319404
2.26008e-05
1.34531e-06
2.26059e-07
3.41939e-07
9.3376e-05
0.00681295
0.173616
44.0345
8.1273
1.29476
0.176748
0.0204862
0.00199196
0.000162301
1.25366e-05
1.61563e-06
4.00795e-07
6.10961e-07
9.7848e-05
0.00680716
0.161052
33.0335
5.62125
0.821883
0.102391
0.010814
0.00103788
0.000156064
5.97329e-05
2.63814e-05
8.87828e-06
3.17543e-06
8.64223e-05
0.00479601
0.10717
20.6417
3.31539
0.445556
0.051445
0.00608947
0.00197932
0.00146951
0.000955299
0.000477582
0.000176182
4.98686e-05
6.36315e-05
0.00222344
0.0466815
11.051
1.70903
0.222629
0.0312421
0.0167659
0.0195142
0.0182357
0.0127383
0.0068252
0.00275863
0.000854431
0.000226163
0.000703402
0.0125533
5.00947
0.768738
0.127021
0.0908842
0.145688
0.191144
0.185516
0.136735
0.0783453
0.0346639
0.0119186
0.00329719
0.000949721
0.00411098
2.47073
0.461799
0.307488
0.660251
1.18826
1.56058
1.55397
1.20389
0.736812
0.355728
0.135511
0.0417285
0.0106788
0.00680759
0.236047
0.112441
0.285342
0.737414
1.50979
2.389
3.00899
3.11679
2.70655
1.99494
1.21222
0.590818
0.212827
0.0577541
0.553527
0.118328
0.0405201
0.0585072
0.123787
0.216448
0.305399
0.35203
0.337669
0.273944
0.17619
0.0866798
0.0290571
0.00727769
1.6458
0.345486
0.0656674
0.0137389
0.00882906
0.0146211
0.023127
0.0299689
0.0325844
0.0292268
0.0199436
0.00998674
0.00320498
0.000840524
4.25383
0.886447
0.164135
0.0270292
0.00413612
0.00112432
0.00127903
0.00191035
0.00239243
0.00242301
0.00179739
0.000928634
0.000294978
0.000487563
7.98068
1.68713
0.308935
0.0490799
0.00671665
0.000799456
0.000120888
9.26878e-05
0.000129676
0.000151451
0.000124482
6.7676e-05
5.196e-05
0.00176933
11.0121
2.24672
0.395622
0.059919
0.00773454
0.000841464
7.70633e-05
8.48999e-06
5.60215e-06
7.30787e-06
6.75983e-06
4.30117e-06
9.8887e-05
0.00522999
12.3335
2.34453
0.384974
0.0542621
0.00650314
0.000654971
5.45551e-05
3.7979e-06
3.96891e-07
3.071e-07
3.11916e-07
1.02405e-06
0.000205831
0.0104202
11.7591
2.06001
0.311489
0.0402997
0.00442185
0.000407371
3.10614e-05
1.96503e-06
1.37157e-07
4.84626e-08
5.127e-08
1.44019e-06
0.000285637
0.0135251
9.66532
1.56144
0.21762
0.0259304
0.00261463
0.00022132
1.57278e-05
1.05641e-06
1.36834e-07
5.74224e-08
6.33794e-08
2.92496e-06
0.000303291
0.0124079
6.73723
1.01552
0.131197
0.0144235
0.00133927
0.000111066
1.32541e-05
4.26681e-06
1.78829e-06
6.05018e-07
2.28908e-07
4.81599e-06
0.000267534
0.00834233
3.86759
0.551144
0.0666915
0.00689486
0.000715303
0.000199742
0.000135033
8.18724e-05
3.87786e-05
1.36705e-05
3.76361e-06
5.13239e-06
0.000180674
0.00420111
1.89545
0.261298
0.0306026
0.0039272
0.00207936
0.00232691
0.00203894
0.00133488
0.000673507
0.000256326
7.50657e-05
1.90806e-05
8.02013e-05
0.00152523
0.78475
0.107965
0.016451
0.0126276
0.0212169
0.0271499
0.0249803
0.0173127
0.00929076
0.00382107
0.00121455
0.000307801
8.48775e-05
0.000463826
0.357167
0.0631875
0.0477814
0.108024
0.198621
0.25986
0.248315
0.181622
0.103653
0.0458646
0.0157916
0.00438018
0.00101058
0.000672046
25809.1
32475.3
37776.3
39561.6
33970.2
19989.5
29585.9
39781.9
47935.6
51687.6
47756.8
32288.9
37157.9
50152.6
60194.5
65148
62269.1
46581.2
43793.7
57994.8
68582.3
73089.9
70130.4
55016.9
47486.7
61869.4
71153.4
73815.9
69148.8
53185.5
47765.3
60999.8
68435.2
68739.5
62285.8
47072.6
45218.1
56728.8
62760.4
62437.7
56256.3
42170.5
41051.6
50853.1
56162.2
56639.9
51720
38512.3
36221.8
44483.8
49427.7
51189.3
48161.9
35547.8
31233.8
37763.9
42263.6
44961.1
43615.1
31152.3
26037.6
30866.4
34654.4
37801
37496.3
24820.1
20477.5
24018.3
27218.6
30235.7
29443.2
17281.6
14681.2
17128.1
19785.4
22032.5
19658.5
9821.21
8100.32
9742.87
11535.6
12908.9
10628.6
4743.56
27078
35146.7
41088.9
44650.5
46741.9
49219.8
31230.5
43490.1
53902.1
61201.3
66405.1
71561.8
38900.8
54743
67772.8
76432.5
81955.5
87192.3
45202.7
62641.7
76158.7
84228
88556.9
93005.5
48260.6
66313.7
78669.4
85022.2
87153.4
90236.5
48033.4
65002.6
75692.5
80201.5
80809.8
83052.3
45087.8
59939.7
69003.6
72499.3
72724.5
74304.4
40574.6
53065
60731.3
63778.4
63810.3
64792.9
35480.3
45748.6
52192.6
54976.7
54382.6
53810.8
30562.5
38634.1
43716.2
45747.3
44107.7
41546.9
25693.3
31363
35163.2
36166.6
33823.6
29851.5
20110
24016.5
26679.1
26783.1
23984.4
19576.7
14136.8
16465.4
17852.5
17138.4
14475.4
11080.8
7276.13
8418.94
8843.81
8344.9
7358.91
6181.36
12951.3
18388.9
23394.2
27815.7
32212.7
37178.2
15951.5
24736.5
33566.9
41628.5
49035.7
56714.3
21194.2
33149.6
44777
54746.2
63245.8
71476.3
26363.3
40851
53478.8
63212.7
70440.2
77342.5