/*--------------------------------*- C++ -*----------------------------------*\
| =========                 |                                                 |
| \\      /  F ield         | OpenFOAM: The Open Source CFD Toolbox           |
|  \\    /   O peration     | Version:  v2106                                 |
|   \\  /    A nd           | Website:  www.openfoam.com                      |
|    \\/     M anipulation  |                                                 |
\*---------------------------------------------------------------------------*/
FoamFile
{
    version     2.0;
    format      ascii;
    arch        "LSB;label=32;scalar=64";
    class       volScalarField;
    location    "0.000124";
    object      k;
}
// * * * * * * * * * * * * * * * * * * * * * * * * * * * * * * * * * * * * * //

dimensions      [0 2 -2 0 0 0 0];

internalField   nonuniform List<scalar> 
144746
(
0.131045
0.0941212
0.108196
0.122106
0.150072
0.187876
0.225291
0.255531
0.27622
0.281047
0.257515
0.207746
0.15873
0.122505
0.15922
0.086578
0.0650033
0.0596394
0.0654012
0.0797956
0.0979792
0.115741
0.130701
0.138824
0.127777
0.0991716
0.0725247
0.0535056
0.211782
0.107924
0.0563518
0.0337571
0.026828
0.0284023
0.034306
0.0419585
0.0500788
0.0564595
0.0522956
0.0400364
0.0308911
0.030555
0.275228
0.142772
0.0659898
0.0283242
0.0133823
0.0091343
0.00943026
0.0116107
0.0148273
0.0180296
0.0169168
0.0138242
0.0141798
0.0224611
0.324886
0.173358
0.0790848
0.0305125
0.0103995
0.003725
0.00218633
0.00235563
0.00321856
0.00428953
0.00425988
0.00456981
0.00821886
0.0195088
0.334251
0.178289
0.080589
0.0302793
0.00939369
0.00242864
0.000634318
0.000351366
0.000469841
0.000707978
0.000926826
0.00218331
0.00752423
0.0236608
0.317835
0.163438
0.0706612
0.0254296
0.00743088
0.00171703
0.000309157
5.64206e-05
4.04967e-05
8.52622e-05
0.000373825
0.00221698
0.0101519
0.0345783
0.286486
0.140572
0.0578368
0.0195058
0.00528957
0.0011226
0.000180444
2.1958e-05
3.97237e-06
3.68222e-05
0.000493901
0.00344271
0.0155677
0.0507609
0.243944
0.115469
0.0458871
0.0150213
0.00400138
0.000874987
0.000173643
4.14862e-05
1.76635e-05
8.4355e-05
0.000941333
0.00582263
0.0237078
0.0704311
0.195454
0.0904536
0.0358841
0.0123296
0.00384444
0.00128233
0.000543534
0.000267637
0.000150701
0.000227815
0.00142461
0.00773575
0.0295386
0.0836315
0.150681
0.0710794
0.0303119
0.0127615
0.00628622
0.00390489
0.00256564
0.00154123
0.000914429
0.000816517
0.00205804
0.00824659
0.0294432
0.0834012
0.120977
0.0612091
0.0313178
0.0197073
0.0160726
0.0136355
0.0102431
0.00665695
0.00408643
0.00303103
0.00397976
0.0087739
0.0247148
0.0700602
0.100574
0.0579112
0.0421735
0.0418387
0.0440934
0.0409145
0.0322641
0.0221991
0.0141915
0.00972442
0.00944316
0.0128566
0.0208174
0.0525657
0.0912331
0.0726062
0.0799101
0.0987042
0.108924
0.101631
0.0822352
0.0597096
0.0401192
0.0268088
0.0220056
0.0246245
0.0243824
0.0433733
0.223037
0.202403
0.251515
0.308929
0.386173
0.463291
0.520315
0.549631
0.554037
0.528046
0.458646
0.350675
0.252061
0.181969
0.248331
0.157069
0.137588
0.143475
0.168799
0.204542
0.23879
0.263532
0.277304
0.275681
0.24042
0.175666
0.119227
0.0806125
0.344177
0.189964
0.110035
0.0745807
0.0664795
0.073557
0.0865718
0.0995949
0.110455
0.116438
0.102027
0.0735492
0.0534464
0.0526838
0.477123
0.264929
0.131366
0.0608024
0.0312874
0.0230871
0.0240267
0.0281322
0.0333973
0.037994
0.0336874
0.026108
0.0263931
0.0438661
0.597345
0.341461
0.166396
0.0685148
0.024689
0.0092541
0.00548784
0.00567643
0.00722926
0.00905377
0.00850656
0.00901833
0.0174572
0.0451644
0.654197
0.373245
0.180305
0.0722961
0.0236841
0.00638351
0.00165532
0.000827244
0.00100673
0.00144077
0.00188777
0.0050411
0.0191204
0.0619729
0.664121
0.365398
0.168883
0.0643469
0.0198059
0.00479443
0.000887288
0.00014674
7.86587e-05
0.000171113
0.000940668
0.00602622
0.0276972
0.0911093
0.644379
0.339044
0.148552
0.0529795
0.015083
0.00334001
0.000557451
6.97631e-05
1.07065e-05
0.000100792
0.00139201
0.00947159
0.0410138
0.126322
0.590846
0.297307
0.124898
0.0428691
0.0118931
0.00270143
0.00056742
0.000148627
6.20882e-05
0.000225737
0.00243097
0.0145891
0.0569651
0.16065
0.504301
0.24392
0.100119
0.0351698
0.0111562
0.00385457
0.00175036
0.000918634
0.000502568
0.000599712
0.00335541
0.0175997
0.0646991
0.175003
0.401506
0.191308
0.0812741
0.033758
0.0167648
0.0109634
0.00771862
0.00492123
0.00289514
0.00219854
0.00466795
0.0174657
0.0596575
0.161946
0.310795
0.153337
0.0756455
0.0465848
0.0392036
0.0354867
0.0286235
0.0198281
0.0123498
0.00820755
0.00904917
0.0178776
0.0468421
0.12673
0.241551
0.131911
0.090511
0.0895407
0.0992697
0.0987876
0.0838569
0.0618234
0.0409441
0.0264279
0.0217362
0.0258606
0.0376036
0.0878698
0.203967
0.145218
0.15094
0.192882
0.227257
0.228238
0.199239
0.15555
0.110098
0.0726464
0.0521499
0.0492107
0.0442858
0.0687964
0.428068
0.475277
0.611588
0.769722
0.930985
1.04606
1.09137
1.07111
1.00266
0.895645
0.730934
0.528791
0.356812
0.24189
0.372432
0.290709
0.29976
0.346856
0.41842
0.488915
0.53614
0.550537
0.535915
0.494857
0.402441
0.273501
0.171898
0.113136
0.501353
0.303047
0.198431
0.157114
0.157686
0.178367
0.201471
0.216824
0.222425
0.216661
0.175534
0.118034
0.0835421
0.0915815
0.742902
0.43607
0.228128
0.11337
0.0653707
0.0535176
0.0563132
0.0626679
0.0686698
0.0719729
0.0588325
0.043681
0.0476271
0.092123
0.9826
0.593687
0.301686
0.128984
0.0484119
0.0194129
0.0123334
0.0125117
0.0147103
0.0169689
0.0148652
0.0170064
0.0395182
0.114516
1.13826
0.686598
0.346408
0.14394
0.048344
0.0131839
0.00341609
0.00165539
0.00186656
0.00253898
0.00366349
0.01259
0.0513343
0.165892
1.22201
0.712305
0.343861
0.135369
0.0425223
0.0103439
0.00188087
0.000282027
0.000124675
0.000340612
0.00260857
0.0172683
0.0757318
0.234174
1.26732
0.7079
0.324629
0.119574
0.0346215
0.00766468
0.00126113
0.000156032
2.40494e-05
0.000300808
0.00403865
0.0259429
0.10499
0.299688
1.25044
0.664854
0.291205
0.102351
0.0286697
0.00652527
0.00142619
0.000422876
0.000184979
0.000605974
0.00623371
0.0355054
0.130748
0.345477
1.1513
0.580975
0.244456
0.0861704
0.0270052
0.00948
0.00465023
0.00264275
0.0014573
0.00149769
0.0077186
0.0386119
0.13463
0.344522
0.977786
0.472474
0.197853
0.0789714
0.0383489
0.0262646
0.0198618
0.0135198
0.00813471
0.00554887
0.0101233
0.0353269
0.114275
0.29522
0.772095
0.370502
0.17061
0.0982439
0.0839416
0.0809649
0.0699003
0.051775
0.0336109
0.0211982
0.0198071
0.0344071
0.0833845
0.213266
0.590308
0.298368
0.181326
0.172051
0.200234
0.213168
0.193806
0.153264
0.107376
0.0691592
0.0501786
0.0503586
0.0650916
0.136355
0.480413
0.292095
0.266575
0.343487
0.431814
0.464874
0.435081
0.365617
0.276962
0.189535
0.127841
0.101261
0.0825237
0.105827
0.118704
0.20007
0.376739
0.893874
6.31277
6.16274
0.0480325
0.0797266
0.158824
0.426062
3.87235
4.2943
0.0446539
0.0784773
0.151316
0.371117
3.13444
3.11789
0.0435776
0.0834619
0.166178
0.383821
2.79027
2.40765
0.0461337
0.101816
0.215894
0.47704
2.80807
2.02609
0.0634486
0.148144
0.314934
0.659357
3.17335
1.87322
0.0930818
0.214006
0.443526
0.897607
3.83622
1.88832
0.129498
0.283971
0.570265
1.1368
4.63182
2.03477
0.167414
0.346279
0.674945
1.34722
5.48823
2.30102
0.191863
0.376811
0.72148
1.46792
6.21731
2.66668
0.192692
0.364919
0.692235
1.45696
6.66928
3.13109
0.167091
0.31209
0.591889
1.30404
6.65615
3.75972
0.127211
0.242793
0.474076
1.09791
6.36394
4.74309
0.0897533
0.187702
0.398241
0.973185
6.66224
6.46249
0.167933
0.258155
0.448037
0.926502
4.46771
4.44601
0.0743944
0.120397
0.224743
0.494332
2.73165
3.03666
0.0811061
0.141899
0.261118
0.518108
2.38455
2.26502
0.0901668
0.178089
0.345128
0.653603
2.4222
1.8979
0.112891
0.249764
0.501529
0.918955
2.82792
1.81915
0.163513
0.365675
0.723457
1.27978
3.51304
1.937
0.231291
0.499998
0.959339
1.65305
4.3261
2.16277
0.300568
0.61579
1.14267
1.95133
5.07787
2.41208
0.357966
0.690926
1.24557
2.14653
5.73607
2.67375
0.379085
0.694934
1.2336
2.17662
6.14089
2.89847
0.356059
0.629068
1.10632
2.01684
6.20149
3.07922
0.290811
0.504781
0.885806
1.67592
5.77617
3.29721
0.205261
0.36301
0.65374
1.29593
5.22413
3.74528
0.131287
0.249887
0.485213
1.01295
4.8533
4.6931
0.217822
0.296824
0.446991
0.741747
1.46825
2.47691
0.128172
0.211703
0.364864
0.632511
1.1659
1.89048
0.163788
0.29768
0.524863
0.875198
1.41046
1.91258
0.211509
0.430328
0.789671
1.29471
1.92767
2.33631
0.295697
0.632109
1.15695
1.84159
2.60627
2.97163
0.418746
0.874069
1.54823
2.38529
3.2621
3.58407
0.551974
1.09994
1.8732
2.7999
3.74908
3.95972
0.657472
1.24147
2.03459
2.98746
4.02636
4.05364
0.715837
1.27657
2.03039
2.99167
4.22362
3.9728
0.69873
1.18544
1.85909
2.77237
4.2334
3.68456
0.612632
0.995931
1.54895
2.33081
3.9088
3.24827
0.467507
0.738491
1.15175
1.73252
3.15005
2.79353
0.303201
0.481071
0.763745
1.15834
2.28994
2.55191
0.178011
0.294566
0.486451
0.759313
1.67238
2.65384
0.0547179
0.102573
0.217274
0.574136
5.24584
6.32188
0.0404439
0.0700937
0.140281
0.370847
3.61761
4.32825
0.0476202
0.0825341
0.156289
0.369792
3.09582
3.13371
0.0478102
0.0942035
0.186805
0.416921
2.87923
2.43598
0.0645673
0.135987
0.271089
0.561303
3.03877
2.07504
0.095223
0.201178
0.395062
0.778062
3.504
1.9441
0.134545
0.276766
0.530903
1.02126
4.20337
1.96405
0.176917
0.349132
0.653665
1.24671
4.98719
2.09687
0.214033
0.406183
0.747045
1.43668
5.79512
2.34648
0.232832
0.428982
0.78245
1.54052
6.50157
2.68739
0.218678
0.397678
0.726664
1.49475
6.91667
3.1166
0.176565
0.319706
0.591926
1.29796
6.84618
3.67305
0.136541
0.246254
0.464781
1.08473
6.49771
4.64272
0.120102
0.220807
0.427752
1.00387
7.0451
6.33532
0.0880324
0.149911
0.287431
0.633403
3.60638
4.42507
0.0754967
0.125385
0.228478
0.47824
2.58163
3.01363
0.095903
0.166486
0.298386
0.572656
2.4236
2.27889
0.117107
0.228633
0.425158
0.778442
2.61504
1.96901
0.17134
0.346572
0.641473
1.12042
3.17367
1.9583
0.247019
0.49255
0.893098
1.51558
3.91697
2.11734
0.32719
0.629832
1.11439
1.85735
4.71051
2.33079
0.398331
0.733446
1.26536
2.09885
5.38407
2.54604
0.446528
0.789218
1.33539
2.23877
5.96769
2.75121
0.451317
0.772239
1.29278
2.20604
6.29191
2.90817
0.395682
0.665658
1.11023
1.96142
6.16268
3.01192
0.301082
0.500891
0.842804
1.56354
5.61932
3.15233
0.232156
0.3802
0.641815
1.23752
5.00637
3.62414
0.231511
0.381194
0.639219
1.17306
5.09559
4.63187
0.146556
0.224591
0.364878
0.620197
1.24782
2.3574
0.15294
0.251005
0.416355
0.684034
1.18952
1.89012
0.212157
0.375365
0.636473
1.0155
1.54417
2.01501
0.29802
0.571926
0.991437
1.55414
2.20432
2.59077
0.437336
0.842577
1.43684
2.18565
2.97783
3.33098
0.593205
1.11005
1.83267
2.71294
3.60826
3.88691
0.727743
1.30546
2.07771
3.00914
3.96575
4.10868
0.819601
1.40268
2.1581
3.10641
4.18782
4.10838
0.853138
1.39661
2.09157
3.03704
4.31907
3.91825
0.802284
1.26319
1.85501
2.6962
4.08544
3.50402
0.653529
1.00025
1.45059
2.10954
3.41968
2.95582
0.469255
0.699998
1.00809
1.46988
2.49498
2.50078
0.381197
0.55709
0.794929
1.1396
1.90401
2.49361
0.476281
0.693597
0.987672
1.34397
2.07641
3.02703
6.19997
8.52697
1.66721
0.778421
0.424944
0.228612
4.78758
8.5011
1.81567
0.865766
0.507437
0.308304
3.85194
8.73077
2.05553
1.03476
0.622415
0.394116
3.21902
8.74856
2.30287
1.22881
0.749606
0.483424
2.74864
8.45758
2.45918
1.38093
0.854869
0.547279
2.37364
7.89255
2.46213
1.44983
0.89791
0.559151
2.10288
7.24954
2.37098
1.45186
0.896354
0.547024
1.96776
6.51893
2.18571
1.37177
0.852191
0.51121
1.94833
5.76696
1.93704
1.21781
0.7593
0.452017
2.07366
5.11594
1.60593
1.0091
0.628974
0.373693
2.40426
4.66949
1.27381
0.776466
0.484583
0.290079
3.04902
4.55412
1.00685
0.583123
0.365941
0.225672
4.17245
4.87464
0.866718
0.464101
0.286381
0.181876
6.11967
6.31294
0.940732
0.452557
0.25932
0.156044
4.70389
6.45186
1.79823
0.968175
0.574735
0.332783
3.95695
6.85957
2.02574
1.10498
0.696966
0.451532
3.50732
7.5018
2.41476
1.37317
0.895262
0.609417
3.27439
7.82712
2.82894
1.70327
1.13076
0.784092
3.1049
7.93535
3.1943
2.0142
1.35321
0.934411
2.9285
7.67263
3.39756
2.25671
1.51218
1.01591
2.76856
7.22569
3.47494
2.41791
1.61921
1.06237
2.61815
6.7875
3.44625
2.47306
1.67312
1.06934
2.48008
6.31201
3.28883
2.38126
1.62129
1.02223
2.38354
5.69061
2.96957
2.14519
1.46015
0.911756
2.3818
4.9862
2.49193
1.77751
1.20832
0.750409
2.57887
4.35671
1.9461
1.35444
0.930057
0.583102
3.15379
4.083
1.5305
1.01609
0.697862
0.448049
4.41085
4.69569
1.38699
0.860051
0.576392
0.369455
3.1665
2.40844
1.48393
1.07013
0.731516
0.491823
2.82735
2.65368
1.53943
1.10464
0.797551
0.582204
2.89011
3.50592
1.96287
1.43001
1.07302
0.820151
3.22474
4.33339
2.53573
1.88478
1.45029
1.1217
3.6549
4.81442
3.11248
2.37464
1.84426
1.41095
4.08554
4.88847
3.59526
2.8088
2.19097
1.63189
4.4764
4.7748
3.92837
3.17104
2.4882
1.80527
4.81513
4.7206
4.16902
3.48038
2.73073
1.94105
5.08269
4.78781
4.38586
3.69547
2.87487
2.00324
5.20386
4.81542
4.46453
3.71959
2.84479
1.94451
4.97686
4.54473
4.20235
3.43571
2.58095
1.74012
4.30102
3.84184
3.50936
2.80333
2.10666
1.41679
3.53715
2.99348
2.61472
2.08893
1.58931
1.09831
3.30749
2.47946
1.9847
1.57343
1.21503
0.876286
6.39385
8.51744
1.68324
0.787394
0.408118
0.219189
4.9418
8.36874
1.8098
0.863323
0.488984
0.295121
3.94972
8.48692
2.01979
1.01009
0.597778
0.374238
3.25805
8.33126
2.24397
1.18855
0.714148
0.448705
2.75464
8.0473
2.39307
1.33182
0.803616
0.495565
2.34568
7.5464
2.42058
1.40379
0.844061
0.504163
2.04124
6.88406
2.30841
1.39558
0.832361
0.480787
1.8774
6.12089
2.08763
1.3024
0.77343
0.43838
1.85885
5.37931
1.79559
1.12569
0.674546
0.377809
1.99333
4.75685
1.45723
0.899096
0.542136
0.304744
2.34
4.43615
1.14988
0.685306
0.412694
0.238541
2.99303
4.5195
0.955641
0.538955
0.329687
0.200094
4.09061
4.95757
0.849508
0.423799
0.245157
0.146161
5.93657
6.89026
1.14651
0.537429
0.291622
0.163522
4.86559
6.60183
1.73093
0.921467
0.514942
0.301355
4.12455
7.19223
2.06185
1.12457
0.689642
0.44651
3.64856
7.62125
2.4264
1.38187
0.887939
0.596739
3.33076
7.70089
2.82594
1.69939
1.10512
0.745754
3.09858
7.59117
3.16381
1.99966
1.30659
0.865648
2.85822
7.33904
3.35992
2.22268
1.45666
0.939529
2.62338
6.96189
3.38267
2.3597
1.54276
0.964168
2.42984
6.53796
3.30773
2.39109
1.55599
0.946012
2.27316
6.03322
3.09552
2.25698
1.47953
0.878978
2.17823
5.34701
2.72559
1.95598
1.28477
0.757482
2.20706
4.65895
2.23792
1.56969
1.02599
0.607082
2.46342
4.20039
1.76548
1.20827
0.795779
0.481495
3.0839
4.09106
1.42101
0.910325
0.587745
0.35517
4.35557
5.18663
1.49991
0.898147
0.555361
0.328166
2.93919
2.47315
1.13854
0.807931
0.53309
0.365785
2.96411
3.47674
1.6577
1.19678
0.835184
0.607727
3.14211
4.33473
2.17487
1.60223
1.15639
0.859585
3.44108
4.75927
2.69815
2.05611
1.51153
1.1148
3.80467
4.799
3.21865
2.50923
1.87575
1.35207
4.17252
4.68745
3.63806
2.89979
2.21251
1.55383
4.49525
4.59739
3.9034
3.21964
2.48215
1.7093
4.77324
4.58943
4.10842
3.4659
2.66844
1.80819
4.96663
4.63766
4.24502
3.57291
2.72105
1.81392
4.96439
4.5563
4.17451
3.44767
2.57609
1.69319
4.59401
4.16683
3.78653
3.06136
2.23604
1.44889
3.96393
3.51943
3.11733
2.46382
1.79311
1.16236
3.36414
2.8324
2.38405
1.85645
1.35765
0.89446
3.27337
2.48366
1.90637
1.4551
1.07228
0.74215
0.833851
0.97195
1.2376
1.51657
1.72331
1.8088
1.77009
1.64152
1.46474
1.26713
1.01661
0.724897
0.468105
0.29337
0.546531
0.496695
0.557673
0.666948
0.782637
0.863131
0.887284
0.85632
0.790507
0.703158
0.559288
0.376039
0.228179
0.155364
0.647928
0.412371
0.296723
0.262986
0.279041
0.310329
0.333364
0.337516
0.327851
0.30641
0.242253
0.161323
0.115318
0.147443
0.985075
0.577872
0.30404
0.15734
0.0993114
0.087019
0.0908691
0.0961169
0.0999122
0.100049
0.0799658
0.0594563
0.0729264
0.173742
1.33032
0.802494
0.408501
0.174803
0.0662561
0.0279139
0.0188001
0.0187377
0.0209841
0.0231572
0.0200174
0.0251936
0.0728928
0.238729
1.57979
0.960275
0.486791
0.201598
0.0672653
0.0183438
0.00488749
0.00244511
0.00263871
0.00342743
0.00531717
0.0224442
0.101083
0.337393
1.76425
1.04062
0.505033
0.197896
0.0615472
0.0148631
0.00269628
0.000394534
0.000152671
0.00049517
0.00460801
0.0323348
0.144697
0.44772
1.93011
1.09732
0.506224
0.185191
0.0527533
0.0114878
0.00186816
0.000229203
3.31262e-05
0.000534287
0.00715118
0.0464535
0.188715
0.535542
2.03052
1.10427
0.484942
0.168115
0.0455426
0.00994553
0.00211537
0.000643041
0.000279108
0.000992531
0.0103164
0.0594101
0.21984
0.579465
2.01009
1.0377
0.435163
0.147238
0.0429427
0.0141755
0.00707484
0.00422569
0.00235773
0.00229495
0.0120177
0.0612145
0.215117
0.549419
1.83535
0.89711
0.3658
0.133379
0.0582331
0.0395163
0.0313522
0.0224869
0.0139788
0.0090081
0.0151654
0.0537965
0.176562
0.452575
1.52708
0.720634
0.307351
0.154303
0.125068
0.124896
0.113453
0.0888132
0.0604607
0.0381217
0.0318299
0.0511306
0.124432
0.312325
1.18349
0.563404
0.295789
0.253256
0.300498
0.334698
0.319821
0.268053
0.198922
0.133923
0.0917772
0.079323
0.0962891
0.188313
0.971688
0.508451
0.387495
0.490147
0.647258
0.730224
0.718533
0.640105
0.516262
0.376942
0.255064
0.179642
0.134127
0.145367
0.677808
0.799903
1.01512
1.24253
1.41676
1.50139
1.48745
1.39702
1.26189
1.1099
0.909759
0.653064
0.409242
0.23779
0.447179
0.402314
0.444602
0.531072
0.626026
0.696028
0.722119
0.704591
0.658083
0.59596
0.48382
0.327759
0.191614
0.119144
0.553454
0.338832
0.232774
0.202169
0.215464
0.242463
0.263228
0.269282
0.264307
0.250975
0.201748
0.133953
0.0887464
0.104504
0.87494
0.494691
0.249822
0.123765
0.0756388
0.0662411
0.0700846
0.0749695
0.0786471
0.0796542
0.0641049
0.0460761
0.0522742
0.125985
1.17631
0.688453
0.340238
0.141789
0.0523252
0.0214459
0.0143249
0.0143975
0.0162509
0.0180122
0.0153875
0.0184323
0.0538554
0.180796
1.36485
0.808669
0.399877
0.162777
0.0538297
0.0145828
0.00381379
0.00185881
0.00200535
0.00259404
0.00397816
0.0170178
0.0778791
0.261717
1.49149
0.858898
0.407664
0.157517
0.0488158
0.0118354
0.00215544
0.000308583
0.000111242
0.00038279
0.00363758
0.0254559
0.114062
0.354068
1.5965
0.888936
0.402197
0.145462
0.0413965
0.00908089
0.00149388
0.000186952
2.86069e-05
0.000441238
0.00572767
0.0369539
0.150865
0.432077
1.64163
0.879422
0.380154
0.130351
0.0352015
0.00774226
0.00169707
0.000544228
0.000236782
0.000784476
0.00810551
0.0469952
0.176472
0.472763
1.59401
0.816708
0.337802
0.11253
0.0325028
0.0109575
0.00572414
0.00350782
0.00192847
0.00171457
0.00911926
0.0478231
0.172414
0.450191
1.43593
0.701691
0.281539
0.100068
0.0436713
0.0308868
0.0251635
0.0181643
0.0111025
0.00663706
0.0107187
0.0404998
0.139531
0.36825
1.1923
0.563585
0.233752
0.114365
0.0956526
0.0987976
0.0905513
0.0704338
0.047017
0.0283388
0.0217791
0.0353321
0.0936928
0.245224
0.920013
0.436999
0.220782
0.191034
0.236532
0.268451
0.255706
0.210574
0.152428
0.0997821
0.0647412
0.0520902
0.0649614
0.133214
0.738562
0.381399
0.286063
0.380149
0.521401
0.59382
0.577285
0.50006
0.390366
0.277971
0.182666
0.121653
0.0862646
0.0879536
0.301247
0.359608
0.485718
0.640825
0.777539
0.86305
0.886212
0.856035
0.788215
0.703485
0.584431
0.417489
0.259199
0.148499
0.229179
0.175162
0.185177
0.234573
0.297272
0.350071
0.379695
0.384372
0.368713
0.341852
0.283449
0.193347
0.110075
0.0567187
0.351268
0.18772
0.107396
0.0831943
0.089909
0.107138
0.122681
0.131323
0.133198
0.130378
0.107071
0.0707532
0.0404194
0.0335956
0.581163
0.304246
0.139582
0.0603932
0.0317686
0.0265866
0.0292881
0.0329673
0.035929
0.0376694
0.0307893
0.0206803
0.0180241
0.044551
0.776701
0.422543
0.193957
0.0750755
0.0252879
0.00907452
0.0055735
0.00575956
0.00677516
0.00778182
0.00651997
0.00648972
0.0188004
0.0751893
0.882643
0.484031
0.222609
0.0850337
0.0266066
0.00679066
0.00160159
0.000697063
0.000757453
0.000999097
0.00133934
0.00576826
0.0305695
0.118929
0.946368
0.50027
0.219317
0.0792507
0.0232985
0.00542184
0.000955074
0.000130351
4.16685e-05
0.000117898
0.00116979
0.00941731
0.0481723
0.170584
0.985352
0.500247
0.207595
0.0698176
0.0187836
0.00395016
0.000629166
7.59561e-05
9.70184e-06
0.000123887
0.00194957
0.0143635
0.0662489
0.214435
0.97865
0.475428
0.18711
0.059128
0.0149249
0.00310042
0.000647333
0.000198443
7.94929e-05
0.000225181
0.00286554
0.0189435
0.079921
0.240156
0.91132
0.421774
0.157613
0.0477941
0.0127888
0.0042135
0.00223217
0.00134024
0.000696338
0.0004984
0.00318955
0.0196075
0.0795997
0.231633
0.780057
0.341994
0.122479
0.0395614
0.0172523
0.0129264
0.0105841
0.00740281
0.00430967
0.00217039
0.00336058
0.0160502
0.064379
0.189092
0.606626
0.255811
0.094753
0.0459757
0.0424726
0.0453344
0.0409654
0.0307914
0.0196846
0.0106077
0.00667406
0.0118481
0.0413079
0.123883
0.439707
0.185111
0.0893838
0.0875879
0.116844
0.133633
0.124962
0.0996363
0.0693028
0.0420897
0.0235875
0.0151549
0.0230821
0.061622
0.332032
0.157522
0.129877
0.19677
0.280704
0.320683
0.306629
0.258181
0.194298
0.131264
0.0789584
0.0429058
0.0252967
0.0309114
0.0973589
0.111139
0.164053
0.233922
0.303453
0.354426
0.37804
0.375246
0.351606
0.315137
0.258201
0.176825
0.101665
0.0597875
0.0936414
0.0569578
0.0543597
0.0707358
0.0957534
0.119138
0.135135
0.141824
0.139847
0.131451
0.108544
0.0709405
0.0373602
0.0189811
0.165255
0.076988
0.036653
0.0237768
0.0247123
0.0305136
0.0366524
0.0410153
0.0431627
0.0431788
0.0355598
0.0224947
0.0116523
0.00836066
0.281974
0.131694
0.0539536
0.0203579
0.0089117
0.00665396
0.00743652
0.00879659
0.0100527
0.010871
0.00899111
0.00567469
0.00411125
0.0103625
0.381533
0.185703
0.0766507
0.026873
0.00812939
0.00247294
0.00128758
0.00132964
0.00165033
0.0019716
0.0016652
0.00139336
0.00385578
0.0190955
0.432856
0.210797
0.0867694
0.0299838
0.00858691
0.00201224
0.000416094
0.000147789
0.000159622
0.000221881
0.000262484
0.00102985
0.0067359
0.0329187
0.455279
0.211508
0.0823398
0.0267883
0.00719795
0.00155472
0.000258295
3.32589e-05
9.37362e-06
1.90509e-05
0.000172043
0.00175268
0.0113357
0.0504369
0.460362
0.203019
0.0740858
0.0222697
0.00545166
0.0010618
0.000159096
1.80927e-05
2.01607e-06
1.27935e-05
0.000297345
0.00283182
0.0163742
0.0658901
0.440489
0.183993
0.063146
0.0177031
0.00402721
0.000758869
0.00014153
3.86323e-05
1.42449e-05
2.5357e-05
0.000459098
0.00389806
0.0204477
0.0755958
0.391884
0.154995
0.0502407
0.0134154
0.00319288
0.000952896
0.000477605
0.000274017
0.000134362
7.43974e-05
0.000524608
0.00412243
0.0206657
0.0732716
0.317361
0.118497
0.0367133
0.0104631
0.00427354
0.00316178
0.00252005
0.00168171
0.000921345
0.000419144
0.000557291
0.00329128
0.0162979
0.0579982
0.233611
0.0838711
0.0270718
0.0124906
0.0118859
0.0126273
0.0110536
0.00790393
0.0047603
0.00237243
0.00129298
0.00232662
0.00998759
0.0362823
0.160504
0.0580566
0.0262483
0.0274313
0.0375986
0.0426109
0.0386369
0.0293509
0.019286
0.0108433
0.0055696
0.00322258
0.00528389
0.0172531
0.116224
0.049731
0.0441009
0.0715701
0.103678
0.117921
0.109844
0.0885664
0.0631379
0.0397722
0.0222698
0.0111667
0.00613669
0.00876543
0.0244679
0.0252521
0.0427999
0.0688157
0.0988513
0.123037
0.136418
0.1381
0.129961
0.114322
0.0898012
0.0577944
0.028484
0.0158568
0.0302058
0.0143314
0.0120543
0.0167436
0.0251504
0.0336012
0.039964
0.0432105
0.0431415
0.0399808
0.0319433
0.0194675
0.00881015
0.00431108
0.059511
0.0237394
0.00936906
0.00512797
0.00532552
0.00702982
0.00893913
0.0104089
0.0111341
0.0110008
0.0088598
0.00517425
0.00230775
0.00138421
0.109387
0.0443353
0.0158186
0.0051275
0.00187542
0.00128407
0.00149597
0.00185899
0.00216914
0.00232402
0.00188781
0.00108299
0.000617137
0.00155714
0.156883
0.0663195
0.0239262
0.00736311
0.00194191
0.000495727
0.000222081
0.000231657
0.000294622
0.00034814
0.000288856
0.000196525
0.000492836
0.00332289
0.182346
0.0771339
0.0277063
0.00838588
0.00210933
0.000433381
7.62827e-05
2.23103e-05
2.38029e-05
3.30565e-05
3.40333e-05
0.000108929
0.000973778
0.00658798
0.191403
0.0768757
0.0260975
0.00744867
0.00176095
0.000335552
4.95163e-05
5.67088e-06
1.34596e-06
2.01497e-06
1.33547e-05
0.000195126
0.00177898
0.0107901
0.189485
0.0716636
0.0227006
0.00598058
0.00129168
0.000222926
2.96623e-05
2.94044e-06
2.53454e-07
4.83536e-07
2.31786e-05
0.00033354
0.00268138
0.0145062
0.174968
0.0621567
0.0184066
0.00450149
0.000896777
0.000145249
2.13326e-05
4.25219e-06
1.32174e-06
1.07244e-06
3.64464e-05
0.000467292
0.00338321
0.0166695
0.147974
0.0494611
0.0137455
0.00315934
0.000626535
0.000143423
5.93594e-05
3.17814e-05
1.47391e-05
6.02013e-06
4.12943e-05
0.000488836
0.00335394
0.0156949
0.111749
0.0350258
0.00920593
0.00216705
0.00070047
0.000470701
0.000367951
0.000238312
0.000123619
5.14261e-05
4.56103e-05
0.000362814
0.00246184
0.0115142
0.0754919
0.0225536
0.00603947
0.0022876
0.0020928
0.00227049
0.00198526
0.00138063
0.000786026
0.000366922
0.000156341
0.000234203
0.00132604
0.0063638
0.0463373
0.0139174
0.00537111
0.00558177
0.00807107
0.00942692
0.00855781
0.00632554
0.00393458
0.00205804
0.000922488
0.000428857
0.000636427
0.0027078
0.0305459
0.0114196
0.0103397
0.0179545
0.0274381
0.0322059
0.0300586
0.0235947
0.0159815
0.00929773
0.00469094
0.00208037
0.000959622
0.00152148
0.00484908
0.00407088
0.00786325
0.0147894
0.0245288
0.0339465
0.0404708
0.0427982
0.0405996
0.0347039
0.0254756
0.0152015
0.00647679
0.00291716
0.00781833
0.00287817
0.00189367
0.00276637
0.00486018
0.00742333
0.0097336
0.0111408
0.0112326
0.0100778
0.00748587
0.00422017
0.00159588
0.00067029
0.0178989
0.00610852
0.00196967
0.00083057
0.000833912
0.00126702
0.0018173
0.00225513
0.00242589
0.00229284
0.00171949
0.000910414
0.000334159
0.000166453
0.0363936
0.0127063
0.00392493
0.00108796
0.000322737
0.00020017
0.000256728
0.000340087
0.000395807
0.000398178
0.00030211
0.000154887
6.87185e-05
0.00018071
0.0559682
0.0204519
0.0064252
0.00173862
0.000404899
8.89282e-05
3.4515e-05
3.57921e-05
4.44997e-05
4.89971e-05
3.9283e-05
2.21432e-05
4.84534e-05
0.000461852
0.0671107
0.0245666
0.00770563
0.00205913
0.000463378
8.64012e-05
1.37878e-05
3.39931e-06
3.21386e-06
4.09129e-06
3.74385e-06
8.53881e-06
0.000109313
0.00105142
0.0705461
0.0245293
0.00730338
0.00185106
0.000394128
6.88792e-05
9.56836e-06
1.05591e-06
1.97217e-07
2.11875e-07
6.20012e-07
1.47446e-05
0.000211555
0.00183971
0.0676164
0.0220081
0.00610848
0.00143354
0.000280605
4.47968e-05
5.65273e-06
5.43173e-07
4.225e-08
1.01185e-08
7.65016e-07
2.43781e-05
0.000314914
0.00247191
0.0587827
0.0177565
0.00457318
0.000992836
0.000178805
2.63589e-05
3.33009e-06
4.91047e-07
1.25322e-07
4.04425e-08
1.0479e-06
3.17595e-05
0.0003756
0.00271214
0.0458522
0.0128221
0.00305156
0.000612347
0.000105183
1.90921e-05
6.38992e-06
3.30942e-06
1.56008e-06
5.66033e-07
1.1553e-06
3.0764e-05
0.000345281
0.00236351
0.0313229
0.0080833
0.00177896
0.000348634
9.05383e-05
5.64992e-05
4.54227e-05
3.00993e-05
1.5687e-05
6.27281e-06
2.52732e-06
2.02988e-05
0.000225686
0.00154363
0.0190016
0.00461077
0.00100129
0.000315335
0.000292383
0.000335825
0.000304533
0.000214499
0.000120451
5.33458e-05
1.86836e-05
1.35811e-05
0.000101546
0.000713124
0.0101893
0.00246054
0.000799913
0.000899375
0.00142285
0.00174886
0.00163379
0.00121039
0.000731322
0.000358011
0.000140153
4.81399e-05
4.41892e-05
0.000248206
0.00597416
0.00188775
0.00185429
0.0036887
0.00607601
0.00747436
0.00713925
0.00556552
0.00362025
0.0019505
0.000861593
0.000322946
0.000114232
0.000161332
0.000670812
0.000531158
0.00122031
0.0025647
0.00457937
0.00661819
0.00810919
0.0087693
0.00849495
0.007345
0.00530979
0.0030676
0.00123288
0.000431151
0.00126962
0.000390661
0.000225669
0.000347605
0.000655772
0.0010528
0.00144813
0.00175108
0.00187006
0.00174768
0.00129869
0.00072362
0.000257749
8.33102e-05
0.00368316
0.00108855
0.000297748
9.79223e-05
8.29353e-05
0.000129826
0.000201308
0.000274668
0.000324534
0.000327057
0.000249328
0.000133357
4.41031e-05
1.58894e-05
0.00875737
0.0026326
0.000702068
0.000166313
3.83779e-05
1.67928e-05
2.13567e-05
3.2316e-05
4.25949e-05
4.65603e-05
3.70925e-05
1.92084e-05
6.69709e-06
1.20936e-05
0.0144789
0.00451623
0.00121652
0.000282623
5.60658e-05
9.84363e-06
2.60646e-06
2.67164e-06
3.93542e-06
4.87051e-06
4.14016e-06
2.16932e-06
2.61039e-06
3.48222e-05
0.0176257
0.00540887
0.00143295
0.000324736
6.20916e-05
9.84308e-06
1.30434e-06
2.50955e-07
2.51707e-07
3.54593e-07
3.31215e-07
3.79535e-07
6.02627e-06
9.1515e-05
0.0183188
0.00523892
0.00129802
0.000275778
4.94998e-05
7.34199e-06
8.74503e-07
8.36827e-08
1.46804e-08
1.70465e-08
2.3645e-08
5.57839e-07
1.35688e-05
0.000181854
0.0171342
0.00449494
0.00101925
0.000197701
3.23389e-05
4.36616e-06
4.72807e-07
3.96441e-08
2.7174e-09
6.46148e-10
1.2756e-08
1.04546e-06
2.29451e-05
0.000270607
0.0144899
0.00347379
0.000717726
0.00012649
1.87327e-05
2.29575e-06
2.37883e-07
2.62687e-08
4.94234e-09
1.27032e-09
1.68882e-08
1.42674e-06
2.92594e-05
0.00031377
0.0108836
0.00240331
0.000454035
7.27739e-05
9.95923e-06
1.3904e-06
3.70079e-07
1.70985e-07
7.23315e-08
2.29454e-08
2.25986e-08
1.34797e-06
2.7002e-05
0.000272204
0.00702265
0.001428
0.000248175
3.7766e-05
7.42881e-06
4.18816e-06
3.23992e-06
1.99396e-06
9.34605e-07
3.28752e-07
9.9775e-08
7.7503e-07
1.607e-05
0.00016239
0.00399282
0.000762523
0.000127631
2.99389e-05
2.71223e-05
3.19477e-05
2.80619e-05
1.83789e-05
9.30154e-06
3.6447e-06
1.11911e-06
5.32072e-07
5.79009e-06
6.11996e-05
0.00195131
0.000364343
8.61807e-05
9.5442e-05
0.000168323
0.000213424
0.000194105
0.000134327
7.35896e-05
3.215e-05
1.1179e-05
3.22718e-06
2.02139e-06
1.53725e-05
0.00104524
0.000243525
0.000214224
0.000493615
0.000909998
0.00116497
0.00109209
0.000800872
0.000476733
0.000231621
9.12793e-05
2.99078e-05
8.66413e-06
9.9518e-06
0.000127084
7.11957e-05
0.000166207
0.000382914
0.000721256
0.0010927
0.00136441
0.00144347
0.0013082
0.00101298
0.000644857
0.000324988
0.000114074
3.2028e-05
0.000257207
6.28127e-05
2.58252e-05
3.78195e-05
7.52866e-05
0.000127405
0.000179034
0.000210771
0.000209332
0.000175057
0.00011568
5.71509e-05
1.79111e-05
4.52002e-06
0.000691868
0.000164149
3.53536e-05
8.85658e-06
6.75764e-06
1.12372e-05
1.78687e-05
2.36794e-05
2.60029e-05
2.39887e-05
1.66098e-05
8.0793e-06
2.3285e-06
6.5508e-07
0.00165372
0.000394101
8.3473e-05
1.58088e-05
2.88258e-06
1.03851e-06
1.3109e-06
1.94766e-06
2.47507e-06
2.57618e-06
1.89919e-06
9.1817e-07
2.65756e-07
6.13e-07
0.00291478
0.000716714
0.000152904
2.84613e-05
4.59125e-06
6.54373e-07
1.30381e-07