/*--------------------------------*- C++ -*----------------------------------*\
| =========                 |                                                 |
| \\      /  F ield         | OpenFOAM: The Open Source CFD Toolbox           |
|  \\    /   O peration     | Version:  v2106                                 |
|   \\  /    A nd           | Website:  www.openfoam.com                      |
|    \\/     M anipulation  |                                                 |
\*---------------------------------------------------------------------------*/
FoamFile
{
    version     2.0;
    format      ascii;
    arch        "LSB;label=32;scalar=64";
    class       volScalarField;
    location    "0.000124";
    object      p;
}
// * * * * * * * * * * * * * * * * * * * * * * * * * * * * * * * * * * * * * //

dimensions      [1 -1 -2 0 0 0 0];

internalField   nonuniform List<scalar> 
144746
(
205534
205754
205903
206118
206300
206504
206678
206815
206919
206978
207025
207013
206990
206897
205596
205833
206021
206251
206449
206673
206869
207020
207137
207211
207247
207211
207165
207079
205659
205930
206126
206363
206576
206805
207008
207164
207288
207369
207402
207369
207335
207247
205771
206049
206243
206489
206717
206957
207169
207339
207468
207556
207591
207557
207525
207414
205843
206107
206301
206561
206799
207055
207277
207458
207595
207692
207742
207715
207693
207569
205877
206144
206345
206619
206874
207140
207375
207570
207717
207822
207883
207865
207849
207717
205887
206156
206371
206664
206933
207210
207455
207666
207816
207929
207988
207974
207963
207824
205877
206158
206400
206711
206988
207266
207519
207737
207891
207997
208053
208044
208023
207887
205855
206140
206393
206712
206996
207272
207531
207744
207900
207995
208050
208052
208037
207915
205797
206070
206336
206663
206950
207225
207477
207682
207841
207941
208012
208003
207981
207868
205751
206012
206257
206570
206846
207116
207356
207544
207675
207781
207845
207835
207824
207725
205679
205934
206156
206447
206705
206953
207163
207333
207465
207568
207645
207624
207616
207531
205658
205887
206094
206360
206609
206851
207041
207193
207298
207379
207424
207393
207388
207332
205559
205804
205972
206219
206439
206662
206830
206967
207049
207105
207131
207092
207109
207044
204523
205070
205497
206031
206465
206855
207199
207468
207675
207811
207868
207791
207518
207002
205389
205945
206399
206917
207329
207670
207966
208187
208347
208415
208410
208273
207972
207430
206026
206554
207039
207551
207970
208295
208570
208762
208879
208896
208826
208653
208345
207842
206495
207084
207616
208123
208536
208844
209094
209261
209353
209358
209257
209045
208722
208202
206767
207460
208031
208547
208962
209288
209544
209711
209791
209740
209613
209389
209055
208541
206950
207719
208339
208882
209313
209658
209913
210065
210132
210072
209920
209654
209332
208827
207035
207868
208544
209064
209507
209875
210151
210321
210400
210314
210159
209877
209540
209032
207023
207902
208667
209194
209688
210059
210338
210500
210569
210475
210310
210013
209673
209159
206902
207845
208678
209201
209738
210127
210417
210588
210649
210549
210377
210070
209730
209221
206699
207668
208559
209122
209678
210078
210361
210530
210578
210477
210306
210003
209670
209187
206392
207441
208419
209012
209560
209944
210206
210365
210402
210293
210110
209809
209474
209020
205927
207021
208046
208724
209308
209715
209983
210122
210116
209976
209765
209474
209137
208715
205472
206570
207576
208291
208878
209281
209545
209691
209698
209562
209328
208987
208620
208187
204974
206074
207048
207774
208330
208690
208909
208988
208946
208770
208516
208153
207782
207368
208239
209194
210170
211020
211752
212406
213006
213548
214026
214360
214464
214294
213844
212736
210271
211167
212132
212973
213673
214287
214815
215267
215656
215894
216030
215750
215112
213961
211734
212818
213789
214640
215315
215901
216393
216790
217078
217196
217063
216751
216040
214919
212723
214005
215007
215883
216570
217143
217603
217954
218187
218258
218086
217636
216906
215773
213271
214728
215797
216753
217496
218098
218562
218893
219088
219113
218853
218340
217496
216250
213613
215137
216364
217408
218213
218825
219283
219598
219773
219763
219487
218945
218096
216820
213725
215282
216712
217810
218686
219338
219814
220129
220289
220252
219960
219388
218522
217223
213654
215338
216919
218083
219001
219670
220147
220461
220615
220559
220267
219683
218820
217515
213401
215230
216919
218182
219170
219897
220391
220709
220837
220751
220443
219838
218984
217684
213047
215015
216796
218140
219168
219922
220416
220732
220839
220727
220402
219793
218962
217686
212465
214592
216473
217884
218944
219719
220209
220515
220588
220439
220081
219461
218644
217501
211822
214070
216003
217469
218534
219271
219737
220007
220041
219854
219454
218839
217980
217007
210840
213308
215266
216702
217740
218473
218938
219156
219147
218913
218469
217841
216963
216040
209856
212596
214495
215923
216896
217421
217704
217833
217762
217489
217035
216407
215551
214353
206949
206764
206862
206619
206792
206613
207083
206844
206926
206665
206717
206612
207239
206993
207072
206765
206876
206743
207399
207130
207210
206887
207025
206821
207554
207288
207379
207061
207184
207045
207694
207432
207523
207209
207355
207158
207802
207544
207639
207360
207503
207251
207862
207622
207711
207453
207591
207335
207889
207636
207750
207512
207660
207421
207864
207641
207754
207503
207625
207365
207709
207511
207655
207408
207585
207382
207533
207326
207457
207266
207366
207185
207336
207145
207233
206995
207212
207047
207119
206908
206969
206661
206699
206550
206571
205667
205620
204875
205095
204522
206904
205938
205735
205008
205157
204275
207180
206186
205905
205132
205298
204185
207517
206447
206101
205267
205445
204106
207844
206752
206350
205518
205721
204368
208141
207039
206594
205746
205994
204589
208382
207325
206877
206056
206332
204880
208550
207577
207152
206387
206703
205324
208648
207761
207401
206694
207017
205736
208695
207951
207603
206884
207137
205964
208597
207900
207590
206870
207082
206155
208339
207592
207368
206708
206830
206033
207838
207034
206812
206153
206430
205534
207127
206306
206155
205479
205579
204877
211796
209772
207793
204353
202528
196608
212682
210468
208349
204616
202035
194157
213453
211078
208647
204391
201520
192049
214222
211719
209012
204432
201374
190817
214669
212156
209373
204637
201513
190532
215202
212625
209795
205063
202026
191334
215637
213075
210322
205748
202884
193035
216007
213488
210880
206569
203925
195374
216290
213821
211430
207493
205050
197731
216398
214061
211860
208261
206081
199717
216279
214034
212111
208864
206922
200970
215730
213605
211836
208657
206767
201082
214952
212683
210961
207763
205947
200001
212911
210640
208950
205662
203717
197616
206856
206681
206661
206442
206577
206445
206995
206713
206678
206316
206399
206200
206947
206641
206618
206233
206263
206007
206971
206604
206560
206127
206164
205840
206961
206580
206538
206107
206157
205778
206927
206551
206524
206138
206178
205908
206873
206511
206502
206127
206226
205834
206762
206410
206439
206092
206199
205771
206614
206280
206358
206018
206157
205787
206409
206092
206197
205934
206053
205755
206202
205897
206003
205735
206032
205677
205969
205688
205795
205576
205661
205394
205805
205551
205665
205470
205554
205311
205561
205382
205493
205187
205276
205072
206610
205662
205552
204967
205227
204432
207133
206096
205767
204921
205025
203971
207336
206154
205712
204754
204838
203535
207636
206323
205745
204737
204795
203261
207871
206519
205880
204825
204896
203363
208051
206707
206052
204984
205058
203440
208136
206859
206221
205192
205256
203559
208128
206965
206365
205355
205397
203804
207992
206965
206453
205490
205476
204021
207701
206739
206317
205284
205207
203875
207225
206243
205847
204889
205006
203761
206491
205400
205015
203955
203978
202940
205636
204484
204206
203247
203358
202348
204611
203482
203367
202407
202561
201559
213060
210170
208080
204259
202113
194996
214166
211486
209087
204834
202011
192951
214813
212067
209335
204628
201474
190826
215408
212583
209662
204693
201369
189721
215834
212993
209994
204951
201551
189637
216127
213306
210325
205374
202081
190692
216273
213504
210637
205918
202825
192512
216261
213593
210879
206456
203604
194639
215933
213461
210990
206987
204378
196307
215374
212955
210690
207030
204688
197310
214376
211974
209822
206294
204182
196894
212882
210485
208441
204866
202707
195495
211259
208474
206254
202407
200206
192525
207871
204925
202786
199161
197147
188925
205214
205408
205281
205399
205305
205486
204997
205178
205080
205280
205237
205506
205153
205351
205133
205321
205253
205567
204914
205125
205033
205354
205289
205653
204950
205185
205086
205412
205383
205726
204834
205131
205072
205394
205416
205801
204857
205161
205126
205441
205479
205823
204754
205134
205141
205470
205497
205814
204801
205204
205205
205534
205515
205790
204936
205258
205221
205542
205470
205740
204808
205205
205163
205517
205450
205695
204838
205154
205099
205463
205413
205628
204891
205165
205096
205461
205388
205589
204983
205240
205159
205418
205402
205481
201785
202634
202428
203244
203246
204256
201979
202857
202834
203787
203997
205023
202646
203758
203631
204451
204711
205606
203394
204406
204310
205125
205353
206056
203554
204659
204511
205291
205478
206239
203329
204469
204373
205195
205404
206296
202927
204160
204054
204887
205164
206240
202198
203656
203544
204465
204844
206100
201644
203211
203051
204056
204497
205879
201164
202805
202605
203682
204148
205617
200756
202373
202258
203389
203863
205295
200509
202053
202003
203043
203482
204885
200690
202141
202071
203113
203483
204684
201022
202192
202016
202760
202888
203963
190551
197273
198944
202074
203857
206302
193615
199603
201408
204768
206593
208971
196683
202084
203678
206489
208112
210238
197840
202981
204474
207365
209064
211309
198182
203161
204623
207468
209272
211743
196713
202292
203842
207024
209120
211716
194700
201189
202824
206346
208686
211457
191946
199888
201624
205547
208182
211139
189198
198622
200523
204768
207652
210783
186607
197443
199577
204029
207092
210352
184776
196565
198886
203449
206581
209856
183957
195951
198380
202824
205962
209253
184504
195796
198285
202637
205522
208706
185947
195499
197871
201788
204299
207486
206464
206603
206514
206679
206642
206826
206565
206729
206600
206797
206718
206909
206549
206684
206546
206777
206725
206933
206539
206714
206573
206791
206700
206945
206411
206592
206472
206714
206636
206898
206358
206534
206454
206691
206636
206859
206188
206435
206362
206611
206549
206774
206007
206326
206274
206518
206435
206655
205934
206231
206152
206400
206293
206502
205921
206156
206024
206268
206131
206317
205709
205993
205852
206103
205939
206143
205467
205741
205617
205897
205748
205935
205395
205628
205484
205750
205583
205791
205200
205439
205365
205557
205451
205528
204603
205397
205257
205813
206054
206716
205145
205846
205815
206408
206616
207256
205176
205949
205882
206595
206814
207455
205170
206004
205922
206635
206904
207511
204878
205759
205684
206364
206594
207348
204402
205406
205282
205956
206241
207101
203780
204937
204732
205450
205779
206770
203073
204416
204152
204936
205290
206401
202375
203851
203587
204464
204800
206003
201910
203415
203115
204030
204321
205583
201552
203028
202744
203690
203926
205203
201220
202630
202381
203288
203552
204711
201275
202544
202355
203303
203488
204550
201245
202305
202067
202823
202858
203835
199343
204218
205616
208286
209602
211330
201591
205879
207271
209655
210971
212863
202347
206289
207526
209907
211277
213105
201800
205668
206926
209380
210957
213032
200310
204539
205814
208494
210249
212552
197900
202944
204280
207380
209390
211953
195023
201268
202714
206218
208475
211309
192020
199714
201263
205093
207613
210668
189260
198325
200053
204127
206851
210026
187037
197178
199086
203301
206135
209368
185553
196332
198447
202721
205509
208657
185135
195780
197995
202159
204903
207945
185927
195735
197984
201938
204406
207307
187420
195459
197562
201129
203326
206140
216927
216940
217583
217757
218066
218216
218478
218768
219179
219657
220191
220571
221128
221022
218605
218725
219128
219392
219657
219857
220135
220417
220790
221155
221464
221677
221861
221501
219032
219660
220166
220567
220884
221146
221432
221689
221980
222233
222394
222480
222429
222097
219452
220334
220952
221460
221846
222174
222468
222712
222945
223128
223208
223196
222945
222490
219637
220668
221448
222081
222564
222950
223267
223510
223709
223837
223838
223725
223361
222844
219654
220899
221839
222577
223143
223581
223917
224163
224337
224421
224361
224174
223736
223120
219666
221063
222131
222962
223597
224077
224430
224677
224833
224884
224775
224538
224070
223407
219729
221249
222413
223312
223993
224503
224869
225114
225251
225268
225122
224842
224350
223645
219790
221361
222603
223565
224283
224811
225184
225425
225551
225545
225380
225078
224594
223886
219939
221543
222804
223784
224516
225054
225434
225669
225783
225755
225575
225256
224788
224104
219888
221590
222878
223880
224613
225140
225519
225747
225855
225819
225641
225329
224901
224303
219998
221728
222956
223910
224602
225084
225437
225649
225747
225714
225549
225264
224858
224370
219539
221606
222767
223728
224411
224862
225185
225374
225450
225425
225288
225066
224708
224449
219880
221856
222847
223639
224168
224483
224726
224878
224942
224931
224812
224622
224202
224015
223350
223024
223258
223097
223092
222990
223063
223289
223719
224267
224931
225609
226508
226797
224479
224330
224370
224379
224407
224425
224581
224826
225231
225714
226231
226725
227194
227332
224423
224870
225123
225293
225438
225580
225803
226047
226382
226749
227097
227462
227689
227855
224618
225300
225653
225996
226274
226527
226779
227022
227307
227601
227850
228097
228129
228056
224620
225453
226058
226539
226925
227260
227557
227819
228076
228306
228463
228571
228475
228267
224506
225589
226371
226985
227483
227892
228224
228497
228728
228906
228993
228996
228799
228454
224540
225759
226684
227401
227975
228432
228789
229069
229277
229412
229438
229358
229102
228683
224739
226039
227053
227830
228441
228922
229292
229572
229764
229860
229837
229700
229393
228900
225002
226323
227395
228216
228853
229349
229727
230003
230183
230253
230200
230032
229704
229179
225454
226743
227785
228592
229218
229705
230078
230347
230518
230579
230516
230334
230013
229485
225686
227039
228082
228887
229503
229975
230344
230608
230773
230837
230776
230601
230315
229828
226247
227525
228434
229163
229733
230154
230494
230747
230910
230991
230956
230813
230567
230147
226234
227824
228599
229314
229837
230194
230499
230731
230887
230988
231002
230923
230757
230570
227018
228415
228956
229476
229868
230089
230340
230560
230729
230862
230929
230901
230722
230576
228466
228077
227933
227668
227486
227299
227277
227413
227799
228309
228924
229555
230592
231199
229054
228891
228669
228508
228382
228304
228356
228551
228897
229373
229924
230578
231213
231677
228813
229064
229087
229014
229053
229122
229256
229456
229754
230142
230544
231042
231489
231962
228855
229210
229347
229525
229668
229809
229976
230184
230463
230805
231143
231564
231859
232057
228779
229333
229644
229910
230147
230369
230589
230818
231083
231375
231640
231945
232131
232251
228760
229443
229925
230310
230635
230909
231158
231394
231639
231884
232097
232312
232425
232443
228921
229688
230275
230730
231106
231419
231689
231930
232155
232358
232520
232660
232707
232653
229238
230068
230716
231207
231604
231935
232217
232459
232666
232834
232953
233032
233012
232882
229643
230483
231161
231675
232089
232436
232730
232974
233170
233315
233402
233432
233368
233185
230241
231053
231696
232186
232589
232931
233230
233473
233662
233792
233858
233859
233774
233545
230707
231547
232176
232659
233058
233395
233698
233944
234132
234261
234320
234312
234243
233987
231453
232236
232733
233153
233521
233827
234121
234368
234556
234696
234760
234771
234745
234456
231721
232742
233167
233596
233927
234187
234458
234701
234893
235057
235151
235213
235265
235043
232675
233554
233700
233964
234242
234440
234695
234944
235150
235352
235480
235599
235596
235514
231355
230891
230650
230338
230108
229931
229912
230043
230389
230853
231461
232259
233172
233798
231662
231410
231182
230961
230825
230744
230795
230990
231331
231801
232374
233022
233666
234158
231422
231480
231481
231381
231391
231439
231569
231771
232072
232461
232887
233406
233906
234489
231479
231674
231735
231833
231930
232044
232210
232425
232715
233071
233445
233884
234231
234540
231445
231817
232025
232221
232404
232586
232790
233020
233296
233606
233910
234244
234489
234725
231485
231997
232351
232639
232890
233118
233345
233580
233835
234103
234356
234610
234775
234898
231706
232284
232726
233078
233375
233638
233885
234122
234358
234586
234788
234972
235078
235143
232069
232693
233185
233571
233892
234174
234433
234670
234888
235080
235238
235362
235411
235401
232491
233136
233656
234070
234411
234711
234981
235218
235422
235588
235714
235796
235812
235739
233117
233728
234217
234619
234957
235258
235532
235766
235960
236108
236209
236258
236254
236117
233661
234290
234759
235163
235498
235797
236071
236301
236488
236629
236720
236753
236760
236564
234469
235007
235370
235728
236045
236321
236586
236810
236992
237137
237230
237265
237317
237061
234988
235659
235922
236275
236550
236785
237031
237248
237429
237590
237703
237768
237893
237716
235942
236490
236618
236771
236991
237173
237402
237619
237806
238003
238139
238269
238353
238396
232903
232444
232244
231945
231744
231585
231575
231701
232021
232439
233038
233747
234543
235171
233192
232891
232702
232488
232371
232299
232348
232533
232844
233271
233793
234378
234976
235470
233043
232984
232979
232895
232896
232919
233036
233222
233498
233860
234270
234763
235275
235800
233189
233241
233302
233330
233398
233475
233621
233816
234086
234424
234790
235201
235554
235913
233196
233422
233587
233723
233857
233988
234161
234365
234622
234921
235223
235542
235810
236069
233273
233663
233934
234141
234327
234496
234687
234893
235134
235398
235655
235913
236105
236268
233500
233964
234311
234578
234802
235004
235210
235421
235646
235873
236084
236277
236404
236505
233858
234370
234762
235067
235314
235538
235754
235964
236172
236366
236534
236672
236750
236789
234274
234814
235231
235572
235843
236087
236313
236523
236716
236881
237017
237110
237162
237133
234874
235395
235791
236134
236408
236658
236886
237091
237271
237414
237528
237587
237625
237520
235430
235972
236340
236696
236977
237229
237457
237656
237826
237958
238062
238100
238149
237975
236201
236671
236972
237287
237557
237795
238013
238203
238367
238499
238605
238635
238717
238499
236759
237306
237510
237834
238079
238287
238498
238686
238850
238995
239117
239165
239289
239175
237688
238099
238221
238415
238581
238746
238941
239125
239296
239473
239617
239741
239818
239906
233628
233226
233068
232805
232659
232548
232575
232738
233029
233429
233964
234578
235262
235844
233908
233632
233486
233303
233224
233190
233266
233465
233759
234168
234627
235154
235681
236140
233859
233773
233772
233701
233714
233758
233888
234081
234353
234699
235079
235536
235996
236469
234073
234065
234128
234123
234199
234281
234437
234636
234907
235236
235581
235958
236279
236644
234134
234294
234436
234537
234656
234784
234960
235166
235423
235714
236004
236303
236562
236810
234285
234581
234798
234968
235129
235288
235477
235687
235933
236197
236453
236701
236886
237048
234529
234908
235189
235417
235611
235801
236002
236216
236449
236682
236896
237084
237209
237301
234891
235326
235646
235912
236130
236340
236550
236764
236982
237185
237360
237496
237579
237613
235303
235775
236120
236423
236666
236896
237116
237328
237530
237704
237847
237937
237999
237970
235872
236338
236675
236985
237233
237470
237692
237897
238085
238233
238353
238408
238460
238360
236413
236896
237213
237538
237790
238030
238252
238452
238630
238764
238874
238905
238966
238803
237116
237551
237820
238119
238359
238586
238798
238987
239158
239284
239400
239419
239499
239321
237660
238150
238347
238634
238860
239059
239263
239452
239625
239764
239898
239930
240018
239944
238518
238866
238976
239200
239346
239507
239692
239874
240052
240220
240381
240488
240525
240622
234057
233705
233590
233389
233288
233214
233258
233421
233683
234050
234505
235029
235602
236123
234322
234089
233970
233831
233779
233767
233858
234046
234318
234682
235077
235530
235994
236427
234346
234264
234260
234211
234231
234286
234417
234601
234851
235161
235498
235895
236306
236744
234592
234567
234613
234617
234695
234776
234930
235120
235369
235665
235972
236299
236596
236946
234706
234820
234936
235024
235138
235260
235430
235626
235863
236125
236386
236651
236900
237146
234906
235126
235305
235450
235598
235749
235931
236133
236362
236603
236835
237059
237241
237411
235170
235468
235700
235895
236070
236249
236443
236651
236873
237089
237287
237457
237585
237685
235548
235895
236155
236386
236578
236775
236976
237186
237398
237591
237756
237880
237966
238003
235965
236350
236628
236890
237101
237315
237524
237733
237933
238103
238241
238322
238386
238362
236517
236899
237167
237433
237647
237865
238075
238279
238467
238616
238738
238791
238844
238755
237035
237438
237691
237967
238181
238401
238610
238809
238990
239127
239241
239273
239329
239183
237677
238050
238262
238517
238719
238926
239127
239321
239495
239622
239736
239757
239828
239669
238184
238611
238774
239012
239201
239387
239583
239779
239955
240086
240207
240233
240302
240236
238968
239256
239330
239533
239671
239822
240009
240201
240379
240534
240672
240770
240785
240869
234280
233982
233895
233739
233664
233617
233669
233819
234052
234364
234746
235194
235691
236182
234511
234319
234228
234124
234089
234095
234190
234361
234604
234915
235256
235657
236072
236486
234581
234509
234506
234477
234503
234564
234689
234859
235084
235352
235653
236012
236383
236811
234840
234818
234857
234874
234948
235032
235176
235353
235576
235834
236109
236401
236708
237040
235007
235092
235198
235277
235387
235503
235661
235840
236051
236279
236513
236760
236997
237277
235258
235425
235575
235703
235838
235981
236149
236335
236540
236752
236964
237176
237365
237551
235554
235787
235975
236145
236301
236467
236645
236837
237038
237233
237419
237587
237729
237846
235941
236214
236421
236619
236787
236968
237155
237354
237554
237734
237893
238018
238118
238160
236353
236660
236879
237103
237284
237481
237681
237885
238079
238241
238377
238462
238535
238514
236866
237171
237381
237609
237794
238003
238209
238412
238595
238736
238852
238907
238968
238896
237353
237676
237874
238112
238305
238519
238725
238921
239091
239215
239321
239357
239421
239301
237932
238237
238404
238634
238818
239022
239218
239403
239564
239678
239784
239808
239882
239757
238410
238763
238898
239116
239288
239476
239662
239843
240003
240121
240228
240253
240322
240277
239112
239357
239421
239613
239752
239904
240077
240255
240414
240549
240669
240757
240782
240861
234456
234205
234141
234031
233984
233955
234004
234136
234342
234605
234937
235326
235764
236219
234692
234522
234455
234390
234379
234399
234489
234639
234851
235114
235417
235778
236152
236531
234801
234733
234734
234735
234777
234847
234965
235118
235318
235550
235820
236135
236468
236860
235074
235054
235092
235138
235223
235325
235463
235623
235814
236032
236274
236533
236818
237107
235287
235354
235460
235560
235686
235813
235961
236119
236295
236482
236681
236891
237103
237376
235565
235705
235859
236004
236154
236305
236462
236621
236786
236953
237126
237302
237469
237651
235871
236077
236265
236450
236619
236790
236952
237111
237265
237409
237555
237695
237829
237954
236242
236489
236695
236907
237085
237266
237430
237586
237733
237868
237995
238103
238202
238257
236630
236909
237127
237362
237546
237731
237894
238056
238205
238330
238442
238520
238594
238585
237092
237375
237586
237823
238000
238184
238355
238521
238669
238781
238878
238928
238989
238937
237539
237842
238045
238279
238452
238640
238813
238976
239116
239217
239305
239336
239399
239310
238070
238360
238527
238745
238909
239088
239253
239411
239545
239639
239726
239746
239817
239719
238531
238856
238991
239191
239338
239506
239665
239819
239951
240047
240134
240154
240222
240186
239186
239409
239470
239642
239764
239903
240051
240202
240334
240442
240542
240611
240654
240724
216023
215691
215329
215773
218127
220301
215183
214037
213192
213274
215416
217799
215699
213902
212604
212048
213550
215881
215665
213504
211740
210583
211491
213568
215941
213402
211252
209583
209891
211539
216119
213465
211127
209153
209009
210298
216480
213768
211447
209417
209099
210117
217006
214412
212375
210503
210138
210863
217660
215306
213724
212235
212180
213054
218384
216454
215418
214401
214751
215955
219150
217861
217324
216734
217529
218848
219693
219011
218893
218664
219934
221493
220647
220255
220291
220301
221986
223645
219952
220048
220140
220636
222776
224947
223176
223698
223634
224224
225587
226778
221547
221362
221445
221816
223124
224434
221745
220652
220124
220209
221203
222288
221272
219712
218588
218033
218505
219275
221156
219074
217335
216130
216087
216215
220989
218666
216604
214917
214423
214084
221050
218593
216360
214497
213825
213290
221432
218988
216826
215009
214304
213690
222134
219911
218066
216491
216043
215551
223045
221115
219837
218720
218766
218371
224053
222625
221963
221315
221787
221533
225031
224214
223995
223797
224651
224621
226242
225869
226064
226180
227275
227498
225846
226138
226563
227247
228713
229626
228895
229603
229347
229284
229796
230636
226998
227019
227146
227288
227612
228250
226875
226204
225644
225185
225349
225688
226324
225107
223997
223037
222529
222352
226027
224401
222756
221149
219942
219071
225741
223804
221851
219850
218205
216925
225709
223616
221494
219277
217532
216119
225935
223876
221848
219644
217976
216508
226512
224716
222849
220912
219634
218502
227361
225881
224455
223078
222307
221628
228434
227151
226390
225569
225309
225177
229512
228651
228478
228182
228355
228609
230807
230308
230586
230676
231229
231747
230675
230954
231344
231982
232905
233930
231996
232840
232937
232860
232850
233103
230227
230472
230690
230932
231131
231209
229960
229735
229390
229059
228865
228576
229327
228516
227657
226771
225980
225313
228952
227734
226371
224884
223398
221960
228672
227117
225401
223427
221475
219559
228624
226861
224944
222705
220475
218256
228825
227003
225196
222919
220731
218470
229348
227695
226043
223951
222186
220268
230096
228757
227456
225910
224729
223289
231011
229981
229139
228191
227520
226672
231881
231310
231013
230617
230436
230121
233155
232864
233026
233017
233223
233260
233426
233682
233941
234411
234998
235559
233383
234031
234217
234271
234297
234483
231968
232182
232338
232569
232742
232844
231706
231624
231286
230923
230570
230293
231092
230506
229726
228848
227920
227036
230746
229748
228501
227050
225457
223894
230497
229199
227599
225729
223622
221635
230448
228963
227151
225051
222603
220269
230604
229082
227312
225261
222790
220407
231062
229701
228116
226193
224101
222056
231711
230578
229332
227827
226449
224896
232486
231617
230806
229881
229032
228049
233317
232816
232437
232028
231734
231364
234412
234191
234250
234234
234297
234330
234856
235077
235230
235578
235996
236494
234020
234519
234720
234903
235053
235310
232835
233008
233121
233370
233635
233793
232634
232600
232340
232076
231765
231484
232097
231655
231038
230353
229564
228731
231823
231026
230016
228770
227337
225786
231630
230575
229259
227602
225703
223660
231615
230378
228885
227005
224826
222353
231779
230482
228977
227153
224956
222431
232196
231039
229634
227998
225947
223895
232783
231770
230643
229286
227950
226469
233432
232664
231953
231049
230215
229246
234175
233721
233379
232934
232632
232278
235108
234883
234936
234878
234916
234946
235570
235749
235883
236158
236503
236932
234330
234719
234906
235120
235329
235662
233362
233484
233568
233782
234063
234319
233218
233174
232977
232796
232574
232330
232782
232412
231915
231395
230737
230001
232579
231920
231100
230129
228888
227583
232443
231570
230485
229161
227488
225743
232451
231428
230171
228664
226772
224688
232613
231543
230245
228720
226894
224700
232967
232015
230826
229450
227661
225755
233466
232653
231677
230515
229251
227942
234015
233401
232764
231979
231196
230326
234660
234289
233964
233563
233278
232944
235446
235259
235287
235217
235261
235286
235885
236033
236161
236392
236697
237074
234477
234782
234946
235146
235347
235676
233698
233784
233853
234034
234270
234546
233590
233543
233407
233293
233158
232990
233240
232932
232552
232161
231709
231113
233085
232554
231924
231180
230268
229107
232988
232284
231434
230392
229119
227584
233004
232177
231182
229959
228502
226803
233154
232280
231256
229998
228445
226846
233458
232670
231743
230554
229129
227475
233868
233207
232424
231438
230376
229181
234319
233820
233287
232631
231964
231182
234875
234564
234283
233950
233700
233391
235550
235381
235401
235345
235388
235404
235969
236097
236222
236427
236696
237017
234576
234799
234915
235075
235236
235520
233945
233989
234027
234153
234334
234546
233864
233788
233669
233572
233484
233377
233597
233310
232996
232679
232355
231928
233483
233019
232509
231920
231242
230356
233411
232812
232128
231295
230319
229050
233425
232728
231928
230936
229818
228339
233551
232815
231985
230962
229813
228361
233812
233142
232381
231429
230337
228997
234152
233592
232959
232166
231302
230294
234535
234106
233657
233124
232578
231929
235025
234752
234506
234232
234011
233731
235620
235462
235461
235408
235440
235440
236016
236115
236220
236384
236608
236864
221225
221293
221583
221989
224236
226062
221006
220577
220399
220693
222953
225144
221441
220720
220320
220268
222174
224474
221663
220697
219922
219358
220879
223199
221926
220681
219676
218684
219789
221941
222119
220699
219533
218193
218882
220683
222380
220869
219632
218104