/*--------------------------------*- C++ -*----------------------------------*\
| =========                 |                                                 |
| \\      /  F ield         | OpenFOAM: The Open Source CFD Toolbox           |
|  \\    /   O peration     | Version:  v2106                                 |
|   \\  /    A nd           | Website:  www.openfoam.com                      |
|    \\/     M anipulation  |                                                 |
\*---------------------------------------------------------------------------*/
FoamFile
{
    version     2.0;
    format      ascii;
    arch        "LSB;label=32;scalar=64";
    class       volScalarField;
    location    "0.000124";
    object      T;
}
// * * * * * * * * * * * * * * * * * * * * * * * * * * * * * * * * * * * * * //

dimensions      [0 0 0 1 0 0 0];

internalField   nonuniform List<scalar> 
144746
(
295.644
295.442
295.256
295.129
295.026
294.96
294.9
294.841
294.793
294.764
294.777
294.82
294.929
295.111
295.233
294.899
294.67
294.541
294.454
294.413
294.383
294.359
294.348
294.354
294.381
294.435
294.585
294.883
294.919
294.549
294.291
294.157
294.079
294.044
294.024
294.012
294.017
294.043
294.088
294.161
294.347
294.684
294.74
294.356
294.091
293.963
293.889
293.853
293.833
293.823
293.826
293.858
293.913
293.997
294.195
294.525
294.656
294.255
293.99
293.86
293.781
293.744
293.724
293.715
293.715
293.741
293.798
293.89
294.096
294.414
294.635
294.22
293.944
293.807
293.725
293.689
293.674
293.669
293.666
293.685
293.738
293.835
294.042
294.351
294.639
294.21
293.923
293.781
293.699
293.667
293.657
293.657
293.652
293.667
293.715
293.809
294.015
294.318
294.651
294.209
293.924
293.782
293.703
293.673
293.665
293.667
293.662
293.673
293.716
293.807
294.007
294.307
294.675
294.209
293.918
293.775
293.699
293.671
293.668
293.667
293.665
293.671
293.712
293.807
294.009
294.316
294.708
294.205
293.905
293.762
293.688
293.661
293.657
293.654
293.654
293.664
293.715
293.81
294.013
294.326
294.775
294.244
293.918
293.763
293.685
293.658
293.652
293.646
293.638
293.657
293.712
293.812
294.022
294.34
294.866
294.331
293.975
293.805
293.72
293.686
293.672
293.665
293.667
293.698
293.77
293.873
294.083
294.402
295.019
294.518
294.161
293.968
293.871
293.834
293.816
293.813
293.822
293.866
293.947
294.051
294.244
294.542
295.211
294.839
294.494
294.272
294.145
294.099
294.08
294.084
294.106
294.165
294.255
294.36
294.527
294.72
295.983
296.038
296.073
296.199
296.311
296.403
296.466
296.488
296.49
296.486
296.483
296.471
296.445
296.403
296.009
295.978
295.985
296.085
296.193
296.281
296.349
296.388
296.411
296.416
296.405
296.375
296.372
296.415
296.02
295.945
295.942
296.02
296.123
296.211
296.289
296.343
296.376
296.376
296.354
296.333
296.351
296.448
296.08
296.013
295.999
296.046
296.122
296.199
296.281
296.35
296.397
296.409
296.389
296.369
296.396
296.492
296.197
296.123
296.076
296.088
296.132
296.209
296.307
296.401
296.458
296.461
296.452
296.441
296.467
296.558
296.355
296.252
296.172
296.161
296.189
296.266
296.375
296.477
296.534
296.539
296.535
296.517
296.549
296.634
296.474
296.371
296.272
296.226
296.247
296.328
296.448
296.561
296.623
296.622
296.625
296.605
296.628
296.702
296.542
296.442
296.365
296.305
296.339
296.418
296.536
296.645
296.704
296.701
296.702
296.679
296.698
296.759
296.564
296.466
296.406
296.339
296.388
296.473
296.592
296.701
296.754
296.748
296.746
296.719
296.737
296.798
296.562
296.453
296.401
296.344
296.396
296.485
296.601
296.706
296.754
296.745
296.74
296.712
296.732
296.801
296.524
296.434
296.421
296.375
296.42
296.502
296.606
296.707
296.753
296.74
296.723
296.688
296.703
296.782
296.432
296.372
296.398
296.391
296.454
296.548
296.653
296.739
296.766
296.742
296.707
296.671
296.681
296.771
296.373
296.352
296.404
296.44
296.517
296.613
296.716
296.798
296.823
296.797
296.753
296.698
296.69
296.745
296.326
296.414
296.5
296.564
296.639
296.729
296.825
296.878
296.878
296.84
296.792
296.727
296.69
296.667
297.933
298.15
298.426
298.654
298.83
298.976
299.1
299.197
299.266
299.299
299.294
299.242
299.17
298.995
298.228
298.329
298.608
298.878
299.088
299.258
299.39
299.49
299.567
299.602
299.628
299.534
299.41
299.311
298.473
298.64
298.874
299.128
299.338
299.52
299.669
299.784
299.862
299.888
299.838
299.768
299.66
299.594
298.704
298.949
299.151
299.368
299.562
299.745
299.902
300.03
300.123
300.157
300.114
300.023
299.935
299.864
298.919
299.197
299.375
299.579
299.77
299.96
300.132
300.272
300.372
300.405
300.346
300.25
300.124
300.003
299.156
299.408
299.593
299.792
299.983
300.17
300.345
300.49
300.587
300.614
300.564
300.464
300.336
300.189
299.332
299.558
299.779
299.962
300.158
300.351
300.533
300.683
300.773
300.792
300.743
300.633
300.489
300.314
299.436
299.676
299.929
300.113
300.305
300.495
300.675
300.825
300.911
300.923
300.875
300.757
300.601
300.401
299.486
299.732
299.992
300.199
300.413
300.624
300.809
300.959
301.032
301.026
300.967
300.834
300.668
300.452
299.514
299.757
300.01
300.227
300.451
300.672
300.857
301.007
301.071
301.054
300.986
300.843
300.672
300.449
299.461
299.704
299.967
300.199
300.431
300.659
300.844
300.991
301.045
301.015
300.932
300.778
300.601
300.415
299.393
299.607
299.888
300.159
300.409
300.632
300.808
300.942
300.981
300.935
300.832
300.67
300.472
300.35
299.195
299.461
299.785
300.068
300.322
300.551
300.73
300.846
300.872
300.818
300.701
300.536
300.319
300.207
299.053
299.508
299.807
300.077
300.308
300.465
300.596
300.693
300.711
300.665
300.568
300.426
300.218
299.945
295.492
295.772
296.101
296.158
296.316
296.283
295.369
295.72
296.106
296.22
296.367
296.381
295.209
295.662
296.166
296.351
296.564
296.55
295.074
295.604
296.217
296.494
296.77
296.714
294.979
295.572
296.262
296.6
296.887
296.851
294.918
295.544
296.269
296.623
296.913
296.854
294.881
295.507
296.231
296.597
296.88
296.801
294.858
295.462
296.148
296.502
296.776
296.698
294.853
295.406
296.046
296.374
296.634
296.579
294.851
295.365
295.949
296.228
296.453
296.423
294.835
295.304
295.836
296.078
296.318
296.339
294.876
295.264
295.72
295.953
296.174
296.219
294.973
295.294
295.672
295.83
296.072
296.111
295.078
295.323
295.65
295.726
295.891
295.937
296.489
296.38
296.644
296.641
296.929
296.802
296.574
296.501
296.79
296.885
297.238
297
296.608
296.608
296.964
297.124
297.516
297.168
296.669
296.718
297.118
297.288
297.687
297.225
296.741
296.832
297.237
297.383
297.754
297.287
296.824
296.933
297.301
297.367
297.7
297.197
296.898
297.024
297.341
297.318
297.615
297.083
296.953
297.079
297.341
297.262
297.545
297.038
296.99
297.103
297.334
297.227
297.507
297.047
297.009
297.15
297.358
297.214
297.447
297.046
296.997
297.127
297.328
297.172
297.364
297.096
296.982
297.025
297.227
297.094
297.259
297.058
296.926
296.873
297.04
296.924
297.17
296.921
296.793
296.693
296.894
296.832
297.014
296.83
299.05
298.847
298.915
298.203
297.746
295.324
299.376
299.209
299.286
298.463
297.861
294.652
299.612
299.449
299.47
298.474
297.699
293.841
299.853
299.66
299.568
298.414
297.519
293.179
299.976
299.756
299.578
298.29
297.276
292.696
300.123
299.845
299.583
298.2
297.091
292.598
300.229
299.917
299.626
298.219
297.047
292.871
300.315
299.976
299.689
298.344
297.213
293.59
300.381
300.028
299.799
298.625
297.635
294.543
300.398
300.084
299.959
298.991
298.219
295.521
300.353
300.073
300.099
299.36
298.732
296.231
300.261
300.031
300.153
299.49
298.894
296.442
300.272
299.979
300.139
299.457
298.875
296.279
299.828
299.564
299.774
299.068
298.393
295.681
295.003
295.28
295.586
295.733
295.968
296.012
294.968
295.299
295.667
295.791
296.015
296.034
294.848
295.268
295.715
295.88
296.099
296.083
294.765
295.245
295.76
295.952
296.184
296.13
294.698
295.227
295.802
296.03
296.27
296.175
294.653
295.21
295.821
296.087
296.315
296.246
294.632
295.198
295.822
296.09
296.321
296.2
294.62
295.176
295.799
296.06
296.265
296.134
294.633
295.166
295.771
296.007
296.192
296.096
294.67
295.161
295.731
295.969
296.137
296.074
294.784
295.218
295.728
295.922
296.154
296.066
294.99
295.367
295.807
295.959
296.079
296.016
295.313
295.636
295.991
296.085
296.202
296.135
295.588
295.883
296.181
296.22
296.355
296.284
296.66
296.511
296.75
296.844
297.146
296.903
296.825
296.734
296.959
296.956
297.275
296.979
296.846
296.798
297.04
297.021
297.366
296.999
296.919
296.88
297.114
297.069
297.402
296.934
296.972
296.949
297.177
297.087
297.401
296.908
297.011
296.995
297.203
297.065
297.347
296.8
297.024
297.016
297.2
297.025
297.268
296.673
296.994
297.024
297.194
296.982
297.19
296.638
296.915
296.993
297.187
296.975
297.141
296.668
296.825
296.893
297.114
296.886
297.031
296.639
296.746
296.739
296.943
296.768
297.024
296.673
296.654
296.568
296.76
296.579
296.805
296.527
296.605
296.486
296.767
296.704
296.964
296.657
296.466
296.356
296.808
296.832
297.129
296.786
300.007
299.638
299.777
298.88
298.136
295.054
300.349
300.126
300.227
299.222
298.413
294.596
300.456
300.23
300.243
299.135
298.246
293.818
300.574
300.314
300.239
299.017
298.046
293.18
300.643
300.348
300.169
298.846
297.766
292.753
300.666
300.336
300.081
298.698
297.569
292.776
300.65
300.295
300.009
298.652
297.532
293.168
300.57
300.223
299.968
298.72
297.712
293.903
300.37
300.083
299.95
298.932
298.071
294.677
300.149
299.87
299.893
299.08
298.375
295.281
299.903
299.644
299.73
299.025
298.519
295.483
299.654
299.439
299.595
298.881
298.327
295.28
299.569
299.242
299.376
298.506
297.9
294.613
298.8
298.381
298.466
297.607
297.117
293.65
296.559
296.65
296.557
296.488
296.245
295.999
296.323
296.408
296.34
296.317
296.029
295.71
296.346
296.432
296.3
296.215
295.838
295.448
296.222
296.312
296.215
296.162
295.747
295.309
296.241
296.359
296.263
296.199
295.769
295.265
296.225
296.385
296.332
296.267
295.824
295.293
296.334
296.491
296.46
296.406
295.941
295.339
296.448
296.626
296.605
296.564
296.065
295.393
296.635
296.817
296.782
296.727
296.177
295.45
296.8
296.947
296.892
296.811
296.226
295.499
296.774
296.971
296.898
296.813
296.245
295.551
296.779
296.942
296.843
296.73
296.216
295.599
296.708
296.84
296.707
296.583
296.142
295.661
296.538
296.643
296.497
296.362
296.047
295.68
296.74
297.008
296.683
296.575
296.085
296.158
296.431
296.676
296.411
296.439
296.136
296.215
296.383
296.716
296.442
296.483
296.213
296.211
296.487
296.797
296.583
296.696
296.425
296.292
296.417
296.806
296.622
296.753
296.502
296.405
296.259
296.693
296.583
296.736
296.524
296.525
296.107
296.605
296.537
296.709
296.533
296.6
295.996
296.587
296.524
296.715
296.551
296.652
296.095
296.722
296.598
296.759
296.567
296.673
296.282
296.92
296.718
296.821
296.565
296.675
296.492
297.085
296.85
296.889
296.565
296.639
296.681
297.237
296.947
296.84
296.456
296.544
296.886
297.39
297.055
296.898
296.461
296.542
296.926
297.344
297.001
296.716
296.194
296.298
293.913
296.556
296.559
297.194
297.188
297.59
294.528
296.873
297.123
297.875
297.818
298.176
295.2
297.296
297.524
298.064
297.969
298.251
295.098
297.118
297.449
298.123
298.115
298.485
294.765
296.751
297.154
297.95
298.151
298.686
293.722
296.055
296.59
297.672
298.137
298.787
292.527
295.353
296.13
297.473
298.099
298.832
291.408
294.926
295.837
297.385
298.112
298.888
290.719
294.887
295.759
297.376
298.156
298.951
290.275
295.018
295.819
297.43
298.225
299.008
290.198
295.314
296.05
297.606
298.358
299.07
290.58
295.735
296.41
297.831
298.496
299.126
291.554
296.316
296.903
298.208
298.7
299.231
292.604
296.561
297.064
298.083
298.325
298.866
296.194
296.216
296.115
296.006
295.7
295.44
296.276
296.308
296.188
296.071
295.717
295.377
296.342
296.37
296.243
296.118
295.729
295.326
296.439
296.496
296.371
296.227
295.78
295.327
296.531
296.604
296.495
296.365
295.888
295.363
296.7
296.763
296.683
296.575
296.078
295.461
296.852
296.943
296.869
296.78
296.255
295.575
297.009
297.13
297.06
296.958
296.405
295.683
297.181
297.295
297.203
297.076
296.513
295.775
297.309
297.4
297.282
297.138
296.583
295.854
297.287
297.41
297.289
297.149
296.608
295.942
297.17
297.299
297.178
297.072
296.599
296.028
297.022
297.135
297.007
296.928
296.54
296.124
296.774
296.882
296.794
296.707
296.417
296.108
296.589
296.817
296.613
296.633
296.465
296.504
296.7
296.875
296.74
296.833
296.659
296.659
296.633
296.862
296.768
296.931
296.744
296.679
296.594
296.888
296.791
296.956
296.78
296.686
296.459
296.817
296.748
296.903
296.719
296.67
296.316
296.759
296.727
296.877
296.714
296.676
296.244
296.754
296.708
296.861
296.689
296.672
296.266
296.846
296.749
296.881
296.662
296.653
296.38
296.996
296.837
296.937
296.622
296.604
296.607
297.205
296.95
296.97
296.547
296.521
296.821
297.376
297.054
296.98
296.456
296.431
296.929
297.425
297.043
296.886
296.345
296.291
297.044
297.464
297.052
296.876
296.315
296.323
296.892
297.247
296.856
296.598
296.055
296.08
295.958
298.006
298.291
298.801
298.599
298.775
296.455
298.246
298.598
299.059
298.958
299.221
296.337
298.004
298.386
298.923
298.887
299.163
295.807
297.447
297.87
298.544
298.678
299.087
294.75
296.582
297.168
298.09
298.412
298.944
293.386
295.656
296.46
297.717
298.214
298.851
292.097
294.968
295.95
297.443
298.049
298.763
291.09
294.622
295.637
297.236
297.909
298.668
290.451
294.57
295.506
297.101
297.796
298.562
290.215
294.729
295.504
297.017
297.696
298.451
290.387
295.077
295.667
297.042
297.636
298.325
291.071
295.553
295.886
297.037
297.596
298.213
292.158
296.102
296.178
297.139
297.622
298.173
293.006
296.118
296.109
296.894
297.222
297.738
300.828
300.741
300.883
300.801
300.771
300.708
300.707
300.712
300.761
300.848
301.013
301.214
301.576
301.811
301.077
300.943
300.985
300.986
301.001
300.999
301.03
301.058
301.115
301.176
301.255
301.39
301.635
301.83
300.937
300.93
300.979
301.047
301.108
301.156
301.215
301.26
301.319
301.38
301.448
301.556
301.728
301.968
300.9
300.992
301.049
301.135
301.219
301.301
301.377
301.438
301.505
301.579
301.652
301.746
301.861
302.059
300.902
301.054
301.148
301.251
301.353
301.452
301.542
301.616
301.689
301.764
301.826
301.901
301.985
302.147
300.934
301.161
301.293
301.408
301.519
301.628
301.725
301.805
301.881
301.944
301.985
302.041
302.098
302.203
301.024
301.299
301.45
301.57
301.685
301.797
301.897
301.98
302.055
302.103
302.12
302.156
302.194
302.257
301.176
301.473
301.625
301.739
301.848
301.96
302.061
302.146
302.215
302.247
302.245
302.259
302.273
302.294
301.339
301.624
301.768
301.878
301.985
302.096
302.199
302.284
302.347
302.369
302.359
302.356
302.355
302.349
301.544
301.799
301.919
302.018
302.126
302.244
302.353
302.438
302.495
302.506
302.488
302.468
302.446
302.418
301.703
301.928
302.028
302.127
302.239
302.36
302.475
302.561
302.613
302.621
302.6
302.571
302.548
302.533
301.944
302.097
302.147
302.233
302.347
302.464
302.579
302.665
302.717
302.727
302.709
302.678
302.649
302.677
301.966
302.188
302.216
302.322
302.452
302.57
302.688
302.785
302.847
302.869
302.862
302.847
302.81
302.902
302.281
302.528
302.487
302.528
302.598
302.673
302.783
302.9
302.989
303.052
303.08
303.09
303.02
303.073
302.317
302.174
302.208
302.078
301.99
301.894
301.884
301.921
302.027
302.174
302.381
302.642
303.078
303.334
302.589
302.467
302.416
302.367
302.331
302.304
302.332
302.381
302.481
302.604
302.749
302.936
303.23
303.476
302.428
302.453
302.469
302.483
302.508
302.539
302.6
302.662
302.754
302.859
302.972
303.15
303.368
303.631
302.383
302.501
302.525
302.591
302.664
302.738
302.815
302.887
302.978
303.083
303.192
303.352
303.501
303.679
302.329
302.519
302.623
302.723
302.824
302.924
303.019
303.105
303.196
303.294
303.393
303.51
303.612
303.73
302.289
302.584
302.745
302.878
303.005
303.126
303.233
303.325
303.411
303.498
303.576
303.656
303.715
303.762
302.354
302.7
302.898
303.049
303.19
303.321
303.434
303.53
303.611
303.684
303.735
303.779
303.806
303.813
302.501
302.874
303.084
303.235
303.375
303.507
303.622
303.718
303.796
303.852
303.88
303.898
303.894
303.86
302.66
303.042
303.256
303.406
303.544
303.676
303.792
303.888
303.964
304.008
304.02
304.021
304
303.936
302.875
303.241
303.434
303.572
303.703
303.833
303.95
304.045
304.118
304.155
304.16
304.15
304.117
304.034
302.996
303.382
303.569
303.711
303.848
303.985
304.109
304.205
304.274
304.308
304.307
304.287
304.251
304.164
303.28
303.604
303.735
303.864
304.007
304.139
304.259
304.355
304.422
304.461
304.464
304.445
304.399
304.318
303.394
303.783
303.862
304.004
304.149
304.264
304.38
304.482
304.558
304.612
304.627
304.614
304.586
304.578
303.775
304.119
304.108
304.171
304.267
304.335
304.441
304.561
304.674
304.771
304.819
304.814
304.77
304.752
303.667
303.507
303.41
303.297
303.229
303.152
303.132
303.168
303.285
303.439
303.631
303.85
304.268
304.547
303.84
303.741
303.633
303.561
303.509
303.476
303.487
303.543
303.647
303.789
303.956
304.185
304.46
304.702
303.686
303.722
303.694
303.646
303.655
303.676
303.72
303.783
303.879
304.005
304.137
304.327
304.535
304.795
303.643
303.726
303.725
303.763
303.807
303.853
303.909
303.981
304.079
304.202
304.328
304.506
304.669
304.831
303.597
303.757
303.813
303.878
303.948
304.021
304.098
304.181
304.279
304.39
304.499
304.644
304.777
304.896
303.609
303.815
303.928
304.024
304.119
304.21
304.298
304.385
304.477
304.573
304.665
304.782
304.889
304.951
303.706
303.941
304.081
304.191
304.299
304.401
304.497
304.586
304.67
304.75
304.824
304.914
304.984
305.012
303.86
304.119
304.27
304.382
304.491
304.597
304.697
304.785
304.863
304.93
304.99
305.052
305.084
305.081
304.027
304.298
304.454
304.568
304.677
304.787
304.89
304.979
305.054
305.113
305.163
305.2
305.207
305.18
304.242
304.515
304.66
304.764
304.869
304.977
305.081
305.171
305.242
305.297
305.339
305.36
305.355
305.304
304.385
304.688
304.835
304.945
305.055
305.165
305.274
305.364
305.434
305.488
305.524
305.537
305.534
305.462
304.652
304.935
305.04
305.139
305.251
305.36
305.471
305.564
305.633
305.684
305.713
305.726
305.726
305.631
304.776
305.127
305.209
305.328
305.442
305.544
305.654
305.753
305.828
305.885
305.909
305.927
305.944
305.865
305.163
305.451
305.437
305.5
305.603
305.687
305.796
305.906
306.002
306.087
306.121
306.146
306.132
306.096
304.518
304.326
304.221
304.113
304.051
303.994
303.984
304.023
304.133
304.279
304.476
304.753
305.094
305.34
304.606
304.492
304.395
304.312
304.27
304.244
304.261
304.328
304.441
304.596
304.786
305.011
305.253
305.458
304.49
304.482
304.465
304.419
304.425
304.443
304.49
304.563
304.669
304.805
304.954
305.142
305.334
305.577
304.493
304.534
304.535
304.559
304.592
304.633
304.694
304.773
304.881
305.012
305.149
305.314
305.455
305.601
304.479
304.587
304.637
304.695
304.757
304.822
304.898
304.985
305.089
305.205
305.319
305.448
305.553
305.673
304.511
304.667
304.765
304.852
304.938
305.021
305.106
305.196
305.292
305.392
305.485
305.586
305.665
305.734
304.622
304.795
304.916
305.021
305.121
305.217
305.311
305.402
305.491
305.574
305.648
305.723
305.779
305.82
304.78
304.965
305.097
305.21
305.316
305.419
305.518
305.608
305.69
305.76
305.818
305.869
305.901
305.911
304.943
305.139
305.279
305.398
305.511
305.619
305.721
305.812
305.889
305.95
305.997
306.033
306.046
306.03
305.161
305.355
305.486
305.602
305.713
305.821
305.924
306.012
306.086
306.142
306.182
306.205
306.208
306.164
305.329
305.548
305.68
305.801
305.913
306.021
306.123
306.209
306.28
306.334
306.371
306.387
306.392
306.322
305.601
305.796
305.897
306.008
306.118
306.221
306.321
306.406
306.473
306.527
306.562
306.574
306.593
306.498
305.785
306.026
306.095
306.213
306.315
306.409
306.507
306.592
306.657
306.713
306.748
306.765
306.805
306.736
306.152
306.337
306.363
306.411
306.497
306.577
306.672
306.762
306.837
306.905
306.942
306.974
306.99
306.991
305.014
304.835
304.757
304.656
304.601
304.55
304.544
304.585
304.689
304.823
305.026
305.274
305.564
305.797
305.104
304.979
304.901
304.821
304.785
304.761
304.778
304.843
304.95
305.098
305.28
305.489
305.708
305.9
305.039
305.001
304.983
304.945
304.946
304.955
304.998
305.066
305.166
305.297
305.446
305.627
305.817
306.022
305.088
305.086
305.095
305.098
305.12
305.148
305.203
305.276
305.377
305.502
305.637
305.789
305.921
306.066
305.095
305.153
305.199
305.243
305.29
305.339
305.405
305.482
305.579
305.69
305.801
305.916
306.015
306.126
305.137
305.249
305.33
305.4
305.468
305.533
305.606
305.685
305.776
305.873
305.964
306.054
306.125
306.202
305.24
305.372
305.475
305.564
305.647
305.725
305.805
305.886
305.971
306.053
306.125
306.19
306.238
306.288
305.389
305.533
305.647
305.747
305.837
305.924
306.008
306.09
306.168
306.237
306.293
306.338
306.369
306.391
305.55
305.703
305.824
305.935
306.033
306.126
306.214
306.295
306.368
306.428
306.473
306.502
306.521
306.516
305.764
305.917
306.031
306.142
306.241
306.335
306.423
306.501
306.57
306.623
306.662
306.68
306.692
306.656
305.95
306.121
306.229
306.347
306.448
306.542
306.628
306.704
306.769
306.82
306.857
306.868
306.884
306.82
306.216
306.366
306.455
306.56
306.658
306.747
306.829
306.901
306.963
307.014
307.054
307.062
307.09
307.01
306.41
306.59
306.649
306.761
306.851
306.929
307.01
307.082
307.144
307.198
307.242
307.257
307.299
307.255
306.757
306.891
306.92
306.985
307.045
307.11
307.189
307.263
307.329
307.392
307.441
307.48
307.497
307.521
305.251
305.1
305.043
304.954
304.91
304.872
304.879
304.934
305.032
305.168
305.354
305.573
305.823
306.037
305.346
305.234
305.174
305.105
305.078
305.065
305.092
305.163
305.268
305.414
305.58
305.773
305.969
306.145
305.324
305.282
305.268
305.236
305.24
305.256
305.303
305.374
305.474
305.602
305.743
305.913
306.085
306.266
305.398
305.385
305.398
305.391
305.417
305.447
305.505
305.58
305.681
305.804
305.932
306.071
306.189
306.331
305.427
305.467
305.511
305.545
305.59
305.639
305.705
305.783
305.88
305.988
306.093
306.2
306.293
306.392
305.492
305.576
305.646
305.707
305.768
305.83
305.903
305.984
306.076
306.172
306.263
306.348
306.411
306.48
305.595
305.703
305.793
305.874
305.949
306.023
306.102
306.184
306.271
306.356
306.429
306.49
306.532
306.575
305.741
305.865
305.965
306.058
306.141
306.223
306.305
306.388
306.47
306.543
306.602
306.643
306.671
306.689
305.9
306.036
306.142
306.247
306.339
306.428
306.513
306.595
306.671
306.735
306.782
306.808
306.827
306.819
306.11
306.245
306.348
306.454
306.547
306.638
306.723
306.801
306.873
306.928
306.969
306.983
306.998
306.962
306.303
306.448
306.544
306.656
306.749
306.84
306.925
307
307.068
307.119
307.159
307.165
307.184
307.123
306.552
306.682
306.763
306.867
306.955
307.04
307.119
307.19
307.255
307.305
307.348
307.353
307.38
307.313
306.738
306.895
306.955
307.055
307.136
307.209
307.286
307.357
307.423
307.478
307.529
307.541
307.571
307.542
307.05
307.166
307.194
307.269
307.319
307.378
307.45
307.521
307.59
307.654
307.714
307.752
307.76
307.792
305.397
305.265
305.228
305.158
305.121
305.092
305.106
305.162
305.254
305.384
305.547
305.737
305.949
306.142
305.491
305.398
305.349
305.296
305.275
305.269
305.301
305.369
305.468
305.601
305.748
305.917
306.091
306.255
305.496
305.459
305.449
305.427
305.433
305.453
305.501
305.569
305.661
305.777
305.903
306.052
306.206
306.372
305.582
305.568
305.579
305.578
305.606
305.636
305.694
305.765
305.858
305.968
306.082
306.203
306.313
306.446
305.628
305.659
305.698
305.73
305.774
305.821
305.885
305.959
306.048
306.144
306.239
306.335
306.424
306.518
305.708
305.774
305.835
305.889
305.946
306.005
306.076
306.152
306.238
306.326
306.408
306.486
306.548
306.613
305.814
305.903
305.982
306.054
306.122
306.193
306.267
306.347
306.429
306.508
306.577
306.633
306.675
306.715
305.962
306.066
306.152
306.236
306.31
306.387
306.465
306.545
306.624
306.694
306.751
306.79
306.817
306.832
306.123
306.238
306.328
306.422
306.503
306.586
306.666
306.746
306.821
306.883
306.93
306.954
306.973
306.964
306.33
306.444
306.528
306.623
306.704
306.787
306.867
306.944
307.015
307.071
307.113
307.127
307.142
307.108
306.521
306.643
306.721
306.818
306.899
306.982
307.061
307.135
307.203
307.255
307.297
307.304
307.32
307.264
306.753
306.864
306.929
307.019
307.094
307.17
307.245
307.318
307.383
307.432
307.475
307.481
307.504
307.443
306.926
307.065
307.116
307.2
307.267
307.335
307.407
307.481
307.548
307.599
307.646
307.656
307.68
307.653
307.208
307.306
307.324
307.393
307.439
307.494
307.565
307.639
307.708
307.768
307.822
307.857
307.859
307.887
305.472
305.361
305.331
305.274
305.244
305.224
305.241
305.294
305.378
305.491
305.632
305.797
305.983
306.166
305.555
305.48
305.443
305.403
305.388
305.388
305.422
305.484
305.573
305.689
305.817
305.968
306.125
306.281
305.577
305.547
305.542
305.53
305.539
305.561
305.607
305.669
305.753
305.853
305.966
306.101
306.241
306.401
305.669
305.659
305.672
305.678
305.706
305.738
305.792
305.857
305.94
306.036
306.138
306.246
306.36
306.484
305.733
305.759
305.798
305.828
305.871
305.916
305.975
306.042
306.121
306.205
306.29
306.379
306.465
306.569
305.829
305.883
305.937
305.987
306.04
306.095
306.159
306.229
306.305
306.382
306.458
306.533
306.599
306.667
305.944
306.019
306.086
306.15
306.211
306.275
306.344
306.416
306.491
306.562
306.628
306.685
306.732
306.773
306.093
306.179
306.251
306.325
306.39
306.46
306.532
306.607
306.682
306.747
306.804
306.845
306.876
306.889
306.25
306.347
306.422
306.504
306.574
306.649
306.725
306.802
306.874
306.934
306.982
307.009
307.03
307.02
306.444
306.539
306.608
306.691
306.762
306.841
306.919
306.995
307.063
307.116
307.157
307.172
307.19
307.16
306.625
306.726
306.791
306.876
306.949
307.029
307.106
307.179
307.242
307.289
307.328
307.337
307.356
307.309
306.837
306.931
306.985
307.068
307.135
307.211
307.283
307.351
307.411
307.455
307.495
307.503
307.527
307.477
307.004
307.122
307.166
307.243
307.304
307.372
307.441
307.508
307.568
307.615
307.657
307.667
307.69
307.67
307.257
307.342
307.359
307.424
307.472
307.527
307.592
307.66
307.721
307.774
307.822
307.854
307.861
307.887
305.531
305.438
305.415
305.374
305.354
305.341
305.357
305.404
305.48
305.578
305.701
305.847
306.012
306.182
305.617
305.553
305.527
305.502
305.496
305.503
305.535
305.589
305.668
305.766
305.881
306.017
306.159
306.3
305.655
305.629
305.629
305.63
305.645
305.671
305.714
305.77
305.844
305.931
306.032
306.151
306.276
306.422
305.753
305.747
305.762
305.78
305.813
305.851
305.903
305.962
306.032
306.113
306.203
306.299
306.404
306.511
305.834
305.858
305.898
305.937
305.986
306.034
306.09
306.149
306.213
306.282
306.355
306.431
306.507
306.608
305.939
305.988
306.046
306.102
306.159
306.217
306.276
306.336
306.397
306.458
306.52
306.582
306.64
306.706
306.055
306.126
306.196
306.266
306.331
306.397
306.458
306.518
306.575
306.627
306.679
306.727
306.771
306.814
306.196
306.28
306.355
306.435
306.503
306.573
306.634
306.693
306.748
306.797
306.842
306.879
306.909
306.923
306.342
306.437
306.515
306.603
306.673
306.744
306.805
306.866
306.921
306.967
307.008
307.033
307.054
307.045
306.516
306.61
306.685
306.773
306.84
306.91
306.974
307.036
307.091
307.133
307.168
307.183
307.2
307.175
306.684
306.784
306.855
306.941
307.005
307.076
307.14
307.201
307.253
307.292
307.324
307.333
307.351
307.313
306.878
306.975
307.033
307.112
307.172
307.238
307.299
307.357
307.407
307.444
307.477
307.484
307.506
307.465
307.044
307.156
307.202
307.273
307.326
307.387
307.445
307.503
307.553
307.591
307.626
307.635
307.658
307.64
307.283
307.361
307.377
307.436
307.479
307.53
307.585
307.642
307.694
307.737
307.776
307.803
307.819
307.841
300.94
301.28
301.386
301.705
302.075
301.266
300.505
300.391
300.036
299.874
299.89
298.491
300.526
299.901
299.147
298.534
297.951
295.814
300.292
299.423
298.4
297.358
296.312
293.802
300.2
299.182
297.989
296.643
295.384
293.001
300.13
299.1
297.877
296.386
295.077
293.021
300.165
299.142
297.979
296.484
295.26
293.676
300.269
299.323
298.34
297.015
295.989
294.897
300.425
299.611
298.915
297.975
297.413
296.898
300.619
300.038
299.718
299.303
299.26
299.179
300.899
300.651
300.727
300.747
301.106
301.185
301.228
301.236
301.586
301.972
302.664
302.865
301.732
301.946
302.497
303.122
303.987
304.166
301.606
302.113
302.868
303.792
304.707
304.826
302.387
302.639
302.474
302.169
301.843
301.424
301.635
301.404
300.974
300.14
299.287
298.185
301.529
300.601
299.596
298.336
296.878
295
301.214
299.88
298.392
296.749
294.86
292.505
301.056
299.506
297.687
295.839
293.921
291.533
300.948
299.375
297.536
295.64
293.843
291.708
300.961
299.419
297.632
295.805
294.292
292.693
301.11
299.697
298.094
296.485
295.301
294.22
301.391
300.213
298.944
297.713
296.956
296.352
301.751
300.841
300.025
299.297
299.117
298.871
302.157
301.582
301.236
300.956
301.188
301.178
302.588
302.335
302.323
302.357
302.863
303.071
303.142
303.094
303.319
303.575
304.204
304.493
303.061
303.365
303.793
304.236
304.847
305.171
303.842
304.033
303.712
303.203
302.809
302.54
303.013
302.76
302.29
301.4
300.374
299.394
302.789
302.002
300.902
299.361
297.707
295.945
302.524
301.292
299.645
297.615
295.367
293.07
302.411
300.933
298.932
296.602
294.17
291.809
302.321
300.784
298.758
296.423
294.099
291.962
302.327
300.826
298.889
296.712
294.715
292.992
302.444
301.088
299.39
297.517
295.936
294.635
302.7
301.623
300.249
298.815
297.77
296.994
303.05
302.261
301.327
300.442
299.944
299.641
303.473
302.894
302.433
302.03
301.968
302.043
303.89
303.565
303.492
303.419
303.635
303.99
304.4
304.24
304.408
304.559
304.96
305.402
304.383
304.555
304.796
305.122
305.583
306.097
304.783
305.063
304.972
304.706
304.321
303.934
304.027
304.015
303.802
303.317
302.519
301.46
303.841
303.462
302.771
301.648
300.128
298.255
303.608
302.848
301.666
299.934
297.725
295.279
303.503
302.534
300.979
298.818
296.257
293.627
303.43
302.369
300.716
298.454
295.932
293.459
303.428
302.354
300.762
298.632
296.313
294.097
303.516
302.501
301.132
299.29
297.37
295.534
303.724
302.894
301.816
300.386
299.045
297.748
304.004
303.399
302.674
301.785
301.04
300.263
304.335
303.923
303.529
303.097
302.792
302.441
304.649
304.449
304.353
304.253
304.269
304.221
305.126
305.039
305.155
305.241
305.431
305.553