/*--------------------------------*- C++ -*----------------------------------*\
| =========                 |                                                 |
| \\      /  F ield         | OpenFOAM: The Open Source CFD Toolbox           |
|  \\    /   O peration     | Version:  v2106                                 |
|   \\  /    A nd           | Website:  www.openfoam.com                      |
|    \\/     M anipulation  |                                                 |
\*---------------------------------------------------------------------------*/
FoamFile
{
    version     2.0;
    format      ascii;
    arch        "LSB;label=32;scalar=64";
    class       volScalarField;
    location    "0.000191";
    object      T;
}
// * * * * * * * * * * * * * * * * * * * * * * * * * * * * * * * * * * * * * //

dimensions      [0 0 0 1 0 0 0];

internalField   nonuniform List<scalar> 
144746
(
288.238
288.396
288.379
288.517
288.761
288.931
289.095
289.131
289.087
288.886
288.482
288.156
287.959
288.054
288.116
288.307
288.47
288.715
288.984
289.152
289.3
289.343
289.292
289.1
288.675
288.284
288.008
288.114
288.373
288.563
288.81
289.087
289.334
289.482
289.594
289.626
289.567
289.375
288.963
288.498
288.082
287.899
288.728
289.004
289.288
289.56
289.752
289.87
289.929
289.942
289.87
289.676
289.297
288.819
288.355
288.021
289.16
289.47
289.739
289.971
290.131
290.226
290.259
290.257
290.164
289.95
289.579
289.109
288.639
288.236
289.533
289.833
290.081
290.273
290.412
290.492
290.518
290.503
290.396
290.164
289.789
289.334
288.872
288.444
289.771
290.059
290.301
290.488
290.618
290.692
290.709
290.68
290.556
290.313
289.925
289.476
289.027
288.572
289.858
290.16
290.419
290.617
290.756
290.83
290.843
290.794
290.652
290.39
290.007
289.541
289.064
288.622
289.888
290.178
290.448
290.666
290.81
290.892
290.906
290.85
290.699
290.423
290.026
289.546
289.054
288.603
289.756
290.081
290.398
290.645
290.809
290.903
290.925
290.869
290.711
290.421
290.01
289.496
288.964
288.515
289.512
289.852
290.217
290.529
290.735
290.856
290.897
290.837
290.666
290.343
289.887
289.323
288.768
288.338
289.223
289.443
289.856
290.235
290.527
290.699
290.772
290.718
290.524
290.157
289.66
289.075
288.58
288.2
289.098
289.055
289.416
289.818
290.155
290.385
290.474
290.432
290.225
289.826
289.296
288.719
288.306
288.012
288.962
288.765
289.001
289.278
289.615
289.85
289.967
289.934
289.752
289.387
288.918
288.559
288.517
288.293
288.37
288.51
288.62
288.798
289.038
289.145
289.271
289.266
289.157
288.871
288.379
287.901
287.411
287.354
288.565
288.793
288.972
289.163
289.36
289.474
289.562
289.549
289.412
289.108
288.603
288.091
287.619
287.476
289.046
289.291
289.493
289.664
289.799
289.879
289.916
289.874
289.714
289.398
288.902
288.365
287.827
287.426
289.557
289.827
290.025
290.158
290.237
290.267
290.262
290.201
290.037
289.737
289.274
288.73
288.157
287.631
290.062
290.31
290.442
290.529
290.557
290.558
290.533
290.46
290.305
290.03
289.603
289.059
288.486
287.953
290.375
290.59
290.691
290.737
290.743
290.733
290.701
290.619
290.473
290.226
289.85
289.375
288.853
288.337
290.534
290.733
290.826
290.859
290.852
290.828
290.787
290.702
290.559
290.319
289.964
289.515
289.047
288.558
290.582
290.791
290.896
290.933
290.924
290.886
290.833
290.748
290.598
290.356
290.018
289.608
289.15
288.685
290.521
290.761
290.893
290.958
290.966
290.929
290.867
290.771
290.605
290.351
289.997
289.577
289.12
288.666
290.395
290.671
290.855
290.954
290.982
290.949
290.877
290.773
290.586
290.307
289.91
289.455
288.991
288.551
290.129
290.484
290.741
290.91
290.959
290.933
290.857
290.736
290.517
290.189
289.733
289.217
288.728
288.307
289.859
290.198
290.549
290.755
290.848
290.843
290.772
290.629
290.366
289.985
289.481
288.933
288.445
288.065
289.651
289.871
290.221
290.472
290.617
290.646
290.575
290.404
290.084
289.649
289.116
288.574
288.143
287.786
289.475
289.515
289.773
290.022
290.213
290.282
290.209
290.027
289.662
289.209
288.716
288.334
288.167
287.966
289.225
289.445
289.537
289.617
289.699
289.721
289.677
289.543
289.258
288.803
288.201
287.539
286.911
286.629
289.73
290.09
290.218
290.236
290.253
290.219
290.14
289.983
289.69
289.225
288.598
287.925
287.287
286.904
290.44
290.763
290.849
290.83
290.792
290.693
290.56
290.366
290.067
289.613
288.985
288.289
287.597
287.03
291.014
291.258
291.295
291.267
291.176
291.033
290.868
290.656
290.36
289.927
289.341
288.663
287.943
287.268
291.425
291.559
291.571
291.503
291.376
291.208
291.03
290.815
290.537
290.147
289.623
288.991
288.293
287.607
291.669
291.737
291.721
291.617
291.465
291.279
291.094
290.884
290.627
290.28
289.819
289.248
288.61
287.972
291.778
291.836
291.797
291.678
291.511
291.313
291.122
290.918
290.677
290.365
289.954
289.448
288.874
288.281
291.822
291.885
291.842
291.716
291.542
291.335
291.14
290.94
290.708
290.411
290.022
289.553
289.027
288.479
291.809
291.896
291.873
291.762
291.589
291.38
291.178
290.975
290.74
290.443
290.06
289.598
289.08
288.533
291.755
291.888
291.896
291.813
291.649
291.442
291.232
291.019
290.771
290.461
290.076
289.604
289.06
288.488
291.615
291.839
291.906
291.846
291.698
291.501
291.282
291.053
290.787
290.458
290.057
289.549
288.95
288.316
291.465
291.735
291.86
291.837
291.716
291.528
291.299
291.05
290.758
290.4
289.971
289.426
288.793
288.121
291.323
291.6
291.777
291.784
291.696
291.519
291.277
290.986
290.637
290.227
289.722
289.135
288.556
287.917
291.114
291.312
291.519
291.581
291.546
291.403
291.155
290.823
290.404
289.939
289.407
288.926
288.545
288.036
288.442
288.663
288.444
288.461
288.422
288.926
287.553
287.703
287.454
287.606
287.401
288.204
287.505
287.504
287.121
287.23
286.942
287.723
287.546
287.311
286.887
286.997
286.694
287.531
287.734
287.388
286.973
287.061
286.716
287.602
287.948
287.511
287.119
287.171
286.84
287.581
288.102
287.755
287.432
287.502
287.286
288.011
288.21
287.943
287.731
287.929
288.015
288.809
288.249
288.109
288.026
288.414
288.876
289.947
288.242
288.176
288.199
288.781
289.485
290.75
288.191
288.197
288.333
289.032
289.841
291.06
288.132
288.165
288.3
289.037
289.869
291.002
288.201
288.217
288.288
288.878
289.486
290.455
287.957
288.015
288.1
288.578
288.848
289.548
287.615
287.79
287.64
287.706
287.614
288.07
286.832
286.9
286.654
286.853
286.581
287.415
286.967
286.769
286.366
286.458
286.071
287.044
287.11
286.713
286.278
286.228
285.849
286.739
287.418
286.929
286.447
286.306
285.915
286.665
287.77
287.19
286.624
286.439
285.993
286.702
288.021
287.504
286.949
286.803
286.36
287.095
288.172
287.709
287.256
287.236
286.939
287.629
288.205
287.848
287.55
287.713
287.616
288.497
288.157
287.874
287.674
287.989
288.059
289.196
288.007
287.768
287.659
288.125
288.401
289.66
287.829
287.619
287.546
288.02
288.479
289.616
287.698
287.57
287.488
287.91
288.326
289.269
287.214
287.093
287.153
287.619
287.893
288.626
286.87
287.092
286.925
286.702
286.607
286.427
286.155
285.983
285.749
285.679
285.327
285.595
286.32
285.862
285.445
285.219
284.664
285.144
286.551
285.913
285.371
285.003
284.312
284.768
286.915
286.22
285.576
285.093
284.362
284.69
287.318
286.602
285.812
285.142
284.303
284.604
287.642
286.959
286.122
285.423
284.592
285.187
287.869
287.178
286.382
285.763
285.061
285.564
287.933
287.284
286.63
286.22
285.74
286.467
287.888
287.287
286.814
286.643
286.413
287.438
287.754
287.235
286.944
286.999
287.057
288.273
287.635
287.203
287.001
287.151
287.434
288.442
287.543
287.212
287.073
287.264
287.558
288.451
287.042
286.764
286.663
286.963
287.325
288.086
288.609
288.769
288.492
288.353
288.173
288.571
287.819
287.894
287.507
287.614
287.306
287.964
288.05
287.804
287.165
287.166
286.714
287.578
288.295
287.754
286.993
286.783
286.249
287.176
288.697
287.939
287.087
286.705
286.063
287.009
289.004
288.108
287.137
286.621
285.942
286.811
289.173
288.253
287.247
286.717
286.051
286.822
289.209
288.299
287.378
286.845
286.227
286.767
289.119
288.358
287.604
287.209
286.664
287.249
288.95
288.354
287.82
287.605
287.257
287.954
288.777
288.4
288.142
288.184
288.013
288.643
288.684
288.499
288.409
288.562
288.537
289.262
288.769
288.749
288.706
288.929
289.096
289.456
288.528
288.582
288.679
289.133
289.482
289.803
288.11
288.192
287.969
287.857
287.632
288.023
287.51
287.515
287.114
287.203
286.851
287.572
287.841
287.503
286.891
286.833
286.346
287.274
288.137
287.539
286.801
286.501
285.911
286.822
288.595
287.849
287.004
286.507
285.784
286.628
289.041
288.236
287.262
286.522
285.763
286.365
289.437
288.599
287.518
286.716
285.902
286.479
289.604
288.778
287.724
286.97
286.176
286.626
289.697
288.883
287.919
287.311
286.616
287.123
289.593
288.856
288.097
287.711
287.191
287.845
289.417
288.868
288.398
288.259
287.975
288.593
289.249
288.87
288.6
288.609
288.513
289.32
289.244
289.023
288.858
288.957
289.015
289.586
288.935
288.754
288.69
289
289.268
289.699
288.242
288.086
287.876
287.708
287.508
287.756
287.877
287.614
287.241
287.137
286.754
287.139
288.33
287.863
287.32
286.984
286.356
286.776
288.825
288.223
287.523
286.934
286.14
286.432
289.419
288.755
287.94
287.119
286.2
286.534
289.989
289.349
288.451
287.421
286.373
286.561
290.469
289.86
288.893
287.76
286.631
286.82
290.86
290.272
289.254
288.178
287.106
287.384
291.096
290.536
289.535
288.624
287.713
288.057
291.186
290.635
289.73
289.061
288.376
288.87
291.214
290.654
289.895
289.469
289.125
289.649
291.128
290.584
290.034
289.804
289.732
290.041
290.992
290.537
290.179
290.057
290.155
290.484
290.577
290.227
290.008
290.037
290.208
290.402
290.245
289.817
289.262
288.576
288.179
288.054
289.826
289.368
288.88
288.512
288.337
288.343
289.379
288.546
288.384
288.24
288.202
288.327
288.588
287.906
288.071
288.137
288.297
288.526
287.977
287.377
287.774
288.027
288.425
288.828
287.681
287.258
287.693
288.069
288.626
289.131
287.707
287.344
287.808
288.23
288.863
289.37
288.03
287.627
288.082
288.426
289.009
289.457
288.574
287.836
288.315
288.615
289.132
289.527
289.232
288.353
288.709
288.792
289.103
289.414
289.638
288.868
289.038
288.861
289.049
289.217
290.134
289.213
289.252
288.929
289.047
288.973
290.172
289.427
289.238
288.844
288.938
288.719
290.199
289.699
289.478
289.285
289.431
289.183
289.778
289.273
288.732
288.183
287.984
288.03
289.364
288.79
288.57
288.433
288.462
288.552
288.446
287.991
288.148
288.243
288.496
288.833
287.991
287.178
287.683
288.229
288.756
289.25
287.277
286.917
287.51
288.222
289.004
289.643
286.973
286.925
287.534
288.379
289.282
289.962
287.112
287.067
287.706
288.589
289.506
290.149
287.516
287.452
288.074
288.843
289.637
290.217
288.13
287.957
288.48
289.042
289.661
290.154
288.769
288.53
288.868
289.182
289.629
290.039
289.395
288.918
289.077
289.14
289.433
289.746
289.851
289.211
289.193
289.106
289.285
289.474
289.921
289.453
289.242
289.048
289.159
289.189
289.839
289.532
289.541
289.453
289.575
289.577
287.96
288.399
288.084
288.076
288.193
288.629
287.832
288.241
288.237
288.524
288.895
289.45
286.859
287.454
287.88
288.527
289.25
290.011
286.27
286.853
287.592
288.713
289.712
290.606
285.715
286.567
287.607
289.075
290.183
291.053
285.361
286.505
287.86
289.549
290.638
291.367
285.24
286.646
288.244
289.972
290.963
291.549
285.582
287.171
288.762
290.289
291.125
291.616
286.283
287.855
289.241
290.463
291.145
291.585
287.198
288.553
289.628
290.567
291.106
291.489
288.217
289.202
289.918
290.533
290.952
291.299
289.252
289.853
290.169
290.486
290.771
291.06
290.13
290.266
290.23
290.34
290.58
290.814
290.558
290.516
290.501
290.608
290.849
291.041
290.116
289.427
288.944
288.347
288.143
288.019
290.894
289.947
289.191
288.538
288.333
288.331
291.128
290.088
289.328
288.643
288.342
288.287
291.106
289.962
289.333
288.727
288.498
288.519
290.473
289.471
289.16
288.803
288.748
288.805
289.659
288.95
288.954
288.798
288.853
288.953
289.151
288.479
288.686
288.642
288.801
288.95
289.109
288.319
288.574
288.509
288.742
288.899
289.19
288.408
288.583
288.408
288.599
288.729
289.488
288.536
288.662
288.468
288.619
288.648
289.919
288.87
288.805
288.435
288.522
288.448
290.587
289.366
289.109
288.562
288.562
288.304
290.717
289.781
289.267
288.556
288.394
288.064
290.743
290.072
289.571
289.058
289.018
288.675
289.021
288.299
287.848
287.16
286.906
286.956
289.843
288.699
288.065
287.56
287.488
287.56
289.96
288.818
288.251
287.798
287.767
287.891
289.947
288.748
288.421
288.107
288.164
288.323
289.269
288.364
288.367
288.278
288.433
288.684
288.486
287.955
288.236
288.377
288.645
288.933
287.98
287.661
288.088
288.341
288.701
288.996
288.056
287.698
288.099
288.343
288.742
289.018
288.197
287.755
288.141
288.328
288.654
288.876
288.625
288.058
288.361
288.378
288.606
288.823
289.113
288.48
288.606
288.397
288.455
288.578
289.844
289.04
288.862
288.435
288.371
288.355
290.2
289.357
288.955
288.407
288.246
288.098
290.184
289.592
289.234
288.876
288.893
288.645
287.178
286.899
286.153
285.775
285.579
285.949
287.742
287.45
286.831
286.626
286.611
286.927
287.681
287.437
287.035
286.921
286.999
287.38
287.641
287.25
287.118
287.199
287.431
287.912
286.685
286.891
287.001
287.388
287.803
288.392
285.565
286.444
286.881
287.622
288.177
288.804
285.063
286.109
286.847
287.817
288.462
289.072
285.054
286.112
286.98
288.016
288.65
289.205
285.258
286.287
287.218
288.155
288.702
289.232
285.846
286.799
287.561
288.284
288.674
289.177
286.678
287.443
287.933
288.404
288.635
289.074
287.61
288.226
288.299
288.513
288.617
288.937
288.317
288.768
288.503
288.497
288.546
288.783
288.549
288.995
288.805
288.93
289.051
289.176
291.647
291.674
291.567
291.418
291.283
291.089
290.889
290.642
290.318
289.875
289.289
288.576
287.866
287.429
291.991
292.145
292.073
291.932
291.737
291.5
291.263
290.997
290.675
290.262
289.721
289.082
288.385
287.734
292.332
292.469
292.406
292.26
292.046
291.796
291.541
291.268
290.955
290.572
290.093
289.5
288.758
287.945
292.557
292.628
292.552
292.391
292.174
291.929
291.678
291.414
291.123
290.773
290.342
289.771
289.052
288.189
292.65
292.662
292.569
292.394
292.178
291.944
291.708
291.462
291.202
290.893
290.507
289.964
289.275
288.441
292.697
292.664
292.546
292.356
292.131
291.897
291.671
291.444
291.212
290.937
290.591
290.092
289.454
288.665
292.73
292.669
292.528
292.313
292.072
291.83
291.61
291.401
291.192
290.941
290.615
290.145
289.558
288.836
292.753
292.684
292.529
292.3
292.045
291.795
291.573
291.368
291.164
290.922
290.6
290.147
289.595
288.925
292.769
292.707
292.552
292.318
292.056
291.802
291.575
291.366
291.154
290.905
290.58
290.14
289.603
288.957
292.781
292.738
292.599
292.37
292.101
291.842
291.609
291.392
291.166
290.902
290.567
290.125
289.579
288.916
292.761
292.76
292.652
292.439
292.171
291.909
291.665
291.432
291.19
290.91
290.562
290.108
289.521
288.803
292.734
292.769
292.686
292.498
292.245
291.985
291.729
291.476
291.212
290.912
290.543
290.047
289.417
288.673
292.738
292.8
292.715
292.538
292.289
292.031
291.766
291.495
291.2
290.858
290.436
289.904
289.275
288.511
292.677
292.716
292.64
292.479
292.244
292
291.742
291.462
291.13
290.736
290.277
289.779
289.282
288.579
293.002
292.946
292.818
292.587
292.353
292.079
291.796
291.511
291.213
290.87
290.41
289.778
289.027
288.393
293.2
293.226
293.107
292.887
292.633
292.343
292.039
291.734
291.427
291.115
290.755
290.278
289.592
288.751
293.315
293.314
293.205
292.996
292.746
292.469
292.18
291.891
291.603
291.318
291.01
290.588
289.912
289.031
293.352
293.302
293.179
292.978
292.743
292.484
292.213
291.941
291.679
291.425
291.151
290.751
290.102
289.232
293.344
293.256
293.103
292.894
292.663
292.417
292.168
291.923
291.695
291.47
291.213
290.832
290.227
289.408
293.336
293.21
293.026
292.793
292.549
292.306
292.074
291.859
291.664
291.462
291.22
290.852
290.276
289.51
293.342
293.195
292.981
292.719
292.454
292.201
291.976
291.778
291.603
291.42
291.185
290.825
290.272
289.555
293.367
293.205
292.971
292.689
292.406
292.143
291.915
291.718
291.542
291.358
291.114
290.756
290.225
289.555
293.4
293.236
292.99
292.697
292.405
292.135
291.902
291.698
291.509
291.306
291.043
290.679
290.161
289.537
293.435
293.281
293.033
292.734
292.435
292.163
291.926
291.714
291.509
291.282
290.996
290.619
290.105
289.488
293.456
293.327
293.088
292.791
292.496
292.222
291.978
291.751
291.526
291.279
290.978
290.583
290.06
289.407
293.472
293.354
293.121
292.841
292.557
292.29
292.04
291.798
291.554
291.285
290.967
290.549
290.022
289.33
293.499
293.393
293.16
292.886
292.602
292.336
292.084
291.83
291.565
291.273
290.92
290.484
289.95
289.228
293.482
293.347
293.12
292.869
292.598
292.345
292.1
291.846
291.569
291.244
290.857
290.418
289.908
289.167
294.197
294.053
293.863
293.626
293.363
293.055
292.708
292.354
292.017
291.689
291.333
290.876
290.316
289.718
294.243
294.122
293.945
293.722
293.464
293.16
292.816
292.455
292.105
291.779
291.482
291.152
290.686
289.962
294.199
294.064
293.887
293.673
293.432
293.153
292.839
292.502
292.172
291.874
291.611
291.31
290.839
290.103
294.127
293.959
293.768
293.555
293.324
293.067
292.779
292.47
292.171
291.901
291.658
291.37
290.918
290.2
294.051
293.86
293.647
293.416
293.176
292.921
292.653
292.378
292.119
291.882
291.659
291.38
290.942
290.26
294.003
293.793
293.55
293.291
293.029
292.766
292.506
292.256
292.028
291.821
291.618
291.344
290.915
290.268
293.988
293.758
293.485
293.196
292.91
292.635
292.378
292.141
291.931
291.74
291.541
291.268
290.847
290.24
293.99
293.744
293.447
293.134
292.831
292.546
292.287
292.055
291.85
291.658
291.449
291.164
290.745
290.171
294.004
293.748
293.436
293.108
292.794
292.504
292.245
292.012
291.799
291.594
291.363
291.06
290.64
290.09
294.02
293.757
293.435
293.104
292.788
292.499
292.241
292.005
291.782
291.557
291.301
290.979
290.552
290.013
294.03
293.774
293.452
293.12
292.806
292.519
292.259
292.017
291.784
291.543
291.266
290.926
290.487
289.934
294.016
293.767
293.451
293.133
292.834
292.558
292.303
292.055
291.808
291.547
291.249
290.893
290.443
289.854
294.018
293.776
293.466
293.16
292.868
292.594
292.336
292.08
291.821
291.543
291.227
290.859
290.414
289.786
293.983
293.705
293.403
293.114
292.838
292.58
292.339
292.092
291.834
291.551
291.227
290.855
290.389
289.742
294.85
294.686
294.5
294.293
294.04
293.729
293.364
292.976
292.585
292.222
291.877
291.524
291.161
290.676
294.819
294.652
294.455
294.251
294.018
293.734
293.394
293.008
292.604
292.229
291.903
291.622
291.302
290.774
294.709
294.526
294.321
294.116
293.898
293.641
293.33
292.976
292.603
292.255
291.955
291.688
291.368
290.82
294.608
294.395
294.174
293.952
293.727
293.477
293.19
292.871
292.541
292.229
291.955
291.696
291.377
290.855
294.525
294.292
294.047
293.799
293.553
293.293
293.014
292.719
292.425
292.153
291.911
291.667
291.354
290.859
294.477
294.225
293.952
293.674
293.401
293.124
292.843
292.56
292.292
292.049
291.831
291.598
291.292
290.81
294.454
294.181
293.88
293.574
293.277
292.985
292.698
292.422
292.171
291.945
291.738
291.506
291.198
290.724
294.445
294.149
293.823
293.493
293.178
292.875
292.587
292.316
292.074
291.854
291.642
291.399
291.075
290.607
294.443
294.124
293.776
293.43
293.104
292.797
292.51
292.244
292.004
291.78
291.553
291.288
290.942
290.476
294.426
294.093
293.732
293.381
293.057
292.755
292.474
292.212
291.969
291.733
291.482
291.19
290.823
290.358
294.4
294.065
293.702
293.354
293.037
292.744
292.468
292.206
291.958
291.71
291.437
291.12
290.736
290.264
294.34
294.005
293.655
293.328
293.031
292.754
292.488
292.23
291.977
291.715
291.423
291.084
290.691
290.197
294.276
293.959
293.635
293.332
293.046
292.775
292.513
292.256
291.993
291.715
291.406
291.063
290.665
290.145
294.158
293.833
293.525
293.249
292.993
292.754
292.522
292.277
292.015
291.73
291.417
291.067
290.647
290.106
295.336
295.152
294.958
294.761
294.526
294.239
293.893
293.502
293.093
292.697
292.333
292.004
291.718
291.329
295.216
295.034
294.83
294.632
294.415
294.157
293.843
293.473
293.069
292.666
292.299
291.986
291.712
291.314
295.077
294.866
294.646
294.44
294.229
293.993
293.71
293.374
293.001
292.623
292.282
291.993
291.721
291.353
294.967
294.733
294.496
294.267
294.038
293.795
293.521
293.209
292.871
292.531
292.222
291.953
291.694
291.34
294.89
294.637
294.374
294.118
293.864
293.603
293.324
293.021
292.707
292.4
292.124
291.877
291.632
291.291
294.849
294.573
294.285
293.999
293.718
293.435
293.144
292.842
292.543
292.261
292.01
291.781
291.539
291.196
294.829
294.528
294.211
293.896
293.592
293.291
292.989
292.688
292.4
292.135
291.898
291.677
291.427
291.071
294.809
294.479
294.135
293.798
293.478
293.165
292.859
292.561
292.282
292.029
291.795
291.567
291.298
290.928
294.778
294.419
294.054
293.702
293.372
293.055
292.75
292.459
292.186
291.937
291.698
291.453
291.159
290.779
294.716
294.339
293.965
293.611
293.284
292.974
292.677
292.394
292.125
291.872
291.618
291.348
291.024
290.63
294.63
294.251
293.881
293.536
293.222
292.926
292.641
292.365
292.097
291.837
291.562
291.264
290.913
290.502
294.505
294.14
293.793
293.474
293.186
292.912
292.645
292.379
292.111
291.839
291.541
291.212
290.848
290.422
294.388
294.058
293.739
293.443
293.174
292.916
292.66
292.401
292.13
291.843
291.525
291.182
290.816
290.377
294.209
293.887
293.605
293.353
293.123
292.901
292.675
292.429
292.159
291.865
291.541
291.2
290.805
290.338
295.638
295.451
295.258
295.062
294.839
294.58
294.273
293.912
293.518
293.119
292.735
292.402
292.111
291.792
295.48
295.29
295.083
294.884
294.67
294.432
294.154
293.825
293.453
293.059
292.68
292.341
292.06
291.756
295.348
295.121
294.891
294.673
294.457
294.231
293.976
293.677
293.335
292.968
292.612
292.293
292.03
291.762
295.246
294.999
294.745
294.503
294.267
294.028
293.771
293.483
293.164
292.825
292.498
292.206
291.96
291.709
295.183
294.914
294.635
294.364
294.101
293.84
293.57
293.28
292.97
292.653
292.354
292.091
291.861
291.622
295.15
294.855
294.545
294.245
293.959
293.676
293.388
293.087
292.779
292.477
292.2
291.961
291.739
291.499
295.122
294.793
294.458
294.134
293.828
293.527
293.224
292.915
292.608
292.318
292.057
291.831
291.61
291.353
295.07
294.711
294.356
294.017
293.699
293.388
293.077
292.765
292.461
292.181
291.929
291.703
291.469
291.183
294.985
294.602
294.237
293.891
293.569
293.254
292.942
292.632
292.335
292.062
291.811
291.573
291.315
291.009
294.857
294.468
294.108
293.768
293.452
293.141
292.834
292.532
292.242
291.97
291.709
291.45
291.159
290.83
294.704
294.327
293.984
293.662
293.361
293.063
292.769
292.476
292.189
291.912
291.632
291.346
291.022
290.673
294.525
294.179
293.868
293.578
293.305
293.031
292.757
292.478
292.194
291.907
291.6
291.284
290.936
290.567
294.381
294.072
293.786
293.522
293.274
293.025
292.766
292.494
292.21
291.911
291.587
291.245
290.898
290.515
294.174
293.89
293.653
293.436
293.228
293.016
292.784
292.53
292.25
291.946
291.611
291.266
290.901
290.485
295.852
295.652
295.452
295.252
295.035
294.797
294.532
294.226
293.883
293.518
293.153
292.81
292.541
292.243
295.696
295.487
295.27
295.058
294.842
294.614
294.365
294.081
293.762
293.414
293.059
292.727
292.457
292.181
295.583
295.34
295.092
294.856
294.628
294.401
294.165
293.904
293.608
293.281
292.946
292.638
292.39
292.149
295.503
295.237
294.961
294.698
294.446
294.203
293.957
293.697
293.412
293.104
292.794
292.511
292.281
292.066
295.451
295.16
294.859
294.566
294.289
294.025
293.763
293.491
293.203
292.904
292.615
292.358
292.151
291.956
295.405
295.083
294.754
294.441
294.146
293.864
293.583
293.293
292.996
292.702
292.428
292.193
292.001
291.812
295.336
294.985
294.639
294.313
294.009
293.713
293.416
293.111
292.805
292.514
292.252
292.029
291.843
291.648
295.226
294.855
294.504
294.174
293.867
293.564
293.256
292.943
292.634
292.346
292.09
291.87
291.673
291.461
295.078
294.699
294.353
294.026
293.721
293.414
293.103
292.788
292.481
292.198
291.944
291.716
291.494
291.253
294.898
294.529
294.199
293.883
293.584
293.278
292.968
292.657
292.356
292.075
291.815
291.568
291.311
291.039
294.711
294.363
294.058
293.763
293.476
293.177
292.874
292.569
292.27
291.984
291.706
291.434
291.143
290.847
294.515
294.204
293.933
293.669
293.405
293.127
292.84
292.546
292.248
291.952
291.648
291.344
291.021
290.704
294.365
294.083
293.838
293.602
293.365
293.114
292.845
292.559
292.261
291.955
291.63
291.304
290.969
290.632
294.154
293.912
293.718
293.521
293.319
293.105
292.865
292.601
292.315
292.008
291.674
291.324
290.976
290.595
296.034
295.833
295.628
295.42
295.199
294.962
294.715
294.447
294.156
293.845
293.527
293.217
292.954
292.665
295.907
295.689
295.461
295.229
294.998
294.764
294.523
294.266
293.99
293.694
293.387
293.094
292.843
292.597
295.818
295.565
295.305
295.049
294.8
294.558
294.322
294.078
293.817
293.535
293.243
292.968
292.736
292.532
295.752
295.473
295.185
294.902
294.632
294.374
294.127
293.878
293.619
293.345
293.068
292.814
292.603
292.425
295.69
295.386
295.07
294.766
294.48
294.21
293.949
293.686
293.416
293.141
292.875
292.641
292.453
292.296
295.597
295.269
294.94
294.628
294.335
294.056
293.78
293.5
293.217
292.937
292.678
292.46
292.289
292.138
295.464
295.122
294.79
294.479
294.188
293.903
293.617
293.322
293.026
292.743
292.49
292.28
292.116
291.959
295.295
294.948
294.623
294.32
294.033
293.745
293.451
293.147
292.845
292.563
292.312
292.105
291.932
291.762
295.102
294.76
294.449
294.155
293.873
293.584
293.284
292.977
292.675
292.395
292.146
291.931
291.736
291.536
294.9
294.574
294.282
294
293.721
293.43
293.127
292.821
292.521
292.244
291.991
291.76
291.538
291.31
294.708
294.406
294.136
293.87
293.597
293.306
293.003
292.696
292.394
292.111
291.844
291.592
291.338
291.089
294.518
294.252
294.011
293.768
293.509
293.228
292.931
292.628
292.326
292.034
291.745
291.465
291.179
290.911
294.367
294.121
293.907
293.689
293.454
293.199
292.92
292.625
292.32
292.013
291.7
291.394
291.081
290.787
294.165
293.959
293.789
293.6
293.399
293.179
292.932
292.661
292.369
292.066
291.743
291.409
291.07
290.725
296.218
296.037
295.839
295.629
295.399
295.155
294.906
294.652
294.398
294.135
293.867
293.597
293.353
293.078
296.12
295.909
295.68
295.441
295.195
294.945
294.699
294.452
294.207
293.953
293.694
293.44
293.218
292.995
296.041
295.791
295.532
295.268
295.005
294.748
294.505
294.268
294.032
293.787
293.536
293.297
293.088
292.912
295.964
295.686
295.397
295.112
294.836
294.573
294.323
294.082
293.843
293.599
293.357
293.133
292.945
292.796
295.855
295.558
295.255
294.963
294.683
294.418
294.163
293.912
293.661
293.41
293.169
292.959
292.791
292.661
295.706
295.399
295.095
294.808
294.535
294.271
294.009
293.746
293.482
293.221
292.981
292.78
292.625
292.502
295.522
295.213
294.918
294.644
294.383
294.121
293.854
293.58
293.306
293.038
292.799
292.603
292.453
292.325
295.316
295.013
294.733
294.472
294.219
293.959
293.687
293.406
293.125
292.858
292.619
292.426
292.27
292.129
295.105
294.814
294.55
294.299
294.05
293.789
293.514
293.228
292.946
292.682
292.444
292.246
292.074
291.905
294.903
294.627
294.378
294.135
293.885
293.619
293.339
293.052
292.769
292.509
292.272
292.063
291.868
291.673
294.725
294.468
294.232
293.995
293.743
293.471
293.183
292.892
292.604
292.344
292.102
291.877
291.654
291.442
294.566
294.332
294.11
293.885
293.633
293.363
293.074
292.783
292.494
292.224
291.96
291.713
291.464
291.235
294.428
294.205
294.002
293.797
293.564
293.312
293.036
292.751
292.458
292.174
291.885
291.605
291.322
291.069
294.251
294.046
293.881
293.699
293.496
293.273
293.027
292.767
292.487
292.202
291.898
291.595
291.284
290.952
291.658
291.586
291.643
292.013
293.176
294.582
291.147
290.931
290.815
291.193
292.378
293.564
291.079
290.838
290.751
290.916
291.518
291.952
290.889
290.585
290.397
290.331
290.459
290.159
290.788
290.396
290.047
289.687
289.296
288.573
290.618
290.161
289.653
289.013
288.314
287.336
290.432
289.909
289.248
288.354
287.5
286.428
290.179
289.584
288.824
287.785
286.995
286.013
289.833
289.159
288.396
287.436
286.929
286.142
289.359
288.616
287.963
287.304
287.259
286.9
288.807
288.092
287.647
287.316
287.708
288.001
288.186
287.571
287.329
287.26
287.896
288.72
287.615
287.13
287.033
287.189
288.001
288.923
286.63
286.11
286.146
286.545
287.445
288.209
292.958
292.842
292.715
292.792
293.245
294.154
292.513
292.209
291.96
292.178
292.794
293.573
292.434
292.156
292.002
292.118
292.371
292.592
292.19
291.875
291.684
291.646
291.617
291.249
291.997
291.655
291.381
291.134
290.727
289.77
291.734
291.353
290.975
290.489
289.687
288.33
291.456
291.03
290.533
289.785
288.68
287.278
291.158
290.665
290.029
289.048
287.849
286.711
290.831
290.243
289.474
288.387
287.366
286.68
290.425
289.7
288.851
287.859
287.257
287.076
289.904
289.044
288.246
287.532
287.432
287.758
289.214
288.319
287.688
287.268
287.548
288.173
288.469
287.672
287.271
287.141
287.647
288.346
287.505
286.7
286.401
286.528
287.131
287.769
294.21
294.155
294.066
294.006
294.081
294.445
293.861
293.695
293.569
293.544
293.781
294.151
293.744
293.594
293.505
293.484
293.602
293.755
293.455
293.296
293.158
293.104
293.077
292.861
293.165
292.992
292.785
292.642
292.373
291.64
292.824
292.621
292.33
292.042
291.464
290.272
292.465
292.225
291.847
291.368
290.484
289.045
292.111
291.817
291.343
290.642
289.523
288.15
291.769
291.394
290.817
289.919
288.763
287.686
291.407
290.917
290.223
289.224
288.242
287.584
290.989
290.351
289.584
288.637
288.018
287.764
290.424
289.645
288.882
288.123
287.877
287.941
289.79
288.901
288.223
287.721
287.774
288.005
288.944
288.001
287.381
287.071
287.279
287.494
294.961
294.917
294.776
294.647
294.516
294.518
294.701
294.659
294.511
294.446
294.438
294.556
294.548
294.488
294.395
294.364
294.398
294.507
294.295
294.217
294.125
294.086
294.099
294.064
294.001
293.892
293.77
293.681
293.595
293.197
293.647
293.494
293.315
293.138
292.847
292.03
293.246
293.06
292.82
292.522
291.976
290.823
292.825
292.623
292.322
291.889
291.097
289.746
292.42
292.201
291.836
291.258
290.249
288.906
292.046
291.778
291.322
290.566
289.437
288.289
291.676
291.313
290.75
289.839
288.775
287.914
291.244
290.714
290.032
289.051
288.219
287.691
290.787
290.063
289.287