/*--------------------------------*- C++ -*----------------------------------*\
| =========                 |                                                 |
| \\      /  F ield         | OpenFOAM: The Open Source CFD Toolbox           |
|  \\    /   O peration     | Version:  v2106                                 |
|   \\  /    A nd           | Website:  www.openfoam.com                      |
|    \\/     M anipulation  |                                                 |
\*---------------------------------------------------------------------------*/
FoamFile
{
    version     2.0;
    format      ascii;
    arch        "LSB;label=32;scalar=64";
    class       volScalarField;
    location    "0.000191";
    object      Ttot;
}
// * * * * * * * * * * * * * * * * * * * * * * * * * * * * * * * * * * * * * //

dimensions      [0 0 0 1 0 0 0];

internalField   nonuniform List<scalar> 
144746
(
293.941
294.011
294.406
295.101
295.711
295.984
296.112
295.748
294.84
293.527
292.168
291.295
291.149
292.05
293.467
294.037
294.533
295.221
295.814
296.117
296.294
296.159
295.596
294.574
293.247
292.1
291.521
291.896
294.012
294.682
295.218
295.767
296.192
296.413
296.551
296.49
296.128
295.371
294.22
292.976
292.07
292.05
294.929
295.609
296.047
296.418
296.656
296.786
296.836
296.775
296.507
295.954
295.063
293.981
293.077
292.8
295.943
296.432
296.707
296.925
297.053
297.119
297.115
297.039
296.798
296.341
295.621
294.731
293.945
293.556
296.743
297.003
297.163
297.272
297.334
297.349
297.313
297.221
296.994
296.581
295.964
295.24
294.555
294.017
297.177
297.314
297.425
297.492
297.517
297.5
297.441
297.33
297.101
296.722
296.158
295.507
294.85
294.17
297.276
297.412
297.539
297.608
297.624
297.588
297.517
297.383
297.145
296.776
296.251
295.606
294.892
294.05
297.237
297.371
297.527
297.623
297.642
297.607
297.53
297.385
297.141
296.765
296.243
295.574
294.748
293.624
296.951
297.145
297.4
297.55
297.601
297.58
297.508
297.359
297.101
296.699
296.143
295.36
294.309
292.94
296.402
296.716
297.103
297.363
297.487
297.512
297.457
297.298
297.005
296.536
295.854
294.862
293.622
292.184
295.7
296.01
296.558
296.965
297.223
297.332
297.322
297.157
296.799
296.2
295.336
294.13
292.904
291.663
295.228
295.412
295.94
296.439
296.8
297.001
297.02
296.844
296.408
295.669
294.624
293.303
292.254
291.419
295.263
294.846
295.194
295.656
296.154
296.428
296.534
296.403
295.981
295.223
294.111
292.988
292.393
292.276
294.441
294.506
295.048
295.716
296.307
296.559
296.68
296.386
295.68
294.57
293.256
292.162
291.472
291.79
294.567
295.076
295.534
296.044
296.509
296.744
296.872
296.733
296.271
295.424
294.279
293.087
292.132
291.746
295.28
295.853
296.266
296.622
296.901
297.039
297.111
297.015
296.68
296.028
295.076
293.944
292.888
292.285
296.092
296.628
296.93
297.15
297.293
297.336
297.343
297.25
296.988
296.497
295.749
294.803
293.853
293.182
296.829
297.214
297.365
297.497
297.549
297.546
297.513
297.406
297.181
296.795
296.195
295.414
294.63
294.029
297.272
297.501
297.589
297.648
297.658
297.63
297.575
297.455
297.254
296.93
296.458
295.859
295.23
294.621
297.482
297.614
297.677
297.698
297.686
297.638
297.568
297.446
297.254
296.95
296.539
296.02
295.48
294.864
297.524
297.638
297.687
297.69
297.672
297.61
297.528
297.41
297.218
296.924
296.542
296.095
295.566
294.895
297.411
297.552
297.611
297.64
297.634
297.581
297.495
297.371
297.165
296.862
296.461
296.002
295.422
294.587
297.191
297.404
297.521
297.578
297.585
297.545
297.447
297.317
297.088
296.755
296.29
295.742
295.036
294.004
296.721
297.09
297.333
297.498
297.532
297.5
297.396
297.243
296.971
296.575
296.017
295.3
294.415
293.248
296.176
296.654
297.077
297.299
297.386
297.382
297.297
297.114
296.778
296.29
295.593
294.69
293.688
292.598
295.685
296.183
296.67
296.999
297.18
297.208
297.114
296.884
296.455
295.853
295.01
293.958
292.982
292.1
295.634
295.676
296.034
296.408
296.698
296.826
296.759
296.531
296.066
295.404
294.452
293.397
292.584
292.47
295.817
295.935
296.088
296.271
296.442
296.462
296.376
296.137
295.696
294.923
293.875
292.746
291.734
291.42
296.202
296.592
296.758
296.815
296.867
296.82
296.728
296.526
296.175
295.529
294.628
293.591
292.494
291.524
296.908
297.291
297.363
297.324
297.286
297.165
297.028
296.826
296.531
295.992
295.179
294.16
293.059
291.994
297.462
297.741
297.727
297.665
297.554
297.385
297.224
297.021
296.749
296.278
295.591
294.706
293.709
292.69
297.862
297.956
297.912
297.799
297.648
297.452
297.278
297.077
296.826
296.426
295.865
295.132
294.281
293.379
298.064
298.048
297.971
297.813
297.638
297.425
297.245
297.046
296.81
296.46
295.987
295.366
294.665
293.894
298.098
298.069
297.962
297.791
297.606
297.381
297.195
296.993
296.765
296.449
296.038
295.509
294.908
294.22
298.107
298.06
297.93
297.742
297.552
297.325
297.134
296.928
296.699
296.389
296.001
295.514
294.975
294.352
298.048
298.011
297.892
297.717
297.525
297.301
297.102
296.89
296.652
296.341
295.949
295.466
294.929
294.296
297.95
297.945
297.849
297.704
297.518
297.3
297.095
296.875
296.62
296.3
295.883
295.375
294.784
294.086
297.727
297.816
297.786
297.675
297.501
297.304
297.095
296.871
296.601
296.259
295.805
295.239
294.551
293.686
297.478
297.619
297.666
297.597
297.444
297.268
297.06
296.831
296.54
296.159
295.655
294.989
294.23
293.225
297.216
297.423
297.547
297.492
297.377
297.216
296.998
296.732
296.388
295.944
295.339
294.557
293.784
292.805
297.082
297.134
297.186
297.169
297.123
297.025
296.823
296.531
296.132
295.622
294.901
294.091
293.368
292.935
293.147
293.904
293.966
294.29
294.308
294.876
291.795
292.646
292.756
293.343
293.341
294.28
292.159
292.809
292.613
293.021
292.74
293.542
292.485
292.545
292.124
292.422
292.097
292.986
293.023
292.699
292.046
292.147
291.69
292.621
293.261
292.476
291.603
291.587
291.204
292.029
293.168
292.113
291.262
291.347
291.166
291.964
292.771
291.563
290.93
291.302
291.523
292.403
292.157
291.115
290.859
291.635
292.375
293.58
291.546
290.834
290.973
292.133
293.232
294.643
291.131
290.85
291.375
292.757
293.979
295.341
291.126
291.202
291.889
293.371
294.547
295.769
291.594
291.857
292.574
293.922
294.796
295.822
291.876
292.508
293.263
294.358
294.774
295.48
292.129
292.562
292.653
293.121
292.963
293.47
291.149
291.606
291.573
292.233
292.017
293.018
292.002
292.095
291.727
291.998
291.468
292.437
292.658
292.259
291.642
291.518
290.924
291.78
293.413
292.751
291.818
291.372
290.642
291.297
293.848
292.854
291.522
290.88
290.137
290.846
293.957
292.677
291.178
290.629
290.017
290.791
293.731
292.177
290.743
290.46
290.153
290.921
293.195
291.598
290.477
290.633
290.678
291.696
292.534
291.099
290.33
290.89
291.206
292.518
291.9
290.765
290.366
291.262
291.826
293.252
291.557
290.761
290.629
291.613
292.338
293.615
291.516
291.048
291.067
292.055
292.761
293.784
291.211
291.06
291.459
292.523
292.958
293.669
291.095
291.305
291.279
291.554
291.857
291.732
290.246
290.085
290.032
290.498
290.544
291.03
290.946
290.469
290.257
290.392
289.93
290.361
291.695
290.892
290.352
290.057
289.26
289.579
292.483
291.576
290.759
290.054
288.923
289.018
293.045
292.044
290.814
289.571
288.266
288.435
293.388
292.3
290.756
289.295
288.038
288.584
293.529
292.226
290.487
289.039
288.026
288.515
293.391
291.906
290.171
289.02
288.375
289.208
293.054
291.448
289.886
289.146
288.952
290.157
292.569
291.01
289.733
289.449
289.749
291.135
292.198
290.83
289.812
289.838
290.463
291.63
291.893
290.843
290.095
290.32
291.033
292.091
291.367
290.494
290.066
290.676
291.479
292.271
293.085
294
294.257
294.635
294.525
294.98
291.923
292.823
293.064
293.883
293.88
294.793
292.748
293.287
293.163
293.742
293.367
294.374
293.537
293.431
292.941
293.18
292.683
293.761
294.586
294.08
293.24
293.055
292.297
293.318
295.216
294.353
293.112
292.544
291.68
292.671
295.573
294.546
293.039
292.284
291.364
292.24
295.625
294.329
292.688
291.849
291.033
291.704
295.405
293.993
292.45
291.836
291.187
291.909
295
293.606
292.383
292.113
291.82
292.637
294.566
293.451
292.71
292.911
292.861
293.62
294.372
293.639
293.326
293.798
293.888
294.66
294.512
294.249
294.19
294.841
295.255
295.383
294.417
294.552
294.911
295.863
296.489
296.398
292.261
292.692
292.811
293.24
293.102
293.548
291.64
291.972
291.91
292.632
292.56
293.532
292.796
292.681
292.28
292.67
292.258
293.316
293.733
293.113
292.347
292.259
291.666
292.644
294.741
293.89
292.813
292.281
291.393
292.157
295.405
294.424
293.037
292.016
290.985
291.488
295.868
294.836
293.19
291.933
290.722
291.204
296.027
294.87
293.023
291.693
290.537
290.945
296.065
294.697
292.771
291.618
290.638
291.175
295.781
294.326
292.599
291.782
291.126
291.865
295.389
294.099
292.798
292.384
292.087
292.805
295.07
294.084
293.217
293.127
293.034
293.781
294.984
294.378
293.81
293.916
294.157
294.433
294.673
294.243
294.049
294.6
295.184
295.103
292.537
291.945
291.653
291.837
292.055
292.397
292.149
291.515
291.037
291.38
291.446
292.082
293.176
292.398
291.765
291.772
291.393
291.915
294.124
293.258
292.372
291.822
291.084
291.377
295.011
294.149
293.114
292.129
291.023
291.19
295.666
294.861
293.725
292.416
290.975
290.854
296.124
295.382
294.17
292.637
290.9
290.777
296.47
295.753
294.421
292.852
291.087
291.01
296.636
295.937
294.511
293.024
291.439
291.44
296.658
295.929
294.52
293.27
292.042
292.215
296.728
295.937
294.652
293.692
292.936
293.099
296.73
295.963
294.979
294.315
294.006
293.669
296.728
296.113
295.384
294.892
294.865
294.438
296.357
295.929
295.456
295.281
295.457
294.824
296.786
296.681
295.924
294.804
294.013
293.544
295.676
295.449
294.727
293.938
293.507
293.509
294.737
293.941
293.621
293.137
293.053
293.534
293.648
292.836
292.897
292.85
293.278
294.138
292.888
292.157
292.679
293.105
294.052
295.158
292.843
292.364
293.132
293.882
295.087
296.124
293.364
293.121
294.123
294.946
296.085
296.772
294.345
294.235
295.318
295.825
296.604
296.946
295.549
295.108
296.098
296.333
296.839
296.999
296.838
296.149
296.811
296.612
296.743
296.759
297.645
296.785
297.023
296.444
296.357
296.196
298.414
297.236
297.222
296.35
296.059
295.518
298.208
297.167
296.777
295.737
295.411
294.705
297.601
297.073
296.783
296.147
296.02
295.278
295.448
295.633
294.631
293.735
293.464
293.656
294.514
294.332
293.711
293.437
293.66
294.135
293.141
293.036
292.895
292.942
293.61
294.57
292.442
291.722
292.17
292.919
294.076
295.294
291.596
291.325
292.133
293.308
294.791
296.077
291.443
291.693
292.667
294.081
295.607
296.714
291.915
292.475
293.565
294.956
296.288
297.117
292.758
293.561
294.608
295.666
296.636
297.25
293.86
294.611
295.405
296.036
296.679
297.144
294.918
295.602
295.995
296.182
296.564
296.897
295.907
295.987
296.045
295.894
296.086
296.321
296.598
296.162
295.981
295.573
295.601
295.709
296.366
295.99
295.544
294.952
294.974
294.965
295.834
295.826
295.602
295.257
295.381
295.364
293.233
294.597
293.848
293.914
294.322
295.002
292.488
293.827
293.541
294.136
294.929
295.816
291.133
292.735
292.958
294.013
295.196
296.328
290.304
291.801
292.622
294.291
295.752
296.996
289.757
291.441
292.813
294.936
296.41
297.506
289.589
291.597
293.371
295.723
297.042
297.814
289.815
292.173
294.133
296.431
297.496
297.991
290.514
293.235
295.011
296.923
297.736
298.071
291.531
294.388
295.748
297.185
297.756
298.009
292.74
295.389
296.282
297.317
297.701
297.876
293.891
296.034
296.475
297.094
297.378
297.554
294.841
296.521
296.495
296.76
296.986
297.135
295.417
296.299
296.033
296.123
296.433
296.609
295.484
296.099
296.121
296.327
296.682
296.847
295.697
295.057
294.47
293.469
292.779
292.094
296.071
295.114
294.149
292.943
292.168
291.772
295.875
294.756
293.679
292.413
291.57
291.279
295.487
294.217
293.21
292.047
291.448
291.608
294.599
293.444
292.842
292.105
291.998
292.61
293.865
293.019
292.896
292.62
292.973
293.893
293.798
293.039
293.34
293.448
294.156
295.054
294.407
293.744
294.399
294.598
295.318
295.781
295.26
294.812
295.587
295.482
295.868
295.857
296.268
295.775
296.491
296.113
296.175
295.8
297.263
296.452
296.707
295.99
295.846
295.289
298.444
297.179
297.057
296.047
295.667
294.685
298.574
297.438
296.842
295.564
294.896
293.863
298.031
297.398
296.918
295.986
295.61
294.75
293.994
293.528
292.918
291.72
291.138
291.044
294.486
293.369
292.467
291.402
291.145
291.295
294.246
293.045
292.16
291.179
291.076
291.543
293.903
292.561
291.878
291.18
291.439
292.306
293.072
291.996
291.749
291.571
292.244
293.489
292.373
291.753
291.969
292.392
293.434
294.777
292.203
292.005
292.649
293.481
294.667
295.769
292.762
293.019
293.879
294.703
295.702
296.371
293.478
294.086
294.966
295.451
296.044
296.351
294.526
295.095
295.79
295.804
296.027
296.232
295.498
295.818
296.03
295.601
295.535
295.627
296.625
296.362
296.161
295.37
295.02
294.859
296.999
296.343
295.76
294.723
294.259
293.925
296.442
296.391
295.732
294.992
294.867
294.523
292.079
291.829
290.62
289.768
289.511
290.228
292.097
291.685
290.58
290.113
290.326
291.233
291.584
291.237
290.427
290.221
290.75
291.979
291.212
290.684
290.319
290.601
291.511
292.935
290.325
290.414
290.487
291.36
292.545
294.033
289.407
290.467
290.978
292.45
293.695
294.995
289.24
290.9
291.84
293.614
294.709
295.651
289.769
291.803
292.916
294.62
295.428
296.023
290.564
292.855
293.875
295.198
295.748
296.16
291.752
294.024
294.66
295.534
295.817
296.119
293.159
294.605
294.953
295.454
295.598
295.884
294.275
295.46
295.207
295.306
295.357
295.562
294.666
295.587
294.919
294.738
294.907
295.129
294.368
295.46
294.944
295.105
295.423
295.598
297.667
297.646
297.552
297.386
297.27
297.049
296.849
296.594
296.286
295.799
295.069
294.146
293.226
292.747
297.963
298.071
297.967
297.797
297.596
297.334
297.09
296.812
296.51
296.097
295.531
294.807
293.941
292.995
298.21
298.317
298.199
298.018
297.79
297.52
297.253
296.974
296.695
296.33
295.876
295.263
294.42
293.361
298.338
298.363
298.242
298.051
297.821
297.557
297.296
297.029
296.771
296.444
296.059
295.515
294.763
293.738
298.316
298.287
298.168
297.969
297.743
297.491
297.249
297.008
296.785
296.506
296.171
295.657
294.97
294.065
298.258
298.19
298.06
297.849
297.618
297.369
297.143
296.927
296.73
296.488
296.184
295.71
295.08
294.232
298.209
298.109
297.961
297.731
297.491
297.239
297.023
296.826
296.645
296.421
296.125
295.669
295.088
294.316
298.177
298.053
297.885
297.641
297.393
297.137
296.923
296.726
296.541
296.316
296.01
295.559
294.996
294.272
298.134
298.009
297.833
297.587
297.331
297.076
296.858
296.655
296.454
296.217
295.899
295.453
294.896
294.191
298.09
297.977
297.807
297.569
297.305
297.047
296.824
296.611
296.393
296.14
295.803
295.348
294.772
294.045
298.004
297.926
297.781
297.561
297.293
297.039
296.81
296.588
296.356
296.087
295.732
295.266
294.636
293.828
297.923
297.866
297.739
297.54
297.283
297.037
296.8
296.566
296.318
296.028
295.648
295.122
294.438
293.55
297.866
297.832
297.687
297.482
297.225
296.991
296.754
296.515
296.245
295.912
295.479
294.908
294.213
293.259
297.765
297.69
297.518
297.327
297.091
296.88
296.656
296.419
296.118
295.731
295.231
294.644
294.056
293.37
298.179
298.124
298.026
297.797
297.591
297.342
297.095
296.842
296.578
296.241
295.758
295.037
294.172
293.462
298.364
298.382
298.28
298.065
297.834
297.564
297.279
296.983
296.702
296.404
296.066
295.575
294.824
293.836
298.421
298.42
298.329
298.133
297.906
297.647
297.37
297.087
296.825
296.557
296.283
295.878
295.182
294.192
298.406
298.355
298.26
298.075
297.862
297.618
297.356
297.086
296.846
296.612
296.373
296.005
295.353
294.4
298.341
298.263
298.15
297.956
297.747
297.512
297.27
297.029
296.822
296.617
296.391
296.036
295.434
294.568
298.284
298.178
298.037
297.819
297.597
297.362
297.139
296.928
296.749
296.565
296.344
295.993
295.415
294.613
298.254
298.125
297.954
297.706
297.462
297.22
297.004
296.809
296.645
296.474
296.251
295.9
295.342
294.597
298.239
298.094
297.898
297.629
297.368
297.117
296.898
296.703
296.531
296.351
296.112
295.754
295.21
294.517
298.209
298.07
297.859
297.582
297.312
297.057
296.833
296.63
296.442
296.238
295.972
295.601
295.07
294.437
298.161
298.044
297.833
297.558
297.281
297.026
296.799
296.587
296.381
296.153
295.861
295.471
294.944
294.326
298.086
297.995
297.795
297.536
297.266
297.017
296.786
296.564
296.338
296.09
295.784
295.379
294.846
294.176
298.001
297.918
297.726
297.501
297.25
297.01
296.778
296.545
296.302
296.033
295.707
295.277
294.738
293.981
297.925
297.842
297.653
297.442
297.198
296.965
296.734
296.502
296.25
295.963
295.598
295.146
294.579
293.749
297.85
297.715
297.537
297.345
297.117
296.899
296.676
296.448
296.182
295.86
295.458
294.966
294.383
293.615
298.679
298.58
298.459
298.288
298.073
297.807
297.5
297.18
296.88
296.568
296.222
295.739
295.127
294.491
298.734
298.655
298.549
298.386
298.172
297.907
297.597
297.258
296.935
296.624
296.348
296.025
295.543
294.762
298.689
298.601
298.497
298.335
298.136
297.892
297.608
297.289
296.984
296.697
296.457
296.175
295.697
294.921
298.615
298.499
298.378
298.209
298.019
297.793
297.532
297.24
296.962
296.704
296.48
296.209
295.758
295.012
298.525
298.393
298.249
298.062
297.862
297.636
297.392
297.133
296.891
296.666
296.464
296.198
295.763
295.063
298.46
298.311
298.137
297.92
297.698
297.461
297.226
296.993
296.779
296.582
296.396
296.134
295.709
295.044
298.427
298.256
298.046
297.798
297.553
297.305
297.072
296.854
296.657
296.473
296.289
296.026
295.609
294.986
298.395
298.209
297.972
297.7
297.437
297.18
296.947
296.735
296.54
296.353
296.154
295.876
295.459
294.871
298.353
298.162
297.909
297.625
297.354
297.095
296.863
296.65
296.446
296.244
296.018
295.718
295.301
294.742
298.293
298.103
297.845
297.564
297.293
297.039
296.808
296.591
296.376
296.155
295.901
295.582
295.157
294.611
298.213
298.031
297.778
297.509
297.245
296.998
296.767
296.544
296.318
296.083
295.808
295.474
295.034
294.474
298.098
297.927
297.687
297.447
297.206
296.976
296.751
296.52
296.277
296.017
295.717
295.365
294.907
294.306
298.017
297.845
297.613
297.392
297.164
296.937
296.708
296.475
296.224
295.949
295.627
295.253
294.802
294.133
297.922
297.699
297.477
297.274
297.068
296.861
296.647
296.42
296.162
295.876
295.54
295.145
294.667
294.023
298.865
298.757
298.655
298.526
298.336
298.079
297.763
297.415
297.07
296.733
296.402
296.044
295.648
295.147
298.852
298.744
298.628
298.495
298.323
298.093
297.804
297.456
297.092
296.739
296.431
296.155
295.822
295.266
298.767
298.651
298.532
298.389
298.227
298.02
297.754
297.431
297.089
296.758
296.477
296.222
295.895
295.334
298.683
298.545
298.408
298.242
298.07
297.866
297.62
297.332
297.029
296.731
296.474
296.226
295.907
295.38
298.61
298.457
298.295
298.102
297.907
297.689
297.447
297.179
296.912
296.654
296.433
296.2
295.896
295.4
298.564
298.392
298.199
297.976
297.755
297.517
297.27
297.014
296.772
296.544
296.346
296.127
295.835
295.353
298.535
298.342
298.115
297.863
297.617
297.363
297.111
296.861
296.635
296.424
296.237
296.023
295.732
295.264
298.503
298.289
298.034
297.759
297.493
297.227
296.973
296.729
296.512
296.308
296.116
295.892
295.583
295.126
298.458
298.227
297.95
297.661
297.383
297.115
296.862
296.623
296.406
296.199
295.99
295.744
295.412
294.96
298.382
298.144
297.859
297.571
297.295
297.033
296.788
296.552
296.332
296.111
295.877
295.602
295.245
294.794
298.29
298.05
297.767
297.489
297.226
296.977
296.737
296.502
296.275
296.042
295.783
295.482
295.106
294.645
298.158
297.921
297.657
297.409
297.172
296.944
296.717
296.484
296.242
295.988
295.703
295.379
294.997
294.508
298.047
297.818
297.577
297.357
297.133
296.912
296.688
296.457
296.205
295.933
295.629
295.292
294.902
294.369
297.871
297.638
297.414
297.22
297.029
296.844
296.649
296.422
296.163
295.878
295.565
295.213
294.791
294.27
299.053
298.931
298.821
298.699
298.531
298.302
298.011
297.664
297.304
296.945
296.608
296.294
296.007
295.62
298.966
298.85
298.725
298.592
298.435
298.233
297.974
297.646
297.288
296.918
296.58
296.284
296.011
295.615
298.86
298.721
298.585
298.438
298.285
298.099
297.864
297.563
297.229
296.88
296.567
296.295
296.03
295.668
298.772
298.62
298.464
298.289
298.116
297.922
297.692
297.413
297.11
296.795
296.514
296.263
296.016
295.67
298.712
298.542
298.36
298.16
297.96
297.744
297.505
297.234
296.952
296.672
296.426
296.201
295.974
295.642
298.678
298.485
298.273
298.045
297.82
297.58
297.329
297.058
296.791
296.535
296.312
296.108
295.89
295.559
298.657
298.438
298.192
297.936
297.687
297.429
297.167
296.897
296.639
296.401
296.191
295.997
295.774
295.439
298.619
298.376
298.101
297.824
297.557
297.287
297.021
296.755
296.505
296.278
296.072
295.873
295.63
295.282
298.557
298.29
297.995
297.706
297.428
297.154
296.888
296.628
296.383
296.159
295.947
295.73
295.463
295.109
298.452
298.173
297.875
297.588
297.314
297.047
296.787
296.534
296.291
296.063
295.835
295.595
295.296
294.931
298.328
298.043
297.751
297.477
297.217
296.966
296.719
296.474
296.23
295.995
295.745
295.479
295.151
294.766
298.158
297.888
297.625
297.381
297.149
296.924
296.695
296.457
296.208
295.958
295.679
295.38
295.04
294.638
298.022
297.776
297.537
297.314
297.102
296.893
296.674
296.442
296.189
295.922
295.622
295.299
294.954
294.532
297.806
297.57
297.367
297.19
297.021
296.848
296.652
296.427
296.168
295.886
295.574
295.252
294.881
294.445
299.158
299.028
298.913
298.787
298.622
298.413
298.159
297.846
297.513
297.164
296.823
296.518
296.242
295.926
299.036
298.917
298.782
298.639
298.479
298.288
298.062
297.776
297.456
297.104
296.762
296.452
296.193
295.896
298.939
298.786
298.631
298.467
298.305
298.126
297.914
297.649
297.351
297.02
296.701
296.413
296.175
295.916
298.858
298.694
298.517
298.328
298.145
297.952
297.734
297.477
297.195
296.89
296.599
296.337
296.118
295.877
298.813
298.63
298.43
298.216
298.007
297.791
297.557
297.294
297.016
296.731
296.468
296.239
296.038
295.814
298.793
298.584
298.35
298.112
297.882
297.644
297.393
297.121
296.842
296.571
296.327
296.119
295.926
295.706
298.769
298.528
298.266
298.007
297.757
297.502
297.237
296.957
296.678
296.417
296.187
295.993
295.802
295.57
298.711
298.443
298.161
297.887
297.625
297.359
297.087
296.807
296.533
296.282
296.061
295.866
295.661
295.4
298.612
298.322
298.03
297.75
297.482
297.212
296.939
296.663
296.395
296.151
295.93
295.723
295.494
295.216
298.465
298.17
297.884
297.611
297.348
297.082
296.813
296.544
296.282
296.041
295.811
295.589
295.326
295.031
298.304
298.013
297.741
297.484
297.235
296.983
296.726
296.467
296.207
295.961
295.71
295.465
295.171
294.858
298.107
297.843
297.605
297.379
297.156
296.928
296.69
296.443
296.183
295.926
295.646
295.369
295.053
294.717
297.959
297.722
297.503
297.296
297.098
296.893
296.67
296.43
296.168
295.9
295.602
295.293
294.976
294.619
297.728
297.517
297.35
297.19
297.032
296.862
296.661
296.435
296.173
295.892
295.578
295.26
294.93
294.552
299.241
299.097
298.968
298.83
298.663
298.465
298.244
297.982
297.698
297.386
297.075
296.779
296.539
296.244
299.118
298.985
298.84
298.681
298.508
298.317
298.108
297.86
297.589
297.284
296.972
296.681
296.444
296.175
299.038
298.874
298.696
298.513
298.334
298.148
297.945
297.708
297.451
297.161
296.866
296.597
296.384
296.155
298.978
298.795
298.593
298.383
298.182
297.98
297.767
297.531
297.278
297.003
296.728
296.481
296.283
296.084
298.941
298.735
298.509
298.275
298.051
297.83
297.6
297.353
297.093
296.825
296.57
296.349
296.173
295.996
298.909
298.671
298.417
298.166
297.927
297.69
297.444
297.183
296.914
296.65
296.408
296.203
296.04
295.869
298.85
298.584
298.31
298.049
297.801
297.551
297.291
297.016
296.74
296.478
296.246
296.053
295.895
295.719
298.745
298.463
298.181
297.916
297.663
297.405
297.135
296.854
296.577
296.32
296.094
295.901
295.728
295.537
298.601
298.309
298.032
297.768
297.513
297.25
296.977
296.694
296.418
296.166
295.941
295.742
295.547
295.333
298.42
298.136
297.872
297.617
297.366
297.103
296.83
296.552
296.28
296.032
295.804
295.595
295.368
295.134
298.241
297.964
297.721
297.484
297.243
296.988
296.722
296.451
296.182
295.93
295.685
295.458
295.201
294.951
298.038
297.796
297.587
297.375
297.157
296.922
296.672
296.413
296.144
295.885
295.612
295.355
295.069
294.796
297.894
297.669
297.482
297.29
297.097
296.888
296.657
296.408
296.137
295.868
295.573
295.291
294.997
294.697
297.667
297.486
297.353
297.197
297.035
296.861
296.655
296.429
296.167
295.893
295.588
295.276
294.975
294.631
299.328
299.178
299.035
298.878
298.689
298.479
298.27
298.044
297.808
297.549
297.288
297.03
296.802
296.515
299.226
299.08
298.914
298.728
298.53
298.321
298.113
297.892
297.662
297.408
297.144
296.893
296.681
296.442
299.163
298.984
298.785
298.575
298.368
298.157
297.95
297.732
297.508
297.263
297.01
296.776
296.582
296.392
299.113
298.91
298.687
298.453
298.228
298.006
297.787
297.563
297.336
297.097
296.856
296.638
296.46
296.299
299.065
298.838
298.591
298.342
298.105
297.874
297.641
297.401
297.159
296.916
296.685
296.487
296.331
296.193
298.989
298.739
298.479
298.227
297.987
297.748
297.503
297.246
296.99
296.739
296.512
296.325
296.182
296.052
298.874
298.61
298.346
298.098
297.86
297.617
297.36
297.09
296.821
296.566
296.341
296.161
296.024
295.89
298.722
298.456
298.197
297.955
297.719
297.471
297.207
296.929
296.656
296.402
296.179
295.998
295.848
295.698
298.551
298.284
298.036
297.799
297.564
297.313
297.046
296.765
296.49
296.239
296.017
295.83
295.658
295.482
298.367
298.111
297.876
297.647
297.411
297.157
296.888
296.61
296.335
296.088
295.867
295.673
295.479
295.285
298.198
297.95
297.732
297.512
297.281
297.028
296.759
296.484
296.21
295.961
295.727
295.517
295.294
295.09
298.016
297.8
297.608
297.405
297.184
296.941
296.679
296.412
296.139
295.886
295.632
295.4
295.147
294.925
297.883
297.669
297.501
297.315
297.116
296.899
296.657
296.402
296.125
295.86
295.582
295.321
295.043
294.791
297.675
297.499
297.379
297.219
297.049
296.864
296.652
296.425
296.166
295.906
295.617
295.322
295.024
294.712
299.448
299.305
299.159
298.987
298.778
298.549
298.334
298.121
297.918
297.703
297.492
297.272
297.067
296.792
299.372
299.216
299.035
298.832
298.613
298.381
298.165
297.951
297.749
297.534
297.318
297.104
296.921
296.706
299.316
299.123
298.913
298.687
298.458
298.223
298.006
297.794
297.593
297.384
297.171
296.971
296.802
296.639
299.259
299.041
298.807
298.563
298.325
298.088
297.861
297.641
297.431
297.22
297.012
296.823
296.669
296.535
299.171
298.936
298.691
298.446
298.207
297.972
297.738
297.505
297.279
297.056
296.847
296.671
296.533
296.422
299.044
298.799
298.555
298.323
298.094
297.863
297.623
297.375
297.132
296.897
296.685
296.512
296.381
296.276
298.88
298.637
298.401
298.185
297.971
297.743
297.497
297.237
296.982
296.737
296.523
296.353
296.225
296.116
298.696
298.461
298.24
298.037
297.83
297.602
297.351
297.085
296.823
296.577
296.362
296.192
296.053
295.928
298.513
298.284
298.076
297.878
297.671
297.441
297.188
296.921
296.659
296.417
296.201
296.026
295.872
295.721
298.34
298.121
297.92
297.722
297.507
297.272
297.019
296.754
296.491
296.255
296.044
295.865
295.694
295.525
298.186
297.975
297.781
297.582
297.365
297.124
296.866
296.6
296.335
296.106
295.893
295.705
295.508
295.336
298.03
297.84
297.661
297.468
297.248
297.009
296.753
296.493
296.229
295.997
295.77
295.568
295.347
295.163
297.911
297.708
297.546
297.37
297.168
296.95
296.706
296.458
296.194
295.953
295.704
295.47
295.216
295.003
297.732
297.539
297.419
297.265
297.089
296.9
296.686
296.467
296.217
295.982
295.72
295.463
295.185
294.88
297.753
297.646
297.457
297.857
298.973
300.241
297.128
296.91
296.567
297.111
298.529
299.602
297.136
296.988
296.825
297.324
298.161
298.295
296.973
296.859
296.755
296.99
297.214
296.463
296.957
296.796
296.601
296.446
295.969
294.515
296.754
296.504
296.126
295.516
294.475
292.631
296.552
296.185
295.539
294.414
292.988
291.098
296.252
295.725
294.787
293.235
291.786
290.119
295.837
295.029
293.875
292.201
291.093
289.779
295.177
294.059
292.864
291.401
290.946
290.317
294.312
293.014
291.925
290.833
291.074
291.391
293.399
292.063
291.132
290.539
291.353
292.531
292.502
291.32
290.579
290.508
291.717
293.217
291.39
290.241
289.821
290.343
291.85
293.178
298.155
297.917
297.397
297.127
297.274
298.198
297.674
297.267
296.66
296.653
297.208
298.165
297.633
297.31
296.901
296.941
297.204
297.611
297.431
297.13
296.807
296.766
296.744
296.509
297.299
297.008
296.679
296.436
295.964
294.892
297.07
296.754
296.348
295.801
294.763
293.036
296.831
296.473
295.935
295.007
293.448
291.529
296.549
296.105
295.369
294.053
292.219
290.483
296.23
295.629
294.639
293.047
291.278
290.016
295.794
294.933
293.751
292.072
290.686
290.096
295.169
294.001
292.754
291.186
290.371
290.536
294.326
292.962
291.747
290.425
290.218
291.029
293.308
292.015
290.909
289.998
290.29
291.482
292.208
290.897
289.929
289.55
290.272
291.601
298.662
298.494
298.124
297.724
297.396
297.544
298.324
298.06
297.688
297.401
297.37
297.687
298.265
298.025
297.73
297.521
297.446
297.687
298.065
297.843
297.549
297.357
297.196
297.224
297.841
297.633
297.309
297.051
296.694
296.241
297.559
297.359
296.973
296.561
295.871
294.829
297.26
297.045
296.581
295.957
294.892
293.369
296.956
296.688
296.108
295.216
293.825
292.128
296.654
296.282
295.551
294.384
292.838
291.265
296.296
295.763
294.865
293.506
292.001
290.735
295.855
295.077
294.052
292.599
291.299
290.431
295.234
294.21
293.104
291.678
290.676
290.27
294.463
293.302
292.142
290.878
290.23
290.241
293.535
292.302
291.148
290.152
289.87
290.127
298.934
298.765
298.421
298.03
297.592
297.297
298.713
298.564
298.201
297.873
297.57
297.443
298.627
298.453
298.144
297.88
297.653
297.626
298.461
298.28
297.986
297.739
297.524
297.497
298.236
298.038
297.744
297.477
297.212
296.941
297.944
297.727
297.415
297.083
296.643
295.987
297.61
297.381
297.048
296.619
295.92
294.881
297.252
297.017
296.641
296.075
295.08
293.723
296.903
296.656
296.203
295.45
294.157
292.663
296.558
296.251
295.678
294.694
293.212
291.747
296.194
295.75
295.026
293.806
292.293
290.949
295.741
295.077
294.183
292.79
291.385
290.231
295.208
294.331
293.248
291.779
290.508
289.625