/*--------------------------------*- C++ -*----------------------------------*\
| =========                 |                                                 |
| \\      /  F ield         | OpenFOAM: The Open Source CFD Toolbox           |
|  \\    /   O peration     | Version:  v2106                                 |
|   \\  /    A nd           | Website:  www.openfoam.com                      |
|    \\/     M anipulation  |                                                 |
\*---------------------------------------------------------------------------*/
FoamFile
{
    version     2.0;
    format      ascii;
    arch        "LSB;label=32;scalar=64";
    class       volScalarField;
    location    "0.000129";
    object      alphat;
}
// * * * * * * * * * * * * * * * * * * * * * * * * * * * * * * * * * * * * * //

dimensions      [1 -1 -1 0 0 0 0];

internalField   nonuniform List<scalar> 
18109
(
1.22304e-08
1.20901e-08
2.0636e-08
2.87369e-08
3.31833e-08
3.31745e-08
3.23157e-08
1.2226e-08
3.96725e-09
2.43594e-09
2.65496e-09
3.1012e-09
3.50646e-09
3.98188e-09
2.66847e-08
7.87004e-09
2.17332e-09
6.12893e-10
2.7385e-10
2.70905e-10
3.57684e-10
6.60138e-08
1.97083e-08
5.21342e-09
1.21525e-09
2.50334e-10
5.35054e-11
2.82687e-11
1.10816e-07
3.35799e-08
8.82797e-09
2.00659e-09
3.90875e-10
6.42826e-11
9.51616e-12
1.45264e-07
4.2221e-08
1.06377e-08
2.30956e-09
4.26498e-10
6.56294e-11
8.20544e-12
1.71456e-07
4.63984e-08
1.0869e-08
2.18666e-09
3.72824e-10
5.28457e-11
6.05624e-12
1.89266e-07
4.73669e-08
1.02253e-08
1.88587e-09
2.93198e-10
3.77531e-11
3.96989e-12
2.37763e-09
1.69437e-09
2.93453e-09
4.35608e-09
5.14399e-09
5.44811e-09
5.61049e-09
5.51533e-09
5.08172e-09
4.20942e-09
2.9099e-09
1.5338e-09
5.93487e-10
2.24384e-10
3.56841e-09
9.57546e-10
3.65499e-10
3.05691e-10
3.6195e-10
4.53929e-10
5.53927e-10
6.3417e-10
6.63932e-10
6.15313e-10
4.57832e-10
2.47484e-10
8.98457e-11
3.48486e-11
8.40782e-09
2.24484e-09
5.44814e-10
1.23844e-10
3.69116e-11
2.99217e-11
4.10497e-11
5.54837e-11
6.66629e-11
6.94792e-11
5.58363e-11
3.12463e-11
1.14542e-11
2.2554e-11
2.02724e-08
5.4209e-09
1.26884e-09
2.59906e-10
4.6374e-11
7.92708e-12
3.02158e-12
3.7217e-12
5.11522e-12
6.11314e-12
5.4294e-12
3.18455e-12
2.79464e-12
4.68524e-11
3.26892e-08
8.74593e-09
2.01538e-09
3.99178e-10
6.7298e-11
9.50915e-12
1.17452e-12
2.70618e-13
2.94696e-13
4.03064e-13
4.0106e-13
3.03029e-13
3.5018e-12
8.45347e-11
4.21814e-08
1.07118e-08
2.3426e-09
4.38667e-10
6.95251e-11
9.15961e-12
9.84385e-13
8.93777e-14
1.77047e-14
2.08661e-14
2.35072e-14
9.90904e-14
4.84453e-12
1.21719e-10
4.89659e-08
1.1504e-08
2.33251e-09
4.04035e-10
5.9123e-11
7.19633e-12
7.12838e-13
5.64726e-14
3.95616e-15
1.07722e-15
1.20954e-15
6.65514e-14
4.94731e-12
1.32963e-10
5.30504e-08
1.14879e-08
2.14696e-09
3.42091e-10
4.58798e-11
5.11709e-12
4.68905e-13
3.77737e-14
4.25699e-15
1.12352e-15
5.16692e-16
3.57718e-14
3.50535e-12
1.02363e-10
5.34243e-08
1.06678e-08
1.83469e-09
2.69115e-10
3.32334e-11
3.49948e-12
3.82233e-13
8.85286e-14
4.0116e-14
1.70785e-14
6.14328e-15
2.6962e-14
2.21806e-12
6.40732e-11
4.93737e-08
9.18359e-09
1.46331e-09
1.98326e-10
2.34066e-11
3.43938e-12
1.41323e-12
9.21275e-13
5.42743e-13
2.55243e-13
9.75961e-14
5.54936e-14
1.42462e-12
3.56494e-11
4.01103e-08
6.99959e-09
1.04342e-09
1.36444e-10
2.40775e-11
1.4504e-11
1.28371e-11
9.79354e-12
6.19757e-12
3.17006e-12
1.32445e-12
4.8528e-13
9.59204e-13
1.72191e-11
2.82031e-08
4.76001e-09
7.01956e-10
1.2971e-10
9.26677e-11
1.08611e-10
1.07726e-10
8.73899e-11
5.89095e-11
3.27031e-11
1.49484e-11
5.86826e-12
2.30904e-12
7.26468e-12
1.66296e-08
2.84928e-09
5.40864e-10
3.77262e-10
5.68241e-10
7.34689e-10
7.635e-10
6.53325e-10
4.6821e-10
2.80179e-10
1.39791e-10
6.00779e-11
2.25586e-11
1.18979e-11
1.04644e-08
2.18051e-09
1.14774e-09
1.91304e-09
3.18858e-09
4.24288e-09
4.58408e-09
4.12654e-09
3.14288e-09
2.01769e-09
1.09479e-09
5.10868e-10
2.05512e-10
8.66568e-11
5.92988e-08
2.09389e-07
6.39289e-07
1.66627e-06
3.76372e-06
7.33546e-06
9.38819e-09
3.71542e-08
1.32311e-07
4.08266e-07
1.10462e-06
2.59452e-06
1.43084e-08
7.584e-08
3.1637e-07
1.04766e-06
2.83204e-06
6.32777e-06
3.01213e-08
1.72054e-07
7.20882e-07
2.29265e-06
5.79507e-06
1.18649e-05
4.59986e-08
2.76681e-07
1.16579e-06
3.61183e-06
8.69514e-06
1.67921e-05
5.38468e-08
3.35583e-07
1.43073e-06
4.39545e-06
1.03137e-05
1.92452e-05
5.12749e-08
3.27788e-07
1.42378e-06
4.40682e-06
1.02857e-05
1.89875e-05
4.50857e-08
2.72329e-07
1.18694e-06
3.741e-06
8.87913e-06
1.66436e-05
3.80895e-08
2.1401e-07
9.09799e-07
2.882e-06
6.96375e-06
1.33517e-05
3.05966e-08
1.57903e-07
6.46781e-07
2.04435e-06
5.01277e-06
9.8467e-06
2.26103e-08
1.06129e-07
4.16466e-07
1.30579e-06
3.23463e-06
6.47528e-06
1.38848e-08
5.91322e-08
2.22801e-07
6.89548e-07
1.72021e-06
3.49077e-06
6.63819e-09
2.5751e-08
9.35594e-08
2.8554e-07
7.28039e-07
1.4995e-06
2.40413e-09
8.61232e-09
3.03852e-08
8.95663e-08
2.34421e-07
4.94222e-07
6.74733e-10
2.34744e-09
7.73971e-09
2.18578e-08
6.04646e-08
1.38048e-07
3.92214e-10
1.17627e-09
3.75917e-09
1.31679e-08
4.8199e-08
1.69967e-07
1.38687e-10
1.00711e-09
6.71358e-09
3.7598e-08
1.71725e-07
6.43994e-07
3.1297e-10
3.03214e-09
2.21376e-08
1.24181e-07
5.39638e-07
1.85884e-06
7.13611e-10
7.3312e-09
5.42333e-08
2.97436e-07
1.22841e-06
3.8923e-06
1.27681e-09
1.34862e-08
9.98343e-08
5.37982e-07
2.11336e-06
6.15714e-06
1.83677e-09
1.97414e-08
1.45167e-07
7.55482e-07
2.7952e-06
7.55537e-06
2.05869e-09
2.24491e-08
1.64275e-07
8.26644e-07
2.92873e-06
7.57928e-06
1.65658e-09
1.81253e-08
1.32691e-07
6.69552e-07
2.38557e-06
6.27461e-06
1.07694e-09
1.17044e-08
8.5659e-08
4.41665e-07
1.62563e-06
4.40617e-06
5.77061e-10
6.0053e-09
4.35975e-08
2.27584e-07
8.74588e-07
2.48461e-06
2.49329e-10
2.44636e-09
1.69896e-08
8.80508e-08
3.54249e-07
1.05517e-06
8.86503e-11
8.11838e-10
5.37414e-09
2.76341e-08
1.14509e-07
3.56463e-07
3.41212e-11
2.62083e-10
1.59076e-09
7.44436e-09
2.94541e-08
9.34754e-08
8.45064e-11
3.75443e-10
1.66234e-09
6.47526e-09
2.20969e-08
6.66097e-08
6.33226e-10
2.49752e-09
9.33235e-09
3.22703e-08
1.01651e-07
2.91396e-07
1.53466e-09
7.11801e-09
2.97541e-08
1.10067e-07
3.57807e-07
1.02223e-06
3.58817e-09
1.80731e-08
7.9348e-08
2.98857e-07
9.60413e-07
2.6335e-06
7.16274e-09
3.73611e-08
1.66227e-07
6.22376e-07
1.9458e-06
5.05903e-06
1.22519e-08
6.41796e-08
2.83303e-07
1.04013e-06
3.12191e-06
7.57578e-06
1.78794e-08
9.2175e-08
3.97246e-07
1.39958e-06
3.96153e-06
9.00734e-06
2.21416e-08
1.10004e-07
4.54079e-07
1.52468e-06
4.11998e-06
8.98976e-06
2.34284e-08
1.10509e-07
4.33142e-07
1.39191e-06
3.64146e-06
7.7991e-06
2.0968e-08
9.26794e-08
3.42197e-07
1.05634e-06
2.7074e-06
5.73461e-06
1.55234e-08
6.3491e-08
2.18082e-07
6.34697e-07
1.56627e-06
3.27486e-06
9.33797e-09
3.53197e-08
1.13058e-07
3.10101e-07
7.34755e-07
1.49268e-06
4.97839e-09
1.73931e-08
5.15876e-08
1.31675e-07
2.91039e-07
5.54808e-07
3.94271e-09
1.24924e-08
3.48459e-08
8.61339e-08
1.91564e-07
3.91766e-07
1.09473e-08
3.45217e-08
9.87657e-08
2.53327e-07
5.8584e-07
1.23093e-06
2.01704e-07
5.02646e-07
1.13574e-06
2.35535e-06
4.36907e-06
6.8801e-06
8.80193e-08
2.1497e-07
4.91418e-07
9.89036e-07
1.8715e-06
3.00031e-06
4.27771e-08
1.02308e-07
2.25776e-07
4.54149e-07
8.52415e-07
1.4657e-06
2.53522e-08
7.10574e-08
1.97918e-07
5.22931e-07
1.26252e-06
2.71607e-06
5.22049e-08
1.49193e-07
3.87558e-07
9.05021e-07
1.93399e-06
3.75813e-06
8.70273e-08
2.84917e-07
8.1485e-07
2.01646e-06
4.36314e-06
8.28482e-06
1.44796e-07
5.12366e-07
1.52159e-06
3.77011e-06
7.93089e-06
1.42692e-05
1.97e-07
7.23325e-07
2.17064e-06
5.32481e-06
1.09173e-05
1.89788e-05
2.2722e-07
8.42361e-07
2.52698e-06
6.13928e-06
1.23402e-05
2.09367e-05
2.29393e-07
8.44807e-07
2.52381e-06
6.09304e-06
1.21178e-05
2.03407e-05
2.09898e-07
7.4999e-07
2.21434e-06
5.34201e-06
1.06735e-05
1.79948e-05
1.78375e-07
6.05144e-07
1.74557e-06
4.20809e-06
8.51547e-06
1.46515e-05
1.42267e-07
4.50571e-07
1.25428e-06
3.03905e-06
6.32533e-06
1.11277e-05
1.05214e-07
3.1063e-07
8.28707e-07
2.02228e-06
4.27813e-06
7.58015e-06
6.72419e-08
1.87894e-07
4.78981e-07
1.12349e-06
2.36054e-06
4.14943e-06
3.10652e-08
8.17353e-08
2.01376e-07
4.43393e-07
9.52818e-07
1.70845e-06
1.37527e-08
3.53682e-08
8.40759e-08
1.80165e-07
3.58825e-07
6.39519e-07
6.86811e-09
1.85116e-08
4.92973e-08
1.30163e-07
3.34938e-07
8.13634e-07
5.38499e-06
1.42502e-05
2.75429e-05
4.30963e-05
5.97282e-05
1.20125e-05
2.70358e-05
4.62442e-05
6.60701e-05
8.44593e-05
2.05165e-05
3.93002e-05
6.02491e-05
7.85728e-05
9.05472e-05
2.72791e-05
4.67365e-05
6.64212e-05
8.2097e-05
8.65305e-05
3.01729e-05
4.91072e-05
6.79074e-05
8.19487e-05
7.87714e-05
2.94768e-05
4.74228e-05
6.61878e-05
7.7635e-05
6.88339e-05
2.61162e-05
4.28948e-05
6.04827e-05
6.79396e-05
5.8906e-05
2.1529e-05
3.53306e-05
5.01192e-05
5.61449e-05
4.97917e-05
3.98924e-05
1.65194e-05
2.62147e-05
3.68442e-05
4.29538e-05
4.13958e-05
3.54466e-05
1.11693e-05
1.7435e-05
2.40667e-05
2.9281e-05
3.27965e-05
3.02402e-05
6.26916e-06
9.89593e-06
1.35094e-05
1.72982e-05
2.23591e-05
2.49068e-05
2.63824e-05
2.72885e-06
4.28886e-06
6.06199e-06
8.09339e-06
1.07241e-05
1.73652e-05
2.26124e-05
2.43548e-05
9.05533e-07
1.46656e-06
2.30452e-06
3.44285e-06
5.07779e-06
8.08295e-06
1.5078e-05
4.13804e-05
2.84531e-07
8.3376e-07
2.31008e-06
4.99097e-06
8.4651e-06
1.20737e-05
7.75066e-06
6.01146e-05
5.55798e-07
2.44467e-06
7.06733e-06
1.47409e-05
2.39684e-05
3.39175e-05
3.7801e-05
0.000136024
1.98453e-06
7.27979e-06
1.79204e-05
3.30577e-05
4.95041e-05
6.87949e-05
0.000111559
0.00026908
5.10657e-06
1.55016e-05
3.27076e-05
5.34135e-05
7.2448e-05
9.09759e-05
0.000138386
0.000300546
9.51692e-06
2.44066e-05
4.49679e-05
6.55497e-05
7.98494e-05
8.68426e-05
9.99395e-05
0.000327894
1.35815e-05
3.04501e-05
5.09318e-05
6.9396e-05
7.91955e-05
7.72955e-05
7.83555e-05
0.000255534
1.55431e-05
3.22744e-05
5.15721e-05
6.89582e-05
7.61708e-05
6.80274e-05
6.59202e-05
0.000209783
1.50904e-05
3.05906e-05
4.88463e-05
6.60352e-05
7.12094e-05
6.01063e-05
5.46695e-05
8.54593e-05
1.2626e-05
2.62773e-05
4.36141e-05
5.98929e-05
6.35671e-05
5.25006e-05
4.89521e-05
7.71858e-05
9.19388e-06
1.97952e-05
3.42351e-05
4.84375e-05
5.24212e-05
4.41436e-05
5.46987e-06
1.22448e-05
2.20611e-05
3.31584e-05
3.94427e-05
3.56691e-05
2.49902e-06
5.92541e-06
1.11966e-05
1.79819e-05
2.47482e-05
2.72199e-05
8.83417e-07
2.20165e-06
4.29416e-06
7.15695e-06
1.08464e-05
1.67384e-05
2.2914e-07
6.53145e-07
1.4688e-06
2.66665e-06
4.32456e-06
7.23695e-06
1.81459e-07
7.43669e-07
2.20503e-06
4.83794e-06
8.27019e-06
7.58809e-07
2.81275e-06
7.47788e-06
1.50044e-05
2.40901e-05
2.5604e-06
8.12676e-06
1.87521e-05
3.35927e-05
4.98221e-05
6.14373e-06
1.67256e-05
3.37e-05
5.39382e-05
7.25452e-05
1.08865e-05
2.56832e-05
4.56273e-05
6.54196e-05
7.91554e-05
1.49233e-05
3.1283e-05
5.07713e-05
6.83569e-05
7.74233e-05
1.675e-05
3.25406e-05
5.07143e-05
6.70193e-05
7.31546e-05
1.608e-05
3.04072e-05
4.73372e-05
6.2769e-05
6.70048e-05
1.36863e-05
2.58729e-05
4.10299e-05
5.53228e-05
5.86441e-05
9.86935e-06
1.91415e-05
3.13211e-05
4.36597e-05
4.78361e-05
5.59926e-06
1.15774e-05
1.97001e-05
2.90434e-05
3.55574e-05
2.45828e-06
5.47402e-06
9.91061e-06
1.53431e-05
2.2554e-05
8.95201e-07
2.10314e-06
4.23322e-06
7.24428e-06
1.198e-05
7.55324e-07
2.12657e-06
4.6136e-06
8.02506e-06
1.23394e-05
2.37338e-06
6.317e-06
1.28023e-05
2.10337e-05
3.00682e-05
6.72936e-06
1.57858e-05
2.89385e-05
4.43262e-05
6.0796e-05
1.40479e-05
2.89579e-05
4.76813e-05
6.70653e-05
8.51922e-05
2.26392e-05
4.09001e-05
6.09317e-05
7.85945e-05
9.03927e-05
2.89354e-05
4.73505e-05
6.59472e-05
8.11067e-05
8.56416e-05
3.09864e-05
4.87792e-05
6.66541e-05
8.03629e-05
7.74861e-05
2.97641e-05
4.65878e-05
6.42323e-05
7.57224e-05
6.74467e-05
2.63394e-05
4.17212e-05
5.82679e-05
6.68863e-05
5.81992e-05
2.17068e-05
3.45724e-05
4.80637e-05
5.54807e-05
5.00814e-05
1.65837e-05
2.56044e-05
3.51091e-05
4.2385e-05
4.20095e-05
1.09453e-05
1.65219e-05
2.25012e-05
2.84421e-05
3.34384e-05
5.8798e-06
8.70046e-06
1.19546e-05
1.57969e-05
2.36712e-05
2.3966e-06
3.81287e-06
5.73224e-06
8.30055e-06
1.39829e-05
1.0309e-06
2.45772e-06
5.10033e-06
8.72802e-06
1.33887e-05
1.83472e-06
5.61204e-06
1.21629e-05
2.04643e-05
2.95555e-05
2.34855e-10
9.67015e-11
1.50421e-10
2.503e-10
3.45388e-10
4.35411e-10
5.14351e-10
5.61828e-10
5.559e-10
4.83396e-10
3.4346e-10
1.86569e-10
7.44617e-11
2.56116e-11
5.06345e-10
1.17845e-10
3.00006e-11
1.668e-11
2.1825e-11
3.2698e-11
4.6266e-11
5.88081e-11
6.60489e-11
6.42212e-11
4.92098e-11
2.75166e-11
1.05124e-11
3.46297e-12
1.31456e-09
3.12735e-10
6.7094e-11
1.3201e-11
3.02551e-12
2.13269e-12
3.22165e-12
4.76437e-12
6.10897e-12
6.64666e-12
5.48764e-12
3.17177e-12
1.19988e-12
8.56659e-13
3.00454e-09
7.23663e-10
1.52444e-10
2.81715e-11
4.54893e-12
6.92464e-13
2.34323e-13
3.01407e-13
4.38139e-13
5.41274e-13
4.89526e-13
2.95337e-13
1.43586e-13
1.55031e-12
4.79295e-09
1.14673e-09
2.37221e-10
4.24027e-11
6.49893e-12
8.44013e-13
9.67166e-14
2.14502e-14
2.43017e-14
3.38989e-14
3.37933e-14
2.23331e-14
9.83605e-14
3.17658e-12
6.02516e-09
1.36277e-09
2.67021e-10
4.50774e-11
6.49694e-12
7.88436e-13
7.93957e-14
7.01213e-15
1.50146e-15
1.76598e-15
1.93298e-15
2.54171e-15
1.39818e-13
5.10536e-12
6.68219e-09
1.39375e-09
2.52921e-10
3.95271e-11
5.27098e-12
5.92556e-13
5.52038e-14
4.28828e-15
3.86222e-16
1.77076e-16
1.81011e-16
1.09055e-15
1.46353e-13
6.00689e-12
6.79637e-09
1.30207e-09
2.17265e-10
3.12262e-11
3.82031e-12
3.94394e-13
3.40189e-14
2.62314e-15
3.21642e-16
1.4401e-16
1.19357e-16
8.94697e-16
1.05923e-13
4.78603e-12
6.3356e-09
1.11672e-09
1.71336e-10
2.26891e-11
2.5595e-12
2.48366e-13
2.40265e-14
4.49261e-15
1.83662e-15
7.8356e-16
3.30134e-16
1.13119e-15
8.13081e-14
3.17746e-12
5.3366e-09
8.75537e-10
1.24599e-10
1.52839e-11
1.64355e-12
2.14627e-13
7.7938e-14
4.71956e-14
2.61129e-14
1.14572e-14
4.12921e-15
2.60776e-15
7.45086e-14
2.04002e-12
3.88325e-09
5.98663e-10
7.98978e-11
9.50227e-12
1.57993e-12
9.37853e-13
7.94468e-13
5.68977e-13
3.35979e-13
1.58103e-13
6.06083e-14
2.0596e-14
6.09192e-14
1.23048e-12
2.43324e-09
3.64288e-10
4.84638e-11
8.9183e-12
7.04121e-12
8.14859e-12
7.68964e-12
5.82876e-12
3.64182e-12
1.8437e-12
7.63735e-13
2.69054e-13
1.06067e-13
5.76113e-13
1.27525e-09
1.9639e-10
3.76024e-11
3.29127e-11
5.1109e-11
6.41996e-11
6.32761e-11
5.04178e-11
3.32754e-11
1.80244e-11
8.06461e-12
3.079e-12
1.02561e-12
5.96283e-13
7.25023e-10
1.5194e-10
1.08912e-10
2.01998e-10
3.35704e-10
4.3329e-10
4.43357e-10
3.70485e-10
2.58268e-10
1.49174e-10
7.19135e-11
2.95448e-11
1.04473e-11
4.10274e-12
2.8374e-11
7.20996e-12
7.45091e-12
1.42897e-11
2.53202e-11
3.90738e-11
5.39177e-11
6.63204e-11
7.13755e-11
6.58688e-11
4.81279e-11
2.70766e-11
1.10917e-11
3.64129e-12
7.76496e-11
1.62485e-11
3.33939e-12
1.23791e-12
1.64303e-12
2.89704e-12
4.70346e-12
6.63993e-12
8.04934e-12
8.26798e-12
6.50714e-12
3.76359e-12
1.49872e-12
4.68415e-13
2.05289e-10
4.42527e-11
8.59767e-12
1.52268e-12
2.96873e-13
1.92388e-13
3.21279e-13
5.20839e-13
7.1669e-13
8.1835e-13
6.90284e-13
4.10982e-13
1.61888e-13
5.75875e-14
4.51602e-10
9.92246e-11
1.91214e-11
3.24713e-12
4.84944e-13
6.86383e-14
2.31282e-14
3.24457e-14
5.01508e-14
6.42639e-14
5.8831e-14
3.63761e-14
1.48146e-14
4.81515e-14
7.09261e-10
1.54603e-10
2.92791e-11
4.81723e-12
6.85821e-13
8.38218e-14
9.30585e-15
2.29461e-15
2.83598e-15
4.02238e-15
4.01244e-15
2.63613e-15
3.16053e-15
1.08819e-13
8.53183e-10
1.761e-10
3.16855e-11
4.94147e-12
6.6436e-13
7.62959e-14
7.47117e-15
7.4184e-16
2.52136e-16
2.9092e-16
3.0672e-16
2.60186e-16
3.77997e-15
1.98445e-13
8.82341e-10
1.68751e-10
2.8238e-11
4.10302e-12
5.1361e-13
5.49916e-14
5.03561e-15
4.71165e-16
1.2815e-16
1.10292e-16
1.10633e-16
1.31256e-16
4.50941e-15
2.59045e-13
8.16221e-10
1.44088e-10
2.22711e-11
2.9942e-12
3.46291e-13
3.43171e-14
2.95591e-15
3.04993e-16
1.168e-16
1.04382e-16
1.03277e-16
1.36377e-16
4.58578e-15
2.36832e-13
6.82768e-10
1.11407e-10
1.59294e-11
1.98745e-12
2.1348e-13
1.99212e-14
1.83609e-15
3.39188e-16
1.76372e-16
1.28563e-16
1.10832e-16
1.70006e-16
5.00727e-15
2.03782e-13
5.10523e-10
7.78975e-11
1.03913e-11
1.20871e-12
1.23687e-13
1.45e-14
4.38934e-15
2.44748e-15
1.30522e-15
5.89396e-16
2.60383e-16
2.54961e-16
6.03264e-15
1.69324e-13
3.27312e-10
4.71835e-11
5.93844e-12
6.72987e-13
1.05798e-13
5.89026e-14
4.70228e-14
3.15204e-14
1.73021e-14
7.55385e-15
2.71065e-15
9.5936e-16
5.47377e-15
1.20864e-13
1.82143e-10
2.55979e-11
3.23332e-12
6.12873e-13
5.15856e-13
5.78352e-13
5.13474e-13
3.60948e-13
2.07312e-13
9.55323e-14
3.58836e-14
1.14586e-14
5.67295e-15
5.96336e-14
8.55148e-11
1.2487e-11
2.5972e-12
2.79725e-12
4.35967e-12
5.22656e-12
4.80578e-12
3.51908e-12
2.11528e-12
1.03197e-12
4.13519e-13
1.40853e-13
4.23465e-14
3.61372e-14
4.46773e-11
1.02828e-11
1.02661e-11
2.04067e-11
3.32524e-11
4.06286e-11
3.8439e-11
2.92564e-11
1.83917e-11
9.47914e-12
4.04809e-12
1.47095e-12
4.61529e-13
1.81039e-13
3.25245e-12
6.49512e-13
3.90195e-13
8.0978e-13
1.73135e-12
3.16687e-12
5.01823e-12
6.89364e-12
8.06784e-12
7.90711e-12
5.96901e-12
3.44664e-12
1.46961e-12
4.88089e-13
9.80426e-12
1.87324e-12
3.39851e-13
9.26298e-14
1.17184e-13
2.36662e-13
4.33353e-13
6.74289e-13
8.81235e-13
9.56164e-13
7.7456e-13
4.58557e-13
1.91763e-13
6.11157e-14
2.58063e-11
5.11099e-12
9.11014e-13
1.47731e-13
2.57251e-14
1.61224e-14
2.96715e-14
5.23457e-14
7.69835e-14
9.21946e-14
7.96695e-14
4.83741e-14
2.00882e-14
6.37382e-15
5.52641e-11
1.11526e-11
1.98193e-12
3.11858e-13
4.35081e-14
5.89801e-15
2.1725e-15
3.33855e-15
5.41439e-15
7.17126e-15
6.67349e-15
4.21742e-15
1.80296e-15
1.55329e-15
8.47252e-11
1.69649e-11
2.96754e-12
4.53576e-13
6.05647e-14
7.08967e-15
8.48467e-16
3.07749e-16
3.90836e-16
5.28739e-16
5.29635e-16
3.78342e-16
2.53057e-16
3.01564e-15
9.67891e-11
1.84293e-11
3.07679e-12
4.47995e-13
5.6782e-14
6.28692e-15
6.77967e-16
1.51539e-16
1.16001e-16
1.21431e-16
1.2297e-16
1.16214e-16
1.96244e-16
6.23737e-15
9.29528e-11
1.65118e-11
2.57942e-12
3.52378e-13
4.18752e-14
4.37455e-15
4.72537e-16
1.28377e-16
1.03177e-16
1.01965e-16
1.02022e-16
1.02545e-16
2.45996e-16
9.98438e-15
7.82293e-11
1.29147e-11
1.87541e-12
2.38747e-13
2.6436e-14
2.60873e-15
3.0359e-16
1.15111e-16
1.02116e-16
1.01325e-16
1.01281e-16
1.03127e-16
3.15805e-16
1.20691e-14
5.90331e-11
9.07195e-12
1.22752e-12
1.46072e-13
1.51588e-14
1.44932e-15
2.09727e-16
1.12572e-16
1.03945e-16
1.02157e-16
1.0159e-16
1.06171e-16
4.4049e-16
1.39694e-14
3.95588e-11
5.72126e-12
7.27008e-13
8.12057e-14
8.06059e-15
9.31788e-16
2.95579e-16
1.94307e-16
1.45007e-16
1.17671e-16
1.0634e-16
1.11908e-16
5.99447e-16
1.48739e-14
2.26895e-11
3.12386e-12
3.77105e-13
4.11847e-14
6.0651e-15
3.07485e-15
2.31552e-15
1.48808e-15
8.05954e-16
3.83071e-16
1.90361e-16
1.34411e-16
5.90506e-16
1.2061e-14
1.14032e-11
1.53772e-12
1.87238e-13
3.57517e-14
3.04647e-14
3.26943e-14
2.72637e-14
1.78567e-14
9.50945e-15
4.08836e-15
1.46359e-15
4.94242e-16
4.55721e-16
6.28481e-15
4.88676e-12
6.9044e-13
1.5662e-13
1.92348e-13
2.94756e-13
3.34902e-13
2.86619e-13
1.93512e-13
1.06451e-13
4.7397e-14
1.72596e-14
5.37698e-15
1.58143e-15
2.74573e-15
2.39917e-12
6.2366e-13
8.02741e-13
1.6415e-12
2.58669e-12
2.96867e-12
2.5892e-12
1.79975e-12
1.02515e-12
4.77093e-13
1.82921e-13
5.96786e-14
1.69534e-14
7.46736e-15
3.20621e-13
5.67832e-14
2.11487e-14
4.28966e-14
1.06488e-13
2.24969e-13
4.02796e-13
6.11451e-13
7.73874e-13
8.01857e-13
6.24203e-13
3.67212e-13
1.60394e-13
5.54795e-14
1.0037e-12
1.7794e-13
2.95483e-14
6.50956e-15
7.56743e-15
1.70436e-14
3.46179e-14
5.87819e-14
8.23694e-14
9.40018e-14
7.82641e-14
4.71774e-14
2.03464e-14
6.82044e-15
2.63121e-12
4.84117e-13
8.0137e-14
1.21192e-14
1.99976e-15
1.26515e-15
2.46115e-15
4.6126e-15
7.15925e-15
8.93938e-15
7.91635e-15
4.91006e-15
2.14995e-15
7.59529e-16
5.50963e-12
1.03121e-12
1.70548e-13
2.5133e-14
3.37008e-15
5.15976e-16
2.61296e-16
3.79244e-16
5.83624e-16
7.66696e-16
7.29439e-16
4.97498e-16
2.6773e-16
1.69265e-16
8.20644e-12
1.52398e-12
2.48329e-13
3.56197e-14
4.56448e-15
5.91118e-16
1.51685e-16
1.17141e-16
1.26584e-16
1.402e-16
1.40464e-16
1.26253e-16
1.12105e-16
1.70888e-16
8.88146e-12
1.57502e-12
2.45918e-13
3.37519e-14
4.13401e-15
5.20715e-16
1.38169e-16
1.03676e-16
1.01601e-16
1.02222e-16
1.02388e-16
1.01751e-16
1.03186e-16
2.79855e-16
7.92002e-12
1.31864e-12
1.93878e-13
2.51353e-14
2.92847e-15
3.77547e-16
1.23656e-16
1.02065e-16
1.00528e-16
1.00487e-16
1.00514e-16
1.00539e-16
1.05455e-16
4.6434e-16
6.08336e-12
9.47428e-13
1.30392e-13
1.58898e-14
1.77031e-15
2.53001e-16
1.12401e-16
1.01274e-16
1.00528e-16
1.00504e-16
1.00517e-16
1.00638e-16
1.11423e-16
6.98879e-16
4.16247e-12
6.08012e-13
7.85757e-14
9.04476e-15
9.88263e-16
1.76318e-16
1.06333e-16
1.0105e-16
1.00654e-16
1.00612e-16
1.0061e-16
1.0094e-16
1.23561e-16
1.02355e-15
2.51872e-12
3.48699e-13
4.2632e-14
4.67214e-15
5.30133e-16
1.40563e-16
1.07912e-16
1.03625e-16
1.01967e-16
1.01145e-16
1.00831e-16
1.01429e-16
1.39276e-16
1.2947e-15
1.3091e-12
1.73883e-13
2.03613e-14
2.22529e-15
3.79778e-16
2.21191e-16
1.83422e-16
1.48735e-16
1.23209e-16
1.09064e-16
1.03239e-16
1.02233e-16
1.41309e-16
1.16569e-15
6.01649e-13
7.86392e-14
9.35163e-15
1.81923e-15
1.53084e-15
1.56144e-15
1.24401e-15
7.96427e-16
4.41135e-16
2.32696e-16
1.41214e-16
1.1168e-16
1.26955e-16
6.77808e-16
2.38725e-13
3.29056e-14
8.0533e-15
1.06572e-14
1.58767e-14
1.70551e-14
1.36326e-14
8.5545e-15
4.37935e-15
1.84922e-15
6.77648e-16
2.5966e-16
1.45528e-16
3.11642e-16
1.11958e-13
3.28744e-14
5.08391e-14
1.0452e-13
1.58284e-13
1.70296e-13
1.37244e-13
8.75617e-14
4.55568e-14
1.93864e-14
6.8075e-15
2.0783e-15
6.07604e-16
3.93693e-16
2.62253e-14
4.34766e-15
1.19994e-15
2.13732e-15
5.85011e-15
1.3889e-14
2.76199e-14
4.57835e-14
6.21697e-14
6.77141e-14
5.4241e-14
3.23677e-14
1.43951e-14
5.1777e-15
8.36096e-14
1.3904e-14
2.21129e-15
4.88856e-16
5.11757e-16
1.1411e-15
2.43725e-15
4.40515e-15
6.53663e-15
7.79223e-15
6.66784e-15
4.1065e-15
1.85129e-15
6.94992e-16
2.18842e-13
3.76132e-14
5.87966e-15
9.07458e-16
2.17443e-16
1.71124e-16
2.58579e-16
4.27262e-16
6.42415e-16
8.08057e-16
7.39607e-16
4.97009e-16
2.7089e-16
1.55581e-16
4.49064e-13
7.8407e-14
1.21914e-14
1.76321e-15
3.03702e-16
1.24435e-16
1.10245e-16
1.19837e-16
1.36461e-16
1.52175e-16
1.49873e-16
1.31463e-16
1.13305e-16
1.04486e-16
6.47882e-13
1.12302e-13
1.71972e-14
2.39878e-15
3.72517e-16
1.28232e-16
1.02654e-16
1.009e-16
1.01744e-16
1.02873e-16
1.02934e-16
1.01847e-16
1.00723e-16
1.01608e-16
6.62905e-13
1.10218e-13
1.62449e-14
2.1854e-15
3.36704e-16
1.23352e-16
1.01838e-16
9.99848e-17
9.99067e-17
9.99772e-17
1.00008e-16
9.99771e-17
9.99959e-17
1.04757e-16
5.49433e-13
8.62759e-14
1.20671e-14
1.56565e-15
2.57136e-16
1.14616e-16
1.01069e-16
9.99555e-17
9.9892e-17
9.99062e-17
9.99236e-17
9.994e-17
1.00138e-16
1.12825e-16
3.86935e-13
5.71973e-14
7.5683e-15
9.61873e-16
1.86502e-16
1.07564e-16
1.00525e-16
9.99854e-17
9.99619e-17
9.99744e-17
9.99881e-17
1.00007e-16
1.00568e-16
1.2902e-16
2.41528e-13
3.3746e-14
4.25525e-15
5.51996e-16
1.42456e-16
1.03553e-16
1.00278e-16
1.00044e-16
1.00039e-16
1.0005e-16
1.00061e-16
1.00091e-16
1.01495e-16
1.5687e-16
1.3304e-13
1.77643e-14
2.17056e-15
3.11796e-16
1.18806e-16
1.01736e-16
1.0033e-16
1.00185e-16
1.00149e-16
1.00139e-16
1.00141e-16
1.00191e-16
1.02787e-16
1.85058e-16
6.33495e-14
8.20711e-15
1.00959e-15
1.89602e-16
1.1081e-16
1.04129e-16
1.02677e-16
1.01549e-16
1.008e-16
1.00419e-16
1.00275e-16
1.00293e-16
1.03178e-16
1.81915e-16
2.69331e-14
3.48834e-15
4.81596e-16
1.67511e-16
1.54257e-16
1.52455e-16
1.38417e-16
1.21731e-16
1.0995e-16
1.03774e-16
1.01305e-16
1.00582e-16
1.02175e-16
1.46285e-16
1.00491e-14
1.42179e-15
4.34349e-16
5.65495e-16
7.75062e-16
7.8592e-16
6.11041e-16
3.95355e-16
2.37051e-16
1.50936e-16
1.15368e-16
1.04171e-16
1.01831e-16
1.16064e-16
4.5971e-15
1.56387e-15
2.69372e-15
5.41364e-15
7.8138e-15
7.88031e-15
5.90666e-15
3.50994e-15
1.72493e-15
7.29953e-16
2.97849e-16
1.51825e-16
1.12286e-16
1.12505e-16
1.87905e-15
3.67069e-16
1.52895e-16
1.82525e-16
3.67084e-16
8.24024e-16
1.69643e-15
2.97479e-15
4.26855e-15
4.85869e-15
4.01256e-15
2.4548e-15
1.15107e-15
4.77311e-16
5.86916e-15
9.90989e-16
2.25262e-16
1.19776e-16
1.18444e-16
1.52979e-16
2.32445e-16
3.64675e-16
5.21431e-16
6.26593e-16
5.60451e-16
3.82915e-16
2.23762e-16
1.41787e-16
1.52007e-14
2.52217e-15
4.47663e-16
1.44556e-16
1.05441e-16
1.03036e-16
1.0831e-16
1.19221e-16
1.3425e-16
1.46832e-16
1.43042e-16
1.26561e-16
1.11135e-16
1.03275e-16
3.04596e-14
5.05567e-15
8.16497e-16
1.91827e-16
1.09983e-16
1.00561e-16
9.9915e-17
1.00558e-16
1.0168e-16
1.02799e-16
1.02704e-16
1.01498e-16
1.00305e-16
9.97162e-17
4.23641e-14
6.95933e-15
1.08097e-15
2.23736e-16
1.13319e-16
1.00756e-16
9.95126e-17
9.94443e-17
9.95088e-17
9.95927e-17
9.96089e-17
9.95505e-17
9.94914e-17
9.95066e-17
4.0888e-14
6.47583e-15
9.80431e-16
2.06942e-16
1.11037e-16
1.00531e-16
9.95187e-17
9.94384e-17
9.94409e-17
9.94522e-17
9.94633e-17
9.94726e-17
9.94854e-17
9.96389e-17
3.1533e-14
4.76263e-15
7.12102e-16
1.70382e-16
1.06761e-16
1.00143e-16
9.95347e-17
9.94889e-17
9.94903e-17
9.9497e-17
9.95058e-17
9.9517e-17
9.95368e-17
1.00019e-16
2.04645e-14
2.95642e-15
4.54003e-16
1.38147e-16
1.03297e-16
9.98643e-17
9.95649e-17
9.9545e-17
9.95475e-17
9.95535e-17
9.95609e-17
9.95711e-17
9.96084e-17
1.00956e-16
1.17492e-14
1.64955e-15
2.80934e-16
1.18218e-16
1.01326e-16
9.9742e-17
9.96109e-17
9.96039e-17
9.96067e-17
9.9612e-17
9.9618e-17
9.96274e-17
9.97133e-17
1.02805e-16
5.97068e-15
8.4564e-16
1.81856e-16
1.07671e-16
1.00372e-16
9.97216e-17
9.96695e-17
9.9667e-17
9.96689e-17
9.96734e-17
9.96781e-17
9.96876e-17
9.9851e-17
1.04972e-16
2.67093e-15
4.13752e-16
1.32507e-16
1.02871e-16
1.0008e-16
9.98362e-17
9.97905e-17
9.97619e-17
9.97456e-17
9.97407e-17
9.97411e-17
9.97483e-17
9.99401e-17
1.05172e-16
1.10971e-15
2.1954e-16
1.12371e-16
1.01997e-16
1.01476e-16
1.01338e-16
1.00859e-16
1.00359e-16
1.00037e-16
9.98825e-17
9.98265e-17
9.98147e-17
9.99366e-17
1.02999e-16
4.48597e-16
1.42767e-16
1.11516e-16
1.16693e-16
1.23546e-16
1.22538e-16
1.15555e-16
1.08221e-16
1.03446e-16
1.0111e-16
1.0022e-16
9.99559e-17
9.99349e-17
1.00938e-16
2.52555e-16
1.55299e-16
2.08489e-16
3.21482e-16
4.08113e-16
3.90992e-16
3.00823e-16
2.07858e-16
1.46508e-16
1.16208e-16
1.04604e-16
1.01086e-16
1.00204e-16
1.00456e-16
1.98714e-16
1.12982e-16
1.01351e-16
1.01966e-16
1.09484e-16
1.3093e-16
1.76988e-16
2.51446e-16
3.34663e-16
3.80778e-16
3.36521e-16
2.42724e-16
1.63049e-16
1.21993e-16
4.29841e-16
1.46613e-16
1.05293e-16
9.99177e-17
9.97873e-17
1.01396e-16
1.05434e-16
1.12782e-16
1.2232e-16
1.29454e-16
1.26195e-16
1.15774e-16
1.06372e-16
1.01539e-16
9.65088e-16
2.29085e-16
1.16502e-16
1.01157e-16
9.929e-17
9.91847e-17
9.94544e-17
1.00045e-16
1.00915e-16
1.01698e-16
1.01532e-16
1.00596e-16
9.9713e-17
9.92669e-17
1.80871e-15
3.61023e-16
1.34611e-16
1.03372e-16
9.95248e-17
9.91034e-17
9.90758e-17
9.91089e-17
9.91706e-17
9.92371e-17
9.92382e-17
9.91756e-17
9.91159e-17
9.90923e-17
2.39202e-15
4.49064e-16
1.46262e-16
1.04739e-16
9.96937e-17
9.91469e-17
9.90923e-17
9.90875e-17
9.90893e-17
9.9094e-17
9.90979e-17
9.90992e-17
9.91032e-17
9.9113e-17
2.18662e-15
4.06858e-16
1.39277e-16
1.03798e-16
9.9616e-17
9.91749e-17
9.91308e-17
9.91248e-17
9.9123e-17
9.91233e-17
9.91264e-17
9.91313e-17
9.91387e-17
9.91533e-17
1.59773e-15
3.09145e-16
1.25243e-16
1.0208e-16
9.94652e-17
9.91985e-17
9.91712e-17
9.91664e-17
9.91643e-17
9.91641e-17
9.91665e-17
9.91711e-17
9.91779e-17
9.92052e-17
9.95577e-16
2.17856e-16
1.13184e-16
1.0071e-16
9.93627e-17
9.92289e-17
9.92137e-17
9.92098e-17
9.92077e-17
9.92074e-17
9.92092e-17
9.92135e-17
9.92202e-17
9.92877e-17
5.70154e-16
1.58092e-16
1.05874e-16
9.99446e-17
9.93287e-17
9.92674e-17
9.92584e-17
9.92549e-17
9.92528e-17
9.92524e-17
9.92535e-17
9.92571e-17
9.92656e-17
9.94254e-17
3.15861e-16
1.25023e-16
1.02103e-16
9.95917e-17
9.93385e-17
9.93115e-17
9.93053e-17
9.93019e-17
9.92999e-17
9.92993e-17
9.93e-17
9.9303e-17
9.93154e-17
9.95972e-17
1.855e-16
1.09288e-16
1.0042e-16
9.94698e-17
9.93746e-17
9.93615e-17
9.93556e-17
9.93515e-17
9.9349e-17
9.9348e-17
9.93482e-17
9.93504e-17
9.93641e-17
9.96656e-17
1.30112e-16
1.02966e-16
9.98056e-17
9.94841e-17
9.946e-17
9.94489e-17
9.94307e-17
9.94143e-17
9.94046e-17
9.94001e-17
9.93989e-17
9.94002e-17
9.94103e-17
9.95919e-17
1.09323e-16
1.00711e-16
9.9831e-17
9.99927e-17
1.00178e-16
1.00108e-16
9.98784e-17
9.9664e-17
9.95362e-17
9.94778e-17
9.94569e-17
9.94518e-17
9.94548e-17
9.95113e-17
1.04004e-16
1.01357e-16
1.03383e-16
1.07366e-16
1.09992e-16
1.08768e-16
1.05421e-16
1.02436e-16
1.00679e-16
9.98883e-17
9.96064e-17
9.95272e-17
9.95087e-17
9.95241e-17
1.03503e-16
9.93904e-17
9.88439e-17
9.88429e-17
9.91168e-17
9.99803e-17
1.02003e-16
1.05584e-16
1.09996e-16
1.12838e-16
1.10882e-16
1.06095e-16
1.01997e-16
9.98865e-17
1.14674e-16
1.00957e-16
9.90489e-17
9.88054e-17
9.87908e-17
9.88497e-17
9.90203e-17
9.93594e-17
9.98346e-17
1.00223e-16
1.00088e-16
9.95717e-17
9.90982e-17
9.88559e-17
1.40488e-16
1.04712e-16
9.95551e-17
9.88839e-17
9.88003e-17
9.87892e-17
9.87942e-17
9.88154e-17
9.88522e-17
9.8889e-17
9.88803e-17
9.88341e-17
9.87891e-17
9.87687e-17
1.79952e-16
1.10538e-16
1.00333e-16
9.89987e-17
9.88372e-17
9.88138e-17
9.8806e-17
9.88015e-17
9.87989e-17
9.87983e-17
9.87956e-17
9.87918e-17
9.87878e-17
9.87882e-17
2.03711e-16
1.13975e-16
1.00787e-16
9.90744e-17
9.88712e-17
9.88437e-17
9.88349e-17
9.88287e-17
9.88233e-17
9.88195e-17
9.88165e-17
9.88155e-17
9.88148e-17
9.88166e-17
1.88726e-16
1.11453e-16
1.00455e-16
9.90598e-17
9.88968e-17
9.88737e-17
9.88654e-17
9.8859e-17
9.88534e-17
9.88492e-17
9.88462e-17
9.88451e-17
9.88448e-17
9.88464e-17
1.58744e-16
1.0692e-16
9.98823e-17
9.90206e-17
9.89207e-17
9.89043e-17
9.88966e-17
9.88902e-17
9.88847e-17
9.88804e-17
9.88772e-17
9.88758e-17
9.88753e-17
9.88772e-17
1.31816e-16
1.03159e-16
9.94408e-17
9.90005e-17
9.89478e-17
9.89361e-17
9.89288e-17
9.89224e-17
9.89169e-17
9.89124e-17
9.89092e-17
9.89074e-17
9.89069e-17
9.891e-17
1.14783e-16
1.00938e-16
9.92064e-17
9.90055e-17
9.89784e-17
9.8969e-17
9.8962e-17
9.89555e-17
9.89501e-17
9.89455e-17
9.89422e-17
9.894e-17
9.89397e-17
9.89459e-17
1.05703e-16
9.9829e-17
9.91111e-17
9.90267e-17
9.90114e-17
9.90031e-17
9.89961e-17
9.89896e-17