/*--------------------------------*- C++ -*----------------------------------*\
| =========                 |                                                 |
| \\      /  F ield         | OpenFOAM: The Open Source CFD Toolbox           |
|  \\    /   O peration     | Version:  v2106                                 |
|   \\  /    A nd           | Website:  www.openfoam.com                      |
|    \\/     M anipulation  |                                                 |
\*---------------------------------------------------------------------------*/
FoamFile
{
    version     2.0;
    format      ascii;
    arch        "LSB;label=32;scalar=64";
    class       volScalarField;
    location    "0.000129";
    object      Ttot;
}
// * * * * * * * * * * * * * * * * * * * * * * * * * * * * * * * * * * * * * //

dimensions      [0 0 0 1 0 0 0];

internalField   nonuniform List<scalar> 
18109
(
306.046
305.881
305.865
305.843
305.844
305.858
305.9
306.091
306.001
305.958
305.941
305.959
305.986
306.04
306.057
306.039
306.04
306.059
306.097
306.137
306.186
306.103
306.114
306.136
306.172
306.214
306.256
306.3
306.084
306.137
306.188
306.245
306.302
306.356
306.401
306.092
306.168
306.235
306.31
306.379
306.439
306.482
306.094
306.183
306.264
306.351
306.425
306.49
306.533
306.101
306.201
306.296
306.389
306.465
306.529
306.568
306.219
306.099
306.094
306.088
306.101
306.12
306.165
306.217
306.287
306.355
306.421
306.475
306.555
306.607
306.288
306.223
306.2
306.199
306.225
306.259
306.314
306.366
306.423
306.464
306.501
306.511
306.537
306.524
306.288
306.28
306.291
306.321
306.367
306.414
306.464
306.501
306.533
306.544
306.558
306.539
306.513
306.487
306.341
306.359
306.39
306.434
306.484
306.534
306.581
306.614
306.636
306.638
306.61
306.566
306.506
306.46
306.337
306.39
306.443
306.507
306.57
306.629
306.678
306.707
306.72
306.704
306.655
306.591
306.509
306.44
306.347
306.422
306.49
306.568
306.64
306.706
306.753
306.778
306.782
306.755
306.692
306.618
306.525
306.437
306.346
306.436
306.517
306.604
306.679
306.749
306.796
306.82
306.82
306.788
306.725
306.649
306.555
306.452
306.353
306.453
306.546
306.637
306.712
306.78
306.823
306.844
306.842
306.809
306.751
306.678
306.587
306.477
306.371
306.47
306.563
306.654
306.723
306.784
306.824
306.845
306.845
306.816
306.766
306.701
306.625
306.522
306.419
306.509
306.595
306.681
306.741
306.795
306.826
306.843
306.843
306.818
306.778
306.723
306.661
306.571
306.467
306.553
306.625
306.702
306.748
306.789
306.812
306.822
306.822
306.806
306.778
306.744
306.699
306.64
306.573
306.64
306.679
306.736
306.763
306.787
306.798
306.801
306.8
306.792
306.775
306.77
306.74
306.707
306.666
306.731
306.73
306.766
306.771
306.779
306.776
306.772
306.768
306.769
306.775
306.789
306.806
306.818
306.852
306.869
306.817
306.824
306.801
306.784
306.767
306.755
306.753
306.762
306.791
306.823
306.868
306.922
306.056
306.3
306.422
306.526
306.608
306.66
306.191
306.357
306.46
306.57
306.685
306.82
305.931
305.99
305.985
306.038
306.078
306.047
305.927
305.892
305.818
305.728
305.542
305.122
305.898
305.772
305.601
305.37
304.968
304.22
305.896
305.708
305.482
305.154
304.611
303.666
305.922
305.693
305.425
305.037
304.452
303.479
305.979
305.751
305.477
305.087
304.535
303.732
306.061
305.873
305.653
305.34
304.916
304.342
306.149
305.995
305.832
305.64
305.42
305.138
306.258
306.158
306.075
305.999
305.95
305.892
306.375
306.32
306.328
306.355
306.449
306.552
306.457
306.461
306.522
306.628
306.805
307.008
306.582
306.62
306.744
306.89
307.1
307.36
306.585
306.714
306.845
307.051
307.268
307.544
306.691
306.873
306.987
307.144
307.313
307.535
306.465
306.558
306.642
306.789
306.949
307.143
306.418
306.462
306.486
306.544
306.61
306.674
306.355
306.325
306.277
306.242
306.211
306.11
306.311
306.209
306.086
305.953
305.808
305.542
306.297
306.142
305.971
305.767
305.532
305.15
306.312
306.128
305.925
305.681
305.397
304.971
306.344
306.164
305.957
305.72
305.436
305.096
306.418
306.278
306.116
305.914
305.694
305.476
306.488
306.386
306.286
306.175
306.083
306
306.604
306.541
306.503
306.47
306.497
306.535
306.703
306.697
306.733
306.793
306.914
307.054
306.849
306.886
306.995
307.109
307.296
307.516
306.927
307.033
307.161
307.342
307.556
307.82
307.079
307.229
307.374
307.554
307.758
308.005
306.899
307.028
307.181
307.399
307.638
307.906
306.85
306.962
307.089
307.251
307.421
307.591
306.793
306.857
306.941
307.044
307.142
307.19
306.754
306.786
306.823
306.86
306.873
306.771
306.737
306.741
306.746
306.736
306.683
306.488
306.739
306.735
306.727
306.696
306.607
306.413
306.759
306.766
306.765
306.735
306.636
306.45
306.791
306.82
306.836
306.834
306.793
306.702
306.828
306.892
306.957
307.023
307.049
307.053
306.873
306.961
307.067
307.175
307.295
307.422
306.893
307.012
307.16
307.331
307.515
307.713
306.964
307.094
307.255
307.451
307.672
307.942
306.878
307.017
307.17
307.392
307.628
307.931
306.088
306.103
306.183
306.308
306.498
306.716
306.069
306.156
306.305
306.515
306.796
307.126
306.137
306.238
306.426
306.668
306.973
307.354
306.004
306.158
306.331
306.614
306.908
307.267
306.888
307.1
307.208
307.367
307.494
307.632
306.585
306.689
306.707
306.8
306.866
306.851
306.464
306.5
306.474
306.435
306.276
305.907
306.346
306.303
306.202
306.029
305.654
304.971
306.294
306.185
306.019
305.754
305.264
304.464
306.245
306.099
305.897
305.591
305.061
304.307
306.232
306.079
305.882
305.583
305.136
304.476
306.249
306.128
305.972
305.75
305.468
305.061
306.268
306.191
306.12
306.029
305.932
305.755
306.276
306.241
306.238
306.247
306.3
306.338
306.324
306.325
306.381
306.475
306.629
306.802
306.285
306.338
306.442
306.596
306.818
307.068
306.31
306.373
306.51
306.686
306.925
307.228
306.181
306.283
306.41
306.623
306.862
307.175
307.021
307.463
307.932
308.485
309.457
305.706
305.073
304.018
303.294
303.029
303.917
301.907
299.499
297.743
297.129
302.354
299.362
296.498
295.018
295.832
301.663
298.435
295.728
295.49
298.201
301.518
298.456
296.267
296.914
300.593
302.113
299.818
298.446
299.737
303.703
303.337
301.995
301.343
302.83
306.861
309.926
304.67
304.143
304.12
305.533
308.626
311.153
305.857
305.979
306.438
307.762
309.856
311.369
306.835
307.474
308.401
309.653
311.017
312.074
312.044
307.516
308.463
309.656
311.026
312.391
313.287
312.446
308.609
307.95
309.019
310.324
311.827
313.485
314.98
313.899
314.14
308.133
309.243
310.544
311.985
313.469
314.851
315.937
315.651
308.038
309.025
310.189
311.589
313.341
315.633
317.444
316.621
307.468
308.053
308.748
309.615
310.875
312.692
315.739
316.067
306.648
306.592
306.42
306.284
306.863
308.165
310.37
314.529
305.588
304.619
303.291
302.402
302.353
303.698
305.412
306.656
304.694
303.207
301.433
300.481
300.77
302.727
303.949
300.743
304.264
302.658
300.827
299.952
300.864
302.837
304.409
301.46
304.17
302.678
301.068
300.468
301.502
303.069
304.703
299.608
304.404
303.426
302.297
302.029
303.192
304.033
303.604
300.166
305.12
304.672
304.121
304.077
305.165
306.215
305.95
305.925
305.952
306.232
307.014
308.042
306.752
307.156
307.707
308.484
309.315
309.674
307.467
308.235
309.256
310.518
311.727
312.441
308.068
309.083
310.333
311.893
313.546
315.262
308.413
309.48
310.805
312.356
314.109
308.569
309.579
310.813
312.285
314.291
308.354
309.033
309.842
310.844
312.26
307.77
307.954
308.021
308.183
308.923
306.978
306.357
305.339
304.683
304.859
306.264
305.156
303.749
303.004
303.586
305.922
304.605
303.169
302.726
303.975
305.774
304.587
303.419
303.307
304.713
305.946
305.173
304.345
304.508
306.061
306.463
306.084
305.696
306.003
307.453
307.041
307.081
307.174
307.744
308.889
307.633
308.004
308.527
309.515
310.73
308.097
308.807
309.742
311.024
312.577
308.466
309.39
310.49
311.976
313.68
308.458
309.362
310.369
311.619
313.252
307.806
308.203
308.654
309.291
310.358
306.52
305.927
304.977
304.538
304.453
304.779
302.92
300.81
299.431
299.11
303.282
300.662
298.122
297.083
298.24
302.635
299.893
297.686
297.894
300.794
302.531
300.017
298.443
299.648
303.27
303.156
301.353
300.596
302.403
306.17
304.301
303.329
303.252
305.229
308.993
305.47
305.26
305.704
307.542
310.399
306.448
306.843
307.702
309.325
311.383
307.212
308.059
309.227
310.717
312.221
307.633
308.698
310.012
311.492
313.097
307.875
309.043
310.407
311.931
313.499
307.763
308.813
309.961
311.14
312.508
306.424
306.357
306.366
306.379
306.398
306.422
306.459
306.504
306.564
306.632
306.697
306.758
306.838
306.891
306.499
306.47
306.472
306.489
306.517
306.551
306.595
306.641
306.693
306.737
306.782
306.811
306.846
306.859
306.517
306.524
306.549
306.589
306.635
306.68
306.724
306.761
306.795
306.817
306.838
306.849
306.847
306.84
306.566
306.598
306.639
306.688
306.738
306.787
306.832
306.865
306.89
306.904
306.901
306.889
306.857
306.829
306.58
306.636
306.691
306.755
306.814
306.872
306.919
306.95
306.967
306.969
306.955
306.923
306.869
306.819
306.6
306.674
306.741
306.817
306.882
306.945
306.991
307.02
307.032
307.028
307.001
306.955
306.889
306.82
306.618
306.699
306.777
306.859
306.929
306.996
307.042
307.072
307.082
307.074
307.041
306.99
306.919
306.836
306.65
306.735
306.817
306.903
306.973
307.04
307.084
307.113
307.122
307.112
307.077
307.026
306.957
306.866
306.683
306.767
306.847
306.933
307
307.065
307.109
307.136
307.146
307.137
307.107
307.06
307
306.909
306.741
306.819
306.892
306.973
307.033
307.092
307.13
307.154
307.164
307.157
307.134
307.095
307.048
306.964
306.799
306.874
306.934
307.007
307.055
307.103
307.133
307.153
307.164
307.163
307.151
307.128
307.095
307.032
306.894
306.955
306.992
307.05
307.082
307.118
307.14
307.154
307.167
307.169
307.169
307.171
307.145
307.101
306.976
307.037
307.046
307.088
307.102
307.123
307.137
307.147
307.161
307.171
307.185
307.2
307.208
307.207
307.115
307.142
307.115
307.137
307.131
307.137
307.143
307.15
307.166
307.184
307.217
307.245
307.273
307.301
306.447
306.424
306.441
306.462
306.491
306.52
306.56
306.606
306.664
306.736
306.813
306.885
306.974
307.041
306.526
306.52
306.538
306.564
306.599
306.634
306.677
306.724
306.78
306.837
306.897
306.957
307.017
307.063
306.552
306.577
306.61
306.651
306.696
306.741
306.786
306.828
306.872
306.917
306.959
307.007
307.043
307.078
306.616
306.655
306.697
306.745
306.793
306.84
306.885
306.925
306.964
307.001
307.031
307.06
307.073
307.094
306.658
306.71
306.762
306.818
306.871
306.923
306.969
307.008
307.041
307.069
307.089
307.107
307.107
307.112
306.712
306.772
306.831
306.893
306.947
307.001
307.046
307.084
307.114
307.137
307.147
307.157
307.147
307.134
306.767
306.831
306.894
306.959
307.015
307.07
307.114
307.152
307.179
307.199
307.205
307.208
307.191
307.165
306.836
306.902
306.963
307.029
307.083
307.138
307.179
307.216
307.241
307.259
307.264
307.262
307.243
307.208
306.904
306.97
307.026
307.09
307.142
307.196
307.237
307.273
307.298
307.314
307.322
307.319
307.303
307.263
306.989
307.049
307.099
307.159
307.206
307.256
307.294
307.327
307.353
307.368
307.381
307.38
307.371
307.328
307.067
307.124
307.165
307.219
307.26
307.307
307.343
307.374
307.402
307.419
307.438
307.442
307.441
307.403
307.159
307.209
307.239
307.287
307.321
307.362
307.394
307.424
307.454
307.473
307.497
307.51
307.514
307.482
307.232
307.286
307.303
307.346
307.373
307.409
307.44
307.469
307.502
307.528
307.555
307.577
307.588
307.583
307.325
307.37
307.37
307.409
307.428
307.459
307.488
307.518
307.554
307.587
307.624
307.651
307.67
307.681
306.396
306.389
306.407
306.429
306.46
306.492
306.534
306.582
306.639
306.704
306.776
306.85
306.929
306.993
306.483
306.48
306.5
306.523
306.556
306.591
306.635
306.683
306.74
306.802
306.863
306.928
306.986
307.035
306.525
306.544
306.572
306.604
306.644
306.684
306.73
306.776
306.827
306.881
306.932
306.986
307.026
307.066
306.599
306.625
306.658
306.695
306.737
306.779
306.823
306.868
306.916
306.965
307.008
307.05
307.073
307.099
306.662
306.695
306.735
306.777
306.822
306.866
306.91
306.954
306.998
307.04
307.075
307.106
307.119
307.136
306.734
306.771
306.814
306.86
306.906
306.952
306.996
307.039
307.08
307.117
307.144
307.168
307.173
307.178
306.807
306.848
306.892
306.941
306.988
307.037
307.08
307.123
307.16
307.193
307.215
307.231
307.232
307.227
306.891
306.933
306.975
307.025
307.071
307.12
307.162
307.204
307.24
307.27
307.288
307.301
307.299
307.281
306.973
307.016
307.056
307.106
307.15
307.2
307.242
307.283
307.318
307.347
307.364
307.374
307.371
307.347
307.064
307.105
307.142
307.189
307.232
307.28
307.321
307.362
307.396
307.424
307.443
307.452
307.449
307.421
307.146
307.188
307.221
307.266
307.307
307.355
307.397
307.438
307.474
307.502
307.524
307.533
307.533
307.502
307.233
307.273
307.303
307.347
307.386
307.433
307.474
307.515
307.553
307.58
307.608
307.618
307.62
307.59
307.298
307.345
307.372
307.417
307.455
307.501
307.545
307.588
307.629
307.658
307.69
307.705
307.705
307.684
307.369
307.42
307.44
307.486
307.523
307.569
307.613
307.658
307.702
307.737
307.772
307.791
307.799
307.789
306.317
306.311
306.324
306.34
306.363
306.387
306.42
306.456
306.499
306.546
306.597
306.654
306.709
306.763
306.401
306.394
306.405
306.421
306.444
306.469
306.501
306.538
306.581
306.628
306.675
306.726
306.77
306.814
306.454
306.462
306.476
306.494
306.519
306.547
306.58
306.616
306.657
306.7
306.742
306.786
306.822
306.86
306.527
306.539
306.555
306.575
306.601
306.629
306.662
306.697
306.736
306.776
306.815
306.853
306.88
306.909
306.598
306.613
306.634
306.656
306.683
306.711
306.744
306.777
306.814
306.85
306.884
306.916
306.938
306.961
306.672
306.691
306.713
306.738
306.765
306.795
306.826
306.86
306.894
306.928
306.958
306.985
307
307.015
306.746
306.769
306.793
306.821
306.849
306.88
306.911
306.944
306.976
307.006
307.032
307.054
307.065
307.071
306.823
306.85
306.876
306.906
306.934
306.966
306.997
307.03
307.06
307.087
307.109
307.126
307.132
307.131
306.9
306.93
306.957
306.99
307.019
307.053
307.083
307.116
307.144
307.17
307.188
307.2
307.204
307.196
306.979
307.012
307.04
307.074
307.105
307.139
307.17
307.202
307.229
307.253
307.269
307.278
307.28
307.266
307.052
307.088
307.118
307.154
307.187
307.223
307.255
307.287
307.314
307.336
307.351
307.358
307.36
307.341
307.126
307.165
307.196
307.234
307.267
307.304
307.337
307.37
307.397
307.418
307.435
307.441
307.444
307.425
307.188
307.231
307.262
307.301
307.337
307.376
307.412
307.447
307.476
307.498
307.517
307.524
307.525
307.512
307.251
307.297
307.328
307.368
307.405
307.445
307.483
307.519
307.551
307.576
307.597
307.609
307.611
307.609
306.163
306.157
306.161
306.168
306.179
306.193
306.211
306.232
306.256
306.284
306.315
306.35
306.386
306.427
306.233
306.222
306.226
306.232
306.243
306.256
306.274
306.295
306.32
306.347
306.377
306.41
306.442
306.477
306.291
306.285
306.289
306.296
306.307
306.321
306.338
306.358
306.381
306.407
306.434
306.464
306.491
306.525
306.356
306.352
306.356
306.364
306.375
306.388
306.405
306.424
306.447
306.471
306.496
306.523
306.547
306.576
306.419
306.419
306.424
306.432
306.444
306.457
306.473
306.492
306.513
306.535
306.558
306.581
306.602
306.627
306.483
306.487
306.494
306.503
306.514
306.527
306.543
306.562
306.581
306.602
306.622
306.643
306.661
306.681
306.548
306.555
306.564
306.574
306.585
306.6
306.615
306.633
306.651
306.67
306.688
306.706
306.72
306.735
306.614
306.624
306.634
306.646
306.658
306.673
306.688
306.706
306.723
306.74
306.756
306.771
306.783
306.792
306.68
306.693
306.704
306.718
306.731
306.748
306.763
306.78
306.796
306.811
306.824
306.836
306.846
306.849
306.746
306.763
306.775
306.791
306.805
306.822
306.838
306.855
306.87
306.884
306.895
306.904
306.912
306.909
306.811
306.831
306.844
306.862
306.878
306.896
306.913
306.93
306.944
306.957
306.967
306.973
306.98
306.971
306.877
306.899
306.913
306.933
306.95
306.97
306.987
307.004
307.018
307.03
307.04
307.044
307.051
307.039
306.939
306.962
306.978
307
307.019
307.04
307.059
307.078
307.092
307.104
307.113
307.117
307.122
307.113
307.004
307.027
307.046
307.068
307.089
307.111
307.13
307.15
307.165
307.178
307.187
307.193
307.196
307.194
306.005
305.997
305.994
305.993
305.993
305.996
306.001
306.007
306.016
306.028
306.042
306.06
306.08
306.105
306.058
306.046
306.043
306.04
306.041
306.043
306.048
306.055
306.064
306.076
306.09
306.108
306.127
306.151
306.104
306.095
306.092
306.089
306.09
306.092
306.096
306.103
306.112
306.122
306.135
306.152
306.169
306.193
306.154
306.146
306.143
306.14
306.14
306.142
306.147
306.153
306.162
306.172
306.184
306.199
306.216
306.238
306.203
306.197
306.194
306.192
306.192
306.194
306.198
306.204
306.212
306.222
306.233
306.247
306.263
306.282
306.254
306.249
306.247
306.245
306.246
306.248
306.252
306.257
306.265
306.274
306.284
306.297
306.311
306.328
306.304
306.302
306.3
306.299
306.3
306.302
306.306
306.312
306.318
306.326
306.336
306.347
306.359
306.374
306.357
306.355
306.354
306.354
306.356
306.358
306.362
306.367
306.373
306.381
306.389
306.399
306.41
306.422
306.409
306.41
306.409
306.41
306.412
306.415
306.419
306.424
306.429
306.436
306.443
306.452
306.461
306.469
306.463
306.465
306.465
306.467
306.47
306.474
306.477
306.482
306.487
306.493
306.499
306.506
306.514
306.519
306.516
306.522
306.522
306.525
306.529
306.533
306.537
306.542
306.546
306.552
306.556
306.561
306.569
306.569
306.573
306.58
306.581
306.585
306.589
306.594
306.598
306.603
306.607
306.612
306.616
306.62
306.627
306.624
306.63
306.637
306.64
306.645
306.65
306.656
306.66
306.665
306.669
306.673
306.677
306.679
306.686
306.681
306.692
306.697
306.701
306.708
306.713
306.719
306.724
306.729
306.733
306.736
306.739
306.742
306.746
306.747
305.824
305.812
305.805
305.798
305.793
305.789
305.787
305.786
305.786
305.788
305.791
305.797
305.805
305.816
305.863
305.849
305.842
305.835
305.83
305.826
305.824
305.823
305.823
305.824
305.829
305.834
305.843
305.854
305.898
305.886
305.878
305.872
305.867
305.863
305.861
305.86
305.86
305.861
305.865
305.87
305.878
305.889
305.935
305.924
305.917
305.91
305.905
305.902
305.899
305.898
305.898
305.899
305.903
305.908
305.916
305.926
305.972
305.962
305.955
305.949
305.944
305.94
305.938
305.937
305.936
305.937
305.941
305.946
305.953
305.962
306.01
306.001
305.995
305.989
305.984
305.98
305.978
305.977
305.976
305.977
305.98
305.985
305.991
306
306.048
306.041
306.035
306.029
306.025
306.021
306.019
306.017
306.017
306.017
306.02
306.024
306.03
306.038
306.088
306.082
306.076
306.071
306.067
306.063
306.061
306.059
306.058
306.059
306.061
306.065
306.069
306.077
306.129
306.124
306.118
306.114
306.11
306.106
306.104
306.102
306.101
306.101
306.103
306.106
306.11
306.116
306.171
306.168
306.162
306.157
306.154
306.15
306.148
306.146
306.145
306.145
306.146
306.148
306.152
306.156
306.214
306.212
306.207
306.203
306.199
306.196
306.193
306.191
306.19
306.19
306.19
306.192
306.195
306.195
306.261
306.259
306.253
306.25
306.246
306.243
306.24
306.238
306.237
306.236
306.236
306.238
306.241
306.238
306.308
306.306
306.301
306.298
306.295
306.292
306.289
306.286
306.285
306.284
306.283
306.283
306.286
306.282
306.36
306.356
306.351
306.348
306.345
306.342
306.339
306.336
306.334
306.333
306.331
306.332
306.333
306.333
305.635
305.622
305.613
305.604
305.596
305.589
305.583
305.578
305.573
305.569
305.566
305.565
305.564
305.565
305.663
305.649
305.641
305.632
305.625
305.618
305.611
305.606
305.601
305.597
305.594
305.593
305.592
305.594
305.688
305.676
305.668
305.66
305.653
305.646
305.64
305.634
305.629
305.626
305.623
305.622
305.62
305.622
305.715
305.704
305.696
305.688
305.681
305.675
305.669
305.663
305.658
305.655
305.652
305.651
305.65
305.651
305.742
305.732
305.724
305.717
305.71
305.704
305.698
305.693
305.688
305.684
305.681
305.68
305.679
305.68
305.77
305.761
305.754
305.746
305.74
305.734
305.728
305.722
305.718
305.714
305.711
305.709
305.708
305.708
305.799
305.791
305.783
305.776
305.77
305.764
305.758
305.753
305.748
305.744
305.741
305.739
305.737
305.738
305.828
305.821
305.814
305.807
305.801
305.795
305.789
305.783
305.779
305.774
305.771
305.769
305.767
305.767
305.859
305.852
305.845
305.838
305.832
305.826
305.82
305.815
305.81
305.805
305.802
305.799
305.798
305.797
305.89
305.884
305.877
305.87
305.864
305.858
305.852
305.846
305.842
305.837
305.834
305.831
305.829
305.827
305.922
305.917
305.909
305.903
305.897
305.891
305.885
305.879
305.874
305.869
305.866
305.862
305.861
305.857
305.955
305.95
305.943
305.936
305.93
305.924
305.918
305.912
305.907
305.902
305.898
305.894
305.892
305.888
305.989
305.984
305.977
305.971
305.964
305.958
305.952
305.945
305.94
305.935
305.93
305.925
305.923
305.917
306.026
306.019
306.011
306.005
305.998
305.992
305.986
305.979
305.974
305.968
305.963
305.958
305.955
305.951
305.419
305.407
305.398
305.388
305.38
305.371
305.363
305.355
305.348
305.341
305.334
305.328
305.321
305.318
305.438
305.426
305.418
305.409
305.4
305.392
305.384
305.376
305.369
305.362
305.354
305.349
305.342
305.339
305.456
305.445
305.437
305.429
305.421
305.413
305.405
305.398
305.39
305.383
305.376
305.37
305.363
305.359
305.475
305.465
305.457
305.449
305.442
305.434
305.426
305.419
305.411
305.404
305.397
305.391
305.384
305.38
305.494
305.485
305.478
305.47
305.462
305.455
305.447
305.44
305.433
305.426
305.419
305.413
305.405
305.4
305.513
305.505
305.498
305.491
305.484
305.476
305.469
305.461
305.454
305.447
305.44
305.434
305.427
305.421
305.533
305.526
305.519
305.512
305.505
305.497
305.49
305.483
305.476
305.469
305.462
305.455
305.448
305.441
305.553
305.547
305.54
305.533
305.526
305.519
305.512
305.504
305.497
305.49
305.483
305.475
305.469
305.461
305.574
305.568
305.561
305.554
305.547
305.54
305.533
305.526
305.518
305.511
305.504
305.496
305.489
305.481
305.594
305.589
305.582
305.575
305.568
305.561
305.554
305.547
305.539
305.532
305.525
305.516
305.509
305.5
305.614
305.609
305.603
305.596
305.589
305.582
305.575
305.568
305.56
305.552
305.545
305.536
305.529
305.519
305.635
305.63
305.623
305.617
305.61
305.603
305.596
305.588
305.58
305.572
305.564
305.556
305.548
305.537
305.655
305.65
305.644
305.637
305.63
305.623
305.615
305.608
305.6
305.591
305.583
305.574
305.566
305.555
305.676
305.67
305.663
305.657
305.65
305.642
305.635
305.627
305.619
305.61
305.602
305.592
305.584
305.573
305.163
305.154
305.146
305.137
305.128
305.119
305.111
305.102
305.093
305.084
305.075
305.067
305.057
305.05
305.175
305.166
305.158
305.15
305.141
305.133
305.124
305.116
305.107
305.098
305.089
305.08
305.07
305.062
305.186
305.178
305.17
305.162
305.154
305.146
305.138
305.13
305.121
305.112
305.103
305.094
305.084
305.076
305.198
305.19
305.183
305.175
305.168
305.16
305.152
305.143
305.135
305.126
305.116
305.107
305.097
305.089
305.209
305.202
305.195
305.188
305.181
305.173
305.165
305.157
305.148
305.14
305.13
305.121
305.111
305.102
305.221
305.214
305.208
305.201
305.194
305.186
305.179
305.17
305.162
305.153
305.144
305.134
305.124
305.114
305.232
305.226
305.22
305.214
305.207
305.199
305.192
305.184
305.175
305.166
305.157
305.147
305.137
305.127
305.244
305.238
305.233
305.226
305.219
305.212
305.204
305.196
305.188
305.179
305.169
305.159
305.149
305.138
305.255
305.25
305.244
305.238
305.231
305.224
305.217
305.209
305.2
305.191
305.181
305.171
305.161
305.149
305.265
305.261
305.255
305.249
305.243
305.236
305.228
305.22
305.211
305.202
305.192
305.182
305.171
305.159
305.275
305.271
305.266
305.26
305.253
305.246
305.239
305.231
305.222
305.212
305.202
305.192
305.181
305.168
305.285
305.281
305.275
305.27
305.263
305.256
305.248
305.24
305.231
305.221
305.211
305.2
305.189
305.176
305.294
305.29
305.284
305.278
305.272
305.265
305.257
305.248
305.239
305.229
305.219
305.207
305.196
305.183
305.303
305.298
305.292
305.286
305.279
305.272
305.264
305.256
305.247
305.237
305.227
305.215
305.203
305.19
304.862
304.855
304.848
304.841
304.834
304.826
304.818
304.809
304.801
304.792
304.783
304.773
304.764
304.755
304.867
304.861
304.855
304.848
304.841
304.833
304.825
304.816
304.808
304.799
304.789
304.78
304.769
304.76
304.873
304.867
304.86
304.854
304.847
304.839
304.832
304.823
304.815
304.806
304.797
304.787
304.777
304.767
304.878
304.872
304.867
304.86
304.853
304.846
304.839
304.83
304.822
304.813
304.804
304.794
304.784
304.774
304.883
304.878
304.873
304.866
304.86
304.853
304.845
304.837
304.829
304.82
304.811
304.801
304.791
304.781
304.888
304.884
304.878
304.872
304.866
304.859
304.852
304.844
304.835
304.827
304.817
304.808
304.797
304.787
304.893
304.889
304.884
304.878
304.872
304.865
304.858
304.85
304.842
304.833
304.823
304.814
304.803
304.793
304.897
304.893
304.888
304.883
304.877
304.87
304.863
304.855
304.847
304.838
304.829
304.819
304.809
304.798
304.901
304.897
304.893
304.887
304.882
304.875
304.868
304.86
304.852
304.843
304.833
304.823
304.813
304.802
304.905
304.901
304.896
304.891
304.885
304.879
304.872
304.864
304.856
304.847
304.837
304.827
304.817
304.806
304.908
304.904
304.899
304.894
304.889
304.882
304.875
304.867
304.859
304.849
304.84
304.829
304.819
304.808
304.91
304.906
304.902
304.897
304.891
304.884
304.877
304.869
304.86
304.851
304.841
304.831
304.82
304.809
304.912
304.908
304.904
304.898
304.892
304.886
304.878
304.87
304.861
304.852
304.842
304.831
304.82
304.809
304.914
304.909
304.904
304.899
304.893
304.886
304.878
304.87
304.862
304.853
304.843
304.832
304.822
304.81
304.53
304.526
304.522
304.517
304.511
304.506
304.499
304.493
304.486
304.478
304.47
304.462
304.454
304.446
304.533
304.529
304.524
304.519
304.514
304.508
304.502
304.495
304.488
304.48
304.472
304.464
304.455
304.447
304.534
304.53
304.526
304.521
304.516
304.51
304.504
304.497
304.49
304.483
304.475
304.467
304.458
304.45
304.536
304.532
304.528
304.523
304.518
304.512
304.506
304.499
304.493
304.485
304.477
304.469
304.461
304.452
304.537
304.533
304.529
304.525
304.52
304.514
304.508
304.501
304.495
304.487
304.48
304.472
304.463
304.455
304.538
304.534
304.53
304.526
304.521
304.515
304.51
304.503
304.496
304.489
304.482
304.474
304.466
304.457
304.538
304.535
304.531
304.527
304.522
304.517
304.511
304.504
304.498
304.491
304.483
304.475
304.467
304.459
304.539
304.535
304.532
304.527
304.523
304.517
304.511
304.505
304.499
304.491
304.484
304.476
304.468
304.46
304.539
304.535
304.532
304.527
304.523
304.517
304.512
304.505
304.499
304.492
304.484
304.476
304.469
304.46
304.538
304.535
304.531
304.527
304.522
304.517
304.511
304.505
304.498
304.491
304.484
304.476
304.468
304.46
304.538
304.535
304.531
304.526
304.522
304.516
304.51
304.504
304.497
304.49
304.483
304.475
304.467
304.459
304.537
304.534
304.53
304.525
304.52
304.515
304.509
304.503
304.496
304.489
304.481
304.474
304.466
304.458
304.537
304.533
304.529
304.524
304.519
304.513
304.507
304.501
304.494
304.486
304.479
304.471
304.463
304.456
304.535
304.531
304.527
304.522
304.517
304.511
304.505
304.498
304.492
304.484
304.477
304.47
304.462
304.454
304.202
304.2
304.197
304.194
304.191
304.187
304.183
304.178
304.173
304.168
304.163
304.157
304.151
304.145
304.202
304.2
304.198
304.195
304.191
304.187
304.183
304.179
304.174
304.168
304.163
304.157
304.151
304.144
304.203
304.2
304.198
304.195
304.191
304.187
304.183
304.179
304.174
304.169
304.163
304.157
304.151
304.145
304.202
304.2
304.198
304.194
304.191
304.187
304.183
304.179
304.174
304.169
304.163
304.158
304.152
304.146
304.202
304.2
304.197
304.194
304.191
304.187
304.183
304.178
304.174
304.169
304.163
304.158
304.152
304.146
304.202
304.199
304.196
304.193
304.19
304.186
304.182
304.178
304.173
304.168
304.163
304.158
304.152
304.146
304.201
304.198
304.195
304.192
304.189
304.185
304.181
304.177
304.172
304.167
304.162
304.157
304.152
304.146
304.2
304.197
304.194
304.191
304.188
304.184
304.18
304.176
304.171
304.166
304.162
304.156
304.151
304.146
304.199
304.196
304.193
304.19
304.186
304.182
304.178
304.174
304.17
304.165
304.16
304.155
304.15
304.145
304.198
304.195
304.192
304.188
304.185
304.181
304.177
304.173
304.168
304.164
304.159
304.154
304.149
304.143
304.197
304.194
304.191
304.187
304.183
304.179
304.175
304.171
304.166
304.162
304.157
304.152
304.147
304.142
304.195
304.192
304.189
304.185
304.182
304.177
304.173
304.169
304.165
304.16
304.155
304.15
304.145
304.14
304.194
304.191
304.188
304.184
304.18
304.176
304.171
304.167
304.162
304.158
304.153
304.148
304.143
304.138
304.192
304.189
304.185
304.182
304.178
304.173
304.169
304.165
304.16
304.156
304.151
304.147
304.142
304.137
303.9
303.899
303.897
303.895
303.894
303.891
303.889
303.886
303.884
303.88
303.877
303.873
303.87
303.866
303.9
303.899
303.898
303.896
303.894
303.892
303.889
303.886
303.883
303.88
303.877
303.873
303.869
303.865
303.9
303.899
303.897
303.896
303.893
303.891
303.889
303.886
303.883
303.88
303.877
303.873
303.869
303.865
303.9
303.899
303.897
303.895
303.893
303.891
303.888
303.885
303.882
303.879
303.876
303.873
303.869
303.865
303.9
303.898
303.896
303.894
303.892
303.89
303.887
303.885
303.882
303.879
303.876
303.872
303.869
303.865
303.899
303.897
303.895
303.893
303.891
303.889
303.886
303.883
303.881
303.878
303.875
303.871
303.868
303.864
303.899
303.897
303.895
303.892
303.89
303.887
303.885
303.882
303.88
303.877
303.874
303.871
303.867
303.864
303.898
303.896
303.894
303.891
303.889
303.886
303.884
303.881
303.879
303.876
303.873
303.87
303.866
303.863
303.897
303.895
303.893
303.89
303.888
303.885
303.883
303.88
303.877
303.875
303.872
303.869
303.865
303.862
303.897
303.894
303.892
303.889
303.887
303.884
303.882
303.879
303.876
303.874
303.871
303.868
303.864
303.861
303.896
303.893
303.891
303.888
303.886
303.883
303.881
303.878
303.875
303.873
303.87
303.867
303.863
303.86
303.895
303.892
303.89
303.887
303.885
303.882
303.879
303.877
303.874
303.871
303.869
303.866
303.863
303.859
303.893
303.891
303.889
303.886
303.883
303.881
303.878
303.876
303.873
303.87
303.867
303.864
303.862
303.858
303.892
303.889
303.887
303.884
303.882
303.879
303.877
303.874
303.872
303.869
303.866
303.864
303.861
303.858
303.631
303.63
303.629
303.628
303.627
303.626