/*--------------------------------*- C++ -*----------------------------------*\
| =========                 |                                                 |
| \\      /  F ield         | OpenFOAM: The Open Source CFD Toolbox           |
|  \\    /   O peration     | Version:  v2106                                 |
|   \\  /    A nd           | Website:  www.openfoam.com                      |
|    \\/     M anipulation  |                                                 |
\*---------------------------------------------------------------------------*/
FoamFile
{
    version     2.0;
    format      ascii;
    arch        "LSB;label=32;scalar=64";
    class       volScalarField;
    location    "0.000156";
    object      rho;
}
// * * * * * * * * * * * * * * * * * * * * * * * * * * * * * * * * * * * * * //

dimensions      [1 -3 0 0 0 0 0];

internalField   nonuniform List<scalar> 
18273
(
2.3596
2.36094
2.35841
2.35804
2.35851
2.35984
2.36175
2.36334
2.36502
2.36483
2.36279
2.36153
2.35916
2.35908
2.35915
2.35827
2.35685
2.3575
2.35819
2.35951
2.36098
2.36273
2.36389
2.36411
2.36248
2.36111
2.35858
2.35882
2.36192
2.36126
2.35863
2.35847
2.35859
2.35959
2.36077
2.36209
2.36278
2.36273
2.3615
2.36033
2.35809
2.35779
2.36315
2.36189
2.35988
2.35961
2.35945
2.36022
2.36117
2.36232
2.36308
2.36296
2.36199
2.36069
2.35892
2.35791
2.36555
2.36299
2.36056
2.35972
2.35978
2.36032
2.36118
2.36218
2.3629
2.3627
2.36204
2.36107
2.36027
2.35937
2.36663
2.36268
2.35992
2.35915
2.35934
2.3597
2.36056
2.36144
2.36221
2.36218
2.3617
2.36074
2.36023
2.35943
2.36704
2.36152
2.35822
2.35716
2.35759
2.35816
2.35901
2.35979
2.36063
2.36094
2.36105
2.36059
2.36094
2.36057
2.36499
2.35837
2.3551
2.35415
2.35481
2.3557
2.3567
2.35748
2.35844
2.35882
2.35926
2.35896
2.36005
2.36008
2.36313
2.35499
2.35167
2.35078
2.35164
2.35288
2.35433
2.3551
2.35592
2.3562
2.35684
2.35645
2.35799
2.35883
2.35834
2.35002
2.34703
2.34704
2.34876
2.3503
2.35195
2.35272
2.35324
2.35291
2.35332
2.35278
2.35411
2.35464
2.35497
2.34638
2.34437
2.34438
2.34656
2.34888
2.35093
2.35138
2.35147
2.35049
2.35044
2.34928
2.35011
2.3496
2.3515
2.34224
2.34158
2.3416
2.34443
2.34769
2.35076
2.35145
2.35118
2.34917
2.34827
2.34639
2.34728
2.34638
2.35158
2.34221
2.34082
2.34034
2.34323
2.34721
2.35142
2.35335
2.3533
2.35072
2.34887
2.34625
2.34655
2.34521
2.34946
2.34153
2.34022
2.34028
2.34315
2.34763
2.35263
2.35612
2.35701
2.3544
2.35253
2.35009
2.34873
2.34671
2.38875
2.38766
2.37972
2.37664
2.37399
2.37239
2.37048
2.36971
2.36866
2.36898
2.37087
2.37327
2.37448
2.37686
2.38844
2.38578
2.37923
2.37694
2.37502
2.37404
2.37265
2.37126
2.37061
2.37106
2.37299
2.37512
2.375
2.37659
2.38938
2.38743
2.38
2.37705
2.37527
2.37478
2.37396
2.37283
2.3716
2.37159
2.37196
2.3727
2.37195
2.37217
2.38804
2.38488
2.37863
2.37633
2.37502
2.37501
2.37461
2.37388
2.37299
2.37313
2.37302
2.37278
2.37156
2.3698
2.38741
2.38179
2.37627
2.37456
2.37439
2.37454
2.37471
2.3743
2.37355
2.37316
2.3731
2.37247
2.37051
2.36774
2.38543
2.3786
2.37419
2.37308
2.37337
2.3736
2.3743
2.37449
2.37408
2.3733
2.37227
2.37025
2.36843
2.36436
2.38356
2.37578
2.37161
2.37072
2.37148
2.37198
2.37303
2.37355
2.37339
2.37236
2.37091
2.36851
2.36604
2.3616
2.3807
2.37257
2.36873
2.36811
2.36891
2.36965
2.37059
2.37117
2.37111
2.36996
2.36829
2.36534
2.36254
2.35739
2.3785
2.37013
2.36654
2.36609
2.36663
2.36723
2.36791
2.36823
2.36803
2.3667
2.36491
2.36162
2.35941
2.35403
2.37453
2.36744
2.36513
2.36473
2.36497
2.36494
2.36468
2.36432
2.36372
2.36196
2.36023
2.35684
2.35538
2.35144
2.3732
2.36676
2.36496
2.36465
2.36479
2.36462
2.36375
2.36235
2.36088
2.35862
2.35693
2.35407
2.3538
2.35086
2.37056
2.36376
2.36401
2.36442
2.36527
2.36544
2.3646
2.36231
2.35988
2.3568
2.35515
2.3528
2.35456
2.35159
2.3736
2.36614
2.36566
2.36543
2.36661
2.36706
2.3674
2.36586
2.36325
2.35918
2.3573
2.35429
2.35562
2.35304
2.37066
2.36393
2.36288
2.36325
2.36521
2.367
2.3689
2.36916
2.36854
2.36487
2.36225
2.35859
2.35862
2.35575
2.4039
2.40914
2.40312
2.39961
2.3929
2.38722
2.38153
2.37629
2.37258
2.37009
2.36961
2.37297
2.37563
2.38158
2.40199
2.40553
2.40228
2.40074
2.39592
2.39133
2.38644
2.38179
2.3789
2.37789
2.37841
2.38275
2.38445
2.38962
2.40235
2.40471
2.40089
2.3992
2.39593
2.39297
2.38979
2.38613
2.38366
2.38348
2.3824
2.38404
2.38547
2.38759
2.39994
2.40004
2.39831
2.3966
2.39476
2.39324
2.39148
2.38884
2.38692
2.38646
2.38711
2.38679
2.38706
2.3852
2.39802
2.39565
2.39431
2.39383
2.39297
2.39224
2.39091
2.389
2.38797
2.38716
2.38639
2.38541
2.384
2.37984
2.39585
2.39186
2.39019
2.39014
2.39037
2.38988
2.38924
2.38784
2.38666
2.38552
2.38421
2.38225
2.37956
2.37497
2.39449
2.38897
2.38726
2.38731
2.38758
2.38757
2.38723
2.3859
2.38471
2.38306
2.38075
2.37772
2.37382
2.36751
2.39275
2.38644
2.3845
2.38469
2.38461
2.38431
2.38387
2.3825
2.38099
2.37879
2.37605
2.37192
2.36672
2.35985
2.39069
2.38418
2.38235
2.38219
2.38209
2.38122
2.38045
2.37892
2.37747
2.37538
2.37208
2.36689
2.36048
2.35174
2.38716
2.38127
2.3801
2.38008
2.37928
2.37797
2.37625
2.37472
2.37315
2.37104
2.36742
2.36199
2.3557
2.34538
2.38555
2.3795
2.37845
2.37791
2.37704
2.37541
2.37315
2.3713
2.36975
2.36779
2.36449
2.35836
2.3538
2.34236
2.38128
2.37502
2.37566
2.37565
2.37477
2.37355
2.37155
2.36923
2.36705
2.36455
2.36212
2.35577
2.35345
2.34216
2.3833
2.37553
2.37713
2.37589
2.37421
2.37283
2.37214
2.3705
2.36818
2.3645
2.36179
2.35512
2.35406
2.34502
2.3757
2.36833
2.3703
2.37071
2.37096
2.37117
2.37323
2.37455
2.37342
2.36906
2.36563
2.3594
2.35935
2.3522
2.36193
2.36416
2.3631
2.36489
2.36459
2.36849
2.3541
2.35692
2.35757
2.35904
2.3598
2.36422
2.35568
2.35674
2.35694
2.35768
2.35846
2.36138
2.35639
2.35622
2.35706
2.35808
2.36038
2.36409
2.35957
2.35927
2.36166
2.3632
2.36669
2.37097
2.36108
2.3623
2.367
2.36876
2.37191
2.37581
2.36403
2.36562
2.37042
2.3723
2.3749
2.37909
2.36409
2.36583
2.37063
2.37297
2.37542
2.3804
2.36246
2.36376
2.36868
2.37159
2.37532
2.38043
2.35777
2.35855
2.36323
2.36744
2.37239
2.37872
2.35318
2.35386
2.35845
2.36246
2.36761
2.37407
2.35069
2.35117
2.35506
2.35875
2.36415
2.36971
2.34913
2.34941
2.35231
2.35633
2.36101
2.36705
2.34954
2.35194
2.35572
2.35957
2.36236
2.36639
2.3832
2.38659
2.38518
2.38595
2.3859
2.39097
2.37017
2.37321
2.3733
2.37464
2.37698
2.3834
2.3693
2.36961
2.36873
2.36723
2.36886
2.37077
2.36695
2.36478
2.36301
2.35926
2.36279
2.36379
2.36533
2.3612
2.36171
2.35832
2.36212
2.36068
2.3619
2.35809
2.35927
2.35676
2.36134
2.36151
2.35854
2.35507
2.35755
2.35819
2.36349
2.36946
2.35452
2.35234
2.35654
2.36042
2.36629
2.37841
2.35231
2.35178
2.35651
2.36249
2.37086
2.38364
2.35133
2.35209
2.35626
2.36338
2.37138
2.38373
2.35399
2.35306
2.3556
2.36097
2.36954
2.38112
2.35499
2.35392
2.35744
2.36234
2.37077
2.3795
2.35873
2.35783
2.36064
2.36442
2.37082
2.37946
2.35781
2.36023
2.3656
2.37023
2.3737
2.38103
2.39234
2.39313
2.38778
2.3818
2.37666
2.37678
2.38035
2.37828
2.37391
2.36651
2.36128
2.3591
2.38328
2.37712
2.36989
2.35678
2.3488
2.3321
2.38101
2.37372
2.36493
2.3504
2.34193
2.31339
2.37559
2.36921
2.36477
2.35198
2.34465
2.30778
2.37094
2.36476
2.36123
2.34958
2.34791
2.30957
2.36241
2.35509
2.35292
2.34442
2.34898
2.31834
2.35409
2.34514
2.3424
2.33802
2.34691
2.33096
2.34603
2.33642
2.33458
2.33691
2.34618
2.35138
2.34106
2.33349
2.33388
2.34068
2.35109
2.3672
2.34007
2.33754
2.33918
2.34413
2.35033
2.36881
2.3426
2.34048
2.34374
2.34853
2.35408
2.37124
2.35097
2.3491
2.35238
2.35485
2.35849
2.3715
2.34856
2.34855
2.35499
2.35961
2.36326
2.37321
2.35132
2.35591
2.35657
2.35943
2.35862
2.36232
2.3494
2.35503
2.35832
2.36226
2.36328
2.36694
2.35479
2.36073
2.36479
2.36848
2.37036
2.37418
2.35713
2.36428
2.36976
2.37474
2.37565
2.38121
2.36069
2.3688
2.37323
2.37875
2.37936
2.38487
2.36209
2.36955
2.37327
2.37977
2.381
2.38752
2.36011
2.36741
2.37111
2.37844
2.38077
2.3883
2.35521
2.36188
2.36635
2.375
2.37979
2.38807
2.34944
2.35588
2.36215
2.372
2.37789
2.38669
2.34579
2.35054
2.35724
2.36699
2.37365
2.38265
2.3438
2.34781
2.35424
2.3624
2.36914
2.37647
2.34518
2.34911
2.35448
2.36009
2.36562
2.37165
2.34824
2.35195
2.35629
2.36148
2.36531
2.37084
2.35327
2.35933
2.36309
2.36767
2.37007
2.37482
2.3631
2.36885
2.36957
2.3724
2.37143
2.37623
2.35774
2.3642
2.36883
2.37443
2.37804
2.3818
2.36395
2.37151
2.37735
2.38249
2.38524
2.39243
2.36626
2.37247
2.37723
2.38333
2.38454
2.39339
2.36928
2.37515
2.37845
2.38502
2.38526
2.39865
2.37059
2.37481
2.3771
2.38447
2.38455
2.40291
2.3695
2.37299
2.37416
2.38118
2.38296
2.40002
2.36763
2.36901
2.36965
2.37707
2.37893
2.39708
2.36608
2.36672
2.36779
2.37511
2.37645
2.39609
2.36401
2.36417
2.36613
2.3739
2.37581
2.39476
2.3634
2.36465
2.3671
2.37428
2.37796
2.39456
2.36522
2.36782
2.37126
2.37766
2.38205
2.39496
2.37033
2.37368
2.37774
2.38316
2.38752
2.39759
2.37253
2.37941
2.38537
2.3916
2.3959
2.40348
2.36673
2.371
2.37001
2.36926
2.36798
2.37066
2.35781
2.36475
2.37009
2.3736
2.37672
2.37614
2.36797
2.37843
2.38734
2.39098
2.3948
2.39362
2.37309
2.38335
2.39218
2.39694
2.40271
2.40344
2.37812
2.3874
2.39271
2.39829
2.40578
2.41161
2.37933
2.38328
2.38535
2.39523
2.40034
2.42203
2.37697
2.37689
2.37857
2.39083
2.3972
2.42757
2.37288
2.37108
2.37247
2.38381
2.38578
2.42238
2.36936
2.36717
2.36852
2.3779
2.37449
2.41559
2.36807
2.36673
2.36809
2.37513
2.3687
2.40634
2.36909
2.3695
2.37091
2.37553
2.37033
2.40806
2.36909
2.3701
2.37298
2.37821
2.37641
2.40753
2.37411
2.37527
2.38025
2.38716
2.38513
2.40684
2.36921
2.37399
2.38315
2.39406
2.39897
2.41555
2.37678
2.37148
2.36772
2.36231
2.36151
2.35942
2.38133
2.37379
2.3707
2.36685
2.36502
2.36387
2.38779
2.38058
2.37748
2.37215
2.36835
2.36435
2.39618
2.38737
2.38409
2.37676
2.37141
2.3657
2.40353
2.39395
2.39021
2.38078
2.37442
2.36822
2.40662
2.39715
2.39396
2.3842
2.3777
2.3701
2.40784
2.3984
2.3966
2.38713
2.38087
2.37211
2.40704
2.39921
2.39865
2.38938
2.38201
2.37181
2.40442
2.3984
2.39806
2.38942
2.38161
2.37041
2.40248
2.39706
2.39714
2.38841
2.37993
2.36734
2.39759
2.39196
2.39138
2.38267
2.37447
2.36226
2.39063
2.38572
2.38542
2.37853
2.37148
2.35918
2.38129
2.37782
2.37624
2.36945
2.36277
2.35261
2.3746
2.37086
2.37221
2.36754
2.3652
2.35679
2.41055
2.40248
2.39792
2.3922
2.38991
2.3875
2.41298
2.40121
2.39992
2.39558
2.39452
2.39397
2.41713
2.40173
2.40183
2.39642
2.39494
2.39165
2.42066
2.40103
2.40244
2.39648
2.39511
2.39115
2.42467
2.40147
2.4035
2.39563
2.39364
2.39092
2.42617
2.40091
2.40447
2.39579
2.39302
2.38985
2.42878
2.40095
2.4052
2.39608
2.39357
2.38871
2.42885
2.40538
2.40863
2.39903
2.39545
2.38794
2.42885
2.40733
2.41008
2.40105
2.39636
2.38719
2.42537
2.40967
2.4118
2.4021
2.39558
2.38327
2.4193
2.40948
2.40999
2.40026
2.39281
2.37973
2.41954
2.41281
2.41125
2.40158
2.39201
2.37746
2.4121
2.4062
2.40192
2.39198
2.38298
2.37211
2.40436
2.39998
2.40127
2.39442
2.39058
2.38051
2.42352
2.40637
2.40494
2.39937
2.3968
2.39543
2.43144
2.40552
2.4107
2.4091
2.40653
2.4054
2.43675
2.40551
2.41056
2.40842
2.40523
2.4028
2.43615
2.40259
2.41236
2.40827
2.40572
2.40365
2.44095
2.40383
2.41305
2.40475
2.40374
2.40255
2.44889
2.4106
2.41645
2.4054
2.4043
2.40188
2.45456
2.41972
2.4214
2.40881
2.40657
2.40191
2.46131
2.43125
2.42771
2.4144
2.41006
2.40192
2.46146
2.43511
2.42998
2.41943
2.41421
2.40204
2.45836
2.44106
2.43442
2.4248
2.41528
2.39886
2.45574
2.44345
2.43535
2.42438
2.41102
2.39466
2.45348
2.44319
2.43348
2.42202
2.40659
2.39013
2.43424
2.42616
2.41653
2.40406
2.39126
2.38046
2.42744
2.41659
2.41268
2.40577
2.40144
2.39172
2.37841
2.37241
2.36858
2.36495
2.36221
2.36084
2.37933
2.37394
2.37001
2.36706
2.36455
2.36308
2.38466
2.37806
2.37381
2.36909
2.36542
2.36351
2.38759
2.38112
2.37759
2.3718
2.36799
2.36542
2.389
2.38266
2.37942
2.37459
2.37068
2.36787
2.38752
2.38241
2.38048
2.37643
2.3721
2.36878
2.38469
2.37972
2.37884
2.37538
2.37128
2.36726
2.3824
2.37793
2.37674
2.37323
2.36812
2.36413
2.37668
2.37278
2.37085
2.36785
2.3638
2.36124
2.37375
2.36883
2.36688
2.36367
2.36087
2.3588
2.36723
2.36154
2.3605
2.35792
2.3573
2.35587
2.36406
2.35954
2.35934
2.35673
2.35744
2.35509
2.36718
2.36027
2.3585
2.35543
2.35614
2.35331
2.36986
2.36381
2.36517
2.36321
2.36568
2.36288
2.40552
2.3959
2.38923
2.3834
2.37925
2.37733
2.40209
2.3933
2.38726
2.38303
2.38033
2.37949
2.4045
2.39321
2.38601
2.37945
2.37657
2.37526
2.40468
2.39014
2.38411
2.37684
2.37471
2.3726
2.40102
2.38831
2.38215
2.37331
2.37097
2.36936
2.39837
2.38172
2.37775
2.37103
2.36808
2.36761
2.39099
2.37591
2.374
2.36867
2.36676
2.36844
2.38196
2.375
2.37094
2.36777
2.36696
2.36978
2.37532
2.37331
2.36841
2.36853
2.36815
2.37151
2.37247
2.37248
2.36792
2.36923
2.37026
2.37229
2.37356
2.37062
2.36802
2.36938
2.37153
2.37297
2.37963
2.37631
2.37446
2.37462
2.3763
2.37532
2.39013
2.38177
2.37975
2.37824
2.37966
2.37688
2.40099
2.39329
2.39496
2.39484
2.3977
2.39363
2.39822
2.3848
2.37922
2.37503
2.37328
2.37421
2.39621
2.38241
2.37959
2.37718
2.37586
2.37844
2.3991
2.37947
2.37607
2.36984
2.36807
2.37073
2.40436
2.37622
2.37125
2.36541
2.36526
2.36797
2.39103
2.37482
2.36742
2.3608
2.36103
2.36608
2.37312
2.3684
2.36185
2.36073
2.36206
2.36828
2.35166
2.36839
2.36092
2.36595
2.36678
2.37223
2.34369
2.37049
2.36442
2.37244
2.37257
2.3775
2.33821
2.36836
2.36652
2.37669
2.37861
2.38348
2.33606
2.36448
2.36738
2.37763
2.38186
2.38858
2.33969
2.36086
2.36622
2.37924
2.3872
2.39435
2.35759
2.36792
2.37308
2.38469
2.39238
2.39787
2.38269
2.3796
2.38337
2.38982
2.39485
2.39606
2.40333
2.39846
2.40496
2.41118
2.41675
2.41405
2.44499
2.45037
2.44003
2.43563
2.42959
2.4238
2.41682
2.41044
2.40555
2.40198
2.40054
2.40424
2.41003
2.42102
2.43429
2.43976
2.43405
2.43196
2.42838
2.42439
2.41861
2.41347
2.40977
2.40906
2.4094
2.41472
2.42196
2.43054
2.42815
2.43226
2.4269
2.42613
2.42528
2.42383
2.42055
2.4168
2.41351
2.41329
2.41418
2.41617
2.41997
2.42629
2.42135
2.42261
2.42006
2.42104
2.4219
2.42211
2.42132
2.41916
2.41731
2.41707
2.41757
2.41905
2.42205
2.42369
2.41598
2.41513
2.41424
2.41673
2.41886
2.42025
2.42003
2.41906
2.41837
2.41801
2.41835
2.41878
2.41927
2.41868
2.41276
2.41011
2.40955
2.41279
2.41559
2.41764
2.41837
2.41806
2.4174
2.41644
2.41562
2.41475
2.41343
2.41258
2.41101
2.40678
2.40693
2.40977
2.41293
2.41477
2.41572
2.41538
2.41486
2.41318
2.41109
2.40936
2.40819
2.40611
2.41004
2.4051
2.40547
2.40777
2.40973
2.41129
2.41218
2.41174
2.41093
2.40851
2.40562
2.40201
2.39798
2.39544
2.4092
2.40433
2.40423
2.40553
2.40661
2.40717
2.40759
2.40674
2.40589
2.40353
2.40055
2.39598
2.39072
2.38558
2.40851
2.40387
2.40336
2.40363
2.40322
2.40263
2.40208
2.4011
2.40003
2.3978
2.39512
2.39042
2.38405
2.37557
2.40968
2.40481
2.40377
2.4028
2.40144
2.39901
2.39651
2.3957
2.39467
2.39278
2.39064
2.38579
2.38037
2.36878
2.40854
2.40392
2.40313
2.40179
2.39899
2.39615
2.39285
2.39117
2.38986
2.38828
2.38609
2.38211
2.38105
2.36786
2.41515
2.40721
2.40569
2.40126
2.39745
2.39461
2.39256
2.39023
2.38856
2.38665
2.38481
2.38163
2.38318
2.37035
2.40469
2.39553
2.39545
2.39404
2.39322
2.39366
2.39509
2.39504
2.39354
2.39089
2.38892
2.38577
2.38929
2.38016
2.46354
2.46873
2.45925
2.4554
2.4513
2.44586
2.44044
2.43516
2.43095
2.42865
2.42768
2.43009
2.43485
2.44664
2.44959
2.45432
2.45002
2.44796
2.4465
2.44313
2.43863
2.43426
2.43122
2.43102
2.43252
2.43723
2.44498
2.45649
2.44136
2.44375
2.44012
2.4407
2.44122
2.44048
2.43871
2.4359
2.43318
2.43309
2.43487
2.43823
2.44503
2.45295
2.43353
2.43469
2.43253
2.4351
2.43692
2.43781
2.43748
2.43634
2.43566
2.43552
2.4368
2.4396
2.44428
2.44957
2.4293
2.42751
2.42752
2.43061
2.43355
2.43558
2.43601
2.43569
2.4356
2.43552
2.43659
2.43866
2.4418
2.44472
2.42601
2.42272
2.42404
2.42735
2.43077
2.43309
2.43416
2.43423
2.43419
2.43378
2.43381
2.43441
2.43561
2.43781
2.42428
2.42065
2.42201
2.42519
2.42834
2.4304
2.43145
2.43164
2.43145
2.43047
2.42933
2.42863
2.42931
2.43365
2.42391
2.42013
2.42115
2.42286
2.42541
2.42685
2.42786
2.42797
2.42766
2.42622
2.42432
2.42166
2.42159
2.42386
2.4242
2.42055
2.42068
2.42122
2.42203
2.42269
2.42333
2.42321
2.42291
2.42141
2.41951
2.41689
2.41542
2.41627
2.42496
2.42077
2.41946
2.41865
2.41799
2.41751
2.41763
2.41776
2.41756
2.41647
2.41514
2.41285
2.41118
2.40828
2.42673
2.42218
2.4196
2.41776
2.41495
2.41306
2.41192
2.41211
2.4123
2.41205
2.4115
2.41003
2.4077
2.40124
2.42809
2.42314
2.42008
2.41668
2.41315
2.40978
2.40735
2.40739
2.40827
2.40817
2.40833
2.40674
2.40748
2.39753
2.4367
2.4273
2.42392
2.41774
2.41355
2.41048
2.40743
2.40611
2.40651
2.40658
2.40712
2.40644
2.40898
2.39666
2.42531
2.4164
2.41636
2.41385
2.41322
2.41351
2.4128
2.41146
2.4106
2.40968
2.41021
2.41002
2.41565
2.40523
2.48593
2.48863
2.48316
2.48045
2.47848
2.47504
2.47115
2.46738
2.46473
2.4627
2.46233
2.46293
2.46775
2.48023
2.4671
2.47173
2.47153
2.47204
2.4721
2.47088
2.46854
2.4661
2.46433
2.46389
2.46615
2.47035
2.47699
2.48795
2.45683
2.46079
2.46008
2.4639
2.46596
2.4674
2.46706
2.4665
2.46517
2.46513
2.46675
2.46983
2.47549
2.48475
2.44819
2.45201
2.45308
2.45808
2.46169
2.46447
2.46547
2.46549
2.466
2.46659
2.46832
2.47117
2.4769
2.48332
2.44326
2.44561
2.44876
2.45428
2.45888
2.46227
2.46391
2.46488
2.46542
2.46607
2.46752
2.46994
2.47383
2.47849
2.4411
2.44205
2.44633
2.45188
2.45653
2.4601
2.46211
2.4632
2.46384
2.46415
2.46481
2.46613
2.46811
2.472
2.4403
2.44106
2.44527
2.45023
2.45426
2.45748
2.45941
2.46044
2.46091
2.46077
2.46066
2.46074
2.46149
2.46484
2.44163
2.4422
2.44537
2.44797
2.45132
2.45392
2.45571
2.45663
2.45696
2.45655
2.4557
2.45476
2.45536
2.45936
2.44371
2.44355
2.44455
2.446
2.44768
2.4494
2.45091
2.45172
2.45199
2.45154
2.45072
2.45003
2.44984
2.45277
2.44676
2.4447
2.44361
2.44297
2.44292
2.44355
2.44485
2.44577
2.4464
2.4464
2.44605
2.44584
2.44654
2.44824
2.44978
2.44586
2.44264
2.44014
2.43823
2.43729
2.438
2.43937
2.44062
2.44147
2.44211
2.44265
2.44346
2.44194
2.45336
2.44758
2.44218
2.43784
2.43451
2.43194
2.43177
2.43302
2.43573
2.43773
2.43906
2.43985
2.44179
2.43722
2.46182
2.4505
2.44471
2.43832
2.43354
2.43015
2.42774
2.42938
2.4322
2.43526
2.43763
2.43922
2.44223
2.43404
2.45347
2.44268
2.43907
2.43641
2.43447
2.43194
2.42938
2.42931
2.43172
2.43514
2.43893
2.4424
2.4485
2.44024
2.49688
2.50112
2.49894
2.49984
2.49964
2.49822
2.49539
2.49208
2.48863
2.48545
2.48502
2.48609
2.49023
2.50203
2.47966
2.48627
2.488
2.49186
2.49343
2.49417
2.49317
2.4918
2.48983
2.48805
2.48892
2.49234
2.49806
2.50629
2.46934
2.47641
2.47884
2.48454
2.48815
2.49079
2.4914
2.49151
2.4907
2.49031
2.49137
2.49416
2.49951
2.50721
2.46236
2.46828
2.47326
2.47994
2.48474
2.48806
2.48966
2.49025
2.49077
2.49146
2.49328
2.49606
2.50112
2.50713
2.45772
2.46336
2.46993
2.47697
2.48213
2.48587
2.48792
2.48915
2.48996
2.49083
2.49252
2.49508
2.49893
2.50362
2.45643
2.46168
2.46845
2.47505
2.47986
2.48363
2.48593
2.48734
2.48826
2.48901
2.49021
2.49198
2.4944
2.49791
2.45692
2.4621
2.46796
2.47357
2.47765
2.48104
2.48325
2.48462
2.48542
2.48588
2.48648
2.48718
2.48841
2.49098
2.45945
2.46348
2.468
2.4712
2.47474
2.47768
2.47973
2.48101
2.48163
2.48179
2.48174
2.48162
2.48263
2.48467
2.46206
2.46461
2.46656
2.46888
2.47113
2.47336
2.47514
2.47632
2.47685
2.4769
2.4766
2.47604
2.4758
2.47713
2.46493
2.46501
2.46446
2.46498
2.46602
2.46759
2.46929
2.4707
2.4715
2.47175
2.47144
2.47091
2.47073
2.47092
2.46722
2.46491
2.46195
2.46078
2.46005
2.46076
2.46239
2.46428
2.46585
2.46671
2.46706
2.46705
2.46751
2.46648
2.46961
2.46494
2.45895
2.45622
2.45392
2.45354
2.45485
2.45733
2.46021
2.46241
2.46371
2.46437
2.46622
2.4629
2.47452
2.4653
2.46055
2.45449
2.44987
2.44746
2.44788
2.45129
2.45528
2.45893
2.46202
2.46317
2.46616
2.46138
2.47169
2.46018
2.45566
2.45085
2.44746
2.44478
2.44422
2.44715
2.45145
2.45668
2.46139
2.46552
2.47047
2.46573
2.50602
2.51181
2.51435
2.51783
2.51975
2.52048
2.51931
2.51734
2.51465
2.51169
2.51078
2.51139
2.51572
2.52279
2.49112
2.50036
2.50521
2.51144
2.51482
2.51727
2.51768
2.51721
2.51591
2.51446
2.51428
2.51609
2.52078
2.52824
2.48397
2.49286
2.49882
2.50609
2.51117
2.51456
2.51619
2.51673
2.51665
2.51656
2.5173
2.51904
2.52328
2.52887
2.47959
2.48734
2.49525
2.50299
2.50859
2.51245
2.51461
2.5158
2.51642
2.51709
2.51843
2.52059
2.52468
2.52956
2.47751
2.4852
2.49358
2.50104
2.50652
2.51056
2.513
2.5145
2.51548
2.51637
2.51773
2.51988
2.52328
2.52743
2.47793
2.48531
2.49308
2.4998
2.50466
2.50849
2.51096
2.51256
2.51365
2.51457
2.51578
2.51757
2.52005
2.52333
2.47962
2.48637
2.49285
2.49835
2.5025
2.50591
2.50823
2.50978
2.51081
2.51159
2.5125
2.51364
2.51522
2.51745
2.48239
2.48762
2.49186
2.49598
2.49951
2.50255
2.50471
2.50617
2.50709
2.5077
2.50819
2.50861
2.50935
2.51095
2.48486
2.48749
2.49033
2.49311
2.49573
2.49823
2.5002
2.50165
2.50253
2.503
2.50319
2.50304
2.50319
2.50364
2.48644
2.48644
2.48723
2.48854
2.49046
2.49261
2.49466
2.49633
2.49739
2.49795
2.49809
2.49774
2.49725
2.49663
2.48717
2.48506
2.48344
2.48311
2.4841
2.48591
2.48814
2.4903
2.49196
2.49298
2.49352
2.4934
2.49332
2.49239
2.48719
2.48188
2.47806
2.47666
2.47664
2.4781
2.48065
2.48373
2.48658
2.4888
2.49014
2.49056
2.4914
2.48998
2.48859
2.48012
2.47594
2.47198
2.46967
2.4703
2.47306
2.47722
2.48156
2.48548
2.48838
2.48982
2.49162
2.48939
2.4842
2.47454
2.47028
2.46699
2.46403
2.46394
2.46642
2.47139
2.477
2.4827
2.48732
2.49055
2.49367
2.49282
2.51358
2.52349
2.528
2.5336
2.53671
2.53873
2.53895
2.53814
2.5365
2.53502
2.53393
2.53383
2.53572
2.53942
2.5041
2.51505
2.52188
2.52903
2.53343
2.53641
2.53781
2.53818
2.53785
2.53727
2.53705
2.5378
2.54068
2.54534
2.50013
2.50986
2.51806
2.5257
2.53099
2.53463
2.53667
2.53779
2.53834
2.53869
2.53936
2.54048
2.54342
2.54696
2.49894
2.50763
2.51633
2.52396
2.52935
2.53318
2.53549
2.53698
2.53797
2.53873
2.53995
2.54148
2.54453
2.54803
2.49889
2.50749
2.51578
2.52282
2.52787
2.53166
2.53408
2.5357
2.53683
2.53783
2.53909
2.54077
2.54353
2.54672
2.50012
2.50829
2.51572
2.52187
2.5263
2.52977
2.53211
2.53374
2.53492
2.53596
2.53719
2.53885
2.5412
2.54391
2.50232
2.50931
2.51537
2.52034
2.52416
2.52725
2.52944
2.531
2.53214
2.53313
2.53425
2.53566
2.53745
2.53954
2.50439
2.50984
2.5138
2.51783
2.52119
2.52394
2.52599
2.52751
2.52865
2.5296
2.53053
2.53144
2.53251
2.5339
2.50563
2.50881
2.51178
2.51472
2.51739
2.51979
2.52174
2.52329
2.52444
2.52537
2.52613
2.52663
2.52717
2.52797
2.50559
2.50676
2.5082
2.51007
2.51229
2.51461
2.51673
2.51853
2.51989
2.52092
2.52158
2.52165
2.52191
2.52171
2.5048
2.50376
2.50327
2.50424
2.50623
2.50855
2.51103
2.51328
2.51504
2.51632
2.51724
2.51755
2.51752
2.51677
2.50225
2.49818
2.49666
2.49705
2.49886
2.50132
2.50452
2.50758
2.51022
2.51227
2.51365
2.51432
2.51462
2.51351
2.49983
2.49386
2.49146
2.49005
2.49104
2.49359
2.49762
2.50173
2.50556
2.50883
2.51136
2.51284
2.51356
2.51235
2.49375
2.48611
2.48403
2.48355
2.48387
2.48606
2.49081
2.49608
2.50148
2.50606
2.50988
2.51235
2.51442
2.51321
2.52683
2.53826
2.54397
2.55018
2.55407
2.55674
2.55786
2.55801
2.55743
2.55652
2.5557
2.55578
2.55631
2.55891
2.52194
2.5328
2.54045
2.54733
2.55187
2.55508
2.5569
2.55788
2.55823
2.55831
2.55841
2.55917
2.56099
2.5637
2.5206
2.53037
2.53855
2.54546
2.55033
2.55382
2.55597
2.55744
2.55834
2.55908
2.55995
2.561
2.56324
2.56558
2.52092
2.52999
2.53795
2.54455
2.54927
2.55275
2.55502
2.55667
2.5579
2.55884
2.56003
2.56134
2.56381
2.56633
2.52149
2.53022
2.53764
2.54372
2.54811
2.55147
2.55375
2.55541
2.5567
2.55779
2.55905
2.56053
2.56286
2.56544
2.5233
2.53092
2.53741
2.54267
2.5466
2.5497
2.55188
2.5535
2.55478
2.55591
2.55718
2.55871
2.56091
2.56337
2.5248
2.53117
2.53629
2.54093
2.54443
2.54726
2.54932
2.55088
2.55212
2.55327
2.5545
2.55595
2.5579
2.56012
2.52633
2.5307
2.53482
2.53845
2.54152
2.54408
2.54603
2.5476
2.5489
2.55011
2.55131
2.55253
2.554
2.55576
2.52643
2.5295
2.53251
2.5353
2.53791
2.54023
2.54214
2.54377
2.54512
2.54642
2.5476
2.54864
2.54969
2.55106
2.52541
2.52682
2.52887
2.53103
2.5334
2.53565
2.53773
2.53957
2.54111
2.54256
2.5438
2.54467
2.54543
2.54614
2.52338
2.52304
2.52393
2.52572
2.52799
2.5305
2.53287
2.53507
2.53693
2.53865
2.54007
2.54109
2.54172
2.54184
2.51906
2.51699
2.51737
2.5191
2.52154
2.52454
2.52747
2.5304
2.53287
2.53507
2.53675
2.53778
2.53857
2.53838
2.51504
2.51131
2.51061
2.51192
2.51447
2.51804
2.52188
2.52569
2.5291
2.53197
2.53437
2.53601
2.53721
2.53657
2.50703
2.50279
2.50323
2.50479
2.50716
2.51136
2.51619
2.52114
2.52578
2.52965
2.53281
2.53489
2.53655
2.53524
2.57529
2.5753
2.57498
2.57452
2.57498
2.57531
2.57733
2.57493
2.57557
2.57612
2.57658
2.57766
2.57933
2.58147
2.57432
2.5754
2.57637
2.57748
2.57876
2.58084
2.58294
2.57349
2.57483
2.57596
2.57728
2.57871
2.58099
2.58319
2.57224
2.57362
2.57486
2.57624
2.57781
2.58005
2.5824
2.57042
2.5718
2.57307
2.57445
2.57607
2.5783
2.58076
2.56802
2.56939
2.57068
2.57206
2.57366
2.5758
2.57817
2.56511
2.56652
2.56791
2.56935
2.57092
2.57283
2.57502
2.54543
2.54819
2.551
2.55362
2.55606
2.55827
2.56015
2.56183
2.56331
2.56482
2.56634
2.56786
2.56953
2.57133
2.54378
2.54564
2.54786
2.55007
2.5524
2.55455
2.55654
2.55835
2.56
2.5617
2.56336
2.56491
2.56625
2.5679
2.54096
2.54204
2.54362
2.54574
2.54813
2.55048
2.55271
2.55476
2.55667
2.55863
2.56046
2.56206
2.56333
2.56416
2.53624
2.53673
2.53818
2.54045
2.5431
2.54599
2.54863
2.5512
2.55354
2.55581
2.55776
2.5592
2.5605
2.56121
2.53175
2.53072
2.53196
2.53434
2.53752
2.54107
2.5445
2.54776
2.55074
2.55339
2.55568
2.55745
2.55893
2.55921
2.52326
2.5231
2.52498
2.52766
2.53133
2.53569
2.54021
2.54455
2.54844
2.55171
2.55425
2.55583
2.55732
2.55734
2.4619
2.47156
2.47553
2.47468
2.48116
2.48299
2.44436
2.44943
2.45451
2.46156
2.47779
2.49434
2.44339
2.44712
2.45047
2.45732
2.47901
2.50485
2.4378
2.44175
2.4481
2.45557
2.47782
2.51442
2.43102
2.43537
2.44411
2.45647
2.48407
2.53137
2.42576
2.43332
2.44476
2.45717
2.48403
2.53505
2.41864
2.4253
2.43606
2.4487
2.47585
2.53043
2.41147
2.41448
2.42217
2.4308
2.45381
2.49773
2.40514
2.40238
2.4056
2.41253
2.43282
2.46177
2.39967
2.39365
2.39501
2.40038
2.41839
2.43334
2.40021
2.39388
2.39292
2.39409
2.40849
2.41537
2.40566
2.39672
2.3951
2.39471
2.40813
2.41438
2.41871
2.40858
2.41089
2.41005
2.41695
2.41747
2.41196
2.40739
2.41568
2.4218
2.43382
2.4369
2.48106
2.49013
2.49631
2.49536
2.49691
2.50401
2.46772
2.47418
2.48309
2.49152
2.50479
2.51638
2.4679
2.47663
2.4863
2.49822
2.5183
2.53216
2.46353
2.47243
2.48507
2.50195
2.52945
2.55183
2.45851
2.46943
2.48887
2.51482
2.5495
2.57832
2.45267
2.4673
2.49185
2.5206
2.55604
2.59088
2.4482
2.46544
2.48917
2.51572
2.54869
2.58478
2.4428
2.45619
2.47303
2.48977
2.51267
2.54283
2.43714
2.44303
2.4501
2.45683
2.47344
2.49769
2.43249
2.42951
2.43022
2.42962
2.4419
2.4594
2.431
2.42293
2.41844
2.41252
2.42001
2.42862
2.4336
2.42205
2.41477
2.40643
2.41053
2.41627
2.44569
2.42964
2.4252
2.42045
2.42338
2.42948
2.43596
2.42246
2.42464
2.43016
2.44016
2.45164
2.5045
2.51309
2.5217
2.52319
2.52184
2.52615
2.49414
2.50253
2.51051
2.51984
2.5298
2.54093
2.49449
2.50461
2.51527
2.52696
2.53845
2.5527
2.49129
2.50252
2.51666
2.53201
2.55178
2.5729
2.48846
2.50027
2.51693
2.53769
2.56683
2.5962
2.4828
2.49572
2.51732
2.54553
2.5802
2.61367
2.47839
2.49353
2.51903
2.54893
2.58147
2.61368
2.47465
2.49106
2.51412
2.53852
2.5617
2.58467
2.47207
2.4845
2.49976
2.51328
2.52503
2.53702
2.46985
2.47483
2.48236
2.48692
2.49211
2.50033
2.47044
2.46692
2.47037
2.46815
2.46879
2.47499
2.47208
2.46374
2.46531
2.45728
2.45746
2.46242
2.48152
2.47031
2.47134
2.4656
2.46809
2.47205
2.47681
2.46571
2.46732
2.47108
2.47968
2.48851
2.51526
2.52292
2.53216
2.53401
2.5354
2.53555
2.51002
2.51723
2.52571
2.53203
2.53904
2.54597
2.51081
2.52136
2.53255
2.54061
2.54824
2.55642
2.51014
2.52047
2.53297
2.54409
2.55639
2.56907
2.509
2.51904
2.53194
2.54625
2.56415
2.58285
2.50492
2.51375
2.52744
2.54634
2.57268
2.60017
2.49986
2.50812
2.5243
2.5495
2.58055
2.61214
2.49512
2.50305
2.52149
2.54785
2.57716
2.60585
2.49134
2.4984
2.51575
2.53709
2.55754
2.57146
2.48843
2.49421
2.50777
2.52208
2.5328
2.53752
2.48944
2.49279
2.50276
2.5101
2.51381
2.51255
2.49422
2.49202
2.50068
2.50298
2.50177
2.4968
2.501
2.4985
2.50653
2.50712
2.50458
2.50192
2.50355
2.49967
2.5071
2.5065
2.50877
2.51282
2.52241
2.52902
2.54126
2.54442
2.5476
2.54935
2.52079
2.52859
2.53823
2.54442
2.55042
2.55521
2.52546
2.53319
2.54369
2.55191
2.55891
2.56419
2.5268
2.53491
2.54522
2.55378
2.56282
2.57125
2.5274
2.5354
2.54541
2.55438
2.56532
2.57798
2.52594
2.53193
2.54034
2.55039
2.56482
2.58365
2.5223
2.52596
2.53287
2.54519
2.56585
2.59366
2.51809
2.51959
2.52676
2.54297
2.56964
2.6001
2.51432
2.5143
2.52178
2.54068
2.5643
2.58821
2.51105
2.51111
2.51965
2.53647
2.55435
2.56659
2.51128
2.51206
2.52153
2.53435
2.54545
2.54841
2.51424
2.51509
2.52401
2.5325
2.53948
2.53672
2.52031
2.52043
2.52968
2.53777
2.54289
2.5385
2.52564
2.52431
2.53383
2.53926
2.54372
2.54343
2.52608
2.53024
2.54289
2.54965
2.55476
2.5567
2.53138
2.53697
2.54786
2.55482
2.56084
2.56565
2.5367
2.5427
2.55306
2.56122
2.5689
2.57387
2.54047
2.54681
2.55602
2.56381
2.57148
2.57787
2.54228
2.54839
2.5565
2.56409
2.5729
2.58196
2.54281
2.54749
2.55385
2.56049
2.57
2.58166
2.5411
2.54335
2.54747
2.55359
2.56404
2.58087
2.53834
2.53799
2.54023
2.54645
2.56009
2.58357
2.53517
2.5329
2.53442
2.54149
2.55919
2.58367
2.53254
2.52886
2.52979
2.53793
2.55497
2.5728
2.53131
2.52819
2.5304
2.54006
2.55431
2.5652
2.5319
2.53027
2.5335
2.54315
2.55323
2.56021
2.53519
2.53434
2.53876
2.5491
2.55885
2.56307
2.54101
2.53859
2.5456
2.5549
2.56451
2.567
2.53504
2.53479
2.54502
2.55245
2.56105
2.56347
2.54389
2.54549
2.55495
2.5625
2.57029
2.57374
2.55021
2.55377
2.56295
2.57052
2.57846
2.58442
2.55542
2.55999
2.5677
2.57476
2.58195
2.58755
2.55819
2.56304
2.56955
2.57566
2.5828
2.59
2.55991
2.56373
2.56888
2.57367
2.58038
2.58896
2.55989
2.56183
2.56468
2.56775
2.57374
2.58353
2.55859
2.55827
2.55841
2.55987
2.56517
2.57827
2.55652
2.55382
2.55227
2.55275
2.55938
2.57628
2.55468
2.55057
2.54737
2.54709
2.55461
2.57103
2.55296
2.54832
2.54547
2.54662
2.55659
2.56895
2.55296
2.54872
2.54714
2.54957
2.55971
2.56713
2.55422
2.5517
2.55187
2.55525
2.56622
2.57246
2.55824
2.55558
2.55845