/*--------------------------------*- C++ -*----------------------------------*\
| =========                 |                                                 |
| \\      /  F ield         | OpenFOAM: The Open Source CFD Toolbox           |
|  \\    /   O peration     | Version:  v2106                                 |
|   \\  /    A nd           | Website:  www.openfoam.com                      |
|    \\/     M anipulation  |                                                 |
\*---------------------------------------------------------------------------*/
FoamFile
{
    version     2.0;
    format      ascii;
    arch        "LSB;label=32;scalar=64";
    class       volScalarField;
    location    "0.000156";
    object      Ttot;
}
// * * * * * * * * * * * * * * * * * * * * * * * * * * * * * * * * * * * * * //

dimensions      [0 0 0 1 0 0 0];

internalField   nonuniform List<scalar> 
18273
(
298.817
299.088
299.493
300.007
300.475
300.675
300.672
300.513
300.311
299.957
299.463
299.21
299.259
300.03
297.325
297.928
298.455
299.254
299.874
300.264
300.419
300.448
300.411
300.292
299.99
299.802
299.765
300.251
296.596
297.52
298.218
299.078
299.625
299.969
300.139
300.219
300.238
300.215
300.108
300.093
300.211
300.814
296.291
297.415
298.334
299.136
299.544
299.798
299.934
300.031
300.135
300.227
300.279
300.384
300.615
301.171
296.521
297.712
298.598
299.197
299.498
299.656
299.774
299.872
300.004
300.151
300.325
300.556
300.914
301.388
296.963
298.097
298.878
299.279
299.473
299.562
299.671
299.776
299.929
300.111
300.332
300.587
300.96
301.25
297.569
298.495
299.035
299.289
299.436
299.497
299.595
299.705
299.869
300.069
300.336
300.595
300.951
301.047
298.121
298.697
299.013
299.175
299.321
299.412
299.528
299.657
299.83
300.01
300.247
300.416
300.673
300.514
298.669
298.786
298.851
298.897
299.064
299.271
299.492
299.679
299.856
299.974
300.135
300.114
300.175
299.785
298.9
298.533
298.261
298.238
298.507
298.849
299.231
299.558
299.774
299.823
299.893
299.704
299.602
299.085
299.244
298.394
297.64
297.331
297.62
298.1
298.697
299.246
299.609
299.7
299.739
299.442
299.283
298.798
299.593
298.116
296.866
296.227
296.439
296.97
297.775
298.598
299.227
299.491
299.622
299.395
299.38
299.071
299.768
298.263
296.696
295.596
295.423
295.824
296.659
297.707
298.669
299.278
299.689
299.752
299.861
299.771
299.98
298.223
296.469
295.183
294.707
294.882
295.598
296.673
297.83
298.802
299.667
300.27
300.482
300.745
299.852
299.901
299.941
300.329
300.531
300.571
300.275
299.745
299.084
298.528
298.244
298.341
299.073
300.657
297.778
298.366
298.669
299.445
299.943
300.219
300.232
300.053
299.73
299.434
299.245
299.311
299.719
300.78
296.568
297.593
298.187
299.074
299.582
299.881
299.973
299.959
299.828
299.713
299.606
299.673
300.047
301.03
295.784
297.122
298.082
298.973
299.39
299.627
299.73
299.773
299.795
299.869
299.938
300.111
300.477
301.192
295.572
297.117
298.206
298.971
299.293
299.437
299.536
299.599
299.69
299.834
300.044
300.311
300.657
301.134
295.677
297.308
298.443
299.003
299.23
299.302
299.404
299.506
299.635
299.805
300.036
300.258
300.569
300.683
296.12
297.648
298.584
298.995
299.164
299.198
299.308
299.427
299.57
299.734
299.961
300.135
300.258
299.955
296.658
297.929
298.577
298.864
299.01
299.064
299.184
299.32
299.461
299.593
299.743
299.754
299.602
298.912
297.266
298.11
298.412
298.565
298.727
298.897
299.098
299.279
299.423
299.484
299.495
299.261
298.921
298.019
297.71
297.971
297.934
297.914
298.106
298.414
298.749
299.043
299.217
299.197
299.088
298.647
298.284
297.364
298.359
297.953
297.379
297.072
297.19
297.579
298.095
298.577
298.877
298.885
298.784
298.317
298.044
297.255
298.849
297.619
296.574
295.897
295.883
296.263
296.912
297.613
298.211
298.483
298.589
298.311
298.455
297.941
299.56
298.084
296.529
295.178
294.627
294.73
295.327
296.195
297.176
297.957
298.575
298.755
299.197
299.112
300.168
298.102
296.091
294.425
293.506
293.273
293.663
294.438
295.589
296.866
298.171
299.128
299.866
300.465
299.624
299.806
299.836
300.159
299.988
299.75
299.24
298.441
297.56
296.929
296.721
297.229
298.242
300.424
297.035
297.926
298.477
299.242
299.403
299.436
299.286
298.983
298.528
298.218
298.166
298.639
299.158
300.624
295.584
297.086
297.904
298.722
298.992
299.087
299.088
299.001
298.794
298.686
298.617
298.932
299.52
300.729
294.577
296.508
297.765
298.488
298.756
298.841
298.878
298.857
298.794
298.823
298.979
299.25
299.855
300.759
294.251
296.454
297.801
298.444
298.612
298.651
298.669
298.675
298.715
298.812
298.961
299.244
299.756
300.373
294.276
296.574
297.864
298.391
298.499
298.478
298.511
298.52
298.558
298.662
298.866
299.14
299.539
299.863
294.672
296.864
297.97
298.363
298.422
298.408
298.453
298.436
298.477
298.569
298.731
298.924
299.08
298.872
295.336
297.174
297.97
298.236
298.264
298.249
298.295
298.289
298.324
298.379
298.477
298.516
298.34
297.638
296.153
297.481
297.869
297.978
298.034
298.081
298.174
298.201
298.257
298.282
298.264
298.099
297.621
296.477
296.887
297.531
297.549
297.489
297.54
297.724
297.888
298.026
298.109
298.104
297.961
297.644
297.136
295.812
297.624
297.419
296.956
296.667
296.695
296.955
297.311
297.647
297.876
297.955
297.823
297.371
297.145
295.824
298.043
296.867
295.979
295.373
295.272
295.552
296.094
296.722
297.235
297.572
297.741
297.419
297.604
296.582
298.816
297.114
295.628
294.192
293.569
293.587
294.116
295.024
296.055
296.967
297.731
297.807
298.32
298.023
299.4
296.752
294.547
292.564
291.434
291.194
291.732
292.723
294.157
295.686
297.186
298.214
299.232
299.831
300.807
301.407
301.489
301.175
300.259
297.683
300.505
301.418
301.997
301.884
300.965
298.324
301.449
302.287
302.834
302.596
301.427
298.649
301.85
302.445
302.973
302.673
301.514
298.911
302.081
302.422
302.858
302.441
301.334
298.989
301.789
301.842
302.161
301.671
300.685
298.699
301.415
301.15
301.274
300.713
299.878
298.355
300.65
300.218
300.273
299.765
299.19
298.069
299.787
299.409
299.558
299.201
298.964
297.915
299.152
298.996
299.273
299.151
299.043
297.831
299.153
299.296
299.688
299.605
299.337
297.793
299.672
300.033
300.374
300.224
299.77
297.88
300.378
300.752
300.93
300.677
300.086
297.987
300.968
301.297
301.269
300.885
300.079
297.761
302.341
303.498
304.248
304.381
303.834
300.324
301.412
302.841
304.003
304.371
303.926
300.646
302.031
303.264
304.31
304.348
303.545
300.115
301.972
302.652
303.156
302.744
302.021
299.096
301.655
301.548
301.465
300.647
299.954
297.478
300.71
299.924
299.37
298.433
297.934
296.173
299.441
298.291
297.807
297.168
296.892
295.975
298.218
297.225
297.001
296.688
296.667
296.407
297.504
296.843
297.048
297.131
297.573
297.289
297.188
297.159
297.837
298.509
298.992
298.279
297.774
298.171
299.161
300.102
300.479
299.149
298.814
299.548
300.73
301.635
301.794
299.769
300.196
300.907
301.897
302.482
302.466
300.044
300.896
301.486
302.148
302.512
302.26
299.478
302.871
304.437
306.052
306.943
307.509
304.108
301.659
303.4
305.246
306.142
306.682
303.763
302.014
303.504
305.091
305.367
305.376
301.869
301.733
302.713
303.432
302.997
302.863
299.135
300.958
301.126
301.12
300.215
299.974
296.017
299.844
299.114
298.334
297.256
297.164
293.313
298.126
296.652
295.728
294.925
295.173
292.372
296.455
294.739
294.163
293.806
294.336
292.819
295.332
293.853
293.749
294.07
294.828
294.906
295.085
294.064
294.546
295.977
297.408
298.033
295.597
295.44
296.57
298.616
300.425
300.89
297.185
297.429
298.893
301.214
303.058
302.898
299.133
299.577
301.076
302.923
304.409
303.393
300.042
300.661
302.037
303.236
304.353
302.345
301.209
301.404
301.055
300.454
299.432
297.188
300.526
300.881
300.78
300.284
299.342
297.13
300.29
300.316
300.265
299.857
299.069
296.992
299.327
299.191
299.227
299.136
298.63
296.939
298.279
298.105
298.144
298.374
298.165
296.782
297.064
296.865
297.078
297.743
297.849
296.841
295.909
295.898
296.442
297.445
297.835
297.062
295.041
295.315
296.175
297.461
298.051
297.35
294.679
295.402
296.611
298.091
298.653
297.773
295.006
296.054
297.48
298.959
299.445
298.302
296.027
297.308
298.789
300.097
300.442
298.822
297.629
298.885
300.175
301.159
301.232
299.186
299.318
300.319
301.262
301.888
301.638
299.153
300.447
301.273
301.758
302.005
301.391
298.661
301.178
301.625
301.52
301.197
300.541
297.703
299.529
299.788
299.617
299.266
298.756
296.161
298.661
298.261
297.871
297.391
296.884
294.778
296.937
296.107
295.625
295.581
295.444
294.062
295.333
294.555
294.282
294.806
294.947
294.467
293.99
293.417
293.506
294.668
295.244
295.68
293.061
292.805
293.55
295.234
296.358
296.973
292.54
292.604
293.987
296.332
297.738
298.405
292.717
293.316
295.19
297.944
299.485
300.06
293.627
294.749
296.951
299.883
301.376
301.606
295.302
296.945
299.22
301.908
303.098
302.573
297.513
299.255
301.291
303.388
304.175
302.79
299.627
300.959
302.474
303.931
304.372
302.029
300.629
301.658
302.576
303.436
303.347
300.273
301.123
301.831
302.174
302.12
302.131
299.05
298.851
299.235
299.18
298.795
298.645
296.003
297.672
297.03
296.456
295.771
295.553
293.175
295.522
294.027
293.004
292.488
292.567
291.093
293.403
291.497
290.605
290.791
291.13
290.708
291.503
289.617
289.171
290.162
290.84
292.151
290.116
288.64
289.083
291.08
292.901
295.136
289.452
288.473
289.677
292.864
295.861
299.138
289.531
289.153
290.91
294.975
298.761
303.087
290.62
290.895
293.053
297.503
301.506
305.901
292.819
293.686
295.982
300.082
303.655
307.543
295.555
296.722
298.915
302.36
305.264
307.802
298.211
299.287
300.992
303.475
305.639
306.03
299.493
300.422
301.616
303.153
304.373
302.422
299.204
302.045
302.45
301.395
300.201
299.037
299.513
301.491
301.238
299.821
298.598
297.76
299.129
300.421
299.753
298.148
297.086
296.474
298.523
299.214
298.35
296.787
295.972
295.683
297.916
298.221
297.337
295.864
295.401
295.509
297.384
297.579
296.768
295.467
295.312
295.717
297.096
297.253
296.563
295.462
295.626
296.317
296.864
297.317
296.87
295.942
296.32
297.074
296.702
297.564
297.371
296.67
297.241
297.907
296.775
298.149
298.245
297.803
298.351
298.716
297.001
298.79
299.052
298.826
299.129
299.133
297.185
299.438
300.056
300.127
300.268
299.904
297.363
299.968
300.697
300.787
300.638
299.945
297.662
300.336
301.385
301.581
301.54
300.874
303.021
305.97
305.616
303.85
301.904
300.277
303.909
305.235
304.208
301.836
299.894
298.652
303.549
303.676
302.17
299.438
297.664
296.699
302.49
301.7
299.906
297.114
295.715
295.275
300.964
299.614
297.791
295.152
294.221
294.438
299.288
297.695
296.074
293.827
293.365
294.087
297.873
296.091
294.771
293.017
293.072
294.242
296.586
295.207
294.195
292.919
293.394
294.769
295.584
294.488
293.956
293.152
294.052
295.533
294.707
294.62
294.478
294.049
295.142
296.445
294.227
295.28
295.279
295.321
296.476
297.461
294.616
296.726
297.123
297.575
298.455
298.764
295.789
298.533
298.965
299.307
299.728
299.356
297.543
300.811
301.633
301.757
301.888
301.16
308.599
309.341
307.086
304.125
301.489
299.807
309.595
307.493
304.593
301.144
298.943
298.015
308.96
305.247
301.463
297.672
295.868
295.469
307.188
302.59
298.357
294.441
293.16
293.53
304.615
299.834
295.617
291.762
290.988
292.132
301.354
296.967
293.249
289.972
289.738
291.557
297.61
294.142
291.29
288.821
289.183
291.642
294.18
291.725
289.944
288.384
289.323
292.224
291.588
289.852
289.172
288.596
290.23
293.347
290.389
289.877
289.768
289.956
291.937
294.712
290.366
291.124
291.262
292.187
294.174
296.186
291.828
293.887
294.35
295.526
296.88
297.793
294.258
296.931
297.325
298.082
298.659
298.457
297.842
301.094
301.4
301.596
301.605
300.725
297.598
299.945
300.466
300.552
300.299
299.843
297.204
299.159
299.42
299.462
299.377
299.253
296.956
298.47
298.621
298.683
298.754
298.961
296.859
298.076
298.219
298.375
298.675
299.132
296.993
297.93
298.157
298.555
299.016
299.641
297.287
298.119
298.606
299.162
299.644
300.225
297.589
298.593
299.373
300.014
300.395
300.707
298.009
299.552
300.511
301.067
301.089
301.051
298.378
300.532
301.537
301.921
301.594
301.258
298.963
301.602
302.641
302.75
302.106
301.297
299.143
301.994
303.027
302.876
301.978
300.838
299.171
302.443
303.458
303.079
301.955
300.446
299.099
302.329
303.17
302.456
301.131
299.632
298.564
301.811
303.098
302.693
301.813
300.458
300.872
303.739
303.711
302.999
301.825
300.787
300.43
302.553
302.139
301.076
300.035
299.55
299.376
300.772
300.234
298.966
298.296
298.277
298.265
298.782
298.233
297.32
297.21
297.676
297.074
297.186
296.746
296.274
296.696
297.658
296.401
295.866
295.796
295.994
296.804
298.074
295.706
295.342
295.718
296.361
297.441
298.884
295.24
295.901
296.486
297.474
298.616
299.933
295.421
297.196
298.002
299.267
300.183
300.859
296.815
299.42
300.384
301.411
301.598
301.262
298.769
301.938
302.849
303.14
302.388
301.253
300.466
304.252
304.978
304.599
303.125
301.272
301.494
305.087
305.409
304.447
302.71
300.768
301.718
305.589
306.23
305.407
303.983
302.09
305.519
307.166
305.659
303.662
301.558
300.456
305.004
305.105
302.816
300.412
298.989
298.883
302.699
301.801
299.378
297.009
296.239
296.72
299.652
297.809
295.999
294.409
294.338
295.573
295.705
294.531
293.39
292.539
293.18
295.286
292.582
292.192
291.697
291.921
293.237
295.793
290.729
291.931
291.62
292.526
294.345
297.01
290.44
292.924
292.927
294.448
296.464
298.518
291.652
295.182
295.789
297.591
298.93
299.865
294.767
298.612
299.288
300.597
300.873
300.759
298.505
302.172
302.544
303.191
302.428
301.234
302.066
305.427
305.42
305.046
303.3
301.383
304.797
307.466
306.632
305.309
303.11
300.963
306.179
309.354
308.22
306.674
304.599
302.41
299.708
300.26
300.286
300.622
300.589
300.361
299.677
298.71
297.68
296.935
296.694
297.026
297.921
300.291
296.89
298.274
299.066
299.762
299.956
299.977
299.754
299.393
298.847
298.465
298.381
298.723
299.308
300.873
295.534
297.567
298.485
299.19
299.462
299.54
299.504
299.404
299.122
298.94
299
299.255
299.798
301.032
294.572
296.976
298.258
298.944
299.18
299.234
299.253
299.22
299.124
299.102
299.246
299.55
300.157
301.068
294.146
296.788
298.206
298.871
299.013
299.059
299.058
299.041
299.026
299.062
299.258
299.59
300.132
300.879
294.186
296.876
298.241
298.811
298.872
298.886
298.918
298.917
298.915
298.957
299.144
299.479
299.902
300.33
294.654
297.122
298.29
298.725
298.792
298.773
298.82
298.787
298.814
298.857
299.034
299.311
299.527
299.379
295.431
297.44
298.316
298.61
298.636
298.625
298.669
298.64
298.677
298.694
298.815
298.884
298.67
297.973
296.27
297.726
298.235
298.396
298.458
298.482
298.521
298.474
298.513
298.5
298.527
298.386
297.876
296.709
297.038
297.831
297.975
297.983
298.069
298.226
298.317
298.336
298.356
298.288
298.197
297.894
297.231
295.739
297.652
297.657
297.394
297.23
297.376
297.665
297.927
298.088
298.144
298.096
297.986
297.589
297.016
295.377
297.796
296.979
296.348
295.951
295.971
296.351
296.848
297.359
297.646
297.816
297.796
297.51
297.338
295.867
298.52
296.845
295.478
294.287
293.918
294.122
294.809
295.759
296.634
297.316
297.725
297.761
298.062
297.22
298.709
295.686
293.556
291.915
291.195
291.228
291.902
293.143
294.638
296.11
297.318
298.175
299.051
299.453
297.899
299.147
299.714
300.171
300.248
300.003
299.467
298.545
297.431
296.449
295.937
295.948
296.368
298.111
295.85
297.853
299.08
299.732
299.887
299.785
299.583
299.208
298.641
298.154
297.954
297.97
298.293
299.468
295.127
297.536
298.77
299.425
299.585
299.555
299.49
299.358
299.079
298.856
298.845
298.962
299.37
300.135
294.759
297.332
298.655
299.29
299.375
299.35
299.295
299.22
299.149
299.1
299.181
299.383
299.761
300.333
294.731
297.34
298.632
299.141
299.199
299.199
299.171
299.119
299.081
299.082
299.202
299.435
299.829
300.313
295.008
297.457
298.64
299.014
299.052
299.024
299.031
299.002
298.991
298.996
299.115
299.337
299.624
299.894
295.604
297.692
298.627
298.901
298.942
298.899
298.908
298.877
298.874
298.878
298.987
299.139
299.227
299.126
296.361
297.922
298.585
298.742
298.8
298.745
298.761
298.722
298.725
298.708
298.783
298.71
298.452
297.665
297.017
298.075
298.465
298.591
298.64
298.628
298.631
298.562
298.543
298.482
298.449
298.195
297.539
296.229
297.414
297.964
298.106
298.199
298.334
298.432
298.456
298.427
298.375
298.255
298.08
297.625
296.767
295.155
297.446
297.472
297.4
297.493
297.741
298.044
298.194
298.216
298.186
298.066
297.795
297.226
296.224
294.597
297
296.434
296.184
296.163
296.487
296.967
297.41
297.75
297.912
297.863
297.634
296.991
296.177
294.576
296.881
295.359
294.709
294.275
294.424
294.993
295.818
296.67
297.239
297.498
297.514
297.078
296.527
295.145
296.224
293.605
292.335
291.562
291.533
292.047
293.145
294.556
295.834
296.755
297.27
297.319
297.415
297.031
297.158
298.851
299.746
300.188
300.3
300.14
299.891
299.4
298.726
297.938
297.337
297.035
297.164
297.917
296.174
298.236
299.505
300.06
300.121
300.035
299.918
299.727
299.422
299.077
298.902
298.871
298.987
299.491
295.953
298.238
299.353
299.898
299.932
299.942
299.881
299.828
299.683
299.562
299.54
299.587
299.797
300.231
295.91
298.29
299.278
299.733
299.782
299.8
299.782
299.737
299.719
299.715
299.772
299.875
300.142
300.466
296.117
298.305
299.208
299.562
299.641
299.677
299.684
299.682
299.673
299.682
299.751
299.873
300.08
300.407
296.578
298.369
299.164
299.417
299.501
299.539
299.571
299.579
299.598
299.611
299.684
299.811
299.967
300.207
297.117
298.479
299.097
299.286
299.387
299.425
299.46
299.461
299.48
299.485
299.551
299.636
299.711
299.672
297.662
298.593
299.028
299.128
299.257
299.287
299.324
299.313
299.329
299.318
299.354
299.335
299.241
298.837
297.986
298.598
298.857
299.011
299.123
299.163
299.183
299.146
299.135
299.098
299.078
298.945
298.557
297.701
298.132
298.455
298.594
298.761
298.901
298.99
299.007
298.956
298.926
298.862
298.747
298.46
297.866
296.714
297.88
297.95
298.034
298.27
298.517
298.705
298.772
298.753
298.699
298.613
298.435
298.006
297.261
295.96
297.135
296.93
296.977
297.22
297.628
298.022
298.331
298.466
298.498
298.424
298.204
297.667
296.849
295.544
296.336
295.422
295.41
295.521
295.989
296.643
297.299
297.855
298.104
298.17
298.058
297.594
296.779
295.401
294.849
293.23
292.868
292.944
293.382
294.247
295.386
296.515
297.354
297.772
297.896
297.67
297.305
296.373
297.263
299.04
299.846
300.288
300.395
300.358
300.245
300.049
299.741
299.284
298.867
298.491
298.321
298.461
297.005
298.981
299.848
300.281
300.307
300.289
300.208
300.119
299.988
299.806
299.706
299.68
299.696
299.744
297.07
299.11
299.816
300.161
300.173
300.191
300.161
300.126
300.053
300.006
300.012
300.061
300.197
300.375
297.383
299.166
299.748
300.004
300.049
300.074
300.075
300.063
300.053
300.068
300.139
300.23
300.393
300.556
297.73
299.157
299.639
299.838
299.912
299.967
299.993
300.005
300.011
300.033
300.107
300.209
300.329
300.5
298.102
299.144
299.521
299.686
299.779
299.849
299.899
299.92
299.939
299.957
300.027
300.129
300.237
300.426
298.404
299.132
299.409
299.56
299.671
299.747
299.8
299.815
299.833
299.839
299.894
299.971
300.064
300.154
298.605
299.101
299.321
299.419
299.557
299.624
299.67
299.674
299.689
299.685
299.713
299.746
299.817
299.735
298.647
299.021
299.173
299.334
299.453
299.499
299.522
299.504
299.502
299.487
299.495
299.471
299.378
299.057
298.564
298.825
298.985
299.172
299.294
299.343
299.337
299.305
299.29
299.268
299.232
299.111
298.849
298.246
298.139
298.388
298.637
298.896
299.055
299.15
299.155
299.107
299.068
299.02
298.946
298.717
298.289
297.405
297.307
297.478
297.788
298.204
298.537
298.791
298.913
298.914
298.864
298.785
298.653
298.318
297.754
296.639
296.199
295.911
296.412
296.996
297.551
298.026
298.409
298.635
298.644
298.56
298.43
298.058
297.446
296.27
294.286
293.798
294.082
294.725
295.596
296.513
297.37
298.024
298.295
298.341
298.248
297.992
297.572
296.506
298.474
299.799
300.385
300.7
300.801
300.818
300.782
300.71
300.592
300.396
300.21
300.041
299.95
299.821
298.399
299.988
300.433
300.687
300.707
300.738
300.719
300.69
300.636
300.571
300.559
300.602
300.668
300.703
298.532
300.028
300.378
300.575
300.612
300.647
300.658
300.658
300.645
300.643
300.677
300.734
300.856
300.959
298.791
299.952
300.275
300.43
300.501
300.558
300.591
300.609
300.619
300.647
300.709
300.797
300.933
301.063
299.058
299.874
300.14
300.282
300.384
300.471
300.528
300.558
300.574
300.599
300.663
300.76
300.87
301.01
299.297
299.798
300.012
300.157
300.275
300.376
300.447
300.482
300.505
300.521
300.574
300.663
300.765
300.936
299.429
299.728
299.903
300.047
300.176
300.276
300.348
300.378
300.399
300.407
300.447
300.513
300.618
300.769
299.455
299.674
299.796
299.937
300.068
300.151
300.211
300.23
300.253
300.259
300.292
300.339
300.432
300.51
299.393
299.574
299.713
299.86
299.962
300.011
300.048
300.055
300.071
300.08
300.107
300.133
300.179
300.153
299.219
299.402
299.58
299.737
299.82
299.845
299.854
299.851
299.868
299.886
299.901
299.888
299.843
299.651
298.865
299.134
299.394
299.565
299.662
299.686
299.676
299.658
299.663
299.669
299.676
299.613
299.459
299.061
298.188
298.487
298.87
299.171
299.373
299.481
299.502
299.497
299.488
299.464
299.425
299.296
299.039
298.401
297.14
297.391
297.957
298.477
298.852
299.142
299.294
299.344
299.329
299.291
299.226
299.049
298.749
297.963
295.352
295.523
296.031
296.868
297.63
298.307
298.834
299.127
299.203
299.165
299.097
298.915
298.586
297.874
299.628
300.677
300.896
301.122
301.181
301.226
301.226
301.212
301.165
301.111
301.051
301.034
301.039
300.976
299.639
300.719
300.907
301.069
301.105
301.147
301.165
301.172
301.166
301.145
301.167
301.256
301.382
301.445
299.695
300.616
300.818
300.953
301.02
301.081
301.115
301.137
301.158
301.184
301.237
301.307
301.43
301.525
299.822
300.457
300.686
300.83
300.929
301.015
301.068
301.103
301.13
301.171
301.24
301.323
301.449
301.574
299.946
300.349
300.558
300.713
300.837
300.943
301.016
301.059
301.085
301.114
301.172
301.263
301.38
301.511
300.03
300.284
300.463
300.619
300.751
300.86
300.94
300.986
301.016
301.037
301.082
301.162
301.265
301.409
300.041
300.229
300.385
300.53
300.661
300.762
300.839
300.879
300.91
300.927
300.965
301.027
301.123
301.265
299.996
300.172
300.293
300.432
300.553
300.632
300.697
300.731
300.765
300.788
300.828
300.875
300.967
301.092
299.918
300.078
300.218
300.348
300.434
300.484
300.53
300.558
300.594
300.626
300.671
300.716
300.797
300.888
299.755
299.955
300.114
300.231
300.285
300.309
300.336
300.364
300.411
300.461
300.511
300.542
300.59
300.604
299.499
299.788
299.977
300.102
300.149
300.151
300.157
300.179
300.23
300.288
300.339
300.356
300.351
300.255
299.023
299.404
299.684
299.872
299.963
299.983
299.995
300.019
300.074
300.126
300.139
300.123
300.073
299.828
298.306
298.813
299.215
299.487
299.682
299.799
299.861
299.892
299.93
299.968
299.964
299.915
299.821
299.452
297.035
297.363
297.877
298.516
299.049
299.44
299.692
299.798
299.85
299.857
299.847
299.773
299.666
299.259
300.64
301.369
301.477
301.641
301.68
301.716
301.73
301.732
301.727
301.715
301.698
301.75
301.82
301.933
300.652
301.279
301.412
301.545
301.596
301.65
301.676
301.694
301.709
301.721
301.75
301.845
301.987
302.137
300.624
301.098
301.279
301.419
301.512
301.592
301.639
301.673
301.699
301.733
301.798
301.882
302.02
302.142
300.629
300.955
301.15
301.312
301.434
301.536
301.603
301.649
301.682
301.719
301.788
301.876
302.008
302.138
300.623
300.859
301.05
301.223
301.361
301.474
301.554
301.607
301.644
301.674
301.726
301.808
301.925
302.062
300.636
300.811
300.986
301.151
301.287
301.398
301.48
301.533
301.575
301.603
301.646
301.715
301.813
301.947
300.594
300.761
300.914
301.074
301.202
301.3
301.377
301.426
301.469
301.498
301.538
301.592
301.678
301.807
300.569
300.705
300.858
300.986
301.094
301.172
301.237
301.283
301.33
301.366
301.41
301.454
301.535
301.659
300.505
300.65
300.788
300.893
300.97
301.024
301.077
301.121
301.172
301.219
301.27
301.314
301.394
301.522
300.395
300.56
300.698
300.777
300.82
300.85
300.892
300.941
301.004
301.072
301.135
301.186
301.263
301.371
300.258
300.461
300.597
300.661
300.672
300.688
300.712
300.767
300.844
300.931
301.007
301.072
301.133
301.181
300.017
300.272
300.431
300.504
300.513
300.523
300.541
300.611
300.706
300.809
300.881
300.925
300.97
300.969
299.718
300.036
300.195
300.291
300.34
300.383
300.42
300.489
300.587
300.696
300.772
300.803
300.83
300.751
298.816
299.112
299.463
299.803
300.043
300.226
300.336
300.425
300.525
300.622
300.698
300.708
300.712
300.569
302.215
302.215
302.213
302.229
302.299
302.387
302.557
302.188
302.202
302.229
302.268
302.356
302.496
302.675
302.169
302.197
302.235
302.298
302.383
302.521
302.663
302.145
302.185
302.221
302.286
302.373
302.505
302.644
302.101
302.148
302.184
302.237
302.315
302.432
302.573
302.028
302.079
302.118
302.167
302.236
302.337
302.468
301.927
301.98
302.022
302.07
302.13
302.217
302.336
301.797
301.855
301.903
301.955
302.009
302.089
302.204
301.062
301.197
301.314
301.404
301.477
301.536
301.598
301.656
301.718
301.775
301.833
301.884
301.963
302.076
300.994
301.134
301.231
301.293
301.339
301.382
301.439
301.504
301.577
301.649
301.719
301.781
301.859
301.99
300.909
301.065
301.14
301.182
301.198
301.23
301.283
301.359
301.446
301.536
301.618
301.694
301.782
301.888
300.774
300.959
301.029
301.051
301.049
301.076
301.13
301.226
301.336
301.448
301.541
301.616
301.702
301.795
300.663
300.836
300.889
300.907
300.924
300.957
301.02
301.121
301.246
301.377
301.491
301.583
301.66
301.701
300.067
300.334
300.536
300.681
300.785
300.866
300.96
301.071
301.201
301.34
301.464
301.539
301.594
301.594
302.765
305.119
307.908
310.3
312.341
313.14
301.511
303.782
306.537
308.899
310.838
311.508
301.933
303.96
306.162
307.67
308.584
308.546
301.854
303.408
304.722
304.994
304.813
304.142
301.383
301.845
301.736
301.055
300.385
299.703
300.402
299.665
298.222
296.759
295.728
295.058
298.712
296.661
294.268
292.707
292.072
292.002
296.847
293.978
291.452
290.204
290.125
290.162
295.404
292.17
290.003
289.179
289.634
289.599
294.649
291.452
290.005
290.234
291.974
292.583
294.78
292.228
291.658
292.889
295.972
297.631
296.019
294.454
294.804
296.958
301.097
303.873
298.585
297.906
299.32
302.028
305.843
308.76
300.125
300.985
303.641
306.317
309.4
311.501
300.414
302.155
304.581
306.933
309.229
310.997
299.935
301.565
304.039
306.484
308.79
310.219
300.731
302.224
304.31
306.114
307.606
308.02
300.973
302.163
303.459
304.015
304.189
303.687
300.844
301.342
301.468
300.833
299.872
298.867
300.005
299.373
298.041
296.169
294.633
293.683
298.521
296.529
293.782
291.453
290.184
289.742
296.642
293.407
290.094
287.99
287.324
287.344
294.969
291.2
288.131
286.378
286.257
286.506
293.917
290.194
287.654
286.665
287.634
288.854
293.632
290.419
288.81
288.635
290.804
293.186
294.246
291.996
291.534
292.231
295.336
298.674
296.173
294.898
295.367
297.078
300.497
303.929
297.216
297.456
299.211
301.909
305.204
307.946
298.415
299.271
300.775
302.609
304.747
307.112
299.164
299.907
301.469
303.629
305.862
307.933
300.23
300.988
302.415
304.216
306.048
307.597
300.637
301.284
302.483
303.676
304.737
305.246
300.703
301.126
301.632
301.684
301.477
301.023
300.241
300.054
299.403
298.115
296.692
295.499
299.434
298.211
296.158
293.582
291.493
290.379
298.247
295.908
292.578
289.288
287.147
286.54
297.014
293.825
289.951
286.675
284.919
284.585
295.984
292.503
288.82
285.911
284.899
285.389
295.577
292.162
289.026
286.829
286.817
288.064
295.671
292.698
290.518
289.246
290.065
292.075
296.491
294.401
293.317
292.937
294.472
296.83
296.65
295.833
296.255
297.178
299.474
302.037
297.546
297.338
297.891
298.494
299.713
301.582
298.849
298.75
299.439
300.542
302.134
304.073
300.005
300.24
301.145
302.296
303.803
305.252
300.525
300.858
301.699
302.746
304.139
305.131
300.665
301.041
301.733
302.404
303.063
303.13
300.5
300.677
300.897
300.752
300.16
298.957
300.212
299.938
299.19
297.756
295.703
293.557
299.696
298.685
296.687
293.682
290.453
288.21
299.001
297.145
293.999
289.906
286.37
284.531
298.166
295.677
291.958
287.704
284.622
283.404
297.59
294.809
291.155
287.196
284.732
284.276
297.332
294.549
291.328
288.087
286.527
286.582
297.384
295.088
292.725
290.595
289.966
290.52
297.26
295.657
294.655
293.887
294.344
295.51
298.149
297.325
297.012
296.818
297.222
298.237
299.343
298.839
298.833
299.039
299.919
301.389
300.386
300.228
300.536
301.117
302.284
303.719
300.849
300.944
301.45
302.175
303.288
304.434
301.017
301.256
301.81
302.519
303.352
304.018
300.997
301.226
301.653
302.025
302.202
301.92
300.887
300.997
301.019
300.565
299.5
297.808
300.694
300.5
299.764
298.098
295.6
292.574
300.407
299.686
297.998
295.101
291.194
287.641
299.954
298.669
296.209
292.372
288.071
284.965
299.55
297.849
295.004
290.937
287.002
284.51
299.313
297.459
294.61
290.758
287.528
285.917
299.268
297.542
295.026
292.038
289.871
288.981
299.161
297.731
296.078
294.197
293.196
293.055
299.301
298.308
297.379
296.505
296.264
296.59
300.21
299.513
299.026
298.683
298.888
299.752
300.834
300.511
300.476
300.591
301.265
302.467
301.207
301.183
301.444
301.906
302.832
303.925
301.353
301.528
301.963
302.576
303.423
304.212
301.389
301.608
302.079
302.669
303.203
303.52
301.337
301.566
301.939
302.215
302.101
301.431
301.281
301.4
301.481
301.062
299.8
297.578
301.185
301.088
300.641
299.217
296.602
292.973
301.053
300.584
299.429
297.055
293.384
289.202
300.852
300.055
298.386
295.451
291.429
287.645
300.7
299.727
297.843
294.825
290.999
287.781
300.683
299.701
297.854
295.107
292.056
289.934
300.787
299.777
298.307
296.166
294.281
293.281
300.549
299.756
298.72
297.362
296.615
296.441
301.197
300.643
300.004
299.207
298.984
299.207
301.536
301.257
301.024
300.824
301.074
301.798
301.752
301.708
301.809
302.001
302.598
303.515
301.821
301.96
302.272
302.722
303.438
304.227
301.865
302.054
302.441
302.956
303.596
304.156
301.852
302.046
302.428
302.895
303.271
303.411
301.821
302.022
302.288
302.467
302.274
301.396
301.797
301.889
301.926
301.643
300.54
298.25
301.773
301.728
301.384
300.384
298.265
294.825
301.712
301.467
300.757
299.173
296.427
292.678
301.712
301.294
300.334
298.45
295.587
292.135
301.763
301.313