/*--------------------------------*- C++ -*----------------------------------*\
| =========                 |                                                 |
| \\      /  F ield         | OpenFOAM: The Open Source CFD Toolbox           |
|  \\    /   O peration     | Version:  v2106                                 |
|   \\  /    A nd           | Website:  www.openfoam.com                      |
|    \\/     M anipulation  |                                                 |
\*---------------------------------------------------------------------------*/
FoamFile
{
    version     2.0;
    format      ascii;
    arch        "LSB;label=32;scalar=64";
    class       volScalarField;
    location    "0.000204";
    object      alphat;
}
// * * * * * * * * * * * * * * * * * * * * * * * * * * * * * * * * * * * * * //

dimensions      [1 -1 -1 0 0 0 0];

internalField   nonuniform List<scalar> 
17920
(
9.57972e-17
9.57859e-17
9.5792e-17
9.57809e-17
9.57874e-17
9.5776e-17
9.57826e-17
9.57708e-17
9.57772e-17
9.5765e-17
9.57714e-17
9.57588e-17
9.57654e-17
9.57524e-17
9.5759e-17
9.57458e-17
9.57521e-17
9.57389e-17
9.57451e-17
9.57319e-17
9.57376e-17
9.57243e-17
9.57304e-17
9.5717e-17
9.57225e-17
9.57084e-17
9.57164e-17
9.57021e-17
9.58423e-17
9.58321e-17
9.58221e-17
9.5812e-17
9.58016e-17
9.57908e-17
9.57796e-17
9.57679e-17
9.5756e-17
9.57436e-17
9.57316e-17
9.57186e-17
9.57071e-17
9.56937e-17
9.58324e-17
9.58231e-17
9.58135e-17
9.58036e-17
9.5793e-17
9.5782e-17
9.57707e-17
9.57588e-17
9.57468e-17
9.57342e-17
9.5722e-17
9.57089e-17
9.5697e-17
9.56838e-17
9.58216e-17
9.58133e-17
9.58036e-17
9.57937e-17
9.57833e-17
9.57724e-17
9.57612e-17
9.57493e-17
9.57373e-17
9.57246e-17
9.57123e-17
9.56992e-17
9.5687e-17
9.56738e-17
9.58109e-17
9.58031e-17
9.57935e-17
9.57837e-17
9.57732e-17
9.57623e-17
9.57509e-17
9.5739e-17
9.57268e-17
9.57141e-17
9.57016e-17
9.56885e-17
9.56762e-17
9.56629e-17
9.58001e-17
9.57923e-17
9.57828e-17
9.57731e-17
9.57626e-17
9.57516e-17
9.57401e-17
9.57281e-17
9.57159e-17
9.57031e-17
9.56905e-17
9.56773e-17
9.56648e-17
9.56514e-17
9.57887e-17
9.57808e-17
9.57714e-17
9.57617e-17
9.57512e-17
9.57402e-17
9.57286e-17
9.57165e-17
9.57041e-17
9.56913e-17
9.56785e-17
9.56652e-17
9.56524e-17
9.56389e-17
9.57773e-17
9.57691e-17
9.57597e-17
9.57499e-17
9.57393e-17
9.57282e-17
9.57165e-17
9.57043e-17
9.56918e-17
9.56789e-17
9.56659e-17
9.56526e-17
9.56395e-17
9.5626e-17
9.57652e-17
9.57566e-17
9.57471e-17
9.57371e-17
9.57265e-17
9.57153e-17
9.57036e-17
9.56914e-17
9.56788e-17
9.56658e-17
9.56525e-17
9.56392e-17
9.56257e-17
9.56123e-17
9.57534e-17
9.57442e-17
9.57345e-17
9.57242e-17
9.57135e-17
9.57021e-17
9.56902e-17
9.56779e-17
9.5665e-17
9.56519e-17
9.56383e-17
9.5625e-17
9.56112e-17
9.55982e-17
9.57407e-17
9.57308e-17
9.57209e-17
9.57103e-17
9.56995e-17
9.5688e-17
9.56761e-17
9.56637e-17
9.56507e-17
9.56375e-17
9.56237e-17
9.56103e-17
9.55962e-17
9.55835e-17
9.57285e-17
9.57177e-17
9.57076e-17
9.56967e-17
9.56856e-17
9.56738e-17
9.56615e-17
9.56489e-17
9.56355e-17
9.56222e-17
9.56082e-17
9.55948e-17
9.55805e-17
9.55684e-17
9.57151e-17
9.57035e-17
9.56931e-17
9.56819e-17
9.56705e-17
9.56586e-17
9.56463e-17
9.56336e-17
9.56204e-17
9.5607e-17
9.55929e-17
9.55795e-17
9.5565e-17
9.55531e-17
9.57023e-17
9.569e-17
9.56793e-17
9.56678e-17
9.5656e-17
9.56437e-17
9.56309e-17
9.56177e-17
9.56041e-17
9.55904e-17
9.55762e-17
9.55626e-17
9.55483e-17
9.55365e-17
9.56876e-17
9.56748e-17
9.56638e-17
9.5652e-17
9.56399e-17
9.56275e-17
9.56148e-17
9.56019e-17
9.55886e-17
9.55752e-17
9.55613e-17
9.55478e-17
9.55335e-17
9.55216e-17
9.56774e-17
9.56698e-17
9.5662e-17
9.56541e-17
9.56457e-17
9.56367e-17
9.5627e-17
9.56166e-17
9.56056e-17
9.55941e-17
9.55824e-17
9.55701e-17
9.55585e-17
9.55453e-17
9.56616e-17
9.56557e-17
9.56481e-17
9.56403e-17
9.56318e-17
9.56227e-17
9.56129e-17
9.56025e-17
9.55915e-17
9.55799e-17
9.55682e-17
9.55558e-17
9.55442e-17
9.55315e-17
9.56461e-17
9.56408e-17
9.56331e-17
9.56253e-17
9.56167e-17
9.56077e-17
9.55981e-17
9.55879e-17
9.55772e-17
9.55658e-17
9.55543e-17
9.55421e-17
9.55306e-17
9.55182e-17
9.56302e-17
9.56251e-17
9.56175e-17
9.56098e-17
9.56012e-17
9.55922e-17
9.55826e-17
9.55724e-17
9.55617e-17
9.55503e-17
9.55389e-17
9.55268e-17
9.55155e-17
9.55033e-17
9.56144e-17
9.56091e-17
9.56014e-17
9.55937e-17
9.55851e-17
9.55761e-17
9.55665e-17
9.55562e-17
9.55456e-17
9.55344e-17
9.55231e-17
9.55113e-17
9.55001e-17
9.5488e-17
9.55977e-17
9.55921e-17
9.55846e-17
9.55768e-17
9.55683e-17
9.55592e-17
9.55496e-17
9.55394e-17
9.55287e-17
9.55176e-17
9.55064e-17
9.54948e-17
9.54836e-17
9.54717e-17
9.5581e-17
9.55749e-17
9.55675e-17
9.55596e-17
9.5551e-17
9.55418e-17
9.55321e-17
9.55218e-17
9.55112e-17
9.55002e-17
9.54891e-17
9.54777e-17
9.54665e-17
9.54549e-17
9.55634e-17
9.55569e-17
9.55495e-17
9.55415e-17
9.55329e-17
9.55237e-17
9.55139e-17
9.55037e-17
9.54931e-17
9.54822e-17
9.5471e-17
9.54598e-17
9.54485e-17
9.54373e-17
9.55461e-17
9.55389e-17
9.55313e-17
9.55231e-17
9.55144e-17
9.55051e-17
9.54952e-17
9.5485e-17
9.54743e-17
9.54635e-17
9.54523e-17
9.54413e-17
9.543e-17
9.54195e-17
9.5528e-17
9.552e-17
9.55123e-17
9.55039e-17
9.54952e-17
9.54859e-17
9.5476e-17
9.54658e-17
9.54551e-17
9.54443e-17
9.54331e-17
9.54222e-17
9.54108e-17
9.54009e-17
9.55104e-17
9.55015e-17
9.54936e-17
9.54849e-17
9.5476e-17
9.54665e-17
9.54565e-17
9.54461e-17
9.54354e-17
9.54246e-17
9.54133e-17
9.54027e-17
9.53913e-17
9.53824e-17
9.54917e-17
9.54819e-17
9.54738e-17
9.5465e-17
9.54559e-17
9.54463e-17
9.54364e-17
9.54262e-17
9.54155e-17
9.54048e-17
9.53936e-17
9.53831e-17
9.53717e-17
9.53633e-17
9.54739e-17
9.54635e-17
9.54551e-17
9.5446e-17
9.54365e-17
9.54266e-17
9.54163e-17
9.54058e-17
9.5395e-17
9.53841e-17
9.53729e-17
9.53625e-17
9.53515e-17
9.53437e-17
9.54533e-17
9.54433e-17
9.54344e-17
9.54253e-17
9.54156e-17
9.54058e-17
9.53958e-17
9.53855e-17
9.53751e-17
9.53645e-17
9.53536e-17
9.53433e-17
9.53325e-17
9.53247e-17
9.54159e-17
9.54125e-17
9.54081e-17
9.54038e-17
9.5399e-17
9.53934e-17
9.53871e-17
9.53803e-17
9.53729e-17
9.5365e-17
9.53567e-17
9.5348e-17
9.53394e-17
9.53296e-17
9.53982e-17
9.53963e-17
9.53925e-17
9.53884e-17
9.53835e-17
9.53778e-17
9.53714e-17
9.53645e-17
9.53571e-17
9.53492e-17
9.53409e-17
9.5332e-17
9.53237e-17
9.53141e-17
9.53818e-17
9.53804e-17
9.53761e-17
9.5372e-17
9.5367e-17
9.53613e-17
9.53551e-17
9.53483e-17
9.53412e-17
9.53335e-17
9.53256e-17
9.53171e-17
9.53092e-17
9.53e-17
9.53648e-17
9.53632e-17
9.53591e-17
9.53549e-17
9.53499e-17
9.53443e-17
9.53381e-17
9.53314e-17
9.53244e-17
9.53169e-17
9.53092e-17
9.53008e-17
9.52932e-17
9.52843e-17
9.53482e-17
9.5346e-17
9.53418e-17
9.53374e-17
9.53323e-17
9.53267e-17
9.53206e-17
9.53141e-17
9.53072e-17
9.52998e-17
9.52924e-17
9.52844e-17
9.5277e-17
9.52684e-17
9.53308e-17
9.53281e-17
9.53239e-17
9.53194e-17
9.53142e-17
9.53086e-17
9.53026e-17
9.52962e-17
9.52894e-17
9.52823e-17
9.52749e-17
9.52672e-17
9.52599e-17
9.52518e-17
9.53133e-17
9.531e-17
9.53058e-17
9.53011e-17
9.52959e-17
9.52902e-17
9.52842e-17
9.52779e-17
9.52712e-17
9.52642e-17
9.52571e-17
9.52497e-17
9.52425e-17
9.52349e-17
9.52953e-17
9.52914e-17
9.52871e-17
9.52824e-17
9.52772e-17
9.52715e-17
9.52655e-17
9.52592e-17
9.52526e-17
9.52458e-17
9.52387e-17
9.52317e-17
9.52245e-17
9.52175e-17
9.52772e-17
9.52728e-17
9.52683e-17
9.52635e-17
9.52582e-17
9.52525e-17
9.52465e-17
9.52402e-17
9.52336e-17
9.5227e-17
9.52201e-17
9.52133e-17
9.52063e-17
9.52002e-17
9.52586e-17
9.52536e-17
9.52492e-17
9.52442e-17
9.5239e-17
9.52333e-17
9.52272e-17
9.52209e-17
9.52144e-17
9.52079e-17
9.52012e-17
9.51946e-17
9.51876e-17
9.51823e-17
9.52404e-17
9.52348e-17
9.52302e-17
9.52251e-17
9.52197e-17
9.52139e-17
9.52078e-17
9.52015e-17
9.51951e-17
9.51887e-17
9.51821e-17
9.51759e-17
9.5169e-17
9.51647e-17
9.52214e-17
9.52151e-17
9.52105e-17
9.52055e-17
9.52001e-17
9.51943e-17
9.51883e-17
9.51821e-17
9.51757e-17
9.51694e-17
9.5163e-17
9.51571e-17
9.51502e-17
9.51465e-17
9.52038e-17
9.51968e-17
9.51919e-17
9.51866e-17
9.5181e-17
9.5175e-17
9.51689e-17
9.51625e-17
9.51561e-17
9.51498e-17
9.51436e-17
9.51381e-17
9.51317e-17
9.51286e-17
9.51835e-17
9.51772e-17
9.51718e-17
9.51666e-17
9.51611e-17
9.51554e-17
9.51494e-17
9.51433e-17
9.51371e-17
9.51309e-17
9.51249e-17
9.51192e-17
9.51133e-17
9.511e-17
9.50736e-17
9.50743e-17
9.50739e-17
9.50736e-17
9.5073e-17
9.50721e-17
9.50706e-17
9.50687e-17
9.50664e-17
9.50636e-17
9.50604e-17
9.50569e-17
9.50533e-17
9.50495e-17
9.50599e-17
9.50612e-17
9.5061e-17
9.50608e-17
9.50602e-17
9.50592e-17
9.50578e-17
9.50559e-17
9.50536e-17
9.50507e-17
9.50475e-17
9.50439e-17
9.50404e-17
9.50362e-17
9.50473e-17
9.50485e-17
9.50479e-17
9.50476e-17
9.5047e-17
9.5046e-17
9.50445e-17
9.50426e-17
9.50404e-17
9.50377e-17
9.50347e-17
9.50313e-17
9.50283e-17
9.5024e-17
9.5034e-17
9.50349e-17
9.50343e-17
9.5034e-17
9.50333e-17
9.50323e-17
9.50309e-17
9.5029e-17
9.50268e-17
9.50243e-17
9.50215e-17
9.50182e-17
9.50154e-17
9.50111e-17
9.50206e-17
9.50212e-17
9.50206e-17
9.50202e-17
9.50194e-17
9.50184e-17
9.50169e-17
9.50151e-17
9.5013e-17
9.50106e-17
9.5008e-17
9.50051e-17
9.50024e-17
9.49985e-17
9.50069e-17
9.50071e-17
9.50066e-17
9.50061e-17
9.50053e-17
9.50042e-17
9.50027e-17
9.5001e-17
9.4999e-17
9.49967e-17
9.49943e-17
9.49916e-17
9.4989e-17
9.49856e-17
9.49929e-17
9.49928e-17
9.49924e-17
9.49918e-17
9.49908e-17
9.49897e-17
9.49883e-17
9.49866e-17
9.49848e-17
9.49827e-17
9.49804e-17
9.4978e-17
9.49755e-17
9.49727e-17
9.49789e-17
9.49783e-17
9.49779e-17
9.49772e-17
9.49763e-17
9.49751e-17
9.49737e-17
9.49721e-17
9.49704e-17
9.49684e-17
9.49663e-17
9.49641e-17
9.49617e-17
9.49595e-17
9.49648e-17
9.49638e-17
9.49633e-17
9.49625e-17
9.49616e-17
9.49604e-17
9.4959e-17
9.49575e-17
9.49558e-17
9.4954e-17
9.4952e-17
9.49501e-17
9.49478e-17
9.49464e-17
9.49505e-17
9.49491e-17
9.49486e-17
9.49477e-17
9.49468e-17
9.49456e-17
9.49443e-17
9.49428e-17
9.49413e-17
9.49396e-17
9.49376e-17
9.49358e-17
9.49336e-17
9.49331e-17
9.49364e-17
9.49345e-17
9.49339e-17
9.4933e-17
9.4932e-17
9.49308e-17
9.49296e-17
9.49282e-17
9.49267e-17
9.49251e-17
9.49232e-17
9.49215e-17
9.49195e-17
9.492e-17
9.4922e-17
9.49196e-17
9.49192e-17
9.49183e-17
9.49173e-17
9.49161e-17
9.49149e-17
9.49135e-17
9.49121e-17
9.49106e-17
9.49088e-17
9.49072e-17
9.49053e-17
9.49062e-17
9.49082e-17
9.49054e-17
9.49049e-17
9.49038e-17
9.49027e-17
9.49016e-17
9.49003e-17
9.48989e-17
9.48975e-17
9.48961e-17
9.48945e-17
9.48931e-17
9.48917e-17
9.48931e-17
9.48933e-17
9.4891e-17
9.48901e-17
9.48892e-17
9.48882e-17
9.48871e-17
9.48858e-17
9.48845e-17
9.48833e-17
9.48819e-17
9.48805e-17
9.48791e-17
9.4878e-17
9.48786e-17
9.46876e-17
9.46912e-17
9.46942e-17
9.46975e-17
9.47006e-17
9.47036e-17
9.47063e-17
9.47088e-17
9.4711e-17
9.47129e-17
9.47145e-17
9.47158e-17
9.47171e-17
9.47177e-17
9.46809e-17
9.46847e-17
9.46877e-17
9.46911e-17
9.46941e-17
9.46971e-17
9.46997e-17
9.47021e-17
9.47042e-17
9.4706e-17
9.47076e-17
9.47089e-17
9.47101e-17
9.47102e-17
9.46743e-17
9.46782e-17
9.46811e-17
9.46844e-17
9.46873e-17
9.46902e-17
9.46928e-17
9.46952e-17
9.46973e-17
9.46992e-17
9.47008e-17
9.47021e-17
9.47034e-17
9.47035e-17
9.46674e-17
9.46713e-17
9.46742e-17
9.46775e-17
9.46804e-17
9.46832e-17
9.46857e-17
9.46881e-17
9.46902e-17
9.4692e-17
9.46937e-17
9.46951e-17
9.46964e-17
9.46968e-17
9.46605e-17
9.46641e-17
9.4667e-17
9.46702e-17
9.46731e-17
9.46758e-17
9.46784e-17
9.46808e-17
9.46829e-17
9.46849e-17
9.46867e-17
9.46881e-17
9.46895e-17
9.46901e-17
9.46533e-17
9.46567e-17
9.46597e-17
9.46628e-17
9.46657e-17
9.46684e-17
9.4671e-17
9.46733e-17
9.46755e-17
9.46775e-17
9.46793e-17
9.46809e-17
9.46824e-17
9.46832e-17
9.4646e-17
9.46491e-17
9.46521e-17
9.46551e-17
9.4658e-17
9.46608e-17
9.46634e-17
9.46658e-17
9.4668e-17
9.46701e-17
9.4672e-17
9.46737e-17
9.46752e-17
9.46763e-17
9.46384e-17
9.46414e-17
9.46445e-17
9.46475e-17
9.46503e-17
9.46531e-17
9.46557e-17
9.46582e-17
9.46604e-17
9.46626e-17
9.46645e-17
9.46663e-17
9.46678e-17
9.46693e-17
9.46308e-17
9.46337e-17
9.46368e-17
9.46397e-17
9.46425e-17
9.46453e-17
9.46479e-17
9.46504e-17
9.46528e-17
9.4655e-17
9.4657e-17
9.46589e-17
9.46605e-17
9.46624e-17
9.46231e-17
9.46258e-17
9.4629e-17
9.46319e-17
9.46347e-17
9.46375e-17
9.46401e-17
9.46427e-17
9.46451e-17
9.46474e-17
9.46494e-17
9.46515e-17
9.46532e-17
9.46553e-17
9.46153e-17
9.46179e-17
9.46211e-17
9.4624e-17
9.46268e-17
9.46296e-17
9.46322e-17
9.46348e-17
9.46373e-17
9.46396e-17
9.46418e-17
9.4644e-17
9.46459e-17
9.46484e-17
9.46075e-17
9.46098e-17
9.46131e-17
9.4616e-17
9.46188e-17
9.46217e-17
9.46243e-17
9.4627e-17
9.46295e-17
9.46319e-17
9.46342e-17
9.46365e-17
9.46384e-17
9.46411e-17
9.45997e-17
9.4602e-17
9.46051e-17
9.4608e-17
9.46108e-17
9.46137e-17
9.46165e-17
9.46192e-17
9.46217e-17
9.46242e-17
9.46265e-17
9.46289e-17
9.46311e-17
9.46341e-17
9.45923e-17
9.45945e-17
9.45976e-17
9.46004e-17
9.46031e-17
9.46059e-17
9.46086e-17
9.46112e-17
9.46137e-17
9.46162e-17
9.46186e-17
9.4621e-17
9.46234e-17
9.46261e-17
9.42951e-17
9.42999e-17
9.43048e-17
9.43098e-17
9.43147e-17
9.43196e-17
9.43243e-17
9.43291e-17
9.43338e-17
9.43384e-17
9.43428e-17
9.4347e-17
9.43509e-17
9.43548e-17
9.42943e-17
9.42993e-17
9.43042e-17
9.43093e-17
9.43143e-17
9.43194e-17
9.43243e-17
9.43291e-17
9.43338e-17
9.43382e-17
9.43425e-17
9.43467e-17
9.43506e-17
9.43543e-17
9.42942e-17
9.42992e-17
9.43042e-17
9.43092e-17
9.43143e-17
9.43193e-17
9.43242e-17
9.43289e-17
9.43335e-17
9.43379e-17
9.43421e-17
9.43462e-17
9.435e-17
9.43536e-17
9.42938e-17
9.42988e-17
9.43039e-17
9.4309e-17
9.4314e-17
9.4319e-17
9.43239e-17
9.43286e-17
9.43331e-17
9.43375e-17
9.43417e-17
9.43457e-17
9.43494e-17
9.43528e-17
9.42934e-17
9.42984e-17
9.43035e-17
9.43086e-17
9.43136e-17
9.43186e-17
9.43234e-17
9.43281e-17
9.43326e-17
9.4337e-17
9.43411e-17
9.43451e-17
9.43488e-17
9.43521e-17
9.42927e-17
9.42978e-17
9.43029e-17
9.4308e-17
9.4313e-17
9.4318e-17
9.43228e-17
9.43275e-17
9.43321e-17
9.43364e-17
9.43405e-17
9.43444e-17
9.43481e-17
9.43514e-17
9.42918e-17
9.4297e-17
9.43021e-17
9.43072e-17
9.43123e-17
9.43172e-17
9.43221e-17
9.43268e-17
9.43313e-17
9.43356e-17
9.43397e-17
9.43436e-17
9.43473e-17
9.43506e-17
9.42908e-17
9.4296e-17
9.43011e-17
9.43063e-17
9.43113e-17
9.43163e-17
9.43212e-17
9.43259e-17
9.43304e-17
9.43348e-17
9.43389e-17
9.43428e-17
9.43465e-17
9.43498e-17
9.42896e-17
9.42948e-17
9.43e-17
9.43051e-17
9.43102e-17
9.43152e-17
9.43201e-17
9.43248e-17
9.43294e-17
9.43338e-17
9.43379e-17
9.43419e-17
9.43456e-17
9.4349e-17
9.42883e-17
9.42935e-17
9.42987e-17
9.43039e-17
9.43089e-17
9.4314e-17
9.43189e-17
9.43237e-17
9.43283e-17
9.43327e-17
9.43369e-17
9.43409e-17
9.43446e-17
9.43482e-17
9.42868e-17
9.42919e-17
9.42971e-17
9.43023e-17
9.43074e-17
9.43126e-17
9.43175e-17
9.43223e-17
9.43269e-17
9.43314e-17
9.43356e-17
9.43397e-17
9.43436e-17
9.43473e-17
9.42852e-17
9.42903e-17
9.42954e-17
9.43007e-17
9.43058e-17
9.4311e-17
9.4316e-17
9.43208e-17
9.43255e-17
9.433e-17
9.43343e-17
9.43384e-17
9.43423e-17
9.43462e-17
9.42837e-17
9.42887e-17
9.42937e-17
9.4299e-17
9.43041e-17
9.43093e-17
9.43143e-17
9.43192e-17
9.4324e-17
9.43285e-17
9.43328e-17
9.4337e-17
9.43409e-17
9.43454e-17
9.42822e-17
9.42876e-17
9.42926e-17
9.42978e-17
9.43027e-17
9.43077e-17
9.43125e-17
9.43173e-17
9.4322e-17
9.43265e-17
9.43308e-17
9.43351e-17
9.43394e-17
9.43438e-17
9.39177e-17
9.39218e-17
9.39265e-17
9.39313e-17
9.39361e-17
9.3941e-17
9.39459e-17
9.39508e-17
9.39557e-17
9.39605e-17
9.39654e-17
9.39702e-17
9.39749e-17
9.39797e-17
9.3921e-17
9.39253e-17
9.39301e-17
9.3935e-17
9.394e-17
9.39451e-17
9.39502e-17
9.39552e-17
9.39602e-17
9.3965e-17
9.39697e-17
9.39744e-17
9.39788e-17
9.39835e-17
9.3925e-17
9.39293e-17
9.39344e-17
9.39393e-17
9.39444e-17
9.39494e-17
9.39545e-17
9.39594e-17
9.39643e-17
9.3969e-17
9.39736e-17
9.39782e-17
9.39825e-17
9.3987e-17
9.39286e-17
9.39332e-17
9.39383e-17
9.39433e-17
9.39485e-17
9.39536e-17
9.39586e-17
9.39636e-17
9.39685e-17
9.39732e-17
9.39778e-17
9.39823e-17
9.39865e-17
9.39908e-17
9.39324e-17
9.39372e-17
9.39423e-17
9.39474e-17
9.39526e-17
9.39577e-17
9.39627e-17
9.39677e-17
9.39725e-17
9.39772e-17
9.39817e-17
9.39861e-17
9.39902e-17
9.39943e-17
9.3936e-17
9.3941e-17
9.39462e-17
9.39513e-17
9.39565e-17
9.39616e-17
9.39667e-17
9.39717e-17
9.39765e-17
9.39812e-17
9.39857e-17
9.399e-17
9.3994e-17
9.3998e-17
9.39395e-17
9.39447e-17
9.39499e-17
9.39551e-17
9.39603e-17
9.39655e-17
9.39705e-17
9.39755e-17
9.39803e-17
9.39849e-17
9.39894e-17
9.39936e-17
9.39977e-17
9.40014e-17
9.39429e-17
9.39482e-17
9.39534e-17
9.39587e-17
9.39639e-17
9.39691e-17
9.39742e-17
9.39792e-17
9.3984e-17
9.39886e-17
9.39931e-17
9.39973e-17
9.40013e-17
9.4005e-17
9.39461e-17
9.39515e-17
9.39567e-17
9.39621e-17
9.39673e-17
9.39726e-17
9.39777e-17
9.39827e-17
9.39875e-17
9.39921e-17
9.39966e-17
9.40007e-17
9.40048e-17
9.40083e-17
9.39492e-17
9.39546e-17
9.39599e-17
9.39653e-17
9.39706e-17
9.39758e-17
9.39809e-17
9.3986e-17
9.39908e-17
9.39954e-17
9.39999e-17
9.40041e-17
9.40082e-17
9.40117e-17
9.39521e-17
9.39575e-17
9.39628e-17
9.39682e-17
9.39735e-17
9.39789e-17
9.3984e-17
9.39891e-17
9.39939e-17
9.39986e-17
9.40031e-17
9.40073e-17
9.40114e-17
9.4015e-17
9.39549e-17
9.39604e-17
9.39656e-17
9.39712e-17
9.39764e-17
9.39818e-17
9.39869e-17
9.3992e-17
9.39969e-17
9.40016e-17
9.40061e-17
9.40104e-17
9.40146e-17
9.40183e-17
9.39575e-17
9.3963e-17
9.39682e-17
9.39737e-17
9.39791e-17
9.39845e-17
9.39897e-17
9.39948e-17
9.39997e-17
9.40045e-17
9.4009e-17
9.40134e-17
9.40176e-17
9.40218e-17
9.39605e-17
9.39661e-17
9.39711e-17
9.39766e-17
9.39819e-17
9.39871e-17
9.39922e-17
9.39972e-17
9.40021e-17
9.40069e-17
9.40115e-17
9.4016e-17
9.40205e-17
9.40248e-17
9.35649e-17
9.35674e-17
9.35707e-17
9.35739e-17
9.35773e-17
9.35807e-17
9.35841e-17
9.35876e-17
9.35911e-17
9.35948e-17
9.35984e-17
9.36022e-17
9.3606e-17
9.36102e-17
9.35694e-17
9.35721e-17
9.35754e-17
9.35787e-17
9.35823e-17
9.35858e-17
9.35894e-17
9.35931e-17
9.35967e-17
9.36005e-17
9.36041e-17
9.36078e-17
9.36115e-17
9.36156e-17
9.35743e-17
9.35771e-17
9.35806e-17
9.3584e-17
9.35876e-17
9.35912e-17
9.35948e-17
9.35984e-17
9.36021e-17
9.36057e-17
9.36093e-17
9.36129e-17
9.36164e-17
9.36205e-17
9.35793e-17
9.35822e-17
9.35858e-17
9.35893e-17
9.35929e-17
9.35966e-17
9.36002e-17
9.36039e-17
9.36076e-17
9.36113e-17
9.36149e-17
9.36185e-17
9.36219e-17
9.36258e-17
9.35842e-17
9.35874e-17
9.3591e-17
9.35946e-17
9.35983e-17
9.36019e-17
9.36056e-17
9.36093e-17
9.3613e-17
9.36166e-17
9.36202e-17
9.36237e-17
9.36271e-17
9.36307e-17
9.35893e-17
9.35926e-17
9.35963e-17
9.35999e-17
9.36036e-17
9.36073e-17
9.3611e-17
9.36148e-17
9.36185e-17
9.36221e-17
9.36256e-17
9.36291e-17
9.36325e-17
9.36359e-17
9.35943e-17
9.35979e-17
9.36015e-17
9.36052e-17
9.3609e-17
9.36127e-17
9.36164e-17
9.36201e-17
9.36238e-17
9.36274e-17
9.3631e-17
9.36344e-17
9.36377e-17
9.36409e-17
9.35993e-17
9.36031e-17
9.36067e-17
9.36105e-17
9.36142e-17
9.3618e-17
9.36217e-17
9.36255e-17
9.36291e-17
9.36327e-17
9.36362e-17
9.36396e-17
9.36429e-17
9.36459e-17
9.36043e-17
9.36082e-17
9.36118e-17
9.36156e-17
9.36194e-17
9.36232e-17
9.3627e-17
9.36307e-17
9.36344e-17
9.36379e-17
9.36414e-17
9.36448e-17
9.36481e-17
9.36509e-17
9.36093e-17
9.36132e-17
9.36168e-17
9.36207e-17
9.36245e-17
9.36283e-17
9.36321e-17
9.36358e-17
9.36395e-17
9.36431e-17
9.36465e-17
9.36498e-17
9.36532e-17
9.36558e-17
9.36141e-17
9.36181e-17
9.36217e-17
9.36257e-17
9.36295e-17
9.36333e-17
9.36371e-17
9.36409e-17
9.36446e-17
9.36481e-17
9.36516e-17
9.36548e-17
9.36581e-17
9.36607e-17
9.3619e-17
9.3623e-17
9.36267e-17
9.36306e-17
9.36344e-17
9.36382e-17
9.3642e-17
9.36458e-17
9.36495e-17
9.36531e-17
9.36565e-17
9.36598e-17
9.36631e-17
9.36658e-17
9.36236e-17
9.36276e-17
9.36313e-17
9.36352e-17
9.36391e-17
9.3643e-17
9.36469e-17
9.36507e-17
9.36544e-17
9.3658e-17
9.36614e-17
9.36647e-17
9.3668e-17
9.36709e-17
9.36287e-17
9.36327e-17
9.36363e-17
9.36402e-17
9.3644e-17
9.36478e-17
9.36516e-17
9.36554e-17
9.3659e-17
9.36626e-17
9.3666e-17
9.36695e-17
9.3673e-17
9.36765e-17
9.32399e-17
9.3241e-17
9.32423e-17
9.32436e-17
9.32449e-17
9.32464e-17
9.32479e-17
9.32496e-17
9.32514e-17
9.32533e-17
9.32553e-17
9.32574e-17
9.32598e-17
9.32624e-17
9.32437e-17
9.32445e-17
9.32458e-17
9.32472e-17
9.32486e-17
9.32502e-17
9.32518e-17
9.32536e-17
9.32555e-17
9.32575e-17
9.32596e-17
9.32619e-17
9.32642e-17
9.3267e-17
9.32473e-17
9.32482e-17
9.32496e-17
9.3251e-17
9.32525e-17
9.32541e-17
9.32558e-17
9.32576e-17
9.32595e-17
9.32615e-17
9.32636e-17
9.32659e-17
9.32682e-17
9.32709e-17
9.32512e-17
9.32522e-17
9.32536e-17
9.3255e-17
9.32565e-17
9.32582e-17
9.32599e-17
9.32617e-17
9.32637e-17
9.32658e-17
9.3268e-17
9.32702e-17
9.32726e-17
9.32752e-17
9.32552e-17
9.32563e-17
9.32577e-17
9.32591e-17
9.32607e-17
9.32624e-17
9.32641e-17
9.3266e-17
9.3268e-17
9.327e-17
9.32722e-17
9.32745e-17
9.32768e-17
9.32794e-17
9.32594e-17
9.32606e-17
9.3262e-17
9.32635e-17
9.32651e-17
9.32667e-17
9.32685e-17
9.32704e-17
9.32724e-17
9.32744e-17
9.32766e-17
9.32789e-17
9.32812e-17
9.32836e-17
9.32637e-17
9.3265e-17
9.32664e-17
9.3268e-17
9.32695e-17
9.32712e-17
9.3273e-17
9.32749e-17
9.32769e-17
9.32789e-17
9.32811e-17
9.32833e-17
9.32856e-17
9.32879e-17
9.32682e-17
9.32696e-17
9.3271e-17
9.32725e-17
9.32741e-17
9.32758e-17
9.32776e-17
9.32795e-17
9.32814e-17
9.32835e-17
9.32856e-17
9.32878e-17
9.329e-17
9.32921e-17
9.32727e-17
9.32743e-17
9.32756e-17
9.32772e-17
9.32788e-17
9.32805e-17
9.32823e-17
9.32842e-17
9.32861e-17
9.32881e-17
9.32902e-17
9.32923e-17
9.32945e-17
9.32964e-17
9.32773e-17
9.32789e-17
9.32803e-17
9.32819e-17
9.32835e-17
9.32853e-17
9.3287e-17
9.32889e-17
9.32908e-17
9.32928e-17
9.32948e-17
9.32969e-17
9.3299e-17
9.33007e-17
9.32819e-17
9.32836e-17
9.3285e-17
9.32867e-17
9.32883e-17
9.32901e-17
9.32919e-17
9.32937e-17
9.32956e-17
9.32976e-17
9.32996e-17
9.33015e-17
9.33036e-17
9.3305e-17
9.32866e-17
9.32883e-17
9.32898e-17
9.32915e-17
9.32932e-17
9.32949e-17
9.32967e-17
9.32986e-17
9.33005e-17
9.33024e-17
9.33043e-17
9.33062e-17
9.33082e-17
9.33096e-17
9.32913e-17
9.32929e-17
9.32945e-17
9.32962e-17
9.3298e-17
9.32998e-17
9.33016e-17
9.33035e-17
9.33054e-17
9.33073e-17
9.33091e-17
9.3311e-17
9.33128e-17
9.33143e-17
9.32966e-17
9.3298e-17
9.32994e-17
9.33011e-17
9.33029e-17
9.33047e-17
9.33065e-17
9.33084e-17
9.33102e-17
9.3312e-17
9.33138e-17
9.33157e-17
9.33176e-17
9.33197e-17
9.29434e-17
9.29432e-17
9.2943e-17
9.29429e-17
9.29428e-17
9.29428e-17
9.29429e-17
9.29431e-17
9.29434e-17
9.29439e-17
9.29444e-17
9.29452e-17
9.29461e-17
9.29472e-17
9.29453e-17
9.29449e-17
9.29447e-17
9.29445e-17
9.29444e-17
9.29444e-17
9.29445e-17
9.29448e-17
9.29451e-17
9.29457e-17
9.29464e-17
9.29473e-17
9.29484e-17
9.29497e-17
9.2947e-17
9.29466e-17
9.29464e-17
9.29462e-17
9.29461e-17
9.29461e-17
9.29462e-17
9.29465e-17
9.29469e-17
9.29476e-17
9.29483e-17
9.29493e-17
9.29504e-17
9.29518e-17
9.29491e-17
9.29486e-17
9.29483e-17
9.29481e-17
9.2948e-17
9.2948e-17
9.29482e-17
9.29485e-17
9.2949e-17
9.29496e-17
9.29505e-17
9.29515e-17
9.29527e-17
9.29541e-17
9.29513e-17
9.29508e-17
9.29505e-17
9.29502e-17
9.29501e-17
9.29502e-17
9.29503e-17
9.29506e-17
9.29511e-17
9.29518e-17
9.29527e-17
9.29537e-17
9.29549e-17
9.29563e-17
9.29537e-17
9.29532e-17
9.29529e-17
9.29526e-17
9.29525e-17
9.29525e-17
9.29527e-17
9.2953e-17
9.29535e-17
9.29542e-17
9.29551e-17
9.29561e-17
9.29573e-17
9.29587e-17
9.29563e-17
9.29558e-17
9.29554e-17
9.29552e-17
9.2955e-17
9.29551e-17
9.29552e-17
9.29555e-17
9.2956e-17
9.29567e-17
9.29576e-17
9.29586e-17
9.29598e-17
9.29611e-17
9.29591e-17
9.29587e-17
9.29582e-17
9.2958e-17
9.29578e-17
9.29578e-17
9.2958e-17
9.29583e-17
9.29587e-17
9.29594e-17
9.29602e-17
9.29612e-17
9.29624e-17
9.29636e-17
9.2962e-17
9.29617e-17
9.29612e-17
9.29609e-17
9.29608e-17
9.29608e-17
9.29609e-17
9.29612e-17
9.29617e-17
9.29623e-17
9.29631e-17
9.2964e-17
9.29651e-17
9.29662e-17
9.2965e-17
9.29648e-17
9.29643e-17
9.2964e-17
9.29639e-17
9.29639e-17
9.2964e-17
9.29643e-17
9.29647e-17
9.29653e-17
9.29661e-17
9.29669e-17
9.2968e-17
9.29689e-17
9.29681e-17
9.2968e-17
9.29676e-17
9.29673e-17
9.29672e-17
9.29672e-17
9.29673e-17
9.29676e-17
9.2968e-17
9.29685e-17
9.29692e-17
9.297e-17
9.29709e-17
9.29716e-17
9.29714e-17
9.29713e-17
9.29709e-17
9.29707e-17
9.29706e-17
9.29706e-17
9.29707e-17
9.2971e-17
9.29714e-17
9.29719e-17
9.29725e-17
9.29731e-17
9.2974e-17
9.29745e-17
9.29748e-17
9.29746e-17
9.29744e-17
9.29742e-17
9.29741e-17
9.29742e-17
9.29743e-17
9.29746e-17
9.29749e-17
9.29754e-17
9.29759e-17
9.29764e-17
9.29771e-17
9.29775e-17
9.29786e-17
9.29781e-17
9.29778e-17
9.29777e-17
9.29777e-17
9.29778e-17
9.29779e-17
9.29782e-17
9.29785e-17
9.29789e-17
9.29793e-17
9.29798e-17
9.29804e-17
9.29809e-17
9.26742e-17
9.26734e-17
9.26725e-17
9.26718e-17
9.26712e-17
9.26706e-17
9.267e-17
9.26695e-17
9.2669e-17
9.26685e-17
9.26682e-17
9.2668e-17
9.26678e-17
9.26678e-17
9.26746e-17
9.26737e-17
9.26728e-17
9.2672e-17
9.26713e-17
9.26706e-17
9.267e-17
9.26695e-17
9.2669e-17
9.26687e-17
9.26684e-17
9.26683e-17
9.26683e-17
9.26684e-17
9.2675e-17
9.2674e-17
9.26731e-17
9.26722e-17
9.26715e-17
9.26708e-17
9.26702e-17
9.26696e-17
9.26692e-17
9.26689e-17
9.26687e-17
9.26686e-17
9.26687e-17
9.26689e-17
9.26755e-17
9.26745e-17
9.26735e-17
9.26726e-17
9.26718e-17
9.26711e-17
9.26705e-17
9.26699e-17
9.26695e-17
9.26693e-17
9.26691e-17
9.26691e-17
9.26693e-17
9.26695e-17
9.26762e-17
9.26751e-17
9.2674e-17
9.26731e-17
9.26723e-17
9.26715e-17
9.26709e-17
9.26704e-17
9.267e-17
9.26698e-17
9.26697e-17
9.26697e-17
9.26699e-17
9.26702e-17
9.2677e-17
9.26758e-17
9.26748e-17
9.26738e-17
9.26729e-17
9.26722e-17
9.26715e-17
9.2671e-17
9.26706e-17
9.26704e-17
9.26703e-17
9.26704e-17
9.26706e-17
9.26709e-17
9.26779e-17
9.26767e-17
9.26756e-17
9.26746e-17
9.26737e-17
9.2673e-17
9.26723e-17
9.26718e-17
9.26714e-17
9.26712e-17
9.26711e-17
9.26712e-17
9.26714e-17
9.26717e-17
9.2679e-17
9.26778e-17
9.26767e-17
9.26756e-17
9.26747e-17
9.26739e-17
9.26733e-17
9.26727e-17
9.26723e-17
9.26721e-17
9.2672e-17
9.26721e-17
9.26723e-17
9.26726e-17
9.26802e-17
9.2679e-17
9.26778e-17
9.26768e-17
9.26759e-17
9.26751e-17
9.26744e-17
9.26738e-17
9.26734e-17
9.26732e-17
9.26731e-17
9.26731e-17
9.26733e-17
9.26736e-17
9.26814e-17
9.26803e-17
9.26792e-17
9.26781e-17
9.26772e-17
9.26764e-17
9.26757e-17
9.26751e-17
9.26747e-17
9.26744e-17
9.26743e-17
9.26742e-17
9.26744e-17
9.26746e-17
9.26828e-17
9.26817e-17
9.26806e-17
9.26796e-17
9.26786e-17
9.26778e-17
9.26771e-17
9.26765e-17
9.26761e-17
9.26757e-17
9.26756e-17
9.26755e-17
9.26756e-17
9.26756e-17
9.26842e-17
9.26832e-17
9.26821e-17
9.26811e-17
9.26802e-17
9.26793e-17
9.26786e-17
9.2678e-17
9.26776e-17
9.26772e-17
9.26769e-17
9.26768e-17
9.26769e-17
9.26768e-17
9.26858e-17
9.26848e-17
9.26837e-17
9.26828e-17
9.26819e-17
9.2681e-17
9.26803e-17
9.26797e-17
9.26792e-17
9.26788e-17
9.26785e-17
9.26783e-17
9.26783e-17
9.26781e-17
9.26875e-17
9.26863e-17
9.26853e-17
9.26844e-17
9.26835e-17
9.26828e-17
9.26821e-17
9.26815e-17
9.26809e-17
9.26805e-17
9.26801e-17
9.26798e-17
9.26797e-17
9.26794e-17
9.24301e-17
9.24295e-17
9.24289e-17
9.24283e-17
9.24277e-17
9.24271e-17
9.24265e-17
9.24258e-17
9.24251e-17
9.24244e-17
9.24237e-17
9.2423e-17
9.24222e-17
9.24215e-17
9.24301e-17
9.24295e-17
9.24288e-17
9.24281e-17
9.24275e-17
9.24268e-17
9.24261e-17
9.24254e-17
9.24247e-17
9.2424e-17
9.24233e-17
9.24226e-17
9.2422e-17
9.24212e-17
9.24299e-17
9.24293e-17
9.24285e-17
9.24278e-17
9.24272e-17
9.24265e-17
9.24258e-17
9.24251e-17
9.24244e-17
9.24237e-17
9.2423e-17
9.24223e-17
9.24217e-17
9.24209e-17
9.24298e-17
9.24291e-17
9.24283e-17
9.24276e-17
9.24269e-17
9.24262e-17
9.24255e-17
9.24248e-17
9.24241e-17
9.24234e-17
9.24228e-17
9.24221e-17
9.24215e-17
9.24208e-17
9.24297e-17
9.24289e-17
9.24282e-17
9.24274e-17
9.24267e-17
9.24259e-17
9.24252e-17
9.24245e-17
9.24239e-17
9.24232e-17
9.24225e-17
9.24219e-17
9.24213e-17
9.24207e-17
9.24296e-17
9.24288e-17
9.2428e-17
9.24272e-17
9.24265e-17
9.24257e-17
9.2425e-17
9.24243e-17
9.24236e-17
9.2423e-17
9.24223e-17
9.24217e-17
9.24211e-17
9.24205e-17
9.24295e-17
9.24287e-17
9.24279e-17
9.24271e-17
9.24263e-17
9.24255e-17
9.24248e-17
9.24241e-17
9.24234e-17
9.24228e-17
9.24222e-17
9.24215e-17
9.2421e-17
9.24205e-17
9.24294e-17
9.24286e-17
9.24278e-17
9.2427e-17
9.24262e-17
9.24254e-17
9.24247e-17
9.24239e-17
9.24233e-17
9.24226e-17
9.2422e-17
9.24214e-17
9.24209e-17
9.24204e-17
9.24294e-17
9.24285e-17
9.24277e-17
9.24269e-17
9.24261e-17
9.24253e-17
9.24245e-17
9.24238e-17
9.24232e-17
9.24225e-17
9.24219e-17
9.24213e-17
9.24208e-17
9.24203e-17
9.24293e-17
9.24285e-17
9.24277e-17
9.24268e-17
9.2426e-17
9.24252e-17
9.24245e-17
9.24238e-17
9.24231e-17
9.24224e-17
9.24218e-17
9.24212e-17
9.24207e-17
9.24202e-17
9.24293e-17
9.24285e-17
9.24276e-17
9.24268e-17
9.2426e-17
9.24252e-17
9.24244e-17
9.24237e-17
9.2423e-17
9.24223e-17
9.24217e-17
9.24211e-17
9.24206e-17
9.24201e-17
9.24293e-17
9.24285e-17
9.24277e-17
9.24268e-17
9.2426e-17
9.24252e-17
9.24244e-17
9.24237e-17
9.2423e-17
9.24223e-17
9.24216e-17
9.2421e-17
9.24205e-17
9.242e-17
9.24295e-17
9.24287e-17
9.24278e-17
9.24269e-17
9.24261e-17
9.24253e-17
9.24245e-17
9.24237e-17
9.2423e-17
9.24223e-17
9.24216e-17
9.2421e-17
9.24205e-17
9.24198e-17
9.24294e-17
9.24286e-17
9.24278e-17
9.24269e-17
9.24261e-17
9.24253e-17
9.24245e-17
9.24237e-17
9.2423e-17
9.24223e-17
9.24216e-17
9.24209e-17
9.24204e-17
9.24198e-17
9.22086e-17
9.22086e-17
9.22086e-17
9.22085e-17
9.22083e-17
9.2208e-17
9.22077e-17
9.22072e-17
9.22067e-17
9.22061e-17
9.22053e-17
9.22044e-17
9.22035e-17
9.22023e-17
9.22088e-17
9.22089e-17
9.22088e-17
9.22087e-17
9.22085e-17
9.22081e-17
9.22077e-17
9.22073e-17
9.22067e-17
9.2206e-17
9.22052e-17
9.22043e-17
9.22034e-17
9.22021e-17
9.22089e-17
9.22089e-17
9.22088e-17
9.22087e-17
9.22085e-17
9.22082e-17
9.22078e-17
9.22073e-17
9.22067e-17
9.2206e-17
9.22051e-17
9.22042e-17
9.22032e-17
9.22019e-17
9.22089e-17
9.22089e-17
9.22088e-17
9.22087e-17
9.22085e-17
9.22081e-17
9.22077e-17
9.22072e-17
9.22066e-17
9.22059e-17
9.2205e-17
9.22041e-17
9.2203e-17
9.22018e-17
9.22087e-17
9.22087e-17
9.22086e-17
9.22085e-17
9.22083e-17
9.2208e-17
9.22076e-17
9.2207e-17
9.22064e-17
9.22057e-17