/*--------------------------------*- C++ -*----------------------------------*\
| =========                 |                                                 |
| \\      /  F ield         | OpenFOAM: The Open Source CFD Toolbox           |
|  \\    /   O peration     | Version:  v2106                                 |
|   \\  /    A nd           | Website:  www.openfoam.com                      |
|    \\/     M anipulation  |                                                 |
\*---------------------------------------------------------------------------*/
FoamFile
{
    version     2.0;
    format      ascii;
    arch        "LSB;label=32;scalar=64";
    class       volScalarField;
    location    "0.000204";
    object      k;
}
// * * * * * * * * * * * * * * * * * * * * * * * * * * * * * * * * * * * * * //

dimensions      [0 2 -2 0 0 0 0];

internalField   nonuniform List<scalar> 
17920
(
2.13801e-12
2.13789e-12
2.13796e-12
2.13784e-12
2.13791e-12
2.13779e-12
2.13786e-12
2.13773e-12
2.1378e-12
2.13766e-12
2.13773e-12
2.13759e-12
2.13767e-12
2.13752e-12
2.1376e-12
2.13745e-12
2.13753e-12
2.13738e-12
2.13745e-12
2.13731e-12
2.13737e-12
2.13722e-12
2.13729e-12
2.13714e-12
2.13721e-12
2.13705e-12
2.13714e-12
2.13698e-12
2.13894e-12
2.13883e-12
2.13872e-12
2.13861e-12
2.13849e-12
2.13837e-12
2.13825e-12
2.13812e-12
2.13799e-12
2.13785e-12
2.13772e-12
2.13757e-12
2.13744e-12
2.13729e-12
2.13884e-12
2.13873e-12
2.13863e-12
2.13851e-12
2.13839e-12
2.13827e-12
2.13815e-12
2.13802e-12
2.13788e-12
2.13774e-12
2.13761e-12
2.13747e-12
2.13733e-12
2.13719e-12
2.13872e-12
2.13862e-12
2.13851e-12
2.1384e-12
2.13829e-12
2.13817e-12
2.13804e-12
2.13791e-12
2.13778e-12
2.13764e-12
2.1375e-12
2.13736e-12
2.13722e-12
2.13708e-12
2.1386e-12
2.1385e-12
2.1384e-12
2.13829e-12
2.13817e-12
2.13805e-12
2.13793e-12
2.13779e-12
2.13766e-12
2.13752e-12
2.13738e-12
2.13724e-12
2.1371e-12
2.13696e-12
2.13848e-12
2.13838e-12
2.13828e-12
2.13817e-12
2.13806e-12
2.13793e-12
2.13781e-12
2.13767e-12
2.13754e-12
2.1374e-12
2.13726e-12
2.13711e-12
2.13697e-12
2.13682e-12
2.13835e-12
2.13826e-12
2.13815e-12
2.13805e-12
2.13793e-12
2.13781e-12
2.13768e-12
2.13754e-12
2.13741e-12
2.13727e-12
2.13713e-12
2.13698e-12
2.13684e-12
2.13669e-12
2.13822e-12
2.13813e-12
2.13803e-12
2.13792e-12
2.1378e-12
2.13767e-12
2.13754e-12
2.13741e-12
2.13727e-12
2.13713e-12
2.13699e-12
2.13684e-12
2.13669e-12
2.13654e-12
2.13809e-12
2.13799e-12
2.13789e-12
2.13777e-12
2.13766e-12
2.13753e-12
2.1374e-12
2.13727e-12
2.13713e-12
2.13698e-12
2.13684e-12
2.13669e-12
2.13654e-12
2.13639e-12
2.13796e-12
2.13786e-12
2.13775e-12
2.13763e-12
2.13751e-12
2.13739e-12
2.13725e-12
2.13712e-12
2.13698e-12
2.13683e-12
2.13668e-12
2.13653e-12
2.13638e-12
2.13624e-12
2.13781e-12
2.13771e-12
2.1376e-12
2.13748e-12
2.13736e-12
2.13723e-12
2.1371e-12
2.13696e-12
2.13682e-12
2.13667e-12
2.13652e-12
2.13637e-12
2.13622e-12
2.13608e-12
2.13768e-12
2.13756e-12
2.13745e-12
2.13733e-12
2.13721e-12
2.13708e-12
2.13694e-12
2.1368e-12
2.13665e-12
2.1365e-12
2.13635e-12
2.1362e-12
2.13604e-12
2.13591e-12
2.13753e-12
2.13741e-12
2.13729e-12
2.13717e-12
2.13704e-12
2.13691e-12
2.13677e-12
2.13663e-12
2.13648e-12
2.13634e-12
2.13618e-12
2.13603e-12
2.13587e-12
2.13574e-12
2.13738e-12
2.13726e-12
2.13714e-12
2.13701e-12
2.13688e-12
2.13674e-12
2.1366e-12
2.13646e-12
2.1363e-12
2.13615e-12
2.13599e-12
2.13584e-12
2.13569e-12
2.13555e-12
2.13722e-12
2.13709e-12
2.13697e-12
2.13683e-12
2.1367e-12
2.13657e-12
2.13642e-12
2.13628e-12
2.13614e-12
2.13599e-12
2.13583e-12
2.13568e-12
2.13553e-12
2.13539e-12
2.13755e-12
2.13746e-12
2.13737e-12
2.13728e-12
2.13719e-12
2.13709e-12
2.13698e-12
2.13686e-12
2.13674e-12
2.13661e-12
2.13648e-12
2.13634e-12
2.13621e-12
2.13607e-12
2.13738e-12
2.1373e-12
2.13722e-12
2.13712e-12
2.13703e-12
2.13693e-12
2.13682e-12
2.1367e-12
2.13658e-12
2.13645e-12
2.13632e-12
2.13618e-12
2.13605e-12
2.13591e-12
2.1372e-12
2.13713e-12
2.13704e-12
2.13696e-12
2.13686e-12
2.13676e-12
2.13665e-12
2.13654e-12
2.13642e-12
2.13629e-12
2.13616e-12
2.13603e-12
2.1359e-12
2.13576e-12
2.13702e-12
2.13695e-12
2.13687e-12
2.13678e-12
2.13669e-12
2.13658e-12
2.13648e-12
2.13636e-12
2.13624e-12
2.13612e-12
2.13599e-12
2.13585e-12
2.13573e-12
2.13559e-12
2.13684e-12
2.13677e-12
2.13669e-12
2.1366e-12
2.13651e-12
2.1364e-12
2.1363e-12
2.13618e-12
2.13606e-12
2.13594e-12
2.13581e-12
2.13568e-12
2.13556e-12
2.13542e-12
2.13665e-12
2.13658e-12
2.1365e-12
2.13641e-12
2.13632e-12
2.13621e-12
2.13611e-12
2.13599e-12
2.13587e-12
2.13575e-12
2.13563e-12
2.1355e-12
2.13537e-12
2.13524e-12
2.13646e-12
2.13639e-12
2.13631e-12
2.13622e-12
2.13612e-12
2.13602e-12
2.13591e-12
2.1358e-12
2.13568e-12
2.13556e-12
2.13543e-12
2.1353e-12
2.13518e-12
2.13505e-12
2.13626e-12
2.13619e-12
2.13611e-12
2.13602e-12
2.13592e-12
2.13582e-12
2.13571e-12
2.13559e-12
2.13548e-12
2.13535e-12
2.13523e-12
2.13511e-12
2.13498e-12
2.13485e-12
2.13607e-12
2.13599e-12
2.1359e-12
2.13581e-12
2.13571e-12
2.13561e-12
2.1355e-12
2.13539e-12
2.13527e-12
2.13515e-12
2.13502e-12
2.1349e-12
2.13477e-12
2.13465e-12
2.13587e-12
2.13578e-12
2.13569e-12
2.1356e-12
2.1355e-12
2.1354e-12
2.13529e-12
2.13517e-12
2.13505e-12
2.13493e-12
2.13481e-12
2.13469e-12
2.13456e-12
2.13445e-12
2.13567e-12
2.13557e-12
2.13548e-12
2.13539e-12
2.13529e-12
2.13518e-12
2.13507e-12
2.13495e-12
2.13483e-12
2.13471e-12
2.13459e-12
2.13447e-12
2.13434e-12
2.13424e-12
2.13546e-12
2.13536e-12
2.13526e-12
2.13516e-12
2.13506e-12
2.13496e-12
2.13484e-12
2.13473e-12
2.13461e-12
2.13449e-12
2.13437e-12
2.13425e-12
2.13412e-12
2.13403e-12
2.13526e-12
2.13515e-12
2.13505e-12
2.13495e-12
2.13485e-12
2.13474e-12
2.13462e-12
2.1345e-12
2.13438e-12
2.13426e-12
2.13414e-12
2.13402e-12
2.1339e-12
2.13381e-12
2.13503e-12
2.13492e-12
2.13482e-12
2.13472e-12
2.13461e-12
2.1345e-12
2.13439e-12
2.13428e-12
2.13416e-12
2.13404e-12
2.13392e-12
2.13381e-12
2.13369e-12
2.1336e-12
2.13505e-12
2.135e-12
2.13495e-12
2.1349e-12
2.13485e-12
2.13478e-12
2.13471e-12
2.13464e-12
2.13455e-12
2.13446e-12
2.13437e-12
2.13427e-12
2.13418e-12
2.13407e-12
2.13485e-12
2.13482e-12
2.13477e-12
2.13473e-12
2.13467e-12
2.13461e-12
2.13453e-12
2.13446e-12
2.13437e-12
2.13428e-12
2.13419e-12
2.13409e-12
2.134e-12
2.13389e-12
2.13466e-12
2.13463e-12
2.13459e-12
2.13454e-12
2.13448e-12
2.13442e-12
2.13435e-12
2.13427e-12
2.13419e-12
2.13411e-12
2.13402e-12
2.13392e-12
2.13383e-12
2.13373e-12
2.13447e-12
2.13444e-12
2.13439e-12
2.13435e-12
2.13429e-12
2.13423e-12
2.13416e-12
2.13408e-12
2.134e-12
2.13392e-12
2.13383e-12
2.13374e-12
2.13365e-12
2.13355e-12
2.13427e-12
2.13425e-12
2.1342e-12
2.13415e-12
2.13409e-12
2.13403e-12
2.13396e-12
2.13388e-12
2.13381e-12
2.13372e-12
2.13364e-12
2.13355e-12
2.13347e-12
2.13337e-12
2.13408e-12
2.13404e-12
2.134e-12
2.13394e-12
2.13389e-12
2.13382e-12
2.13375e-12
2.13368e-12
2.13361e-12
2.13352e-12
2.13344e-12
2.13336e-12
2.13328e-12
2.13318e-12
2.13388e-12
2.13384e-12
2.13379e-12
2.13374e-12
2.13368e-12
2.13361e-12
2.13355e-12
2.13347e-12
2.1334e-12
2.13332e-12
2.13324e-12
2.13316e-12
2.13308e-12
2.13299e-12
2.13368e-12
2.13363e-12
2.13358e-12
2.13353e-12
2.13347e-12
2.1334e-12
2.13334e-12
2.13326e-12
2.13319e-12
2.13311e-12
2.13303e-12
2.13296e-12
2.13288e-12
2.1328e-12
2.13347e-12
2.13342e-12
2.13337e-12
2.13331e-12
2.13325e-12
2.13319e-12
2.13312e-12
2.13305e-12
2.13298e-12
2.1329e-12
2.13282e-12
2.13275e-12
2.13267e-12
2.1326e-12
2.13326e-12
2.13321e-12
2.13315e-12
2.1331e-12
2.13304e-12
2.13297e-12
2.1329e-12
2.13283e-12
2.13276e-12
2.13269e-12
2.13261e-12
2.13254e-12
2.13246e-12
2.1324e-12
2.13305e-12
2.13299e-12
2.13294e-12
2.13288e-12
2.13282e-12
2.13276e-12
2.13269e-12
2.13262e-12
2.13254e-12
2.13247e-12
2.1324e-12
2.13233e-12
2.13225e-12
2.1322e-12
2.13284e-12
2.13277e-12
2.13272e-12
2.13266e-12
2.1326e-12
2.13254e-12
2.13247e-12
2.1324e-12
2.13233e-12
2.13226e-12
2.13218e-12
2.13212e-12
2.13204e-12
2.132e-12
2.13264e-12
2.13257e-12
2.13251e-12
2.13245e-12
2.13239e-12
2.13232e-12
2.13225e-12
2.13218e-12
2.13211e-12
2.13203e-12
2.13197e-12
2.13191e-12
2.13184e-12
2.1318e-12
2.13241e-12
2.13234e-12
2.13228e-12
2.13222e-12
2.13216e-12
2.1321e-12
2.13203e-12
2.13196e-12
2.1319e-12
2.13183e-12
2.13176e-12
2.13169e-12
2.13163e-12
2.13159e-12
2.1316e-12
2.1316e-12
2.13159e-12
2.13159e-12
2.13158e-12
2.13157e-12
2.13156e-12
2.13154e-12
2.13151e-12
2.13148e-12
2.13144e-12
2.1314e-12
2.13136e-12
2.13132e-12
2.13144e-12
2.13145e-12
2.13145e-12
2.13144e-12
2.13144e-12
2.13143e-12
2.13141e-12
2.13139e-12
2.13136e-12
2.13133e-12
2.13129e-12
2.13125e-12
2.13121e-12
2.13116e-12
2.13129e-12
2.1313e-12
2.1313e-12
2.13129e-12
2.13129e-12
2.13127e-12
2.13126e-12
2.13124e-12
2.13121e-12
2.13118e-12
2.13115e-12
2.13111e-12
2.13107e-12
2.13103e-12
2.13114e-12
2.13115e-12
2.13114e-12
2.13114e-12
2.13113e-12
2.13112e-12
2.1311e-12
2.13108e-12
2.13105e-12
2.13102e-12
2.13099e-12
2.13096e-12
2.13093e-12
2.13088e-12
2.13099e-12
2.13099e-12
2.13098e-12
2.13098e-12
2.13097e-12
2.13096e-12
2.13094e-12
2.13092e-12
2.1309e-12
2.13087e-12
2.13084e-12
2.13081e-12
2.13078e-12
2.13073e-12
2.13083e-12
2.13083e-12
2.13083e-12
2.13082e-12
2.13081e-12
2.1308e-12
2.13078e-12
2.13076e-12
2.13074e-12
2.13071e-12
2.13068e-12
2.13065e-12
2.13062e-12
2.13059e-12
2.13067e-12
2.13067e-12
2.13066e-12
2.13066e-12
2.13064e-12
2.13063e-12
2.13061e-12
2.13059e-12
2.13057e-12
2.13055e-12
2.13053e-12
2.1305e-12
2.13047e-12
2.13044e-12
2.13051e-12
2.1305e-12
2.1305e-12
2.13049e-12
2.13048e-12
2.13046e-12
2.13045e-12
2.13043e-12
2.13041e-12
2.13039e-12
2.13036e-12
2.13034e-12
2.13031e-12
2.13029e-12
2.13035e-12
2.13034e-12
2.13033e-12
2.13032e-12
2.13031e-12
2.1303e-12
2.13028e-12
2.13026e-12
2.13024e-12
2.13023e-12
2.1302e-12
2.13018e-12
2.13016e-12
2.13014e-12
2.13019e-12
2.13017e-12
2.13017e-12
2.13015e-12
2.13014e-12
2.13013e-12
2.13011e-12
2.1301e-12
2.13008e-12
2.13006e-12
2.13004e-12
2.13002e-12
2.12999e-12
2.12999e-12
2.13003e-12
2.13001e-12
2.13e-12
2.12999e-12
2.12998e-12
2.12996e-12
2.12995e-12
2.12993e-12
2.12991e-12
2.1299e-12
2.12988e-12
2.12986e-12
2.12984e-12
2.12984e-12
2.12986e-12
2.12984e-12
2.12983e-12
2.12982e-12
2.12981e-12
2.1298e-12
2.12978e-12
2.12977e-12
2.12975e-12
2.12973e-12
2.12971e-12
2.1297e-12
2.12968e-12
2.12969e-12
2.12971e-12
2.12968e-12
2.12967e-12
2.12966e-12
2.12965e-12
2.12963e-12
2.12962e-12
2.1296e-12
2.12959e-12
2.12957e-12
2.12955e-12
2.12954e-12
2.12953e-12
2.12954e-12
2.12954e-12
2.12951e-12
2.1295e-12
2.12949e-12
2.12948e-12
2.12947e-12
2.12945e-12
2.12944e-12
2.12943e-12
2.12941e-12
2.1294e-12
2.12938e-12
2.12937e-12
2.12937e-12
2.12762e-12
2.12765e-12
2.12768e-12
2.12772e-12
2.12776e-12
2.12779e-12
2.12782e-12
2.12785e-12
2.12788e-12
2.1279e-12
2.12792e-12
2.12793e-12
2.12795e-12
2.12796e-12
2.12754e-12
2.12758e-12
2.12761e-12
2.12765e-12
2.12768e-12
2.12772e-12
2.12775e-12
2.12777e-12
2.1278e-12
2.12782e-12
2.12783e-12
2.12785e-12
2.12786e-12
2.12786e-12
2.12746e-12
2.1275e-12
2.12753e-12
2.12757e-12
2.1276e-12
2.12764e-12
2.12767e-12
2.12769e-12
2.12772e-12
2.12774e-12
2.12776e-12
2.12777e-12
2.12779e-12
2.12779e-12
2.12738e-12
2.12742e-12
2.12745e-12
2.12749e-12
2.12752e-12
2.12755e-12
2.12758e-12
2.12761e-12
2.12763e-12
2.12765e-12
2.12767e-12
2.12769e-12
2.12771e-12
2.12771e-12
2.1273e-12
2.12734e-12
2.12737e-12
2.12741e-12
2.12744e-12
2.12747e-12
2.1275e-12
2.12752e-12
2.12755e-12
2.12757e-12
2.12759e-12
2.12761e-12
2.12763e-12
2.12763e-12
2.12722e-12
2.12725e-12
2.12728e-12
2.12732e-12
2.12735e-12
2.12738e-12
2.12741e-12
2.12744e-12
2.12746e-12
2.12749e-12
2.12751e-12
2.12753e-12
2.12754e-12
2.12755e-12
2.12713e-12
2.12716e-12
2.1272e-12
2.12723e-12
2.12726e-12
2.12729e-12
2.12732e-12
2.12735e-12
2.12738e-12
2.1274e-12
2.12742e-12
2.12744e-12
2.12746e-12
2.12747e-12
2.12704e-12
2.12708e-12
2.12711e-12
2.12714e-12
2.12718e-12
2.12721e-12
2.12724e-12
2.12726e-12
2.12729e-12
2.12731e-12
2.12734e-12
2.12736e-12
2.12737e-12
2.12739e-12
2.12696e-12
2.12699e-12
2.12702e-12
2.12705e-12
2.12709e-12
2.12712e-12
2.12715e-12
2.12717e-12
2.1272e-12
2.12723e-12
2.12725e-12
2.12727e-12
2.12729e-12
2.12731e-12
2.12687e-12
2.1269e-12
2.12693e-12
2.12696e-12
2.127e-12
2.12703e-12
2.12706e-12
2.12709e-12
2.12711e-12
2.12714e-12
2.12716e-12
2.12719e-12
2.12721e-12
2.12723e-12
2.12678e-12
2.12681e-12
2.12684e-12
2.12687e-12
2.12691e-12
2.12694e-12
2.12697e-12
2.127e-12
2.12702e-12
2.12705e-12
2.12708e-12
2.1271e-12
2.12712e-12
2.12715e-12
2.12669e-12
2.12671e-12
2.12675e-12
2.12678e-12
2.12682e-12
2.12685e-12
2.12688e-12
2.12691e-12
2.12694e-12
2.12696e-12
2.12699e-12
2.12702e-12
2.12704e-12
2.12707e-12
2.1266e-12
2.12663e-12
2.12666e-12
2.12669e-12
2.12673e-12
2.12676e-12
2.12679e-12
2.12682e-12
2.12685e-12
2.12687e-12
2.1269e-12
2.12693e-12
2.12696e-12
2.12699e-12
2.12652e-12
2.12654e-12
2.12657e-12
2.1266e-12
2.12664e-12
2.12667e-12
2.1267e-12
2.12673e-12
2.12676e-12
2.12679e-12
2.12681e-12
2.12684e-12
2.12687e-12
2.1269e-12
2.12352e-12
2.12357e-12
2.12363e-12
2.12368e-12
2.12374e-12
2.1238e-12
2.12385e-12
2.1239e-12
2.12396e-12
2.12401e-12
2.12406e-12
2.12411e-12
2.12416e-12
2.1242e-12
2.12351e-12
2.12356e-12
2.12362e-12
2.12368e-12
2.12373e-12
2.12379e-12
2.12385e-12
2.1239e-12
2.12396e-12
2.12401e-12
2.12406e-12
2.1241e-12
2.12415e-12
2.12419e-12
2.1235e-12
2.12356e-12
2.12362e-12
2.12367e-12
2.12373e-12
2.12379e-12
2.12384e-12
2.1239e-12
2.12395e-12
2.124e-12
2.12405e-12
2.1241e-12
2.12414e-12
2.12418e-12
2.1235e-12
2.12355e-12
2.12361e-12
2.12367e-12
2.12373e-12
2.12378e-12
2.12384e-12
2.12389e-12
2.12395e-12
2.124e-12
2.12404e-12
2.12409e-12
2.12413e-12
2.12417e-12
2.12349e-12
2.12355e-12
2.12361e-12
2.12366e-12
2.12372e-12
2.12378e-12
2.12383e-12
2.12389e-12
2.12394e-12
2.12399e-12
2.12404e-12
2.12408e-12
2.12413e-12
2.12416e-12
2.12348e-12
2.12354e-12
2.1236e-12
2.12366e-12
2.12371e-12
2.12377e-12
2.12382e-12
2.12388e-12
2.12393e-12
2.12398e-12
2.12403e-12
2.12407e-12
2.12412e-12
2.12415e-12
2.12347e-12
2.12353e-12
2.12359e-12
2.12365e-12
2.1237e-12
2.12376e-12
2.12381e-12
2.12387e-12
2.12392e-12
2.12397e-12
2.12402e-12
2.12406e-12
2.12411e-12
2.12414e-12
2.12346e-12
2.12352e-12
2.12358e-12
2.12363e-12
2.12369e-12
2.12375e-12
2.1238e-12
2.12386e-12
2.12391e-12
2.12396e-12
2.12401e-12
2.12405e-12
2.12409e-12
2.12413e-12
2.12345e-12
2.1235e-12
2.12356e-12
2.12362e-12
2.12368e-12
2.12374e-12
2.12379e-12
2.12384e-12
2.1239e-12
2.12395e-12
2.12399e-12
2.12404e-12
2.12408e-12
2.12413e-12
2.12343e-12
2.12349e-12
2.12355e-12
2.12361e-12
2.12366e-12
2.12372e-12
2.12378e-12
2.12383e-12
2.12388e-12
2.12393e-12
2.12398e-12
2.12403e-12
2.12407e-12
2.12412e-12
2.12341e-12
2.12347e-12
2.12353e-12
2.12359e-12
2.12365e-12
2.1237e-12
2.12376e-12
2.12381e-12
2.12387e-12
2.12392e-12
2.12397e-12
2.12402e-12
2.12406e-12
2.12411e-12
2.12339e-12
2.12345e-12
2.12351e-12
2.12357e-12
2.12363e-12
2.12369e-12
2.12374e-12
2.1238e-12
2.12385e-12
2.1239e-12
2.12395e-12
2.124e-12
2.12405e-12
2.12409e-12
2.12338e-12
2.12343e-12
2.12349e-12
2.12355e-12
2.12361e-12
2.12367e-12
2.12372e-12
2.12378e-12
2.12383e-12
2.12388e-12
2.12393e-12
2.12398e-12
2.12403e-12
2.12408e-12
2.12336e-12
2.12342e-12
2.12347e-12
2.12353e-12
2.12359e-12
2.12365e-12
2.1237e-12
2.12376e-12
2.12381e-12
2.12386e-12
2.12391e-12
2.12396e-12
2.12401e-12
2.12406e-12
2.11956e-12
2.1196e-12
2.11966e-12
2.11971e-12
2.11977e-12
2.11982e-12
2.11988e-12
2.11994e-12
2.11999e-12
2.12005e-12
2.1201e-12
2.12016e-12
2.12022e-12
2.12027e-12
2.11959e-12
2.11964e-12
2.1197e-12
2.11975e-12
2.11981e-12
2.11987e-12
2.11993e-12
2.11998e-12
2.12004e-12
2.1201e-12
2.12015e-12
2.12021e-12
2.12026e-12
2.12031e-12
2.11964e-12
2.11969e-12
2.11974e-12
2.1198e-12
2.11986e-12
2.11992e-12
2.11997e-12
2.12003e-12
2.12009e-12
2.12014e-12
2.1202e-12
2.12025e-12
2.1203e-12
2.12035e-12
2.11968e-12
2.11973e-12
2.11979e-12
2.11985e-12
2.11991e-12
2.11996e-12
2.12002e-12
2.12008e-12
2.12014e-12
2.12019e-12
2.12024e-12
2.12029e-12
2.12034e-12
2.12039e-12
2.11972e-12
2.11978e-12
2.11983e-12
2.11989e-12
2.11995e-12
2.12001e-12
2.12007e-12
2.12012e-12
2.12018e-12
2.12023e-12
2.12029e-12
2.12034e-12
2.12039e-12
2.12043e-12
2.11976e-12
2.11982e-12
2.11988e-12
2.11994e-12
2.12e-12
2.12005e-12
2.12011e-12
2.12017e-12
2.12022e-12
2.12028e-12
2.12033e-12
2.12038e-12
2.12043e-12
2.12047e-12
2.1198e-12
2.11986e-12
2.11992e-12
2.11998e-12
2.12004e-12
2.1201e-12
2.12015e-12
2.12021e-12
2.12027e-12
2.12032e-12
2.12037e-12
2.12042e-12
2.12047e-12
2.12051e-12
2.11984e-12
2.1199e-12
2.11996e-12
2.12002e-12
2.12008e-12
2.12014e-12
2.1202e-12
2.12025e-12
2.12031e-12
2.12036e-12
2.12041e-12
2.12046e-12
2.12051e-12
2.12055e-12
2.11988e-12
2.11994e-12
2.12e-12
2.12006e-12
2.12012e-12
2.12018e-12
2.12024e-12
2.12029e-12
2.12035e-12
2.1204e-12
2.12045e-12
2.1205e-12
2.12055e-12
2.12059e-12
2.11991e-12
2.11997e-12
2.12003e-12
2.12009e-12
2.12015e-12
2.12021e-12
2.12027e-12
2.12033e-12
2.12039e-12
2.12044e-12
2.12049e-12
2.12054e-12
2.12059e-12
2.12063e-12
2.11994e-12
2.12001e-12
2.12007e-12
2.12013e-12
2.12019e-12
2.12025e-12
2.12031e-12
2.12037e-12
2.12042e-12
2.12048e-12
2.12053e-12
2.12058e-12
2.12062e-12
2.12067e-12
2.11998e-12
2.12004e-12
2.1201e-12
2.12016e-12
2.12022e-12
2.12028e-12
2.12034e-12
2.1204e-12
2.12046e-12
2.12051e-12
2.12056e-12
2.12061e-12
2.12066e-12
2.12071e-12
2.12001e-12
2.12007e-12
2.12013e-12
2.12019e-12
2.12025e-12
2.12031e-12
2.12037e-12
2.12043e-12
2.12049e-12
2.12054e-12
2.12059e-12
2.12065e-12
2.1207e-12
2.12075e-12
2.12004e-12
2.1201e-12
2.12016e-12
2.12022e-12
2.12028e-12
2.12034e-12
2.1204e-12
2.12046e-12
2.12052e-12
2.12057e-12
2.12063e-12
2.12068e-12
2.12073e-12
2.12078e-12
2.11585e-12
2.11587e-12
2.11591e-12
2.11595e-12
2.11599e-12
2.11603e-12
2.11607e-12
2.11611e-12
2.11615e-12
2.11619e-12
2.11623e-12
2.11628e-12
2.11632e-12
2.11637e-12
2.1159e-12
2.11593e-12
2.11596e-12
2.116e-12
2.11604e-12
2.11608e-12
2.11613e-12
2.11617e-12
2.11621e-12
2.11625e-12
2.1163e-12
2.11634e-12
2.11638e-12
2.11643e-12
2.11595e-12
2.11598e-12
2.11602e-12
2.11606e-12
2.1161e-12
2.11615e-12
2.11619e-12
2.11623e-12
2.11627e-12
2.11631e-12
2.11636e-12
2.1164e-12
2.11644e-12
2.11648e-12
2.11601e-12
2.11604e-12
2.11608e-12
2.11612e-12
2.11616e-12
2.11621e-12
2.11625e-12
2.11629e-12
2.11633e-12
2.11638e-12
2.11642e-12
2.11646e-12
2.1165e-12
2.11654e-12
2.11606e-12
2.1161e-12
2.11614e-12
2.11618e-12
2.11623e-12
2.11627e-12
2.11631e-12
2.11635e-12
2.1164e-12
2.11644e-12
2.11648e-12
2.11652e-12
2.11656e-12
2.1166e-12
2.11612e-12
2.11616e-12
2.1162e-12
2.11624e-12
2.11629e-12
2.11633e-12
2.11637e-12
2.11642e-12
2.11646e-12
2.1165e-12
2.11654e-12
2.11658e-12
2.11662e-12
2.11666e-12
2.11618e-12
2.11622e-12
2.11626e-12
2.11631e-12
2.11635e-12
2.11639e-12
2.11643e-12
2.11648e-12
2.11652e-12
2.11656e-12
2.1166e-12
2.11664e-12
2.11668e-12
2.11672e-12
2.11624e-12
2.11628e-12
2.11632e-12
2.11637e-12
2.11641e-12
2.11645e-12
2.11649e-12
2.11654e-12
2.11658e-12
2.11662e-12
2.11666e-12
2.1167e-12
2.11674e-12
2.11678e-12
2.11629e-12
2.11634e-12
2.11638e-12
2.11642e-12
2.11647e-12
2.11651e-12
2.11655e-12
2.1166e-12
2.11664e-12
2.11668e-12
2.11672e-12
2.11676e-12
2.1168e-12
2.11683e-12
2.11635e-12
2.1164e-12
2.11644e-12
2.11648e-12
2.11653e-12
2.11657e-12
2.11661e-12
2.11666e-12
2.1167e-12
2.11674e-12
2.11678e-12
2.11682e-12
2.11686e-12
2.11689e-12
2.11641e-12
2.11645e-12
2.11649e-12
2.11654e-12
2.11658e-12
2.11663e-12
2.11667e-12
2.11671e-12
2.11676e-12
2.1168e-12
2.11684e-12
2.11688e-12
2.11691e-12
2.11695e-12
2.11646e-12
2.11651e-12
2.11655e-12
2.1166e-12
2.11664e-12
2.11668e-12
2.11673e-12
2.11677e-12
2.11681e-12
2.11686e-12
2.1169e-12
2.11693e-12
2.11697e-12
2.11701e-12
2.11652e-12
2.11656e-12
2.1166e-12
2.11665e-12
2.11669e-12
2.11674e-12
2.11678e-12
2.11683e-12
2.11687e-12
2.11691e-12
2.11695e-12
2.11699e-12
2.11703e-12
2.11707e-12
2.11658e-12
2.11662e-12
2.11666e-12
2.11671e-12
2.11675e-12
2.11679e-12
2.11684e-12
2.11688e-12
2.11692e-12
2.11697e-12
2.11701e-12
2.11705e-12
2.11709e-12
2.11713e-12
2.11243e-12
2.11244e-12
2.11245e-12
2.11247e-12
2.11248e-12
2.1125e-12
2.11252e-12
2.11254e-12
2.11256e-12
2.11258e-12
2.1126e-12
2.11263e-12
2.11266e-12
2.11269e-12
2.11247e-12
2.11248e-12
2.11249e-12
2.11251e-12
2.11252e-12
2.11254e-12
2.11256e-12
2.11258e-12
2.1126e-12
2.11263e-12
2.11265e-12
2.11268e-12
2.11271e-12
2.11274e-12
2.11251e-12
2.11252e-12
2.11254e-12
2.11255e-12
2.11257e-12
2.11259e-12
2.11261e-12
2.11263e-12
2.11265e-12
2.11267e-12
2.1127e-12
2.11272e-12
2.11275e-12
2.11278e-12
2.11255e-12
2.11256e-12
2.11258e-12
2.1126e-12
2.11262e-12
2.11263e-12
2.11265e-12
2.11268e-12
2.1127e-12
2.11272e-12
2.11275e-12
2.11277e-12
2.1128e-12
2.11283e-12
2.1126e-12
2.11261e-12
2.11263e-12
2.11264e-12
2.11266e-12
2.11268e-12
2.1127e-12
2.11272e-12
2.11275e-12
2.11277e-12
2.1128e-12
2.11282e-12
2.11285e-12
2.11288e-12
2.11265e-12
2.11266e-12
2.11268e-12
2.1127e-12
2.11271e-12
2.11273e-12
2.11275e-12
2.11278e-12
2.1128e-12
2.11282e-12
2.11285e-12
2.11287e-12
2.1129e-12
2.11293e-12
2.1127e-12
2.11271e-12
2.11273e-12
2.11275e-12
2.11276e-12
2.11278e-12
2.11281e-12
2.11283e-12
2.11285e-12
2.11287e-12
2.1129e-12
2.11293e-12
2.11295e-12
2.11298e-12
2.11275e-12
2.11277e-12
2.11278e-12
2.1128e-12
2.11282e-12
2.11284e-12
2.11286e-12
2.11288e-12
2.1129e-12
2.11293e-12
2.11295e-12
2.11298e-12
2.113e-12
2.11303e-12
2.1128e-12
2.11282e-12
2.11283e-12
2.11285e-12
2.11287e-12
2.11289e-12
2.11291e-12
2.11293e-12
2.11296e-12
2.11298e-12
2.113e-12
2.11303e-12
2.11305e-12
2.11308e-12
2.11285e-12
2.11287e-12
2.11289e-12
2.11291e-12
2.11293e-12
2.11295e-12
2.11297e-12
2.11299e-12
2.11301e-12
2.11303e-12
2.11306e-12
2.11308e-12
2.11311e-12
2.11313e-12
2.11291e-12
2.11293e-12
2.11294e-12
2.11296e-12
2.11298e-12
2.113e-12
2.11302e-12
2.11304e-12
2.11307e-12
2.11309e-12
2.11311e-12
2.11314e-12
2.11316e-12
2.11318e-12
2.11296e-12
2.11298e-12
2.113e-12
2.11302e-12
2.11304e-12
2.11306e-12
2.11308e-12
2.1131e-12
2.11312e-12
2.11315e-12
2.11317e-12
2.11319e-12
2.11321e-12
2.11323e-12
2.11302e-12
2.11303e-12
2.11305e-12
2.11307e-12
2.11309e-12
2.11311e-12
2.11314e-12
2.11316e-12
2.11318e-12
2.1132e-12
2.11322e-12
2.11324e-12
2.11327e-12
2.11329e-12
2.11308e-12
2.11309e-12
2.11311e-12
2.11313e-12
2.11315e-12
2.11317e-12
2.11319e-12
2.11321e-12
2.11324e-12
2.11326e-12
2.11328e-12
2.1133e-12
2.11332e-12
2.11335e-12
2.10931e-12
2.1093e-12
2.1093e-12
2.1093e-12
2.1093e-12
2.1093e-12
2.1093e-12
2.1093e-12
2.10931e-12
2.10931e-12
2.10932e-12
2.10933e-12
2.10934e-12
2.10935e-12
2.10933e-12
2.10932e-12
2.10932e-12
2.10932e-12
2.10932e-12
2.10932e-12
2.10932e-12
2.10932e-12
2.10933e-12
2.10933e-12
2.10934e-12
2.10935e-12
2.10936e-12
2.10938e-12
2.10935e-12
2.10934e-12
2.10934e-12
2.10934e-12
2.10934e-12
2.10934e-12
2.10934e-12
2.10934e-12
2.10935e-12
2.10936e-12
2.10936e-12
2.10938e-12
2.10939e-12
2.10941e-12
2.10937e-12
2.10937e-12
2.10936e-12
2.10936e-12
2.10936e-12
2.10936e-12
2.10936e-12
2.10937e-12
2.10937e-12
2.10938e-12
2.10939e-12
2.1094e-12
2.10941e-12
2.10943e-12
2.1094e-12
2.10939e-12
2.10939e-12
2.10939e-12
2.10938e-12
2.10938e-12
2.10939e-12
2.10939e-12
2.1094e-12
2.1094e-12
2.10941e-12
2.10943e-12
2.10944e-12
2.10946e-12
2.10943e-12
2.10942e-12
2.10942e-12
2.10941e-12
2.10941e-12
2.10941e-12
2.10941e-12
2.10942e-12
2.10942e-12
2.10943e-12
2.10944e-12
2.10945e-12
2.10947e-12
2.10949e-12
2.10946e-12
2.10945e-12
2.10945e-12
2.10944e-12
2.10944e-12
2.10944e-12
2.10944e-12
2.10945e-12
2.10945e-12
2.10946e-12
2.10947e-12
2.10948e-12
2.1095e-12
2.10951e-12
2.10949e-12
2.10948e-12
2.10948e-12
2.10947e-12
2.10947e-12
2.10947e-12
2.10948e-12
2.10948e-12
2.10948e-12
2.10949e-12
2.1095e-12
2.10951e-12
2.10953e-12
2.10954e-12
2.10952e-12
2.10952e-12
2.10951e-12
2.10951e-12
2.10951e-12
2.10951e-12
2.10951e-12
2.10951e-12
2.10952e-12
2.10953e-12
2.10954e-12
2.10955e-12
2.10956e-12
2.10957e-12
2.10956e-12
2.10955e-12
2.10955e-12
2.10955e-12
2.10954e-12
2.10954e-12
2.10955e-12
2.10955e-12
2.10955e-12
2.10956e-12
2.10957e-12
2.10958e-12
2.10959e-12
2.1096e-12
2.10959e-12
2.10959e-12
2.10959e-12
2.10958e-12
2.10958e-12
2.10958e-12
2.10958e-12
2.10959e-12
2.10959e-12
2.1096e-12
2.10961e-12
2.10962e-12
2.10963e-12
2.10964e-12
2.10963e-12
2.10963e-12
2.10962e-12
2.10962e-12
2.10962e-12
2.10962e-12
2.10962e-12
2.10963e-12
2.10963e-12
2.10964e-12
2.10964e-12
2.10965e-12
2.10966e-12
2.10967e-12
2.10967e-12
2.10967e-12
2.10966e-12
2.10966e-12
2.10966e-12
2.10966e-12
2.10966e-12
2.10967e-12
2.10967e-12
2.10968e-12
2.10968e-12
2.10969e-12
2.1097e-12
2.1097e-12
2.10971e-12
2.10971e-12
2.1097e-12
2.1097e-12
2.1097e-12
2.1097e-12
2.10971e-12
2.10971e-12
2.10971e-12
2.10972e-12
2.10972e-12
2.10973e-12
2.10974e-12
2.10974e-12
2.10648e-12
2.10647e-12
2.10646e-12
2.10645e-12
2.10644e-12
2.10644e-12
2.10643e-12
2.10642e-12
2.10642e-12
2.10641e-12
2.10641e-12
2.10641e-12
2.10641e-12
2.10641e-12
2.10648e-12
2.10647e-12
2.10646e-12
2.10645e-12
2.10645e-12
2.10644e-12
2.10643e-12
2.10643e-12
2.10642e-12
2.10642e-12
2.10641e-12
2.10641e-12
2.10641e-12
2.10641e-12
2.10649e-12
2.10648e-12
2.10647e-12
2.10646e-12
2.10645e-12
2.10644e-12
2.10643e-12
2.10643e-12
2.10642e-12
2.10642e-12
2.10642e-12
2.10642e-12
2.10642e-12
2.10642e-12
2.10649e-12
2.10648e-12
2.10647e-12
2.10646e-12
2.10645e-12
2.10644e-12
2.10644e-12
2.10643e-12
2.10643e-12
2.10642e-12
2.10642e-12
2.10642e-12
2.10642e-12
2.10643e-12
2.1065e-12
2.10649e-12
2.10648e-12
2.10647e-12
2.10646e-12
2.10645e-12
2.10644e-12
2.10644e-12
2.10643e-12
2.10643e-12
2.10643e-12
2.10643e-12
2.10643e-12
2.10644e-12
2.10651e-12
2.1065e-12
2.10649e-12
2.10647e-12
2.10646e-12
2.10646e-12
2.10645e-12
2.10644e-12
2.10644e-12
2.10644e-12
2.10644e-12
2.10644e-12
2.10644e-12
2.10644e-12
2.10652e-12
2.10651e-12
2.1065e-12
2.10648e-12
2.10647e-12
2.10647e-12
2.10646e-12
2.10645e-12
2.10645e-12
2.10645e-12
2.10645e-12
2.10645e-12
2.10645e-12
2.10645e-12
2.10654e-12
2.10652e-12
2.10651e-12
2.1065e-12
2.10649e-12
2.10648e-12
2.10647e-12
2.10646e-12
2.10646e-12
2.10646e-12
2.10646e-12
2.10646e-12
2.10646e-12
2.10646e-12
2.10655e-12
2.10654e-12
2.10652e-12
2.10651e-12
2.1065e-12
2.10649e-12
2.10648e-12
2.10648e-12
2.10647e-12
2.10647e-12
2.10647e-12
2.10647e-12
2.10647e-12
2.10648e-12
2.10656e-12
2.10655e-12
2.10654e-12
2.10653e-12
2.10651e-12
2.10651e-12
2.1065e-12
2.10649e-12
2.10649e-12
2.10648e-12
2.10648e-12
2.10648e-12
2.10648e-12
2.10649e-12
2.10658e-12
2.10657e-12
2.10655e-12
2.10654e-12
2.10653e-12
2.10652e-12
2.10651e-12
2.10651e-12
2.1065e-12
2.1065e-12
2.1065e-12
2.1065e-12
2.1065e-12
2.1065e-12
2.1066e-12
2.10659e-12
2.10657e-12
2.10656e-12
2.10655e-12
2.10654e-12
2.10653e-12
2.10653e-12
2.10652e-12
2.10652e-12
2.10651e-12
2.10651e-12
2.10651e-12
2.10651e-12
2.10662e-12
2.1066e-12
2.10659e-12
2.10658e-12
2.10657e-12
2.10656e-12
2.10655e-12
2.10655e-12
2.10654e-12
2.10654e-12
2.10653e-12
2.10653e-12
2.10653e-12
2.10653e-12
2.10664e-12
2.10662e-12
2.10661e-12
2.1066e-12
2.10659e-12
2.10658e-12
2.10657e-12
2.10657e-12
2.10656e-12
2.10656e-12
2.10655e-12
2.10655e-12
2.10655e-12
2.10655e-12
2.10392e-12
2.10392e-12
2.10391e-12
2.1039e-12
2.10389e-12
2.10389e-12
2.10388e-12
2.10387e-12
2.10386e-12
2.10386e-12
2.10385e-12
2.10384e-12
2.10383e-12
2.10383e-12
2.10392e-12
2.10391e-12
2.10391e-12
2.1039e-12
2.10389e-12
2.10388e-12
2.10387e-12
2.10387e-12
2.10386e-12
2.10385e-12
2.10384e-12
2.10384e-12
2.10383e-12
2.10382e-12
2.10392e-12
2.10391e-12
2.1039e-12
2.10389e-12
2.10389e-12
2.10388e-12
2.10387e-12
2.10386e-12
2.10386e-12
2.10385e-12
2.10384e-12
2.10383e-12
2.10383e-12
2.10382e-12
2.10392e-12
2.10391e-12
2.1039e-12
2.10389e-12
2.10388e-12
2.10388e-12
2.10387e-12
2.10386e-12
2.10385e-12
2.10384e-12
2.10384e-12
2.10383e-12
2.10382e-12
2.10382e-12
2.10392e-12
2.10391e-12
2.1039e-12
2.10389e-12
2.10388e-12
2.10387e-12
2.10386e-12
2.10386e-12
2.10385e-12
2.10384e-12
2.10383e-12
2.10383e-12
2.10382e-12
2.10381e-12
2.10392e-12
2.10391e-12
2.1039e-12
2.10389e-12
2.10388e-12
2.10387e-12
2.10386e-12
2.10385e-12
2.10385e-12
2.10384e-12
2.10383e-12
2.10382e-12
2.10382e-12
2.10381e-12
2.10391e-12
2.1039e-12
2.1039e-12
2.10389e-12
2.10388e-12
2.10387e-12
2.10386e-12
2.10385e-12
2.10384e-12
2.10384e-12
2.10383e-12
2.10382e-12
2.10382e-12
2.10381e-12
2.10391e-12
2.1039e-12
2.10389e-12
2.10388e-12
2.10388e-12
2.10387e-12
2.10386e-12
2.10385e-12
2.10384e-12
2.10384e-12
2.10383e-12
2.10382e-12
2.10382e-12
2.10381e-12
2.10391e-12
2.1039e-12
2.10389e-12
2.10388e-12
2.10387e-12
2.10387e-12
2.10386e-12
2.10385e-12
2.10384e-12
2.10383e-12
2.10383e-12
2.10382e-12
2.10381e-12
2.10381e-12
2.10391e-12
2.1039e-12
2.10389e-12
2.10388e-12
2.10387e-12
2.10387e-12
2.10386e-12
2.10385e-12
2.10384e-12
2.10383e-12
2.10383e-12
2.10382e-12
2.10381e-12
2.10381e-12
2.10391e-12
2.1039e-12
2.10389e-12
2.10388e-12
2.10387e-12
2.10387e-12
2.10386e-12
2.10385e-12
2.10384e-12
2.10383e-12
2.10383e-12
2.10382e-12
2.10381e-12
2.10381e-12
2.10391e-12
2.1039e-12
2.10389e-12
2.10388e-12
2.10388e-12
2.10387e-12
2.10386e-12
2.10385e-12
2.10384e-12
2.10383e-12
2.10383e-12
2.10382e-12
2.10381e-12
2.10381e-12
2.10392e-12
2.10391e-12
2.1039e-12
2.10389e-12
2.10388e-12
2.10387e-12
2.10386e-12
2.10385e-12
2.10384e-12
2.10383e-12
2.10383e-12
2.10382e-12
2.10381e-12
2.10381e-12
2.10392e-12
2.10391e-12
2.1039e-12
2.10389e-12
2.10388e-12
2.10387e-12
2.10386e-12
2.10385e-12
2.10384e-12
2.10383e-12
2.10383e-12
2.10382e-12
2.10381e-12
2.10381e-12
2.10161e-12
2.10161e-12
2.10161e-12
2.1016e-12
2.1016e-12
2.1016e-12
2.10159e-12
2.10159e-12
2.10158e-12
2.10158e-12
2.10157e-12
2.10156e-12
2.10155e-12
2.10154e-12
2.10161e-12
2.10161e-12
2.10161e-12
2.10161e-12
2.1016e-12
2.1016e-12
2.10159e-12
2.10159e-12
2.10158e-12
2.10158e-12
2.10157e-12
2.10156e-12
2.10155e-12
2.10153e-12
2.10161e-12
2.10161e-12
2.10161e-12
2.10161e-12
2.1016e-12
2.1016e-12
2.10159e-12
2.10159e-12
2.10158e-12
2.10157e-12
2.10157e-12
2.10155e-12
2.10154e-12
2.10153e-12
2.10161e-12
2.10161e-12
2.10161e-12
2.10161e-12
2.1016e-12
2.1016e-12
2.10159e-12
2.10159e-12
2.10158e-12
2.10157e-12
2.10156e-12
2.10155e-12
2.10154e-12
2.10153e-12
2.10161e-12
2.10161e-12
2.10161e-12
2.1016e-12
2.1016e-12
2.1016e-12
2.10159e-12
2.10159e-12
2.10158e-12
2.10157e-12
2.10156e-12