/*--------------------------------*- C++ -*----------------------------------*\
| =========                 |                                                 |
| \\      /  F ield         | OpenFOAM: The Open Source CFD Toolbox           |
|  \\    /   O peration     | Version:  v2106                                 |
|   \\  /    A nd           | Website:  www.openfoam.com                      |
|    \\/     M anipulation  |                                                 |
\*---------------------------------------------------------------------------*/
FoamFile
{
    version     2.0;
    format      ascii;
    arch        "LSB;label=32;scalar=64";
    class       volScalarField;
    location    "0.000204";
    object      nut;
}
// * * * * * * * * * * * * * * * * * * * * * * * * * * * * * * * * * * * * * //

dimensions      [0 2 -1 0 0 0 0];

internalField   nonuniform List<scalar> 
17920
(
3.56952e-17
3.5694e-17
3.56947e-17
3.56935e-17
3.56942e-17
3.5693e-17
3.56937e-17
3.56925e-17
3.56931e-17
3.56918e-17
3.56925e-17
3.56912e-17
3.56919e-17
3.56905e-17
3.56912e-17
3.56898e-17
3.56905e-17
3.56891e-17
3.56897e-17
3.56884e-17
3.56889e-17
3.56876e-17
3.56882e-17
3.56868e-17
3.56873e-17
3.56859e-17
3.56867e-17
3.56852e-17
3.57003e-17
3.56992e-17
3.56982e-17
3.56971e-17
3.56961e-17
3.5695e-17
3.56938e-17
3.56926e-17
3.56913e-17
3.569e-17
3.56888e-17
3.56874e-17
3.56862e-17
3.56848e-17
3.56993e-17
3.56983e-17
3.56973e-17
3.56962e-17
3.56951e-17
3.5694e-17
3.56928e-17
3.56916e-17
3.56904e-17
3.56891e-17
3.56878e-17
3.56864e-17
3.56852e-17
3.56838e-17
3.56982e-17
3.56972e-17
3.56962e-17
3.56952e-17
3.56941e-17
3.5693e-17
3.56918e-17
3.56906e-17
3.56894e-17
3.5688e-17
3.56868e-17
3.56854e-17
3.56841e-17
3.56828e-17
3.5697e-17
3.56961e-17
3.56952e-17
3.56941e-17
3.5693e-17
3.56919e-17
3.56907e-17
3.56895e-17
3.56882e-17
3.56869e-17
3.56856e-17
3.56843e-17
3.5683e-17
3.56816e-17
3.56958e-17
3.5695e-17
3.5694e-17
3.5693e-17
3.56919e-17
3.56908e-17
3.56896e-17
3.56884e-17
3.56871e-17
3.56858e-17
3.56845e-17
3.56831e-17
3.56818e-17
3.56804e-17
3.56946e-17
3.56938e-17
3.56928e-17
3.56918e-17
3.56907e-17
3.56896e-17
3.56884e-17
3.56871e-17
3.56859e-17
3.56845e-17
3.56832e-17
3.56818e-17
3.56805e-17
3.56791e-17
3.56934e-17
3.56926e-17
3.56916e-17
3.56906e-17
3.56895e-17
3.56883e-17
3.56871e-17
3.56858e-17
3.56846e-17
3.56832e-17
3.56819e-17
3.56805e-17
3.56791e-17
3.56777e-17
3.56921e-17
3.56913e-17
3.56903e-17
3.56892e-17
3.56881e-17
3.5687e-17
3.56858e-17
3.56845e-17
3.56832e-17
3.56818e-17
3.56805e-17
3.56791e-17
3.56777e-17
3.56763e-17
3.56909e-17
3.569e-17
3.56889e-17
3.56879e-17
3.56868e-17
3.56856e-17
3.56844e-17
3.56831e-17
3.56817e-17
3.56804e-17
3.5679e-17
3.56776e-17
3.56762e-17
3.56748e-17
3.56895e-17
3.56886e-17
3.56875e-17
3.56864e-17
3.56853e-17
3.56841e-17
3.56829e-17
3.56816e-17
3.56802e-17
3.56789e-17
3.56775e-17
3.56761e-17
3.56746e-17
3.56733e-17
3.56882e-17
3.56872e-17
3.56861e-17
3.5685e-17
3.56838e-17
3.56826e-17
3.56814e-17
3.568e-17
3.56787e-17
3.56773e-17
3.56758e-17
3.56744e-17
3.56729e-17
3.56717e-17
3.56868e-17
3.56857e-17
3.56846e-17
3.56834e-17
3.56823e-17
3.5681e-17
3.56798e-17
3.56784e-17
3.56771e-17
3.56757e-17
3.56742e-17
3.56728e-17
3.56713e-17
3.56701e-17
3.56854e-17
3.56842e-17
3.56831e-17
3.5682e-17
3.56807e-17
3.56795e-17
3.56781e-17
3.56768e-17
3.56754e-17
3.56739e-17
3.56725e-17
3.5671e-17
3.56696e-17
3.56683e-17
3.56839e-17
3.56826e-17
3.56815e-17
3.56803e-17
3.56791e-17
3.56778e-17
3.56765e-17
3.56751e-17
3.56738e-17
3.56724e-17
3.56709e-17
3.56695e-17
3.5668e-17
3.56668e-17
3.56836e-17
3.56828e-17
3.5682e-17
3.56811e-17
3.56803e-17
3.56793e-17
3.56783e-17
3.56772e-17
3.56761e-17
3.56749e-17
3.56737e-17
3.56724e-17
3.56712e-17
3.56698e-17
3.5682e-17
3.56813e-17
3.56805e-17
3.56797e-17
3.56788e-17
3.56778e-17
3.56768e-17
3.56757e-17
3.56746e-17
3.56734e-17
3.56722e-17
3.56709e-17
3.56697e-17
3.56684e-17
3.56803e-17
3.56797e-17
3.56789e-17
3.56781e-17
3.56772e-17
3.56763e-17
3.56753e-17
3.56742e-17
3.56731e-17
3.56719e-17
3.56707e-17
3.56694e-17
3.56682e-17
3.56669e-17
3.56787e-17
3.5678e-17
3.56773e-17
3.56765e-17
3.56756e-17
3.56746e-17
3.56736e-17
3.56726e-17
3.56714e-17
3.56703e-17
3.56691e-17
3.56678e-17
3.56666e-17
3.56654e-17
3.5677e-17
3.56763e-17
3.56756e-17
3.56748e-17
3.56739e-17
3.56729e-17
3.56719e-17
3.56709e-17
3.56697e-17
3.56686e-17
3.56674e-17
3.56662e-17
3.5665e-17
3.56637e-17
3.56752e-17
3.56746e-17
3.56738e-17
3.5673e-17
3.56721e-17
3.56711e-17
3.56701e-17
3.56691e-17
3.5668e-17
3.56668e-17
3.56656e-17
3.56644e-17
3.56633e-17
3.5662e-17
3.56734e-17
3.56728e-17
3.5672e-17
3.56712e-17
3.56703e-17
3.56693e-17
3.56683e-17
3.56672e-17
3.56661e-17
3.5665e-17
3.56638e-17
3.56626e-17
3.56615e-17
3.56602e-17
3.56715e-17
3.56709e-17
3.56701e-17
3.56693e-17
3.56684e-17
3.56674e-17
3.56664e-17
3.56653e-17
3.56642e-17
3.56631e-17
3.56619e-17
3.56608e-17
3.56596e-17
3.56584e-17
3.56697e-17
3.5669e-17
3.56682e-17
3.56673e-17
3.56664e-17
3.56655e-17
3.56644e-17
3.56634e-17
3.56622e-17
3.56611e-17
3.566e-17
3.56588e-17
3.56576e-17
3.56565e-17
3.56678e-17
3.5667e-17
3.56662e-17
3.56653e-17
3.56644e-17
3.56634e-17
3.56624e-17
3.56613e-17
3.56602e-17
3.56591e-17
3.56579e-17
3.56568e-17
3.56556e-17
3.56546e-17
3.56659e-17
3.56651e-17
3.56642e-17
3.56633e-17
3.56624e-17
3.56614e-17
3.56604e-17
3.56593e-17
3.56582e-17
3.5657e-17
3.56559e-17
3.56548e-17
3.56536e-17
3.56526e-17
3.56639e-17
3.5663e-17
3.56621e-17
3.56612e-17
3.56603e-17
3.56593e-17
3.56582e-17
3.56572e-17
3.56561e-17
3.5655e-17
3.56538e-17
3.56527e-17
3.56515e-17
3.56506e-17
3.56621e-17
3.5661e-17
3.56602e-17
3.56592e-17
3.56582e-17
3.56572e-17
3.56561e-17
3.5655e-17
3.56539e-17
3.56528e-17
3.56516e-17
3.56505e-17
3.56494e-17
3.56485e-17
3.56599e-17
3.56589e-17
3.5658e-17
3.5657e-17
3.5656e-17
3.5655e-17
3.5654e-17
3.56529e-17
3.56518e-17
3.56507e-17
3.56496e-17
3.56485e-17
3.56474e-17
3.56466e-17
3.56568e-17
3.56563e-17
3.56559e-17
3.56554e-17
3.56549e-17
3.56544e-17
3.56537e-17
3.5653e-17
3.56522e-17
3.56514e-17
3.56505e-17
3.56496e-17
3.56487e-17
3.56477e-17
3.56549e-17
3.56547e-17
3.56542e-17
3.56538e-17
3.56533e-17
3.56527e-17
3.5652e-17
3.56513e-17
3.56505e-17
3.56497e-17
3.56488e-17
3.56479e-17
3.56471e-17
3.5646e-17
3.56531e-17
3.56529e-17
3.56525e-17
3.56521e-17
3.56515e-17
3.56509e-17
3.56503e-17
3.56496e-17
3.56488e-17
3.5648e-17
3.56472e-17
3.56463e-17
3.56455e-17
3.56445e-17
3.56513e-17
3.56511e-17
3.56507e-17
3.56502e-17
3.56497e-17
3.56491e-17
3.56485e-17
3.56478e-17
3.56471e-17
3.56463e-17
3.56455e-17
3.56446e-17
3.56438e-17
3.56429e-17
3.56495e-17
3.56493e-17
3.56489e-17
3.56484e-17
3.56479e-17
3.56473e-17
3.56466e-17
3.56459e-17
3.56452e-17
3.56445e-17
3.56437e-17
3.56428e-17
3.56421e-17
3.56412e-17
3.56477e-17
3.56474e-17
3.5647e-17
3.56465e-17
3.56459e-17
3.56454e-17
3.56447e-17
3.56441e-17
3.56433e-17
3.56426e-17
3.56418e-17
3.5641e-17
3.56403e-17
3.56394e-17
3.56458e-17
3.56455e-17
3.5645e-17
3.56445e-17
3.5644e-17
3.56434e-17
3.56428e-17
3.56421e-17
3.56414e-17
3.56407e-17
3.56399e-17
3.56392e-17
3.56384e-17
3.56376e-17
3.56439e-17
3.56435e-17
3.56431e-17
3.56426e-17
3.5642e-17
3.56414e-17
3.56408e-17
3.56401e-17
3.56395e-17
3.56387e-17
3.5638e-17
3.56373e-17
3.56365e-17
3.56358e-17
3.5642e-17
3.56416e-17
3.56411e-17
3.56406e-17
3.564e-17
3.56394e-17
3.56388e-17
3.56381e-17
3.56374e-17
3.56368e-17
3.5636e-17
3.56353e-17
3.56346e-17
3.5634e-17
3.564e-17
3.56395e-17
3.5639e-17
3.56385e-17
3.5638e-17
3.56374e-17
3.56368e-17
3.56361e-17
3.56354e-17
3.56347e-17
3.5634e-17
3.56334e-17
3.56326e-17
3.56321e-17
3.56381e-17
3.56375e-17
3.5637e-17
3.56365e-17
3.56359e-17
3.56353e-17
3.56347e-17
3.56341e-17
3.56334e-17
3.56327e-17
3.5632e-17
3.56314e-17
3.56307e-17
3.56302e-17
3.56361e-17
3.56354e-17
3.5635e-17
3.56344e-17
3.56339e-17
3.56333e-17
3.56327e-17
3.5632e-17
3.56313e-17
3.56307e-17
3.563e-17
3.56294e-17
3.56287e-17
3.56283e-17
3.56342e-17
3.56335e-17
3.5633e-17
3.56324e-17
3.56319e-17
3.56312e-17
3.56306e-17
3.56299e-17
3.56293e-17
3.56286e-17
3.5628e-17
3.56274e-17
3.56268e-17
3.56264e-17
3.56321e-17
3.56314e-17
3.56309e-17
3.56303e-17
3.56298e-17
3.56292e-17
3.56286e-17
3.56279e-17
3.56273e-17
3.56266e-17
3.5626e-17
3.56254e-17
3.56248e-17
3.56245e-17
3.56212e-17
3.56212e-17
3.56212e-17
3.56212e-17
3.56211e-17
3.5621e-17
3.56209e-17
3.56207e-17
3.56205e-17
3.56202e-17
3.56199e-17
3.56195e-17
3.56191e-17
3.56187e-17
3.56198e-17
3.56199e-17
3.56199e-17
3.56198e-17
3.56198e-17
3.56197e-17
3.56195e-17
3.56193e-17
3.56191e-17
3.56188e-17
3.56184e-17
3.56181e-17
3.56177e-17
3.56173e-17
3.56184e-17
3.56185e-17
3.56184e-17
3.56184e-17
3.56183e-17
3.56183e-17
3.56181e-17
3.56179e-17
3.56177e-17
3.56174e-17
3.56171e-17
3.56167e-17
3.56164e-17
3.5616e-17
3.5617e-17
3.5617e-17
3.5617e-17
3.5617e-17
3.56169e-17
3.56168e-17
3.56166e-17
3.56164e-17
3.56162e-17
3.5616e-17
3.56157e-17
3.56153e-17
3.5615e-17
3.56146e-17
3.56155e-17
3.56156e-17
3.56155e-17
3.56155e-17
3.56154e-17
3.56153e-17
3.56151e-17
3.5615e-17
3.56147e-17
3.56145e-17
3.56142e-17
3.56139e-17
3.56137e-17
3.56132e-17
3.56141e-17
3.56141e-17
3.5614e-17
3.5614e-17
3.56139e-17
3.56138e-17
3.56136e-17
3.56135e-17
3.56132e-17
3.5613e-17
3.56128e-17
3.56125e-17
3.56122e-17
3.56119e-17
3.56126e-17
3.56126e-17
3.56125e-17
3.56125e-17
3.56124e-17
3.56122e-17
3.56121e-17
3.56119e-17
3.56117e-17
3.56115e-17
3.56113e-17
3.5611e-17
3.56108e-17
3.56105e-17
3.56111e-17
3.5611e-17
3.5611e-17
3.56109e-17
3.56108e-17
3.56107e-17
3.56105e-17
3.56104e-17
3.56102e-17
3.561e-17
3.56098e-17
3.56096e-17
3.56093e-17
3.56091e-17
3.56096e-17
3.56095e-17
3.56094e-17
3.56093e-17
3.56092e-17
3.56091e-17
3.5609e-17
3.56088e-17
3.56087e-17
3.56085e-17
3.56083e-17
3.56081e-17
3.56078e-17
3.56077e-17
3.56081e-17
3.56079e-17
3.56079e-17
3.56078e-17
3.56077e-17
3.56076e-17
3.56074e-17
3.56073e-17
3.56071e-17
3.56069e-17
3.56067e-17
3.56066e-17
3.56063e-17
3.56063e-17
3.56066e-17
3.56064e-17
3.56063e-17
3.56062e-17
3.56061e-17
3.5606e-17
3.56059e-17
3.56057e-17
3.56056e-17
3.56054e-17
3.56052e-17
3.56051e-17
3.56049e-17
3.56049e-17
3.5605e-17
3.56048e-17
3.56047e-17
3.56047e-17
3.56046e-17
3.56044e-17
3.56043e-17
3.56042e-17
3.5604e-17
3.56039e-17
3.56037e-17
3.56036e-17
3.56034e-17
3.56035e-17
3.56036e-17
3.56033e-17
3.56032e-17
3.56031e-17
3.5603e-17
3.56029e-17
3.56028e-17
3.56026e-17
3.56025e-17
3.56023e-17
3.56022e-17
3.56021e-17
3.56019e-17
3.56021e-17
3.5602e-17
3.56017e-17
3.56016e-17
3.56016e-17
3.56015e-17
3.56014e-17
3.56012e-17
3.56011e-17
3.5601e-17
3.56009e-17
3.56007e-17
3.56006e-17
3.56005e-17
3.56005e-17
3.55809e-17
3.55812e-17
3.55815e-17
3.55819e-17
3.55822e-17
3.55826e-17
3.55829e-17
3.55831e-17
3.55834e-17
3.55836e-17
3.55838e-17
3.55839e-17
3.55841e-17
3.55841e-17
3.55801e-17
3.55805e-17
3.55808e-17
3.55812e-17
3.55815e-17
3.55819e-17
3.55821e-17
3.55824e-17
3.55826e-17
3.55828e-17
3.5583e-17
3.55831e-17
3.55833e-17
3.55833e-17
3.55794e-17
3.55798e-17
3.55801e-17
3.55805e-17
3.55808e-17
3.55811e-17
3.55814e-17
3.55816e-17
3.55819e-17
3.55821e-17
3.55823e-17
3.55824e-17
3.55826e-17
3.55826e-17
3.55787e-17
3.55791e-17
3.55794e-17
3.55797e-17
3.558e-17
3.55803e-17
3.55806e-17
3.55809e-17
3.55811e-17
3.55813e-17
3.55815e-17
3.55817e-17
3.55818e-17
3.55818e-17
3.55779e-17
3.55783e-17
3.55786e-17
3.5579e-17
3.55793e-17
3.55796e-17
3.55798e-17
3.55801e-17
3.55803e-17
3.55805e-17
3.55807e-17
3.55809e-17
3.55811e-17
3.55811e-17
3.55771e-17
3.55775e-17
3.55778e-17
3.55782e-17
3.55785e-17
3.55788e-17
3.5579e-17
3.55793e-17
3.55795e-17
3.55798e-17
3.558e-17
3.55801e-17
3.55803e-17
3.55804e-17
3.55764e-17
3.55767e-17
3.5577e-17
3.55773e-17
3.55776e-17
3.55779e-17
3.55782e-17
3.55785e-17
3.55787e-17
3.5579e-17
3.55792e-17
3.55794e-17
3.55795e-17
3.55797e-17
3.55755e-17
3.55759e-17
3.55762e-17
3.55765e-17
3.55768e-17
3.55771e-17
3.55774e-17
3.55777e-17
3.55779e-17
3.55782e-17
3.55784e-17
3.55786e-17
3.55787e-17
3.55789e-17
3.55747e-17
3.5575e-17
3.55754e-17
3.55757e-17
3.5576e-17
3.55763e-17
3.55766e-17
3.55768e-17
3.55771e-17
3.55773e-17
3.55776e-17
3.55778e-17
3.5578e-17
3.55782e-17
3.55739e-17
3.55742e-17
3.55745e-17
3.55749e-17
3.55752e-17
3.55755e-17
3.55757e-17
3.5576e-17
3.55763e-17
3.55765e-17
3.55768e-17
3.5577e-17
3.55772e-17
3.55774e-17
3.55731e-17
3.55734e-17
3.55737e-17
3.5574e-17
3.55743e-17
3.55746e-17
3.55749e-17
3.55752e-17
3.55755e-17
3.55757e-17
3.5576e-17
3.55762e-17
3.55764e-17
3.55767e-17
3.55723e-17
3.55725e-17
3.55729e-17
3.55732e-17
3.55735e-17
3.55738e-17
3.55741e-17
3.55744e-17
3.55746e-17
3.55749e-17
3.55752e-17
3.55754e-17
3.55756e-17
3.55759e-17
3.55715e-17
3.55717e-17
3.5572e-17
3.55723e-17
3.55726e-17
3.55729e-17
3.55732e-17
3.55735e-17
3.55738e-17
3.55741e-17
3.55743e-17
3.55746e-17
3.55749e-17
3.55752e-17
3.55707e-17
3.55709e-17
3.55712e-17
3.55715e-17
3.55718e-17
3.55721e-17
3.55724e-17
3.55727e-17
3.5573e-17
3.55732e-17
3.55735e-17
3.55738e-17
3.5574e-17
3.55743e-17
3.55396e-17
3.55401e-17
3.55406e-17
3.55412e-17
3.55417e-17
3.55422e-17
3.55428e-17
3.55433e-17
3.55438e-17
3.55443e-17
3.55448e-17
3.55452e-17
3.55457e-17
3.55461e-17
3.55395e-17
3.554e-17
3.55406e-17
3.55411e-17
3.55417e-17
3.55422e-17
3.55427e-17
3.55433e-17
3.55438e-17
3.55442e-17
3.55447e-17
3.55452e-17
3.55456e-17
3.5546e-17
3.55395e-17
3.554e-17
3.55406e-17
3.55411e-17
3.55416e-17
3.55422e-17
3.55427e-17
3.55432e-17
3.55437e-17
3.55442e-17
3.55447e-17
3.55451e-17
3.55455e-17
3.55459e-17
3.55394e-17
3.554e-17
3.55405e-17
3.55411e-17
3.55416e-17
3.55422e-17
3.55427e-17
3.55432e-17
3.55437e-17
3.55442e-17
3.55446e-17
3.5545e-17
3.55455e-17
3.55458e-17
3.55394e-17
3.55399e-17
3.55405e-17
3.5541e-17
3.55416e-17
3.55421e-17
3.55426e-17
3.55431e-17
3.55436e-17
3.55441e-17
3.55445e-17
3.5545e-17
3.55454e-17
3.55457e-17
3.55393e-17
3.55399e-17
3.55404e-17
3.5541e-17
3.55415e-17
3.5542e-17
3.55426e-17
3.55431e-17
3.55436e-17
3.5544e-17
3.55445e-17
3.55449e-17
3.55453e-17
3.55457e-17
3.55392e-17
3.55398e-17
3.55403e-17
3.55409e-17
3.55414e-17
3.5542e-17
3.55425e-17
3.5543e-17
3.55435e-17
3.55439e-17
3.55444e-17
3.55448e-17
3.55452e-17
3.55456e-17
3.55391e-17
3.55397e-17
3.55402e-17
3.55408e-17
3.55413e-17
3.55419e-17
3.55424e-17
3.55429e-17
3.55434e-17
3.55439e-17
3.55443e-17
3.55447e-17
3.55451e-17
3.55455e-17
3.5539e-17
3.55395e-17
3.55401e-17
3.55407e-17
3.55412e-17
3.55417e-17
3.55423e-17
3.55428e-17
3.55433e-17
3.55437e-17
3.55442e-17
3.55446e-17
3.5545e-17
3.55454e-17
3.55389e-17
3.55394e-17
3.554e-17
3.55405e-17
3.55411e-17
3.55416e-17
3.55421e-17
3.55427e-17
3.55432e-17
3.55436e-17
3.55441e-17
3.55445e-17
3.55449e-17
3.55453e-17
3.55387e-17
3.55392e-17
3.55398e-17
3.55404e-17
3.55409e-17
3.55415e-17
3.5542e-17
3.55425e-17
3.5543e-17
3.55435e-17
3.5544e-17
3.55444e-17
3.55448e-17
3.55453e-17
3.55385e-17
3.55391e-17
3.55396e-17
3.55402e-17
3.55407e-17
3.55413e-17
3.55418e-17
3.55424e-17
3.55429e-17
3.55434e-17
3.55438e-17
3.55443e-17
3.55447e-17
3.55451e-17
3.55384e-17
3.55389e-17
3.55395e-17
3.554e-17
3.55406e-17
3.55411e-17
3.55417e-17
3.55422e-17
3.55427e-17
3.55432e-17
3.55437e-17
3.55441e-17
3.55446e-17
3.55451e-17
3.55382e-17
3.55388e-17
3.55393e-17
3.55399e-17
3.55404e-17
3.5541e-17
3.55415e-17
3.5542e-17
3.55425e-17
3.5543e-17
3.55435e-17
3.55439e-17
3.55444e-17
3.55449e-17
3.54998e-17
3.55002e-17
3.55008e-17
3.55013e-17
3.55018e-17
3.55023e-17
3.55029e-17
3.55034e-17
3.55039e-17
3.55044e-17
3.5505e-17
3.55055e-17
3.5506e-17
3.55065e-17
3.55002e-17
3.55006e-17
3.55011e-17
3.55017e-17
3.55022e-17
3.55028e-17
3.55033e-17
3.55039e-17
3.55044e-17
3.55049e-17
3.55054e-17
3.55059e-17
3.55064e-17
3.55069e-17
3.55006e-17
3.5501e-17
3.55016e-17
3.55021e-17
3.55027e-17
3.55032e-17
3.55038e-17
3.55043e-17
3.55048e-17
3.55053e-17
3.55058e-17
3.55063e-17
3.55068e-17
3.55073e-17
3.5501e-17
3.55015e-17
3.5502e-17
3.55026e-17
3.55031e-17
3.55037e-17
3.55042e-17
3.55048e-17
3.55053e-17
3.55058e-17
3.55063e-17
3.55068e-17
3.55072e-17
3.55077e-17
3.55014e-17
3.55019e-17
3.55025e-17
3.5503e-17
3.55036e-17
3.55041e-17
3.55047e-17
3.55052e-17
3.55057e-17
3.55062e-17
3.55067e-17
3.55072e-17
3.55076e-17
3.55081e-17
3.55018e-17
3.55023e-17
3.55029e-17
3.55034e-17
3.5504e-17
3.55045e-17
3.55051e-17
3.55056e-17
3.55061e-17
3.55067e-17
3.55071e-17
3.55076e-17
3.55081e-17
3.55085e-17
3.55021e-17
3.55027e-17
3.55033e-17
3.55038e-17
3.55044e-17
3.55049e-17
3.55055e-17
3.5506e-17
3.55066e-17
3.55071e-17
3.55075e-17
3.5508e-17
3.55084e-17
3.55089e-17
3.55025e-17
3.55031e-17
3.55036e-17
3.55042e-17
3.55048e-17
3.55053e-17
3.55059e-17
3.55064e-17
3.5507e-17
3.55075e-17
3.55079e-17
3.55084e-17
3.55088e-17
3.55092e-17
3.55029e-17
3.55034e-17
3.5504e-17
3.55046e-17
3.55051e-17
3.55057e-17
3.55063e-17
3.55068e-17
3.55073e-17
3.55078e-17
3.55083e-17
3.55088e-17
3.55092e-17
3.55096e-17
3.55032e-17
3.55038e-17
3.55043e-17
3.55049e-17
3.55055e-17
3.55061e-17
3.55066e-17
3.55072e-17
3.55077e-17
3.55082e-17
3.55087e-17
3.55091e-17
3.55096e-17
3.551e-17
3.55035e-17
3.55041e-17
3.55047e-17
3.55052e-17
3.55058e-17
3.55064e-17
3.5507e-17
3.55075e-17
3.5508e-17
3.55085e-17
3.5509e-17
3.55095e-17
3.55099e-17
3.55103e-17
3.55038e-17
3.55044e-17
3.5505e-17
3.55056e-17
3.55061e-17
3.55067e-17
3.55073e-17
3.55078e-17
3.55084e-17
3.55089e-17
3.55093e-17
3.55098e-17
3.55103e-17
3.55107e-17
3.55041e-17
3.55047e-17
3.55053e-17
3.55059e-17
3.55064e-17
3.5507e-17
3.55076e-17
3.55081e-17
3.55087e-17
3.55092e-17
3.55097e-17
3.55101e-17
3.55106e-17
3.55111e-17
3.55044e-17
3.5505e-17
3.55056e-17
3.55062e-17
3.55067e-17
3.55073e-17
3.55078e-17
3.55084e-17
3.55089e-17
3.55094e-17
3.55099e-17
3.55104e-17
3.55109e-17
3.55114e-17
3.54625e-17
3.54628e-17
3.54631e-17
3.54635e-17
3.54639e-17
3.54642e-17
3.54646e-17
3.5465e-17
3.54654e-17
3.54658e-17
3.54662e-17
3.54666e-17
3.5467e-17
3.54675e-17
3.5463e-17
3.54633e-17
3.54637e-17
3.5464e-17
3.54644e-17
3.54648e-17
3.54652e-17
3.54656e-17
3.5466e-17
3.54664e-17
3.54668e-17
3.54672e-17
3.54676e-17
3.5468e-17
3.54635e-17
3.54638e-17
3.54642e-17
3.54646e-17
3.5465e-17
3.54654e-17
3.54658e-17
3.54662e-17
3.54666e-17
3.54669e-17
3.54673e-17
3.54677e-17
3.54681e-17
3.54685e-17
3.54641e-17
3.54644e-17
3.54648e-17
3.54652e-17
3.54656e-17
3.5466e-17
3.54663e-17
3.54668e-17
3.54672e-17
3.54675e-17
3.54679e-17
3.54683e-17
3.54687e-17
3.54691e-17
3.54646e-17
3.5465e-17
3.54653e-17
3.54657e-17
3.54661e-17
3.54665e-17
3.54669e-17
3.54673e-17
3.54677e-17
3.54681e-17
3.54685e-17
3.54689e-17
3.54693e-17
3.54697e-17
3.54652e-17
3.54655e-17
3.54659e-17
3.54663e-17
3.54667e-17
3.54671e-17
3.54675e-17
3.54679e-17
3.54683e-17
3.54687e-17
3.54691e-17
3.54695e-17
3.54699e-17
3.54702e-17
3.54657e-17
3.54661e-17
3.54665e-17
3.54669e-17
3.54673e-17
3.54677e-17
3.54681e-17
3.54685e-17
3.54689e-17
3.54693e-17
3.54697e-17
3.54701e-17
3.54704e-17
3.54708e-17
3.54662e-17
3.54667e-17
3.54671e-17
3.54675e-17
3.54679e-17
3.54683e-17
3.54687e-17
3.54691e-17
3.54695e-17
3.54699e-17
3.54703e-17
3.54706e-17
3.5471e-17
3.54713e-17
3.54668e-17
3.54672e-17
3.54676e-17
3.5468e-17
3.54684e-17
3.54688e-17
3.54692e-17
3.54697e-17
3.547e-17
3.54704e-17
3.54708e-17
3.54712e-17
3.54715e-17
3.54719e-17
3.54673e-17
3.54677e-17
3.54681e-17
3.54686e-17
3.5469e-17
3.54694e-17
3.54698e-17
3.54702e-17
3.54706e-17
3.5471e-17
3.54714e-17
3.54717e-17
3.54721e-17
3.54724e-17
3.54678e-17
3.54683e-17
3.54687e-17
3.54691e-17
3.54695e-17
3.54699e-17
3.54703e-17
3.54708e-17
3.54712e-17
3.54715e-17
3.54719e-17
3.54723e-17
3.54726e-17
3.54729e-17
3.54684e-17
3.54688e-17
3.54692e-17
3.54696e-17
3.547e-17
3.54705e-17
3.54709e-17
3.54713e-17
3.54717e-17
3.54721e-17
3.54725e-17
3.54728e-17
3.54732e-17
3.54735e-17
3.54689e-17
3.54693e-17
3.54697e-17
3.54701e-17
3.54706e-17
3.5471e-17
3.54714e-17
3.54718e-17
3.54722e-17
3.54726e-17
3.5473e-17
3.54733e-17
3.54737e-17
3.5474e-17
3.54694e-17
3.54698e-17
3.54702e-17
3.54707e-17
3.54711e-17
3.54715e-17
3.54719e-17
3.54723e-17
3.54727e-17
3.54731e-17
3.54735e-17
3.54739e-17
3.54742e-17
3.54746e-17
3.54282e-17
3.54283e-17
3.54284e-17
3.54285e-17
3.54287e-17
3.54288e-17
3.5429e-17
3.54292e-17
3.54294e-17
3.54296e-17
3.54298e-17
3.54301e-17
3.54303e-17
3.54306e-17
3.54285e-17
3.54286e-17
3.54288e-17
3.54289e-17
3.54291e-17
3.54293e-17
3.54294e-17
3.54296e-17
3.54298e-17
3.54301e-17
3.54303e-17
3.54305e-17
3.54308e-17
3.54311e-17
3.54289e-17
3.5429e-17
3.54292e-17
3.54293e-17
3.54295e-17
3.54297e-17
3.54299e-17
3.54301e-17
3.54303e-17
3.54305e-17
3.54307e-17
3.5431e-17
3.54312e-17
3.54315e-17
3.54294e-17
3.54295e-17
3.54296e-17
3.54298e-17
3.543e-17
3.54301e-17
3.54303e-17
3.54305e-17
3.54307e-17
3.5431e-17
3.54312e-17
3.54314e-17
3.54317e-17
3.5432e-17
3.54298e-17
3.54299e-17
3.54301e-17
3.54302e-17
3.54304e-17
3.54306e-17
3.54308e-17
3.5431e-17
3.54312e-17
3.54314e-17
3.54317e-17
3.54319e-17
3.54322e-17
3.54324e-17
3.54303e-17
3.54304e-17
3.54306e-17
3.54307e-17
3.54309e-17
3.54311e-17
3.54313e-17
3.54315e-17
3.54317e-17
3.54319e-17
3.54321e-17
3.54324e-17
3.54326e-17
3.54329e-17
3.54307e-17
3.54309e-17
3.5431e-17
3.54312e-17
3.54314e-17
3.54316e-17
3.54318e-17
3.5432e-17
3.54322e-17
3.54324e-17
3.54326e-17
3.54329e-17
3.54331e-17
3.54334e-17
3.54312e-17
3.54314e-17
3.54315e-17
3.54317e-17
3.54319e-17
3.54321e-17
3.54323e-17
3.54325e-17
3.54327e-17
3.54329e-17
3.54331e-17
3.54334e-17
3.54336e-17
3.54338e-17
3.54317e-17
3.54319e-17
3.5432e-17
3.54322e-17
3.54324e-17
3.54326e-17
3.54328e-17
3.5433e-17
3.54332e-17
3.54334e-17
3.54336e-17
3.54339e-17
3.54341e-17
3.54343e-17
3.54322e-17
3.54324e-17
3.54325e-17
3.54327e-17
3.54329e-17
3.54331e-17
3.54333e-17
3.54335e-17
3.54337e-17
3.54339e-17
3.54341e-17
3.54343e-17
3.54346e-17
3.54348e-17
3.54327e-17
3.54329e-17
3.5433e-17
3.54332e-17
3.54334e-17
3.54336e-17
3.54338e-17
3.5434e-17
3.54342e-17
3.54344e-17
3.54346e-17
3.54348e-17
3.54351e-17
3.54352e-17
3.54332e-17
3.54334e-17
3.54336e-17
3.54337e-17
3.54339e-17
3.54341e-17
3.54343e-17
3.54345e-17
3.54347e-17
3.54349e-17
3.54352e-17
3.54354e-17
3.54356e-17
3.54357e-17
3.54337e-17
3.54339e-17
3.54341e-17
3.54343e-17
3.54345e-17
3.54347e-17
3.54349e-17
3.54351e-17
3.54353e-17
3.54355e-17
3.54357e-17
3.54359e-17
3.54361e-17
3.54362e-17
3.54343e-17
3.54344e-17
3.54346e-17
3.54348e-17
3.5435e-17
3.54352e-17
3.54354e-17
3.54356e-17
3.54358e-17
3.5436e-17
3.54362e-17
3.54364e-17
3.54366e-17
3.54368e-17
3.53968e-17
3.53967e-17
3.53967e-17
3.53967e-17
3.53967e-17
3.53967e-17
3.53967e-17
3.53967e-17
3.53968e-17
3.53968e-17
3.53969e-17
3.5397e-17
3.53971e-17
3.53972e-17
3.5397e-17
3.53969e-17
3.53969e-17
3.53969e-17
3.53969e-17
3.53969e-17
3.53969e-17
3.53969e-17
3.5397e-17
3.5397e-17
3.53971e-17
3.53972e-17
3.53973e-17
3.53975e-17
3.53971e-17
3.53971e-17
3.53971e-17
3.53971e-17
3.53971e-17
3.53971e-17
3.53971e-17
3.53971e-17
3.53972e-17
3.53972e-17
3.53973e-17
3.53974e-17
3.53975e-17
3.53977e-17
3.53974e-17
3.53973e-17
3.53973e-17
3.53973e-17
3.53973e-17
3.53973e-17
3.53973e-17
3.53973e-17
3.53974e-17
3.53975e-17
3.53975e-17
3.53977e-17
3.53978e-17
3.53979e-17
3.53976e-17
3.53976e-17
3.53975e-17
3.53975e-17
3.53975e-17
3.53975e-17
3.53975e-17
3.53976e-17
3.53976e-17
3.53977e-17
3.53978e-17
3.53979e-17
3.5398e-17
3.53982e-17
3.53979e-17
3.53978e-17
3.53978e-17
3.53978e-17
3.53978e-17
3.53978e-17
3.53978e-17
3.53978e-17
3.53979e-17
3.5398e-17
3.5398e-17
3.53982e-17
3.53983e-17
3.53984e-17
3.53982e-17
3.53981e-17
3.53981e-17
3.53981e-17
3.5398e-17
3.5398e-17
3.53981e-17
3.53981e-17
3.53982e-17
3.53982e-17
3.53983e-17
3.53984e-17
3.53986e-17
3.53987e-17
3.53985e-17
3.53984e-17
3.53984e-17
3.53984e-17
3.53983e-17
3.53984e-17
3.53984e-17
3.53984e-17
3.53985e-17
3.53985e-17
3.53986e-17
3.53987e-17
3.53988e-17
3.5399e-17
3.53988e-17
3.53988e-17
3.53987e-17
3.53987e-17
3.53987e-17
3.53987e-17
3.53987e-17
3.53987e-17
3.53988e-17
3.53988e-17
3.53989e-17
3.5399e-17
3.53991e-17
3.53993e-17
3.53991e-17
3.53991e-17
3.5399e-17
3.5399e-17
3.5399e-17
3.5399e-17
3.5399e-17
3.53991e-17
3.53991e-17
3.53992e-17
3.53992e-17
3.53993e-17
3.53995e-17
3.53995e-17
3.53995e-17
3.53994e-17
3.53994e-17
3.53994e-17
3.53994e-17
3.53994e-17
3.53994e-17
3.53994e-17
3.53995e-17
3.53995e-17
3.53996e-17
3.53997e-17
3.53998e-17
3.53998e-17
3.53998e-17
3.53998e-17
3.53998e-17
3.53997e-17
3.53997e-17
3.53997e-17
3.53998e-17
3.53998e-17
3.53998e-17
3.53999e-17
3.53999e-17
3.54e-17
3.54001e-17
3.54002e-17
3.54002e-17
3.54002e-17
3.54001e-17
3.54001e-17
3.54001e-17
3.54001e-17
3.54001e-17
3.54002e-17
3.54002e-17
3.54003e-17
3.54003e-17
3.54004e-17
3.54004e-17
3.54005e-17
3.54006e-17
3.54005e-17
3.54005e-17
3.54005e-17
3.54005e-17
3.54005e-17
3.54005e-17
3.54006e-17
3.54006e-17
3.54006e-17
3.54007e-17
3.54007e-17
3.54008e-17
3.54009e-17
3.53683e-17
3.53682e-17
3.53681e-17
3.5368e-17
3.53679e-17
3.53679e-17
3.53678e-17
3.53677e-17
3.53677e-17
3.53676e-17
3.53676e-17
3.53676e-17
3.53676e-17
3.53676e-17
3.53683e-17
3.53682e-17
3.53681e-17
3.5368e-17
3.53679e-17
3.53679e-17
3.53678e-17
3.53678e-17
3.53677e-17
3.53677e-17
3.53676e-17
3.53676e-17
3.53676e-17
3.53676e-17
3.53683e-17
3.53682e-17
3.53681e-17
3.5368e-17
3.5368e-17
3.53679e-17
3.53678e-17
3.53678e-17
3.53677e-17
3.53677e-17
3.53677e-17
3.53677e-17
3.53677e-17
3.53677e-17
3.53684e-17
3.53683e-17
3.53682e-17
3.53681e-17
3.5368e-17
3.53679e-17
3.53679e-17
3.53678e-17
3.53678e-17
3.53677e-17
3.53677e-17
3.53677e-17
3.53677e-17
3.53678e-17
3.53685e-17
3.53684e-17
3.53683e-17
3.53682e-17
3.53681e-17
3.5368e-17
3.53679e-17
3.53679e-17
3.53678e-17
3.53678e-17
3.53678e-17
3.53678e-17
3.53678e-17
3.53678e-17
3.53686e-17
3.53684e-17
3.53683e-17
3.53682e-17
3.53681e-17
3.53681e-17
3.5368e-17
3.53679e-17
3.53679e-17
3.53679e-17
3.53679e-17
3.53679e-17
3.53679e-17
3.53679e-17
3.53687e-17
3.53685e-17
3.53684e-17
3.53683e-17
3.53682e-17
3.53681e-17
3.53681e-17
3.5368e-17
3.5368e-17
3.5368e-17
3.53679e-17
3.53679e-17
3.5368e-17
3.5368e-17
3.53688e-17
3.53687e-17
3.53685e-17
3.53684e-17
3.53683e-17
3.53682e-17
3.53682e-17
3.53681e-17
3.53681e-17
3.53681e-17
3.5368e-17
3.5368e-17
3.53681e-17
3.53681e-17
3.53689e-17
3.53688e-17
3.53687e-17
3.53686e-17
3.53685e-17
3.53684e-17
3.53683e-17
3.53682e-17
3.53682e-17
3.53682e-17
3.53682e-17
3.53682e-17
3.53682e-17
3.53682e-17
3.53691e-17
3.53689e-17
3.53688e-17
3.53687e-17
3.53686e-17
3.53685e-17
3.53684e-17
3.53684e-17
3.53683e-17
3.53683e-17
3.53683e-17
3.53683e-17
3.53683e-17
3.53683e-17
3.53692e-17
3.53691e-17
3.5369e-17
3.53689e-17
3.53688e-17
3.53687e-17
3.53686e-17
3.53685e-17
3.53685e-17
3.53684e-17
3.53684e-17
3.53684e-17
3.53684e-17
3.53684e-17
3.53694e-17
3.53692e-17
3.53691e-17
3.5369e-17
3.53689e-17
3.53688e-17
3.53688e-17
3.53687e-17
3.53686e-17
3.53686e-17
3.53686e-17
3.53686e-17
3.53686e-17
3.53686e-17
3.53695e-17
3.53694e-17
3.53693e-17
3.53692e-17
3.53691e-17
3.5369e-17
3.53689e-17
3.53689e-17
3.53688e-17
3.53688e-17
3.53687e-17
3.53687e-17
3.53687e-17
3.53687e-17
3.53697e-17
3.53696e-17
3.53695e-17
3.53694e-17
3.53693e-17
3.53692e-17
3.53691e-17
3.53691e-17
3.5369e-17
3.5369e-17
3.53689e-17
3.53689e-17
3.53689e-17
3.53689e-17
3.53424e-17
3.53424e-17
3.53423e-17
3.53422e-17
3.53422e-17
3.53421e-17
3.5342e-17
3.53419e-17
3.53419e-17
3.53418e-17
3.53417e-17
3.53416e-17
3.53416e-17
3.53415e-17
3.53424e-17
3.53423e-17
3.53423e-17
3.53422e-17
3.53421e-17
3.53421e-17
3.5342e-17
3.53419e-17
3.53418e-17
3.53418e-17
3.53417e-17
3.53416e-17
3.53415e-17
3.53415e-17
3.53424e-17
3.53423e-17
3.53422e-17
3.53422e-17
3.53421e-17
3.5342e-17
3.53419e-17
3.53419e-17
3.53418e-17
3.53417e-17
3.53416e-17
3.53416e-17
3.53415e-17
3.53414e-17
3.53424e-17
3.53423e-17
3.53422e-17
3.53421e-17
3.53421e-17
3.5342e-17
3.53419e-17
3.53418e-17
3.53418e-17
3.53417e-17
3.53416e-17
3.53415e-17
3.53415e-17
3.53414e-17
3.53424e-17
3.53423e-17
3.53422e-17
3.53421e-17
3.5342e-17
3.5342e-17
3.53419e-17
3.53418e-17
3.53417e-17
3.53417e-17
3.53416e-17
3.53415e-17
3.53415e-17
3.53414e-17
3.53424e-17
3.53423e-17
3.53422e-17
3.53421e-17
3.5342e-17
3.53419e-17
3.53419e-17
3.53418e-17
3.53417e-17
3.53416e-17
3.53416e-17
3.53415e-17
3.53414e-17
3.53414e-17
3.53424e-17
3.53423e-17
3.53422e-17
3.53421e-17
3.5342e-17
3.53419e-17
3.53418e-17
3.53418e-17
3.53417e-17
3.53416e-17
3.53416e-17
3.53415e-17
3.53414e-17
3.53414e-17
3.53423e-17
3.53423e-17
3.53422e-17
3.53421e-17
3.5342e-17
3.53419e-17
3.53418e-17
3.53418e-17
3.53417e-17
3.53416e-17
3.53415e-17
3.53415e-17
3.53414e-17
3.53414e-17
3.53423e-17
3.53422e-17
3.53422e-17
3.53421e-17
3.5342e-17
3.53419e-17
3.53418e-17
3.53417e-17
3.53417e-17
3.53416e-17
3.53415e-17
3.53415e-17
3.53414e-17
3.53414e-17
3.53423e-17
3.53422e-17
3.53422e-17
3.53421e-17
3.5342e-17
3.53419e-17
3.53418e-17
3.53417e-17
3.53417e-17
3.53416e-17
3.53415e-17
3.53415e-17
3.53414e-17
3.53413e-17
3.53423e-17
3.53422e-17
3.53422e-17
3.53421e-17
3.5342e-17
3.53419e-17
3.53418e-17
3.53417e-17
3.53417e-17
3.53416e-17
3.53415e-17
3.53414e-17
3.53414e-17
3.53413e-17
3.53423e-17
3.53423e-17
3.53422e-17
3.53421e-17
3.5342e-17
3.53419e-17
3.53418e-17
3.53417e-17
3.53417e-17
3.53416e-17
3.53415e-17
3.53414e-17
3.53414e-17
3.53413e-17
3.53424e-17
3.53423e-17
3.53422e-17
3.53421e-17
3.5342e-17
3.53419e-17
3.53418e-17
3.53417e-17
3.53417e-17
3.53416e-17
3.53415e-17
3.53414e-17
3.53414e-17
3.53413e-17
3.53424e-17
3.53423e-17
3.53422e-17
3.53421e-17
3.5342e-17
3.53419e-17
3.53418e-17
3.53417e-17
3.53417e-17
3.53416e-17
3.53415e-17
3.53414e-17
3.53414e-17
3.53413e-17
3.5319e-17
3.5319e-17
3.5319e-17
3.5319e-17
3.53189e-17
3.53189e-17
3.53189e-17
3.53188e-17
3.53188e-17
3.53187e-17
3.53186e-17
3.53185e-17
3.53184e-17
3.53183e-17
3.5319e-17
3.5319e-17
3.5319e-17
3.5319e-17
3.53189e-17
3.53189e-17
3.53189e-17
3.53188e-17
3.53188e-17
3.53187e-17
3.53186e-17
3.53185e-17
3.53184e-17
3.53183e-17
3.5319e-17
3.5319e-17
3.5319e-17
3.5319e-17
3.5319e-17
3.53189e-17
3.53189e-17
3.53188e-17
3.53188e-17
3.53187e-17
3.53186e-17
3.53185e-17
3.53184e-17
3.53182e-17
3.5319e-17
3.5319e-17
3.5319e-17
3.5319e-17
3.53189e-17
3.53189e-17
3.53189e-17
3.53188e-17
3.53187e-17
3.53187e-17
3.53186e-17
3.53185e-17
3.53184e-17
3.53182e-17
3.5319e-17
3.5319e-17
3.5319e-17
3.5319e-17
3.53189e-17
3.53189e-17
3.53188e-17
3.53188e-17
3.53187e-17
3.53186e-17
3.53186e-17