/*--------------------------------*- C++ -*----------------------------------*\
| =========                 |                                                 |
| \\      /  F ield         | OpenFOAM: The Open Source CFD Toolbox           |
|  \\    /   O peration     | Version:  v2106                                 |
|   \\  /    A nd           | Website:  www.openfoam.com                      |
|    \\/     M anipulation  |                                                 |
\*---------------------------------------------------------------------------*/
FoamFile
{
    version     2.0;
    format      ascii;
    arch        "LSB;label=32;scalar=64";
    class       volScalarField;
    location    "0.000204";
    object      p;
}
// * * * * * * * * * * * * * * * * * * * * * * * * * * * * * * * * * * * * * //

dimensions      [1 -1 -2 0 0 0 0];

internalField   nonuniform List<scalar> 
17920
(
236470
236442
236457
236429
236446
236417
236434
236404
236420
236390
236406
236375
236391
236359
236375
236343
236358
236325
236341
236308
236322
236289
236304
236271
236285
236250
236270
236234
236579
236554
236529
236503
236477
236450
236422
236393
236364
236333
236303
236270
236242
236208
236554
236531
236507
236483
236456
236429
236400
236371
236341
236309
236279
236246
236217
236183
236527
236507
236483
236458
236432
236405
236377
236347
236317
236286
236255
236222
236192
236159
236501
236482
236458
236434
236407
236380
236351
236322
236291
236260
236228
236196
236165
236132
236474
236455
236431
236407
236381
236354
236325
236295
236264
236232
236201
236168
236137
236103
236446
236427
236403
236379
236353
236325
236296
236266
236235
236203
236171
236138
236106
236072
236418
236398
236374
236349
236323
236295
236266
236236
236205
236172
236140
236107
236074
236040
236388
236366
236343
236318
236291
236263
236234
236204
236172
236140
236107
236073
236040
236006
236359
236336
236311
236286
236259
236231
236201
236170
236138
236105
236071
236038
236004
235971
236327
236302
236278
236251
236224
236195
236166
236135
236102
236069
236035
236002
235966
235935
236297
236270
236245
236217
236189
236160
236130
236098
236065
236031
235996
235963
235927
235897
236264
236234
236209
236180
236152
236122
236092
236060
236027
235993
235958
235925
235888
235859
236232
236201
236174
236145
236116
236085
236053
236020
235986
235952
235917
235883
235847
235818
236196
236163
236136
236106
236076
236045
236013
235981
235948
235914
235880
235846
235810
235781
236163
236145
236126
236106
236085
236062
236038
236012
235985
235956
235927
235896
235868
235834
236123
236110
236091
236072
236050
236028
236003
235977
235950
235921
235892
235861
235832
235800
236086
236073
236054
236034
236013
235990
235967
235941
235914
235886
235857
235827
235798
235767
236046
236034
236015
235996
235975
235952
235928
235903
235876
235848
235819
235789
235761
235730
236007
235994
235975
235956
235935
235912
235888
235863
235836
235808
235780
235751
235723
235693
235966
235952
235933
235914
235893
235870
235846
235821
235794
235766
235739
235709
235682
235652
235924
235910
235891
235871
235850
235827
235803
235777
235751
235723
235696
235667
235639
235610
235881
235865
235846
235826
235805
235782
235758
235732
235706
235678
235651
235623
235594
235567
235838
235820
235801
235781
235759
235736
235711
235686
235659
235632
235604
235577
235548
235522
235793
235773
235754
235733
235711
235688
235663
235638
235611
235584
235556
235529
235501
235476
235750
235727
235708
235686
235664
235640
235615
235589
235562
235535
235507
235481
235452
235430
235703
235678
235658
235636
235614
235590
235565
235539
235513
235486
235458
235432
235403
235383
235659
235633
235612
235589
235565
235541
235515
235489
235462
235435
235407
235381
235353
235334
235608
235583
235560
235538
235514
235489
235464
235438
235412
235386
235359
235333
235306
235286
235508
235500
235489
235478
235466
235452
235437
235419
235401
235382
235361
235339
235318
235293
235463
235460
235450
235440
235428
235414
235398
235381
235362
235343
235322
235300
235279
235255
235423
235420
235410
235400
235387
235373
235357
235340
235323
235304
235284
235263
235243
235220
235381
235378
235368
235357
235345
235331
235315
235299
235281
235262
235243
235222
235203
235181
235340
235335
235325
235314
235301
235287
235272
235256
235238
235220
235202
235182
235163
235142
235297
235291
235280
235269
235256
235242
235227
235211
235195
235177
235158
235139
235121
235101
235254
235246
235235
235224
235211
235197
235182
235166
235149
235132
235114
235096
235078
235059
235209
235200
235189
235177
235164
235150
235135
235120
235103
235086
235069
235051
235033
235016
235165
235154
235142
235130
235117
235103
235088
235072
235056
235039
235022
235005
234988
234973
235119
235106
235095
235083
235070
235055
235040
235025
235008
234992
234975
234959
234941
234928
235073
235059
235048
235035
235022
235007
234992
234976
234960
234944
234928
234912
234895
234885
235027
235010
234999
234986
234973
234959
234944
234928
234912
234896
234880
234866
234848
234839
234983
234965
234953
234940
234925
234911
234895
234880
234864
234848
234832
234818
234802
234795
234933
234917
234903
234890
234876
234862
234847
234832
234816
234801
234786
234772
234757
234749
234652
234655
234654
234653
234651
234649
234645
234641
234635
234628
234620
234611
234602
234592
234619
234622
234622
234621
234620
234617
234614
234609
234603
234596
234588
234579
234570
234560
234588
234591
234589
234589
234587
234584
234581
234576
234570
234564
234556
234548
234540
234530
234555
234557
234556
234555
234553
234551
234547
234543
234537
234531
234524
234515
234508
234498
234522
234523
234522
234521
234519
234516
234513
234508
234503
234497
234490
234483
234476
234467
234488
234488
234487
234486
234484
234481
234477
234473
234468
234462
234456
234450
234443
234435
234453
234453
234452
234450
234448
234445
234442
234438
234433
234428
234422
234416
234410
234403
234419
234417
234416
234414
234412
234409
234406
234402
234397
234392
234387
234381
234375
234370
234384
234381
234380
234378
234376
234373
234369
234365
234361
234357
234352
234347
234341
234337
234348
234345
234344
234341
234339
234336
234333
234329
234325
234321
234316
234311
234306
234304
234313
234309
234307
234305
234302
234299
234296
234293
234289
234285
234280
234276
234271
234272
234278
234272
234271
234268
234266
234263
234260
234256
234253
234249
234244
234240
234235
234238
234243
234236
234235
234232
234230
234227
234223
234220
234217
234213
234209
234205
234201
234205
234206
234201
234198
234196
234194
234191
234187
234184
234181
234177
234174
234170
234167
234169
233690
233699
233706
233715
233722
233729
233736
233742
233747
233752
233756
233759
233762
233764
233673
233683
233690
233699
233706
233713
233720
233726
233731
233735
233739
233743
233745
233746
233657
233667
233674
233682
233689
233696
233703
233709
233714
233718
233722
233726
233729
233729
233640
233650
233657
233665
233672
233679
233685
233691
233696
233701
233705
233708
233712
233712
233623
233632
233639
233647
233654
233661
233667
233673
233678
233683
233688
233691
233694
233696
233605
233614
233621
233629
233636
233643
233649
233655
233660
233665
233669
233673
233677
233679
233587
233595
233602
233610
233617
233624
233630
233636
233642
233647
233651
233655
233659
233662
233568
233576
233584
233591
233598
233605
233611
233617
233623
233628
233633
233637
233641
233644
233550
233557
233565
233572
233579
233585
233592
233598
233604
233609
233614
233619
233623
233627
233530
233537
233545
233552
233559
233566
233573
233579
233585
233590
233595
233600
233605
233610
233511
233518
233526
233533
233540
233546
233553
233559
233565
233571
233577
233582
233586
233592
233492
233498
233506
233513
233520
233527
233533
233540
233546
233552
233558
233563
233568
233574
233472
233478
233486
233493
233500
233507
233514
233521
233527
233533
233539
233544
233549
233557
233454
233460
233467
233474
233481
233488
233494
233501
233507
233513
233519
233525
233530
233537
232711
232724
232736
232748
232760
232772
232784
232796
232807
232818
232829
232840
232849
232859
232710
232722
232734
232747
232759
232772
232784
232796
232807
232818
232829
232839
232849
232858
232710
232722
232734
232747
232759
232771
232784
232795
232807
232817
232828
232838
232847
232856
232709
232721
232734
232746
232759
232771
232783
232795
232806
232816
232827
232837
232846
232854
232708
232720
232733
232745
232758
232770
232782
232793
232805
232815
232825
232835
232844
232852
232706
232719
232731
232744
232756
232768
232780
232792
232803
232814
232824
232833
232842
232851
232704
232716
232729
232742
232754
232767
232779
232790
232801
232812
232822
232832
232841
232849
232701
232714
232727
232739
232752
232764
232776
232788
232799
232810
232820
232829
232839
232847
232698
232711
232724
232737
232749
232762
232774
232785
232797
232807
232818
232827
232836
232845
232695
232708
232721
232733
232746
232758
232771
232782
232794
232804
232815
232825
232834
232843
232691
232704
232717
232730
232742
232755
232767
232779
232790
232801
232812
232822
232831
232840
232687
232700
232713
232726
232738
232751
232763
232775
232787
232798
232808
232818
232828
232838
232683
232696
232708
232721
232734
232747
232759
232771
232783
232794
232805
232815
232825
232835
232680
232693
232706
232719
232730
232743
232755
232766
232778
232789
232800
232810
232821
232832
231771
231781
231793
231805
231817
231829
231841
231853
231865
231877
231889
231901
231912
231924
231779
231790
231802
231814
231827
231839
231852
231864
231876
231888
231900
231911
231922
231934
231789
231800
231813
231825
231837
231850
231862
231874
231886
231898
231909
231921
231931
231942
231798
231810
231822
231835
231847
231860
231872
231885
231897
231909
231920
231931
231941
231952
231808
231819
231832
231845
231858
231870
231883
231895
231907
231918
231929
231940
231950
231960
231817
231829
231842
231854
231867
231880
231892
231905
231917
231928
231939
231950
231960
231969
231825
231838
231851
231864
231877
231889
231902
231914
231926
231937
231948
231959
231969
231978
231834
231847
231860
231873
231886
231898
231911
231923
231935
231947
231958
231968
231978
231987
231841
231855
231868
231881
231894
231907
231920
231932
231944
231955
231966
231976
231986
231995
231849
231863
231876
231889
231902
231915
231928
231940
231952
231963
231974
231985
231995
232003
231856
231870
231883
231896
231909
231923
231935
231948
231960
231971
231982
231992
232003
232011
231863
231877
231890
231903
231916
231930
231942
231955
231967
231978
231990
232000
232011
232020
231870
231883
231896
231910
231923
231936
231949
231962
231974
231986
231997
232008
232018
232028
231877
231891
231903
231917
231930
231943
231955
231968
231980
231991
232003
232014
232025
232035
230892
230898
230906
230914
230923
230931
230939
230948
230957
230966
230975
230984
230993
231004
230903
230910
230918
230926
230935
230944
230953
230962
230971
230980
230989
230998
231007
231017
230915
230922
230931
230939
230948
230957
230966
230975
230984
230993
231002
231011
231019
231029
230928
230935
230944
230952
230961
230970
230979
230988
230997
231006
231015
231024
231033
231042
230940
230948
230957
230965
230974
230984
230993
231002
231011
231020
231029
231037
231046
231055
230952
230961
230970
230979
230988
230997
231006
231015
231024
231033
231042
231051
231059
231067
230965
230973
230983
230992
231001
231010
231019
231028
231038
231046
231055
231063
231072
231080
230977
230986
230995
231005
231014
231023
231032
231042
231051
231059
231068
231076
231085
231092
230989
230999
231008
231017
231027
231036
231045
231054
231064
231072
231081
231089
231097
231104
231002
231011
231020
231030
231039
231049
231058
231067
231076
231085
231094
231102
231110
231116
231014
231023
231032
231042
231051
231061
231070
231080
231089
231097
231106
231114
231122
231128
231026
231036
231045
231054
231064
231073
231082
231092
231101
231110
231118
231126
231135
231141
231037
231047
231056
231066
231075
231085
231094
231104
231113
231122
231130
231138
231146
231153
231050
231060
231068
231078
231087
231097
231106
231115
231124
231133
231142
231150
231159
231167
230082
230084
230087
230091
230094
230098
230101
230105
230110
230115
230120
230125
230131
230137
230091
230093
230096
230100
230103
230107
230111
230115
230120
230125
230130
230136
230142
230149
230100
230102
230106
230109
230113
230117
230121
230125
230130
230135
230140
230146
230151
230158
230110
230112
230115
230119
230123
230127
230131
230135
230140
230145
230151
230156
230162
230169
230119
230122
230126
230129
230133
230137
230141
230146
230151
230156
230161
230167
230173
230179
230130
230133
230136
230140
230144
230148
230152
230157
230162
230167
230172
230178
230183
230190
230140
230144
230147
230151
230155
230159
230163
230168
230173
230178
230183
230189
230194
230200
230151
230155
230158
230162
230166
230170
230175
230179
230184
230189
230194
230200
230205
230210
230163
230166
230170
230174
230178
230182
230186
230191
230196
230201
230206
230211
230216
230221
230174
230178
230181
230185
230189
230193
230198
230202
230207
230212
230217
230222
230227
230232
230185
230189
230193
230197
230201
230205
230210
230214
230219
230224
230229
230234
230239
230242
230197
230201
230205
230209
230213
230217
230222
230226
230231
230236
230240
230245
230250
230254
230209
230212
230216
230221
230225
230229
230234
230239
230243
230248
230252
230257
230261
230265
230222
230225
230229
230233
230237
230242
230246
230251
230255
230260
230264
230269
230273
230278
229342
229341
229341
229340
229340
229340
229340
229341
229342
229343
229344
229346
229348
229351
229346
229345
229345
229344
229344
229344
229344
229345
229346
229347
229349
229351
229354
229357
229351
229350
229349
229349
229348
229348
229349
229349
229350
229352
229354
229356
229359
229362
229356
229355
229354
229353
229353
229353
229353
229354
229355
229357
229359
229362
229365
229368
229361
229360
229359
229359
229358
229358
229359
229359
229361
229362
229364
229367
229370
229374
229367
229366
229365
229364
229364
229364
229364
229365
229366
229368
229370
229373
229376
229379
229374
229372
229371
229371
229370
229370
229371
229371
229373
229374
229377
229379
229382
229385
229380
229379
229378
229378
229377
229377
229377
229378
229379
229381
229383
229386
229389
229392
229388
229387
229386
229385
229384
229384
229385
229385
229387
229388
229390
229392
229395
229398
229395
229395
229393
229393
229392
229392
229392
229393
229394
229396
229397
229400
229402
229404
229403
229402
229401
229401
229400
229400
229401
229401
229402
229404
229405
229407
229410
229411
229411
229411
229410
229409
229409
229409
229409
229410
229411
229412
229413
229415
229417
229418
229419
229419
229418
229418
229418
229418
229418
229419
229419
229421
229422
229423
229425
229426
229429
229427
229427
229426
229426
229426
229427
229428
229428
229429
229430
229431
229433
229434
228670
228668
228665
228664
228662
228660
228659
228658
228657
228656
228655
228654
228654
228654
228671
228668
228666
228664
228662
228661
228659
228658
228657
228656
228655
228655
228655
228655
228671
228669
228667
228665
228663
228661
228659
228658
228657
228656
228656
228656
228656
228656
228673
228670
228668
228666
228663
228662
228660
228659
228658
228657
228657
228657
228657
228658
228674
228672
228669
228667
228665
228663
228661
228660
228659
228658
228658
228658
228659
228659
228676
228673
228671
228668
228666
228664
228663
228661
228661
228660
228660
228660
228660
228661
228679
228676
228673
228670
228668
228666
228665
228663
228662
228662
228662
228662
228662
228663
228681
228678
228675
228673
228671
228669
228667
228666
228665
228664
228664
228664
228665
228665
228684
228681
228678
228676
228673
228671
228670
228668
228667
228667
228667
228667
228667
228668
228687
228685
228682
228679
228677
228675
228673
228672
228670
228670
228669
228669
228670
228670
228691
228688
228685
228683
228680
228678
228676
228675
228674
228673
228673
228672
228673
228673
228694
228692
228689
228686
228684
228682
228680
228679
228678
228677
228676
228676
228676
228676
228698
228696
228693
228691
228688
228686
228684
228683
228682
228681
228680
228679
228679
228679
228702
228699
228697
228695
228692
228691
228689
228687
228686
228685
228684
228683
228683
228682
228059
228058
228056
228055
228054
228052
228051
228049
228047
228045
228044
228042
228040
228038
228059
228058
228056
228055
228053
228051
228050
228048
228046
228044
228043
228041
228039
228037
228059
228058
228056
228054
228052
228051
228049
228047
228045
228044
228042
228040
228039
228037
228059
228057
228055
228053
228052
228050
228048
228046
228045
228043
228041
228040
228038
228036
228059
228057
228055
228053
228051
228049
228047
228046
228044
228042
228041
228039
228038
228036
228058
228056
228054
228052
228050
228049
228047
228045
228043
228042
228040
228039
228037
228036
228058
228056
228054
228052
228050
228048
228046
228045
228043
228041
228040
228038
228037
228036
228058
228056
228054
228052
228050
228048
228046
228044
228043
228041
228039
228038
228037
228035
228058
228056
228054
228052
228050
228048
228046
228044
228042
228041
228039
228038
228036
228035
228058
228056
228053
228051
228049
228047
228046
228044
228042
228040
228039
228037
228036
228035
228057
228056
228053
228051
228049
228047
228045
228044
228042
228040
228039
228037
228036
228035
228058
228056
228053
228051
228049
228047
228045
228044
228042
228040
228038
228037
228036
228034
228058
228056
228054
228052
228050
228048
228045
228044
228042
228040
228038
228037
228036
228034
228058
228056
228054
228052
228050
228048
228046
228044
228042
228040
228038
228037
228035
228034
227505
227506
227506
227505
227505
227504
227503
227502
227501
227499
227497
227495
227493
227490
227506
227506
227506
227506
227505
227505
227504
227502
227501
227499
227497
227495
227493
227489
227506
227506
227506
227506
227505
227505
227504
227502
227501
227499
227497
227495
227492
227489
227506
227506
227506
227506
227505
227505
227504
227502
227501
227499
227497
227494
227492
227489
227506
227506
227506
227505
227505
227504
227503
227502
227500
227498
227496
227494
227491
227488
227505
227505
227505
227505
227504
227503
227502
227501
227499
227498
227495
227493
227490
227488
227504
227504
227504
227504
227503
227502
227501
227500
227498
227497
227494
227492
227490
227487
227503
227503
227503
227502
227502
227501
227500
227499
227497
227495
227493
227491
227488
227486
227501
227501
227501
227501
227500
227500
227499
227497
227496
227494
227492
227490
227487
227484
227500
227500
227499
227499
227499
227498
227497
227495
227494
227492
227490
227488
227485
227483
227498
227498
227497
227497
227497
227496
227495
227493
227492
227490
227488
227486
227484
227481
227496
227496
227495
227495
227495
227494
227493
227491
227490
227488
227486
227484
227482
227479
227494
227494
227493
227493
227492
227491
227490
227489
227487
227485
227484
227481
227479
227477
227491
227491
227491
227490
227490
227489
227487
227486
227484
227483
227481
227479
227477
227475
227000
227002
227003
227004
227005
227005
227005
227005
227004
227003
227001
226999
226997
226993
227002
227004
227005
227006
227007
227007
227007
227007
227006
227005
227003
227000
226998
226994
227004
227005
227007
227008
227009
227009
227009
227008
227007
227006
227004
227001
226999
226995
227004
227006
227008
227009
227010
227010
227010
227009
227008
227007
227005
227002
226999
226996
227005
227007
227008
227010
227010
227011
227011
227010
227009
227007
227005
227003
227000
226996
227005
227007
227008
227010
227010
227011
227011
227010
227009
227007
227005
227003
227000
226996
227004
227006
227008
227009
227010
227010
227010
227010
227009
227007
227005
227002
226999
226996
227003
227005
227007
227008
227009
227009
227009
227009
227008
227006
227004
227001
226998
226995
227001
227003
227005
227007
227007
227008
227008
227007
227006
227004
227002
227000
226997
226994
226999
227001
227003
227005
227005
227006
227006
227005
227004
227002
227000
226998
226995
226992
226997
226999
227001
227002
227003
227003
227003
227003
227002
227000
226998
226996
226993
226990
226994
226996
226998
226999
227000
227000
227000
227000
226999
226997
226995
226993
226990
226988
226991
226993
226995
226996
226997
226997
226997
226996
226995
226994
226992
226990
226987
226985
226988
226990
226991
226992
226993
226993
226993
226992
226991
226990
226988
226986
226984
226981
226536
226538
226541
226543
226544
226545
226546
226546
226545
226545
226543
226541
226539
226535
226539
226541
226544
226546
226547
226548
226549
226549
226548
226547
226546
226544
226541
226538
226541
226544
226546
226548
226550
226551
226552
226552
226551
226550
226548
226546
226543
226540
226543
226546
226548
226550
226552
226553
226554
226554
226553
226552
226550
226548
226545
226542
226544
226547
226550
226552
226554
226555
226555
226555
226555
226553
226551
226549
226546
226543
226545
226548
226551
226553
226555
226556
226556
226556
226555
226554
226552
226550
226547
226543
226545
226548
226551
226553
226555
226556
226557
226557
226556
226555
226553
226550
226547
226544
226544
226548
226551
226553
226555
226556
226556
226556
226556
226554
226552
226550
226547
226544
226543
226547
226550
226552
226554
226555
226555
226555
226555
226553
226552
226549
226546
226543
226542
226545
226548
226550
226552
226553
226554
226554
226553
226552
226550
226548
226545
226542
226540
226543
226546
226548
226550
226551
226552
226552
226551
226550
226548
226546
226543
226540
226537
226541
226543
226546
226547
226548
226549
226549
226548
226547
226545
226543
226541
226538
226535
226538
226540
226542
226544
226545
226546
226546
226545
226544
226542
226540
226538
226535
226531
226534
226537
226539
226540
226541
226542
226542
226541
226540
226539
226537
226534
226532
226105
226107
226110
226112
226114
226115
226116
226116
226116
226115
226114
226112
226110
226107
226107
226110
226113
226115
226117
226118
226119
226119
226119
226118
226117
226115
226113
226110
226110
226113
226116
226118
226120
226121
226122
226122
226122
226121
226120
226118
226115
226113
226112
226115
226118
226121
226122
226124
226125
226125
226124
226124
226122
226120
226118
226115
226114
226117
226120
226123
226124
226126
226127
226127
226126
226125
226124
226122
226119
226117
226115
226118
226121
226124
226126
226127
226128
226128
226128
226127
226125
226123
226121
226118
226116
226119
226122
226125
226127
226128
226129
226129
226129
226128
226126
226124
226122
226119
226116
226119
226122
226125
226127
226128
226129
226129
226129
226128
226126
226124
226122
226119
226116
226119
226122
226125
226126
226128
226129
226129
226128
226128
226126
226124
226122
226119
226115
226118
226121
226124
226125
226127
226128
226128
226128
226127
226125
226123
226121
226118
226113
226117
226120
226122
226124
226125
226126
226126
226126
226125
226124
226122
226119
226117
226111
226115
226118
226120
226122
226123
226124
226124
226124
226123
226122
226120
226117
226115
226109
226112
226115
226117
226119
226120
226121
226122
226121
226120
226119
226117
226115
226112
226106
226109
226112
226114
226116
226117
226118
226118
226118
226117
226116
226114
226112
226110
225700
225702
225704
225706
225707
225708
225709
225709
225709
225708
225707
225706
225704
225702
225702
225705
225707
225709
225710
225711
225712
225712
225712
225711
225710
225709
225707
225705
225704
225707
225709
225711
225713
225714
225714
225714
225714
225714
225713
225711
225709
225708
225706
225709
225711
225713
225715
225716
225716
225717
225716
225716
225715
225713
225712
225710
225708
225710
225713
225715
225716
225717
225718
225718
225718
225717
225716
225715
225713
225711
225709
225712
225714
225716
225717
225719
225719
225720
225719
225719
225718
225716
225714
225712
225710
225712
225715
225717
225718
225719
225720
225720
225720
225720
225718
225717
225715
225713
225710
225713
225715
225717
225719
225720
225720
225721
225721
225720
225719
225717
225715
225713
225710
225713
225715
225717
225719
225720
225720
225721
225721
225720
225719
225717
225715
225713
225710
225712
225715
225716
225718
225719
225720
225720
225720
225719
225718
225717
225715
225713
225709
225711
225714
225715
225717
225718
225719
225719
225719
225719
225717
225716
225714
225712
225707
225710
225712
225714
225716
225717
225718
225718
225718
225717
225716
225715
225713
225710
225706
225708
225710
225712
225714
225715
225716
225716
225716
225715
225714
225713
225711
225709
225703
225706
225708
225710
225711
225713
225713
225714
225714
225713
225712
225711
225709
225707
225317
225319
225320
225321
225322
225322
225323
225323
225322
225322
225321
225321
225320
225318
225319
225320
225322
225323
225323
225324
225324
225324
225324
225324
225323
225322
225322
225321
225320
225321
225323
225324
225325
225325
225326
225326
225326
225325
225325
225324
225323
225322
225321
225322
225324
225325
225326
225326
225327
225327
225327
225326
225326
225325
225324
225323
225322
225323
225325
225326
225327
225327
225328
225328
225328
225327
225327
225326
225325
225324
225323
225324
225325
225326
225327
225328
225328
225329
225328
225328
225328
225327
225326
225325
225323
225325
225326
225327
225328
225328
225329
225329
225329
225329
225328
225327
225326
225325
225323
225325
225326
225327
225328
225329
225329
225329
225329
225329
225328
225327
225326
225325
225323
225325
225326
225327
225328
225329
225329
225329
225329
225329
225328
225327
225326
225325
225323
225325
225326
225327
225328
225328
225329
225329
225329
225329
225328
225327
225326
225324
225323
225324
225325
225326
225327
225328
225328
225329
225329
225328
225328
225327
225325
225324
225322
225323
225325
225326
225326
225327
225328
225328
225328
225328
225327
225326
225325
225323
225321
225322
225323
225325
225325
225326
225327
225327
225327
225327
225326
225325
225324
225323
225319
225321
225322
225323
225324
225325
225325
225326
225326
225326
225325
225324
225323
225321
236473
236462
236456
236450
236444
236440
236444
236431
236424
236417
236412
236408
236602
236630
236652
236677
236698
236721
236578
236609
236636
236664
236689
236714
236557
236589
236617
236646
236672
236698
236532
236565
236594
236623
236649
236673
236505
236538
236566
236593
236618
236640
236477
236508
236534
236558
236580
236599
236448
236475
236498
236519
236536
236552
236417
236439
236459
236475
236488
236499
236386
236402
236417
236429
236437
236444
236353
236364
236374
236381
236385
236388
236321
236325
236331
236333
236334
236334
236287
236285
236287
236286
236284
236281
236256
236249
236247
236242
236237
236232
236219
236208
236202
236195
236189
236182
236197
236229
236254
236281
236304
236327
236178
236217
236250
236283
236313
236342
236164
236207
236245
236283
236317
236349
236146
236193
236233
236274
236310
236344
236126
236173
236215
236256
236292
236325
236103
236149
236191
236229
236264
236295
236078
236121
236160
236195
236226
236254
236050
236088
236123
236154
236180
236203
236020
236052
236082
236107
236129
236146
235989
236014
236038
236057
236073
236085
235957
235974
235992
236005
236015
236022
235924
235932
235944
235951
235956
235959
235891
235892
235897
235898
235898
235897
235855
235848
235848
235844
235841
235835
235544
235572
235595
235617
235638
235657
235534
235569
235602
235633
235661
235687
235529
235572
235610
235647
235680
235711
235521
235568
235611
235652
235689
235723
235511
235561
235606
235649
235688
235724
235497
235548
235594
235638
235678
235714
235482
235531
235576
235618
235656
235691
235463
235509
235552
235591
235626
235657
235443
235484
235523
235557
235588
235615
235420
235455
235489
235518
235543
235565
235396
235424
235451
235474
235494
235511
235371
235391
235412
235428
235442
235453
235344
235356
235369
235379
235387
235392
235318
235320
235327
235330
235331
235331
234680
234695
234711
234725
234738
234749
234680
234704
234726
234746
234764
234780
234685
234714
234741
234766
234788
234808
234687
234721
234752
234781
234807
234831
234687
234724
234759
234792
234821
234848
234686
234725
234762
234797
234828
234857
234682
234723
234760
234796
234828
234858
234677
234717
234755
234789
234822
234851
234670
234708
234744
234777
234808
234836
234662
234697
234729
234760
234787
234812
234651
234682
234710
234736
234760
234781
234639
234664
234688
234709
234727
234744
234625
234644
234661
234677
234690
234702
234614
234625
234635
234643
234650
234656
233700
233703
233707
233710
233712
233713
233710
233716
233723
233728
233731
233734
233720
233729
233738
233746
233751
233755
233729
233742
233753
233763
233771
233777
233738
233754
233767
233780
233790
233799
233747
233765
233781
233795
233808
233820
233754
233774
233793
233809
233825
233838
233762
233783
233803
233821
233839
233854
233767
233789
233811
233830
233849
233866
233772
233794
233815
233835
233854
233871
233775
233796
233816
233835
233853
233870
233777
233795
233813
233830
233846
233862
233777
233792
233807
233821
233834
233846
233778
233791
233800
233810
233818
233827
232707
232697
232690
232682
232675
232667
232720
232710
232702
232693
232684
232676
232731
232722
232714
232705
232696
232687
232743
232735
232728
232719
232710
232701
232756
232749
232743
232735
232727
232719
232769
232764
232759
232753
232747
232740
232783
232780
232777
232773
232768
232763
232796
232795
232794
232793
232791
232788
232808
232810
232812
232813
232814
232814
232820
232824
232828
232831
232835
232838
232832
232837
232842
232848
232853
232858
232843
232849
232855
232861
232868
232874
232853
232859
232865
232872
232878
232885
232863
232869
232874
232880
232886
232892
231759
231742
231729
231715
231703
231692
231769
231751
231736
231721
231707
231693
231779
231760
231744
231727
231711
231696
231790
231771
231754
231736
231719
231702
231802
231783
231765
231747
231729
231712
231815
231796
231779
231761
231743
231726
231827
231810
231794
231777
231760
231744
231840
231825
231810
231795
231780
231765
231853
231840
231828
231815
231802
231789
231866
231856
231846
231836
231826
231816
231879
231872
231864
231857
231850
231843
231893
231888
231883
231878
231874
231870
231906
231904
231901
231899
231897
231895
231919
231919
231918
231918
231918
231919