/*--------------------------------*- C++ -*----------------------------------*\
| =========                 |                                                 |
| \\      /  F ield         | OpenFOAM: The Open Source CFD Toolbox           |
|  \\    /   O peration     | Version:  v2106                                 |
|   \\  /    A nd           | Website:  www.openfoam.com                      |
|    \\/     M anipulation  |                                                 |
\*---------------------------------------------------------------------------*/
FoamFile
{
    version     2.0;
    format      ascii;
    arch        "LSB;label=32;scalar=64";
    class       volScalarField;
    location    "0.000204";
    object      Ttot;
}
// * * * * * * * * * * * * * * * * * * * * * * * * * * * * * * * * * * * * * //

dimensions      [0 0 0 1 0 0 0];

internalField   nonuniform List<scalar> 
17920
(
306.453
306.442
306.448
306.437
306.443
306.432
306.439
306.427
306.433
306.421
306.428
306.415
306.422
306.409
306.415
306.403
306.409
306.396
306.402
306.389
306.394
306.381
306.387
306.374
306.379
306.366
306.373
306.36
306.492
306.482
306.473
306.463
306.453
306.442
306.431
306.42
306.408
306.396
306.385
306.372
306.361
306.348
306.483
306.474
306.464
306.454
306.444
306.434
306.423
306.411
306.4
306.387
306.376
306.363
306.351
306.338
306.472
306.464
306.455
306.445
306.435
306.424
306.413
306.402
306.39
306.378
306.366
306.353
306.342
306.329
306.462
306.454
306.445
306.435
306.425
306.414
306.403
306.392
306.38
306.368
306.356
306.343
306.331
306.318
306.451
306.444
306.434
306.425
306.415
306.404
306.393
306.381
306.369
306.357
306.345
306.332
306.32
306.307
306.44
306.432
306.423
306.414
306.404
306.393
306.382
306.37
306.358
306.346
306.333
306.32
306.308
306.295
306.429
306.421
306.412
306.402
306.392
306.381
306.37
306.358
306.346
306.334
306.321
306.308
306.295
306.282
306.417
306.409
306.4
306.39
306.38
306.369
306.357
306.346
306.333
306.321
306.308
306.295
306.282
306.269
306.406
306.397
306.387
306.377
306.367
306.356
306.344
306.332
306.32
306.307
306.294
306.281
306.268
306.255
306.393
306.384
306.374
306.364
306.353
306.342
306.331
306.319
306.306
306.293
306.28
306.267
306.253
306.241
306.381
306.371
306.361
306.351
306.34
306.328
306.316
306.304
306.291
306.278
306.265
306.252
306.238
306.226
306.368
306.357
306.347
306.336
306.325
306.314
306.302
306.289
306.276
306.264
306.25
306.237
306.222
306.211
306.356
306.344
306.334
306.322
306.311
306.299
306.287
306.274
306.261
306.247
306.234
306.22
306.206
306.195
306.342
306.329
306.319
306.307
306.295
306.283
306.271
306.258
306.246
306.233
306.219
306.206
306.192
306.18
306.327
306.32
306.313
306.305
306.297
306.288
306.279
306.268
306.258
306.247
306.235
306.223
306.212
306.199
306.312
306.306
306.299
306.291
306.283
306.274
306.265
306.255
306.244
306.233
306.222
306.21
306.199
306.186
306.297
306.292
306.284
306.277
306.269
306.26
306.251
306.241
306.23
306.219
306.208
306.196
306.185
306.173
306.282
306.277
306.269
306.262
306.254
306.245
306.236
306.226
306.215
306.204
306.193
306.182
306.171
306.159
306.266
306.261
306.254
306.246
306.238
306.229
306.22
306.21
306.2
306.189
306.178
306.167
306.156
306.144
306.25
306.245
306.238
306.23
306.222
306.213
306.204
306.194
306.183
306.173
306.162
306.151
306.14
306.128
306.234
306.228
306.221
306.213
306.205
306.196
306.187
306.177
306.167
306.156
306.145
306.134
306.123
306.112
306.217
306.211
306.203
306.196
306.187
306.179
306.169
306.159
306.149
306.138
306.128
306.117
306.106
306.095
306.2
306.193
306.186
306.178
306.17
306.161
306.151
306.141
306.131
306.12
306.109
306.099
306.088
306.078
306.183
306.175
306.168
306.159
306.151
306.142
306.132
306.122
306.112
306.102
306.091
306.08
306.069
306.06
306.166
306.157
306.149
306.141
306.132
306.123
306.113
306.103
306.093
306.083
306.072
306.061
306.05
306.042
306.147
306.138
306.13
306.122
306.113
306.104
306.094
306.084
306.074
306.063
306.053
306.042
306.031
306.023
306.13
306.12
306.112
306.103
306.094
306.084
306.075
306.064
306.054
306.043
306.033
306.022
306.012
306.004
306.11
306.101
306.092
306.083
306.074
306.064
306.055
306.045
306.035
306.024
306.014
306.004
305.993
305.986
306.069
306.066
306.062
306.058
306.053
306.048
306.042
306.035
306.028
306.02
306.012
306.004
305.995
305.986
306.052
306.05
306.047
306.043
306.038
306.032
306.026
306.02
306.013
306.005
305.997
305.988
305.98
305.971
306.036
306.035
306.031
306.027
306.022
306.017
306.011
306.004
305.997
305.99
305.982
305.974
305.966
305.957
306.02
306.018
306.014
306.01
306.006
306
305.994
305.988
305.981
305.974
305.966
305.958
305.951
305.942
306.004
306.002
305.998
305.993
305.989
305.983
305.977
305.971
305.964
305.957
305.95
305.942
305.935
305.927
305.987
305.985
305.98
305.976
305.971
305.966
305.96
305.954
305.947
305.94
305.933
305.926
305.919
305.911
305.97
305.967
305.963
305.958
305.953
305.948
305.942
305.936
305.93
305.923
305.916
305.909
305.902
305.895
305.953
305.949
305.945
305.94
305.935
305.93
305.924
305.918
305.912
305.905
305.898
305.891
305.885
305.878
305.935
305.931
305.927
305.922
305.917
305.912
305.906
305.9
305.893
305.887
305.88
305.874
305.867
305.861
305.917
305.913
305.908
305.904
305.898
305.893
305.887
305.881
305.875
305.869
305.862
305.856
305.849
305.844
305.9
305.894
305.89
305.885
305.88
305.874
305.868
305.862
305.856
305.85
305.844
305.838
305.831
305.827
305.882
305.875
305.871
305.866
305.861
305.855
305.85
305.843
305.837
305.831
305.825
305.819
305.813
305.809
305.864
305.858
305.853
305.848
305.842
305.837
305.831
305.825
305.818
305.812
305.806
305.801
305.795
305.792
305.845
305.839
305.834
305.829
305.823
305.818
305.812
305.806
305.8
305.794
305.788
305.783
305.777
305.774
305.733
305.734
305.734
305.734
305.733
305.732
305.731
305.729
305.727
305.724
305.721
305.717
305.714
305.71
305.72
305.722
305.721
305.721
305.721
305.72
305.718
305.717
305.714
305.712
305.709
305.705
305.702
305.698
305.708
305.709
305.709
305.709
305.708
305.707
305.706
305.704
305.702
305.699
305.696
305.693
305.69
305.686
305.695
305.696
305.696
305.695
305.695
305.694
305.693
305.691
305.689
305.686
305.683
305.68
305.678
305.674
305.682
305.683
305.682
305.682
305.681
305.68
305.679
305.677
305.675
305.673
305.671
305.668
305.665
305.661
305.669
305.67
305.669
305.669
305.668
305.667
305.665
305.664
305.662
305.66
305.657
305.655
305.652
305.649
305.656
305.656
305.655
305.655
305.654
305.653
305.651
305.65
305.648
305.646
305.644
305.642
305.639
305.636
305.642
305.642
305.641
305.641
305.64
305.639
305.637
305.636
305.634
305.632
305.63
305.628
305.626
305.624
305.629
305.628
305.627
305.627
305.626
305.625
305.623
305.622
305.62
305.619
305.617
305.615
305.613
305.611
305.615
305.614
305.613
305.612
305.611
305.61
305.609
305.608
305.606
305.605
305.603
305.601
305.599
305.598
305.601
305.6
305.599
305.598
305.597
305.596
305.595
305.594
305.592
305.591
305.589
305.587
305.585
305.586
305.588
305.585
305.585
305.584
305.583
305.582
305.581
305.579
305.578
305.577
305.575
305.573
305.571
305.572
305.574
305.571
305.571
305.57
305.569
305.568
305.567
305.565
305.564
305.563
305.561
305.56
305.558
305.56
305.56
305.558
305.557
305.556
305.555
305.554
305.553
305.551
305.55
305.549
305.548
305.546
305.545
305.546
305.356
305.359
305.362
305.366
305.369
305.371
305.374
305.377
305.379
305.38
305.382
305.383
305.384
305.385
305.349
305.353
305.356
305.359
305.362
305.365
305.368
305.37
305.372
305.374
305.376
305.377
305.378
305.378
305.343
305.347
305.35
305.353
305.356
305.359
305.361
305.364
305.366
305.367
305.369
305.37
305.371
305.372
305.337
305.34
305.343
305.346
305.349
305.352
305.354
305.357
305.359
305.361
305.362
305.364
305.365
305.365
305.33
305.334
305.336
305.339
305.342
305.345
305.347
305.35
305.352
305.354
305.355
305.357
305.358
305.359
305.323
305.326
305.329
305.332
305.335
305.338
305.34
305.343
305.345
305.347
305.348
305.35
305.351
305.352
305.316
305.319
305.322
305.325
305.328
305.331
305.333
305.335
305.338
305.34
305.341
305.343
305.344
305.346
305.309
305.312
305.315
305.318
305.32
305.323
305.326
305.328
305.33
305.332
305.334
305.336
305.337
305.339
305.302
305.304
305.307
305.31
305.313
305.316
305.318
305.321
305.323
305.325
305.327
305.329
305.33
305.332
305.294
305.297
305.3
305.303
305.305
305.308
305.311
305.313
305.315
305.318
305.32
305.322
305.323
305.325
305.287
305.289
305.292
305.295
305.298
305.301
305.303
305.306
305.308
305.31
305.312
305.314
305.316
305.319
305.279
305.281
305.285
305.287
305.29
305.293
305.295
305.298
305.3
305.303
305.305
305.307
305.309
305.312
305.272
305.274
305.277
305.28
305.282
305.285
305.288
305.291
305.293
305.295
305.298
305.3
305.302
305.305
305.264
305.267
305.27
305.272
305.275
305.278
305.28
305.283
305.285
305.288
305.29
305.292
305.295
305.297
304.973
304.977
304.982
304.987
304.992
304.996
305.001
305.006
305.01
305.014
305.019
305.023
305.026
305.03
304.972
304.977
304.982
304.986
304.991
304.996
305.001
305.006
305.01
305.014
305.019
305.023
305.026
305.03
304.972
304.977
304.982
304.986
304.991
304.996
305.001
305.005
305.01
305.014
305.018
305.022
305.026
305.029
304.972
304.976
304.981
304.986
304.991
304.996
305.001
305.005
305.01
305.014
305.018
305.022
305.025
305.029
304.971
304.976
304.981
304.986
304.991
304.996
305
305.005
305.009
305.013
305.017
305.021
305.025
305.028
304.971
304.976
304.98
304.985
304.99
304.995
305
305.004
305.009
305.013
305.017
305.021
305.024
305.027
304.97
304.975
304.98
304.985
304.99
304.994
304.999
305.004
305.008
305.012
305.016
305.02
305.023
305.026
304.969
304.974
304.979
304.984
304.989
304.993
304.998
305.003
305.007
305.011
305.015
305.019
305.023
305.026
304.968
304.973
304.978
304.983
304.988
304.992
304.997
305.002
305.006
305.01
305.014
305.018
305.022
305.025
304.966
304.971
304.976
304.982
304.986
304.991
304.996
305.001
305.005
305.009
305.013
305.017
305.021
305.024
304.965
304.97
304.975
304.98
304.985
304.99
304.995
304.999
305.004
305.008
305.012
305.016
305.02
305.023
304.963
304.968
304.973
304.979
304.983
304.988
304.993
304.998
305.002
305.007
305.011
305.015
305.019
305.022
304.962
304.967
304.972
304.977
304.982
304.987
304.992
304.996
305.001
305.005
305.01
305.013
305.017
305.022
304.96
304.966
304.971
304.976
304.98
304.985
304.99
304.995
304.999
305.003
305.008
305.012
305.016
305.02
304.604
304.608
304.613
304.617
304.622
304.627
304.631
304.636
304.641
304.646
304.65
304.655
304.659
304.664
304.607
304.612
304.616
304.621
304.626
304.631
304.636
304.641
304.645
304.65
304.655
304.659
304.663
304.668
304.611
304.616
304.62
304.625
304.63
304.635
304.64
304.645
304.649
304.654
304.658
304.663
304.667
304.671
304.615
304.619
304.624
304.629
304.634
304.639
304.644
304.649
304.653
304.658
304.662
304.667
304.671
304.675
304.619
304.623
304.628
304.633
304.638
304.643
304.648
304.653
304.657
304.662
304.666
304.67
304.674
304.678
304.622
304.627
304.632
304.637
304.642
304.647
304.652
304.657
304.661
304.666
304.67
304.674
304.678
304.682
304.625
304.63
304.636
304.641
304.646
304.651
304.655
304.66
304.665
304.669
304.674
304.678
304.682
304.685
304.629
304.634
304.639
304.644
304.649
304.654
304.659
304.664
304.668
304.673
304.677
304.681
304.685
304.689
304.632
304.637
304.642
304.647
304.652
304.657
304.662
304.667
304.672
304.676
304.681
304.685
304.688
304.692
304.635
304.64
304.645
304.65
304.656
304.661
304.666
304.67
304.675
304.679
304.684
304.688
304.692
304.695
304.638
304.643
304.648
304.653
304.658
304.664
304.669
304.673
304.678
304.683
304.687
304.691
304.695
304.698
304.64
304.646
304.651
304.656
304.661
304.666
304.671
304.676
304.681
304.685
304.69
304.694
304.698
304.702
304.643
304.648
304.653
304.659
304.664
304.669
304.674
304.679
304.684
304.688
304.693
304.697
304.701
304.705
304.646
304.651
304.656
304.661
304.666
304.672
304.676
304.681
304.686
304.691
304.695
304.699
304.704
304.708
304.26
304.262
304.265
304.269
304.272
304.275
304.278
304.282
304.285
304.289
304.292
304.296
304.299
304.303
304.264
304.267
304.27
304.273
304.277
304.28
304.284
304.287
304.291
304.294
304.298
304.301
304.305
304.309
304.269
304.272
304.275
304.278
304.282
304.285
304.289
304.292
304.296
304.299
304.303
304.306
304.31
304.313
304.274
304.277
304.28
304.283
304.287
304.29
304.294
304.298
304.301
304.305
304.308
304.312
304.315
304.319
304.279
304.282
304.285
304.289
304.292
304.296
304.299
304.303
304.306
304.31
304.313
304.317
304.32
304.323
304.283
304.287
304.29
304.294
304.297
304.301
304.304
304.308
304.312
304.315
304.318
304.322
304.325
304.328
304.288
304.292
304.295
304.299
304.302
304.306
304.31
304.313
304.317
304.32
304.324
304.327
304.33
304.333
304.293
304.297
304.3
304.304
304.308
304.311
304.315
304.318
304.322
304.325
304.329
304.332
304.335
304.338
304.298
304.302
304.305
304.309
304.313
304.316
304.32
304.323
304.327
304.33
304.334
304.337
304.34
304.343
304.303
304.307
304.31
304.314
304.317
304.321
304.325
304.328
304.332
304.335
304.339
304.342
304.345
304.348
304.307
304.311
304.315
304.319
304.322
304.326
304.33
304.333
304.337
304.34
304.344
304.347
304.35
304.352
304.312
304.316
304.32
304.323
304.327
304.331
304.334
304.338
304.342
304.345
304.348
304.351
304.355
304.357
304.317
304.32
304.324
304.328
304.332
304.335
304.339
304.343
304.346
304.35
304.353
304.356
304.359
304.362
304.321
304.325
304.329
304.333
304.336
304.34
304.344
304.347
304.351
304.354
304.357
304.361
304.364
304.367
303.942
303.943
303.945
303.946
303.947
303.949
303.95
303.952
303.953
303.955
303.957
303.959
303.961
303.964
303.946
303.947
303.948
303.949
303.951
303.952
303.954
303.956
303.957
303.959
303.961
303.964
303.966
303.969
303.95
303.95
303.952
303.953
303.955
303.956
303.958
303.959
303.961
303.963
303.965
303.967
303.97
303.972
303.953
303.954
303.956
303.957
303.958
303.96
303.962
303.963
303.965
303.967
303.969
303.972
303.974
303.976
303.957
303.958
303.96
303.961
303.962
303.964
303.966
303.968
303.969
303.971
303.974
303.976
303.978
303.98
303.961
303.962
303.964
303.965
303.967
303.968
303.97
303.972
303.974
303.976
303.978
303.98
303.982
303.985
303.965
303.967
303.968
303.969
303.971
303.973
303.974
303.976
303.978
303.98
303.982
303.984
303.986
303.989
303.97
303.971
303.972
303.974
303.975
303.977
303.979
303.981
303.982
303.984
303.986
303.989
303.991
303.993
303.974
303.976
303.977
303.978
303.98
303.982
303.983
303.985
303.987
303.989
303.991
303.993
303.995
303.997
303.979
303.98
303.981
303.983
303.984
303.986
303.988
303.99
303.992
303.993
303.995
303.997
303.999
304.001
303.983
303.985
303.986
303.988
303.989
303.991
303.993
303.994
303.996
303.998
304
304.002
304.004
304.005
303.988
303.989
303.991
303.992
303.994
303.995
303.997
303.999
304.001
304.003
304.004
304.006
304.008
304.01
303.992
303.994
303.995
303.997
303.998
304
304.002
304.004
304.006
304.007
304.009
304.011
304.013
304.014
303.997
303.998
304
304.001
304.003
304.005
304.007
304.008
304.01
304.012
304.014
304.015
304.017
304.019
303.653
303.652
303.652
303.652
303.652
303.652
303.652
303.652
303.653
303.653
303.654
303.654
303.655
303.656
303.654
303.654
303.654
303.654
303.654
303.654
303.654
303.654
303.654
303.655
303.655
303.656
303.657
303.659
303.656
303.656
303.655
303.655
303.655
303.655
303.655
303.656
303.656
303.657
303.657
303.658
303.659
303.661
303.658
303.658
303.657
303.657
303.657
303.657
303.657
303.657
303.658
303.659
303.659
303.66
303.661
303.663
303.66
303.66
303.659
303.659
303.659
303.659
303.659
303.66
303.66
303.661
303.661
303.662
303.664
303.665
303.663
303.662
303.662
303.661
303.661
303.661
303.661
303.662
303.662
303.663
303.664
303.665
303.666
303.667
303.665
303.665
303.664
303.664
303.664
303.664
303.664
303.664
303.665
303.665
303.666
303.667
303.668
303.67
303.668
303.667
303.667
303.667
303.666
303.666
303.667
303.667
303.667
303.668
303.669
303.67
303.671
303.672
303.671
303.67
303.67
303.669
303.669
303.669
303.669
303.67
303.67
303.671
303.671
303.672
303.673
303.674
303.673
303.673
303.673
303.672
303.672
303.672
303.672
303.673
303.673
303.674
303.674
303.675
303.676
303.677
303.676
303.676
303.676
303.676
303.675
303.675
303.676
303.676
303.676
303.677
303.677
303.678
303.679
303.68
303.68
303.679
303.679
303.679
303.679
303.679
303.679
303.679
303.679
303.68
303.681
303.681
303.682
303.682
303.683
303.683
303.682
303.682
303.682
303.682
303.682
303.683
303.683
303.683
303.684
303.684
303.685
303.685
303.686
303.686
303.686
303.686
303.686
303.686
303.686
303.686
303.686
303.687
303.687
303.688
303.688
303.689
303.389
303.388
303.388
303.387
303.386
303.386
303.385
303.385
303.384
303.384
303.383
303.383
303.383
303.383
303.39
303.389
303.388
303.387
303.386
303.386
303.385
303.385
303.384
303.384
303.384
303.383
303.384
303.384
303.39
303.389
303.388
303.387
303.387
303.386
303.385
303.385
303.384
303.384
303.384
303.384
303.384
303.384
303.391
303.39
303.389
303.388
303.387
303.386
303.386
303.385
303.385
303.384
303.384
303.384
303.384
303.385
303.391
303.39
303.389
303.388
303.387
303.387
303.386
303.386
303.385
303.385
303.385
303.385
303.385
303.385
303.392
303.391
303.39
303.389
303.388
303.387
303.387
303.386
303.386
303.386
303.385
303.386
303.386
303.386
303.393
303.392
303.391
303.39
303.389
303.388
303.387
303.387
303.387
303.386
303.386
303.386
303.386
303.387
303.394
303.393
303.392
303.391
303.39
303.389
303.388
303.388
303.387
303.387
303.387
303.387
303.387
303.388
303.395
303.394
303.393
303.392
303.391
303.39
303.389
303.389
303.388
303.388
303.388
303.388
303.388
303.389
303.396
303.395
303.394
303.393
303.392
303.391
303.391
303.39
303.39
303.389
303.389
303.389
303.389
303.39
303.398
303.396
303.395
303.394
303.393
303.393
303.392
303.391
303.391
303.391
303.39
303.39
303.391
303.391
303.399
303.398
303.397
303.396
303.395
303.394
303.393
303.393
303.392
303.392
303.392
303.392
303.392
303.392
303.4
303.399
303.398
303.397
303.397
303.396
303.395
303.394
303.394
303.394
303.393
303.393
303.393
303.393
303.402
303.401
303.4
303.399
303.398
303.397
303.397
303.396
303.396
303.395
303.395
303.395
303.394
303.394
303.15
303.15
303.149
303.149
303.148
303.147
303.147
303.146
303.145
303.145
303.144
303.143
303.143
303.142
303.15
303.15
303.149
303.148
303.148
303.147
303.146
303.146
303.145
303.144
303.144
303.143
303.142
303.142
303.15
303.15
303.149
303.148
303.147
303.147
303.146
303.145
303.145
303.144
303.143
303.143
303.142
303.141
303.15
303.149
303.149
303.148
303.147
303.147
303.146
303.145
303.145
303.144
303.143
303.143
303.142
303.141
303.15
303.149
303.148
303.148
303.147
303.146
303.146
303.145
303.144
303.144
303.143
303.142
303.142
303.141
303.15
303.149
303.148
303.148
303.147
303.146
303.145
303.145
303.144
303.143
303.143
303.142
303.142
303.141
303.15
303.149
303.148
303.147
303.147
303.146
303.145
303.145
303.144
303.143
303.143
303.142
303.141
303.141
303.15
303.149
303.148
303.147
303.147
303.146
303.145
303.144
303.144
303.143
303.142
303.142
303.141
303.141
303.15
303.149
303.148
303.147
303.146
303.146
303.145
303.144
303.144
303.143
303.142
303.142
303.141
303.141
303.15
303.149
303.148
303.147
303.146
303.146
303.145
303.144
303.143
303.143
303.142
303.142
303.141
303.141
303.15
303.149
303.148
303.147
303.146
303.146
303.145
303.144
303.143
303.143
303.142
303.142
303.141
303.141
303.15
303.149
303.148
303.147
303.146
303.146
303.145
303.144
303.143
303.143
303.142
303.141
303.141
303.14
303.15
303.149
303.148
303.147
303.146
303.146
303.145
303.144
303.143
303.143
303.142
303.141
303.141
303.14
303.15
303.149
303.148
303.147
303.146
303.146
303.145
303.144
303.143
303.143
303.142
303.141
303.141
303.14
302.933
302.933
302.933
302.933
302.933
302.933
302.932
302.932
302.932
302.931
302.93
302.929
302.928
302.927
302.934
302.934
302.934
302.933
302.933
302.933
302.933
302.932
302.932
302.931
302.93
302.929
302.928
302.927
302.934
302.934
302.934
302.933
302.933
302.933
302.933
302.932
302.932
302.931
302.93
302.929
302.928
302.927
302.934
302.934
302.934
302.933
302.933
302.933
302.933
302.932
302.931
302.931
302.93
302.929
302.928
302.927
302.933
302.933
302.933
302.933
302.933
302.933
302.932
302.932
302.931
302.931
302.93
302.929
302.928
302.927
302.933
302.933
302.933
302.933
302.933
302.933
302.932
302.932
302.931
302.93
302.929
302.928
302.927
302.926
302.933
302.933
302.933
302.933
302.932
302.932
302.932
302.931
302.931
302.93
302.929
302.928
302.927
302.926
302.932
302.932
302.932
302.932
302.932
302.932
302.931
302.931
302.93
302.929
302.929
302.928
302.927
302.926
302.932
302.932
302.932
302.932
302.931
302.931
302.931
302.93
302.929
302.929
302.928
302.927
302.926
302.925
302.931
302.931
302.931
302.931
302.931
302.93
302.93
302.929
302.929
302.928
302.927
302.926
302.925
302.925
302.93
302.93
302.93
302.93
302.93
302.93
302.929
302.929
302.928
302.927
302.927
302.926
302.925
302.924
302.929
302.929
302.929
302.929
302.929
302.929
302.928
302.928
302.927
302.926
302.926
302.925
302.924
302.923
302.929
302.929
302.929
302.928
302.928
302.928
302.927
302.927
302.926
302.925
302.925
302.924
302.923
302.922
302.928
302.928
302.928
302.927
302.927
302.927
302.926
302.926
302.925
302.924
302.924
302.923
302.922
302.921
302.736
302.736
302.737
302.737
302.737
302.737
302.737
302.737
302.737
302.737
302.736
302.735
302.734
302.733
302.736
302.737
302.737
302.738
302.738
302.738
302.738
302.738
302.738
302.737
302.736
302.736
302.734
302.733
302.737
302.737
302.738
302.738
302.739
302.739
302.739
302.739
302.738
302.738
302.737
302.736
302.735
302.733
302.737
302.738
302.738
302.739
302.739
302.739
302.739
302.739
302.739
302.738
302.737
302.736
302.735
302.734
302.737
302.738
302.739
302.739
302.739
302.74
302.74
302.739
302.739
302.738
302.737
302.736
302.735
302.734
302.737
302.738
302.739
302.739
302.739
302.74
302.74
302.739
302.739
302.738
302.737
302.736
302.735
302.734
302.737
302.738
302.738
302.739
302.739
302.739
302.739
302.739
302.739
302.738
302.737
302.736
302.735
302.734
302.736
302.737
302.738
302.739
302.739
302.739
302.739
302.739
302.738
302.738
302.737
302.736
302.735
302.733
302.736
302.737
302.737
302.738
302.738
302.738
302.738
302.738
302.738
302.737
302.736
302.735
302.734
302.733
302.735
302.736
302.737
302.737
302.738
302.738
302.738
302.737
302.737
302.736
302.736
302.735
302.733
302.732
302.734
302.735
302.736
302.736
302.737
302.737
302.737
302.736
302.736
302.735
302.735
302.734
302.733
302.731
302.733
302.734
302.735
302.735
302.735
302.736
302.735
302.735
302.735
302.734
302.733
302.733
302.732
302.731
302.732
302.733
302.733
302.734
302.734
302.734
302.734
302.734
302.733
302.733
302.732
302.731
302.73
302.729
302.731
302.731
302.732
302.732
302.733
302.733
302.733
302.732
302.732
302.731
302.731
302.73
302.729
302.728
302.554
302.555
302.556
302.556
302.557
302.557
302.558
302.558
302.557
302.557
302.557
302.556
302.555
302.554
302.555
302.556
302.557
302.558
302.558
302.559
302.559
302.559
302.559
302.558
302.558
302.557
302.556
302.554
302.556
302.557
302.558
302.559
302.559
302.56
302.56
302.56
302.56
302.559
302.558
302.558
302.556
302.555
302.556
302.558
302.559
302.559
302.56
302.56
302.561
302.561
302.56
302.56
302.559
302.558
302.557
302.556
302.557
302.558
302.559
302.56
302.561
302.561
302.561
302.561
302.561
302.56
302.56
302.559
302.558
302.556
302.557
302.558
302.559
302.56
302.561
302.561
302.562
302.562
302.561
302.561
302.56
302.559
302.558
302.557
302.557
302.558
302.56
302.56
302.561
302.562
302.562
302.562
302.561
302.561
302.56
302.559
302.558
302.557
302.557
302.558
302.559
302.56
302.561
302.561
302.562
302.562
302.561
302.561
302.56
302.559
302.558
302.557
302.557
302.558
302.559
302.56
302.561
302.561
302.561
302.561
302.561
302.56
302.56
302.559
302.558
302.556
302.556
302.557
302.558
302.559
302.56
302.56
302.561
302.561
302.56
302.56
302.559
302.558
302.557
302.556
302.555
302.556
302.558
302.559
302.559
302.56
302.56
302.56
302.56
302.559
302.558
302.558
302.556
302.555
302.554
302.555
302.557
302.557
302.558
302.559
302.559
302.559
302.558
302.558
302.557
302.557
302.555
302.554
302.553
302.554
302.555
302.556
302.557
302.557
302.557
302.557
302.557
302.557
302.556
302.555
302.554
302.553
302.552
302.553
302.554
302.555
302.555
302.556
302.556
302.556
302.556
302.555
302.555
302.554
302.553
302.552
302.385
302.386
302.387
302.388
302.388
302.389
302.389
302.389
302.389
302.389
302.388
302.388
302.387
302.386
302.386
302.387
302.388
302.389
302.39
302.39
302.391
302.391
302.391
302.39
302.39
302.389
302.388
302.387
302.387
302.388
302.389
302.39
302.391
302.391
302.392
302.392
302.392
302.391
302.391
302.39
302.389
302.388
302.388
302.389
302.39
302.391
302.392
302.392
302.393
302.393
302.393
302.392
302.392
302.391
302.39
302.389
302.389
302.39
302.391
302.392
302.393
302.393
302.393
302.394
302.393
302.393
302.392
302.392
302.391
302.39
302.389
302.39
302.391
302.392
302.393
302.394
302.394
302.394
302.394
302.394
302.393
302.392
302.391
302.39
302.389
302.391
302.392
302.393
302.393
302.394
302.394
302.394
302.394
302.394
302.393
302.393
302.392
302.39
302.389
302.391
302.392
302.393
302.394
302.394
302.394
302.394
302.394
302.394
302.393
302.393
302.392
302.39
302.389
302.391
302.392
302.393
302.393
302.394
302.394
302.394
302.394
302.394
302.393
302.393
302.392
302.39
302.389
302.39
302.391
302.392
302.393
302.394
302.394
302.394
302.394
302.393
302.393
302.392
302.391
302.39
302.388
302.39
302.391
302.392
302.392
302.393
302.393
302.393
302.393
302.393
302.392
302.392
302.391
302.39
302.388
302.389
302.39
302.391
302.392
302.392
302.392
302.393
302.392
302.392
302.392
302.391
302.39
302.389
302.387
302.388
302.389
302.39
302.391
302.391
302.391
302.392
302.391
302.391
302.391
302.39
302.389
302.388
302.386
302.387
302.388
302.389
302.389
302.39
302.39
302.39
302.39
302.39
302.389
302.389
302.388
302.387
302.226
302.227
302.228
302.229
302.229
302.23
302.23
302.23
302.23
302.23
302.229
302.229
302.228
302.228
302.227
302.228
302.229
302.23
302.231
302.231
302.231
302.231
302.231
302.231
302.231
302.23
302.229
302.229
302.228
302.229
302.23
302.231
302.232
302.232
302.232
302.232
302.232
302.232
302.232
302.231
302.23
302.23
302.229
302.23
302.231
302.232
302.232
302.233
302.233
302.233
302.233
302.233
302.232
302.232
302.231
302.23
302.23
302.231
302.232
302.232
302.233
302.233
302.234
302.234
302.234
302.233
302.233
302.232
302.232
302.231
302.23
302.231
302.232
302.233
302.233
302.234
302.234
302.234
302.234
302.234
302.233
302.233
302.232
302.231
302.23
302.231
302.232
302.233
302.234
302.234
302.234
302.235
302.234
302.234
302.234
302.233
302.232
302.232
302.23
302.232
302.233
302.233
302.234
302.234
302.235
302.235
302.235
302.234
302.234
302.233
302.233
302.232
302.23
302.232
302.232
302.233
302.234
302.234
302.235
302.235
302.235
302.234
302.234
302.233
302.233
302.232
302.23
302.231
302.232
302.233
302.234
302.234
302.234
302.234
302.234
302.234
302.234
302.233
302.232
302.231
302.23
302.231
302.232
302.233
302.233
302.234
302.234
302.234
302.234
302.234
302.233
302.233
302.232
302.231
302.229
302.23
302.231
302.232
302.233
302.233
302.233
302.234
302.234
302.233
302.233
302.232
302.232
302.231
302.229
302.23
302.231
302.231
302.232
302.232
302.233
302.233
302.233
302.233
302.232
302.232
302.231
302.23
302.228
302.229
302.23
302.231
302.231
302.232
302.232
302.232
302.232
302.232
302.231
302.231
302.23
302.229
302.077
302.078
302.078
302.078
302.079
302.079
302.079
302.079
302.079
302.079
302.079
302.078
302.078
302.077
302.077
302.078
302.079
302.079
302.079
302.08
302.08
302.08
302.08
302.079
302.079
302.079
302.079
302.078
302.078
302.079
302.079
302.079
302.08
302.08
302.08
302.08
302.08
302.08
302.08
302.08
302.079
302.079
302.078
302.079
302.079
302.08
302.08
302.08
302.081
302.081
302.081
302.08
302.08
302.08
302.08
302.079
302.079
302.079
302.08
302.08
302.081
302.081
302.081
302.081
302.081
302.081
302.081
302.08
302.08
302.08
302.079
302.08
302.08
302.081
302.081
302.081
302.081
302.081
302.081
302.081
302.081
302.081
302.08
302.08
302.079
302.08
302.08
302.081
302.081
302.081
302.081
302.081
302.081
302.081
302.081
302.081
302.08
302.08
302.079
302.08
302.08
302.081
302.081
302.081
302.082
302.082
302.082
302.081
302.081
302.081
302.08
302.08
302.079
302.08
302.08
302.081
302.081
302.081
302.082
302.082
302.082
302.081
302.081
302.081
302.08
302.08
302.079
302.08
302.08
302.081
302.081
302.081
302.081
302.081
302.081
302.081
302.081
302.081
302.08
302.08
302.079
302.08
302.08
302.08
302.081
302.081
302.081
302.081
302.081
302.081
302.081
302.081
302.08
302.08
302.079
302.079
302.08
302.08
302.081
302.081
302.081
302.081
302.081
302.081
302.081
302.08
302.08
302.079
302.078
302.079
302.079
302.08
302.08
302.08
302.081
302.081
302.081
302.081
302.08
302.08
302.08
302.079
302.078
302.078
302.079
302.079
302.08
302.08
302.08
302.08
302.08
302.08
302.08
302.08
302.079
302.079
306.454
306.45
306.448
306.445
306.443
306.442
306.443
306.438
306.435
306.433
306.431
306.429
306.501
306.512
306.52
306.53
306.539
306.547
306.492
306.504
306.514
306.526
306.535
306.545
306.483
306.496
306.507
306.519
306.529
306.539
306.474
306.487
306.498
306.509
306.52
306.529
306.463
306.476
306.487
306.498
306.508
306.516
306.453
306.465
306.475
306.485
306.493
306.501
306.441
306.452
306.461
306.469
306.476
306.482
306.429
306.438
306.446
306.452
306.457
306.462
306.417
306.424
306.43
306.434
306.438
306.44
306.405
306.409
306.413
306.415
306.417
306.418
306.392
306.394
306.396
306.397
306.398
306.397
306.378
306.378
306.379
306.379
306.378
306.377
306.366
306.364
306.363
306.361
306.36
306.357
306.352
306.348
306.346
306.343
306.341
306.338
306.34
306.352
306.362
306.373
306.382
306.391
306.333
306.348
306.361
306.374
306.386
306.397
306.327
306.344
306.359
306.374
306.387
306.4
306.32
306.339
306.355
306.37
306.385
306.398
306.313
306.331
306.348
306.363
306.378
306.391
306.304
306.322
306.338
306.353
306.367
306.379
306.294
306.311
306.326
306.34
306.352