/*--------------------------------*- C++ -*----------------------------------*\
| =========                 |                                                 |
| \\      /  F ield         | OpenFOAM: The Open Source CFD Toolbox           |
|  \\    /   O peration     | Version:  v2106                                 |
|   \\  /    A nd           | Website:  www.openfoam.com                      |
|    \\/     M anipulation  |                                                 |
\*---------------------------------------------------------------------------*/
FoamFile
{
    version     2.0;
    format      ascii;
    arch        "LSB;label=32;scalar=64";
    class       volScalarField;
    location    "0.000191";
    object      rho;
}
// * * * * * * * * * * * * * * * * * * * * * * * * * * * * * * * * * * * * * //

dimensions      [1 -3 0 0 0 0 0];

internalField   nonuniform List<scalar> 
18109
(
2.46206
2.45729
2.45235
2.4474
2.44238
2.43739
2.43264
2.46023
2.45578
2.45085
2.44562
2.44033
2.43506
2.42989
2.45903
2.45427
2.44914
2.44381
2.43834
2.43292
2.42765
2.45783
2.45281
2.44748
2.44195
2.43634
2.43077
2.42533
2.45628
2.45102
2.44543
2.43972
2.43398
2.42832
2.42276
2.45396
2.44848
2.44282
2.43705
2.43125
2.42549
2.41979
2.4509
2.44538
2.43977
2.43403
2.42823
2.42239
2.41655
2.44727
2.44186
2.43643
2.43078
2.42504
2.41915
2.41318
2.46626
2.46208
2.45742
2.45253
2.44736
2.44211
2.43708
2.4323
2.42787
2.42346
2.41885
2.41379
2.40861
2.40187
2.46496
2.46074
2.45589
2.45064
2.44519
2.43963
2.43431
2.42921
2.42447
2.41981
2.41507
2.41011
2.40506
2.39901
2.46384
2.45919
2.45415
2.44872
2.44311
2.43748
2.4321
2.42698
2.4221
2.41723
2.41223
2.40708
2.40173
2.39612
2.46231
2.45735
2.45205
2.44649
2.44082
2.43518
2.42974
2.42453
2.41949
2.41441
2.4092
2.40382
2.39828
2.39279
2.45978
2.45473
2.44934
2.44381
2.43818
2.43263
2.42722
2.42194
2.41673
2.41142
2.40597
2.40039
2.39473
2.3893
2.45639
2.45137
2.4461
2.44071
2.43523
2.42975
2.42433
2.41896
2.4136
2.40809
2.40246
2.3967
2.39094
2.3855
2.4524
2.44754
2.44251
2.43733
2.43202
2.42661
2.42115
2.41567
2.41016
2.40449
2.3987
2.39283
2.38703
2.38162
2.44814
2.44352
2.43878
2.4338
2.42862
2.42323
2.4177
2.41208
2.40642
2.40067
2.39475
2.38884
2.38305
2.3778
2.44388
2.43948
2.43501
2.43023
2.42518
2.41981
2.41423
2.40851
2.4027
2.39685
2.39082
2.3849
2.37915
2.37398
2.43974
2.4355
2.43123
2.42666
2.42173
2.41642
2.41086
2.4051
2.39913
2.39318
2.38712
2.38121
2.37558
2.37067
2.43595
2.43176
2.4276
2.42317
2.41836
2.41319
2.40768
2.4019
2.39579
2.3898
2.38377
2.3779
2.37234
2.36772
2.4324
2.42825
2.42408
2.41978
2.415
2.40995
2.40455
2.3989
2.39294
2.38701
2.38097
2.3752
2.3697
2.36509
2.42931
2.4249
2.42074
2.41654
2.41189
2.407
2.40167
2.39614
2.39033
2.38455
2.37858
2.37288
2.36734
2.36254
2.42556
2.4212
2.41741
2.41328
2.40882
2.40407
2.39896
2.39365
2.38807
2.38256
2.37685
2.37145
2.36604
2.36006
2.46389
2.46759
2.47177
2.47669
2.48191
2.48838
2.46737
2.47035
2.47338
2.47687
2.48115
2.4869
2.46423
2.46797
2.47164
2.47587
2.48057
2.48674
2.45989
2.46443
2.46905
2.47405
2.47945
2.48594
2.45534
2.46043
2.46585
2.47185
2.47876
2.48541
2.45056
2.45609
2.46213
2.46972
2.47827
2.48652
2.44567
2.45149
2.45818
2.46721
2.47682
2.48616
2.44083
2.44677
2.45388
2.46322
2.47318
2.48322
2.436
2.4416
2.44842
2.4571
2.46641
2.47608
2.43128
2.43621
2.44189
2.44912
2.45702
2.46604
2.42644
2.43022
2.43418
2.43943
2.44523
2.45351
2.42126
2.42361
2.426
2.42928
2.43283
2.43912
2.41555
2.41652
2.41723
2.41795
2.41959
2.42463
2.40995
2.40919
2.40845
2.4078
2.40967
2.41418
2.40257
2.40062
2.39929
2.39824
2.40074
2.40521
2.3979
2.396
2.39484
2.39514
2.39732
2.4004
2.3949
2.39199
2.39023
2.39055
2.39262
2.39618
2.39155
2.38877
2.387
2.38791
2.38964
2.39325
2.38793
2.38499
2.3834
2.38475
2.38669
2.39032
2.38439
2.38138
2.38007
2.38153
2.38364
2.38706
2.38052
2.37739
2.37627
2.37743
2.37986
2.38311
2.37659
2.37321
2.37192
2.37223
2.3738
2.37666
2.37274
2.36894
2.36684
2.3661
2.36607
2.36835
2.36904
2.36491
2.36201
2.3602
2.35894
2.3598
2.36582
2.36116
2.35727
2.3539
2.35145
2.35091
2.36287
2.35798
2.35396
2.34966
2.34615
2.34467
2.3602
2.35504
2.35014
2.34546
2.34268
2.34186
2.35805
2.35303
2.3494
2.34629
2.34496
2.34471
2.35572
2.35108
2.34799
2.34598
2.34608
2.34787
2.3578
2.35431
2.35307
2.35253
2.35431
2.3564
2.36425
2.36058
2.35915
2.35874
2.3615
2.3645
2.3693
2.3663
2.36542
2.3662
2.3696
2.37368
2.37485
2.37241
2.3718
2.37345
2.37706
2.38213
2.38059
2.37879
2.37864
2.38088
2.38468
2.38993
2.38628
2.38489
2.38509
2.38762
2.39127
2.39609
2.39184
2.39087
2.39126
2.3933
2.39616
2.40066
2.39699
2.39625
2.39627
2.39759
2.39932
2.4029
2.40189
2.40109
2.40044
2.4007
2.40141
2.40369
2.40649
2.40553
2.40428
2.40345
2.40291
2.40356
2.41083
2.4099
2.40817
2.40648
2.40517
2.40465
2.4151
2.41415
2.41236
2.41029
2.40854
2.4074
2.41903
2.41825
2.41669
2.41489
2.41369
2.41308
2.42417
2.42328
2.42206
2.42095
2.42082
2.42221
2.46226
2.46741
2.47156
2.47665
2.48225
2.49123
2.46299
2.46751
2.47117
2.47576
2.48076
2.48836
2.46348
2.46767
2.47141
2.47558
2.481
2.48733
2.46635
2.46965
2.47275
2.47683
2.48136
2.48759
2.42736
2.42676
2.42744
2.42829
2.4305
2.43433
2.43275
2.43352
2.43547
2.43717
2.44105
2.44603
2.43625
2.43815
2.44147
2.44493
2.45027
2.45688
2.44006
2.44286
2.44756
2.45287
2.45958
2.46772
2.44405
2.44789
2.45363
2.46039
2.46875
2.47845
2.44851
2.45348
2.46017
2.46789
2.47707
2.48801
2.45317
2.45911
2.46631
2.4745
2.48366
2.49509
2.45772
2.46426
2.47147
2.47934
2.48786
2.49931
2.4617
2.4683
2.47485
2.48204
2.48934
2.5001
2.4647
2.47077
2.47612
2.48214
2.48806
2.49781
2.46651
2.47169
2.47583
2.48067
2.48528
2.49386
2.46738
2.47169
2.47478
2.4788
2.48295
2.48968
2.46745
2.4711
2.47383
2.4771
2.48095
2.48671
2.47004
2.47263
2.47459
2.4771
2.48032
2.48556
2.49847
2.519
2.5557
2.65026
2.83837
2.4975
2.51601
2.55334
2.66385
2.87384
2.49621
2.51655
2.56211
2.68466
2.93419
2.49675
2.51903
2.57021
2.70089
2.94626
2.49961
2.52662
2.58684
2.71958
2.92688
2.50018
2.53036
2.60361
2.73957
2.92606
2.50104
2.53619
2.6173
2.75711
2.96133
2.49488
2.53547
2.61895
2.75048
2.93808
3.12844
2.48612
2.53025
2.60892
2.72509
2.88817
3.0589
2.47389
2.51673
2.59113
2.69988
2.86331
3.04224
2.45805
2.49787
2.56754
2.67932
2.85816
3.06663
3.22745
2.44345
2.47846
2.54453
2.66407
2.86759
3.11711
3.35779
3.52856
2.43048
2.45869
2.51813
2.64105
2.87285
3.18747
3.57472
3.9357
2.41812
2.44217
2.49419
2.61339
2.83824
3.16356
3.50441
3.7683
2.40723
2.42793
2.47546
2.58926
2.78786
3.06397
3.33917
3.50216
2.40053
2.41862
2.46505
2.58149
2.78586
3.08012
3.3004
3.4441
2.39749
2.41485
2.46965
2.59216
2.82972
3.16877
3.51352
3.65398
2.39629
2.41599
2.47605
2.59863
2.82856
3.1467
3.47126
3.8293
2.39546
2.41976
2.48374
2.60542
2.79865
3.04231
3.29124
3.42261
2.39335
2.42151
2.49074
2.61664
2.79653
3.02713
3.20119
3.31075
2.38775
2.42257
2.49294
2.61986
2.82963
3.11486
3.35862
3.44375
2.38001
2.41349
2.48344
2.60048
2.79609
3.06105
3.33288
3.64415
2.37074
2.39954
2.46271
2.56185
2.72331
2.91606
2.35959
2.38295
2.43797
2.53471
2.69273
2.87418
2.35097
2.36918
2.41757
2.51508
2.68547
2.89544
2.34666
2.35923
2.40172
2.50432
2.70013
2.95456
2.34642
2.35463
2.39153
2.48994
2.70478
3.03072
2.35082
2.35718
2.3866
2.47865
2.6765
2.35919
2.36486
2.39025
2.47375
2.63455
2.36958
2.3784
2.40607
2.49172
2.65557
2.38067
2.39322
2.42902
2.51981
2.71878
2.39077
2.40673
2.4515
2.5418
2.72677
2.3994
2.41707
2.46775
2.55956
2.7286
2.4065
2.42557
2.47772
2.57122
2.73054
2.41166
2.43392
2.48467
2.58449
2.76421
2.41309
2.43513
2.4827
2.57611
2.7476
2.4112
2.43146
2.47464
2.55836
2.71093
2.40789
2.42428
2.46299
2.53909
2.69305
2.40822
2.4204
2.45472
2.52701
2.69033
2.40952
2.41682
2.44553
2.51382
2.69299
2.41539
2.42036
2.44317
2.50869
2.6942
2.426
2.42915
2.44661
2.51023
2.68639
2.43892
2.44241
2.46026
2.52558
2.67538
2.45283
2.45978
2.48004
2.55313
2.71541
2.46679
2.47934
2.5073
2.59192
2.79405
2.48021
2.49802
2.53502
2.62597
2.82291
2.49332
2.51543
2.5606
2.66037
2.84719
2.50461
2.52829
2.57954
2.68772
2.85985
2.51271
2.53877
2.59351
2.70983
2.89714
2.51719
2.54502
2.59855
2.71144
2.88661
2.51659
2.54575
2.59863
2.69882
2.85305
2.51333
2.54489
2.59571
2.68988
2.85039
2.50805
2.54142
2.59127
2.68337
2.85561
2.50325
2.53607
2.58515
2.67738
2.86459
2.50155
2.53044
2.57637
2.66554
2.86262
2.50027
2.52397
2.56506
2.65286
2.84452
2.47641
2.47341
2.46976
2.46549
2.46073
2.45558
2.45062
2.44592
2.44177
2.43782
2.434
2.42961
2.42484
2.41867
2.47535
2.47209
2.46803
2.4634
2.45837
2.45303
2.44789
2.44292
2.43849
2.43416
2.43003
2.4256
2.4212
2.41591
2.47338
2.4699
2.46578
2.46101
2.45589
2.45057
2.44551
2.44064
2.43617
2.4317
2.42733
2.42275
2.41805
2.41303
2.4706
2.46696
2.46277
2.45804
2.45299
2.44784
2.44293
2.43809
2.43352
2.42888
2.42428
2.41955
2.41469
2.40977
2.46672
2.46314
2.45904
2.45458
2.44981
2.44494
2.44021
2.43548
2.43085
2.42606
2.4212
2.41624
2.41119
2.40627
2.4623
2.45891
2.45501
2.45086
2.44635
2.44175
2.43717
2.43249
2.4278
2.4229
2.41786
2.41273
2.40754
2.40252
2.45779
2.45456
2.4509
2.447
2.44273
2.43834
2.43383
2.42917
2.42442
2.41943
2.41422
2.40897
2.40368
2.3986
2.4533
2.45019
2.44674
2.443
2.43888
2.4346
2.4301
2.42544
2.42059
2.41555
2.41026
2.40497
2.39961
2.3946
2.44895
2.44593
2.44261
2.43895
2.43493
2.43064
2.4261
2.42141
2.41649
2.41143
2.40611
2.40075
2.39539
2.39056
2.44468
2.44164
2.43839
2.43472
2.43072
2.42641
2.42186
2.41715
2.41218
2.40716
2.40191
2.39669
2.39139
2.38671
2.44041
2.43735
2.43407
2.4304
2.42638
2.42207
2.41752
2.4128
2.40784
2.40287
2.39771
2.39261
2.38738
2.38289
2.43586
2.43285
2.42957
2.42593
2.4218
2.41763
2.41319
2.40857
2.40368
2.3988
2.39374
2.38874
2.38362
2.37909
2.43142
2.42817
2.42499
2.42155
2.41745
2.41341
2.40904
2.40457
2.39979
2.39499
2.39
2.385
2.37969
2.37492
2.4264
2.4232
2.42043
2.41709
2.41319
2.40928
2.4052
2.40085
2.39607
2.39129
2.38632
2.38153
2.3768
2.37057
2.49492
2.49269
2.49049
2.48763
2.48466
2.48093
2.47706
2.47292
2.46914
2.46542
2.46199
2.45768
2.45309
2.4469
2.4928
2.49053
2.48817
2.48522
2.48205
2.47811
2.47414
2.46999
2.466
2.46178
2.45795
2.45354
2.44936
2.44378
2.49029
2.48791
2.48546
2.48236
2.47912
2.47522
2.4713
2.46723
2.46334
2.45926
2.45546
2.45102
2.44665
2.44116
2.48651
2.48435
2.48184
2.47884
2.47566
2.47195
2.46823
2.46423
2.46028
2.45609
2.45213
2.44771
2.44332
2.43807
2.4827
2.48075
2.47816
2.47536
2.47223
2.46875
2.4652
2.46133
2.45743
2.45323
2.4491
2.4445
2.43989
2.4348
2.47864
2.47672
2.47425
2.47161
2.46861
2.46524
2.46181
2.45799
2.45403
2.44977
2.44546
2.44078
2.436
2.43105
2.47461
2.4727
2.47038
2.46777
2.46486
2.46152
2.45821
2.45445
2.45049
2.44618
2.44174
2.43699
2.43208
2.4272
2.47033
2.46856
2.46631
2.46369
2.46088
2.45752
2.45426
2.45054
2.44653
2.44217
2.43758
2.43276
2.4277
2.42285
2.46588
2.46413
2.46193
2.45927
2.45649
2.4531
2.44985
2.44615
2.44211
2.43777
2.43314
2.42837
2.42328
2.4186
2.46123
2.45936
2.45725
2.45447
2.45175
2.44837
2.44515
2.44151
2.43749
2.43326
2.42857
2.42387
2.4185
2.41409
2.4563
2.45422
2.45222
2.44934
2.44663
2.44328
2.44006
2.43645
2.43245
2.42831
2.42364
2.41895
2.41351
2.40938
2.45086
2.4487
2.44681
2.44399
2.44139
2.43809
2.43494
2.43143
2.42752
2.4235
2.41893
2.41417
2.40868
2.40406
2.44488
2.44316
2.44146
2.43875
2.4362
2.433
2.42984
2.42632
2.42232
2.41826
2.41361
2.40869
2.40324
2.39855
2.43861
2.43727
2.43606
2.43385
2.43134
2.42815
2.4249
2.42144
2.4174
2.41331
2.40863
2.40372
2.39824
2.39225
2.52948
2.52798
2.52703
2.52542
2.52379
2.52135
2.51869
2.51543
2.51211
2.50849
2.50514
2.50103
2.49696
2.4912
2.52627
2.52483
2.52375
2.52202
2.52026
2.51778
2.51505
2.51179
2.50833
2.50449
2.50086
2.49665
2.49277
2.48778
2.52307
2.52178
2.52066
2.5189
2.51709
2.5145
2.51172
2.50843
2.50505
2.50143
2.49792
2.49383
2.48991
2.48477
2.5189
2.51799
2.51682
2.51512
2.51319
2.51053
2.50771
2.50443
2.50103
2.49741
2.49384
2.48982
2.48596
2.48094
2.51504
2.51427
2.51289
2.51118
2.50912
2.50646
2.50361
2.50038
2.49703
2.49349
2.48993
2.48591
2.482
2.47705
2.51089
2.51015
2.50875
2.50698
2.50485
2.50215
2.49924
2.49601
2.49264
2.4891
2.48546
2.48146
2.47744
2.4727
2.50663
2.50572
2.50437
2.50244
2.50033
2.49764
2.49472
2.49154
2.48817
2.48464
2.4809
2.47692
2.47275
2.46827
2.50183
2.50074
2.49958
2.49752
2.49553
2.49286
2.48996
2.48685
2.48347
2.47991
2.47602
2.47202
2.46761
2.46335
2.4965
2.49529
2.49432
2.49219
2.49032
2.48775
2.48492
2.48192
2.47858
2.47507
2.47109
2.46718
2.4626
2.45861
2.49073
2.48935
2.48858
2.4865
2.48483
2.48242
2.47974
2.47691
2.47367
2.4702
2.4661
2.46212
2.45717
2.45332
2.48472
2.48307
2.48247
2.48052
2.479
2.47682
2.47426
2.47154
2.46834
2.4649
2.46074
2.45678
2.45168
2.44807
2.47842
2.47684
2.47636
2.47458
2.47323
2.47122
2.4688
2.46621
2.4631
2.45972
2.45563
2.45147
2.44616
2.44227
2.47198
2.47075
2.47035
2.46883
2.46754
2.46566
2.46321
2.46055
2.45727
2.45371
2.44944
2.44498
2.43995
2.43548
2.46546
2.46507
2.46523
2.46379
2.46231
2.46025
2.45772
2.45494
2.45154
2.44796
2.44368
2.439
2.43371
2.42837
2.57371
2.57233
2.57178
2.57062
2.56974
2.56821
2.56654
2.56433
2.56178
2.55881
2.55588
2.55239
2.54921
2.54453
2.56995
2.56911
2.56841
2.56708
2.56597
2.56426
2.56241
2.56005
2.55739
2.55434
2.55123
2.54766
2.54445
2.54014
2.56632
2.56568
2.5649
2.56359
2.5623
2.56044
2.55842
2.55597
2.55332
2.55041
2.54745
2.54409
2.5409
2.53678
2.56233
2.56193
2.56096
2.5596
2.55809
2.55607
2.55389
2.55135
2.54866
2.54578
2.54284
2.53961
2.53646
2.53254
2.55809
2.55789
2.55682
2.5554
2.5537
2.55157
2.54925
2.54666
2.54398
2.54118
2.53834
2.53527
2.53218
2.5284
2.55378
2.55343
2.55238
2.55086
2.54906
2.54683
2.54442
2.54179
2.53909
2.53633
2.53354
2.53056
2.52749
2.52387
2.54912
2.54855
2.54767
2.54609
2.54425
2.54199
2.53954
2.53693
2.53426
2.53156
2.5288
2.52591
2.52283
2.51943
2.54398
2.54332
2.54267
2.5411
2.53929
2.53707
2.53462
2.53206
2.52941
2.52673
2.52393
2.52109
2.5179
2.51475
2.5386
2.5378
2.53736
2.53587
2.53409
2.53201
2.52965
2.52719
2.5246
2.52196
2.51913
2.51637
2.51306
2.5102
2.533
2.53209
2.53186
2.53054
2.52888
2.52701
2.52475
2.52239
2.51983
2.51717
2.51423
2.51144
2.50786
2.50523
2.52746
2.5265
2.5263
2.52514
2.52355
2.52189
2.51973
2.51745
2.5149
2.51224
2.50927
2.50652
2.50279
2.5005
2.52174
2.52104
2.5209
2.51989
2.51836
2.51685
2.51478
2.51257
2.51
2.50728
2.50423
2.50123
2.4973
2.49493
2.51656
2.51604
2.5157
2.51468
2.5132
2.51175
2.50957
2.50724
2.50449
2.5016
2.49846
2.49525
2.4918
2.4888
2.51128
2.51114
2.51127
2.51001
2.50831
2.50668
2.50435
2.50195
2.49907
2.49607
2.4927
2.48906
2.48518
2.48146
2.62377
2.62196
2.6211
2.6198
2.61881
2.61759
2.61638
2.61502
2.61352
2.61183
2.61009
2.60815
2.60634
2.60379
2.61904
2.61795
2.61709
2.61573
2.61463
2.61331
2.61196
2.61046
2.60886
2.6071
2.60529
2.6033
2.60139
2.5987
2.61493
2.61415
2.61314
2.61177
2.61053
2.6091
2.60766
2.6061
2.6045
2.60282
2.60112
2.59927
2.59742
2.59488
2.61051
2.60995
2.60884
2.60745
2.60609
2.60456
2.60302
2.60139
2.59977
2.59812
2.59647
2.59469
2.59287
2.59053
2.60613
2.60555
2.60444
2.60301
2.60157
2.59997
2.59836
2.59671
2.5951
2.59353
2.59196
2.59031
2.58856
2.58643
2.6017
2.60094
2.59989
2.59845
2.59694
2.59529
2.59362
2.59196
2.59037
2.58884
2.58734
2.58578
2.58408
2.58208
2.59704
2.59616
2.59526
2.59386
2.59233
2.59066
2.58897
2.58734
2.58577
2.5843
2.58285
2.58136
2.57969
2.57783
2.59235
2.59142
2.59067
2.58932
2.58778
2.58613
2.58444
2.58282
2.58125
2.57979
2.57834
2.57688
2.5752
2.57347
2.58757
2.58666
2.58604
2.58481
2.5833
2.58172
2.58007
2.57846
2.57689
2.57541
2.57393
2.57248
2.57073
2.56914
2.58314
2.58224
2.58168
2.58058
2.57908
2.57757
2.57593
2.57429
2.57265
2.57107
2.5695
2.56799
2.56608
2.56464
2.57858
2.57789
2.57727
2.57633
2.5749
2.57348
2.57184
2.57017
2.56845
2.56679
2.56513
2.56359
2.56152
2.56025
2.57463
2.57404
2.57336
2.57248
2.57102
2.56961
2.56791
2.56615
2.56429
2.56247
2.56061
2.55888
2.55665
2.55541
2.57057
2.57027
2.56934
2.56853
2.56703
2.56562
2.56381
2.5619
2.55988
2.55792
2.55593
2.55404
2.552
2.55039
2.56671
2.56665
2.56591
2.565
2.56319
2.56168
2.55975
2.55773
2.55556
2.55342
2.55111
2.54885
2.54646
2.54437
2.66592
2.66435
2.66356
2.66241
2.66143
2.6604
2.65947
2.65859
2.65779
2.65702
2.65635
2.65562
2.65509
2.65418
2.66107
2.66002
2.65917
2.65798
2.65695
2.65588
2.65491
2.654
2.65318
2.65239
2.65169
2.65095
2.65027
2.64922
2.65689
2.65603
2.65503
2.65379
2.65268
2.65158
2.65059
2.6497
2.64892
2.64822
2.64759
2.64693
2.64627
2.64521
2.65269
2.65186
2.65081
2.64954
2.64836
2.64721
2.64619
2.64528
2.64451
2.64385
2.64325
2.64264
2.64194
2.64096
2.64875
2.64783
2.64675
2.64545
2.64421
2.64302
2.64197
2.64107
2.64033
2.63973
2.63919
2.63865
2.63798
2.63709
2.64488
2.64385
2.64278
2.64146
2.64016
2.63893
2.63785
2.63694
2.63621
2.63564
2.63513
2.63464
2.634
2.63326
2.64113
2.64002
2.63898
2.63767
2.63634
2.63507
2.63397
2.63306
2.63233
2.63177
2.63129
2.63087
2.63029
2.62967
2.63751
2.63637
2.63538
2.6341
2.63274
2.63145
2.6303
2.62936
2.62859
2.62803
2.62756
2.62718
2.62663
2.62613
2.63411
2.633
2.63203
2.63078
2.6294
2.62809
2.62689
2.6259
2.62508
2.62449
2.62399
2.62364
2.62311
2.62274
2.631
2.62993
2.62895
2.62772
2.62632
2.625
2.62374
2.62267
2.62176
2.6211
2.62054
2.62016
2.61959
2.61939
2.628
2.62702
2.62599
2.62481
2.62341
2.62207
2.62076
2.61962
2.61862
2.61787
2.61722
2.61679
2.61615
2.61617
2.62547
2.62451
2.62337
2.62216
2.6207
2.61933
2.61794
2.61671
2.6156
2.61474
2.61396
2.61343
2.61269
2.61281
2.62263
2.62183
2.62055
2.61936
2.61789
2.61652
2.61508
2.61379
2.61261
2.61167
2.61082
2.61023
2.60947
2.60947
2.62064
2.61955
2.61826
2.61695
2.61527
2.61385
2.61233
2.611
2.60972
2.60866
2.60762
2.6068
2.60582
2.60597
2.69557
2.6949
2.69441
2.69375
2.69314
2.69254
2.69204
2.69165
2.69141
2.6913
2.69134
2.69132
2.69157
2.69108
2.69188
2.69126
2.69064
2.6899
2.68921
2.68855
2.68801
2.6876
2.68735
2.68724
2.68724
2.68725
2.68734
2.68693
2.68861
2.68801
2.68722
2.68637
2.68558
2.68484
2.68424
2.68383
2.6836
2.68354
2.68359
2.68365
2.68374
2.6833
2.68542
2.68468
2.68382
2.68288
2.68201
2.6812
2.68056
2.68013
2.67989
2.67984
2.67988
2.67996
2.67998
2.67968
2.68247
2.68164
2.6807
2.67966
2.67869
2.67782
2.67715
2.67671
2.67648
2.67645
2.6765
2.6766
2.67662
2.67642
2.67962
2.67869
2.6777
2.6766
2.67554
2.67462
2.67391
2.67345
2.67321
2.67318
2.67322
2.67334
2.67332
2.67327
2.67693
2.67593
2.67492
2.67376
2.67265
2.67168
2.67092
2.67045
2.6702
2.67018
2.67024
2.67038
2.67038
2.67042
2.67437
2.67332
2.6723
2.67113
2.66997
2.66896
2.66816
2.66766
2.66738
2.66736
2.66741
2.66758
2.6676
2.66774
2.67194
2.67089
2.66987
2.6687
2.66753
2.66649
2.66564
2.6651
2.66478
2.66474
2.66479
2.665
2.66505
2.66532
2.66965
2.66862
2.66761
2.66647
2.66529
2.66423
2.66335
2.66277
2.66239
2.66231
2.66233
2.66255
2.66262
2.66303
2.66748
2.66649
2.66547
2.66437
2.6632
2.66215
2.66126
2.66064
2.6602
2.66005
2.66003
2.66025
2.66032
2.66085
2.66545
2.6645
2.66345
2.66238
2.66123
2.66021
2.65933
2.65869
2.65819
2.65797
2.65789
2.65807
2.65807
2.65868
2.66333
2.6624
2.66134
2.66034
2.65926
2.65831
2.65747
2.65683
2.65631
2.65603
2.65589
2.65603
2.656
2.65657
2.66182
2.66054
2.65947
2.65847
2.65738
2.65649
2.65571
2.65511
2.65459
2.65428
2.654
2.65397
2.65374
2.65459
2.71325
2.7134
2.71334
2.71326
2.71322
2.71319
2.71322
2.71333
2.71351
2.71373
2.71407
2.7143
2.71482
2.71459
2.71074
2.71082
2.71069
2.71052
2.71039
2.7103
2.71026
2.71031
2.71043
2.71063
2.71092
2.71116
2.71155
2.71146
2.70853
2.70865
2.70838
2.70808
2.70782
2.70761
2.70748
2.70747
2.70755
2.70773
2.70801
2.70824
2.70864
2.70853
2.70635
2.70631
2.706
2.70562
2.70527
2.70499
2.70479
2.70473
2.70476
2.70492
2.70515
2.70537
2.70568
2.70565
2.70438
2.70421
2.70382
2.70336
2.70291
2.70255
2.70229
2.70217
2.70218
2.70231
2.70251
2.70272
2.70297
2.70301
2.70244
2.70211
2.70168
2.70115
2.70065
2.70023
2.69992
2.69977
2.69973
2.69984
2.69998
2.7002
2.70038
2.7005
2.7006
2.70016
2.69967
2.6991
2.69854
2.69807
2.69772
2.69754
2.69747
2.69756
2.69768
2.69789
2.69804
2.69823
2.6988
2.69829
2.69777
2.69716
2.69656
2.69606
2.69567
2.69546
2.69536
2.69543
2.69553
2.69575
2.69588
2.69616
2.69709
2.69652
2.69598
2.69534
2.69472
2.69419
2.69376
2.69354
2.69341
2.69347
2.69355
2.69379
2.69392
2.6943
2.69542
2.69483
2.69429
2.69365
2.69302
2.69246
2.69202
2.69177
2.69162
2.69166
2.69172
2.69199
2.69213
2.69261
2.69384
2.69325
2.6927
2.69208
2.69144
2.69089
2.69043
2.69016
2.68997
2.68999
2.69004
2.69033
2.69047
2.69105
2.69232
2.69176
2.6912
2.6906
2.68999
2.68946
2.68902
2.68874
2.68851
2.6885
2.68852
2.6888
2.68891
2.68956
2.69081
2.69025
2.68971
2.6892
2.68865
2.68819
2.68777
2.68749
2.68722
2.68715
2.68714
2.68739
2.6875
2.68813
2.68969
2.68893
2.68844
2.68795
2.68744
2.68703
2.68667
2.6864
2.68612
2.686
2.6859
2.68604
2.68597
2.68684
2.72324
2.72377
2.72409
2.72449
2.7249
2.72535
2.7258
2.72625
2.7267
2.72709
2.72757
2.72791
2.72849
2.72858
2.72148
2.72202
2.72232
2.72271
2.72311
2.72353
2.72394
2.72434
2.72474
2.7251
2.72552
2.72587
2.72637
2.72656
2.72003
2.7206
2.72085
2.72119
2.72152
2.72186
2.72219
2.72252
2.72286
2.72316
2.72355
2.72385
2.72438
2.72456
2.7185
2.719
2.71926
2.71958
2.71988
2.72019
2.72048
2.72077
2.72105
2.72132
2.72163
2.72192
2.72239
2.72264
2.71713
2.71756
2.71781
2.7181
2.71835
2.7186
2.71883
2.71906
2.71929
2.71951
2.71977
2.72002
2.72045
2.72074
2.71574
2.71608
2.71635
2.7166
2.71682
2.71703
2.71722
2.71742
2.71759
2.71779
2.71799
2.71823
2.71858
2.71892
2.71446
2.71472
2.71495
2.71515
2.71533
2.71551
2.71565
2.71581
2.71594
2.71611
2.71627
2.7165
2.71678
2.71717
2.71322
2.7134
2.71359
2.71375
2.71388
2.71402
2.71412
2.71426
2.71436
2.71451
2.71464
2.71486
2.71508
2.71552
2.71205
2.71214
2.71228
2.71239
2.71248
2.71257
2.71263
2.71274
2.71281
2.71295
2.71305
2.71329
2.71347
2.71396
2.71096
2.71096
2.71104
2.71111
2.71115
2.71119
2.71121
2.71129
2.71133
2.71145
2.71153
2.71178
2.71193
2.71248
2.70991
2.70986
2.7099
2.70992
2.70991
2.70991
2.70987
2.7099
2.7099
2.71
2.71006
2.71032
2.71046
2.71104
2.70897
2.70887
2.70886
2.70884
2.70878
2.70873
2.70865
2.70863
2.70857
2.70864
2.70866
2.70891
2.70902
2.70962
2.70805
2.70794
2.70789
2.70787
2.70779
2.7077
2.70757
2.7075
2.70736
2.70736
2.70735
2.70757
2.70766
2.70822
2.70736
2.70712
2.7071
2.70704
2.70691
2.70678
2.70661
2.70646
2.70623
2.70614
2.70605
2.70617
2.70612
2.70671
2.72942
2.73001
2.73038
2.73085
2.73134
2.73186
2.73239
2.73291
2.73345
2.73392
2.73446
2.73489
2.73552
2.73586
2.72803
2.72864
2.72905
2.72957
2.73009
2.73064
2.73118
2.7317
2.73222
2.73268
2.73319
2.73363
2.73422
2.73465
2.72688
2.72755
2.72796
2.72848
2.729
2.72953
2.73005
2.73053
2.73101
2.73141
2.73191
2.73231
2.73293
2.73337
2.72568
2.72633
2.72678
2.72732
2.72786
2.72841
2.72892
2.7294
2.72985
2.73024
2.7307
2.7311
2.73169
2.73218
2.72465
2.72526
2.72573
2.72627
2.7268
2.72733
2.72782
2.72826
2.72868
2.72904
2.72946
2.72984
2.73043
2.73096
2.7236
2.72416
2.72465
2.72518
2.72571
2.72623
2.7267
2.72713
2.72752
2.72787
2.72826
2.72865
2.72921
2.72979
2.72264
2.72314
2.72362
2.72413
2.72463
2.72512
2.72556
2.72598
2.72634
2.72669
2.72705
2.72745
2.72796
2.72859
2.72177
2.72218
2.72262
2.72308
2.72355
2.72401
2.72442
2.72482
2.72516
2.72551
2.72584
2.72626
2.72672
2.72739
2.72093
2.72126
2.72164
2.72206
2.72247
2.72289
2.72327
2.72364
2.72395
2.7243
2.72462
2.72506
2.72548
2.72619
2.72019
2.72043
2.72074
2.72109
2.72143
2.72179
2.72212
2.72246
2.72274
2.72309
2.72338
2.72383
2.72421
2.72497
2.7195
2.71966
2.7199
2.72018
2.72045
2.72074
2.721
2.72129
2.72153
2.72185
2.72211
2.72257
2.72292
2.72371
2.71891
2.71898
2.71915
2.71933
2.71952
2.71972
2.71991
2.72013
2.72031
2.72059
2.72081
2.72127
2.72158
2.7224
2.71836
2.71838
2.71845
2.71857
2.71867
2.71879
2.71888
2.71903
2.71913
2.71935
2.71953
2.71996
2.72028
2.72106
2.71781
2.71775
2.7178
2.71782
2.71784
2.71787
2.71788
2.71792
2.71792
2.71805
2.71816
2.7185
2.71875
2.71947
2.73358
2.73403
2.73425
2.73454
2.73484
2.73517
2.73554
2.73592
2.73636
2.73679
2.7373
2.73777
2.7384
2.73884
2.73233
2.73277
2.73304
2.73338
2.73372
2.73409
2.73449
2.73489
2.73534
2.73578
2.7363
2.73678
2.7374
2.7379
2.73128
2.73172
2.73199
2.73235
2.7327
2.73308
2.73348
2.73388
2.73432
2.73473
2.73525
2.73571
2.73638
2.73687
2.73021
2.7306
2.73091
2.73129
2.73167
2.73208
2.7325
2.73291
2.73335
2.73378
2.7343
2.73478
2.73545
2.73599
2.72928
2.72962
2.72994
2.73032
2.73071
2.73112
2.73153
2.73194
2.73237
2.73279
2.73331
2.7338
2.73448
2.73509
2.72839
2.72867
2.72899
2.72936
2.72975
2.73016
2.73057
2.73098
2.73141
2.73184
2.73236
2.73289
2.73357
2.73424
2.72758
2.7278
2.72809
2.72845
2.72883
2.72923
2.72963
2.73003
2.73045
2.7309
2.73142
2.73199
2.73266
2.73339
2.72686
2.72702
2.72727
2.72758
2.72794
2.72831
2.72869
2.72909
2.72951
2.72997
2.73049
2.73108
2.73175
2.73254
2.72617
2.72626
2.72646
2.72673
2.72704
2.7274
2.72777
2.72817
2.72859
2.72908
2.72958
2.73021
2.73086
2.73171
2.72554
2.72557
2.7257
2.72591
2.72618
2.7265
2.72685
2.72725
2.72767
2.72817
2.72867
2.72932
2.72995
2.73086
2.72492
2.72488
2.72494
2.7251
2.72533
2.72562
2.72594
2.72634
2.72675
2.72727
2.72778
2.72844
2.72906
2.73001
2.72428
2.72419
2.72421
2.72431
2.72449
2.72474
2.72504
2.72542
2.72582
2.72633
2.72684
2.72755
2.72816
2.72915
2.72363
2.72351
2.7235
2.72353
2.72366
2.72387
2.72413
2.72449
2.72488
2.72539
2.72592
2.72665
2.72732
2.72832
2.72282
2.72269
2.72267
2.72269
2.7228
2.72299
2.72323
2.72354
2.72388
2.72435
2.72485
2.72552
2.72621
2.72718
2.73578
2.73602
2.73604
2.73611
2.73621
2.73636
2.73656
2.73681
2.73713
2.73748
2.73793
2.73838
2.73899
2.73947
2.73461
2.73482
2.73484
2.73492
2.73503
2.73518
2.73539
2.73566
2.73601
2.73639
2.73687
2.73733
2.73794
2.73838
2.73359
2.73375
2.73373
2.7338
2.7339
2.73406
2.73427
2.73453
2.73488
2.73524
2.73572
2.73616
2.73682
2.73729
2.73258
2.73266
2.73265
2.73271
2.7328
2.73297
2.73318
2.73346
2.73382
2.73421
2.73471
2.73518
2.73583
2.73635
2.73165
2.73169
2.73165
2.73169
2.73177
2.73194
2.73215
2.73243
2.73279
2.73318
2.73369
2.73419
2.73485
2.73543
2.73078
2.73075
2.7307
2.73072
2.73078
2.73095
2.73117
2.73146
2.73182
2.73223
2.73274
2.73327
2.73395
2.7346
2.72995
2.72985
2.72978
2.72979
2.72986
2.73002
2.73025
2.73054
2.73091
2.73135
2.73187
2.73244
2.73313
2.73384
2.72919
2.72903
2.72895
2.72894
2.729
2.72916
2.72938
2.72969
2.73007
2.73052
2.73105
2.73166
2.73235
2.73312
2.72843
2.72822
2.72814
2.72812
2.72818
2.72834
2.72857
2.72889
2.72929
2.72978
2.73034
2.731
2.7317
2.73252
2.72769
2.72747
2.72738
2.72735
2.72742
2.72758
2.72783
2.72816
2.72857
2.72908
2.72966
2.73035
2.73108
2.73195
2.72694
2.72671
2.72663
2.7266
2.72667
2.72685
2.72711
2.72748
2.72792
2.72848
2.7291
2.72985
2.73061
2.73152
2.72616
2.72594
2.72589
2.72588
2.72597
2.72617
2.72646
2.72686
2.72732
2.72791
2.72855
2.72935
2.73014
2.73113
2.72537
2.72518
2.72514
2.72515
2.72528
2.72551
2.72583
2.72628
2.72681
2.72746
2.72816
2.729
2.72985
2.73082
2.72436
2.7243
2.72433
2.7244
2.72459
2.72486
2.72524
2.72571
2.72626
2.72694
2.72769
2.72855
2.72942
2.73042
2.7366
2.73663
2.73656
2.73652
2.73652
2.73659
2.73671
2.73688
2.73712
2.73743
2.73783
2.73828
2.73886
2.73934
2.73557
2.73558
2.73546
2.73536
2.73531
2.73534
2.73545
2.73562
2.73588
2.73621
2.73664
2.73708
2.73767
2.73807
2.73461
2.73454
2.73434
2.73422
2.73413
2.73413
2.73423
2.73439
2.73464
2.73495
2.73538
2.73581
2.73642
2.73685
2.73363
2.73348
2.73324
2.73308
2.73296
2.73295
2.73304
2.73321
2.73348
2.73381
2.73426
2.73469
2.73529
2.73574
2.73268
2.73246
2.73217
2.73199
2.73187
2.73185
2.73195
2.73213
2.7324
2.73274
2.73317
2.73362
2.73421
2.7347
2.73174
2.73146
2.73116
2.73097
2.73084
2.73083
2.73092
2.73112
2.7314
2.73176
2.7322
2.73266
2.73324
2.73379
2.73082
2.7305
2.7302
2.73001
2.72989
2.72988
2.72999
2.7302
2.7305
2.73089
2.73134
2.73184
2.73243
2.73303
2.72994
2.7296
2.72933
2.72915
2.72904
2.72903
2.72915
2.72937
2.72968
2.73009
2.73056
2.73111
2.73171
2.73236
2.72907
2.72874
2.72849
2.72834
2.72823
2.72826
2.72841
2.72865
2.72899
2.72944
2.72994
2.73053
2.73114
2.73182
2.72826
2.72795
2.72775
2.72762
2.72756
2.72761
2.72777
2.72802
2.72838
2.72885
2.72939
2.73002
2.73066
2.73138
2.72748
2.72719
2.72704
2.72693
2.72692
2.72701
2.72722
2.72754
2.72795
2.72847
2.72904
2.7297
2.73038
2.73111
2.72669
2.72647
2.72639
2.72636
2.72641
2.72655
2.72681
2.72717
2.7276
2.72815
2.72878
2.72948
2.73021
2.73097
2.72594
2.72582
2.7258
2.72583
2.72594
2.72614
2.72646
2.72691
2.72745
2.72808
2.72876
2.7295
2.73027
2.73103
2.72508
2.72513
2.72523
2.72537
2.72557
2.72587
2.72627
2.72679
2.72737
2.72804
2.72872
2.72946
2.73024
2.73109
2.7367
2.73664
2.73655
2.73647
2.73645
2.73647
2.73654
2.73666
2.73684
2.73708
2.73738
2.73773
2.7382
2.73861
2.7359
2.7358
2.73564
2.73553
2.73544
2.73541
2.73544
2.73554
2.73571
2.73594
2.73625
2.73658
2.73705
2.73736
2.7351
2.73494
2.73471
2.73456
2.73442
2.73435
2.73434
2.73441
2.73454
2.73475
2.73504
2.73536
2.73583
2.73616
2.73424
2.73403
2.73375
2.73356
2.73339
2.73328
2.73325
2.73331
2.73344
2.73364
2.73392
2.73423
2.73469
2.73503
2.73334
2.73309
2.73278
2.73257
2.73237
2.73224
2.7322
2.73226
2.73238
2.73259
2.73287
2.73319
2.73364
2.73401
2.73242
2.73214
2.73183
2.7316
2.73138
2.73125
2.73121
2.73127
2.73141
2.73162
2.73191
2.73224
2.73266
2.73306
2.7315
2.7312
2.73089
2.73064
2.73043
2.73031
2.73029
2.73037
2.73053
2.73076
2.73106
2.73141
2.73182
2.73226
2.73061
2.73029
2.73001
2.72976
2.72958
2.72948
2.72948
2.72957
2.72974
2.73
2.73031
2.73069
2.7311
2.73157
2.72973
2.7294
2.72914
2.72893
2.7288
2.72874
2.72877
2.7289
2.7291
2.72939
2.72972
2.73013
2.73055
2.73104
2.7289
2.7286
2.72841
2.72825
2.72816
2.72814
2.72821
2.72836
2.7286
2.72891
2.72927
2.7297
2.73014
2.73064
2.72809
2.72785
2.72774
2.72765
2.72764
2.72767
2.7278
2.72801
2.72828
2.72863
2.72901
2.72945
2.7299
2.73038
2.7274
2.72726
2.72724
2.72722
2.72727
2.72736
2.72753
2.72778
2.7281
2.72847
2.72887
2.72932
2.72978
2.73027
2.72683
2.72673
2.72677
2.72684
2.727
2.72719
2.72744
2.72775
2.72811
2.72852
2.72895
2.72941
2.72985
2.73033
2.72633
2.7264
2.72651
2.72668
2.72692
2.72723
2.72755
2.72792
2.72829
2.72871
2.72914
2.7296
2.73009
2.73059
2.73579
2.73572
2.73563
2.7356
2.7356
2.73565