/*--------------------------------*- C++ -*----------------------------------*\
| =========                 |                                                 |
| \\      /  F ield         | OpenFOAM: The Open Source CFD Toolbox           |
|  \\    /   O peration     | Version:  v2106                                 |
|   \\  /    A nd           | Website:  www.openfoam.com                      |
|    \\/     M anipulation  |                                                 |
\*---------------------------------------------------------------------------*/
FoamFile
{
    version     2.0;
    format      ascii;
    arch        "LSB;label=32;scalar=64";
    class       volScalarField;
    location    "0.000191";
    object      Ttot;
}
// * * * * * * * * * * * * * * * * * * * * * * * * * * * * * * * * * * * * * //

dimensions      [0 0 0 1 0 0 0];

internalField   nonuniform List<scalar> 
18109
(
299.328
299.178
299.035
298.878
298.689
298.479
298.27
299.226
299.08
298.914
298.728
298.53
298.321
298.113
299.163
298.984
298.785
298.575
298.368
298.157
297.95
299.113
298.91
298.687
298.453
298.228
298.006
297.787
299.065
298.838
298.591
298.342
298.105
297.874
297.641
298.989
298.739
298.479
298.227
297.987
297.748
297.503
298.874
298.61
298.346
298.098
297.86
297.617
297.36
298.722
298.456
298.197
297.955
297.719
297.471
297.207
299.448
299.305
299.159
298.987
298.778
298.549
298.334
298.121
297.918
297.703
297.492
297.272
297.067
296.792
299.372
299.216
299.035
298.832
298.613
298.381
298.165
297.951
297.749
297.534
297.318
297.104
296.921
296.706
299.316
299.123
298.913
298.687
298.458
298.223
298.006
297.794
297.593
297.384
297.171
296.971
296.802
296.639
299.259
299.041
298.807
298.563
298.325
298.088
297.861
297.641
297.431
297.22
297.012
296.823
296.669
296.535
299.171
298.936
298.691
298.446
298.207
297.972
297.738
297.505
297.279
297.056
296.847
296.671
296.533
296.422
299.044
298.799
298.555
298.323
298.094
297.863
297.623
297.375
297.132
296.897
296.685
296.512
296.381
296.276
298.88
298.637
298.401
298.185
297.971
297.743
297.497
297.237
296.982
296.737
296.523
296.353
296.225
296.116
298.696
298.461
298.24
298.037
297.83
297.602
297.351
297.085
296.823
296.577
296.362
296.192
296.053
295.928
298.513
298.284
298.076
297.878
297.671
297.441
297.188
296.921
296.659
296.417
296.201
296.026
295.872
295.721
298.34
298.121
297.92
297.722
297.507
297.272
297.019
296.754
296.491
296.255
296.044
295.865
295.694
295.525
298.186
297.975
297.781
297.582
297.365
297.124
296.866
296.6
296.335
296.106
295.893
295.705
295.508
295.336
298.03
297.84
297.661
297.468
297.248
297.009
296.753
296.493
296.229
295.997
295.77
295.568
295.347
295.163
297.911
297.708
297.546
297.37
297.168
296.95
296.706
296.458
296.194
295.953
295.704
295.47
295.216
295.003
297.732
297.539
297.419
297.265
297.089
296.9
296.686
296.467
296.217
295.982
295.72
295.463
295.185
294.88
299.376
299.434
299.408
299.337
299.098
298.717
299.471
299.529
299.508
299.445
299.204
298.827
299.407
299.475
299.444
299.342
299.061
298.729
299.287
299.383
299.357
299.232
298.947
298.669
299.133
299.256
299.239
299.113
298.886
298.676
298.933
299.07
299.064
298.974
298.838
298.735
298.706
298.842
298.857
298.853
298.783
298.735
298.477
298.614
298.662
298.709
298.687
298.659
298.242
298.364
298.428
298.498
298.473
298.434
298.023
298.127
298.18
298.245
298.193
298.12
297.794
297.872
297.896
297.925
297.798
297.639
297.564
297.605
297.594
297.563
297.337
296.96
297.325
297.311
297.245
297.109
296.722
296.054
297.104
297.007
296.853
296.562
296.003
295.057
296.803
296.64
296.37
295.867
295.117
294.118
296.672
296.53
296.192
295.576
294.602
293.506
296.609
296.429
296.006
295.266
294.203
293.114
296.524
296.365
295.917
295.158
294.059
293.007
296.404
296.238
295.781
295.054
294.036
293.101
296.283
296.09
295.636
294.974
294.094
293.312
296.118
295.884
295.438
294.831
294.129
293.483
295.932
295.655
295.211
294.642
294.081
293.518
295.71
295.406
294.981
294.462
293.955
293.412
295.489
295.173
294.787
294.348
293.837
293.158
295.272
294.956
294.607
294.205
293.638
292.765
295.076
294.773
294.49
294.098
293.419
292.303
294.91
294.619
294.305
293.829
293.035
291.773
294.788
294.505
294.2
293.653
292.767
291.451
294.663
294.394
294.062
293.433
292.465
291.323
294.799
294.571
294.259
293.682
292.813
291.704
295.165
294.965
294.611
293.978
293.117
292.028
295.443
295.306
295.002
294.438
293.607
292.614
295.737
295.653
295.395
294.909
294.145
293.322
296.02
295.97
295.781
295.389
294.754
294.158
296.262
296.225
296.094
295.785
295.292
294.889
296.486
296.461
296.35
296.086
295.698
295.428
296.67
296.629
296.491
296.261
295.922
295.672
296.854
296.78
296.604
296.365
296.043
295.779
297.009
296.906
296.705
296.455
296.123
295.782
297.157
297.043
296.839
296.579
296.229
295.752
297.303
297.188
297.01
296.746
296.374
295.74
297.427
297.342
297.212
296.973
296.581
295.874
297.646
297.57
297.459
297.225
296.785
296.069
299.268
299.48
299.536
299.558
299.541
299.592
299.289
299.463
299.495
299.513
299.454
299.351
299.302
299.435
299.455
299.45
299.352
299.046
299.451
299.512
299.482
299.43
299.215
298.821
297.767
297.69
297.628
297.429
296.995
296.356
298.04
298.035
298.018
297.834
297.397
296.812
298.196
298.26
298.275
298.146
297.794
297.389
298.392
298.511
298.571
298.499
298.266
298.066
298.563
298.73
298.844
298.844
298.718
298.721
298.755
298.968
299.125
299.207
299.154
299.243
298.944
299.184
299.365
299.513
299.518
299.618
299.127
299.385
299.566
299.724
299.753
299.855
299.273
299.539
299.698
299.818
299.846
299.975
299.369
299.624
299.747
299.834
299.853
299.978
299.417
299.645
299.738
299.793
299.788
299.888
299.442
299.634
299.687
299.73
299.688
299.66
299.437
299.581
299.611
299.622
299.534
299.302
299.57
299.627
299.59
299.536
299.346
298.975
297.969
296.878
298.387
304.426
311.136
297.986
297.293
299.301
305.1
310.076
298.107
297.939
300.477
305.571
309.961
298.408
298.727
301.359
305.021
307.503
298.624
299.39
301.795
304.94
306.749
298.636
299.273
300.995
303.976
306.856
298.611
298.806
299.667
302.424
305.722
298.176
297.692
298.048
301.713
306.002
305.68
297.511
296.405
296.857
301.451
306.243
306.743
296.565
294.569
295.314
301.075
307.458
309.097
295.347
292.851
294.095
300.547
307.054
309.153
307.534
294.13
291.505
293.002
299.321
305.764
307.785
306.27
304.546
292.987
290.52
292.185
297.897
303.836
305.486
304.965
308.378
292.027
289.945
292.011
297.369
302.826
304.334
303.848
301.563
291.442
289.878
292.439
297.592
302.41
303.71
302.579
297.684
291.274
290.288
293.229
297.802
301.956
302.986
300.996
298.465
291.379
291.095
294.122
297.964
301.348
301.227
300.429
296.87
291.792
292.097
294.888
297.343
299.9
300.373
298.952
293.591
292.261
292.901
294.967
297.257
299.755
299.752
298.339
291.814
292.666
293.047
293.934
296.743
300.6
301.038
298.027
293.362
292.724
292.495
292.204
295.338
299.734
300.063
298.776
294.005
292.363
291.009
290.866
295.559
301.157
301.952
298.139
294.788
291.754
289.449
290.082
295.596
300.551
300.932
290.859
287.946
289.252
296.027
301.814
302.244
289.932
286.924
288.511
295.298
301.341
302.535
289.171
286.23
287.701
294.736
301.722
302.906
288.765
285.931
287.256
293.26
299.297
300.394
288.843
286.197
287.636
293.271
299.149
289.471
287.185
289.083
294.518
299.306
290.236
288.654
290.838
295.142
298.656
291.18
290.297
292.643
295.603
298.435
292.248
291.933
294.031
295.93
299.192
293.298
293.26
294.897
296.395
299.8
294.219
294.183
295.073
296.467
301.267
294.871
294.656
294.498
296.154
301.342
295.119
294.561
293.586
296.431
303.271
295.085
294.162
292.961
297.096
304.299
294.85
293.294
292.12
297.161
306.152
294.562
292.354
291.378
296.37
305.568
294.268
291.708
290.837
296.029
305.953
294.246
291.566
290.982
295.702
303.895
294.538
292.188
292.162
297.238
304.459
295.107
293.275
294.067
299.15
305.213
295.865
294.678
296.155
300.221
304.089
296.81
296.269
298.04
300.764
303.72
297.8
297.785
299.39
301.303
303.543
298.659
298.956
300.248
301.913
304.028
299.272
299.556
300.411
301.971
304.811
299.663
299.829
299.968
301.667
304.579
299.855
299.863
299.5
302.004
305.832
299.789
299.471
298.996
302.537
307.429
299.554
298.917
298.385
302.801
309.264
299.192
298.217
297.776
302.48
309.546
298.694
297.478
297.307
301.986
309.495
298.279
296.972
297.325
301.817
309.078
298.034
296.763
297.724
302.755
309.267
299.847
299.732
299.59
299.399
299.191
298.969
298.769
298.569
298.386
298.203
298.034
297.837
297.65
297.404
299.782
299.625
299.444
299.228
299.009
298.785
298.585
298.385
298.204
298.012
297.833
297.634
297.465
297.287
299.687
299.504
299.302
299.068
298.841
298.616
298.419
298.226
298.049
297.861
297.682
297.493
297.333
297.185
299.556
299.363
299.147
298.914
298.684
298.465
298.271
298.077
297.893
297.699
297.515
297.335
297.186
297.061
299.382
299.186
298.972
298.757
298.539
298.332
298.141
297.946
297.754
297.551
297.358
297.182
297.045
296.939
299.181
298.987
298.786
298.594
298.393
298.199
298.01
297.812
297.61
297.399
297.199
297.025
296.892
296.792
298.971
298.78
298.593
298.422
298.239
298.057
297.869
297.669
297.462
297.246
297.042
296.873
296.741
296.638
298.761
298.575
298.404
298.245
298.076
297.899
297.712
297.509
297.296
297.08
296.876
296.712
296.576
296.465
298.562
298.381
298.22
298.066
297.903
297.725
297.534
297.329
297.114
296.905
296.708
296.545
296.404
296.282
298.39
298.214
298.057
297.895
297.725
297.54
297.344
297.14
296.926
296.729
296.543
296.388
296.234
296.096
298.243
298.07
297.909
297.74
297.562
297.365
297.157
296.95
296.74
296.552
296.37
296.216
296.042
295.903
298.103
297.938
297.78
297.606
297.412
297.213
297
296.791
296.579
296.395
296.214
296.054
295.862
295.713
297.976
297.799
297.649
297.489
297.301
297.113
296.9
296.693
296.476
296.287
296.095
295.911
295.683
295.502
297.771
297.612
297.505
297.355
297.187
297.028
296.845
296.656
296.433
296.232
296.019
295.814
295.587
295.302
300.388
300.268
300.177
300.03
299.899
299.729
299.572
299.391
299.229
299.062
298.927
298.753
298.607
298.421
300.249
300.105
299.981
299.825
299.684
299.509
299.355
299.186
299.027
298.849
298.705
298.531
298.408
298.249
300.128
299.973
299.821
299.646
299.495
299.322
299.169
299.007
298.859
298.691
298.555
298.389
298.269
298.132
299.951
299.807
299.643
299.474
299.318
299.154
299.008
298.846
298.693
298.519
298.376
298.217
298.104
297.989
299.783
299.645
299.477
299.323
299.165
299.014
298.873
298.717
298.56
298.382
298.228
298.066
297.95
297.855
299.608
299.464
299.309
299.168
299.02
298.876
298.74
298.583
298.418
298.233
298.066
297.905
297.784
297.697
299.433
299.278
299.135
298.999
298.866
298.726
298.597
298.443
298.274
298.088
297.917
297.761
297.639
297.551
299.252
299.101
298.963
298.83
298.711
298.571
298.444
298.29
298.117
297.931
297.754
297.599
297.467
297.367
299.072
298.922
298.784
298.648
298.533
298.388
298.258
298.102
297.927
297.75
297.581
297.438
297.306
297.198
298.915
298.756
298.625
298.472
298.353
298.199
298.064
297.911
297.741
297.578
297.41
297.271
297.11
296.999
298.763
298.584
298.461
298.296
298.169
298.004
297.857
297.699
297.528
297.374
297.207
297.071
296.893
296.793
298.584
298.417
298.307
298.137
298.003
297.831
297.676
297.519
297.351
297.204
297.039
296.892
296.689
296.558
298.363
298.237
298.139
297.984
297.861
297.697
297.531
297.365
297.188
297.037
296.862
296.686
296.459
296.309
298.129
298.041
297.974
297.842
297.731
297.593
297.439
297.286
297.103
296.94
296.747
296.542
296.284
296.04
301.462
301.357
301.313
301.21
301.132
301.013
300.909
300.772
300.634
300.477
300.346
300.188
300.072
299.919
301.267
301.159
301.08
300.968
300.883
300.765
300.657
300.524
300.388
300.232
300.098
299.94
299.835
299.712
301.112
301.008
300.907
300.789
300.695
300.57
300.458
300.323
300.192
300.047
299.922
299.776
299.677
299.554
300.921
300.832
300.721
300.611
300.505
300.381
300.264
300.127
299.991
299.843
299.716
299.575
299.482
299.372
300.744
300.657
300.539
300.437
300.326
300.206
300.086
299.95
299.811
299.663
299.533
299.395
299.306
299.209
300.556
300.469
300.356
300.256
300.151
300.033
299.91
299.772
299.627
299.475
299.338
299.204
299.112
299.028
300.364
300.264
300.16
300.056
299.962
299.849
299.727
299.59
299.443
299.292
299.151
299.024
298.926
298.851
300.162
300.045
299.961
299.848
299.767
299.656
299.534
299.4
299.25
299.1
298.952
298.83
298.718
298.647
299.951
299.823
299.75
299.627
299.549
299.442
299.32
299.19
299.044
298.904
298.76
298.653
298.535
298.471
299.742
299.612
299.547
299.412
299.333
299.225
299.106
298.986
298.848
298.718
298.573
298.467
298.326
298.253
299.537
299.39
299.332
299.196
299.115
299.009
298.885
298.768
298.634
298.51
298.365
298.267
298.115
298.054
299.335
299.193
299.148
299.012
298.924
298.818
298.694
298.583
298.456
298.339
298.198
298.086
297.907
297.838
299.11
298.981
298.946
298.837
298.758
298.66
298.527
298.406
298.27
298.146
297.999
297.863
297.68
297.566
298.889
298.816
298.799
298.691
298.614
298.53
298.411
298.292
298.153
298.029
297.881
297.714
297.494
297.276
302.729
302.635
302.603
302.521
302.474
302.397
302.334
302.25
302.153
302.035
301.923
301.789
301.699
301.574
302.547
302.471
302.404
302.31
302.249
302.163
302.087
301.994
301.894
301.778
301.665
301.535
301.455
301.355
302.374
302.304
302.223
302.129
302.054
301.961
301.877
301.778
301.676
301.565
301.459
301.345
301.268
301.174
302.194
302.131
302.036
301.947
301.861
301.763
301.67
301.565
301.457
301.344
301.239
301.132
301.055
300.967
302
301.945
301.846
301.76
301.67
301.571
301.472
301.362
301.251
301.137
301.033
300.932
300.859
300.784
301.803
301.744
301.65
301.561
301.474
301.375
301.272
301.158
301.044
300.928
300.824
300.728
300.658
300.595
301.599
301.525
301.445
301.353
301.271
301.174
301.069
300.956
300.841
300.728
300.625
300.536
300.467
300.415
301.378
301.301
301.24
301.143
301.064
300.968
300.864
300.753
300.639
300.528
300.426
300.343
300.269
300.228
301.159
301.076
301.026
300.927
300.846
300.755
300.652
300.547
300.438
300.334
300.236
300.164
300.088
300.058
300.953
300.858
300.819
300.722
300.637
300.551
300.45
300.351
300.246
300.146
300.047
299.978
299.89
299.865
300.761
300.651
300.615
300.528
300.436
300.354
300.25
300.154
300.054
299.96
299.864
299.804
299.711
299.704
300.573
300.474
300.446
300.365
300.265
300.184
300.082
299.99
299.89
299.797
299.696
299.619
299.506
299.504
300.394
300.315
300.274
300.208
300.117
300.04
299.927
299.825
299.716
299.617
299.518
299.432
299.332
299.278
300.22
300.165
300.147
300.073
299.988
299.92
299.815
299.716
299.607
299.507
299.397
299.273
299.125
298.975
304.286
304.18
304.133
304.055
304.006
303.951
303.908
303.863
303.816
303.762
303.706
303.64
303.588
303.524
304.072
303.994
303.934
303.852
303.795
303.733
303.679
303.625
303.571
303.512
303.455
303.391
303.346
303.289
303.88
303.816
303.743
303.663
303.598
303.531
303.473
303.414
303.357
303.299
303.245
303.189
303.15
303.107
303.678
303.624
303.545
303.467
303.398
303.328
303.265
303.201
303.141
303.082
303.028
302.977
302.94
302.9
303.474
303.421
303.344
303.267
303.198
303.128
303.062
302.996
302.934
302.876
302.824
302.778
302.744
302.711
303.271
303.211
303.14
303.063
302.996
302.926
302.858
302.791
302.728
302.67
302.621
302.579
302.547
302.522
303.067
302.997
302.937
302.862
302.796
302.727
302.658
302.592
302.53
302.474
302.427
302.389
302.361
302.345
302.868
302.793
302.742
302.669
302.601
302.532
302.463
302.397
302.336
302.282
302.236
302.201
302.176
302.168
302.671
302.598
302.551
302.48
302.41
302.343
302.275
302.211
302.151
302.098
302.054
302.023
301.999
302
302.504
302.426
302.381
302.312
302.238
302.17
302.1
302.036
301.975
301.921
301.875
301.844
301.816
301.825
302.335
302.263
302.217
302.155
302.076
302.008
301.936
301.869
301.807
301.753
301.709
301.679
301.647
301.667
302.206
302.142
302.093
302.033
301.946
301.875
301.797
301.725
301.657
301.597
301.544
301.505
301.459
301.479
302.059
302.03
301.965
301.917
301.831
301.758
301.67
301.587
301.51
301.445
301.39
301.348
301.308
301.29
301.933
301.914
301.866
301.823
301.735
301.665
301.577
301.492
301.409
301.335
301.262
301.192
301.117
301.039
305.717
305.632
305.592
305.533
305.488
305.445
305.412
305.385
305.366
305.349
305.34
305.328
305.326
305.315
305.492
305.43
305.384
305.325
305.276
305.23
305.194
305.163
305.14
305.122
305.109
305.097
305.09
305.079
305.295
305.242
305.188
305.128
305.077
305.031
304.994
304.963
304.941
304.924
304.914
304.905
304.901
304.892
305.101
305.05
304.993
304.933
304.881
304.833
304.795
304.763
304.74
304.723
304.713
304.704
304.7
304.697
304.917
304.863
304.806
304.746
304.693
304.645
304.606
304.574
304.552
304.536
304.527
304.522
304.519
304.521
304.741
304.681
304.626
304.566
304.512
304.463
304.422
304.39
304.367
304.352
304.343
304.34
304.339
304.345
304.575
304.509
304.457
304.397
304.342
304.292
304.25
304.218
304.194
304.18
304.173
304.172
304.175
304.187
304.419
304.351
304.301
304.241
304.184
304.132
304.088
304.054
304.03
304.016
304.009
304.011
304.018
304.038
304.278
304.21
304.16
304.099
304.039
303.985
303.938
303.903
303.877
303.862
303.856
303.862
303.873
303.9
304.156
304.09
304.035
303.972
303.908
303.851
303.801
303.763
303.734
303.718
303.713
303.722
303.734
303.765
304.041
303.98
303.921
303.858
303.79
303.73
303.676
303.635
303.602
303.585
303.58
303.594
303.604
303.639
303.954
303.896
303.833
303.767
303.692
303.628
303.568
303.521
303.484
303.463
303.455
303.467
303.472
303.51
303.85
303.811
303.743
303.68
303.604
303.537
303.471
303.418
303.376
303.352
303.342
303.352
303.357
303.386
303.791
303.74
303.68
303.617
303.535
303.467
303.398
303.341
303.294
303.263
303.241
303.234
303.222
303.246
306.868
306.832
306.81
306.78
306.754
306.73
306.715
306.707
306.709
306.719
306.738
306.759
306.79
306.792
306.69
306.658
306.63
306.597
306.569
306.543
306.526
306.516
306.516
306.525
306.54
306.56
306.583
306.587
306.533
306.502
306.466
306.43
306.398
306.37
306.35
306.341
306.341
306.352
306.369
306.39
306.413
306.416
306.382
306.345
306.307
306.267
306.232
306.202
306.18
306.17
306.169
306.179
306.195
306.215
306.235
306.243
306.244
306.203
306.161
306.118
306.079
306.046
306.023
306.012
306.012
306.022
306.038
306.059
306.078
306.09
306.113
306.068
306.024
305.977
305.935
305.9
305.875
305.863
305.862
305.872
305.887
305.908
305.925
305.945
305.993
305.944
305.899
305.849
305.804
305.766
305.74
305.727
305.726
305.736
305.751
305.773
305.793
305.818
305.881
305.829
305.783
305.732
305.684
305.644
305.616
305.602
305.599
305.609
305.625
305.649
305.671
305.702
305.778
305.725
305.677
305.625
305.576
305.534
305.504
305.488
305.485
305.494
305.511
305.538
305.563
305.6
305.683
305.63
305.581
305.529
305.478
305.435
305.402
305.386
305.381
305.39
305.406
305.436
305.464
305.507
305.596
305.545
305.494
305.442
305.39
305.346
305.312
305.293
305.287
305.295
305.311
305.342
305.373
305.422
305.52
305.471
305.419
305.366
305.312
305.267
305.232
305.212
305.204
305.211
305.224
305.254
305.285
305.339
305.44
305.397
305.345
305.295
305.243
305.199
305.163
305.141
305.131
305.136
305.148
305.176
305.206
305.259
305.389
305.335
305.286
305.237
305.185
305.143
305.109
305.087
305.075
305.077
305.083
305.103
305.119
305.18
307.676
307.682
307.681
307.68
307.681
307.684
307.691
307.704
307.722
307.745
307.776
307.805
307.846
307.854
307.551
307.556
307.552
307.547
307.545
307.546
307.551
307.561
307.577
307.598
307.625
307.652
307.687
307.7
307.443
307.449
307.439
307.429
307.422
307.417
307.418
307.426
307.439
307.459
307.486
307.513
307.548
307.561
307.337
307.337
307.325
307.311
307.3
307.293
307.291
307.296
307.308
307.326
307.35
307.375
307.405
307.421
307.244
307.238
307.222
307.205
307.189
307.178
307.173
307.176
307.185
307.203
307.225
307.25
307.277
307.295
307.155
307.141
307.123
307.102
307.084
307.07
307.062
307.064
307.071
307.087
307.107
307.131
307.155
307.177
307.072
307.052
307.032
307.008
306.987
306.971
306.961
306.961
306.967
306.982
307
307.024
307.046
307.073
306.994
306.969
306.946
306.921
306.897
306.879
306.868
306.867
306.871
306.886
306.903
306.927
306.948
306.979
306.92
306.892
306.867
306.84
306.815
306.795
306.783
306.781
306.784
306.798
306.815
306.841
306.862
306.898
306.851
306.82
306.795
306.766
306.74
306.719
306.705
306.703
306.706
306.72
306.736
306.763
306.785
306.827
306.787
306.755
306.728
306.699
306.672
306.651
306.636
306.633
306.635
306.648
306.665
306.694
306.718
306.765
306.727
306.696
306.669
306.64
306.612
306.591
306.576
306.572
306.573
306.586
306.601
306.631
306.656
306.708
306.669
306.64
306.612
306.587
306.561
306.542
306.527
306.522
306.521
306.533
306.546
306.576
306.602
306.654
306.63
306.595
306.569
306.545
306.52
306.502
306.489
306.483
306.481
306.49
306.499
306.524
306.542
306.603
308.213
308.239
308.255
308.276
308.298
308.323
308.349
308.376
308.405
308.434
308.469
308.499
308.539
308.556
308.125
308.152
308.168
308.189
308.21
308.234
308.259
308.285
308.312
308.339
308.371
308.4
308.437
308.459
308.054
308.082
308.096
308.114
308.133
308.153
308.174
308.196
308.22
308.245
308.275
308.303
308.342
308.363
307.979
308.004
308.019
308.036
308.054
308.073
308.092
308.112
308.134
308.156
308.183
308.21
308.246
308.27
307.915
307.937
307.95
307.966
307.981
307.997
308.013
308.031
308.049
308.07
308.094
308.118
308.153
308.18
307.851
307.869
307.882
307.896
307.909
307.923
307.937
307.954
307.97
307.989
308.01
308.034
308.064
308.095
307.794
307.807
307.818
307.83
307.841
307.853
307.865
307.879
307.894
307.912
307.931
307.954
307.981
308.014
307.741
307.749
307.758
307.767
307.775
307.786
307.796
307.809
307.822
307.839
307.857
307.88
307.904
307.939
307.692
307.694
307.701
307.707
307.714
307.722
307.73
307.742
307.754
307.771
307.788
307.812
307.833
307.871
307.647
307.645
307.649
307.653
307.656
307.662
307.668
307.679
307.69
307.707
307.722
307.747
307.767
307.808
307.606
307.601
307.601
307.603
307.604
307.608
307.611
307.621
307.63
307.646
307.661
307.687
307.706
307.749
307.571
307.563
307.561
307.56
307.559
307.559
307.561
307.567
307.574
307.588
307.602
307.628
307.647
307.691
307.536
307.528
307.523
307.522
307.519
307.519
307.517
307.522
307.526
307.537
307.55
307.575
307.593
307.634
307.512
307.499
307.496
307.493
307.488
307.485
307.481
307.481
307.48
307.487
307.495
307.515
307.527
307.569
308.581
308.61
308.628
308.652
308.677
308.705
308.733
308.763
308.794
308.825
308.86
308.891
308.931
308.955
308.513
308.542
308.563
308.589
308.616
308.645
308.675
308.705
308.736
308.766
308.8
308.831
308.869
308.898
308.457
308.49
308.511
308.537
308.564
308.592
308.62
308.648
308.677
308.704
308.737
308.767
308.807
308.837
308.399
308.431
308.454
308.481
308.509
308.538
308.566
308.594
308.622
308.649
308.68
308.709
308.748
308.781
308.352
308.383
308.405
308.432
308.459
308.487
308.514
308.541
308.567
308.592
308.622
308.65
308.689
308.724
308.305
308.332
308.356
308.382
308.409
308.436
308.463
308.489
308.514
308.539
308.567
308.596
308.633
308.672
308.263
308.286
308.309
308.334
308.36
308.386
308.412
308.437
308.461
308.486
308.513
308.542
308.577
308.619
308.226
308.245
308.266
308.289
308.312
308.337
308.361
308.385
308.409
308.434
308.46
308.49
308.523
308.566
308.192
308.206
308.224
308.245
308.266
308.289
308.311
308.335
308.357
308.383
308.408
308.439
308.47
308.516
308.164
308.174
308.188
308.205
308.223
308.243
308.262
308.284
308.305
308.331
308.355
308.388
308.417
308.464
308.138
308.144
308.155
308.168
308.183
308.199
308.216
308.236
308.255
308.28
308.303
308.336
308.363
308.411
308.118
308.119
308.126
308.136
308.146
308.159
308.172
308.188
308.204
308.227
308.248
308.281
308.306
308.356
308.098
308.097
308.1
308.106
308.113
308.121
308.13
308.144
308.157
308.177
308.196
308.228
308.252
308.3
308.077
308.074
308.076
308.078
308.081
308.086
308.09
308.098
308.106
308.121
308.136
308.163
308.184
308.227
308.836
308.857
308.868
308.883
308.899
308.917
308.938
308.96
308.986
309.013
309.045
309.075
309.113
309.14
308.775
308.797
308.81
308.828
308.846
308.866
308.888
308.912
308.939
308.966
308.998
309.029
309.066
309.095
308.726
308.747
308.761
308.78
308.798
308.819
308.841
308.864
308.89
308.916
308.948
308.978
309.018
309.048
308.676
308.695
308.711
308.73
308.75
308.772
308.795
308.819
308.845
308.871
308.904
308.934
308.974
309.008
308.634
308.651
308.666
308.686
308.706
308.728
308.751
308.774
308.8
308.826
308.858
308.889
308.93
308.967
308.595
308.608
308.623
308.642
308.662
308.685
308.707
308.731
308.756
308.783
308.815
308.848
308.889
308.929
308.559
308.569
308.584
308.602
308.622
308.643
308.666
308.689
308.715
308.742
308.774
308.809
308.85
308.893
308.529
308.537
308.549
308.565
308.583
308.604
308.625
308.648
308.674
308.702
308.734
308.77
308.811
308.857
308.501
308.505
308.515
308.529
308.546
308.565
308.586
308.61
308.636
308.666
308.697
308.735
308.774
308.824
308.477
308.478
308.485
308.496
308.511
308.528
308.548
308.572
308.598
308.628
308.66
308.699
308.737
308.789
308.454
308.451
308.455
308.463
308.476
308.492
308.511
308.535
308.561
308.593
308.625
308.665
308.702
308.754
308.429
308.424
308.426
308.432
308.443
308.457
308.475
308.498
308.522
308.554
308.586
308.627
308.664
308.719
308.404
308.398
308.397
308.4
308.409
308.422
308.438
308.461
308.485
308.517
308.549
308.592
308.63
308.684
308.368
308.363
308.363
308.367
308.374
308.387
308.401
308.421
308.443
308.471
308.502
308.541
308.58
308.633
308.976
308.987
308.989
308.994
309.001
309.01
309.022
309.038
309.057
309.079
309.106
309.133
309.167
309.192
308.921
308.93
308.933
308.938
308.946
308.955
308.968
308.984
309.005
309.028
309.056
309.083
309.118
309.142
308.873
308.881
308.882
308.887
308.894
308.903
308.916
308.932
308.952
308.973
309.002
309.028
309.065
309.091
308.827
308.831
308.832
308.837
308.843
308.853
308.866
308.882
308.903
308.926
308.955
308.983
309.019
309.048
308.785
308.787
308.787
308.791
308.796
308.806
308.819
308.836
308.857
308.88
308.909
308.938
308.975
309.007
308.747
308.746
308.744
308.747
308.752
308.762
308.775
308.792
308.813
308.837
308.867
308.897
308.935
308.971
308.71
308.706
308.704
308.706
308.71
308.721
308.734
308.752
308.774
308.799
308.829
308.861
308.899
308.939
308.678
308.671
308.668
308.669
308.674
308.684
308.697
308.715
308.737
308.763
308.794
308.828
308.867
308.909
308.646
308.636
308.633
308.634
308.638
308.648
308.662
308.681
308.705
308.733
308.765
308.802
308.841
308.885
308.616
308.605
308.602
308.602
308.607
308.617
308.632
308.651
308.675
308.704
308.737
308.776
308.816
308.862
308.585
308.574
308.571
308.571
308.576
308.587
308.602
308.623
308.649
308.681
308.716
308.757
308.799
308.847
308.552
308.542
308.541
308.542
308.548
308.56
308.576
308.598
308.625
308.658
308.694
308.737
308.78
308.832
308.518
308.51
308.509
308.511
308.519
308.533
308.551
308.576
308.606
308.642
308.68
308.725
308.771
308.821
308.473
308.471
308.474
308.48
308.492
308.507
308.528
308.554
308.584
308.621
308.661
308.707
308.753
308.804
309.035
309.037
309.035
309.034
309.036
309.042
309.05
309.061
309.075
309.093
309.116
309.141
309.172
309.196
308.987
308.988
308.983
308.981
308.981
308.984
308.992
309.003
309.018
309.036
309.061
309.085
309.116
309.138
308.943
308.94
308.932
308.928
308.926
308.929
308.936
308.946
308.961
308.979
309.002
309.026
309.058
309.081
308.898
308.892
308.882
308.876
308.873
308.875
308.881
308.892
308.908
308.926
308.951
308.975
309.006
309.031
308.856
308.846
308.834
308.827
308.823
308.825
308.832
308.843
308.859
308.878
308.902
308.926
308.957
308.984
308.814
308.801
308.789
308.782
308.777
308.779
308.786
308.797
308.814
308.834
308.858
308.883
308.914
308.943
308.773
308.758
308.746
308.739
308.734
308.736
308.744
308.756
308.774
308.795
308.82
308.847
308.878
308.91
308.734
308.719
308.707
308.701
308.697
308.699
308.707
308.72
308.738
308.76
308.786
308.816
308.848
308.882
308.696
308.681
308.671
308.665
308.662
308.665
308.675
308.689
308.708
308.733
308.76
308.791
308.824
308.86
308.661
308.648
308.639
308.634
308.633
308.638
308.648
308.662
308.682
308.708
308.737
308.771
308.805
308.842
308.628
308.615
308.609
308.605
308.606
308.613
308.625
308.643
308.666
308.694
308.725
308.759
308.795
308.833
308.594
308.585
308.582
308.582
308.586
308.595
308.609
308.628
308.652
308.682
308.715
308.752
308.79
308.829
308.561
308.556
308.556
308.559
308.567
308.578
308.596
308.62
308.648
308.681
308.717
308.756
308.796
308.834
308.523
308.526
308.532
308.541
308.553
308.569
308.59
308.617
308.648
308.682
308.718
308.757
308.796
308.838
309.051
309.048
309.045
309.043
309.044
309.047
309.052
309.06
309.07
309.084
309.101
309.12
309.144
309.165
309.013
309.009
309.003
308.999
308.997
308.998
309.001
309.008
309.018
309.031
309.048
309.066
309.09
309.107
308.976
308.969
308.96
308.955
308.951
308.949
308.951
308.956
308.964
308.976
308.992
309.009
309.033
309.051
308.937
308.928
308.917
308.91
308.904
308.901
308.901
308.906
308.914
308.925
308.941
308.957
308.981
308.999
308.897
308.886
308.873
308.865
308.857
308.853
308.853
308.858
308.866
308.877
308.893
308.91
308.933
308.952
308.856
308.844
308.831
308.821
308.813
308.808
308.808
308.813
308.822
308.834
308.849
308.867
308.889
308.91
308.815
308.802
308.789
308.778
308.77
308.766
308.767
308.772
308.782
308.795
308.811
308.83
308.851
308.874
308.775
308.761
308.749
308.739
308.732
308.729
308.73
308.737
308.747
308.761
308.778
308.798
308.82
308.844
308.736
308.722
308.711
308.702
308.697
308.696
308.699
308.707
308.719
308.735
308.753
308.774
308.796
308.821
308.7
308.687
308.679
308.672
308.669
308.67
308.675
308.684
308.697
308.715
308.734
308.757
308.78
308.806
308.665
308.654
308.65
308.647
308.647
308.65
308.658
308.67
308.685
308.703
308.724
308.747
308.771
308.796
308.635
308.629
308.628
308.629
308.632
308.638
308.648
308.662
308.679
308.699
308.72
308.744
308.768
308.793
308.609
308.606
308.608
308.613
308.622
308.633
308.646
308.662
308.681
308.703
308.726
308.749
308.773
308.797
308.587
308.591
308.598
308.608
308.62
308.636
308.653
308.673
308.692
308.714
308.736
308.76