/*--------------------------------*- C++ -*----------------------------------*\
| =========                 |                                                 |
| \\      /  F ield         | OpenFOAM: The Open Source CFD Toolbox           |
|  \\    /   O peration     | Version:  v2106                                 |
|   \\  /    A nd           | Website:  www.openfoam.com                      |
|    \\/     M anipulation  |                                                 |
\*---------------------------------------------------------------------------*/
FoamFile
{
    version     2.0;
    format      ascii;
    arch        "LSB;label=32;scalar=64";
    class       volScalarField;
    location    "0.000138";
    object      Ttot;
}
// * * * * * * * * * * * * * * * * * * * * * * * * * * * * * * * * * * * * * //

dimensions      [0 0 0 1 0 0 0];

internalField   nonuniform List<scalar> 
18273
(
301.587
301.608
301.649
301.703
301.896
302.053
302.327
302.518
302.755
302.959
303.195
303.446
303.645
303.617
302.465
302.765
302.746
302.77
302.809
302.798
302.866
302.856
302.975
303.086
303.296
303.535
303.712
303.626
302.961
303.317
303.298
303.319
303.239
303.092
303.023
302.934
302.991
303.057
303.239
303.466
303.686
303.643
303.124
303.441
303.454
303.438
303.273
303.106
303.012
302.944
302.994
303.074
303.249
303.469
303.704
303.683
302.989
303.339
303.38
303.365
303.185
303.042
302.97
302.923
302.961
303.062
303.236
303.435
303.65
303.643
302.836
303.18
303.275
303.298
303.156
303.024
302.978
302.94
302.995
303.104
303.258
303.428
303.621
303.64
302.533
302.955
303.178
303.274
303.196
303.093
303.053
303.023
303.082
303.177
303.299
303.449
303.621
303.662
302.248
302.891
303.28
303.437
303.382
303.274
303.194
303.177
303.229
303.31
303.414
303.534
303.687
303.752
301.983
302.84
303.369
303.635
303.631
303.518
303.416
303.395
303.43
303.494
303.579
303.686
303.827
303.885
301.834
302.927
303.613
303.942
303.96
303.832
303.694
303.664
303.653
303.716
303.799
303.896
304.028
304.05
301.681
302.988
303.81
304.197
304.245
304.132
303.999
303.966
303.942
304.004
304.091
304.177
304.299
304.288
301.746
303.095
303.976
304.397
304.437
304.331
304.228
304.199
304.218
304.291
304.382
304.444
304.542
304.463
301.811
303.24
304.179
304.599
304.65
304.546
304.452
304.391
304.399
304.463
304.55
304.584
304.647
304.535
301.875
303.002
303.889
304.373
304.499
304.429
304.363
304.278
304.27
304.293
304.322
304.323
304.34
304.278
298.579
298.896
299.45
299.955
300.806
301.423
302.105
302.535
303.14
303.595
303.901
304.027
303.923
303.283
300.142
300.764
301.144
301.475
301.992
302.196
302.603
302.743
303.186
303.505
303.786
303.924
303.867
303.291
301.883
302.331
302.503
302.533
302.753
302.749
302.895
302.846
303.094
303.332
303.576
303.777
303.854
303.406
303.024
303.072
302.949
302.876
302.942
302.869
302.893
302.861
303.065
303.216
303.437
303.656
303.802
303.535
303.125
303.112
302.928
302.88
302.887
302.844
302.839
302.856
303.008
303.205
303.408
303.607
303.791
303.624
302.959
302.891
302.813
302.859
302.868
302.841
302.816
302.845
302.994
303.166
303.367
303.541
303.738
303.683
302.439
302.536
302.67
302.825
302.902
302.886
302.893
302.928
303.046
303.243
303.45
303.614
303.829
303.836
301.846
302.405
302.796
303.053
303.101
303.116
303.064
303.105
303.19
303.358
303.556
303.749
303.992
304.055
300.973
301.906
302.667
303.252
303.36
303.392
303.301
303.382
303.468
303.624
303.809
303.989
304.243
304.302
300.231
301.531
302.784
303.617
303.747
303.739
303.592
303.702
303.798
303.953
304.133
304.284
304.537
304.568
299.484
301.024
302.644
303.856
304.141
304.108
303.928
304.025
304.092
304.255
304.438
304.6
304.846
304.821
299.165
300.741
302.656
304.111
304.5
304.442
304.248
304.293
304.344
304.527
304.688
304.862
305.072
304.967
298.906
300.748
302.732
304.258
304.838
304.793
304.615
304.509
304.444
304.584
304.659
304.779
304.924
304.714
298.749
300.138
302.088
303.85
304.706
304.761
304.644
304.484
304.332
304.28
304.208
304.132
304.058
303.935
296.08
296.328
297.131
297.906
299.293
300.348
301.749
302.741
303.826
304.625
305.177
305.32
304.839
303.508
298.17
298.841
299.572
300.079
300.912
301.395
302.173
302.673
303.508
304.21
304.755
304.998
304.71
303.67
300.614
301.035
301.66
301.786
302.098
302.188
302.539
302.69
303.242
303.775
304.297
304.732
304.677
303.908
302.302
302.367
302.588
302.518
302.52
302.436
302.564
302.685
303.108
303.522
303.955
304.331
304.279
303.82
303.007
302.818
302.692
302.536
302.489
302.437
302.565
302.642
302.954
303.295
303.641
304.016
304.087
303.91
302.866
302.585
302.452
302.397
302.436
302.436
302.543
302.649
302.911
303.214
303.48
303.733
303.78
303.671
302.137
301.883
301.956
302.17
302.369
302.453
302.566
302.699
302.888
303.173
303.427
303.687
303.883
303.865
301.146
301.22
301.675
302.236
302.508
302.661
302.693
302.835
302.956
303.21
303.434
303.689
303.925
304.1
299.676
300.042
301.089
302.115
302.592
302.835
302.851
303.079
303.192
303.474
303.71
303.974
304.253
304.571
298.546
299.403
301.01
302.324
302.928
303.109
303.068
303.377
303.522
303.828
304.079
304.341
304.634
304.962
297.123
298.583
300.679
302.324
303.169
303.406
303.364
303.699
303.864
304.24
304.518
304.862
305.105
305.351
296.645
298.255
300.639
302.47
303.403
303.654
303.639
303.961
304.082
304.489
304.696
305.079
305.143
305.22
296.127
298.094
300.432
302.313
303.52
303.927
303.925
304.021
304.01
304.353
304.384
304.671
304.568
304.306
295.979
297.414
299.912
302.264
303.78
304.302
304.246
304.018
303.605
303.598
303.399
303.422
303.226
303.042
303.258
302.463
301.348
299.949
298.634
297.188
303.169
302.249
300.954
299.484
298.221
296.93
303.17
302.117
300.73
299.189
297.907
296.657
303.224
302.128
300.721
299.125
297.83
296.496
303.267
302.248
300.931
299.349
297.956
296.47
303.387
302.515
301.371
299.818
298.297
296.561
303.519
302.829
301.857
300.363
298.712
296.706
303.7
303.136
302.292
300.846
299.104
296.873
303.853
303.336
302.569
301.172
299.42
297.056
303.986
303.505
302.775
301.456
299.789
297.37
304.162
303.599
302.818
301.457
299.78
297.502
304.245
303.656
302.797
301.439
299.832
297.69
304.186
303.509
302.51
301.046
299.476
297.567
303.858
303.098
301.928
300.378
298.976
297.437
302.37
300.947
299.715
298.449
297.697
296.396
302.338
300.846
299.427
298.013
297.219
296.061
302.468
300.963
299.466
297.965
297.128
296.066
302.732
301.295
299.842
298.29
297.426
296.249
303.009
301.796
300.469
298.961
298.078
296.684
303.379
302.467
301.441
299.995
298.975
297.212
303.737
303.135
302.439
301.07
299.796
297.59
304.124
303.667
303.19
301.878
300.389
297.825
304.418
304.003
303.605
302.34
300.8
298.063
304.658
304.246
303.777
302.404
300.863
298.077
304.846
304.201
303.577
302.131
300.626
298.038
304.803
303.917
303.049
301.447
300.063
297.828
304.286
303.027
301.965
300.409
299.348
297.566
303.277
301.842
300.681
299.325
298.623
297.277
301.925
300.162
298.528
296.423
295.024
290.761
301.96
300.168
298.636
296.667
295.219
291.214
302.04
300.342
298.742
296.822
295.425
292.17
302.299
300.745
299.317
297.591
296.462
293.739
302.701
301.362
300.167
298.796
298.106
295.745
302.985
302.14
301.491
300.513
300.053
297.637
303.604
303.153
302.998
302.186
301.585
298.736
304.309
304.192
304.246
303.346
302.483
299.136
304.976
304.853
304.837
303.768
302.837
299.224
305.396
305.063
304.914
303.539
302.668
298.429
305.509
304.954
304.463
302.904
301.965
297.518
305.021
304.049
303.301
301.608
300.883
296.228
304.064
302.671
301.691
299.867
299.274
294.654
302.475
300.926
299.806
298.102
297.591
293.105
303.643
302.659
301.35
299.867
298.55
297.231
303.527
302.32
300.898
299.349
298.126
296.948
303.557
302.252
300.757
299.126
297.866
296.636
303.605
302.315
300.83
299.182
297.886
296.58
303.749
302.588
301.236
299.584
298.172
296.686
303.918
302.93
301.721
300.061
298.499
296.795
304.086
303.256
302.143
300.456
298.787
296.898
304.226
303.449
302.383
300.685
298.947
296.936
304.274
303.501
302.421
300.668
298.947
297.007
304.27
303.417
302.3
300.619
298.906
297.089
304.012
303.076
301.933
300.37
298.828
297.161
303.421
302.396
301.19
299.714
298.415
297.03
302.464
301.431
300.283
298.93
297.937
296.888
301.294
300.28
299.208
298.029
297.311
296.566
302.685
301.139
299.979
298.871
298.322
297.214
302.715
301.041
299.755
298.552
298.044
297.036
302.866
301.305
300.003
298.698
298.158
297.093
303.181
301.798
300.618
299.273
298.663
297.386
303.616
302.525
301.552
300.2
299.426
297.819
304.076
303.24
302.514
301.172
300.143
298.122
304.518
303.801
303.201
301.865
300.621
298.261
304.828
304.112
303.568
302.193
300.818
298.189
304.867
304.062
303.448
301.901
300.526
297.995
304.621
303.441
302.585
300.965
299.673
297.371
303.481
302.043
300.935
299.198
298.096
296.263
301.594
300.07
298.917
297.386
296.573
295.25
299.584
298.287
297.308
296.079
295.549
294.596
298.051
297.039
296.246
295.364
295.056
294.217
301.745
300.181
298.821
297.159
296.621
292.545
301.837
300.26
299.023
297.481
296.896
293.184
301.889
300.579
299.337
297.897
297.326
294.308
302.178
301.147
300.323
299.109
298.636
295.919
302.784
302.111
301.769
300.782
300.339
297.612
303.371
303.128
303.242
302.316
301.726
298.612
304.123
304.055
304.267
303.245
302.52
298.96
304.583
304.471
304.586
303.486
302.823
298.746
304.666
304.309
304.25
302.821
302.167
297.66
303.867
302.987
302.51
300.938
300.446
295.589
302.153
300.768
299.884
298.039
297.67
292.677
299.755
298.126
297.191
295.262
294.632
290.013
297.195
295.808
295.213
293.593
292.637
288.753
295.515
294.465
294.13
293.038
292.105
288.668
295.97
296.847
297.587
298.81
299.912
300.895
296.282
297.404
298.37
299.723
300.881
301.869
296.517
297.95
299.167
300.521
301.629
302.514
296.612
298.31
299.746
301.088
302.027
302.799
296.607
298.414
299.993
301.339
302.106
302.748
296.493
298.448
300.046
301.363
302.041
302.654
296.388
298.285
299.795
301.052
301.714
302.353
296.263
297.965
299.309
300.48
301.13
301.858
296.001
297.422
298.551
299.662
300.367
301.249
295.739
296.858
297.774
298.844
299.635
300.782
295.575
296.442
297.176
298.182
299.131
300.388
295.649
296.317
296.971
297.998
299.044
300.401
295.952
296.506
297.102
298.093
299.116
300.405
296.351
297.009
297.753
298.791
299.798
300.775
292.801
293.689
294.069
295.211
296.249
297.541
293.134
294.169
294.856
296.335
297.621
299.164
293.787
295.238
296.232
298.001
299.426
301.089
294.939
296.844
298.113
299.962
301.232
302.592
296.317
298.637
299.984
301.466
302.219
303.077
297.295
299.88
301.179
302.324
302.722
303.178
297.678
300.254
301.4
302.3
302.467
302.741
297.913
300.239
301.12
301.816
301.693
301.828
297.795
299.784
300.356
300.801
300.424
300.567
297.467
298.947
299.188
299.481
299.114
299.499
296.846
297.834
297.824
298.071
298.006
298.524
296.006
296.571
296.549
296.963
297.279
298.125
295.2
295.641
295.737
296.407
296.862
297.544
294.446
295.096
295.38
296.208
296.948
297.737
286.689
290.234
291.319
292.648
293.469
294.993
286.743
290.773
292.14
294.01
295.084
297.003
287.936
292.605
293.913
296.194
297.597
299.584
290.842
295.76
296.841
299.055
300.308
301.667
294.307
298.962
299.809
301.457
302.127
302.873
297.056
301.405
302.02
303.11
303.135
303.137
298.758
302.633
303.084
303.601
303.055
302.724
299.711
303.023
303.265
303.315
302.291
301.693
299.961
302.719
302.656
302.157
300.653
299.975
299.731
301.544
301.111
300.284
298.861
298.391
298.543
299.672
298.979
298.084
296.942
296.611
296.353
297.123
296.732
296.291
295.945
295.953
293.642
294.695
294.615
294.759
294.743
294.78
290.595
292.687
293.366
294.183
295.087
295.203
297.378
299.03
300.445
301.858
302.784
303.357
297.577
299.553
301.076
302.31
303.034
303.464
297.658
299.844
301.359
302.436
302.984
303.371
297.551
299.901
301.401
302.376
302.841
303.132
297.204
299.532
301.106
302.091
302.509
302.891
296.974
299.19
300.665
301.67
302.142
302.631
296.597
298.58
299.941
300.987
301.514
302.163
296.138
297.803
299.004
300.072
300.723
301.61
295.673
296.971
297.97
299.069
299.884
301.023
295.33
296.317
297.141
298.256
299.253
300.616
295.177
295.955
296.638
297.72
298.848
300.283
295.234
295.868
296.521
297.616
298.814
300.256
295.497
296.032
296.683
297.722
298.887
300.231
295.796
296.522
297.259
298.322
299.378
300.443
296.75
298.226
299.092
300.5
301.624
302.812
297.324
299.179
300.317
301.772
302.722
303.654
297.841
300.086
301.438
302.756
303.344
303.986
298.212
300.826
302.268
303.356
303.658
304.033
298.433
301.272
302.628
303.482
303.604
303.85
298.582
301.277
302.481
303.255
303.249
303.384
298.458
300.914
301.909
302.585
302.409
302.48
298.096
300.186
300.878
301.374
301.187
301.522
297.554
299.06
299.414
299.759
299.677
300.374
296.733
297.664
297.761
298.129
298.356
299.395
295.773
296.202
296.26
296.715
297.203
298.346
294.887
294.962
295.095
295.772
296.578
297.864
294.045
294.204
294.43
295.135
295.892
297.128
293.158
293.769
294.236
295.233
296.15
297.197
291.943
296.419
297.523
299.584
301.085
302.695
294.053
298.593
299.515
301.493
302.84
304.238
296.107
300.604
301.615
303.402
304.27
305.023
297.759
302.155
303.217
304.622
305.053
305.36
299.095
303.3
304.331
305.459
305.303
305.211
300.191
303.894
304.646
305.231
304.842
304.447
300.681
303.882
304.241
304.219
303.473
303.163
300.64
303.153
302.982
302.366
301.419
301.618
300.144
301.635
301.002
300.142
299.281
299.783
298.779
299.475
298.637
297.919
297.423
298.236
296.714
296.964
296.304
295.703
295.483
296.381
294.206
294.59
294.233
294.175
294.434
295.421
291.399
292.593
292.502
292.661
293.2
294.204
288.546
290.818
291.573
292.717
293.748
294.516
295.767
295.405
296.186
296.878
298.364
299.687
301.164
302.322
303.416
304.457
305.344
305.886
305.851
305.069
297.959
298.278
298.785
299.224
300.072
300.753
301.562
302.158
302.93
303.738
304.474
304.965
305.062
304.362
300.392
300.629
300.905
301.001
301.312
301.465
301.859
302.129
302.62
303.191
303.798
304.343
304.61
304.207
302.149
302.009
301.964
301.819
301.827
301.776
301.902
302.01
302.368
302.785
303.231
303.627
303.825
303.568
302.797
302.339
302.04
301.831
301.755
301.723
301.85
301.95
302.205
302.517
302.872
303.231
303.442
303.384
302.554
302.059
301.807
301.708
301.687
301.715
301.82
301.918
302.115
302.372
302.619
302.873
302.996
303.04
301.569
301.26
301.314
301.504
301.628
301.744
301.837
301.95
302.105
302.377
302.617
302.884
303.057
303.216
300.622
300.559
301.017
301.524
301.779
301.914
301.965
302.072
302.163
302.44
302.651
302.908
303.164
303.464
298.969
299.341
300.459
301.325
301.84
302.008
302.065
302.236
302.317
302.661
302.91
303.272
303.662
304.108
297.641
298.613
300.336
301.542
302.202
302.317
302.303
302.49
302.586
303.009
303.313
303.815
304.319
304.904
296.164
297.893
300.124
301.632
302.453
302.61
302.555
302.768
302.914
303.451
303.842
304.519
305.067
305.759
295.849
297.798
300.239
301.971
302.863
303.013
302.888
303.084
303.213
303.819
304.271
305.052
305.529
306.236
295.253
297.558
300.241
302.191
303.255
303.444
303.226
303.295
303.337
303.843
304.192
304.97
305.338
306.071
295.899
297.728
300.496
302.676
303.83
304.031
303.686
303.465
303.182
303.5
303.664
304.366
304.383
305.075
293.898
293.88
294.846
295.904
297.69
299.301
300.862
301.971
302.896
303.648
304.352
304.832
304.852
304.032
296.589
297.056
297.711
298.479
299.61
300.496
301.341
301.959
302.584
303.122
303.618
303.963
304.066
303.352
299.374
299.633
299.978
300.36
300.876
301.19
301.606
301.95
302.335
302.707
303.116
303.457
303.607
303.129
301.269
301.066
301.074
301.129
301.308
301.428
301.661
301.85
302.136
302.407
302.676
302.86
302.912
302.504
301.811
301.443
301.287
301.25
301.337
301.432
301.627
301.789
302.003
302.201
302.417
302.551
302.569
302.279
301.615
301.297
301.207
301.216
301.316
301.426
301.599
301.748
301.917
302.071
302.213
302.297
302.292
302.14
300.872
300.744
300.882
301.072
301.261
301.418
301.586
301.742
301.89
302.044
302.171
302.281
302.305
302.303
299.811
300.054
300.571
301.019
301.318
301.5
301.646
301.793
301.904
302.075
302.178
302.325
302.423
302.532
297.942
298.791
299.963
300.786
301.285
301.512
301.659
301.837
301.941
302.16
302.28
302.543
302.756
302.965
296.033
297.673
299.527
300.778
301.427
301.663
301.766
301.938
302.027
302.301
302.466
302.848
303.171
303.608
294.283
296.618
299.048
300.681
301.489
301.768
301.844
302.03
302.136
302.491
302.739
303.255
303.644
304.297
293.659
296.192
298.845
300.746
301.689
301.984
301.996
302.139
302.228
302.625
302.952
303.562
303.971
304.713
293.04
295.838
298.617
300.744
301.885
302.21
302.12
302.187
302.201
302.497
302.774
303.42
303.843
304.542
293.582
295.837
298.624
301.055
302.357
302.586
302.331
302.167
301.922
302.008
302.075
302.675
302.89
303.594
295.099
295.425
296.44
297.525
298.99
300.208
301.377
302.2
302.893
303.416
303.877
304.168
304.183
303.57
297.753
298.285
298.86
299.491
300.354
301.089
301.749
302.242
302.696
303.052
303.354
303.524
303.578
303.043
300.062
300.236
300.491
300.781
301.234
301.536
301.874
302.174
302.479
302.724
303
303.182
303.247
302.94
301.369
301.173
301.176
301.258
301.47
301.631
301.886
302.105
302.338
302.518
302.691
302.768
302.749
302.528
301.632
301.397
301.312
301.343
301.495
301.643
301.858
302.046
302.226
302.374
302.522
302.585
302.527
302.35
301.502
301.315
301.297
301.362
301.507
301.654
301.847
302.023
302.171
302.294
302.381
302.427
302.368
302.243
301.006
301.006
301.163
301.307
301.501
301.664
301.851
302.027
302.163
302.288
302.35
302.417
302.402
302.329
300.15
300.528
300.993
301.282
301.548
301.72
301.897
302.066
302.187
302.317
302.37
302.47
302.502
302.565
298.663
299.658
300.589
301.163
301.53
301.741
301.917
302.095
302.212
302.364
302.436
302.592
302.707
302.864
297.137
298.852
300.258
301.148
301.601
301.831
301.983
302.154
302.254
302.435
302.533
302.779
302.959
303.228
295.659
297.972
299.898
301.08
301.661
301.917
302.05
302.213
302.308
302.527
302.666
303.004
303.232
303.677
294.839
297.452
299.695
301.136
301.835
302.079
302.145
302.276
302.35
302.583
302.76
303.156
303.408
303.938
294.093
296.958
299.376
301.046
301.913
302.22
302.243
302.305
302.295
302.493
302.663
303.076
303.337
303.787
294.104
296.674
299.209
301.193
302.167
302.407
302.301
302.275
302.16
302.16
302.143
302.493
302.589
303.044
297.767
297.95
298.623
299.357
300.366
301.189
301.948
302.535
303.052
303.442
303.765
303.949
303.972
303.659
299.672
299.949
300.242
300.613
301.196
301.665
302.14
302.54
302.911
303.169
303.377
303.448
303.452
303.197
301.082
300.992
301.099
301.282
301.615
301.825
302.14
302.423
302.707
302.901
303.104
303.197
303.229
303.119
301.638
301.425
301.398
301.445
301.656
301.829
302.107
302.339
302.574
302.729
302.866
302.902
302.877
302.799
301.689
301.506
301.441
301.491
301.67
301.837
302.073
302.277
302.467
302.609
302.722
302.774
302.734
302.636
301.521
301.43
301.437
301.524
301.676
301.844
302.054
302.248
302.412
302.537
302.603
302.653
302.617
302.526
301.188
301.248
301.367
301.492
301.655
301.838
302.046
302.241
302.397
302.521
302.573
302.634
302.618
302.59
300.641
300.999
301.315
301.495
301.699
301.879
302.074
302.264
302.41
302.536
302.581
302.652
302.691
302.722
299.726
300.527
301.124
301.438
301.699
301.896
302.091
302.285
302.423
302.56
302.619
302.733
302.825
302.919
298.764
300.091
300.995
301.479
301.781
301.98
302.152
302.333
302.454
302.609
302.681
302.852
302.963
303.141
297.783
299.544
300.827
301.49
301.842
302.046
302.203
302.381
302.498
302.674
302.762
302.988
303.118
303.424
297.093
299.208
300.765
301.605
302.004
302.186
302.299
302.441
302.528
302.708
302.817
303.083
303.225
303.602
296.501
298.912
300.616
301.607
302.087
302.285
302.373
302.467
302.514
302.687
302.813
303.095
303.255
303.575
296.366
298.727
300.586
301.782
302.309
302.449
302.435
302.476
302.484
302.529
302.596
302.836
302.879
303.182
300.189
300.245
300.657
301.102
301.681
302.119
302.579
302.979
303.377
303.695
303.968
304.143
304.175
304.014
301.273
301.268
301.4
301.576
301.936
302.215
302.586
302.931
303.249
303.479
303.669
303.736
303.717
303.612
301.955
301.731
301.76
301.834
302.067
302.23
302.51
302.775
303.046
303.254
303.429
303.531
303.559
303.498
302.126
301.866
301.81
301.834
302.019
302.184
302.447
302.689
302.927
303.105
303.225
303.292
303.288
303.215
302.052
301.868
301.811
301.852
302.011
302.175
302.403
302.624
302.826
302.99
303.088
303.177
303.164
303.067
301.898
301.831
301.809
301.879
302.018
302.182
302.388
302.594
302.773
302.917
302.983
303.063
303.055
302.984
301.692
301.713
301.755
301.854
301.988
302.166
302.372
302.575
302.746
302.887
302.949
303.032
303.034
303.004
301.399
301.613
301.768
301.879
302.029
302.199
302.395
302.588
302.747
302.886
302.944
303.031
303.048
303.093
300.959
301.406
301.693
301.86
302.041
302.217
302.413
302.606
302.758
302.898
302.961
303.069
303.124
303.214
300.496
301.246
301.71
301.93
302.125
302.294
302.472
302.656
302.793
302.938
303.003
303.146
303.225
303.352
299.914
300.967
301.688
301.971
302.182
302.352
302.523
302.705
302.839
302.999
303.074
303.248
303.327
303.554
299.487
300.857
301.73
302.118
302.336
302.487
302.626
302.786
302.896
303.05
303.129
303.317
303.385
303.684
299.124
300.744
301.7
302.18
302.432
302.598
302.718
302.837
302.914
303.062
303.17
303.368
303.443
303.741
299.046
300.749
301.832
302.422
302.68
302.773
302.82
302.905
302.958
303.05
303.169
303.334
303.344
303.561
301.912
301.856
302.013
302.214
302.537
302.749
303.067
303.371
303.692
303.973
304.209
304.417
304.483
304.435
302.355
302.14
302.181
302.256
302.494
302.697
303.002
303.297
303.568
303.796
303.973
304.096
304.096
304.08
302.568
302.302
302.292
302.298
302.473
302.628
302.879
303.116
303.382
303.607
303.762
303.911
303.947
303.925
302.587
302.321
302.271
302.282
302.427
302.567
302.805
303.04
303.276
303.472
303.587
303.704
303.718
303.679
302.454
302.29
302.231
302.261
302.388
302.54
302.75
302.968
303.174
303.357
303.46
303.584
303.599
303.551
302.343
302.272
302.23
302.276
302.392
302.541
302.727
302.929
303.114
303.275
303.358
303.463
303.481
303.46
302.196
302.194
302.182
302.251
302.362
302.518
302.701
302.895
303.071
303.227
303.31
303.409
303.428
303.433
302.085
302.174
302.2
302.284
302.393
302.538
302.712
302.895
303.059
303.209
303.289
303.388
303.404
303.457
301.919
302.087
302.185
302.273
302.402
302.549
302.724
302.908
303.063
303.211
303.291
303.397
303.434
303.516
301.8
302.081
302.25
302.328
302.471
302.616
302.782
302.959
303.098
303.243
303.318
303.444
303.507
303.606
301.535
301.959
302.268
302.368
302.523
302.678
302.842
303.021
303.153
303.299
303.374
303.523
303.581
303.742
301.347
301.962
302.37
302.521
302.666
302.806
302.947
303.112
303.232
303.37
303.442
303.597
303.629
303.868
301.13
301.96
302.399
302.625
302.781
302.931
303.055
303.186
303.292
303.418
303.5
303.648
303.666
303.942
301.184
302.103
302.644
302.912
303.025
303.108
303.189
303.29
303.359
303.45
303.542
303.687
303.731
303.922
302.96
302.818
302.856
302.928
303.116
303.274
303.532
303.792
304.065
304.32
304.52
304.745
304.836
304.86
303.089
302.799
302.817
302.854
303.041
303.204
303.455
303.702
303.944
304.17
304.328
304.495
304.53
304.577
303.147
302.871
302.848
302.843
302.982
303.118
303.331
303.539
303.779
304.003
304.147
304.323
304.373
304.414
303.09
302.87
302.824
302.822
302.927
303.049
303.253
303.465
303.683
303.882
303.997
304.138
304.167
304.188
302.962
302.825
302.77
302.783
302.881
303.012
303.192
303.391
303.585
303.769
303.878
304.017
304.054
304.057
302.886
302.808
302.757
302.784
302.872
302.999
303.159
303.343
303.519
303.682
303.778
303.893
303.933
303.948
302.781
302.751
302.711
302.754
302.84
302.968
303.125
303.3
303.468
303.623
303.719
303.824
303.857
303.892
302.739
302.749
302.716
302.773
302.852
302.972
303.124
303.288
303.445
303.593
303.684
303.785
303.805
303.872
302.673
302.692
302.692
302.749
302.847
302.97
303.125
303.289
303.436
303.582
303.673
303.778
303.812
303.891
302.666
302.696
302.74
302.783
302.899
303.023
303.172
303.33
303.462
303.603
303.686
303.803
303.855
303.944
302.552
302.645
302.752
302.813
302.948
303.084
303.233
303.392
303.513
303.65
303.722
303.854
303.908
304.032
302.523
302.696
302.867
302.95
303.073
303.199
303.33
303.479
303.588
303.718
303.783
303.925
303.967
304.149
302.432
302.738
302.942
303.06
303.185
303.32
303.437
303.564
303.657
303.769
303.84
303.975
304.009
304.223
302.536
302.982
303.213
303.354
303.403
303.487
303.569
303.673
303.736
303.827
303.904
304.029
304.091
304.27
304.195
304.428
304.663
304.839
305.055
305.145
305.219
304.103
304.318
304.534
304.682
304.86
304.911
304.993
303.958
304.175
304.387
304.526
304.705
304.766
304.847
303.892
304.086
304.274
304.393
304.541
304.586
304.642
303.819
303.993
304.165
304.28
304.42
304.476
304.512
303.764
303.924
304.078
304.182
304.297
304.353
304.396
303.719
303.87
304.015
304.116
304.22
304.265
304.321
303.699
303.839
303.975
304.069
304.168
304.199
304.269
303.217
303.206
303.182
303.231
303.309
303.415
303.548
303.69
303.823
303.958
304.048
304.147
304.188
304.262
303.212
303.195
303.208
303.248
303.344
303.451
303.58
303.717
303.838
303.967
304.05
304.157
304.207
304.286
303.165
303.168
303.213
303.268
303.385
303.502
303.631
303.769
303.878
304.001
304.072
304.188
304.238
304.338
303.178
303.225
303.313
303.381
303.488
303.594
303.711
303.843
303.941
304.057
304.118
304.243
304.29
304.435
303.187
303.261
303.38
303.472
303.587
303.697
303.803
303.922
304.004
304.101
304.157
304.279
304.331
304.51
303.337
303.532
303.648
303.718
303.766
303.839
303.919
304.017
304.086
304.167
304.226
304.333
304.406
304.566
294.217
293.747
293.072
293.066
292.695
292.342
293.032
292.59
292.56
293.635
294.184
294.555
294.232
293.936
294.139
295.515
296.573
297.408
295.198
294.96
295.563
297.521
299.383
300.662
297.315
297.199
298.097
300.178
302.344
303.856
299.205
299.379
300.78
303.098
305.271
306.729
301.235
301.819
303.503
305.724
307.549
308.843
302.878
303.968
305.876
307.728
309.133
310.145
304.262
305.679
307.438
308.908
309.906
310.579
305.44
306.838
308.149
309.192
309.672
310.41
306.113
307.342
308.134
308.741
308.873
309.308
306.216
307.11
307.223
307.221
307.066
307.141
305.875
305.958
305.416
305.005
304.569
304.105
304.514
304.193
303.36
302.814
301.819
300.827
291.99
291.026
290.074
289.925
289.714
289.727
290.904
289.774
289.37
290.249
291.108
291.911
292.137
291.279
291.113
292.232
293.631
294.964
293.414
292.606
292.685
294.307
296.494
298.395
295.772
295.098
295.438
297.298
299.9
302.007
298.202
297.801
298.592
300.755
303.554
305.525
300.491
300.603
301.811
303.971
306.56
308.262
302.188
302.863
304.429
306.409
308.539
309.918
303.496
304.651
306.313
308.054
309.584
310.53
304.448
305.699
307.024
308.358
309.445
310.173
305.104
306.241
307.268
308.14
308.539
308.891
305.327
306.174
306.535
306.606
306.302
306.297
304.956
305.066
304.655
304.111
303.332
302.927
303.461
303.242
302.235
301.387
300.16
299.414
292.622
290.648
288.632
287.814
287.61
288.003
291.986
289.622
287.863
287.852
288.377
289.44
293.221
290.965
289.573
289.709
290.48
292.005
294.714
292.591
291.439
291.777
293.095
295.22
296.846
295.11
294.294
294.885
296.568
299.075
298.942
297.874
297.546
298.484
300.518
303.165
300.833
300.461
300.724
301.964
304.129
306.663
302.218
302.466
303.2
304.721
306.721
308.943
303.253
303.963
305.007
306.555
308.216
310.004
303.939
304.833
305.818
307.112
308.438
309.989
304.396
305.255
306.074
307.128
308.014
309.118
304.574
305.28
305.685
306.09
306.27
306.705
304.379
304.529
304.227
303.883
303.396
303.206
303.215
302.88
301.915
301.047
299.962
299.296
295.505
292.93
289.592
287.589
286.515
286.362
294.883
291.974
288.697
287.012
286.466
286.985
295.78
292.937
289.993
288.482
288.158
288.978
297.061
294.437
291.895
290.622
290.591
291.833
298.639
296.532
294.596
293.744
294.052
295.563
300.122
298.76
297.623
297.301
298.033
299.776
301.466
300.839
300.487
300.693
301.778
303.6
302.47
302.481
302.705
303.364
304.695
306.448
303.268
303.689
304.292
305.271
306.647
308.186
303.807
304.435
305.142
306.163
307.374
308.701
304.143
304.796
305.473
306.467
307.517
308.629
304.298
304.935
305.473
306.18
306.697
307.175
304.304
304.702
304.786
304.798
304.473
304.205
303.679
303.596
303.009
302.433
301.313
300.395
298.667
296.697
293.183
290.111
287.921
286.897
298.265
295.755
292.24
289.303
287.293
286.579
298.737
296.358
293.129
290.269
288.448
288.075
299.533
297.481
294.689
292.14
290.611
290.66
300.545
298.905
296.773
294.851
293.835
294.244
301.444
300.392
299.058
297.95
297.57
298.299
302.291
301.79
301.174
300.83
301.011
301.932
302.964
302.921
302.913
303.12
303.724
304.862
303.543
303.821
304.181
304.772
305.657
306.854
303.982
304.455
304.973
305.722
306.64
307.802
304.28
304.802
305.345
306.131
307.013
308.093
304.444
304.967
305.472
306.166
306.812
307.487
304.488
304.972
305.248
305.505
305.483
305.387
304.165
304.397
304.193
303.913
303.158
302.328
301.102
300.01
297.435
294.417
291.523
289.572
300.904
299.285
296.572
293.56
290.616
288.612
301.102
299.538
297.071
294.136
291.291
289.342
301.518
300.14
298.039
295.429
292.968
291.468
302.049
300.982
299.323
297.34
295.529
294.712
302.506
301.864
300.805
299.559
298.556
298.339
302.992
302.711
302.196
301.648
301.359
301.569
303.423
303.442
303.388
303.404
303.621
304.204
303.848
304.075
304.323
304.692
305.263
306.115
304.214
304.589
304.993
305.552
306.26
307.213
304.479
304.915
305.371
306.012
306.733
307.677
304.663
305.114
305.562
306.178
306.798
307.551
304.701
305.147
305.53
305.949
306.186
306.365
304.635
304.951
304.972
304.999
304.702
304.218
302.628
302.288
300.971
299.001
296.478
294.24
302.49
301.792
300.314
298.165
295.451
292.976
302.529
301.831
300.404
298.307
295.692
293.16
302.716
302.101
300.846
298.94
296.619
294.437
303.003
302.54
301.535
300.03
298.245
296.735
303.244
302.991
302.371
301.409
300.328
299.577
303.57
303.493
303.201
302.743
302.322
302.168
303.886
303.962
303.964
303.941
304.005
304.26
304.214
304.412
304.613
304.875
305.257
305.841
304.524
304.822
305.142
305.571
306.103
306.846
304.749
305.103
305.47
305.987
306.581
307.377
304.942
305.32
305.695
306.207
306.747