/*--------------------------------*- C++ -*----------------------------------*\
| =========                 |                                                 |
| \\      /  F ield         | OpenFOAM: The Open Source CFD Toolbox           |
|  \\    /   O peration     | Version:  v2106                                 |
|   \\  /    A nd           | Website:  www.openfoam.com                      |
|    \\/     M anipulation  |                                                 |
\*---------------------------------------------------------------------------*/
FoamFile
{
    version     2.0;
    format      ascii;
    arch        "LSB;label=32;scalar=64";
    class       volVectorField;
    location    "0.000138";
    object      U;
}
// * * * * * * * * * * * * * * * * * * * * * * * * * * * * * * * * * * * * * //

dimensions      [0 1 -1 0 0 0 0];

internalField   nonuniform List<vector> 
18273
(
(-8.61724 16.4639 -112.11)
(-7.09826 12.8893 -114.031)
(-4.57693 11.1799 -116.791)
(-3.05787 7.93231 -119.848)
(-1.39377 4.77282 -123.535)
(-0.118557 0.801498 -126.539)
(0.449062 -2.58534 -129.677)
(0.296281 -5.76616 -131.832)
(-0.555981 -8.07845 -133.779)
(-1.57367 -9.7424 -135.121)
(-2.54399 -10.629 -135.918)
(-3.90266 -10.9026 -135.528)
(-4.82646 -11.3989 -133.409)
(-6.48357 -11.1136 -128.91)
(-6.066 12.4661 -121.964)
(-4.73059 10.2212 -126.571)
(-1.65855 8.36188 -128.599)
(0.197471 5.3754 -130.748)
(2.11267 2.45231 -132.779)
(3.06389 -0.771076 -134.127)
(3.4179 -3.40174 -135.619)
(3.09744 -5.80094 -136.271)
(2.19466 -7.5154 -137.253)
(1.06881 -8.87856 -137.94)
(-0.250424 -9.59349 -138.63)
(-1.99477 -9.78209 -138.385)
(-3.53003 -9.84301 -136.113)
(-5.14398 -9.54111 -130.524)
(-5.84913 10.5748 -129.181)
(-4.3224 7.92763 -133.957)
(-1.04614 5.83965 -135.817)
(1.13249 3.39355 -137.432)
(3.19012 1.24905 -138.207)
(4.16151 -1.16391 -138.382)
(4.59029 -3.2782 -138.697)
(4.28069 -5.08722 -138.602)
(3.50075 -6.40692 -139.018)
(2.39749 -7.39385 -139.302)
(0.987188 -7.81167 -139.783)
(-0.884612 -7.77257 -139.524)
(-2.76434 -7.7883 -137.372)
(-4.42437 -7.98129 -132.006)
(-5.82803 8.63677 -132.902)
(-4.33994 5.36488 -137.175)
(-1.4024 2.84855 -138.991)
(0.808569 0.748809 -140.238)
(2.84533 -0.741794 -140.317)
(3.94253 -2.30967 -140.113)
(4.43242 -3.67687 -139.957)
(4.24629 -4.82706 -139.716)
(3.67057 -5.73785 -139.927)
(2.71968 -6.36501 -140.167)
(1.4512 -6.45103 -140.582)
(-0.152025 -6.19896 -140.382)
(-1.8022 -6.13422 -138.469)
(-3.38292 -6.69284 -133.687)
(-5.71234 6.66059 -133.731)
(-4.40434 2.76834 -137.691)
(-1.85887 0.000687948 -139.559)
(0.115216 -1.69332 -140.734)
(1.96588 -2.62237 -140.631)
(3.09864 -3.45088 -140.467)
(3.72291 -4.15476 -140.262)
(3.76236 -4.76393 -140.096)
(3.35538 -5.26613 -140.164)
(2.63202 -5.56073 -140.44)
(1.67542 -5.37749 -140.829)
(0.500244 -4.97923 -140.681)
(-0.625545 -4.79642 -139.043)
(-1.82932 -5.45823 -134.958)
(-4.51065 5.26172 -132.961)
(-3.46296 0.65674 -136.832)
(-1.32196 -2.30799 -139.062)
(0.184863 -3.77766 -140.434)
(1.67395 -4.3575 -140.605)
(2.60587 -4.59794 -140.502)
(3.17466 -4.79068 -140.352)
(3.27986 -4.9624 -140.232)
(3.07812 -5.08695 -140.326)
(2.58042 -5.08049 -140.6)
(1.9828 -4.73001 -140.95)
(1.22604 -4.32352 -140.839)
(0.638094 -4.10782 -139.569)
(-0.114197 -4.89475 -136.285)
(-2.46611 4.20457 -130.764)
(-1.78348 -1.07164 -135.159)
(0.0453579 -4.10061 -138.12)
(1.10158 -5.44571 -139.907)
(2.16761 -5.80626 -140.488)
(2.77454 -5.65403 -140.605)
(3.10112 -5.46099 -140.561)
(3.13787 -5.35549 -140.475)
(2.9953 -5.21781 -140.622)
(2.65796 -4.94539 -140.914)
(2.39918 -4.53868 -141.176)
(2.03111 -4.16825 -141.013)
(1.94475 -4.01103 -139.996)
(1.6302 -4.62559 -137.339)
(0.967233 3.07971 -127.938)
(1.10151 -2.45217 -133.794)
(2.18151 -5.52222 -137.851)
(2.62272 -6.69435 -140.072)
(3.22833 -6.74957 -140.887)
(3.43255 -6.34169 -141.103)
(3.47773 -5.92559 -141.006)
(3.2853 -5.67272 -140.968)
(3.09479 -5.3969 -141.139)
(2.84876 -5.12487 -141.372)
(2.83688 -4.76691 -141.568)
(2.85781 -4.38493 -141.396)
(3.13162 -4.30287 -140.546)
(3.12056 -4.93281 -138.302)
(5.10764 2.65547 -124.001)
(4.38083 -2.88985 -131.518)
(4.71248 -5.95198 -136.925)
(4.58416 -7.17239 -140.008)
(4.59757 -7.14225 -141.334)
(4.28197 -6.61592 -141.717)
(3.87678 -6.06791 -141.655)
(3.44379 -5.7279 -141.674)
(3.15196 -5.50629 -141.79)
(3.02347 -5.3691 -141.956)
(3.19342 -5.13012 -142.086)
(3.49678 -4.77391 -141.943)
(4.05827 -4.75043 -141.19)
(4.27772 -5.21192 -139.065)
(9.69239 2.81278 -119.821)
(8.10926 -2.77415 -129.416)
(7.4914 -5.90735 -136.362)
(6.59072 -7.13646 -140.266)
(5.82473 -6.98132 -141.996)
(4.94778 -6.32547 -142.435)
(4.15433 -5.77517 -142.292)
(3.5433 -5.6104 -142.276)
(3.21266 -5.60924 -142.229)
(3.16754 -5.64898 -142.357)
(3.40852 -5.60053 -142.498)
(3.88168 -5.42021 -142.338)
(4.67878 -5.44946 -141.6)
(5.05949 -5.79069 -139.39)
(13.1934 3.51696 -115.087)
(11.1283 -1.55831 -126.73)
(9.87616 -4.5752 -135.217)
(8.3347 -5.93074 -140.097)
(6.8371 -5.86682 -142.321)
(5.38463 -5.33339 -142.853)
(4.26303 -5.06365 -142.673)
(3.55315 -5.25346 -142.553)
(3.2068 -5.66774 -142.377)
(3.13297 -6.01788 -142.452)
(3.49187 -6.22928 -142.521)
(4.06163 -6.31188 -142.188)
(5.05246 -6.3888 -141.331)
(5.51045 -6.57685 -138.826)
(16.5623 4.29171 -111.609)
(13.8085 -0.687678 -124.266)
(12.1695 -3.40951 -133.591)
(10.1034 -4.51801 -139.173)
(8.08517 -4.37717 -141.812)
(6.10287 -4.01073 -142.465)
(4.59412 -4.16719 -142.321)
(3.66301 -4.79243 -142.173)
(3.22746 -5.59748 -141.919)
(3.13487 -6.32154 -141.716)
(3.68062 -6.85479 -141.5)
(4.34272 -7.17388 -140.825)
(5.47748 -7.23153 -139.765)
(5.78273 -7.28508 -136.876)
(17.5495 6.10074 -108.697)
(14.9504 1.6919 -122.043)
(13.4139 -0.728671 -131.818)
(11.0351 -1.92384 -137.782)
(9.13787 -2.01432 -140.848)
(7.0752 -1.98788 -141.608)
(5.52603 -2.71791 -141.34)
(4.45386 -3.87189 -140.709)
(3.76933 -5.16103 -139.983)
(3.68752 -6.34922 -139.202)
(4.30971 -7.24631 -138.365)
(5.00467 -7.69501 -137.193)
(6.18174 -7.65206 -135.958)
(6.18248 -7.47379 -132.942)
(20.5087 6.43135 -106.756)
(16.0435 1.66585 -117.307)
(14.7337 -0.0990729 -126.901)
(11.672 -0.685276 -133.419)
(10.0546 -0.636899 -137.179)
(8.117 -0.756407 -138.298)
(6.8317 -1.83214 -138.129)
(5.99823 -3.3979 -137.123)
(5.39401 -5.36223 -135.795)
(5.23602 -7.24289 -134.13)
(5.64191 -8.61341 -132.23)
(6.09011 -9.33228 -130.289)
(6.91867 -8.94213 -128.74)
(6.56234 -8.94694 -126.63)
(-14.3919 29.2863 -104.089)
(-12.9611 23.4604 -105.495)
(-10.3027 19.3478 -109.827)
(-8.12219 13.3097 -114.065)
(-6.19788 8.17498 -119.71)
(-4.21365 2.26834 -123.584)
(-3.54427 -2.76509 -127.6)
(-4.11481 -7.64906 -130.049)
(-5.5501 -10.873 -133.117)
(-7.42736 -12.9156 -135.498)
(-8.71771 -13.7879 -137.195)
(-10.2887 -14.153 -137.389)
(-11.5375 -14.559 -135.134)
(-12.371 -15.3554 -128.793)
(-7.49723 24.252 -117.771)
(-6.38412 20.0193 -121.557)
(-3.06787 15.9582 -123.672)
(-0.964139 10.4195 -125.475)
(1.13153 5.19638 -128.256)
(2.38896 -0.154476 -129.339)
(2.42877 -4.22149 -131.335)
(1.07778 -7.76481 -131.967)
(-0.984506 -9.9842 -133.979)
(-3.44206 -11.5862 -135.642)
(-5.74748 -11.8911 -137.315)
(-8.3023 -11.8928 -137.86)
(-11.0237 -12.2081 -135.689)
(-12.7512 -13.4888 -128.895)
(-5.25981 20.5523 -129.823)
(-2.53176 16 -132.47)
(0.920769 11.6918 -132.751)
(3.39358 6.75304 -132.488)
(5.33385 2.43435 -133.209)
(5.8565 -1.41413 -132.755)
(5.12498 -4.52947 -133.162)
(3.39229 -7.08794 -132.822)
(1.23571 -8.83005 -133.917)
(-1.3798 -9.75769 -135.15)
(-3.89607 -9.78221 -136.58)
(-6.5363 -9.67507 -137.417)
(-9.46972 -10.1345 -135.914)
(-11.5751 -11.8915 -130.082)
(-4.27737 17.422 -136.624)
(-1.6426 11.9142 -137.647)
(1.59778 6.99635 -136.701)
(4.14309 2.35209 -135.602)
(6.21267 -0.985293 -135.144)
(6.69159 -3.44971 -134.017)
(5.69981 -5.46518 -133.559)
(3.83417 -7.06462 -133.087)
(1.80955 -8.19716 -133.828)
(-0.379797 -8.80453 -134.76)
(-2.58935 -8.41112 -136.002)
(-4.87369 -7.96402 -136.92)
(-7.48516 -8.34893 -136.022)
(-9.47596 -10.3732 -131.687)
(-4.65814 14.677 -138.103)
(-2.69006 8.06506 -138.367)
(0.633743 2.56659 -136.895)
(3.12163 -1.78028 -135.912)
(5.03603 -4.13778 -135.041)
(5.68444 -5.48361 -134.021)
(5.04851 -6.51365 -133.444)
(3.68026 -7.44481 -133.163)
(1.80135 -8.12585 -133.665)
(-0.232661 -8.29512 -134.66)
(-1.94459 -7.51891 -135.824)
(-3.49959 -6.89757 -136.69)
(-5.26533 -7.29134 -136.262)
(-6.55196 -9.15305 -133.158)
(-3.84048 12.845 -136.783)
(-2.29978 4.82707 -136.896)
(0.495516 -1.44182 -136.148)
(2.41271 -5.39206 -135.812)
(3.7992 -6.99795 -135.069)
(4.31272 -7.57653 -134.168)
(3.96981 -7.98837 -133.488)
(3.04146 -8.36316 -133.185)
(1.68798 -8.51712 -133.656)
(0.0860518 -8.40828 -134.652)
(-1.15792 -7.63824 -135.798)
(-2.06473 -7.0868 -136.506)
(-2.91027 -7.35647 -136.372)
(-3.35527 -8.8682 -134.518)
(-1.56884 11.4221 -133.671)
(-0.265406 1.97342 -134.72)
(1.93445 -4.96247 -135.226)
(3.1613 -8.63724 -135.538)
(3.90439 -9.80289 -135.217)
(3.98157 -10.0342 -134.575)
(3.55021 -9.89474 -134.042)
(2.6958 -9.7865 -133.701)
(1.53667 -9.42096 -134.041)
(0.332781 -9.08153 -135.15)
(-0.372285 -8.4157 -136.401)
(-0.737749 -8.05835 -137.074)
(-0.729529 -8.22688 -137.318)
(-0.454353 -9.19026 -136.358)
(3.27431 9.92963 -129.873)
(3.76529 -0.474955 -133.714)
(4.75683 -7.5618 -135.837)
(5.25832 -10.9937 -136.655)
(5.34245 -11.9051 -136.357)
(4.92533 -11.9376 -135.927)
(4.23032 -11.4312 -135.22)
(3.10241 -11.1019 -134.931)
(1.96588 -10.5296 -135.135)
(1.06376 -10.1824 -136.092)
(0.757657 -9.672 -137.232)
(0.699167 -9.35697 -138.117)
(1.17535 -9.4547 -138.649)
(2.00256 -10.1006 -138.216)
(9.6137 9.22604 -124.132)
(8.71081 -1.34974 -130.501)
(8.43628 -8.94148 -134.811)
(8.3865 -12.4213 -137.316)
(7.49752 -13.4704 -137.782)
(6.35158 -13.079 -137.565)
(5.02229 -12.3029 -136.823)
(3.49277 -11.8709 -136.825)
(2.1871 -11.5769 -136.999)
(1.38776 -11.5028 -137.803)
(1.2834 -11.2646 -138.816)
(1.69414 -10.8956 -139.738)
(2.58194 -10.9504 -140.444)
(3.85201 -11.619 -140.036)
(17.1962 9.63886 -118.014)
(14.9141 -1.43345 -127.418)
(12.9399 -9.38166 -134.682)
(11.6944 -13.1381 -138.751)
(9.63457 -14.1571 -139.834)
(7.62513 -13.3622 -139.583)
(5.64401 -12.4645 -138.704)
(3.77384 -12.1579 -138.875)
(2.3574 -12.292 -139.016)
(1.61022 -12.5566 -139.72)
(1.60596 -12.6979 -140.589)
(2.33926 -12.62 -141.329)
(3.52151 -12.7131 -142.047)
(5.14244 -13.126 -141.535)
(23.2715 10.8023 -110.674)
(20.5311 -0.0130755 -122.878)
(17.3 -8.29907 -132.975)
(15.1314 -12.4137 -139.44)
(11.9206 -13.2947 -141.773)
(8.93404 -12.3734 -141.661)
(6.28646 -11.7597 -140.667)
(4.06857 -11.9633 -140.706)
(2.55731 -12.7193 -140.519)
(1.75742 -13.4984 -141.099)
(1.80055 -14.1431 -141.843)
(2.68439 -14.5495 -142.452)
(4.15232 -14.7282 -143.042)
(5.9092 -14.913 -142.163)
(29.7376 12.0852 -105.086)
(25.9797 0.631814 -119.301)
(21.6309 -7.01697 -131.855)
(18.4032 -10.8281 -140.025)
(14.3847 -11.274 -143.223)
(10.7211 -10.3379 -143.294)
(7.63679 -10.1499 -142.266)
(5.16722 -11.0292 -141.98)
(3.65379 -12.6584 -141.361)
(2.80427 -14.3233 -141.593)
(2.93952 -15.6989 -141.844)
(3.85007 -16.6307 -142.114)
(5.39006 -16.9035 -142.338)
(6.84376 -16.716 -140.925)
(33.5298 14.3308 -100.421)
(29.0355 4.23241 -116.963)
(24.8025 -3.38828 -130.87)
(20.6832 -7.53914 -139.877)
(16.5443 -8.08385 -144.011)
(12.746 -7.4719 -144.341)
(9.79585 -7.90884 -143.236)
(7.45623 -9.47305 -142.122)
(5.93111 -11.8657 -140.801)
(5.11003 -14.5412 -140.242)
(5.39552 -16.6352 -139.356)
(6.30439 -17.8889 -138.689)
(7.88666 -18.002 -138.347)
(8.39001 -17.1649 -136.533)
(38.4047 14.3528 -98.6825)
(32.0701 3.96352 -111.997)
(27.9645 -2.0042 -126.091)
(22.8864 -4.95039 -136.499)
(19.2459 -5.16754 -141.993)
(15.6606 -4.83046 -142.93)
(13.1766 -6.04647 -141.812)
(11.3657 -8.36533 -140.078)
(10.1715 -11.5911 -137.941)
(9.56678 -15.2123 -135.807)
(9.7894 -18.2094 -133.19)
(10.305 -19.9667 -130.7)
(11.419 -20.3217 -128.987)
(12.5117 -19.0896 -128.334)
(-12.3103 52.5714 -97.1794)
(-9.20589 42.361 -97.1525)
(-6.37424 33.2875 -102.762)
(-4.11163 22.0189 -106.502)
(-4.74456 12.0854 -112.036)
(-4.83195 2.60001 -114.5)
(-7.28953 -3.85946 -118.302)
(-10.9449 -8.90638 -120.743)
(-15.4702 -11.3668 -124.68)
(-20.8694 -11.4726 -128.709)
(-25.1689 -9.50256 -132.64)
(-29.3643 -6.93451 -134.094)
(-33.2337 -5.49059 -130.977)
(-36.1425 -9.01661 -123.201)
(-0.296704 46.6854 -109.737)
(2.11193 38.746 -111.734)
(5.00072 30.3762 -115.187)
(6.77861 20.3945 -116.204)
(6.07883 10.7884 -118.126)
(4.69592 2.20112 -117.533)
(1.11304 -3.80581 -118.561)
(-3.66408 -7.80176 -118.961)
(-9.01987 -9.36916 -121.865)
(-15.0475 -8.90914 -125.668)
(-20.4078 -6.55946 -129.847)
(-25.7244 -4.12238 -132.232)
(-31.0813 -2.69261 -130.477)
(-34.9368 -5.20055 -122.941)
(4.51722 41.3697 -121.897)
(8.05708 33.1553 -122.158)
(10.0139 24.8736 -123.453)
(11.9386 16.4383 -121.853)
(11.205 8.22718 -120.763)
(8.95047 1.52986 -118.404)
(4.9291 -3.23311 -118.103)
(0.115463 -6.4816 -117.605)
(-5.31949 -7.50016 -119.494)
(-11.2166 -6.7376 -122.553)
(-16.4654 -4.45008 -126.616)
(-21.3432 -2.33341 -130.15)
(-26.7682 -1.44443 -130.145)
(-30.8813 -3.72403 -124.399)
(4.78602 35.4918 -129.425)
(7.59584 26.8784 -127.859)
(9.37133 18.3792 -126.49)
(11.4801 10.8952 -123.415)
(11.6499 4.32342 -120.737)
(9.62409 -0.490649 -118.009)
(5.69785 -3.7375 -117.009)
(1.07583 -5.92407 -116.465)
(-3.81581 -6.23058 -117.869)
(-8.95713 -5.20655 -120.432)
(-13.4135 -2.77635 -124.095)
(-17.4081 -0.711539 -127.481)
(-21.8505 -0.244099 -128.055)
(-25.06 -3.25705 -124.734)
(1.01826 30.7756 -131.747)
(3.46307 21.0828 -128.747)
(5.95406 12.3499 -125.4)
(8.17263 5.47654 -121.866)
(9.11251 0.446605 -119.123)
(7.74158 -2.74518 -116.857)
(4.76071 -4.83852 -116.125)
(0.9697 -6.42334 -115.646)
(-3.29278 -6.41232 -116.582)
(-7.61839 -5.32612 -118.697)
(-11.1023 -3.00725 -121.818)
(-13.7381 -1.17539 -125.096)
(-16.6428 -1.16414 -126.631)
(-18.8491 -4.36574 -125.847)
(-1.74804 26.1833 -130.297)
(0.19999 15.0829 -126.829)
(2.90943 5.86142 -123.401)
(4.89199 -0.588912 -120.368)
(6.05268 -4.21568 -118.082)
(5.19911 -6.05533 -116.253)
(3.04973 -6.93182 -115.483)
(0.255967 -7.92725 -115.14)
(-3.07262 -7.69933 -115.941)
(-6.43283 -6.86056 -117.893)
(-8.94463 -4.89963 -120.508)
(-10.5833 -3.33287 -123.086)
(-12.1694 -3.6008 -124.584)
(-12.8286 -6.57995 -125.032)
(-1.17329 21.8832 -126.741)
(0.346056 9.12052 -123.708)
(2.63636 -0.913312 -121.247)
(4.1754 -7.15146 -119.316)
(4.94155 -9.70953 -117.627)
(4.07639 -10.4907 -116.254)
(2.35785 -10.2754 -115.449)
(0.0695962 -10.5065 -115.16)
(-2.62181 -9.89968 -115.748)
(-5.20237 -9.35859 -117.582)
(-7.00908 -7.93545 -119.937)
(-8.03889 -6.87104 -122.408)
(-8.43948 -7.46879 -124.672)
(-7.84154 -10.6396 -126.091)
(3.46043 18.1685 -123.228)
(4.87995 3.63689 -122.165)
(5.90916 -7.19599 -121.403)
(6.78238 -13.0306 -120.429)
(6.51487 -14.8522 -118.822)
(5.20353 -14.7038 -117.506)
(3.28847 -13.6467 -116.37)
(0.808166 -13.4278 -116.103)
(-1.78204 -12.6822 -116.465)
(-3.96534 -12.6498 -118.029)
(-5.37343 -11.8966 -119.979)
(-5.9556 -11.5492 -122.313)
(-5.24752 -12.554 -124.885)
(-3.75361 -15.9165 -127.266)
(10.5864 15.0048 -117.676)
(11.5318 -0.767506 -118.318)
(11.5612 -12.1908 -120.108)
(11.3607 -17.8269 -120.645)
(9.38672 -19.3909 -120.07)
(7.12332 -18.2538 -118.972)
(4.1945 -16.6159 -117.855)
(1.07536 -16.1997 -118.064)
(-1.86668 -15.8216 -118.355)
(-3.87243 -16.4362 -119.884)
(-5.15438 -16.5743 -121.728)
(-5.0276 -17.0619 -124.217)
(-3.49139 -18.733 -127.002)
(-1.61727 -22.2882 -129.927)
(21.4819 14.0718 -112.598)
(21.5393 -3.21546 -116.216)
(19.8333 -15.0746 -120.78)
(17.4198 -21.067 -122.852)
(13.4171 -22.4549 -122.728)
(9.6093 -20.6973 -121.377)
(5.43975 -18.7749 -120.076)
(1.59104 -18.4842 -120.693)
(-1.95104 -18.8112 -121.08)
(-4.15675 -20.1566 -122.734)
(-5.34756 -21.3966 -124.562)
(-4.69906 -22.9003 -126.969)
(-2.93211 -25.1497 -129.674)
(-0.992195 -28.5129 -132.438)
(32.322 12.1273 -104.349)
(31.899 -4.60541 -111.561)
(28.6985 -16.2171 -119.147)
(24.6168 -22.3668 -123.828)
(18.6668 -23.3398 -125.232)
(12.8939 -21.3953 -124.389)
(7.08451 -19.8118 -123.025)
(2.07545 -20.1073 -123.722)
(-2.25016 -21.2595 -124.074)
(-4.80227 -23.5606 -125.945)
(-5.99293 -26.0771 -127.732)
(-5.38723 -28.5124 -130.182)
(-3.95584 -31.1644 -132.387)
(-2.40031 -34.1374 -134.361)
(44.9363 13.4441 -99.2137)
(42.752 -4.16902 -108.576)
(37.5258 -15.4027 -118.875)
(31.8384 -21.4687 -125.605)
(24.5419 -21.9176 -128.13)
(17.3737 -19.7955 -127.681)
(10.2107 -18.8768 -126.465)
(4.19986 -20.4209 -127.016)
(-0.689121 -23.1496 -126.818)
(-3.52789 -26.8514 -128.501)
(-4.9212 -30.7448 -129.448)
(-4.65322 -34.0888 -131.433)
(-3.76777 -37.0854 -132.083)
(-2.22923 -39.7141 -132.543)
(53.9969 15.1434 -92.031)
(50.9121 -0.331425 -105.044)
(45.525 -12.4083 -116.956)
(38.9973 -19.5618 -125.081)
(31.4065 -19.6381 -130.001)
(23.6916 -17.2979 -130.858)
(16.0771 -16.9192 -129.825)
(9.37856 -19.3653 -129.536)
(4.04972 -23.7356 -128.46)
(0.713751 -29.4568 -129.028)
(-1.25756 -34.7176 -128.042)
(-1.50128 -39.1481 -128.464)
(-0.661634 -41.9862 -127.57)
(0.578842 -43.2848 -125.861)
(64.2609 15.5119 -90.4902)
(57.5932 -0.599588 -100.345)
(52.9392 -10.9379 -113.093)
(46.055 -16.7025 -124.126)
(38.7527 -16.7906 -131.632)
(31.2955 -14.3236 -133.75)
(24.1974 -14.342 -132.885)
(17.867 -17.4192 -131.177)
(12.687 -22.4508 -128.21)
(8.69386 -29.4447 -126.465)
(5.99309 -35.9669 -122.821)
(4.81121 -41.8576 -120.333)
(5.35127 -45.4027 -117.876)
(8.28974 -46.9006 -117.499)
(-6.67915 -10.8931 -120.929)
(-8.50574 -10.7663 -110.798)
(-7.85069 -12.7645 -96.8965)
(-11.6884 -11.0375 -79.6126)
(-10.6588 -17.2313 -57.8267)
(-16.1541 -10.3174 -26.4284)
(-5.82997 -10.1863 -121.328)
(-8.16988 -10.238 -109.612)
(-7.08335 -12.382 -94.5009)
(-10.9252 -11.2932 -76.7531)
(-9.91986 -17.2231 -55.3839)
(-15.6102 -12.5165 -25.0888)
(-4.876 -9.19396 -122.645)
(-7.89366 -9.74346 -110.12)
(-6.32005 -12.2385 -94.5515)
(-10.3977 -11.9849 -76.6875)
(-7.86741 -18.1331 -55.7164)
(-14.6041 -15.3417 -25.9119)
(-3.77086 -8.44729 -124.799)
(-6.98523 -9.771 -112.284)
(-5.26558 -12.8128 -96.9418)
(-9.01183 -13.3607 -79.2247)
(-5.569 -19.5622 -58.8719)
(-13.3764 -17.6313 -28.4936)
(-1.86553 -7.61011 -127.037)
(-4.94747 -9.68464 -115.414)
(-3.01111 -13.3241 -101.05)
(-6.84022 -14.8239 -84.0366)
(-2.50954 -20.075 -63.7019)
(-11.8572 -19.2632 -32.0483)
(0.206151 -7.3557 -129.621)
(-2.40569 -9.81305 -119.215)
(-0.20334 -13.7259 -106.234)
(-4.07744 -15.6961 -90.1166)
(0.563851 -19.9688 -69.4227)
(-9.98038 -19.9942 -35.7493)
(2.42042 -6.93599 -131.876)
(0.405028 -9.60356 -122.783)
(2.69014 -13.6308 -111.132)
(-1.32761 -15.718 -95.8158)
(3.38009 -19.0002 -74.5843)
(-7.99714 -19.9906 -38.9614)
(4.22965 -6.97466 -133.706)
(2.72125 -9.34845 -125.559)
(4.94593 -12.8574 -114.647)
(0.860318 -14.79 -99.7718)
(5.62982 -17.2817 -78.1599)
(-6.00614 -19.2863 -41.2149)
(5.49856 -6.85993 -134.75)
(4.43421 -8.80742 -126.987)
(6.5951 -11.7594 -116.357)
(2.47478 -13.462 -101.801)
(7.37443 -15.2727 -80.2155)
(-4.20065 -18.3005 -42.5942)
(6.31919 -6.99427 -134.979)
(5.52063 -8.28453 -127.275)
(7.52993 -9.97417 -116.581)
(3.31434 -11.2304 -102.193)
(8.47737 -12.5533 -80.8806)
(-2.84869 -16.8162 -43.2076)
(6.96478 -7.25875 -134.099)
(6.21954 -7.73005 -126.137)
(8.23836 -8.32877 -115.056)
(4.10361 -9.53523 -100.43)
(9.42671 -10.1359 -79.0834)
(-1.23172 -15.4847 -41.8878)
(7.15366 -7.6688 -131.506)
(6.4777 -8.08676 -123.258)
(8.34592 -7.70281 -111.821)
(4.65236 -9.17904 -96.7698)
(10.4022 -9.47028 -75.015)
(0.820848 -15.2593 -38.1344)
(7.38406 -7.57171 -126.775)
(6.4566 -7.92801 -118.286)
(8.44184 -6.99645 -106.417)
(5.44725 -8.7139 -90.4496)
(11.4633 -8.97836 -68.2923)
(3.23572 -14.553 -32.7963)
(8.05956 -8.21344 -120.906)
(7.36221 -9.1509 -112.147)
(9.62234 -8.00741 -99.2223)
(7.36368 -10.4031 -82.0867)
(13.1639 -9.65691 -59.9796)
(5.82029 -14.3519 -27.519)
(-14.3957 -15.6449 -117.518)
(-16.4654 -16.3598 -103.097)
(-15.9084 -18.6988 -85.3396)
(-20.2357 -16.3145 -66.9933)
(-17.775 -22.4935 -47.1716)
(-22.5705 -15.3738 -19.619)
(-13.8676 -15.115 -117.445)
(-17.0349 -16.8767 -102.313)
(-16.3304 -19.7143 -83.8359)
(-20.945 -18.9023 -64.8685)
(-18.5408 -25.3897 -44.9446)
(-23.4752 -22.1579 -18.2764)
(-12.7184 -14.4232 -119.08)
(-16.7903 -17.3738 -104.036)
(-15.4476 -21.2284 -85.6312)
(-20.0999 -21.9721 -66.6359)
(-16.5826 -29.3481 -47.4858)
(-22.2531 -28.5995 -21.3177)
(-10.5079 -14.0526 -122.099)
(-14.9369 -17.8078 -107.922)
(-13.8051 -23.1999 -90.5156)
(-18.0606 -25.6454 -72.0167)
(-13.5569 -33.4701 -53.7862)
(-19.919 -33.1457 -26.3666)
(-7.09204 -13.2627 -125.326)
(-11.3504 -18.141 -112.965)
(-9.89174 -24.8864 -97.512)
(-13.9597 -28.7967 -80.0744)
(-8.59355 -36.0675 -61.8953)
(-16.9871 -35.5267 -32.1482)
(-3.47052 -13.079 -128.922)
(-7.08392 -18.3745 -118.78)
(-5.17642 -26.0052 -106.004)
(-9.00822 -30.6284 -89.8204)
(-3.39166 -36.858 -70.7427)
(-13.5834 -35.8442 -37.6797)
(0.00755652 -12.7853 -132.512)
(-2.30234 -18.2209 -124.517)
(-0.0274935 -25.9389 -114.146)
(-3.92191 -30.4025 -98.9825)
(1.64168 -35.4826 -78.3575)
(-10.5594 -34.5519 -41.8634)
(3.10505 -12.9822 -135.781)
(2.25117 -17.7428 -129.403)
(4.37401 -24.3855 -120.312)
(0.344797 -28.1695 -105.75)
(6.01688 -32.0095 -83.8525)
(-7.51039 -32.001 -45.0617)
(5.60018 -13.6921 -138.108)
(5.78102 -16.6408 -132.474)
(7.7091 -21.6099 -123.728)
(3.65055 -24.3549 -109.246)
(9.62736 -27.0832 -86.624)
(-4.82349 -27.765 -46.5194)
(6.9921 -14.3682 -139.455)
(7.70156 -15.6213 -133.83)
(10.1888 -18.5153 -124.474)
(6.39896 -19.9296 -108.871)
(12.8584 -21.5207 -85.0891)
(-2.82302 -24.0915 -44.9278)
(7.96566 -15.7009 -139.307)
(9.2381 -15.041 -132.758)
(12.0017 -16.1717 -121.728)
(8.36571 -17.286 -104.292)
(14.7663 -17.7742 -79.2659)
(-0.639104 -21.951 -40.1674)
(8.563 -17.3083 -136.572)
(10.2 -16.2866 -128.265)
(13.4371 -16.4094 -114.63)
(9.58247 -17.3382 -95.438)
(15.6711 -16.3192 -70.41)
(1.87841 -20.969 -34.114)
(9.8261 -17.6927 -129.863)
(11.5979 -16.8564 -118.996)
(14.5697 -16.1704 -102.85)
(10.2627 -17.2371 -83.0514)
(16.0917 -15.2068 -59.8906)
(5.33396 -20.0945 -27.551)
(13.9512 -20.0625 -120.959)
(14.9169 -20.7306 -108.026)
(17.1576 -19.3627 -90.1328)
(13.3444 -20.9756 -70.568)
(18.9141 -17.7718 -49.5697)
(10.1255 -20.9672 -20.7756)
(-40.7417 -7.90862 -111.074)
(-43.4893 -15.2551 -98.9011)
(-44.7856 -23.4602 -84.9137)
(-47.9826 -27.3951 -71.64)
(-43.4966 -34.3486 -63.5483)
(-54.0825 -24.7905 -46.0794)
(-38.4155 -8.59003 -110.374)
(-42.0133 -17.3313 -96.8985)
(-42.3708 -27.5589 -82.8592)
(-46.4423 -33.0859 -69.6329)
(-41.4825 -41.3312 -61.0321)
(-51.7889 -36.2482 -42.5119)
(-33.1084 -8.93704 -112.709)
(-38.1157 -18.7732 -99.6951)
(-37.0438 -30.3207 -86.0182)
(-41.3158 -37.4734 -71.7498)
(-35.4263 -46.9707 -61.4239)
(-45.6784 -46.6425 -42.2574)
(-26.2869 -10.3168 -115.978)
(-31.1986 -21.0667 -104.212)
(-29.7517 -33.9945 -91.293)
(-34.032 -42.6237 -76.9595)
(-27.9345 -52.8821 -66.0873)
(-37.9095 -54.8021 -45.3574)
(-19.2754 -11.8915 -119.893)
(-23.0973 -23.656 -110.254)
(-21.0643 -36.9716 -98.6689)
(-24.9922 -46.8746 -85.061)
(-18.9283 -57.2837 -73.5724)
(-30.0405 -59.4907 -50.6472)
(-12.1334 -14.271 -122.394)
(-14.348 -25.9594 -116.279)
(-12.1708 -39.153 -107.734)
(-15.9218 -49.7326 -95.6648)
(-10.2992 -59.5938 -83.0575)
(-23.8379 -60.5483 -56.9083)
(-6.20163 -17.9915 -125.841)
(-6.53713 -28.5078 -122.448)
(-4.23323 -40.5679 -116.951)
(-7.3193 -50.6192 -105.892)
(-2.35612 -60.1401 -91.655)
(-19.4591 -60.0583 -62.8504)
(-1.26176 -21.9888 -129.234)
(-0.571326 -30.7778 -127.841)
(1.47721 -41.4071 -123.837)
(-0.954311 -50.2075 -113.171)
(4.01423 -57.7513 -97.7806)
(-16.4081 -58.0874 -67.9275)
(1.31622 -26.729 -132.608)
(2.77448 -33.2139 -131.357)
(4.14747 -41.9158 -126.957)
(2.80459 -48.7974 -116.181)
(8.6569 -54.271 -101.107)
(-13.9128 -54.8116 -72.1736)
(1.3644 -31.9275 -134.702)
(3.54746 -36.3442 -132.571)
(5.54893 -43.1024 -126.99)
(5.09339 -47.3127 -115.467)
(12.1334 -50.477 -101.151)
(-11.5661 -51.4997 -73.1841)
(-0.671731 -37.4535 -134.403)
(2.00342 -40.3044 -130.637)
(5.71887 -44.9789 -122.939)
(6.18725 -48.0551 -110.139)
(14.4089 -48.9232 -96.1287)
(-8.67562 -52.0549 -69.1191)
(-1.20566 -42.9659 -129.749)
(2.17873 -44.7373 -123.541)
(6.91416 -48.8466 -113.429)
(8.48794 -51.2638 -99.4711)
(17.2468 -50.3674 -87.5477)
(-3.90934 -54.4313 -64.0312)
(1.17976 -46.2329 -120.875)
(6.44516 -47.4454 -113.001)
(11.7173 -50.7189 -100.833)
(14.0454 -52.0179 -86.7378)
(22.0722 -49.5147 -77.2749)
(4.47323 -55.4857 -56.7239)
(9.7157 -51.0263 -112.852)
(15.2864 -53.6195 -104.152)
(21.0701 -55.5018 -90.8615)
(23.5843 -55.9657 -77.1708)
(30.6988 -51.5394 -69.4847)
(16.1263 -57.7296 -49.914)
(7.91801 -8.54301 -117.639)
(8.01548 -9.87438 -106.909)
(10.0962 -8.22452 -92.7295)
(8.63987 -11.2316 -75.1377)
(14.6766 -9.52037 -53.6443)
(8.28387 -13.7564 -23.4691)
(7.7469 -8.05282 -118.204)
(8.41391 -10.1796 -105.668)
(10.6952 -8.36762 -90.1413)
(9.83445 -11.4633 -71.9682)
(15.3737 -9.50267 -50.8302)
(10.9145 -13.7361 -21.7591)
(7.86987 -8.46659 -119.842)
(9.22466 -10.5124 -106.439)
(11.9903 -8.29909 -90.5904)
(11.5206 -11.1721 -72.281)
(17.458 -7.95559 -51.5576)
(13.6674 -13.1206 -22.597)
(8.00657 -7.55356 -122.552)
(10.0323 -9.74329 -109.428)
(13.2529 -7.01301 -94.0314)
(13.5576 -9.83932 -75.8897)
(19.0409 -5.49205 -55.2998)
(15.9205 -12.221 -25.1902)
(8.43783 -5.80454 -125.832)
(11.1227 -7.83588 -113.688)
(14.6808 -4.7363 -99.2837)
(15.36 -7.74755 -81.5703)
(19.7831 -2.739 -60.3662)
(17.2368 -10.8441 -28.2593)
(9.05561 -3.52038 -128.959)
(11.9525 -5.10477 -117.908)
(15.6616 -1.91008 -104.436)
(16.415 -5.28192 -87.0506)
(19.8181 -0.0493108 -64.8674)
(17.9068 -9.11305 -30.763)
(9.62003 -1.34872 -131.326)
(12.3767 -2.6484 -121.082)
(15.7166 0.49908 -108.015)
(16.4214 -3.18386 -90.662)
(19.0597 2.25171 -67.7943)
(17.9896 -7.21231 -32.3487)
(10.0231 0.254647 -132.659)
(12.3431 -0.707907 -122.615)
(15.2897 2.45531 -109.543)
(15.8636 -1.46937 -92.2324)
(17.9573 4.27448 -69.1787)
(17.9421 -5.37782 -33.0217)
(10.6803 1.52569 -132.634)
(12.4032 0.90771 -122.54)
(14.3 4.12058 -109.255)
(14.7424 0.331784 -91.824)
(16.241 6.17704 -68.7488)
(17.6396 -3.09125 -32.6251)
(11.9169 2.15684 -131.065)
(12.863 1.97623 -120.664)
(13.8573 5.10177 -107.112)
(14.4698 1.50212 -89.479)
(15.5562 7.48257 -66.1352)
(18.0378 -0.921679 -30.6183)
(13.032 2.47807 -126.744)
(13.6638 2.59148 -116.141)
(14.0276 5.73489 -102.514)
(14.9941 2.78447 -84.9233)
(15.9694 9.12672 -62.0495)
(18.7178 2.0205 -27.7366)
(15.6133 3.5019 -119.607)
(15.6586 3.78793 -108.678)
(15.1016 6.99718 -94.8584)
(16.1284 4.86257 -77.3258)
(16.8992 11.2262 -55.4493)
(19.5181 5.566 -23.7464)
(16.3755 4.8381 -109.468)
(16.578 5.5446 -98.4823)
(15.7635 8.7958 -84.4756)
(17.1438 7.79549 -67.0578)
(17.8904 14.3219 -46.8706)
(19.6335 9.62203 -19.028)
(18.7544 8.70895 -99.5644)
(19.8452 9.75222 -88.6397)
(18.7236 12.9054 -74.3507)
(20.2816 12.5031 -57.3001)
(19.7536 18.2029 -38.7572)
(19.8384 13.1794 -14.4138)
(14.4473 -20.171 -114.583)
(15.9891 -21.4521 -98.9622)
(18.3527 -19.8067 -80.9064)
(16.0088 -22.5157 -62.323)
(22.0729 -18.905 -42.9006)
(15.8909 -22.1248 -16.1054)
(15.2187 -20.6017 -114.928)
(18.1954 -22.9598 -98.2136)
(21.3086 -21.3232 -79.4992)
(20.332 -24.2793 -60.5708)
(26.9853 -20.4278 -41.5201)
(23.4991 -23.4102 -15.5075)
(15.4192 -20.295 -117.816)
(20.1679 -23.4099 -101.471)
(24.8044 -20.8969 -83.0526)
(25.3103 -23.6639 -64.0656)
(32.6918 -18.6816 -45.9236)
(29.9041 -22.3791 -19.2485)
(16.1256 -18.0345 -122.399)
(21.9631 -21.4715 -107.582)
(28.1807 -18.71 -90.6475)
(29.856 -21.1258 -72.0323)
(36.9971 -14.8668 -53.9843)
(33.6793 -20.2044 -24.7755)
(16.7211 -14.3379 -127.594)
(23.5769 -17.6278 -115.031)
(30.8577 -14.388 -100.273)
(33.3475 -16.7827 -82.1138)
(39.4767 -9.71347 -62.856)
(35.4105 -17.3203 -30.3529)
(17.3171 -10.0435 -132.485)
(24.6217 -12.4326 -122.196)
(32.3258 -9.05264 -109.54)
(34.7522 -11.8907 -91.8016)
(39.5739 -4.45128 -70.6337)
(35.2573 -14.252 -34.6911)
(17.9927 -6.04967 -136.561)
(24.684 -7.2174 -127.875)
(31.714 -3.93885 -116.28)
(33.9216 -7.31475 -98.7263)
(37.5218 0.409398 -76.0265)
(33.5066 -10.9162 -37.7308)
(18.6587 -3.28609 -139.251)
(23.8784 -3.29934 -131.214)
(29.8206 0.00384039 -119.82)
(31.4109 -3.51318 -102.133)
(34.0075 4.78555 -78.5043)
(30.6665 -7.30441 -38.5984)
(19.9906 -1.62425 -140.169)
(23.1198 -0.66133 -131.919)
(27.5696 3.26601 -119.895)
(28.5049 0.087175 -101.176)
(30.4047 8.76721 -76.4036)
(28.8438 -3.93302 -36.3894)
(22.5868 -0.90894 -138.258)
(23.8468 1.45468 -128.959)
(27.0967 5.59007 -115.279)
(28.0926 2.72667 -95.3648)
(29.1824 11.4906 -70.0155)
(28.7213 -0.326537 -31.2178)
(25.6453 -0.494451 -131.152)
(26.1962 3.11136 -120.421)
(28.5016 8.08336 -105.028)
(29.1833 5.84125 -84.2193)
(29.195 14.1237 -59.4225)
(29.2757 4.33799 -23.9832)
(31.0493 2.9782 -119.193)
(31.21 7.20897 -107.01)
(31.9388 11.8699 -90.2507)
(32.2931 10.0372 -69.6769)
(31.6515 17.4498 -46.7511)
(31.8946 11.4466 -16.0099)
(33.14 8.5758 -103.414)
(33.4947 12.3449 -90.6686)
(33.4872 16.0331 -74.0558)
(34.3928 15.6259 -55.1361)
(33.8667 22.9064 -35.5646)
(33.3891 19.4028 -10.1487)
(37.3887 17.4844 -90.3296)
(39.1629 19.9797 -77.7155)
(38.209 23.6339 -62.0107)
(39.328 23.7872 -45.2689)
(37.6642 30.8334 -29.5021)
(34.803 26.3057 -6.88153)
(9.83145 -50.8274 -105.274)
(18.2247 -51.3325 -94.8062)
(26.2027 -51.5085 -82.1348)
(30.145 -52.7647 -69.4133)
(37.1325 -47.5594 -62.1641)
(27.9567 -56.4372 -43.2895)
(12.172 -49.1146 -105.587)
(22.7483 -50.3897 -94.1079)
(32.7745 -49.6779 -81.8658)
(37.9633 -51.0921 -68.8995)
(45.906 -45.1996 -60.8501)
(41.0151 -54.1014 -41.042)
(14.2422 -43.8917 -109.491)
(26.7403 -46.4811 -99.0723)
(38.1939 -44.066 -87.364)
(44.8619 -45.5477 -73.5726)
(53.3685 -38.5999 -64.1265)
(51.8711 -48.1214 -43.4062)
(17.6306 -36.4661 -115.054)
(31.0729 -38.8786 -105.986)
(43.7626 -36.0362 -95.8042)
(51.3776 -37.5609 -82.198)
(59.8732 -30.2808 -71.7765)
(59.0054 -40.6409 -48.6192)
(21.3767 -28.7652 -121.754)
(35.6197 -30.2454 -114.538)
(48.7836 -26.8768 -106)
(56.8245 -28.2953 -92.793)
(64.544 -21.0638 -80.7963)
(62.1563 -33.8697 -54.9168)
(25.3802 -20.6923 -126.842)
(39.2047 -21.0092 -122.081)
(52.0813 -17.8777 -115.666)
(60.0998 -19.3757 -103.03)