/*--------------------------------*- C++ -*----------------------------------*\
| =========                 |                                                 |
| \\      /  F ield         | OpenFOAM: The Open Source CFD Toolbox           |
|  \\    /   O peration     | Version:  v2106                                 |
|   \\  /    A nd           | Website:  www.openfoam.com                      |
|    \\/     M anipulation  |                                                 |
\*---------------------------------------------------------------------------*/
FoamFile
{
    version     2.0;
    format      ascii;
    arch        "LSB;label=32;scalar=64";
    class       volVectorField;
    location    "0.000192";
    object      U;
}
// * * * * * * * * * * * * * * * * * * * * * * * * * * * * * * * * * * * * * //

dimensions      [0 1 -1 0 0 0 0];

internalField   nonuniform List<vector> 
18069
(
(-0.0385904 -0.0389698 4.01972)
(-0.0320826 -0.0377976 4.02115)
(-0.0262336 -0.0388782 4.02288)
(-0.0204388 -0.0384588 4.02428)
(-0.0146853 -0.0384429 4.02518)
(-0.00895179 -0.0383039 4.02559)
(-0.00327304 -0.0382478 4.0257)
(0.00240948 -0.0383886 4.0255)
(0.00805019 -0.0385105 4.0251)
(0.0136471 -0.0387892 4.02443)
(0.0192553 -0.0389629 4.02332)
(0.0248839 -0.0395103 4.02177)
(0.0305258 -0.0384833 4.01986)
(0.0368425 -0.0394818 4.0183)
(-0.0374937 -0.0326244 4.02079)
(-0.0318299 -0.0322166 4.02185)
(-0.0264416 -0.0328935 4.02371)
(-0.020862 -0.0326854 4.02522)
(-0.0151247 -0.0327138 4.0264)
(-0.00930089 -0.0327017 4.02717)
(-0.00344837 -0.032724 4.02751)
(0.00238721 -0.0328017 4.02733)
(0.00823343 -0.0328108 4.02673)
(0.0139695 -0.0329157 4.02568)
(0.0195765 -0.032987 4.02428)
(0.0249859 -0.0332746 4.02265)
(0.0301555 -0.0326728 4.02062)
(0.0356913 -0.0329287 4.01943)
(-0.038537 -0.0268838 4.02235)
(-0.0324378 -0.0269649 4.0235)
(-0.0269094 -0.0274703 4.0258)
(-0.0210743 -0.0273283 4.02712)
(-0.0152299 -0.0272916 4.02826)
(-0.00934567 -0.0272085 4.02885)
(-0.00349145 -0.0271904 4.02909)
(0.00230368 -0.0272314 4.02893)
(0.00816845 -0.027284 4.02845)
(0.0139969 -0.027433 4.02761)
(0.0197506 -0.0275316 4.02628)
(0.0254753 -0.0276979 4.02482)
(0.0308122 -0.0272465 4.02236)
(0.036763 -0.0270662 4.02105)
(-0.0380563 -0.0211692 4.02358)
(-0.0321807 -0.0215019 4.02481)
(-0.0267473 -0.0217144 4.02693)
(-0.0210364 -0.0216802 4.02819)
(-0.0152776 -0.0216152 4.02931)
(-0.00942164 -0.0215538 4.02995)
(-0.0035426 -0.0215417 4.03024)
(0.00228477 -0.0215598 4.03009)
(0.00818292 -0.0215984 4.02958)
(0.0139879 -0.0216941 4.0287)
(0.0196726 -0.021786 4.02739)
(0.0252986 -0.0218142 4.02595)
(0.0306161 -0.0216156 4.02369)
(0.0363773 -0.0212096 4.02225)
(-0.0378952 -0.0154774 4.0244)
(-0.0321122 -0.015856 4.02588)
(-0.026656 -0.0159221 4.02794)
(-0.0209565 -0.0159631 4.02918)
(-0.0152232 -0.0158986 4.03028)
(-0.00939142 -0.0158569 4.03089)
(-0.00353977 -0.0158446 4.03116)
(0.00225367 -0.0158501 4.03101)
(0.00813424 -0.0158798 4.03052)
(0.013932 -0.0159365 4.02966)
(0.0196219 -0.016003 4.02836)
(0.0252673 -0.0159537 4.02691)
(0.0306661 -0.0158665 4.02474)
(0.0363324 -0.0154111 4.02302)
(-0.0376894 -0.00979517 4.02476)
(-0.0320394 -0.0100603 4.02651)
(-0.0265358 -0.0100331 4.02839)
(-0.0208726 -0.0100903 4.02965)
(-0.0151688 -0.0100344 4.03071)
(-0.00936678 -0.0100167 4.03132)
(-0.00353736 -0.0100104 4.03159)
(0.00223628 -0.0100132 4.03145)
(0.00810244 -0.0100309 4.03096)
(0.0138825 -0.0100527 4.03009)
(0.0195622 -0.0100819 4.02883)
(0.0251827 -0.0100074 4.02732)
(0.0306498 -0.00994473 4.02531)
(0.0362013 -0.00953776 4.0233)
(-0.0375304 -0.00412855 4.02489)
(-0.0320187 -0.00426752 4.02684)
(-0.0264894 -0.00425661 4.02857)
(-0.020855 -0.00430239 4.02988)
(-0.0151594 -0.00428289 4.0309)
(-0.00936889 -0.0042917 4.03152)
(-0.00354709 -0.0042959 4.03178)
(0.00222029 -0.00429982 4.03164)
(0.00808516 -0.00430569 4.03115)
(0.0138684 -0.00430551 4.03028)
(0.0195641 -0.0042971 4.02903)
(0.0251957 -0.00426655 4.02746)
(0.0307431 -0.00420633 4.02552)
(0.0362772 -0.00399015 4.02329)
(-0.0375275 0.00158255 4.02468)
(-0.0319982 0.00164564 4.02661)
(-0.0264822 0.00163061 4.02832)
(-0.0208556 0.00164167 4.02962)
(-0.0151674 0.00162806 4.03063)
(-0.00938055 0.00160015 4.03124)
(-0.00355592 0.0015819 4.03151)
(0.00221951 0.00157077 4.03136)
(0.00809848 0.0015717 4.03088)
(0.0139021 0.00158611 4.03001)
(0.0196197 0.00163765 4.02875)
(0.0252805 0.00161991 4.0272)
(0.0308261 0.00172597 4.02522)
(0.0364051 0.00176741 4.02304)
(-0.0375568 0.00728568 4.02426)
(-0.0319335 0.0075516 4.02592)
(-0.026503 0.00752794 4.02773)
(-0.0208888 0.00755904 4.02896)
(-0.0152121 0.00750365 4.02998)
(-0.00942434 0.00744556 4.03059)
(-0.00358703 0.00740693 4.03085)
(0.00220109 0.0073853 4.03071)
(0.00809739 0.00738769 4.03023)
(0.0139192 0.00741492 4.02936)
(0.0196457 0.00749279 4.02807)
(0.0253392 0.00744927 4.02658)
(0.0308207 0.00754537 4.02443)
(0.0365677 0.00739341 4.02254)
(-0.037725 0.0129812 4.02354)
(-0.0319625 0.0134018 4.02481)
(-0.0266227 0.0134508 4.02683)
(-0.0209813 0.0134449 4.028)
(-0.0152868 0.0133571 4.02903)
(-0.00947896 0.013261 4.02964)
(-0.00361729 0.0132005 4.0299)
(0.00218707 0.0131671 4.02977)
(0.00811478 0.0131668 4.02929)
(0.0139787 0.0132118 4.02844)
(0.0197496 0.0132956 4.02711)
(0.0255113 0.0132819 4.02568)
(0.0309345 0.0132749 4.02331)
(0.0368818 0.0129728 4.02177)
(-0.0377783 0.0187304 4.02235)
(-0.0319528 0.0191489 4.02328)
(-0.0266979 0.0193139 4.02535)
(-0.0210964 0.0192096 4.02651)
(-0.0154094 0.0190934 4.02757)
(-0.00958991 0.0189633 4.02822)
(-0.00368086 0.0188856 4.0285)
(0.00216732 0.0188348 4.02838)
(0.0081515 0.0188184 4.02789)
(0.0140536 0.0188669 4.027)
(0.0198589 0.0189391 4.02565)
(0.0256325 0.0190121 4.02421)
(0.031021 0.0188494 4.02178)
(0.0370846 0.0185538 4.02056)
(-0.0383202 0.0245077 4.0206)
(-0.0322512 0.0247112 4.02145)
(-0.0269241 0.0251967 4.02374)
(-0.0211976 0.0249496 4.02492)
(-0.0154349 0.0248232 4.02597)
(-0.00960452 0.0246289 4.02658)
(-0.00371834 0.0245209 4.02682)
(0.00206815 0.0244486 4.02672)
(0.00804171 0.0244336 4.0263)
(0.0139799 0.0245078 4.02549)
(0.0198973 0.0245448 4.02416)
(0.0258347 0.0247425 4.02268)
(0.031359 0.0242355 4.02007)
(0.0377052 0.0241499 4.01894)
(-0.0371695 0.0303767 4.01853)
(-0.0315715 0.0300528 4.01925)
(-0.0264326 0.0306836 4.02102)
(-0.0210511 0.0303401 4.02239)
(-0.0154612 0.0302621 4.02353)
(-0.0097275 0.0301281 4.02437)
(-0.00382885 0.0300536 4.02473)
(0.00197325 0.0299373 4.02464)
(0.00798804 0.0298504 4.02413)
(0.0138691 0.0298113 4.02311)
(0.0196855 0.0297466 4.02173)
(0.0253455 0.0300018 4.02005)
(0.0307357 0.0293317 4.01793)
(0.0365883 0.0297371 4.01691)
(-0.0383725 0.0369827 4.01665)
(-0.0320559 0.0357409 4.01779)
(-0.0264162 0.0368953 4.01951)
(-0.0207547 0.0363099 4.02084)
(-0.0151058 0.0361225 4.02169)
(-0.00948656 0.0357886 4.02221)
(-0.00376312 0.0356133 4.02238)
(0.00180781 0.0354463 4.02236)
(0.00766145 0.0354494 4.0221)
(0.0134134 0.0355723 4.02146)
(0.0192353 0.0355727 4.02044)
(0.0251085 0.0360648 4.0189)
(0.0309913 0.0349268 4.01689)
(0.037704 0.0360984 4.01536)
(-0.0306473 -0.0321602 3.70605)
(-0.0254016 -0.0311841 3.70746)
(-0.0209036 -0.0319403 3.70917)
(-0.0164887 -0.0315422 3.71058)
(-0.0120689 -0.0314232 3.71151)
(-0.00765498 -0.0312438 3.71196)
(-0.00324176 -0.0311119 3.7121)
(0.00119386 -0.0311358 3.71192)
(0.00565982 -0.0312052 3.71149)
(0.0100967 -0.031418 3.71079)
(0.0145421 -0.031604 3.70967)
(0.0189979 -0.0320628 3.70814)
(0.0235188 -0.0314052 3.70627)
(0.0288346 -0.0321461 3.70476)
(-0.0298405 -0.0267896 3.70712)
(-0.0252661 -0.0265304 3.70828)
(-0.0210721 -0.0269696 3.71017)
(-0.016712 -0.0267899 3.71166)
(-0.0122692 -0.0267582 3.71284)
(-0.0077895 -0.026716 3.7136)
(-0.00330105 -0.0266892 3.71392)
(0.00115559 -0.0266893 3.71378)
(0.00570888 -0.0266778 3.71319)
(0.0102264 -0.0267316 3.71218)
(0.0146922 -0.026795 3.7108)
(0.019061 -0.0270086 3.70919)
(0.0232172 -0.0266759 3.70719)
(0.0278043 -0.0268308 3.7059)
(-0.0305562 -0.0221604 3.70865)
(-0.0256363 -0.0223016 3.70997)
(-0.0213688 -0.0226472 3.71217)
(-0.0168275 -0.0225304 3.7135)
(-0.0123283 -0.0224509 3.71464)
(-0.00780159 -0.0223437 3.71525)
(-0.00329914 -0.0222898 3.7155)
(0.0011434 -0.0222806 3.71536)
(0.005704 -0.0223262 3.71487)
(0.0102602 -0.0224475 3.71404)
(0.0147879 -0.0225596 3.71273)
(0.0193675 -0.0226922 3.71127)
(0.0236358 -0.0224213 3.70893)
(0.0285726 -0.0222668 3.70745)
(-0.0301807 -0.0176232 3.70991)
(-0.025452 -0.0178933 3.71127)
(-0.0212413 -0.0180518 3.71333)
(-0.0167878 -0.0180369 3.71462)
(-0.0123483 -0.0179598 3.71574)
(-0.00783961 -0.0178934 3.71639)
(-0.00331692 -0.0178639 3.71668)
(0.00114204 -0.0178544 3.71656)
(0.00571977 -0.017887 3.71605)
(0.0102474 -0.0179641 3.71517)
(0.0147088 -0.018066 3.71388)
(0.019191 -0.0181054 3.71244)
(0.0234373 -0.0180111 3.71027)
(0.0281882 -0.0177729 3.7087)
(-0.0300462 -0.0131193 3.71075)
(-0.025415 -0.0134078 3.71233)
(-0.0211595 -0.0134942 3.71432)
(-0.0167166 -0.0135516 3.71559)
(-0.0122908 -0.0134916 3.71669)
(-0.00779907 -0.013452 3.71731)
(-0.00329899 -0.0134315 3.71759)
(0.00112816 -0.0134234 3.71747)
(0.00567986 -0.0134516 3.71697)
(0.0101865 -0.0135024 3.71612)
(0.0146372 -0.0135816 3.71484)
(0.0191056 -0.0135688 3.71338)
(0.0234123 -0.0135382 3.71129)
(0.0280425 -0.0132995 3.70949)
(-0.0299135 -0.00860869 3.71117)
(-0.0253948 -0.00884062 3.71295)
(-0.0210672 -0.0088711 3.71479)
(-0.0166544 -0.00895644 3.71609)
(-0.0122437 -0.00892076 3.71715)
(-0.00777381 -0.00891388 3.71778)
(-0.00329094 -0.00890823 3.71806)
(0.00111745 -0.00890619 3.71794)
(0.00565074 -0.00892431 3.71744)
(0.0101332 -0.0089473 3.71658)
(0.0145692 -0.00899207 3.71533)
(0.0189962 -0.00896235 3.71382)
(0.0233611 -0.00895001 3.71186)
(0.0278535 -0.00873294 3.70983)
(-0.0298753 -0.00419078 3.71127)
(-0.0254589 -0.00439155 3.71323)
(-0.02107 -0.00442839 3.71495)
(-0.0166691 -0.00450833 3.71629)
(-0.0122487 -0.00451027 3.71732)
(-0.00777912 -0.00452799 3.71796)
(-0.00329574 -0.00453261 3.71823)
(0.00110681 -0.00453342 3.71811)
(0.00563461 -0.00454021 3.71762)
(0.0101095 -0.00454442 3.71675)
(0.0145458 -0.00455341 3.71551)
(0.0189563 -0.00455582 3.71394)
(0.0233679 -0.00455709 3.71204)
(0.0278076 -0.00443388 3.70984)
(-0.0299382 0.000290107 3.71104)
(-0.025501 0.000162678 3.71298)
(-0.0211088 0.000123986 3.71468)
(-0.0167012 8.12769e-05 3.71602)
(-0.0122733 4.62474e-05 3.71704)
(-0.00779595 8.1075e-06 3.71768)
(-0.00330143 -7.92449e-06 3.71795)
(0.00110737 -1.26423e-05 3.71783)
(0.00564501 -8.45149e-06 3.71734)
(0.0101307 7.04091e-06 3.71648)
(0.014576 4.45641e-05 3.71523)
(0.0190008 2.14711e-05 3.71366)
(0.0233973 4.79037e-05 3.71172)
(0.0278538 0.00012436 3.70956)
(-0.030049 0.00472503 3.71056)
(-0.0255192 0.00470395 3.7123)
(-0.02119 0.00465474 3.71407)
(-0.0167655 0.00463002 3.71535)
(-0.0123305 0.00456018 3.71638)
(-0.00783744 0.004501 3.71702)
(-0.0033203 0.00447592 3.7173)
(0.00110098 0.00447049 3.71718)
(0.00565444 0.00448418 3.71669)
(0.0101535 0.00452024 3.71583)
(0.0145961 0.0045945 3.71455)
(0.0190449 0.00456343 3.71304)
(0.0233568 0.0045967 3.71096)
(0.0279401 0.00458962 3.70902)
(-0.0302912 0.0091268 3.70976)
(-0.0255937 0.00923121 3.71119)
(-0.0213372 0.00921253 3.71313)
(-0.0168631 0.00916754 3.71436)
(-0.0124 0.00907157 3.71541)
(-0.00787717 0.00898668 3.71605)
(-0.00332831 0.00895305 3.71633)
(0.0011086 0.00895042 3.71622)
(0.00568972 0.00897407 3.71574)
(0.0102226 0.00904084 3.7149)
(0.0146908 0.00914262 3.71359)
(0.0191943 0.00914703 3.71212)
(0.0234213 0.00914614 3.70986)
(0.0281793 0.00903217 3.70818)
(-0.0304811 0.0135262 3.70854)
(-0.0256531 0.0136912 3.70965)
(-0.0214677 0.0137218 3.71165)
(-0.0169946 0.0136118 3.71287)
(-0.0125144 0.0134992 3.71395)
(-0.00796036 0.0134017 3.71462)
(-0.00335283 0.0133689 3.71493)
(0.00112437 0.0133693 3.71483)
(0.00575912 0.0133892 3.71434)
(0.0103306 0.0134743 3.71347)
(0.0148266 0.0135889 3.71213)
(0.0193477 0.0136754 3.71067)
(0.0235137 0.0136206 3.70833)
(0.0284126 0.013475 3.70695)
(-0.0310021 0.0178961 3.70681)
(-0.0259093 0.0180421 3.70782)
(-0.0216587 0.018312 3.71)
(-0.017074 0.0180993 3.71125)
(-0.0125233 0.0179703 3.71232)
(-0.00794964 0.0178216 3.71295)
(-0.00334167 0.0177674 3.71323)
(0.00109712 0.0177739 3.71315)
(0.00572799 0.017817 3.71272)
(0.0103236 0.0179546 3.71191)
(0.0148962 0.0180777 3.7106)
(0.0195289 0.0182817 3.70911)
(0.0237828 0.0180071 3.70663)
(0.0289372 0.0179309 3.70533)
(-0.030236 0.0223926 3.70479)
(-0.0255111 0.0221924 3.70561)
(-0.0213533 0.0225457 3.7074)
(-0.0169963 0.0222792 3.7088)
(-0.0125293 0.0222182 3.70996)
(-0.00800262 0.0221561 3.71079)
(-0.0033689 0.022152 3.71117)
(0.00106429 0.0221532 3.71112)
(0.00573381 0.0221394 3.71061)
(0.0103082 0.0221901 3.70965)
(0.0148472 0.0222381 3.70828)
(0.0192893 0.0224975 3.70662)
(0.0234975 0.0221388 3.70451)
(0.0282577 0.022468 3.70338)
(-0.0312383 0.0276993 3.70287)
(-0.0258325 0.0267776 3.70406)
(-0.0212464 0.027584 3.70572)
(-0.0167472 0.0271086 3.70708)
(-0.0122668 0.0269223 3.70801)
(-0.00781272 0.0266827 3.7086)
(-0.00324522 0.0265927 3.70885)
(0.00108942 0.0265824 3.70885)
(0.00569152 0.0266802 3.70855)
(0.0101546 0.0268996 3.70788)
(0.0146435 0.0270753 3.70684)
(0.0191179 0.0275807 3.70531)
(0.0236552 0.0268405 3.70339)
(0.0290678 0.0278798 3.70184)
(-0.0236493 -0.0259787 3.40012)
(-0.0197294 -0.0254068 3.40103)
(-0.0163642 -0.0257998 3.40229)
(-0.0131008 -0.0254901 3.4034)
(-0.00979889 -0.0253249 3.40411)
(-0.00648818 -0.025147 3.40444)
(-0.00315914 -0.0250031 3.40454)
(0.000183673 -0.024943 3.40443)
(0.00360802 -0.0249504 3.40412)
(0.00704306 -0.0250641 3.40361)
(0.0105048 -0.0252215 3.40277)
(0.0139755 -0.0255241 3.40157)
(0.0175369 -0.0252547 3.40016)
(0.0217002 -0.0256387 3.39914)
(-0.0232562 -0.0217504 3.40081)
(-0.0196771 -0.0216516 3.40165)
(-0.0164267 -0.0218799 3.40309)
(-0.0130858 -0.0217347 3.40421)
(-0.00975089 -0.0216494 3.4051)
(-0.00643453 -0.0215729 3.40567)
(-0.00313787 -0.0215109 3.40592)
(0.000128467 -0.0214626 3.40584)
(0.00351808 -0.0214406 3.4054)
(0.00695168 -0.0214663 3.40466)
(0.0104296 -0.0215345 3.40361)
(0.0139364 -0.0216731 3.4024)
(0.0173225 -0.0215477 3.40087)
(0.0210223 -0.0216104 3.39988)
(-0.0236247 -0.0181158 3.40196)
(-0.0198619 -0.0182474 3.40296)
(-0.0166021 -0.0184679 3.40459)
(-0.013186 -0.0183748 3.40559)
(-0.00983419 -0.0182689 3.40645)
(-0.00647039 -0.0181535 3.4069)
(-0.00312437 -0.0180809 3.40709)
(0.000189342 -0.0180425 3.407)
(0.00360997 -0.0180716 3.40663)
(0.00705795 -0.0181599 3.40601)
(0.0105252 -0.0182697 3.40502)
(0.014095 -0.0183747 3.40392)
(0.0175173 -0.018229 3.40217)
(0.0214474 -0.018143 3.40099)
(-0.0233946 -0.0146091 3.40296)
(-0.0197373 -0.0147534 3.40395)
(-0.0165005 -0.0149199 3.40548)
(-0.0131336 -0.0149057 3.40642)
(-0.00981674 -0.0148271 3.40726)
(-0.00646718 -0.0147564 3.40774)
(-0.00311749 -0.0147154 3.40795)
(0.000194362 -0.0146905 3.40788)
(0.00361101 -0.0147139 3.40749)
(0.00702606 -0.0147765 3.40685)
(0.0104368 -0.0148711 3.40587)
(0.0139243 -0.0149335 3.4048)
(0.0173194 -0.0148628 3.40318)
(0.0211225 -0.0148213 3.40199)
(-0.023317 -0.0111371 3.40358)
(-0.0197142 -0.0112903 3.40471)
(-0.0164328 -0.0114462 3.4062)
(-0.0130736 -0.0114938 3.40713)
(-0.00976361 -0.0114466 3.40795)
(-0.00642467 -0.0114057 3.4084)
(-0.00309227 -0.0113807 3.4086)
(0.000196391 -0.0113653 3.40852)
(0.00358843 -0.0113891 3.40815)
(0.00697744 -0.0114372 3.40752)
(0.0103643 -0.0115108 3.40657)
(0.0138138 -0.0115453 3.40548)
(0.0172304 -0.0114995 3.40392)
(0.0209295 -0.0114801 3.40258)
(-0.0232748 -0.00766791 3.40386)
(-0.0197279 -0.00783574 3.40518)
(-0.016372 -0.00795127 3.40654)
(-0.0130292 -0.00803508 3.40749)
(-0.00972166 -0.00801913 3.40828)
(-0.00639642 -0.00801235 3.40874)
(-0.00307911 -0.0080052 3.40894)
(0.000187987 -0.00799895 3.40886)
(0.00355725 -0.00801596 3.40849)
(0.00691798 -0.00804371 3.40786)
(0.0102845 -0.00809075 3.40693)
(0.0136877 -0.0081123 3.4058)
(0.0171393 -0.00810011 3.40436)
(0.0207329 -0.00806561 3.40284)
(-0.0233354 -0.00438615 3.40387)
(-0.0198304 -0.0046026 3.40534)
(-0.0164032 -0.0046765 3.40662)
(-0.0130554 -0.00476231 3.40761)
(-0.0097291 -0.00477393 3.40837)
(-0.00639749 -0.00478867 3.40884)
(-0.0030766 -0.00478918 3.40904)
(0.000183799 -0.0047837 3.40896)
(0.00354406 -0.00478838 3.40859)
(0.00689077 -0.00479549 3.40796)
(0.0102463 -0.00481347 3.40704)
(0.0136214 -0.00484342 3.40588)
(0.0170853 -0.00487885 3.40447)
(0.0206233 -0.00482382 3.40283)
(-0.0234316 -0.00097804 3.40364)
(-0.0199149 -0.00123895 3.40512)
(-0.0164662 -0.00126547 3.40637)
(-0.0131 -0.0013419 3.40737)
(-0.00975555 -0.00137882 3.40813)
(-0.00640989 -0.00141559 3.40861)
(-0.0030749 -0.00142327 3.40881)
(0.000189803 -0.00141767 3.40873)
(0.00355418 -0.00140882 3.40836)
(0.00690149 -0.00139145 3.40773)
(0.0102534 -0.00137337 3.4068)
(0.0136263 -0.00139836 3.40564)
(0.017065 -0.00146148 3.40422)
(0.0205954 -0.0013522 3.40259)
(-0.023577 0.00236517 3.40324)
(-0.0199977 0.00209558 3.40458)
(-0.0165719 0.0020924 3.40588)
(-0.0131734 0.00202241 3.40686)
(-0.00980785 0.00196463 3.40763)
(-0.00643921 0.0019132 3.40811)
(-0.0030789 0.0019058 3.40831)
(0.000196534 0.00191719 3.40824)
(0.00357177 0.00194129 3.40787)
(0.00692348 0.00198585 3.40724)
(0.0102639 0.00204061 3.40629)
(0.0136431 0.00203083 3.40517)
(0.017006 0.0019555 3.40364)
(0.0205919 0.00209053 3.40219)
(-0.0238132 0.00567692 3.4026)
(-0.0201068 0.00546221 3.40372)
(-0.0167168 0.00547458 3.40515)
(-0.0132632 0.00539451 3.40609)
(-0.00986284 0.0053209 3.40688)
(-0.00646042 0.00525581 3.40736)
(-0.00306701 0.00525294 3.40757)
(0.000226436 0.00527598 3.4075)
(0.00362472 0.00531947 3.40714)
(0.0069987 0.00540067 3.40652)
(0.0103484 0.00549593 3.40555)
(0.0137561 0.00552743 3.40445)
(0.0170403 0.00545639 3.40279)
(0.0207159 0.00555818 3.40154)
(-0.0240705 0.00896118 3.40164)
(-0.0202265 0.00882912 3.40252)
(-0.0168708 0.00883666 3.40402)
(-0.0133811 0.00872562 3.40496)
(-0.00994179 0.00864486 3.40577)
(-0.00649851 0.00858124 3.40629)
(-0.00305569 0.00859355 3.40652)
(0.000267701 0.00863199 3.40645)
(0.00370492 0.00868786 3.40608)
(0.00711004 0.00879857 3.40544)
(0.0104818 0.00893098 3.40444)
(0.0139095 0.00903119 3.40334)
(0.017138 0.00899245 3.40161)
(0.0209162 0.00904917 3.40059)
(-0.0244754 0.0121767 3.40028)
(-0.0204152 0.0121938 3.40113)
(-0.017012 0.0123049 3.40277)
(-0.0134415 0.012136 3.40374)
(-0.00994613 0.0120374 3.40455)
(-0.00647258 0.011946 3.40503)
(-0.003011 0.0119553 3.40524)
(0.000308802 0.0120153 3.40519)
(0.0037524 0.0121068 3.40486)
(0.00717553 0.0122771 3.40426)
(0.0105862 0.012456 3.40327)
(0.0140681 0.0126523 3.40214)
(0.0173292 0.0125639 3.4003)
(0.0212715 0.0125577 3.39932)
(-0.0241319 0.0155564 3.39882)
(-0.0202626 0.0154537 3.39945)
(-0.0168522 0.0155812 3.40083)
(-0.0133523 0.0153909 3.40191)
(-0.00986443 0.0153483 3.4028)
(-0.006412 0.0153359 3.40343)
(-0.00295615 0.0153978 3.40372)
(0.000318309 0.0154801 3.40368)
(0.0037534 0.0155447 3.40329)
(0.00716836 0.015675 3.40257)
(0.0105957 0.0158233 3.40153)
(0.0140106 0.0160703 3.40026)
(0.0173081 0.015992 3.39868)
(0.021054 0.0162121 3.39788)
(-0.0247336 0.0195226 3.39744)
(-0.0203932 0.019069 3.39829)
(-0.0167067 0.0194669 3.39952)
(-0.0132063 0.0191571 3.40062)
(-0.00973444 0.0190266 3.40135)
(-0.00629334 0.0189159 3.40178)
(-0.00280743 0.0189294 3.40198)
(0.000499993 0.0190315 3.40197)
(0.00394846 0.0191796 3.40174)
(0.00731548 0.0194313 3.40124)
(0.0106706 0.0197052 3.40043)
(0.0139668 0.0201431 3.39922)
(0.017396 0.0198355 3.39784)
(0.0214656 0.0205269 3.39679)
(-0.0191259 -0.0217372 3.10515)
(-0.0162866 -0.021728 3.10539)
(-0.0136522 -0.0218436 3.10602)
(-0.0110411 -0.0216393 3.10664)
(-0.00838669 -0.0214967 3.107)
(-0.00572564 -0.0213702 3.10712)
(-0.00303778 -0.0212543 3.10714)
(-0.000357325 -0.0211789 3.10712)
(0.00241237 -0.0211572 3.10702)
(0.00522142 -0.0211997 3.10686)
(0.00806123 -0.0213084 3.10648)
(0.0109041 -0.0214758 3.10585)
(0.0137579 -0.0214634 3.10509)
(0.0168934 -0.021346 3.10475)
(-0.0192308 -0.0185343 3.10534)
(-0.0162857 -0.0185675 3.10555)
(-0.0135767 -0.0187195 3.10632)
(-0.0108501 -0.0186178 3.1069)
(-0.00818649 -0.018516 3.10738)
(-0.00557983 -0.0184247 3.1077)
(-0.00299692 -0.0183513 3.10785)
(-0.000438353 -0.0183009 3.10785)
(0.00221893 -0.0182934 3.10764)
(0.00495968 -0.0183296 3.10727)
(0.00779463 -0.0184093 3.10674)
(0.0107287 -0.0184976 3.10613)
(0.013645 -0.0184122 3.10531)
(0.0168139 -0.0183901 3.10495)
(-0.0193857 -0.0156395 3.10597)
(-0.0164243 -0.0157 3.10629)
(-0.0137353 -0.0158941 3.10717)
(-0.0110068 -0.0158164 3.10765)
(-0.00833114 -0.0157147 3.1081)
(-0.00566167 -0.0156105 3.10833)
(-0.00299736 -0.015545 3.10841)
(-0.000345334 -0.0155079 3.10839)
(0.00237424 -0.0155308 3.10823)
(0.00513815 -0.0156033 3.10795)
(0.00794615 -0.0157008 3.10746)
(0.0108479 -0.0157957 3.10694)
(0.0137485 -0.0156608 3.10598)
(0.0169494 -0.0156763 3.10548)
(-0.0192643 -0.0128265 3.10653)
(-0.0163387 -0.0128424 3.10682)
(-0.0136455 -0.0130556 3.10763)
(-0.0109413 -0.0130275 3.10804)
(-0.00828522 -0.0129597 3.10846)
(-0.00563231 -0.0128908 3.10869)
(-0.0029842 -0.0128528 3.10879)
(-0.000349693 -0.0128276 3.10878)
(0.00234953 -0.0128477 3.10861)
(0.00507914 -0.0129047 3.10832)
(0.00784634 -0.0129826 3.10785)
(0.0106943 -0.0130654 3.10737)
(0.0135824 -0.0129386 3.10652)
(0.0167075 -0.013047 3.10605)
(-0.0192372 -0.0100324 3.10682)
(-0.0163141 -0.0100621 3.10722)
(-0.013591 -0.010277 3.108)
(-0.0108933 -0.0102953 3.10839)
(-0.0082442 -0.0102611 3.1088)
(-0.00559907 -0.0102198 3.109)
(-0.00296308 -0.0101978 3.10909)
(-0.000341794 -0.0101812 3.10907)
(0.00233987 -0.0101998 3.1089)
(0.00504586 -0.0102433 3.10863)
(0.00778645 -0.010299 3.10817)
(0.0105964 -0.0103669 3.1077)
(0.0134781 -0.0102647 3.1069)
(0.0165408 -0.0103799 3.10632)
(-0.0192518 -0.00729933 3.10688)
(-0.0163216 -0.00737969 3.10746)
(-0.0135429 -0.00754834 3.10814)
(-0.0108489 -0.00759138 3.10855)
(-0.00820153 -0.00758277 3.10893)
(-0.00556749 -0.00756532 3.10914)
(-0.00294695 -0.00755482 3.10923)
(-0.000347452 -0.00754392 3.10921)
(0.00230974 -0.00755583 3.10905)
(0.00498704 -0.00758289 3.10877)
(0.00770225 -0.00761662 3.10833)
(0.0104739 -0.00767185 3.10783)
(0.0133603 -0.00762229 3.10714)
(0.016378 -0.00768182 3.10642)
(-0.0193367 -0.00460329 3.1068)
(-0.0163999 -0.00480056 3.10753)
(-0.0135707 -0.00488369 3.10815)
(-0.010865 -0.00495609 3.10859)
(-0.0082028 -0.00496854 3.10896)
(-0.00556216 -0.00497653 3.10918)
(-0.00293929 -0.00497344 3.10927)
(-0.000345704 -0.00496476 3.10925)
(0.00230209 -0.00496771 3.10909)
(0.00496593 -0.00497489 3.10881)
(0.00766633 -0.00499223 3.10838)
(0.0104136 -0.00502716 3.10786)
(0.0132898 -0.00507 3.10722)
(0.0162744 -0.00502908 3.10641)
(-0.0194398 -0.00190574 3.10664)
(-0.0164937 -0.00220904 3.10741)
(-0.0136347 -0.00220841 3.108)
(-0.0109067 -0.00228864 3.10847)
(-0.00822325 -0.00231463 3.10883)
(-0.00556718 -0.00233902 3.10906)
(-0.00293257 -0.00233655 3.10914)
(-0.000336484 -0.0023244 3.10913)
(0.00231132 -0.00231356 3.10897)
(0.00497167 -0.00229606 3.10869)
(0.0076645 -0.00228778 3.10826)
(0.0104031 -0.00230073 3.10775)
(0.0132571 -0.00240845 3.10709)
(0.0162198 -0.00226374 3.10631)
(-0.019566 0.000777749 3.10644)
(-0.0165968 0.000390629 3.10712)
(-0.0137302 0.000456744 3.10776)
(-0.0109685 0.000367688 3.10822)
(-0.00825815 0.000331648 3.10859)
(-0.0055789 0.000294602 3.10882)
(-0.00292552 0.000302816 3.10891)
(-0.000321822 0.000324239 3.10889)
(0.00233068 0.000352421 3.10873)
(0.0049903 0.000400031 3.10846)
(0.0076722 0.000438584 3.10802)
(0.0104036 0.000456789 3.10753)
(0.0132101 0.000306417 3.1068)
(0.0161651 0.000542083 3.10617)
(-0.0197356 0.00345457 3.10616)
(-0.0167137 0.00304581 3.10667)
(-0.0138514 0.00314354 3.10741)
(-0.0110447 0.0030441 3.10786)
(-0.00829816 0.00299958 3.10824)
(-0.00558473 0.00295233 3.10848)
(-0.00290278 0.0029709 3.10857)
(-0.00027878 0.00300758 3.10855)
(0.00239174 0.00305829 3.10839)
(0.00506648 0.00314352 3.10812)
(0.00775365 0.00322245 3.10766)
(0.0104938 0.00328342 3.10719)
(0.0132519 0.00313412 3.10636)
(0.0162086 0.00340359 3.10591)
(-0.0199599 0.00611227 3.10569)
(-0.0168521 0.00576046 3.10605)
(-0.0139894 0.00584326 3.10684)
(-0.0111345 0.00573458 3.10731)
(-0.00834135 0.00568659 3.10771)
(-0.00558691 0.00564028 3.10796)
(-0.00287136 0.00567603 3.10806)
(-0.00022491 0.00573177 3.10805)
(0.00246798 0.005804 3.10788)
(0.00516395 0.00592394 3.10759)
(0.00786925 0.006047 3.10711)
(0.0106277 0.00615598 3.10663)
(0.0133587 0.00606078 3.10574)
(0.0163517 0.00629961 3.10545)
(-0.0202156 0.00870769 3.10499)
(-0.0169654 0.00855107 3.10535)
(-0.0140928 0.00862962 3.10627)
(-0.011194 0.00849741 3.10677)
(-0.00836034 0.00843865 3.10717)
(-0.00556838 0.00838596 3.1074)
(-0.00282232 0.00843116 3.10748)
(-0.000147639 0.00850848 3.10747)
(0.00256278 0.00861406 3.10733)
(0.00527385 0.0087811 3.10705)
(0.00799131 0.00895912 3.10657)
(0.010765 0.00912822 3.10604)
(0.0134838 0.00909492 3.10506)
(0.0165499 0.00921114 3.10479)
(-0.0202133 0.0113411 3.1043)
(-0.0169021 0.0113255 3.10451)
(-0.0139678 0.0113885 3.10525)
(-0.0110406 0.0112596 3.10584)
(-0.00819104 0.0112314 3.10631)
(-0.00542463 0.0112296 3.10665)
(-0.00272668 0.0113114 3.10679)
(-0.000122648 0.0114151 3.10677)
(0.00253108 0.0115298 3.10656)
(0.00521167 0.0116948 3.10618)
(0.00794531 0.0118819 3.10564)
(0.0107439 0.0120694 3.10499)
(0.013536 0.0121073 3.10418)
(0.016637 0.0121886 3.10404)
(-0.0201756 0.0141944 3.10371)
(-0.0168564 0.0143674 3.1041)
(-0.0138752 0.014476 3.10476)
(-0.0110134 0.0143035 3.10537)
(-0.00817739 0.0142465 3.10572)
(-0.00537223 0.0142289 3.10589)
(-0.00259849 0.0143065 3.10593)
(0.000112894 0.0144302 3.10592)
(0.00284127 0.0145837 3.10584)
(0.00554301 0.0148008 3.10564)
(0.00822117 0.0150698 3.10525)
(0.0108473 0.0153795 3.10462)
(0.0135386 0.0154258 3.10397)
(0.0164955 0.0154972 3.10357)
(-0.0176423 -0.0199548 2.82549)
(-0.0153514 -0.0203323 2.82501)
(-0.0129378 -0.0203755 2.82508)
(-0.0104357 -0.0202405 2.82523)
(-0.00789101 -0.0201636 2.82527)
(-0.00537511 -0.0201148 2.82521)
(-0.00287668 -0.0200602 2.82518)
(-0.000362261 -0.0200183 2.82525)
(0.0021998 -0.0200112 2.82536)
(0.00480984 -0.0200314 2.82552)
(0.00745876 -0.0200976 2.8256)
(0.0101067 -0.0202104 2.82554)
(0.0126483 -0.0202563 2.82543)
(0.0151184 -0.0198633 2.82587)
(-0.0180432 -0.0173982 2.82512)
(-0.0153042 -0.0174641 2.82468)
(-0.0127113 -0.0176716 2.82485)
(-0.0101666 -0.0175896 2.82497)
(-0.00768122 -0.0175086 2.8251)
(-0.00526942 -0.0174292 2.8252)
(-0.00285925 -0.0173791 2.82528)
(-0.000468744 -0.0173515 2.82537)
(0.00197382 -0.0173725 2.82538)
(0.00448349 -0.0174347 2.82537)
(0.00708295 -0.0175158 2.82531)
(0.00978677 -0.0176021 2.82527)
(0.0125368 -0.0174422 2.82514)
(0.0154495 -0.0174463 2.82547)
(-0.0181543 -0.0148652 2.82526)
(-0.0155033 -0.0148149 2.82491)
(-0.0129279 -0.0150465 2.82518)
(-0.0103943 -0.0149709 2.8252)
(-0.00787911 -0.0148991 2.82531)
(-0.005394 -0.014825 2.82533)
(-0.00287916 -0.014789 2.82534)
(-0.000387133 -0.014766 2.8254)
(0.00214109 -0.0147929 2.82545)
(0.00469727 -0.0148605 2.8255)
(0.00729544 -0.0149396 2.82548)
(0.00994601 -0.0150425 2.82553)
(0.0126829 -0.0148484 2.82527)
(0.0155111 -0.0149797 2.8255)
(-0.0180621 -0.0123091 2.82543)
(-0.0154205 -0.0122251 2.82507)
(-0.012838 -0.0124811 2.82527)
(-0.0103236 -0.0124374 2.82522)
(-0.00782937 -0.0123908 2.82529)
(-0.00536516 -0.0123339 2.82531)
(-0.00287596 -0.0123111 2.82534)
(-0.000408871 -0.0122937 2.8254)
(0.00209254 -0.0123153 2.82544)
(0.00461902 -0.0123699 2.82548)
(0.00718905 -0.0124266 2.82549)
(0.00980499 -0.0125203 2.82558)
(0.012534 -0.012324 2.82543)
(0.0153334 -0.0124845 2.82567)
(-0.0180569 -0.00975097 2.82546)
(-0.0153892 -0.00971171 2.8252)
(-0.0127942 -0.00994678 2.82537)
(-0.0102888 -0.00993522 2.8253)
(-0.00780439 -0.00991155 2.82536)
(-0.00534644 -0.00987303 2.82536)
(-0.00286425 -0.00985968 2.82537)
(-0.000402987 -0.00984764 2.82543)
(0.00208724 -0.00986319 2.82547)
(0.00459601 -0.00990229 2.82552)
(0.0071465 -0.00993767 2.82553)
(0.00973712 -0.0100132 2.82563)
(0.0124515 -0.00985772 2.82553)
(0.0152447 -0.00997444 2.8257)
(-0.0180879 -0.00722773 2.82538)
(-0.0153665 -0.00727275 2.82529)
(-0.0127477 -0.00744351 2.82538)
(-0.0102413 -0.00746266 2.82533)
(-0.00776458 -0.00745763 2.82536)
(-0.00531786 -0.0074374 2.82537)
(-0.00285168 -0.00742966 2.82538)
(-0.000408815 -0.00742152 2.82543)
(0.00205985 -0.00743069 2.82547)
(0.00454575 -0.00745318 2.82553)
(0.00707477 -0.00747069 2.82556)
(0.00964649 -0.00751951 2.82564)
(0.0123478 -0.00743139 2.82564)
(0.01516 -0.0074502 2.82569)
(-0.0181515 -0.0047447 2.82531)
(-0.0154011 -0.00488153 2.82536)
(-0.0127619 -0.00494569 2.8254)
(-0.0102442 -0.00498362 2.82538)
(-0.00775979 -0.00498621 2.82541)
(-0.00530921 -0.00498146 2.82541)
(-0.0028437 -0.00497485 2.82542)
(-0.000405455 -0.0049661 2.82547)
(0.00205627 -0.00496578 2.82552)
(0.00453422 -0.00496905 2.82557)
(0.0070539 -0.00497398 2.82561)
(0.00961501 -0.00499805 2.82568)
(0.0123013 -0.00501253 2.82573)
(0.0151097 -0.00495221 2.82572)
(-0.0182068 -0.00224539 2.82529)
(-0.0154592 -0.00249035 2.82539)
(-0.0128029 -0.00245571 2.82542)
(-0.0102684 -0.0025204 2.82541)
(-0.00776864 -0.00253171 2.82544)
(-0.00530723 -0.00254277 2.82545)
(-0.00283623 -0.00253492 2.82545)
(-0.000396495 -0.00252305 2.82551)
(0.00206511 -0.00251171 2.82555)
(0.004542 -0.00249307 2.82561)
(0.00705745 -0.00248315 2.82565)
(0.00961186 -0.00247486 2.82573)
(0.0122875 -0.00257464 2.82578)
(0.0150731 -0.00240898 2.82579)
(-0.0182724 0.000280723 2.82534)
(-0.0155408 -7.79913e-05 2.82539)
(-0.0128657 4.07876e-05 2.82545)
(-0.010308 -4.25964e-05 2.82545)
(-0.00778657 -5.90303e-05 2.82548)
(-0.00530715 -8.34291e-05 2.82549)
(-0.00282602 -7.06051e-05 2.8255)
(-0.000379977 -5.00403e-05 2.82555)
(0.00208407 -2.29694e-05 2.8256)
(0.00456099 2.25216e-05 2.82565)
(0.00707109 5.34644e-05 2.82569)
(0.00961464 9.42098e-05 2.8258)
(0.0122735 -7.25169e-05 2.82578)
(0.0150119 0.000190235 2.82593)
(-0.0183635 0.0028295 2.82544)
(-0.0156456 0.00238406 2.82536)
(-0.0129499 0.00255477 2.82551)
(-0.0103648 0.00245902 2.82551)
(-0.00781646 0.00243762 2.82554)
(-0.00530861 0.00240162 2.82556)
(-0.00280614 0.00242176 2.82557)