/*--------------------------------*- C++ -*----------------------------------*\
| =========                 |                                                 |
| \\      /  F ield         | OpenFOAM: The Open Source CFD Toolbox           |
|  \\    /   O peration     | Version:  v2106                                 |
|   \\  /    A nd           | Website:  www.openfoam.com                      |
|    \\/     M anipulation  |                                                 |
\*---------------------------------------------------------------------------*/
FoamFile
{
    version     2.0;
    format      ascii;
    arch        "LSB;label=32;scalar=64";
    class       volScalarField;
    location    "0.000157";
    object      T;
}
// * * * * * * * * * * * * * * * * * * * * * * * * * * * * * * * * * * * * * //

dimensions      [0 0 0 1 0 0 0];

internalField   nonuniform List<scalar> 
17924
(
306.474
306.492
306.509
306.525
306.163
306.182
306.2
306.217
306.233
306.249
306.264
306.171
306.189
306.207
306.225
306.242
306.259
306.274
306.18
306.198
306.217
306.235
306.252
306.269
306.284
306.187
306.205
306.225
306.243
306.261
306.277
306.293
306.194
306.213
306.233
306.251
306.269
306.285
306.301
306.2
306.219
306.239
306.257
306.275
306.292
306.308
306.205
306.225
306.244
306.263
306.281
306.298
306.314
306.21
306.23
306.249
306.267
306.285
306.302
306.318
306.214
306.233
306.252
306.27
306.288
306.305
306.321
306.217
306.236
306.255
306.273
306.29
306.307
306.322
306.219
306.239
306.257
306.274
306.291
306.308
306.323
306.221
306.24
306.258
306.275
306.292
306.308
306.323
306.223
306.242
306.259
306.276
306.292
306.308
306.323
306.227
306.245
306.261
306.278
306.293
306.308
306.322
305.82
305.834
305.849
305.864
305.878
305.892
305.906
305.919
305.932
305.943
305.954
305.965
305.974
305.985
305.834
305.848
305.864
305.879
305.894
305.909
305.923
305.937
305.95
305.962
305.974
305.985
305.994
306.006
305.85
305.864
305.881
305.896
305.912
305.927
305.941
305.955
305.968
305.98
305.992
306.003
306.012
306.024
305.865
305.88
305.897
305.912
305.928
305.944
305.959
305.973
305.986
305.999
306.011
306.022
306.032
306.043
305.88
305.896
305.913
305.929
305.946
305.961
305.976
305.99
306.004
306.016
306.028
306.039
306.049
306.059
305.895
305.911
305.929
305.945
305.962
305.977
305.993
306.007
306.021
306.034
306.045
306.056
306.067
306.076
305.909
305.926
305.944
305.961
305.977
305.993
306.008
306.023
306.037
306.049
306.061
306.072
306.082
306.091
305.923
305.941
305.958
305.975
305.992
306.008
306.023
306.037
306.051
306.064
306.076
306.086
306.097
306.106
305.936
305.954
305.971
305.989
306.005
306.021
306.036
306.051
306.064
306.077
306.088
306.099
306.109
306.118
305.949
305.967
305.984
306.001
306.018
306.034
306.049
306.063
306.076
306.088
306.1
306.11
306.121
306.129
305.961
305.979
305.996
306.013
306.029
306.045
306.06
306.074
306.087
306.099
306.11
306.12
306.131
306.139
305.973
305.991
306.008
306.024
306.04
306.056
306.07
306.084
306.096
306.108
306.119
306.129
306.139
306.148
305.984
306.002
306.018
306.035
306.05
306.065
306.079
306.092
306.105
306.116
306.127
306.137
306.147
306.156
305.997
306.014
306.029
306.045
306.06
306.074
306.087
306.1
306.112
306.123
306.134
306.143
306.153
306.162
305.472
305.48
305.491
305.501
305.511
305.521
305.532
305.541
305.551
305.56
305.569
305.578
305.586
305.595
305.487
305.495
305.506
305.517
305.528
305.538
305.549
305.559
305.569
305.579
305.588
305.597
305.605
305.615
305.504
305.513
305.524
305.535
305.546
305.556
305.567
305.577
305.587
305.597
305.606
305.615
305.623
305.633
305.52
305.53
305.541
305.552
305.564
305.575
305.586
305.596
305.607
305.616
305.626
305.635
305.643
305.653
305.537
305.548
305.56
305.571
305.582
305.594
305.605
305.615
305.626
305.635
305.645
305.654
305.662
305.671
305.555
305.566
305.578
305.589
305.601
305.612
305.623
305.634
305.645
305.655
305.664
305.673
305.681
305.69
305.572
305.584
305.596
305.608
305.619
305.631
305.642
305.653
305.663
305.673
305.682
305.691
305.7
305.708
305.59
305.602
305.614
305.626
305.637
305.649
305.66
305.671
305.681
305.691
305.701
305.709
305.718
305.726
305.607
305.619
305.631
305.643
305.655
305.667
305.678
305.688
305.699
305.708
305.718
305.726
305.735
305.742
305.624
305.637
305.649
305.661
305.673
305.684
305.695
305.706
305.716
305.725
305.735
305.743
305.752
305.759
305.641
305.654
305.665
305.678
305.689
305.701
305.712
305.722
305.732
305.741
305.751
305.759
305.768
305.774
305.658
305.671
305.682
305.694
305.706
305.717
305.728
305.738
305.747
305.757
305.766
305.774
305.783
305.789
305.673
305.686
305.698
305.71
305.721
305.732
305.742
305.752
305.762
305.771
305.78
305.788
305.796
305.804
305.691
305.703
305.714
305.725
305.736
305.746
305.756
305.766
305.775
305.784
305.792
305.8
305.809
305.818
305.145
305.148
305.154
305.16
305.166
305.172
305.178
305.183
305.189
305.195
305.2
305.206
305.211
305.217
305.158
305.161
305.167
305.173
305.179
305.185
305.191
305.197
305.203
305.209
305.214
305.22
305.225
305.232
305.172
305.175
305.182
305.187
305.194
305.2
305.205
305.211
305.217
305.223
305.228
305.234
305.239
305.246
305.186
305.19
305.196
305.202
305.208
305.214
305.22
305.226
305.232
305.237
305.243
305.249
305.254
305.26
305.2
305.205
305.211
305.217
305.223
305.229
305.235
305.241
305.247
305.252
305.258
305.264
305.269
305.274
305.215
305.22
305.226
305.232
305.238
305.244
305.25
305.256
305.262
305.267
305.273
305.279
305.284
305.289
305.23
305.236
305.242
305.248
305.254
305.26
305.265
305.271
305.277
305.283
305.288
305.294
305.299
305.304
305.245
305.252
305.257
305.263
305.269
305.275
305.281
305.287
305.293
305.298
305.304
305.309
305.315
305.319
305.261
305.267
305.273
305.279
305.285
305.291
305.297
305.303
305.308
305.314
305.319
305.325
305.33
305.335
305.276
305.283
305.289
305.295
305.301
305.307
305.312
305.318
305.324
305.33
305.335
305.34
305.346
305.35
305.292
305.299
305.304
305.31
305.316
305.322
305.328
305.334
305.34
305.345
305.35
305.356
305.361
305.365
305.307
305.314
305.32
305.326
305.332
305.338
305.344
305.349
305.355
305.36
305.366
305.371
305.376
305.381
305.322
305.329
305.334
305.34
305.346
305.352
305.358
305.364
305.37
305.375
305.38
305.386
305.391
305.395
305.338
305.344
305.35
305.355
305.361
305.367
305.373
305.378
305.383
305.389
305.394
305.399
305.405
305.411
304.845
304.846
304.848
304.851
304.853
304.855
304.857
304.859
304.861
304.863
304.865
304.868
304.87
304.873
304.855
304.856
304.858
304.86
304.862
304.864
304.866
304.869
304.871
304.873
304.875
304.877
304.879
304.882
304.865
304.865
304.868
304.87
304.872
304.874
304.876
304.878
304.88
304.882
304.884
304.886
304.887
304.89
304.875
304.875
304.878
304.879
304.881
304.883
304.885
304.887
304.889
304.891
304.893
304.895
304.897
304.899
304.884
304.886
304.888
304.889
304.891
304.893
304.895
304.897
304.898
304.9
304.902
304.904
304.906
304.908
304.895
304.896
304.898
304.899
304.901
304.903
304.904
304.906
304.908
304.91
304.911
304.913
304.915
304.917
304.905
304.906
304.908
304.91
304.911
304.913
304.914
304.916
304.918
304.919
304.921
304.923
304.925
304.926
304.915
304.917
304.918
304.92
304.922
304.923
304.925
304.926
304.928
304.93
304.931
304.933
304.935
304.936
304.926
304.927
304.929
304.93
304.932
304.934
304.935
304.937
304.938
304.94
304.942
304.943
304.945
304.946
304.936
304.938
304.939
304.941
304.943
304.944
304.946
304.947
304.949
304.951
304.952
304.954
304.956
304.956
304.946
304.948
304.95
304.952
304.953
304.955
304.956
304.958
304.96
304.961
304.963
304.965
304.966
304.967
304.956
304.959
304.96
304.962
304.963
304.965
304.967
304.969
304.97
304.972
304.974
304.976
304.977
304.977
304.966
304.968
304.97
304.972
304.974
304.975
304.977
304.979
304.981
304.982
304.984
304.986
304.988
304.988
304.977
304.979
304.98
304.982
304.983
304.985
304.987
304.989
304.991
304.993
304.995
304.997
304.998
305
304.563
304.563
304.563
304.563
304.563
304.562
304.562
304.561
304.561
304.56
304.56
304.559
304.558
304.558
304.569
304.569
304.569
304.569
304.568
304.568
304.567
304.567
304.566
304.566
304.565
304.564
304.564
304.563
304.575
304.574
304.574
304.574
304.574
304.573
304.573
304.572
304.572
304.571
304.57
304.569
304.568
304.568
304.581
304.58
304.58
304.58
304.579
304.579
304.578
304.577
304.577
304.576
304.575
304.574
304.573
304.572
304.586
304.586
304.586
304.585
304.585
304.584
304.583
304.583
304.582
304.581
304.58
304.579
304.578
304.577
304.592
304.591
304.591
304.591
304.59
304.589
304.589
304.588
304.587
304.586
304.585
304.583
304.582
304.581
304.597
304.597
304.597
304.596
304.595
304.595
304.594
304.593
304.592
304.591
304.589
304.588
304.587
304.585
304.603
304.602
304.602
304.601
304.601
304.6
304.599
304.598
304.597
304.596
304.594
304.593
304.592
304.59
304.608
304.608
304.607
304.606
304.606
304.605
304.604
304.603
304.602
304.601
304.6
304.598
304.597
304.595
304.613
304.613
304.612
304.611
304.611
304.61
304.609
304.608
304.607
304.606
304.605
304.603
304.602
304.6
304.618
304.617
304.617
304.616
304.615
304.615
304.614
304.613
304.612
304.611
304.61
304.608
304.607
304.605
304.622
304.622
304.621
304.621
304.62
304.619
304.619
304.618
304.617
304.616
304.615
304.614
304.612
304.61
304.626
304.626
304.626
304.625
304.625
304.624
304.623
304.623
304.622
304.621
304.62
304.619
304.617
304.615
304.63
304.63
304.63
304.629
304.629
304.628
304.628
304.627
304.627
304.626
304.625
304.624
304.623
304.621
304.283
304.282
304.282
304.281
304.279
304.278
304.276
304.275
304.273
304.271
304.269
304.266
304.264
304.262
304.287
304.286
304.285
304.284
304.282
304.281
304.279
304.278
304.276
304.273
304.271
304.269
304.266
304.264
304.289
304.288
304.288
304.287
304.285
304.284
304.282
304.28
304.278
304.276
304.274
304.271
304.268
304.266
304.292
304.291
304.29
304.289
304.288
304.286
304.285
304.283
304.281
304.278
304.276
304.273
304.271
304.268
304.295
304.294
304.293
304.292
304.29
304.289
304.287
304.285
304.283
304.281
304.278
304.275
304.272
304.27
304.297
304.296
304.295
304.294
304.292
304.291
304.289
304.287
304.285
304.282
304.28
304.277
304.274
304.271
304.299
304.298
304.297
304.296
304.294
304.293
304.291
304.289
304.287
304.284
304.282
304.279
304.276
304.273
304.3
304.299
304.298
304.297
304.296
304.294
304.292
304.29
304.288
304.286
304.283
304.28
304.277
304.274
304.302
304.301
304.3
304.298
304.297
304.295
304.294
304.292
304.289
304.287
304.284
304.281
304.278
304.275
304.303
304.302
304.301
304.299
304.298
304.296
304.295
304.293
304.291
304.288
304.285
304.283
304.28
304.276
304.303
304.302
304.301
304.3
304.299
304.297
304.295
304.293
304.291
304.289
304.286
304.284
304.281
304.277
304.304
304.302
304.302
304.3
304.299
304.298
304.296
304.294
304.292
304.29
304.287
304.284
304.282
304.278
304.304
304.303
304.302
304.301
304.299
304.298
304.296
304.295
304.293
304.291
304.288
304.285
304.283
304.279
304.304
304.303
304.302
304.301
304.3
304.298
304.297
304.295
304.293
304.291
304.289
304.286
304.284
304.28
303.999
303.998
303.997
303.996
303.994
303.993
303.991
303.989
303.987
303.984
303.982
303.979
303.977
303.973
304
303.999
303.998
303.997
303.996
303.994
303.992
303.99
303.988
303.985
303.983
303.98
303.977
303.974
304.001
304
303.999
303.998
303.997
303.995
303.993
303.991
303.989
303.986
303.984
303.981
303.978
303.975
304.002
304.001
304
303.999
303.997
303.996
303.994
303.992
303.99
303.987
303.984
303.981
303.978
303.975
304.002
304.001
304
303.999
303.998
303.996
303.995
303.993
303.99
303.988
303.985
303.982
303.979
303.976
304.002
304.002
304.001
304
303.998
303.997
303.995
303.993
303.991
303.988
303.985
303.982
303.979
303.976
304.002
304.001
304
303.999
303.998
303.997
303.995
303.993
303.99
303.988
303.985
303.982
303.979
303.976
304.002
304.001
304
303.999
303.998
303.996
303.994
303.992
303.99
303.988
303.985
303.982
303.979
303.975
304.001
304
303.999
303.998
303.997
303.995
303.994
303.992
303.989
303.987
303.984
303.981
303.978
303.975
304
303.999
303.998
303.997
303.996
303.994
303.993
303.991
303.989
303.986
303.983
303.98
303.977
303.974
303.999
303.998
303.997
303.996
303.995
303.993
303.991
303.99
303.987
303.985
303.982
303.979
303.976
303.973
303.997
303.996
303.995
303.994
303.993
303.992
303.99
303.988
303.986
303.984
303.981
303.978
303.975
303.972
303.995
303.994
303.994
303.993
303.992
303.99
303.989
303.987
303.985
303.982
303.98
303.977
303.974
303.971
303.993
303.993
303.992
303.991
303.99
303.989
303.987
303.985
303.983
303.981
303.978
303.976
303.973
303.97
303.715
303.714
303.713
303.711
303.71
303.709
303.707
303.706
303.704
303.702
303.7
303.698
303.696
303.694
303.715
303.713
303.712
303.711
303.71
303.709
303.707
303.706
303.704
303.702
303.7
303.698
303.696
303.694
303.714
303.713
303.712
303.711
303.71
303.708
303.707
303.705
303.704
303.702
303.7
303.698
303.696
303.694
303.714
303.713
303.712
303.711
303.709
303.708
303.707
303.705
303.703
303.702
303.7
303.698
303.696
303.694
303.713
303.712
303.711
303.71
303.709
303.708
303.706
303.705
303.703
303.701
303.699
303.697
303.695
303.693
303.712
303.711
303.71
303.709
303.708
303.707
303.706
303.704
303.703
303.701
303.699
303.697
303.695
303.692
303.711
303.71
303.709
303.709
303.707
303.706
303.705
303.703
303.702
303.7
303.698
303.696
303.694
303.692
303.71
303.709
303.708
303.707
303.706
303.705
303.704
303.702
303.701
303.699
303.697
303.695
303.693
303.691
303.708
303.708
303.707
303.706
303.705
303.704
303.703
303.701
303.7
303.698
303.696
303.694
303.692
303.69
303.707
303.706
303.706
303.705
303.704
303.703
303.701
303.7
303.698
303.697
303.695
303.693
303.691
303.689
303.706
303.705
303.704
303.703
303.702
303.701
303.7
303.699
303.697
303.695
303.693
303.691
303.689
303.688
303.704
303.703
303.703
303.702
303.701
303.7
303.698
303.697
303.695
303.694
303.692
303.69
303.688
303.686
303.703
303.702
303.701
303.7
303.699
303.698
303.697
303.695
303.694
303.692
303.69
303.688
303.686
303.685
303.701
303.7
303.7
303.699
303.698
303.697
303.695
303.694
303.692
303.691
303.689
303.687
303.685
303.683
303.443
303.442
303.44
303.439
303.438
303.437
303.436
303.435
303.434
303.433
303.433
303.432
303.432
303.431
303.442
303.44
303.439
303.438
303.437
303.436
303.435
303.434
303.433
303.432
303.432
303.431
303.43
303.43
303.441
303.439
303.438
303.437
303.436
303.435
303.434
303.433
303.432
303.431
303.43
303.43
303.429
303.429
303.439
303.438
303.437
303.436
303.434
303.433
303.433
303.432
303.431
303.43
303.429
303.429
303.429
303.428
303.438
303.437
303.436
303.435
303.433
303.432
303.432
303.431
303.43
303.429
303.428
303.428
303.428
303.427
303.437
303.436
303.435
303.434
303.432
303.432
303.431
303.43
303.429
303.428
303.428
303.427
303.427
303.426
303.436
303.435
303.434
303.433
303.432
303.431
303.43
303.429
303.428
303.427
303.427
303.426
303.426
303.426
303.435
303.434
303.433
303.432
303.431
303.43
303.429
303.428
303.427
303.427
303.426
303.425
303.425
303.425
303.434
303.433
303.432
303.431
303.43
303.429
303.428
303.427
303.426
303.426
303.425
303.425
303.424
303.424
303.434
303.432
303.431
303.43
303.429
303.428
303.427
303.427
303.426
303.425
303.425
303.424
303.424
303.423
303.433
303.432
303.431
303.43
303.429
303.428
303.427
303.426
303.425
303.425
303.424
303.423
303.423
303.423
303.433
303.431
303.43
303.429
303.428
303.427
303.426
303.426
303.425
303.424
303.423
303.423
303.423
303.423
303.432
303.431
303.43
303.429
303.428
303.427
303.426
303.425
303.424
303.424
303.423
303.423
303.422
303.422
303.432
303.431
303.43
303.429
303.428
303.427
303.426
303.425
303.424
303.423
303.423
303.422
303.422
303.422
303.197
303.194
303.193
303.191
303.19
303.189
303.189
303.188
303.188
303.189
303.189
303.19
303.19
303.191
303.194
303.193
303.191
303.189
303.188
303.187
303.187
303.186
303.186
303.187
303.187
303.188
303.188
303.189
303.193
303.191
303.189
303.188
303.186
303.185
303.185
303.185
303.185
303.185
303.185
303.186
303.187
303.188
303.191
303.189
303.188
303.186
303.185
303.184
303.183
303.183
303.183
303.183
303.184
303.184
303.185
303.186
303.19
303.188
303.186
303.185
303.184
303.183
303.182
303.182
303.182
303.182
303.182
303.183
303.184
303.185
303.189
303.187
303.185
303.184
303.182
303.182
303.181
303.181
303.181
303.181
303.181
303.182
303.183
303.184
303.188
303.186
303.185
303.183
303.182
303.181
303.18
303.18
303.18
303.18
303.181
303.182
303.183
303.184
303.188
303.186
303.184
303.183
303.181
303.18
303.18
303.179
303.179
303.18
303.18
303.181
303.182
303.184
303.188
303.186
303.184
303.183
303.181
303.18
303.18
303.179
303.179
303.18
303.18
303.181
303.182
303.183
303.188
303.186
303.184
303.183
303.182
303.181
303.18
303.18
303.18
303.18
303.18
303.181
303.182
303.184
303.188
303.186
303.185
303.183
303.182
303.181
303.18
303.18
303.18
303.18
303.181
303.182
303.183
303.184
303.189
303.187
303.185
303.184
303.183
303.182
303.181
303.181
303.181
303.181
303.181
303.182
303.183
303.184
303.19
303.188
303.186
303.185
303.184
303.183
303.182
303.182
303.182
303.182
303.182
303.183
303.184
303.185
303.191
303.189
303.188
303.186
303.185
303.184
303.183
303.183
303.183
303.183
303.183
303.184
303.185
303.186
302.979
302.977
302.975
302.974
302.973
302.972
302.971
302.971
302.972
302.972
302.973
302.974
302.975
302.977
302.977
302.975
302.973
302.972
302.971
302.97
302.969
302.969
302.97
302.97
302.971
302.972
302.974
302.975
302.975
302.973
302.971
302.97
302.969
302.968
302.967
302.967
302.968
302.968
302.969
302.97
302.972
302.973
302.974
302.972
302.97
302.968
302.967
302.966
302.966
302.966
302.966
302.967
302.968
302.969
302.97
302.972
302.973
302.971
302.969
302.967
302.966
302.965
302.964
302.964
302.965
302.965
302.966
302.968
302.969
302.971
302.972
302.97
302.968
302.966
302.965
302.964
302.964
302.963
302.964
302.965
302.966
302.967
302.969
302.97
302.971
302.969
302.967
302.966
302.964
302.964
302.963
302.963
302.963
302.964
302.965
302.966
302.968
302.97
302.971
302.969
302.967
302.966
302.964
302.963
302.963
302.963
302.963
302.964
302.965
302.966
302.968
302.97
302.971
302.969
302.968
302.966
302.965
302.964
302.963
302.963
302.964
302.964
302.965
302.967
302.968
302.97
302.972
302.97
302.968
302.967
302.965
302.965
302.964
302.964
302.964
302.965
302.966
302.967
302.969
302.971
302.973
302.971
302.969
302.968
302.966
302.966
302.965
302.965
302.965
302.966
302.967
302.968
302.97
302.971
302.974
302.972
302.971
302.969
302.968
302.967
302.966
302.966
302.966
302.967
302.968
302.969
302.971
302.973
302.975
302.974
302.972
302.971
302.97
302.969
302.968
302.968
302.968
302.969
302.97
302.971
302.972
302.974
302.977
302.976
302.974
302.972
302.971
302.971
302.97
302.97
302.97
302.97
302.971
302.972
302.973
302.975
302.788
302.786
302.785
302.784
302.783
302.783
302.782
302.782
302.783
302.783
302.784
302.784
302.785
302.786
302.786
302.785
302.784
302.783
302.782
302.781
302.781
302.781
302.781
302.782
302.782
302.783
302.784
302.785
302.785
302.784
302.783
302.781
302.781
302.78
302.78
302.78
302.78
302.78
302.781
302.782
302.783
302.784
302.784
302.783
302.782
302.78
302.78
302.779
302.779
302.779
302.779
302.779
302.78
302.781
302.782
302.783
302.784
302.782
302.781
302.78
302.779
302.778
302.778
302.778
302.778
302.778
302.779
302.78
302.781
302.782
302.783
302.782
302.78
302.779
302.778
302.778
302.777
302.777
302.777
302.778
302.779
302.779
302.781
302.782
302.783
302.781
302.78
302.779
302.778
302.777
302.777
302.777
302.777
302.778
302.778
302.779
302.78
302.782
302.783
302.781
302.78
302.779
302.778
302.777
302.777
302.777
302.777
302.778
302.778
302.779
302.78
302.782
302.783
302.782
302.78
302.779
302.778
302.778
302.777
302.777
302.777
302.778
302.779
302.78
302.781
302.782
302.784
302.782
302.781
302.78
302.779
302.778
302.778
302.778
302.778
302.778
302.779
302.78
302.781
302.783
302.784
302.783
302.782
302.781
302.78
302.779
302.779
302.779
302.779
302.779
302.78
302.781
302.782
302.783
302.785
302.784
302.783
302.782
302.781
302.78
302.78
302.78
302.78
302.78
302.781
302.782
302.783
302.784
302.786
302.785
302.784
302.783
302.782
302.781
302.781
302.781
302.781
302.781
302.782
302.783
302.784
302.785
302.788
302.786
302.785
302.784
302.783
302.783
302.782
302.782
302.782
302.783
302.783
302.784
302.785
302.786
302.617
302.617
302.616
302.616
302.616
302.615
302.615
302.615
302.615
302.615
302.615
302.615
302.615
302.615
302.617
302.616
302.616
302.616
302.615
302.615
302.615
302.615
302.615
302.615
302.615
302.615
302.615
302.615
302.616
302.616
302.616
302.615
302.615
302.615
302.615
302.614
302.614
302.614
302.614
302.614
302.614
302.614
302.616
302.616
302.615
302.615
302.615
302.615
302.614
302.614
302.614
302.614
302.614
302.614
302.614
302.614
302.616
302.616
302.615
302.615
302.615
302.614
302.614
302.614
302.614
302.614
302.614
302.614
302.614
302.614
302.616
302.615
302.615
302.615
302.615
302.614
302.614
302.614
302.614
302.614
302.614
302.614
302.614
302.614
302.616
302.615
302.615
302.615
302.615
302.614
302.614
302.614
302.614
302.614
302.614
302.614
302.614
302.614
302.616
302.615
302.615
302.615
302.615
302.614
302.614
302.614
302.614
302.614
302.614
302.614
302.614
302.614
302.616
302.615
302.615
302.615
302.615
302.614
302.614
302.614
302.614
302.614
302.614
302.614
302.614
302.614
302.616
302.616
302.615
302.615
302.615
302.614
302.614
302.614
302.614
302.614
302.614
302.614
302.614
302.614
302.616
302.616
302.615
302.615
302.615
302.614
302.614
302.614
302.614
302.614
302.614
302.614
302.614
302.614
302.616
302.616
302.616
302.615
302.615
302.615
302.614
302.614
302.614
302.614
302.614
302.614
302.614
302.614
302.617
302.616
302.616
302.615
302.615
302.615
302.615
302.614
302.614
302.614
302.614
302.614
302.615
302.615
302.617
302.616
302.616
302.616
302.615
302.615
302.615
302.615
302.614
302.614
302.614
302.615
302.615
302.615
302.46
302.461
302.462
302.462
302.462
302.462
302.462
302.462
302.462
302.461
302.461
302.46
302.459
302.459
302.461
302.462
302.462
302.463
302.463
302.463
302.463
302.463
302.462
302.462
302.461
302.461
302.46
302.459
302.462
302.462
302.463
302.463
302.463
302.464
302.464
302.463
302.463
302.463
302.462
302.461
302.461
302.46
302.462
302.463
302.463
302.464
302.464
302.464
302.464
302.464
302.464
302.463
302.462
302.462
302.461
302.46
302.462
302.463
302.464
302.464
302.464
302.465
302.464
302.464
302.464
302.463
302.463
302.462
302.461
302.46
302.462
302.463
302.464
302.464
302.465
302.465
302.465
302.465
302.464
302.464
302.463
302.462
302.461
302.46
302.463
302.463
302.464
302.464
302.465
302.465
302.465
302.465
302.464
302.464
302.463
302.462
302.461
302.46
302.463
302.463
302.464
302.464
302.465
302.465
302.465
302.465
302.464
302.464
302.463
302.462
302.461
302.46
302.462
302.463
302.464
302.464
302.464
302.465
302.464
302.464
302.464
302.463
302.463
302.462
302.461
302.46
302.462
302.463
302.463
302.464
302.464
302.464
302.464
302.464
302.464
302.463
302.462
302.462
302.461
302.46
302.462
302.462
302.463
302.463
302.463
302.464
302.463
302.463
302.463
302.462
302.462
302.461
302.46
302.459
302.461
302.462
302.462
302.462
302.463
302.463
302.463
302.463
302.462
302.462
302.461
302.46
302.46
302.459
302.461
302.461
302.461
302.462
302.462
302.462
302.462
302.462
302.461
302.461
302.46
302.46
302.459
302.458
302.46
302.46
302.46
302.461
302.461
302.461
302.461
302.461
302.461
302.46
302.46
302.459
302.458
302.458
302.313
302.315
302.316
302.316
302.317
302.317
302.317
302.317
302.317
302.316
302.315
302.314
302.313
302.312
302.314
302.316
302.317
302.318
302.318
302.319
302.319
302.318
302.318
302.317
302.316
302.315
302.314
302.313
302.315
302.317
302.318
302.319
302.319
302.32
302.32
302.32
302.319
302.318
302.318
302.316
302.315
302.314
302.316
302.317
302.319
302.32
302.32
302.321
302.321
302.321
302.32
302.319
302.318
302.317
302.316
302.315
302.317
302.318
302.319
302.32
302.321
302.321
302.321
302.321
302.321
302.32
302.319
302.318
302.317
302.315
302.317
302.319
302.32
302.321
302.321
302.322
302.322
302.322
302.321
302.32
302.319
302.318
302.317
302.315
302.317
302.319
302.32
302.321
302.321
302.322
302.322
302.322
302.321
302.321
302.32
302.318
302.317
302.315
302.317
302.319
302.32
302.321
302.321
302.322
302.322
302.322
302.321
302.32
302.319
302.318
302.317
302.315
302.317
302.318
302.319
302.32
302.321
302.321
302.321
302.321
302.321
302.32
302.319
302.318
302.316
302.315
302.316
302.318
302.319
302.32
302.32
302.321
302.321
302.321
302.32
302.319
302.318
302.317
302.316
302.314
302.316
302.317
302.318
302.319
302.319
302.32
302.32
302.32
302.319
302.318
302.317
302.316
302.315
302.313
302.315
302.316
302.317
302.317
302.318
302.318
302.318
302.318
302.318
302.317
302.316
302.315
302.314
302.312
302.313
302.314
302.315
302.316
302.316
302.317
302.317
302.317
302.316
302.316
302.315
302.314
302.312
302.311
302.312
302.313
302.314
302.314
302.315
302.315
302.315
302.315
302.315
302.314
302.314
302.312
302.311
302.31
302.172
302.173
302.174
302.175
302.176
302.176
302.177
302.176
302.176
302.175
302.174
302.173
302.172
302.17
302.173
302.174
302.176
302.177
302.177
302.178
302.178
302.178
302.177
302.177
302.176
302.175
302.173
302.172
302.174
302.175
302.177
302.178
302.179
302.179
302.179
302.179
302.179
302.178
302.177
302.176
302.174
302.173
302.175
302.176
302.178
302.179
302.18
302.18
302.18
302.18
302.18
302.179
302.178
302.177
302.175
302.174
302.176
302.177
302.178
302.179
302.18
302.181
302.181
302.181
302.18
302.18
302.179
302.177
302.176
302.174
302.176
302.178
302.179
302.18
302.181
302.181
302.181
302.181
302.181
302.18
302.179
302.178
302.176
302.175
302.176
302.178
302.179
302.18
302.181
302.181
302.182
302.181
302.181
302.18
302.179
302.178
302.176
302.175
302.176
302.178
302.179
302.18
302.181
302.181
302.181
302.181
302.181
302.18
302.179
302.178
302.176
302.174
302.176
302.177
302.178
302.179
302.18
302.181
302.181
302.181
302.18
302.18
302.179
302.177
302.176
302.174
302.175
302.176
302.178
302.179
302.179
302.18
302.18
302.18
302.18
302.179
302.178
302.176
302.175
302.173
302.174
302.175
302.177
302.178
302.178
302.179
302.179
302.179
302.178
302.178
302.177
302.175
302.174
302.172
302.173
302.174
302.175
302.176
302.177
302.177
302.178
302.178
302.177
302.176
302.175
302.174
302.173
302.171
302.171
302.172
302.174
302.175
302.175
302.176
302.176
302.176
302.176
302.175
302.174
302.173
302.171
302.17
302.169
302.171
302.172
302.173
302.173
302.174
302.174
302.174
302.174
302.173
302.172
302.171
302.17
302.168
302.033
302.034
302.035
302.036
302.037
302.037
302.038
302.038
302.037
302.037
302.036
302.035
302.033
302.032
302.034
302.035
302.037
302.038
302.038
302.039
302.039
302.039
302.038
302.038
302.037
302.036
302.035
302.033
302.035
302.036
302.038
302.039
302.039
302.04
302.04
302.04
302.04
302.039
302.038
302.037
302.036
302.034
302.036
302.037
302.038
302.039
302.04
302.041
302.041
302.041
302.04
302.04
302.039
302.038
302.037
302.035
302.037
302.038
302.039
302.04
302.041
302.041
302.041
302.041
302.041
302.04
302.04
302.039
302.037
302.036
302.037
302.038
302.039
302.04
302.041
302.042
302.042
302.042
302.041
302.041
302.04
302.039
302.038
302.036
302.037
302.038
302.04
302.041
302.041
302.042
302.042
302.042
302.041
302.041
302.04
302.039
302.038
302.036
302.037
302.038
302.039
302.04
302.041
302.041
302.042
302.042
302.041
302.041
302.04
302.039
302.037
302.036
302.037
302.038
302.039
302.04
302.041
302.041
302.041
302.041
302.041
302.04
302.039
302.038
302.037
302.035
302.036
302.037
302.038
302.039
302.04
302.04
302.041
302.041
302.04
302.04
302.039
302.038
302.036
302.035
302.035
302.036
302.037
302.038
302.039
302.039
302.04
302.04
302.039
302.039
302.038
302.037
302.035
302.034
302.034
302.035
302.036
302.037
302.038
302.038
302.038
302.038
302.038
302.037
302.037
302.036
302.034
302.033
302.032
302.034
302.035
302.036
302.036
302.037
302.037
302.037
302.037
302.036
302.035
302.034
302.033
302.031
302.031
302.032
302.033
302.034
302.035
302.035
302.035
302.035
302.035
302.035
302.034
302.033
302.031
302.03
301.896
301.897
301.898
301.899
301.899
301.9
301.9
301.9
301.9
301.899
301.899
301.898
301.897
301.898
301.899
301.9
301.9
301.901
301.901
301.901
301.901
301.9
301.9
301.899
301.898
301.899
301.9
301.901
301.901
301.902
301.902
301.902
301.901
301.901
301.9
301.9
301.899
301.9
301.901
301.901
301.902
301.902
301.902
301.902
301.902
301.902
301.901
301.9
301.899
301.9
301.901
301.902
301.902
301.903
301.903
301.903
301.902
301.902
301.901
301.901
301.899
301.9
301.901
301.902
301.902
301.903
301.903
301.903
301.903
301.902
301.902
301.901
301.899
301.9
301.901
301.902
301.902
301.903
301.903
301.903
301.903
301.902
301.902
301.901
301.899
301.9
301.901
301.902
301.902
301.903
301.903
301.903
301.903
301.902
301.902
301.901
301.899
301.9
301.901
301.901
301.902
301.902
301.902
301.902
301.902
301.902
301.901
301.9
301.898
301.899
301.9
301.901
301.901
301.902
301.902
301.902
301.902
301.901
301.901
301.9
301.898
301.899
301.9
301.9
301.901
301.901
301.901
301.901
301.901
301.901
301.9
301.899
301.897
301.898
301.899
301.899
301.9
301.9
301.9
301.9
301.9
301.9
301.899
301.898
301.896
301.897
301.898
301.898
301.899
301.899
301.899
301.899
301.899
301.899
301.898
301.897
301.894
301.895
301.896
301.897
301.898
301.898
301.898
301.898
301.898
301.898
301.897
301.896
306.472
306.464
306.458
306.45
306.444
306.437
306.491
306.483
306.478
306.472
306.467
306.462
306.507
306.502
306.498
306.493
306.49
306.487
306.524
306.52
306.517
306.514
306.511
306.509
306.15
306.131
306.117
306.101
306.086
306.071
306.169
306.15
306.135
306.117
306.102
306.086
306.185
306.167
306.151
306.134
306.118
306.104
306.203
306.184
306.168
306.151
306.136
306.122
306.219
306.201
306.185
306.169
306.154
306.14
306.235
306.218
306.203
306.187
306.172
306.159
306.25
306.235
306.219
306.204
306.19
306.176
305.803
305.782
305.765
305.747
305.73
305.713
305.817
305.795
305.776
305.756
305.738
305.719
305.83
305.807
305.788
305.767
305.747
305.728
305.844
305.821
305.801
305.779
305.759
305.74
305.858
305.835
305.814
305.793