/*--------------------------------*- C++ -*----------------------------------*\
| =========                 |                                                 |
| \\      /  F ield         | OpenFOAM: The Open Source CFD Toolbox           |
|  \\    /   O peration     | Version:  v2106                                 |
|   \\  /    A nd           | Website:  www.openfoam.com                      |
|    \\/     M anipulation  |                                                 |
\*---------------------------------------------------------------------------*/
FoamFile
{
    version     2.0;
    format      ascii;
    arch        "LSB;label=32;scalar=64";
    class       volScalarField;
    location    "0.000177";
    object      alphat;
}
// * * * * * * * * * * * * * * * * * * * * * * * * * * * * * * * * * * * * * //

dimensions      [1 -1 -1 0 0 0 0];

internalField   nonuniform List<scalar> 
144746
(
0.000220093
0.000181112
0.000141646
0.000104236
7.18666e-05
4.93853e-05
3.975e-05
3.88282e-05
4.76387e-05
6.8932e-05
0.000104558
0.000151373
0.000193132
0.000210372
0.000159338
0.000124104
8.95468e-05
6.10274e-05
4.09628e-05
2.81019e-05
2.29347e-05
2.40883e-05
3.16199e-05
4.97067e-05
8.16642e-05
0.000125816
0.000166858
0.00018466
9.90776e-05
7.0618e-05
4.6484e-05
2.8989e-05
1.89847e-05
1.31383e-05
1.09856e-05
1.27126e-05
1.96341e-05
3.50489e-05
6.21214e-05
0.000100233
0.000137936
0.000156563
5.59048e-05
3.5076e-05
2.05211e-05
1.13383e-05
7.01494e-06
4.9845e-06
4.68957e-06
6.50928e-06
1.185e-05
2.34803e-05
4.46717e-05
7.52687e-05
0.00010765
0.000127205
3.12138e-05
1.67361e-05
8.26164e-06
3.81482e-06
2.12743e-06
1.62957e-06
2.0069e-06
3.72794e-06
8.15231e-06
1.7562e-05
3.39801e-05
5.71414e-05
8.15727e-05
9.93638e-05
2.00827e-05
9.26886e-06
3.73481e-06
1.46657e-06
7.37342e-07
6.63694e-07
1.18721e-06
2.79784e-06
6.64195e-06
1.43544e-05
2.70521e-05
4.41432e-05
6.24805e-05
7.84937e-05
1.69018e-05
7.17469e-06
2.81515e-06
1.23958e-06
6.81838e-07
6.87661e-07
1.3094e-06
2.98878e-06
6.61746e-06
1.3287e-05
2.35033e-05
3.67095e-05
5.21096e-05
6.8499e-05
1.8808e-05
7.98801e-06
3.68893e-06
2.0143e-06
1.31962e-06
1.32534e-06
2.10189e-06
3.98973e-06
7.61237e-06
1.36332e-05
2.23279e-05
3.41558e-05
5.09133e-05
6.9677e-05
2.55281e-05
1.1091e-05
5.99291e-06
3.84491e-06
2.82184e-06
2.72016e-06
3.62385e-06
5.72032e-06
9.36109e-06
1.49943e-05
2.33814e-05
3.8219e-05
5.89915e-05
8.39851e-05
4.22969e-05
1.77016e-05
1.02213e-05
7.38247e-06
5.84671e-06
5.3852e-06
6.20241e-06
8.40838e-06
1.22295e-05
1.84538e-05
3.05304e-05
5.268e-05
8.00706e-05
0.000112112
7.77421e-05
3.65237e-05
1.78891e-05
1.35414e-05
1.1649e-05
1.0703e-05
1.12382e-05
1.36614e-05
1.85386e-05
2.96929e-05
5.01014e-05
8.0737e-05
0.000114945
0.000149532
0.000121304
7.57045e-05
4.08748e-05
2.55884e-05
2.16479e-05
2.06118e-05
2.14654e-05
2.54271e-05
3.47611e-05
5.46312e-05
8.34348e-05
0.00012004
0.000153782
0.000180627
0.000160704
0.000122038
7.81035e-05
4.80195e-05
3.60034e-05
3.39867e-05
3.67678e-05
4.45818e-05
6.02398e-05
8.69269e-05
0.000118597
0.000150006
0.000172877
0.00018663
0.000191463
0.000165988
0.000123181
8.29875e-05
5.91117e-05
5.0665e-05
5.26883e-05
6.31487e-05
8.23858e-05
0.000108603
0.000133541
0.000152891
0.000166288
0.000175147
0.00021426
0.000172092
0.000130593
9.29302e-05
6.29027e-05
4.30531e-05
3.41897e-05
3.34141e-05
4.28909e-05
6.54231e-05
0.000101844
0.000148595
0.000192577
0.000214746
0.000152461
0.000116249
8.20866e-05
5.55505e-05
3.75697e-05
2.59219e-05
2.02785e-05
2.02818e-05
2.74628e-05
4.58559e-05
7.74446e-05
0.000119737
0.000160512
0.000182394
9.27226e-05
6.47869e-05
4.25451e-05
2.72215e-05
1.82777e-05
1.27662e-05
1.01489e-05
1.08927e-05
1.70678e-05
3.20301e-05
5.78883e-05
9.25557e-05
0.000127802
0.000149739
4.91773e-05
3.00566e-05
1.80234e-05
1.06574e-05
6.99e-06
5.01734e-06
4.40816e-06
5.70411e-06
1.06048e-05
2.17971e-05
4.12474e-05
6.8031e-05
9.63547e-05
0.000116786
2.45938e-05
1.26953e-05
6.5282e-06
3.38577e-06
2.10001e-06
1.6291e-06
1.85663e-06
3.3382e-06
7.48336e-06
1.63736e-05
3.12376e-05
5.10088e-05
7.14854e-05
8.80318e-05
1.42321e-05
6.25305e-06
2.54445e-06
1.07439e-06
6.00178e-07
5.71667e-07
1.02609e-06
2.48653e-06
6.06713e-06
1.32161e-05
2.45602e-05
3.89177e-05
5.37065e-05
6.71849e-05
1.17141e-05
4.76476e-06
1.77033e-06
7.19634e-07
3.91287e-07
4.57903e-07
1.00453e-06
2.48136e-06
5.73211e-06
1.16852e-05
2.05854e-05
3.15279e-05
4.35072e-05
5.71333e-05
1.33963e-05
5.49769e-06
2.30654e-06
1.13115e-06
7.2258e-07
8.09783e-07
1.46612e-06
3.04283e-06
6.12788e-06
1.12805e-05
1.86125e-05
2.80086e-05
4.08751e-05
5.72906e-05
1.86551e-05
7.84141e-06
3.78983e-06
2.24269e-06
1.63212e-06
1.69265e-06
2.46334e-06
4.16296e-06
7.15218e-06
1.18321e-05
1.87016e-05
2.95784e-05
4.67e-05
6.95568e-05
3.07151e-05
1.26338e-05
6.60974e-06
4.50286e-06
3.57448e-06
3.4968e-06
4.32642e-06
6.1864e-06
9.32611e-06
1.44039e-05
2.3297e-05
4.04222e-05
6.36296e-05
9.32931e-05
5.81799e-05
2.49974e-05
1.15923e-05
8.67141e-06
7.41664e-06
7.15475e-06
8.05944e-06
1.03726e-05
1.4594e-05
2.24555e-05
3.73844e-05
6.21152e-05
9.22384e-05
0.000125649
9.75879e-05
5.70914e-05
2.89233e-05
1.70706e-05
1.4353e-05
1.40007e-05
1.53977e-05
1.90044e-05
2.59967e-05
4.02479e-05
6.18114e-05
9.29758e-05
0.000126642
0.000158637
0.000140185
9.93135e-05
6.01032e-05
3.43425e-05
2.52597e-05
2.41392e-05
2.66183e-05
3.27272e-05
4.41733e-05
6.39452e-05
9.08158e-05
0.000123607
0.000153208
0.000177012
0.000179598
0.000143337
0.000100252
6.40989e-05
4.44234e-05
3.79288e-05
3.97731e-05
4.79474e-05
6.30226e-05
8.64948e-05
0.000113877
0.000140054
0.000160588
0.000176006
0.000166768
0.000130493
9.67754e-05
6.89197e-05
4.78665e-05
3.3923e-05
2.6612e-05
2.57005e-05
3.33284e-05
5.24615e-05
8.28849e-05
0.000120722
0.0001602
0.000190256
0.000115482
8.73654e-05
6.13472e-05
4.21492e-05
2.93374e-05
2.08994e-05
1.60838e-05
1.50937e-05
2.04685e-05
3.57145e-05
6.19546e-05
9.60726e-05
0.000129531
0.000154184
6.96248e-05
4.87384e-05
3.21781e-05
2.12667e-05
1.48079e-05
1.0651e-05
8.30686e-06
8.31494e-06
1.2887e-05
2.50558e-05
4.61173e-05
7.33552e-05
0.000101462
0.000123454
3.60823e-05
2.18949e-05
1.33583e-05
8.47912e-06
5.87063e-06
4.32525e-06
3.6518e-06
4.42234e-06
8.2511e-06
1.7513e-05
3.34556e-05
5.43007e-05
7.63885e-05
9.52506e-05
1.70069e-05
8.48416e-06
4.49631e-06
2.62504e-06
1.79687e-06
1.41895e-06
1.51214e-06
2.61013e-06
5.92674e-06
1.31898e-05
2.5364e-05
4.11873e-05
5.7521e-05
7.22171e-05
9.29176e-06
3.79154e-06
1.53892e-06
7.19091e-07
4.597e-07
4.52197e-07
7.85805e-07
1.93035e-06
4.81551e-06
1.06401e-05
2.00311e-05
3.20015e-05
4.40775e-05
5.52816e-05
7.66109e-06
2.85657e-06
9.74192e-07
3.59923e-07
1.99835e-07
2.77295e-07
6.8977e-07
1.83268e-06
4.4099e-06
9.22925e-06
1.66454e-05
2.59814e-05
3.55628e-05
4.56298e-05
8.93738e-06
3.38486e-06
1.24546e-06
5.24851e-07
3.2344e-07
4.23004e-07
9.01367e-07
2.07337e-06
4.45709e-06
8.59365e-06
1.46798e-05
2.23755e-05
3.13373e-05
4.29035e-05
1.2522e-05
4.90236e-06
2.07231e-06
1.10424e-06
7.88204e-07
8.9082e-07
1.44629e-06
2.67467e-06
4.94601e-06
8.666e-06
1.41247e-05
2.17886e-05
3.26516e-05
4.97997e-05
2.0175e-05
7.95265e-06
3.76319e-06
2.41042e-06
1.91124e-06
1.97748e-06
2.62784e-06
3.99574e-06
6.37494e-06
1.02766e-05
1.6674e-05
2.7345e-05
4.29251e-05
6.59075e-05
3.81271e-05
1.48394e-05
7.00857e-06
5.07307e-06
4.33163e-06
4.36039e-06
5.20482e-06
7.03019e-06
1.02818e-05
1.5924e-05
2.59253e-05
4.17698e-05
6.30915e-05
8.88437e-05
6.61289e-05
3.6651e-05
1.74485e-05
1.01955e-05
9.00054e-06
9.13106e-06
1.05435e-05
1.35523e-05
1.88785e-05
2.78724e-05
4.22103e-05
6.31724e-05
8.9278e-05
0.000114834
0.000100897
6.69436e-05
3.78796e-05
2.08976e-05
1.65998e-05
1.68991e-05
1.92626e-05
2.3999e-05
3.19712e-05
4.47535e-05
6.27152e-05
8.68718e-05
0.000113694
0.000138971
0.000133593
9.85666e-05
6.59885e-05
4.13633e-05
2.99091e-05
2.76922e-05
3.03484e-05
3.66852e-05
4.70465e-05
6.35369e-05
8.51129e-05
0.000108626
0.000132455
0.000156804
0.000204419
0.00021126
0.000221608
0.000238257
0.00024938
0.00018156
0.000177485
0.000184207
0.000198153
0.000224736
0.000256046
0.00021328
0.000153542
0.000159679
0.000173797
0.000206097
0.00025912
0.000243224
0.000128839
0.000135222
0.00014857
0.000182695
0.000253147
0.000270122
0.000106481
0.000113877
0.000127314
0.000161191
0.000241367
0.000291902
8.92778e-05
9.89226e-05
0.000114182
0.000147419
0.000229255
0.000307642
8.29131e-05
9.5215e-05
0.000112786
0.000144977
0.00022364
0.000315024
8.86088e-05
0.000104354
0.000123612
0.000153973
0.000225864
0.000314846
0.000108429
0.000127072
0.00014603
0.000172476
0.000234696
0.000307339
0.00013898
0.000157762
0.000173482
0.000194287
0.000243012
0.000292878
0.000170166
0.000182819
0.000192472
0.00020785
0.000243005
0.00027153
0.000187256
0.000191087
0.000196448
0.000209171
0.00023394
0.0002459
0.000184949
0.000185437
0.000190465
0.000203325
0.00022169
0.000220197
0.000172694
0.000174764
0.00018207
0.000196881
0.000212213
0.000196208
0.000210092
0.000214412
0.000218062
0.000223775
0.000229439
0.000199356
0.000177585
0.000183007
0.000191234
0.000207552
0.000233341
0.000229099
0.000149754
0.000154832
0.000163644
0.000185474
0.000230255
0.000254356
0.000121453
0.000127275
0.000136701
0.000160791
0.000217734
0.000273933
9.62192e-05
0.000103856
0.000115255
0.00014084
0.000203628
0.000287341
7.76341e-05
8.77912e-05
0.000102664
0.000130439
0.000194958
0.000295211
7.0085e-05
8.27215e-05
0.000100855
0.000130259
0.000196491
0.000298636
7.4312e-05
8.97049e-05
0.000110221
0.000140064
0.000204526
0.000297653
9.12853e-05
0.000109304
0.000130955
0.000158781
0.000217207
0.000292979
0.000118229
0.000138269
0.000158932
0.000181571
0.000227562
0.000284181
0.000148712
0.000166761
0.000182405
0.000197517
0.000228588
0.000270122
0.000172806
0.000183074
0.000191191
0.000199679
0.000217386
0.000251445
0.000181015
0.000183601
0.000186106
0.000191029
0.000202741
0.00022911
0.000173645
0.000172776
0.000173555
0.000179576
0.000191514
0.000203818
0.000200316
0.000210998
0.00021227
0.00020684
0.000203217
0.000206215
0.00016213
0.000174016
0.000181516
0.00018762
0.00020136
0.000229449
0.000133
0.000143877
0.000152659
0.000164601
0.000192139
0.000246232
0.000105658
0.000116329
0.000126298
0.000141935
0.000178055
0.000256677
8.24871e-05
9.38374e-05
0.000106067
0.000125313
0.000167595
0.000263007
6.51069e-05
7.73554e-05
9.30087e-05
0.000116574
0.00016601
0.000266411
5.60657e-05
6.96317e-05
8.85711e-05
0.000115825
0.000171751
0.000269195
5.60895e-05
7.07321e-05
9.20382e-05
0.000121759
0.000183411
0.000269298
6.52597e-05
8.13442e-05
0.00010458
0.000135013
0.000195332
0.00026662
8.24828e-05
0.000100412
0.000124864
0.000154485
0.000206187
0.000261278
0.000104062
0.000123789
0.000148098
0.000172465
0.000209408
0.000252651
0.000126957
0.000145894
0.000166325
0.000181685
0.000200538
0.000238866
0.000147214
0.000162198
0.000175061
0.000180698
0.000185924
0.000219913
0.0001593
0.000169047
0.000173538
0.000172229
0.000174399
0.000196015
0.000162675
0.000167204
0.000176793
0.000193314
0.000208342
0.000203569
0.000149614
0.000151069
0.000160558
0.00018211
0.000214943
0.000236424
0.000138203
0.000136541
0.000142396
0.000165466
0.000212588
0.000265903
0.000124449
0.00012197
0.000125708
0.000148294
0.000203881
0.000290618
0.000108201
0.000107677
0.000112328
0.000135452
0.000195142
0.000309549
9.01025e-05
9.48789e-05
0.000104596
0.000130158
0.000190537
0.000321674
7.58078e-05
8.68917e-05
0.000103691
0.000133243
0.00019415
0.000327396
6.90911e-05
8.70558e-05
0.000110674
0.000144264
0.000205825
0.000326939
7.37214e-05
9.89177e-05
0.000127833
0.000163438
0.000223222
0.000320207
9.15174e-05
0.000123755
0.000155307
0.000188385
0.000238933
0.000304347
0.000122138
0.000157089
0.000185395
0.000209605
0.000242525
0.000281738
0.000158474
0.000186729
0.000204753
0.000217001
0.00023229
0.000253301
0.00018697
0.000201682
0.000207676
0.000210435
0.000216066
0.000224212
0.000195314
0.000199191
0.000197625
0.000197937
0.000201253
0.000196522
0.000160602
0.000159871
0.000161408
0.000170881
0.000187415
0.000208908
0.000146872
0.000144747
0.000147046
0.000160249
0.000189942
0.00023657
0.000133781
0.000131457
0.000132869
0.000146739
0.000185047
0.000259746
0.000116721
0.000116935
0.000119971
0.000134633
0.000176435
0.000277709
9.61655e-05
0.000101275
0.000108722
0.000126643
0.000170247
0.000290205
7.59035e-05
8.62146e-05
0.000100247
0.000123674
0.000170235
0.000297788
6.14953e-05
7.57461e-05
9.61576e-05
0.000125482
0.000177642
0.000303153
5.4718e-05
7.30991e-05
9.89632e-05
0.00013376
0.000192975
0.000304664
5.7917e-05
8.16036e-05
0.000112188
0.000150452
0.000211982
0.000300685
7.29877e-05
0.000103138
0.000137817
0.000175502
0.000230017
0.000290942
9.95845e-05
0.000134795
0.000170844
0.000201119
0.000237137
0.000274767
0.000134445
0.000168356
0.000198095
0.000214296
0.000226703
0.000252257
0.000168916
0.000193877
0.00020925
0.000209915
0.000208073
0.000226842
0.00018908
0.000202187
0.000202461
0.000195031
0.000190986
0.000199568
0.000161851
0.000167145
0.00016538
0.000163401
0.000169623
0.000197898
0.000138327
0.000146828
0.000150797
0.000156421
0.000171857
0.000220586
0.000120122
0.000131377
0.000138706
0.000147813
0.000168507
0.000239059
0.000100588
0.000114675
0.000126292
0.000139811
0.000163222
0.000253217
8.04027e-05
9.70453e-05
0.000113974
0.000132993
0.000160345
0.000263436
6.26847e-05
8.01209e-05
0.000101483
0.000127039
0.000161685
0.000270507
5.02668e-05
6.75749e-05
9.18048e-05
0.000122513
0.000166168
0.000275536
4.30862e-05
6.0612e-05
8.67722e-05
0.000121605
0.000175872
0.000277279
4.20792e-05
6.15871e-05
8.96449e-05
0.000127996
0.000191257
0.000274782
4.9384e-05
7.22626e-05
0.000103369
0.000144555
0.000205836
0.00026684
6.5404e-05
9.19392e-05
0.000127702
0.000168167
0.000215652
0.000255057
8.82095e-05
0.000117124
0.000155866
0.000188671
0.00021327
0.000238837
0.000116117
0.000145513
0.000180377
0.000197937
0.000200182
0.000218241
0.000143603
0.000170662
0.000193393
0.000194669
0.00018768
0.000193665
0.000194718
0.000278153
0.000267407
0.000261779
0.000250029
0.000231004
0.00023231
0.000304696
0.000265956
0.000241763
0.000213576
0.000185133
0.000265848
0.000305185
0.000235696
0.000194535
0.000158816
0.000128983
0.000289754
0.000272928
0.000188347
0.000141976
0.000108686
8.29554e-05
0.00030379
0.000225798
0.00014423
0.000101607
7.394e-05
5.29193e-05
0.000310471
0.000185481
0.000115149
7.92093e-05
5.61534e-05
3.77803e-05
0.000311854
0.000159979
0.00010114
7.18619e-05
5.20279e-05
3.40273e-05
0.000310462
0.000150878
0.000100024
7.68924e-05
5.94575e-05
3.92113e-05
0.000305305
0.000153591
0.000108411
9.15655e-05
7.71974e-05
5.29114e-05
0.000295097
0.000164587
0.000123144
0.000112006
0.000104077
7.93112e-05
0.000279067
0.000179032
0.000141715
0.000133079
0.000131161
0.000113509
0.000257395
0.000191691
0.000160534
0.000152164
0.000153506
0.000144398
0.000230667
0.000196553
0.000176019
0.000168513
0.000170169
0.000166904
0.000200967
0.000192137
0.000185469
0.000183
0.00018732
0.000187603
0.000204177
0.000267083
0.000270149
0.00026903
0.000251899
0.000226451
0.000235922
0.000298296
0.000271294
0.000245234
0.000210297
0.000178303
0.000262068
0.00030226
0.000238603
0.000192436
0.000151878
0.000121333
0.000279251
0.000270068
0.000186745
0.000136434
0.000100504
7.48269e-05
0.000288255
0.000221846
0.000138285
9.35815e-05
6.50631e-05
4.43704e-05
0.000291004
0.000179522
0.00010718
6.96143e-05
4.61686e-05
2.90557e-05
0.000290218
0.000151384
9.30964e-05
6.18664e-05
4.1133e-05
2.50449e-05
0.000287372
0.000138889
9.25019e-05
6.67702e-05
4.69161e-05
2.88393e-05
0.000282088
0.000138563
0.000101544
8.18617e-05
6.23309e-05
3.93581e-05
0.000275678
0.000145804
0.000115891
0.000104571
8.86182e-05
5.99494e-05
0.000265435
0.000158302
0.00013254
0.000128488
0.000120143
9.3388e-05
0.0002499
0.000171924
0.000149825
0.0001498
0.000148596
0.000128332
0.000228666
0.000179847
0.00016534
0.000167312
0.000170754
0.000158819
0.00020307
0.000179304
0.000176844
0.000184687
0.000194771
0.000190807
0.00021125
0.00025537
0.000254839
0.000241378
0.000208683
0.000176699
0.000239003
0.00028377
0.000246799
0.000206159
0.000163345
0.000132849
0.000257614
0.000282956
0.000210194
0.000155055
0.000113256
8.80472e-05
0.000268363
0.000250015
0.000161301
0.000108235
7.40215e-05
5.33994e-05
0.00027298
0.000204824
0.000118228
7.40239e-05
4.83466e-05
3.12265e-05
0.000275218
0.000167438
9.32049e-05
5.63264e-05
3.50567e-05
2.03779e-05
0.000273038
0.000143369
8.50925e-05
5.25746e-05
3.23382e-05
1.79104e-05
0.000267935
0.000133927
8.87788e-05
5.88907e-05
3.72651e-05
2.07178e-05
0.000261928
0.000134556
0.000100213
7.30701e-05
4.86695e-05
2.77803e-05
0.000255563
0.000141751
0.000116775
9.51345e-05
6.89479e-05
4.16106e-05
0.000247022
0.000152645
0.000134515
0.000120046
9.69733e-05
6.77942e-05
0.000233996
0.000165681
0.000152365
0.000144673
0.000125884
9.68785e-05
0.000216616
0.000174801
0.000168265
0.000166599
0.000153096
0.000127826
0.000194857
0.000176834
0.00018213
0.000190609
0.000185328
0.000164055
0.000183597
0.000267941
0.000245873
0.000230477
0.000220153
0.000214261
0.000218684
0.00028728
0.00024869
0.000230405
0.000216906
0.000206443
0.000252169
0.000292572
0.000234143
0.000208605
0.000189117
0.000172956
0.000277664
0.000273491
0.000200611
0.000169087
0.000146656
0.000128921
0.000293425
0.000239237
0.000161057
0.000127601
0.00010659
9.07232e-05
0.000302648
0.00020893
0.00013113
9.85619e-05
7.96781e-05
6.57207e-05
0.000306546
0.000190921
0.000116976
8.63129e-05
6.86107e-05
5.48993e-05
0.000306579
0.000187214
0.000118276
9.01283e-05
7.31311e-05
5.75396e-05
0.000301892
0.000197732
0.000133247
0.000108427
9.23178e-05
7.23216e-05
0.000290031
0.000216212
0.000158413
0.000137237
0.000123299
0.000100553
0.000271589
0.000233452
0.000186855
0.000169039
0.00015835
0.000136878
0.000247721
0.000244171
0.00021253
0.000199404
0.000193186
0.000174706
0.000220182
0.000246258
0.00023224
0.000226257
0.000224813
0.00021019
0.000190263
0.000247024
0.000249457
0.000253255
0.000258996
0.00025031
0.000197483
0.000251672
0.000241094
0.000234004
0.00022543
0.000218456
0.000226107
0.000276003
0.000250558
0.000236237
0.000220517
0.000207325
0.000250637
0.000284931
0.000238698
0.000212365
0.000188677
0.000170198
0.000268278
0.000268159
0.00020438
0.000169605
0.000143446
0.000124851
0.000278302
0.000233989
0.000160919
0.000124942
0.000101901
8.59451e-05
0.000283583
0.00019998
0.000126406
9.28576e-05
7.3271e-05
5.98019e-05
0.000285971
0.000175723
0.000108036
7.77493e-05
6.00752e-05
4.74638e-05
0.000287364
0.000164412
0.00010529
7.86937e-05
6.21542e-05
4.85124e-05
0.000286203
0.00016691
0.000116041
9.46767e-05
7.90587e-05
6.13792e-05
0.000281245
0.000181618
0.000137597
0.000122799
0.000109649
8.74543e-05
0.000270905
0.000201975
0.000166171
0.000156745
0.000147446
0.000124117
0.000254144
0.000219773
0.000196395
0.000192002
0.000186794
0.000164695
0.00023117
0.000228044
0.0002223
0.000225151
0.000223885
0.000204294
0.000203464
0.000230659
0.000243766
0.000258991
0.000265926
0.000250827
0.000206105
0.000228983
0.000230088
0.000223892
0.000209315
0.000195024
0.000231735
0.000256763
0.000239254
0.000216291
0.000191052
0.000171922
0.000249102
0.000267977
0.000224165
0.000186304
0.000154742
0.000134619
0.000258864
0.000253562
0.000189065
0.000145692
0.000115365
9.73576e-05
0.000263493
0.000221991
0.000146504
0.000106494
8.20699e-05
6.6934e-05
0.00026588
0.000188905
0.000113927
7.90744e-05
5.9344e-05
4.66664e-05
0.000266387
0.000162836
9.70162e-05
6.64886e-05
4.90133e-05
3.73352e-05
0.000264815
0.000147151
9.38937e-05
6.71908e-05
5.0672e-05
3.82926e-05
0.000261659
0.000143989
0.000101979
7.98171e-05
6.29613e-05
4.76376e-05
0.000259634
0.000151742
0.000119719
0.000103573
8.66187e-05
6.68244e-05
0.000255542
0.000170309
0.000145553
0.000134796
0.000118318
9.44119e-05
0.00024713
0.000192176
0.00017623
0.000170541
0.000154929
0.000127609
0.000232373
0.000208582
0.00020648
0.000206932
0.00019273
0.000163907
0.00020984
0.000217599
0.000234247
0.000246993
0.00023801
0.000209164
7.54383e-05
5.8899e-05
4.41551e-05
3.32842e-05
2.57831e-05
2.05535e-05
1.70495e-05
1.52702e-05
1.71597e-05
2.50999e-05
4.00115e-05
6.12791e-05
8.852e-05
0.000120371
4.75856e-05
3.60268e-05
2.59832e-05
1.91743e-05
1.47835e-05
1.16911e-05
9.55099e-06
8.54123e-06
1.02011e-05
1.68187e-05
2.98184e-05
4.84812e-05
7.11608e-05
9.62022e-05
2.71059e-05
1.86325e-05
1.27267e-05
9.17728e-06
7.02147e-06
5.50846e-06
4.51224e-06
4.3122e-06
6.05332e-06
1.15769e-05
2.22414e-05
3.75752e-05
5.59766e-05
7.60053e-05
1.35645e-05
7.7996e-06
4.87177e-06
3.41347e-06
2.61539e-06
2.07561e-06
1.80275e-06
2.10534e-06
3.82354e-06
8.33562e-06
1.68135e-05
2.91501e-05
4.41641e-05
6.05473e-05
6.57132e-06
2.9044e-06
1.49484e-06
9.67104e-07
7.38544e-07
6.24619e-07
6.79854e-07
1.18466e-06
2.79336e-06
6.54312e-06
1.33747e-05
2.33775e-05
3.56604e-05
4.90503e-05
4.08613e-06
1.40686e-06
5.04802e-07
2.4041e-07
1.69028e-07
1.81738e-07
3.40522e-07
8.95568e-07
2.38195e-06
5.59353e-06
1.12489e-05
1.94675e-05
2.96019e-05
4.06696e-05
3.73362e-06
1.19618e-06
3.51392e-07
1.09652e-07
6.06298e-08
1.02398e-07
2.94975e-07
8.66196e-07
2.26302e-06
5.10174e-06
9.91774e-06
1.68406e-05
2.54263e-05
3.50109e-05
4.40113e-06
1.45689e-06
4.46812e-07
1.50338e-07
8.86812e-08
1.41457e-07
3.6238e-07
9.5849e-07
2.30545e-06
4.8884e-06
9.11149e-06
1.51044e-05
2.26215e-05
3.13272e-05
5.93731e-06
2.07544e-06
7.48925e-07
3.47855e-07
2.45359e-07
3.08089e-07
5.69115e-07
1.20808e-06
2.53963e-06
4.9558e-06
8.79638e-06
1.42385e-05
2.13614e-05
3.04751e-05
8.78698e-06
3.28821e-06
1.47816e-06
9.06003e-07
7.27783e-07
7.92042e-07
1.11621e-06
1.83814e-06
3.22309e-06
5.63323e-06
9.47569e-06
1.52138e-05
2.31827e-05
3.37886e-05
1.45213e-05
5.90544e-06
3.08277e-06
2.23949e-06
1.95063e-06
2.02665e-06
2.48363e-06
3.4404e-06
5.18562e-06
8.19379e-06
1.31775e-05
2.05943e-05
3.05072e-05
4.28322e-05
2.55298e-05
1.23789e-05
6.35422e-06
4.98805e-06
4.63309e-06
4.82456e-06
5.60661e-06
7.14421e-06
9.855e-06
1.44071e-05
2.14225e-05
3.12193e-05
4.34341e-05
5.70105e-05
4.26764e-05
2.36337e-05
1.31553e-05
9.96553e-06
9.66897e-06
1.01823e-05
1.15945e-05
1.41292e-05
1.83315e-05
2.4792e-05
3.38356e-05
4.59559e-05
6.08861e-05
7.58984e-05
5.92869e-05
3.91569e-05
2.6143e-05
1.94036e-05
1.7897e-05
1.88076e-05
2.10189e-05
2.48046e-05
3.06784e-05
3.88605e-05
4.98479e-05
6.40208e-05
8.175e-05
0.000100932
3.62064e-05
2.95503e-05
2.35398e-05
1.88144e-05
1.58143e-05
1.36392e-05
1.20425e-05
1.08998e-05
1.10246e-05
1.39352e-05
2.10841e-05
3.2568e-05
4.78949e-05
6.77265e-05
2.17575e-05
1.65468e-05
1.255e-05
9.89037e-06
8.28276e-06
7.08189e-06
6.1917e-06
5.64277e-06
6.11961e-06
8.91079e-06
1.54926e-05
2.63081e-05
4.06981e-05
5.81782e-05
1.18317e-05
7.75743e-06
5.47552e-06
4.23194e-06
3.54655e-06
3.02659e-06
2.66279e-06
2.58516e-06
3.33529e-06
5.92353e-06
1.16068e-05
2.09735e-05
3.35879e-05
4.89659e-05
5.97857e-06
3.08645e-06
1.90395e-06
1.41967e-06
1.18767e-06
1.02916e-06
9.66611e-07
1.14621e-06
1.98683e-06
4.27637e-06
9.03437e-06
1.69026e-05
2.77793e-05
4.11851e-05
3.30391e-06
1.25521e-06
5.80495e-07
3.79275e-07
3.07281e-07
2.83975e-07
3.40242e-07
6.12464e-07
1.44608e-06
3.47765e-06
7.53333e-06
1.42266e-05
2.35939e-05
3.52694e-05
2.41846e-06
7.50655e-07
2.36986e-07
1.00664e-07
6.93816e-08
8.26425e-08
1.72212e-07
4.69139e-07
1.28009e-06
3.13991e-06
6.71309e-06
1.25202e-05
2.06698e-05
3.08566e-05
2.29997e-06
6.96377e-07
1.93304e-07
5.51051e-08
2.84995e-08
5.11661e-08
1.54996e-07
4.70301e-07
1.27845e-06
3.03701e-06
6.2885e-06
1.14613e-05
1.86905e-05
2.77969e-05
2.64136e-06
8.3277e-07
2.41536e-07
7.69076e-08
4.524e-08
7.38568e-08
1.94739e-07
5.37985e-07
1.36443e-06
3.06959e-06
6.0997e-06
1.08173e-05
1.73597e-05
2.56533e-05
3.39067e-06
1.13683e-06
3.97195e-07
1.81748e-07
1.31999e-07
1.67448e-07
3.14235e-07
6.98847e-07
1.56261e-06
3.25323e-06
6.14361e-06
1.05603e-05
1.66573e-05
2.44954e-05
4.71247e-06
1.74714e-06
8.14838e-07
5.08473e-07
4.17958e-07
4.56011e-07
6.40622e-07
1.08509e-06
2.00621e-06
3.71174e-06
6.54727e-06
1.0824e-05
1.67942e-05
2.46808e-05
7.12728e-06
3.07165e-06
1.8169e-06
1.36359e-06
1.19625e-06
1.23076e-06
1.4838e-06
2.05229e-06
3.1381e-06
5.04347e-06
8.15722e-06
1.28751e-05
1.94002e-05
2.7885e-05
1.22334e-05
5.78577e-06
3.89904e-06
3.28362e-06
3.03468e-06
3.09084e-06
3.49043e-06
4.3356e-06
5.86275e-06
8.43382e-06
1.25473e-05
1.84121e-05
2.59701e-05
3.49247e-05
2.08394e-05
1.11749e-05
7.70056e-06
6.95113e-06
6.74223e-06
6.96209e-06
7.70049e-06
9.10387e-06
1.15054e-05
1.53521e-05
2.09487e-05
2.83688e-05
3.72964e-05
4.60093e-05
3.13172e-05
2.02506e-05
1.47942e-05
1.31182e-05
1.30973e-05
1.37955e-05
1.51892e-05
1.74869e-05
2.11308e-05
2.64465e-05
3.3576e-05
4.27461e-05
5.36646e-05
6.31526e-05
1.54833e-05
1.24794e-05
1.04469e-05
8.95838e-06
8.21879e-06
7.67404e-06
7.2615e-06
6.87995e-06
6.77684e-06
7.52076e-06
1.01575e-05
1.54928e-05
2.38492e-05
3.5722e-05
8.57692e-06
6.12177e-06
4.80609e-06
4.0452e-06
3.73499e-06
3.50027e-06
3.31721e-06
3.17367e-06
3.33696e-06
4.29346e-06
6.92465e-06
1.20917e-05
2.0277e-05
3.16666e-05
4.49038e-06
2.59043e-06
1.82009e-06
1.49012e-06
1.37147e-06
1.28852e-06
1.2425e-06
1.27335e-06
1.59308e-06
2.60798e-06
5.0333e-06
9.69122e-06
1.72058e-05
2.78779e-05
2.48586e-06
1.046e-06
5.80557e-07
4.40641e-07
3.96183e-07
3.75912e-07
3.91603e-07
4.97653e-07
8.59195e-07
1.81693e-06
3.96651e-06
8.07332e-06
1.48243e-05
2.45989e-05
1.66284e-06
5.22499e-07
1.92571e-07
1.11822e-07
9.18379e-08
9.28292e-08
1.27355e-07
2.51037e-07
6.09946e-07
1.50887e-06
3.46889e-06
7.18543e-06
1.33209e-05
2.22348e-05
1.36653e-06
3.87288e-07
1.06913e-07
3.56642e-08
2.11415e-08
2.78627e-08
6.71804e-08
1.95671e-07
5.5519e-07
1.43311e-06
3.30132e-06
6.76982e-06
1.24103e-05
2.05435e-05
1.31372e-06
3.79699e-07
9.98731e-08
2.55719e-08
1.12699e-08
2.02215e-08
6.44288e-08
2.0429e-07
5.84642e-07
1.48435e-06
3.33449e-06
6.66235e-06
1.19464e-05
1.94608e-05
1.47522e-06
4.45333e-07
1.21765e-07
3.6586e-08
2.08273e-08
3.27549e-08
8.62115e-08
2.47334e-07
6.66789e-07
1.61734e-06
3.4925e-06
6.74211e-06
1.17656e-05
1.87702e-05
1.82082e-06
5.83516e-07
1.9442e-07
8.7943e-08
6.55825e-08
8.17318e-08
1.50433e-07
3.44234e-07
8.1949e-07
1.84147e-06
3.76611e-06
6.98038e-06
1.18127e-05
1.84381e-05
2.39272e-06
8.80357e-07
4.13651e-07
2.62356e-07
2.2023e-07
2.39614e-07
3.32089e-07
5.72456e-07
1.11527e-06
2.21021e-06
4.17649e-06
7.35298e-06
1.19986e-05
1.82883e-05
3.42046e-06
1.59632e-06
1.00129e-06
7.63277e-07
6.70567e-07
6.83587e-07
8.1421e-07
1.13057e-06
1.77332e-06
2.9727e-06
5.02882e-06
8.23892e-06
1.28505e-05
1.90649e-05
5.49386e-06
3.14779e-06
2.34938e-06
1.99454e-06
1.81447e-06
1.80524e-06
1.99118e-06
2.43445e-06
3.25785e-06
4.67159e-06
6.96916e-06
1.04531e-05
1.53142e-05
2.17127e-05
9.23951e-06
6.06207e-06
4.97686e-06
4.55598e-06
4.31905e-06
4.31644e-06
4.61772e-06
5.30446e-06
6.50922e-06
8.45792e-06
1.14476e-05
1.56301e-05
2.10396e-05
2.74817e-05
1.5436e-05
1.10933e-05
9.41882e-06
9.02865e-06
8.98189e-06
9.21362e-06
9.82869e-06
1.09883e-05
1.28847e-05
1.5825e-05
1.99343e-05
2.52758e-05
3.16867e-05
3.82625e-05
6.32648e-06
4.75349e-06
3.98618e-06
3.60314e-06
3.59549e-06
3.67605e-06
3.75865e-06
3.78587e-06
3.81994e-06
4.06037e-06
5.03196e-06
7.39112e-06
1.17365e-05
1.86587e-05
3.33526e-06
2.08821e-06
1.60046e-06
1.41041e-06
1.41079e-06
1.45225e-06
1.50434e-06
1.54596e-06
1.64812e-06
2.00606e-06
3.05042e-06
5.36002e-06
9.54066e-06
1.61513e-05
1.79256e-06
8.37597e-07
5.36787e-07
4.49989e-07
4.43721e-07
4.55984e-07
4.84684e-07
5.3753e-07
6.79237e-07
1.07429e-06
2.0621e-06
4.1541e-06
8.00639e-06
1.43421e-05
1.12755e-06
3.7043e-07
1.63161e-07
1.16838e-07
1.09842e-07
1.13431e-07
1.31579e-07
1.82941e-07
3.25705e-07
6.98506e-07
1.58591e-06
3.4623e-06
7.00483e-06
1.30139e-05
8.53681e-07
2.29705e-07
6.5692e-08
2.92886e-08
2.25454e-08
2.47933e-08
3.93037e-08
8.61819e-08
2.21325e-07
5.7572e-07
1.41722e-06
3.20493e-06
6.59748e-06
1.2376e-05
7.34339e-07
1.94144e-07
4.85238e-08
1.27173e-08
5.66513e-09
7.85531e-09
2.17574e-08
6.84463e-08
2.06191e-07
5.69551e-07
1.4264e-06
3.22395e-06
6.56744e-06
1.21289e-05
7.13626e-07
1.968e-07
4.85432e-08
1.11707e-08
4.10055e-09
6.8584e-09
2.27037e-08
7.59081e-08
2.31966e-07
6.37194e-07
1.56613e-06
3.44577e-06
6.80679e-06
1.21933e-05
8.0239e-07
2.28707e-07
5.79451e-08
1.61111e-08
8.73591e-09
1.29024e-08
3.3498e-08
1.00084e-07
2.88521e-07
7.5922e-07
1.78972e-06
3.77309e-06
7.15888e-06
1.23784e-05
9.77092e-07
2.91843e-07
9.04697e-08
3.96831e-08
3.0069e-08
3.66586e-08
6.57025e-08
1.53883e-07
3.88819e-07
9.42134e-07
2.08498e-06
4.16832e-06
7.57837e-06
1.26586e-05
1.24562e-06
4.38308e-07
2.00555e-07
1.26478e-07
1.07421e-07
1.16729e-07
1.60446e-07
2.80689e-07
5.72819e-07
1.21073e-06
2.45276e-06
4.61174e-06
8.01763e-06
1.29432e-05
1.75288e-06
8.38899e-07
5.29751e-07
4.0078e-07
3.49823e-07
3.54285e-07
4.20632e-07
5.89374e-07
9.52015e-07
1.67686e-06
3.01281e-06
5.24648e-06
8.6437e-06
1.34463e-05
2.88197e-06
1.79475e-06
1.36082e-06
1.13749e-06
1.01447e-06
9.91533e-07
1.08377e-06
1.3257e-06
1.79133e-06
2.62916e-06
4.07424e-06
6.39816e-06
9.86322e-06
1.46984e-05
5.04439e-06
3.70217e-06
3.11135e-06
2.79199e-06
2.57678e-06
2.51125e-06
2.63778e-06
2.9946e-06
3.645e-06
4.72087e-06
6.41719e-06
8.9855e-06
1.26476e-05
1.75823e-05
8.72063e-06
6.9899e-06
6.18442e-06
5.88328e-06
5.70601e-06
5.68346e-06
5.90971e-06
6.4663e-06
7.43702e-06
8.99238e-06
1.12961e-05
1.44587e-05
1.85072e-05
2.34625e-05
2.75303e-06
1.87243e-06
1.49805e-06
1.36035e-06
1.40769e-06
1.53111e-06
1.68054e-06
1.80571e-06
1.9086e-06
2.05891e-06
2.5224e-06
3.7215e-06
6.14307e-06
1.02817e-05
1.422e-06
7.52209e-07
5.30456e-07
4.67274e-07
4.82466e-07
5.26469e-07
5.85624e-07
6.43823e-07
7.16918e-07
8.84935e-07
1.36445e-06
2.49514e-06
4.70843e-06
8.47765e-06
8.01136e-07
2.95692e-07
1.59342e-07
1.30382e-07
1.32182e-07
1.43602e-07
1.63417e-07
1.93612e-07
2.57266e-07
4.24708e-07
8.57702e-07
1.83352e-06
3.77684e-06
7.27441e-06
5.46274e-07
1.46325e-07
4.85416e-08
3.0268e-08
2.85226e-08
3.1206e-08
3.90155e-08
5.87852e-08
1.13288e-07
2.61168e-07
6.33828e-07
1.48217e-06
3.23756e-06
6.56068e-06
4.32589e-07
1.05121e-07
2.5046e-08
8.24991e-09
5.40101e-09
6.2356e-09
1.10883e-08
2.70668e-08
7.57204e-08
2.12255e-07