/*--------------------------------*- C++ -*----------------------------------*\
| =========                 |                                                 |
| \\      /  F ield         | OpenFOAM: The Open Source CFD Toolbox           |
|  \\    /   O peration     | Version:  v2106                                 |
|   \\  /    A nd           | Website:  www.openfoam.com                      |
|    \\/     M anipulation  |                                                 |
\*---------------------------------------------------------------------------*/
FoamFile
{
    version     2.0;
    format      ascii;
    arch        "LSB;label=32;scalar=64";
    class       volScalarField;
    location    "0.000184";
    object      alphat;
}
// * * * * * * * * * * * * * * * * * * * * * * * * * * * * * * * * * * * * * //

dimensions      [1 -1 -1 0 0 0 0];

internalField   nonuniform List<scalar> 
18109
(
3.56281e-07
2.15334e-07
1.36931e-07
9.49187e-08
7.57352e-08
6.99645e-08
7.53766e-08
1.36924e-07
6.32189e-08
3.59295e-08
2.44853e-08
1.99712e-08
1.89758e-08
2.1308e-08
5.99268e-08
1.87838e-08
8.26641e-09
5.28247e-09
4.38529e-09
4.35353e-09
5.45077e-09
3.56887e-08
8.3291e-09
2.26434e-09
1.05038e-09
8.26725e-10
9.07694e-10
1.50851e-09
3.00587e-08
6.71746e-09
1.34629e-09
3.10672e-10
1.5801e-10
2.20327e-10
6.04731e-10
3.10998e-08
6.99582e-09
1.31645e-09
2.14636e-10
5.36144e-11
9.83987e-11
3.90082e-10
3.66958e-08
8.03377e-09
1.43218e-09
2.15894e-10
5.07158e-11
9.39519e-11
3.68203e-10
4.6776e-08
9.72829e-09
1.65995e-09
2.98825e-10
1.41031e-10
2.04412e-10
5.33326e-10
2.71838e-07
1.65127e-07
1.02829e-07
6.73568e-08
4.93736e-08
4.11167e-08
3.99887e-08
4.69802e-08
7.23524e-08
1.39579e-07
3.0013e-07
6.45841e-07
1.31883e-06
2.53158e-06
9.74037e-08
4.45517e-08
2.45006e-08
1.5477e-08
1.1441e-08
9.76163e-09
1.00287e-08
1.34066e-08
2.59393e-08
6.38036e-08
1.65564e-07
4.06995e-07
9.14219e-07
1.86426e-06
4.06287e-08
1.23035e-08
5.07195e-09
2.90301e-09
2.14346e-09
1.91515e-09
2.30171e-09
4.28118e-09
1.16834e-08
3.54561e-08
1.02685e-07
2.69534e-07
6.33427e-07
1.33592e-06
2.509e-08
5.74623e-09
1.40875e-09
5.23425e-10
3.40906e-10
3.46209e-10
6.28333e-10
1.86612e-09
6.48946e-09
2.16385e-08
6.55077e-08
1.77794e-07
4.32213e-07
9.48961e-07
2.30196e-08
5.15436e-09
9.97075e-10
1.9019e-10
6.32828e-11
8.31889e-11
2.72955e-10
1.08976e-09
4.15867e-09
1.43352e-08
4.42636e-08
1.22764e-07
3.07837e-07
7.06654e-07
2.53298e-08
5.63558e-09
1.04114e-09
1.60992e-10
2.88082e-11
4.17026e-11
1.80652e-10
7.76064e-10
3.01351e-09
1.04749e-08
3.26966e-08
9.23455e-08
2.38279e-07
5.68466e-07
3.11746e-08
6.67863e-09
1.16244e-09
1.7037e-10
3.40823e-11
4.5441e-11
1.66773e-10
6.77886e-10
2.58313e-09
8.93353e-09
2.79818e-08
7.98325e-08
2.09261e-07
5.08857e-07
4.09523e-08
8.2884e-09
1.3708e-09
2.41179e-10
1.10625e-10
1.34593e-10
2.74327e-10
8.2904e-10
2.84145e-09
9.44675e-09
2.90676e-08
8.20264e-08
2.13181e-07
5.14165e-07
5.49335e-08
1.07427e-08
1.95123e-09
6.41769e-10
5.55833e-10
6.55856e-10
9.12967e-10
1.74531e-09
4.52931e-09
1.32329e-08
3.80588e-08
1.02495e-07
2.56403e-07
5.97289e-07
7.6359e-08
1.61669e-08
4.27185e-09
2.49314e-09
2.57924e-09
3.04279e-09
3.84378e-09
5.67372e-09
1.06876e-08
2.47813e-08
6.206e-08
1.52958e-07
3.57307e-07
7.86238e-07
1.18855e-07
3.30093e-08
1.33775e-08
9.65767e-09
1.01508e-08
1.20217e-08
1.50137e-08
2.03988e-08
3.18079e-08
5.8839e-08
1.22991e-07
2.67683e-07
5.70564e-07
1.1666e-06
2.218e-07
8.53413e-08
4.38448e-08
3.30599e-08
3.40027e-08
4.03341e-08
5.07466e-08
6.75815e-08
9.69383e-08
1.54443e-07
2.73354e-07
5.18047e-07
9.94294e-07
1.87472e-06
4.57926e-07
2.22379e-07
1.28223e-07
9.77745e-08
9.81315e-08
1.16218e-07
1.47833e-07
1.96914e-07
2.73298e-07
4.0128e-07
6.28981e-07
1.04691e-06
1.79676e-06
3.09513e-06
9.46983e-07
5.27295e-07
3.24708e-07
2.51339e-07
2.47731e-07
2.91229e-07
3.72824e-07
4.98488e-07
6.82367e-07
9.56985e-07
1.37704e-06
2.04192e-06
3.11429e-06
4.86527e-06
9.43477e-07
2.02628e-06
4.03663e-06
7.27668e-06
1.20927e-05
1.96507e-05
7.6291e-07
1.69738e-06
3.47812e-06
6.38121e-06
1.07229e-05
1.74335e-05
5.25333e-07
1.32686e-06
2.94141e-06
5.68536e-06
9.96428e-06
1.71151e-05
3.50076e-07
9.79822e-07
2.33793e-06
4.81204e-06
9.01769e-06
1.66742e-05
2.35823e-07
7.11588e-07
1.81324e-06
4.0021e-06
8.09761e-06
1.61941e-05
1.72456e-07
5.41644e-07
1.44621e-06
3.39896e-06
7.4052e-06
1.59766e-05
1.41543e-07
4.49022e-07
1.23262e-06
3.04652e-06
7.06094e-06
1.59147e-05
1.34568e-07
4.23296e-07
1.17678e-06
2.99815e-06
7.19573e-06
1.6541e-05
1.51595e-07
4.66022e-07
1.28163e-06
3.25093e-06
7.74945e-06
1.74371e-05
2.12662e-07
6.25198e-07
1.6463e-06
3.98848e-06
9.01124e-06
1.90081e-05
3.54152e-07
9.69484e-07
2.36701e-06
5.27424e-06
1.08657e-05
2.0855e-05
6.43948e-07
1.59869e-06
3.53751e-06
7.10301e-06
1.31411e-05
2.28321e-05
1.18051e-06
2.60742e-06
5.15951e-06
9.29889e-06
1.56146e-05
2.51242e-05
2.06751e-06
4.01817e-06
7.11384e-06
1.17106e-05
1.84595e-05
2.85584e-05
3.37061e-06
5.75391e-06
9.26665e-06
1.43712e-05
2.1983e-05
3.33795e-05
4.71556e-06
7.18781e-06
1.07725e-05
1.61539e-05
2.44815e-05
3.71781e-05
3.48667e-06
5.77048e-06
9.33806e-06
1.50562e-05
2.43756e-05
3.9065e-05
2.57619e-06
4.66019e-06
8.18746e-06
1.41877e-05
2.43233e-05
4.05564e-05
1.92626e-06
3.81202e-06
7.24845e-06
1.3363e-05
2.38977e-05
4.08053e-05
1.51604e-06
3.2295e-06
6.5297e-06
1.25881e-05
2.31721e-05
4.01999e-05
1.27124e-06
2.84787e-06
5.99542e-06
1.18924e-05
2.22771e-05
3.90508e-05
1.15822e-06
2.65159e-06
5.67843e-06
1.13941e-05
2.14611e-05
3.79818e-05
1.15885e-06
2.62985e-06
5.59133e-06
1.11527e-05
2.0905e-05
3.73833e-05
1.30238e-06
2.85587e-06
5.901e-06
1.15176e-05
2.1318e-05
3.8011e-05
1.63251e-06
3.39614e-06
6.70363e-06
1.25905e-05
2.26763e-05
3.97879e-05
2.27247e-06
4.41165e-06
8.17727e-06
1.45237e-05
2.50195e-05
4.27333e-05
3.39185e-06
6.04523e-06
1.03507e-05
1.71648e-05
2.81081e-05
4.65396e-05
5.13378e-06
8.30719e-06
1.30827e-05
2.03364e-05
3.19352e-05
5.13087e-05
7.46231e-06
1.09998e-05
1.60701e-05
2.36826e-05
3.58747e-05
5.59155e-05
5.87165e-06
9.22727e-06
1.44809e-05
2.24594e-05
3.52499e-05
5.54879e-05
4.6823e-06
7.92271e-06
1.26593e-05
1.97721e-05
3.16906e-05
5.1856e-05
3.69152e-06
6.54094e-06
1.06466e-05
1.7015e-05
2.81633e-05
4.83594e-05
2.82313e-06
5.17484e-06
8.67467e-06
1.44119e-05
2.49162e-05
4.46604e-05
2.1053e-06
3.97983e-06
6.94307e-06
1.21123e-05
2.19476e-05
4.09359e-05
1.54757e-06
3.01044e-06
5.49407e-06
1.01158e-05
1.92131e-05
3.70012e-05
1.13746e-06
2.27679e-06
4.35928e-06
8.46206e-06
1.67539e-05
3.3017e-05
8.4648e-07
1.7459e-06
3.51471e-06
7.16082e-06
1.46306e-05
2.93692e-05
6.57147e-07
1.40029e-06
2.95566e-06
6.26898e-06
1.31087e-05
2.68928e-05
5.60646e-07
1.23249e-06
2.6962e-06
5.84459e-06
1.23251e-05
2.55556e-05
5.7034e-07
1.26241e-06
2.771e-06
5.95486e-06
1.23396e-05
2.53625e-05
7.22864e-07
1.53809e-06
3.22224e-06
6.64797e-06
1.3119e-05
2.62431e-05
1.11728e-06
2.22144e-06
4.32816e-06
8.27504e-06
1.53841e-05
2.84212e-05
1.86867e-06
3.44472e-06
6.21727e-06
1.08403e-05
1.80633e-05
2.99388e-05
1.32994e-07
4.16938e-07
1.19583e-06
3.13808e-06
7.6884e-06
1.797e-05
1.71788e-07
4.91866e-07
1.35505e-06
3.5193e-06
8.46626e-06
1.85976e-05
2.59268e-07
6.32383e-07
1.64146e-06
4.24019e-06
9.59166e-06
1.92759e-05
4.67985e-07
9.92448e-07
2.31846e-06
5.48429e-06
1.10258e-05
1.99316e-05
1.47412e-06
2.87743e-06
5.99532e-06
1.11112e-05
1.81498e-05
2.94377e-05
9.73254e-07
2.38438e-06
5.41199e-06
1.01025e-05
1.65445e-05
2.7802e-05
6.577e-07
1.93237e-06
4.56221e-06
8.55128e-06
1.43785e-05
2.56388e-05
4.72032e-07
1.50528e-06
3.6153e-06
6.88951e-06
1.21783e-05
2.32939e-05
3.49122e-07
1.1278e-06
2.7365e-06
5.37249e-06
1.01536e-05
2.09709e-05
2.56403e-07
8.19871e-07
2.00059e-06
4.09961e-06
8.40681e-06
1.87164e-05
1.83706e-07
5.81945e-07
1.44017e-06
3.14766e-06
7.06354e-06
1.66909e-05
1.31866e-07
4.13959e-07
1.0617e-06
2.53217e-06
6.15127e-06
1.50233e-05
1.01553e-07
3.17535e-07
8.62451e-07
2.23211e-06
5.65942e-06
1.38483e-05
8.9713e-08
2.83727e-07
8.10821e-07
2.17923e-06
5.49735e-06
1.31482e-05
9.47283e-08
2.99182e-07
8.6535e-07
2.30156e-06
5.62935e-06
1.32552e-05
1.21976e-07
3.58407e-07
1.0048e-06
2.60217e-06
6.31196e-06
1.42303e-05
1.89387e-07
4.78194e-07
1.26656e-06
3.2945e-06
7.59196e-06
1.56757e-05
3.5813e-07
7.87477e-07
1.89489e-06
4.60882e-06
9.39828e-06
1.70583e-05
2.95185e-05
8.57912e-05
0.000234813
0.000216742
0.000182708
3.10902e-05
9.49846e-05
0.00022453
0.000211142
0.000181218
3.33752e-05
0.000101157
0.000214109
0.000206963
0.000185566
3.52214e-05
0.000103148
0.000205206
0.000207123
0.000190426
3.6492e-05
0.000101785
0.00019659
0.000208899
0.000194553
3.66522e-05
9.66501e-05
0.00018489
0.000210603
0.000198235
3.59819e-05
9.08302e-05
0.000175514
0.00021267
0.000203435
3.5423e-05
8.46742e-05
0.000169063
0.000213737
0.000205124
0.000230503
3.59853e-05
8.16802e-05
0.000166603
0.000212413
0.000204675
0.000237274
3.66618e-05
8.1838e-05
0.00016923
0.000204869
0.000200382
0.000241858
3.74823e-05
8.48414e-05
0.0001738
0.000194222
0.000193865
0.000243725
0.000296542
3.93591e-05
9.07209e-05
0.000178408
0.000184364
0.000188072
0.000240479
0.000349022
0.000372064
4.34509e-05
9.98144e-05
0.000186031
0.000178948
0.000186591
0.000234998
0.000371648
0.000825486
4.94032e-05
0.000110663
0.00019624
0.000181023
0.000187567
0.000225997
0.000277748
0.000757109
5.528e-05
0.000118876
0.0002037
0.000187102
0.000189101
0.000217607
0.000246919
0.000613326
5.99878e-05
0.000122661
0.000204574
0.000192879
0.000193015
0.000222302
0.00024204
0.000549895
6.32574e-05
0.000125354
0.000202176
0.000200322
0.000201386
0.000234158
0.000258927
0.000333587
6.398e-05
0.000124529
0.000200622
0.000210217
0.000209093
0.00023959
0.000250566
0.000473487
6.39051e-05
0.000121706
0.000202467
0.000217902
0.000212798
0.000237979
0.000231748
0.000439072
6.25296e-05
0.000118769
0.000209127
0.000223234
0.000214447
0.000241858
0.000223152
0.000340582
6.09305e-05
0.000117958
0.000223083
0.000224585
0.000217169
0.000255883
0.000245061
0.000157004
6.0957e-05
0.000121161
0.000242331
0.00022089
0.000214915
0.000261482
0.000262838
0.000188113
6.32468e-05
0.000131544
0.000255272
0.000211548
0.000208872
0.000255464
6.70616e-05
0.000146517
0.00024992
0.000197304
0.000200254
0.00025181
7.15437e-05
0.000157894
0.000234321
0.000183358
0.000191552
0.000254537
7.61633e-05
0.000165224
0.000223116
0.000175981
0.000185825
0.000250954
8.13117e-05
0.000171633
0.000216993
0.000173021
0.0001847
0.000243561
8.52316e-05
0.000179257
0.000216562
0.000179243
0.000184827
8.51896e-05
0.000185888
0.000215794
0.000191084
0.000187709
8.49009e-05
0.000182271
0.000210265
0.000199644
0.000192322
8.58998e-05
0.00016826
0.000202315
0.000208167
0.000200726
8.41811e-05
0.000150474
0.000195447
0.000218856
0.000207368
8.03917e-05
0.000134952
0.00019264
0.000230889
0.000211082
7.42314e-05
0.000121768
0.000196022
0.000241799
0.000209845
6.73788e-05
0.000111547
0.000209322
0.000248468
0.000206577
6.10503e-05
0.000104846
0.000236182
0.000252212
0.000200869
5.56876e-05
0.000101778
0.000272082
0.000249776
0.000190546
5.11749e-05
0.000103212
0.000300448
0.000239895
0.000179405
4.80141e-05
0.000111423
0.000306284
0.000228458
0.000173862
4.69379e-05
0.000126236
0.000295546
0.000223967
0.000175765
4.88111e-05
0.000143137
0.000276954
0.000222712
0.000181251
5.18826e-05
0.000156446
0.000264563
0.000225251
0.000186199
5.4443e-05
0.000162574
0.000254273
0.000225432
0.000186747
5.69288e-05
0.000159965
0.000237006
0.000219547
0.000187431
5.85711e-05
0.000149483
0.000217558
0.000215537
0.000193259
5.80256e-05
0.000134201
0.000199526
0.000215618
0.000197962
5.57284e-05
0.000119462
0.000184077
0.000218673
0.000200692
5.17856e-05
0.000105958
0.000169878
0.000223063
0.000200861
4.71328e-05
9.4015e-05
0.000158551
0.000227856
0.000200216
4.22816e-05
8.35725e-05
0.000152841
0.000234557
0.000197675
3.76946e-05
7.44594e-05
0.00015534
0.000240602
0.000192389
3.35651e-05
6.67531e-05
0.00016598
0.000239096
0.000184568
3.04189e-05
6.22378e-05
0.000181968
0.000228966
0.000177804
2.81958e-05
6.24744e-05
0.000201951
0.000219536
0.000175652
2.76036e-05
6.7512e-05
0.000223106
0.000214871
0.000178107
2.84764e-05
7.54992e-05
0.000236868
0.000216457
0.000182079
2.34194e-07
1.46736e-07
9.20983e-08
5.85952e-08
4.00191e-08
3.00398e-08
2.61498e-08
2.81429e-08
4.23184e-08
8.5093e-08
1.94972e-07
4.47978e-07
9.71099e-07
1.96474e-06
7.88117e-08
3.78698e-08
2.11726e-08
1.28388e-08
8.69644e-09
6.57969e-09
6.03541e-09
7.59822e-09
1.5215e-08
4.02555e-08
1.11433e-07
2.89426e-07
6.82058e-07
1.45166e-06
3.10044e-08
9.79464e-09
4.15103e-09
2.2622e-09
1.50235e-09
1.17127e-09
1.28664e-09
2.45475e-09
7.25148e-09
2.3385e-08
7.08745e-08
1.93848e-07
4.74231e-07
1.03915e-06
1.93914e-08
4.49102e-09
1.10192e-09
3.83708e-10
2.17223e-10
1.92691e-10
3.53016e-10
1.14045e-09
4.20152e-09
1.45587e-08
4.55918e-08
1.28164e-07
3.23282e-07
7.34759e-07
1.88566e-08
4.20462e-09
8.03822e-10
1.46158e-10
3.97364e-11
4.56984e-11
1.60872e-10
6.79455e-10
2.69721e-09
9.62809e-09
3.07629e-08
8.82922e-08
2.28974e-07
5.41544e-07
2.16986e-08
4.75196e-09
8.63189e-10
1.30672e-10
2.06116e-11
2.36337e-11
1.04806e-10
4.68196e-10
1.89298e-09
6.84803e-09
2.22033e-08
6.49694e-08
1.73159e-07
4.24906e-07
2.76066e-08
5.7835e-09
9.84604e-10
1.41379e-10
2.6488e-11
2.84502e-11
9.54673e-11
3.91271e-10
1.54645e-09
5.57493e-09
1.81762e-08
5.38157e-08
1.45864e-07
3.6538e-07
3.72564e-08
7.35601e-09
1.18313e-09
2.02593e-10
9.19283e-11
1.04663e-10
1.80806e-10
4.87187e-10
1.64735e-09
5.63464e-09
1.80149e-08
5.28341e-08
1.42423e-07
3.5497e-07
5.12208e-08
9.72435e-09
1.68803e-09
5.37219e-10
4.72291e-10
5.56222e-10
7.21915e-10
1.20161e-09
2.81184e-09
8.0284e-09
2.3537e-08
6.54569e-08
1.69556e-07
4.08213e-07
7.23835e-08
1.46027e-08
3.60311e-09
2.07071e-09
2.19573e-09
2.62846e-09
3.25682e-09
4.48956e-09
7.63182e-09
1.64773e-08
4.0546e-08
1.01258e-07
2.42216e-07
5.47247e-07
1.119e-07
2.88877e-08
1.10313e-08
7.98001e-09
8.61307e-09
1.04078e-08
1.2976e-08
1.71605e-08
2.52887e-08
4.38538e-08
8.81163e-08
1.90302e-07
4.09415e-07
8.5135e-07
2.03294e-07
7.27926e-08
3.58841e-08
2.72144e-08
2.8726e-08
3.48512e-08
4.41095e-08
5.82207e-08
8.1399e-08
1.24767e-07
2.13032e-07
3.96785e-07
7.61005e-07
1.4511e-06
4.09885e-07
1.88286e-07
1.04899e-07
8.02929e-08
8.25575e-08
1.0013e-07
1.28754e-07
1.71569e-07
2.35981e-07
3.40188e-07
5.21473e-07
8.54581e-07
1.46177e-06
2.54715e-06
8.44392e-07
4.4922e-07
2.66828e-07
2.06374e-07
2.07864e-07
2.50372e-07
3.25303e-07
4.37855e-07
5.99793e-07
8.36952e-07
1.19306e-06
1.75058e-06
2.65528e-06
4.17921e-06
1.38168e-07
9.66707e-08
6.51468e-08
4.23298e-08
2.80532e-08
1.93121e-08
1.46465e-08
1.27197e-08
1.5057e-08
2.7669e-08
6.87903e-08
1.81266e-07
4.51646e-07
1.03093e-06
3.81507e-08
2.19721e-08
1.38597e-08
8.6831e-09
5.65658e-09
3.86001e-09
3.00145e-09
2.88286e-09
4.65774e-09
1.26808e-08
4.04219e-08
1.21835e-07
3.2835e-07
7.83481e-07
1.262e-08
4.68025e-09
2.36545e-09
1.3801e-09
8.80616e-10
6.04486e-10
5.18894e-10
7.35554e-10
2.11649e-09
7.82525e-09
2.76145e-08
8.65929e-08
2.38754e-07
5.79828e-07
9.37303e-09
2.19147e-09
5.50643e-10
2.00525e-10
1.08102e-10
7.77887e-11
1.02202e-10
3.10605e-10
1.31516e-09
5.33347e-09
1.92017e-08
6.08428e-08
1.70248e-07
4.23806e-07
1.13324e-08
2.41441e-09
4.36475e-10
7.40147e-11
1.66676e-11
1.22574e-11
3.92582e-11
1.93147e-10
9.07692e-10
3.76182e-09
1.3663e-08
4.3725e-08
1.24422e-07
3.19021e-07
1.4649e-08
2.98398e-09
5.02473e-10
7.02487e-11
9.0747e-12
5.44922e-12
2.60513e-11
1.38941e-10
6.58044e-10
2.7285e-09
9.95705e-09
3.22813e-08
9.40386e-08
2.49383e-07
2.01125e-08
3.87587e-09
6.03534e-10
7.84311e-11
1.23729e-11
8.83809e-12
2.51164e-11
1.1207e-10
5.08536e-10
2.09053e-09
7.67525e-09
2.53083e-08
7.56401e-08
2.06711e-07
2.85204e-08
5.15845e-09
7.43656e-10
1.10268e-10
4.54656e-11
4.76006e-11
6.63909e-11
1.46236e-10
4.95108e-10
1.87589e-09
6.77895e-09
2.24433e-08
6.78058e-08
1.87471e-07
4.04404e-08
6.94456e-09
1.02473e-09
2.78965e-10
2.47022e-10
2.90208e-10
3.51751e-10
4.86239e-10
9.36639e-10
2.57394e-09
8.17222e-09
2.55519e-08
7.45115e-08
2.00543e-07
5.78271e-08
1.00091e-08
1.96715e-09
1.07188e-09
1.20527e-09
1.47149e-09
1.7976e-09
2.28572e-09
3.30858e-09
6.14174e-09
1.46425e-08
3.89705e-08
1.02855e-07
2.58288e-07
8.60554e-08
1.76779e-08
5.58324e-09
4.21583e-09
4.93693e-09
6.16237e-09
7.72351e-09
9.87719e-09
1.33478e-08
2.03556e-08
3.72527e-08
8.0029e-08
1.81896e-07
4.10894e-07
1.44581e-07
4.1121e-08
1.80398e-08
1.47247e-08
1.70765e-08
2.16507e-08
2.78146e-08
3.62162e-08
4.83895e-08
6.84212e-08
1.07233e-07
1.92135e-07
3.74311e-07
7.53849e-07
2.73274e-07
1.0619e-07
5.43507e-08
4.46912e-08
5.06295e-08
6.47496e-08
8.49867e-08
1.12758e-07
1.51394e-07
2.0848e-07
3.01916e-07
4.7568e-07
8.1015e-07
1.46543e-06
5.63657e-07
2.67198e-07
1.45675e-07
1.19117e-07
1.3139e-07
1.67756e-07
2.23291e-07
3.00979e-07
4.07701e-07
5.55967e-07
7.67836e-07
1.09262e-06
1.62831e-06
2.60868e-06
5.161e-08
3.547e-08
2.46857e-08
1.6332e-08
1.0909e-08
7.29527e-09
5.3527e-09
4.36729e-09
4.57101e-09
7.56907e-09
1.92032e-08
5.59115e-08
1.57984e-07
4.11052e-07
1.22618e-08
6.8271e-09
4.51301e-09
2.88552e-09
1.89801e-09
1.24747e-09
9.19068e-10
7.87724e-10
1.08222e-09
2.91434e-09
1.0415e-08
3.61384e-08
1.12242e-07
3.06979e-07
4.47242e-09
1.40724e-09
6.64989e-10
3.82193e-10
2.43311e-10
1.58313e-10
1.23516e-10
1.49282e-10
4.27536e-10
1.80646e-09
7.39266e-09
2.66836e-08
8.39504e-08
2.30414e-07
4.81142e-09
1.00714e-09
2.01034e-10
5.39975e-11
2.43544e-11
1.52109e-11
1.72724e-11
5.45164e-11
2.72684e-10
1.30326e-09
5.43865e-09
1.96668e-08
6.18554e-08
1.70363e-07
6.66688e-09
1.31484e-09
2.17688e-10
3.13558e-11
4.76265e-12
1.85229e-12
5.9379e-12
3.56631e-11
2.00335e-10
9.72251e-10
4.06218e-09
1.46906e-08
4.63941e-08
1.29795e-07
9.21983e-09
1.7264e-09
2.69116e-10
3.41823e-11
3.81714e-12
1.02462e-12
4.2452e-12
2.68131e-11
1.50518e-10
7.27284e-10
3.03337e-09
1.10191e-08
3.53582e-08
1.02245e-07
1.33399e-08
2.35667e-09
3.38578e-10
3.959e-11
5.54486e-12
3.05076e-12
5.73362e-12
2.31461e-11
1.1725e-10
5.54069e-10
2.31088e-09
8.5257e-09
2.82612e-08
8.57032e-08
1.96179e-08
3.25134e-09
4.27038e-10
5.45041e-11
2.0788e-11
2.19352e-11
2.68522e-11
4.26919e-11
1.19001e-10
4.70299e-10
1.91052e-09
7.19277e-09
2.47774e-08
7.84891e-08
2.85711e-08
4.47145e-09
5.74264e-10
1.29551e-10
1.18198e-10
1.45559e-10
1.74662e-10
2.13977e-10
3.16753e-10
7.15514e-10
2.29835e-09
8.09307e-09
2.7395e-08
8.62039e-08
4.15359e-08
6.40157e-09
1.0118e-09
4.9786e-10
6.06907e-10
7.81588e-10
9.67523e-10
1.18533e-09
1.52123e-09
2.33065e-09
4.92464e-09
1.35756e-08
4.03066e-08
1.1676e-07
6.13422e-08
1.08236e-08
2.7327e-09
2.0471e-09
2.60655e-09
3.43028e-09
4.37851e-09
5.51608e-09
7.03734e-09
9.6654e-09
1.57987e-08
3.29638e-08
7.94851e-08
1.99535e-07
1.01186e-07
2.45994e-08
9.14724e-09
7.57215e-09
9.40904e-09
1.25195e-08
1.64032e-08
2.12353e-08
2.74832e-08
3.67597e-08
5.35837e-08
9.21164e-08
1.82664e-07
3.93215e-07
1.88045e-07
6.51848e-08
2.96498e-08
2.45969e-08
2.92286e-08
3.88195e-08
5.18175e-08
6.86352e-08
9.04242e-08
1.20913e-07
1.68113e-07
2.55778e-07
4.33387e-07
8.16137e-07
3.85774e-07
1.74047e-07
8.67642e-08
7.09043e-08
8.02133e-08
1.04818e-07
1.40928e-07
1.89762e-07
2.54337e-07
3.43186e-07
4.6756e-07
6.54775e-07
9.61061e-07
1.54741e-06
1.11868e-08
7.03688e-09
4.97088e-09
3.46566e-09
2.44747e-09
1.74994e-09
1.32372e-09
1.05026e-09
9.35495e-10
1.20212e-09
2.85666e-09
9.33608e-09
3.11204e-08
9.58937e-08
2.74678e-09
1.15873e-09
7.25321e-10
4.8604e-10
3.35403e-10
2.37165e-10
1.79906e-10
1.45674e-10
1.56488e-10
3.65499e-10
1.47066e-09
6.07557e-09
2.24008e-08
7.22716e-08
1.77848e-09
3.87638e-10
1.07723e-10
5.10239e-11
3.18449e-11
2.20347e-11
1.71744e-11
1.7854e-11
4.64514e-11
2.26766e-10
1.1155e-09
4.79323e-09
1.77624e-08
5.70326e-08
2.59951e-09
5.05905e-10
7.90235e-11
1.2689e-11
2.98776e-12
1.45981e-12
1.48685e-12
4.97504e-12
3.04885e-11
1.7793e-10
8.91436e-10
3.81769e-09
1.40596e-08
4.48789e-08
3.81095e-09
7.13112e-10
1.05366e-10
1.37761e-11
1.55604e-12
2.24441e-13
4.5768e-13
3.50143e-12
2.44788e-11
1.44464e-10
7.21833e-10
3.0775e-09
1.12893e-08
3.60135e-08
5.43751e-09
9.63514e-10
1.32654e-10
1.56677e-11
1.59699e-12
2.53531e-13
4.4655e-13
2.93064e-12
1.98862e-11
1.16195e-10
5.76838e-10
2.44905e-09
8.99086e-09
2.90191e-08
7.99694e-09
1.33838e-09
1.68276e-10
1.79961e-11
2.41661e-12
1.3361e-12
1.64511e-12
3.72768e-12
1.72647e-11
9.3344e-11
4.55989e-10
1.94098e-09
7.27019e-09
2.44932e-08
1.17416e-08
1.85376e-09
2.12577e-10
2.46268e-11
1.00076e-11
1.13435e-11
1.35075e-11
1.6696e-11
2.87168e-11
9.08262e-11
3.86764e-10
1.63631e-09
6.36959e-09
2.27949e-08
1.70365e-08
2.53844e-09
2.83859e-10
5.97471e-11
5.97288e-11
7.81209e-11
9.58732e-11
1.13567e-10
1.3937e-10
2.18085e-10
5.49677e-10
1.94506e-09
7.32978e-09
2.64292e-08
2.51202e-08
3.6158e-09
4.91587e-10
2.3538e-10
3.09278e-10
4.19545e-10
5.31075e-10
6.45701e-10
7.75877e-10
9.97735e-10
1.61931e-09
3.88012e-09
1.19166e-08
3.87221e-08
3.75158e-08
5.99977e-09
1.31655e-09
9.92595e-10
1.33688e-09
1.83722e-09
2.38776e-09
2.98674e-09
3.65814e-09
4.58719e-09
6.38104e-09
1.14144e-08
2.66086e-08
7.16381e-08
5.97059e-08
1.33374e-08
4.53019e-09
3.83711e-09
4.92875e-09
6.74928e-09
8.9508e-09
1.14806e-08
1.4381e-08
1.81486e-08
2.40014e-08
3.66905e-08
6.84158e-08
1.51759e-07
1.02395e-07
3.53552e-08
1.56043e-08
1.33772e-08
1.60389e-08
2.14313e-08
2.86326e-08
3.73936e-08
4.78128e-08
6.12419e-08
7.99135e-08
1.12502e-07
1.79265e-07
3.3823e-07
2.04351e-07
9.79171e-08
4.97568e-08
4.23489e-08
4.74257e-08
6.07538e-08
8.03465e-08
1.0566e-07
1.37207e-07
1.7852e-07
2.33269e-07
3.13918e-07
4.43145e-07
7.06156e-07
1.45356e-09
7.13192e-10
4.75322e-10
3.37504e-10
2.45395e-10
1.86264e-10
1.54576e-10
1.31327e-10
1.12882e-10
1.13732e-10
2.27113e-10
8.20885e-10
3.26307e-09
1.20217e-08
5.7739e-10
1.37139e-10
5.4066e-11
3.29678e-11
2.31487e-11
1.75265e-11
1.47882e-11
1.28472e-11
1.2732e-11
2.55477e-11
1.13958e-10
5.61494e-10
2.45984e-09
9.36226e-09
7.008e-10
1.37394e-10
2.25485e-11
4.26333e-12
1.578e-12
1.01625e-12
8.70418e-13
9.57214e-13
2.6815e-12
1.57149e-11
9.32737e-11
4.78428e-10
2.0992e-09
7.92976e-09
1.12561e-09
2.19165e-10
3.39516e-11
4.44008e-12
5.5961e-13
8.11885e-14
4.94275e-14
2.30266e-13
1.84043e-12
1.32145e-11
7.99796e-11
4.09537e-10
1.78864e-09
6.71725e-09
1.68363e-09
3.12226e-10
4.68243e-11
5.80114e-12
6.55401e-13
6.25643e-14
2.37279e-14
1.83964e-13
1.59776e-12
1.15795e-11
7.0124e-11
3.58353e-10
1.55945e-09
5.82835e-09
2.45778e-09
4.27741e-10
5.97813e-11
6.70986e-12
7.09393e-13
9.56145e-14
6.18073e-14
1.99419e-13
1.41041e-12
9.9736e-12
6.01711e-11
3.06754e-10
1.33101e-09
4.96246e-09
3.61113e-09
5.91455e-10
7.58877e-11
7.75001e-12
1.03946e-12
5.22573e-13
5.53865e-13
6.99121e-13
1.72364e-12
8.89981e-12
5.08666e-11
2.56834e-10
1.11535e-09
4.20572e-09
5.19912e-09
8.1182e-10
9.50463e-11
1.01927e-11
3.6774e-12
4.03807e-12
4.69653e-12
5.24103e-12
6.35512e-12
1.24755e-11
4.72308e-11
2.18957e-10
9.53392e-10
3.73641e-09
7.24252e-09
1.11803e-09
1.23658e-10
2.16815e-11
2.00241e-11
2.61794e-11
3.15306e-11
3.58378e-11
3.99153e-11
4.87046e-11
8.6215e-11
2.66352e-10
1.05397e-09
4.18274e-09
9.94215e-09
1.57989e-09
2.00332e-10
7.84025e-11
1.01793e-10
1.38674e-10
1.71667e-10
2.00805e-10
2.27083e-10
2.59955e-10
3.3566e-10
6.30076e-10
1.8295e-09
6.43269e-09
1.37524e-08
2.50518e-09
4.94857e-10
3.27909e-10
4.44751e-10
6.13627e-10
7.78437e-10
9.35838e-10
1.08446e-09
1.25123e-09
1.51213e-09
2.23121e-09
4.6831e-09
1.31399e-08
2.07432e-08
5.21366e-09
1.66739e-09
1.31009e-09
1.69059e-09
2.31725e-09
2.9972e-09
3.69346e-09
4.38468e-09
5.15454e-09
6.17447e-09
8.24206e-09
1.38487e-08
3.09709e-08
3.59528e-08
1.34428e-08
5.9356e-09
4.83655e-09
5.7619e-09
7.65224e-09
9.96625e-09
1.25219e-08
1.5208e-08
1.82724e-08
2.20899e-08
2.8266e-08
4.12072e-08
7.62869e-08
7.59717e-08
3.77856e-08
2.01715e-08
1.65533e-08
1.81927e-08
2.28464e-08
2.93107e-08
3.70901e-08
4.58865e-08
5.63673e-08
6.93221e-08
8.76021e-08
1.16633e-07
1.82325e-07
1.96638e-10
5.33471e-11
2.60263e-11
1.74467e-11
1.31234e-11
1.08465e-11
1.02068e-11
9.64806e-12
8.73289e-12
8.00136e-12
1.38747e-11
5.71986e-11
2.72232e-10
1.17457e-09
1.42937e-10
2.59131e-11
4.64225e-12
1.23999e-12
6.82402e-13
5.56847e-13
5.57672e-13
5.63958e-13
6.15202e-13
1.38879e-12
7.50697e-12
4.37675e-11
2.22606e-10
9.73123e-10
2.22324e-10
4.36363e-11
7.16257e-12
9.90069e-13
1.32792e-13
2.619e-14
1.76859e-14
2.73577e-14
1.23204e-13
9.33802e-13
6.58833e-12
3.94403e-11
2.00303e-10
8.69446e-10
3.52262e-10
6.87943e-11
1.13882e-11
1.57174e-12
1.90646e-13
1.97185e-14
2.63921e-15
9.39677e-15
9.41643e-14
8.11582e-13
5.81465e-12
3.49247e-11
1.7765e-10
7.71317e-10
5.05327e-10
9.61731e-11
1.53088e-11
2.02299e-12
2.31861e-13
2.29763e-14
3.25614e-15
8.7098e-15
8.33116e-14
7.22606e-13
5.22016e-12
3.15442e-11
1.61008e-10
6.99697e-10
7.01325e-10
1.29477e-10
1.90393e-11
2.3058e-12
2.47164e-13
3.18716e-14
1.4527e-14
1.93969e-14
8.36594e-14
6.42876e-13
4.61478e-12
2.80122e-11
1.435e-10
6.2421e-10
9.75388e-10
1.74828e-10
2.34856e-11
2.60211e-12
3.20593e-13
1.29669e-13
1.29803e-13
1.40068e-13
1.95116e-13
6.76104e-13
4.12459e-12
2.45145e-11
1.25343e-10
5.45839e-10
1.32946e-09
2.31135e-10
2.85477e-11
3.17553e-12
8.82471e-13
8.93301e-13
1.03216e-12
1.1165e-12
1.1929e-12
1.61041e-12
4.53554e-12
2.18682e-11
1.07944e-10
4.72758e-10
1.75257e-09
2.963e-10
3.51605e-11
5.57718e-12
4.35582e-12
5.65405e-12
6.75628e-12
7.48146e-12
7.93802e-12
8.60503e-12
1.16569e-11
2.89641e-11
1.14574e-10
4.87967e-10
2.26554e-09
3.82876e-10
5.08691e-11
1.74364e-11
2.21432e-11
3.03118e-11
3.69797e-11
4.19329e-11
4.54164e-11
4.86886e-11
5.50813e-11
8.27075e-11
2.07878e-10
7.40688e-10
2.96207e-09
5.55221e-10
1.10406e-10
7.07222e-11
9.95133e-11
1.38388e-10
1.7208e-10
1.99602e-10
2.21068e-10
2.41019e-10
2.6715e-10
3.40169e-10
6.08961e-10
1.65221e-09
4.32592e-09
1.09602e-09
3.55485e-10
2.86032e-10
3.91551e-10
5.44371e-10
6.88961e-10
8.16879e-10
9.24952e-10
1.02988e-09
1.15205e-09
1.39092e-09
2.05968e-09
4.38179e-09
7.74337e-09
2.87827e-09
1.28869e-09
1.08214e-09
1.37475e-09
1.87166e-09
2.39736e-09
2.90218e-09
3.36076e-09
3.82807e-09
4.35979e-09
5.18232e-09
6.8653e-09
1.19854e-08
1.7541e-08
8.45284e-09
4.57305e-09
3.82783e-09
4.43517e-09
5.74949e-09
7.34023e-09
9.02699e-09
1.06908e-08
1.24756e-08
1.45309e-08
1.73549e-08
2.16109e-08
3.22075e-08
4.17831e-11
8.06347e-12
2.1918e-12
1.10195e-12
8.05473e-13
7.29394e-13
7.7462e-13
8.09008e-13
7.84675e-13
7.25744e-13
1.23703e-12
5.83898e-12
3.1492e-11
1.49502e-10
3.79478e-11
7.32972e-12
1.21791e-12
1.85e-13
3.98529e-14
2.53071e-14
3.13595e-14
3.99923e-14
5.10262e-14
1.22947e-13
7.28549e-13
4.72892e-12
2.65391e-11
1.26924e-10
6.14298e-11
1.27447e-11
2.24479e-12
3.32762e-13
4.4081e-14
5.52288e-15
1.60928e-15
2.39474e-15
1.0228e-14
8.16316e-14
6.39545e-13
4.26698e-12
2.4016e-11
1.14792e-10
9.2726e-11
1.91215e-11
3.40118e-12
5.0755e-13
6.60925e-14
7.29361e-15
8.24319e-16
8.13125e-16
7.29777e-15
6.96893e-14
5.6062e-13
3.77273e-12
2.13922e-11
1.0313e-10
1.2749e-10
2.55061e-11
4.40117e-12
6.30981e-13
7.82817e-14
8.3445e-15
1.0924e-15
9.39693e-16
6.5122e-15
6.14344e-14
5.00434e-13
3.40963e-12
1.95424e-11
9.50583e-11
1.69673e-10
3.25252e-11
5.26493e-12
6.98534e-13
8.17001e-14
1.05739e-14
4.17422e-15
4.11786e-15
8.79625e-15
5.63127e-14
4.43103e-13
3.04218e-12
1.76264e-11
8.65362e-11
2.25258e-10
4.15201e-11
6.20758e-12
7.6119e-13
9.78487e-14
3.38631e-14
3.22597e-14
3.37295e-14
3.76991e-14
7.77567e-14
4.13989e-13
2.70056e-12
1.56388e-11
7.71557e-11
2.93672e-10
5.20309e-11
7.22574e-12
8.84498e-13
2.23232e-13
2.06801e-13
2.37675e-13
2.55064e-13
2.63961e-13
2.97714e-13
5.82943e-13
2.54788e-12
1.37012e-11
6.7019e-11
3.72185e-10
6.36677e-11
8.5219e-12
1.40726e-12
9.86699e-13
1.25504e-12
1.49495e-12
1.63963e-12
1.71647e-12
1.78414e-12
2.07842e-12
4.00983e-12
1.4739e-11
6.62642e-11
4.64558e-10
7.88968e-11
1.16085e-11
3.97305e-12
4.88926e-12
6.65087e-12
8.05431e-12
9.01442e-12
9.6233e-12
1.008e-11
1.07586e-11
1.38306e-11
2.8856e-11
9.83274e-11
5.88627e-10
1.09975e-10
2.33507e-11
1.54401e-11
2.20402e-11
3.05582e-11
3.75593e-11
4.28658e-11
4.66664e-11
4.97839e-11
5.30881e-11
6.18486e-11
9.45802e-11
2.33224e-10
8.49606e-10
2.12567e-10
7.19583e-11
6.15264e-11
8.78024e-11
1.22459e-10
1.52813e-10
1.7776e-10
1.9723e-10
2.1449e-10
2.31923e-10
2.63833e-10
3.49393e-10
6.76881e-10
1.58024e-09
5.66598e-10
2.58694e-10
2.30356e-10
3.11373e-10
4.31238e-10
5.45925e-10
6.4758e-10
7.32763e-10
8.13186e-10
8.9548e-10
1.01679e-09
1.24405e-09
2.00725e-09
3.76904e-09
1.71021e-09
9.23024e-10
8.06367e-10
1.00307e-09
1.35011e-09
1.7223e-09
2.0808e-09
2.40337e-09
2.72474e-09
3.06479e-09
3.51894e-09
4.1362e-09
5.81245e-09
9.63799e-12
1.84239e-12
3.9009e-13
1.43185e-13
9.86608e-14
9.97277e-14
1.19406e-13
1.37196e-13
1.4234e-13
1.29466e-13
1.57305e-13
6.38639e-13
3.63055e-12
1.82946e-11
9.9218e-12
2.06267e-12
3.63594e-13
5.64186e-14
1.00394e-14
5.03202e-15
6.64491e-15
9.28003e-15
1.1734e-14
1.82233e-14
7.93707e-14
5.25563e-13
3.14347e-12
1.59818e-11
1.62747e-11
3.57265e-12
6.6308e-13
1.04402e-13
1.4648e-14
1.94601e-15
5.71259e-16
6.79331e-16
1.49805e-15
8.52e-15
6.73706e-14
4.79697e-13
2.8906e-12
1.47498e-11
2.4265e-11
5.3083e-12
9.94672e-13
1.5713e-13
2.16789e-14
2.56295e-15
3.4596e-16
1.92608e-16
7.77407e-16
6.94021e-15
5.92598e-14
4.28854e-13
2.61395e-12
1.35215e-11
3.28108e-11
6.99152e-12
1.27439e-12
1.93857e-13
2.55785e-14
2.90154e-15
4.10467e-16
2.2747e-16
7.18922e-16
6.13962e-15
5.30763e-14
3.90188e-13
2.41501e-12
1.26764e-11
4.26655e-11
8.71196e-12
1.49832e-12
2.12353e-13
2.64115e-14
3.33095e-15
1.07156e-15
9.24245e-16
1.32027e-15
5.97856e-15
4.74495e-14
3.50748e-13
2.20393e-12
1.17463e-11
5.51683e-11
1.07536e-11
1.72875e-12
2.27591e-13
2.94237e-14
8.05494e-15
6.90003e-15
7.02929e-15
7.28065e-15
1.09763e-14
4.69644e-14
3.1562e-13
1.97988e-12
1.065e-11
7.00884e-11
1.3041e-11
1.97117e-12
2.5489e-13
5.4518e-14
4.3129e-14
4.85848e-14
5.13667e-14
5.19083e-14
5.38103e-14
8.32438e-14
3.14381e-13
1.76095e-12
9.33357e-12
8.66539e-11
1.54648e-11
2.26355e-12
3.63245e-13
2.09354e-13
2.55543e-13
3.019e-13
3.2584e-13
3.34158e-13
3.3507e-13
3.59629e-13
5.79062e-13
1.9398e-12
9.02023e-12
1.05461e-10
1.847e-11
2.90125e-12
8.90839e-13
1.0128e-12
1.36024e-12
1.6313e-12
1.79232e-12
1.87118e-12