/*--------------------------------*- C++ -*----------------------------------*\
| =========                 |                                                 |
| \\      /  F ield         | OpenFOAM: The Open Source CFD Toolbox           |
|  \\    /   O peration     | Version:  v2106                                 |
|   \\  /    A nd           | Website:  www.openfoam.com                      |
|    \\/     M anipulation  |                                                 |
\*---------------------------------------------------------------------------*/
FoamFile
{
    version     2.0;
    format      ascii;
    arch        "LSB;label=32;scalar=64";
    class       volScalarField;
    location    "0.000184";
    object      T;
}
// * * * * * * * * * * * * * * * * * * * * * * * * * * * * * * * * * * * * * //

dimensions      [0 0 0 1 0 0 0];

internalField   nonuniform List<scalar> 
18109
(
296.691
296.586
296.549
296.556
296.574
296.579
296.551
296.582
296.475
296.395
296.364
296.345
296.321
296.277
296.465
296.333
296.232
296.165
296.112
296.058
295.992
296.345
296.198
296.074
295.978
295.896
295.814
295.724
296.196
296.032
295.892
295.783
295.687
295.59
295.484
296.013
295.835
295.684
295.572
295.47
295.366
295.252
295.788
295.599
295.448
295.336
295.236
295.135
295.019
295.527
295.338
295.193
295.084
294.984
294.882
294.769
296.91
296.806
296.784
296.8
296.833
296.862
296.865
296.813
296.698
296.51
296.267
295.988
295.742
295.494
296.813
296.713
296.655
296.64
296.64
296.64
296.621
296.558
296.444
296.264
296.034
295.772
295.543
295.329
296.72
296.601
296.525
296.477
296.446
296.414
296.369
296.29
296.175
296.013
295.818
295.603
295.415
295.244
296.604
296.479
296.383
296.311
296.253
296.193
296.122
296.026
295.903
295.748
295.573
295.4
295.257
295.144
296.454
296.317
296.203
296.121
296.051
295.977
295.891
295.782
295.656
295.509
295.358
295.223
295.123
295.048
296.259
296.111
295.991
295.909
295.833
295.753
295.658
295.541
295.411
295.27
295.138
295.035
294.969
294.922
296.027
295.874
295.753
295.673
295.597
295.52
295.422
295.304
295.176
295.046
294.933
294.857
294.816
294.786
295.762
295.612
295.495
295.42
295.346
295.269
295.173
295.057
294.935
294.818
294.72
294.665
294.628
294.602
295.484
295.345
295.236
295.162
295.088
295.009
294.917
294.809
294.695
294.589
294.495
294.446
294.407
294.383
295.212
295.082
294.991
294.917
294.841
294.754
294.664
294.561
294.455
294.359
294.265
294.218
294.143
294.11
294.96
294.84
294.768
294.698
294.618
294.524
294.429
294.329
294.224
294.132
294.033
293.963
293.836
293.772
294.701
294.621
294.58
294.512
294.437
294.339
294.234
294.131
294.018
293.917
293.804
293.707
293.529
293.394
294.464
294.412
294.404
294.355
294.298
294.211
294.101
293.988
293.855
293.73
293.588
293.439
293.205
293.024
294.223
294.213
294.241
294.218
294.184
294.123
294.021
293.903
293.747
293.591
293.41
293.22
292.959
292.719
296.758
296.842
296.871
296.877
296.625
296.002
296.969
297.079
297.143
297.164
297.043
296.545
296.918
297
297.036
297.007
296.7
296.02
296.909
296.976
296.986
296.881
296.469
295.699
296.938
297.002
297.01
296.883
296.427
295.647
297
297.082
297.093
296.948
296.5
295.84
297.053
297.149
297.148
296.986
296.598
296.137
297.067
297.176
297.163
297.013
296.764
296.562
297.017
297.127
297.117
297.01
296.932
296.92
296.892
296.989
297.003
296.985
297.006
297.079
296.68
296.76
296.799
296.861
296.962
297.068
296.398
296.475
296.553
296.683
296.844
296.99
296.08
296.157
296.256
296.418
296.589
296.695
295.796
295.88
295.986
296.112
296.158
296.033
295.528
295.553
295.568
295.561
295.375
294.866
295.35
295.386
295.295
295.079
294.542
293.574
295.218
295.176
294.976
294.516
293.652
292.409
295.14
295.091
294.792
294.117
293.006
291.618
295.04
294.963
294.577
293.772
292.573
291.219
294.957
294.843
294.381
293.523
292.373
291.195
294.829
294.666
294.166
293.337
292.326
291.416
294.681
294.448
293.928
293.177
292.365
291.728
294.47
294.163
293.637
292.981
292.37
291.918
294.197
293.833
293.321
292.772
292.312
291.974
293.847
293.453
292.976
292.541
292.161
291.82
293.448
293.068
292.655
292.311
291.944
291.496
293.044
292.707
292.343
292.004
291.556
290.859
292.74
292.453
292.149
291.781
291.14
290.11
292.437
292.129
291.759
291.172
290.305
289.172
292.496
292.256
291.901
291.187
290.019
288.661
292.733
292.461
292.032
291.218
289.946
288.506
293.007
292.745
292.333
291.478
290.135
288.671
293.246
293.006
292.598
291.759
290.467
289.065
293.488
293.293
292.897
292.119
290.97
289.761
293.675
293.522
293.137
292.435
291.476
290.565
293.838
293.694
293.324
292.738
291.986
291.363
293.944
293.781
293.418
292.919
292.383
291.992
294.017
293.823
293.471
293.062
292.682
292.406
294.043
293.834
293.507
293.172
292.848
292.57
294.047
293.842
293.549
293.241
292.925
292.566
294.039
293.842
293.581
293.265
292.889
292.4
294.016
293.835
293.591
293.267
292.804
292.083
294
293.814
293.549
293.192
292.599
291.671
296.495
296.697
296.839
297.003
297.137
297.315
296.593
296.799
296.946
297.106
297.199
297.328
296.678
296.878
297.015
297.119
297.129
297.079
296.858
297.007
297.06
297.072
296.967
296.609
294.071
293.908
293.709
293.32
292.598
291.53
294.407
294.247
294.048
293.648
292.811
291.706
294.703
294.608
294.479
294.071
293.294
292.267
295.048
295.004
294.954
294.643
293.982
293.034
295.358
295.399
295.438
295.247
294.735
293.973
295.668
295.797
295.886
295.781
295.436
294.935
295.968
296.156
296.262
296.225
296.033
295.807
296.241
296.457
296.563
296.559
296.492
296.477
296.463
296.674
296.784
296.836
296.873
296.97
296.629
296.823
296.937
297.046
297.165
297.309
296.742
296.928
297.054
297.204
297.351
297.516
296.827
297.016
297.153
297.314
297.441
297.587
296.898
297.09
297.23
297.361
297.409
297.436
297.045
297.213
297.292
297.364
297.297
297.087
294.934
292.46
290.837
289.271
284.597
294.343
292.186
290.756
289.457
284.057
294.147
292.402
291.381
289.871
284.577
294.393
293.248
292.324
289.582
281.805
295.07
294.348
293.196
288.683
278.499
295.72
295.328
293.684
287.743
276.472
296.429
296.13
294.029
287.29
276.682
296.921
296.452
293.684
286.188
275.721
268.214
297.117
296.391
292.938
285.146
275.231
267.775
297.008
295.851
291.821
284.509
276.429
270.127
296.659
294.758
290.652
284.57
278.922
274.206
271.222
295.772
293.197
289.559
285.373
281.708
278.016
276.508
276.937
294.468
291.501
288.619
286.126
284.036
281.506
283.118
288.94
292.9
289.996
287.963
286.649
284.849
280.754
280.938
280.041
291.436
288.924
287.361
285.833
281.34
274.039
270.149
268.312
290.357
288.351
287.073
285.547
280.705
272.983
266.176
265.086
289.772
288.206
287.296
285.608
281.045
274.608
271.753
268.903
289.655
288.304
287.324
284.418
277.962
270.145
266.315
268.232
289.908
288.753
287.507
282.933
273.861
263.245
257.203
254.034
290.451
289.342
287.389
281.447
271.931
261.82
253.189
249.951
290.951
289.679
286.701
280.433
272.56
264.716
259.147
254.374
291.128
289.372
285.297
278.659
271.061
263.782
258.704
259.144
290.98
288.708
283.882
276.992
269.041
260.118
290.577
287.588
282.841
276.439
268.971
260.501
289.809
286.457
282.424
277.537
272.105
265.771
288.784
285.477
282.552
279.237
275.002
270.239
287.8
284.84
282.873
280.546
277.311
273.843
287.012
284.479
283.122
281.473
278.231
286.487
284.268
283.014
281.252
275.683
286.414
284.471
283.365
281.995
276.124
286.795
285.27
284.688
283.159
277.721
287.578
286.528
286.134
283.704
277.736
288.693
287.908
287.137
283.034
274.218
289.848
289.114
287.615
282.06
271.951
290.81
289.973
287.915
281.755
272.586
291.485
290.398
287.289
280.885
272.162
291.817
290.198
286.546
280.088
270.791
291.783
289.802
286.109
280.322
271.738
291.485
289.096
285.796
281.292
274.669
290.897
288.168
285.56
282.444
277.709
290.219
287.429
285.484
283.151
279.642
289.596
286.894
285.264
283.393
279.506
289.424
286.915
285.456
283.896
277.932
289.74
287.512
286.323
284.881
277.928
290.536
288.843
288.015
286.262
280.031
291.685
290.536
289.663
286.982
279.85
293.042
292.248
291.217
286.937
276.71
294.368
293.851
292.357
286.312
274.366
295.573
295.163
293.182
286.304
274.405
296.441
296.098
293.661
285.797
273.631
297.034
296.605
293.701
285.72
273.597
297.318
296.666
293.415
286.166
275.742
297.28
296.199
292.954
287.129
279.006
297.035
295.4
292.353
288.185
282.708
296.437
294.353
291.661
288.86
285.254
295.704
293.269
291.171
289.413
286.487
297.468
297.377
297.363
297.371
297.401
297.447
297.489
297.501
297.468
297.375
297.224
297.011
296.784
296.53
297.415
297.314
297.272
297.26
297.271
297.295
297.315
297.305
297.259
297.158
297.003
296.788
296.564
296.333
297.348
297.236
297.179
297.148
297.141
297.138
297.133
297.103
297.041
296.933
296.782
296.583
296.386
296.18
297.219
297.116
297.047
297.007
296.984
296.964
296.937
296.885
296.805
296.688
296.533
296.351
296.188
296.032
297.07
296.963
296.891
296.847
296.813
296.779
296.734
296.664
296.573
296.451
296.308
296.153
296.026
295.915
296.859
296.75
296.682
296.642
296.608
296.57
296.515
296.433
296.332
296.208
296.078
295.952
295.86
295.791
296.615
296.513
296.447
296.415
296.382
296.343
296.284
296.197
296.094
295.977
295.862
295.77
295.707
295.667
296.344
296.259
296.196
296.174
296.143
296.102
296.04
295.953
295.851
295.745
295.641
295.57
295.53
295.508
296.064
295.992
295.943
295.926
295.897
295.854
295.792
295.711
295.613
295.515
295.417
295.358
295.329
295.326
295.788
295.737
295.716
295.687
295.66
295.613
295.548
295.47
295.376
295.286
295.185
295.134
295.073
295.081
295.527
295.496
295.498
295.476
295.438
295.393
295.322
295.245
295.149
295.054
294.941
294.876
294.765
294.773
295.283
295.279
295.313
295.29
295.254
295.206
295.125
295.044
294.937
294.829
294.703
294.614
294.447
294.393
295.05
295.074
295.135
295.128
295.104
295.061
294.974
294.883
294.756
294.619
294.465
294.32
294.098
293.985
294.821
294.891
294.985
294.986
294.975
294.949
294.868
294.768
294.62
294.454
294.268
294.064
293.822
293.623
298.86
298.773
298.744
298.729
298.74
298.757
298.791
298.818
298.828
298.803
298.753
298.625
298.477
298.273
298.783
298.704
298.639
298.62
298.625
298.649
298.684
298.704
298.702
298.659
298.579
298.439
298.293
298.093
298.719
298.634
298.573
298.562
298.566
298.578
298.593
298.591
298.567
298.509
298.419
298.273
298.12
297.931
298.591
298.52
298.47
298.466
298.469
298.474
298.474
298.452
298.405
298.324
298.213
298.061
297.91
297.744
298.439
298.369
298.34
298.342
298.347
298.349
298.336
298.297
298.231
298.135
298.015
297.868
297.731
297.592
298.247
298.192
298.183
298.189
298.197
298.189
298.164
298.108
298.025
297.917
297.793
297.659
297.544
297.442
298.02
297.991
297.994
298.007
298.015
297.998
297.963
297.894
297.801
297.692
297.576
297.464
297.375
297.31
297.776
297.772
297.791
297.809
297.816
297.789
297.742
297.663
297.564
297.457
297.346
297.256
297.185
297.16
297.529
297.538
297.572
297.59
297.593
297.559
297.504
297.422
297.323
297.223
297.118
297.047
296.983
296.989
297.292
297.308
297.362
297.374
297.37
297.332
297.266
297.182
297.082
296.983
296.874
296.814
296.735
296.745
297.064
297.076
297.147
297.159
297.149
297.11
297.031
296.944
296.837
296.732
296.616
296.569
296.459
296.481
296.841
296.875
296.957
296.968
296.949
296.909
296.818
296.725
296.609
296.492
296.363
296.286
296.133
296.135
296.601
296.663
296.767
296.797
296.772
296.732
296.631
296.524
296.39
296.245
296.09
295.961
295.783
295.755
296.376
296.509
296.612
296.641
296.61
296.583
296.481
296.362
296.208
296.042
295.863
295.674
295.473
295.336
300.82
300.751
300.723
300.683
300.691
300.691
300.713
300.736
300.753
300.759
300.749
300.702
300.638
300.517
300.694
300.656
300.611
300.579
300.574
300.575
300.593
300.614
300.628
300.626
300.604
300.544
300.476
300.37
300.563
300.538
300.505
300.491
300.496
300.505
300.522
300.532
300.536
300.522
300.491
300.429
300.356
300.25
300.42
300.411
300.392
300.392
300.403
300.417
300.428
300.431
300.422
300.393
300.343
300.27
300.189
300.087
300.256
300.262
300.26
300.278
300.298
300.314
300.321
300.314
300.29
300.244
300.179
300.099
300.016
299.928
300.086
300.098
300.119
300.149
300.174
300.186
300.184
300.164
300.123
300.062
299.986
299.903
299.826
299.755
299.907
299.928
299.968
300.002
300.028
300.033
300.018
299.984
299.928
299.857
299.779
299.704
299.639
299.591
299.728
299.757
299.813
299.846
299.866
299.858
299.829
299.778
299.71
299.635
299.557
299.494
299.44
299.417
299.548
299.577
299.641
299.67
299.681
299.661
299.617
299.555
299.48
299.409
299.337
299.287
299.241
299.243
299.372
299.403
299.474
299.498
299.495
299.46
299.401
299.329
299.248
299.177
299.108
299.074
299.019
299.029
299.202
299.225
299.293
299.316
299.297
299.251
299.178
299.098
299.012
298.939
298.873
298.86
298.784
298.804
299.022
299.076
299.134
299.151
299.112
299.058
298.969
298.881
298.785
298.703
298.628
298.597
298.5
298.523
298.835
298.906
298.963
298.985
298.935
298.876
298.773
298.671
298.559
298.459
298.37
298.306
298.205
298.211
298.646
298.766
298.82
298.832
298.767
298.712
298.601
298.487
298.361
298.242
298.128
298.01
297.898
297.819
303.073
303.015
302.982
302.935
302.915
302.9
302.901
302.91
302.929
302.953
302.975
302.983
302.984
302.966
302.901
302.886
302.854
302.81
302.789
302.775
302.774
302.78
302.795
302.814
302.831
302.836
302.835
302.821
302.75
302.757
302.729
302.699
302.684
302.677
302.676
302.682
302.696
302.71
302.725
302.731
302.727
302.713
302.598
302.613
302.598
302.585
302.579
302.577
302.577
302.582
302.591
302.599
302.605
302.605
302.596
302.58
302.445
302.462
302.467
302.47
302.471
302.472
302.474
302.477
302.481
302.48
302.477
302.469
302.454
302.437
302.297
302.314
302.337
302.35
302.355
302.356
302.355
302.353
302.348
302.338
302.325
302.309
302.291
302.275
302.151
302.172
302.204
302.223
302.229
302.226
302.22
302.21
302.195
302.177
302.156
302.136
302.118
302.108
302.011
302.033
302.071
302.09
302.093
302.084
302.069
302.048
302.022
301.997
301.974
301.954
301.939
301.938
301.861
301.885
301.927
301.946
301.944
301.927
301.901
301.87
301.836
301.809
301.788
301.776
301.764
301.77
301.72
301.748
301.789
301.806
301.793
301.764
301.725
301.682
301.642
301.615
301.597
301.594
301.581
301.593
301.564
301.603
301.635
301.649
301.627
301.587
301.535
301.485
301.442
301.418
301.405
301.412
301.393
301.415
301.428
301.48
301.5
301.506
301.47
301.417
301.353
301.293
301.241
301.212
301.193
301.199
301.171
301.205
301.266
301.335
301.343
301.348
301.303
301.242
301.167
301.098
301.036
300.999
300.974
300.976
300.951
300.981
301.088
301.19
301.207
301.204
301.143
301.081
301
300.923
300.848
300.795
300.746
300.723
300.682
300.68
305.067
305.039
305.012
304.976
304.95
304.932
304.925
304.933
304.957
304.993
305.04
305.087
305.144
305.18
304.9
304.896
304.871
304.835
304.808
304.789
304.78
304.787
304.809
304.844
304.89
304.941
304.993
305.038
304.758
304.763
304.738
304.706
304.683
304.665
304.658
304.665
304.688
304.725
304.774
304.828
304.881
304.929
304.619
304.626
304.607
304.581
304.562
304.547
304.541
304.549
304.573
304.61
304.657
304.71
304.76
304.811
304.489
304.493
304.482
304.463
304.449
304.436
304.431
304.441
304.466
304.503
304.548
304.597
304.643
304.693
304.365
304.367
304.363
304.35
304.337
304.326
304.323
304.333
304.357
304.391
304.432
304.477
304.516
304.564
304.249
304.248
304.249
304.24
304.228
304.217
304.214
304.225
304.245
304.277
304.313
304.353
304.387
304.434
304.137
304.135
304.138
304.13
304.118
304.107
304.103
304.111
304.127
304.155
304.187
304.224
304.257
304.304
304.027
304.023
304.027
304.02
304.006
303.993
303.986
303.99
304.003
304.028
304.058
304.096
304.132
304.178
303.919
303.915
303.917
303.909
303.891
303.875
303.864
303.863
303.871
303.894
303.924
303.967
304.007
304.053
303.804
303.805
303.802
303.794
303.772
303.751
303.732
303.726
303.731
303.752
303.784
303.834
303.879
303.93
303.699
303.706
303.696
303.683
303.654
303.624
303.598
303.584
303.584
303.602
303.633
303.687
303.733
303.794
303.563
303.591
303.572
303.56
303.528
303.492
303.458
303.436
303.43
303.445
303.475
303.533
303.582
303.649
303.441
303.477
303.468
303.453
303.413
303.371
303.331
303.3
303.284
303.29
303.308
303.353
303.391
303.464
306.53
306.513
306.495
306.474
306.46
306.456
306.464
306.487
306.526
306.58
306.649
306.723
306.816
306.884
306.393
306.377
306.361
306.34
306.325
306.319
306.324
306.345
306.382
306.437
306.506
306.587
306.676
306.757
306.274
306.261
306.241
306.22
306.204
306.195
306.198
306.217
306.253
306.308
306.38
306.464
306.558
306.642
306.156
306.145
306.127
306.106
306.089
306.078
306.081
306.099
306.134
306.19
306.261
306.346
306.437
306.528
306.051
306.038
306.021
306
305.983
305.972
305.974
305.993
306.03
306.086
306.157
306.241
306.329
306.42
305.954
305.937
305.921
305.901
305.884
305.874
305.877
305.897
305.935
305.992
306.061
306.143
306.225
306.316
305.863
305.841
305.827
305.807
305.791
305.783
305.789
305.812
305.851
305.91
305.977
306.056
306.131
306.219
305.774
305.75
305.735
305.717
305.703
305.698
305.707
305.732
305.774
305.833
305.899
305.976
306.046
306.131
305.686
305.663
305.646
305.629
305.617
305.616
305.627
305.656
305.7
305.76
305.826
305.902
305.97
306.053
305.596
305.575
305.557
305.543
305.534
305.535
305.549
305.58
305.626
305.687
305.754
305.832
305.9
305.983
305.506
305.487
305.47
305.458
305.451
305.453
305.468
305.501
305.546
305.609
305.678
305.76
305.832
305.917
305.416
305.402
305.386
305.377
305.369
305.372
305.386
305.417
305.461
305.524
305.595
305.682
305.757
305.847
305.317
305.311
305.298
305.294
305.288
305.29
305.301
305.328
305.369
305.431
305.503
305.595
305.674
305.769
305.238
305.234
305.227
305.223
305.215
305.213
305.22
305.242
305.277
305.334
305.403
305.492
305.565
305.676
307.477
307.462
307.453
307.449
307.454
307.469
307.495
307.533
307.582
307.641
307.712
307.787
307.88
307.954
307.371
307.359
307.351
307.346
307.349
307.361
307.383
307.419
307.466
307.525
307.596
307.675
307.766
307.85
307.284
307.274
307.261
307.255
307.254
307.262
307.28
307.311
307.354
307.41
307.48
307.56
307.656
307.743
307.196
307.186
307.173
307.164
307.162
307.167
307.182
307.21
307.25
307.305
307.372
307.452
307.547
307.64
307.118
307.104
307.091
307.08
307.076
307.078
307.091
307.117
307.155
307.208
307.274
307.353
307.446
307.543
307.041
307.024
307.01
306.998
306.993
306.996
307.007
307.033
307.071
307.123
307.187
307.266
307.354
307.452
306.965
306.945
306.931
306.92
306.915
306.919
306.933
306.96
306.999
307.052
307.115
307.193
307.276
307.373
306.889
306.867
306.853
306.844
306.842
306.848
306.866
306.897
306.939
306.994
307.056
307.134
307.212
307.307
306.812
306.789
306.777
306.771
306.772
306.784
306.807
306.843
306.889
306.947
307.011
307.089
307.164
307.257
306.735
306.714
306.705
306.702
306.708
306.725
306.754
306.796
306.846
306.909
306.975
307.055
307.13
307.222
306.661
306.644
306.637
306.639
306.649
306.673
306.707
306.754
306.808
306.876
306.946
307.03
307.107
307.2
306.59
306.579
306.575
306.58
306.596
306.624
306.662
306.713
306.771
306.844
306.92
307.009
307.09
307.185
306.524
306.517
306.517
306.528
306.548
306.578
306.618
306.672
306.733
306.811
306.892
306.988
307.074
307.172
306.477
306.471
306.477
306.49
306.509
306.537
306.576
306.629
306.69
306.768
306.851
306.95
307.041
307.154
308.059
308.059
308.063
308.073
308.09
308.114
308.144
308.182
308.223
308.27
308.322
308.376
308.444
308.498
307.98
307.987
307.989
307.997
308.011
308.033
308.061
308.097
308.138
308.185
308.238
308.296
308.364
308.426
307.922
307.925
307.924
307.929
307.939
307.957
307.981
308.014
308.052
308.096
308.149
308.207
308.28
308.346
307.853
307.856
307.854
307.857
307.865
307.881
307.904
307.934
307.97
308.013
308.065
308.125
308.198
308.271
307.79
307.79
307.786
307.787
307.794
307.808
307.829
307.857
307.89
307.932
307.982
308.043
308.117
308.194
307.722
307.72
307.715
307.717
307.723
307.738
307.758
307.785
307.817
307.858
307.907
307.968
308.041
308.122
307.654
307.649
307.645
307.647
307.656
307.671
307.692
307.72
307.752
307.793
307.841
307.902
307.973
308.056
307.585
307.578
307.576
307.58
307.592
307.61
307.633
307.663
307.697
307.74
307.787
307.849
307.916
308
307.515
307.508
307.509
307.517
307.532
307.555
307.582
307.616
307.652
307.698
307.746
307.809
307.874
307.957
307.448
307.442
307.446
307.459
307.479
307.506
307.538
307.577
307.618
307.667
307.718
307.783
307.847
307.928
307.385
307.381
307.389
307.406
307.431
307.464
307.502
307.546
307.592
307.648
307.702
307.77
307.835
307.916
307.33
307.329
307.339
307.36
307.39
307.427
307.471
307.521
307.573
307.634
307.694
307.765
307.833
307.913
307.278
307.281
307.293
307.319
307.352
307.395
307.443
307.5
307.559
307.627
307.693
307.77
307.841
307.923
307.247
307.25
307.265
307.292
307.325
307.369
307.42
307.479
307.541
307.613
307.683
307.762
307.836
307.922
308.402
308.413
308.424
308.44
308.46
308.484
308.51
308.539
308.568
308.601
308.634
308.669
308.713
308.75
308.339
308.357
308.366
308.38
308.399
308.422
308.448
308.477
308.507
308.541
308.576
308.616
308.66
308.704
308.293
308.307
308.313
308.326
308.343
308.364
308.388
308.416
308.445
308.478
308.514
308.554
308.603
308.65
308.232
308.246
308.253
308.266
308.283
308.305
308.328
308.357
308.386
308.42
308.458
308.501
308.552
308.604
308.175
308.187
308.195
308.209
308.226
308.247
308.271
308.299
308.329
308.363
308.402
308.447
308.5
308.557
308.113
308.125
308.135
308.151
308.17
308.193
308.218
308.246
308.276
308.311
308.35
308.397
308.451
308.512
308.053
308.065
308.078
308.096
308.117
308.141
308.168
308.197
308.228
308.264
308.303
308.351
308.405
308.469
307.994
308.007
308.023
308.044
308.068
308.095
308.123
308.154
308.186
308.222
308.261
308.309
308.363
308.429
307.937
307.952
307.971
307.995
308.022
308.052
308.083
308.117
308.15
308.188
308.228
308.277
308.329
308.395
307.887
307.903
307.925
307.953
307.983
308.016
308.05
308.086
308.122
308.161
308.202
308.251
308.302
308.367
307.839
307.859
307.883
307.914
307.948
307.984
308.022
308.062
308.101
308.145
308.186
308.238
308.287
308.351
307.803
307.825
307.851
307.884
307.921
307.96
308.002
308.044
308.087
308.132
308.176
308.229
308.279
308.341
307.765
307.792
307.818
307.854
307.894
307.938
307.984
308.032
308.079
308.13
308.177
308.232
308.282
308.343
307.749
307.774
307.802
307.839
307.88
307.925
307.973
308.024
308.073
308.125
308.174
308.228
308.277
308.339
308.525
308.55
308.574
308.599
308.624
308.651
308.676
308.704
308.729
308.757
308.783
308.812
308.841
308.872
308.475
308.505
308.527
308.552
308.578
308.606
308.634
308.663
308.691
308.721
308.75
308.781
308.814
308.848
308.437
308.465
308.487
308.513
308.539
308.567
308.594
308.624
308.652
308.683
308.713
308.745
308.781
308.818
308.388
308.417
308.441
308.468
308.496
308.525
308.554
308.585
308.615
308.647
308.68
308.715
308.753
308.792
308.342
308.371
308.397
308.426
308.455
308.485
308.515
308.547
308.579
308.612
308.647
308.685
308.725
308.767
308.296
308.327
308.355
308.386
308.417
308.448
308.48
308.512
308.545
308.58
308.616
308.655
308.697
308.742
308.252
308.284
308.315
308.348
308.38
308.414
308.447
308.481
308.515
308.55
308.587
308.628
308.67
308.717
308.215
308.248
308.281
308.316
308.35
308.385
308.419
308.453
308.487
308.523
308.56
308.6
308.643
308.692
308.179
308.214
308.249
308.286
308.323
308.358
308.394
308.429
308.464
308.5
308.536
308.577
308.618
308.668
308.153
308.19
308.227
308.265
308.302
308.339
308.375
308.409
308.444
308.479
308.514
308.555
308.595
308.644
308.129
308.166
308.204
308.244
308.284
308.322
308.359
308.394
308.429
308.464
308.498
308.538
308.575
308.624
308.115
308.153
308.192
308.232
308.273
308.312
308.349
308.384
308.417
308.452
308.484
308.523
308.558
308.603
308.099
308.141
308.179
308.22
308.262
308.302
308.34
308.378
308.412
308.447
308.479
308.516
308.549
308.59
308.102
308.144
308.182
308.221
308.261
308.299
308.338
308.374
308.408
308.441
308.471
308.505
308.533
308.572
308.542
308.579
308.614
308.647
308.678
308.707
308.733
308.759
308.781
308.804
308.825
308.848
308.868
308.894
308.508
308.55
308.586
308.622
308.656
308.688
308.717
308.745
308.771
308.796
308.819
308.844
308.867
308.893
308.477
308.522
308.562
308.601
308.637
308.671
308.702
308.732
308.76
308.787
308.811
308.838
308.862
308.889
308.447
308.494
308.536
308.578
308.617
308.653
308.686
308.718
308.748
308.777
308.803
308.831
308.857
308.885
308.419
308.466
308.511
308.555
308.596
308.635
308.671
308.706
308.738
308.768
308.797
308.826
308.854
308.882
308.397
308.445
308.492
308.538
308.581
308.621
308.658
308.694
308.727
308.759
308.79
308.82
308.849
308.879
308.378
308.428
308.476
308.522
308.567
308.608
308.647
308.684
308.719
308.751
308.782
308.813
308.842
308.873
308.367
308.417
308.466
308.513
308.557
308.599
308.638
308.674
308.708
308.74
308.771
308.801
308.831
308.861
308.359
308.409
308.459
308.505
308.549
308.59
308.628
308.663
308.696
308.727
308.756
308.785
308.813
308.844
308.359
308.409
308.457
308.502
308.545
308.583
308.619
308.652
308.682
308.711
308.738
308.766
308.792
308.823
308.359
308.409
308.456
308.5
308.541
308.577
308.61
308.64
308.668
308.694
308.718
308.745
308.769
308.8
308.369
308.416
308.46
308.501
308.539
308.572
308.602
308.629
308.653
308.676
308.697
308.721
308.742
308.772
308.375
308.421
308.462
308.5
308.536
308.566
308.594
308.618
308.639
308.66
308.678
308.701
308.718
308.745
308.393
308.437
308.474
308.507
308.538
308.564
308.587
308.608
308.625
308.642
308.657
308.675
308.689
308.711
308.523
308.565
308.602
308.637
308.668
308.696
308.722
308.746
308.767
308.788
308.807
308.826
308.844
308.866
308.506
308.552
308.592
308.631
308.665
308.697
308.725
308.751
308.775
308.798
308.819
308.841
308.86
308.883
308.495
308.542
308.585
308.626
308.663
308.697
308.728
308.758
308.784
308.809
308.832
308.854
308.874
308.897
308.488
308.536
308.581
308.624
308.663
308.7
308.733
308.764
308.791
308.818
308.842
308.866
308.887
308.91
308.484
308.533
308.58
308.624
308.664
308.703
308.738
308.77
308.8
308.827
308.852
308.876
308.898
308.92
308.484
308.535
308.582
308.627
308.669
308.707
308.743
308.776
308.806
308.834
308.86
308.884
308.906
308.927
308.488
308.539
308.587
308.632
308.674
308.712
308.748
308.782
308.812
308.839
308.864
308.888
308.91
308.931
308.497
308.548
308.595
308.639
308.68
308.718
308.753
308.785
308.814
308.841
308.867
308.89
308.911
308.931
308.509
308.559
308.605
308.647
308.686
308.722
308.755
308.786
308.814
308.839
308.863
308.885
308.905
308.925
308.524
308.572
308.616
308.655
308.692
308.725
308.756
308.784
308.809
308.832
308.853
308.874
308.892
308.912
308.54
308.586
308.626
308.662
308.695
308.725
308.752
308.776
308.799
308.82
308.839
308.858
308.874
308.894
308.56
308.602
308.636
308.668
308.697
308.722
308.746
308.768
308.787
308.805
308.82
308.836
308.85
308.869
308.576
308.614
308.644
308.671
308.696
308.718
308.738
308.755
308.77
308.783
308.795
308.808
308.818
308.836
308.599
308.631
308.655
308.676
308.696
308.712
308.727
308.739
308.749
308.758
308.765
308.774
308.781
308.796
308.474
308.52
308.559
308.597
308.63
308.66
308.686
308.71
308.731
308.751
308.769
308.785
308.802
308.819
308.474
308.522
308.565
308.605
308.641
308.674
308.702
308.729
308.752
308.774
308.795
308.814
308.831
308.851
308.48
308.527
308.572
308.614
308.652
308.687
308.718
308.747
308.772
308.796
308.817
308.837
308.855
308.874
308.488
308.536
308.582
308.625
308.665
308.701
308.734
308.764
308.791
308.816
308.838
308.859
308.878
308.897
308.5
308.548
308.594
308.637
308.678
308.715
308.749
308.78
308.808
308.834
308.857
308.877
308.896
308.914
308.515
308.563
308.609
308.651
308.692
308.729
308.763
308.794
308.823
308.848
308.871
308.892
308.911
308.928
308.533
308.579
308.624
308.666
308.705
308.742
308.775
308.806
308.834
308.859
308.881
308.902
308.92
308.937
308.553
308.598
308.64
308.68
308.717
308.752
308.785
308.814
308.841
308.865
308.887
308.907
308.925
308.941
308.573
308.616
308.655
308.692
308.728
308.76
308.79
308.818
308.844
308.867
308.888
308.908
308.924
308.94
308.594
308.633
308.669
308.703
308.735
308.764
308.793
308.818
308.842
308.864
308.884
308.903
308.918
308.934
308.613
308.649
308.681
308.71
308.739
308.765
308.79
308.812
308.833
308.854
308.872
308.89
308.906
308.922
308.633
308.664
308.691
308.715
308.739
308.761
308.782
308.802
308.821
308.839
308.856
308.872
308.887
308.904
308.649
308.676
308.698
308.717
308.737
308.754
308.772
308.788
308.803
308.818
308.832
308.846
308.86
308.877
308.669
308.69
308.705
308.718
308.732
308.745
308.757
308.769
308.781
308.793
308.805
308.817
308.829
308.847
308.377
308.424
308.466
308.504
308.538
308.569
308.598
308.624
308.647
308.669
308.688
308.705
308.721
308.737
308.399
308.441
308.484
308.523
308.559
308.593
308.624
308.652
308.677
308.7
308.721
308.74
308.756
308.776
308.419
308.462
308.506
308.546
308.583
308.618
308.65
308.679
308.705
308.728
308.75
308.769
308.786
308.804
308.441
308.483
308.527
308.568
308.606
308.642
308.674
308.704
308.731
308.755
308.777
308.797
308.814
308.832
308.464
308.506
308.55
308.591
308.629
308.664
308.697
308.727
308.754
308.779
308.801
308.821
308.838
308.855
308.488
308.53
308.572
308.612
308.649
308.684
308.717
308.747
308.774
308.799
308.821
308.841
308.858
308.874
308.513
308.554
308.594
308.632
308.668
308.702
308.734
308.763
308.79
308.814
308.836
308.856
308.873
308.889
308.538
308.576
308.614
308.65
308.684
308.716
308.747
308.775
308.801
308.825
308.846
308.866
308.884
308.9
308.562
308.597
308.632
308.665
308.697
308.727
308.756
308.782
308.807
308.83
308.851
308.871
308.888
308.905
308.584
308.616
308.647
308.676
308.706
308.733
308.76
308.785
308.809
308.831
308.851
308.871
308.888
308.905
308.603
308.632
308.659
308.685
308.711
308.735
308.759
308.782
308.805
308.826
308.846
308.866
308.883
308.902
308.621
308.647
308.669
308.69
308.712
308.733
308.754
308.775
308.796
308.817
308.837
308.857
308.875
308.895
308.637
308.658
308.675
308.693
308.71
308.728
308.745
308.763
308.782
308.802
308.821
308.842
308.861
308.883
308.655
308.669
308.681
308.693
308.706
308.719
308.734
308.75
308.767
308.785
308.803
308.823
308.843