/*--------------------------------*- C++ -*----------------------------------*\
| =========                 |                                                 |
| \\      /  F ield         | OpenFOAM: The Open Source CFD Toolbox           |
|  \\    /   O peration     | Version:  v2106                                 |
|   \\  /    A nd           | Website:  www.openfoam.com                      |
|    \\/     M anipulation  |                                                 |
\*---------------------------------------------------------------------------*/
FoamFile
{
    version     2.0;
    format      ascii;
    arch        "LSB;label=32;scalar=64";
    class       volScalarField;
    location    "0.000204";
    object      p;
}
// * * * * * * * * * * * * * * * * * * * * * * * * * * * * * * * * * * * * * //

dimensions      [1 -1 -2 0 0 0 0];

internalField   nonuniform List<scalar> 
144746
(
194935
195034
194777
194664
194480
194330
194079
193820
193529
193366
193300
193438
193420
194089
194825
195063
195022
195028
194907
194766
194542
194284
194013
193828
193723
193798
193820
194337
195240
195409
195397
195414
195322
195198
195006
194773
194523
194305
194142
194090
193997
194222
195562
195738
195778
195815
195739
195639
195480
195269
195029
194824
194632
194491
194351
194365
195999
196136
196197
196224
196142
196034
195883
195697
195490
195284
195077
194887
194715
194619
196378
196529
196592
196610
196514
196408
196260
196086
195893
195702
195501
195287
195085
194904
196746
196900
196950
196928
196842
196733
196596
196432
196248
196058
195858
195636
195407
195194
197089
197210
197239
197201
197131
197039
196919
196768
196587
196396
196191
195965
195719
195455
197388
197454
197457
197418
197364
197299
197206
197072
196893
196696
196483
196250
195989
195712
197619
197648
197629
197601
197565
197519
197452
197330
197159
196964
196757
196523
196273
195952
197844
197852
197810
197778
197751
197715
197650
197532
197365
197168
196973
196758
196532
196229
198049
197987
197971
197938
197926
197880
197816
197689
197532
197351
197187
196998
196818
196508
198219
198070
198076
198060
198054
198008
197948
197820
197668
197495
197359
197170
196996
196653
198246
197989
198095
198119
198140
198084
198032
197914
197788
197650
197566
197542
197641
197476
194435
194974
194950
195057
195096
195131
195059
194944
194784
194675
194584
194588
194478
194982
194717
195134
195249
195415
195489
195516
195461
195361
195249
195175
195126
195167
195143
195530
195195
195554
195622
195774
195865
195871
195832
195746
195651
195555
195482
195470
195430
195593
195672
195934
196019
196135
196207
196219
196182
196104
196012
195922
195861
195821
195773
195811
196122
196310
196422
196487
196527
196515
196473
196394
196328
196247
196176
196148
196094
196096
196528
196675
196751
196814
196829
196815
196763
196687
196600
196528
196473
196432
196400
196359
196849
196975
197052
197098
197096
197070
197018
196944
196865
196785
196721
196701
196640
196597
197125
197231
197292
197337
197327
197307
197258
197186
197107
197026
196964
196884
196866
196767
197313
197419
197474
197516
197515
197499
197463
197402
197332
197258
197198
197110
197059
196919
197481
197583
197645
197686
197695
197688
197662
197613
197551
197478
197416
197320
197245
197076
197638
197710
197771
197819
197842
197855
197841
197805
197747
197681
197623
197540
197430
197257
197790
197844
197902
197954
198003
198028
198026
197989
197931
197875
197813
197744
197628
197438
197917
197922
198006
198070
198127
198161
198166
198136
198079
198031
197961
197879
197789
197522
197911
197925
198100
198198
198273
198308
198323
198286
198242
198182
198157
198138
198192
198048
192972
193937
194183
194448
194630
194753
194784
194735
194634
194531
194465
194473
194441
194899
193846
194458
194857
195151
195341
195456
195493
195477
195421
195363
195398
195494
195572
196014
194855
195324
195636
195879
196034
196128
196155
196143
196101
196088
196109
196137
196185
196504
195759
196131
196420
196623
196757
196824
196839
196822
196780
196725
196744
196813
196829
197006
196569
196892
197146
197306
197421
197472
197480
197453
197401
197351
197324
197344
197385
197485
197265
197556
197798
197946
198049
198090
198093
198055
197995
197937
197900
197884
197907
197994
197833
198108
198338
198488
198587
198635
198639
198599
198533
198474
198425
198388
198403
198465
198381
198641
198849
198998
199088
199139
199142
199101
199037
198978
198926
198881
198876
198922
198824
199078
199272
199424
199519
199577
199587
199557
199502
199449
199398
199349
199328
199343
199234
199480
199660
199814
199914
199982
199999
199985
199949
199904
199854
199798
199762
199738
199559
199821
200010
200169
200275
200349
200379
200381
200363
200331
200291
200228
200175
200082
199823
200102
200327
200502
200615
200699
200740
200759
200751
200731
200691
200621
200574
200415
200011
200298
200517
200713
200850
200960
201025
201080
201101
201105
201067
201044
200943
200687
199990
200405
200730
200988
201165
201293
201369
201419
201434
201435
201412
201455
201469
201155
195465
196355
196379
196906
196922
198698
193794
194687
195148
196304
196717
198387
194075
194772
195192
196322
196878
198562
194225
194653
195024
196109
196727
198273
194506
194790
195114
196146
196765
198442
194755
194925
195172
196123
196679
198365
194996
195094
195284
196187
196617
198515
195214
195265
195466
196389
196791
198780
195458
195530
195718
196637
197043
198977
195719
195794
195942
196895
197279
199157
196084
196252
196380
197234
197514
199694
196407
196541
196727
197638
198016
199181
196869
197175
197402
198124
198521
199389
196419
196889
197367
198527
199002
199618
196148
196922
196743
196890
196470
198098
194954
195410
195563
196413
196482
197993
195410
195787
195924
196847
196821
198793
195724
195939
196045
196881
196960
198615
196090
196283
196414
197238
197347
198920
196353
196537
196682
197401
197515
198785
196561
196737
196852
197516
197488
199065
196718
196845
196900
197513
197435
199179
196842
196905
196957
197578
197560
199307
196970
196994
197017
197615
197701
199329
197140
197175
197172
197673
197742
199549
197360
197350
197285
197888
197907
199028
197617
197674
197742
198208
198297
199126
197024
197196
197355
198018
198450
199094
196107
196162
196217
195862
195297
196237
195532
195648
195518
195865
195803
196681
196252
196267
196214
196791
196794
198712
196923
196882
196887
197414
197588
199518
197552
197607
197779
198455
198715
200563
198115
198299
198602
199236
199502
200817
198624
198851
199201
199806
200124
201419
199063
199291
199591
200128
200391
201978
199449
199665
199858
200334
200538
202041
199779
199918
200037
200454
200569
201581
200078
200178
200249
200553
200619
201186
200433
200434
200413
200592
200684
201248
200917
200780
200872
201106
201118
201383
200648
200642
200675
200993
201297
201505
198422
199216
199113
199604
199630
200285
197081
197905
197998
198844
198805
200157
197401
198008
198069
198978
198884
200889
197555
197905
197936
198725
198727
200544
197749
197991
198046
198731
198834
200496
197875
198078
198139
198802
199028
199901
197987
198180
198226
198857
198995
199650
198080
198231
198255
198786
198853
199501
198148
198310
198338
198796
198840
199519
198194
198320
198383
198753
198772
199497
198201
198286
198400
198719
198798
199565
198223
198261
198377
198627
198766
199394
198258
198279
198387
198647
198853
199495
197575
197568
197757
198257
198507
199074
198878
199398
199257
199555
199446
199621
197860
198370
198308
198892
198852
199444
198040
198406
198309
198903
198696
200199
198168
198418
198367
198944
199020
199885
198285
198479
198530
199079
199339
199918
198378
198580
198675
199080
199354
199720
198423
198643
198757
199100
199300
199704
198462
198695
198809
199055
199156
199345
198435
198645
198793
198968
199033
199280
198404
198581
198717
198767
198841
199041
198340
198426
198551
198567
198711
198979
198287
198238
198327
198327
198464
198647
198230
198005
198059
198097
198358
198648
197392
197114
197176
197393
197795
197970
202026
202437
202482
202670
202572
202840
201508
201917
201895
202308
202312
202616
201623
201978
201978
202431
202441
202809
201686
202034
202082
202478
202549
202843
201731
202075
202214
202526
202624
202786
201728
202070
202282
202468
202454
202341
201694
202047
202247
202267
202122
201747
201587
201908
202001
201862
201522
200864
201445
201688
201633
201331
200784
199755
201261
201375
201224
200631
199844
198433
201051
201003
200696
199840
198981
197153
200774
200535
200111
199018
198078
195940
200479
199925
199477
198276
197413
195288
199609
198698
198034
196959
196436
194362
196766
195910
195497
194685
194266
194182
197478
196163
195889
195456
195270
195289
197328
195909
195757
195335
195231
195360
197833
195805
195783
195447
195423
195571
198248
195849
195853
195624
195693
195894
197909
196733
196465
196095
196073
196245
197817
196968
196864
196470
196492
196599
198284
197477
197320
196892
196927
196932
198496
197699
197618
197224
197306
197242
199025
198078
198030
197571
197631
197513
199176
198230
198270
197773
197878
197717
199628
198590
198652
198094
198209
197902
199438
198455
198628
198148
198302
197912
200254
199136
199372
199142
199148
198689
194775
194163
193657
193040
193004
193653
195653
194763
194547
194371
194465
195113
195668
194757
194712
194678
194775
195330
196299
195284
195225
195196
195271
195711
196549
195789
195676
195672
195723
196055
196787
196247
196157
196181
196197
196430
196991
196525
196435
196486
196521
196707
197365
196823
196755
196740
196806
196958
197538
197067
196948
196885
196989
197141
198017
197445
197267
197079
197202
197300
198174
197610
197504
197263
197411
197460
198550
197941
197835
197504
197618
197561
198246
197916
197878
197572
197733
197621
199145
198649
198650
198535
198445
198223
186170
188235
188225
189151
189865
191621
186906
189314
189877
191329
192102
193802
187049
189787
190508
192204
192975
194498
188342
190940
191689
193279
194027
195332
189717
192066
192825
194274
195006
196115
191345
193318
194023
195297
195992
196838
192807
194444
195117
196196
196853
197436
194112
195522
196159
197007
197600
198049
195084
196306
196928
197659
198183
198521
195745
196864
197475
198194
198686
198959
195910
197125
197742
198508
199014
199278
195781
197258
197878
198750
199270
199541
195382
197105
197698
198785
199432
199661
195236
197244
198086
199180
199675
199955
198106
196739
196194
194864
194040
193403
197741
196489
195919
194924
194305
193925
197689
195953
195396
194271
193722
193461
197558
195659
195146
194026
193508
193266
197412
195357
194777
193683
193283
193111
197216
195210
194617
193599
193222
193171
197024
195051
194447
193585
193415
193429
196727
195129
194572
193809
193661
193689
196644
195083
194662
193962
193912
193952
196837
195223
194985
194240
194221
194142
196917
195343
195203
194366
194375
194308
197634
195602
195485
194702
194781
194477
197373
195410
195640
194928
194930
194478
197999
196674
196874
196421
196379
195650
196848
195796
195173
194050
193542
193598
196550
195348
195068
194545
194352
194683
196159
194695
194464
194005
193981
194398
196098
194418
194337
193887
193898
194273
196013
194149
194144
193720
193840
194246
195934
194151
194166
193794
193987
194362
195756
194205
194271
194009
194224
194542
195599
194397
194455
194196
194404
194665
195165
194485
194575
194304
194515
194748
195737
194716
194703
194308
194568
194738
195588
194312
194486
194139
194420
194670
195955
194592
194606
194198
194424
194563
195372
194421
194528
194066
194227
194323
196110
195096
195428
195360
195409
195049
193844
193681
192753
192289
192310
193089
192809
193136
192675
192965
193237
194273
191811
192188
191858
192375
192875
193941
191686
191891
191760
192194
192764
193762
191831
191723
191725
192125
192793
193740
192337
191981
191991
192315
192964
193837
192528
192086
192137
192494
193130
193959
192245
192224
192171
192607
193253
194055
191743
191972
191935
192522
193206
194035
191345
191491
191614
192327
193048
193924
190351
190775
191070
191889
192712
193681
189764
190494
190792
191646
192371
193272
188307
189799
190187
191285
192063
192782
188067
189657
190511
191944
192508
193105
194679
195047
195221
195351
195457
195497
195496
195437
195362
195234
195108
194997
194856
195102
195510
195793
195964
196108
196188
196221
196224
196184
196129
196032
195947
195914
195901
196220
196437
196656
196787
196900
196960
196978
196972
196930
196879
196799
196715
196670
196612
196865
197304
197461
197598
197675
197712
197708
197686
197634
197575
197503
197428
197369
197363
197542
198080
198208
198346
198401
198427
198413
198376
198313
198237
198161
198084
198031
198003
198102
198774
198879
199002
199052
199074
199062
199016
198945
198863
198783
198713
198666
198662
198736
199381
199488
199591
199644
199666
199657
199608
199531
199446
199368
199299
199259
199259
199297
200012
200088
200152
200197
200209
200198
200147
200069
199986
199911
199848
199811
199813
199815
200578
200628
200669
200708
200714
200701
200649
200576
200497
200425
200369
200329
200328
200302
201191
201206
201212
201227
201217
201190
201133
201063
200987
200918
200867
200831
200825
200773
201687
201706
201713
201716
201690
201657
201599
201536
201469
201406
201363
201324
201316
201250
202306
202279
202268
202247
202200
202151
202086
202019
201951
201891
201852
201804
201810
201735
202652
202695
202678
202674
202636
202589
202530
202475
202417
202361
202330
202295
202308
202233
203317
203341
203332
203299
203223
203137
203043
202957
202882
202803
202764
202741
202777
202771
195827
195869
195912
195886
195918
195910
195886
195803
195682
195527
195372
195257
195098
195061
196724
196707
196697
196685
196690
196669
196640
196579
196494
196388
196271
196180
196064
196129
197548
197542
197533
197502
197478
197441
197400
197339
197260
197170
197064
196978
196865
196921
198323
198309
198320
198290
198260
198217
198162
198090
198004
197914
197813
197729
197621
197673
199014
199005
199034
199020
198994
198949
198883
198800
198706
198611
198515
198434
198351
198350
199671
199667
199696
199694
199674
199633
199564
199477
199377
199282
199187
199116
199044
199038
200313
200302
200315
200320
200303
200266
200196
200106
200005
199912
199818
199753
199690
199669
200977
200947
200936
200932
200908
200865
200791
200699
200597
200499
200406
200338
200282
200251
201634
201585
201552
201531
201496
201441
201360
201266
201163
201058
200967
200889
200839
200797
202336
202261
202197
202143
202084
202009
201916
201814
201707
201597
201506
201423
201377
201320
202960
202891
202811
202734
202649
202557
202454
202344
202232
202120
202031
201943
201909
201834
203648
203561
203459
203351
203233
203114
202991
202865
202746
202630
202543
202450
202435
202348
204121
204086
203990
203886
203760
203630
203497
203363
203241
203126
203047
202962
202955
202866
204890
204849
204719
204564
204383
204207
204036
203877
203740
203618
203537
203473
203473
203422
197595
197349
197222
196988
196863
196720
196594
196443
196261
196066
195879
195712
195542
195356
198412
198149
197979
197776
197634
197492
197360
197217
197056
196895
196742
196614
196445
196369
199052
198841
198711
198546
198410
198271
198132
197989
197832
197680
197522
197392
197208
197189
199661
199491
199395
199271
199154
199027
198888
198743
198586
198432
198274
198140
197969
197855
200253
200118
200046
199954
199854
199739
199605
199462
199305
199150
198987
198845
198678
198555
200877
200757
200685
200607
200518
200413
200283
200140
199981
199823
199659
199512
199359
199243
201540
201425
201338
201259
201169
201062
200930
200783
200619
200458
200294
200148
200009
199896
202254
202135
202021
201925
201820
201699
201555
201397
201225
201053
200891
200743
200620
200514
202981
202855
202714
202593
202464
202322
202163
201989
201808
201626
201464
201313
201202
201089
203734
203596
203422
203266
203103
202931
202748
202557
202367
202176
202014
201858
201751
201621
204413
204271
204082
203897
203704
203506
203303
203097
202899
202702
202542
202381
202275
202127
205107
204955
204740
204514
204284
204052
203826
203603
203398
203198
203042
202880
202778
202620
205720
205540
205319
205071
204821
204566
204320
204083
203867
203662
203510
203347
203246
203090
206469
206242
205973
205659
205362
205073
204803
204552
204329
204128
203980
203825
203721
203591
198844
198541
198282
197959
197715
197467
197229
196968
196703
196429
196189
195979
195811
195618
199470
199157
198930
198663
198441
198206
197967
197708
197448
197200
196996
196833
196676
196571
199959
199713
199540
199328
199134
198921
198696
198453
198210
197974
197769
197602
197438
197343
200500
200278
200139
199968
199801
199614
199411
199189
198961
198738
198528
198352
198179
198032
201107
200899
200765
200611
200458
200288
200100
199897
199682
199466
199252
199061
198867
198706
201783
201574
201424
201271
201118
200954
200773
200578
200369
200155
199935
199731
199527
199351
202521
202308
202127
201959
201789
201615
201427
201228
201016
200797
200573
200359
200150
199968
203290
203072
202856
202663
202465
202267
202060
201845
201622
201391
201161
200941
200736
200553
204052
203833
203585
203364
203132
202904
202671
202433
202194
201950
201717
201494
201294
201106
204796
204572
204290
204037
203769
203507
203245
202985
202732
202478
202244
202015
201818
201625
205471
205240
204938
204657
204359
204069
203782
203502
203237
202978
202744
202510
202315
202112
206117
205873
205539
205223
204892
204575
204270
203980
203712
203453
203219
202978
202788
202581
206733
206461
206115
205765
205405
205059
204733
204426
204148
203883
203653
203409
203225
203015
207351
207059
206669
206268
205880
205512
205172
204861
204583
204319
204088
203846
203657
203458
199621
199319
199067
198743
198455
198154
197849
197526
197196
196858
196554
196252
196039
195831
200134
199820
199609
199343
199098
198826
198537
198221
197895
197576
197305
197053
196857
196715
200603
200310
200137
199919
199710
199475
199213
198928
198626
198327
198059
197817
197601
197432
201176
200888
200723
200527
200339
200129
199895
199635
199359
199075
198803
198568
198329
198141
201853
201568
201378
201176
200985
200783
200564
200324
200070
199800
199528
199271
199009
198810
202615
202321
202091
201868
201659
201450
201232
201000
200754
200489
200211
199936
199659
199430
203403
203114
202843
202589
202348
202118
201886
201647
201396
201127
200839
200548
200261
200008
204184
203898
203591
203307
203030
202771
202514
202256
201990
201707
201404
201098
200806
200537
204919
204637
204301
203992
203684
203395
203109
202826
202537
202236
201919
201602
201308
201033
205589
205308
204944
204614
204278
203962
203651
203345
203038
202720
202391
202068
201770
201497
206190
205901
205520
205174
204817
204482
204149
203820
203495
203162
202831
202508
202215
201935
206729
206432
206027
205662
205286
204934
204588
204251
203922
203585
203253
202930
202640
202361
207298
206967
206548
206155
205754
205378
205010
204653
204307
203966
203640
203316
203038
202760
207801
207466
207011
206591
206172
205783
205406
205048
204702
204362
204033
203708
203424
203163
200154
199848
199614
199321
199047
198738
198415
198071
197715
197338
196980
196574
196274
196012
200640
200310
200099
199845
199607
199334
199039
198713
198358
197989
197644
197298
197012
196780
201154
200808
200614
200386
200175
199938
199671
199372
199039
198689
198345
198030
197725
197490
201798
201449
201237
201007
200796
200570
200321
200043
199731
199396
199054
198738
198425
198179
202516
202175
201925
201673
201443
201210
200965
200700
200407
200085
199747
199418
199083
198835
203295
202950
202657
202375
202115
201864
201610
201345
201059
200740
200400
200056
199713
199433
204045
203719
203389
203076
202779
202503
202231
201957
201664
201342
200992
200634
200284
199976
204776
204443
204078
203739
203411
203109
202816
202523
202216
201880
201517
201146
200787
200461
205430
205091
204700
204344
203993
203672
203355
203041
202712
202357
201978
201597
201236
200907
206003
205656
205241
204875
204509
204174
203841
203507
203160
202786
202393
202007
201647
201319
206522
206159
205731
205358
204983
204636
204284
203928
203562
203172
202775
202390
202033
201701
206981
206618
206175
205796
205410
205053
204689
204323
203946
203545
203142
202753
202402
202077
207504
207121
206671
206271
205864
205482
205090
204697
204298
203887
203490
203098
202765
202438
207979
207587
207117
206704
206285
205888
205482
205078
204668
204251
203844
203455
203111
202810
200621
200296
200066
199796
199546
199267
198972
198652
198314
197937
197549
197073
196689
196316
201134
200775
200564
200308
200077
199820
199548
199243
198899
198519
198121
197704
197311
196978
201670
201302
201084
200844
200629
200398
200140
199846
199509
199134
198733
198340
197941
197621
202333
201977
201729
201479
201249
201008
200747
200456
200123
199751
199351
198961
198562
198266
203005
202677
202414
202130
201873
201615
201343
201048
200718
200351
199958
199568
199172
198875
203752
203411
203092
202793
202506
202221
201931
201625
201291
200924
200533
200137
199746
199429
204435
204105
203766
203433
203109
202798
202487
202168
201826
201453
201057
200655
200266
199925
205106
204760
204380
204021
203669
203336
203006
202673
202318
201934
201528
201118
200730
200371
205689
205330
204923
204552
204184
203837
203490
203139
202767
202364
201947
201530
201144
200784
206201
205829
205400
205026
204651
204299
203939
203571
203179
202759
202331
201909
201525
201171
206675
206291
205852
205481
205100
204739
204360
203970
203557
203120
202683
202264
201887
201533
207093
206722
206277
205908
205521
205153
204759
204352
203922
203472
203025
202600
202223
201875
207606
207225
206775
206383
205973
205575
205148
204709
204256
203791
203347
202919
202563
202205
208073
207681
207222
206817
206390
205967
205517
205061
204596
204126
203676
203249
202883
202550
201074
200735
200504
200254
200033
199789
199534
199250
198941
198591
198211
197729
197323
196872
201592
201249
201034
200778
200551
200308
200056
199779
199458
199096
198695
198260
197812
197413
202056
201723
201509
201277
201064
200839
200592
200306
199977
199607
199195
198770
198316
197940
202661
202346
202105
201860
201630
201388
201124
200827
200487
200106
199687
199263
198819
198466
203267
202970
202720
202449
202188
201922
201638
201327
200976
200589
200171
199749
199321
198974
203938
203626
203317
203022
202739
202449
202143
201815
201454
201060
200642
200220
199806
199452
204569
204237
203910
203590
203268
202949
202622
202280
201908
201508
201088
200667
200261
199894
205183
204834
204464
204119
203770
203431
203084
202725
202341
201931
201507
201082
200682
200304
205728
205365
204969
204613
204248
203894
203529
203153
202753
202328
201895
201464
201071
200693
206215
205851
205441
205084
204710
204346
203963
203566
203145
202702
202261
201828
201441
201071
206686
206323
205904
205548
205168
204790
204382
203957
203511
203047
202598
202169
201793
201428
207103
206760
206343
205996
205611
205218
204786
204334
203863
203383
202927
202499
202130
201768
207625
207277
206853
206472
206055
205625
205159
204674
204181
203687
203232
202808
202456
202084
208089
207705
207262
206858
206427
205978
205494
204995
204494
204003
203550
203129
202770
202420
201560
201231
200990
200736
200518
200291
200061
199807
199522
199203
198848
198400
198014
197566
202027
201719
201497
201235
201008
200772
200536
200286
199997
199669
199299
198891
198440
198036
202410
202113
201903
201676
201465
201244
201013
200752
200453
200117
199736
199331
198870
198466
202944
202655
202421
202185
201958
201726
201475
201197
200881
200530
200137
199726
199268
198870
203480
203194
202950
202704
202452
202193
201918
201619
201284
200918
200517
200100
199656
199262
204066
203766
203479
203197
202930
202653
202354
202032
201677
201296
200886
200466
200034
199638
204637
204310
204004
203708
203408
203102
202777
202431
202056
201659
201244
200823
200404
200008
205192
204858
204520
204202
203877
203546
203196
202825
202429
202015
201593
201172
200766
200368
205708
205371
205014
204686
204341
203990
203614
203216
202797
202365
201935
201510
201114
200716
206185
205864
205499
205169
204810
204439
204035
203609
203165
202711
202272
201842
201455
201064
206675
206365
205989
205651
205275
204880
204445
203987
203516
203041
202594
202163
201789
201407
207119
206823
206444
206106
205717
205297
204830
204341
203846
203358
202909
202483
202119
201740
207634
207316
206922
206548
206126
205665
205163
204648
204137
203640
203194
202777
202427
202041
208051
207678
207259
206860
206428
205955
205444
204918
204406
203926
203492
203087
202737
202363
194764
194775
194506
194242
194783
195590
194028
193481
192921
192617
193468
194534
194337
193558
192889
192466
193094
194033
194523
193645
192842
192185
192510
193126
194659
193776
192939
192200
192243
192453
194686
193780
192920
192148
191988
191870
194674
193753
192901
192166
191985
191758
194582
193624
192781
192130
192028
192243
194479
193499
192726
192187
192213
192724
194327
193313
192556
191978
191947
192435
194241
193239
192507
191907
191925
192243
194265
193186
192502
191882
192094
192167
194542
193500
193054
192531
192966
192524
193567
192633
192332
192248
193417
193137
195814
195971
195763
195684
195561
196009
195074
194824
194446
194401
194383
195079
195177
194656
194190
194083
194026
194693
195156
194506
193945
193745
193637
194310
195205
194492
193911
193645
193503
194103
195184
194434
193816
193441
193170
193622
195141
194345
193675
193158
192773
193112
195020
194141
193386
192743
192310
192585
194871
193908
193144
192504
192154
192504
194698
193663
192903
192226
191861
192200
194587
193561
192837
192142
191775
192061
194489
193456
192697
191979
191636
191763
194638
193681
193017
192331
191919
191755
193742
192717
191992
191548
191722
191945
197521
197615
197530
197466
197350
197510
196740
196564
196141
195943
195901
196244
196526
196120
195608
195338
195251
195545
196224
195690
195088
194810
194751
195026
196104
195480
194910
194619
194535
194812
195971
195296
194740
194405
194225
194332
195845
195122
194541
194129
193827
193800
195678
194877
194231
193709
193293
193225
195489
194605
193911
193348
193016
193085
195290
194343
193630
193033
192729
192828
195158
194213
193544
192927
192565
192596
195007
194053
193338
192608
192165
192151
195033
194117
193482
192763
192232
192032
194231
193215
192491
191874
191711
191772
198700
198743
198808
198817
198606
198537
198030
197824
197524
197292
197128
197215
197685
197293
196871
196487
196137
196204
197247
196701
196106
195645
195364
195458
196961
196333
195696
195253
194975
195044
196689
196025
195407
194983
194680
194620
196450
195772
195154
194704
194380
194166
196193
195483
194842
194321
193893
193532
195935
195154
194499
193922
193457
193167
195675
194857
194165
193531
193067
192918
195503
194649
194003
193416
192990
192783
195339
194482
193818
193141
192651
192460
195294
194502
193919
193276
192706
192416
194683
193828
193161
192496
192160
192134
199566
199589
199655
199756
199686
199659
199000
198914
198731
198658
198544
198550
198677
198448
198146
197873
197445
197357
198210
197799
197325
196917
196467
196432
197816
197248
196660
196167
195747
195721
197443
196779
196147
195646
195250
195140
197106
196427
195796
195287
194866
194707
196768
196090
195458
194924
194415
194060
196438
195747
195096
194539
193993
193552
196124
195398
194760
194146
193565
193182
195866
195106
194506
193930
193476
193184
195668
194884
194302
193677
193233
193019
195561
194825
194325
193775
193306
192980
195018
194238
193679
193078
192766
192711
200122
200132
200135
200237
200270
200341
199647
199649
199595
199583
199578
199714
199332
199223
199073
198946
198738
198645
198922
198653
198350
198061
197726
197586
198526
198084
197600
197158
196732
196655
198117
197540
196955
196462
196060
195965
197748
197102
196495
195972
195586
195541
197377
196708
196107
195557
195142
194962
197014
196353
195759
195214
194698
194362
196658
195980
195377
194791
194174
193781
196312
195608
195034
194468
193969
193631
196020
195300
194750
194165
193717
193466
195827
195118
194676
194242
193886
193570
195311
194608
194152
193686
193429
193363
200547
200553
200545
200629
200650
200712
200085
200081
200067
200138
200195
200394
199787
199707
199635
199662
199633
199678
199429
199238
199073
198980
198836
198743
199083
198753
198432
198166
197881
197706
198716
198236
197779
197380
196993
196831
198367
197785
197250
196784
196356
196271
198017
197375
196805
196296
195905
195749
197668
197005
196419
195866
195443
195189
197305
196643
196036
195445
194887
194516
196939
196250
195680
195073
194538
194176
196557
195863
195319
194694
194183
193902
196266
195562
195099
194635
194255
193944
195690
195000
194547
194095
193831
193736
200938
200923
200919
200987
201012
201065
200494
200442
200409
200483
200560
200774
200210
200109
200027
200063
200133
200306
199896
199721
199591
199578
199606
199677
199603
199329
199105
198987
198892
198837
199288
198889
198546
198296
198080
198018
198983
198468
198026
197649
197345
197337
198670
198073
197551
197084
196741
196656
198354
197714
197152
196632
196198
195981
198012
197357
196734
196141
195653
195325
197654
196978
196387
195789
195285
194931
197250
196584
196022
195409
194884
194568
196921
196239
195748
195259
194827
194466
196294
195614
195161
194694
194352
194184
201444
201420
201460
201556
201580
201580
201011
200951
200913
200983
201018
201083
200718
200604
200506
200525
200553
200620
200400
200221
200088
200089
200147
200248
200121
199865
199676
199623
199635
199653
199833
199483
199202
199059
198967
198891
199555
199101
198721
198448
198242
198148
199263
198718
198242
197832
197502
197362
198966
198352
197806
197311
196873
196518
198641
197984
197353
196759
196245
195865
198302
197621
197014
196429
195913
195499
197917
197255
196675
196071
195523
195112
197610
196940
196418
195907
195413
194940
197010
196312
195819
195339
194920
194613
196152
196070
196059
195278
195497
194446
195949
195867
195789
195388
195869
195230
196664
196488
196464
196244
196880
196329
197396
197219
197266
197161
197777
197420
198131
198019
198137
198157
198794
198906
198772
198781
198979
199179
199888
200096
199386
199477
199759
200105