/*--------------------------------*- C++ -*----------------------------------*\
| =========                 |                                                 |
| \\      /  F ield         | OpenFOAM: The Open Source CFD Toolbox           |
|  \\    /   O peration     | Version:  v2106                                 |
|   \\  /    A nd           | Website:  www.openfoam.com                      |
|    \\/     M anipulation  |                                                 |
\*---------------------------------------------------------------------------*/
FoamFile
{
    version     2.0;
    format      ascii;
    arch        "LSB;label=32;scalar=64";
    class       volScalarField;
    location    "0.000203";
    object      nut;
}
// * * * * * * * * * * * * * * * * * * * * * * * * * * * * * * * * * * * * * //

dimensions      [0 2 -1 0 0 0 0];

internalField   nonuniform List<scalar> 
17924
(
4.28234e-17
3.74802e-17
3.63486e-17
3.61371e-17
3.68863e-17
3.61873e-17
3.60337e-17
3.6006e-17
3.6007e-17
3.60164e-17
3.603e-17
3.76472e-17
3.63657e-17
3.606e-17
3.59967e-17
3.5986e-17
3.59857e-17
3.59874e-17
3.89295e-17
3.66765e-17
3.61238e-17
3.60055e-17
3.59836e-17
3.59806e-17
3.59807e-17
4.0431e-17
3.70322e-17
3.61959e-17
3.60156e-17
3.59822e-17
3.59773e-17
3.5977e-17
4.18474e-17
3.73312e-17
3.62481e-17
3.60206e-17
3.59795e-17
3.59736e-17
3.59732e-17
4.30582e-17
3.75333e-17
3.62709e-17
3.60188e-17
3.59756e-17
3.59698e-17
3.59694e-17
4.42048e-17
3.76843e-17
3.62783e-17
3.60138e-17
3.59713e-17
3.59661e-17
3.59659e-17
4.53174e-17
3.78035e-17
3.62782e-17
3.60087e-17
3.59686e-17
3.59646e-17
3.59648e-17
4.63018e-17
3.78846e-17
3.62755e-17
3.60092e-17
3.59756e-17
3.59757e-17
3.5978e-17
4.71679e-17
3.79427e-17
3.62859e-17
3.60408e-17
3.6032e-17
3.60519e-17
3.60653e-17
4.79235e-17
3.80232e-17
3.63697e-17
3.62126e-17
3.63122e-17
3.64254e-17
3.64934e-17
4.97193e-17
3.85003e-17
3.67843e-17
3.69501e-17
3.7501e-17
3.80211e-17
3.83391e-17
5.72594e-17
4.09527e-17
3.85035e-17
3.97538e-17
4.20245e-17
4.41876e-17
4.55917e-17
8.58913e-17
5.16307e-17
4.5405e-17
4.96555e-17
5.77204e-17
6.58662e-17
7.1518e-17
3.6084e-17
3.59982e-17
3.59803e-17
3.5978e-17
3.59792e-17
3.59815e-17
3.59844e-17
3.59873e-17
3.59895e-17
3.59901e-17
3.59883e-17
3.59856e-17
3.59851e-17
3.5996e-17
3.61857e-17
3.60206e-17
3.59821e-17
3.59748e-17
3.59743e-17
3.59751e-17
3.59762e-17
3.59773e-17
3.59783e-17
3.59792e-17
3.59796e-17
3.59797e-17
3.59818e-17
3.59965e-17
3.63547e-17
3.60601e-17
3.59884e-17
3.59738e-17
3.59718e-17
3.59724e-17
3.59732e-17
3.59742e-17
3.5975e-17
3.59757e-17
3.59763e-17
3.59768e-17
3.59798e-17
3.59974e-17
3.65537e-17
3.61057e-17
3.59957e-17
3.59728e-17
3.59693e-17
3.59697e-17
3.59705e-17
3.59714e-17
3.59721e-17
3.59728e-17
3.59732e-17
3.59737e-17
3.59769e-17
3.59964e-17
3.67374e-17
3.61431e-17
3.60002e-17
3.5971e-17
3.59665e-17
3.59668e-17
3.59676e-17
3.59685e-17
3.59693e-17
3.59698e-17
3.59702e-17
3.59706e-17
3.59739e-17
3.59951e-17
3.68843e-17
3.6166e-17
3.60005e-17
3.59682e-17
3.59635e-17
3.59637e-17
3.59646e-17
3.59654e-17
3.59661e-17
3.59666e-17
3.59669e-17
3.59674e-17
3.59705e-17
3.59928e-17
3.70114e-17
3.61806e-17
3.59985e-17
3.59648e-17
3.59602e-17
3.59605e-17
3.59614e-17
3.59622e-17
3.59629e-17
3.59634e-17
3.59637e-17
3.59642e-17
3.59671e-17
3.59893e-17
3.7122e-17
3.61896e-17
3.59951e-17
3.59613e-17
3.59569e-17
3.59574e-17
3.59582e-17
3.59591e-17
3.59596e-17
3.59602e-17
3.59604e-17
3.59609e-17
3.59634e-17
3.59833e-17
3.72043e-17
3.61925e-17
3.59912e-17
3.59581e-17
3.59545e-17
3.59553e-17
3.59564e-17
3.59572e-17
3.59576e-17
3.5958e-17
3.59581e-17
3.59584e-17
3.59603e-17
3.59762e-17
3.72571e-17
3.61908e-17
3.59883e-17
3.59578e-17
3.59569e-17
3.59597e-17
3.59618e-17
3.59627e-17
3.59626e-17
3.5962e-17
3.59611e-17
3.59605e-17
3.59609e-17
3.59716e-17
3.72707e-17
3.61871e-17
3.59924e-17
3.5972e-17
3.59823e-17
3.59946e-17
3.6002e-17
3.60036e-17
3.6001e-17
3.59962e-17
3.59905e-17
3.59856e-17
3.59816e-17
3.59878e-17
3.73228e-17
3.62098e-17
3.60294e-17
3.60458e-17
3.61037e-17
3.61576e-17
3.61888e-17
3.61952e-17
3.61835e-17
3.61616e-17
3.61354e-17
3.61114e-17
3.609e-17
3.60934e-17
3.77393e-17
3.63585e-17
3.61878e-17
3.63386e-17
3.65817e-17
3.68029e-17
3.69328e-17
3.69667e-17
3.69284e-17
3.68465e-17
3.67451e-17
3.66492e-17
3.65599e-17
3.65589e-17
3.97829e-17
3.69985e-17
3.6756e-17
3.73494e-17
3.82439e-17
3.90819e-17
3.95982e-17
3.97807e-17
3.97025e-17
3.94563e-17
3.91278e-17
3.88116e-17
3.85036e-17
3.84844e-17
3.5973e-17
3.59642e-17
3.59631e-17
3.59634e-17
3.59641e-17
3.5965e-17
3.5966e-17
3.59671e-17
3.59681e-17
3.59689e-17
3.59693e-17
3.59691e-17
3.59687e-17
3.59681e-17
3.59842e-17
3.59653e-17
3.59612e-17
3.59609e-17
3.59612e-17
3.5962e-17
3.59628e-17
3.59637e-17
3.59646e-17
3.59654e-17
3.59662e-17
3.59665e-17
3.59665e-17
3.59669e-17
3.60031e-17
3.5968e-17
3.59596e-17
3.59584e-17
3.59587e-17
3.59595e-17
3.59605e-17
3.59614e-17
3.59624e-17
3.59633e-17
3.5964e-17
3.59644e-17
3.59647e-17
3.59658e-17
3.60253e-17
3.59711e-17
3.59581e-17
3.5956e-17
3.59562e-17
3.59572e-17
3.59582e-17
3.59592e-17
3.59601e-17
3.5961e-17
3.59616e-17
3.59618e-17
3.59621e-17
3.59635e-17
3.60452e-17
3.59732e-17
3.59562e-17
3.59534e-17
3.59537e-17
3.59547e-17
3.59558e-17
3.59569e-17
3.59578e-17
3.59587e-17
3.59592e-17
3.59594e-17
3.59596e-17
3.5961e-17
3.60597e-17
3.59733e-17
3.59539e-17
3.59508e-17
3.59512e-17
3.59522e-17
3.59533e-17
3.59544e-17
3.59554e-17
3.59562e-17
3.59567e-17
3.5957e-17
3.5957e-17
3.59585e-17
3.60712e-17
3.59725e-17
3.59513e-17
3.59482e-17
3.59485e-17
3.59496e-17
3.59508e-17
3.59519e-17
3.59528e-17
3.59537e-17
3.59543e-17
3.59546e-17
3.59546e-17
3.59561e-17
3.60798e-17
3.59708e-17
3.59484e-17
3.59454e-17
3.59458e-17
3.5947e-17
3.59481e-17
3.59492e-17
3.59502e-17
3.59511e-17
3.59516e-17
3.59521e-17
3.59521e-17
3.59535e-17
3.60846e-17
3.59682e-17
3.59454e-17
3.59426e-17
3.59431e-17
3.59443e-17
3.59454e-17
3.59466e-17
3.59475e-17
3.59484e-17
3.5949e-17
3.59496e-17
3.59497e-17
3.59508e-17
3.60852e-17
3.59648e-17
3.59424e-17
3.59398e-17
3.59406e-17
3.5942e-17
3.59433e-17
3.59445e-17
3.59454e-17
3.59463e-17
3.59469e-17
3.59475e-17
3.59475e-17
3.59482e-17
3.60802e-17
3.5961e-17
3.59399e-17
3.59383e-17
3.59403e-17
3.59425e-17
3.59443e-17
3.59455e-17
3.59463e-17
3.59468e-17
3.5947e-17
3.59474e-17
3.59469e-17
3.59473e-17
3.6075e-17
3.59587e-17
3.59403e-17
3.59424e-17
3.59491e-17
3.59553e-17
3.59593e-17
3.59608e-17
3.59605e-17
3.59592e-17
3.59574e-17
3.59557e-17
3.59533e-17
3.59527e-17
3.60931e-17
3.59666e-17
3.59522e-17
3.59683e-17
3.59934e-17
3.60158e-17
3.60288e-17
3.60318e-17
3.60276e-17
3.60192e-17
3.6009e-17
3.5999e-17
3.59886e-17
3.59839e-17
3.62103e-17
3.6009e-17
3.60028e-17
3.60677e-17
3.61591e-17
3.62417e-17
3.62888e-17
3.63e-17
3.62843e-17
3.62517e-17
3.62115e-17
3.61721e-17
3.61324e-17
3.61092e-17
3.59514e-17
3.59509e-17
3.59509e-17
3.5951e-17
3.5951e-17
3.59512e-17
3.59516e-17
3.59522e-17
3.59528e-17
3.59535e-17
3.59542e-17
3.59546e-17
3.59547e-17
3.59539e-17
3.59509e-17
3.59491e-17
3.59484e-17
3.59481e-17
3.5948e-17
3.59481e-17
3.59485e-17
3.5949e-17
3.59496e-17
3.59504e-17
3.59512e-17
3.59517e-17
3.59519e-17
3.59517e-17
3.59509e-17
3.59468e-17
3.59454e-17
3.5945e-17
3.5945e-17
3.59452e-17
3.59457e-17
3.59464e-17
3.59471e-17
3.59479e-17
3.59487e-17
3.59491e-17
3.59495e-17
3.59497e-17
3.59508e-17
3.59445e-17
3.59425e-17
3.59422e-17
3.59422e-17
3.59425e-17
3.59431e-17
3.59438e-17
3.59445e-17
3.59452e-17
3.59459e-17
3.59462e-17
3.59466e-17
3.59469e-17
3.59503e-17
3.5942e-17
3.59396e-17
3.59393e-17
3.59394e-17
3.59399e-17
3.59406e-17
3.59414e-17
3.59422e-17
3.59429e-17
3.59435e-17
3.59438e-17
3.5944e-17
3.59442e-17
3.59491e-17
3.59394e-17
3.59369e-17
3.59367e-17
3.59369e-17
3.59374e-17
3.59381e-17
3.59389e-17
3.59397e-17
3.59405e-17
3.59411e-17
3.59414e-17
3.59415e-17
3.59416e-17
3.59479e-17
3.59369e-17
3.59343e-17
3.59341e-17
3.59344e-17
3.5935e-17
3.59358e-17
3.59366e-17
3.59375e-17
3.59383e-17
3.59389e-17
3.59393e-17
3.59393e-17
3.59395e-17
3.59463e-17
3.59343e-17
3.59317e-17
3.59316e-17
3.5932e-17
3.59327e-17
3.59334e-17
3.59343e-17
3.59352e-17
3.5936e-17
3.59367e-17
3.59372e-17
3.59372e-17
3.59375e-17
3.59442e-17
3.59316e-17
3.59292e-17
3.59292e-17
3.59297e-17
3.59304e-17
3.59312e-17
3.59321e-17
3.5933e-17
3.59339e-17
3.59346e-17
3.59352e-17
3.59353e-17
3.59356e-17
3.59417e-17
3.59288e-17
3.59266e-17
3.59267e-17
3.59273e-17
3.59281e-17
3.5929e-17
3.593e-17
3.59309e-17
3.59319e-17
3.59326e-17
3.59334e-17
3.59336e-17
3.59339e-17
3.59386e-17
3.59259e-17
3.5924e-17
3.59244e-17
3.59251e-17
3.59261e-17
3.59271e-17
3.59281e-17
3.59291e-17
3.59302e-17
3.5931e-17
3.5932e-17
3.59321e-17
3.59324e-17
3.59349e-17
3.59228e-17
3.59216e-17
3.59224e-17
3.59237e-17
3.59251e-17
3.59264e-17
3.59275e-17
3.59285e-17
3.59294e-17
3.59303e-17
3.5931e-17
3.59308e-17
3.59307e-17
3.59326e-17
3.59203e-17
3.59201e-17
3.59223e-17
3.59255e-17
3.59284e-17
3.59307e-17
3.59319e-17
3.59326e-17
3.59328e-17
3.59328e-17
3.59326e-17
3.59313e-17
3.59303e-17
3.59377e-17
3.59204e-17
3.59219e-17
3.59291e-17
3.59389e-17
3.59475e-17
3.59528e-17
3.59545e-17
3.59538e-17
3.59513e-17
3.59481e-17
3.59443e-17
3.59402e-17
3.59369e-17
3.59406e-17
3.59403e-17
3.594e-17
3.59397e-17
3.59394e-17
3.59392e-17
3.59392e-17
3.59395e-17
3.59399e-17
3.59406e-17
3.59413e-17
3.5942e-17
3.59425e-17
3.5942e-17
3.59385e-17
3.59381e-17
3.59373e-17
3.59367e-17
3.59361e-17
3.59358e-17
3.59358e-17
3.59359e-17
3.59363e-17
3.5937e-17
3.59378e-17
3.59384e-17
3.59389e-17
3.59389e-17
3.59362e-17
3.59351e-17
3.59339e-17
3.59333e-17
3.59327e-17
3.59326e-17
3.59325e-17
3.59328e-17
3.59332e-17
3.59338e-17
3.59346e-17
3.59351e-17
3.59358e-17
3.5936e-17
3.59334e-17
3.5932e-17
3.59308e-17
3.59302e-17
3.59296e-17
3.59295e-17
3.59294e-17
3.59297e-17
3.59301e-17
3.59306e-17
3.59312e-17
3.59316e-17
3.59322e-17
3.59325e-17
3.59305e-17
3.59289e-17
3.59277e-17
3.59271e-17
3.59266e-17
3.59265e-17
3.59266e-17
3.59268e-17
3.59272e-17
3.59277e-17
3.59282e-17
3.59286e-17
3.5929e-17
3.59293e-17
3.59276e-17
3.59259e-17
3.59248e-17
3.59243e-17
3.59239e-17
3.59238e-17
3.59239e-17
3.59241e-17
3.59244e-17
3.59249e-17
3.59254e-17
3.59258e-17
3.5926e-17
3.59263e-17
3.5925e-17
3.59232e-17
3.59221e-17
3.59217e-17
3.59213e-17
3.59213e-17
3.59214e-17
3.59216e-17
3.59219e-17
3.59224e-17
3.59229e-17
3.59233e-17
3.59235e-17
3.59239e-17
3.59223e-17
3.59205e-17
3.59195e-17
3.59192e-17
3.59189e-17
3.59189e-17
3.5919e-17
3.59193e-17
3.59196e-17
3.59201e-17
3.59206e-17
3.5921e-17
3.59212e-17
3.59215e-17
3.59197e-17
3.59179e-17
3.59172e-17
3.59169e-17
3.59167e-17
3.59168e-17
3.59169e-17
3.59172e-17
3.59176e-17
3.59181e-17
3.59185e-17
3.59191e-17
3.59192e-17
3.59195e-17
3.59172e-17
3.59153e-17
3.59148e-17
3.59147e-17
3.59146e-17
3.59147e-17
3.59149e-17
3.59153e-17
3.59157e-17
3.59163e-17
3.59168e-17
3.59174e-17
3.59176e-17
3.59179e-17
3.59148e-17
3.59129e-17
3.59127e-17
3.59126e-17
3.59127e-17
3.59129e-17
3.59132e-17
3.59137e-17
3.59142e-17
3.59148e-17
3.59154e-17
3.59162e-17
3.59163e-17
3.59167e-17
3.59122e-17
3.59104e-17
3.59105e-17
3.59107e-17
3.5911e-17
3.59113e-17
3.59118e-17
3.59123e-17
3.59129e-17
3.59135e-17
3.59143e-17
3.5915e-17
3.5915e-17
3.59151e-17
3.59094e-17
3.59078e-17
3.59085e-17
3.59089e-17
3.59096e-17
3.59102e-17
3.59109e-17
3.59115e-17
3.59122e-17
3.59128e-17
3.59135e-17
3.59139e-17
3.59134e-17
3.59128e-17
3.59068e-17
3.59052e-17
3.59066e-17
3.59077e-17
3.59093e-17
3.59106e-17
3.59118e-17
3.59125e-17
3.5913e-17
3.59134e-17
3.59135e-17
3.59131e-17
3.59121e-17
3.59108e-17
3.59304e-17
3.59298e-17
3.59294e-17
3.59289e-17
3.59285e-17
3.59283e-17
3.59282e-17
3.59284e-17
3.59288e-17
3.59294e-17
3.59302e-17
3.59309e-17
3.59317e-17
3.59315e-17
3.59281e-17
3.59276e-17
3.59267e-17
3.5926e-17
3.59254e-17
3.5925e-17
3.59248e-17
3.59249e-17
3.59252e-17
3.59258e-17
3.59266e-17
3.59272e-17
3.5928e-17
3.59281e-17
3.59256e-17
3.59247e-17
3.59235e-17
3.59228e-17
3.59221e-17
3.59218e-17
3.59216e-17
3.59217e-17
3.5922e-17
3.59225e-17
3.59232e-17
3.59238e-17
3.59247e-17
3.5925e-17
3.59225e-17
3.59216e-17
3.59205e-17
3.59197e-17
3.59191e-17
3.59187e-17
3.59185e-17
3.59185e-17
3.59187e-17
3.59191e-17
3.59197e-17
3.59201e-17
3.5921e-17
3.59214e-17
3.59194e-17
3.59185e-17
3.59175e-17
3.59168e-17
3.59161e-17
3.59158e-17
3.59156e-17
3.59156e-17
3.59157e-17
3.59161e-17
3.59166e-17
3.5917e-17
3.59177e-17
3.59181e-17
3.59164e-17
3.59156e-17
3.59147e-17
3.5914e-17
3.59134e-17
3.59131e-17
3.59129e-17
3.59128e-17
3.59129e-17
3.59132e-17
3.59136e-17
3.59141e-17
3.59145e-17
3.5915e-17
3.59138e-17
3.5913e-17
3.59121e-17
3.59115e-17
3.59109e-17
3.59106e-17
3.59103e-17
3.59103e-17
3.59104e-17
3.59106e-17
3.5911e-17
3.59114e-17
3.59118e-17
3.59124e-17
3.59111e-17
3.59104e-17
3.59096e-17
3.59091e-17
3.59086e-17
3.59083e-17
3.5908e-17
3.5908e-17
3.5908e-17
3.59082e-17
3.59085e-17
3.5909e-17
3.59093e-17
3.59099e-17
3.59086e-17
3.5908e-17
3.59074e-17
3.5907e-17
3.59065e-17
3.59062e-17
3.5906e-17
3.59059e-17
3.5906e-17
3.59061e-17
3.59064e-17
3.59068e-17
3.59071e-17
3.59077e-17
3.59064e-17
3.59057e-17
3.59053e-17
3.5905e-17
3.59046e-17
3.59044e-17
3.59042e-17
3.59041e-17
3.59041e-17
3.59043e-17
3.59045e-17
3.5905e-17
3.59052e-17
3.59058e-17
3.59044e-17
3.59037e-17
3.59035e-17
3.59032e-17
3.5903e-17
3.59028e-17
3.59026e-17
3.59026e-17
3.59026e-17
3.59028e-17
3.59031e-17
3.59037e-17
3.59038e-17
3.59043e-17
3.59024e-17
3.59017e-17
3.59018e-17
3.59017e-17
3.59016e-17
3.59014e-17
3.59013e-17
3.59013e-17
3.59014e-17
3.59015e-17
3.59019e-17
3.59024e-17
3.59023e-17
3.59026e-17
3.59003e-17
3.58998e-17
3.59003e-17
3.59003e-17
3.59003e-17
3.59002e-17
3.59003e-17
3.59003e-17
3.59004e-17
3.59006e-17
3.59009e-17
3.59012e-17
3.59006e-17
3.59001e-17
3.5898e-17
3.58976e-17
3.58988e-17
3.5899e-17
3.58994e-17
3.58995e-17
3.58997e-17
3.58998e-17
3.58998e-17
3.58998e-17
3.58998e-17
3.58994e-17
3.58985e-17
3.58974e-17
3.5918e-17
3.59179e-17
3.59177e-17
3.59176e-17
3.59174e-17
3.59173e-17
3.59174e-17
3.59176e-17
3.59181e-17
3.59187e-17
3.59195e-17
3.59203e-17
3.59212e-17
3.59212e-17
3.5916e-17
3.5916e-17
3.59156e-17
3.59152e-17
3.59148e-17
3.59146e-17
3.59146e-17
3.59147e-17
3.59151e-17
3.59157e-17
3.59165e-17
3.59171e-17
3.59179e-17
3.59181e-17
3.59139e-17
3.59136e-17
3.5913e-17
3.59126e-17
3.59121e-17
3.59119e-17
3.59119e-17
3.5912e-17
3.59123e-17
3.59129e-17
3.59136e-17
3.59142e-17
3.59152e-17
3.59155e-17
3.59112e-17
3.59109e-17
3.59104e-17
3.591e-17
3.59095e-17
3.59093e-17
3.59093e-17
3.59094e-17
3.59096e-17
3.591e-17
3.59106e-17
3.59111e-17
3.5912e-17
3.59125e-17
3.59085e-17
3.59082e-17
3.59077e-17
3.59073e-17
3.5907e-17
3.59068e-17
3.59067e-17
3.59068e-17
3.5907e-17
3.59074e-17
3.59079e-17
3.59084e-17
3.59092e-17
3.59097e-17
3.59058e-17
3.59057e-17
3.59052e-17
3.5905e-17
3.59046e-17
3.59045e-17
3.59044e-17
3.59044e-17
3.59046e-17
3.59049e-17
3.59053e-17
3.59058e-17
3.59064e-17
3.5907e-17
3.59035e-17
3.59034e-17
3.5903e-17
3.59028e-17
3.59024e-17
3.59023e-17
3.59022e-17
3.59022e-17
3.59023e-17
3.59026e-17
3.5903e-17
3.59035e-17
3.5904e-17
3.59048e-17
3.59012e-17
3.59011e-17
3.59009e-17
3.59007e-17
3.59004e-17
3.59003e-17
3.59001e-17
3.59001e-17
3.59002e-17
3.59004e-17
3.59008e-17
3.59013e-17
3.59017e-17
3.59026e-17
3.58992e-17
3.58992e-17
3.5899e-17
3.58989e-17
3.58987e-17
3.58985e-17
3.58983e-17
3.58983e-17
3.58983e-17
3.58985e-17
3.58988e-17
3.58993e-17
3.58997e-17
3.59006e-17
3.58975e-17
3.58973e-17
3.58973e-17
3.58972e-17
3.5897e-17
3.58968e-17
3.58967e-17
3.58966e-17
3.58966e-17
3.58967e-17
3.5897e-17
3.58975e-17
3.58979e-17
3.58988e-17
3.58961e-17
3.58958e-17
3.58959e-17
3.58958e-17
3.58957e-17
3.58955e-17
3.58953e-17
3.58952e-17
3.58951e-17
3.58952e-17
3.58955e-17
3.58962e-17
3.58964e-17
3.58973e-17
3.58947e-17
3.58943e-17
3.58946e-17
3.58946e-17
3.58945e-17
3.58943e-17
3.58941e-17
3.58939e-17
3.58939e-17
3.58939e-17
3.58942e-17
3.58948e-17
3.58949e-17
3.58954e-17
3.58931e-17
3.5893e-17
3.58936e-17
3.58936e-17
3.58935e-17
3.58933e-17
3.58931e-17
3.58929e-17
3.58928e-17
3.58928e-17
3.5893e-17
3.58933e-17
3.58929e-17
3.58928e-17
3.58917e-17
3.58917e-17
3.58927e-17
3.58927e-17
3.58928e-17
3.58927e-17
3.58925e-17
3.58923e-17
3.5892e-17
3.58918e-17
3.58917e-17
3.58912e-17
3.58904e-17
3.58897e-17
3.59015e-17
3.59024e-17
3.5903e-17
3.59036e-17
3.59039e-17
3.59042e-17
3.59046e-17
3.59051e-17
3.59058e-17
3.59065e-17
3.59074e-17
3.59083e-17
3.59091e-17
3.59091e-17
3.59005e-17
3.59013e-17
3.59017e-17
3.5902e-17
3.59022e-17
3.59025e-17
3.59029e-17
3.59034e-17
3.5904e-17
3.59048e-17
3.59056e-17
3.59064e-17
3.59071e-17
3.59074e-17
3.58991e-17
3.58997e-17
3.59e-17
3.59003e-17
3.59005e-17
3.59008e-17
3.59012e-17
3.59017e-17
3.59023e-17
3.5903e-17
3.59039e-17
3.59046e-17
3.59055e-17
3.5906e-17
3.58972e-17
3.58979e-17
3.58982e-17
3.58986e-17
3.58988e-17
3.58991e-17
3.58995e-17
3.58999e-17
3.59005e-17
3.59011e-17
3.59018e-17
3.59025e-17
3.59034e-17
3.59041e-17
3.58952e-17
3.5896e-17
3.58964e-17
3.58968e-17
3.5897e-17
3.58974e-17
3.58977e-17
3.58982e-17
3.58987e-17
3.58993e-17
3.59e-17
3.59006e-17
3.59014e-17
3.59022e-17
3.58933e-17
3.58941e-17
3.58946e-17
3.58951e-17
3.58954e-17
3.58957e-17
3.58961e-17
3.58965e-17
3.58969e-17
3.58975e-17
3.58981e-17
3.58987e-17
3.58994e-17
3.59002e-17
3.58917e-17
3.58925e-17
3.5893e-17
3.58935e-17
3.58938e-17
3.58941e-17
3.58944e-17
3.58948e-17
3.58952e-17
3.58957e-17
3.58963e-17
3.5897e-17
3.58976e-17
3.58985e-17
3.589e-17
3.58909e-17
3.58914e-17
3.5892e-17
3.58923e-17
3.58926e-17
3.58929e-17
3.58933e-17
3.58936e-17
3.58941e-17
3.58946e-17
3.58953e-17
3.58959e-17
3.58969e-17
3.58887e-17
3.58895e-17
3.58901e-17
3.58907e-17
3.5891e-17
3.58913e-17
3.58915e-17
3.58918e-17
3.58921e-17
3.58925e-17
3.5893e-17
3.58937e-17
3.58943e-17
3.58954e-17
3.58877e-17
3.58883e-17
3.5889e-17
3.58895e-17
3.58898e-17
3.589e-17
3.58902e-17
3.58905e-17
3.58907e-17
3.58911e-17
3.58915e-17
3.58923e-17
3.58929e-17
3.58939e-17
3.5887e-17
3.58874e-17
3.58881e-17
3.58885e-17
3.58888e-17
3.5889e-17
3.58891e-17
3.58892e-17
3.58894e-17
3.58898e-17
3.58902e-17
3.58911e-17
3.58916e-17
3.58927e-17
3.58862e-17
3.58865e-17
3.58873e-17
3.58877e-17
3.58879e-17
3.5888e-17
3.58881e-17
3.58882e-17
3.58883e-17
3.58886e-17
3.58891e-17
3.58898e-17
3.58901e-17
3.58909e-17
3.58853e-17
3.58857e-17
3.58867e-17
3.5887e-17
3.58872e-17
3.58872e-17
3.58872e-17
3.58872e-17
3.58872e-17
3.58874e-17
3.58878e-17
3.58883e-17
3.58883e-17
3.58886e-17
3.58847e-17
3.5885e-17
3.58862e-17
3.58865e-17
3.58867e-17
3.58866e-17
3.58866e-17
3.58864e-17
3.58863e-17
3.58863e-17
3.58864e-17
3.58862e-17
3.58858e-17
3.58854e-17
3.58782e-17
3.58804e-17
3.58821e-17
3.58837e-17
3.58849e-17
3.58859e-17
3.58869e-17
3.58878e-17
3.58888e-17
3.58899e-17
3.58911e-17
3.58921e-17
3.5893e-17
3.58931e-17
3.58785e-17
3.58806e-17
3.58821e-17
3.58835e-17
3.58846e-17
3.58856e-17
3.58867e-17
3.58877e-17
3.58888e-17
3.58899e-17
3.58911e-17
3.58921e-17
3.58931e-17
3.58936e-17
3.58783e-17
3.58803e-17
3.58817e-17
3.5883e-17
3.58842e-17
3.58853e-17
3.58864e-17
3.58874e-17
3.58885e-17
3.58896e-17
3.58908e-17
3.58918e-17
3.5893e-17
3.58938e-17
3.58777e-17
3.58796e-17
3.58811e-17
3.58825e-17
3.58837e-17
3.58848e-17
3.58859e-17
3.5887e-17
3.5888e-17
3.58891e-17
3.58902e-17
3.58912e-17
3.58923e-17
3.58932e-17
3.5877e-17
3.58788e-17
3.58804e-17
3.58819e-17
3.58831e-17
3.58842e-17
3.58853e-17
3.58864e-17
3.58874e-17
3.58885e-17
3.58895e-17
3.58905e-17
3.58915e-17
3.58925e-17
3.58761e-17
3.58781e-17
3.58797e-17
3.58812e-17
3.58824e-17
3.58836e-17
3.58847e-17
3.58857e-17
3.58867e-17
3.58877e-17
3.58887e-17
3.58897e-17
3.58906e-17
3.58916e-17
3.58756e-17
3.58775e-17
3.58791e-17
3.58806e-17
3.58818e-17
3.58829e-17
3.5884e-17
3.5885e-17
3.58859e-17
3.58869e-17
3.58879e-17
3.58889e-17
3.58897e-17
3.58909e-17
3.5875e-17
3.5877e-17
3.58785e-17
3.588e-17
3.58811e-17
3.58823e-17
3.58833e-17
3.58842e-17
3.58851e-17
3.58861e-17
3.5887e-17
3.5888e-17
3.58888e-17
3.589e-17
3.58746e-17
3.58765e-17
3.58781e-17
3.58795e-17
3.58806e-17
3.58816e-17
3.58825e-17
3.58834e-17
3.58842e-17
3.58851e-17
3.5886e-17
3.5887e-17
3.58879e-17
3.58891e-17
3.58745e-17
3.58762e-17
3.58776e-17
3.5879e-17
3.588e-17
3.5881e-17
3.58818e-17
3.58826e-17
3.58834e-17
3.58842e-17
3.58851e-17
3.58861e-17
3.5887e-17
3.58883e-17
3.58746e-17
3.5876e-17
3.58774e-17
3.58786e-17
3.58796e-17
3.58804e-17
3.58811e-17
3.58818e-17
3.58825e-17
3.58833e-17
3.58841e-17
3.58853e-17
3.58862e-17
3.58875e-17
3.58746e-17
3.58757e-17
3.58771e-17
3.58782e-17
3.58791e-17
3.58798e-17
3.58804e-17
3.5881e-17
3.58817e-17
3.58824e-17
3.58832e-17
3.58844e-17
3.58851e-17
3.58862e-17
3.58744e-17
3.58755e-17
3.5877e-17
3.58779e-17
3.58786e-17
3.58792e-17
3.58797e-17
3.58801e-17
3.58807e-17
3.58813e-17
3.58821e-17
3.58831e-17
3.58835e-17
3.58841e-17
3.58741e-17
3.58752e-17
3.58768e-17
3.58776e-17
3.58782e-17
3.58787e-17
3.58791e-17
3.58794e-17
3.58798e-17
3.58803e-17
3.58808e-17
3.58811e-17
3.58812e-17
3.58813e-17
3.58468e-17
3.585e-17
3.58529e-17
3.58554e-17
3.58575e-17
3.58594e-17
3.58612e-17
3.58628e-17
3.58644e-17
3.58659e-17
3.58674e-17
3.58688e-17
3.587e-17
3.58706e-17
3.58486e-17
3.58515e-17
3.58543e-17
3.58566e-17
3.58588e-17
3.58608e-17
3.58627e-17
3.58645e-17
3.58662e-17
3.58678e-17
3.58694e-17
3.58708e-17
3.58721e-17
3.58732e-17
3.585e-17
3.58529e-17
3.58555e-17
3.58579e-17
3.58601e-17
3.58621e-17
3.58641e-17
3.58659e-17
3.58677e-17
3.58693e-17
3.5871e-17
3.58724e-17
3.58738e-17
3.58751e-17
3.58509e-17
3.58537e-17
3.58565e-17
3.58589e-17
3.58611e-17
3.58632e-17
3.58652e-17
3.58671e-17
3.58689e-17
3.58705e-17
3.58722e-17
3.58736e-17
3.58751e-17
3.58765e-17
3.58517e-17
3.58545e-17
3.58573e-17
3.58598e-17
3.58621e-17
3.58642e-17
3.58662e-17
3.5868e-17
3.58698e-17
3.58714e-17
3.58731e-17
3.58745e-17
3.58759e-17
3.58773e-17
3.58524e-17
3.58553e-17
3.58581e-17
3.58605e-17
3.58628e-17
3.58649e-17
3.58669e-17
3.58688e-17
3.58705e-17
3.58722e-17
3.58738e-17
3.58752e-17
3.58766e-17
3.58779e-17
3.58533e-17
3.58562e-17
3.58589e-17
3.58613e-17
3.58635e-17
3.58656e-17
3.58675e-17
3.58693e-17
3.5871e-17
3.58726e-17
3.58741e-17
3.58756e-17
3.58769e-17
3.58784e-17
3.58541e-17
3.5857e-17
3.58595e-17
3.58619e-17
3.5864e-17
3.58661e-17
3.58679e-17
3.58697e-17
3.58713e-17
3.58729e-17
3.58744e-17
3.58759e-17
3.58772e-17
3.58787e-17
3.5855e-17
3.58578e-17
3.58602e-17
3.58626e-17
3.58646e-17
3.58665e-17
3.58682e-17
3.58699e-17
3.58714e-17
3.5873e-17
3.58744e-17
3.5876e-17
3.58773e-17
3.58789e-17
3.5856e-17
3.58586e-17
3.58608e-17
3.5863e-17
3.58649e-17
3.58668e-17
3.58684e-17
3.587e-17
3.58715e-17
3.5873e-17
3.58744e-17
3.5876e-17
3.58773e-17
3.5879e-17
3.58572e-17
3.58594e-17
3.58615e-17
3.58635e-17
3.58653e-17
3.5867e-17
3.58685e-17
3.58699e-17
3.58713e-17
3.58728e-17
3.58743e-17
3.5876e-17
3.58773e-17
3.58791e-17
3.5858e-17
3.586e-17
3.5862e-17
3.58639e-17
3.58655e-17
3.5867e-17
3.58684e-17
3.58698e-17
3.58712e-17
3.58726e-17
3.5874e-17
3.58757e-17
3.5877e-17
3.58786e-17
3.58586e-17
3.58604e-17
3.58625e-17
3.58641e-17
3.58656e-17
3.58669e-17
3.58682e-17
3.58694e-17
3.58707e-17
3.5872e-17
3.58735e-17
3.58751e-17
3.58761e-17
3.58773e-17
3.5859e-17
3.58608e-17
3.58627e-17
3.58642e-17
3.58655e-17
3.58668e-17
3.5868e-17
3.58691e-17
3.58703e-17
3.58715e-17
3.58728e-17
3.58738e-17
3.58746e-17
3.58754e-17
3.58103e-17
3.58138e-17
3.58172e-17
3.58202e-17
3.5823e-17
3.58255e-17
3.58279e-17
3.583e-17
3.58321e-17
3.5834e-17
3.58359e-17
3.58375e-17
3.58391e-17
3.58402e-17
3.58133e-17
3.58165e-17
3.58198e-17
3.58228e-17
3.58257e-17
3.58283e-17
3.58309e-17
3.58332e-17
3.58354e-17
3.58375e-17
3.58396e-17
3.58414e-17
3.58431e-17
3.58448e-17
3.58164e-17
3.58194e-17
3.58227e-17
3.58257e-17
3.58286e-17
3.58313e-17
3.58339e-17
3.58363e-17
3.58386e-17
3.58407e-17
3.58428e-17
3.58447e-17
3.58465e-17
3.58484e-17
3.58188e-17
3.58218e-17
3.58252e-17
3.58282e-17
3.58312e-17
3.58339e-17
3.58366e-17
3.58391e-17
3.58414e-17
3.58437e-17
3.58458e-17
3.58477e-17
3.58496e-17
3.58516e-17
3.58212e-17
3.58244e-17
3.58277e-17
3.58308e-17
3.58337e-17
3.58365e-17
3.58392e-17
3.58417e-17
3.5844e-17
3.58463e-17
3.58484e-17
3.58504e-17
3.58523e-17
3.58541e-17
3.58237e-17
3.58269e-17
3.58301e-17
3.58332e-17
3.58361e-17
3.58389e-17
3.58415e-17
3.5844e-17
3.58464e-17
3.58487e-17
3.58508e-17
3.58528e-17
3.58547e-17
3.58565e-17
3.58261e-17
3.58294e-17
3.58325e-17
3.58355e-17
3.58383e-17
3.58411e-17
3.58437e-17
3.58461e-17
3.58485e-17
3.58507e-17
3.58529e-17
3.58549e-17
3.58568e-17
3.58587e-17
3.58285e-17
3.58317e-17
3.58347e-17
3.58376e-17
3.58403e-17
3.5843e-17
3.58456e-17
3.5848e-17
3.58503e-17
3.58526e-17
3.58547e-17
3.58568e-17
3.58587e-17
3.58607e-17
3.58308e-17
3.58339e-17
3.58368e-17
3.58396e-17
3.58423e-17
3.58449e-17
3.58473e-17
3.58497e-17
3.58519e-17
3.58542e-17
3.58563e-17
3.58584e-17
3.58603e-17
3.58624e-17
3.58331e-17
3.58361e-17
3.58387e-17
3.58414e-17
3.5844e-17
3.58465e-17
3.58488e-17
3.58512e-17
3.58534e-17
3.58556e-17
3.58577e-17
3.58599e-17
3.58618e-17
3.5864e-17
3.58354e-17
3.58381e-17
3.58406e-17
3.58431e-17
3.58456e-17
3.58479e-17
3.58502e-17
3.58524e-17
3.58546e-17
3.58567e-17
3.58589e-17
3.58612e-17
3.58633e-17
3.58656e-17
3.58374e-17
3.58398e-17
3.58422e-17
3.58446e-17
3.58469e-17
3.58492e-17
3.58514e-17
3.58535e-17
3.58557e-17
3.58578e-17
3.586e-17
3.58624e-17
3.58644e-17
3.58667e-17
3.5839e-17
3.58413e-17
3.58436e-17
3.58459e-17
3.58481e-17
3.58502e-17
3.58523e-17
3.58544e-17
3.58565e-17
3.58586e-17
3.58608e-17
3.58632e-17
3.5865e-17
3.5867e-17
3.58401e-17
3.58424e-17
3.58448e-17
3.58469e-17
3.5849e-17
3.58511e-17
3.58532e-17
3.58552e-17
3.58573e-17
3.58594e-17
3.58615e-17
3.58634e-17
3.5865e-17
3.58667e-17
3.57764e-17
3.57791e-17
3.5782e-17
3.57847e-17
3.57874e-17
3.57898e-17
3.57922e-17
3.57944e-17
3.57966e-17
3.57986e-17
3.58006e-17
3.58025e-17
3.58042e-17
3.58055e-17
3.57804e-17
3.57827e-17
3.57857e-17
3.57883e-17
3.5791e-17
3.57936e-17
3.57961e-17
3.57985e-17
3.58009e-17
3.58031e-17
3.58053e-17
3.58073e-17
3.58092e-17
3.58112e-17
3.57844e-17
3.57867e-17
3.57896e-17
3.57923e-17
3.5795e-17
3.57976e-17
3.58002e-17
3.58026e-17
3.5805e-17
3.58073e-17
3.58096e-17
3.58117e-17
3.58137e-17
3.58158e-17
3.57881e-17
3.57904e-17
3.57933e-17
3.5796e-17
3.57988e-17
3.58014e-17
3.58041e-17
3.58066e-17
3.58091e-17
3.58115e-17
3.58138e-17
3.5816e-17
3.58181e-17
3.58203e-17
3.57917e-17
3.57942e-17
3.57971e-17
3.57998e-17
3.58026e-17
3.58053e-17
3.58079e-17
3.58105e-17
3.5813e-17
3.58155e-17
3.58178e-17
3.58201e-17
3.58222e-17
3.58244e-17
3.57955e-17
3.5798e-17
3.58008e-17
3.58035e-17
3.58063e-17
3.5809e-17
3.58117e-17
3.58143e-17
3.58169e-17
3.58194e-17
3.58218e-17
3.58241e-17
3.58263e-17
3.58285e-17
3.57991e-17
3.58017e-17
3.58045e-17
3.58072e-17
3.58099e-17
3.58126e-17
3.58153e-17
3.58179e-17
3.58205e-17
3.5823e-17
3.58255e-17
3.58279e-17
3.58301e-17
3.58323e-17
3.58027e-17
3.58054e-17
3.5808e-17
3.58107e-17
3.58134e-17
3.58161e-17
3.58187e-17
3.58214e-17
3.5824e-17
3.58266e-17
3.58291e-17
3.58315e-17
3.58338e-17
3.5836e-17
3.58062e-17
3.58088e-17
3.58114e-17
3.58141e-17
3.58167e-17
3.58194e-17
3.5822e-17
3.58247e-17
3.58273e-17
3.58299e-17
3.58324e-17
3.58349e-17
3.58372e-17
3.58395e-17
3.58097e-17
3.58122e-17
3.58147e-17
3.58173e-17
3.58199e-17
3.58225e-17
3.58252e-17
3.58278e-17
3.58304e-17
3.5833e-17
3.58356e-17
3.58381e-17
3.58405e-17
3.58429e-17
3.5813e-17
3.58154e-17
3.58177e-17
3.58203e-17
3.58229e-17
3.58255e-17
3.58281e-17
3.58308e-17
3.58334e-17
3.5836e-17
3.58386e-17
3.58412e-17
3.58437e-17
3.58462e-17
3.58161e-17
3.58184e-17
3.58207e-17
3.58232e-17
3.58257e-17
3.58283e-17
3.58309e-17
3.58335e-17
3.58361e-17
3.58387e-17
3.58414e-17
3.58441e-17
3.58467e-17
3.58492e-17
3.58187e-17
3.5821e-17
3.58234e-17
3.58258e-17
3.58283e-17
3.58308e-17
3.58335e-17
3.5836e-17
3.58387e-17
3.58413e-17
3.58441e-17
3.58468e-17
3.58493e-17
3.58517e-17
3.5821e-17
3.58233e-17
3.58258e-17
3.58282e-17
3.58307e-17
3.58332e-17
3.58358e-17
3.58384e-17
3.58411e-17
3.58437e-17
3.58464e-17
3.58489e-17
3.58512e-17
3.58534e-17
3.57525e-17
3.57535e-17
3.57552e-17
3.57568e-17
3.57585e-17
3.57603e-17
3.57621e-17
3.57639e-17
3.57656e-17
3.57673e-17
3.5769e-17
3.57707e-17
3.57722e-17
3.57735e-17
3.57568e-17
3.57577e-17
3.57593e-17
3.57607e-17
3.57624e-17
3.57642e-17
3.57661e-17
3.5768e-17
3.57698e-17
3.57717e-17
3.57736e-17
3.57754e-17
3.5777e-17
3.57788e-17
3.57608e-17
3.57617e-17
3.57634e-17
3.57648e-17
3.57666e-17
3.57684e-17
3.57703e-17
3.57723e-17
3.57742e-17
3.57761e-17
3.5778e-17
3.57798e-17
3.57816e-17
3.57836e-17
3.57648e-17
3.57658e-17
3.57675e-17
3.5769e-17
3.57708e-17
3.57727e-17
3.57746e-17
3.57766e-17
3.57786e-17
3.57806e-17
3.57826e-17
3.57845e-17
3.57863e-17
3.57884e-17
3.57688e-17
3.577e-17
3.57716e-17
3.57733e-17
3.57751e-17
3.5777e-17
3.5779e-17
3.57811e-17
3.57831e-17
3.57851e-17
3.57872e-17
3.57891e-17
3.5791e-17
3.57931e-17
3.57729e-17
3.57742e-17
3.57759e-17
3.57776e-17
3.57794e-17
3.57814e-17
3.57834e-17
3.57855e-17
3.57876e-17
3.57898e-17
3.57919e-17
3.57939e-17
3.57959e-17
3.57979e-17
3.5777e-17
3.57785e-17
3.57801e-17
3.57819e-17
3.57838e-17
3.57858e-17
3.57879e-17
3.579e-17
3.57922e-17
3.57943e-17
3.57965e-17
3.57986e-17
3.58007e-17
3.58026e-17
3.57811e-17
3.57827e-17
3.57843e-17
3.57861e-17
3.57881e-17
3.57901e-17
3.57923e-17
3.57945e-17
3.57967e-17
3.57989e-17
3.58012e-17
3.58033e-17
3.58055e-17
3.58075e-17
3.57851e-17
3.57867e-17
3.57884e-17
3.57903e-17
3.57923e-17
3.57944e-17
3.57966e-17
3.57988e-17
3.58011e-17
3.58034e-17
3.58057e-17
3.58079e-17
3.58101e-17
3.58121e-17
3.57891e-17
3.57908e-17
3.57925e-17
3.57945e-17
3.57964e-17
3.57986e-17
3.58008e-17
3.58031e-17
3.58055e-17
3.58078e-17
3.58101e-17
3.58124e-17
3.58148e-17
3.58168e-17
3.5793e-17
3.57947e-17
3.57964e-17
3.57984e-17
3.58005e-17
3.58027e-17
3.5805e-17
3.58073e-17
3.58097e-17
3.58121e-17
3.58145e-17
3.58169e-17
3.58193e-17
3.58215e-17
3.57968e-17
3.57985e-17
3.58003e-17
3.58023e-17
3.58044e-17
3.58067e-17
3.5809e-17
3.58114e-17
3.58138e-17
3.58162e-17
3.58187e-17
3.58212e-17
3.58238e-17
3.5826e-17
3.58001e-17
3.58018e-17
3.58038e-17
3.58059e-17
3.58081e-17
3.58104e-17
3.58128e-17
3.58153e-17
3.58178e-17
3.58203e-17
3.58229e-17
3.58255e-17
3.5828e-17
3.58301e-17
3.58033e-17
3.5805e-17
3.58072e-17
3.58094e-17
3.58118e-17
3.58141e-17
3.58166e-17