/*--------------------------------*- C++ -*----------------------------------*\
| =========                 |                                                 |
| \\      /  F ield         | OpenFOAM: The Open Source CFD Toolbox           |
|  \\    /   O peration     | Version:  v2106                                 |
|   \\  /    A nd           | Website:  www.openfoam.com                      |
|    \\/     M anipulation  |                                                 |
\*---------------------------------------------------------------------------*/
FoamFile
{
    version     2.0;
    format      ascii;
    arch        "LSB;label=32;scalar=64";
    class       volVectorField;
    location    "0.000193";
    object      U;
}
// * * * * * * * * * * * * * * * * * * * * * * * * * * * * * * * * * * * * * //

dimensions      [0 1 -1 0 0 0 0];

internalField   nonuniform List<vector> 
18109
(
(2.79337 17.3622 -80.1714)
(1.65373 17.738 -80.6585)
(0.678799 18.3813 -81.2398)
(-0.210044 19.0263 -81.6544)
(-0.94362 19.7094 -81.8706)
(-1.56467 20.3458 -82.0884)
(-2.02444 20.9366 -82.5447)
(2.43387 17.9178 -80.4128)
(1.45128 18.3736 -81.1351)
(0.57468 18.7714 -81.7583)
(-0.197323 19.2332 -82.1525)
(-0.793033 19.7987 -82.3921)
(-1.29265 20.3449 -82.5861)
(-1.63302 20.9304 -82.9561)
(2.17532 18.5561 -80.6177)
(1.22722 18.9243 -81.3996)
(0.430678 19.1735 -82.0372)
(-0.258799 19.5123 -82.4651)
(-0.762842 19.965 -82.8322)
(-1.20262 20.3858 -83.0986)
(-1.52872 20.8143 -83.425)
(1.83721 19.1331 -80.7409)
(1.05096 19.3056 -81.6097)
(0.404648 19.399 -82.3244)
(-0.193633 19.6115 -82.8017)
(-0.6193 19.9499 -83.2268)
(-0.975723 20.3165 -83.5437)
(-1.25685 20.7087 -83.8427)
(1.50806 19.5114 -80.8341)
(0.905049 19.5501 -81.7371)
(0.406469 19.5505 -82.5227)
(-0.0873294 19.6823 -83.102)
(-0.450288 19.9309 -83.601)
(-0.761921 20.2138 -83.9812)
(-1.02452 20.5248 -84.2748)
(1.21168 19.7066 -80.9461)
(0.762161 19.677 -81.8767)
(0.383162 19.6174 -82.6994)
(-0.00394753 19.6853 -83.3595)
(-0.303085 19.8415 -83.9199)
(-0.56028 20.0589 -84.3497)
(-0.782032 20.3253 -84.6635)
(0.936259 19.8086 -81.054)
(0.617597 19.7467 -82.0118)
(0.299975 19.6173 -82.8399)
(-0.0119315 19.6229 -83.5671)
(-0.266699 19.6862 -84.1737)
(-0.487912 19.8211 -84.6379)
(-0.671731 20.0207 -84.9763)
(0.640659 19.8547 -81.1106)
(0.45355 19.7623 -82.1287)
(0.163853 19.5882 -82.9721)
(-0.0935249 19.5445 -83.7362)
(-0.328933 19.512 -84.3522)
(-0.515811 19.5505 -84.83)
(-0.675442 19.666 -85.1846)
(1.85345 17.5355 -79.5334)
(0.793409 17.8504 -79.9191)
(-0.161909 18.1519 -80.4187)
(-1.03879 18.5317 -80.7045)
(-1.82692 18.9627 -80.8439)
(-2.52502 19.4265 -80.9598)
(-3.05274 19.9207 -81.3799)
(-3.37753 20.5141 -81.8371)
(-3.44739 21.2266 -82.3943)
(-3.33701 22.0609 -82.9649)
(-2.90716 22.8649 -83.6222)
(-2.33604 23.5826 -84.1772)
(-1.60109 23.8615 -84.528)
(-1.25243 23.7976 -84.5877)
(1.29443 18.2559 -79.7265)
(0.433762 18.5788 -80.3231)
(-0.404273 18.688 -80.8004)
(-1.16828 18.9149 -81.1058)
(-1.80899 19.2684 -81.313)
(-2.3703 19.6339 -81.4291)
(-2.78763 20.0723 -81.7625)
(-3.08408 20.5711 -82.1453)
(-3.16999 21.1178 -82.6939)
(-3.07816 21.7458 -83.2186)
(-2.79055 22.3424 -83.781)
(-2.46125 22.9402 -84.2686)
(-1.9509 23.2523 -84.6938)
(-1.60419 23.3063 -84.7734)
(0.887381 19.0709 -79.8349)
(0.0873405 19.1837 -80.5235)
(-0.637099 19.1491 -81.0509)
(-1.31383 19.226 -81.4212)
(-1.86751 19.4667 -81.7409)
(-2.3575 19.7571 -81.9103)
(-2.73754 20.0881 -82.2032)
(-3.02234 20.426 -82.5208)
(-3.1403 20.8108 -83.0028)
(-3.103 21.2923 -83.5095)
(-2.91028 21.7974 -84.0586)
(-2.61664 22.3036 -84.5718)
(-2.19548 22.6154 -85.0208)
(-1.84126 22.7616 -85.163)
(0.458334 19.7008 -79.9426)
(-0.168082 19.6198 -80.7196)
(-0.758996 19.4624 -81.3415)
(-1.34584 19.4312 -81.7832)
(-1.81926 19.576 -82.1729)
(-2.22963 19.8047 -82.4085)
(-2.54827 20.076 -82.6699)
(-2.79822 20.346 -82.9598)
(-2.9289 20.6228 -83.413)
(-2.92494 20.9652 -83.9179)
(-2.80966 21.3436 -84.4429)
(-2.57161 21.7377 -84.9278)
(-2.25304 22.0246 -85.3564)
(-1.89718 22.1523 -85.544)
(0.0672228 20.0809 -80.0027)
(-0.384792 19.9149 -80.8168)
(-0.823808 19.6967 -81.5504)
(-1.31059 19.5908 -82.1173)
(-1.71092 19.6119 -82.6007)
(-2.07143 19.745 -82.9244)
(-2.35875 19.928 -83.1861)
(-2.59575 20.1083 -83.4488)
(-2.74255 20.3081 -83.8579)
(-2.76392 20.5746 -84.3415)
(-2.69079 20.8931 -84.8463)
(-2.51832 21.2272 -85.321)
(-2.28422 21.4897 -85.7135)
(-1.97295 21.5753 -85.9488)
(-0.252407 20.25 -80.105)
(-0.574249 20.0677 -80.9408)
(-0.879191 19.8108 -81.7361)
(-1.25267 19.6456 -82.4218)
(-1.56171 19.5601 -82.9906)
(-1.85366 19.6173 -83.3993)
(-2.09222 19.7513 -83.6954)
(-2.30063 19.8867 -83.9522)
(-2.451 20.0294 -84.3275)
(-2.5059 20.2176 -84.7772)
(-2.47358 20.4628 -85.2392)
(-2.36253 20.7329 -85.6658)
(-2.18746 20.9524 -86.0012)
(-1.93976 20.9925 -86.2426)
(-0.531043 20.2701 -80.2174)
(-0.74858 20.0848 -81.0973)
(-0.971899 19.773 -81.918)
(-1.2536 19.556 -82.7006)
(-1.48619 19.395 -83.345)
(-1.71565 19.3652 -83.8064)
(-1.90401 19.4385 -84.131)
(-2.07141 19.5397 -84.3838)
(-2.19493 19.6652 -84.7259)
(-2.26735 19.8111 -85.1306)
(-2.27408 20.0074 -85.5492)
(-2.23451 20.227 -85.9438)
(-2.13873 20.4059 -86.264)
(-2.00042 20.4447 -86.5137)
(-0.812788 20.1918 -80.3377)
(-0.898075 19.9813 -81.2791)
(-1.07148 19.6486 -82.138)
(-1.27068 19.3965 -82.9722)
(-1.45719 19.168 -83.636)
(-1.62713 19.0553 -84.1118)
(-1.77691 19.0667 -84.4512)
(-1.90729 19.1518 -84.7238)
(-2.00878 19.271 -85.0421)
(-2.0906 19.3895 -85.4125)
(-2.13851 19.5526 -85.7913)
(-2.17132 19.7269 -86.1423)
(-2.17148 19.8657 -86.4202)
(-2.17254 19.9265 -86.6395)
(-1.06348 20.0098 -80.5787)
(-1.03366 19.778 -81.5053)
(-1.19244 19.4559 -82.3678)
(-1.31792 19.174 -83.1867)
(-1.4732 18.8986 -83.823)
(-1.60524 18.7245 -84.2954)
(-1.74824 18.6808 -84.6411)
(-1.87651 18.7366 -84.9274)
(-1.98007 18.8419 -85.2304)
(-2.07101 18.9339 -85.5795)
(-2.15064 19.0778 -85.9289)
(-2.23944 19.2332 -86.2668)
(-2.36243 19.3717 -86.5451)
(-2.50265 19.4805 -86.819)
(-1.36331 19.7438 -80.9167)
(-1.21123 19.5156 -81.7902)
(-1.3236 19.2127 -82.6038)
(-1.35622 18.9109 -83.3385)
(-1.46659 18.6231 -83.918)
(-1.55945 18.4215 -84.3795)
(-1.69378 18.3482 -84.7437)
(-1.84099 18.378 -85.0392)
(-1.99445 18.4586 -85.3112)
(-2.13411 18.5196 -85.6574)
(-2.28189 18.6469 -86.0352)
(-2.45673 18.8235 -86.43)
(-2.74866 18.9968 -86.7176)
(-3.03148 19.2133 -87.0985)
(-1.71503 19.3837 -81.3276)
(-1.41198 19.171 -82.0686)
(-1.45542 18.9109 -82.8068)
(-1.4136 18.6176 -83.4609)
(-1.44621 18.3468 -84.0051)
(-1.48671 18.1595 -84.4442)
(-1.61229 18.0874 -84.8024)
(-1.77824 18.1047 -85.1036)
(-1.99008 18.1548 -85.3647)
(-2.19254 18.186 -85.7463)
(-2.44874 18.2917 -86.1425)
(-2.73917 18.5181 -86.5753)
(-3.22614 18.7674 -86.8597)
(-3.66873 19.1297 -87.3139)
(-2.13518 18.8069 -81.5369)
(-1.66914 18.7331 -82.2454)
(-1.60385 18.5513 -82.9665)
(-1.4701 18.2892 -83.5281)
(-1.43312 18.0655 -84.0015)
(-1.45212 17.9251 -84.4035)
(-1.58412 17.8765 -84.7523)
(-1.75452 17.8918 -85.0742)
(-2.00895 17.9374 -85.3294)
(-2.29002 17.9589 -85.7385)
(-2.67636 18.0745 -86.1615)
(-3.05487 18.3945 -86.6468)
(-3.61666 18.7504 -86.9416)
(-4.11032 19.1796 -87.3846)
(-2.8866 18.3944 -81.8741)
(-2.19425 18.2955 -82.2883)
(-1.87197 18.1152 -82.9481)
(-1.55073 17.9354 -83.4513)
(-1.3827 17.837 -83.8773)
(-1.37322 17.795 -84.2571)
(-1.52334 17.7845 -84.595)
(-1.72458 17.7705 -84.9506)
(-2.04364 17.8209 -85.232)
(-2.3878 17.8479 -85.6651)
(-2.83011 17.936 -86.0871)
(-3.24773 18.2527 -86.5538)
(-3.75928 18.6917 -86.8756)
(-4.20534 19.2236 -87.2462)
(-3.50043 17.5627 -82.0408)
(-2.6758 17.4832 -82.3835)
(-2.20742 17.4152 -83.0513)
(-1.71002 17.4037 -83.4333)
(-1.47286 17.5022 -83.7757)
(-1.4482 17.6016 -84.1079)
(-1.60725 17.7271 -84.3858)
(-1.81575 17.7876 -84.7602)
(-2.1585 17.8923 -85.1011)
(-2.50841 17.9375 -85.5826)
(-2.94237 18.0093 -85.9965)
(-3.34638 18.3138 -86.4045)
(-3.70392 18.7054 -86.8297)
(-4.0296 19.1083 -87.1211)
(2.30834 16.535 -79.8572)
(2.18117 15.8547 -79.2562)
(1.80582 14.8829 -78.7092)
(0.974994 13.7822 -78.1493)
(-0.844062 12.894 -77.2241)
(-4.81805 13.7768 -75.6913)
(1.52261 16.5979 -79.2047)
(1.55587 15.9064 -78.7362)
(1.3468 14.9631 -78.3453)
(0.735471 13.9524 -77.9465)
(-0.707009 13.1644 -77.1251)
(-4.3247 14.0347 -76.2256)
(0.606466 16.8221 -79.7391)
(0.454793 16.0143 -79.2157)
(-0.122551 14.9804 -78.729)
(-1.27001 13.9778 -77.7865)
(-3.33997 13.0829 -76.3329)
(-8.3751 13.3897 -75.2047)
(-0.330768 17.2662 -80.1376)
(-0.642298 16.4052 -79.6101)
(-1.52619 15.3699 -79.0012)
(-3.17663 14.4343 -77.6823)
(-6.00771 13.3732 -75.7114)
(-12.3633 13.2146 -73.9435)
(-1.23713 17.786 -80.2801)
(-1.7425 16.957 -79.6537)
(-2.82011 16.006 -78.6843)
(-4.84885 15.0723 -77.3705)
(-8.41104 14.0013 -75.2533)
(-15.8704 13.7667 -72.6973)
(-2.09388 18.2896 -80.3673)
(-2.75547 17.6337 -79.5526)
(-3.98705 16.7404 -78.4206)
(-6.26227 15.8281 -76.9861)
(-10.2815 14.8368 -74.6265)
(-18.5417 14.5617 -71.5525)
(-2.83271 18.8686 -80.4708)
(-3.57239 18.4485 -79.5949)
(-4.88836 17.6806 -78.4238)
(-7.21827 16.9335 -76.8436)
(-11.3736 16.2222 -74.1379)
(-20.3446 15.6756 -70.9099)
(-3.3413 19.6476 -80.7872)
(-4.05461 19.4961 -80.0056)
(-5.28058 19.1244 -78.8577)
(-7.48186 18.6934 -77.1563)
(-11.5702 18.3396 -74.2289)
(-20.8843 17.7844 -70.9847)
(-3.49898 20.6386 -81.2546)
(-4.12514 20.7732 -80.5744)
(-5.17404 20.9185 -79.4448)
(-7.25681 20.9437 -77.7874)
(-11.2728 20.8299 -74.8271)
(-20.9229 19.9623 -71.7391)
(-3.42491 21.6972 -81.9711)
(-3.92916 22.2018 -81.3431)
(-4.70038 22.8567 -80.2363)
(-6.77876 23.3029 -78.7859)
(-11.0162 23.1194 -76.044)
(-20.9884 21.4419 -73.0457)
(-3.18437 22.855 -82.6399)
(-3.49894 23.7183 -81.9943)
(-4.13243 24.673 -80.9678)
(-6.32415 25.2024 -79.7731)
(-10.7669 24.5278 -77.2447)
(-20.5559 21.9929 -74.429)
(-2.68974 23.9199 -83.296)
(-2.88524 24.9137 -82.6194)
(-3.51926 25.8263 -81.6496)
(-5.74211 26.042 -80.6033)
(-10.263 24.8433 -78.4548)
(-19.6397 21.3759 -76.112)
(-2.23661 24.6764 -83.8895)
(-2.14559 25.2859 -83.2209)
(-2.75384 25.8579 -82.3914)
(-4.88809 25.645 -81.4928)
(-9.65778 23.7595 -79.7816)
(-18.4797 19.1502 -77.2464)
(-1.73321 24.8162 -84.288)
(-1.58128 24.9265 -83.7292)
(-2.13614 25.1279 -82.9784)
(-4.03868 24.1552 -82.1596)
(-8.60224 21.6313 -80.5868)
(-16.3922 16.2776 -77.9592)
(-1.56697 24.3643 -84.4642)
(-1.75371 24.0417 -84.0847)
(-2.58006 23.6821 -83.175)
(-4.60028 21.6332 -82.3074)
(-8.82628 18.1651 -80.7478)
(-14.8553 11.9154 -78.7346)
(-1.02106 23.9565 -84.7556)
(-1.19147 23.7349 -84.5693)
(-1.60171 22.7084 -83.8979)
(-2.87285 19.8131 -83.1034)
(-6.06818 15.0429 -81.5145)
(-10.9846 7.57487 -79.8155)
(-1.21073 23.2978 -85.026)
(-0.890044 22.85 -84.8771)
(-0.92333 21.5114 -84.2157)
(-1.26116 18.2858 -83.2907)
(-3.57984 12.9022 -81.4828)
(-7.40292 3.99459 -79.591)
(-1.36572 22.7034 -85.342)
(-1.06218 21.9783 -85.3034)
(-0.907354 20.299 -84.6498)
(-0.957906 16.6606 -83.7689)
(-2.53049 10.6402 -81.6381)
(-5.20535 0.596859 -79.2465)
(-1.40313 22.0272 -85.6304)
(-1.07004 21.1546 -85.6586)
(-0.936139 19.2569 -84.9789)
(-0.780306 15.3496 -84.0661)
(-2.09781 8.83811 -81.8931)
(-3.83984 -2.11864 -79.3355)
(-1.55195 21.4017 -86)
(-1.3113 20.449 -86.046)
(-1.30752 18.4398 -85.3709)
(-1.13138 14.4328 -84.4579)
(-2.27102 7.63475 -82.3859)
(-3.28487 -4.08101 -80.0521)
(-1.66214 20.7997 -86.259)
(-1.57949 19.8682 -86.2966)
(-1.8407 17.9155 -85.6583)
(-1.83072 14.0755 -84.6549)
(-2.80087 7.16441 -83.0402)
(-3.30072 -5.10634 -80.8515)
(-1.90666 20.2819 -86.5573)
(-1.98246 19.4777 -86.5813)
(-2.45174 17.7118 -86.093)
(-2.75035 14.15 -85.1542)
(-3.40113 7.32686 -84.1239)
(-3.51043 -5.3548 -82.1638)
(-2.30932 19.8394 -86.7169)
(-2.57321 19.2524 -86.8514)
(-3.26957 17.8315 -86.697)
(-3.76794 14.5501 -86.1289)
(-4.54362 7.8358 -85.4446)
(-3.75036 -4.83296 -83.2615)
(-2.87154 19.516 -87.0037)
(-3.44752 19.2256 -87.2255)
(-4.40057 18.1833 -87.2781)
(-4.941 15.1493 -87.2177)
(-5.56454 8.57721 -86.6982)
(-3.57139 -3.6715 -84.4063)
(-3.65139 19.3426 -87.2982)
(-4.49789 19.2683 -87.5227)
(-5.49848 18.3828 -87.7489)
(-5.87765 15.6374 -87.9293)
(-6.01961 9.43316 -87.4362)
(-3.269 -2.01736 -85.3)
(-4.42472 19.2907 -87.5183)
(-5.20778 19.389 -87.688)
(-5.96107 18.676 -88.0266)
(-5.97688 16.2978 -88.2959)
(-5.61976 10.7111 -88.0084)
(-2.25438 0.365518 -86.028)
(-4.76035 19.2821 -87.5898)
(-5.22906 19.3808 -87.7003)
(-5.66197 18.8595 -88.0735)
(-5.32168 16.9589 -88.3377)
(-4.31682 12.1246 -88.1086)
(-0.455872 3.19388 -86.1634)
(-4.71743 19.299 -87.4915)
(-4.86633 19.3473 -87.6241)
(-4.93724 19.0743 -87.9082)
(-4.42538 17.5981 -88.1323)
(-2.89109 13.608 -88.0747)
(1.44971 6.1001 -86.2351)
(-4.15384 19.0316 -87.3962)
(-4.11325 19.0745 -87.4804)
(-3.93553 18.747 -87.5843)
(-3.14092 17.455 -87.497)
(-1.06061 14.3436 -86.9045)
(3.8349 8.69919 -85.6504)
(-4.13901 18.855 -87.0023)
(-4.07786 19.064 -86.9311)
(-3.74363 18.7775 -86.6689)
(-2.46074 18.1671 -86.2894)
(0.43523 15.8766 -86.1015)
(6.41791 11.5843 -85.4698)
(-3.65004 18.415 -86.8243)
(-3.55121 18.7072 -86.6628)
(-3.01686 18.6096 -86.1311)
(-1.62756 18.6701 -85.2583)
(1.27964 16.9975 -84.5796)
(7.84467 14.1391 -83.6892)
(-3.34343 18.1496 -86.3288)
(-3.15586 18.486 -86.0815)
(-2.38364 18.3713 -85.4589)
(-0.716797 18.7986 -84.6136)
(2.46734 17.5333 -83.5788)
(9.41368 15.8982 -82.4148)
(-2.93584 17.9276 -85.9264)
(-2.65952 18.2754 -85.6504)
(-1.7467 18.22 -84.9911)
(0.0457386 18.7214 -84.047)
(3.31603 17.7519 -82.728)
(10.0769 16.7429 -81.3717)
(-2.5498 17.8701 -85.4831)
(-2.25335 18.0707 -85.2149)
(-1.29756 17.9886 -84.6938)
(0.478334 18.2658 -83.7004)
(3.66411 17.4763 -82.2955)
(10.1597 16.7439 -81.1609)
(-2.28695 17.8702 -84.9715)
(-2.02663 17.9569 -84.713)
(-1.13103 17.8319 -84.3005)
(0.541558 17.7854 -83.3735)
(3.44684 16.9826 -82.0114)
(9.49946 16.2567 -81.4275)
(-1.99589 17.7626 -84.6206)
(-1.82566 17.772 -84.3646)
(-1.18479 17.5379 -83.9311)
(0.256368 17.2786 -83.2004)
(2.72133 16.3272 -81.9522)
(8.18232 15.3475 -81.6413)
(-1.82913 17.6948 -84.2268)
(-1.7714 17.5943 -83.9581)
(-1.39457 17.216 -83.5347)
(-0.311846 16.7627 -83.0178)
(1.5702 15.5537 -81.9324)
(6.40943 14.2573 -81.893)
(-1.66913 17.5293 -83.9318)
(-1.77807 17.2643 -83.7394)
(-1.73357 16.7895 -83.4092)
(-1.13917 16.1394 -83.0056)
(0.0922557 14.748 -82.2243)
(4.29791 13.4678 -82.4404)
(-1.72504 17.2942 -83.573)
(-1.95267 16.8069 -83.539)
(-2.14899 16.2044 -83.3415)
(-2.02426 15.3321 -83.0723)
(-1.27678 14.0755 -82.6346)
(2.21025 13.3104 -83.0558)
(-1.97 16.9747 -83.2311)
(-2.28949 16.2899 -83.2895)
(-2.80003 15.6235 -83.3105)
(-3.02269 14.7294 -83.2574)
(-2.48117 13.7043 -83.1742)
(0.248481 13.6742 -83.5423)
(-2.57718 16.8708 -82.8361)
(-2.98317 16.0563 -82.9104)
(-3.7404 15.4624 -83.0564)
(-4.1517 14.7803 -83.1812)
(-3.83727 14.2256 -83.2936)
(-1.80897 14.6754 -83.3909)
(-3.23215 17.125 -82.1934)
(-3.77426 16.429 -82.2148)
(-4.66577 16.0323 -82.368)
(-5.09169 15.5899 -82.534)
(-5.09639 15.5932 -82.6962)
(-3.6033 16.407 -82.597)
(-3.90566 17.4024 -81.7324)
(-4.60622 17.0422 -81.5165)
(-5.47567 16.8089 -81.4225)
(-6.10662 16.6144 -81.4778)
(-6.4015 16.9685 -81.5651)
(-5.42577 18.3555 -81.1566)
(2.72395 18.728 -79.803)
(4.1264 18.5707 -79.2794)
(5.37174 18.1934 -78.0478)
(6.73158 17.8255 -76.8699)
(8.10635 18.1399 -75.9065)
(8.25073 21.2278 -74.9138)
(3.09674 17.9081 -79.7445)
(4.44412 17.4738 -79.3202)
(5.47327 16.7753 -78.3238)
(6.53384 16.2348 -77.5947)
(7.2753 16.6225 -76.7373)
(6.46874 19.3056 -75.6859)
(3.03772 17.0572 -79.6213)
(4.04397 16.3099 -79.2446)
(4.61241 15.3766 -78.5335)
(5.18712 14.8329 -78.0788)
(5.20505 14.8948 -77.2013)
(3.57859 17.1556 -75.8498)
(3.25509 16.4177 -79.7519)
(3.42206 15.3896 -79.3827)
(3.45466 14.3263 -78.8204)
(3.34102 13.4763 -78.2929)
(2.39432 13.2045 -77.4842)
(-0.0722637 15.0377 -76.004)
(-3.75447 17.8928 -81.1302)
(-4.63623 17.7436 -80.5831)
(-5.29246 17.2569 -80.0572)
(-6.24845 17.2426 -79.7307)
(-6.94352 18.0901 -79.4547)
(-6.529 20.9217 -78.992)
(-3.11331 18.5345 -81.03)
(-3.92728 18.5862 -80.4382)
(-4.51848 18.239 -79.6417)
(-5.6293 18.5214 -78.9722)
(-6.48312 19.8741 -77.9597)
(-6.63738 23.7707 -76.9351)
(-2.42801 18.9009 -80.5473)
(-3.26981 19.1403 -79.7077)
(-4.01112 19.0311 -78.5373)
(-5.24513 19.5848 -77.4855)
(-6.13993 21.4013 -75.9339)
(-6.55526 26.0692 -74.5517)
(-1.91181 19.4811 -80.3587)
(-2.60108 19.8502 -79.3084)
(-3.22479 19.9673 -77.8305)
(-4.41354 20.7517 -76.3766)
(-5.30016 22.7779 -74.3511)
(-5.89923 27.7296 -72.7375)
(-1.4694 19.8237 -79.8586)
(-2.02477 20.2964 -78.7035)
(-2.48781 20.5427 -77.0594)
(-3.53109 21.5904 -75.4496)
(-4.1984 23.5244 -73.1825)
(-4.73419 28.3257 -71.6862)
(-1.10221 20.1043 -79.4802)
(-1.47859 20.6702 -78.3076)
(-1.81511 21.0332 -76.6699)
(-2.55894 22.1743 -74.9916)
(-2.90917 23.5994 -72.578)
(-3.14122 27.9554 -71.2344)
(-0.831691 20.2745 -79.2058)
(-0.969831 20.8145 -77.9577)
(-1.07368 21.1398 -76.3424)
(-1.38499 22.163 -74.7063)
(-1.33781 22.9668 -72.4304)
(-1.0191 26.8414 -71.1276)
(-0.499107 20.2943 -79.1361)
(-0.328987 20.6976 -77.9293)
(-0.157831 20.9125 -76.3572)
(0.00550061 21.6557 -74.6402)
(0.686209 22.0148 -72.6256)
(1.4989 25.4046 -71.3177)
(-0.0945386 20.1161 -79.1072)
(0.473346 20.3624 -78.1106)
(0.984853 20.4617 -76.6562)
(1.63893 20.8816 -74.9764)
(2.9088 21.025 -73.3762)
(3.98782 24.1418 -72.3152)
(0.489978 19.8529 -79.0866)
(1.40872 19.9019 -78.3767)
(2.25344 19.8104 -77.0781)
(3.3163 19.8517 -75.5771)
(4.85437 20.0088 -74.3758)
(5.71478 23.0206 -73.4601)
(1.16645 19.3684 -79.1045)
(2.34142 19.2545 -78.5948)
(3.40678 18.8916 -77.4713)
(4.65317 18.6154 -76.3294)
(6.03305 18.8766 -75.4127)
(6.36115 21.6561 -74.4687)
(1.74809 18.5498 -79.113)
(3.00581 18.2575 -78.7592)
(4.01558 17.6402 -77.8882)
(5.02495 17.1018 -77.186)
(5.8958 17.3803 -76.4631)
(5.53939 19.7486 -75.4265)
(1.97663 17.5571 -79.0495)
(3.01304 17.0154 -78.8053)
(3.6719 16.1975 -78.2015)
(4.26911 15.6513 -77.801)
(4.45869 15.695 -77.0845)
(3.22231 17.5997 -75.9698)
(2.34979 16.7657 -79.1452)
(2.63716 15.8878 -78.8855)
(2.83454 14.9726 -78.4068)
(2.82494 14.2479 -77.9769)
(2.11669 13.9287 -77.3183)
(-0.0907851 15.4687 -76.1677)
(-20.3816 23.2565 -69.8281)
(-49.4753 37.3233 -43.3127)
(-88.652 58.3957 -3.66716)
(-135.533 89.2734 42.0442)
(-183.074 125.318 72.2795)
(-26.5866 20.7284 -67.4036)
(-58.9286 31.0645 -40.7567)
(-101.984 49.1241 -3.83652)
(-151.436 74.4789 38.1424)
(-196.661 106.971 67.0646)
(-32.5053 18.4317 -64.9993)
(-67.6747 25.1418 -39.3783)
(-114.682 39.7057 -5.50064)
(-164.885 57.1436 36.6647)
(-206.318 81.2309 66.9149)
(-38.2899 17.2532 -63.1644)
(-77.1895 21.2816 -38.2382)
(-127.228 30.2643 -3.64806)
(-178.151 38.2346 38.4062)
(-221.583 54.0301 62.0212)
(-42.6313 16.2081 -60.8624)
(-85.3372 18.381 -36.3553)
(-138.555 23.2406 1.65926)
(-195.187 26.8057 42.3641)
(-243.126 37.2697 63.0649)
(-46.1235 16.1259 -60.2865)
(-90.8721 14.4073 -36.0298)
(-144.736 15.0565 5.82686)
(-203.555 16.4066 49.0475)
(-253.992 26.0006 70.9154)
(-47.9568 17.0382 -60.5446)
(-93.8387 11.8219 -33.9834)
(-145.619 7.42465 11.674)
(-202.229 5.47514 54.3672)
(-248.057 10.5893 76.117)
(-48.8405 17.0751 -61.5566)
(-93.6736 7.79328 -32.2982)
(-143.491 -1.4292 16.3087)
(-201.796 -9.85664 57.0047)
(-249.749 -10.8097 77.2398)
(-269.135 -4.75691 82.2496)
(-49.3734 16.6146 -62.2369)
(-92.393 3.73342 -28.2127)
(-140.966 -9.42151 24.1484)
(-199.783 -23.67 64.8154)
(-249.966 -29.1097 85.4658)
(-274.968 -25.4823 92.8004)
(-47.4397 14.5488 -63.2164)
(-85.9832 -0.550918 -25.3044)
(-132.853 -16.7458 27.5187)
(-191.121 -35.3591 67.8625)
(-240.251 -43.7449 92.3567)
(-266.102 -41.4787 103.643)
(-44.639 10.8255 -64.1551)
(-78.4625 -6.89245 -24.5418)
(-122.481 -27.7294 25.4641)
(-176.023 -49.1527 65.8044)
(-221.37 -62.3503 91.9479)
(-247.676 -62.1499 105.582)
(-253.902 -49.3291 110.131)
(-40.9746 6.62249 -65.128)
(-69.2486 -13.393 -26.7354)
(-107.533 -38.6095 19.4876)
(-155.026 -64.4473 60.8075)
(-196.761 -84.0568 87.7993)
(-221.508 -86.9466 101.033)
(-222.643 -80.5571 108.827)
(-212.739 -60.5708 105.57)
(-36.5085 1.56642 -65.0837)
(-59.8536 -22.1183 -28.7018)
(-92.7084 -53.2713 10.4791)
(-132.09 -84.0313 51.1179)
(-168.102 -108.315 78.8278)
(-188.392 -115.407 89.9802)
(-179.446 -113.854 95.4846)
(-174.88 -78.052 107.684)
(-31.6241 -4.19368 -64.8188)
(-50.0579 -31.7912 -30.2477)
(-79.4413 -69.5826 1.02305)
(-110.437 -106.219 41.2236)
(-142.823 -139.663 67.9602)
(-167.471 -163.073 74.9211)
(-172.406 -162.006 75.3949)
(-153.292 -167.856 77.5195)
(-25.8035 -10.5552 -66.0998)
(-41.2118 -43.2936 -34.2126)
(-69.2337 -87.0888 -6.19539)
(-94.761 -130.227 35.921)
(-127.523 -170.737 63.9056)
(-156.304 -202.679 71.7261)
(-172.223 -208.846 70.5668)
(-165.336 -200.762 65.8154)
(-19.9603 -17.1105 -66.8846)
(-32.5384 -54.7329 -39.2482)
(-57.4842 -100.8 -11.3892)
(-77.6085 -145.021 31.5568)
(-108.945 -184.709 61.0934)
(-133.651 -216.047 74.5467)
(-159.85 -225.817 72.8944)
(-165.271 -217.574 71.7582)
(-14.7756 -22.9429 -66.6171)
(-24.0425 -64.633 -43.6382)
(-44.5814 -111.631 -14.821)
(-59.5242 -155.858 27.7789)
(-83.3282 -193.98 57.6552)
(-102.826 -218.178 67.0826)
(-127.605 -216.345 75.1983)
(-148.624 -200.513 77.4198)
(-10.7655 -27.9112 -67.1773)
(-17.304 -73.155 -48.1451)
(-32.1828 -122.067 -16.711)
(-39.769 -166.422 28.3833)
(-55.5764 -209.783 54.4683)
(-69.6658 -242.017 59.3029)
(-84.0118 -249.238 54.0454)
(-70.8841 -227.173 50.2681)
(-7.91131 -32.1405 -68.8507)
(-12.2623 -80.2231 -50.8513)
(-20.8673 -129.897 -11.4347)
(-26.4506 -179.995 34.7781)
(-37.7883 -231.937 57.262)
(-51.7356 -270.066 58.9067)
(-64.5531 -285.429 50.1849)
(-65.6186 -274.429 41.382)
(-6.22162 -35.3236 -71.4513)
(-7.95354 -84.4624 -50.5382)
(-10.7503 -130.992 -2.16791)
(-15.6492 -185.482 45.5214)
(-27.3059 -241.465 69.6096)
(-37.3328 -278.87 73.4384)
(-54.8678 -297.738 62.2776)
(-65.1621 -291.795 55.0247)
(-5.3633 -36.7552 -73.74)
(-3.40548 -84.3942 -46.7827)
(-1.74554 -127.118 7.25095)
(-0.898004 -181.707 52.1375)
(-7.62449 -233.676 75.0995)
(-18.2518 -262.881 80.8886)
(-39.7019 -278.256 73.5789)
(-57.5899 -274.576 67.754)
(-4.14282 -36.5533 -74.6333)
(2.80907 -81.7409 -40.945)
(8.35286 -125.647 16.4646)
(18.9353 -184.274 58.2773)
(20.6097 -238.038 77.2805)
(17.523 -269.031 77.8544)
(9.96633 -274.498 64.2315)
(0.745811 -262.579 49.6756)
(-1.90108 -35.1999 -74.8458)
(9.25689 -77.9701 -34.4728)
(19.1888 -125.554 24.4591)
(36.0436 -187.434 65.9965)
(43.5233 -243.61 84.5643)
(43.7657 -280.188 85.7991)
(0.916893 -31.8766 -74.2464)
(15.5005 -71.0948 -30.9153)
(28.9696 -119.585 28.7685)
(47.2726 -183.058 73.2228)
(56.5626 -239.992 96.9722)
(56.4839 -276.768 103.711)
(4.54632 -27.2602 -73.7356)
(22.56 -62.425 -31.0601)
(38.7757 -107.614 26.3071)
(59.0274 -166.743 70.5241)
(70.8711 -219.679 97.3145)
(71.404 -254.29 107.21)
(9.08403 -21.5954 -73.8383)
(29.7928 -52.0779 -33.7753)
(48.7269 -91.7134 20.3805)
(74.5084 -145.414 65.5341)
(92.0241 -195.341 95.8889)
(96.8802 -226.767 104.257)
(13.8234 -15.3469 -73.8262)
(36.4427 -40.1973 -36.5411)
(59.982 -75.6478 8.4195)
(89.4907 -120.327 49.1043)
(111.016 -161.023 82.6782)
(118.148 -186.816 94.9063)
(18.3572 -9.53057 -74.3392)
(43.1878 -29.0975 -38.8876)
(73.1627 -60.194 -1.15115)
(108.361 -97.0081 35.7325)
(140.122 -131.023 70.3311)
(22.553 -4.35862 -75.4121)
(49.6709 -20.4049 -42.3902)
(85.6979 -49.366 -11.2271)
(126.859 -80.3504 25.9764)
(166.346 -113.406 63.1786)
(25.4313 0.540605 -75.1029)
(54.9746 -12.7011 -45.6745)
(94.4972 -39.3671 -19.7724)
(136.145 -64.0498 20.0025)
(174.928 -96.1226 58.6805)
(27.4483 4.59283 -74.297)
(59.5192 -6.3985 -50.1105)
(100.037 -29.7104 -26.7724)
(139.613 -46.7183 16.162)
(177.872 -71.5005 54.8746)
(28.1154 8.02394 -74.046)
(61.9295 -0.905546 -55.7375)
(103.19 -20.3942 -31.8616)
(143.612 -29.1939 12.9668)
(191.257 -47.055 48.0859)
(27.9328 10.3475 -74.426)
(62.5882 4.22521 -60.0542)
(105.717 -11.2837 -33.5064)
(150.352 -15.1486 15.9436)
(206.267 -28.3511 52.5987)
(27.1308 11.3971 -75.4894)
(62.0256 7.70849 -62.9562)
(105.3 -1.81224 -30.9072)
(152.386 -4.39131 24.219)
(214.917 -16.084 61.633)
(25.6834 11.6489 -76.85)
(60.2776 10.3476 -64.4817)
(99.9328 6.66611 -25.7437)
(147.168 6.30014 31.0947)
(208.64 0.892051 68.4565)
(23.8932 11.9747 -78.325)
(57.8918 13.9827 -64.9194)
(94.2105 15.1721 -20.317)
(146.367 22.9951 35.1835)
(212.123 26.5179 69.5964)
(21.4352 12.7555 -79.6408)
(54.4317 18.2492 -63.5542)
(89.6247 22.8735 -13.6597)
(146.496 38.5762 42.6608)
(215.418 48.2181 78.3124)
(18.5338 14.8806 -80.7294)
(49.3803 22.7221 -60.9731)
(83.7831 31.3125 -8.95852)
(142.216 51.2742 49.0805)
(213.085 63.1803 89.0329)
(15.0913 17.2646 -81.1835)
(42.3432 27.7044 -58.2948)
(74.0923 40.1183 -6.25073)
(127.932 62.2082 52.319)
(195.576 80.3904 92.2109)
(11.3979 20.7159 -80.2706)
(35.2037 35.3337 -56.5441)
(63.2435 52.1661 -6.58053)
(111.499 78.9862 49.4994)
(173.95 103.882 89.9664)
(8.28553 25.2102 -78.9017)
(28.3908 43.7122 -54.5172)
(51.6581 64.4861 -8.42079)
(91.7427 94.9751 40.7749)
(142.494 125.207 79.2118)
(4.83027 29.9973 -77.4069)
(22.1444 52.3176 -52.8375)
(42.517 78.2298 -9.4544)
(75.9646 114.946 35.5576)
(117.582 152.836 71.7834)
(1.83806 34.8429 -75.2216)
(15.5758 59.3799 -50.9632)
(35.5256 91.0618 -13.3741)
(64.8105 132.774 29.5231)
(103.745 177.326 68.5697)
(0.183396 38.9037 -71.9056)
(10.1733 64.9503 -48.2053)
(29.0283 101.14 -16.9332)
(52.5691 143.349 26.2714)
(88.6331 186.531 64.7098)
(-1.02516 41.7229 -68.746)
(5.53217 68.7101 -46.6986)
(21.8821 107.088 -19.4487)
(37.7581 147.92 25.2602)
(63.9477 189.566 62.1991)
(-1.38822 43.4977 -66.3463)
(2.71166 72.0819 -46.3735)
(15.4197 112.269 -19.4022)
(23.2979 156.459 23.7578)
(39.797 204.476 55.8627)
(-1.08345 43.6941 -64.8313)
(1.04215 74.1451 -46.9672)
(10.4357 116.975 -15.9779)
(12.2792 167.677 29.8866)
(23.7274 222.464 61.5605)
(-0.15938 43.1275 -64.2795)
(-0.222662 75.0637 -47.1394)
(4.00444 119.255 -11.6633)
(2.55408 174.834 36.5538)
(12.9179 234.441 67.1459)
(0.84759 42.3134 -64.3892)
(-0.806752 75.227 -46.7152)
(-2.91853 118.595 -6.51802)
(-7.47416 174.553 42.7213)
(-2.28976 230.698 73.8513)
(1.57432 41.2468 -65.061)
(-2.58856 74.5645 -46.2832)
(-10.4794 116.15 -2.3607)
(-20.7455 173.529 46.1053)
(-22.7162 232.426 74.4861)
(1.88862 39.8955 -65.9022)
(-5.28956 72.8743 -45.4004)
(-16.8748 112.462 2.27568)
(-32.8993 171.273 51.4656)
(-40.8469 231.895 81.6039)
(1.65609 38.296 -66.8085)
(-8.71748 69.3805 -45.4515)
(-23.3556 105.82 2.60416)
(-43.4435 162.814 51.1976)
(-55.6081 221.645 85.4713)
(0.252587 35.7901 -67.7277)
(-12.8253 64.3308 -46.0423)
(-31.321 96.8402 -0.00111049)
(-55.6343 148.427 48.3923)
(-74.5478 204.478 84.7691)
(-3.12429 33.169 -68.6998)
(-19.4513 58.4576 -46.0588)
(-42.6044 86.5065 -2.83024)
(-71.3232 130.806 45.5621)
(-97.4642 182.293 82.7945)
(-8.01176 30.2055 -69.7506)
(-28.5668 51.9605 -45.4289)
(-56.8706 75.8997 -4.34107)
(-90.6174 113.275 41.5685)
(-123.282 156.756 76.8317)
(-13.8493 26.6292 -70.4073)
(-39.0564 44.6188 -44.3003)
(-73.4335 67.2389 -4.05118)
(-113.855 99.9613 40.798)
(-154.252 136.309 70.945)
(0.198364 18.106 -78.7728)
(-0.695561 18.5145 -79.0056)
(-1.5802 18.5551 -79.1978)
(-2.43792 18.5736 -79.1859)
(-3.2331 18.5198 -79.3327)
(-3.95501 18.5392 -79.5231)
(-4.53323 18.7252 -79.9528)
(-5.00262 19.0567 -80.317)
(-5.27666 19.5374 -80.7386)
(-5.43629 20.1587 -81.1494)
(-5.29783 20.8564 -81.6887)
(-5.00537 21.634 -82.0524)
(-4.41105 22.1276 -82.4056)
(-4.01922 22.2811 -82.4283)
(-0.470401 18.9747 -78.8545)
(-1.22845 19.115 -79.0907)
(-1.93972 19.1116 -79.2978)
(-2.64639 19.0497 -79.3116)
(-3.32141 18.9247 -79.5148)
(-3.9506 18.8549 -79.749)
(-4.433 18.9465 -80.1945)
(-4.84516 19.1633 -80.5822)
(-5.08812 19.5131 -81.0238)
(-5.22641 19.9765 -81.3997)
(-5.11913 20.4959 -81.8484)
(-4.94568 21.1176 -82.088)
(-4.54877 21.5647 -82.4257)
(-4.40786 21.9538 -82.5607)
(-0.896158 19.8397 -78.824)
(-1.53633 19.7445 -79.1312)
(-2.17165 19.5708 -79.375)
(-2.81141 19.3713 -79.4553)
(-3.42046 19.1615 -79.7302)
(-4.00029 19.0033 -80.0192)
(-4.45948 19.0042 -80.4717)
(-4.84813 19.0769 -80.8715)
(-5.08309 19.2824 -81.3201)
(-5.2432 19.6119 -81.7011)
(-5.19296 20.0232 -82.1413)
(-5.03137 20.5557 -82.4183)
(-4.72862 21.0328 -82.7459)
(-4.47095 21.43 -82.861)
(-1.36561 20.3396 -78.658)
(-1.80382 20.1664 -79.0985)
(-2.29654 19.9026 -79.4285)
(-2.84817 19.6136 -79.6511)
(-3.40817 19.3332 -79.9648)
(-3.94374 19.0915 -80.3126)
(-4.36578 18.9994 -80.7909)
(-4.69642 18.9975 -81.2326)
(-4.89346 19.1238 -81.6953)
(-5.03592 19.3573 -82.0977)
(-5.0189 19.6633 -82.5242)
(-4.90459 20.0907 -82.8141)
(-4.68622 20.5172 -83.1096)
(-4.37567 20.8447 -83.2315)
(-1.78272 20.61 -78.5541)
(-2.02425 20.4307 -79.07)
(-2.33772 20.1107 -79.4975)
(-2.80385 19.7905 -79.8426)
(-3.31199 19.4216 -80.2203)
(-3.83196 19.0675 -80.6316)
(-4.24237 18.8559 -81.1452)
(-4.54837 18.7567 -81.6255)
(-4.74477 18.8219 -82.1072)
(-4.8745 19.0024 -82.5391)
(-4.86707 19.2763 -82.9557)
(-4.77704 19.6572 -83.2559)
(-4.60164 20.0358 -83.5345)
(-4.28121 20.2817 -83.711)
(-2.15243 20.616 -78.5099)
(-2.24344 20.4735 -79.0617)
(-2.39723 20.153 -79.564)
(-2.76342 19.8294 -80.0436)
(-3.15055 19.3855 -80.4676)
(-3.59187 18.9663 -80.9295)
(-3.94995 18.6703 -81.4745)
(-4.23072 18.525 -81.9968)
(-4.42394 18.5561 -82.4952)
(-4.55045 18.6799 -82.9297)
(-4.56715 18.9064 -83.3106)
(-4.50436 19.2179 -83.5879)
(-4.34965 19.5247 -83.8268)
(-4.04203 19.6821 -84.031)
(-2.47572 20.3844 -78.5582)
(-2.44328 20.2784 -79.1389)
(-2.46615 19.9938 -79.6745)
(-2.70299 19.6511 -80.2174)
(-2.95383 19.1514 -80.6932)
(-3.31616 18.6779 -81.1901)
(-3.63519 18.3309 -81.7543)
(-3.92651 18.1651 -82.3099)
(-4.13232 18.1936 -82.8408)
(-4.27338 18.289 -83.2912)
(-4.32848 18.4945 -83.6633)
(-4.30491 18.7498 -83.9571)
(-4.17297 18.9845 -84.1841)
(-3.91738 19.0807 -84.4134)
(-2.77165 19.9979 -78.6984)
(-2.5989 19.9216 -79.3034)
(-2.51413 19.6581 -79.8694)
(-2.58705 19.2949 -80.457)
(-2.71534 18.7863 -80.9715)
(-2.98953 18.3132 -81.4769)
(-3.28638 17.9869 -82.039)
(-3.5758 17.8409 -82.6016)
(-3.79332 17.8683 -83.1252)
(-3.9351 17.9399 -83.5679)
(-4.02328 18.1126 -83.9198)
(-4.03551 18.2922 -84.2273)
(-3.96574 18.4483 -84.4689)
(-3.81185 18.4849 -84.7022)
(-2.94692 19.4032 -78.9436)
(-2.64346 19.37 -79.5222)
(-2.47557 19.1347 -80.1097)