/*--------------------------------*- C++ -*----------------------------------*\
| =========                 |                                                 |
| \\      /  F ield         | OpenFOAM: The Open Source CFD Toolbox           |
|  \\    /   O peration     | Version:  v2106                                 |
|   \\  /    A nd           | Website:  www.openfoam.com                      |
|    \\/     M anipulation  |                                                 |
\*---------------------------------------------------------------------------*/
FoamFile
{
    version     2.0;
    format      ascii;
    arch        "LSB;label=32;scalar=64";
    class       volVectorField;
    location    "0.000128";
    object      U;
}
// * * * * * * * * * * * * * * * * * * * * * * * * * * * * * * * * * * * * * //

dimensions      [0 1 -1 0 0 0 0];

internalField   nonuniform List<vector> 
18265
(
(3.61272e-06 3.61268e-06 -0.000538848)
(2.75071e-06 3.49078e-06 -0.000538418)
(2.28224e-06 3.56777e-06 -0.000537803)
(1.75211e-06 3.44577e-06 -0.000537355)
(1.24803e-06 3.39592e-06 -0.000537017)
(7.50732e-07 3.32577e-06 -0.000536802)
(2.23682e-07 3.296e-06 -0.000536715)
(-2.23709e-07 3.29631e-06 -0.000536715)
(-7.50811e-07 3.32563e-06 -0.000536802)
(-1.24819e-06 3.39594e-06 -0.000537017)
(-1.75226e-06 3.4455e-06 -0.000537356)
(-2.28268e-06 3.56766e-06 -0.000537803)
(-2.75104e-06 3.49092e-06 -0.000538418)
(-3.61331e-06 3.6133e-06 -0.000538849)
(3.49082e-06 2.75077e-06 -0.000538418)
(2.74973e-06 2.74978e-06 -0.000537946)
(2.34148e-06 2.78776e-06 -0.000537302)
(1.81598e-06 2.75354e-06 -0.000536825)
(1.30845e-06 2.75173e-06 -0.000536434)
(7.87288e-07 2.74164e-06 -0.000536173)
(2.34172e-07 2.74112e-06 -0.000536065)
(-2.34301e-07 2.74145e-06 -0.000536065)
(-7.87337e-07 2.74148e-06 -0.000536173)
(-1.30865e-06 2.7518e-06 -0.000536434)
(-1.81618e-06 2.75331e-06 -0.000536825)
(-2.34201e-06 2.78779e-06 -0.000537302)
(-2.75014e-06 2.74981e-06 -0.000537946)
(-3.49138e-06 2.7511e-06 -0.000538418)
(3.56772e-06 2.28237e-06 -0.000537803)
(2.78781e-06 2.34162e-06 -0.000537302)
(2.33878e-06 2.33879e-06 -0.000536655)
(1.7873e-06 2.30235e-06 -0.000536211)
(1.27664e-06 2.2744e-06 -0.000535843)
(7.61685e-07 2.24864e-06 -0.000535603)
(2.25622e-07 2.24073e-06 -0.000535501)
(-2.25785e-07 2.24096e-06 -0.000535501)
(-7.61742e-07 2.24856e-06 -0.000535603)
(-1.27678e-06 2.27444e-06 -0.000535843)
(-1.78744e-06 2.30224e-06 -0.000536211)
(-2.3391e-06 2.33883e-06 -0.000536655)
(-2.7881e-06 2.34159e-06 -0.000537302)
(-3.56837e-06 2.28219e-06 -0.000537803)
(3.44562e-06 1.75208e-06 -0.000537355)
(2.75338e-06 1.81598e-06 -0.000536825)
(2.30223e-06 1.78728e-06 -0.000536211)
(1.77111e-06 1.77117e-06 -0.000535768)
(1.26865e-06 1.74973e-06 -0.000535405)
(7.58684e-07 1.7357e-06 -0.000535163)
(2.24749e-07 1.73095e-06 -0.000535059)
(-2.24918e-07 1.73109e-06 -0.00053506)
(-7.58781e-07 1.73568e-06 -0.000535163)
(-1.26882e-06 1.74979e-06 -0.000535405)
(-1.77131e-06 1.77121e-06 -0.000535768)
(-2.30261e-06 1.78746e-06 -0.000536211)
(-2.75379e-06 1.81621e-06 -0.000536825)
(-3.44643e-06 1.75205e-06 -0.000537355)
(3.39603e-06 1.24806e-06 -0.000537017)
(2.75186e-06 1.30851e-06 -0.000536434)
(2.27445e-06 1.27667e-06 -0.000535843)
(1.74974e-06 1.26871e-06 -0.000535405)
(1.24978e-06 1.24981e-06 -0.000535053)
(7.46987e-07 1.23877e-06 -0.000534816)
(2.21089e-07 1.23411e-06 -0.000534714)
(-2.21227e-07 1.23419e-06 -0.000534714)
(-7.47064e-07 1.23878e-06 -0.000534816)
(-1.24985e-06 1.24986e-06 -0.000535053)
(-1.74975e-06 1.26876e-06 -0.000535405)
(-2.27439e-06 1.27676e-06 -0.000535843)
(-2.75163e-06 1.30858e-06 -0.000536434)
(-3.39547e-06 1.24799e-06 -0.000537017)
(3.32574e-06 7.50738e-07 -0.000536802)
(2.74156e-06 7.8726e-07 -0.000536173)
(2.24859e-06 7.61675e-07 -0.000535603)
(1.73566e-06 7.58711e-07 -0.000535163)
(1.23872e-06 7.47023e-07 -0.000534816)
(7.41129e-07 7.41186e-07 -0.000534578)
(2.19281e-07 7.38384e-07 -0.000534477)
(-2.19391e-07 7.38435e-07 -0.000534477)
(-7.41215e-07 7.41221e-07 -0.000534578)
(-1.23882e-06 7.47105e-07 -0.000534816)
(-1.73576e-06 7.5882e-07 -0.000535163)
(-2.24879e-06 7.61834e-07 -0.000535603)
(-2.74178e-06 7.87379e-07 -0.000536173)
(-3.3263e-06 7.50774e-07 -0.000536801)
(3.29636e-06 2.23633e-07 -0.000536715)
(2.7415e-06 2.34237e-07 -0.000536065)
(2.24097e-06 2.25739e-07 -0.000535501)
(1.73107e-06 2.24874e-07 -0.000535059)
(1.23414e-06 2.21206e-07 -0.000534714)
(7.38354e-07 2.19391e-07 -0.000534477)
(2.18412e-07 2.18504e-07 -0.000534376)
(-2.1848e-07 2.18537e-07 -0.000534376)
(-7.38388e-07 2.19413e-07 -0.000534477)
(-1.23413e-06 2.21244e-07 -0.000534714)
(-1.73097e-06 2.24917e-07 -0.000535059)
(-2.24083e-06 2.25805e-07 -0.000535501)
(-2.7412e-06 2.34396e-07 -0.000536065)
(-3.29645e-06 2.23973e-07 -0.000536715)
(3.29619e-06 -2.23724e-07 -0.000536715)
(2.74123e-06 -2.34223e-07 -0.000536065)
(2.24078e-06 -2.25669e-07 -0.000535501)
(1.73095e-06 -2.24799e-07 -0.000535059)
(1.23409e-06 -2.21124e-07 -0.000534714)
(7.38334e-07 -2.19297e-07 -0.000534477)
(2.18417e-07 -2.18411e-07 -0.000534376)
(-2.18472e-07 -2.18383e-07 -0.000534376)
(-7.38403e-07 -2.19267e-07 -0.000534477)
(-1.23417e-06 -2.21072e-07 -0.000534714)
(-1.73107e-06 -2.24733e-07 -0.000535059)
(-2.24097e-06 -2.25576e-07 -0.000535501)
(-2.74139e-06 -2.34071e-07 -0.000536065)
(-3.29646e-06 -2.23502e-07 -0.000536715)
(3.32588e-06 -7.50716e-07 -0.000536802)
(2.74172e-06 -7.87288e-07 -0.000536173)
(2.24867e-06 -7.61688e-07 -0.000535603)
(1.73571e-06 -7.58696e-07 -0.000535163)
(1.23875e-06 -7.46973e-07 -0.000534816)
(7.41155e-07 -7.41102e-07 -0.000534578)
(2.1933e-07 -7.38308e-07 -0.000534477)
(-2.19339e-07 -7.38257e-07 -0.000534477)
(-7.41181e-07 -7.41064e-07 -0.000534578)
(-1.23877e-06 -7.46895e-07 -0.000534816)
(-1.73569e-06 -7.58603e-07 -0.000535163)
(-2.24868e-06 -7.61558e-07 -0.000535602)
(-2.7416e-06 -7.87092e-07 -0.000536173)
(-3.32612e-06 -7.50516e-07 -0.000536801)
(3.39606e-06 -1.24801e-06 -0.000537017)
(2.75182e-06 -1.30845e-06 -0.000536434)
(2.27444e-06 -1.27663e-06 -0.000535843)
(1.74976e-06 -1.26865e-06 -0.000535405)
(1.24981e-06 -1.24972e-06 -0.000535053)
(7.47013e-07 -1.23867e-06 -0.000534816)
(2.21168e-07 -1.23406e-06 -0.000534714)
(-2.2115e-07 -1.23399e-06 -0.000534714)
(-7.47034e-07 -1.23866e-06 -0.000534816)
(-1.24981e-06 -1.24968e-06 -0.000535053)
(-1.74974e-06 -1.26863e-06 -0.000535405)
(-2.27435e-06 -1.27659e-06 -0.000535843)
(-2.75161e-06 -1.30843e-06 -0.000536434)
(-3.39534e-06 -1.24776e-06 -0.000537017)
(3.44581e-06 -1.75206e-06 -0.000537355)
(2.75359e-06 -1.81598e-06 -0.000536825)
(2.3024e-06 -1.78728e-06 -0.00053621)
(1.77124e-06 -1.77109e-06 -0.000535767)
(1.26873e-06 -1.7496e-06 -0.000535405)
(7.58718e-07 -1.73556e-06 -0.000535163)
(2.2485e-07 -1.73093e-06 -0.000535059)
(-2.24817e-07 -1.73081e-06 -0.000535059)
(-7.58744e-07 -1.73558e-06 -0.000535162)
(-1.26873e-06 -1.74957e-06 -0.000535405)
(-1.77124e-06 -1.77115e-06 -0.000535767)
(-2.30241e-06 -1.7873e-06 -0.00053621)
(-2.7535e-06 -1.81609e-06 -0.000536825)
(-3.44611e-06 -1.75182e-06 -0.000537355)
(3.56787e-06 -2.28227e-06 -0.000537802)
(2.78785e-06 -2.34163e-06 -0.000537301)
(2.33887e-06 -2.33883e-06 -0.000536655)
(1.78741e-06 -2.30226e-06 -0.00053621)
(1.27671e-06 -2.2742e-06 -0.000535843)
(7.617e-07 -2.24852e-06 -0.000535602)
(2.25716e-07 -2.2408e-06 -0.000535501)
(-2.25684e-07 -2.24065e-06 -0.000535501)
(-7.61728e-07 -2.24858e-06 -0.000535602)
(-1.27671e-06 -2.27417e-06 -0.000535843)
(-1.78747e-06 -2.30236e-06 -0.00053621)
(-2.33899e-06 -2.33885e-06 -0.000536655)
(-2.78796e-06 -2.34176e-06 -0.000537301)
(-3.56803e-06 -2.28219e-06 -0.000537802)
(3.49097e-06 -2.75064e-06 -0.000538418)
(2.74993e-06 -2.74981e-06 -0.000537946)
(2.34172e-06 -2.78782e-06 -0.000537302)
(1.81618e-06 -2.75335e-06 -0.000536825)
(1.30855e-06 -2.75144e-06 -0.000536434)
(7.87245e-07 -2.74141e-06 -0.000536173)
(2.34191e-07 -2.74116e-06 -0.000536065)
(-2.34227e-07 -2.74098e-06 -0.000536064)
(-7.87259e-07 -2.74153e-06 -0.000536172)
(-1.30851e-06 -2.75139e-06 -0.000536434)
(-1.81621e-06 -2.75345e-06 -0.000536824)
(-2.3418e-06 -2.78778e-06 -0.000537301)
(-2.75001e-06 -2.74983e-06 -0.000537946)
(-3.49136e-06 -2.751e-06 -0.000538418)
(3.61335e-06 -3.61296e-06 -0.000538848)
(2.75125e-06 -3.49112e-06 -0.000538418)
(2.2823e-06 -3.56792e-06 -0.000537803)
(1.752e-06 -3.44598e-06 -0.000537355)
(1.24792e-06 -3.39515e-06 -0.000537017)
(7.50696e-07 -3.32591e-06 -0.000536801)
(2.23632e-07 -3.29618e-06 -0.000536714)
(-2.23776e-07 -3.29618e-06 -0.000536714)
(-7.50629e-07 -3.32599e-06 -0.000536801)
(-1.24785e-06 -3.39519e-06 -0.000537017)
(-1.75193e-06 -3.44597e-06 -0.000537354)
(-2.28219e-06 -3.56794e-06 -0.000537802)
(-2.75107e-06 -3.491e-06 -0.000538418)
(-3.61361e-06 -3.61335e-06 -0.000538848)
(7.01728e-06 7.01688e-06 -0.000873003)
(5.43501e-06 6.79832e-06 -0.000872263)
(4.51194e-06 7.00467e-06 -0.000871199)
(3.47173e-06 6.80753e-06 -0.000870435)
(2.47731e-06 6.74354e-06 -0.000869862)
(1.49324e-06 6.62839e-06 -0.000869501)
(4.52232e-07 6.58014e-06 -0.000869362)
(-4.52297e-07 6.58029e-06 -0.000869362)
(-1.49356e-06 6.62856e-06 -0.000869501)
(-2.47763e-06 6.74364e-06 -0.000869862)
(-3.47202e-06 6.80801e-06 -0.000870435)
(-4.51223e-06 7.00503e-06 -0.000871199)
(-5.43528e-06 6.79916e-06 -0.000872263)
(-7.01684e-06 7.01703e-06 -0.000873004)
(6.79898e-06 5.43498e-06 -0.000872263)
(5.43973e-06 5.43947e-06 -0.000871497)
(4.64649e-06 5.55193e-06 -0.000870377)
(3.61918e-06 5.50661e-06 -0.000869564)
(2.61677e-06 5.52396e-06 -0.000868885)
(1.57907e-06 5.5184e-06 -0.00086843)
(4.76823e-07 5.52461e-06 -0.000868248)
(-4.76956e-07 5.52496e-06 -0.000868248)
(-1.57923e-06 5.51844e-06 -0.00086843)
(-2.61699e-06 5.5242e-06 -0.000868885)
(-3.61929e-06 5.50684e-06 -0.000869565)
(-4.64652e-06 5.55233e-06 -0.000870377)
(-5.43957e-06 5.43989e-06 -0.000871497)
(-6.79842e-06 5.4348e-06 -0.000872263)
(7.00472e-06 4.51203e-06 -0.000871199)
(5.55207e-06 4.64656e-06 -0.000870377)
(4.67492e-06 4.67489e-06 -0.000869241)
(3.58537e-06 4.62584e-06 -0.000868492)
(2.56741e-06 4.58814e-06 -0.000867857)
(1.53526e-06 4.54999e-06 -0.000867444)
(4.61791e-07 4.54023e-06 -0.000867276)
(-4.6193e-07 4.54053e-06 -0.000867276)
(-1.53529e-06 4.55e-06 -0.000867444)
(-2.56743e-06 4.5883e-06 -0.000867857)
(-3.58522e-06 4.62583e-06 -0.000868492)
(-4.67465e-06 4.67506e-06 -0.000869241)
(-5.55176e-06 4.64661e-06 -0.000870377)
(-7.00422e-06 4.51253e-06 -0.000871199)
(6.80787e-06 3.47186e-06 -0.000870435)
(5.5067e-06 3.61928e-06 -0.000869564)
(4.62577e-06 3.58536e-06 -0.000868492)
(3.57337e-06 3.57346e-06 -0.000867743)
(2.56774e-06 3.54412e-06 -0.000867114)
(1.53978e-06 3.52702e-06 -0.000866694)
(4.63221e-07 3.52242e-06 -0.00086652)
(-4.63353e-07 3.52265e-06 -0.00086652)
(-1.53981e-06 3.52701e-06 -0.000866694)
(-2.5678e-06 3.54424e-06 -0.000867114)
(-3.57339e-06 3.57342e-06 -0.000867743)
(-4.62584e-06 3.58548e-06 -0.000868492)
(-5.50672e-06 3.61915e-06 -0.000869564)
(-6.80773e-06 3.4725e-06 -0.000870435)
(6.7436e-06 2.47754e-06 -0.000869862)
(5.52414e-06 2.61701e-06 -0.000868885)
(4.58823e-06 2.56755e-06 -0.000867857)
(3.54414e-06 2.56792e-06 -0.000867114)
(2.53918e-06 2.53929e-06 -0.000866506)
(1.52192e-06 2.52511e-06 -0.000866094)
(4.57593e-07 2.519e-06 -0.000865924)
(-4.57682e-07 2.51915e-06 -0.000865924)
(-1.52192e-06 2.52512e-06 -0.000866094)
(-2.5392e-06 2.53938e-06 -0.000866505)
(-3.54414e-06 2.56794e-06 -0.000867114)
(-4.58841e-06 2.5677e-06 -0.000867857)
(-5.52426e-06 2.61705e-06 -0.000868886)
(-6.74488e-06 2.4781e-06 -0.000869862)
(6.62865e-06 1.49354e-06 -0.000869501)
(5.51849e-06 1.57928e-06 -0.00086843)
(4.54999e-06 1.53541e-06 -0.000867444)
(3.52694e-06 1.53995e-06 -0.000866694)
(2.52496e-06 1.52206e-06 -0.000866094)
(1.51523e-06 1.51542e-06 -0.000865679)
(4.55471e-07 1.51179e-06 -0.000865509)
(-4.55524e-07 1.51189e-06 -0.000865509)
(-1.51523e-06 1.51546e-06 -0.000865679)
(-2.52494e-06 1.52218e-06 -0.000866094)
(-3.52687e-06 1.54006e-06 -0.000866694)
(-4.54987e-06 1.53556e-06 -0.000867444)
(-5.5181e-06 1.57943e-06 -0.00086843)
(-6.62809e-06 1.49368e-06 -0.000869501)
(6.58035e-06 4.52311e-07 -0.000869361)
(5.52499e-06 4.77021e-07 -0.000868248)
(4.54051e-06 4.62076e-07 -0.000867275)
(3.52257e-06 4.63547e-07 -0.00086652)
(2.51898e-06 4.57897e-07 -0.000865924)
(1.51167e-06 4.55778e-07 -0.000865509)
(4.54322e-07 4.5456e-07 -0.000865339)
(-4.54299e-07 4.54627e-07 -0.000865339)
(-1.51159e-06 4.55786e-07 -0.000865509)
(-2.51884e-06 4.5794e-07 -0.000865924)
(-3.52233e-06 4.63597e-07 -0.00086652)
(-4.5403e-06 4.62201e-07 -0.000867275)
(-5.52476e-06 4.7735e-07 -0.000868248)
(-6.58055e-06 4.5278e-07 -0.000869361)
(6.58044e-06 -4.52187e-07 -0.000869361)
(5.5248e-06 -4.76729e-07 -0.000868248)
(4.54031e-06 -4.61676e-07 -0.000867275)
(3.52239e-06 -4.63085e-07 -0.000866519)
(2.51889e-06 -4.5745e-07 -0.000865924)
(1.51162e-06 -4.5529e-07 -0.000865509)
(4.5432e-07 -4.54117e-07 -0.000865339)
(-4.54295e-07 -4.54045e-07 -0.000865339)
(-1.51162e-06 -4.55237e-07 -0.000865509)
(-2.51891e-06 -4.57343e-07 -0.000865923)
(-3.52247e-06 -4.62963e-07 -0.000866519)
(-4.54043e-06 -4.61503e-07 -0.000867275)
(-5.52485e-06 -4.76528e-07 -0.000868248)
(-6.58022e-06 -4.51814e-07 -0.000869361)
(6.62865e-06 -1.49312e-06 -0.000869501)
(5.51858e-06 -1.5789e-06 -0.00086843)
(4.55007e-06 -1.53504e-06 -0.000867444)
(3.52699e-06 -1.53954e-06 -0.000866694)
(2.52501e-06 -1.52169e-06 -0.000866094)
(1.51527e-06 -1.51496e-06 -0.000865679)
(4.55561e-07 -1.51139e-06 -0.000865509)
(-4.55444e-07 -1.51127e-06 -0.000865509)
(-1.51518e-06 -1.51489e-06 -0.000865679)
(-2.52486e-06 -1.52154e-06 -0.000866094)
(-3.52679e-06 -1.53939e-06 -0.000866694)
(-4.54979e-06 -1.53484e-06 -0.000867444)
(-5.5181e-06 -1.57881e-06 -0.00086843)
(-6.62815e-06 -1.49317e-06 -0.000869501)
(6.74393e-06 -2.47715e-06 -0.000869862)
(5.52425e-06 -2.61653e-06 -0.000868885)
(4.58826e-06 -2.56709e-06 -0.000867856)
(3.54411e-06 -2.56744e-06 -0.000867114)
(2.53922e-06 -2.53892e-06 -0.000866505)
(1.52195e-06 -2.52461e-06 -0.000866094)
(4.57715e-07 -2.51865e-06 -0.000865923)
(-4.57563e-07 -2.5185e-06 -0.000865923)
(-1.52186e-06 -2.52456e-06 -0.000866094)
(-2.53913e-06 -2.53879e-06 -0.000866505)
(-3.54408e-06 -2.56732e-06 -0.000867114)
(-4.58838e-06 -2.56698e-06 -0.000867856)
(-5.52427e-06 -2.61645e-06 -0.000868885)
(-6.74466e-06 -2.47751e-06 -0.000869861)
(6.80792e-06 -3.47152e-06 -0.000870434)
(5.50691e-06 -3.61885e-06 -0.000869564)
(4.62591e-06 -3.58491e-06 -0.000868491)
(3.57339e-06 -3.57299e-06 -0.000867743)
(2.56785e-06 -3.54384e-06 -0.000867114)
(1.53987e-06 -3.52649e-06 -0.000866694)
(4.6339e-07 -3.52213e-06 -0.000866519)
(-4.63165e-07 -3.52194e-06 -0.000866519)
(-1.53968e-06 -3.52643e-06 -0.000866694)
(-2.5676e-06 -3.54366e-06 -0.000867114)
(-3.57313e-06 -3.57278e-06 -0.000867743)
(-4.62561e-06 -3.58462e-06 -0.000868491)
(-5.50676e-06 -3.61846e-06 -0.000869564)
(-6.80798e-06 -3.47189e-06 -0.000870435)
(7.00521e-06 -4.51168e-06 -0.000871199)
(5.55236e-06 -4.646e-06 -0.000870377)
(4.67504e-06 -4.67422e-06 -0.00086924)
(3.58536e-06 -4.62534e-06 -0.000868491)
(2.56758e-06 -4.58803e-06 -0.000867856)
(1.53538e-06 -4.54941e-06 -0.000867444)
(4.61939e-07 -4.54001e-06 -0.000867275)
(-4.61729e-07 -4.53983e-06 -0.000867275)
(-1.53515e-06 -4.54938e-06 -0.000867444)
(-2.56727e-06 -4.58792e-06 -0.000867856)
(-3.58502e-06 -4.62522e-06 -0.000868491)
(-4.67446e-06 -4.67403e-06 -0.00086924)
(-5.55176e-06 -4.64576e-06 -0.000870376)
(-7.00407e-06 -4.51181e-06 -0.000871198)
(6.79864e-06 -5.43477e-06 -0.000872263)
(5.43974e-06 -5.43931e-06 -0.000871497)
(4.64666e-06 -5.55131e-06 -0.000870377)
(3.61915e-06 -5.50629e-06 -0.000869564)
(2.61704e-06 -5.52379e-06 -0.000868885)
(1.57935e-06 -5.51762e-06 -0.00086843)
(4.76972e-07 -5.5243e-06 -0.000868247)
(-4.76827e-07 -5.52421e-06 -0.000868247)
(-1.57903e-06 -5.51755e-06 -0.000868429)
(-2.61664e-06 -5.52378e-06 -0.000868885)
(-3.61874e-06 -5.50614e-06 -0.000869564)
(-4.64615e-06 -5.55125e-06 -0.000870376)
(-5.43957e-06 -5.43881e-06 -0.000871496)
(-6.79877e-06 -5.43408e-06 -0.000872263)
(7.01686e-06 -7.01662e-06 -0.000873003)
(5.43492e-06 -6.79849e-06 -0.000872263)
(4.5126e-06 -7.00359e-06 -0.000871198)
(3.47256e-06 -6.80747e-06 -0.000870434)
(2.4781e-06 -6.74416e-06 -0.000869861)
(1.49373e-06 -6.62762e-06 -0.0008695)
(4.52283e-07 -6.57962e-06 -0.000869361)
(-4.52216e-07 -6.57986e-06 -0.000869361)
(-1.49328e-06 -6.62743e-06 -0.0008695)
(-2.47769e-06 -6.74433e-06 -0.000869861)
(-3.47208e-06 -6.80704e-06 -0.000870434)
(-4.51214e-06 -7.0036e-06 -0.000871198)
(-5.43453e-06 -6.79756e-06 -0.000872262)
(-7.01637e-06 -7.01552e-06 -0.000873003)
(1.20703e-05 1.20697e-05 -0.00133554)
(9.53649e-06 1.168e-05 -0.00133454)
(7.864e-06 1.20847e-05 -0.00133305)
(6.05299e-06 1.1807e-05 -0.001332)
(4.31153e-06 1.1755e-05 -0.00133122)
(2.59707e-06 1.15913e-05 -0.00133075)
(8.03956e-07 1.15235e-05 -0.00133058)
(-8.0446e-07 1.15236e-05 -0.00133058)
(-2.59778e-06 1.15918e-05 -0.00133075)
(-4.31217e-06 1.1755e-05 -0.00133122)
(-6.05363e-06 1.18079e-05 -0.001332)
(-7.86446e-06 1.20852e-05 -0.00133306)
(-9.53703e-06 1.16814e-05 -0.00133454)
(-1.20711e-05 1.20711e-05 -0.00133554)
(1.1681e-05 9.53627e-06 -0.00133454)
(9.51882e-06 9.51826e-06 -0.00133359)
(8.08624e-06 9.74823e-06 -0.00133203)
(6.32337e-06 9.67587e-06 -0.00133091)
(4.57554e-06 9.71944e-06 -0.00132996)
(2.76916e-06 9.71502e-06 -0.00132932)
(8.5628e-07 9.73008e-06 -0.00132907)
(-8.56678e-07 9.73036e-06 -0.00132907)
(-2.76965e-06 9.71535e-06 -0.00132932)
(-4.57605e-06 9.71962e-06 -0.00132996)
(-6.3238e-06 9.67635e-06 -0.00133091)
(-8.08658e-06 9.74854e-06 -0.00133203)
(-9.51881e-06 9.51918e-06 -0.00133359)
(-1.16804e-05 9.53754e-06 -0.00133454)
(1.2085e-05 7.86383e-06 -0.00133306)
(9.74842e-06 8.08607e-06 -0.00133203)
(8.18317e-06 8.18306e-06 -0.00133041)
(6.3006e-06 8.11678e-06 -0.00132941)
(4.51095e-06 8.07495e-06 -0.00132853)
(2.70109e-06 8.0219e-06 -0.00132797)
(8.31202e-07 8.01276e-06 -0.00132775)
(-8.31569e-07 8.01309e-06 -0.00132775)
(-2.70146e-06 8.02211e-06 -0.00132797)
(-4.51143e-06 8.07524e-06 -0.00132853)
(-6.30116e-06 8.11716e-06 -0.00132941)
(-8.18411e-06 8.18356e-06 -0.00133041)
(-9.74941e-06 8.08674e-06 -0.00133203)
(-1.20868e-05 7.8647e-06 -0.00133306)
(1.18078e-05 6.05313e-06 -0.001332)
(9.67634e-06 6.32345e-06 -0.00133091)
(8.11691e-06 6.30057e-06 -0.00132941)
(6.29699e-06 6.297e-06 -0.00132841)
(4.52877e-06 6.25855e-06 -0.00132754)
(2.72113e-06 6.23671e-06 -0.00132697)
(8.38277e-07 6.233e-06 -0.00132674)
(-8.38571e-07 6.23331e-06 -0.00132674)
(-2.72135e-06 6.23685e-06 -0.00132697)
(-4.52901e-06 6.25884e-06 -0.00132754)
(-6.29715e-06 6.29734e-06 -0.00132841)
(-8.11697e-06 6.30102e-06 -0.00132941)
(-9.67601e-06 6.32401e-06 -0.00133091)
(-1.18066e-05 6.05343e-06 -0.001332)
(1.1755e-05 4.31179e-06 -0.00133122)
(9.71965e-06 4.57582e-06 -0.00132996)
(8.07512e-06 4.51113e-06 -0.00132853)
(6.25862e-06 4.52898e-06 -0.00132754)
(4.48844e-06 4.48856e-06 -0.00132671)
(2.69457e-06 4.47152e-06 -0.00132615)
(8.29794e-07 4.46428e-06 -0.00132593)
(-8.29992e-07 4.4645e-06 -0.00132593)
(-2.69469e-06 4.47159e-06 -0.00132615)
(-4.48858e-06 4.48874e-06 -0.00132671)
(-6.25877e-06 4.52914e-06 -0.00132754)
(-8.07532e-06 4.51138e-06 -0.00132853)
(-9.72002e-06 4.57598e-06 -0.00132996)
(-1.17555e-05 4.31212e-06 -0.00133122)
(1.15919e-05 2.59753e-06 -0.00133075)
(9.71549e-06 2.76956e-06 -0.00132932)
(8.02212e-06 2.70137e-06 -0.00132797)
(6.23674e-06 2.72143e-06 -0.00132697)
(4.47135e-06 2.69479e-06 -0.00132615)
(2.6876e-06 2.68788e-06 -0.00132558)
(8.27842e-07 2.68325e-06 -0.00132536)
(-8.27996e-07 2.68342e-06 -0.00132536)
(-2.68771e-06 2.68795e-06 -0.00132558)
(-4.47147e-06 2.69497e-06 -0.00132615)
(-6.23685e-06 2.72158e-06 -0.00132697)
(-8.02228e-06 2.7016e-06 -0.00132797)
(-9.71556e-06 2.76965e-06 -0.00132932)
(-1.15924e-05 2.59776e-06 -0.00133075)
(1.15238e-05 8.04352e-07 -0.00133058)
(9.73051e-06 8.56697e-07 -0.00132907)
(8.01313e-06 8.31627e-07 -0.00132775)
(6.23322e-06 8.38783e-07 -0.00132674)
(4.46427e-06 8.30256e-07 -0.00132593)
(2.68308e-06 8.28329e-07 -0.00132536)
(8.26371e-07 8.26733e-07 -0.00132514)
(-8.26402e-07 8.26844e-07 -0.00132514)
(-2.68306e-06 8.28304e-07 -0.00132536)
(-4.4642e-06 8.30306e-07 -0.00132593)
(-6.23311e-06 8.38864e-07 -0.00132674)
(-8.01307e-06 8.31888e-07 -0.00132775)
(-9.73056e-06 8.57125e-07 -0.00132907)
(-1.15245e-05 8.0497e-07 -0.00133058)
(1.1524e-05 -8.04094e-07 -0.00133058)
(9.73044e-06 -8.56222e-07 -0.00132907)
(8.01297e-06 -8.31094e-07 -0.00132775)
(6.23305e-06 -8.38077e-07 -0.00132674)
(4.46416e-06 -8.29564e-07 -0.00132593)
(2.68301e-06 -8.2755e-07 -0.00132536)
(8.26344e-07 -8.26055e-07 -0.00132514)
(-8.2642e-07 -8.25933e-07 -0.00132514)
(-2.68312e-06 -8.27509e-07 -0.00132536)
(-4.46429e-06 -8.29443e-07 -0.00132593)
(-6.23323e-06 -8.37957e-07 -0.00132674)
(-8.01309e-06 -8.30906e-07 -0.00132775)
(-9.73041e-06 -8.55922e-07 -0.00132907)
(-1.15238e-05 -8.03681e-07 -0.00133058)
(1.15917e-05 -2.59701e-06 -0.00133075)
(9.71538e-06 -2.76896e-06 -0.00132932)
(8.02216e-06 -2.70092e-06 -0.00132797)
(6.2368e-06 -2.72081e-06 -0.00132697)
(4.47143e-06 -2.69422e-06 -0.00132615)
(2.68766e-06 -2.6872e-06 -0.00132558)
(8.2794e-07 -2.68265e-06 -0.00132536)
(-8.27906e-07 -2.68249e-06 -0.00132536)
(-2.68767e-06 -2.68714e-06 -0.00132558)
(-4.47141e-06 -2.69407e-06 -0.00132615)
(-6.23683e-06 -2.72067e-06 -0.00132697)
(-8.02226e-06 -2.70072e-06 -0.00132797)
(-9.71568e-06 -2.76874e-06 -0.00132932)
(-1.15926e-05 -2.59691e-06 -0.00133075)
(1.17555e-05 -4.3114e-06 -0.00133122)
(9.71989e-06 -4.5753e-06 -0.00132996)
(8.07531e-06 -4.5108e-06 -0.00132853)
(6.25874e-06 -4.52837e-06 -0.00132754)
(4.48853e-06 -4.48804e-06 -0.00132671)
(2.69464e-06 -4.47089e-06 -0.00132615)
(8.29926e-07 -4.46376e-06 -0.00132593)
(-8.2988e-07 -4.46356e-06 -0.00132593)
(-2.69464e-06 -4.47082e-06 -0.00132615)
(-4.4885e-06 -4.48788e-06 -0.00132671)
(-6.2587e-06 -4.52822e-06 -0.00132754)
(-8.07515e-06 -4.51055e-06 -0.00132853)
(-9.71967e-06 -4.57501e-06 -0.00132996)
(-1.17549e-05 -4.31111e-06 -0.00133122)
(1.18076e-05 -6.05279e-06 -0.001332)
(9.67628e-06 -6.32306e-06 -0.00133091)
(8.11722e-06 -6.30053e-06 -0.00132941)
(6.2973e-06 -6.2965e-06 -0.00132841)
(4.52902e-06 -6.25816e-06 -0.00132754)
(2.72134e-06 -6.23623e-06 -0.00132697)
(8.38524e-07 -6.2326e-06 -0.00132674)
(-8.38365e-07 -6.23236e-06 -0.00132674)
(-2.72118e-06 -6.2361e-06 -0.00132697)
(-4.52878e-06 -6.25799e-06 -0.00132754)
(-6.29703e-06 -6.29633e-06 -0.00132841)
(-8.11681e-06 -6.30028e-06 -0.00132941)
(-9.67594e-06 -6.32298e-06 -0.00133091)
(-1.18068e-05 -6.05243e-06 -0.001332)
(1.20854e-05 -7.86377e-06 -0.00133306)
(9.74876e-06 -8.08593e-06 -0.00133203)
(8.18364e-06 -8.18334e-06 -0.00133041)
(6.30096e-06 -8.11626e-06 -0.00132941)
(4.51123e-06 -8.07457e-06 -0.00132853)
(2.70138e-06 -8.02159e-06 -0.00132797)
(8.3149e-07 -8.01236e-06 -0.00132775)
(-8.31372e-07 -8.01218e-06 -0.00132775)
(-2.70123e-06 -8.02139e-06 -0.00132797)
(-4.51112e-06 -8.07441e-06 -0.00132853)
(-6.30095e-06 -8.11597e-06 -0.00132941)
(-8.18383e-06 -8.1831e-06 -0.00133041)
(-9.74889e-06 -8.08552e-06 -0.00133203)
(-1.20862e-05 -7.86343e-06 -0.00133306)
(1.16808e-05 -9.53628e-06 -0.00133454)
(9.51898e-06 -9.51844e-06 -0.00133359)
(8.08674e-06 -9.74857e-06 -0.00133203)
(6.32409e-06 -9.67551e-06 -0.00133091)
(4.57596e-06 -9.7191e-06 -0.00132996)
(2.76959e-06 -9.71497e-06 -0.00132932)
(8.56639e-07 -9.72958e-06 -0.00132907)
(-8.56427e-07 -9.72953e-06 -0.00132907)
(-2.76913e-06 -9.71452e-06 -0.00132932)
(-4.57549e-06 -9.71894e-06 -0.00132996)
(-6.32356e-06 -9.67473e-06 -0.00133091)
(-8.0864e-06 -9.74813e-06 -0.00133203)
(-9.51888e-06 -9.51765e-06 -0.00133359)
(-1.16809e-05 -9.53639e-06 -0.00133454)
(1.2071e-05 -1.20706e-05 -0.00133554)
(9.53768e-06 -1.16804e-05 -0.00133454)
(7.86471e-06 -1.20859e-05 -0.00133306)
(6.05359e-06 -1.18064e-05 -0.001332)
(4.31211e-06 -1.17543e-05 -0.00133122)
(2.5978e-06 -1.15918e-05 -0.00133075)
(8.04429e-07 -1.1523e-05 -0.00133058)
(-8.04197e-07 -1.15232e-05 -0.00133058)
(-2.59723e-06 -1.15913e-05 -0.00133075)
(-4.31159e-06 -1.17544e-05 -0.00133122)
(-6.0529e-06 -1.18053e-05 -0.001332)
(-7.86428e-06 -1.20854e-05 -0.00133306)
(-9.53726e-06 -1.16792e-05 -0.00133454)
(-1.20714e-05 -1.20702e-05 -0.00133554)
(1.83828e-05 1.83822e-05 -0.0019591)
(1.47574e-05 1.77548e-05 -0.00195796)
(1.20771e-05 1.8368e-05 -0.00195618)
(9.28777e-06 1.80018e-05 -0.0019549)
(6.59458e-06 1.79735e-05 -0.00195399)
(3.96322e-06 1.77732e-05 -0.00195346)
(1.24933e-06 1.76821e-05 -0.00195331)
(-1.25036e-06 1.76824e-05 -0.00195331)
(-3.96428e-06 1.77738e-05 -0.00195346)
(-6.59555e-06 1.79738e-05 -0.001954)
(-9.28867e-06 1.80029e-05 -0.0019549)
(-1.20776e-05 1.83689e-05 -0.00195618)
(-1.47577e-05 1.77556e-05 -0.00195796)
(-1.83831e-05 1.83823e-05 -0.0019591)
(1.77557e-05 1.47569e-05 -0.00195796)
(1.46759e-05 1.46751e-05 -0.00195696)
(1.23532e-05 1.50345e-05 -0.00195507)
(9.68086e-06 1.49062e-05 -0.00195374)
(6.99446e-06 1.4965e-05 -0.0019526)
(4.23963e-06 1.49485e-05 -0.00195181)
(1.33876e-06 1.49644e-05 -0.00195153)
(-1.33955e-06 1.49648e-05 -0.00195153)
(-4.24048e-06 1.49491e-05 -0.00195181)
(-6.9953e-06 1.49654e-05 -0.0019526)
(-9.68161e-06 1.49071e-05 -0.00195374)
(-1.23535e-05 1.5035e-05 -0.00195507)
(-1.46759e-05 1.4676e-05 -0.00195696)
(-1.77553e-05 1.47572e-05 -0.00195796)
(1.83685e-05 1.20767e-05 -0.00195618)
(1.50348e-05 1.23527e-05 -0.00195507)
(1.2543e-05 1.25427e-05 -0.00195309)
(9.68922e-06 1.24411e-05 -0.00195193)
(6.92836e-06 1.23986e-05 -0.00195089)
(4.15205e-06 1.23265e-05 -0.00195022)
(1.30342e-06 1.23176e-05 -0.00194999)
(-1.30392e-06 1.23179e-05 -0.00194999)
(-4.15253e-06 1.23269e-05 -0.00195022)
(-6.92884e-06 1.23989e-05 -0.00195089)
(-9.68967e-06 1.24416e-05 -0.00195193)
(-1.25434e-05 1.25429e-05 -0.00195309)
(-1.50353e-05 1.2353e-05 -0.00195507)
(-1.8368e-05 1.20771e-05 -0.00195618)
(1.80026e-05 9.28758e-06 -0.0019549)
(1.4907e-05 9.68065e-06 -0.00195374)
(1.24416e-05 9.68899e-06 -0.00195193)
(9.68092e-06 9.68065e-06 -0.00195077)
(6.95712e-06 9.63141e-06 -0.00194976)
(4.18461e-06 9.59685e-06 -0.00194908)
(1.31606e-06 9.59239e-06 -0.00194883)
(-1.31652e-06 9.59274e-06 -0.00194883)
(-4.18507e-06 9.59714e-06 -0.00194908)
(-6.95771e-06 9.63178e-06 -0.00194976)
(-9.68172e-06 9.68111e-06 -0.00195077)
(-1.24428e-05 9.68951e-06 -0.00195193)
(-1.49087e-05 9.68132e-06 -0.00195374)
(-1.80057e-05 9.28835e-06 -0.0019549)
(1.79738e-05 6.59457e-06 -0.001954)
(1.49654e-05 6.99448e-06 -0.0019526)
(1.23989e-05 6.92832e-06 -0.00195089)
(9.63169e-06 6.9571e-06 -0.00194976)
(6.90572e-06 6.90564e-06 -0.00194879)
(4.14875e-06 6.88155e-06 -0.00194813)
(1.3043e-06 6.87329e-06 -0.00194789)
(-1.30452e-06 6.87357e-06 -0.00194789)
(-4.14892e-06 6.8817e-06 -0.00194813)
(-6.90592e-06 6.90591e-06 -0.00194879)
(-9.63189e-06 6.95741e-06 -0.00194976)
(-1.23991e-05 6.92875e-06 -0.00195089)
(-1.49655e-05 6.99527e-06 -0.0019526)
(-1.7973e-05 6.59516e-06 -0.001954)
(1.7774e-05 3.96351e-06 -0.00195347)
(1.49493e-05 4.2399e-06 -0.00195181)
(1.23271e-05 4.15223e-06 -0.00195022)
(9.59721e-06 4.18481e-06 -0.00194908)
(6.88164e-06 4.14887e-06 -0.00194813)
(4.13849e-06 4.13866e-06 -0.00194747)
(1.3018e-06 4.13281e-06 -0.00194723)
(-1.30202e-06 4.13302e-06 -0.00194723)
(-4.13868e-06 4.13871e-06 -0.00194747)
(-6.88184e-06 4.14903e-06 -0.00194813)
(-9.59745e-06 4.18496e-06 -0.00194908)
(-1.23273e-05 4.15248e-06 -0.00195022)
(-1.49497e-05 4.2403e-06 -0.00195181)
(-1.77736e-05 3.96382e-06 -0.00195347)
(1.76826e-05 1.24982e-06 -0.00195331)
(1.49651e-05 1.33926e-06 -0.00195153)
(1.23182e-05 1.30389e-06 -0.00194999)
(9.59287e-06 1.31659e-06 -0.00194883)
(6.87352e-06 1.30475e-06 -0.00194789)
(4.13279e-06 1.30229e-06 -0.00194723)
(1.29996e-06 1.30028e-06 -0.00194699)
(-1.30003e-06 1.30044e-06 -0.00194699)
(-4.13284e-06 1.30226e-06 -0.00194723)
(-6.87358e-06 1.30482e-06 -0.00194789)
(-9.59299e-06 1.31667e-06 -0.00194883)
(-1.23184e-05 1.30413e-06 -0.00194999)
(-1.49657e-05 1.33972e-06 -0.00195153)
(-1.7683e-05 1.25048e-06 -0.00195331)
(1.76829e-05 -1.2498e-06 -0.00195331)
(1.49652e-05 -1.33895e-06 -0.00195153)
(1.23181e-05 -1.30332e-06 -0.00194999)
(9.59275e-06 -1.31585e-06 -0.00194883)
(6.8734e-06 -1.30393e-06 -0.00194789)
(4.13269e-06 -1.30141e-06 -0.00194723)
(1.2999e-06 -1.29959e-06 -0.00194699)
(-1.30009e-06 -1.29944e-06 -0.00194699)
(-4.13292e-06 -1.30148e-06 -0.00194723)
(-6.87366e-06 -1.30392e-06 -0.00194789)
(-9.59304e-06 -1.31577e-06 -0.00194883)
(-1.23183e-05 -1.30301e-06 -0.00194999)
(-1.49654e-05 -1.33844e-06 -0.00195153)
(-1.76823e-05 -1.24904e-06 -0.00195331)
(1.77741e-05 -3.96337e-06 -0.00195347)
(1.49493e-05 -4.23955e-06 -0.00195181)
(1.23271e-05 -4.15169e-06 -0.00195022)
(9.59729e-06 -4.18424e-06 -0.00194908)
(6.8817e-06 -4.14818e-06 -0.00194813)
(4.13851e-06 -4.13793e-06 -0.00194747)
(1.30186e-06 -4.13223e-06 -0.00194723)
(-1.30199e-06 -4.13204e-06 -0.00194723)
(-4.13867e-06 -4.13791e-06 -0.00194747)
(-6.88182e-06 -4.14809e-06 -0.00194813)
(-9.59744e-06 -4.18411e-06 -0.00194908)
(-1.23272e-05 -4.15142e-06 -0.00195022)
(-1.49498e-05 -4.23927e-06 -0.00195181)
(-1.77736e-05 -3.96268e-06 -0.00195347)
(1.79746e-05 -6.59456e-06 -0.001954)
(1.49661e-05 -6.99427e-06 -0.0019526)
(1.23994e-05 -6.92785e-06 -0.00195089)
(9.63199e-06 -6.95675e-06 -0.00194976)
(6.90589e-06 -6.90502e-06 -0.00194879)
(4.14878e-06 -6.88098e-06 -0.00194813)
(1.30437e-06 -6.87285e-06 -0.00194789)
(-1.30449e-06 -6.87262e-06 -0.00194789)
(-4.14887e-06 -6.88089e-06 -0.00194813)
(-6.90579e-06 -6.90491e-06 -0.00194879)
(-9.63164e-06 -6.95656e-06 -0.00194976)
(-1.23986e-05 -6.92755e-06 -0.00195089)
(-1.49649e-05 -6.99408e-06 -0.0019526)
(-1.79722e-05 -6.59384e-06 -0.001954)
(1.80031e-05 -9.28756e-06 -0.0019549)
(1.49074e-05 -9.68052e-06 -0.00195374)
(1.24419e-05 -9.68856e-06 -0.00195193)
(9.6813e-06 -9.68069e-06 -0.00195077)
(6.95744e-06 -9.63085e-06 -0.00194976)
(4.18479e-06 -9.59654e-06 -0.00194908)
(1.31629e-06 -9.59212e-06 -0.00194883)
(-1.31637e-06 -9.59187e-06 -0.00194883)
(-4.18483e-06 -9.59632e-06 -0.00194908)
(-6.95743e-06 -9.63069e-06 -0.00194976)
(-9.68136e-06 -9.68034e-06 -0.00195077)
(-1.24422e-05 -9.68817e-06 -0.00195193)
(-1.49085e-05 -9.68001e-06 -0.00195374)