/*--------------------------------*- C++ -*----------------------------------*\
| =========                 |                                                 |
| \\      /  F ield         | OpenFOAM: The Open Source CFD Toolbox           |
|  \\    /   O peration     | Version:  v2106                                 |
|   \\  /    A nd           | Website:  www.openfoam.com                      |
|    \\/     M anipulation  |                                                 |
\*---------------------------------------------------------------------------*/
FoamFile
{
    version     2.0;
    format      ascii;
    arch        "LSB;label=32;scalar=64";
    class       volScalarField;
    location    "0.000156";
    object      p;
}
// * * * * * * * * * * * * * * * * * * * * * * * * * * * * * * * * * * * * * //

dimensions      [1 -1 -2 0 0 0 0];

internalField   nonuniform List<scalar> 
17924
(
236680
236735
236785
236832
235791
235836
235882
235926
235969
236011
236051
235825
235867
235916
235962
236007
236051
236094
235863
235908
235958
236004
236051
236095
236138
235898
235944
235995
236042
236090
236136
236180
235933
235982
236033
236082
236130
236177
236221
235966
236017
236068
236118
236167
236214
236260
235998
236050
236102
236152
236202
236249
236294
236028
236081
236132
236183
236232
236280
236325
236055
236109
236160
236211
236260
236308
236352
236082
236135
236186
236237
236285
236332
236377
236106
236159
236209
236260
236307
236354
236398
236129
236182
236231
236281
236328
236373
236416
236151
236203
236251
236300
236346
236390
236432
236176
236228
236272
236319
236362
236405
236445
234854
234884
234919
234952
234986
235019
235052
235084
235114
235144
235172
235199
235225
235253
234896
234925
234961
234996
235032
235067
235101
235135
235167
235198
235227
235255
235282
235313
234943
234974
235012
235047
235083
235118
235153
235186
235219
235250
235279
235308
235334
235365
234988
235021
235060
235096
235134
235170
235205
235240
235273
235304
235334
235363
235390
235420
235035
235071
235110
235147
235185
235222
235258
235292
235326
235357
235387
235416
235443
235471
235082
235120
235159
235198
235236
235273
235310
235345
235378
235410
235441
235469
235496
235523
235129
235169
235208
235248
235286
235324
235360
235396
235429
235461
235491
235519
235547
235571
235176
235217
235257
235297
235335
235373
235410
235445
235478
235510
235540
235568
235595
235620
235222
235264
235304
235344
235383
235421
235457
235492
235525
235557
235586
235614
235641
235664
235268
235310
235350
235390
235429
235467
235503
235537
235570
235601
235630
235657
235685
235707
235312
235354
235394
235434
235473
235510
235546
235580
235612
235643
235671
235698
235725
235747
235356
235398
235438
235477
235515
235552
235587
235620
235651
235681
235709
235735
235762
235784
235396
235438
235477
235516
235553
235590
235624
235656
235687
235716
235744
235769
235795
235819
235440
235481
235518
235556
235591
235625
235658
235689
235718
235746
235773
235798
235824
235849
233948
233964
233985
234007
234028
234050
234072
234093
234113
234134
234154
234173
234193
234214
233987
234003
234026
234047
234070
234092
234114
234136
234157
234178
234198
234219
234238
234261
234029
234046
234070
234091
234114
234136
234158
234180
234201
234222
234242
234262
234281
234305
234072
234090
234114
234136
234159
234181
234203
234225
234247
234268
234289
234309
234328
234350
234116
234136
234159
234182
234205
234227
234249
234271
234293
234314
234335
234355
234374
234395
234162
234183
234206
234228
234251
234274
234296
234318
234340
234361
234382
234402
234422
234441
234207
234230
234253
234276
234299
234322
234344
234366
234387
234408
234429
234449
234469
234487
234255
234278
234301
234324
234347
234370
234392
234414
234435
234456
234477
234497
234517
234535
234302
234326
234349
234373
234395
234418
234441
234462
234484
234504
234525
234545
234565
234582
234350
234375
234397
234421
234444
234467
234489
234510
234532
234552
234573
234592
234613
234629
234395
234421
234444
234468
234491
234514
234536
234557
234578
234599
234619
234639
234659
234674
234443
234469
234491
234515
234537
234560
234581
234603
234623
234644
234664
234683
234704
234719
234486
234512
234534
234558
234581
234603
234625
234646
234667
234687
234706
234726
234746
234762
234534
234557
234580
234602
234624
234645
234666
234686
234706
234725
234744
234764
234784
234805
233116
233122
233133
233143
233153
233164
233174
233184
233195
233205
233215
233226
233236
233248
233147
233153
233164
233174
233184
233195
233205
233215
233225
233236
233246
233257
233266
233279
233179
233185
233196
233206
233216
233226
233236
233246
233256
233266
233276
233286
233295
233308
233212
233218
233229
233238
233248
233258
233267
233277
233287
233297
233307
233317
233326
233338
233245
233252
233262
233272
233281
233290
233300
233309
233319
233328
233338
233348
233357
233368
233279
233287
233297
233306
233315
233324
233333
233342
233352
233361
233371
233380
233390
233399
233314
233323
233332
233341
233350
233359
233367
233376
233386
233395
233405
233414
233424
233432
233350
233359
233368
233377
233385
233394
233403
233412
233421
233430
233440
233449
233459
233466
233385
233395
233404
233413
233421
233430
233439
233448
233457
233466
233476
233485
233494
233501
233421
233432
233439
233449
233458
233467
233476
233485
233494
233503
233513
233522
233531
233537
233456
233467
233475
233484
233494
233503
233512
233521
233530
233540
233549
233558
233567
233573
233492
233503
233510
233520
233529
233538
233547
233557
233566
233576
233586
233595
233604
233610
233526
233536
233544
233554
233563
233573
233582
233592
233602
233611
233621
233630
233639
233645
233563
233571
233579
233588
233597
233606
233616
233625
233635
233645
233655
233664
233675
233685
232348
232349
232351
232354
232356
232357
232359
232361
232363
232365
232367
232368
232370
232373
232370
232369
232372
232374
232376
232377
232379
232381
232382
232384
232385
232387
232388
232391
232390
232390
232392
232394
232396
232397
232398
232400
232401
232402
232403
232404
232405
232407
232412
232411
232413
232414
232416
232417
232418
232419
232420
232420
232421
232422
232422
232424
232433
232432
232434
232435
232436
232437
232437
232438
232439
232439
232439
232440
232440
232441
232454
232454
232455
232456
232456
232457
232457
232457
232458
232458
232458
232458
232458
232458
232475
232475
232476
232477
232477
232477
232477
232477
232478
232478
232478
232478
232477
232476
232495
232496
232497
232497
232498
232498
232498
232498
232498
232498
232498
232497
232497
232495
232516
232517
232518
232518
232518
232518
232518
232518
232518
232518
232518
232518
232517
232515
232536
232538
232538
232538
232538
232538
232539
232539
232539
232539
232539
232538
232538
232535
232555
232557
232557
232558
232558
232558
232559
232559
232559
232559
232560
232559
232559
232556
232574
232576
232576
232577
232577
232578
232579
232579
232580
232580
232580
232580
232580
232578
232593
232595
232595
232596
232597
232597
232598
232599
232600
232601
232601
232601
232601
232599
232613
232613
232613
232614
232615
232616
232618
232619
232620
232621
232622
232623
232624
232623
231604
231602
231601
231598
231596
231593
231590
231587
231583
231580
231576
231571
231566
231562
231617
231614
231613
231610
231608
231605
231602
231598
231594
231590
231586
231581
231575
231571
231629
231626
231624
231622
231619
231616
231613
231609
231605
231601
231596
231590
231584
231579
231640
231637
231635
231633
231630
231627
231623
231619
231615
231610
231605
231599
231593
231588
231650
231648
231646
231644
231640
231637
231633
231629
231625
231620
231614
231608
231602
231596
231661
231659
231656
231654
231650
231647
231643
231639
231634
231629
231623
231617
231610
231604
231670
231668
231666
231663
231660
231656
231652
231648
231643
231638
231632
231625
231618
231611
231679
231677
231674
231672
231668
231665
231661
231656
231651
231646
231640
231633
231626
231619
231687
231685
231682
231679
231676
231672
231668
231664
231659
231654
231648
231641
231634
231627
231694
231692
231689
231686
231683
231679
231675
231671
231666
231661
231655
231649
231642
231634
231701
231698
231696
231693
231689
231686
231682
231678
231673
231668
231663
231656
231649
231641
231706
231704
231701
231698
231695
231692
231688
231685
231680
231675
231670
231663
231657
231648
231712
231709
231707
231704
231701
231698
231695
231691
231687
231682
231677
231671
231664
231656
231716
231713
231711
231709
231706
231704
231701
231698
231694
231690
231685
231679
231673
231665
230854
230851
230848
230844
230840
230836
230831
230826
230820
230814
230807
230800
230792
230784
230860
230857
230854
230850
230846
230842
230837
230831
230825
230818
230811
230803
230796
230788
230865
230862
230859
230855
230851
230847
230842
230836
230830
230823
230816
230808
230800
230792
230869
230866
230863
230860
230856
230852
230847
230841
230835
230828
230820
230812
230804
230796
230873
230870
230867
230864
230860
230855
230850
230845
230838
230831
230824
230815
230807
230798
230875
230873
230870
230867
230863
230858
230853
230848
230841
230834
230826
230818
230810
230801
230877
230875
230872
230868
230865
230860
230855
230850
230843
230836
230828
230820
230811
230802
230878
230876
230873
230869
230866
230861
230856
230851
230844
230837
230829
230821
230812
230803
230878
230876
230873
230869
230866
230861
230856
230851
230844
230837
230830
230821
230813
230804
230878
230875
230872
230869
230865
230861
230856
230850
230844
230837
230829
230821
230813
230804
230876
230873
230871
230867
230864
230860
230855
230849
230843
230836
230829
230821
230812
230803
230874
230871
230869
230865
230862
230858
230853
230848
230842
230835
230828
230820
230811
230802
230872
230869
230866
230863
230860
230856
230852
230846
230841
230834
230826
230818
230810
230801
230868
230865
230863
230861
230858
230854
230850
230845
230839
230833
230826
230818
230810
230801
230096
230092
230088
230084
230080
230076
230072
230067
230061
230055
230049
230043
230037
230029
230096
230092
230089
230086
230082
230078
230073
230068
230062
230056
230049
230043
230036
230030
230096
230093
230090
230086
230083
230078
230074
230069
230063
230057
230051
230044
230037
230031
230096
230093
230090
230087
230083
230079
230074
230069
230064
230057
230051
230044
230038
230031
230095
230092
230089
230086
230083
230079
230074
230069
230064
230057
230051
230044
230038
230031
230093
230091
230088
230085
230082
230078
230074
230068
230063
230057
230050
230044
230037
230030
230091
230089
230086
230084
230080
230076
230072
230067
230062
230055
230049
230042
230036
230029
230089
230087
230084
230081
230078
230074
230070
230065
230060
230054
230047
230041
230034
230027
230086
230083
230081
230078
230075
230071
230067
230062
230057
230051
230045
230038
230031
230025
230082
230080
230078
230075
230072
230068
230064
230059
230054
230048
230042
230035
230028
230022
230079
230076
230074
230071
230068
230065
230060
230056
230050
230044
230038
230032
230025
230019
230075
230072
230070
230067
230064
230061
230056
230052
230046
230041
230034
230028
230021
230015
230071
230068
230066
230063
230060
230057
230052
230048
230042
230037
230030
230024
230018
230011
230066
230063
230061
230059
230056
230052
230048
230043
230038
230033
230027
230021
230014
230008
229354
229349
229345
229341
229338
229334
229331
229327
229324
229321
229317
229315
229312
229309
229350
229346
229342
229339
229336
229332
229329
229325
229322
229318
229315
229312
229309
229307
229347
229343
229340
229336
229333
229330
229326
229323
229319
229316
229313
229310
229307
229304
229344
229341
229337
229334
229330
229327
229324
229320
229317
229314
229311
229308
229305
229302
229341
229338
229335
229331
229328
229325
229322
229318
229315
229312
229308
229305
229303
229300
229338
229335
229332
229329
229326
229322
229319
229316
229313
229309
229306
229303
229301
229298
229335
229332
229329
229326
229323
229320
229317
229314
229310
229307
229304
229301
229299
229296
229333
229330
229326
229324
229321
229317
229314
229311
229308
229305
229302
229299
229296
229294
229330
229327
229324
229321
229318
229315
229312
229309
229306
229302
229299
229296
229294
229291
229327
229324
229321
229318
229315
229312
229309
229306
229303
229300
229297
229294
229291
229289
229325
229322
229319
229316
229313
229310
229307
229304
229301
229297
229294
229292
229289
229287
229323
229319
229317
229314
229311
229308
229305
229301
229298
229295
229292
229289
229287
229285
229321
229317
229315
229312
229309
229306
229303
229299
229296
229293
229290
229287
229284
229282
229319
229316
229313
229310
229307
229304
229300
229297
229294
229291
229288
229285
229283
229280
228665
228659
228654
228650
228647
228644
228642
228641
228640
228639
228639
228640
228641
228643
228659
228654
228650
228646
228642
228640
228637
228636
228635
228634
228635
228635
228636
228637
228655
228650
228645
228641
228638
228635
228632
228631
228630
228630
228630
228631
228632
228633
228650
228646
228641
228637
228633
228631
228628
228627
228626
228626
228626
228627
228629
228630
228647
228642
228637
228633
228630
228627
228625
228623
228622
228622
228623
228624
228625
228627
228644
228639
228635
228630
228627
228624
228622
228620
228620
228620
228620
228621
228623
228624
228642
228637
228632
228628
228625
228622
228620
228618
228617
228617
228618
228619
228621
228623
228640
228635
228631
228627
228623
228620
228618
228617
228616
228616
228616
228617
228619
228621
228639
228634
228630
228626
228622
228620
228617
228616
228615
228615
228615
228616
228618
228620
228638
228634
228629
228626
228622
228619
228617
228616
228615
228615
228615
228616
228618
228620
228638
228634
228630
228626
228623
228620
228618
228616
228615
228615
228615
228616
228618
228620
228639
228635
228631
228627
228624
228621
228619
228617
228616
228616
228616
228617
228618
228620
228641
228636
228632
228629
228625
228623
228620
228619
228617
228617
228617
228618
228619
228621
228643
228638
228634
228630
228627
228624
228622
228620
228619
228618
228619
228619
228621
228623
228052
228046
228041
228037
228034
228032
228031
228030
228031
228032
228034
228036
228039
228043
228046
228041
228036
228032
228028
228026
228025
228024
228025
228026
228028
228031
228034
228037
228041
228036
228031
228026
228023
228021
228019
228019
228019
228021
228023
228026
228029
228032
228037
228032
228026
228022
228018
228016
228014
228014
228015
228016
228018
228021
228025
228029
228034
228028
228023
228018
228015
228012
228011
228010
228011
228012
228015
228018
228022
228026
228032
228026
228020
228016
228012
228009
228008
228007
228008
228010
228012
228015
228020
228024
228030
228024
228019
228014
228010
228008
228006
228006
228006
228008
228011
228014
228018
228023
228029
228023
228018
228013
228010
228007
228005
228005
228006
228007
228010
228013
228018
228022
228029
228024
228019
228014
228010
228008
228006
228006
228006
228008
228010
228014
228018
228023
228031
228025
228020
228016
228012
228009
228008
228007
228008
228009
228012
228015
228019
228024
228033
228028
228022
228018
228015
228012
228010
228010
228010
228012
228014
228017
228021
228026
228035
228031
228026
228021
228018
228015
228014
228013
228013
228015
228017
228020
228024
228028
228039
228034
228030
228026
228022
228020
228018
228017
228017
228018
228020
228023
228027
228031
228044
228038
228034
228030
228027
228024
228022
228022
228021
228022
228024
228027
228030
228035
227515
227511
227507
227504
227501
227500
227499
227499
227499
227501
227502
227505
227508
227511
227511
227507
227503
227500
227497
227495
227494
227494
227495
227496
227498
227501
227503
227506
227507
227503
227499
227496
227493
227491
227490
227490
227490
227492
227494
227496
227500
227503
227504
227500
227496
227492
227490
227488
227487
227486
227487
227488
227490
227493
227496
227500
227502
227498
227493
227490
227487
227485
227484
227484
227484
227486
227488
227491
227494
227498
227501
227496
227492
227488
227485
227483
227482
227482
227482
227484
227486
227489
227493
227496
227500
227495
227491
227487
227484
227482
227481
227481
227481
227483
227485
227488
227492
227496
227500
227495
227491
227487
227484
227482
227481
227481
227481
227483
227485
227488
227492
227496
227500
227496
227491
227488
227485
227483
227482
227482
227482
227484
227486
227489
227493
227497
227502
227497
227493
227490
227487
227485
227484
227483
227484
227485
227488
227491
227495
227499
227504
227500
227496
227492
227489
227487
227486
227486
227486
227488
227490
227493
227497
227501
227507
227503
227499
227495
227493
227491
227489
227489
227489
227491
227493
227496
227500
227503
227510
227506
227503
227499
227497
227495
227493
227493
227493
227494
227496
227499
227503
227506
227515
227510
227507
227503
227501
227499
227498
227497
227497
227498
227500
227502
227506
227510
227041
227040
227038
227037
227035
227035
227034
227034
227033
227034
227034
227035
227036
227037
227040
227038
227037
227035
227034
227033
227032
227032
227032
227032
227033
227033
227034
227035
227038
227037
227035
227034
227032
227031
227031
227030
227030
227030
227031
227032
227033
227034
227037
227036
227034
227032
227031
227030
227029
227029
227029
227029
227030
227030
227031
227032
227036
227034
227033
227031
227030
227029
227029
227028
227028
227028
227029
227029
227030
227032
227036
227034
227032
227031
227030
227029
227028
227028
227027
227028
227028
227029
227030
227031
227035
227034
227032
227031
227029
227028
227028
227027
227027
227027
227028
227029
227030
227031
227035
227034
227032
227031
227029
227028
227028
227027
227027
227027
227028
227029
227030
227031
227036
227034
227032
227031
227030
227029
227028
227028
227028
227028
227028
227029
227030
227031
227037
227035
227033
227032
227030
227029
227029
227028
227028
227028
227029
227030
227031
227032
227038
227036
227034
227033
227031
227030
227029
227029
227029
227029
227030
227031
227032
227033
227039
227037
227035
227034
227032
227031
227031
227030
227030
227030
227031
227032
227033
227034
227040
227039
227037
227035
227034
227033
227032
227031
227031
227032
227032
227033
227035
227036
227042
227040
227038
227037
227035
227034
227033
227033
227033
227033
227034
227035
227036
227037
226613
226614
226615
226615
226616
226616
226615
226615
226614
226613
226612
226611
226610
226608
226614
226615
226616
226617
226617
226617
226617
226616
226615
226614
226613
226612
226611
226609
226615
226616
226617
226617
226618
226618
226618
226617
226616
226615
226614
226613
226611
226610
226616
226617
226618
226618
226619
226619
226619
226618
226617
226616
226615
226614
226612
226610
226616
226617
226618
226619
226619
226620
226619
226619
226618
226617
226616
226614
226612
226611
226617
226618
226619
226619
226620
226620
226620
226619
226618
226617
226616
226614
226613
226611
226617
226618
226619
226620
226620
226620
226620
226619
226619
226618
226616
226614
226613
226611
226617
226618
226619
226620
226620
226620
226620
226619
226619
226617
226616
226614
226612
226611
226617
226618
226618
226619
226620
226620
226619
226619
226618
226617
226616
226614
226612
226610
226616
226617
226618
226618
226619
226619
226619
226618
226617
226616
226615
226613
226612
226610
226615
226616
226617
226618
226618
226618
226618
226617
226616
226615
226614
226613
226611
226609
226615
226615
226616
226616
226617
226617
226616
226616
226615
226614
226613
226612
226610
226608
226613
226614
226615
226615
226615
226615
226615
226614
226614
226613
226612
226610
226609
226607
226612
226613
226613
226613
226613
226613
226613
226613
226612
226611
226610
226609
226608
226606
226215
226218
226221
226222
226224
226224
226224
226224
226223
226221
226219
226216
226214
226210
226218
226221
226223
226225
226227
226227
226227
226227
226226
226224
226222
226219
226216
226213
226220
226223
226226
226228
226229
226230
226230
226230
226229
226227
226225
226222
226219
226215
226222
226225
226228
226230
226232
226232
226233
226232
226231
226229
226227
226224
226221
226217
226224
226227
226229
226232
226233
226234
226234
226234
226233
226231
226228
226225
226222
226218
226225
226228
226231
226233
226234
226235
226235
226235
226234
226232
226229
226226
226223
226219
226225
226228
226231
226233
226235
226236
226236
226235
226234
226232
226230
226227
226223
226219
226225
226228
226231
226233
226234
226235
226236
226235
226234
226232
226229
226226
226222
226218
226224
226227
226230
226232
226233
226234
226234
226234
226233
226231
226228
226225
226221
226217
226223
226226
226228
226230
226232
226233
226233
226232
226231
226229
226227
226223
226220
226216
226221
226224
226226
226228
226229
226230
226230
226230
226229
226227
226224
226221
226218
226214
226218
226221
226223
226225
226226
226227
226227
226227
226226
226224
226222
226219
226215
226212
226215
226218
226220
226221
226223
226224
226224
226223
226222
226221
226219
226216
226213
226209
226212
226214
226216
226218
226219
226220
226220
226220
226219
226217
226215
226213
226210
226206
225836
225839
225843
225845
225847
225848
225848
225848
225846
225845
225842
225839
225836
225832
225839
225843
225846
225848
225850
225852
225852
225851
225850
225848
225846
225843
225839
225835
225842
225846
225849
225852
225854
225855
225855
225855
225854
225852
225849
225846
225842
225838
225844
225848
225851
225854
225856
225858
225858
225858
225856
225854
225852
225849
225845
225841
225846
225850
225853
225856
225858
225859
225860
225860
225858
225856
225854
225850
225846
225842
225847
225851
225855
225857
225859
225861
225861
225861
225860
225858
225855
225851
225847
225843
225848
225852
225855
225858
225860
225861
225862
225861
225860
225858
225855
225852
225848
225843
225848
225851
225855
225857
225859
225861
225861
225861
225859
225857
225855
225851
225847
225842
225847
225850
225853
225856
225858
225859
225860
225859
225858
225856
225853
225850
225846
225841
225845
225848
225851
225854
225856
225857
225858
225857
225856
225854
225851
225848
225843
225839
225842
225846
225849
225851
225853
225854
225855
225854
225853
225851
225849
225845
225841
225836
225839
225842
225845
225848
225850
225851
225851
225851
225850
225848
225845
225842
225838
225833
225835
225838
225841
225843
225845
225846
225847
225847
225846
225844
225841
225838
225834
225830
225830
225833
225836
225839
225840
225842
225842
225842
225841
225840
225837
225834
225830
225826
225467
225471
225474
225476
225478
225479
225480
225479
225478
225477
225474
225471
225468
225464
225470
225474
225477
225480
225481
225483
225483
225483
225482
225480
225478
225475
225471
225468
225473
225476
225480
225482
225484
225486
225486
225486
225485
225483
225481
225478
225474
225471
225475
225479
225482
225485
225487
225488
225489
225488
225487
225486
225483
225480
225477
225473
225477
225481
225484
225487
225488
225490
225490
225490
225489
225487
225485
225482
225478
225474
225478
225482
225485
225488
225490
225491
225491
225491
225490
225488
225486
225483
225479
225475
225478
225482
225485
225488
225490
225491
225492
225491
225490
225489
225486
225483
225480
225475
225478
225482
225485
225487
225489
225491
225491
225491
225490
225488
225486
225483
225479
225475
225477
225481
225484
225486
225488
225489
225490
225490
225489
225487
225484
225481
225478
225473
225475
225479
225482
225484
225486
225487
225488
225488
225487
225485
225483
225479
225476
225471
225473
225476
225479
225481
225483
225485
225485
225485
225484
225482
225480
225477
225473
225469
225469
225473
225476
225478
225480
225481
225482
225482
225481
225479
225477
225474
225470
225466
225466
225469
225472
225474
225476
225477
225478
225478
225477
225475
225473
225470
225466
225462
225461
225464
225467
225470
225471
225473
225474
225474
225473
225471
225469
225466
225462
225458
225105
225108
225111
225113
225114
225115
225116
225116
225115
225114
225112
225109
225106
225103
225108
225111
225113
225115
225117
225118
225119
225118
225118
225116
225114
225112
225109
225106
225110
225113
225116
225118
225119
225120
225121
225121
225120
225119
225117
225114
225112
225108
225112
225115
225117
225120
225121
225122
225123
225122
225122
225120
225119
225116
225113
225110
225113
225116
225119
225121
225122
225123
225124
225124
225123
225122
225120
225118
225115
225112
225114
225117
225119
225122
225123
225124
225124
225124
225124
225122
225121
225118
225116
225112
225114
225117
225120
225122
225123
225124
225125
225124
225124
225123
225121
225119
225116
225112
225114
225117
225119
225121
225123
225124
225124
225124
225123
225122
225120
225118
225115
225112
225113
225116
225118
225120
225122
225123
225123
225123
225122
225121
225119
225117
225114
225111
225111
225114
225117
225119
225120
225121
225122
225121
225121
225120
225118
225116
225113
225109
225109
225112
225115
225116
225118
225119
225120
225119
225119
225118
225116
225113
225110
225107
225107
225109
225112
225114
225115
225116
225117
225117
225116
225115
225113
225111
225108
225105
225103
225106
225109
225111
225112
225113
225114
225114
225113
225112
225110
225108
225105
225102
225100
225103
225105
225107
225109
225110
225110
225110
225110
225109
225107
225104
225102
225098
224749
224751
224753
224754
224755
224756
224756
224756
224756
224755
224754
224752
224751
224753
224754
224756
224757
224758
224758
224758
224757
224757
224755
224754
224752
224754
224756
224758
224759
224759
224760
224759
224759
224758
224757
224755
224754
224756
224757
224759
224760
224760
224761
224761
224760
224759
224758
224756
224755
224756
224758
224760
224761
224761
224761
224761
224761
224760
224759
224757
224755
224757
224759
224760
224761
224762
224762
224762
224761
224760
224759
224758
224755
224757
224759
224760
224761
224762
224762
224762
224761
224761
224759
224758
224755
224757
224758
224760
224761
224761
224762
224761
224761
224760
224759
224758
224754
224756
224758
224759
224760
224761
224761
224761
224760
224760
224758
224757
224753
224755
224757
224758
224759
224760
224760
224760
224759
224759
224757
224756
224751
224753
224755
224756
224758
224758
224758
224758
224758
224757
224756
224755
224750
224752
224753
224755
224756
224757
224757
224757
224756
224755
224754
224753
224747
224749
224751
224753
224754
224755
224755
224755
224754
224753
224752
224751
224745
224747
224749
224751
224752
224752
224752
224752
224752
224751
224750
224748
236653
236614
236583
236547
236514
236480
236708
236668
236636
236599
236567
236535
236755
236717
236686
236652
236622
236593
236805
236769
236738
236705
236677
236650
235747
235691
235646
235597
235553
235507
235792
235733
235685
235632
235584
235536
235832
235773
235722
235669
235620
235570
235876
235816
235764
235711
235661
235611
235919
235859
235807
235755
235706
235658
235961
235903
235852
235801
235753
235707
236001
235946
235896
235847
235801
235757
234808
234754
234710
234662
234618
234574
234838
234780
234732
234679
234631
234582
234866
234805
234753
234698
234647
234595
234899
234836
234781
234725
234672
234619
234931
234868
234812
234757
234703
234650
234964
234903
234847
234793
234740
234688
234997
234938
234884
234831
234781
234731
235029
234974
234922
234872
234825
234778
235061
235010
234961
234915
234871
234828
235093
235047
235001
234959
234919
234880
235124
235084
235042
235005
234969
234934
235153
235121
235084
235052
235020
234989
235185
235159
235128
235101
235074
235047
235210
235195
235170
235149
235128
235107
233906
233863
233826
233788
233753
233719
233925
233878
233837
233794
233755
233714
233940
233890
233845
233800
233756
233713
233961
233908
233860
233812
233766
233721
233981
233927
233878
233830
233783
233737
234002
233949
233900
233852
233806
233760
234024
233972
233924
233878
233834
233789
234046
233997
233951
233908
233866
233824
234068
234023
233980
233940
233902
233864
234090
234050
234011
233975
233941
233906
234113
234078
234043
234011
233982
233952
234135
234106
234076
234049
234024
233999
234159
234137
234113
234091
234070
234050
234178
234165
234146
234130
234115
234100
233085
233054
233026
233000
232976
232952
233094
233060
233030
232998
232969
232940
233099
233063
233029
232995
232963
232932
233109
233070
233033
232997
232963
232930
233118
233078
233039
233003
232967
232933
233128
233088
233049
233012
232976
232942
233139
233099
233061
233024
232990
232956
233150
233112
233075
233040
233007
232975
233161
233125
233091
233059
233029
232999
233173
233141
233110
233080
233053
233025
233185
233157
233130
233104
233080
233056
233198
233174
233151
233129
233109
233088
233212
233194
233175
233157
233140
233124
233224
233210
233195
233182
233171
233159
232328
232308
232291
232274
232259
232243
232330
232309
232289
232268
232249
232230
232329
232307
232284
232261
232240
232219
232331
232306
232281
232257
232234
232212
232332
232306
232279
232253
232229
232207
232334
232306
232279
232252
232228
232205
232335
232308
232280
232253
232229
232206
232337
232310
232283
232257
232233
232210
232340
232314
232289
232264
232241
232219
232343
232320
232296
232273
232251
232230
232347
232325
232304
232283
232263
232244
232350
232332
232313
232295
232278
232261
232355
232338
232323
232307
232293
232279
232356
232342
232331
232319
232309
232299
231593
231585
231575
231566
231557
231548
231592
231581
231570
231559
231548
231536
231589
231577
231564
231551
231538
231526
231586
231572
231558
231543
231529
231516
231582
231567
231551
231536
231521
231507
231579
231563
231546
231529
231513
231499
231576
231559
231541
231523
231507
231492
231572
231555
231537
231520
231503
231488
231569
231552
231535
231517
231501
231486
231566
231549
231533
231516
231500
231485
231562
231547
231531
231516
231501
231487
231559
231544
231531
231516
231503
231490
231557
231543
231531
231518
231506
231494
231552
231540
231530
231519
231510
231500
230850
230848
230844
230841
230838
230835
230847
230843
230839
230835
230830
230826
230843
230838
230833
230827
230822
230816
230838
230832
230826
230820
230813
230807
230834
230827
230820
230812
230805
230798
230829
230821
230813
230804
230796
230789
230824
230815
230806
230797
230788
230780
230818
230809
230800
230790
230781
230773
230812
230803
230793
230783
230774
230765
230806
230796
230786
230776
230767
230758
230799
230789
230780
230770
230761
230752
230792
230782