/*--------------------------------*- C++ -*----------------------------------*\
| =========                 |                                                 |
| \\      /  F ield         | OpenFOAM: The Open Source CFD Toolbox           |
|  \\    /   O peration     | Version:  v2106                                 |
|   \\  /    A nd           | Website:  www.openfoam.com                      |
|    \\/     M anipulation  |                                                 |
\*---------------------------------------------------------------------------*/
FoamFile
{
    version     2.0;
    format      ascii;
    arch        "LSB;label=32;scalar=64";
    class       volScalarField;
    location    "0.000156";
    object      rho;
}
// * * * * * * * * * * * * * * * * * * * * * * * * * * * * * * * * * * * * * //

dimensions      [1 -3 0 0 0 0 0];

internalField   nonuniform List<scalar> 
17924
(
2.68545
2.6859
2.68631
2.68669
2.67825
2.67861
2.67899
2.67935
2.6797
2.68003
2.68036
2.67852
2.67887
2.67926
2.67963
2.68001
2.68036
2.68071
2.67884
2.6792
2.6796
2.67998
2.68036
2.68071
2.68106
2.67912
2.67949
2.67991
2.68029
2.68068
2.68105
2.68141
2.6794
2.6798
2.68022
2.68061
2.681
2.68138
2.68174
2.67967
2.68008
2.6805
2.6809
2.6813
2.68168
2.68205
2.67993
2.68035
2.68077
2.68118
2.68158
2.68196
2.68233
2.68017
2.6806
2.68102
2.68143
2.68183
2.68221
2.68258
2.68039
2.68083
2.68124
2.68166
2.68205
2.68244
2.6828
2.68061
2.68104
2.68145
2.68187
2.68226
2.68264
2.683
2.6808
2.68123
2.68164
2.68205
2.68244
2.68281
2.68317
2.68099
2.68142
2.68182
2.68222
2.6826
2.68297
2.68332
2.68117
2.68159
2.68198
2.68237
2.68275
2.68311
2.68344
2.68137
2.68179
2.68215
2.68253
2.68288
2.68323
2.68355
2.67065
2.67089
2.67118
2.67145
2.67172
2.67199
2.67226
2.67252
2.67276
2.673
2.67323
2.67345
2.67366
2.67389
2.67099
2.67123
2.67152
2.6718
2.6721
2.67238
2.67266
2.67293
2.67319
2.67344
2.67368
2.67391
2.67412
2.67438
2.67137
2.67162
2.67193
2.67222
2.67251
2.6728
2.67308
2.67335
2.67361
2.67386
2.6741
2.67433
2.67454
2.67479
2.67174
2.67201
2.67232
2.67261
2.67292
2.67321
2.6735
2.67378
2.67405
2.67431
2.67455
2.67478
2.675
2.67524
2.67212
2.67241
2.67273
2.67303
2.67334
2.67364
2.67393
2.67421
2.67448
2.67474
2.67498
2.67521
2.67543
2.67566
2.6725
2.67281
2.67313
2.67344
2.67375
2.67405
2.67435
2.67463
2.67491
2.67516
2.67541
2.67564
2.67586
2.67608
2.67288
2.6732
2.67353
2.67384
2.67416
2.67446
2.67476
2.67504
2.67532
2.67557
2.67582
2.67605
2.67627
2.67647
2.67327
2.6736
2.67392
2.67424
2.67456
2.67486
2.67516
2.67544
2.67572
2.67597
2.67622
2.67644
2.67667
2.67686
2.67364
2.67398
2.6743
2.67463
2.67494
2.67525
2.67554
2.67583
2.6761
2.67635
2.67659
2.67682
2.67704
2.67722
2.67401
2.67435
2.67468
2.675
2.67532
2.67562
2.67591
2.6762
2.67646
2.67671
2.67695
2.67717
2.67739
2.67757
2.67437
2.67471
2.67503
2.67536
2.67567
2.67597
2.67626
2.67654
2.6768
2.67705
2.67728
2.6775
2.67772
2.67789
2.67473
2.67507
2.67539
2.67571
2.67601
2.67631
2.6766
2.67686
2.67712
2.67736
2.67759
2.6778
2.67802
2.6782
2.67505
2.67539
2.6757
2.67602
2.67633
2.67662
2.6769
2.67716
2.67741
2.67764
2.67787
2.67808
2.67829
2.67848
2.6754
2.67574
2.67604
2.67634
2.67663
2.67691
2.67717
2.67742
2.67766
2.67789
2.6781
2.67831
2.67852
2.67873
2.66329
2.66342
2.6636
2.66377
2.66395
2.66413
2.6643
2.66447
2.66464
2.6648
2.66496
2.66512
2.66528
2.66545
2.66361
2.66374
2.66392
2.6641
2.66428
2.66446
2.66465
2.66482
2.66499
2.66516
2.66533
2.66549
2.66565
2.66584
2.66395
2.66409
2.66428
2.66446
2.66464
2.66482
2.665
2.66518
2.66535
2.66552
2.66568
2.66585
2.666
2.66619
2.6643
2.66445
2.66464
2.66482
2.665
2.66519
2.66537
2.66555
2.66572
2.66589
2.66606
2.66623
2.66638
2.66656
2.66466
2.66482
2.66501
2.66519
2.66538
2.66556
2.66574
2.66592
2.66609
2.66627
2.66643
2.6666
2.66676
2.66692
2.66503
2.6652
2.66539
2.66557
2.66576
2.66594
2.66612
2.6663
2.66648
2.66665
2.66682
2.66698
2.66714
2.6673
2.6654
2.66559
2.66577
2.66596
2.66614
2.66633
2.66651
2.66669
2.66686
2.66703
2.6672
2.66737
2.66753
2.66767
2.66579
2.66598
2.66616
2.66635
2.66654
2.66672
2.6669
2.66708
2.66725
2.66742
2.66759
2.66775
2.66792
2.66806
2.66617
2.66637
2.66655
2.66674
2.66693
2.66711
2.66729
2.66747
2.66764
2.66781
2.66798
2.66814
2.66831
2.66844
2.66656
2.66676
2.66694
2.66713
2.66732
2.66751
2.66769
2.66786
2.66803
2.6682
2.66837
2.66853
2.66869
2.66882
2.66693
2.66714
2.66732
2.66752
2.6677
2.66789
2.66807
2.66824
2.66841
2.66858
2.66874
2.6689
2.66907
2.66919
2.66731
2.66752
2.66771
2.6679
2.66808
2.66826
2.66844
2.66861
2.66878
2.66894
2.66911
2.66926
2.66943
2.66956
2.66766
2.66787
2.66806
2.66825
2.66843
2.66861
2.66879
2.66896
2.66913
2.66929
2.66945
2.66961
2.66977
2.6699
2.66806
2.66824
2.66842
2.6686
2.66878
2.66895
2.66912
2.66929
2.66945
2.66961
2.66976
2.66992
2.67008
2.67025
2.65653
2.65658
2.65666
2.65675
2.65683
2.65692
2.657
2.65709
2.65717
2.65725
2.65734
2.65742
2.65751
2.6576
2.65679
2.65683
2.65692
2.657
2.65709
2.65717
2.65725
2.65734
2.65742
2.6575
2.65759
2.65767
2.65775
2.65786
2.65704
2.65709
2.65718
2.65726
2.65734
2.65742
2.65751
2.65759
2.65767
2.65775
2.65783
2.65791
2.65799
2.65809
2.65731
2.65736
2.65745
2.65753
2.6576
2.65768
2.65776
2.65784
2.65792
2.658
2.65808
2.65816
2.65824
2.65834
2.65758
2.65764
2.65772
2.6578
2.65787
2.65795
2.65802
2.6581
2.65818
2.65826
2.65834
2.65841
2.65849
2.65858
2.65786
2.65792
2.658
2.65807
2.65815
2.65822
2.65829
2.65837
2.65845
2.65852
2.6586
2.65868
2.65876
2.65884
2.65814
2.65821
2.65828
2.65836
2.65843
2.6585
2.65857
2.65865
2.65872
2.6588
2.65888
2.65895
2.65903
2.6591
2.65843
2.65851
2.65858
2.65865
2.65872
2.65879
2.65886
2.65894
2.65901
2.65909
2.65916
2.65924
2.65932
2.65938
2.65872
2.6588
2.65887
2.65894
2.65901
2.65909
2.65916
2.65923
2.6593
2.65938
2.65946
2.65953
2.65961
2.65966
2.65901
2.6591
2.65916
2.65923
2.65931
2.65938
2.65945
2.65953
2.6596
2.65968
2.65976
2.65983
2.65991
2.65996
2.6593
2.65939
2.65945
2.65953
2.6596
2.65967
2.65975
2.65982
2.6599
2.65998
2.66005
2.66013
2.6602
2.66024
2.65959
2.65967
2.65974
2.65981
2.65989
2.65996
2.66004
2.66011
2.66019
2.66027
2.66035
2.66042
2.6605
2.66055
2.65986
2.65994
2.66001
2.66009
2.66017
2.66024
2.66032
2.6604
2.66048
2.66056
2.66064
2.66071
2.66078
2.66083
2.66017
2.66023
2.6603
2.66037
2.66044
2.66052
2.66059
2.66067
2.66075
2.66083
2.66091
2.66099
2.66107
2.66116
2.65028
2.65028
2.6503
2.65033
2.65034
2.65036
2.65037
2.65039
2.6504
2.65042
2.65043
2.65045
2.65046
2.65048
2.65046
2.65046
2.65047
2.65049
2.65051
2.65052
2.65053
2.65055
2.65056
2.65057
2.65058
2.6506
2.6506
2.65063
2.65063
2.65062
2.65064
2.65066
2.65067
2.65068
2.65069
2.6507
2.65071
2.65072
2.65073
2.65074
2.65074
2.65076
2.6508
2.65079
2.65081
2.65082
2.65083
2.65084
2.65085
2.65086
2.65086
2.65087
2.65088
2.65088
2.65089
2.6509
2.65097
2.65097
2.65098
2.65099
2.651
2.651
2.65101
2.65101
2.65102
2.65102
2.65103
2.65103
2.65103
2.65104
2.65114
2.65114
2.65115
2.65116
2.65116
2.65117
2.65117
2.65117
2.65117
2.65118
2.65118
2.65118
2.65118
2.65118
2.65131
2.65132
2.65132
2.65133
2.65133
2.65133
2.65133
2.65133
2.65134
2.65134
2.65134
2.65134
2.65133
2.65132
2.65148
2.65149
2.65149
2.6515
2.6515
2.6515
2.6515
2.6515
2.6515
2.6515
2.6515
2.6515
2.65149
2.65148
2.65165
2.65166
2.65166
2.65166
2.65167
2.65167
2.65167
2.65167
2.65167
2.65167
2.65167
2.65166
2.65166
2.65164
2.65181
2.65182
2.65183
2.65183
2.65183
2.65183
2.65183
2.65183
2.65183
2.65183
2.65183
2.65183
2.65182
2.65181
2.65197
2.65198
2.65198
2.65199
2.65199
2.65199
2.652
2.652
2.652
2.652
2.652
2.652
2.652
2.65198
2.65212
2.65214
2.65214
2.65214
2.65215
2.65215
2.65216
2.65216
2.65217
2.65217
2.65217
2.65217
2.65217
2.65215
2.65227
2.65229
2.65229
2.6523
2.6523
2.65231
2.65232
2.65232
2.65233
2.65234
2.65234
2.65234
2.65234
2.65232
2.65243
2.65244
2.65244
2.65244
2.65245
2.65246
2.65248
2.65249
2.6525
2.65251
2.65251
2.65252
2.65252
2.65252
2.64422
2.64421
2.64419
2.64418
2.64415
2.64413
2.64411
2.64408
2.64405
2.64402
2.64399
2.64395
2.64391
2.64387
2.64433
2.6443
2.64429
2.64427
2.64425
2.64423
2.6442
2.64417
2.64414
2.64411
2.64407
2.64403
2.64399
2.64395
2.64442
2.6444
2.64439
2.64437
2.64434
2.64432
2.64429
2.64426
2.64423
2.64419
2.64415
2.64411
2.64406
2.64402
2.64451
2.64449
2.64448
2.64446
2.64443
2.64441
2.64438
2.64435
2.64431
2.64427
2.64423
2.64418
2.64413
2.64409
2.6446
2.64458
2.64456
2.64454
2.64452
2.64449
2.64446
2.64443
2.64439
2.64435
2.6443
2.64426
2.6442
2.64415
2.64468
2.64467
2.64465
2.64462
2.6446
2.64457
2.64454
2.6445
2.64447
2.64442
2.64438
2.64433
2.64427
2.64422
2.64476
2.64474
2.64472
2.6447
2.64467
2.64465
2.64461
2.64458
2.64454
2.64449
2.64445
2.64439
2.64434
2.64428
2.64483
2.64482
2.64479
2.64477
2.64474
2.64471
2.64468
2.64464
2.64461
2.64456
2.64451
2.64446
2.6444
2.64434
2.6449
2.64488
2.64486
2.64483
2.64481
2.64478
2.64474
2.64471
2.64467
2.64462
2.64458
2.64452
2.64447
2.6444
2.64496
2.64494
2.64492
2.64489
2.64486
2.64483
2.6448
2.64477
2.64473
2.64468
2.64464
2.64458
2.64453
2.64446
2.64501
2.64499
2.64497
2.64494
2.64492
2.64489
2.64486
2.64482
2.64479
2.64474
2.6447
2.64464
2.64459
2.64452
2.64506
2.64503
2.64501
2.64499
2.64496
2.64494
2.64491
2.64488
2.64484
2.6448
2.64476
2.6447
2.64465
2.64458
2.6451
2.64508
2.64506
2.64503
2.64501
2.64499
2.64496
2.64493
2.6449
2.64486
2.64482
2.64476
2.64471
2.64465
2.64513
2.64511
2.64509
2.64507
2.64505
2.64503
2.64501
2.64498
2.64496
2.64492
2.64488
2.64483
2.64478
2.64472
2.63811
2.63808
2.63806
2.63803
2.63799
2.63796
2.63792
2.63788
2.63783
2.63778
2.63772
2.63766
2.6376
2.63754
2.63816
2.63813
2.6381
2.63807
2.63804
2.63801
2.63797
2.63792
2.63787
2.63782
2.63776
2.63769
2.63763
2.63757
2.6382
2.63817
2.63815
2.63812
2.63808
2.63805
2.63801
2.63796
2.63791
2.63786
2.6378
2.63773
2.63767
2.6376
2.63823
2.63821
2.63818
2.63815
2.63812
2.63809
2.63805
2.638
2.63795
2.63789
2.63783
2.63776
2.6377
2.63763
2.63826
2.63824
2.63821
2.63818
2.63815
2.63812
2.63808
2.63803
2.63798
2.63792
2.63786
2.63779
2.63772
2.63765
2.63828
2.63826
2.63824
2.63821
2.63818
2.63814
2.6381
2.63805
2.638
2.63794
2.63788
2.63781
2.63774
2.63767
2.63829
2.63827
2.63825
2.63822
2.63819
2.63816
2.63812
2.63807
2.63802
2.63796
2.6379
2.63783
2.63776
2.63769
2.6383
2.63828
2.63826
2.63823
2.6382
2.63816
2.63812
2.63808
2.63803
2.63797
2.63791
2.63784
2.63777
2.63769
2.6383
2.63828
2.63826
2.63823
2.6382
2.63817
2.63813
2.63808
2.63803
2.63797
2.63791
2.63784
2.63777
2.6377
2.6383
2.63828
2.63825
2.63823
2.6382
2.63816
2.63812
2.63808
2.63803
2.63797
2.63791
2.63784
2.63777
2.6377
2.63829
2.63826
2.63824
2.63822
2.63819
2.63815
2.63811
2.63807
2.63802
2.63796
2.6379
2.63783
2.63776
2.63769
2.63827
2.63825
2.63822
2.6382
2.63817
2.63814
2.6381
2.63806
2.63801
2.63795
2.63789
2.63783
2.63776
2.63768
2.63825
2.63823
2.63821
2.63818
2.63815
2.63812
2.63809
2.63804
2.638
2.63794
2.63788
2.63781
2.63775
2.63767
2.63822
2.6382
2.63818
2.63816
2.63813
2.63811
2.63807
2.63803
2.63799
2.63793
2.63788
2.63781
2.63775
2.63767
2.63192
2.63189
2.63186
2.63182
2.63179
2.63176
2.63172
2.63168
2.63164
2.63159
2.63154
2.63149
2.63144
2.63138
2.63192
2.63189
2.63186
2.63184
2.63181
2.63177
2.63173
2.63169
2.63164
2.63159
2.63154
2.63149
2.63143
2.63138
2.63192
2.63189
2.63187
2.63184
2.63181
2.63178
2.63174
2.6317
2.63165
2.6316
2.63155
2.63149
2.63144
2.63139
2.63192
2.63189
2.63187
2.63184
2.63181
2.63178
2.63174
2.6317
2.63166
2.63161
2.63155
2.6315
2.63144
2.63139
2.63191
2.63189
2.63187
2.63184
2.63181
2.63178
2.63174
2.6317
2.63166
2.63161
2.63155
2.6315
2.63144
2.63139
2.6319
2.63188
2.63186
2.63183
2.6318
2.63177
2.63174
2.6317
2.63165
2.6316
2.63155
2.63149
2.63144
2.63138
2.63188
2.63186
2.63184
2.63182
2.63179
2.63176
2.63173
2.63168
2.63164
2.63159
2.63154
2.63148
2.63143
2.63137
2.63186
2.63184
2.63182
2.6318
2.63177
2.63174
2.63171
2.63167
2.63162
2.63157
2.63152
2.63147
2.63141
2.63136
2.63184
2.63182
2.6318
2.63178
2.63175
2.63172
2.63169
2.63165
2.6316
2.63155
2.6315
2.63145
2.63139
2.63134
2.63181
2.63179
2.63177
2.63175
2.63172
2.63169
2.63166
2.63162
2.63158
2.63153
2.63148
2.63142
2.63137
2.63132
2.63178
2.63176
2.63174
2.63172
2.63169
2.63166
2.63163
2.63159
2.63155
2.6315
2.63145
2.6314
2.63134
2.63129
2.63175
2.63173
2.63171
2.63169
2.63166
2.63163
2.6316
2.63156
2.63152
2.63147
2.63142
2.63137
2.63131
2.63126
2.63171
2.63169
2.63167
2.63165
2.63163
2.6316
2.63157
2.63153
2.63148
2.63144
2.63139
2.63133
2.63128
2.63123
2.63167
2.63165
2.63164
2.63162
2.63159
2.63156
2.63153
2.63149
2.63145
2.6314
2.63136
2.63131
2.63125
2.6312
2.62586
2.62582
2.62579
2.62576
2.62573
2.6257
2.62567
2.62564
2.62561
2.62559
2.62556
2.62554
2.62552
2.62549
2.62583
2.62579
2.62577
2.62574
2.62571
2.62568
2.62565
2.62562
2.6256
2.62557
2.62554
2.62551
2.62549
2.62547
2.6258
2.62577
2.62574
2.62572
2.62569
2.62566
2.62563
2.6256
2.62558
2.62555
2.62552
2.6255
2.62548
2.62546
2.62578
2.62575
2.62572
2.6257
2.62567
2.62564
2.62561
2.62559
2.62556
2.62553
2.62551
2.62548
2.62546
2.62544
2.62576
2.62573
2.6257
2.62567
2.62565
2.62562
2.62559
2.62557
2.62554
2.62551
2.62549
2.62546
2.62544
2.62542
2.62573
2.62571
2.62568
2.62565
2.62563
2.6256
2.62558
2.62555
2.62552
2.6255
2.62547
2.62545
2.62543
2.6254
2.62571
2.62568
2.62566
2.62563
2.62561
2.62558
2.62556
2.62553
2.6255
2.62548
2.62545
2.62543
2.62541
2.62538
2.62569
2.62566
2.62564
2.62561
2.62559
2.62556
2.62554
2.62551
2.62548
2.62546
2.62543
2.62541
2.62539
2.62537
2.62566
2.62564
2.62561
2.62559
2.62557
2.62554
2.62552
2.62549
2.62546
2.62544
2.62541
2.62539
2.62537
2.62535
2.62564
2.62562
2.62559
2.62557
2.62555
2.62552
2.6255
2.62547
2.62544
2.62542
2.62539
2.62537
2.62535
2.62533
2.62562
2.6256
2.62557
2.62555
2.62553
2.6255
2.62548
2.62545
2.62542
2.6254
2.62537
2.62535
2.62533
2.62531
2.6256
2.62558
2.62556
2.62553
2.62551
2.62548
2.62546
2.62543
2.6254
2.62538
2.62535
2.62533
2.62531
2.62529
2.62559
2.62556
2.62554
2.62552
2.62549
2.62547
2.62544
2.62541
2.62539
2.62536
2.62534
2.62531
2.62529
2.62528
2.62558
2.62555
2.62553
2.6255
2.62547
2.62545
2.62542
2.6254
2.62537
2.62534
2.62532
2.6253
2.62528
2.62526
2.62022
2.62018
2.62014
2.62011
2.62008
2.62006
2.62004
2.62003
2.62002
2.62002
2.62002
2.62002
2.62003
2.62004
2.62018
2.62014
2.6201
2.62007
2.62004
2.62002
2.62
2.61999
2.61998
2.61998
2.61998
2.61998
2.61999
2.62
2.62014
2.6201
2.62006
2.62003
2.62
2.61998
2.61996
2.61995
2.61994
2.61994
2.61994
2.61995
2.61996
2.61997
2.62011
2.62007
2.62003
2.62
2.61997
2.61995
2.61993
2.61991
2.61991
2.61991
2.61991
2.61992
2.61993
2.61994
2.62008
2.62004
2.62
2.61997
2.61994
2.61992
2.6199
2.61989
2.61988
2.61988
2.61988
2.61989
2.6199
2.61992
2.62006
2.62002
2.61998
2.61995
2.61992
2.61989
2.61988
2.61986
2.61986
2.61986
2.61986
2.61987
2.61988
2.6199
2.62004
2.62
2.61996
2.61993
2.6199
2.61988
2.61986
2.61984
2.61984
2.61984
2.61984
2.61985
2.61987
2.61988
2.62002
2.61998
2.61995
2.61991
2.61988
2.61986
2.61984
2.61983
2.61982
2.61982
2.61983
2.61984
2.61985
2.61987
2.62001
2.61997
2.61994
2.61991
2.61988
2.61986
2.61984
2.61982
2.61982
2.61982
2.61982
2.61983
2.61984
2.61986
2.62001
2.61997
2.61994
2.61991
2.61988
2.61986
2.61984
2.61982
2.61982
2.61982
2.61982
2.61983
2.61984
2.61986
2.62001
2.61998
2.61994
2.61991
2.61988
2.61986
2.61984
2.61983
2.61982
2.61982
2.61982
2.61983
2.61984
2.61986
2.62002
2.61998
2.61995
2.61992
2.61989
2.61987
2.61985
2.61983
2.61983
2.61982
2.61983
2.61983
2.61985
2.61986
2.62003
2.61999
2.61996
2.61993
2.6199
2.61988
2.61986
2.61985
2.61984
2.61984
2.61984
2.61984
2.61985
2.61987
2.62005
2.62001
2.61998
2.61994
2.61992
2.61989
2.61988
2.61986
2.61985
2.61985
2.61985
2.61985
2.61986
2.61988
2.61521
2.61516
2.61512
2.61509
2.61507
2.61505
2.61504
2.61503
2.61504
2.61505
2.61506
2.61508
2.61511
2.61514
2.61516
2.61512
2.61508
2.61505
2.61502
2.615
2.61499
2.61498
2.61499
2.615
2.61502
2.61504
2.61506
2.61509
2.61513
2.61508
2.61504
2.615
2.61497
2.61495
2.61494
2.61494
2.61494
2.61496
2.61497
2.615
2.61503
2.61505
2.61509
2.61505
2.615
2.61497
2.61494
2.61492
2.6149
2.6149
2.61491
2.61492
2.61494
2.61496
2.61499
2.61502
2.61507
2.61502
2.61497
2.61494
2.61491
2.61489
2.61487
2.61487
2.61487
2.61489
2.61491
2.61493
2.61497
2.615
2.61505
2.615
2.61495
2.61492
2.61489
2.61486
2.61485
2.61485
2.61485
2.61487
2.61489
2.61491
2.61495
2.61498
2.61503
2.61498
2.61494
2.6149
2.61487
2.61485
2.61484
2.61483
2.61484
2.61485
2.61487
2.6149
2.61493
2.61497
2.61503
2.61498
2.61493
2.6149
2.61487
2.61485
2.61483
2.61483
2.61483
2.61485
2.61487
2.6149
2.61493
2.61497
2.61503
2.61498
2.61494
2.6149
2.61487
2.61485
2.61484
2.61483
2.61484
2.61485
2.61487
2.6149
2.61494
2.61497
2.61504
2.61499
2.61495
2.61491
2.61489
2.61486
2.61485
2.61485
2.61485
2.61486
2.61488
2.61491
2.61495
2.61498
2.61505
2.61501
2.61497
2.61494
2.61491
2.61488
2.61487
2.61487
2.61487
2.61488
2.6149
2.61493
2.61496
2.615
2.61508
2.61504
2.615
2.61496
2.61493
2.61491
2.6149
2.61489
2.6149
2.61491
2.61492
2.61495
2.61498
2.61502
2.61511
2.61507
2.61503
2.615
2.61497
2.61495
2.61493
2.61493
2.61493
2.61494
2.61495
2.61498
2.61501
2.61504
2.61515
2.6151
2.61506
2.61503
2.61501
2.61499
2.61497
2.61496
2.61496
2.61497
2.61498
2.61501
2.61503
2.61507
2.61082
2.61078
2.61075
2.61072
2.6107
2.61069
2.61069
2.61068
2.61069
2.6107
2.61071
2.61073
2.61076
2.61078
2.61078
2.61075
2.61072
2.61069
2.61067
2.61066
2.61065
2.61064
2.61065
2.61066
2.61068
2.6107
2.61072
2.61074
2.61075
2.61072
2.61068
2.61066
2.61064
2.61062
2.61061
2.61061
2.61061
2.61063
2.61064
2.61066
2.61069
2.61071
2.61073
2.61069
2.61066
2.61063
2.61061
2.61059
2.61058
2.61058
2.61059
2.6106
2.61061
2.61064
2.61066
2.61069
2.61071
2.61067
2.61064
2.61061
2.61059
2.61057
2.61056
2.61056
2.61056
2.61058
2.61059
2.61062
2.61064
2.61067
2.6107
2.61066
2.61062
2.61059
2.61057
2.61055
2.61055
2.61054
2.61055
2.61056
2.61058
2.6106
2.61063
2.61066
2.61069
2.61065
2.61062
2.61059
2.61056
2.61055
2.61054
2.61053
2.61054
2.61055
2.61057
2.6106
2.61063
2.61066
2.61069
2.61065
2.61062
2.61059
2.61056
2.61055
2.61054
2.61053
2.61054
2.61055
2.61057
2.6106
2.61063
2.61066
2.61069
2.61066
2.61062
2.61059
2.61057
2.61055
2.61054
2.61054
2.61055
2.61056
2.61058
2.6106
2.61064
2.61067
2.61071
2.61067
2.61064
2.61061
2.61058
2.61057
2.61056
2.61056
2.61056
2.61057
2.61059
2.61062
2.61065
2.61068
2.61072
2.61069
2.61066
2.61063
2.61061
2.61059
2.61058
2.61058
2.61058
2.61059
2.61061
2.61064
2.61067
2.6107
2.61075
2.61072
2.61068
2.61065
2.61063
2.61062
2.6106
2.6106
2.61061
2.61062
2.61063
2.61066
2.61069
2.61072
2.61078
2.61075
2.61072
2.61069
2.61067
2.61065
2.61064
2.61063
2.61064
2.61065
2.61066
2.61069
2.61071
2.61074
2.61081
2.61078
2.61075
2.61072
2.6107
2.61068
2.61067
2.61067
2.61067
2.61068
2.61069
2.61071
2.61074
2.61077
2.60693
2.60692
2.60691
2.6069
2.60689
2.60688
2.60687
2.60687
2.60687
2.60687
2.60688
2.60688
2.60689
2.6069
2.60692
2.60691
2.6069
2.60688
2.60687
2.60687
2.60686
2.60686
2.60686
2.60686
2.60686
2.60687
2.60688
2.60688
2.60691
2.6069
2.60688
2.60687
2.60686
2.60685
2.60685
2.60684
2.60684
2.60685
2.60685
2.60686
2.60686
2.60687
2.6069
2.60689
2.60687
2.60686
2.60685
2.60684
2.60684
2.60683
2.60683
2.60684
2.60684
2.60684
2.60685
2.60686
2.60689
2.60688
2.60686
2.60685
2.60684
2.60684
2.60683
2.60683
2.60683
2.60683
2.60683
2.60684
2.60685
2.60685
2.60689
2.60687
2.60686
2.60685
2.60684
2.60683
2.60683
2.60682
2.60682
2.60682
2.60683
2.60683
2.60684
2.60685
2.60689
2.60687
2.60686
2.60685
2.60684
2.60683
2.60682
2.60682
2.60682
2.60682
2.60682
2.60683
2.60684
2.60685
2.60689
2.60687
2.60686
2.60685
2.60684
2.60683
2.60682
2.60682
2.60682
2.60682
2.60683
2.60683
2.60684
2.60685
2.60689
2.60688
2.60686
2.60685
2.60684
2.60683
2.60683
2.60682
2.60682
2.60682
2.60683
2.60683
2.60684
2.60685
2.6069
2.60688
2.60687
2.60685
2.60684
2.60684
2.60683
2.60683
2.60683
2.60683
2.60683
2.60684
2.60685
2.60686
2.6069
2.60689
2.60688
2.60686
2.60685
2.60684
2.60684
2.60683
2.60683
2.60684
2.60684
2.60685
2.60686
2.60687
2.60691
2.6069
2.60689
2.60687
2.60686
2.60685
2.60685
2.60684
2.60684
2.60685
2.60685
2.60686
2.60687
2.60688
2.60693
2.60692
2.6069
2.60689
2.60687
2.60686
2.60686
2.60685
2.60685
2.60686
2.60686
2.60687
2.60688
2.60689
2.60694
2.60693
2.60691
2.6069
2.60689
2.60688
2.60687
2.60687
2.60687
2.60687
2.60687
2.60688
2.60689
2.6069
2.60342
2.60343
2.60344
2.60344
2.60345
2.60344
2.60344
2.60344
2.60343
2.60342
2.60342
2.60341
2.6034
2.60338
2.60343
2.60344
2.60345
2.60345
2.60345
2.60345
2.60345
2.60345
2.60344
2.60343
2.60343
2.60341
2.60341
2.60339
2.60344
2.60345
2.60346
2.60346
2.60346
2.60346
2.60346
2.60346
2.60345
2.60344
2.60343
2.60342
2.60341
2.6034
2.60344
2.60346
2.60346
2.60347
2.60347
2.60347
2.60347
2.60347
2.60346
2.60345
2.60344
2.60343
2.60342
2.6034
2.60345
2.60346
2.60347
2.60347
2.60348
2.60348
2.60348
2.60347
2.60346
2.60346
2.60344
2.60343
2.60342
2.6034
2.60345
2.60346
2.60347
2.60348
2.60348
2.60348
2.60348
2.60348
2.60347
2.60346
2.60345
2.60344
2.60342
2.60341
2.60345
2.60346
2.60347
2.60348
2.60348
2.60348
2.60348
2.60348
2.60347
2.60346
2.60345
2.60344
2.60342
2.60341
2.60345
2.60346
2.60347
2.60348
2.60348
2.60348
2.60348
2.60348
2.60347
2.60346
2.60345
2.60343
2.60342
2.6034
2.60345
2.60346
2.60347
2.60347
2.60348
2.60348
2.60348
2.60347
2.60347
2.60346
2.60344
2.60343
2.60342
2.6034
2.60345
2.60346
2.60346
2.60347
2.60347
2.60347
2.60347
2.60347
2.60346
2.60345
2.60344
2.60343
2.60341
2.6034
2.60344
2.60345
2.60346
2.60346
2.60346
2.60346
2.60346
2.60346
2.60345
2.60344
2.60343
2.60342
2.60341
2.60339
2.60344
2.60344
2.60345
2.60345
2.60345
2.60345
2.60345
2.60345
2.60344
2.60343
2.60342
2.60341
2.6034
2.60339
2.60343
2.60343
2.60344
2.60344
2.60344
2.60344
2.60344
2.60343
2.60343
2.60342
2.60341
2.6034
2.60339
2.60338
2.60341
2.60342
2.60342
2.60342
2.60343
2.60343
2.60342
2.60342
2.60342
2.60341
2.6034
2.60339
2.60338
2.60337
2.60016
2.60019
2.60021
2.60022
2.60023
2.60024
2.60024
2.60023
2.60022
2.60021
2.60019
2.60017
2.60015
2.60012
2.60018
2.60021
2.60023
2.60024
2.60025
2.60026
2.60026
2.60026
2.60025
2.60023
2.60022
2.60019
2.60017
2.60014
2.6002
2.60023
2.60025
2.60026
2.60028
2.60028
2.60029
2.60028
2.60027
2.60026
2.60024
2.60022
2.60019
2.60016
2.60022
2.60024
2.60026
2.60028
2.60029
2.6003
2.6003
2.6003
2.60029
2.60028
2.60026
2.60023
2.60021
2.60018
2.60023
2.60026
2.60028
2.6003
2.60031
2.60032
2.60032
2.60031
2.6003
2.60029
2.60027
2.60024
2.60022
2.60019
2.60024
2.60026
2.60029
2.6003
2.60032
2.60033
2.60033
2.60032
2.60031
2.6003
2.60028
2.60025
2.60022
2.60019
2.60024
2.60027
2.60029
2.60031
2.60032
2.60033
2.60033
2.60033
2.60032
2.6003
2.60028
2.60025
2.60022
2.60019
2.60024
2.60027
2.60029
2.60031
2.60032
2.60033
2.60033
2.60032
2.60031
2.6003
2.60028
2.60025
2.60022
2.60019
2.60023
2.60026
2.60028
2.6003
2.60031
2.60032
2.60032
2.60031
2.6003
2.60029
2.60027
2.60024
2.60021
2.60018
2.60022
2.60025
2.60027
2.60028
2.6003
2.6003
2.60031
2.6003
2.60029
2.60028
2.60025
2.60023
2.6002
2.60017
2.60021
2.60023
2.60025
2.60027
2.60028
2.60028
2.60029
2.60028
2.60027
2.60026
2.60024
2.60021
2.60018
2.60015
2.60019
2.60021
2.60023
2.60024
2.60025
2.60026
2.60026
2.60026
2.60025
2.60023
2.60021
2.60019
2.60016
2.60013
2.60016
2.60018
2.6002
2.60021
2.60022
2.60023
2.60023
2.60023
2.60022
2.60021
2.60019
2.60017
2.60014
2.60011
2.60013
2.60015
2.60017
2.60018
2.60019
2.6002
2.6002
2.6002
2.60019
2.60018
2.60016
2.60014
2.60011
2.60009
2.59705
2.59708
2.5971
2.59712
2.59714
2.59715
2.59715
2.59714
2.59714
2.59712
2.5971
2.59708
2.59705
2.59701
2.59707
2.5971
2.59713
2.59715
2.59717
2.59718
2.59718
2.59718
2.59717
2.59715
2.59713
2.5971
2.59708
2.59704
2.5971
2.59713
2.59716
2.59718
2.59719
2.5972
2.59721
2.5972
2.59719
2.59718
2.59716
2.59713
2.5971
2.59707
2.59712
2.59715
2.59718
2.5972
2.59722
2.59723
2.59723
2.59723
2.59722
2.5972
2.59718
2.59715
2.59712
2.59709
2.59713
2.59716
2.59719
2.59721
2.59723
2.59724
2.59725
2.59724
2.59723
2.59722
2.59719
2.59717
2.59713
2.5971
2.59714
2.59717
2.5972
2.59722
2.59724
2.59725
2.59726
2.59725
2.59724
2.59723
2.5972
2.59718
2.59714
2.59711
2.59715
2.59718
2.59721
2.59723
2.59725
2.59726
2.59726
2.59726
2.59725
2.59723
2.59721
2.59718
2.59714
2.59711
2.59714
2.59718
2.5972
2.59722
2.59724
2.59725
2.59726
2.59725
2.59724
2.59723
2.5972
2.59717
2.59714
2.5971
2.59714
2.59717
2.59719
2.59721
2.59723
2.59724
2.59725
2.59724
2.59723
2.59721
2.59719
2.59716
2.59713
2.59709
2.59712
2.59715
2.59718
2.5972
2.59721
2.59722
2.59723
2.59722
2.59721
2.5972
2.59717
2.59715
2.59711
2.59707
2.5971
2.59713
2.59715
2.59717
2.59719
2.5972
2.5972
2.5972
2.59719
2.59718
2.59715
2.59712
2.59709
2.59705
2.59707
2.5971
2.59712
2.59714
2.59716
2.59717
2.59718
2.59717
2.59716
2.59715
2.59712
2.5971
2.59706
2.59703
2.59704
2.59707
2.59709
2.59711
2.59712
2.59713
2.59714
2.59714
2.59713
2.59711
2.59709
2.59706
2.59703
2.597
2.597
2.59703
2.59705
2.59707
2.59709
2.5971
2.5971
2.5971
2.59709
2.59708
2.59706
2.59703
2.597
2.59697
2.59402
2.59405
2.59408
2.5941
2.59411
2.59412
2.59412
2.59412
2.59411
2.5941
2.59408
2.59406
2.59403
2.594
2.59404
2.59407
2.5941
2.59412
2.59414
2.59415
2.59415
2.59415
2.59414
2.59413
2.59411
2.59408
2.59406
2.59402
2.59407
2.5941
2.59413
2.59415
2.59416
2.59417
2.59418
2.59418
2.59417
2.59415
2.59413
2.59411
2.59408
2.59405
2.59409
2.59412
2.59414
2.59417
2.59418
2.59419
2.5942
2.5942
2.59419
2.59417
2.59415
2.59413
2.5941
2.59407
2.5941
2.59413
2.59416
2.59418
2.5942
2.59421
2.59421
2.59421
2.5942
2.59419
2.59417
2.59414
2.59411
2.59408
2.59411
2.59414
2.59417
2.59419
2.5942
2.59422
2.59422
2.59422
2.59421
2.5942
2.59418
2.59415
2.59412
2.59409
2.59411
2.59414
2.59417
2.59419
2.59421
2.59422
2.59422
2.59422
2.59421
2.5942
2.59418
2.59415
2.59412
2.59409
2.59411
2.59414
2.59417
2.59419
2.5942
2.59421
2.59422
2.59422
2.59421
2.59419
2.59417
2.59415
2.59412
2.59408
2.5941
2.59413
2.59416
2.59418
2.59419
2.5942
2.59421
2.59421
2.5942
2.59418
2.59416
2.59414
2.59411
2.59407
2.59409
2.59412
2.59414
2.59416
2.59418
2.59419
2.59419
2.59419
2.59418
2.59417
2.59415
2.59412
2.59409
2.59406
2.59407
2.59409
2.59412
2.59414
2.59415
2.59416
2.59417
2.59417
2.59416
2.59415
2.59413
2.5941
2.59407
2.59404
2.59404
2.59407
2.59409
2.59411
2.59413
2.59414
2.59414
2.59414
2.59413
2.59412
2.5941
2.59407
2.59404
2.59401
2.59401
2.59403
2.59406
2.59408
2.59409
2.5941
2.59411
2.59411
2.5941
2.59409
2.59407
2.59404
2.59401
2.59398
2.59397
2.594
2.59402
2.59404
2.59406
2.59407
2.59407
2.59407
2.59407
2.59405
2.59404
2.59401
2.59398
2.59395
2.59105
2.59107
2.59109
2.59111
2.59112
2.59113
2.59114
2.59113
2.59113
2.59112
2.5911
2.59108
2.59106
2.59103
2.59107
2.59109
2.59111
2.59113
2.59115
2.59115
2.59116
2.59116
2.59115
2.59114
2.59112
2.5911
2.59108
2.59105
2.59109
2.59111
2.59113
2.59115
2.59116
2.59117
2.59118
2.59118
2.59117
2.59116
2.59114
2.59112
2.5911
2.59107
2.5911
2.59113
2.59115
2.59117
2.59118
2.59119
2.59119
2.59119
2.59118
2.59117
2.59116
2.59114
2.59112
2.59109
2.59111
2.59114
2.59116
2.59118
2.59119
2.5912
2.5912
2.5912
2.59119
2.59118
2.59117
2.59115
2.59113
2.5911
2.59112
2.59114
2.59117
2.59118
2.5912
2.5912
2.59121
2.59121
2.5912
2.59119
2.59118
2.59116
2.59113
2.59111
2.59112
2.59115
2.59117
2.59118
2.5912
2.5912
2.59121
2.59121
2.5912
2.59119
2.59118
2.59116
2.59113
2.59111
2.59112
2.59114
2.59116
2.59118
2.59119
2.5912
2.5912
2.5912
2.5912
2.59119
2.59117
2.59115
2.59113
2.5911
2.59111
2.59113
2.59116
2.59117
2.59118
2.59119
2.5912
2.59119
2.59119
2.59118
2.59116
2.59115
2.59112
2.5911
2.5911
2.59112
2.59114
2.59116
2.59117
2.59118
2.59118
2.59118
2.59118
2.59117
2.59115
2.59113
2.59111
2.59108
2.59108
2.5911
2.59112
2.59114
2.59115
2.59116
2.59117
2.59117
2.59116
2.59115
2.59113
2.59112
2.59109
2.59107
2.59106
2.59108
2.5911
2.59112
2.59113
2.59114
2.59115
2.59114
2.59114
2.59113
2.59111
2.59109
2.59107
2.59104
2.59103
2.59106
2.59108
2.59109
2.59111
2.59112
2.59112
2.59112
2.59111
2.5911
2.59109
2.59107
2.59105
2.59102
2.591
2.59103
2.59105
2.59106
2.59108
2.59109
2.59109
2.59109
2.59109
2.59108
2.59106
2.59104
2.59102
2.59099
2.58812
2.58814
2.58815
2.58816
2.58817
2.58818
2.58818
2.58818
2.58818
2.58817
2.58816
2.58815
2.58814
2.58815
2.58817
2.58818
2.58819
2.58819
2.5882
2.5882
2.58819
2.58818
2.58817
2.58816
2.58815
2.58817
2.58818
2.58819
2.5882
2.58821
2.58821
2.58821
2.5882
2.5882
2.58819
2.58817
2.58816
2.58818
2.58819
2.5882
2.58821
2.58821
2.58822
2.58822
2.58821
2.58821
2.5882
2.58818
2.58817
2.58818
2.5882
2.58821
2.58822
2.58822
2.58822
2.58822
2.58822
2.58821
2.5882
2.58819
2.58817
2.58819
2.5882
2.58821
2.58822
2.58822
2.58823
2.58823
2.58822
2.58822
2.58821
2.58819
2.58817
2.58819
2.5882
2.58821
2.58822
2.58822
2.58823
2.58823
2.58822
2.58822
2.58821
2.58819
2.58817
2.58818
2.5882
2.58821
2.58822
2.58822
2.58822
2.58822
2.58822
2.58821
2.5882
2.58819
2.58816
2.58818
2.58819
2.5882
2.58821
2.58822
2.58822
2.58822
2.58821
2.58821
2.5882
2.58819
2.58815
2.58817
2.58818
2.58819
2.5882
2.58821
2.58821
2.58821
2.58821
2.5882
2.58819
2.58818
2.58814
2.58816
2.58817
2.58818
2.58819
2.5882
2.5882
2.5882
2.58819
2.58819
2.58818
2.58817
2.58813
2.58814
2.58816
2.58817
2.58818
2.58818
2.58819
2.58818
2.58818
2.58817
2.58817
2.58815
2.58811
2.58812
2.58814
2.58815
2.58816
2.58817
2.58817
2.58817
2.58816
2.58816
2.58815
2.58814
2.58809
2.58811
2.58812
2.58813
2.58814
2.58815
2.58815
2.58815
2.58815
2.58814
2.58813
2.58812
2.68524
2.68492
2.68467
2.68437
2.68411
2.68384
2.68568
2.68536
2.6851
2.6848
2.68454
2.68428
2.68607
2.68576
2.68551
2.68523
2.68498
2.68475
2.68647
2.68617
2.68593
2.68566
2.68543
2.68521
2.67789
2.67744
2.67708
2.67668
2.67632
2.67595
2.67826
2.67779
2.67739
2.67696
2.67657
2.67618
2.67859
2.6781
2.6777
2.67726
2.67686
2.67646
2.67894
2.67846
2.67804
2.6776
2.6772
2.6768
2.67929
2.67881
2.67838
2.67796
2.67756
2.67717
2.67963
2.67916
2.67874
2.67833
2.67794
2.67757
2.67995
2.67951
2.6791
2.6787
2.67833
2.67798
2.67027
2.66984
2.66948
2.66909
2.66874
2.66838
2.67052
2.67005
2.66966
2.66923
2.66884
2.66844
2.67075
2.67026
2.66983
2.66939
2.66897
2.66855
2.67101
2.6705
2.67006
2.6696
2.66917
2.66874