/*--------------------------------*- C++ -*----------------------------------*\
| =========                 |                                                 |
| \\      /  F ield         | OpenFOAM: The Open Source CFD Toolbox           |
|  \\    /   O peration     | Version:  v2106                                 |
|   \\  /    A nd           | Website:  www.openfoam.com                      |
|    \\/     M anipulation  |                                                 |
\*---------------------------------------------------------------------------*/
FoamFile
{
    version     2.0;
    format      ascii;
    arch        "LSB;label=32;scalar=64";
    class       volVectorField;
    location    "0.000156";
    object      U;
}
// * * * * * * * * * * * * * * * * * * * * * * * * * * * * * * * * * * * * * //

dimensions      [0 1 -1 0 0 0 0];

internalField   nonuniform List<vector> 
17924
(
(-0.424717 -1.14624 19.5373)
(-0.395314 -1.14401 19.5644)
(-0.37769 -1.15994 19.6058)
(-0.353949 -1.1596 19.651)
(-0.241616 -0.951853 18.5423)
(-0.211175 -0.952683 18.5689)
(-0.204063 -0.963346 18.6083)
(-0.185502 -0.958935 18.6477)
(-0.170013 -0.960968 18.6885)
(-0.151722 -0.956528 18.726)
(-0.13319 -0.952461 18.7613)
(-0.240749 -0.930758 18.5706)
(-0.209506 -0.930653 18.605)
(-0.21111 -0.937156 18.653)
(-0.189782 -0.939205 18.6983)
(-0.176318 -0.944027 18.7427)
(-0.15616 -0.945836 18.7812)
(-0.138079 -0.949513 18.8177)
(-0.25691 -0.932149 18.6168)
(-0.219284 -0.941075 18.6562)
(-0.216704 -0.949034 18.7091)
(-0.190292 -0.95363 18.7538)
(-0.175173 -0.954585 18.799)
(-0.151901 -0.952709 18.8369)
(-0.132239 -0.950462 18.8737)
(-0.256162 -0.921291 18.6784)
(-0.222019 -0.929162 18.7171)
(-0.217367 -0.934606 18.7684)
(-0.191771 -0.941086 18.8112)
(-0.177263 -0.94216 18.855)
(-0.154488 -0.943515 18.8925)
(-0.134864 -0.944393 18.9296)
(-0.264223 -0.912358 18.7422)
(-0.230029 -0.925731 18.7787)
(-0.219332 -0.932213 18.8276)
(-0.193544 -0.939058 18.8689)
(-0.176518 -0.937847 18.911)
(-0.153119 -0.938051 18.9481)
(-0.13232 -0.936393 18.9849)
(-0.262883 -0.899286 18.8007)
(-0.231317 -0.913591 18.8361)
(-0.216554 -0.916291 18.8817)
(-0.194042 -0.922713 18.9227)
(-0.176155 -0.921666 18.9638)
(-0.153908 -0.923375 19.0014)
(-0.132675 -0.923113 19.0385)
(-0.263667 -0.884208 18.8517)
(-0.236556 -0.900973 18.89)
(-0.217264 -0.901412 18.9337)
(-0.19641 -0.907224 18.9751)
(-0.176036 -0.90593 19.0154)
(-0.153707 -0.907244 19.0533)
(-0.13112 -0.906052 19.09)
(-0.259297 -0.86562 18.897)
(-0.240247 -0.879552 18.9393)
(-0.21705 -0.877477 18.9808)
(-0.198358 -0.882835 19.0233)
(-0.176137 -0.882634 19.0634)
(-0.154183 -0.884629 19.1022)
(-0.130632 -0.884328 19.139)
(-0.262076 -0.845279 18.9425)
(-0.248033 -0.855639 18.9867)
(-0.221705 -0.854301 19.0275)
(-0.202775 -0.858455 19.0709)
(-0.177936 -0.85838 19.1104)
(-0.155126 -0.859527 19.1494)
(-0.130045 -0.858663 19.1856)
(-0.265238 -0.814147 18.9878)
(-0.252492 -0.821673 19.0312)
(-0.223603 -0.821524 19.0705)
(-0.204542 -0.825473 19.1145)
(-0.177922 -0.826563 19.1537)
(-0.154557 -0.82788 19.1931)
(-0.128535 -0.827857 19.2293)
(-0.271563 -0.786837 19.04)
(-0.259005 -0.792668 19.082)
(-0.228431 -0.793127 19.1185)
(-0.208282 -0.794871 19.161)
(-0.180058 -0.795453 19.1984)
(-0.155317 -0.794861 19.2365)
(-0.128131 -0.793723 19.2712)
(-0.271592 -0.744018 19.084)
(-0.258207 -0.748439 19.1248)
(-0.226417 -0.750162 19.1591)
(-0.205648 -0.751865 19.2008)
(-0.177124 -0.75391 19.2375)
(-0.151631 -0.753533 19.2746)
(-0.124664 -0.75356 19.3093)
(-0.2706 -0.713476 19.1292)
(-0.256946 -0.716849 19.1719)
(-0.224953 -0.718455 19.2069)
(-0.204056 -0.716635 19.2472)
(-0.176782 -0.717233 19.2816)
(-0.151495 -0.71347 19.315)
(-0.125358 -0.71067 19.346)
(-0.275083 -0.656436 19.137)
(-0.251606 -0.657442 19.1828)
(-0.218317 -0.657062 19.2233)
(-0.196478 -0.655992 19.2657)
(-0.169848 -0.659139 19.3028)
(-0.14443 -0.65845 19.3389)
(-0.119449 -0.659676 19.3745)
(-0.0966627 -0.715304 17.4898)
(-0.0686721 -0.713619 17.5118)
(-0.0635607 -0.719407 17.5422)
(-0.0470022 -0.71283 17.5692)
(-0.0329049 -0.711397 17.5984)
(-0.0179064 -0.705345 17.626)
(-0.00295739 -0.700202 17.6527)
(0.0121566 -0.69364 17.6782)
(0.027872 -0.686906 17.7027)
(0.0448865 -0.680615 17.7263)
(0.0621776 -0.670666 17.7489)
(0.0814021 -0.667279 17.7718)
(0.096082 -0.659307 17.7943)
(0.125896 -0.666335 17.8001)
(-0.0915205 -0.692703 17.5257)
(-0.0628158 -0.690603 17.5553)
(-0.0635958 -0.693472 17.5929)
(-0.0449058 -0.693655 17.6233)
(-0.032283 -0.694908 17.6545)
(-0.0158823 -0.69405 17.6825)
(-0.00122309 -0.693961 17.7102)
(0.0142472 -0.69229 17.7361)
(0.0295044 -0.690752 17.761)
(0.0463704 -0.688693 17.7841)
(0.0633528 -0.683759 17.8066)
(0.0847414 -0.680644 17.8268)
(0.0975592 -0.673394 17.8487)
(0.126939 -0.672855 17.8522)
(-0.103611 -0.689538 17.5806)
(-0.070202 -0.693423 17.6121)
(-0.0661898 -0.697948 17.6526)
(-0.0438146 -0.699638 17.6824)
(-0.0299318 -0.697307 17.7138)
(-0.0117937 -0.693726 17.7414)
(0.00369902 -0.690139 17.7692)
(0.0203114 -0.68588 17.7952)
(0.0366443 -0.682109 17.8203)
(0.0544127 -0.678604 17.8438)
(0.0715522 -0.673262 17.8675)
(0.0938207 -0.668238 17.8879)
(0.107308 -0.659331 17.9103)
(0.137145 -0.656979 17.9149)
(-0.0996103 -0.680422 17.6466)
(-0.0695995 -0.684568 17.6752)
(-0.0631866 -0.686315 17.7133)
(-0.0420041 -0.688915 17.7423)
(-0.0287757 -0.686957 17.7732)
(-0.0109234 -0.68566 17.801)
(0.00459796 -0.684299 17.8294)
(0.0215096 -0.682483 17.8561)
(0.0383072 -0.681251 17.8818)
(0.0560884 -0.679567 17.9062)
(0.0736719 -0.677357 17.9304)
(0.0957732 -0.673204 17.9521)
(0.110439 -0.664626 17.9761)
(0.141408 -0.659639 17.9834)
(-0.10219 -0.669174 17.7133)
(-0.0727329 -0.678105 17.739)
(-0.0620622 -0.681295 17.7747)
(-0.041352 -0.684123 17.8036)
(-0.0267937 -0.681425 17.8339)
(-0.00883831 -0.679946 17.8619)
(0.00718779 -0.677697 17.8903)
(0.0242668 -0.675366 17.9173)
(0.0413146 -0.673363 17.9433)
(0.0587784 -0.671227 17.9682)
(0.0765562 -0.669021 17.9925)
(0.097085 -0.663777 18.0152)
(0.113527 -0.656203 18.0396)
(0.143826 -0.649281 18.0489)
(-0.0988302 -0.659376 17.7762)
(-0.0718391 -0.669561 17.8011)
(-0.0582541 -0.66982 17.8345)
(-0.0400607 -0.672522 17.8641)
(-0.0249593 -0.670634 17.8942)
(-0.0077375 -0.67035 17.9227)
(0.00841961 -0.669312 17.9513)
(0.0253646 -0.668174 17.9787)
(0.0423733 -0.667261 18.005)
(0.0594588 -0.665773 18.0301)
(0.0772205 -0.664886 18.0542)
(0.0962275 -0.660374 18.0776)
(0.115678 -0.655454 18.1009)
(0.144202 -0.647035 18.1135)
(-0.097332 -0.645643 17.834)
(-0.0742905 -0.657765 17.8617)
(-0.0576206 -0.657365 17.8937)
(-0.0405738 -0.660103 17.9244)
(-0.0241447 -0.659008 17.9543)
(-0.00696767 -0.659187 17.9832)
(0.0097648 -0.658354 18.0118)
(0.0269587 -0.65739 18.0392)
(0.0441995 -0.656317 18.0655)
(0.0614848 -0.654674 18.0906)
(0.0795742 -0.653528 18.1144)
(0.097446 -0.64986 18.1381)
(0.119272 -0.648491 18.1594)
(0.143677 -0.638001 18.176)
(-0.0938463 -0.631471 17.8895)
(-0.0765426 -0.642374 17.921)
(-0.0571519 -0.640531 17.9517)
(-0.0414857 -0.643514 17.9835)
(-0.0240076 -0.643605 18.0134)
(-0.00702798 -0.644704 18.0429)
(0.0101121 -0.644809 18.0714)
(0.027524 -0.644567 18.0989)
(0.0449563 -0.644075 18.1252)
(0.062628 -0.642546 18.1501)
(0.0811664 -0.641637 18.1738)
(0.0988835 -0.638674 18.1975)
(0.122447 -0.639093 18.2169)
(0.142054 -0.62808 18.2375)
(-0.0945008 -0.614618 17.9455)
(-0.0818961 -0.623934 17.9789)
(-0.060215 -0.622525 18.0091)
(-0.0445689 -0.625255 18.0417)
(-0.0255243 -0.626071 18.0718)
(-0.00802071 -0.627473 18.1015)
(0.00991558 -0.627924 18.1299)
(0.0279582 -0.627868 18.1571)
(0.0459656 -0.627465 18.1831)
(0.0644817 -0.625988 18.2076)
(0.0840842 -0.625163 18.231)
(0.102379 -0.623404 18.2552)
(0.12787 -0.624807 18.2736)
(0.143934 -0.615489 18.2981)
(-0.0966627 -0.589552 18.0025)
(-0.086116 -0.598235 18.036)
(-0.0624129 -0.598335 18.0652)
(-0.0468798 -0.601788 18.0985)
(-0.0267607 -0.603917 18.1286)
(-0.00891232 -0.606084 18.1586)
(0.00957204 -0.60747 18.1869)
(0.0281064 -0.608103 18.2138)
(0.0464286 -0.608339 18.2395)
(0.0653783 -0.607173 18.2633)
(0.0854478 -0.606495 18.2863)
(0.103787 -0.604951 18.3113)
(0.131175 -0.604941 18.3303)
(0.145009 -0.595413 18.3578)
(-0.1025 -0.56859 18.0646)
(-0.0927026 -0.576743 18.0968)
(-0.0674926 -0.577288 18.1233)
(-0.0511631 -0.579332 18.1559)
(-0.0298129 -0.581516 18.1852)
(-0.0109796 -0.582973 18.2146)
(0.00829724 -0.584082 18.2423)
(0.027691 -0.584199 18.2683)
(0.0467526 -0.58407 18.2932)
(0.0666761 -0.582675 18.3161)
(0.0882506 -0.581754 18.3385)
(0.107651 -0.582504 18.3652)
(0.137765 -0.582943 18.3872)
(0.150258 -0.577757 18.4201)
(-0.103613 -0.531833 18.1221)
(-0.0936998 -0.540096 18.1534)
(-0.0672417 -0.543322 18.1781)
(-0.0510215 -0.546774 18.2102)
(-0.0299409 -0.550945 18.239)
(-0.0109501 -0.553379 18.2677)
(0.00799664 -0.556021 18.2951)
(0.0273842 -0.557571 18.3208)
(0.0461039 -0.55886 18.3455)
(0.0658034 -0.558739 18.3682)
(0.0868666 -0.558249 18.3905)
(0.105833 -0.559634 18.4174)
(0.13577 -0.556866 18.4419)
(0.148499 -0.551481 18.4776)
(-0.106343 -0.512185 18.1802)
(-0.096161 -0.519462 18.2126)
(-0.0700537 -0.52259 18.237)
(-0.0534439 -0.522023 18.2671)
(-0.0334985 -0.525292 18.2938)
(-0.0140981 -0.525212 18.3199)
(0.00466972 -0.526098 18.3455)
(0.0244553 -0.525514 18.3691)
(0.0434462 -0.52487 18.3923)
(0.0638719 -0.523261 18.4139)
(0.0855986 -0.521498 18.4361)
(0.105368 -0.526356 18.463)
(0.133055 -0.527476 18.4899)
(0.150147 -0.534091 18.5232)
(-0.101964 -0.465929 18.2093)
(-0.0904931 -0.466223 18.2437)
(-0.068572 -0.471573 18.2747)
(-0.050899 -0.472623 18.3058)
(-0.0336726 -0.480063 18.335)
(-0.0142703 -0.484249 18.3625)
(0.00369285 -0.489453 18.3901)
(0.0240131 -0.493087 18.4154)
(0.0434703 -0.496266 18.4404)
(0.0646784 -0.498057 18.4633)
(0.0851295 -0.497828 18.4863)
(0.103384 -0.5012 18.5092)
(0.120828 -0.497474 18.5278)
(0.136815 -0.507151 18.5386)
(-0.00282402 -0.489667 16.4573)
(0.0191501 -0.48219 16.4716)
(0.0277233 -0.486666 16.4913)
(0.0442959 -0.481033 16.505)
(0.0596226 -0.478509 16.5204)
(0.073924 -0.473526 16.5357)
(0.0878341 -0.469158 16.551)
(0.101174 -0.464014 16.5659)
(0.114298 -0.458671 16.5807)
(0.128598 -0.453348 16.5949)
(0.143165 -0.444959 16.6087)
(0.159185 -0.439356 16.6228)
(0.171546 -0.431221 16.6375)
(0.193274 -0.436347 16.6419)
(0.0030083 -0.466874 16.4938)
(0.0265241 -0.463891 16.5133)
(0.032652 -0.464936 16.5364)
(0.0503103 -0.463453 16.5502)
(0.0644119 -0.462172 16.5668)
(0.0793068 -0.459718 16.5824)
(0.0930898 -0.457542 16.5983)
(0.106349 -0.454372 16.6135)
(0.119036 -0.451349 16.6287)
(0.132496 -0.448423 16.643)
(0.14616 -0.444131 16.6572)
(0.162699 -0.440882 16.67)
(0.173997 -0.433268 16.6842)
(0.196043 -0.433551 16.6873)
(-0.0038426 -0.454673 16.5446)
(0.0222137 -0.455078 16.5632)
(0.0320243 -0.457853 16.5868)
(0.0517067 -0.45766 16.6002)
(0.0666154 -0.454227 16.6165)
(0.0823464 -0.450488 16.6316)
(0.0966525 -0.446955 16.6473)
(0.110749 -0.443057 16.6624)
(0.124555 -0.43943 16.6774)
(0.138986 -0.436281 16.6917)
(0.153637 -0.43171 16.7058)
(0.170605 -0.427483 16.7189)
(0.182264 -0.418741 16.7337)
(0.204502 -0.416938 16.738)
(0.00124106 -0.443681 16.6017)
(0.024885 -0.446047 16.6164)
(0.0365397 -0.445537 16.637)
(0.0547873 -0.445403 16.6505)
(0.0692061 -0.44225 16.6667)
(0.0848466 -0.43954 16.6819)
(0.0992791 -0.437137 16.6979)
(0.113668 -0.434417 16.7132)
(0.127684 -0.4321 16.7284)
(0.141763 -0.429962 16.743)
(0.1562 -0.427559 16.7573)
(0.172176 -0.424232 16.7713)
(0.184409 -0.416855 16.787)
(0.207221 -0.413161 16.7931)
(0.00230517 -0.42785 16.6573)
(0.0254678 -0.433451 16.6695)
(0.0390023 -0.434597 16.6884)
(0.0566575 -0.434533 16.7025)
(0.0714708 -0.431759 16.7185)
(0.0870967 -0.429518 16.7337)
(0.101599 -0.427314 16.7496)
(0.116096 -0.424932 16.7649)
(0.130233 -0.422791 16.7801)
(0.144336 -0.420778 16.7949)
(0.159004 -0.418353 16.8091)
(0.17436 -0.414305 16.8235)
(0.188158 -0.407523 16.839)
(0.209698 -0.403224 16.847)
(0.00606358 -0.416394 16.711)
(0.0277944 -0.422908 16.7232)
(0.0426768 -0.421846 16.7404)
(0.0588615 -0.421968 16.7553)
(0.0737152 -0.420023 16.771)
(0.0890028 -0.418672 16.7864)
(0.103425 -0.417385 16.8022)
(0.117889 -0.415872 16.8175)
(0.131909 -0.414587 16.8329)
(0.145855 -0.413015 16.8477)
(0.16024 -0.411661 16.862)
(0.174881 -0.408216 16.8766)
(0.190578 -0.403973 16.8915)
(0.210531 -0.398387 16.9013)
(0.00798244 -0.400661 16.7623)
(0.0275218 -0.408351 16.7765)
(0.0438206 -0.407434 16.793)
(0.0595756 -0.40802 16.8087)
(0.0748052 -0.40716 16.8243)
(0.0900425 -0.40671 16.8397)
(0.104547 -0.406186 16.8555)
(0.119163 -0.405401 16.8708)
(0.133313 -0.404634 16.8862)
(0.147644 -0.403331 16.9009)
(0.162069 -0.402132 16.9153)
(0.176674 -0.399456 16.9298)
(0.193628 -0.397611 16.9438)
(0.211514 -0.390174 16.9552)
(0.0100413 -0.385919 16.8142)
(0.0269353 -0.393752 16.8306)
(0.0444001 -0.391903 16.8463)
(0.0595423 -0.392973 16.8625)
(0.0750023 -0.393142 16.8781)
(0.0901401 -0.39361 16.8936)
(0.104721 -0.393935 16.9094)
(0.119546 -0.393875 16.9246)
(0.133904 -0.393731 16.9401)
(0.148715 -0.392694 16.9546)
(0.163316 -0.392039 16.9692)
(0.178295 -0.39022 16.9835)
(0.195982 -0.390422 16.9967)
(0.211595 -0.381953 17.0096)
(0.0100214 -0.368518 16.8668)
(0.024266 -0.376586 16.8845)
(0.0428119 -0.374675 16.8994)
(0.0578966 -0.37619 16.9163)
(0.073908 -0.377318 16.932)
(0.0892719 -0.378665 16.9476)
(0.104161 -0.379791 16.9634)
(0.119403 -0.380464 16.9786)
(0.134189 -0.380933 16.994)
(0.149705 -0.380421 17.0083)
(0.164849 -0.380374 17.0229)
(0.18045 -0.37966 17.0371)
(0.199122 -0.381314 17.0496)
(0.21252 -0.373218 17.0648)
(0.00892501 -0.347122 16.9206)
(0.02124 -0.356424 16.9382)
(0.0408631 -0.355525 16.9524)
(0.0557282 -0.357864 16.97)
(0.072098 -0.360096 16.9858)
(0.0876117 -0.362315 17.0016)
(0.102825 -0.364203 17.0174)
(0.11853 -0.36553 17.0324)
(0.133736 -0.366535 17.0478)
(0.14978 -0.366438 17.0616)
(0.165299 -0.366713 17.0759)
(0.18121 -0.366525 17.0901)
(0.201136 -0.367979 17.1026)
(0.212443 -0.359996 17.1208)
(0.00544202 -0.328156 16.9775)
(0.0164311 -0.337997 16.9938)
(0.0369112 -0.337191 17.0059)
(0.0522389 -0.339163 17.0235)
(0.0692811 -0.34197 17.0393)
(0.0852974 -0.344586 17.0551)
(0.101033 -0.347015 17.0708)
(0.117343 -0.348831 17.0857)
(0.13309 -0.350357 17.1007)
(0.149837 -0.350835 17.1141)
(0.166171 -0.351741 17.1281)
(0.182891 -0.353387 17.1427)
(0.20478 -0.355646 17.1567)
(0.214695 -0.351157 17.18)
(0.0046504 -0.299354 17.0323)
(0.0148592 -0.31024 17.0479)
(0.0361054 -0.312955 17.0589)
(0.0507337 -0.316739 17.0764)
(0.0671576 -0.321075 17.092)
(0.082931 -0.324596 17.1076)
(0.0985384 -0.328064 17.1232)
(0.114896 -0.330943 17.1378)
(0.130619 -0.333463 17.1526)
(0.147383 -0.334793 17.1656)
(0.163735 -0.335941 17.1792)
(0.180518 -0.337952 17.194)
(0.203594 -0.337905 17.2104)
(0.212596 -0.333534 17.2387)
(0.00168852 -0.286563 17.0878)
(0.0116433 -0.295102 17.1043)
(0.0321385 -0.296512 17.1139)
(0.0472629 -0.29733 17.1295)
(0.063178 -0.301627 17.1441)
(0.0793214 -0.304505 17.1588)
(0.094979 -0.307823 17.1739)
(0.111482 -0.310455 17.1879)
(0.127316 -0.312781 17.2022)
(0.144424 -0.313994 17.2148)
(0.161394 -0.315075 17.2284)
(0.178896 -0.31977 17.2438)
(0.202285 -0.32221 17.2628)
(0.215256 -0.327212 17.2923)
(0.0110481 -0.25509 17.1255)
(0.0169571 -0.254859 17.1431)
(0.0306791 -0.260499 17.1587)
(0.0443386 -0.26431 17.175)
(0.0578677 -0.272399 17.1907)
(0.0738383 -0.278313 17.2057)
(0.0893752 -0.284336 17.2213)
(0.106342 -0.289501 17.2357)
(0.122796 -0.294234 17.2504)
(0.140664 -0.297705 17.2635)
(0.157792 -0.299975 17.2777)
(0.174296 -0.304821 17.292)
(0.189948 -0.305577 17.3077)
(0.200863 -0.316391 17.3207)
(0.0408029 -0.307064 15.4932)
(0.058801 -0.297722 15.4991)
(0.0723786 -0.301241 15.5061)
(0.0880379 -0.298406 15.51)
(0.103403 -0.29638 15.5138)
(0.117677 -0.293592 15.5185)
(0.131457 -0.291048 15.5235)
(0.144867 -0.288115 15.5282)
(0.157971 -0.284835 15.5335)
(0.171831 -0.281832 15.5378)
(0.185861 -0.276421 15.542)
(0.200706 -0.27115 15.5462)
(0.21305 -0.263354 15.5512)
(0.229041 -0.267539 15.5529)
(0.0444154 -0.285891 15.5255)
(0.0629284 -0.28314 15.5338)
(0.0770664 -0.283381 15.5393)
(0.0932542 -0.28209 15.543)
(0.108513 -0.280495 15.5473)
(0.123128 -0.278343 15.552)
(0.137118 -0.276133 15.5569)
(0.150572 -0.273353 15.5614)
(0.163445 -0.270379 15.5663)
(0.176418 -0.26799 15.5707)
(0.18923 -0.264679 15.5752)
(0.202878 -0.262148 15.5802)
(0.21449 -0.255689 15.5847)
(0.231289 -0.256118 15.5864)
(0.0407141 -0.26676 15.5635)
(0.0613834 -0.267115 15.5702)
(0.0771483 -0.269788 15.5753)
(0.0944021 -0.269074 15.5785)
(0.109874 -0.266448 15.5825)
(0.124732 -0.263815 15.5867)
(0.138997 -0.261305 15.5913)
(0.153031 -0.258768 15.5956)
(0.166833 -0.256231 15.6004)
(0.180825 -0.25446 15.6048)
(0.194756 -0.251192 15.6087)
(0.208849 -0.248156 15.6135)
(0.220591 -0.240524 15.6174)
(0.23746 -0.238533 15.6202)
(0.044975 -0.252633 15.604)
(0.0645067 -0.254873 15.6082)
(0.0802946 -0.255034 15.6114)
(0.0965559 -0.254285 15.6144)
(0.111687 -0.251917 15.6185)
(0.12674 -0.249735 15.6223)
(0.14139 -0.247689 15.6268)
(0.155822 -0.245499 15.6309)
(0.169862 -0.243347 15.6355)
(0.183675 -0.241675 15.6398)
(0.19732 -0.239534 15.6438)
(0.210702 -0.236826 15.6487)
(0.222915 -0.230796 15.6531)
(0.238915 -0.228017 15.6575)
(0.0465542 -0.234092 15.6414)
(0.065954 -0.237936 15.6448)
(0.0819849 -0.239253 15.6482)
(0.098079 -0.238857 15.6511)
(0.113229 -0.237072 15.6551)
(0.128272 -0.235442 15.6587)
(0.142914 -0.233877 15.6629)
(0.157387 -0.232231 15.6668)
(0.17152 -0.230589 15.6714)
(0.185463 -0.229189 15.6756)
(0.19935 -0.227263 15.6795)
(0.212974 -0.224415 15.6841)
(0.226081 -0.218859 15.6882)
(0.241487 -0.215411 15.6933)
(0.048933 -0.219485 15.6795)
(0.0677056 -0.22336 15.6829)
(0.0838974 -0.223238 15.6859)
(0.0995527 -0.223049 15.6887)
(0.114656 -0.221955 15.6925)
(0.12969 -0.220959 15.6958)
(0.144397 -0.219987 15.6999)
(0.158943 -0.21881 15.7035)
(0.173072 -0.21764 15.708)
(0.186888 -0.216291 15.712)
(0.200518 -0.215147 15.7161)
(0.213847 -0.212566 15.7203)
(0.227728 -0.20946 15.7246)
(0.242473 -0.204889 15.7295)
(0.0500078 -0.201884 15.717)
(0.0678019 -0.206351 15.7209)
(0.0843692 -0.20615 15.7241)
(0.100062 -0.206435 15.7268)
(0.115317 -0.20612 15.7304)
(0.130422 -0.205837 15.7336)
(0.145215 -0.205503 15.7375)
(0.159889 -0.204944 15.7411)
(0.17417 -0.204334 15.7456)
(0.188188 -0.203278 15.7494)
(0.201841 -0.202467 15.7535)
(0.215372 -0.200401 15.7572)
(0.229763 -0.199234 15.7617)
(0.244088 -0.19368 15.7655)
(0.0509419 -0.185078 15.7561)
(0.0675804 -0.190086 15.7599)
(0.0843112 -0.189122 15.763)
(0.0998967 -0.189768 15.7656)
(0.115239 -0.190161 15.7691)
(0.130441 -0.190509 15.7721)
(0.145378 -0.190736 15.7761)
(0.160232 -0.190682 15.7795)
(0.174708 -0.190574 15.784)
(0.188962 -0.189801 15.7876)
(0.202767 -0.189529 15.7918)
(0.216724 -0.188167 15.7951)
(0.23131 -0.188676 15.7999)
(0.245078 -0.183044 15.8025)
(0.051001 -0.166602 15.7954)
(0.0662354 -0.172412 15.7985)
(0.0831349 -0.171172 15.8017)
(0.0988069 -0.172392 15.8045)
(0.114402 -0.17354 15.808)
(0.129831 -0.174591 15.8111)
(0.144974 -0.175455 15.815)
(0.160051 -0.176043 15.8185)
(0.174769 -0.176561 15.823)
(0.189362 -0.176335 15.8265)
(0.203528 -0.176694 15.8308)
(0.218071 -0.176169 15.8336)
(0.233069 -0.177395 15.8386)
(0.246172 -0.172002 15.8407)
(0.0504241 -0.146992 15.8352)
(0.0639862 -0.154383 15.837)
(0.0811165 -0.153765 15.8404)
(0.0969105 -0.155409 15.8436)
(0.112783 -0.15728 15.8472)
(0.128453 -0.158926 15.8505)
(0.143854 -0.160342 15.8545)
(0.159219 -0.16149 15.8579)
(0.174229 -0.162509 15.8624)
(0.189187 -0.162682 15.8657)
(0.203768 -0.163422 15.87)
(0.218821 -0.163613 15.8725)
(0.234405 -0.164972 15.8776)
(0.246807 -0.159541 15.8802)
(0.0488615 -0.1285 15.8761)
(0.0607669 -0.136793 15.8758)
(0.0783981 -0.136315 15.8788)
(0.0946516 -0.138005 15.8824)
(0.110852 -0.140446 15.8862)
(0.126757 -0.142847 15.8898)
(0.142391 -0.145083 15.8939)
(0.158037 -0.14702 15.8975)
(0.173348 -0.148762 15.902)
(0.188767 -0.149524 15.9053)
(0.203861 -0.150835 15.9097)
(0.219485 -0.152098 15.912)
(0.23584 -0.153926 15.9173)
(0.248056 -0.149608 15.9225)
(0.047721 -0.107599 15.9161)
(0.059437 -0.116345 15.9146)
(0.0770313 -0.118716 15.9177)
(0.0927514 -0.120845 15.9216)
(0.108506 -0.124218 15.9254)
(0.124218 -0.127329 15.9292)
(0.139813 -0.130205 15.9334)
(0.155486 -0.132801 15.937)
(0.170886 -0.135027 15.9415)
(0.186557 -0.136095 15.9446)
(0.202028 -0.137149 15.9489)
(0.218083 -0.138525 15.9512)
(0.23531 -0.139241 15.9569)
(0.247463 -0.13588 15.9663)
(0.0435469 -0.0965981 15.9563)
(0.0576098 -0.101483 15.9564)
(0.0744551 -0.101192 15.957)
(0.0900744 -0.102908 15.9603)
(0.105716 -0.107113 15.9638)
(0.121498 -0.11099 15.9677)
(0.137078 -0.114695 15.972)
(0.152697 -0.118017 15.9759)
(0.168102 -0.120923 15.9804)
(0.184035 -0.122664 15.9835)
(0.199863 -0.124459 15.988)
(0.216351 -0.127418 15.991)
(0.233921 -0.130126 15.9982)
(0.248972 -0.133018 16.0105)
(0.0511141 -0.0774309 15.9876)
(0.0593038 -0.0736271 15.9911)
(0.0708577 -0.0781258 15.9941)
(0.0842452 -0.0826076 15.9975)
(0.0986536 -0.0888947 16.0009)
(0.114315 -0.0940489 16.0048)
(0.130202 -0.0986403 16.0092)
(0.146412 -0.102885 16.0133)
(0.162618 -0.106703 16.018)
(0.179388 -0.109299 16.0212)
(0.195899 -0.110969 16.0253)
(0.212235 -0.113293 16.0287)
(0.227442 -0.11428 16.0353)
(0.236715 -0.124593 16.0431)
(0.0468613 -0.178825 14.5889)
(0.063379 -0.17182 14.5894)
(0.0780429 -0.174958 14.5862)
(0.0930559 -0.174318 14.5836)
(0.107694 -0.17306 14.5804)
(0.121982 -0.171967 14.5778)
(0.135897 -0.170952 14.5754)
(0.149409 -0.169819 14.5728)
(0.162848 -0.168478 14.5706)
(0.176361 -0.167637 14.5674)
(0.189957 -0.164935 14.564)
(0.204438 -0.16269 14.5601)
(0.217154 -0.15546 14.5574)
(0.2307 -0.159262 14.5565)
(0.0475621 -0.15956 14.6134)
(0.0647894 -0.157782 14.6137)
(0.079659 -0.158503 14.6077)
(0.0960898 -0.158925 14.6053)
(0.111533 -0.157876 14.6021)
(0.126323 -0.156764 14.5993)
(0.140577 -0.155446 14.5965)
(0.154253 -0.153801 14.5931)
(0.167687 -0.151853 14.5899)
(0.180752 -0.150601 14.5862)
(0.193199 -0.148495 14.5826)
(0.205795 -0.147105 14.5799)
(0.216883 -0.142519 14.5767)
(0.229975 -0.142395 14.5761)
(0.0452535 -0.139036 14.6365)
(0.0639728 -0.140866 14.6358)
(0.0798553 -0.143138 14.6306)
(0.0964861 -0.143468 14.6274)
(0.111825 -0.141916 14.6239)
(0.126547 -0.140692 14.6205)
(0.140963 -0.139506 14.6176)
(0.155069 -0.138411 14.6142)
(0.169215 -0.137299 14.6113)
(0.183279 -0.136911 14.608)
(0.196679 -0.135242 14.604)
(0.21025 -0.133741 14.6012)
(0.221174 -0.128856 14.5959)
(0.235169 -0.127504 14.5958)
(0.0472087 -0.123338 14.6608)
(0.06552 -0.125803 14.6587)
(0.0810831 -0.127073 14.6534)
(0.0968681 -0.127132 14.6495)
(0.112196 -0.126003 14.6462)
(0.127205 -0.125123 14.6425)
(0.142144 -0.124207 14.6392)
(0.156741 -0.123183 14.6355)
(0.171227 -0.122059 14.6322)
(0.185317 -0.121366 14.6285)
(0.198585 -0.120157 14.6244)
(0.211635 -0.118475 14.6213)
(0.222478 -0.115247 14.6161)
(0.235792 -0.113189 14.6162)
(0.0479565 -0.10557 14.6826)
(0.0659928 -0.108202 14.6801)
(0.0817378 -0.109889 14.6759)
(0.0973021 -0.110156 14.6717)
(0.112673 -0.10947 14.6683)
(0.127666 -0.108925 14.6643)
(0.142619 -0.108358 14.6607)
(0.157249 -0.107746 14.6568)
(0.171815 -0.107075 14.6535)
(0.18603 -0.106597 14.6498)
(0.199551 -0.105684 14.6455)
(0.212868 -0.104117 14.6421)
(0.224183 -0.101388 14.6366)
(0.237775 -0.0986923 14.636)
(0.048652 -0.0895041 14.7053)
(0.0663245 -0.0914406 14.7025)
(0.0822283 -0.0924525 14.6985)
(0.0976901 -0.0927605 14.694)
(0.113092 -0.0925789 14.6904)
(0.128126 -0.0924041 14.6862)
(0.143182 -0.0921717 14.6824)
(0.157903 -0.0917898 14.6783)
(0.172546 -0.0913319 14.6747)
(0.186627 -0.0907698 14.6707)
(0.200136 -0.0902253 14.6665)
(0.213144 -0.0887955 14.6624)
(0.225149 -0.0875155 14.6576)
(0.238422 -0.0846049 14.6557)
(0.0485646 -0.0721572 14.7277)
(0.0657877 -0.0740341 14.7249)
(0.0820566 -0.0747498 14.721)
(0.0976284 -0.0752351 14.7163)
(0.113131 -0.0754869 14.7125)
(0.128242 -0.0756674 14.7082)
(0.14338 -0.0757641 14.7043)
(0.158192 -0.075716 14.7)
(0.172973 -0.0755718 14.6964)
(0.187123 -0.0751718 14.6921)
(0.200857 -0.0748479 14.6881)
(0.21379 -0.0737113 14.6833)
(0.226615 -0.0734126 14.6792)
(0.239299 -0.070496 14.6752)
(0.0483852 -0.054965 14.7507)
(0.0650441 -0.0570573 14.7473)
(0.0815575 -0.0573475 14.7435)
(0.0971461 -0.0579504 14.7386)
(0.112714 -0.0585739 14.7347)
(0.127936 -0.0590759 14.7303)
(0.143211 -0.059453 14.7264)
(0.15816 -0.0596652 14.722)
(0.173099 -0.0597465 14.7183)
(0.187339 -0.0594742 14.7137)
(0.201319 -0.059386 14.7097)
(0.214287 -0.0586909 14.7044)
(0.227727 -0.059208 14.701)
(0.239637 -0.0566376 14.6953)
(0.0480112 -0.0373009 14.7733)
(0.0640029 -0.0398046 14.7689)
(0.0806763 -0.0399924 14.7655)
(0.0962785 -0.0408097 14.7607)
(0.111929 -0.0418557 14.7568)
(0.12729 -0.0427197 14.7523)
(0.142726 -0.0434297 14.7484)
(0.157843 -0.0439553 14.744)
(0.17297 -0.044299 14.7403)
(0.187409 -0.0442049 14.7357)
(0.201692 -0.0443559 14.7316)
(0.214849 -0.0440982 14.726)
(0.228756 -0.0450703 14.7227)
(0.240028 -0.0427255 14.7159)
(0.0468675 -0.0198866 14.7955)
(0.0623277 -0.0230303 14.7901)
(0.0791986 -0.0234013 14.7873)
(0.0948676 -0.0243569 14.7826)
(0.110631 -0.0258497 14.7788)
(0.12619 -0.0270696 14.7744)
(0.141877 -0.0281319 14.7705)
(0.157274 -0.0289821 14.7661)
(0.172693 -0.0295885 14.7624)
(0.187433 -0.0295829 14.7578)
(0.202068 -0.0298801 14.7538)
(0.21544 -0.0299185 14.7478)
(0.229651 -0.0313689 14.7447)
(0.240334 -0.0293237 14.7372)
(0.0453851 -0.00325972 14.8174)
(0.0605374 -0.00649682 14.811)
(0.0775086 -0.00701903 14.8083)
(0.0933557 -0.00813026 14.804)
(0.109194 -0.0101226 14.8004)
(0.124948 -0.0118368 14.7963)
(0.140837 -0.0134008 14.7925)
(0.156479 -0.0146454 14.7882)
(0.172216 -0.0155896 14.7847)
(0.187321 -0.0156343 14.78)
(0.202444 -0.0160978 14.7762)
(0.216024 -0.0162491 14.7699)
(0.2304 -0.0181173 14.7669)
(0.240479 -0.0163468 14.7592)
(0.043412 0.0126477 14.8386)
(0.0589213 0.00983523 14.8323)
(0.0757292 0.00816093 14.8294)
(0.0916255 0.00710033 14.8256)
(0.107465 0.00448874 14.8222)
(0.123323 0.00238086 14.8184)
(0.139265 0.000477121 14.8147)
(0.154997 -0.00111322 14.8107)
(0.17088 -0.00229711 14.8073)
(0.186234 -0.00237168 14.8026)
(0.201813 -0.00268285 14.7989)
(0.215755 -0.00283697 14.7924)
(0.230542 -0.00455983 14.7897)
(0.240974 -0.00289293 14.7823)
(0.0415362 0.0260777 14.8594)
(0.0582803 0.0252819 14.8554)
(0.0738485 0.0250851 14.8498)
(0.0899445 0.0231734 14.8467)
(0.105801 0.01989 14.8432)
(0.12182 0.0170762 14.8399)
(0.137707 0.0145648 14.8367)
(0.1533 0.0124465 14.8331)
(0.169049 0.0106906 14.83)
(0.184412 0.0100145 14.8255)
(0.200143 0.00897998 14.8221)
(0.214304 0.00809564 14.816)
(0.229188 0.00570828 14.8145)
(0.240542 0.0067491 14.808)
(0.0439963 0.0390866 14.8789)
(0.0562917 0.0443785 14.8771)
(0.0692391 0.040597 14.8722)
(0.0843595 0.0373003 14.8687)
(0.0998973 0.0335028 14.8646)
(0.11617 0.0306143 14.8613)
(0.132437 0.0283 14.8581)
(0.148544 0.0262427 14.8547)
(0.164846 0.0243946 14.8517)
(0.180733 0.0234291 14.847)
(0.197007 0.022563 14.8431)
(0.211996 0.0217518 14.8374)
(0.226657 0.0211851 14.8359)
(0.238408 0.0192771 14.8314)
(0.0320757 -0.0983103 13.7072)
(0.0479008 -0.0982048 13.7069)
(0.0606983 -0.10037 13.6998)
(0.0744095 -0.100442 13.6938)
(0.0878947 -0.0994557 13.6871)
(0.10165 -0.0990039 13.6807)
(0.115277 -0.0986451 13.6742)
(0.128532 -0.0983956 13.6674)
(0.141723 -0.0981556 13.6608)
(0.1542 -0.0984444 13.653)
(0.166982 -0.0979108 13.6452)
(0.179168 -0.0982972 13.6363)
(0.191447 -0.0933264 13.6291)
(0.206336 -0.0945697 13.6227)
(0.0297579 -0.0826968 13.7234)
(0.0473145 -0.0835301 13.7203)
(0.0611227 -0.0845559 13.711)
(0.0765339 -0.0856206 13.7055)
(0.090863 -0.0849334 13.6992)
(0.10495 -0.0845856 13.6928)
(0.118746 -0.0840652 13.6859)
(0.132063 -0.0834356 13.6784)
(0.145175 -0.0826602 13.6707)
(0.15753 -0.0825571 13.6622)
(0.169593 -0.0819577 13.654)
(0.180614 -0.0819115 13.6455)
(0.190874 -0.0789768 13.6377)
(0.203727 -0.0789713 13.6317)
(0.0286414 -0.0656613 13.7358)
(0.046243 -0.0678367 13.7314)
(0.0611297 -0.0698415 13.7239)
(0.0761329 -0.0706197 13.7175)
(0.0903859 -0.0697846 13.7111)
(0.104345 -0.0694365 13.7042)
(0.118266 -0.0690884 13.6972)
(0.131928 -0.0689021 13.6899)
(0.145545 -0.0688383 13.6827)
(0.158634 -0.0694256 13.6748)
(0.171139 -0.0692788 13.6665)
(0.183385 -0.069142 13.6581)
(0.193482 -0.0663816 13.6483)
(0.20762 -0.0663709 13.6423)
(0.0289781 -0.0507276 13.7482)
(0.0461311 -0.0522541 13.7424)
(0.0610644 -0.0540872 13.7358)
(0.0753967 -0.0547869 13.7288)
(0.0898549 -0.0544591 13.7225)
(0.104113 -0.0544384 13.7155)
(0.118448 -0.0543424 13.7084)
(0.132491 -0.0542545 13.7008)
(0.146372 -0.0541469 13.6932)
(0.159557 -0.0544742 13.685)
(0.171959 -0.0544004 13.6764)
(0.183863 -0.0540132 13.6678)
(0.194042 -0.05255 13.6584)
(0.207185 -0.0525669 13.6522)
(0.0291912 -0.0351199 13.7589)
(0.0458181 -0.0360871 13.7528)
(0.0609219 -0.0380991 13.7472)
(0.0751453 -0.0389175 13.74)
(0.0896707 -0.0389787 13.7336)
(0.103932 -0.0391401 13.7264)
(0.118226 -0.0392288 13.7191)
(0.13223 -0.0393691 13.7115)
(0.146069 -0.039474 13.7039)
(0.159309 -0.0398729 13.6957)
(0.171826 -0.0399015 13.6869)
(0.183925 -0.0394996 13.6781)
(0.194626 -0.0384123 13.6686)
(0.20728 -0.0383464 13.6613)
(0.0291023 -0.019652 13.7692)
(0.0453901 -0.0202187 13.7632)
(0.0606276 -0.021949 13.7576)
(0.0749361 -0.0227904 13.7504)
(0.0895091 -0.0232091 13.7439)
(0.103789 -0.0235671 13.7366)
(0.118103 -0.0238277 13.7293)
(0.132109 -0.0240854 13.7215)
(0.145941 -0.0242217 13.7138)
(0.159063 -0.0244978 13.7054)
(0.171622 -0.0245566 13.6966)
(0.183457 -0.0242808 13.6874)
(0.194816 -0.0236968 13.6783)
(0.206693 -0.0237849 13.6698)
(0.0283078 -0.00407037 13.779)
(0.0444961 -0.00473135 13.7735)
(0.0598658 -0.00611348 13.7676)
(0.0744138 -0.00696012 13.7604)
(0.0891037 -0.00759892 13.7538)
(0.103471 -0.00808477 13.7465)
(0.117841 -0.00845536 13.7391)
(0.131895 -0.00882728 13.7313)
(0.14579 -0.00900524 13.7235)
(0.158919 -0.00924042 13.715)
(0.171648 -0.00926641 13.7063)
(0.183353 -0.00924001 13.6966)
(0.195349 -0.00898371 13.6877)
(0.206635 -0.00910343 13.6782)
(0.0273136 0.0111703 13.7885)