/*--------------------------------*- C++ -*----------------------------------*\
| =========                 |                                                 |
| \\      /  F ield         | OpenFOAM: The Open Source CFD Toolbox           |
|  \\    /   O peration     | Version:  v2106                                 |
|   \\  /    A nd           | Website:  www.openfoam.com                      |
|    \\/     M anipulation  |                                                 |
\*---------------------------------------------------------------------------*/
FoamFile
{
    version     2.0;
    format      ascii;
    arch        "LSB;label=32;scalar=64";
    class       volScalarField;
    location    "0.000167";
    object      alphat;
}
// * * * * * * * * * * * * * * * * * * * * * * * * * * * * * * * * * * * * * //

dimensions      [1 -1 -1 0 0 0 0];

internalField   nonuniform List<scalar> 
144746
(
7.51644e-05
6.78737e-05
6.20769e-05
5.81144e-05
5.51275e-05
5.04481e-05
4.58964e-05
4.38851e-05
4.42245e-05
4.54094e-05
4.77644e-05
5.39539e-05
6.76092e-05
9.08188e-05
5.62985e-05
4.59714e-05
3.69339e-05
2.97349e-05
2.56284e-05
2.28314e-05
2.18176e-05
2.33325e-05
2.66099e-05
3.07009e-05
3.58953e-05
4.49214e-05
6.18936e-05
8.87474e-05
4.68626e-05
3.43678e-05
2.31731e-05
1.44381e-05
9.85814e-06
8.09112e-06
8.31203e-06
1.04377e-05
1.42609e-05
1.94156e-05
2.64117e-05
3.82232e-05
5.8796e-05
8.94872e-05
4.26063e-05
2.74422e-05
1.4833e-05
6.56721e-06
3.12125e-06
2.20382e-06
2.58559e-06
4.1401e-06
7.12355e-06
1.19183e-05
1.98106e-05
3.39136e-05
5.76373e-05
9.10853e-05
3.99386e-05
2.16481e-05
9.03172e-06
3.00432e-06
1.11328e-06
6.42866e-07
8.74687e-07
1.8169e-06
3.95373e-06
8.32495e-06
1.70305e-05
3.30492e-05
5.82972e-05
9.07054e-05
3.82191e-05
1.73853e-05
6.26881e-06
2.39325e-06
1.03331e-06
5.42121e-07
6.45394e-07
1.39265e-06
3.35144e-06
7.88338e-06
1.7166e-05
3.34639e-05
5.72007e-05
8.54655e-05
3.91732e-05
1.60973e-05
6.56262e-06
3.33716e-06
1.73488e-06
1.07943e-06
1.21408e-06
2.21218e-06
4.68674e-06
9.93401e-06
1.96166e-05
3.49633e-05
5.55162e-05
7.83574e-05
4.37026e-05
1.80763e-05
9.32868e-06
5.64837e-06
3.46429e-06
2.48946e-06
2.71801e-06
4.22691e-06
7.51123e-06
1.35136e-05
2.31267e-05
3.68413e-05
5.39648e-05
7.22385e-05
5.32553e-05
2.30079e-05
1.43616e-05
9.95326e-06
6.95869e-06
5.37532e-06
5.5023e-06
7.45311e-06
1.13959e-05
1.77483e-05
2.68433e-05
3.93023e-05
5.4455e-05
6.90428e-05
7.34862e-05
3.37446e-05
2.21486e-05
1.73694e-05
1.35761e-05
1.09732e-05
1.03232e-05
1.20891e-05
1.62754e-05
2.29455e-05
3.19638e-05
4.50437e-05
5.75732e-05
6.96456e-05
9.35673e-05
4.97381e-05
3.30091e-05
2.86621e-05
2.53502e-05
2.21114e-05
2.02248e-05
2.12834e-05
2.56578e-05
3.42245e-05
4.39295e-05
5.57835e-05
6.68893e-05
7.80482e-05
0.000109601
6.76171e-05
4.75499e-05
4.25061e-05
4.24271e-05
4.16636e-05
4.063e-05
4.30929e-05
4.93963e-05
5.92909e-05
6.82128e-05
7.85547e-05
8.77351e-05
9.72977e-05
0.000125373
8.55741e-05
6.28561e-05
5.55036e-05
5.75686e-05
6.27033e-05
6.8675e-05
7.66373e-05
8.67115e-05
9.84083e-05
0.000107407
0.000114832
0.000120671
0.00012742
0.000140904
0.000102359
7.84834e-05
6.86071e-05
6.99263e-05
7.75612e-05
8.95809e-05
0.000104189
0.000118536
0.000132338
0.000144437
0.000151401
0.000155991
0.000161936
8.65393e-05
8.01312e-05
7.58966e-05
7.26481e-05
6.78228e-05
5.88272e-05
4.96944e-05
4.36313e-05
4.06953e-05
4.05826e-05
4.45543e-05
5.51059e-05
7.46525e-05
0.000104851
5.88298e-05
4.90513e-05
4.16208e-05
3.60143e-05
3.2614e-05
2.85389e-05
2.52567e-05
2.42016e-05
2.50768e-05
2.79089e-05
3.4324e-05
4.73521e-05
7.02456e-05
0.000104489
4.16798e-05
3.03433e-05
2.1704e-05
1.54416e-05
1.23677e-05
1.06213e-05
1.00667e-05
1.09952e-05
1.35425e-05
1.82282e-05
2.66008e-05
4.21765e-05
6.84661e-05
0.000106303
3.27082e-05
2.037e-05
1.14346e-05
5.87003e-06
3.57907e-06
2.90552e-06
3.14102e-06
4.30515e-06
6.84231e-06
1.17013e-05
2.10109e-05
3.84278e-05
6.6891e-05
0.000105661
2.88192e-05
1.51411e-05
6.42051e-06
2.31105e-06
9.74308e-07
6.84784e-07
9.35679e-07
1.80919e-06
3.91798e-06
8.68107e-06
1.87933e-05
3.72586e-05
6.50969e-05
9.9745e-05
2.78963e-05
1.26054e-05
4.53452e-06
1.64692e-06
6.52221e-07
3.59942e-07
5.22289e-07
1.26752e-06
3.29393e-06
8.20022e-06
1.83716e-05
3.57338e-05
5.98779e-05
8.79132e-05
3.01039e-05
1.24703e-05
4.84098e-06
2.21101e-06
1.05217e-06
6.63667e-07
8.67e-07
1.81885e-06
4.24571e-06
9.55509e-06
1.93718e-05
3.45104e-05
5.39759e-05
7.52564e-05
3.59567e-05
1.47637e-05
6.88925e-06
3.77153e-06
2.19655e-06
1.62063e-06
1.94876e-06
3.3237e-06
6.33869e-06
1.19842e-05
2.10729e-05
3.37551e-05
4.90713e-05
6.56024e-05
4.62833e-05
1.94946e-05
1.06061e-05
6.77205e-06
4.61865e-06
3.69956e-06
4.08711e-06
5.89272e-06
9.38835e-06
1.50424e-05
2.32252e-05
3.43082e-05
4.78352e-05
6.15548e-05
6.73067e-05
2.85197e-05
1.64964e-05
1.20208e-05
9.27373e-06
7.78758e-06
7.87532e-06
9.79035e-06
1.35609e-05
1.93327e-05
2.71486e-05
3.91332e-05
5.13298e-05
6.37453e-05
8.90782e-05
4.41342e-05
2.5077e-05
2.0133e-05
1.75051e-05
1.57125e-05
1.53504e-05
1.73146e-05
2.16676e-05
2.89546e-05
3.81389e-05
5.04693e-05
6.22576e-05
7.44676e-05
0.000107436
6.3367e-05
4.00295e-05
3.21269e-05
3.03256e-05
2.94996e-05
2.98793e-05
3.33082e-05
4.04446e-05
5.10464e-05
6.0921e-05
7.30431e-05
8.41114e-05
9.5286e-05
0.000125741
8.35917e-05
5.7044e-05
4.52882e-05
4.38252e-05
4.61967e-05
5.08632e-05
5.8578e-05
7.03734e-05
8.5218e-05
9.75207e-05
0.000108315
0.000117256
0.000125999
0.000143345
0.000102382
7.53636e-05
6.09111e-05
5.77381e-05
6.14661e-05
7.06695e-05
8.47185e-05
0.000101468
0.000120087
0.000136912
0.000147452
0.000154759
0.000162679
9.2608e-05
8.66808e-05
8.29592e-05
7.89484e-05
7.1371e-05
5.96615e-05
4.78818e-05
3.92414e-05
3.4643e-05
3.43391e-05
4.03667e-05
5.45884e-05
7.72777e-05
0.000108447
6.05557e-05
5.12057e-05
4.51938e-05
4.06768e-05
3.71688e-05
3.18137e-05
2.64863e-05
2.25476e-05
2.14366e-05
2.32593e-05
3.08764e-05
4.69753e-05
7.27399e-05
0.000107801
3.79588e-05
2.746e-05
2.10788e-05
1.68177e-05
1.48623e-05
1.29038e-05
1.13161e-05
1.04091e-05
1.13279e-05
1.52919e-05
2.47263e-05
4.27998e-05
7.12308e-05
0.00010864
2.51543e-05
1.4893e-05
8.91397e-06
5.59273e-06
4.33974e-06
3.78966e-06
3.65974e-06
4.0598e-06
5.68137e-06
1.01675e-05
2.01434e-05
3.91549e-05
6.83256e-05
0.000104649
2.02151e-05
9.88105e-06
4.24186e-06
1.78708e-06
9.93918e-07
8.24027e-07
9.96151e-07
1.62917e-06
3.39075e-06
7.96914e-06
1.83778e-05
3.72505e-05
6.39643e-05
9.4883e-05
1.97464e-05
8.51923e-06
2.98314e-06
1.0273e-06
3.85553e-07
2.38693e-07
3.94838e-07
1.01906e-06
2.8314e-06
7.46982e-06
1.73464e-05
3.40294e-05
5.60107e-05
7.99416e-05
2.21025e-05
8.98656e-06
3.22504e-06
1.25836e-06
5.17922e-07
3.24647e-07
5.10927e-07
1.26768e-06
3.31177e-06
8.00442e-06
1.69482e-05
3.0725e-05
4.76763e-05
6.52376e-05
2.75008e-05
1.10999e-05
4.5256e-06
2.1317e-06
1.11915e-06
8.34101e-07
1.12102e-06
2.14846e-06
4.50027e-06
9.15108e-06
1.70154e-05
2.80625e-05
4.09997e-05
5.44582e-05
3.69927e-05
1.51154e-05
6.88767e-06
3.90733e-06
2.52202e-06
2.07772e-06
2.47626e-06
3.81976e-06
6.42801e-06
1.08932e-05
1.77899e-05
2.70354e-05
3.78926e-05
5.0729e-05
5.48038e-05
2.23647e-05
1.07836e-05
7.13552e-06
5.34977e-06
4.66855e-06
5.07245e-06
6.65874e-06
9.56226e-06
1.40232e-05
2.04313e-05
2.96469e-05
4.11452e-05
5.45298e-05
7.40162e-05
3.50734e-05
1.67124e-05
1.25513e-05
1.06152e-05
9.81245e-06
1.02388e-05
1.21858e-05
1.58426e-05
2.12275e-05
2.84567e-05
4.01792e-05
5.26547e-05
6.65135e-05
9.10177e-05
5.37168e-05
3.04587e-05
2.15661e-05
1.94797e-05
1.90153e-05
2.02446e-05
2.36439e-05
2.95337e-05
3.78978e-05
4.7007e-05
6.03029e-05
7.25889e-05
8.54486e-05
0.000109196
7.373e-05
4.71174e-05
3.37433e-05
3.10145e-05
3.17867e-05
3.51247e-05
4.14464e-05
5.12039e-05
6.45325e-05
7.64806e-05
8.86765e-05
9.96333e-05
0.000109721
0.000124627
9.21513e-05
6.70189e-05
5.11165e-05
4.55819e-05
4.59099e-05
5.13093e-05
6.17711e-05
7.63871e-05
9.38909e-05
0.000110254
0.000121122
0.000130355
0.00013914
0.000122619
0.000149972
0.000185811
0.000241913
0.000331165
0.000136773
0.000123215
0.000155069
0.000190232
0.000237537
0.000309095
0.000149972
0.000125992
0.000160581
0.000194417
0.000235648
0.000295925
0.000162942
0.000127311
0.000161527
0.000192598
0.000230248
0.000281415
0.000177835
0.000122563
0.000152838
0.000181009
0.000219444
0.000277688
0.000195284
0.000111158
0.000136325
0.000163153
0.000205937
0.000280611
0.000214808
9.73013e-05
0.000117436
0.000143153
0.000189374
0.000282892
0.000234178
8.59984e-05
0.000101325
0.000124133
0.000169275
0.000274794
0.000250978
7.98912e-05
9.17495e-05
0.00011116
0.000153011
0.000265242
0.000259918
8.0442e-05
9.10103e-05
0.000108507
0.000147653
0.000262096
0.000260066
8.99094e-05
0.000100905
0.000118221
0.000155684
0.000269406
0.000251549
0.000109712
0.00012158
0.000139681
0.000176291
0.000284774
0.000233119
0.000137895
0.000150065
0.000169057
0.00020486
0.00030016
0.000202594
0.000167448
0.000179589
0.000198431
0.000231003
0.000299281
0.000160474
0.000144909
0.000174378
0.000203479
0.000234594
0.000276902
0.000149212
0.000146893
0.000182344
0.000214825
0.000243612
0.000273923
0.000168944
0.000149498
0.000187401
0.000220242
0.000248303
0.000272982
0.000188925
0.000146159
0.000182901
0.000213876
0.000241723
0.000264391
0.000210749
0.000133566
0.000165216
0.000193022
0.000224733
0.000262606
0.000231785
0.0001138
0.00013857
0.000163552
0.000201308
0.000262513
0.000251452
9.3496e-05
0.000111806
0.00013374
0.000173698
0.000253843
0.000265253
7.86838e-05
9.18307e-05
0.000110299
0.000147191
0.000233895
0.000271495
7.20515e-05
8.21127e-05
9.80274e-05
0.000131575
0.000217006
0.000269381
7.44286e-05
8.37613e-05
9.87639e-05
0.000130228
0.000212014
0.000260625
8.62976e-05
9.65196e-05
0.000112116
0.000142462
0.000220925
0.000246051
0.000107713
0.000119513
0.000136512
0.000165772
0.000239287
0.000226056
0.000136926
0.000149714
0.000167644
0.000194635
0.000259114
0.000199685
0.000168122
0.000180796
0.000196903
0.000218459
0.000265188
0.000167589
0.000148455
0.000178141
0.000206377
0.000227423
0.000230279
0.000164199
0.000149646
0.000185646
0.000219019
0.000241652
0.000243417
0.000192933
0.00015007
0.000188637
0.000222921
0.000247226
0.000254953
0.000220414
0.00014206
0.000178572
0.000209718
0.000233755
0.000251103
0.000244088
0.000125107
0.000155178
0.000180076
0.000204185
0.000236348
0.000260492
0.000102529
0.000124923
0.000144636
0.000169441
0.00021495
0.00026861
8.11538e-05
9.71592e-05
0.000113583
0.000138759
0.000192044
0.000268225
6.60274e-05
7.74829e-05
9.20423e-05
0.00011735
0.000172941
0.000260208
6.06196e-05
6.90353e-05
8.26566e-05
0.000107838
0.000163428
0.000248907
6.42189e-05
7.19231e-05
8.49819e-05
0.000109798
0.000165911
0.000235865
7.6193e-05
8.4296e-05
9.755e-05
0.000122355
0.000177781
0.0002221
9.43668e-05
0.000104162
0.000119055
0.000143939
0.000196185
0.000207927
0.000117537
0.000129653
0.000147146
0.000170785
0.000213787
0.000192495
0.000143813
0.000158216
0.000175995
0.000193292
0.000217819
0.000173558
0.000188988
0.000203017
0.000219926
0.000245933
0.000270293
0.000136199
0.000178415
0.000190285
0.000204442
0.000230465
0.000252762
0.000155547
0.000169135
0.000176545
0.00018852
0.000217227
0.000249996
0.00017924
0.000156531
0.000159727
0.000170444
0.000202971
0.0002509
0.00020504
0.000140852
0.000142355
0.000152821
0.000187231
0.000251457
0.000231226
0.000125175
0.000126316
0.000135921
0.000169685
0.000246884
0.00025577
0.000109652
0.000111873
0.000120627
0.000152498
0.000235375
0.000275758
9.54366e-05
9.93397e-05
0.000108728
0.000138911
0.000223773
0.000287568
8.45203e-05
9.03228e-05
0.000102031
0.000132809
0.000219395
0.000290952
7.87766e-05
8.76297e-05
0.000103099
0.000136588
0.000227772
0.000286875
8.11519e-05
9.4145e-05
0.000113812
0.000151161
0.000249297
0.000274619
9.43158e-05
0.000111568
0.000135522
0.000176429
0.000276417
0.000252679
0.000119058
0.000139992
0.000167033
0.000207997
0.000297304
0.000218007
0.000151889
0.00017558
0.000201857
0.000236106
0.000297979
0.00017121
0.000192723
0.000205846
0.000215977
0.000229443
0.000246425
0.000160156
0.00018047
0.000193327
0.000202087
0.000216903
0.000233601
0.000186764
0.000170202
0.000178947
0.000184603
0.000201778
0.000230624
0.000213287
0.000155524
0.000159593
0.000162805
0.000183118
0.000226403
0.000239501
0.000136294
0.000138805
0.000141618
0.000163349
0.000218262
0.000262181
0.000116741
0.000119254
0.000123109
0.000144681
0.000204626
0.000278421
9.75708e-05
0.000101883
0.000108556
0.000130448
0.000189123
0.0002864
8.14892e-05
8.81034e-05
9.82008e-05
0.000121616
0.000179143
0.000287615
7.19093e-05
8.06188e-05
9.39804e-05
0.000120322
0.000179729
0.000282668
7.00611e-05
8.12823e-05
9.79449e-05
0.000128016
0.00019161
0.000274402
7.67046e-05
9.1174e-05
0.000111401
0.000145553
0.000215847
0.000260485
9.30467e-05
0.000111272
0.000135768
0.00017311
0.000245764
0.000240924
0.000119864
0.000142116
0.000170376
0.00020612
0.000269058
0.00021233
0.000154783
0.000181003
0.000208192
0.000233283
0.000270011
0.000176147
0.000169235
0.000187034
0.000198568
0.000203277
0.000203025
0.000178019
0.00015682
0.000175641
0.000187048
0.000192708
0.000199325
0.000206536
0.000146887
0.000163322
0.00017068
0.000176503
0.0001944
0.000232001
0.000133847
0.000146826
0.000150623
0.000156568
0.00018346
0.000252367
0.00011511
0.000127552
0.000130771
0.000137882
0.000169807
0.000265224
9.63263e-05
0.000108357
0.000113864
0.000123506
0.000156647
0.000269354
7.8772e-05
9.0692e-05
0.000100564
0.000114995
0.00014944
0.000266404
6.51175e-05
7.70591e-05
9.08718e-05
0.000110852
0.000147446
0.000261482
5.83139e-05
7.05624e-05
8.67954e-05
0.000111095
0.000152618
0.000255897
5.96525e-05
7.22437e-05
8.97065e-05
0.000117044
0.000164961
0.000248779
6.84305e-05
8.21725e-05
0.00010054
0.000130517
0.000185742
0.00023744
8.33744e-05
9.91276e-05
0.000120393
0.000152687
0.000209861
0.00022227
0.000105056
0.000123736
0.000149787
0.00018251
0.000231586
0.00020377
0.000132572
0.000156481
0.000185303
0.000210334
0.00023412
0.000180812
0.000175758
0.000320605
0.000188122
0.000133169
0.000101623
8.2313e-05
0.000210603
0.0002618
0.000143882
0.000101031
7.88243e-05
6.56511e-05
0.000234068
0.000211505
0.000117784
8.4435e-05
6.76933e-05
5.69177e-05
0.000251163
0.000183239
0.000107295
7.99793e-05
6.57899e-05
5.50066e-05
0.000263382
0.000174141
0.000108505
8.48076e-05
7.10182e-05
5.74345e-05
0.000270795
0.000177389
0.000118139
9.67976e-05
8.23057e-05
6.33178e-05
0.000269997
0.000187396
0.000132695
0.000113109
9.83281e-05
7.30181e-05
0.000263105
0.000200789
0.000148809
0.000131257
0.000118594
8.67503e-05
0.00024964
0.000213719
0.00016471
0.000149107
0.000140249
0.000106126
0.000230899
0.00022355
0.000180372
0.000166557
0.000159157
0.000125315
0.000209432
0.000231206
0.000196238
0.000183682
0.000175997
0.000143773
0.000186935
0.000239504
0.000213221
0.00020024
0.000189792
0.000157156
0.000164833
0.000249487
0.000230354
0.000214452
0.000200009
0.000168862
0.000145388
0.000269281
0.000249565
0.00022985
0.000212696
0.000184653
0.000172565
0.000281997
0.000198737
0.000152544
0.000117945
9.48946e-05
0.000201362
0.000233503
0.000150181
0.000110095
8.53197e-05
6.99244e-05
0.000221883
0.000187475
0.000117341
8.42351e-05
6.59891e-05
5.36337e-05
0.000238165
0.000159495
0.000100832
7.3039e-05
5.74647e-05
4.5679e-05
0.000252407
0.000147705
9.7258e-05
7.28096e-05
5.74737e-05
4.40746e-05
0.000263109
0.000147912
0.000103933
8.22129e-05
6.54789e-05
4.78665e-05
0.000269026
0.000155546
0.000117376
9.92499e-05
8.10218e-05
5.69504e-05
0.000270325
0.000167927
0.000134025
0.00012153
0.0001037
7.13392e-05
0.000265324
0.000182538
0.000151238
0.000145303
0.000131047
9.15505e-05
0.000253003
0.000196721
0.00016956
0.000167964
0.000156645
0.000116059
0.000234414
0.000208175
0.000188615
0.00018908
0.000179141
0.000140205
0.000212563
0.00021797
0.000208051
0.000208848
0.000196907
0.00015755
0.000189214
0.000226483
0.000225748
0.000224273
0.000208768
0.000171855
0.000165703
0.000241621
0.000241861
0.000238236
0.000223125
0.000190992
0.000171163
0.000243763
0.000195568
0.000154903
0.000121806
9.9409e-05
0.00019028
0.00020829
0.000148112
0.000111169
8.68089e-05
7.1153e-05
0.000207615
0.00017391
0.000114382
8.24995e-05
6.37978e-05
5.06509e-05
0.000222868
0.000148626
9.65088e-05
6.80076e-05
5.13129e-05
3.86467e-05
0.000235117
0.000134731
9.12563e-05
6.47575e-05
4.76955e-05
3.423e-05
0.000244115
0.000130718
9.60333e-05
7.1332e-05
5.21858e-05
3.58672e-05
0.000251489
0.00013357
0.000107692
8.65647e-05
6.42966e-05
4.25102e-05
0.0002576
0.000140958
0.000123027
0.000108897
8.38927e-05
5.4114e-05
0.000262003
0.000151163
0.000139129
0.000134079
0.000109131
7.13692e-05
0.000261134
0.000164958
0.00015659
0.000156863
0.000134416
9.4694e-05
0.000251032
0.000180423
0.000175568
0.000177292
0.000157093
0.000117904
0.000232671
0.000194355
0.000194502
0.000194491
0.000172988
0.000133135
0.000209167
0.000203529
0.000210072
0.000207544
0.000184207
0.000147153
0.000182427
0.000211398
0.000224414
0.000220014
0.000197248
0.000164618
0.000166036
0.000315234
0.000190845
0.000139848
0.000112896
9.66411e-05
0.000202185
0.000276607
0.000150711
0.00010824
8.77469e-05
7.58479e-05
0.000225888
0.0002437
0.000128033
9.07766e-05
7.34865e-05
6.30768e-05
0.000242621
0.000228334
0.000122091
8.62882e-05
6.92443e-05
5.83101e-05
0.000252329
0.000229302
0.000130166
9.32575e-05
7.33625e-05
5.93085e-05
0.000255269
0.0002405
0.000149678
0.000110259
8.45889e-05
6.38521e-05
0.000250395
0.000253927
0.000175453
0.00013401
0.00010104
7.06539e-05
0.000239163
0.000261702
0.000199485
0.000160134
0.000121025
7.9865e-05
0.000224955
0.000262174
0.000217106
0.000183041
0.000139842
9.03361e-05
0.000207308
0.000266725
0.000231334
0.000199663
0.00015227
9.78431e-05
0.000190668
0.000278603
0.00024224
0.000206662
0.000155482
0.00010071
0.00017521
0.000302115
0.000245862
0.000201816
0.000150476
0.000100513
0.000160771
0.000323859
0.000246129
0.00019233
0.000144186
0.000102085
0.000147082
0.000352699
0.000246749
0.000183814
0.000139738
0.000105596
0.000161394
0.000260568
0.000189423
0.000154595
0.00012905
0.000110997
0.000190806
0.000225376
0.000148198
0.000115719
9.58257e-05
8.32987e-05
0.000213921
0.000195029
0.0001197
8.99721e-05
7.41457e-05
6.42598e-05
0.000233681
0.000179831
0.000107002
7.8229e-05
6.38486e-05
5.44746e-05
0.000250118
0.000180559
0.000109301
7.964e-05
6.35834e-05
5.23424e-05
0.00026189
0.000195577
0.000126172
9.43408e-05
7.34801e-05
5.66738e-05
0.000267071
0.000217984
0.000155271
0.000121514
9.31474e-05
6.66185e-05
0.000264067
0.000237728
0.000189667
0.00015747
0.000120778
8.1413e-05
0.000252708
0.000248302
0.000220423
0.000193553
0.000150402
9.95551e-05
0.000236336
0.000253779
0.000245099
0.000223361
0.000174505
0.000115657
0.000217455
0.000260739
0.000263653
0.00024064
0.000186467
0.000124549
0.000197832
0.000277367
0.00027077
0.000239822
0.000184748
0.00012569
0.000178557
0.000291158
0.000265536
0.000227586
0.000176255
0.000125474
0.000159039
0.000304907
0.000255196
0.000212419
0.000168222
0.0001275
0.000158806
0.000222042
0.000185905
0.000155644
0.000130784
0.000113017
0.000175727
0.000194885
0.00014394
0.000115069
9.63593e-05
8.43428e-05
0.000191701
0.000165344
0.000112192
8.65159e-05
7.22408e-05
6.30318e-05
0.000208392
0.000146917
9.49371e-05
7.08593e-05
5.8233e-05
4.99028e-05
0.000224868
0.000138643
9.12641e-05
6.7239e-05
5.38074e-05
4.4727e-05
0.000240383
0.000142415
0.00010044
7.61795e-05
5.95674e-05
4.70701e-05
0.000255471
0.000158704
0.00012167
9.82533e-05
7.63609e-05
5.63649e-05
0.000267507
0.000184237
0.000152745
0.000131371
0.000102949
7.24151e-05
0.000272256
0.000211915
0.000189421
0.000169186
0.000134039
9.31678e-05
0.000266688
0.00023916
0.000227082
0.000205535
0.000162823
0.000113214
0.000252308
0.000259996
0.000256753
0.00023092
0.000181724
0.000127261
0.00023028
0.000269306
0.00026928
0.000238595
0.000186709
0.000132197
0.000203317
0.000264815
0.000262598
0.000229681
0.000180758
0.000132868
0.00017532
0.000257146
0.000247986
0.000215014
0.00017403
0.000135309
6.69875e-05
6.03968e-05
5.59895e-05
5.27352e-05
4.80465e-05
4.18984e-05
3.54293e-05
2.95549e-05
2.56146e-05
2.47209e-05
2.90742e-05
3.99991e-05
5.67325e-05
7.94145e-05
4.32869e-05
3.49095e-05
3.02271e-05
2.74613e-05
2.54212e-05
2.26344e-05
1.96083e-05
1.66644e-05
1.44598e-05
1.48701e-05
1.98543e-05
3.17181e-05
5.0488e-05
7.57718e-05
2.5917e-05
1.72153e-05
1.30191e-05
1.09453e-05
1.01596e-05
9.29427e-06
8.34824e-06
7.36464e-06
6.99633e-06
8.63991e-06
1.47625e-05
2.75364e-05
4.77756e-05
7.47793e-05
1.60622e-05
8.18347e-06
4.65403e-06
3.24556e-06
2.86093e-06
2.6819e-06
2.58494e-06
2.60297e-06
3.21493e-06
5.57682e-06
1.18533e-05
2.46712e-05
4.49996e-05
7.12788e-05
1.28937e-05
5.29857e-06
1.99555e-06
8.8126e-07
5.87342e-07
5.3668e-07
6.11976e-07
8.91588e-07
1.7982e-06
4.44717e-06
1.09094e-05
2.34253e-05
4.2342e-05
6.55655e-05
1.32528e-05
4.97758e-06
1.54505e-06
4.75632e-07
1.67083e-07
1.09216e-07
1.84032e-07
4.93311e-07
1.48586e-06
4.25003e-06
1.05587e-05
2.19748e-05
3.82769e-05
5.72355e-05
1.5191e-05
5.57394e-06
1.75401e-06
5.47539e-07
1.83078e-07
1.06026e-07
1.92536e-07
5.63517e-07
1.68409e-06
4.54058e-06
1.0504e-05
2.04912e-05
3.38903e-05
4.85736e-05
1.86888e-05
6.95699e-06
2.3809e-06
8.97776e-07
3.96878e-07
2.87108e-07
4.16408e-07
9.05629e-07
2.18909e-06
5.07884e-06
1.05464e-05
1.90713e-05
2.98616e-05
4.13739e-05
2.42873e-05
9.24571e-06
3.46642e-06
1.69636e-06
1.02447e-06
8.57845e-07
1.06165e-06
1.71955e-06
3.14845e-06
5.94148e-06
1.08254e-05
1.80817e-05
2.71613e-05
3.72747e-05
3.37664e-05
1.3096e-05
5.35919e-06
3.29448e-06
2.47336e-06
2.27214e-06
2.58778e-06
3.46597e-06
5.09089e-06
7.83676e-06
1.22249e-05
1.86791e-05
2.70602e-05
3.79262e-05
4.40414e-05
1.98758e-05
8.72777e-06
6.33005e-06
5.47432e-06
5.35206e-06
5.88308e-06
7.09208e-06
9.10839e-06
1.21845e-05
1.68129e-05
2.38477e-05
3.28726e-05
4.65205e-05
5.55643e-05
3.23251e-05
1.65653e-05
1.19245e-05
1.10791e-05
1.13203e-05
1.24883e-05
1.45191e-05
1.75916e-05
2.19279e-05
2.77481e-05
3.64799e-05
4.69649e-05
6.09261e-05
6.97968e-05
4.69185e-05
2.84039e-05
2.07739e-05
2.00176e-05
2.08788e-05
2.3327e-05
2.69637e-05
3.19106e-05
3.82861e-05
4.55482e-05
5.5125e-05
6.58279e-05
7.74667e-05
8.26571e-05
6.35209e-05
4.6165e-05
3.55081e-05
3.25769e-05
3.36144e-05
3.69919e-05
4.28053e-05
5.02283e-05
5.91715e-05
6.85592e-05
7.70013e-05
8.64218e-05
9.57766e-05
4.17397e-05
3.62616e-05
3.35474e-05
3.19954e-05
3.04271e-05
2.82284e-05
2.55032e-05
2.24943e-05
1.96949e-05
1.828e-05
2.02006e-05
2.6671e-05
3.73856e-05
5.12049e-05
2.66002e-05
1.98775e-05
1.68116e-05
1.545e-05
1.48923e-05
1.4135e-05
1.3155e-05
1.18091e-05
1.05009e-05
1.00599e-05
1.23923e-05
1.92698e-05
3.10906e-05
4.71179e-05
1.60301e-05
9.45239e-06
6.64531e-06
5.63531e-06
5.39955e-06
5.25887e-06
5.10606e-06
4.81828e-06
4.6458e-06
5.30899e-06
8.34282e-06
1.57636e-05
2.86561e-05
4.61942e-05
1.07032e-05
4.73592e-06
2.31257e-06
1.55992e-06
1.38963e-06
1.37475e-06
1.42536e-06
1.53221e-06
1.90183e-06
3.12106e-06
6.49588e-06
1.39691e-05
2.69551e-05
4.46887e-05
9.3353e-06
3.43555e-06
1.13397e-06
4.48351e-07
2.75384e-07
2.54471e-07
3.07465e-07
4.7287e-07
9.6111e-07
2.36333e-06
5.98199e-06
1.36591e-05
2.64138e-05
4.3036e-05
9.66052e-06
3.34551e-06
9.85938e-07
2.84652e-07
8.96618e-08
5.27998e-08
9.0399e-08
2.51449e-07
7.75571e-07
2.30024e-06
6.06941e-06
1.35866e-05
2.54026e-05
4.01786e-05
1.07689e-05
3.70142e-06
1.12088e-06
3.23447e-07
1.00244e-07
5.43525e-08
9.67932e-08
2.89882e-07
9.04989e-07
2.58981e-06
6.4422e-06
1.35511e-05
2.40478e-05
3.67156e-05
1.26814e-05
4.48603e-06
1.47078e-06
5.10926e-07
2.12771e-07
1.51755e-07
2.17416e-07
4.7898e-07
1.22108e-06
3.05152e-06
6.85482e-06
1.33625e-05
2.2473e-05
3.31569e-05
1.57698e-05
5.7855e-06
2.11585e-06
9.8049e-07
5.79159e-07
4.89014e-07
6.02897e-07
9.76379e-07
1.85815e-06
3.74108e-06
7.32713e-06
1.31457e-05
2.10555e-05
3.02545e-05
2.07392e-05
7.80563e-06
3.33823e-06
2.02211e-06
1.51036e-06
1.38599e-06
1.56217e-06
2.07766e-06
3.10731e-06
5.01522e-06
8.31899e-06
1.35059e-05
2.06224e-05
2.94051e-05
2.71237e-05
1.11724e-05
5.64364e-06
4.17783e-06
3.6198e-06
3.50488e-06
3.77825e-06
4.47689e-06
5.72592e-06
7.78199e-06
1.10661e-05
1.61629e-05
2.31768e-05
3.28159e-05
3.57309e-05
1.873e-05
1.00807e-05
8.24144e-06
7.82817e-06
7.94755e-06
8.53311e-06
9.62063e-06
1.1368e-05
1.40117e-05
1.78834e-05
2.37772e-05
3.13164e-05
4.25914e-05
4.72855e-05
2.93964e-05
1.81591e-05
1.51508e-05
1.49656e-05
1.57366e-05
1.70875e-05
1.90371e-05
2.17632e-05
2.54753e-05
3.02441e-05
3.7002e-05
4.4924e-05
5.6339e-05
5.92062e-05
4.41449e-05
3.21452e-05
2.65102e-05
2.55372e-05
2.67954e-05
2.93614e-05
3.26886e-05
3.67974e-05
4.17197e-05
4.71251e-05
5.33781e-05
6.09701e-05
6.97855e-05
2.2423e-05
1.78009e-05
1.60847e-05
1.54256e-05
1.55386e-05
1.55352e-05
1.53011e-05
1.45502e-05
1.34763e-05
1.24248e-05
1.2524e-05
1.55149e-05
2.15569e-05
3.00855e-05
1.38978e-05
9.03764e-06
7.15496e-06
6.5672e-06
6.61099e-06
6.74541e-06
6.85711e-06
6.71045e-06
6.35878e-06
6.09492e-06
6.83484e-06
9.90473e-06
1.61081e-05
2.5443e-05
8.75173e-06
4.29741e-06
2.61034e-06
2.16161e-06
2.12609e-06
2.20351e-06
2.31337e-06
2.36958e-06
2.43646e-06
2.76766e-06
4.09241e-06
7.46527e-06
1.39842e-05
2.42004e-05
6.69803e-06
2.50019e-06
9.74715e-07
5.79483e-07
5.04962e-07
5.20805e-07
5.74687e-07
6.61051e-07
8.69521e-07
1.43689e-06
2.93509e-06
6.3506e-06
1.29368e-05
2.35015e-05
6.224e-06
2.0423e-06
5.99553e-07
2.03121e-07
1.04887e-07
9.25075e-08
1.16594e-07
1.91819e-07
4.10407e-07
1.02381e-06
2.62401e-06
6.2646e-06
1.31849e-05
2.3962e-05
6.23324e-06
1.98246e-06
5.67907e-07
1.55954e-07
4.40467e-08
2.13442e-08
3.54834e-08
1.03508e-07
3.29506e-07
1.00328e-06
2.75854e-06
6.61312e-06
1.36028e-05
2.40238e-05
6.52161e-06
2.12084e-06
6.29033e-07
1.71237e-07
4.94113e-08
2.41538e-08
4.00046e-08
1.20961e-07
3.92399e-07
1.1808e-06
3.13279e-06
7.16328e-06
1.40344e-05
2.37889e-05
7.30247e-06
2.50308e-06
7.89401e-07
2.52951e-07
1.01093e-07
7.13274e-08
9.71716e-08
2.08883e-07
5.51486e-07
1.47128e-06
3.58747e-06
7.67048e-06
1.42447e-05
2.31645e-05
8.69308e-06
3.12966e-06
1.11261e-06
4.87465e-07
2.84977e-07
2.44652e-07
2.92033e-07
4.57133e-07
8.89399e-07
1.92323e-06
4.12407e-06
8.1351e-06
1.43171e-05
2.24866e-05
1.08967e-05
4.06965e-06
1.81569e-06
1.07802e-06
8.01287e-07
7.34893e-07
8.10247e-07
1.05306e-06
1.58969e-06
2.7142e-06
4.89769e-06
8.69991e-06
1.44747e-05
2.20865e-05
1.37699e-05
5.71482e-06
3.29955e-06
2.45164e-06
2.09023e-06
1.97892e-06
2.07636e-06
2.41629e-06
3.09215e-06
4.33184e-06
6.52239e-06
1.02048e-05
1.56915e-05
2.30392e-05
1.92482e-05
9.24352e-06
6.22861e-06
5.3264e-06
4.93237e-06
4.82172e-06
4.96473e-06
5.42294e-06
6.29838e-06
7.77664e-06
1.01302e-05
1.39063e-05
1.9285e-05
2.68114e-05
2.71454e-05
1.58718e-05
1.15273e-05
1.05129e-05
1.03211e-05
1.04301e-05
1.0795e-05
1.14861e-05
1.26525e-05
1.45381e-05
1.73012e-05
2.15275e-05
2.69563e-05
3.52056e-05
3.75261e-05
2.73031e-05
2.08691e-05
1.8939e-05
1.89083e-05
1.96576e-05
2.06974e-05
2.19839e-05
2.36363e-05
2.58987e-05
2.87955e-05
3.31211e-05
3.8421e-05
4.66442e-05
1.09778e-05
7.67767e-06
6.48835e-06
6.09846e-06
6.34538e-06
6.74986e-06
7.2607e-06
7.61102e-06
7.70395e-06
7.51412e-06
7.43373e-06
8.35967e-06
1.12291e-05
1.61121e-05
6.93284e-06
3.72396e-06
2.57829e-06
2.26039e-06
2.29652e-06
2.44596e-06
2.66309e-06
2.85019e-06
2.98159e-06
3.06133e-06
3.39707e-06
4.65443e-06
7.60191e-06
1.24531e-05
4.89799e-06
1.90133e-06
8.89162e-07
6.53078e-07
6.27577e-07
6.62751e-07
7.27751e-07
7.99893e-07
9.04166e-07
1.12298e-06
1.72467e-06
3.17706e-06
6.06944e-06
1.09938e-05
4.24091e-06
1.3272e-06
3.91764e-07
1.74275e-07
1.30641e-07
1.30221e-07
1.47052e-07
1.81468e-07
2.70248e-07
5.10293e-07
1.11877e-06
2.4952e-06
5.29258e-06
1.03785e-05
3.92823e-06
1.15793e-06
3.08203e-07
8.72777e-08
3.15752e-08
2.07705e-08
2.58286e-08
4.93457e-08
1.25041e-07
3.46803e-07
9.37245e-07
2.35352e-06
5.36292e-06
1.09103e-05
3.70806e-06
1.10392e-06
3.08585e-07
8.00647e-08
1.98472e-08
6.4815e-09
8.90908e-09
2.90432e-08
1.01585e-07
3.31461e-07
9.76073e-07
2.55276e-06
5.86506e-06
1.17985e-05
3.67827e-06
1.16078e-06
3.34349e-07
8.51689e-08
2.25743e-08
9.27892e-09
1.22845e-08
3.55563e-08
1.21406e-07
3.96465e-07
1.16157e-06
2.97894e-06
6.63563e-06
1.28804e-05
4.01627e-06
1.35035e-06
4.00835e-07
1.18378e-07
4.54092e-08
3.11346e-08
3.74521e-08
7.06764e-08
1.8442e-07
5.29434e-07
1.44416e-06
3.50913e-06
7.44643e-06
1.38147e-05
4.70826e-06
1.64626e-06
5.48203e-07
2.25094e-07
1.29859e-07
1.12672e-07
1.27335e-07
1.81024e-07
3.38839e-07
7.73978e-07
1.84745e-06
4.13578e-06
8.26658e-06
1.45949e-05
5.72485e-06
2.10223e-06
9.2615e-07
5.33866e-07
3.91555e-07
3.59738e-07
3.873e-07
4.79403e-07
7.043e-07
1.24482e-06
2.4638e-06
4.8891e-06
9.05313e-06
1.52156e-05
6.97309e-06
3.05738e-06
1.83915e-06
1.34529e-06
1.11401e-06
1.03148e-06
1.05998e-06
1.20923e-06
1.53559e-06
2.19687e-06
3.51948e-06
6.00036e-06
1.01119e-05
1.60314e-05
9.50975e-06
5.15463e-06
3.82294e-06
3.23292e-06
2.86983e-06
2.68296e-06
2.66498e-06
2.85356e-06
3.30097e-06
4.12268e-06
5.54697e-06
8.01284e-06
1.1953e-05
1.76109e-05
1.43104e-05
9.15275e-06
7.57023e-06
6.97524e-06
6.54649e-06
6.272e-06
6.1605e-06
6.30897e-06
6.81963e-06
7.82842e-06
9.46922e-06
1.2079e-05
1.58567e-05
2.14342e-05
2.24241e-05
1.65765e-05
1.39918e-05
1.32845e-05
1.31014e-05
1.29884e-05
1.29115e-05
1.29956e-05
1.33955e-05
1.44119e-05
1.61713e-05
1.90906e-05
2.28249e-05
2.85837e-05
5.48069e-06
3.22932e-06
2.43663e-06
2.16525e-06
2.23181e-06
2.47075e-06
2.86966e-06
3.33603e-06
3.77896e-06
4.02946e-06
4.12307e-06
4.35112e-06
5.57001e-06
8.38038e-06
3.66652e-06
1.53814e-06
8.47137e-07
6.79147e-07
6.77989e-07
7.45676e-07
8.73413e-07
1.03826e-06
1.22057e-06
1.37221e-06
1.56396e-06
2.06153e-06
3.41059e-06
6.06576e-06
2.85583e-06
8.76912e-07
2.82402e-07
1.65319e-07
1.52197e-07
1.6564e-07
1.96e-07
2.38749e-07
3.00279e-07
4.03988e-07
6.46532e-07
1.23734e-06
2.51626e-06
4.88303e-06
2.54955e-06
6.86966e-07
1.58233e-07
4.87058e-08
2.78969e-08
2.65044e-08
3.204e-08
4.42986e-08
7.46752e-08
1.57381e-07
3.75197e-07
8.95059e-07
2.02116e-06
4.26491e-06
2.27371e-06
6.08197e-07
1.49029e-07
3.66867e-08
9.72158e-09
4.10935e-09
4.85309e-09
1.10946e-08
3.27873e-08