/*--------------------------------*- C++ -*----------------------------------*\
| =========                 |                                                 |
| \\      /  F ield         | OpenFOAM: The Open Source CFD Toolbox           |
|  \\    /   O peration     | Version:  v2106                                 |
|   \\  /    A nd           | Website:  www.openfoam.com                      |
|    \\/     M anipulation  |                                                 |
\*---------------------------------------------------------------------------*/
FoamFile
{
    version     2.0;
    format      ascii;
    arch        "LSB;label=32;scalar=64";
    class       volScalarField;
    location    "0.000167";
    object      p;
}
// * * * * * * * * * * * * * * * * * * * * * * * * * * * * * * * * * * * * * //

dimensions      [1 -1 -2 0 0 0 0];

internalField   nonuniform List<scalar> 
144746
(
199976
199761
199104
198796
198379
198017
197711
197520
197468
197521
197569
197694
197992
198699
199279
199303
198829
198567
198278
198043
197824
197668
197560
197558
197578
197731
198161
198497
199017
198960
198738
198516
198280
198057
197861
197695
197604
197523
197473
197467
197554
197812
198731
198681
198573
198431
198234
198045
197901
197738
197599
197468
197317
197228
197244
197458
198349
198375
198369
198316
198159
197981
197803
197640
197460
197275
197072
196883
196818
196909
197951
198017
198060
198097
198001
197834
197658
197466
197243
197010
196760
196522
196364
196328
197607
197708
197819
197864
197811
197629
197424
197201
196955
196677
196394
196121
195922
195849
197342
197406
197515
197525
197506
197314
197130
196850
196585
196281
196023
195786
195630
195586
197211
197182
197247
197202
197142
196926
196723
196427
196197
195923
195712
195527
195430
195524
197211
196992
196974
196849
196722
196456
196245
195967
195778
195578
195439
195360
195429
195646
197356
196966
196775
196542
196304
195965
195744
195483
195336
195243
195266
195327
195503
195759
197526
196994
196645
196314
195933
195517
195262
195026
194970
194971
195091
195273
195749
195983
198149
197428
196731
196209
195708
195278
194929
194666
194645
194677
194932
195249
196005
196251
198576
197402
196830
196315
195725
195212
194736
194476
194504
194650
195037
195453
196442
196836
198888
198728
198245
198022
197774
197513
197377
197430
197567
197632
197593
197410
197270
197361
198720
198818
198434
198209
198029
197894
197763
197750
197772
197791
197750
197602
197563
197255
198833
198799
198675
198493
198360
198215
198058
197974
197953
197886
197743
197475
197103
196747
198883
198835
198803
198685
198584
198435
198349
198179
198092
197928
197687
197344
196904
196533
198797
198798
198831
198777
198687
198564
198409
198281
198121
197911
197612
197210
196709
196270
198624
198687
198749
198764
198703
198595
198452
198307
198101
197851
197521
197071
196549
196090
198484
198528
198647
198679
198659
198548
198407
198253
198032
197731
197372
196916
196444
196026
198370
198415
198567
198587
198577
198449
198320
198102
197864
197572
197256
196869
196474
196117
198355
198365
198459
198437
198421
198299
198164
197949
197721
197444
197166
196872
196567
196344
198412
198315
198384
198339
198274
198109
197962
197744
197546
197315
197106
196912
196755
196606
198574
198362
198355
198259
198134
197942
197778
197536
197347
197176
197044
196899
196822
196723
198746
198419
198326
198167
197963
197712
197501
197270
197119
196979
196926
196877
197090
196951
199270
198722
198403
198104
197827
197521
197224
196927
196760
196666
196722
196737
197187
197095
199575
198690
198440
198113
197747
197331
196904
196574
196477
196470
196681
196790
197477
197506
199404
199104
198452
198132
197830
197631
197579
197758
198030
198239
198270
197909
197378
196762
199917
199735
199195
198825
198603
198482
198362
198461
198670
198665
198564
198125
197618
196738
200357
200122
199801
199401
199208
199036
199085
198948
199010
198846
198527
197907
197076
196074
200604
200350
200157
199848
199717
199544
199425
199350
199229
198923
198451
197709
196765
195700
200539
200373
200261
200048
199933
199756
199668
199519
199310
198942
198375
197581
196540
195379
200242
200222
200203
200125
200048
199885
199779
199598
199360
198946
198303
197489
196378
195173
199806
199995
200029
200060
199976
199878
199751
199521
199167
198761
198177
197397
196347
195212
199518
199795
199855
199892
199835
199723
199582
199369
199081
198680
198109
197382
196533
195572
199400
199622
199731
199781
199702
199549
199376
199155
198882
198514
198061
197512
196782
196028
199372
199489
199638
199627
199496
199271
199040
198822
198573
198262
197918
197522
197050
196459
199486
199489
199639
199554
199295
198897
198599
198350
198095
197864
197654
197420
197183
196691
199621
199527
199637
199375
198980
198501
198091
197777
197503
197319
197194
197089
197130
196734
200137
199826
199680
199255
198706
198014
197462
197031
196737
196565
196547
196518
196938
196604
200396
199671
199514
199031
198307
197488
196821
196250
195970
195938
196077
196117
196879
196833
199694
200654
200982
201795
202100
202852
198589
199557
200128
201304
201881
202863
198335
199391
199830
201078
201619
203019
197766
198732
199257
200724
201227
203151
197212
198222
198893
200534
201291
203083
196384
197323
198209
200151
201125
203311
196005
196983
197914
199861
200946
203149
195712
196605
197736
199726
200979
202957
195814
196707
197875
199696
201021
202719
196108
196963
198135
199748
201045
202573
196429
197297
198477
199975
201224
202719
196916
197776
198813
200193
201389
202680
197465
198193
199190
200418
201414
202526
197700
198578
199537
200861
201671
202769
197756
198338
198689
199448
199866
200764
196704
197239
197718
198893
199563
201118
196531
197044
197388
198845
199706
201745
196087
196481
196983
198499
199202
202379
195880
196348
196968
198496
199147
202355
195675
195882
196491
198213
198770
203297
195749
195966
196522
198312
198970
202999
195857
196151
196740
198474
199294
202829
196220
196512
197149
198575
199467
202345
196680
196956
197590
198720
199625
201937
197033
197329
197955
199010
199892
201626
197459
197802
198269
199215
200078
201511
197911
198203
198765
199672
200397
201576
198009
198498
199137
200188
200770
201944
197187
196947
196591
195866
195380
194098
195655
195572
195483
195182
195471
194671
195309
195060
194960
195097
195793
195719
194632
194076
194014
194934
195962
197936
194279
193758
193863
195441
196833
200279
193961
193296
193458
195533
197132
202138
194108
193531
193800
195989
197710
202966
194575
194062
194373
196355
198095
202732
195279
194893
195149
196598
198153
201974
196032
195818
196115
197068
197891
200401
196593
196438
196860
197430
197719
198953
196904
196896
197162
197438
197646
198136
197193
197232
197494
197788
197894
198023
196981
197115
197517
198020
198073
198287
198127
199405
200020
200983
201612
203193
196481
197850
198887
200310
201463
203174
196026
197484
198714
200113
201650
204178
195196
196430
197902
200092
201777
204439
194895
196254
197614
199943
201315
204379
194652
195962
197361
199964
201228
204732
194779
196016
197428
200007
201323
205481
195027
196278
197813
200356
201806
205466
195566
196828
198358
200736
202236
205204
196184
197417
198840
201146
202782
205134
196895
198085
199355
201359
202988
204777
197492
198729
199838
201688
202939
204581
198380
199443
200345
201865
202702
204208
198838
199815
200722
202216
202796
204420
198580
199409
199679
200691
201090
202392
197225
198070
198835
200287
200948
202966
196996
197992
198763
200077
200898
202903
196427
197029
197812
199581
200233
203296
196244
196893
197556
199444
199758
203581
196095
196521
197207
199363
199582
204013
196282
196630
197351
199421
199642
204322
196648
196993
197749
199615
199735
204944
197205
197629
198332
200149
200348
204222
197782
198349
198967
200613
201040
204623
198303
198946
199651
201090
201801
203843
198775
199591
200127
201477
202207
204018
199387
200089
200657
201905
202476
204143
199540
200213
200929
202337
202672
204425
197531
198284
198281
198911
198960
199280
196035
196747
197320
198337
199360
200891
195711
196259
196969
198417
199812
202417
195326
195362
195894
197699
199601
204112
195161
195023
195592
197641
199592
205023
195124
194665
195082
197301
199320
205330
195475
195018
195437
197645
199553
205340
196151
195832
196306
198404
200019
205128
197037
196981
197512
199278
200462
204686
198004
198177
198706
199868
200706
204424
198973
199227
199734
200850
201215
202844
199638
200070
200343
201059
201110
201991
200170
200648
200754
201667
201647
202242
199734
200306
200656
201941
202096
202832
204008
203119
202250
201249
200609
199935
204301
203320
202269
201324
200454
199985
204569
203173
202073
201056
200102
199507
205005
202894
202007
200608
199678
199009
205276
202328
201700
200023
199110
198453
206347
201802
201166
199409
198548
198011
205729
201740
200995
198959
198099
197567
205475
201804
200868
198675
197908
197282
205358
201958
200874
198648
197813
197128
205077
202065
200917
199044
198172
197275
205058
202465
201031
199250
198329
197436
204894
202889
201419
199976
198992
197874
204227
202708
201589
200119
199231
198089
204390
202803
202326
201339
200903
199624
202527
201523
200642
199686
199050
198711
202944
201829
200886
200159
199439
199294
203404
201711
200871
200031
199316
199186
203852
201643
201167
200064
199281
199042
204975
201182
201112
199754
199090
198821
205475
200990
200871
199392
198822
198618
205428
200908
200777
199084
198551
198404
205505
200662
200739
198882
198398
198227
205200
200538
200728
198797
198354
198134
204691
200672
200869
199121
198666
198208
204246
200956
200733
199194
198822
198323
204069
201635
201392
200090
199548
198708
203804
202007
201730
200395
199786
198898
204139
202609
202525
201559
201450
200394
198504
198753
198791
198825
198536
198854
199927
200144
200280
200636
200343
200628
202396
201835
201385
201264
200807
200846
205413
202762
202343
201633
201024
200918
207966
203455
202713
201510
200805
200656
209581
203977
202771
200897
200331
200190
210617
203870
202382
200111
199707
199680
210811
203418
201746
199403
199166
199267
210619
203140
201258
198939
198835
198986
209969
203273
201371
199113
198933
198892
208922
203258
201476
199268
199129
198877
207307
203352
202094
200196
199802
199073
205843
203087
202026
200529
200292
199242
204199
202777
202678
201884
202112
201071
202653
201856
201068
200286
199599
199100
202786
201747
200795
199974
199173
198736
202131
201125
200281
199440
198611
198231
202177
200816
199945
198972
198224
197865
201992
200419
199643
198523
197877
197557
202264
200351
199570
198240
197677
197405
202615
200370
199626
198129
197632
197386
203144
200679
200029
198458
197968
197588
204262
200385
200294
198795
198396
197965
203612
201294
201094
199576
199114
198478
203615
201606
201466
200050
199633
198944
203727
202300
201899
200682
200281
199395
203429
202460
201990
200868
200431
199611
203830
203195
202991
202250
202045
201191
200562
199701
198919
198217
197596
197523
201168
200059
199185
198570
198034
198020
201465
200109
199195
198482
197800
197858
202208
200319
199453
198537
197830
197799
202965
200106
199399
198214
197607
197579
203521
199902
199329
197860
197316
197335
203980
199396
199066
197419
197027
197137
203964
199101
198912
197269
196960
197052
203159
199125
198812
197304
197012
197078
202610
199297
199015
197833
197653
197421
202150
199400
199141
198179
197971
197653
202394
200143
199799
198799
198646
198044
202489
200792
200288
199117
198798
198155
202675
201720
201295
200603
200329
199725
194499
195497
195759
196121
196027
196668
196062
196691
197004
197601
197597
198139
198170
197950
197894
198090
197907
198334
200939
199037
198555
198265
197964
198335
203447
199726
198453
197683
197435
197958
204888
200011
198645
197119
196903
197442
206111
199994
198494
196489
196354
196987
206521
199944
198351
196189
196153
196727
206172
199698
198037
195842
196004
196621
204539
199503
198227
196383
196414
196838
202573
199082
197893
196555
196775
197166
200306
198639
198153
197483
197758
197769
198421
198498
198043
197970
198077
198069
198354
198666
199078
199666
199961
200246
201254
200602
199840
199387
199079
198975
198938
199033
199448
199808
200156
200231
200081
199949
201378
201015
200419
200008
199736
199593
199581
199700
199881
200133
200294
200227
199953
199276
201603
201236
200878
200548
200373
200245
200193
200183
200242
200303
200234
199926
199275
198396
201548
201285
201043
200809
200678
200554
200516
200483
200455
200345
200107
199591
198783
197701
201267
201185
201041
200942
200821
200738
200697
200634
200574
200375
200035
199363
198400
197178
200957
200938
200920
200893
200841
200819
200761
200660
200507
200265
199891
199127
198145
196823
200626
200746
200777
200792
200788
200768
200719
200602
200434
200122
199693
198974
198025
196704
200408
200506
200638
200668
200659
200615
200564
200444
200289
200019
199589
199007
198060
196901
200248
200385
200481
200497
200490
200426
200361
200242
200093
199858
199541
199027
198368
197380
200185
200310
200422
200390
200305
200191
200093
199976
199859
199713
199448
199097
198569
197875
200311
200347
200426
200299
200120
199893
199737
199601
199518
199412
199295
199147
198885
198386
200608
200543
200511
200252
199916
199551
199282
199081
198988
198943
198939
199010
199097
198697
201274
200985
200619
200144
199623
199116
198741
198436
198272
198222
198286
198473
199092
198787
201582
200868
200551
200004
199269
198546
197959
197543
197344
197421
197672
197931
198853
199223
202937
202384
201685
201223
200804
200552
200451
200604
200768
201208
201625
201980
202161
202232
202863
202507
201980
201626
201387
201240
201200
201175
201367
201578
201817
201985
202013
201775
202845
202518
202177
201900
201740
201620
201574
201569
201647
201696
201747
201640
201347
200890
202576
202411
202196
202026
201891
201832
201800
201788
201806
201722
201614
201297
200804
200161
202189
202199
202124
201989
201940
201915
201878
201844
201794
201666
201505
201061
200371
199524
201776
201891
201920
201899
201894
201886
201852
201802
201715
201512
201217
200746
199978
199061
201513
201660
201724
201764
201772
201769
201741
201686
201585
201410
201076
200566
199764
198840
201267
201476
201551
201599
201612
201595
201569
201515
201430
201270
200980
200504
199792
198839
201121
201319
201392
201438
201435
201400
201359
201308
201227
201108
200882
200533
199962
199135
201101
201248
201305
201297
201246
201168
201086
201035
200992
200940
200850
200641
200256
199618
201327
201367
201359
201201
201020
200866
200761
200712
200702
200743
200747
200742
200616
200180
201710
201568
201416
201147
200840
200529
200350
200269
200299
200411
200565
200758
200980
200690
202400
202025
201594
201097
200595
200171
199863
199696
199744
199924
200215
200606
201239
201136
202717
202029
201618
200951
200259
199642
199238
199009
199073
199380
199855
200394
201447
201675
204670
204112
203528
203086
202773
202618
202616
202684
202825
203193
203669
204186
204761
205093
204452
204072
203641
203336
203143
203037
203026
203128
203280
203561
203833
204154
204453
204579
204113
203900
203645
203455
203337
203311
203322
203382
203493
203602
203746
203847
203860
203795
203733
203694
203587
203479
203424
203436
203456
203497
203583
203591
203604
203519
203298
203002
203333
203441
203449
203368
203432
203474
203501
203525
203548
203475
203410
203268
202891
202403
202983
203127
203215
203257
203334
203404
203439
203464
203447
203351
203186
202903
202482
201888
202685
202865
203007
203092
203181
203252
203289
203320
203300
203204
203045
202744
202280
201604
202466
202641
202808
202909
202993
203054
203092
203124
203103
203029
202898
202628
202229
201554
202237
202464
202619
202710
202775
202818
202851
202893
202895
202863
202785
202590
202265
201709
202169
202353
202456
202501
202513
202513
202549
202607
202647
202672
202665
202592
202402
201952
202338
202416
202380
202295
202257
202234
202245
202296
202378
202480
202609
202670
202660
202342
202616
202520
202408
202225
201999
201876
201854
201925
202048
202257
202468
202715
202952
202791
203142
202867
202470
202084
201773
201536
201412
201468
201637
201893
202229
202667
203200
203219
203397
202931
202460
201925
201454
201084
200937
200923
201148
201496
201955
202522
203390
203610
205839
205390
205019
204730
204575
204516
204571
204716
204893
205136
205514
205935
206605
207006
205656
205363
205062
204868
204784
204777
204859
205006
205180
205399
205691
205949
206264
206449
205190
205137
205016
204934
204899
204948
205034
205148
205288
205414
205567
205697
205785
205820
204850
204926
204930
204874
204944
205027
205114
205213
205314
205371
205435
205407
205321
205175
204516
204673
204741
204763
204900
205012
205107
205192
205255
205246
205201
205145
204960
204691
204183
204390
204515
204629
204775
204907
205014
205101
205149
205140
205060
204871
204613
204226
203847
204101
204280
204436
204598
204739
204850
204940
204991
204990
204911
204729
204436
203987
203586
203834
204044
204217
204378
204516
204630
204729
204794
204816
204763
204610
204349
203937
203361
203578
203798
203965
204106
204237
204356
204475
204564
204634
204652
204573
204392
203965
203185
203339
203532
203682
203785
203912
204037
204179
204305
204427
204496
204485
204393
204088
203249
203323
203332
203413
203494
203571
203687
203852
204023
204200
204353
204468
204535
204316
203419
203346
203337
203216
203183
203249
203356
203506
203695
203928
204240
204452
204683
204620
203798
203590
203297
203085
202924
202881
202950
203119
203343
203685
204007
204389
204825
204929
204108
203685
203228
202852
202624
202490
202492
202664
202925
203323
203765
204309
204947
205211
207030
206733
206543
206386
206331
206325
206462
206692
206915
207185
207559
207984
208517
208951
206874
206713
206579
206517
206474
206548
206699
206898
207137
207366
207682
207939
208228
208450
206475
206533
206539
206523
206589
206703
206859
207023
207206
207350
207540
207681
207863
207966
206231
206353
206417
206477
206621
206772
206923
207073
207219
207316
207420
207453
207463
207418
205932
206134
206237
206393
206561
206740
206897
207041
207157
207220
207224
207164
207110
206979
205590
205865
206033
206230
206432
206620
206788
206931
207032
207081
207065
206975
206801
206566
205293
205569
205801
206014
206236
206433
206609
206760
206868
206925
206905
206810
206627
206329
204996
205261
205533
205756
205983
206183
206368
206535
206668
206753
206764
206689
206520
206215
204679
204959
205237
205458
205684
205888
206084
206276
206441
206572
206636
206629
206534
206274
204418
204646
204926
205128
205340
205548
205761
205988
206197
206383
206524
206596
206571
206325
204382
204521
204645
204835
205003
205202
205420
205677
205935
206169
206387
206525
206650
206523
204464
204503
204546
204589
204719
204879
205087
205358
205640
205915
206221
206509
206755
206731
204654
204568
204461
204409
204420
204565
204753
205005
205287
205630
206035
206383
206755
206943
204897
204605
204316
204145
204126
204201
204387
204655
204974
205386
205803
206289
206753
207050
208288
208131
208078
208022
208025
208094
208278
208514
208822
209105
209482
209853
210342
210728
208182
208132
208110
208139
208151
208292
208491
208714
208987
209248
209582
209841
210105
210311
207882
207999
208080
208162
208266
208438
208627
208840
209066
209261
209469
209627
209806
209913
207683
207859
207987
208098
208283
208484
208677
208883
209073
209227
209356
209445
209476
209440
207393
207654
207832
208007
208220
208436
208644
208846
209009
209129
209181
209195
209171
209081
207086
207378
207622
207842
208084
208315
208535
208735
208886
208991
209033
209013
208898
208712
206748
207070
207361
207613
207875
208124
208358
208567
208727
208841
208877
208838
208707
208484
206395
206725
207051
207322
207601
207866
208117
208347
208537
208675
208732
208707
208580
208351
206037
206371
206708
206999
207288
207569
207840
208099
208327
208503
208606
208616
208542
208349
205710
206013
206355
206646
206935
207238
207537
207833
208109
208332
208495
208580
208602
208443
205597
205821
206067
206339
206617
206912
207228
207556
207879
208154
208395
208544
208672
208579
205573
205736
205904
206090
206321
206603
206919
207261
207611
207922
208239
208472
208744
208779
205642
205728
205786
205908
206088
206323
206602
206932
207285
207631
208018
208361
208697
208916
205820
205738
205600
205663
205798
206002
206275
206588
206932
207325
207736
208177
208564
208973
209878
209865
209906
209919
209977
210070
210276
210495
210776
211059
211423
211789
212267
212665
209746
209815
209903
210002
210087
210255
210463
210688
210950
211220
211529
211824
212094
212328
209506
209707
209869
210022
210175
210379
210578
210800
211023
211242
211450
211657
211853
212032
209291
209562
209770
209965
210174
210398
210609
210831
211033
211218
211367
211505
211604
211646
209007
209353
209610
209857
210093
210334
210561
210785
210973
211129
211223
211280
211321
211326
208687
209073
209382
209664
209937
210201
210446
210678
210864
211006
211080
211118
211100
210994
208361
208754
209101
209407
209710
209998
210268
210515
210711
210858
210936
210955
210905
210757
208004
208395
208766
209096
209426
209738
210038
210312
210537
210707
210803
210822
210755
210578
207628
208021
208407
208761
209112
209450
209781
210089
210352
210555
210684
210726
210676
210520
207284
207663
208060
208422
208793
209152
209509
209851
210157
210404
210578
210663
210678
210589
207159
207454
207785
208143
208506
208870
209244
209608
209949
210240
210482
210638
210766
210722
207065
207339
207620
207912
208248
208600
208966
209335
209704
210035
210351
210578
210827
210906
207066
207297
207510
207753
208033
208333
208665
209021
209392
209760
210131
210497
210819
211078
207196
207288
207389
207579
207792
208070
208342
208652
209014
209420
209860
210334
210694
211139
211528
211618
211749
211811
211921
212046
212256
212481
212761
213044
213366
213729
214169
214575
211384
211564
211743
211893
212038
212220
212428
212656
212917
213196
213507
213820
214098
214341
211180
211465
211704
211915
212106
212321
212529
212757
212991
213230
213462
213700
213928
214141
210966
211322
211596
211858
212086
212328
212547
212778
212996
213213
213404
213594
213748
213846
210701
211120
211433
211741
212001
212264
212497
212731
212937
213127
213275
213398
213494
213549
210417
210862
211216
211553
211846
212132
212387
212629
212836
213017
213146
213236
213300
213285
210097
210554
210944
211307
211633
211943
212224
212483
212701
212881
213000
213071
213103
213052
209755
210214
210631
211011
211366
211705
212021
212309
212554
212749
212872
212938
212947
212857
209406
209863
210302
210706
211090
211462
211812
212134
212409
212623
212763
212839
212846
212749
209112
209550
209992
210409
210816
211214
211593
211949
212260
212505
212678
212784
212818
212741
208958
209341
209750
210165
210576
210980
211372
211746
212087
212372
212601
212754
212878
212864
208867
209233
209588
209968
210358
210745
211126
211505
211875
212208
212517
212727
212968
213043
208802
209152
209473
209806
210152
210496
210849
211220
211599
211975
212343
212698
212994
213237
208876
209129
209377
209648
209944
210228
210526
210859
211230
211649
212093
212580
212907
213301
213293
213465
213667
213815
213985
214176
214406
214652
214925
215208
215492
215812
216179
216552
213164
213431
213675
213898
214109
214332
214559
214815
215086
215369
215653
215952
216206
216418
213009
213358
213650
213937
214181
214435
214667
214919
215167
215420
215658
215893
216103
216304
212837
213250
213572
213897
214172
214449
214693
214945
215183
215419
215633
215835
216009
216118
212612
213079
213441
213800
214107
214400
214655
214904
215130
215344
215531
215689
215816
215886
212378
212861
213263
213645
213982
214292
214563
214816
215039
215243
215415
215550
215655
215695
212091
212591
213032
213436
213802
214133
214424
214688
214917
215117
215276
215387
215468
215478
211789
212297
212764
213184
213576
213932
214251
214538
214784
214991
215145
215245
215307
215290
211484
211997
212487
212930
213345
213727
214073
214386
214654
214872
215028
215127
215181
215147
211225
211734
212229
212684
213115
213515
213885
214225
214520
214757
214932
215044
215110
215079
211090
211556
212031
212482
212912
213313
213691
214048
214369
214638
214849
214995
215106
215089
211014
211466
211888
212311
212714
213097
213466
213833
214186
214503
214779
214964
215161
215206
210939
211382
211775
212151
212510
212862
213210
213577
213948
214312
214653
214947
215203
215408
210982
211354
211678
211990
212287
212574
212883
213231
213617
214034
214446
214895
215175
215490
202523
203208
203303
204131
205522
207321
199594
199767
200171
200991
202434
204554
199044
199135
199127
199684
200260
201040
198246
197836
197549
197778
198081
198185
197837
197198
196825
196941
197406
197119
197595
196576
195787
195885
196610
196630
197687
196604
195814
196072
197180
197876
198168
197138
196432
196810
198645
199362
198896
198102
197836
198356
200626
201547
199723
199144
199329
200075
202481
203847
200351
200061
200811
201865
204318
205829
200708
200709
201679
202602
205248
207321
200945
200979
201990
202990
205505
208094
199626
199998
201323
202903
205649
208459
204411
205250
205479
205721
206222
207400
201764
202022
202392
203026
203833
204890
201207
201352
201240
201516
201797
202378
200553
200137
199597
199424
199175
199592
199997
199166
198477
198127
197955
198588
199633
198399
197369
196684
196710
197744
199505
198154
197058
196318
196672
198194
199666
198532
197517
196845
197461
198976
200250
199365
198706
198428
199444
201026
200980
200449
200284
200473
201711
203379
201822
201585
201911
202574
204008
205816
202501
202552
203293
204139
205885
207768
203235
203243
204098
205029
206882
208809
201870
202162
203319
204933
207050
209022
205977
207136
207843
208447
208807
209451
203742
204144
204729
205617
206379
207159
203174
203348
203549
203697
203832
204245
202513
202356
201961
201486
201162
201010
202016
201627
200733
200116
199617
199448
201742
201178
199867
199017
198218
198139
201701
200970
199500
198557
197756
198199
201966
201043
199836
198999
198319
199042
202457
201564
200910
200306
200277
201235
203134
202543
202412
202255
202891
204015
203910
203749
204091
204413
205583
206887
204681
204953
205668
206415
207817
209227
205729
206076
206980
207986
209368
210993
204920
205295
206323
207893
209782
211488
206656
207423
207944
208455
208880
209544
205243
205619
206051
206592
207282
208241
204845
204960
205024
205324
205720
206055
204388
204190
203898
203869
203500
203386
204070
203553
203086
202574
201933
201620
203940
203194
202622
201595
200759
200182
204024
203100
202462
201028
200203
199635
204274
203302
202510
201232
200451
199990
204566
203806
203113
202333
201710
201556
205093
204541
204293
203907
203805
204031
205655
205483
205643
205708
206107
206921
206309
206522
207090
207533
208313
209315
207263
207709
208462
209216
210309
211401
207035
207519
208253
209408
210720
212142
207578
208128
208511
208962
209426
210017
206721
207025
207374
207821
208315
208906
206483
206611
206724
206869
207026
207340
206168
206070
205911
205707
205586
205352
206019
205693
205230
204857
204197
203841
205942
205469
204763
204280
203402
202840
206049
205471
204756
204166
203004
202372
206331
205767
205087
204196
203234
202678
206639
206111
205635
204797
204174
203706
207123
206738
206425
206046
205680
205491
207662
207502
207517
207446
207551
207814
208223
208350
208689
209004
209451
210111
208949
209293
209894
210461
211220
212136
209017
209516
210141
210935
211909
213012
208647
209031
209332
209760
210189
210687
208109
208320
208540
208979
209429
209996
208002
208089
208158
208372
208532
208878
207812
207723
207625
207529
207404
207213
207797
207546
207199
206821
206480
205664
207783
207409
206897
206330
205657
204972
207939
207461
206815
206284
205406
204671
208230
207802
207157
206568
205476
204879
208553
208181
207616
207050
206274
205874
208981
208755
208355
207969
207592
207279
209538
209386
209230
209188
209092
209112
210019
210095
210239
210496
210751
211052
210584
210882
211266
211738
212263
212952
210835
211268
211782
212421
213209
214121
210154
210400
210629
210934
211263
211722
209834
209960
210120
210420
210806
211305
209837
209877
209918
210016
210176
210438
209738
209615
209500
209426
209337
209328
209782
209538
209257
208881
208496
207955
209788
209451
209028
208466
207982
207072
209956
209545
208998
208332
207863
206833
210205
209841
209311
208672
208011
207059
210570
210210
209723
209175
208561
207968
210952
210686
210378
209985
209617
209308
211464
211324
211186
211011
210975
210908
211915
211948
212051
212172
212353
212547
212395
212640
212926
213273
213667
214095
212784
213136
213534
213996
214590
215312
211721
211866
212036
212283
212583
212989
211572
211632
211696
212006
212282
212769
211666
211656
211633
211793
211859
212118
211634
211483
211335
211301
211172
211298
211711
211468
211216
210966
210575
210282
211776
211448
211080
210623
210106
209573
211972
211570
211142
210511
210006
209242
212209
211837
211389
210795
210266
209312
212542
212248
211783
211288
210732
209957
212922
212697
212319
211975
211532
211086
213402
213249
213045
212854
212667
212546
213833
213812
213824
213839
213959
214109
214238
214397
214593
214820
215140
215459
214661
214950
215217
215585
216038
216536
213441
213530
213649
213874
214143
214511
213422
213454
213501
213789
214073
214546
213584
213552
213544
213725
213840
214161
213660
213510
213393
213394
213281
213351
213781
213541
213327
213166
212846
212621
213922
213607
213293
212927
212359
211992
214140
213773
213374
212875
212286
211816
214392
214038
213646
213119
212583
211993
214716
214404
214066
213542
213019
212492
215051
214815
214502
214097
213730
213298
215463
215316
215099
214863
214612
214403
215870
215792
215739
215672
215679
215734
216188
216271
216395
216530
216758
217036
216553
216797
216968
217253
217627
218035
201380
202018
202373
203582
205567
208273
198252
198731
199528
200816
203044
206428
197645
197741
198247
199229
201079
203772
196524
196046
196100
196984
198456
200203
195858
195098
194977
195861
197302
198730
195288
194049
193675
194636
196399
198086
195176
193858
193566
194684