/*--------------------------------*- C++ -*----------------------------------*\
| =========                 |                                                 |
| \\      /  F ield         | OpenFOAM: The Open Source CFD Toolbox           |
|  \\    /   O peration     | Version:  v2106                                 |
|   \\  /    A nd           | Website:  www.openfoam.com                      |
|    \\/     M anipulation  |                                                 |
\*---------------------------------------------------------------------------*/
FoamFile
{
    version     2.0;
    format      ascii;
    arch        "LSB;label=32;scalar=64";
    class       volScalarField;
    location    "0.000167";
    object      Ttot;
}
// * * * * * * * * * * * * * * * * * * * * * * * * * * * * * * * * * * * * * //

dimensions      [0 0 0 1 0 0 0];

internalField   nonuniform List<scalar> 
144746
(
300.22
299.515
298.568
298.093
297.513
297.201
297.03
297.114
297.49
298.116
298.795
299.459
299.947
300.133
299.532
299.268
298.719
298.544
298.214
298.005
297.821
297.812
297.987
298.37
298.87
299.414
299.741
299.384
298.872
298.875
298.66
298.69
298.58
298.458
298.29
298.216
298.284
298.457
298.694
298.93
298.861
298.255
298.103
298.323
298.407
298.609
298.629
298.603
298.518
298.476
298.514
298.626
298.689
298.665
298.296
297.502
297.334
297.843
298.193
298.495
298.569
298.593
298.547
298.526
298.544
298.586
298.54
298.244
297.627
296.714
296.612
297.41
298.005
298.385
298.497
298.518
298.505
298.487
298.486
298.483
298.327
297.86
297.114
296.212
296.029
297.098
297.909
298.307
298.436
298.439
298.426
298.415
298.404
298.328
298.071
297.505
296.739
295.951
295.543
296.808
297.749
298.166
298.327
298.323
298.333
298.308
298.278
298.128
297.82
297.248
296.603
296.028
295.183
296.554
297.554
297.963
298.123
298.112
298.149
298.128
298.104
297.899
297.564
297.052
296.624
296.336
294.854
296.241
297.209
297.555
297.702
297.682
297.744
297.732
297.698
297.492
297.229
296.87
296.806
296.733
294.734
296.091
296.911
297.069
297.072
296.963
296.976
296.932
296.918
296.793
296.742
296.594
296.795
296.801
294.718
295.831
296.537
296.521
296.281
295.961
295.768
295.598
295.591
295.551
295.668
295.627
296.12
296.272
294.975
296.124
296.626
296.353
295.731
295.051
294.451
294.003
293.841
293.704
293.896
294.004
294.735
295.109
295.592
296.352
296.674
296.306
295.478
294.52
293.529
292.772
292.368
292.132
292.321
292.598
293.415
293.902
299.085
298.201
297.158
296.522
295.978
295.715
295.673
296.005
296.682
297.557
298.444
299.101
299.369
299.04
298.822
298.561
298.004
297.694
297.346
297.107
296.963
297.037
297.362
297.892
298.537
299.032
299.044
298.042
298.375
298.386
298.227
298.181
298.071
297.925
297.772
297.734
297.835
298.052
298.381
298.529
298.028
296.677
297.733
297.972
298.121
298.282
298.312
298.251
298.173
298.117
298.156
298.235
298.348
298.186
297.32
295.823
297.046
297.589
297.987
298.249
298.318
298.326
298.271
298.239
298.235
298.25
298.225
297.808
296.715
295.158
296.419
297.25
297.879
298.206
298.292
298.301
298.276
298.246
298.225
298.202
298.075
297.496
296.358
294.916
295.905
296.971
297.806
298.166
298.268
298.262
298.236
298.218
298.188
298.098
297.874
297.231
296.181
295
295.468
296.795
297.72
298.108
298.22
298.201
298.193
298.16
298.12
297.997
297.743
297.118
296.291
295.472
295.126
296.673
297.634
297.971
298.08
298.074
298.1
298.085
298.048
297.918
297.646
297.172
296.607
296.08
294.752
296.468
297.483
297.774
297.825
297.808
297.86
297.873
297.882
297.767
297.567
297.229
297.021
296.642
294.529
296.326
297.319
297.51
297.478
297.398
297.428
297.423
297.441
297.372
297.287
297.082
297.123
296.834
294.372
296.004
296.957
297.015
296.845
296.639
296.514
296.397
296.348
296.275
296.294
296.117
296.437
296.339
294.409
296.082
296.886
296.714
296.23
295.674
295.186
294.769
294.495
294.274
294.297
294.171
294.674
294.947
294.979
296.206
296.717
296.385
295.67
294.795
293.904
293.109
292.575
292.161
292.154
292.16
292.791
293.281
298.546
297.452
296.193
295.429
294.88
294.709
294.795
295.268
296.144
297.126
298.187
298.962
299.242
298.867
298.548
298.193
297.569
297.093
296.727
296.517
296.411
296.576
297.081
297.63
298.307
298.785
298.721
297.636
298.239
298.235
298.052
297.817
297.656
297.475
297.433
297.388
297.587
297.823
298.131
298.197
297.564
295.859
297.719
297.968
298.074
298.026
298.015
297.913
297.827
297.817
297.864
297.94
298.011
297.702
296.62
294.685
297.133
297.651
297.932
297.99
298.012
297.952
297.932
297.9
297.904
297.93
297.845
297.315
295.992
293.926
296.522
297.387
297.81
297.951
297.984
297.936
297.915
297.897
297.903
297.894
297.697
297.039
295.655
293.689
295.864
297.112
297.705
297.913
297.922
297.895
297.872
297.835
297.803
297.753
297.505
296.827
295.547
293.842
295.353
296.86
297.597
297.841
297.853
297.82
297.808
297.792
297.779
297.699
297.41
296.749
295.74
294.468
294.965
296.663
297.522
297.788
297.803
297.769
297.767
297.75
297.727
297.633
297.371
296.912
296.175
295.337
294.566
296.431
297.385
297.64
297.648
297.618
297.617
297.618
297.606
297.516
297.327
297.02
296.652
296.091
294.265
296.182
297.2
297.414
297.369
297.249
297.218
297.213
297.204
297.172
297.098
296.964
296.915
296.489
293.977
295.77
296.79
296.881
296.759
296.587
296.426
296.329
296.256
296.228
296.221
296.149
296.399
296.207
294.037
295.749
296.504
296.364
295.995
295.49
295.058
294.727
294.464
294.308
294.285
294.198
294.692
294.988
294.734
295.77
296.073
295.71
295.049
294.212
293.431
292.709
292.183
291.792
291.707
291.694
292.304
293.034
299.933
300.363
300.024
300.14
299.642
297.142
298.549
298.711
298.381
298.878
298.887
297.127
297.549
297.678
297.582
298.413
298.445
297.227
296.58
296.532
296.691
297.849
298.289
298.074
295.913
296.048
296.663
298.169
298.889
299.049
295.449
295.745
296.787
298.668
299.515
299.981
295.578
296.222
297.505
299.441
300.279
300.357
295.994
296.835
298.276
300.151
300.927
300.477
296.715
297.645
298.955
300.515
301.17
300.092
297.322
298.067
298.986
300.108
300.642
299.236
297.356
297.856
298.393
299.189
299.63
297.904
296.669
297.006
297.239
297.922
298.339
296.373
295.436
295.74
296.01
296.8
297.188
295.32
294.326
294.754
295.204
296.214
296.553
295
298.126
297.971
297.263
297.186
296.884
294.881
296.383
295.95
295.3
295.727
295.826
294.994
295.191
294.872
294.627
295.496
295.705
295.818
294.228
293.873
294.086
295.377
296.212
297.851
293.729
293.58
294.405
296.309
297.624
299.585
293.633
293.434
294.676
297.136
298.648
301.164
294.192
294.209
295.616
298.24
299.813
301.649
295.143
295.376
296.682
299.062
300.52
301.767
296.237
296.627
297.715
299.403
300.539
300.789
297.061
297.324
297.954
298.839
299.479
298.829
297.207
297.274
297.402
297.703
297.978
296.249
296.439
296.336
295.949
295.929
296.002
293.881
294.87
294.673
294.24
294.385
294.441
292.435
293.371
293.288
293.032
293.489
293.559
292.102
298.052
297.551
296.571
295.656
294.701
292.066
295.589
294.782
293.78
293.293
292.997
291.484
293.743
292.842
292.307
292.423
292.322
291.969
292.397
291.251
291.073
292.129
292.99
294.274
291.716
290.654
291.068
293.179
295.316
297.749
291.561
290.43
291.138
294.108
297.206
300.82
292.18
291.293
292.288
295.537
298.959
302.749
293.43
292.864
293.891
296.812
300.03
303.384
294.973
294.74
295.623
297.826
300.336
302.597
296.213
296.111
296.75
298.107
299.565
300.092
296.794
296.671
296.968
297.335
297.814
296.466
296.342
296.067
295.645
295.202
295.071
292.843
294.78
294.271
293.379
292.843
292.442
290.313
292.739
292.163
291.357
291.23
290.703
289.223
293.789
294.886
295.455
296.333
296.55
295.801
292.566
293.585
294.567
295.96
296.89
297.408
292.12
293.308
294.795
296.454
297.821
299.124
291.555
292.67
294.595
297.014
298.817
300.249
291.538
292.879
295.057
297.646
299.454
301.201
291.786
293.2
295.536
298.367
300.196
302.231
292.577
294.2
296.592
299.302
300.919
303.118
293.664
295.391
297.586
300.112
301.525
303.138
295.005
296.671
298.393
300.361
301.45
302.322
296.1
297.436
298.487
299.926
300.78
300.687
296.805
297.722
298.124
299.05
299.655
298.469
296.757
297.32
297.186
297.895
298.304
296.741
296.13
296.33
296.031
296.705
297.133
295.585
295.141
295.175
295.012
295.909
296.401
295.48
292.479
292.953
293.02
293.718
293.729
293.115
291.406
291.801
292.447
293.83
294.745
295.738
291.058
291.672
292.938
294.852
296.427
297.882
290.69
291.117
292.82
295.537
297.564
299.672
290.822
291.353
293.283
296.384
298.508
301.104
291.214
291.637
293.665
297.027
299.205
302.162
292.094
292.686
294.638
297.821
299.83
302.877
293.319
294.075
295.663
298.327
299.965
302.962
294.736
295.62
296.652
298.593
299.793
301.177
295.895
296.642
297.005
298.047
298.657
299.041
296.536
296.965
296.881
297.266
297.247
295.688
296.434
296.494
295.762
295.746
295.34
293.366
295.531
295.111
294.119
294.156
293.84
292.114
294.172
293.565
292.708
292.989
292.789
292.153
291.237
291.158
290.51
290.592
289.943
289.516
289.892
289.555
289.287
290.095
290.919
291.742
289.535
288.862
289.207
291.11
293.247
295.1
289.175
288.098
288.762
291.667
295.243
298.579
289.312
288.052
288.982
292.567
296.945
301.254
289.783
288.275
289.146
293.007
297.835
302.737
290.632
289.28
290.205
293.989
298.622
303.432
291.851
290.906
291.795
295.015
298.878
302.985
293.296
292.931
293.745
296.014
298.577
301.543
294.682
294.724
295.253
296.396
297.479
298.972
295.621
295.733
295.808
296.14
296.104
295.111
295.774
295.742
294.938
294.245
293.393
291.597
295.047
294.54
292.944
292.115
290.928
289.255
293.562
292.6
290.879
290.23
289.106
288.4
297.59
300.727
300.964
300.616
300.508
300.126
299.77
302.549
302.061
301.316
300.623
300.187
301.877
303.675
302.656
301.419
300.303
299.574
303.461
303.803
302.577
300.83
299.484
298.593
303.998
303.102
301.84
299.651
298.172
297.331
304.209
301.828
300.509
298.152
296.688
296.144
303.162
300.644
299.014
296.479
295.216
295.078
301.817
299.481
297.692
295.161
294.155
294.28
300.316
298.226
296.496
294.141
293.313
293.69
298.829
297.138
295.725
293.825
293.076
293.369
297.8
296.452
295.088
293.418
292.82
293.162
297.313
296.229
295.052
293.773
293.265
293.396
296.596
295.961
294.957
293.766
293.494
293.426
295.971
296.131
295.705
294.887
294.854
294.519
295.058
297.88
298.178
298.358
298.74
298.892
297.828
300.539
300.126
299.892
299.524
299.422
300.564
302.384
301.333
300.416
299.45
299.023
302.695
303.003
301.639
300.02
298.766
298.187
304.159
302.37
301.022
298.796
297.478
297.044
304.316
301.425
299.708
297.115
295.933
295.861
303.518
300.217
298.072
295.269
294.374
294.793
302.388
298.879
296.674
293.825
293.154
293.931
300.828
297.47
295.33
292.604
292.154
293.232
299.048
296.22
294.406
292.048
291.701
292.702
297.128
294.897
293.249
291.381
291.262
292.314
295.489
293.943
292.823
291.54
291.575
292.382
294.05
292.948
292.191
291.308
291.664
292.242
292.817
292.608
292.651
292.254
292.918
293.229
293.254
296.116
296.87
297.445
297.73
298.173
296.992
299.761
299.566
299.661
299.233
299.167
300.886
302.414
301.022
300.212
299.258
298.864
304.117
302.859
301.052
299.572
298.413
298.062
305.826
302.541
300.057
297.908
296.865
296.915
306.115
301.788
298.275
295.561
295
295.624
305.752
300.414
296.036
293.064
293.134
294.382
304.709
298.925
294.084
291.022
291.552
293.356
303.046
297.385
292.53
289.552
290.325
292.506
300.908
296.019
291.692
288.898
289.624
291.816
297.939
294.071
290.629
288.328
289.198
291.327
294.225
291.844
289.997
288.592
289.585
291.301
290.843
289.581
288.998
288.636
289.969
291.138
288.763
288.532
289.358
290.007
291.594
292.491
297.999
300.803
300.963
300.716
300.509
300.352
299.455
302.266
301.98
301.508
300.895
300.624
300.236
302.833
302.419
301.694
300.754
300.275
300.821
302.724
302.147
301.097
300.042
299.487
300.838
302.011
301.269
299.863
298.845
298.383
300.589
300.983
300.044
298.34
297.468
297.31
300.117
299.662
298.599
296.823
296.229
296.462
299.582
298.577
297.528
295.849
295.52
296.06
299.229
297.381
296.658
295.234
295.253
296.061
298.111
297.303
296.67
295.465
295.698
296.464
297.21
297.132
296.79
295.9
296.454
297.156
296.666
297.729
297.649
297.034
297.713
298.015
296.305
298.144
298.284
298.031
298.834
298.877
296.432
299.313
300.038
300.016
300.605
300.364
296.041
298.601
298.64
298.718
298.994
299.2
298.238
300.969
300.486
300.343
300.09
300.064
300.252
302.604
301.657
300.98
300.178
299.936
301.932
303.131
301.931
300.726
299.597
299.202
302.863
302.768
301.335
299.495
298.254
297.937
302.855
301.718
300.071
297.667
296.483
296.5
302.25
299.976
298.24
295.581
294.694
295.202
301.048
298.235
296.529
294.006
293.442
294.339
299.318
296.755
295.103
292.986
292.785
294.007
297.633
295.594
294.316
292.842
293.018
294.156
296.089
294.488
293.716
292.871
293.452
294.626
295.012
294.364
294.168
293.713
294.594
295.512
294.054
294.603
294.655
294.615
295.844
296.636
293.747
295.917
296.53
297.036
298.017
298.477
294.494
297.558
298.1
298.497
298.632
298.976
297.957
300.828
300.52
300.534
300.08
300.097
301.232
303.313
301.876
301.068
300.116
299.889
304.2
303.988
301.867
300.334
299.215
298.948
306.003
303.428
300.616
298.444
297.274
297.352
306.019
302.269
298.688
295.847
294.923
295.499
305.17
300.402
296.275
293.077
292.643
293.855
303.191
298.166
294.035
290.957
290.994
292.706
300.269
295.684
292.035
289.393
289.931
292.109
296.467
293.292
290.973
289.166
289.934
292.14
292.836
290.965
289.945
289.169
290.436
292.699
290.531
290.001
290.33
290.456
292.012
293.878
289.776
290.465
291.124
292.152
294.001
295.447
290.644
292.753
293.956
295.36
296.863
297.904
298.275
297.107
296.147
295.469
295.08
294.911
294.923
295.153
295.902
296.799
297.85
298.757
299.514
299.999
297.971
297.66
297.264
296.903
296.665
296.486
296.445
296.581
296.912
297.439
297.996
298.485
298.779
298.386
297.76
297.789
297.708
297.546
297.45
297.342
297.3
297.341
297.501
297.76
298.042
298.195
297.911
296.7
297.404
297.718
297.796
297.726
297.683
297.619
297.61
297.638
297.717
297.845
297.991
297.874
297.155
295.453
296.994
297.588
297.74
297.747
297.706
297.672
297.66
297.685
297.768
297.861
297.943
297.645
296.629
294.645
296.618
297.428
297.681
297.698
297.66
297.654
297.64
297.658
297.71
297.802
297.824
297.349
296.186
294.172
296.171
297.263
297.634
297.672
297.637
297.626
297.628
297.632
297.694
297.733
297.634
297.084
295.913
294.016
295.778
297.023
297.546
297.639
297.617
297.585
297.598
297.605
297.67
297.675
297.492
296.965
295.807
294.193
295.461
296.832
297.421
297.587
297.615
297.597
297.619
297.62
297.64
297.589
297.395
296.872
295.998
294.772
295.171
296.633
297.292
297.507
297.551
297.575
297.611
297.613
297.6
297.543
297.324
296.909
296.208
295.463
294.89
296.321
297.055
297.281
297.356
297.383
297.421
297.427
297.425
297.38
297.225
296.942
296.526
296.054
294.669
295.916
296.581
296.779
296.851
296.864
296.866
296.862
296.879
296.882
296.792
296.703
296.675
296.431
294.842
295.693
295.99
295.944
295.847
295.751
295.68
295.593
295.545
295.548
295.519
295.571
296.049
296.318
295.452
295.424
295.276
294.94
294.472
294.028
293.703
293.438
293.251
293.197
293.237
293.429
294.213
295.348
297.805
297.062
296.602
296.216
295.943
295.691
295.633
295.785
296.067
296.574
297.212
297.922
298.605
299.203
297.565
297.448
297.31
297.154
297.045
296.917
296.903
296.967
297.181
297.4
297.668
297.921
298.207
298.153
297.483
297.635
297.63
297.562
297.511
297.445
297.444
297.513
297.645
297.732
297.849
297.892
297.799
297.158
297.355
297.696
297.746
297.72
297.667
297.642
297.644
297.69
297.782
297.82
297.878
297.776
297.371
296.286
297.206
297.692
297.779
297.736
297.709
297.689
297.671
297.699
297.752
297.812
297.895
297.724
297.076
295.67
297.003
297.622
297.75
297.716
297.678
297.667
297.654
297.676
297.715
297.756
297.774
297.498
296.652
295.096
296.798
297.522
297.689
297.677
297.638
297.629
297.629
297.643
297.681
297.726
297.66
297.274
296.335
294.784
296.561
297.374
297.602
297.624
297.602
297.578
297.588
297.603
297.655
297.667
297.554
297.126
296.197
294.662
296.344
297.202
297.494
297.59
297.597
297.584
297.594
297.603
297.623
297.606
297.451
297.038
296.175
294.795
296.169
297.036
297.366
297.517
297.567
297.588
297.59
297.597
297.599
297.552
297.399
297.014
296.284
295.219
295.959
296.787
297.208
297.361
297.435
297.489
297.527
297.546
297.531
297.481
297.295
296.983
296.452
295.763
295.711
296.343
296.76
296.984
297.106
297.165
297.222
297.258
297.274
297.247
297.071
296.818
296.559
296.19
295.597
295.931
296.14
296.23
296.301
296.37
296.414
296.452
296.502
296.553
296.468
296.391
296.492
296.558
295.717
295.427
295.324
295.101
294.921
294.821
294.816
294.819
294.876
295.019
295.131
295.355
295.997
296.716
297.542
297.176
297.071
296.925
296.821
296.68
296.688
296.775
296.865
297.073
297.388
297.773
298.27
298.71
297.501
297.452
297.426
297.378
297.352
297.303
297.341
297.461
297.579
297.676
297.77
297.892
298.092
298.187
297.493
297.632
297.638
297.624
297.602
297.6
297.64
297.722
297.826
297.86
297.904
297.932
297.957
297.808
297.507
297.748
297.767
297.747
297.715
297.714
297.738
297.798
297.891
297.913
297.943
297.913
297.776
297.346
297.476
297.792
297.82
297.766
297.764
297.761
297.769
297.817
297.869
297.89
297.938
297.927
297.677
297.028
297.413
297.769
297.798
297.751
297.736
297.744
297.759
297.806
297.841
297.878
297.897
297.796
297.432
296.57
297.324
297.683
297.74
297.701
297.691
297.703
297.728
297.77
297.812
297.841
297.842
297.677
297.22
296.215
297.217
297.572
297.669
297.646
297.643
297.649
297.682
297.718
297.763
297.779
297.761
297.571
297.073
295.986
297.028
297.435
297.581
297.613
297.62
297.63
297.654
297.681
297.711
297.721
297.69
297.497
296.981
295.929
296.865
297.28
297.451
297.549
297.576
297.592
297.619
297.65
297.673
297.663
297.597
297.392
296.892
295.918
296.651
297.078
297.284
297.417
297.519
297.591
297.627
297.645
297.64
297.601
297.514
297.281
296.854
296.113
296.327
296.664
296.98
297.201
297.322
297.425
297.499
297.551
297.552
297.521
297.384
297.141
296.807
296.375
295.96
296.2
296.422
296.627
296.822
296.966
297.079
297.19
297.262
297.265
297.131
296.937
296.755
296.628
295.674
295.596
295.607
295.621
295.711
295.846
296.038
296.224
296.394
296.528
296.527
296.555
296.688
296.913
297.443
297.308
297.363
297.379
297.406
297.383
297.424
297.513
297.584
297.627
297.73
297.829
298.09
298.346
297.574
297.588
297.573
297.565
297.577
297.595
297.68
297.793
297.9
297.954
298.015
298.025
298.09
298.141
297.622
297.735
297.718
297.695
297.679
297.706
297.768
297.857
297.956
297.998
298.024
298.029
298.048
298.076
297.701
297.838
297.817
297.76
297.757
297.774
297.81
297.883
297.958
298
298.037
298.03
297.997
297.933
297.714
297.866
297.831
297.778
297.785
297.798
297.825
297.889
297.935
297.967
297.993
298.02
297.99
297.847
297.665
297.825
297.779
297.74
297.747
297.767
297.808
297.868
297.912
297.947
297.974
297.969
297.905
297.612
297.58
297.722
297.697
297.673
297.693
297.723
297.775
297.83
297.883
297.918
297.948
297.94
297.813
297.391
297.478
297.61
297.615
297.602
297.63
297.663
297.72
297.773
297.838
297.876
297.902
297.881
297.707
297.195
297.328
297.475
297.54
297.56
297.588
297.626
297.676
297.723
297.777
297.82
297.86
297.834
297.639
297.015
297.155
297.3
297.426
297.509
297.538
297.587
297.632
297.677
297.723
297.757
297.779
297.727
297.487
296.824
296.967
297.153
297.285
297.44
297.533
297.583
297.621
297.659
297.678
297.692
297.684
297.588
297.348
296.749
296.689
296.888
297.144
297.302
297.44
297.555
297.624
297.647
297.643
297.624
297.603
297.454
297.223
296.781
296.304
296.553
296.777
296.997
297.174
297.336
297.456
297.549
297.588
297.599
297.497
297.34
297.151
296.906
295.952
295.996
296.088
296.246
296.474
296.696
296.925
297.153
297.315
297.397
297.341
297.281
297.159
297.063
297.731
297.653
297.695
297.718
297.772
297.802
297.887
297.996
298.095
298.177
298.284
298.365
298.48
298.594
297.883
297.869
297.843
297.834
297.826
297.867
297.958
298.078
298.217
298.314
298.421
298.457
298.475
298.477
297.953
297.989
297.956
297.911
297.907
297.939
298.011
298.108
298.212
298.287
298.356
298.381
298.416
298.467
298.014
298.066
298.008
297.956
297.96
297.995
298.048
298.13
298.203
298.258
298.302
298.326
298.349
298.402
297.99
298.063
297.986
297.958
297.962
298.005
298.056
298.129
298.177
298.218
298.241
298.257
298.311
298.372
297.902
297.974
297.91
297.894
297.923
297.971
298.034
298.099
298.146
298.184
298.213
298.241
298.269
298.268
297.818
297.84
297.819
297.815
297.867
297.926
297.997
298.058
298.115
298.16
298.198
298.232
298.252
298.154
297.718
297.714
297.721
297.73
297.795
297.857
297.932
297.996
298.07
298.13
298.181
298.209
298.21
298.027
297.563
297.599
297.642
297.675
297.74
297.802
297.872
297.939
298.019
298.09
298.15
298.189
298.182
297.94
297.369
297.443
297.559
297.622
297.681
297.744
297.81
297.883
297.967
298.043
298.112
298.164
298.129
297.795
297.188
297.331
297.472
297.606
297.669
297.729
297.783
297.85
297.922
297.997
298.061
298.079
298.04
297.694
296.982
297.207
297.409
297.556
297.676
297.735
297.786
297.846
297.898
297.95
297.988
297.995
297.941
297.624
296.724
297.014
297.239
297.417
297.567
297.705
297.784
297.839
297.872
297.908
297.93
297.885
297.82
297.628
296.474
296.616
296.769
296.97
297.184
297.408
297.607
297.763
297.876
297.931
297.883
297.819
297.688
297.566
298.068
298.004
298.019
298.02
298.055
298.108
298.211
298.324
298.469
298.574
298.702
298.807
298.919
298.956
298.215
298.179
298.14
298.114
298.099
298.154
298.245
298.357
298.494
298.633
298.783
298.864
298.89
298.859
298.265
298.27
298.222
298.184
298.174
298.219
298.289
298.392
298.505
298.621
298.723
298.777
298.799
298.805
298.289
298.301
298.242
298.199
298.207
298.258
298.323
298.421
298.503
298.584
298.643
298.69
298.703
298.726
298.234
298.244
298.193
298.172
298.198
298.262
298.336
298.424
298.482
298.533
298.566
298.6
298.636
298.714
298.132
298.119
298.099
298.105
298.162
298.235
298.32
298.397
298.45
298.493
298.531
298.569
298.605
298.653
297.996
297.984
297.992
298.026
298.107
298.193
298.283
298.356
298.413
298.464
298.512
298.558
298.598
298.608
297.854
297.848
297.882
297.933
298.029
298.118
298.212
298.289
298.364
298.43
298.495
298.545
298.569
298.54
297.682
297.723
297.792
297.865
297.958
298.046
298.138
298.223
298.313
298.394
298.472
298.53
298.56
298.488
297.474
297.583
297.711
297.802
297.879
297.967
298.059
298.155
298.262
298.359
298.448
298.524
298.568
298.446
297.326
297.507
297.671
297.786
297.86
297.935
298.017
298.114
298.224
298.335
298.436
298.504
298.538
298.383
297.197
297.456
297.657
297.78
297.858
297.93
298.004
298.095
298.197
298.302
298.393
298.442
298.485
298.317
297.066
297.379
297.587
297.758
297.883
297.967
298.018
298.088
298.165
298.244
298.317
298.352
298.369
298.257
296.935
297.151
297.315
297.537
297.722
297.882
298.011
298.109
298.174
298.226
298.229
298.214
298.152
298.142
298.568
298.519
298.499
298.468
298.481
298.518
298.612
298.714
298.844
298.973
299.12
299.265
299.425
299.509
298.654
298.614
298.572
298.541
298.528
298.573
298.649
298.747
298.867
299.011
299.167
299.3
299.378
299.396
298.67
298.65
298.611
298.59
298.59
298.641
298.702
298.797
298.894
299.012
299.121
299.215
299.259
299.295
298.626
298.616
298.585
298.585
298.608
298.672
298.738
298.831
298.906
298.988
299.053
299.113
299.143
299.179
298.515
298.521
298.511
298.544
298.593
298.671
298.75
298.838
298.898
298.949
298.979
299.006
299.037
299.118
298.381
298.39
298.414
298.475
298.555
298.646
298.735
298.817
298.874
298.911
298.933
298.96
298.997
299.066
298.238
298.259
298.312
298.392
298.496
298.597
298.696
298.777
298.836
298.872
298.904
298.94
298.988
299.048
298.082
298.125
298.202
298.296
298.411
298.516
298.624
298.711
298.784
298.836
298.886
298.933
298.977
298.995
297.906
297.998
298.106
298.213
298.328
298.434
298.546
298.645
298.735
298.806
298.874
298.936
298.973
298.973
297.729
297.883
298.031
298.139
298.245
298.348
298.462
298.575
298.685
298.781
298.866
298.944
298.99
298.981
297.656
297.85
298.009
298.121
298.208
298.301
298.408
298.525
298.647
298.763
298.87
298.967
299.03
298.988
297.597
297.854
298.029
298.127
298.197
298.276
298.366
298.481
298.609
298.74
298.863
298.962
299.032
298.973
297.562
297.862
298.046
298.169
298.238
298.292
298.357
298.449
298.557
298.681
298.805
298.92
298.989
298.977
297.529
297.765
297.958
298.122
298.234
298.338
298.388
298.45
298.526
298.62
298.708
298.796
298.829
298.896
299.012
298.971
298.964
298.927
298.93
298.962
299.04
299.138
299.264
299.406
299.555
299.714
299.891
300.015
299.051
299.022
299.004
298.987
298.989
299.03
299.092
299.182
299.291
299.433
299.596
299.753
299.864
299.927
299.023
299.016
299.005
299.016
299.037
299.095
299.154
299.243
299.332
299.446
299.565
299.682
299.759
299.822
298.94
298.945
298.95
298.997
299.046
299.123
299.19
299.278
299.352
299.438
299.518
299.597
299.647
299.692
298.813
298.839
298.872
298.953
299.029
299.121
299.199
299.283
299.349
299.409
299.456
299.496
299.529
299.587
298.685
298.725
298.79
298.894
298.992
299.094
299.183
299.265
299.33
299.378
299.409
299.432
299.468
299.529
298.543
298.606
298.701
298.818
298.935
299.045
299.145
299.229
299.296
299.339
299.365
299.389
299.435
299.504
298.388
298.482
298.602
298.726
298.852
298.968
299.079
299.173
299.251
299.302
299.336
299.372
299.427
299.482
298.236
298.371
298.513
298.645
298.773
298.895
299.014
299.121
299.212
299.276
299.322
299.374
299.433
299.469
298.115
298.292
298.448
298.572
298.691
298.815
298.942
299.063
299.173
299.258
299.325
299.397
299.458
299.478
298.08
298.28
298.434
298.547
298.649
298.764
298.885
299.013
299.135
299.243
299.34
299.438
299.513
299.528
298.069
298.313
298.459
298.551
298.627
298.722
298.827
298.956
299.09
299.226
299.358
299.47
299.561
299.556
298.053
298.337
298.491
298.587
298.65
298.72
298.799
298.909
299.033
299.179
299.331
299.474
299.572
299.601
298.051
298.311
298.477
298.605
298.695
298.76
298.81
298.886
298.978
299.107
299.252
299.401
299.475
299.556
299.473
299.451
299.46
299.45
299.463
299.504
299.573
299.67
299.784
299.92
300.058
300.211
300.374
300.515
299.479
299.477
299.482
299.494
299.518
299.571
299.632
299.724
299.823
299.953
300.098
300.259
300.38
300.459
299.428
299.446
299.463
299.513
299.56
299.634
299.7
299.789
299.873
299.978
300.093
300.215
300.306
300.379
299.34
299.372
299.41
299.496
299.57
299.661
299.736
299.824
299.901
299.988
300.074
300.16
300.224
300.271
299.221
299.281
299.351
299.462
299.56
299.662
299.745
299.829
299.901
299.97
300.034
300.085
300.124
300.165
299.118
299.195
299.293
299.418
299.532
299.64
299.731
299.814
299.885
299.944
299.992
300.023
300.057
300.107
298.994
299.097
299.224
299.357
299.485
299.598
299.697
299.783
299.855
299.907
299.943
299.965
300.004
300.065
298.865
298.995
299.143
299.28
299.414
299.532
299.64
299.734
299.813
299.868
299.903
299.93
299.98
300.046
298.748
298.91
299.071
299.213
299.347
299.47
299.585
299.688
299.777
299.84
299.879
299.92
299.983
300.043
298.667
298.859
299.018
299.149
299.274
299.398
299.52
299.637
299.74
299.819
299.875
299.933
300.003
300.053
298.658
298.859
299.009
299.122
299.23
299.346
299.466
299.59
299.705
299.805
299.887
299.973
300.051
300.087
298.669
298.896
299.025
299.113
299.192
299.293
299.403
299.533
299.663
299.791
299.911
300.018
300.11
300.128
298.668
298.92
299.052
299.133
299.197
299.275
299.364
299.481
299.612
299.761
299.911
300.05
300.157
300.198
298.675
298.937
299.065
299.166
299.234
299.288
299.348
299.441
299.558
299.707
299.862
300.025
300.116
300.194
298.288
297.769
296.273
295.154
293.696
292.075
295.503
294.222
292.076
290.49
288.92
287.71
293.853
291.761
289.353
287.926
286.551
285.445
292.604
289.887
287.459
286.261
285.665
285.43
292.039
289.109
287.067
286.569
287.633
288.933
291.911
288.892
287.115
287.446
290.247
293.151
292.32
289.695
288.401
289.525
293.738
298.025
293.276
291.358
290.67
292.348
297.399
302.178
294.772
293.648
293.872
295.966
301.065
305.33
296.607
296.21
297.183
299.437
303.802
307.088
298.289
298.45
299.915
301.873
305.235
307.515
299.559
299.941
301.312
302.693
305.197
306.478
300.352
300.598
301.459
302.293
303.466
303.773
299.786
299.927
300.28
300.517
300.554
300.118
298.158
297.985
296.863
295.333
293.547
291.91
296.098
295.216
293.396
291.242
288.866
286.958
295.126
293.318
290.522
287.935
285.682
284.405
294.231
291.593
288.297
285.664
283.97
283.755
293.678
290.451
287.188
285.204
284.786
286.104
293.331
289.941
286.904
285.541
286.306
289.281
293.344
290.155
287.691
286.971
288.88
293.508
293.651
291.018
289.352
289.215
291.999
297.49
294.461
292.524
291.804
292.368
295.725
301.149
295.577
294.528
294.612
295.781
299.18
303.878
296.937
296.61
297.254
298.713
301.659
305.151
298.218
298.261
299.149
300.426
302.666
304.913
299.209
299.238
299.819
300.687
302.049
303.119
298.994
299.023
299.279
299.587
299.785
299.747
297.869
298.109
297.912
297.456
296.444
295.097
296.675
296.329
295.547
294.398
292.435
290.185
296.356
295.41
293.603
291.058
288.158
285.742
295.873
294.308
291.606
288.216
285.097
283.222
295.505
293.397
290.013
286.486
284.043
283.534
295.15
292.702
289.055
285.831
284.232
285.037
295.052
292.447
288.985
286.271
285.622
287.807
295.158
292.571
289.653
287.823
288.037
291.165
295.458
293.119
291.068
290.19
291.283
294.908
296.019
294.211
293.097
292.983
294.756
298.461
296.777
295.715
295.47
295.787
297.817
301.09
297.614
297.283
297.526
298.193
300.12
302.556
298.451
298.381
298.749
299.484
300.915
302.607
298.543
298.62
298.976
299.677
300.529
301.058
297.539
297.666
297.641
297.595
297.479
297.114
297
296.929
296.657
296.183
295.458
294.177
297.068
296.736
295.904
294.566
292.576
289.94
296.957
296.264
294.813
292.577
289.33
286.154
296.863
295.768
293.721
290.552
286.825
284.281
296.706
295.244
292.719
288.947
285.498
284.023
296.645
294.864
292.021
288.188
285.486
285.063
296.654
294.652
291.737
288.369
286.55
287.115
296.68
294.677
291.959
289.495
288.651
290.009
296.84
294.95
292.829
291.308
291.355
293.185
297.07
295.6
294.236
293.596
294.181
296.126
297.401
296.557
296.032
295.954
296.807
298.644
297.922
297.654
297.68
297.903
298.847
300.31