/*--------------------------------*- C++ -*----------------------------------*\
| =========                 |                                                 |
| \\      /  F ield         | OpenFOAM: The Open Source CFD Toolbox           |
|  \\    /   O peration     | Version:  v2106                                 |
|   \\  /    A nd           | Website:  www.openfoam.com                      |
|    \\/     M anipulation  |                                                 |
\*---------------------------------------------------------------------------*/
FoamFile
{
    version     2.0;
    format      ascii;
    arch        "LSB;label=32;scalar=64";
    class       volScalarField;
    location    "0.000144";
    object      epsilon;
}
// * * * * * * * * * * * * * * * * * * * * * * * * * * * * * * * * * * * * * //

dimensions      [0 2 -3 0 0 0 0];

internalField   nonuniform List<scalar> 
18109
(
3463.32
983.473
284.199
89.2375
33.2933
16.6706
11.4031
1029.44
226.16
47.0369
10.0996
2.70965
1.29109
1.07071
306.466
66.6973
14.3517
3.22036
0.742146
0.188113
0.0908589
188.599
56.214
16.8247
4.72696
1.13499
0.218268
0.034046
195.131
69.146
22.38
6.2823
1.45277
0.267642
0.0372127
236.268
84.919
26.5331
7.06804
1.55077
0.274064
0.0371771
316.689
107.415
31.3542
7.78333
1.60712
0.270379
0.0383699
456.59
144.635
39.3537
9.14987
1.79002
0.304843
0.0683918
740.137
160.54
35.2337
8.95358
3.40338
2.1473
1.77658
1.53448
1.28564
0.995378
0.661863
0.608878
2.34023
16.8087
168.578
30.4334
5.15599
0.915807
0.240523
0.142702
0.140578
0.148671
0.147226
0.128841
0.0994076
0.165474
1.27605
11.6565
56.4653
12.5033
2.79059
0.630712
0.135
0.0283441
0.011146
0.0112136
0.012904
0.0127636
0.0125788
0.0640954
0.734536
7.16862
49.3463
14.5648
4.07862
1.02249
0.214477
0.0359672
0.00485293
0.000989724
0.000877368
0.00100748
0.00181549
0.0214473
0.303645
3.30964
56.3175
18.3506
5.30482
1.31297
0.266857
0.0433651
0.00537169
0.000490505
6.91235e-05
6.63898e-05
0.000350278
0.00712689
0.111424
1.2548
70.6304
22.5985
6.2427
1.46082
0.280863
0.0435332
0.00522125
0.000497535
7.43428e-05
4.02432e-05
0.000103569
0.00226793
0.0403465
0.481927
95.862
28.7145
7.38551
1.60888
0.291293
0.0430035
0.00537492
0.00100703
0.00057618
0.000446908
0.000360079
0.00108608
0.0162697
0.206746
138.467
38.455
9.18114
1.86952
0.319927
0.0477324
0.00968057
0.00573655
0.00507191
0.0044155
0.00363114
0.00360182
0.0105547
0.110235
204.32
53.198
11.9381
2.29655
0.38438
0.0755305
0.039793
0.0388008
0.0377732
0.0354071
0.0314309
0.0306312
0.0328584
0.100146
308.993
77.0714
16.6971
3.15507
0.595268
0.224064
0.208911
0.229672
0.235201
0.234679
0.224972
0.231277
0.224421
0.298333
454.277
110.295
23.655
4.68535
1.25754
0.881754
1.00174
1.15701
1.24084
1.31487
1.36126
1.46335
1.44504
1.66449
694.235
170.225
37.8757
8.80454
3.68547
3.47818
4.18528
5.00189
5.62301
6.33728
7.06812
7.89543
8.03823
9.01804
1192.68
316.763
75.2291
21.1941
12.0107
12.5373
15.3366
18.8219
22.1948
26.618
31.8024
37.1125
39.3693
43.2954
2550.22
778.268
199.119
62.4076
38.8542
40.719
49.6729
62.2393
77.0141
98.173
125.185
154.246
172.891
187.711
5210.06
15933.4
35111.5
60174.5
87572.2
112315
1227.29
5063.77
14696.5
31919.6
55634.1
81733.7
622.589
3264.94
10691
24923.3
45022.2
67452.3
299.177
1808.61
6770.95
17381.3
33544.4
52692.8
131.284
944.026
3966.38
11127.4
23158.1
38825.7
58.5738
476.55
2242.52
6875.49
15383
27383.8
31.07
253.037
1264.43
4114.45
9677.23
18027
20.0707
147.55
726.044
2422.86
5936.81
11646
13.734
88.7015
416.545
1398.46
3532.94
7230.92
9.18579
53.0755
237.216
794.887
2083.3
4491.36
6.01753
32.8493
144.55
494.797
1365.56
3130.77
3.97095
22.6767
104.954
385.489
1169.7
3056.34
3.84218
25.0781
129.5
535.536
1839.98
5376.12
10.1059
66.5148
339.232
1356.72
4359.29
11421
48.8902
263.599
1117.05
3692.33
9719.74
20723
124.067
546.657
2003.7
5890.31
13931.7
26740.3
93.2186
460.103
1817.02
5593.29
13442.9
25838.4
57.7717
319.859
1367.11
4456.11
11130.1
22049
28.0352
179.659
852.636
3024.59
8106.33
17023.6
10.9725
80.7359
440.257
1760.47
5270.04
11975
4.20518
32.1468
193.6
950.453
3185.53
7786.7
1.90013
15.1156
99.3535
526.601
1912.27
4951.29
1.10333
9.30137
61.7548
306.874
1113.28
3035.17
0.832241
6.86571
42.4114
197.166
693.492
1893.83
1.03924
7.09469
38.7387
166.2
567.323
1568.05
3.42191
17.3875
77.9189
295.786
953.646
2653.31
16.6612
71.8106
274.573
910.813
2623.23
6589.65
76.5874
288.881
951.027
2712.36
6696.79
14342.4
299.747
969.926
2736.94
6594.32
13652.1
24469.4
765.125
2013.73
4805.79
10167.8
18903.2
30834.9
685.377
1908.41
4715.19
10139.3
18869.9
30645
569.756
1645.83
4148.69
9030.73
16987.1
27875.9
432.544
1281.74
3298.32
7326.54
14043.2
23476.6
316.483
942.189
2444.19
5494.61
10700.5
18207.2
235.396
685.486
1756.67
3943.55
7766.33
13541.6
182.401
514.505
1285.43
2850.68
5627.68
9942.09
144.265
401.731
992.81
2192.15
4336.12
7730.66
120.671
337.083
840.512
1901.28
3960.39
7761.88
117.654
345.565
945.907
2434.36
5902.39
13277.6
184.492
612.338
1899.01
5290.34
13042
28031.3
574.932
1820.3
5122.6
12624.2
27182.7
50631.4
2130.8
5522.31
12798.5
25954.8
46413.7
73413.9
6437.58
13292.7
24918.7
41766.2
63275.9
87375.3
641.811
2045.67
6099.37
15997.1
35461.4
65918.6
1264.98
4255.09
12308.6
29383.4
58223.4
96237.4
3832.11
10566.7
25030.9
49300.1
82492.5
120053
10366.2
22231.6
42018.8
68484.2
98347.4
126393
4773.28
11815
23984
41022.6
61683.4
83419.3
3710.97
9595.39
20006.4
34871.8
52823.9
72235.5
2603.53
6992.68
15167.1
27387.7
42768
60275.5
1703.09
4725.87
10683.7
20138.3
32787.9
48315.6
1087.06
3079.06
7203.76
14193.2
24296.2
36983.9
671.209
1911.65
4577.07
9312.08
16760
26823.4
424.515
1190.93
2844.21
5985.68
11549.9
19552.6
276.919
757.563
1867.15
4214.91
8429.44
14733.7
199.262
557.573
1444.98
3387.93
6986.7
12767.9
168.415
489.777
1320.18
3243.64
7317.63
15592.2
167.03
519.057
1555
4447.23
11716.8
27348.8
243.016
894.814
3053.88
9091.55
22952.6
48352.8
784.277
2665.47
7916.31
19698.5
41157.3
72051
2862
7459.06
17202
33963.2
58162.9
86550.2
107545
170332
248587
324025
302401
90856.4
149842
235874
331350
323130
73478.6
124681
205215
304827
331694
57119.7
97846.1
168595
272757
332759
42952.6
72643.5
128529
235515
317202
30387.9
50159.6
92163
195182
285631
20251.3
32847.9
60871.2
152996
254196
13097.3
21275.6
41063.5
125454
248282
273311
8583.18
14976.8
35078.6
115900
255783
328976
6331.59
14606.6
41287
117872
261129
384120
7227.45
22503.8
58793.8
131286
261903
437016
553768
13331.9
39731.4
86760
156240
260852
458961
819528
608927
24493.2
62942
120498
189906
264836
414014
1.14962e+06
2.23009e+06
36661.1
82872.2
143698
213345
271828
298956
536241
2.66016e+06
42950.7
87836.4
147143
226217
295106
266772
312337
1.89445e+06
41493
81924.2
143634
239500
329411
263621
268255
1.10314e+06
36256.8
71303.1
133835
237715
347929
277061
232214
1.20506e+06
28953.8
57659.9
115105
222243
348592
295818
227163
357776
21653.7
44130.2
91016.2
189290
326809
281367
211737
208599
15187.1
31225.9
65710.2
146762
280281
248104
194067
202027
10209.2
20706.9
42876.5
103614
223037
231989
203594
349412
6540.85
13473.6
28117.4
77249.9
192394
251794
249817
176578
4152.87
9561.66
22522.1
68987.9
184092
295013
3646.71
10641.1
28375.9
75201.2
186962
344540
6499.28
20060.4
47806.8
97731.7
197231
386552
14432.9
38718.7
78875.5
133559
214426
396174
26659.9
61571.8
111729
168270
227667
357606
38479.8
78793.1
130334
185153
224404
44911.3
83873.4
136167
201096
237912
44838.3
81957.3
139191
220310
262427
41171.1
75388.4
134590
227370
282688
34733.7
63957.9
120082
222207
288732
27393
51679
99969.2
202364
272386
20495.1
38780.1
77916.4
172237
245317
14844.2
28482
59829.6
140045
233450
12152.9
25808.9
57248.5
135494
260719
14622.6
36426.9
78951.6
164073
319468
27425.2
65561.5
124843
213055
375468
52147.9
108581
179972
259069
398606
81765
150289
223058
287916
394857
105421
171881
234347
281518
337943
111667
169204
226969
271008
258040
105378
162661
230695
292360
246957
93940.1
150138
223565
307132
257766
80348
129084
199075
297729
269858
65733.7
104313
168596
281595
282123
51364.8
79536.1
135321
260464
286076
37684.9
57942.8
107120
232256
286167
27257.4
43087.8
88967.8
206641
296835
21574.2
38924.9
90192.3
208441
342961
21923.7
49846
115130
239255
405336
31975.4
79021.3
159189
278945
454562
55022
121154
209460
313607
477616
84675.4
163742
251590
331841
462314
108350
188814
266360
323655
394399
116925
184565
252951
305474
304403
44.1154
8.30631
1.72228
0.453654
0.228083
0.194093
0.19075
0.18397
0.165312
0.129531
0.081977
0.04629
0.0791823
0.680579
9.08935
1.63941
0.295369
0.0584987
0.0178118
0.0126217
0.0143112
0.01664
0.0176033
0.0157237
0.0110305
0.00873661
0.0500377
0.603549
5.7759
1.45618
0.355744
0.0815067
0.0164939
0.00314618
0.00114945
0.00119723
0.00145043
0.00147724
0.00117842
0.00242937
0.033298
0.44174
7.54055
2.23104
0.597057
0.139192
0.0270228
0.00424158
0.000545733
0.000107539
9.42717e-05
0.000108087
0.000114215
0.000825547
0.0160886
0.236163
10.0537
3.06493
0.816003
0.185323
0.0347474
0.00527362
0.000623315
5.66693e-05
7.63395e-06
6.31761e-06
1.33916e-05
0.000296632
0.0067313
0.104169
13.3699
3.89848
0.979538
0.208814
0.0369054
0.00530466
0.000600303
5.3747e-05
5.88682e-06
2.30466e-06
3.63696e-06
0.000103261
0.00269132
0.0444234
18.7695
5.06301
1.1746
0.231892
0.0381932
0.00515595
0.000582063
8.44552e-05
3.81264e-05
2.64885e-05
1.83863e-05
5.30717e-05
0.00116703
0.0201469
27.0198
6.7012
1.43162
0.261301
0.0401021
0.00531779
0.000898045
0.000447607
0.000370983
0.000294761
0.0002134
0.000179563
0.000647215
0.00983312
38.9154
8.96777
1.78358
0.303013
0.0445207
0.00757232
0.00368358
0.00339676
0.00316531
0.00270726
0.00211701
0.00176039
0.00166418
0.00702899
55.7051
12.091
2.28121
0.373665
0.0614928
0.0226287
0.0219097
0.0231582
0.0227956
0.0207779
0.0175637
0.0155298
0.0127574
0.015075
76.9465
15.8243
2.87787
0.487309
0.126279
0.100984
0.120871
0.134902
0.139641
0.135443
0.123924
0.115481
0.0971334
0.0907605
105.508
21.0376
3.88603
0.811597
0.404001
0.4556
0.579292
0.674062
0.73498
0.760595
0.752561
0.734128
0.641968
0.584152
153.225
31.4719
6.28998
1.88697
1.48553
1.86025
2.42189
2.92292
3.36145
3.72103
3.96998
4.06795
3.72969
3.37106
292.451
67.1165
14.8321
5.77537
5.31122
6.76435
8.90387
11.107
13.497
15.9952
18.3521
19.9457
19.2936
17.6602
1.94064
0.407684
0.0966024
0.0359821
0.0282497
0.0294775
0.0320196
0.0331553
0.0315152
0.02567
0.0163319
0.007971
0.00492342
0.0270321
0.646664
0.132192
0.0273198
0.00619217
0.00224373
0.00192553
0.00241227
0.00295215
0.0032522
0.00300681
0.00211503
0.00113619
0.00218712
0.0280143
0.840866
0.216681
0.0516185
0.0111274
0.0021106
0.00040369
0.000179572
0.000209742
0.000262811
0.000274374
0.000212349
0.000177083
0.00160622
0.025903
1.3688
0.379874
0.0935993
0.0200315
0.00361104
0.000538975
6.96672e-05
1.69294e-05
1.69389e-05
1.97037e-05
1.73827e-05
4.49723e-05
0.000982866
0.0177897
2.00044
0.55502
0.134296
0.0278065
0.00481781
0.000687879
7.8619e-05
7.34642e-06
1.2616e-06
1.14187e-06
1.35686e-06
1.82929e-05
0.000541918
0.0104355
2.73371
0.718251
0.16353
0.0318486
0.00520935
0.0007051
7.68919e-05
6.74351e-06
6.4858e-07
2.15574e-07
2.52239e-07
7.58235e-06
0.000263384
0.00550855
3.75711
0.913576
0.192054
0.0346222
0.00526357
0.000665693
7.07602e-05
8.64754e-06
3.01749e-06
1.86695e-06
1.1695e-06
4.14994e-06
0.000131627
0.00289885
5.17529
1.16025
0.224564
0.0373936
0.00528216
0.000647102
9.51801e-05
3.97738e-05
3.02456e-05
2.19349e-05
1.41734e-05
1.08259e-05
7.15925e-05
0.00153307
7.00674
1.45849
0.261855
0.0404152
0.00544229
0.00084145
0.000373608
0.00032286
0.00028268
0.000220394
0.000152858
0.000109007
0.000107842
0.000906738
9.32139
1.8174
0.307659
0.0452596
0.00682705
0.0025251
0.00244622
0.00245447
0.00226854
0.00188404
0.00140575
0.0010716
0.00077454
0.00104981
11.8007
2.18133
0.35545
0.0540877
0.0142476
0.0127227
0.01528
0.0161609
0.0156638
0.0138227
0.0111156
0.00900973
0.00664562
0.00548706
14.4154
2.56576
0.423172
0.0847317
0.0517829
0.0654782
0.0835426
0.0921441
0.0937243
0.0878573
0.0761323
0.0650277
0.0497479
0.0395639
17.2744
3.11549
0.580988
0.207282
0.219283
0.304088
0.399432
0.458285
0.489309
0.487257
0.45421
0.407444
0.325021
0.25794
26.0547
5.31135
1.23758
0.706378
0.886832
1.25737
1.68209
2.0039
2.2478
2.38287
2.37981
2.24054
1.86909
1.49548
0.125522
0.0277987
0.00793523
0.00455756
0.00469956
0.00547026
0.00635733
0.00691552
0.00682087
0.00572616
0.00374647
0.00182467
0.000762158
0.00156853
0.0800762
0.0177074
0.00380569
0.000878606
0.000357306
0.000358226
0.000483272
0.000614948
0.000694152
0.000655601
0.000469944
0.000243731
0.000176968
0.00158908
0.146089
0.0364336
0.00822293
0.0016675
0.000301117
5.99373e-05
3.37891e-05
4.35429e-05
5.58329e-05
5.90433e-05
4.59853e-05
2.79822e-05
0.000100018
0.00170685
0.259135
0.0676056
0.0155532
0.00311445
0.000530896
7.62796e-05
1.01138e-05
3.18809e-06
3.6087e-06
4.23658e-06
3.63472e-06
4.08617e-06
6.74224e-05
0.00139345
0.396428
0.101998
0.022889
0.00441963
0.000722475
9.85882e-05
1.10069e-05
1.0809e-06
2.60813e-07
2.6307e-07
2.59656e-07
1.32616e-06
4.37343e-05
0.000982347
0.547104
0.133051
0.0281359
0.0051207
0.000791413
0.000102347
1.08519e-05
9.5697e-07
1.08001e-07
4.97342e-08
4.81823e-08
6.13547e-07
2.48872e-05
0.00061312
0.730135
0.164621
0.0322173
0.00543503
0.000780216
9.41941e-05
9.64555e-06
1.09639e-06
3.37874e-07
2.01421e-07
1.27025e-07
3.86137e-07
1.43595e-05
0.000374465
0.960356
0.200032
0.036136
0.00564258
0.000752712
8.75043e-05
1.18235e-05
4.41227e-06
3.14525e-06
2.14615e-06
1.30567e-06
9.25495e-07
8.12787e-06
0.000214509
1.22259
0.236784
0.0397341
0.00575819
0.000730902
0.000105955
4.38097e-05
3.63523e-05
3.02794e-05
2.20355e-05
1.41824e-05
9.06843e-06
9.74583e-06
0.000126204
1.50285
0.272998
0.0431856
0.00595324
0.000850793
0.000314349
0.000299426
0.000291028
0.000255372
0.000196894
0.00013503
9.17678e-05
6.02102e-05
0.000102874
1.74257
0.299289
0.0452998
0.00648259
0.00177962
0.00169882
0.00199976
0.00204258
0.00187306
0.00152754
0.00111854
0.000806912
0.000532552
0.000399317
1.8992
0.313852
0.0480914
0.00975391
0.00711923
0.00949794
0.0118235
0.0125469
0.012019
0.0103601
0.00810128
0.00614638
0.00419139
0.00293584
1.95704
0.326644
0.0589974
0.02588
0.0331817
0.0480131
0.0615877
0.0677594
0.0677914
0.0616832
0.0514524
0.0408615
0.0288182
0.0202477
2.43075
0.463918
0.120828
0.0979338
0.14623
0.216873
0.284337
0.323736
0.338193
0.324661
0.287668
0.238281
0.174332
0.12412
0.00906257
0.00207152
0.000744227
0.000586688
0.000713622
0.000908619
0.00112464
0.00128308
0.0013077
0.00112753
0.000755185
0.000378717
0.000145162
0.000111475
0.0109689
0.00244211
0.000514525
0.000117309
5.25935e-05
6.00852e-05
8.64544e-05
0.000114402
0.000132301
0.000127175
9.26296e-05
4.87834e-05
2.19487e-05
8.43726e-05
0.0229874
0.00549163
0.00117665
0.000226027
3.91714e-05
8.30101e-06
5.84761e-06
8.13769e-06
1.06598e-05
1.1392e-05
8.95609e-06
5.07657e-06
6.54207e-06
9.82072e-05
0.0427004
0.0105112
0.0022761
0.000430254
6.99216e-05
9.749e-06
1.36417e-06
5.72418e-07
7.08006e-07
8.3446e-07
7.16619e-07
5.27291e-07
4.11464e-06
9.24646e-05
0.066505
0.0160374
0.00337846
0.000615777
9.59916e-05
1.26471e-05
1.4052e-06
1.63628e-07
6.60232e-08
7.01581e-08
6.73198e-08
1.16917e-07
2.97918e-06
7.57711e-05
0.0909089
0.0207211
0.00412167
0.000709727
0.000104694
1.30686e-05
1.37363e-06
1.3964e-07
3.46274e-08
2.76538e-08
2.71642e-08
6.3466e-08
1.93621e-06
5.44507e-05
0.116254
0.0246017
0.00454093
0.000726779
9.9781e-05
1.16498e-05
1.18016e-06
1.45033e-07
5.43872e-08
3.98104e-08
3.26462e-08
5.04525e-08
1.25441e-06
3.75318e-05
0.144043
0.0281934
0.00481575
0.000714912
9.13418e-05
1.0244e-05
1.32166e-06
4.60808e-07
3.14728e-07
2.10686e-07
1.29939e-07
9.28548e-08
7.72831e-07
2.34552e-05
0.171102
0.0311254
0.00493895
0.000681439
8.28825e-05
1.15749e-05
4.58648e-06
3.66344e-06
2.90465e-06
1.99354e-06
1.20727e-06
7.12423e-07
8.31863e-07
1.42725e-05
0.194379
0.033189
0.00496241
0.00065147
9.05249e-05
3.44e-05
3.22944e-05
3.03069e-05
2.5206e-05
1.81639e-05
1.15756e-05
7.12791e-06
4.34068e-06
9.98389e-06
0.205622
0.0331827
0.00474489
0.000656557
0.000195763
0.000198175
0.000227191
0.000223219
0.00019322
0.000146461
9.89012e-05
6.43497e-05
3.85461e-05
2.75476e-05
0.201454
0.0313549
0.00457405
0.000996253
0.000867838
0.00118583
0.00142787
0.00145156
0.00130635
0.00104072
0.000744507
0.000507921
0.000313426
0.000197446
0.183001
0.028976
0.00532508
0.00301587
0.00440975
0.00643592
0.00796764
0.00836393
0.00782268
0.00654201
0.00494739
0.00351884
0.00223442
0.00140968
0.198042
0.0366935
0.0115172
0.0127591
0.0209887
0.0313482
0.0396392
0.0428714
0.0416078
0.0364467
0.0290132
0.0214075
0.014017
0.00897769
0.000770236
0.000178246
7.15869e-05
6.85134e-05
9.39087e-05
0.00012979
0.000170967
0.000204673
0.000215735
0.000190541
0.000130392
6.73396e-05
2.58504e-05
1.12232e-05
0.00141451
0.000307158
6.2245e-05
1.38645e-05
6.80776e-06
8.72072e-06
1.33175e-05
1.83359e-05
2.17728e-05
2.13109e-05
1.57614e-05
8.49622e-06
3.37147e-06
4.62257e-06
0.00315715
0.000719944
0.000146558
2.67774e-05
4.49535e-06
1.046e-06
9.02997e-07
1.33013e-06
1.77659e-06
1.92122e-06
1.52897e-06
8.72363e-07
5.55016e-07
5.0415e-06
0.00602734
0.00140311
0.000287059
5.15102e-05
8.03872e-06
1.10914e-06
1.82782e-07
1.08237e-07
1.37057e-07
1.59288e-07
1.39968e-07
9.65626e-08
2.48932e-07
5.25188e-06
0.00942649
0.00214561
0.000427354
7.41145e-05
1.1112e-05
1.43987e-06
1.77089e-07
4.05437e-08
3.05812e-08
3.16919e-08
3.11363e-08
3.15598e-08
1.90299e-07
4.83736e-06
0.0126376
0.00272437
0.00051422
8.45976e-05
1.20314e-05
1.4798e-06
1.72451e-07
3.67148e-08
2.51862e-08
2.44491e-08
2.438e-08
2.6218e-08
1.4366e-07
3.92659e-06
0.0154413
0.0031001
0.00054542
8.37686e-05
1.11347e-05
1.28799e-06
1.476e-07
3.62243e-08
2.65511e-08
2.51799e-08
2.45861e-08
2.55468e-08
1.0961e-07
3.03923e-06
0.0179617
0.00334412
0.000546643
7.8124e-05
9.70088e-06
1.07977e-06
1.50672e-07
6.17047e-08
4.73054e-08
3.82332e-08
3.16545e-08
2.86189e-08
8.15206e-08
2.09424e-06
0.0198631
0.00344216
0.000524021
6.98402e-05
8.27365e-06
1.13222e-06
4.32991e-07
3.35368e-07
2.59063e-07
1.76732e-07
1.10854e-07
7.1048e-08
8.57047e-08
1.38563e-06
0.0208171
0.00339095
0.000486753
6.1891e-05
8.46909e-06
3.25267e-06
2.97989e-06
2.70052e-06
2.14179e-06
1.4652e-06
8.87978e-07
5.14882e-07
3.10196e-07
9.6134e-07
0.0201055
0.00310361
0.000427234
5.82804e-05
1.87885e-05
1.96277e-05
2.18257e-05
2.06247e-05
1.69233e-05
1.20503e-05
7.61711e-06
4.56266e-06
2.54161e-06
1.86252e-06
0.0178174
0.00266226
0.000378668
9.12158e-05
9.10528e-05
0.000124693
0.000144742
0.000140894
0.000119614
8.88971e-05
5.90051e-05
3.68356e-05
2.09331e-05
1.21686e-05
0.0145135
0.00222898
0.000435197
0.000316668
0.000499728
0.00072194
0.000858254
0.000858624
0.000753833
0.000584366
0.000406432
0.000263239
0.000153103
8.82672e-05
0.0141727
0.00263151
0.00105562
0.00148199
0.00255509
0.0037654
0.00455677
0.00467172
0.00423241
0.00341325
0.00247681
0.00165612
0.000988896
0.000577473
7.08227e-05
1.58818e-05
6.49816e-06
7.00507e-06
1.05943e-05
1.58134e-05
2.21271e-05
2.77887e-05
3.0321e-05
2.74192e-05
1.91328e-05
1.01384e-05
3.98418e-06
1.41043e-06
0.000162672
3.39965e-05
6.60923e-06
1.44753e-06
7.82126e-07
1.10025e-06
1.76488e-06
2.52045e-06
3.074e-06
3.06653e-06
2.30534e-06
1.2768e-06
5.13266e-07
3.24821e-07
0.000375646
8.17116e-05
1.58716e-05
2.78835e-06
4.72549e-07
1.35968e-07
1.38392e-07
2.03434e-07
2.70711e-07
2.95101e-07
2.41243e-07
1.47725e-07
8.00811e-08
2.61705e-07
0.000728302
0.000161023
3.13472e-05
5.39419e-06
8.29716e-07
1.30723e-07
4.08031e-08
3.52091e-08
3.9926e-08
4.32967e-08
4.06247e-08
3.40072e-08
3.63975e-08
2.84996e-07
0.00113572
0.000245814
4.66908e-05
7.78148e-06
1.14625e-06
1.63926e-07
3.89608e-08
2.56878e-08
2.48227e-08
2.5024e-08
2.49445e-08
2.46773e-08
3.19465e-08
2.89028e-07
0.00148504
0.000305397
5.51939e-05
8.75706e-06
1.22635e-06
1.66666e-07
3.83448e-08
2.51582e-08
2.40364e-08
2.39684e-08
2.39609e-08
2.40263e-08
3.02116e-08
2.64275e-07
0.0017333
0.000333153
5.63606e-05
8.38583e-06
1.10447e-06
1.44778e-07
3.56153e-08
2.5015e-08
2.40988e-08
2.3984e-08
2.39405e-08
2.39793e-08
2.89288e-08
2.30871e-07
0.00189188
0.000338379
5.34126e-05
7.42933e-06
9.20792e-07
1.20005e-07
3.48464e-08
2.67384e-08
2.55211e-08
2.48475e-08
2.4386e-08
2.41742e-08
2.77689e-08
1.82161e-07
0.00194968
0.000325212
4.79524e-05
6.2458e-06
7.43565e-07
1.16943e-07
5.54541e-08
4.67615e-08
4.04972e-08
3.42502e-08
2.95223e-08
2.67775e-08
2.83368e-08
1.40817e-07
0.00188778
0.000296686
4.13377e-05
5.15338e-06
7.12104e-07
2.82873e-07
2.54515e-07
2.26267e-07
1.7766e-07
1.23883e-07
8.09149e-08
5.4317e-08
4.15888e-08
1.10699e-07
0.0016729
0.000249964
3.35071e-05
4.55156e-06
1.57015e-06
1.66338e-06
1.79885e-06
1.64456e-06
1.29471e-06
8.82976e-07
5.36529e-07
3.10055e-07
1.73275e-07
1.47772e-07
0.00135205
0.000196473
2.76101e-05
7.37938e-06
8.1201e-06
1.10446e-05
1.24112e-05
1.16257e-05
9.3918e-06
6.59532e-06
4.11554e-06
2.39781e-06
1.2815e-06
7.14923e-07
0.000999434
0.000150978
3.21361e-05
2.89582e-05
4.76708e-05
6.77601e-05
7.76632e-05
7.44035e-05
6.18045e-05
4.49305e-05
2.91005e-05
1.74469e-05
9.43314e-06
5.06684e-06
0.000898536
0.000171615
8.96634e-05
0.000147977
0.000260503
0.00037616
0.000437184
0.000427031
0.000364034
0.000273466
0.000183371
0.000112896
6.23494e-05
3.37251e-05
6.43017e-06
1.38054e-06
5.55913e-07
6.42981e-07
1.04719e-06
1.6682e-06
2.46347e-06
3.2349e-06
3.64902e-06
3.37757e-06
2.39879e-06
1.30407e-06
5.3581e-07
1.93215e-07
1.65139e-05
3.32152e-06
6.35471e-07
1.52007e-07
9.73785e-08
1.38068e-07
2.1862e-07
3.14341e-07
3.88943e-07
3.95004e-07
3.05346e-07
1.80731e-07
8.60338e-08
4.91514e-08
3.89745e-05
8.10802e-06
1.52294e-06
2.74421e-07
6.34932e-08
3.47462e-08
3.67297e-08
4.49841e-08
5.35901e-08
5.70283e-08
5.06755e-08
3.93113e-08
3.02978e-08
3.53255e-08
7.62641e-05
1.60817e-05
3.00724e-06
5.14408e-07
9.50164e-08
3.31377e-08
2.54936e-08
2.52059e-08
2.58366e-08
2.62751e-08
2.596e-08
2.51425e-08
2.47502e-08
3.62723e-08
0.000118252
2.44563e-05
4.46571e-06
7.34389e-07
1.23527e-07
3.60438e-08
2.5189e-08
2.40619e-08
2.40027e-08
2.40332e-08
2.40257e-08
2.39851e-08
2.42879e-08
3.77146e-08
0.000150596
2.96997e-05
5.18098e-06
8.12702e-07
1.29565e-07
3.61869e-08
2.51193e-08
2.39965e-08
2.39025e-08
2.3899e-08
2.39004e-08
2.39042e-08
2.42218e-08
3.79482e-08
0.000168112
3.11184e-05
5.10536e-06
7.5611e-07
1.1638e-07
3.40694e-08
2.48608e-08
2.39748e-08
2.39001e-08
2.38934e-08
2.38925e-08
2.38964e-08
2.41834e-08
3.73279e-08
0.000172857
2.99113e-05
4.60017e-06
6.42865e-07
9.74211e-08
3.16305e-08
2.47191e-08
2.4069e-08
2.3981e-08
2.39402e-08
2.39143e-08
2.39046e-08
2.41514e-08
3.54192e-08
0.000166611
2.69656e-05
3.89065e-06
5.15261e-07
7.97052e-08
3.07874e-08
2.59865e-08
2.53209e-08
2.48902e-08
2.44897e-08
2.42015e-08
2.40431e-08
2.42103e-08
3.36059e-08
0.000149833
2.29184e-05
3.13687e-06
4.02941e-07
7.36028e-08
4.17975e-08
3.93123e-08
3.70206e-08
3.35166e-08
2.9903e-08
2.71701e-08
2.55514e-08
2.49205e-08
3.1884e-08
0.000122634
1.7892e-05
2.36723e-06
3.37729e-07
1.34405e-07
1.41097e-07
1.4764e-07
1.33339e-07
1.06399e-07
7.72599e-08
5.42343e-08
3.99045e-08
3.18987e-08
3.26307e-08
9.1204e-05
1.30028e-05
1.83157e-06
5.48941e-07
6.40867e-07
8.54249e-07
9.30014e-07
8.42812e-07
6.56725e-07
4.46426e-07
2.73081e-07
1.60014e-07
9.20811e-08
6.05162e-08
6.17913e-05
9.26483e-06
2.18253e-06
2.32336e-06
3.89689e-06
5.42489e-06
6.00751e-06
5.53124e-06
4.38011e-06
3.02022e-06
1.84963e-06
1.04894e-06
5.45169e-07
2.88219e-07
5.16937e-05
1.03684e-05
6.95581e-06
1.27503e-05
2.25803e-05
3.18385e-05
3.56159e-05
3.32729e-05
2.68822e-05
1.9007e-05
1.19299e-05
6.86256e-06
3.56216e-06
1.82222e-06
5.54911e-07
1.29791e-07
6.27499e-08
7.155e-08
1.09232e-07
1.70785e-07
2.5428e-07
3.41083e-07
3.94087e-07
3.74168e-07
2.7543e-07
1.6135e-07
7.98443e-08
4.22836e-08
1.48091e-06
3.03305e-07
7.36285e-08
3.39739e-08
3.00521e-08
3.42725e-08
4.25108e-08
5.27498e-08
6.12038e-08
6.25585e-08
5.3548e-08
4.0608e-08
3.06329e-08
2.62476e-08
3.53482e-06
7.21995e-07
1.482e-07
4.38825e-08
2.69726e-08
2.48112e-08
2.51227e-08
2.6005e-08
2.69428e-08
2.73538e-08
2.67186e-08
2.55392e-08
2.45757e-08
2.45024e-08
6.95953e-06
1.42352e-06
2.73678e-07
6.34702e-08
2.94492e-08
2.45955e-08
2.40221e-08
2.40208e-08
2.40938e-08
2.41457e-08
2.41174e-08
2.4035e-08
2.39752e-08
2.44764e-08
1.07379e-05
2.15109e-06
3.96386e-07
8.14939e-08
3.17355e-08
2.48204e-08
2.39849e-08
2.39032e-08
2.39032e-08
2.39102e-08
2.39129e-08
2.39118e-08
2.39264e-08
2.45997e-08
1.33592e-05
2.55848e-06
4.49817e-07
8.71128e-08
3.21421e-08
2.48245e-08
2.39774e-08
2.38955e-08
2.38916e-08
2.38948e-08
2.38983e-08
2.39019e-08
2.39217e-08
2.46934e-08
1.43274e-05
2.58643e-06
4.30603e-07
8.10086e-08
3.0946e-08
2.46457e-08
2.39552e-08
2.38924e-08
2.389e-08
2.38929e-08
2.38962e-08
2.38998e-08
2.39199e-08
2.47356e-08
1.39706e-05
2.36963e-06
3.74069e-07
7.02305e-08
2.92868e-08
2.44392e-08
2.39393e-08
2.38958e-08
2.38932e-08
2.38942e-08
2.3896e-08
2.3899e-08
2.39191e-08
2.47014e-08
1.26779e-05
2.02031e-06
3.04253e-07
5.887e-08
2.77825e-08
2.43382e-08
2.40043e-08
2.39629e-08
2.39405e-08
2.39215e-08
2.39092e-08
2.39047e-08
2.39237e-08
2.46702e-08
1.06682e-05
1.61506e-06
2.36147e-07
4.92888e-08
2.71036e-08
2.49562e-08
2.47718e-08
2.46213e-08
2.44108e-08
2.42055e-08
2.40581e-08
2.39765e-08
2.39577e-08
2.46028e-08
8.13074e-06
1.18238e-06
1.73219e-07
4.35675e-08
3.0759e-08
3.1082e-08
3.13157e-08
3.02739e-08
2.85398e-08
2.6782e-08
2.54653e-08
2.46843e-08
2.42827e-08
2.4545e-08
5.62012e-06
8.07462e-07
1.32086e-07
5.70262e-08
6.42781e-08
7.75184e-08
8.08955e-08
7.37825e-08
6.09915e-08
4.76092e-08
3.72226e-08
3.07959e-08
2.71862e-08
2.56989e-08
3.52459e-06
5.441e-07
1.55823e-07
1.82233e-07
2.93361e-07
3.92241e-07
4.19549e-07
3.75027e-07
2.8992e-07
1.98246e-07
1.24651e-07
7.73586e-08
4.96925e-08
3.64041e-08
2.75597e-06
6.0378e-07
5.03343e-07
9.6645e-07
1.69266e-06
2.32066e-06
2.50412e-06
2.2481e-06
1.73674e-06
1.17161e-06
7.03148e-07
3.91286e-07
2.03559e-07
1.10697e-07
6.27506e-08
3.12028e-08
2.6369e-08
2.7062e-08
3.00329e-08
3.51928e-08
4.25911e-08
5.07632e-08
5.62771e-08
5.52078e-08
4.6683e-08
3.6483e-08
2.9091e-08
2.56156e-08
1.35264e-07
4.44337e-08
2.73989e-08
2.45669e-08
2.43233e-08
2.46893e-08
2.5407e-08
2.63385e-08
2.71506e-08
2.73364e-08
2.65647e-08
2.54136e-08
2.45171e-08
2.41047e-08
2.97853e-07
7.63133e-08
3.2883e-08
2.52751e-08
2.40868e-08
2.39462e-08
2.39816e-08
2.4064e-08
2.41536e-08
2.41978e-08
2.41466e-08
2.40444e-08
2.39605e-08
2.39366e-08
5.71535e-07
1.30337e-07
4.22155e-08
2.66877e-08
2.42593e-08
2.39253e-08
2.38899e-08
2.38942e-08
2.39041e-08
2.39124e-08
2.39136e-08
2.39097e-08
2.39073e-08
2.39303e-08
8.69076e-07
1.85955e-07
5.13421e-08
2.79961e-08
2.44219e-08
2.39409e-08
2.38867e-08
2.38845e-08
2.3888e-08
2.38922e-08
2.38962e-08
2.38998e-08
2.39043e-08
2.39399e-08
1.05607e-06
2.1401e-07
5.49031e-08
2.83572e-08
2.44467e-08
2.39413e-08
2.38867e-08
2.38845e-08
2.38877e-08
2.38916e-08
2.38957e-08
2.38998e-08
2.39049e-08
2.39495e-08
1.09304e-06
2.10277e-07
5.27225e-08
2.78322e-08
2.43549e-08
2.3929e-08
2.38861e-08
2.38853e-08
2.38886e-08
2.38924e-08
2.38964e-08
2.39005e-08
2.39057e-08
2.39571e-08
1.01895e-06
1.87385e-07
4.77604e-08
2.69725e-08
2.42312e-08
2.39151e-08
2.3886e-08
2.38865e-08
2.38898e-08
2.38935e-08
2.38972e-08
2.39012e-08
2.39065e-08
2.39613e-08
8.79693e-07
1.56217e-07
4.21236e-08
2.61135e-08
2.41227e-08
2.39079e-08
2.38901e-08
2.3891e-08
2.38932e-08
2.38957e-08
2.38985e-08
2.39022e-08
2.39076e-08
2.39666e-08
7.02499e-07
1.23592e-07
3.69691e-08
2.54173e-08
2.40671e-08
2.39386e-08
2.39297e-08
2.39244e-08
2.39166e-08
2.39096e-08
2.39057e-08
2.39057e-08
2.39096e-08
2.39673e-08
5.09025e-07
9.21875e-08
3.25511e-08
2.49949e-08
2.42543e-08
2.42648e-08
2.42719e-08
2.42123e-08
2.41204e-08
2.40322e-08
2.39699e-08
2.39364e-08
2.39227e-08
2.39586e-08
3.37661e-07
6.72578e-08
2.97946e-08
2.57213e-08
2.61577e-08
2.68638e-08
2.69811e-08
2.65205e-08
2.5783e-08
2.50575e-08
2.45231e-08
2.42094e-08
2.40447e-08
2.39928e-08
2.06716e-07
5.08728e-08
3.11349e-08
3.32989e-08
3.99686e-08
4.54595e-08
4.64315e-08
4.32526e-08
3.80148e-08
3.27636e-08
2.87856e-08
2.63644e-08
2.50341e-08
2.44339e-08
1.57164e-07
5.38739e-08
5.3109e-08
8.39218e-08
1.2965e-07
1.66045e-07
1.72553e-07
1.5237e-07
1.18739e-07
8.45413e-08
5.80082e-08
4.13957e-08
3.20282e-08
2.76552e-08
2.6324e-08
2.42884e-08
2.39864e-08
2.40343e-08
2.42361e-08
2.4606e-08
2.51646e-08
2.58163e-08
2.62943e-08
2.62666e-08
2.56377e-08
2.4856e-08
2.42831e-08
2.40108e-08
3.12161e-08
2.51587e-08
2.40653e-08
2.38923e-08
2.38817e-08
2.39111e-08
2.39668e-08
2.40415e-08
2.41102e-08
2.41318e-08
2.40775e-08
2.39916e-08
2.39245e-08
2.38939e-08
4.23721e-08
2.72727e-08
2.44194e-08
2.39386e-08
2.38682e-08
2.3863e-08
2.38687e-08
2.38779e-08
2.38879e-08
2.38946e-08
2.38939e-08
2.38886e-08
2.38849e-08
2.38848e-08
6.13786e-08
3.0901e-08
2.50283e-08
2.40298e-08
2.38808e-08
2.38634e-08
2.38644e-08
2.38678e-08
2.38718e-08
2.38756e-08
2.3879e-08
2.38817e-08
2.38845e-08
2.38881e-08
8.18137e-08
3.46211e-08
2.56255e-08
2.41153e-08
2.38931e-08
2.38666e-08
2.38665e-08
2.38696e-08
2.38731e-08
2.38768e-08
2.38806e-08
2.38841e-08
2.38878e-08
2.38925e-08
9.34702e-08
3.63181e-08
2.58366e-08
2.41378e-08
2.38966e-08
2.38689e-08
2.38689e-08
2.38721e-08
2.38757e-08
2.38795e-08
2.38833e-08
2.38871e-08
2.38909e-08
2.38965e-08
9.37603e-08
3.57507e-08
2.56571e-08
2.41025e-08
2.3893e-08
2.38707e-08
2.38715e-08
2.38748e-08
2.38784e-08
2.38822e-08
2.3886e-08
2.38899e-08
2.38939e-08
2.39003e-08
8.62825e-08
3.39075e-08
2.52995e-08
2.40467e-08
2.38876e-08
2.38725e-08
2.38742e-08
2.38775e-08
2.38811e-08
2.38848e-08
2.38886e-08
2.38925e-08
2.38966e-08
2.39038e-08
7.50799e-08
3.16468e-08
2.49189e-08
2.39939e-08
2.38837e-08
2.38748e-08
2.38772e-08
2.38805e-08
2.38839e-08
2.38874e-08
2.3891e-08
2.3895e-08
2.38993e-08
2.39075e-08
6.24387e-08
2.94501e-08
2.45892e-08
2.39534e-08
2.38829e-08
2.3879e-08
2.38817e-08
2.38846e-08
2.38874e-08
2.38903e-08
2.38935e-08
2.38975e-08
2.39017e-08
2.39105e-08
4.99731e-08
2.74959e-08
2.43241e-08
2.393e-08
2.38941e-08
2.38969e-08
2.38998e-08
2.38998e-08
2.38984e-08
2.38975e-08
2.3898e-08
2.39005e-08
2.39042e-08
2.39121e-08
3.9833e-08