/*--------------------------------*- C++ -*----------------------------------*\
| =========                 |                                                 |
| \\      /  F ield         | OpenFOAM: The Open Source CFD Toolbox           |
|  \\    /   O peration     | Version:  v2106                                 |
|   \\  /    A nd           | Website:  www.openfoam.com                      |
|    \\/     M anipulation  |                                                 |
\*---------------------------------------------------------------------------*/
FoamFile
{
    version     2.0;
    format      ascii;
    arch        "LSB;label=32;scalar=64";
    class       volScalarField;
    location    "0.000144";
    object      nut;
}
// * * * * * * * * * * * * * * * * * * * * * * * * * * * * * * * * * * * * * //

dimensions      [0 2 -1 0 0 0 0];

internalField   nonuniform List<scalar> 
18109
(
9.10436e-07
2.86431e-07
9.43008e-08
3.43944e-08
1.51566e-08
9.00032e-09
7.12684e-09
2.93524e-07
7.44927e-08
1.84041e-08
4.70589e-09
1.49015e-09
8.2148e-10
7.6145e-10
1.23408e-07
3.47915e-08
9.56264e-09
2.60847e-09
6.75928e-10
1.73223e-10
7.68464e-11
1.15361e-07
4.09222e-08
1.37632e-08
4.17601e-09
1.06189e-09
2.14474e-10
3.45375e-11
1.29083e-07
5.00205e-08
1.73243e-08
5.14864e-09
1.25427e-09
2.42775e-10
3.54091e-11
1.47764e-07
5.66424e-08
1.87834e-08
5.28755e-09
1.22158e-09
2.26688e-10
3.22235e-11
1.81545e-07
6.54693e-08
2.02707e-08
5.32053e-09
1.15774e-09
2.05049e-10
3.06664e-11
2.38243e-07
8.02644e-08
2.31879e-08
5.7118e-09
1.18365e-09
2.16666e-10
5.3213e-11
2.11161e-07
5.14231e-08
1.30893e-08
3.98244e-09
1.84641e-09
1.36978e-09
1.2789e-09
1.23293e-09
1.1486e-09
9.87023e-10
7.06095e-10
5.02869e-10
1.05455e-09
6.26934e-09
5.89096e-08
1.30284e-08
2.76719e-09
6.07639e-10
1.78866e-10
1.08582e-10
1.13905e-10
1.31906e-10
1.4425e-10
1.40119e-10
1.12036e-10
1.0741e-10
5.47062e-10
4.58143e-09
3.41708e-08
9.56089e-09
2.55392e-09
6.49759e-10
1.48449e-10
3.09886e-11
1.08033e-11
1.08894e-11
1.36696e-11
1.49587e-11
1.31364e-11
3.3837e-11
3.33487e-10
3.06944e-09
3.88596e-08
1.27599e-08
3.8528e-09
1.02216e-09
2.25095e-10
3.94811e-11
5.50588e-12
1.08847e-12
9.97196e-13
1.2472e-12
1.57399e-12
1.16676e-11
1.54379e-10
1.59342e-09
4.34695e-08
1.51076e-08
4.6158e-09
1.20101e-09
2.55936e-10
4.35316e-11
5.63984e-12
5.38617e-13
8.0567e-14
8.16443e-14
2.53401e-13
4.33672e-12
6.50765e-11
6.98656e-10
4.98768e-08
1.68828e-08
4.91881e-09
1.21017e-09
2.44026e-10
3.9592e-11
4.96265e-12
4.85872e-13
6.42799e-14
3.05384e-14
7.44342e-14
1.58406e-12
2.73679e-11
3.13756e-10
6.12563e-08
1.94225e-08
5.27585e-09
1.21063e-09
2.30278e-10
3.56821e-11
4.67781e-12
8.6125e-13
4.39645e-13
3.11754e-13
2.37229e-13
8.20255e-13
1.27674e-11
1.56889e-10
7.98776e-08
2.35462e-08
5.95281e-09
1.28087e-09
2.3156e-10
3.69718e-11
8.12532e-12
4.62404e-12
3.74215e-12
2.98999e-12
2.27896e-12
2.21433e-12
8.42608e-12
9.41472e-11
1.06638e-07
2.95729e-08
7.04932e-09
1.44018e-09
2.60176e-10
5.9245e-11
3.36169e-11
3.04168e-11
2.70946e-11
2.32419e-11
1.90387e-11
1.73403e-11
1.94434e-11
8.06957e-11
1.4616e-07
3.89877e-08
9.01846e-09
1.83688e-09
4.02511e-10
1.88149e-10
1.74166e-10
1.75225e-10
1.6377e-10
1.48941e-10
1.31276e-10
1.25431e-10
1.1662e-10
1.69468e-10
1.95404e-07
5.08222e-08
1.17472e-08
2.62666e-09
9.27069e-10
7.60016e-10
8.14768e-10
8.57168e-10
8.36639e-10
8.04477e-10
7.62943e-10
7.60697e-10
7.10255e-10
7.96197e-10
2.70947e-07
7.07849e-08
1.73064e-08
4.9749e-09
2.90752e-09
2.95381e-09
3.30213e-09
3.58854e-09
3.66113e-09
3.72668e-09
3.79291e-09
3.9197e-09
3.75554e-09
3.994e-09
4.17274e-07
1.16622e-07
3.13807e-08
1.21319e-08
9.54294e-09
1.03112e-08
1.16865e-08
1.30353e-08
1.39132e-08
1.50057e-08
1.62889e-08
1.75222e-08
1.74173e-08
1.80265e-08
7.90854e-07
2.52746e-07
7.45562e-08
3.3968e-08
2.94551e-08
3.20279e-08
3.63753e-08
4.14642e-08
4.63594e-08
5.29697e-08
6.1048e-08
6.90235e-08
7.21597e-08
7.36938e-08
1.41967e-06
4.06225e-06
8.47646e-06
1.38757e-05
1.92268e-05
2.34657e-05
3.61375e-07
1.36912e-06
3.68269e-06
7.48133e-06
1.22816e-05
1.70848e-05
2.04414e-07
9.72494e-07
2.94392e-06
6.41038e-06
1.09073e-05
1.54743e-05
1.08832e-07
5.9833e-07
2.06552e-06
4.94718e-06
8.97258e-06
1.32945e-05
5.35421e-08
3.49721e-07
1.34943e-06
3.52765e-06
6.89032e-06
1.08448e-05
2.75235e-08
2.00667e-07
8.60505e-07
2.44437e-06
5.11014e-06
8.48941e-06
1.69981e-08
1.2235e-07
5.51548e-07
1.65309e-06
3.62245e-06
6.2617e-06
1.26136e-08
8.1969e-08
3.62149e-07
1.10643e-06
2.51083e-06
4.51396e-06
9.7977e-09
5.62498e-08
2.37109e-07
7.25475e-07
1.68875e-06
3.1358e-06
7.39352e-09
3.81088e-08
1.52941e-07
4.65239e-07
1.11242e-06
2.14711e-06
5.40418e-09
2.61544e-08
1.02415e-07
3.13288e-07
7.66937e-07
1.52488e-06
3.7701e-09
1.85778e-08
7.3927e-08
2.30456e-07
5.77027e-07
1.19662e-06
3.02935e-09
1.60739e-08
6.68193e-08
2.21402e-07
6.12554e-07
1.47105e-06
4.60345e-09
2.59587e-08
1.14549e-07
4.01862e-07
1.14847e-06
2.71033e-06
1.67041e-08
8.24505e-08
3.21941e-07
9.86375e-07
2.41816e-06
4.82166e-06
4.28056e-08
1.74505e-07
5.94998e-07
1.63702e-06
3.63844e-06
6.59258e-06
3.42767e-08
1.57957e-07
5.84209e-07
1.69314e-06
3.84737e-06
7.01303e-06
2.33211e-08
1.20787e-07
4.83866e-07
1.48784e-06
3.52341e-06
6.62489e-06
1.27393e-08
7.62026e-08
3.38196e-07
1.12877e-06
2.86419e-06
5.70391e-06
5.76619e-09
3.94963e-08
1.99905e-07
7.47257e-07
2.10628e-06
4.52832e-06
2.59983e-09
1.86212e-08
1.03764e-07
4.68167e-07
1.46415e-06
3.36146e-06
1.37403e-09
1.02615e-08
6.24654e-08
3.01237e-07
1.008e-06
2.41857e-06
9.01363e-10
7.09642e-09
4.34951e-08
1.97813e-07
6.58782e-07
1.63698e-06
7.25293e-10
5.62426e-09
3.2139e-08
1.36883e-07
4.38082e-07
1.07421e-06
7.6842e-10
5.25108e-09
2.70755e-08
1.06202e-07
3.2263e-07
7.6992e-07
1.74592e-09
8.7486e-09
3.70262e-08
1.27849e-07
3.63112e-07
8.6847e-07
6.97379e-09
2.79306e-08
9.83436e-08
2.97134e-07
7.73282e-07
1.74922e-06
2.9264e-08
1.01455e-07
3.07409e-07
8.06425e-07
1.83191e-06
3.61522e-06
1.08492e-07
3.23741e-07
8.4687e-07
1.90194e-06
3.68478e-06
6.20373e-06
2.81918e-07
6.91851e-07
1.54377e-06
3.06566e-06
5.36692e-06
8.27338e-06
2.69197e-07
7.02671e-07
1.6312e-06
3.3063e-06
5.81386e-06
8.93588e-06
2.41482e-07
6.56276e-07
1.55891e-06
3.20685e-06
5.70257e-06
8.83286e-06
2.00794e-07
5.61117e-07
1.36162e-06
2.85578e-06
5.16958e-06
8.12572e-06
1.63459e-07
4.59652e-07
1.12455e-06
2.3839e-06
4.37328e-06
6.96342e-06
1.35756e-07
3.7535e-07
9.09121e-07
1.92106e-06
3.54287e-06
5.71078e-06
1.1643e-07
3.12234e-07
7.36848e-07
1.53089e-06
2.80424e-06
4.51622e-06
1.00891e-07
2.65232e-07
6.11746e-07
1.2422e-06
2.22214e-06
3.49866e-06
8.96558e-08
2.30759e-07
5.17242e-07
1.01944e-06
1.78421e-06
2.83778e-06
8.26725e-08
2.07556e-07
4.63582e-07
9.4757e-07
1.82372e-06
3.34819e-06
9.1354e-08
2.44339e-07
6.16765e-07
1.44425e-06
3.08679e-06
5.90124e-06
1.92072e-07
5.37605e-07
1.35497e-06
3.02327e-06
5.94343e-06
1.01951e-05
6.23625e-07
1.4956e-06
3.21045e-06
6.04848e-06
1.00679e-05
1.48719e-05
1.8003e-06
3.49451e-06
6.16695e-06
9.77245e-06
1.40149e-05
1.83144e-05
3.14596e-07
7.59473e-07
1.73968e-06
3.71518e-06
7.13466e-06
1.20217e-05
4.05169e-07
1.12433e-06
2.82111e-06
6.07819e-06
1.11331e-05
1.72871e-05
9.79899e-07
2.48449e-06
5.46758e-06
1.01071e-05
1.59434e-05
2.18933e-05
2.5126e-06
5.10569e-06
9.17107e-06
1.42959e-05
1.96838e-05
2.42879e-05
1.49464e-06
3.41896e-06
6.4736e-06
1.04068e-05
1.47171e-05
1.87453e-05
1.25961e-06
3.0045e-06
5.84128e-06
9.5525e-06
1.3621e-05
1.74561e-05
9.57786e-07
2.38002e-06
4.81409e-06
8.14561e-06
1.19253e-05
1.56018e-05
6.83685e-07
1.75988e-06
3.70871e-06
6.541e-06
9.93698e-06
1.34404e-05
4.80438e-07
1.2651e-06
2.7556e-06
5.06197e-06
8.03162e-06
1.11414e-05
3.28657e-07
8.73145e-07
1.94905e-06
3.69736e-06
6.14563e-06
8.86462e-06
2.30628e-07
6.05709e-07
1.35349e-06
2.64312e-06
4.6537e-06
6.99971e-06
1.67113e-07
4.28833e-07
9.80049e-07
2.01579e-06
3.6094e-06
5.51482e-06
1.32394e-07
3.41818e-07
8.00598e-07
1.65761e-06
2.93761e-06
4.44433e-06
1.19174e-07
3.07428e-07
7.08474e-07
1.42665e-06
2.51735e-06
4.09553e-06
1.1363e-07
2.8556e-07
6.54916e-07
1.40464e-06
2.88033e-06
5.57141e-06
1.13269e-07
3.16299e-07
8.55426e-07
2.14134e-06
4.74954e-06
9.04603e-06
2.33239e-07
6.98288e-07
1.8687e-06
4.25905e-06
8.22789e-06
1.34307e-05
7.45673e-07
1.81618e-06
3.92443e-06
7.30278e-06
1.18329e-05
1.67496e-05
2.12919e-05
2.90346e-05
3.39648e-05
3.50051e-05
2.84631e-05
1.95309e-05
2.67997e-05
3.23862e-05
3.43535e-05
2.71061e-05
1.71793e-05
2.3807e-05
2.9346e-05
3.16731e-05
2.57522e-05
1.45953e-05
2.02097e-05
2.51967e-05
2.77344e-05
2.41151e-05
1.20225e-05
1.63634e-05
2.0459e-05
2.33018e-05
2.19166e-05
9.45184e-06
1.26698e-05
1.60517e-05
1.9081e-05
1.99324e-05
7.09898e-06
9.52538e-06
1.21692e-05
1.53259e-05
1.88267e-05
5.15879e-06
7.05336e-06
9.2187e-06
1.27974e-05
1.92966e-05
2.42479e-05
3.67142e-06
5.23671e-06
7.39189e-06
1.21268e-05
2.13285e-05
2.87928e-05
2.59727e-06
4.20518e-06
7.27621e-06
1.36004e-05
2.44442e-05
3.41153e-05
2.18293e-06
4.90666e-06
9.86625e-06
1.74113e-05
2.82093e-05
4.02068e-05
4.51401e-05
3.10539e-06
7.87461e-06
1.48555e-05
2.27486e-05
3.16068e-05
4.48064e-05
6.30298e-05
4.13384e-05
5.31169e-06
1.22497e-05
2.05032e-05
2.76189e-05
3.28527e-05
4.20905e-05
8.5178e-05
0.000121541
8.0109e-06
1.625e-05
2.43956e-05
3.00049e-05
3.17182e-05
3.07505e-05
4.32243e-05
0.000183881
1.0032e-05
1.83051e-05
2.57843e-05
3.09339e-05
3.13474e-05
2.55897e-05
2.82939e-05
0.000143147
1.06728e-05
1.86074e-05
2.60734e-05
3.1897e-05
3.2102e-05
2.30386e-05
2.36275e-05
0.000119661
1.02837e-05
1.76302e-05
2.52168e-05
3.14625e-05
3.19877e-05
2.21961e-05
2.0093e-05
5.67902e-05
9.12907e-06
1.57226e-05
2.28804e-05
2.90276e-05
2.96871e-05
2.1842e-05
1.94001e-05
6.98476e-05
7.65647e-06
1.32513e-05
1.93393e-05
2.48131e-05
2.5918e-05
2.01621e-05
1.88682e-05
8.33025e-05
6.06851e-06
1.05144e-05
1.54163e-05
2.00835e-05
2.16512e-05
1.85354e-05
1.9197e-05
6.93257e-05
4.57854e-06
7.88714e-06
1.15764e-05
1.5484e-05
1.7854e-05
1.85537e-05
2.03975e-05
2.7703e-05
3.21275e-06
5.6473e-06
8.48039e-06
1.20092e-05
1.60257e-05
2.07082e-05
2.37889e-05
2.73575e-05
2.10203e-06
3.96345e-06
6.47735e-06
1.02081e-05
1.65208e-05
2.50069e-05
1.49697e-06
3.294e-06
6.30557e-06
1.10192e-05
1.93066e-05
3.05579e-05
1.81719e-06
4.65538e-06
9.22134e-06
1.52022e-05
2.37952e-05
3.65907e-05
3.46906e-06
8.25954e-06
1.47404e-05
2.14644e-05
2.86619e-05
4.10422e-05
6.2358e-06
1.29614e-05
2.05361e-05
2.66401e-05
3.08925e-05
3.92078e-05
9.20406e-06
1.6893e-05
2.40901e-05
2.86388e-05
2.93687e-05
1.14122e-05
1.89061e-05
2.54924e-05
2.9617e-05
2.83054e-05
1.23145e-05
1.94527e-05
2.60579e-05
3.06786e-05
2.81621e-05
1.21636e-05
1.87535e-05
2.53649e-05
3.04571e-05
2.77263e-05
1.11427e-05
1.69742e-05
2.31779e-05
2.83276e-05
2.61306e-05
9.59496e-06
1.4676e-05
1.99853e-05
2.49194e-05
2.37358e-05
7.86896e-06
1.20441e-05
1.65337e-05
2.12308e-05
2.20048e-05
6.12872e-06
9.53075e-06
1.34599e-05
1.80144e-05
2.24744e-05
4.75989e-06
7.80776e-06
1.19106e-05
1.76059e-05
2.6101e-05
4.25967e-06
8.1025e-06
1.35997e-05
2.1221e-05
3.2417e-05
5.87033e-06
1.19473e-05
1.95177e-05
2.78801e-05
3.89946e-05
9.98775e-06
1.86402e-05
2.73737e-05
3.45766e-05
4.33307e-05
1.53415e-05
2.5344e-05
3.33819e-05
3.83103e-05
4.40152e-05
1.99352e-05
2.92375e-05
3.50613e-05
3.71823e-05
3.86347e-05
2.21508e-05
2.97218e-05
3.38861e-05
3.43884e-05
3.08524e-05
2.2232e-05
2.89171e-05
3.30812e-05
3.36439e-05
2.70846e-05
2.08797e-05
2.7077e-05
3.15866e-05
3.29577e-05
2.55409e-05
1.87952e-05
2.4223e-05
2.86468e-05
3.06278e-05
2.48985e-05
1.62826e-05
2.07574e-05
2.48018e-05
2.74585e-05
2.46609e-05
1.36502e-05
1.71084e-05
2.07267e-05
2.42841e-05
2.46231e-05
1.1038e-05
1.37757e-05
1.71953e-05
2.16699e-05
2.54644e-05
8.77981e-06
1.11187e-05
1.45861e-05
2.04533e-05
2.77895e-05
7.04257e-06
9.44748e-06
1.37887e-05
2.19301e-05
3.22989e-05
6.01548e-06
9.63804e-06
1.61962e-05
2.64038e-05
3.82005e-05
6.59724e-06
1.30337e-05
2.19788e-05
3.23964e-05
4.37113e-05
9.8421e-06
1.91596e-05
2.91311e-05
3.78576e-05
4.74187e-05
1.46594e-05
2.55876e-05
3.47557e-05
4.05139e-05
4.70555e-05
1.89764e-05
2.96478e-05
3.65579e-05
3.90221e-05
4.06517e-05
2.14403e-05
3.0179e-05
3.5108e-05
3.57536e-05
3.20611e-05
1.50274e-08
3.25032e-09
7.82549e-10
2.43819e-10
1.45704e-10
1.39962e-10
1.51937e-10
1.61591e-10
1.61101e-10
1.41141e-10
9.94531e-11
5.67105e-11
5.00828e-11
2.92098e-10
4.9975e-09
1.16236e-09
2.61108e-10
5.92613e-11
1.69858e-11
1.07509e-11
1.26123e-11
1.59003e-11
1.8522e-11
1.84931e-11
1.43408e-11
9.11421e-12
2.45356e-11
2.60816e-10
5.33297e-09
1.51076e-09
3.99456e-10
9.65896e-11
2.02661e-11
3.81344e-12
1.20906e-12
1.23988e-12
1.63221e-12
1.85844e-12
1.58125e-12
1.69776e-12
1.64975e-11
2.05985e-10
7.12477e-09
2.23629e-09
6.28456e-10
1.52885e-10
3.08969e-11
5.03912e-12
6.66599e-13
1.26263e-13
1.13122e-13
1.44438e-13
1.44534e-13
5.0582e-13
8.78394e-12
1.22754e-10
8.70071e-09
2.78586e-09
7.7644e-10
1.84066e-10
3.59706e-11
5.68359e-12
6.99192e-13
6.61672e-14
9.4434e-15
8.77168e-15
1.32713e-14
1.92248e-13
4.16484e-12
6.1699e-11
1.03992e-08
3.18222e-09
8.37341e-10
1.86561e-10
3.44031e-11
5.15282e-12
6.07016e-13
5.60272e-14
5.66798e-15
1.94975e-15
2.88134e-15
7.57195e-14
1.91642e-12
3.04436e-11
1.31128e-08
3.71982e-09
9.05924e-10
1.87419e-10
3.22859e-11
4.55458e-12
5.36671e-13
7.69919e-14
3.07453e-14
1.95075e-14
1.27641e-14
4.2309e-14
9.58447e-13
1.60056e-11
1.70084e-08
4.45041e-09
1.00136e-09
1.9219e-10
3.10008e-11
4.3609e-12
7.90371e-13
3.78904e-13
2.87384e-13
2.10541e-13
1.41987e-13
1.17638e-13
5.68223e-13
8.94493e-12
2.21621e-08
5.41091e-09
1.13745e-09
2.04157e-10
3.21152e-11
6.26009e-12
3.26891e-12
2.79363e-12
2.38357e-12
1.87535e-12
1.3612e-12
1.06429e-12
1.08914e-12
6.5992e-12
2.88108e-08
6.66084e-09
1.33533e-09
2.3436e-10
4.46541e-11
2.03627e-11
1.92283e-11
1.855e-11
1.66731e-11
1.3928e-11
1.08911e-11
9.01119e-12
7.15623e-12
1.00391e-11
3.62918e-08
7.99079e-09
1.56089e-09
2.98842e-10
1.0427e-10
9.37352e-11
1.03662e-10
1.05074e-10
9.90079e-11
8.76254e-11
7.3901e-11
6.43298e-11
5.15797e-11
4.80028e-11
4.54748e-08
9.74581e-09
1.98896e-09
5.35397e-10
3.6977e-10
4.17737e-10
4.83404e-10
5.09548e-10
5.04081e-10
4.73661e-10
4.30346e-10
3.91244e-10
3.24913e-10
2.85373e-10
6.00238e-08
1.32555e-08
3.12788e-09
1.40362e-09
1.39189e-09
1.66163e-09
1.9607e-09
2.13949e-09
2.22447e-09
2.22541e-09
2.17082e-09
2.06557e-09
1.79221e-09
1.55269e-09
1.01987e-07
2.52424e-08
7.10555e-09
4.43899e-09
4.86189e-09
5.84448e-09
6.97212e-09
7.85292e-09
8.59869e-09
9.17339e-09
9.57235e-09
9.61177e-09
8.75844e-09
7.66063e-09
8.5907e-10
2.04782e-10
5.44841e-11
2.28559e-11
1.99354e-11
2.27974e-11
2.70998e-11
3.07635e-11
3.2297e-11
2.94932e-11
2.10542e-11
1.13029e-11
5.3586e-12
1.39374e-11
5.90766e-10
1.43148e-10
3.31035e-11
7.5715e-12
2.28128e-12
1.70994e-12
2.22872e-12
2.95272e-12
3.56626e-12
3.69479e-12
2.91009e-12
1.62644e-12
1.40527e-12
1.32959e-11
9.38073e-10
2.56216e-10
6.38396e-11
1.42704e-11
2.77695e-12
5.11711e-13
1.93233e-13
2.2558e-13
3.06739e-13
3.58906e-13
3.09496e-13
2.03153e-13
8.78495e-13
1.30659e-11
1.42231e-09
4.12815e-10
1.05904e-10
2.35251e-11
4.39606e-12
6.78859e-13
8.93494e-14
2.04512e-14
2.1015e-14
2.7323e-14
2.61642e-14
3.50745e-14
5.72078e-13
9.87547e-12
1.86806e-09
5.41398e-10
1.36473e-10
2.93819e-11
5.28719e-12
7.83338e-13
9.28761e-14
8.99925e-15
1.63253e-15
1.66226e-15
1.87038e-15
1.27454e-14
3.51507e-13
6.50369e-12
2.28307e-09
6.267e-10
1.48785e-10
3.0172e-11
5.1315e-12
7.21423e-13
8.16509e-14
7.3939e-15
6.92672e-16
2.22875e-16
2.4791e-16
5.78898e-15
1.94278e-13
3.91515e-12
2.81882e-09
7.17432e-10
1.57647e-10
2.96672e-11
4.70108e-12
6.19161e-13
6.84308e-14
8.32153e-15
2.56392e-15
1.44967e-15
8.64531e-16
3.4931e-15
1.11294e-13
2.36681e-12
3.5063e-09
8.25024e-10
1.67386e-10
2.91889e-11
4.31583e-12
5.56982e-13
8.69572e-14
3.49541e-14
2.43513e-14
1.63692e-14
9.90955e-15
7.66755e-15
6.76313e-14
1.43365e-12
4.31064e-09
9.44821e-10
1.78365e-10
2.89516e-11
4.1464e-12
7.24316e-13
3.43128e-13
2.75093e-13
2.21191e-13
1.59566e-13
1.03339e-13
6.97923e-14
8.22266e-14
9.39695e-13
5.23068e-09
1.07851e-09
1.92814e-10
3.02159e-11
5.25689e-12
2.38228e-12
2.22413e-12
2.03779e-12
1.72537e-12
1.32184e-12
9.18275e-13
6.58525e-13
4.66351e-13
8.69702e-13
6.06843e-09
1.19213e-09
2.07139e-10
3.55875e-11
1.27897e-11
1.23651e-11
1.35841e-11
1.30561e-11
1.15599e-11
9.37697e-12
6.99858e-12
5.32838e-12
3.76373e-12
3.18017e-12
6.81846e-09
1.29801e-09
2.35777e-10
6.30136e-11
5.18851e-11
6.28064e-11
7.236e-11
7.23251e-11
6.69979e-11
5.74999e-11
4.60885e-11
3.69157e-11
2.69514e-11
2.08291e-11
7.5302e-09
1.46731e-09
3.3297e-10
1.86328e-10
2.23832e-10
2.84686e-10
3.36332e-10
3.48842e-10
3.38112e-10
3.06931e-10
2.63732e-10
2.21319e-10
1.68062e-10
1.28691e-10
1.03291e-08
2.31525e-09
7.59919e-10
6.81567e-10
8.88552e-10
1.1436e-09
1.37406e-09
1.47658e-09
1.49868e-09
1.4424e-09
1.32249e-09
1.16055e-09
9.18469e-10
7.07464e-10
7.43907e-11
1.7968e-11
5.35719e-12
3.16304e-12
3.48353e-12
4.41099e-12
5.59492e-12
6.66097e-12
7.23528e-12
6.80824e-12
5.00235e-12
2.71224e-12
1.13027e-12
1.06027e-12
9.45328e-11
2.28406e-11
5.15209e-12
1.13931e-12
3.65392e-13
3.25014e-13
4.60468e-13
6.34569e-13
7.84512e-13
8.29861e-13
6.6734e-13
3.79843e-13
1.79062e-13
8.18939e-13
1.75774e-10
4.57353e-11
1.07048e-11
2.23982e-12
4.12371e-13
7.69233e-14
3.6589e-14
4.80451e-14
6.6972e-14
7.9327e-14
6.92755e-14
4.22689e-14
6.30488e-14
9.09452e-13
2.84702e-10
7.7291e-11
1.84423e-11
3.82212e-12
6.73671e-13
9.98651e-14
1.33378e-14
3.90438e-15
4.5907e-15
6.02418e-15
5.75863e-15
4.57913e-15
4.14087e-14
8.1149e-13
3.90009e-10
1.04423e-10
2.43358e-11
4.87333e-12
8.255e-13
1.16658e-13
1.34887e-14
1.37311e-15
3.50911e-16
3.93704e-16
4.13465e-16
1.05034e-15
2.95005e-14
6.38386e-13
4.80745e-10
1.2168e-10
2.67476e-11
5.05472e-12
8.10399e-13
1.08636e-13
1.19397e-14
1.09339e-15
1.29678e-16
6.5358e-17
6.46092e-17
5.00756e-16
1.90029e-14
4.51782e-13
5.76998e-10
1.35648e-10
2.76596e-11
4.85671e-12
7.24898e-13
9.09325e-14
9.66654e-15
1.1041e-15
3.0877e-16
1.74361e-16
1.10963e-16
3.48007e-16
1.25176e-14
3.15142e-13
6.86445e-10
1.49462e-10
2.82098e-11
4.59889e-12
6.40327e-13
7.80882e-14
1.11203e-14
3.98791e-15
2.60965e-15
1.66089e-15
9.55644e-16
6.9871e-16
8.03292e-15
2.06706e-13
7.9554e-10
1.6153e-10
2.84016e-11
4.31443e-12
5.7978e-13
9.39647e-14
4.12083e-14
3.17372e-14
2.43375e-14
1.64561e-14
9.92901e-15
6.04695e-15
8.36068e-15
1.37951e-13
8.94816e-10
1.71067e-10
2.84655e-11
4.16308e-12
6.83055e-13
3.05818e-13
2.79027e-13
2.47823e-13
1.99748e-13
1.42695e-13
9.14774e-14
5.8687e-14
3.83421e-14
1.01849e-13
9.54343e-10
1.7328e-10
2.78406e-11
4.50017e-12
1.69101e-12
1.70056e-12
1.8244e-12
1.69512e-12
1.42417e-12
1.07296e-12
7.32495e-13
4.98082e-13
3.15895e-13
2.52147e-13
9.616e-10
1.6913e-10
2.85311e-11
7.9618e-12
7.52415e-12
9.3826e-12
1.05262e-11
1.01339e-11
8.86967e-12
7.04013e-12
5.11794e-12
3.65602e-12
2.38721e-12
1.63332e-12
9.19974e-10
1.66078e-10
3.77892e-11
2.62957e-11
3.54994e-11
4.63732e-11
5.34105e-11
5.31808e-11
4.84721e-11
4.04704e-11
3.12924e-11
2.33631e-11
1.57502e-11
1.07172e-11
1.05609e-09
2.26721e-10
9.13772e-11
1.06829e-10
1.53794e-10
2.04101e-10
2.39803e-10
2.46533e-10
2.33926e-10
2.05347e-10
1.68139e-10
1.30621e-10
9.11355e-11
6.26923e-11
7.73767e-12
1.82253e-12
5.85974e-13
4.29454e-13
5.48323e-13
7.57255e-13
1.02109e-12
1.27321e-12
1.42776e-12
1.37776e-12
1.03643e-12
5.79373e-13
2.40098e-13
1.1622e-13
1.46526e-11
3.42989e-12
7.40811e-13
1.57674e-13
5.38554e-14
5.55585e-14
8.44617e-14
1.21048e-13
1.53315e-13
1.64939e-13
1.34819e-13
7.87179e-14
3.26224e-14
4.97512e-14
2.90939e-11
7.20899e-12
1.59536e-12
3.15296e-13
5.5397e-14
1.06774e-14
6.37753e-15
9.17429e-15
1.308e-14
1.56532e-14
1.38096e-14
8.46332e-15
5.56285e-15
5.51769e-14
4.90934e-11
1.25345e-11
2.80761e-12
5.48148e-13
9.19377e-14
1.31934e-14
1.83686e-15
7.12617e-16
9.22752e-16
1.21267e-15
1.16323e-15
7.98197e-16
2.73095e-15
5.62228e-14
6.8397e-11
1.71149e-11
3.73546e-12
7.04659e-13
1.13625e-13
1.54821e-14
1.78286e-15
2.18128e-16
9.3824e-17
1.07228e-16
1.09996e-16
1.26456e-16
2.09826e-15
5.1177e-14
8.34595e-11
1.97412e-11
4.07178e-12
7.26409e-13
1.10952e-13
1.43383e-14
1.56646e-15
1.71446e-16
4.91645e-17
4.15359e-17
4.13813e-17
6.81331e-17
1.53869e-15
4.15434e-14
9.61156e-11
2.11462e-11
4.05624e-12
6.7412e-13
9.60386e-14
1.16361e-14
1.22953e-15
1.6042e-16
6.31018e-17
4.86072e-17
4.27227e-17
5.92901e-17
1.13778e-15
3.25739e-14
1.07897e-10
2.20121e-11
3.91837e-12
6.05838e-13
8.06155e-14
9.46165e-15
1.28664e-15
4.37126e-16
2.79469e-16
1.80596e-16
1.12162e-16
8.69939e-17
8.05249e-16
2.33494e-14
1.16941e-10
2.22358e-11
3.68773e-12
5.32026e-13
6.82937e-14
1.05817e-14
4.41415e-15
3.27556e-15
2.40051e-15
1.5411e-15
8.84206e-16
5.05832e-16
8.00066e-16
1.6362e-14
1.21933e-10
2.1838e-11
3.42513e-12
4.75852e-13
7.58163e-14
3.44083e-14
3.07328e-14
2.63829e-14
2.02116e-14
1.35497e-14
8.10817e-15
4.73407e-15
2.94177e-15
1.14313e-14
1.19067e-10
2.02402e-11
3.06378e-12
4.81428e-13
1.96047e-13
2.03228e-13
2.11854e-13
1.89602e-13
1.50805e-13
1.06044e-13
6.70525e-14
4.1255e-14
2.38405e-14
1.93441e-14
1.0837e-10
1.78923e-11
2.88579e-12
8.94458e-13
9.55221e-13
1.1997e-12
1.30128e-12
1.20193e-12
9.91474e-13
7.3073e-13
4.88328e-13
3.14737e-13
1.86455e-13
1.15556e-13
9.19608e-11
1.57944e-11
3.83491e-12
3.3661e-12
4.87917e-12
6.37483e-12
7.08524e-12
6.74185e-12
5.76479e-12
4.447e-12
3.13405e-12
2.10384e-12
1.28099e-12
7.85342e-13
9.31187e-11
2.00436e-11
1.05652e-11
1.50263e-11
2.28376e-11
3.03184e-11
3.43451e-11
3.35948e-11
2.97308e-11
2.39511e-11
1.77249e-11
1.23255e-11
7.72713e-12
4.79674e-12
8.96078e-13
2.01427e-13
6.30188e-14
5.20593e-14
7.4357e-14
1.11283e-13
1.59435e-13
2.08345e-13
2.41486e-13
2.38592e-13
1.83168e-13
1.05309e-13
4.44698e-14
1.70321e-14
2.01732e-12
4.54309e-13
9.35842e-14
1.91505e-14
6.98473e-15
8.21752e-15
1.33049e-14
1.98298e-14
2.57845e-14
2.82465e-14
2.34253e-14
1.40075e-14
5.85698e-15
3.59688e-15
4.16492e-12
9.81838e-13
2.05932e-13
3.8633e-14
6.53828e-15
1.34497e-15
9.9999e-16
1.53371e-15
2.22689e-15
2.69447e-15
2.40224e-15
1.50455e-15
7.15804e-16
3.03031e-15
7.21471e-12
1.73775e-12
3.67051e-13
6.79126e-14
1.09228e-14
1.549e-15
2.52634e-16
1.41255e-16
1.85676e-16
2.3675e-16
2.29031e-16
1.62979e-16
2.04554e-16
3.33872e-15
1.00919e-11
2.37822e-12
4.89845e-13
8.77698e-14
1.35938e-14
1.82323e-15
2.35945e-16
5.88908e-17
4.60561e-17
4.89253e-17
4.93408e-17
4.7074e-17
1.54458e-16
3.40203e-15
1.20712e-11
2.69428e-12
5.26258e-13
8.95318e-14
1.31673e-14
1.68049e-15
2.09486e-16
5.20576e-17
3.8428e-17
3.76375e-17
3.76309e-17
3.88387e-17
1.3148e-16
3.11168e-15
1.32987e-11
2.76941e-12
5.05271e-13
8.0421e-14
1.10786e-14
1.33557e-15
1.67251e-16
4.95743e-17
3.91728e-17
3.78333e-17
3.73707e-17
3.82751e-17
1.14469e-16
2.73274e-15
1.40386e-11
2.71834e-12
4.621e-13
6.86435e-14
8.86656e-15
1.03878e-15
1.60707e-16
7.12554e-17
5.57472e-17
4.72339e-17
4.18989e-17
4.00876e-17
9.79345e-17
2.16891e-15
1.41953e-11
2.56584e-12
4.07415e-13
5.66585e-14
7.06946e-15
1.07199e-15
4.34939e-16
3.17294e-16
2.31451e-16
1.53669e-16
9.80531e-17
6.75351e-17
1.00258e-16
1.67248e-15
1.36934e-11
2.33417e-12
3.50682e-13
4.70827e-14
7.36532e-15
3.33579e-15
2.89914e-15
2.40921e-15
1.76828e-15
1.13416e-15
6.53879e-16
3.67517e-16
2.39102e-16
1.2395e-15
1.22506e-11
1.98672e-12
2.88878e-13
4.49621e-14
1.96154e-14
2.05513e-14
2.07637e-14
1.79013e-14
1.35355e-14
8.97639e-15
5.33801e-15
3.03812e-15
1.64755e-15
1.51793e-15
1.01308e-11
1.60192e-12
2.53441e-13
8.89638e-14
1.03321e-13
1.28767e-13
1.34691e-13
1.19317e-13
9.31157e-14
6.42707e-14
4.00186e-14
2.3675e-14
1.29508e-14
7.50187e-15
7.7526e-12
1.29786e-12
3.52376e-13
3.77661e-13
5.67422e-13
7.30714e-13
7.80345e-13
7.08878e-13
5.70774e-13
4.09885e-13
2.6689e-13
1.63686e-13
9.15105e-14
5.14573e-14
7.15779e-12
1.61356e-12
1.13348e-12
1.83365e-12
2.85437e-12
3.72708e-12
4.04302e-12
3.75575e-12
3.11335e-12
2.32003e-12
1.57304e-12
9.95215e-13
5.70661e-13
3.23964e-13
9.99171e-14
2.12177e-14
6.22136e-15
5.49628e-15
8.62302e-15
1.39117e-14
2.11335e-14
2.8934e-14
3.46994e-14
3.5111e-14
2.7449e-14
1.61568e-14
6.99732e-15
2.54342e-15
2.42592e-13
5.22904e-14
1.02987e-14
2.05018e-15
8.13631e-16
1.06462e-15
1.80682e-15
2.78567e-15
3.7159e-15
4.14818e-15
3.49147e-15
2.13911e-15
9.32984e-16
3.88256e-16
5.14222e-13
1.15367e-13
2.30479e-14
4.15099e-15
7.05704e-16
1.7912e-16
1.62664e-16
2.45306e-16
3.50087e-16
4.23301e-16
3.84173e-16
2.55135e-16
1.31599e-16
1.90025e-16
9.04789e-13
2.06573e-13
4.14545e-14
7.34679e-15
1.16505e-15
1.89782e-16
5.99535e-17
5.09081e-17
5.82152e-17
6.5968e-17
6.49684e-17
5.52574e-17
4.88751e-17
2.04328e-16
1.26186e-12
2.82239e-13
5.53515e-14
9.52031e-15
1.45098e-15
2.18459e-16
5.69368e-17
3.93044e-17
3.81853e-17
3.86614e-17
3.87221e-17
3.82074e-17
4.22437e-17
2.25278e-16
1.47101e-12
3.12612e-13
5.83691e-14
9.56704e-15
1.38987e-15
2.01991e-16
5.3959e-17
3.84263e-17
3.70755e-17
3.70051e-17
3.70066e-17
3.70397e-17
4.16042e-17
2.29897e-16
1.54964e-12
3.08364e-13
5.4003e-14
8.31941e-15
1.14176e-15
1.63648e-16
4.93219e-17
3.80794e-17
3.70855e-17
3.69712e-17
3.69371e-17
3.69772e-17
4.13908e-17
2.26045e-16
1.5375e-12
2.85505e-13
4.67864e-14
6.75997e-15
8.79183e-16
1.29419e-16
4.74918e-17
3.94417e-17
3.81704e-17
3.75672e-17
3.72135e-17
3.70953e-17
4.11502e-17
2.05216e-16
1.45188e-12
2.52193e-13
3.87232e-14
5.26191e-15
6.67843e-16
1.24311e-16
6.73266e-17
5.69812e-17
4.99983e-17
4.42268e-17
4.0458e-17
3.85779e-17
4.18702e-17
1.83958e-16
1.29757e-12
2.1303e-13
3.10146e-14
4.08282e-15
6.5028e-16
3.05262e-16
2.62583e-16
2.17634e-16
1.62853e-16
1.12243e-16
7.61857e-17
5.58539e-17
4.93555e-17
1.5869e-16
1.06875e-12
1.6743e-13
2.36695e-14
3.68632e-15
1.70227e-15
1.78251e-15
1.75287e-15
1.46707e-15
1.07092e-15
6.87614e-16
4.00741e-16
2.27739e-16
1.32264e-16
1.56096e-16
8.09502e-13
1.24255e-13
1.95487e-14
7.70855e-15
9.44774e-15
1.16253e-14
1.17802e-14
1.00599e-14
7.49283e-15
4.90726e-15
2.88802e-15
1.60554e-15
8.35178e-16
4.82018e-16
5.65209e-13
9.36667e-14
2.90295e-14
3.62075e-14
5.53107e-14
6.9928e-14
7.2053e-14
6.27841e-14
4.79624e-14
3.24196e-14
1.97352e-14
1.12432e-14
5.86203e-15
3.09123e-15
4.85218e-13
1.18658e-13
1.0825e-13
1.89588e-13
2.97504e-13
3.80058e-13
3.96247e-13
3.51317e-13
2.74849e-13
1.91541e-13
1.20506e-13
7.04418e-14
3.74558e-14
1.97611e-14
1.0092e-14
2.05422e-15
5.79186e-16
5.30607e-16
8.84561e-16
1.51132e-15
2.41163e-15
3.44339e-15
4.26462e-15
4.41798e-15
3.51178e-15
2.11349e-15
9.514e-16
3.62694e-16
2.55307e-14
5.28123e-15
1.02088e-15
2.22221e-16
1.11475e-16
1.4624e-16
2.37071e-16
3.61189e-16
4.84168e-16
5.47215e-16
4.70631e-16
3.04165e-16
1.52962e-16
7.77955e-17
5.51803e-14
1.18198e-14
2.28062e-15
4.20627e-16
9.72642e-17
5.04686e-17
5.08697e-17
6.14696e-17
7.49801e-17
8.48181e-17
8.0326e-17
6.43763e-17
4.8823e-17
4.50082e-17
9.80392e-14
2.13164e-14
4.10594e-15
7.24585e-16
1.39276e-16
5.04483e-17
3.90762e-17
3.85244e-17
3.95045e-17
4.05073e-17
4.03959e-17
3.91891e-17
3.80582e-17
4.39277e-17
1.35906e-13
2.90049e-14
5.46528e-15
9.30836e-16
1.65751e-16
5.30201e-17
3.86606e-17
3.71253e-17
3.70485e-17
3.71143e-17
3.71233e-17
3.70547e-17
3.71822e-17
4.58923e-17
1.54116e-13
3.13639e-14
5.65063e-15
9.21074e-16
1.58406e-16
5.13154e-17
3.83745e-17
3.70259e-17
3.69094e-17
3.69054e-17
3.6907e-17
3.69077e-17
3.7142e-17
4.76555e-17
1.55387e-13
2.97367e-14
5.05041e-15
7.81507e-16
1.33093e-16
4.75986e-17
3.79409e-17
3.69876e-17
3.6904e-17
3.68964e-17
3.68952e-17
3.68984e-17
3.71611e-17
4.89903e-17
1.45459e-13
2.61011e-14
4.16988e-15
6.13844e-16
1.06671e-16
4.42648e-17
3.77046e-17
3.70587e-17
3.69667e-17
3.69295e-17
3.69092e-17
3.69042e-17
3.71946e-17
4.93763e-17
1.28743e-13
2.16778e-14
3.26214e-15
4.60439e-16
8.5817e-17
4.32122e-17
3.88856e-17
3.81234e-17
3.76602e-17
3.73067e-17
3.70876e-17
3.69841e-17
3.72932e-17
4.9593e-17
1.07162e-13
1.71085e-14
2.45376e-15
3.43248e-16
8.09749e-17
5.52909e-17
5.17161e-17
4.81988e-17
4.4312e-17
4.10412e-17
3.89191e-17
3.78218e-17
3.77028e-17
4.88531e-17
8.17979e-14
1.25026e-14
1.7529e-15
2.97058e-16
1.58154e-16
1.62836e-16
1.57166e-16
1.33431e-16
1.0329e-16
7.60733e-17
5.70308e-17
4.63856e-17
4.13623e-17
4.7268e-17
5.72569e-14
8.61956e-15
1.3769e-15
6.12888e-16
7.67752e-16
9.23204e-16
9.08863e-16
7.55138e-16
5.48094e-16
3.54045e-16
2.11465e-16
1.25761e-16
7.82035e-17
6.00944e-17
3.68437e-14
6.11192e-15
2.17581e-15
3.01162e-15
4.612e-15
5.70502e-15
5.68597e-15
4.77178e-15
3.48747e-15
2.24789e-15
1.30421e-15
7.1174e-16
3.65273e-16
1.98461e-16
2.97348e-14
8.0824e-15
9.12852e-15
1.67776e-14
2.62891e-14
3.27728e-14
3.29155e-14
2.79599e-14
2.07881e-14
1.36854e-14
8.09271e-15
4.43919e-15
2.23075e-15
1.12422e-15
9.25115e-16
2.06438e-16
7.84071e-17
7.40046e-17
1.07081e-16
1.69431e-16
2.63842e-16
3.78255e-16
4.75565e-16
5.02776e-16
4.11769e-16
2.63568e-16
1.38137e-16
7.29682e-17
2.36325e-15
4.95003e-16
1.19303e-16
5.1815e-17
4.29798e-17
4.65888e-17
5.58637e-17
6.91937e-17
8.30598e-17
9.08672e-17
8.33286e-17
6.57343e-17
4.95686e-17
4.12958e-17
5.16557e-15
1.0851e-15
2.28291e-16
6.83415e-17
4.16869e-17
3.80266e-17
3.82252e-17
3.93587e-17
4.08331e-17
4.19573e-17
4.15219e-17
3.98368e-17
3.81838e-17
3.74853e-17
9.23912e-15
1.94823e-15
3.87422e-16
9.38949e-17
4.51018e-17
3.79472e-17
3.70669e-17
3.70482e-17
3.7159e-17
3.72711e-17
3.7263e-17
3.71371e-17
3.70092e-17
3.72154e-17
1.2734e-14
2.63332e-15
5.04596e-16
1.11125e-16
4.72606e-17
3.81543e-17
3.70206e-17
3.69039e-17
3.69019e-17
3.69113e-17
3.69143e-17
3.69089e-17
3.69121e-17
3.73287e-17
1.40822e-14
2.78563e-15
5.11841e-16
1.09015e-16
4.64862e-17
3.80066e-17
3.69965e-17
3.68938e-17
3.68867e-17
3.68885e-17
3.68907e-17
3.68926e-17
3.69069e-17
3.74859e-17
1.36451e-14
2.55114e-15
4.47366e-16
9.55986e-17
4.42208e-17
3.7696e-17
3.69609e-17
3.689e-17
3.68856e-17
3.6887e-17
3.68888e-17
3.6891e-17
3.69088e-17
3.76446e-17
1.21305e-14
2.14003e-15
3.60004e-16
8.01294e-17
4.19348e-17
3.74184e-17
3.6938e-17
3.68927e-17
3.68884e-17
3.68882e-17
3.6889e-17
3.68909e-17
3.69133e-17
3.77803e-17
1.01299e-14
1.6877e-15
2.75336e-16
6.66474e-17
4.02031e-17
3.73002e-17
3.69984e-17
3.69505e-17
3.69253e-17
3.69076e-17
3.68977e-17
3.68946e-17
3.69232e-17
3.79288e-17
7.91305e-15
1.26004e-15
2.04251e-16
5.67596e-17
3.9641e-17
3.79788e-17
3.77298e-17