/*--------------------------------*- C++ -*----------------------------------*\
| =========                 |                                                 |
| \\      /  F ield         | OpenFOAM: The Open Source CFD Toolbox           |
|  \\    /   O peration     | Version:  v2106                                 |
|   \\  /    A nd           | Website:  www.openfoam.com                      |
|    \\/     M anipulation  |                                                 |
\*---------------------------------------------------------------------------*/
FoamFile
{
    version     2.0;
    format      ascii;
    arch        "LSB;label=32;scalar=64";
    class       volScalarField;
    location    "0.00019";
    object      alphat;
}
// * * * * * * * * * * * * * * * * * * * * * * * * * * * * * * * * * * * * * //

dimensions      [1 -1 -1 0 0 0 0];

internalField   nonuniform List<scalar> 
144746
(
0.000130722
0.000105543
7.91424e-05
5.42163e-05
3.97438e-05
3.62062e-05
4.56359e-05
6.96348e-05
0.000106655
0.000147295
0.000171446
0.000167353
0.000148712
0.000131328
0.000139504
0.000105367
7.05262e-05
4.26925e-05
2.77613e-05
2.21503e-05
2.54207e-05
3.89336e-05
6.33068e-05
9.55825e-05
0.000126527
0.000139173
0.000129865
0.000115841
0.00013147
8.91352e-05
5.28319e-05
2.90388e-05
1.76447e-05
1.2942e-05
1.35973e-05
2.06749e-05
3.56447e-05
5.75945e-05
8.20774e-05
0.000102726
0.000105748
0.000100865
0.000102974
6.09581e-05
3.23088e-05
1.66333e-05
9.75857e-06
6.94353e-06
7.05698e-06
1.08495e-05
1.98388e-05
3.40898e-05
5.11067e-05
6.79003e-05
7.72322e-05
8.12491e-05
6.65151e-05
3.42392e-05
1.65392e-05
8.0963e-06
4.63077e-06
3.33584e-06
3.5684e-06
5.90973e-06
1.16136e-05
2.1264e-05
3.35091e-05
4.57409e-05
5.61664e-05
6.62763e-05
3.63446e-05
1.65957e-05
7.27328e-06
3.3544e-06
1.89547e-06
1.4754e-06
1.8796e-06
3.60598e-06
7.61678e-06
1.45842e-05
2.38126e-05
3.32518e-05
4.31567e-05
5.79499e-05
1.83189e-05
7.46226e-06
2.96715e-06
1.29211e-06
7.45265e-07
7.1222e-07
1.21449e-06
2.68399e-06
5.8442e-06
1.1264e-05
1.85902e-05
2.66802e-05
3.79988e-05
6.08423e-05
1.02716e-05
3.94993e-06
1.52341e-06
6.87119e-07
4.50202e-07
5.62433e-07
1.13013e-06
2.51817e-06
5.26815e-06
9.79932e-06
1.59892e-05
2.39381e-05
4.00573e-05
7.50562e-05
8.59638e-06
3.4861e-06
1.55174e-06
8.61556e-07
6.56294e-07
8.09663e-07
1.43356e-06
2.82045e-06
5.38067e-06
9.45365e-06
1.52808e-05
2.57326e-05
5.15325e-05
0.00010005
1.14354e-05
4.96202e-06
2.58647e-06
1.71319e-06
1.39023e-06
1.50873e-06
2.17037e-06
3.60507e-06
6.16345e-06
1.03244e-05
1.75946e-05
3.50271e-05
7.34475e-05
0.000128341
2.20088e-05
1.0059e-05
5.08364e-06
3.63676e-06
3.06077e-06
3.05303e-06
3.73347e-06
5.33436e-06
8.32572e-06
1.39156e-05
2.55603e-05
5.44232e-05
0.000100006
0.000147506
4.55081e-05
2.86413e-05
1.51146e-05
8.55726e-06
6.63255e-06
6.28377e-06
7.01068e-06
9.06527e-06
1.32359e-05
2.19787e-05
4.09504e-05
7.82961e-05
0.000119735
0.000151326
7.5366e-05
6.07653e-05
4.01288e-05
2.31247e-05
1.48881e-05
1.24823e-05
1.29502e-05
1.57227e-05
2.16983e-05
3.41872e-05
5.83232e-05
9.4283e-05
0.00012386
0.000142295
0.000101786
9.54373e-05
7.78004e-05
5.45613e-05
3.58584e-05
2.58282e-05
2.31072e-05
2.55123e-05
3.26102e-05
4.69759e-05
7.04309e-05
9.79689e-05
0.000116811
0.000130074
0.000108037
8.29934e-05
5.9805e-05
4.07069e-05
2.99673e-05
2.65972e-05
3.20617e-05
4.7359e-05
7.19327e-05
0.000101519
0.000127777
0.00014018
0.000136913
0.000127255
0.000105406
7.60033e-05
5.01293e-05
3.12202e-05
2.11721e-05
1.70512e-05
1.89576e-05
2.80576e-05
4.50351e-05
6.74701e-05
9.01783e-05
0.000107969
0.000111636
0.000107566
9.05013e-05
6.01636e-05
3.63989e-05
2.12237e-05
1.36286e-05
1.02881e-05
1.06796e-05
1.5772e-05
2.68957e-05
4.30748e-05
6.0978e-05
7.66061e-05
8.63875e-05
8.8697e-05
6.60734e-05
3.97937e-05
2.23836e-05
1.24441e-05
7.68464e-06
5.64612e-06
5.73006e-06
8.64449e-06
1.5733e-05
2.69893e-05
4.01955e-05
5.23503e-05
6.19231e-05
6.83888e-05
4.07609e-05
2.22826e-05
1.15924e-05
6.15474e-06
3.72241e-06
2.76138e-06
2.94724e-06
4.8155e-06
9.44841e-06
1.72967e-05
2.71659e-05
3.69277e-05
4.54553e-05
5.41885e-05
2.16455e-05
1.05396e-05
5.05548e-06
2.56494e-06
1.54333e-06
1.22718e-06
1.54428e-06
2.92974e-06
6.18578e-06
1.18526e-05
1.94156e-05
2.74516e-05
3.51194e-05
4.52589e-05
1.05601e-05
4.49908e-06
1.95561e-06
9.4365e-07
5.82359e-07
5.628e-07
9.53637e-07
2.12039e-06
4.65274e-06
9.01569e-06
1.50288e-05
2.18912e-05
2.96406e-05
4.31463e-05
5.91221e-06
2.26049e-06
8.8395e-07
4.06994e-07
2.78962e-07
3.75769e-07
8.10841e-07
1.89406e-06
4.07072e-06
7.70434e-06
1.27812e-05
1.90959e-05
2.85275e-05
4.79818e-05
5.19753e-06
1.99636e-06
8.17369e-07
4.21948e-07
3.30315e-07
4.66893e-07
9.41126e-07
2.01443e-06
4.04172e-06
7.33351e-06
1.2096e-05
1.90757e-05
3.29024e-05
6.085e-05
7.18363e-06
2.92212e-06
1.39152e-06
8.67295e-07
7.13144e-07
8.48168e-07
1.36651e-06
2.49233e-06
4.55014e-06
7.93907e-06
1.33803e-05
2.3217e-05
4.4708e-05
7.91596e-05
1.37498e-05
5.8254e-06
2.86681e-06
1.99427e-06
1.68012e-06
1.76726e-06
2.35191e-06
3.65711e-06
6.09144e-06
1.03638e-05
1.8009e-05
3.39663e-05
6.20298e-05
9.84292e-05
2.99867e-05
1.69779e-05
8.39053e-06
4.75748e-06
3.82905e-06
3.77375e-06
4.47957e-06
6.20241e-06
9.49475e-06
1.56085e-05
2.74904e-05
4.96442e-05
8.05139e-05
0.000114315
5.38553e-05
3.84292e-05
2.30265e-05
1.25757e-05
8.46649e-06
7.68827e-06
8.47695e-06
1.08401e-05
1.54311e-05
2.39747e-05
3.95698e-05
6.56169e-05
9.52332e-05
0.000122339
7.85303e-05
6.50547e-05
4.73416e-05
3.03951e-05
1.95562e-05
1.52522e-05
1.51195e-05
1.78942e-05
2.36307e-05
3.39367e-05
5.15271e-05
7.8016e-05
0.000103682
0.000124579
7.22838e-05
5.38166e-05
3.88569e-05
2.7612e-05
2.15356e-05
1.89847e-05
2.06799e-05
2.72341e-05
3.9133e-05
5.50395e-05
7.31722e-05
9.14739e-05
0.000107942
0.000118799
6.04673e-05
4.3129e-05
2.95931e-05
1.99718e-05
1.46469e-05
1.21252e-05
1.26498e-05
1.69357e-05
2.59938e-05
3.90175e-05
5.4336e-05
6.96807e-05
8.30044e-05
9.35729e-05
4.52751e-05
3.11084e-05
2.03789e-05
1.31337e-05
9.17178e-06
7.23098e-06
7.29269e-06
9.96935e-06
1.64378e-05
2.65279e-05
3.88073e-05
5.15577e-05
6.29907e-05
7.29621e-05
3.03246e-05
1.9828e-05
1.22474e-05
7.53842e-06
5.06461e-06
3.89896e-06
3.92188e-06
5.62152e-06
1.00468e-05
1.74822e-05
2.69938e-05
3.72021e-05
4.6745e-05
5.57671e-05
1.82978e-05
1.09705e-05
6.2817e-06
3.68735e-06
2.41381e-06
1.8688e-06
1.98788e-06
3.15218e-06
6.15898e-06
1.14872e-05
1.87472e-05
2.69906e-05
3.52686e-05
4.41037e-05
9.97286e-06
5.2529e-06
2.73382e-06
1.52866e-06
9.8904e-07
8.08426e-07
1.00812e-06
1.89136e-06
4.03089e-06
7.90625e-06
1.35012e-05
2.02778e-05
2.76457e-05
3.61592e-05
5.25411e-06
2.32455e-06
1.0575e-06
5.51719e-07
3.60108e-07
3.48858e-07
5.90958e-07
1.3382e-06
3.01153e-06
6.01975e-06
1.05114e-05
1.62799e-05
2.31118e-05
3.1814e-05
3.32618e-06
1.2244e-06
4.59954e-07
2.10261e-07
1.45643e-07
2.0197e-07
4.68699e-07
1.16572e-06
2.62272e-06
5.17686e-06
9.02795e-06
1.42058e-05
2.08935e-05
3.05324e-05
3.14122e-06
1.08968e-06
3.87829e-07
1.76105e-07
1.35992e-07
2.18567e-07
5.11902e-07
1.21691e-06
2.61371e-06
4.99426e-06
8.60494e-06
1.37184e-05
2.10926e-05
3.30427e-05
4.30328e-06
1.57714e-06
6.53553e-07
3.67238e-07
2.99395e-07
3.91754e-07
7.24673e-07
1.48804e-06
2.94901e-06
5.41701e-06
9.28296e-06
1.51684e-05
2.43697e-05
3.95801e-05
7.7478e-06
3.10088e-06
1.4377e-06
9.32852e-07
7.77594e-07
8.64215e-07
1.26623e-06
2.17767e-06
3.91147e-06
6.90323e-06
1.1797e-05
1.94911e-05
3.14635e-05
4.98784e-05
1.59407e-05
8.18239e-06
3.96497e-06
2.34386e-06
1.92843e-06
1.98619e-06
2.51962e-06
3.74864e-06
6.07707e-06
1.01298e-05
1.67506e-05
2.69614e-05
4.24177e-05
6.51714e-05
2.91638e-05
1.81865e-05
1.02224e-05
5.80836e-06
4.38461e-06
4.32378e-06
5.06112e-06
6.78297e-06
9.96495e-06
1.54109e-05
2.41419e-05
3.75533e-05
5.74422e-05
8.23276e-05
4.49162e-05
3.19629e-05
2.11336e-05
1.32718e-05
9.49922e-06
8.68261e-06
9.53518e-06
1.18062e-05
1.58939e-05
2.26934e-05
3.35944e-05
5.14315e-05
7.6438e-05
0.000100467
0.000122862
0.000131023
0.000143946
0.000163099
0.000186096
0.000234765
0.000108325
0.000117818
0.000134807
0.000160949
0.000196691
0.000262152
9.7646e-05
0.00010906
0.00012992
0.000160187
0.000205984
0.00028454
8.68849e-05
0.00010516
0.000131431
0.000162721
0.00021276
0.000302069
8.18347e-05
0.000108922
0.000140859
0.000170745
0.000218134
0.000315097
8.51006e-05
0.000122854
0.000157911
0.000182252
0.000220603
0.000322962
0.000100536
0.000146265
0.000177265
0.000191814
0.000219404
0.000327197
0.000125127
0.000170342
0.000189228
0.00019345
0.000213019
0.000328612
0.000150556
0.000183282
0.000187819
0.000186733
0.000202492
0.000326133
0.00016505
0.000180479
0.000177244
0.000176577
0.000191306
0.000318711
0.000164035
0.000168246
0.000165048
0.000167807
0.000181051
0.000306799
0.000153899
0.000154883
0.000155333
0.000160547
0.000173678
0.000289431
0.000141459
0.000143326
0.000146625
0.00015476
0.000169711
0.000266518
0.000130151
0.000133528
0.000139404
0.000151606
0.000169856
0.000238713
0.000120718
0.000129309
0.000139171
0.000154775
0.00017562
0.000218636
0.000103019
0.000113014
0.000128203
0.000150708
0.000184984
0.000243073
8.90004e-05
0.000101088
0.000121286
0.000149105
0.000193803
0.000264373
7.47129e-05
9.16672e-05
0.000118652
0.000151183
0.000201397
0.000281043
6.55666e-05
8.80839e-05
0.000122569
0.000159243
0.00020832
0.000293554
6.23115e-05
9.27037e-05
0.000134645
0.000171582
0.00021223
0.000302204
6.74301e-05
0.000106311
0.000153266
0.000184452
0.000211801
0.000307989
8.01943e-05
0.000125806
0.000171348
0.000191686
0.000206045
0.000310035
9.79845e-05
0.000144029
0.000180378
0.000189347
0.000195666
0.000307771
0.00011528
0.000154121
0.000178232
0.000180877
0.000184711
0.000299758
0.000126709
0.000154513
0.000170043
0.000172425
0.0001773
0.00028753
0.000131224
0.000149522
0.000161546
0.000166424
0.000173357
0.000269943
0.000131861
0.000144139
0.000154611
0.000162478
0.000172358
0.000247589
0.000129396
0.000139865
0.000148835
0.000159305
0.000173356
0.000221036
0.000127157
0.000142111
0.000151816
0.000159125
0.000170078
0.000192879
0.000101097
0.000117146
0.000134185
0.000151447
0.000175451
0.000215247
8.33209e-05
0.000100441
0.000122072
0.000146231
0.000180932
0.000236697
6.6847e-05
8.56675e-05
0.000112124
0.000143775
0.000187949
0.000255132
5.5733e-05
7.61606e-05
0.000107062
0.000145513
0.000196615
0.000270668
4.82049e-05
7.09351e-05
0.000107684
0.000152804
0.000202818
0.000280261
4.54472e-05
7.19921e-05
0.000116387
0.000163667
0.000204914
0.000286474
4.68765e-05
7.88816e-05
0.000129016
0.000174988
0.000204369
0.000287994
5.24851e-05
8.94276e-05
0.000142113
0.000183073
0.000201101
0.000286901
6.17037e-05
0.000100575
0.000151573
0.000185872
0.000195484
0.000281332
7.24724e-05
0.000109925
0.000156625
0.000185946
0.000192092
0.000270798
8.31167e-05
0.000117572
0.000159603
0.000186406
0.000192873
0.000254473
9.63253e-05
0.000127086
0.000163596
0.000187554
0.00019613
0.000232976
0.000110356
0.000139611
0.000168994
0.000185815
0.000196771
0.000206243
0.000121066
0.000127381
0.000136658
0.000153605
0.000176257
0.000244473
0.000107202
0.000113455
0.000126926
0.000150668
0.000185231
0.000272388
9.40114e-05
0.000100606
0.000118101
0.000147378
0.000192434
0.00029569
7.57921e-05
8.72171e-05
0.000111367
0.00014562
0.000197461
0.00031347
5.88879e-05
7.61556e-05
0.000107976
0.000148538
0.000202204
0.000326204
4.73247e-05
7.11226e-05
0.000110634
0.000156068
0.000206591
0.000332394
4.30575e-05
7.42778e-05
0.000121411
0.000167601
0.000210111
0.000333614
4.6257e-05
8.6744e-05
0.000139504
0.00018004
0.00020993
0.000330511
5.775e-05
0.000106172
0.000157319
0.000186184
0.000203717
0.000324086
7.58672e-05
0.000124702
0.000165752
0.000182709
0.000192769
0.000314072
9.49302e-05
0.000135021
0.000162836
0.000172967
0.000180654
0.000300554
0.000108186
0.000135374
0.000153046
0.000160883
0.000169506
0.000282419
0.000112675
0.000128867
0.000140084
0.00014784
0.000159971
0.000260215
0.000109168
0.000118909
0.000126172
0.000135222
0.000152854
0.000232795
0.000123553
0.000135336
0.000145321
0.000159504
0.000177734
0.000226392
0.000103003
0.000115194
0.000130835
0.000151693
0.000183869
0.000252234
8.37424e-05
9.70926e-05
0.000117372
0.000144377
0.000186767
0.000274075
6.24791e-05
7.82724e-05
0.000104177
0.000138525
0.000188158
0.00029024
4.61425e-05
6.33798e-05
9.31873e-05
0.000135322
0.000190533
0.000301889
3.54078e-05
5.38818e-05
8.73074e-05
0.000135925
0.000194336
0.000308539
2.9772e-05
5.04731e-05
8.88287e-05
0.000142054
0.000197839
0.000310788
2.85807e-05
5.39446e-05
9.90679e-05
0.000153281
0.000198713
0.000308503
3.29634e-05
6.46399e-05
0.000114755
0.00016353
0.00019484
0.000302752
4.3254e-05
7.9053e-05
0.000127829
0.000166423
0.000185925
0.000292768
5.74207e-05
9.19975e-05
0.000132893
0.000161396
0.000176078
0.000279442
7.1716e-05
0.000100261
0.000130935
0.000152376
0.000167678
0.000262428
8.27998e-05
0.000103552
0.00012485
0.000141869
0.000161128
0.000240944
8.78326e-05
0.000102923
0.000117317
0.000131649
0.000154406
0.000214206
0.000122168
0.000146728
0.000167568
0.000181917
0.00019535
0.000208449
9.11251e-05
0.000114118
0.000140532
0.000166596
0.000194851
0.00023303
6.68404e-05
8.88082e-05
0.000117855
0.000151454
0.000190553
0.000254341
4.65347e-05
6.64152e-05
9.72017e-05
0.000137519
0.000185679
0.000270399
3.36502e-05
5.06889e-05
8.05317e-05
0.000125175
0.000182222
0.000282279
2.54384e-05
4.0821e-05
6.88248e-05
0.000115543
0.000180564
0.000289135
2.0404e-05
3.48503e-05
6.20985e-05
0.000110673
0.000179414
0.00029018
1.77733e-05
3.21808e-05
6.07826e-05
0.000111597
0.000177496
0.000285779
1.74519e-05
3.33043e-05
6.52192e-05
0.000116929
0.000173915
0.000277106
1.99947e-05
3.79106e-05
7.25036e-05
0.000121886
0.000168227
0.000266133
2.57349e-05
4.47301e-05
7.92141e-05
0.000123808
0.000162468
0.00025435
3.3913e-05
5.22949e-05
8.36051e-05
0.000122469
0.000160716
0.000240826
4.32537e-05
6.0218e-05
8.73483e-05
0.000120941
0.000161392
0.000223045
5.18818e-05
6.79256e-05
9.16939e-05
0.000120866
0.000160594
0.000198035
0.000231421
0.00017212
0.000154739
0.000145411
0.000139887
0.000134322
0.000261623
0.000185008
0.000173021
0.000166043
0.000158526
0.000149148
0.000288364
0.000204445
0.000194436
0.000185927
0.000171452
0.000152336
0.000311447
0.000228016
0.000214318
0.000197966
0.000169067
0.000136128
0.00032978
0.000248992
0.000223711
0.000190817
0.000144555
0.000102636
0.000342411
0.000259547
0.000212059
0.000160565
0.000106294
6.639e-05
0.000348169
0.000252361
0.000180318
0.000119573
7.06739e-05
3.94516e-05
0.000348095
0.000230104
0.000143977
8.63458e-05
4.78805e-05
2.48764e-05
0.000341033
0.000203028
0.000117596
6.84429e-05
3.86936e-05
2.04803e-05
0.000328591
0.000180086
0.000104146
6.44076e-05
4.05006e-05
2.39384e-05
0.000311101
0.0001654
0.000101633
7.02648e-05
5.14584e-05
3.62316e-05
0.000290632
0.000158031
0.00010703
8.26345e-05
6.87156e-05
5.67158e-05
0.000266299
0.000154787
0.000117052
9.84506e-05
8.80286e-05
7.85012e-05
0.000238811
0.000152235
0.000127047
0.000114937
0.000108343
0.000100163
0.00021484
0.000164325
0.00014346
0.000132302
0.000123038
0.000113338
0.000245863
0.000176906
0.000158746
0.000146663
0.00013149
0.000116547
0.000272388
0.000194732
0.000176365
0.000157868
0.000131425
0.000107587
0.000294529
0.00021524
0.000190893
0.000159167
0.000118381
8.73839e-05
0.000311488
0.000236357
0.000193287
0.000143847
9.37357e-05
6.16753e-05
0.000323429
0.000247167
0.000176315
0.000114383
6.58292e-05
3.84376e-05
0.000328342
0.00023989
0.000145673
8.29048e-05
4.34712e-05
2.2577e-05
0.000326007
0.000219032
0.000116429
6.06818e-05
3.05025e-05
1.46434e-05
0.000317148
0.000194012
9.7618e-05
5.06347e-05
2.63417e-05
1.29277e-05
0.000303798
0.0001731
9.0251e-05
5.07439e-05
2.94168e-05
1.59729e-05
0.000286767
0.000158275
9.1891e-05
5.87349e-05
3.94611e-05
2.51752e-05
0.00026695
0.000151758
9.99944e-05
7.29487e-05
5.60045e-05
4.20375e-05
0.000244299
0.00015129
0.000112306
9.07204e-05
7.60306e-05
6.28421e-05
0.000219292
0.000152464
0.000125509
0.00011037
9.90535e-05
8.61858e-05
0.000190709
0.000161285
0.00013513
0.00011257
9.17609e-05
7.54357e-05
0.000221064
0.000171087
0.000138686
0.000110144
8.38745e-05
6.58741e-05
0.000246542
0.000182922
0.000142359
0.000106101
7.288e-05
5.28207e-05
0.000267129
0.000197295
0.0001438
9.7255e-05
5.93967e-05
3.91787e-05
0.000283756
0.000209901
0.000138321
8.2769e-05
4.53248e-05
2.68845e-05
0.000296274
0.000214046
0.000124606
6.57301e-05
3.27912e-05
1.73565e-05
0.000302814
0.0002081
0.00010662
5.07091e-05
2.37181e-05
1.12165e-05
0.000301908
0.000193648
9.13457e-05
4.1588e-05
1.90843e-05
8.4294e-06
0.000293243
0.000175305
8.25687e-05
3.86095e-05
1.83662e-05
8.20844e-06
0.00027935
0.00016179
8.08822e-05
4.09666e-05
2.12613e-05
1.03019e-05
0.000262233
0.000153884
8.46469e-05
4.78556e-05
2.81768e-05
1.57687e-05
0.000243087
0.000152632
9.4108e-05
6.02141e-05
4.0148e-05
2.613e-05
0.000222305
0.000155729
0.000107452
7.63818e-05
5.57861e-05
4.04167e-05
0.000199589
0.000160367
0.000123369
9.62154e-05
7.54439e-05
5.82185e-05
0.000230405
0.000183002
0.000162686
0.000146451
0.000136932
0.000132419
0.000258783
0.000188582
0.000170565
0.000157164
0.000150484
0.000147925
0.000283265
0.000200774
0.00018403
0.000172971
0.000168411
0.000166329
0.000303955
0.000218941
0.000201713
0.000193017
0.000188341
0.000181561
0.0003205
0.000239194
0.000221072
0.000211545
0.000199141
0.000178625
0.000331956
0.000257872
0.000233775
0.000215046
0.000185477
0.000148319
0.000336338
0.000266929
0.000226124
0.000191216
0.000147598
0.000106858
0.000336207
0.000261739
0.000197191
0.000150722
0.000106875
7.33164e-05
0.000331308
0.000244324
0.000164257
0.00011635
8.01059e-05
5.55307e-05
0.00032126
0.000220693
0.000141129
9.82765e-05
7.05598e-05
5.29945e-05
0.000305466
0.000199236
0.000129908
9.41318e-05
7.38068e-05
6.19902e-05
0.000285557
0.000185324
0.000129157
0.000100472
8.63771e-05
7.95309e-05
0.00026188
0.000176419
0.000135558
0.000113963
0.000103751
9.80587e-05
0.000235163
0.00016998
0.000144201
0.000130336
0.000124027
0.000119149
0.00021613
0.000173274
0.000155828
0.000143572
0.000136019
0.000129857
0.000245729
0.000178592
0.000164647
0.00015547
0.000148016
0.000141554
0.000272022
0.000190631
0.000179
0.000171411
0.000161403
0.000149358
0.000294272
0.000208446
0.000198051
0.000188986
0.00017084
0.00014842
0.000311341
0.000230714
0.000217036
0.000199338
0.000165971
0.000130927
0.000320681
0.000252767
0.000225028
0.000190373
0.000141318
0.000101684
0.000323474
0.000264128
0.000208988
0.000158773
0.000106664
7.16385e-05
0.000320459
0.000258508
0.000176092
0.000120826
7.68548e-05
4.99223e-05
0.000311896
0.000240693
0.000145178
9.3068e-05
5.94576e-05
3.96332e-05
0.000299638
0.000216382
0.000126618
8.13041e-05
5.53016e-05
4.00007e-05
0.000281854
0.000192803
0.00011886
8.11997e-05
6.07349e-05
4.85614e-05
0.000262437
0.000175399
0.000118799
8.96223e-05
7.39795e-05
6.45005e-05
0.000240336
0.00016577
0.000125425
0.000103662
9.13606e-05
8.28561e-05
0.000216107
0.000161089
0.000135285
0.000121067
0.000112845
0.000104877
0.000193886
0.000172915
0.000163878
0.000155379
0.000140678
0.000123058
0.000224311
0.0001807
0.00017288
0.000159223
0.000136902
0.00011618
0.000251269
0.00019205
0.000182724
0.000163639
0.000131664
0.000103884
0.000273111
0.000208203
0.00019362
0.000164581
0.000122781
9.05669e-05
0.000286881
0.000225477
0.000198516
0.00015683
0.000107784
7.37669e-05
0.000294975
0.000238996
0.00019071
0.000137495
8.80397e-05
5.64051e-05
0.000298028
0.000239958
0.000168384
0.000111101
6.79404e-05
4.16196e-05
0.000294997
0.000229395
0.000142389
8.77247e-05
5.29031e-05
3.23096e-05
0.000285392
0.000211492
0.000123125
7.34033e-05
4.50257e-05
2.86199e-05
0.000270686
0.000192891
0.000113416
6.91273e-05
4.47479e-05
3.03954e-05
0.000252354
0.000175801
0.000110487
7.19756e-05
4.99477e-05
3.64941e-05
0.000232178
0.000164784
0.000113757
8.17101e-05
6.13826e-05
4.79118e-05
0.000210961
0.000159712
0.000121523
9.51327e-05
7.63592e-05
6.25104e-05
0.000189004
0.000158987
0.00013355
0.000113617
9.69351e-05
8.21134e-05
2.91438e-05
2.19554e-05
1.68617e-05
1.33456e-05
1.18332e-05
1.11599e-05
1.1446e-05
1.26387e-05
1.54527e-05
2.02087e-05
2.71386e-05
3.65902e-05
5.10338e-05
7.29977e-05
1.81253e-05
1.36942e-05
1.02962e-05
7.94871e-06
6.90128e-06
6.40953e-06
6.49218e-06
7.18592e-06
9.13789e-06
1.29026e-05
1.88965e-05
2.7613e-05
4.03714e-05
5.77506e-05
1.08507e-05
7.89849e-06
5.72367e-06
4.31424e-06
3.69019e-06
3.3954e-06
3.43975e-06
3.92281e-06
5.38039e-06
8.39759e-06
1.34318e-05
2.0863e-05
3.12897e-05
4.49564e-05
6.29941e-06
4.13451e-06
2.8159e-06
2.07597e-06
1.76107e-06
1.61765e-06
1.67471e-06
2.05831e-06
3.18425e-06
5.56759e-06
9.66105e-06
1.57692e-05
2.42253e-05
3.52441e-05
3.59336e-06
1.96533e-06
1.21332e-06
8.72272e-07
7.3746e-07
6.87172e-07
7.61786e-07
1.08438e-06
1.96631e-06
3.82988e-06
7.10519e-06
1.2113e-05
1.91387e-05
2.8573e-05
2.11308e-06
8.90082e-07
4.66468e-07
3.20119e-07
2.7067e-07
2.67239e-07
3.50955e-07
6.31299e-07
1.34625e-06
2.83999e-06
5.50706e-06
9.69873e-06
1.57476e-05
2.40777e-05
1.40986e-06
4.4537e-07
1.76303e-07
1.06204e-07
9.05221e-08
1.07284e-07
1.95556e-07
4.54464e-07
1.08008e-06
2.3644e-06
4.66432e-06
8.34054e-06
1.37652e-05
2.14317e-05
1.18212e-06
3.1289e-07
8.87918e-08
3.91588e-08
3.46973e-08
6.05361e-08
1.55017e-07
4.13705e-07
1.01326e-06
2.21402e-06
4.33794e-06
7.73161e-06
1.27766e-05
2.00067e-05
1.23252e-06
3.25457e-07
8.77413e-08
3.4547e-08
3.19024e-08
6.40187e-08
1.70216e-07
4.48162e-07
1.0692e-06
2.2764e-06
4.36302e-06
7.65392e-06
1.25281e-05
1.95957e-05
1.5449e-06
4.51394e-07
1.56355e-07
8.34937e-08
7.6665e-08
1.15956e-07
2.42247e-07
5.57769e-07
1.23385e-06
2.50166e-06
4.62736e-06
7.91607e-06
1.27596e-05
1.98684e-05
2.30494e-06
8.01556e-07
3.74036e-07
2.5091e-07
2.27532e-07
2.75966e-07
4.36318e-07
8.14113e-07
1.58056e-06
2.9605e-06
5.20349e-06
8.61325e-06
1.36444e-05
2.10951e-05
4.14494e-06
1.72504e-06
9.4813e-07
7.13844e-07
6.46992e-07
7.03897e-07
9.2229e-07
1.40792e-06
2.33109e-06
3.92195e-06
6.43482e-06
1.01683e-05
1.55922e-05
2.34668e-05
7.66108e-06
3.74146e-06
2.27092e-06
1.81812e-06
1.6718e-06
1.73647e-06
2.05331e-06
2.73249e-06
3.95131e-06
5.9723e-06
9.09882e-06
1.36404e-05
2.00525e-05
2.90027e-05
1.27989e-05
7.32238e-06
4.89935e-06
4.08196e-06
3.83917e-06
3.94421e-06
4.43524e-06
5.45586e-06
7.2245e-06
1.00758e-05
1.44029e-05
2.06632e-05
3.00179e-05
4.28791e-05
1.39501e-05
1.10338e-05
9.09078e-06
7.71581e-06
7.33639e-06
7.29187e-06
7.59296e-06
8.18123e-06
9.4472e-06
1.17888e-05
1.55811e-05
2.09536e-05
2.93008e-05
4.40101e-05
7.98745e-06
6.20946e-06
5.02092e-06
4.2099e-06
3.9878e-06
3.95074e-06
4.1024e-06
4.43908e-06
5.27018e-06
7.01821e-06
1.01642e-05
1.51165e-05
2.29721e-05
3.56613e-05
4.50258e-06
3.23202e-06
2.51369e-06
2.08813e-06
1.97983e-06
1.96147e-06
2.04695e-06
2.27593e-06
2.8933e-06
4.28019e-06
6.93195e-06
1.13438e-05
1.82842e-05
2.88359e-05
2.54279e-06
1.5518e-06
1.1247e-06
9.24397e-07
8.78776e-07
8.74913e-07
9.33982e-07
1.1115e-06
1.60007e-06
2.72006e-06
4.9221e-06
8.69995e-06
1.46198e-05
2.33756e-05
1.48531e-06
7.06355e-07
4.51507e-07
3.61929e-07
3.44088e-07
3.48864e-07
3.98205e-07
5.4781e-07
9.48605e-07
1.86284e-06
3.67831e-06
6.85826e-06
1.18987e-05
1.93943e-05
9.50066e-07
3.32293e-07
1.68998e-07
1.2614e-07
1.19376e-07
1.28627e-07
1.73914e-07
3.07274e-07
6.52086e-07
1.42774e-06
2.96639e-06
5.68869e-06
1.00579e-05
1.66326e-05
7.0642e-07
1.90499e-07
6.73912e-08
4.10508e-08
3.86534e-08
5.04055e-08
9.53187e-08
2.24081e-07
5.4697e-07
1.25813e-06
2.64878e-06
5.09733e-06
9.04113e-06
1.50124e-05
6.32832e-07
1.52903e-07
3.90097e-08
1.60306e-08
1.53805e-08
2.944e-08
7.79553e-08
2.1355e-07
5.43529e-07
1.24947e-06
2.59416e-06
4.91669e-06
8.61335e-06
1.41776e-05
6.66663e-07
1.64367e-07
4.16151e-08
1.60626e-08
1.582e-08
3.31016e-08
8.98014e-08
2.43106e-07
6.03535e-07
1.34824e-06
2.72119e-06
5.02765e-06
8.62237e-06
1.39756e-05
7.99877e-07
2.21775e-07
7.55271e-08
4.14745e-08
4.00981e-08
6.21427e-08
1.32385e-07
3.13842e-07
7.2271e-07
1.53475e-06
2.97823e-06
5.32737e-06
8.90986e-06
1.4194e-05
1.08857e-06
3.80526e-07
1.87934e-07
1.31264e-07
1.23291e-07
1.52127e-07
2.44271e-07
4.6722e-07
9.41079e-07
1.83966e-06
3.37695e-06
5.80876e-06
9.46817e-06
1.48472e-05
1.77619e-06
7.96561e-07
5.02851e-07
3.94346e-07
3.64483e-07
4.00354e-07
5.28435e-07
8.15219e-07
1.37923e-06
2.3927e-06
4.06174e-06
6.62836e-06
1.04296e-05
1.59901e-05
3.1865e-06
1.73816e-06
1.2555e-06
1.05735e-06
9.81397e-07
1.02347e-06
1.21109e-06
1.60696e-06
2.32445e-06
3.54154e-06
5.46989e-06
8.33991e-06
1.24578e-05
1.82845e-05
5.56192e-06
3.56035e-06
2.7745e-06
2.47125e-06
2.35115e-06
2.42167e-06
2.72202e-06
3.32678e-06
4.35881e-06
6.02054e-06
8.52395e-06
1.2079e-05
1.6944e-05
2.32582e-05
6.31113e-06
5.04603e-06
4.36138e-06
3.97162e-06
4.00801e-06
4.16935e-06
4.45878e-06
4.8621e-06
5.55407e-06
6.77055e-06
8.87748e-06
1.21174e-05
1.71365e-05
2.56786e-05
3.3973e-06
2.58788e-06
2.19976e-06
1.99966e-06
2.02885e-06
2.11746e-06
2.27047e-06
2.49407e-06
2.93123e-06
3.80241e-06
5.45936e-06
8.26457e-06
1.28979e-05
2.07465e-05
1.80712e-06
1.2287e-06
1.00563e-06
9.1266e-07
9.3232e-07
9.78317e-07
1.059e-06
1.19504e-06
1.50311e-06
2.18056e-06
3.54872e-06
6.00967e-06
1.01807e-05
1.7088e-05
9.87862e-07
5.4829e-07
4.14995e-07
3.72815e-07
3.82584e-07
4.05286e-07
4.50683e-07
5.44735e-07
7.78734e-07
1.32142e-06
2.45622e-06
4.5767e-06
8.22526e-06
1.41816e-05
5.87772e-07
2.43218e-07
1.56469e-07
1.35478e-07
1.38944e-07
1.50682e-07
1.80229e-07
2.53616e-07
4.42893e-07
8.90126e-07
1.84097e-06
3.65857e-06
6.82982e-06
1.20186e-05
4.02738e-07
1.21285e-07
5.72649e-08
4.43696e-08
4.51528e-08
5.25615e-08
7.54823e-08
1.38868e-07
3.0408e-07
6.94746e-07
1.52595e-06
3.12326e-06
5.9239e-06
1.05201e-05
3.24237e-07
7.91697e-08
2.44508e-08
1.40706e-08
1.41266e-08
2.04276e-08
4.18024e-08
1.03486e-07
2.63794e-07
6.37748e-07
1.41999e-06
2.90261e-06
5.47809e-06
9.67193e-06
3.07221e-07
7.05015e-08
1.63531e-08
5.9641e-09
6.02661e-09
1.28662e-08
3.6156e-08
1.03252e-07
2.74246e-07
6.62031e-07
1.448e-06
2.89609e-06
5.35621e-06
9.28466e-06
3.33226e-07
7.84867e-08
1.88145e-08
7.11434e-09
7.33867e-09
1.59056e-08
4.42634e-08
1.23592e-07
3.18867e-07
7.44685e-07
1.5745e-06
3.04985e-06
5.48585e-06
9.2872e-06
3.99001e-07
1.06399e-07
3.55843e-08
2.00861e-08
2.01847e-08
3.17672e-08
6.86364e-08
1.66714e-07
3.97122e-07
8.77987e-07
1.779e-06
3.32426e-06
5.80247e-06
9.58251e-06
5.28991e-07
1.86994e-07
9.4489e-08
6.75544e-08
6.50429e-08
8.13186e-08
1.31834e-07
2.56735e-07
5.33011e-07
1.08267e-06
2.07378e-06
3.71841e-06
6.28935e-06
1.01388e-05
8.36837e-07
4.11984e-07
2.70574e-07
2.1415e-07
2.00594e-07
2.22977e-07
2.97204e-07
4.64093e-07
8.03529e-07
1.44072e-06
2.54282e-06
4.31373e-06
7.02039e-06
1.10086e-05
1.50956e-06
9.46537e-07
7.15227e-07
6.01816e-07
5.61058e-07
5.90257e-07
7.05782e-07
9.45207e-07
1.38641e-06
2.15746e-06
3.42551e-06
5.39293e-06
8.31038e-06
1.25437e-05
2.80113e-06
2.02338e-06
1.65451e-06
1.46984e-06
1.39589e-06
1.44405e-06
1.63706e-06
2.01282e-06
2.64743e-06
3.6698e-06
5.23566e-06
7.52617e-06
1.07561e-05
1.52646e-05
2.96999e-06
2.30259e-06
1.96874e-06
1.84269e-06
1.92189e-06
2.08644e-06
2.336e-06
2.66781e-06
3.16776e-06
3.97325e-06
5.29306e-06
7.34923e-06
1.05479e-05
1.57817e-05
1.49541e-06
1.08845e-06
9.12566e-07
8.55389e-07
9.01574e-07
9.86175e-07
1.11076e-06
1.2827e-06
1.57184e-06
2.10325e-06
3.08162e-06
4.7647e-06
7.58554e-06
1.24002e-05
7.53474e-07
4.78187e-07
3.83704e-07
3.59907e-07
3.83261e-07
4.23202e-07
4.83098e-07
5.75312e-07
7.56645e-07
1.13698e-06
1.9056e-06
3.32851e-06
5.82607e-06
1.01285e-05
4.01679e-07
2.00913e-07
1.46472e-07
1.35912e-07
1.45757e-07
1.6316e-07
1.92362e-07
2.46972e-07
3.719e-07
6.58959e-07
1.27383e-06
2.47039e-06
4.6408e-06
8.41119e-06
2.4195e-07
8.77148e-08
5.20114e-08
4.59996e-08
4.93754e-08
5.69275e-08
7.28931e-08
1.10195e-07
2.04633e-07
4.32276e-07
9.36391e-07
1.95163e-06
3.84185e-06
7.16871e-06
1.71422e-07
4.62641e-08
1.89085e-08
1.42775e-08
1.51805e-08
1.90702e-08
2.99051e-08
5.96921e-08
1.39113e-07
3.34511e-07
7.73062e-07
1.66977e-06
3.357e-06
6.33648e-06
1.44203e-07
3.34934e-08
8.93146e-09
4.51162e-09
4.68481e-09
7.57175e-09
1.71463e-08
4.54945e-08
1.22187e-07
3.10221e-07
7.28173e-07
1.57502e-06
3.15307e-06
5.90665e-06
1.43252e-07
3.20908e-08
6.8509e-09
2.16785e-09
2.23988e-09
5.2754e-09
1.57644e-08
4.711e-08
1.30721e-07
3.30749e-07
7.621e-07
1.61068e-06
3.15133e-06
5.77249e-06
1.60741e-07
3.65131e-08
8.30773e-09
3.08959e-09
3.28361e-09
7.18466e-09
2.03623e-08
5.86869e-08
1.57567e-07
3.85247e-07
8.5628e-07
1.74695e-06
3.31081e-06
5.89306e-06
1.96333e-07
5.02262e-08
1.64831e-08
9.58797e-09
9.92903e-09
1.554e-08
3.35406e-08
8.31823e-08
2.0523e-07
4.73596e-07
1.00491e-06
1.96946e-06
3.60796e-06
6.23672e-06
2.68856e-07
9.37881e-08
4.73598e-08
3.44501e-08
3.39742e-08
4.27678e-08
6.92104e-08
1.36118e-07
2.90008e-07
6.11143e-07
1.22064e-06
2.28734e-06
4.04558e-06
6.79071e-06
4.50018e-07
2.24065e-07
1.45719e-07
1.1524e-07
1.09657e-07
1.23901e-07
1.66602e-07
2.62515e-07
4.6293e-07
8.54838e-07
1.56588e-06
2.76796e-06
4.69404e-06
7.61838e-06
8.71463e-07
5.51613e-07
4.08102e-07
3.38661e-07
3.17881e-07
3.40541e-07
4.14794e-07
5.64879e-07
8.43767e-07
1.34431e-06
2.20159e-06
3.59534e-06
5.75291e-06
8.94554e-06
1.71778e-06
1.2403e-06
9.90794e-07
8.62055e-07
8.17256e-07
8.56761e-07
9.91302e-07
1.24571e-06
1.67239e-06
2.36297e-06
3.44756e-06
5.09599e-06
7.52518e-06
1.1019e-05
1.57558e-06
1.15627e-06
9.26103e-07
8.35069e-07
8.5862e-07
9.51764e-07
1.11658e-06
1.35688e-06
1.72881e-06
2.3201e-06
3.26565e-06
4.7367e-06
6.99439e-06
1.05508e-05
7.40319e-07
5.03261e-07
3.93604e-07
3.56033e-07
3.70574e-07
4.14406e-07
4.89447e-07
6.03622e-07
8.00565e-07
1.15987e-06
1.81388e-06
2.9424e-06
4.82201e-06
7.98371e-06
3.51271e-07
2.03224e-07
1.51014e-07
1.36846e-07
1.44274e-07
1.63221e-07
1.96242e-07
2.52122e-07
3.64303e-07
5.99951e-07
1.07811e-06
1.97473e-06
3.5626e-06
6.32362e-06
1.80395e-07
7.98566e-08
5.27718e-08
4.71618e-08
5.02002e-08
5.78081e-08
7.25503e-08
1.02536e-07
1.72943e-07
3.37194e-07
6.9556e-07
1.40939e-06
2.73538e-06
5.10343e-06
1.08247e-07
3.4432e-08
1.75944e-08
1.46572e-08
1.56291e-08
1.87317e-08
2.616e-08
4.48017e-08
9.37954e-08
2.15397e-07
4.93276e-07