/*--------------------------------*- C++ -*----------------------------------*\
| =========                 |                                                 |
| \\      /  F ield         | OpenFOAM: The Open Source CFD Toolbox           |
|  \\    /   O peration     | Version:  v2106                                 |
|   \\  /    A nd           | Website:  www.openfoam.com                      |
|    \\/     M anipulation  |                                                 |
\*---------------------------------------------------------------------------*/
FoamFile
{
    version     2.0;
    format      ascii;
    arch        "LSB;label=32;scalar=64";
    class       volScalarField;
    location    "0.00019";
    object      p;
}
// * * * * * * * * * * * * * * * * * * * * * * * * * * * * * * * * * * * * * //

dimensions      [1 -1 -2 0 0 0 0];

internalField   nonuniform List<scalar> 
144746
(
196392
196531
196211
196086
196075
195762
195511
195077
194524
193974
193349
193056
192773
193367
195965
196190
196113
196122
196057
195763
195474
195060
194496
193951
193349
193058
192829
193515
196353
196355
196283
196241
196102
195839
195544
195129
194585
194032
193417
193016
192670
192978
196615
196534
196432
196372
196171
195947
195616
195196
194684
194153
193616
193197
192882
193006
196986
196785
196616
196489
196279
196032
195681
195268
194784
194281
193797
193393
193109
193156
197332
197072
196881
196678
196437
196128
195750
195327
194869
194401
193959
193599
193358
193367
197562
197249
197020
196786
196517
196203
195830
195428
194996
194580
194143
193812
193618
193525
197695
197408
197164
196900
196626
196318
195955
195559
195138
194703
194301
193936
193687
193617
197917
197541
197247
196983
196716
196440
196090
195683
195262
194820
194396
194025
193751
193615
197912
197573
197293
197054
196825
196573
196228
195802
195364
194912
194475
194069
193750
193573
197995
197677
197369
197139
196929
196691
196354
195911
195462
194998
194538
194097
193761
193495
198053
197632
197401
197144
196964
196719
196416
195998
195546
195087
194663
194254
194031
193715
198265
197609
197406
197196
197015
196806
196531
196146
195700
195222
194761
194314
194144
193749
198228
197309
197326
197162
197109
196890
196713
196362
195952
195529
195145
194956
195267
194933
196902
197014
196977
196982
197114
196913
196792
196425
195913
195371
194730
194306
193622
193842
196869
197064
197098
197146
197183
197004
196815
196449
195943
195401
194794
194374
193854
194006
197183
197225
197252
197273
197229
197076
196847
196482
196016
195485
194900
194432
193928
193784
197374
197372
197368
197326
197242
197092
196855
196518
196111
195639
195132
194676
194232
193977
197576
197542
197449
197382
197249
197087
196845
196532
196174
195761
195318
194879
194491
194271
197724
197676
197575
197457
197292
197087
196836
196535
196211
195866
195513
195174
194878
194691
197864
197781
197679
197543
197348
197106
196841
196535
196233
195913
195579
195245
194999
194813
197981
197894
197781
197613
197393
197122
196852
196548
196244
195928
195636
195376
195136
194986
198064
197973
197829
197674
197447
197154
196866
196563
196235
195908
195602
195348
195118
194964
198185
198063
197888
197709
197490
197197
196886
196583
196231
195889
195553
195273
195035
194868
198218
198128
197944
197795
197557
197255
196931
196599
196233
195874
195496
195149
194881
194679
198343
198127
198042
197828
197634
197348
197007
196639
196235
195851
195465
195133
194882
194642
198459
198111
198044
197884
197736
197486
197140
196763
196295
195852
195403
195011
194742
194353
198453
197993
198016
197896
197783
197572
197241
196911
196400
195930
195476
195200
195164
195016
198390
198568
198506
198375
198288
198093
197765
197303
196733
196054
195325
194612
193860
193490
198569
198768
198767
198648
198517
198270
197920
197451
196887
196250
195562
194922
194234
193839
198911
199036
198968
198825
198662
198364
197985
197506
196960
196355
195678
195002
194286
193754
199133
199199
199092
198963
198745
198417
198022
197536
196996
196389
195744
195100
194431
193840
199404
199364
199251
199058
198801
198446
198032
197535
196998
196407
195809
195200
194598
194044
199666
199556
199409
199154
198855
198466
198036
197533
197001
196424
195859
195265
194736
194274
199852
199732
199538
199248
198918
198494
198043
197535
197007
196446
195925
195394
194925
194495
200042
199904
199662
199330
198964
198513
198041
197531
197007
196468
195970
195496
195088
194712
200186
200043
199776
199412
199014
198544
198053
197543
197029
196517
196037
195591
195196
194823
200338
200183
199892
199504
199073
198589
198085
197575
197070
196583
196126
195687
195267
194880
200434
200285
200004
199602
199144
198662
198148
197636
197131
196655
196220
195771
195314
194855
200619
200350
200072
199692
199234
198759
198238
197717
197194
196723
196317
195900
195467
194917
200792
200468
200239
199848
199394
198912
198386
197845
197297
196807
196311
195836
195442
194819
200797
200453
200299
199971
199584
199113
198593
198028
197444
196935
196438
196097
195803
195368
194909
196180
196520
197555
198189
199647
192907
194217
194995
196707
197421
199942
192918
194226
194874
196630
197279
200022
192956
193889
194477
196277
197026
199955
193183
193975
194620
196433
197112
200175
193441
194014
194679
196413
197159
199980
193560
194207
194920
196540
197421
200062
193665
194248
194958
196472
197545
200005
193679
194299
195089
196587
197702
200290
193694
194296
195067
196594
197759
200445
193747
194398
195360
196930
197954
200443
194005
194696
195608
197192
198274
200446
194614
195299
196175
197706
198633
200583
194458
195264
196526
198331
199192
200929
194765
195648
195617
196282
196389
197603
193058
193859
194208
195528
195526
197873
193415
194009
194330
195641
195424
198326
193685
193990
194292
195377
195451
198090
194100
194317
194620
195654
195849
198249
194516
194625
194853
195855
196015
198241
194712
194964
195191
196211
196273
198535
194875
195102
195293
196232
196268
198348
194865
195101
195286
196197
196186
198411
194796
194943
195057
195905
195800
198250
194658
194701
194849
195817
195750
198294
194560
194509
194646
195619
195753
197855
194543
194642
194823
195851
196086
197906
193610
193739
194299
195868
196487
198149
194286
195097
194881
194686
195010
195036
192593
192732
192858
193530
193891
195360
192884
192708
192738
193537
193749
196057
193138
192707
192579
193306
193612
196003
193511
193088
192964
193740
194078
196346
193873
193533
193360
194091
194233
196177
194124
193962
193848
194555
194583
197049
194407
194234
194106
194741
194827
196949
194541
194364
194291
194888
194980
197265
194586
194360
194325
194819
194875
197593
194576
194320
194332
194771
194990
197894
194637
194339
194293
194734
195097
197342
194685
194428
194426
194963
195477
197362
193644
193471
193567
194471
195504
197307
196386
197722
198044
199051
199668
201068
194426
195872
196580
198332
198944
201298
194911
196213
196744
198465
198825
201795
195246
196176
196706
198327
198705
201937
195797
196519
197132
198705
198950
202348
196220
196799
197351
198759
199063
202160
196631
197187
197635
199048
199420
202298
196888
197292
197785
199093
199558
201933
197034
197466
197925
199187
199636
202014
197161
197526
197915
198983
199574
202074
197260
197619
198081
199206
199840
202006
197412
197666
198132
199223
199885
201827
197736
198144
198552
199522
200272
202102
197329
197794
198570
200008
200794
201523
195720
196599
196556
197146
197258
198550
194251
195042
195226
196502
196655
198969
194879
195385
195530
196837
196819
199675
195332
195592
195754
196913
196927
199875
195978
196163
196417
197518
197474
200441
196514
196716
196968
197896
198011
200327
197115
197365
197537
198449
198515
200646
197391
197717
197940
198844
198856
200699
197768
198064
198255
199142
199028
200982
197895
198147
198337
199128
198904
200991
197959
198194
198369
199052
199021
200983
198002
198136
198180
198688
198731
201033
198220
198399
198479
199008
199156
200356
197558
197626
197862
198760
199168
199983
196172
196600
196551
196718
196759
197784
195068
195302
195246
195866
196019
197773
195704
195738
195643
196305
196385
198422
196234
196180
196131
196764
196831
198809
196935
196889
196933
197540
197691
199921
197631
197699
197857
198470
198694
200616
198241
198468
198705
199352
199554
201446
198865
199198
199449
200229
200420
202335
199395
199873
200108
200944
201066
202958
199827
200336
200560
201393
201485
203367
200261
200640
200867
201632
201811
203389
200580
200764
200898
201423
201667
202684
200821
200903
200941
201200
201442
202193
200135
200134
200196
200510
200844
201227
200217
199631
198826
197645
196604
196106
200867
199641
198539
197756
197102
196707
201350
199369
198575
197588
196927
196670
201849
199501
198880
197968
197318
196950
201842
199746
199303
198271
197703
197330
202033
200118
199670
198637
198099
197658
202234
200408
199986
198915
198457
197934
202755
200691
200176
198998
198565
198014
202855
200413
200126
199166
198827
198324
203053
200526
200295
199264
198778
198251
202970
200418
200248
199146
198769
198218
202977
200558
200417
199223
198844
198086
202484
200635
200325
199109
198673
197660
202223
201134
200868
200199
200097
199032
198647
197945
197287
196448
195955
196142
199066
197971
197725
197397
197155
197154
199289
198069
197863
197422
197243
197268
200070
197912
198036
197764
197574
197520
199708
198510
198393
197919
197733
197658
199869
198988
198636
198094
197926
197812
200150
199205
198744
198196
198098
197965
200473
199340
198908
198319
198201
198085
200408
199230
198914
198406
198316
198170
200410
199203
198958
198469
198379
198271
200735
198923
198791
198335
198304
198213
200605
198887
198839
198415
198366
198211
200233
199268
198975
198418
198318
197960
200171
199704
199797
199539
199627
199117
195337
196663
196467
196725
196889
197473
196571
197534
197642
198040
198252
198725
197078
197819
197986
198372
198492
198899
197642
198248
198351
198798
198845
199231
197504
198484
198557
199085
199111
199456
197185
198545
198718
199399
199479
199688
196860
198501
198767
199611
199785
199914
196814
198620
198935
199760
200014
200129
196878
198681
199059
199866
200148
200269
197515
199045
199332
200035
200316
200400
198499
199577
199718
200187
200407
200476
199685
200350
200316
200499
200616
200559
200723
200823
200628
200584
200681
200506
201460
201447
201506
201541
201672
201359
199785
198296
197317
195690
194407
193595
199796
197981
196893
195497
194540
193935
199948
197851
196754
195321
194226
193597
200363
197849
196769
195373
194389
193826
200288
197870
196941
195679
194812
194248
200367
198167
197279
196062
195278
194739
200188
198172
197585
196368
195699
195200
200588
198269
197884
196647
196140
195603
200578
198306
197934
196644
196262
195838
201083
198188
197927
196815
196574
196133
201309
198021
197859
196666
196455
196015
201303
198625
198469
197128
196779
196017
200821
198977
198633
197298
196707
195744
200777
199635
199284
198615
198487
197554
197515
196184
195665
194110
193291
193142
198034
195934
195473
194649
194265
194152
198256
196031
195580
194720
194359
194402
198756
196299
196061
195304
194962
194916
198931
196774
196532
195858
195510
195449
198935
197318
197125
196468
196134
195996
198868
197601
197485
196763
196553
196430
199186
197754
197564
196918
196897
196804
199075
197520
197434
196804
196804
196784
199354
197435
197310
196726
196851
196987
198841
197337
197212
196425
196463
196669
199174
197412
197289
196494
196449
196529
198972
197596
197289
196548
196333
196124
198736
198086
198133
197846
197967
197530
194651
194116
192738
191911
191441
192187
195044
194585
193843
193562
193485
194062
194964
194456
194060
193889
193924
194520
195485
194769
194573
194575
194660
195212
194987
195291
194984
195237
195335
195855
194562
195785
195484
195997
196102
196560
194639
195829
195786
196487
196714
197121
194660
195802
195963
196789
197171
197560
194660
195795
196070
196864
197368
197831
194851
195928
196157
196882
197403
197957
194989
196010
196237
196887
197398
198009
195290
196543
196697
197200
197515
197992
195740
197021
196946
197308
197538
197803
195958
197417
197830
198604
198898
198814
202040
201807
201358
200931
200593
200120
199606
199005
198342
197615
196858
196089
195464
195036
201839
201574
201202
200882
200537
200090
199586
198989
198320
197610
196889
196237
195627
195106
201635
201409
201093
200798
200456
200029
199533
198950
198295
197609
196945
196309
195621
194980
201545
201329
201048
200751
200403
199973
199473
198888
198242
197558
196914
196262
195620
194906
201552
201323
201036
200717
200354
199916
199412
198824
198192
197517
196873
196193
195574
194890
201627
201361
201053
200705
200315
199856
199339
198744
198115
197450
196813
196153
195567
194906
201726
201419
201086
200704
200287
199804
199268
198662
198030
197379
196752
196121
195576
194971
201846
201504
201139
200717
200264
199750
199191
198579
197948
197312
196695
196082
195554
194985
201966
201594
201193
200737
200245
199703
199125
198512
197887
197274
196679
196096
195568
195025
202107
201696
201257
200772
200245
199680
199085
198468
197850
197255
196678
196120
195577
195049
202251
201813
201342
200833
200265
199677
199067
198452
197845
197256
196687
196156
195604
195050
202435
201932
201432
200914
200330
199727
199103
198480
197868
197272
196722
196182
195658
195104
202694
202143
201573
201039
200439
199824
199188
198558
197926
197328
196792
196261
195764
195045
202843
202219
201636
201094
200491
199893
199277
198673
198067
197522
197048
196633
196269
195560
203610
203193
202798
202307
201866
201345
200774
200135
199425
198673
197891
197101
196393
195874
203446
203044
202618
202179
201745
201240
200671
200027
199304
198552
197806
197090
196402
195856
203280
202891
202490
202066
201633
201139
200580
199955
199255
198509
197762
197024
196318
195791
203178
202774
202392
201969
201531
201033
200470
199842
199150
198407
197666
196926
196198
195599
203132
202716
202322
201886
201433
200924
200357
199724
199033
198291
197549
196820
196104
195483
203125
202697
202289
201841
201370
200842
200256
199604
198905
198162
197422
196708
196010
195378
203147
202711
202285
201816
201320
200766
200157
199489
198781
198047
197321
196630
195948
195328
203210
202756
202307
201806
201275
200691
200058
199376
198669
197950
197242
196570
195890
195289
203292
202819
202339
201804
201240
200624
199970
199280
198578
197880
197193
196541
195865
195284
203387
202886
202367
201803
201204
200566
199899
199208
198520
197840
197180
196538
195886
195293
203492
202960
202402
201809
201182
200524
199848
199162
198490
197828
197189
196551
195923
195303
203607
203015
202419
201811
201173
200512
199836
199152
198479
197827
197201
196582
195986
195357
203760
203136
202484
201854
201192
200517
199835
199153
198480
197828
197205
196602
196028
195330
203823
203128
202430
201823
201186
200535
199878
199220
198573
197955
197374
196827
196303
195509
205577
205055
204519
203972
203438
202862
202222
201518
200765
199976
199201
198424
197736
197138
205366
204796
204278
203762
203224
202646
202006
201296
200529
199713
198923
198187
197545
196964
205093
204554
204047
203541
203014
202446
201819
201121
200365
199556
198756
197991
197301
196701
204909
204375
203872
203362
202830
202256
201628
200931
200175
199361
198548
197772
197070
196429
204778
204253
203748
203228
202683
202093
201450
200739
199971
199152
198337
197561
196857
196205
204697
204172
203657
203120
202556
201947
201285
200559
199779
198957
198143
197368
196655
195985
204656
204125
203592
203033
202445
201811
201130
200393
199606
198790
197988
197224
196508
195839
204640
204093
203537
202954
202340
201683
200985
200239
199455
198655
197870
197122
196399
195729
204648
204075
203490
202881
202242
201563
200852
200106
199330
198554
197788
197057
196338
195669
204644
204041
203427
202798
202141
201448
200732
199991
199234
198483
197741
197030
196314
195636
204647
204015
203370
202715
202038
201334
200618
199886
199152
198429
197713
197014
196307
195625
204625
203950
203273
202610
201933
201237
200533
199817
199099
198384
197682
197002
196318
195629
204654
203952
203250
202567
201872
201165
200460
199744
199033
198333
197642
196978
196326
195608
204605
203809
203084
202418
201751
201078
200403
199716
199026
198361
197722
197109
196492
195719
206956
206364
205756
205174
204572
203953
203283
202573
201816
201036
200245
199452
198754
198058
206692
206119
205513
204917
204310
203684
203019
202307
201541
200734
199915
199125
198428
197766
206377
205826
205234
204651
204051
203425
202763
202057
201298
200491
199670
198875
198158
197468
206171
205613
205032
204439
203829
203193
202525
201814
201049
200232
199395
198584
197857
197162
206010
205442
204857
204250
203627
202977
202296
201573
200795
199963
199120
198301
197571
196888
205900
205311
204707
204081
203441
202775
202078
201338
200548
199708
198863
198044
197300
196613
205812
205198
204573
203927
203269
202585
201871
201115
200318
199479
198641
197835
197083
196397
205726
205086
204441
203780
203107
202409
201681
200913
200114
199284
198457
197666
196902
196193
205636
204970
204306
203632
202948
202239
201502
200731
199936
199122
198311
197532
196761
196029
205507
204825
204151
203474
202788
202079
201343
200577
199794
198998
198203
197436
196665
195923
205383
204689
204004
203323
202634
201925
201191
200433
199666
198891
198115
197365
196610
195867
205220
204500
203812
203146
202469
201775
201059
200322
199576
198820
198062
197322
196596
195866
205120
204390
203692
203023
202344
201648
200936
200209
199477
198741
198006
197300
196603
195865
204937
204134
203432
202788
202150
201498
200832
200138
199439
198736
198048
197375
196698
195930
208098
207449
206758
206104
205458
204831
204178
203490
202772
202029
201268
200497
199776
199024
207724
207163
206506
205853
205187
204523
203846
203151
202430
201671
200892
200105
199379
198648
207431
206842
206198
205553
204895
204233
203556
202855
202128
201362
200581
199795
199066
198387
207211
206625
205988
205332
204656
203971
203276
202562
201824
201045
200251
199449
198720
198046
207062
206437
205778
205105
204417
203718
203008
202276
201517
200718
199910
199105
198370
197712
206904
206257
205582
204889
204186
203474
202750
201999
201219
200404
199584
198781
198032
197382
206754
206070
205373
204667
203957
203236
202500
201734
200938
200114
199286
198485
197720
197073
206555
205850
205147
204439
203731
203008
202263
201487
200681
199853
199025
198225
197445
196778
206325
205609
204911
204210
203507
202783
202033
201253
200445
199621
198796
197998
197219
196513
206059
205348
204667
203981
203291
202573
201826
201048
200246
199431
198613
197825
197049
196314
205824
205119
204444
203768
203085
202371
201624
200852
200058
199260
198456
197685
196919
196181
205569
204864
204207
203553
202886
202185
201455
200698
199920
199140
198353
197593
196855
196120
205383
204692
204034
203381
202716
202018
201296
200553
199795
199037
198267
197546
196827
196093
205100
204376
203741
203126
202496
201839
201161
200454
199736
199016
198299
197608
196881
196123
208855
208236
207553
206874
206193
205538
204901
204246
203565
202868
202148
201453
200766
199997
208496
207929
207268
206589
205891
205200
204514
203831
203146
202448
201746
201036
200362
199647
208263
207652
206973
206281
205577
204880
204188
203497
202804
202099
201405
200696
200035
199363
208058
207436
206753
206047
205324
204600
203881
203168
202460
201745
201040
200327
199654
198998
207898
207244
206526
205794
205055
204319
203588
202857
202125
201389
200660
199942
199262
198631
207686
206991
206266
205526
204783
204040
203299
202552
201798
201038
200282
199548
198854
198235
207411
206691
205967
205230
204495
203754
203009
202249
201477
200698
199920
199166
198461
197844
207070
206354
205649
204926
204205
203469
202722
201954
201170
200376
199582
198812
198090
197464
206703
206000
205323
204623
203919
203189
202441
201668
200876
200072
199267
198492
197746
197103
206337
205661
205015
204338
203652
202928
202180
201405
200609
199802
198994
198224
197473
196813
206034
205374
204744
204084
203409
202685
201933
201154
200359
199563
198759
198002
197251
196580
205730
205092
204488
203850
203186
202471
201729
200959
200170
199383
198592
197853
197116
196419
205502
204877
204275
203646
202985
202277
201541
200779
200007
199243
198475
197748
197047
196336
205135
204528
203964
203379
202756
202092
201399
200678
199943
199216
198478
197788
197064
196311
209456
208875
208221
207545
206854
206178
205535
204911
204285
203651
203009
202354
201737
200991
209159
208583
207927
207230
206512
205802
205108
204435
203788
203160
202549
201932
201324
200634
208952
208330
207636
206918
206187
205463
204755
204073
203414
202780
202173
201574
200984
200351
208737
208096
207391
206658
205908
205160
204428
203722
203046
202404
201791
201190
200598
199993
208504
207836
207111
206369
205614
204863
204125
203406
202711
202047
201410
200792
200196
199612
208184
207500
206785
206050
205303
204555
203818
203092
202385
201698
201028
200382
199765
199180
207795
207109
206413
205697
204970
204235
203502
202773
202054
201346
200646
199969
199332
198742
207358
206688
206024
205329
204626
203903
203176
202445
201715
200988
200262
199560
198904
198309
206922
206269
205637
204966
204285
203572
202849
202111
201367
200622
199875
199160
198485
197893
206522
205894
205285
204632
203966
203258
202533
201788
201034
200278
199523
198808
198117
197517
206198
205581
204985
204342
203681
202971
202239
201483
200715
199951
199190
198483
197790
197198
205883
205290
204711
204081
203423
202713
201976
201216
200450
199696
198944
198242
197539
196912
205625
205031
204458
203845
203190
202487
201753
200997
200238
199498
198760
198073
197385
196732
205196
204654
204138
203574
202954
202295
201599
200873
200138
199419
198696
197999
197324
196604
209988
209465
208867
208219
207531
206833
206170
205545
204943
204358
203779
203188
202624
201946
209719
209182
208562
207878
207162
206438
205736
205059
204421
203828
203273
202730
202193
201590
209490
208898
208245
207552
206825
206094
205380
204698
204049
203449
202892
202359
201829
201288
209211
208607
207939
207241
206517
205779
205054
204355
203693
203083
202519
201980
201452
200929
208868
208255
207593
206912
206199
205473
204753
204051
203377
202747
202159
201604
201071
200559
208466
207859
207217
206550
205856
205144
204436
203740
203066
202418
201804
201220
200670
200151
208022
207422
206804
206159
205490
204800
204107
203419
202743
202080
201439
200827
200256
199727
207564
206974
206377
205750
205103
204431
203750
203069
202392
201718
201055
200422
199829
199293
207123
206538
205957
205343
204712
204050
203375
202695
202011
201327
200645
199999
199392
198854
206723
206146
205571
204960
204335
203674
202998
202310
201613
200922
200240
199595
198978
198429
206377
205801
205228
204617
203988
203320
202634
201933
201224
200530
199849
199207
198580
198040
206031
205471
204909
204306
203668
202994
202300
201593
200887
200194
199513
198881
198244
197694
205714
205147
204603
204024
203388
202726
202033
201328
200621
199929
199244
198605
197963
197377
205272
204759
204275
203729
203131
202497
201828
201143
200451
199782
199107
198459
197791
197088
210462
210008
209494
208919
208289
207628
206981
206354
205756
205183
204634
204076
203544
202904
210173
209694
209146
208540
207890
207212
206543
205882
205246
204656
204115
203598
203110
202545
209868
209343
208773
208166
207520
206850
206182
205527
204892
204301
203755
203242
202744
202247
209505
208973
208399
207806
207173
206514
205846
205185
204541
203945
203395
202879
202384
201916
209089
208570
208015
207444
206831
206189
205535
204880
204234
203624
203055
202524
202027
201578
208661
208155
207622
207069
206475
205848
205207
204563
203921
203300
202715
202165
201656
201206
208221
207723
207208
206670
206097
205487
204863
204231
203596
202964
202366
201798
201275
200821
207784
207287
206779
206247
205686
205092
204479
203857
203229
202597
201993
201414
200877
200415
207360
206855
206346
205812
205256
204669
204065
203453
202831
202204
201588
201000
200449
199984
206965
206443
205925
205382
204822
204233
203628
203012
202386
201772
201170
200590
200026
199528
206601
206067
205532
204978
204406
203808
203203
202591
201974
201371
200762
200176
199588
199078
206233
205705
205163
204607
204013
203415
202806
202187
201563
200965
200359
199772
199168
198645
205885
205344
204820
204287
203692
203096
202473
201850
201225
200629
200011
199403
198758
198204
205389
204909
204470
203977
203414
202832
202220
201593
200959
200361
199739
199145
198527
197825
203087
203993
204871
205601
207172
208975
201873
202337
202652
203482
205650
208015
201545
201917
202266
202946
204760
207204
200982
201234
201432
201965
203694
205862
200613
200691
200688
200976
202336
204596
200091
200042
199880
199952
201152
203194
199554
199413
199162
199040
200227
201933
198935
198723
198509
198258
199462
200771
198261
197961
197895
197644
198807
199684
197507
197054
197144
197011
198175
198660
196791
196269
196436
196393
197663
198233
196054
195488
195613
195736
197024
197963
195606
194964
195035
195438
196950
198178
193833
192961
193177
194097
196011
197601
204527
205546
206485
207435
208285
209646
203414
204025
204558
205679
207151
209063
203129
203734
204407
205416
206717
208724
202551
203009
203575
204489
205842
207751
202118
202471
202915
203631
204822
206417
201531
201741
202034
202520
203493
204658
200895
200980
201146
201411
202114
202978
200184
200166
200253
200363
200891
201611
199430
199339
199415
199476
199997
200703
198657
198461
198562
198646
199217
199978
197924
197583
197794
197863
198536
199493
197156
196686
196884
196898
197641
198740
196623
196027
196080
196107
196981
198148
195084
194256
194171
194480
195585
197078
206404
207396
208453
209442
210267
211317
205463
206230
207148
208131
209305
210747
205113
205917
206831
207807
208957
210519
204422
205194
206018
207041
208235
209825
203827
204553
205270
206228
207315
208693
203155
203764
204310
205085
205950
207101
202435
202888
203251
203789
204435
205193
201665
201947
202155
202481
202899
203443
200862
200984
201128
201315
201702
202144
200047
200045
200183
200346
200762
201217
199291
199186
199399
199565
200088
200629
198546
198342
198588
198680
199233
199995
198034
197610
197803
197761
198350
199243
196740
196170
196170
196226
196941
197902
207735
208434
209112
210002
210707
211508
206966
207747
208422
209342
210203
211260
206464
207247
208040
208991
209910
211067
205786
206549
207390
208368
209406
210644
205115
205844
206666
207621
208682
209819
204402
205035
205748
206582
207482
208394
203637
204148
204694
205327
205950
206659
202826
203206
203557
203974
204361
204785
201981
202243
202423
202692
202859
203118
201146
201286
201363
201497
201586
201818
200345
200371
200422
200500
200670
200931
199569
199426
199502
199518
199819
200159
198944
198626
198761
198712
199036
199424
197872
197479
197471
197387
197722
198193
208635
209285
209903
210578
211161
211798
208006
208754
209388
210168
210890
211704
207416
208195
208936
209779
210606
211517
206742
207540
208342
209271
210201
211215
206061
206848
207685
208663
209660
210735
205362
206077
206880
207805
208762
209722
204636
205236
205939
206716
207502
208213
203873
204342
204892
205451
205981
206491
203072
203402
203769
204097
204401
204620
202254
202451
202654
202810
202873
202955
201432
201533
201622
201609
201655
201717
200649
200597
200593
200530
200585
200660
199941
199724
199744
199663
199822
200032
198994
198647
198605
198442
198623
198918
209261
209826
210386
210994
211531
212051
208732
209404
210033
210736
211369
212035
208142
208859
209591
210367
211098
211862
207479
208250
209040
209912
210777
211649
206796
207606
208442
209398
210354
211330
206111
206905
207736
208690
209638
210636
205420
206145
206915
207782
208640
209542
204712
205312
205956
206640
207324
208043
203959
204411
204903
205382
205875
206302
203171
203462
203789
204055
204298
204482
202395
202555
202698
202780
202850
202954
201637
201605
201634
201555
201564
201551
200894
200715
200700
200550
200603
200626
200045
199700
199599
199377
199402
199548
209729
210168
210609
211113
211598
212122
209294
209854
210394
210991
211567
212193
208734
209368
210021
210731
211399
212071
208103
208815
209554
210368
211145
211918
207435
208210
209031
209951
210864
211780
206764
207563
208419
209391
210384
211372
206105
206884
207729
208693
209683
210710
205444
206142
206901
207751
208595
209491
204761
205339
205948
206630
207274
207953
204043
204453
204883
205348
205768
206129
203319
203560
203825
204014
204156
204336
202582
202605
202685
202676
202709
202730
201869
201750
201721
201583
201578
201521
201079
200779
200596
200377
200264
200260
210163
210518
210826
211188
211518
211950
209806
210278
210683
211148
211578
212145
209294
209865
210392
210966
211515
212154
208705
209369
210010
210708
211378
212095
208063
208797
209546
210350
211185
212041
207395
208167
208979
209897
210873
211845
206740
207518
208357
209342
210380
211437
206095
206822
207630
208557
209523
210524
205451
206094
206797
207594
208402
209297
204794
205303
205832
206433
207035
207740
204132
204469
204842
205228
205559
205856
203452
203595
203755
203873
203965
204076
202830
202760
202766
202698
202700
202661
202065
201857
201694
201476
201364
201288
210605
210911
211124
211372
211614
211890
210304
210718
211020
211354
211665
212058
209866
210395
210832
211287
211676
212202
209353
209968
210506
211048
211602
212232
208774
209444
210071
210710
211495
212263
208148
208846
209541
210375
211317
212215
207515
208218
208959
209901
210948
211949
206878
207546
208293
209225
210235
211233
206244
206861
207547
208390
209291
210211
205611
206135
206690
207372
208053
208841
204985
205368
205767
206262
206730
207254
204348
204571
204793
205032
205194
205356
203755
203804
203811
203790
203777
203687
203037
202914
202790
202540
202407
202244
195848
196486
196483
196320
197072
197646
194239
194240
194240
194508
195823
196596
194166
193853
193707
193889
195247
195844
194131
193577
193259
193245
194523
194920
194217
193551
193181
192946
194026
194062
194247
193592
193233
192834
193636
192921
194362
193731
193417
192906