/*--------------------------------*- C++ -*----------------------------------*\
| =========                 |                                                 |
| \\      /  F ield         | OpenFOAM: The Open Source CFD Toolbox           |
|  \\    /   O peration     | Version:  v2106                                 |
|   \\  /    A nd           | Website:  www.openfoam.com                      |
|    \\/     M anipulation  |                                                 |
\*---------------------------------------------------------------------------*/
FoamFile
{
    version     2.0;
    format      ascii;
    arch        "LSB;label=32;scalar=64";
    class       volScalarField;
    location    "0.00019";
    object      T;
}
// * * * * * * * * * * * * * * * * * * * * * * * * * * * * * * * * * * * * * //

dimensions      [0 0 0 1 0 0 0];

internalField   nonuniform List<scalar> 
144746
(
288.25
288.439
288.474
288.668
288.932
289.072
289.203
289.234
289.168
288.98
288.592
288.283
288.084
288.219
288.126
288.346
288.556
288.859
289.139
289.297
289.413
289.449
289.375
289.186
288.775
288.398
288.121
288.239
288.376
288.586
288.878
289.209
289.466
289.617
289.706
289.725
289.65
289.45
289.025
288.557
288.139
287.982
288.72
289.001
289.322
289.644
289.851
289.981
290.023
290.017
289.929
289.711
289.311
288.818
288.352
288.047
289.155
289.464
289.77
290.044
290.213
290.3
290.314
290.288
290.172
289.934
289.552
289.071
288.596
288.213
289.533
289.846
290.142
290.369
290.502
290.548
290.54
290.486
290.353
290.105
289.724
289.264
288.807
288.407
289.749
290.061
290.346
290.553
290.666
290.706
290.694
290.635
290.491
290.243
289.849
289.399
288.961
288.527
289.824
290.15
290.442
290.646
290.766
290.81
290.801
290.737
290.58
290.304
289.917
289.447
288.982
288.573
289.872
290.158
290.446
290.669
290.804
290.866
290.858
290.782
290.618
290.333
289.933
289.461
288.978
288.539
289.735
290.048
290.374
290.639
290.811
290.888
290.88
290.793
290.612
290.31
289.894
289.392
288.877
288.437
289.499
289.817
290.179
290.513
290.742
290.844
290.844
290.747
290.541
290.207
289.75
289.199
288.666
288.263
289.208
289.405
289.813
290.205
290.507
290.644
290.673
290.578
290.351
289.984
289.501
288.943
288.483
288.143
289.073
289.017
289.366
289.776
290.11
290.296
290.351
290.27
290.035
289.641
289.137
288.6
288.238
287.973
288.93
288.716
288.951
289.239
289.577
289.763
289.861
289.792
289.581
289.221
288.78
288.468
288.481
288.295
288.342
288.489
288.619
288.83
289.1
289.222
289.348
289.338
289.209
288.911
288.401
287.919
287.428
287.374
288.53
288.77
288.976
289.2
289.421
289.549
289.637
289.615
289.463
289.143
288.617
288.086
287.599
287.463
288.996
289.257
289.492
289.702
289.864
289.957
289.991
289.937
289.764
289.427
288.905
288.335
287.768
287.375
289.517
289.803
290.026
290.186
290.289
290.331
290.324
290.25
290.074
289.747
289.251
288.666
288.065
287.543
290.009
290.277
290.438
290.553
290.594
290.604
290.572
290.483
290.313
290.01
289.547
288.967
288.366
287.833
290.327
290.571
290.707
290.775
290.785
290.767
290.715
290.617
290.454
290.181
289.767
289.253
288.713
288.207
290.485
290.711
290.844
290.894
290.888
290.85
290.785
290.676
290.513
290.248
289.855
289.374
288.893
288.418
290.528
290.765
290.902
290.946
290.936
290.885
290.812
290.699
290.531
290.262
289.893
289.46
288.996
288.554
290.477
290.737
290.889
290.96
290.958
290.901
290.819
290.702
290.515
290.231
289.852
289.419
288.962
288.531
290.339
290.636
290.83
290.932
290.95
290.901
290.808
290.681
290.465
290.154
289.743
289.289
288.832
288.416
290.048
290.421
290.689
290.864
290.904
290.862
290.763
290.608
290.361
290.013
289.55
289.04
288.566
288.172
289.75
290.093
290.464
290.677
290.772
290.749
290.647
290.46
290.165
289.77
289.274
288.752
288.284
287.934
289.528
289.736
290.098
290.366
290.517
290.531
290.432
290.219
289.865
289.419
288.899
288.389
287.989
287.662
289.338
289.365
289.624
289.882
290.079
290.139
290.044
289.835
289.445
288.986
288.506
288.155
288.025
287.848
289.332
289.52
289.591
289.682
289.778
289.808
289.778
289.645
289.354
288.87
288.232
287.546
286.91
286.638
289.789
290.131
290.258
290.302
290.332
290.309
290.239
290.078
289.774
289.279
288.608
287.896
287.244
286.85
290.474
290.794
290.89
290.895
290.874
290.785
290.653
290.45
290.133
289.646
288.978
288.234
287.51
286.932
291.035
291.281
291.332
291.327
291.256
291.118
290.951
290.725
290.408
289.939
289.312
288.586
287.829
287.138
291.451
291.595
291.619
291.566
291.448
291.284
291.101
290.87
290.568
290.139
289.575
288.893
288.154
287.443
291.709
291.787
291.781
291.685
291.531
291.341
291.146
290.917
290.634
290.242
289.739
289.111
288.435
287.778
291.814
291.885
291.857
291.74
291.569
291.358
291.149
290.919
290.646
290.279
289.827
289.27
288.67
288.071
291.86
291.935
291.899
291.771
291.585
291.362
291.145
290.913
290.641
290.286
289.858
289.351
288.81
288.265
291.841
291.943
291.921
291.801
291.611
291.379
291.152
290.915
290.64
290.291
289.866
289.373
288.847
288.31
291.766
291.921
291.93
291.83
291.642
291.409
291.171
290.923
290.639
290.291
289.867
289.367
288.817
288.26
291.587
291.843
291.915
291.838
291.662
291.437
291.19
290.929
290.629
290.269
289.835
289.305
288.703
288.081
291.404
291.699
291.832
291.799
291.656
291.442
291.183
290.899
290.566
290.179
289.727
289.174
288.544
287.875
291.237
291.527
291.713
291.708
291.606
291.407
291.131
290.802
290.412
289.974
289.451
288.863
288.293
287.662
291.015
291.216
291.421
291.472
291.431
291.27
290.992
290.611
290.145
289.645
289.099
288.626
288.26
287.794
288.663
288.914
288.736
288.871
289.008
289.593
287.748
287.943
287.744
287.967
287.842
288.657
287.625
287.684
287.335
287.48
287.221
288.053
287.605
287.438
287.033
287.169
286.88
287.763
287.743
287.457
287.055
287.171
286.825
287.753
287.936
287.526
287.127
287.204
286.872
287.674
288.074
287.742
287.415
287.497
287.243
288.017
288.174
287.923
287.713
287.905
287.927
288.724
288.201
288.088
288.021
288.422
288.854
289.918
288.191
288.163
288.21
288.831
289.595
290.899
288.15
288.186
288.398
289.182
290.065
291.333
288.109
288.198
288.429
289.257
290.172
291.357
288.214
288.284
288.445
289.161
289.914
290.95
288.017
288.114
288.277
288.882
289.303
290.086
287.672
287.923
287.821
287.997
288.035
288.557
286.88
287.011
286.824
287.116
286.902
287.765
286.957
286.822
286.466
286.634
286.262
287.334
287.047
286.709
286.321
286.34
285.957
286.888
287.313
286.882
286.456
286.356
285.965
286.75
287.669
287.14
286.609
286.423
285.988
286.71
287.922
287.445
286.917
286.768
286.314
287.066
288.075
287.647
287.212
287.18
286.839
287.549
288.098
287.778
287.498
287.662
287.537
288.424
288.057
287.813
287.637
287.97
288.058
289.224
287.912
287.729
287.651
288.146
288.464
289.791
287.731
287.577
287.547
288.076
288.592
289.778
287.598
287.517
287.482
287.99
288.511
289.552
287.128
287.044
287.155
287.737
288.131
288.954
286.924
287.283
287.192
287.071
287.099
287.015
286.136
286.105
285.985
286.024
285.799
286.133
286.269
285.899
285.57
285.452
284.981
285.583
286.443
285.881
285.414
285.137
284.524
285.076
286.761
286.125
285.564
285.168
284.473
284.91
287.145
286.485
285.763
285.184
284.381
284.715
287.463
286.837
286.05
285.395
284.554
285.164
287.69
287.042
286.26
285.647
284.901
285.415
287.746
287.122
286.464
286.034
285.502
286.173
287.69
287.097
286.618
286.438
286.162
287.159
287.541
287.033
286.752
286.809
286.851
288.091
287.401
286.995
286.804
286.987
287.326
288.421
287.301
287.009
286.895
287.132
287.54
288.528
286.812
286.579
286.538
286.907
287.383
288.247
288.65
288.871
288.646
288.621
288.521
288.949
287.835
287.963
287.626
287.793
287.527
288.202
288.011
287.822
287.234
287.29
286.881
287.76
288.198
287.717
287.023
286.9
286.399
287.364
288.573
287.889
287.112
286.802
286.181
287.182
288.873
288.054
287.161
286.697
286.038
286.954
289.052
288.197
287.252
286.775
286.127
286.957
289.094
288.22
287.351
286.878
286.269
286.869
289.028
288.277
287.547
287.199
286.667
287.283
288.892
288.299
287.771
287.574
287.228
287.954
288.731
288.365
288.102
288.162
288.007
288.681
288.639
288.455
288.36
288.541
288.564
289.281
288.708
288.677
288.616
288.854
289.111
289.842
288.47
288.529
288.644
289.149
289.531
289.86
288
288.135
287.954
287.953
287.796
288.238
287.401
287.444
287.113
287.274
286.964
287.72
287.696
287.416
286.863
286.895
286.449
287.395
287.952
287.409
286.751
286.566
286.016
286.989
288.396
287.706
286.952
286.558
285.867
286.79
288.835
288.077
287.182
286.537
285.816
286.483
289.25
288.454
287.434
286.69
285.907
286.511
289.433
288.64
287.628
286.905
286.13
286.607
289.549
288.759
287.824
287.245
286.539
287.086
289.454
288.734
288.005
287.652
287.104
287.77
289.279
288.743
288.287
288.182
287.874
288.524
289.113
288.737
288.456
288.488
288.366
289.262
289.103
288.889
288.727
288.873
288.98
289.545
288.771
288.602
288.558
288.94
289.27
289.698
288.012
287.915
287.772
287.705
287.601
287.912
287.6
287.376
287.091
287.102
286.81
287.277
288.034
287.598
287.14
286.909
286.361
286.862
288.507
287.92
287.301
286.839
286.113
286.512
289.112
288.461
287.723
287.009
286.14
286.544
289.721
289.079
288.236
287.282
286.265
286.483
290.244
289.639
288.695
287.585
286.469
286.657
290.678
290.084
289.064
287.961
286.868
287.111
290.942
290.378
289.361
288.4
287.449
287.791
291.049
290.491
289.584
288.883
288.156
288.626
291.085
290.517
289.778
289.344
288.931
289.415
291.008
290.445
289.892
289.671
289.533
289.906
290.867
290.398
290.028
289.943
290.022
290.405
290.411
290.046
289.812
289.886
290.137
290.427
290.416
290.032
289.419
288.707
288.234
288.085
290.108
289.516
288.941
288.557
288.37
288.36
289.4
288.682
288.542
288.325
288.263
288.353
288.679
287.986
288.195
288.274
288.379
288.548
288.12
287.561
287.958
288.181
288.518
288.858
287.965
287.471
287.897
288.221
288.709
289.153
288.031
287.562
288
288.351
288.913
289.36
288.406
287.852
288.253
288.513
289.032
289.425
288.83
288.1
288.518
288.737
289.191
289.54
289.401
288.622
288.922
288.906
289.15
289.417
289.883
289.011
289.157
288.938
289.102
289.234
290.328
289.365
289.301
288.936
289.057
288.973
290.382
289.556
289.262
288.822
288.908
288.677
290.289
289.769
289.482
289.257
289.399
289.139
289.8
289.342
288.796
288.232
287.965
287.994
289.216
288.712
288.59
288.475
288.445
288.519
288.334
287.943
288.155
288.305
288.524
288.802
287.826
287.169
287.755
288.298
288.772
289.211
287.194
286.984
287.613
288.287
289.006
289.597
287.073
286.998
287.632
288.426
289.278
289.916
287.265
287.199
287.827
288.639
289.499
290.099
287.765
287.631
288.214
288.885
289.608
290.155
288.313
288.115
288.583
289.066
289.642
290.104
288.926
288.629
288.923
289.161
289.56
289.961
289.621
288.953
289.08
289.08
289.329
289.648
289.999
289.228
289.141
289.005
289.155
289.351
289.99
289.469
289.154
288.896
289.011
289.041
289.894
289.583
289.449
289.334
289.457
289.45
288.277
288.599
288.257
288.199
288.302
288.728
287.864
288.205
288.282
288.588
288.965
289.499
286.903
287.357
287.828
288.562
289.313
290.049
286.269
286.797
287.584
288.775
289.787
290.649
285.687
286.54
287.65
289.167
290.264
291.097
285.312
286.532
287.962
289.66
290.719
291.407
285.3
286.788
288.406
290.087
291.023
291.576
285.799
287.414
288.945
290.367
291.157
291.638
286.534
288.07
289.366
290.494
291.142
291.595
287.475
288.728
289.683
290.543
291.066
291.468
288.554
289.389
289.936
290.452
290.84
291.22
289.63
290.033
290.159
290.349
290.608
290.934
290.366
290.309
290.151
290.172
290.392
290.659
290.66
290.498
290.387
290.455
290.691
290.904
290.781
290.014
289.36
288.63
288.362
288.23
291.424
290.423
289.554
288.797
288.524
288.475
291.541
290.468
289.633
288.875
288.504
288.413
291.39
290.206
289.545
288.91
288.654
288.634
290.567
289.615
289.336
288.969
288.877
288.9
289.667
289.008
289.075
288.948
288.975
289.038
289.105
288.574
288.851
288.815
288.943
289.055
289.202
288.505
288.807
288.729
288.921
289.018
289.287
288.559
288.793
288.624
288.804
288.9
289.769
288.726
288.853
288.649
288.796
288.805
290.433
289.066
288.936
288.531
288.633
288.57
290.954
289.683
289.289
288.665
288.618
288.352
291.034
290.083
289.475
288.671
288.426
288.065
290.97
290.338
289.768
289.18
289.056
288.68
289.5
288.714
288.115
287.324
287.024
287.035
290.206
288.988
288.265
287.682
287.559
287.603
290.244
289.025
288.401
287.898
287.823
287.92
290.008
288.826
288.511
288.21
288.232
288.356
289.223
288.398
288.448
288.382
288.505
288.73
288.461
287.993
288.322
288.495
288.742
288.996
288.08
287.788
288.24
288.483
288.822
289.084
288.205
287.834
288.26
288.512
288.884
289.115
288.386
287.926
288.325
288.477
288.772
288.967
288.978
288.308
288.531
288.505
288.702
288.899
289.492
288.825
288.749
288.429
288.469
288.6
290.258
289.336
288.973
288.462
288.358
288.333
290.456
289.632
289.056
288.445
288.219
288.044
290.261
289.76
289.352
288.938
288.887
288.61
287.707
287.291
286.493
286.012
285.746
286.032
288.155
287.699
287.082
286.79
286.714
286.966
287.99
287.574
287.172
287.03
287.082
287.415
287.665
287.32
287.217
287.321
287.535
287.971
286.603
286.901
287.066
287.525
287.93
288.475
285.635
286.533
287.023
287.806
288.334
288.918
285.351
286.336
287.086
288.043
288.639
289.2
285.4
286.394
287.275
288.255
288.833
289.333
285.718
286.707
287.561
288.385
288.873
289.344
286.418
287.285
287.905
288.48
288.829
289.281
287.351
287.979
288.268
288.566
288.764
289.165
288.35
288.78
288.67
288.71
288.74
289.02
288.96
289.231
288.791
288.641
288.651
288.859
288.973
289.287
289.011
289.085
289.176
289.281
291.694
291.709
291.598
291.452
291.333
291.159
290.972
290.73
290.401
289.938
289.323
288.573
287.846
287.423
292.005
292.15
292.082
291.953
291.781
291.566
291.341
291.074
290.737
290.295
289.723
289.057
288.341
287.681
292.316
292.453
292.404
292.278
292.088
291.859
291.615
291.34
291.008
290.592
290.076
289.45
288.684
287.862
292.537
292.61
292.553
292.414
292.218
291.989
291.748
291.48
291.169
290.782
290.31
289.701
288.951
288.072
292.654
292.672
292.59
292.428
292.225
292.002
291.771
291.518
291.234
290.882
290.452
289.864
289.143
288.293
292.723
292.7
292.588
292.402
292.182
291.952
291.725
291.484
291.221
290.9
290.504
289.96
289.292
288.487
292.768
292.72
292.585
292.373
292.13
291.883
291.652
291.417
291.17
290.872
290.498
289.987
289.369
288.632
292.801
292.745
292.598
292.367
292.105
291.841
291.598
291.359
291.11
290.819
290.454
289.961
289.373
288.687
292.814
292.77
292.626
292.386
292.11
291.835
291.581
291.337
291.082
290.785
290.412
289.932
289.363
288.7
292.811
292.79
292.666
292.43
292.144
291.86
291.598
291.345
291.081
290.777
290.395
289.911
289.328
288.659
292.774
292.799
292.7
292.482
292.194
291.906
291.632
291.369
291.093
290.78
290.389
289.894
289.268
288.539
292.725
292.784
292.706
292.516
292.245
291.959
291.674
291.393
291.101
290.766
290.359
289.817
289.148
288.385
292.706
292.785
292.708
292.533
292.275
291.993
291.699
291.395
291.063
290.683
290.23
289.658
288.991
288.206
292.612
292.658
292.596
292.45
292.214
291.947
291.651
291.324
290.938
290.501
290.01
289.49
288.993
288.306
293.036
292.969
292.834
292.615
292.396
292.141
291.873
291.592
291.287
290.931
290.462
289.813
289.05
288.419
293.223
293.237
293.115
292.904
292.666
292.396
292.107
291.806
291.489
291.154
290.77
290.273
289.582
288.746
293.328
293.32
293.208
293.008
292.775
292.515
292.24
291.955
291.656
291.342
290.998
290.542
289.851
288.983
293.371
293.315
293.186
292.988
292.765
292.521
292.264
291.996
291.72
291.431
291.114
290.679
289.994
289.125
293.379
293.284
293.124
292.911
292.685
292.451
292.211
291.965
291.717
291.453
291.151
290.729
290.078
289.25
293.381
293.256
293.065
292.827
292.583
292.34
292.108
291.882
291.66
291.418
291.128
290.719
290.1
289.317
293.393
293.254
293.04
292.774
292.503
292.243
292.004
291.782
291.57
291.344
291.065
290.668
290.079
289.343
293.42
293.274
293.047
292.761
292.467
292.19
291.939
291.709
291.492
291.263
290.978
290.584
290.012
289.326
293.45
293.311
293.078
292.777
292.471
292.181
291.92
291.682
291.455
291.211
290.907
290.505
289.942
289.296
293.472
293.35
293.119
292.815
292.499
292.201
291.935
291.691
291.456
291.196
290.875
290.453
289.895
289.249
293.477
293.376
293.154
292.859
292.547
292.249
291.978
291.725
291.477
291.2
290.865
290.424
289.859
289.172
293.463
293.372
293.16
292.884
292.59
292.304
292.032
291.766
291.497
291.202
290.849
290.392
289.818
289.088
293.459
293.379
293.17
292.905
292.616
292.333
292.058
291.781
291.49
291.168
290.78
290.301
289.728
288.969
293.404
293.298
293.094
292.861
292.595
292.324
292.052
291.769
291.453
291.09
290.667
290.192
289.669
288.915
294.238
294.076
293.864
293.622
293.363
293.07
292.743
292.406
292.077
291.75
291.398
290.944
290.391
289.786
294.278
294.137
293.938
293.708
293.451
293.161
292.837
292.496
292.156
291.825
291.512
291.167
290.696
289.99
294.225
294.075
293.878
293.655
293.413
293.146
292.85
292.531
292.209
291.897
291.607
291.278
290.794
290.074
294.152
293.972
293.761
293.534
293.298
293.048
292.779
292.487
292.191
291.901
291.623
291.3
290.823
290.111
294.082
293.88
293.647
293.4
293.153
292.902
292.645
292.379
292.114
291.853
291.592
291.276
290.813
290.128
294.041
293.823
293.564
293.289
293.019
292.755
292.498
292.244
292
291.761
291.515
291.208
290.757
290.103
294.03
293.799
293.516
293.214
292.919
292.637
292.372
292.12
291.884
291.656
291.417
291.114
290.669
290.052
294.035
293.795
293.494
293.172
292.858
292.562
292.287
292.032
291.794
291.565
291.319
291.004
290.556
289.969
294.051
293.803
293.492
293.159
292.835
292.53
292.251
291.991
291.746
291.506
291.239
290.904
290.446
289.879
294.055
293.807
293.493
293.16
292.834
292.528
292.247
291.986
291.735
291.481
291.192
290.836
290.365
289.798
294.048
293.812
293.502
293.171
292.849
292.545
292.265
292
291.744
291.477
291.17
290.796
290.312
289.726
294.006
293.784
293.482
293.168
292.866
292.579
292.306
292.038
291.769
291.482
291.155
290.769
290.282
289.66
293.969
293.761
293.474
293.178
292.888
292.606
292.333
292.054
291.77
291.468
291.123
290.726
290.249
289.594
293.901
293.653
293.378
293.107
292.838
292.575
292.318
292.051
291.762
291.447
291.097
290.702
290.229
289.565
294.961
294.749
294.515
294.274
294
293.694
293.346
292.983
292.623
292.285
291.964
291.627
291.277
290.791
294.888
294.694
294.454
294.214
293.961
293.677
293.353
293.001
292.636
292.283
291.963
291.668
291.349
290.82
294.754
294.549
294.306
294.069
293.828
293.567
293.276
292.954
292.615
292.283
291.98
291.697
291.372
290.833
294.648
294.415
294.159
293.905
293.655
293.398
293.125
292.833
292.528
292.225
291.941
291.661
291.337
290.811
294.568
294.314
294.037
293.758
293.487
293.22
292.95
292.673
292.391
292.113
291.851
291.582
291.264
290.768
294.522
294.249
293.946
293.641
293.348
293.064
292.787
292.513
292.243
291.982
291.736
291.478
291.161
290.689
294.496
294.204
293.878
293.55
293.238
292.94
292.653
292.375
292.111
291.859
291.621
291.367
291.043
290.585
294.476
294.166
293.823
293.48
293.156
292.848
292.553
292.271
292.007
291.758
291.516
291.253
290.908
290.444
294.456
294.131
293.776
293.427
293.098
292.786
292.488
292.202
291.936
291.681
291.425
291.14
290.768
290.294
294.416
294.088
293.734
293.39
293.066
292.757
292.461
292.175
291.903
291.637
291.358
291.045
290.647
290.163
294.371
294.052
293.706
293.372
293.058
292.754
292.459
292.171
291.895
291.618
291.319
290.982
290.568
290.072
294.291
293.985
293.659
293.349
293.055
292.768
292.481
292.196
291.916
291.628
291.309
290.951
290.535
290.024
294.209
293.933
293.637
293.352
293.069
292.789
292.506
292.221
291.931
291.626
291.295
290.935
290.522
289.99
294.074
293.789
293.513
293.257
293.006
292.756
292.504
292.233
291.946
291.637
291.309
290.948
290.525
289.98
295.458
295.23
294.976
294.725
294.453
294.157
293.825
293.465
293.1
292.75
292.429
292.135
291.864
291.472
295.292
295.081
294.825
294.578
294.32
294.046
293.742
293.408
293.055
292.703
292.38
292.091
291.828
291.436
295.141
294.897
294.632
294.378
294.126
293.867
293.588
293.281
292.957
292.627
292.324
292.052
291.794
291.439
295.03
294.771
294.49
294.213
293.941
293.671
293.395
293.105
292.805
292.503
292.222
291.963
291.716
291.381
294.966
294.68
294.372
294.068
293.775
293.491
293.208
292.92
292.63
292.345
292.084
291.842
291.605
291.287
294.911
294.606
294.277
293.95
293.639
293.339
293.046
292.752
292.462
292.187
291.938
291.71
291.471
291.161
294.865
294.535
294.185
293.843
293.521
293.212
292.91
292.609
292.318
292.047
291.804
291.577
291.324
291.008
294.8
294.45
294.089
293.742
293.417
293.104
292.796
292.491
292.2
291.931
291.686
291.448
291.167
290.824
294.719
294.358
293.996
293.65
293.326
293.011
292.699
292.394
292.103
291.833
291.578
291.318
291.007
290.628
294.62
294.263
293.911
293.576
293.259
292.945
292.634
292.329
292.036
291.76
291.487
291.201
290.86
290.453
294.53
294.187
293.849
293.527
293.22
292.913
292.602
292.297
292
291.713
291.418
291.105
290.741
290.321
294.423
294.102
293.791
293.492
293.203
292.91
292.609
292.307
292.007
291.71
291.393
291.053
290.679
290.25
294.325
294.047
293.764
293.483
293.206
292.92
292.628
292.328
292.023
291.712
291.378
291.035
290.659
290.221
294.155
293.887
293.639
293.397
293.153
292.901
292.639
292.352
292.051
291.736
291.404
291.063
290.672
290.217
295.739
295.519
295.272
295.022
294.755
294.473
294.171
293.842
293.493
293.149
292.823
292.54
292.286
291.979
295.563
295.34
295.085
294.832
294.571
294.301
294.013
293.702
293.374
293.042
292.734
292.46
292.223
291.935
295.436
295.178
294.898
294.626
294.356
294.09
293.816
293.526
293.222
292.913
292.631
292.378
292.165
291.91
295.341
295.066
294.766
294.468
294.176
293.893
293.611
293.324
293.035
292.748
292.489
292.258
292.059
291.825
295.283
294.984
294.654
294.329
294.017
293.718
293.426
293.134
292.844
292.568
292.322
292.111
291.924
291.709
295.212
294.886
294.541
294.202
293.88
293.571
293.268
292.965
292.67
292.395
292.154
291.951
291.766
291.555
295.117
294.769
294.415
294.072
293.75
293.438
293.129
292.819
292.518
292.241
291.999
291.792
291.598
291.374
294.99
294.633
294.281
293.942
293.625
293.313
293
292.687
292.385
292.108
291.862
291.642
291.42
291.165
294.848
294.489
294.148
293.818
293.506
293.193
292.878
292.564
292.263
291.986
291.732
291.493
291.232
290.937
294.704
294.359
294.034
293.715
293.408
293.092
292.775
292.461
292.16
291.878
291.611
291.349
291.052
290.724
294.584
294.258
293.951
293.645
293.343
293.027
292.709
292.392
292.085
291.794
291.505
291.218
290.891
290.543
294.46
294.167
293.887
293.602
293.313
293.007
292.695
292.381
292.068
291.761
291.447
291.134
290.789
290.423
294.359
294.102
293.843
293.577
293.304
293.01
292.706
292.391
292.074
291.758
291.428
291.095
290.749
290.372
294.17
293.944
293.725
293.5
293.262
293.005
292.727
292.426
292.113
291.796
291.46
291.125
290.761
290.356
295.952
295.739
295.504
295.259
294.997
294.722
294.439
294.142
293.829
293.511
293.207
292.926
292.69
292.422
295.799
295.567
295.312
295.051
294.782
294.511
294.232
293.942
293.643
293.344
293.064
292.812
292.598
292.357
295.69
295.425
295.137
294.85
294.567
294.29
294.015
293.738
293.457
293.179
292.924
292.701
292.515
292.314
295.599
295.315
295.006
294.696
294.391
294.096
293.81
293.529
293.253
292.992
292.759
292.56
292.394
292.22
295.517
295.211
294.88
294.553
294.236
293.932
293.636
293.346
293.066
292.808
292.585
292.401
292.251
292.095
295.404
295.08
294.743
294.413
294.095
293.787
293.485
293.186
292.9
292.639
292.415
292.234
292.086
291.929
295.26
294.924
294.589
294.265
293.955
293.649
293.345
293.042
292.75
292.484
292.255
292.069
291.911
291.739
295.088
294.75
294.425
294.111
293.811
293.51
293.206
292.902
292.608
292.34
292.105
291.905
291.726
291.528
294.912
294.577
294.266
293.962
293.67
293.369
293.065
292.76
292.466
292.197
291.953
291.737
291.525
291.296
294.751
294.43
294.133
293.836
293.544
293.24
292.931
292.624
292.331
292.059
291.806
291.573
291.323
291.057
294.621
294.319
294.037
293.747
293.454
293.142
292.827
292.513
292.212
291.929
291.658
291.403
291.123
290.837
294.495
294.225
293.965
293.689
293.402
293.092
292.776
292.457
292.147
291.85
291.555
291.271
290.963
290.654
294.387
294.144
293.904
293.65
293.377
293.081
292.771
292.451
292.133
291.825
291.511
291.205
290.88
290.554
294.189
293.99
293.794
293.577
293.338
293.08
292.793
292.49
292.182
291.872
291.545
291.209
290.867
290.499
296.145
295.951
295.734
295.497
295.237
294.962
294.684
294.404
294.117
293.828
293.55
293.288
293.067
292.83
296.007
295.787
295.544
295.283
295.011
294.734
294.457
294.177
293.897
293.624
293.367
293.135
292.938
292.745
295.897
295.641
295.367
295.086
294.801
294.518
294.241
293.97
293.701
293.444
293.207
293
292.827
292.675
295.785
295.514
295.219
294.921
294.626
294.333
294.048
293.771
293.504
293.255
293.035
292.849
292.699
292.57
295.659
295.373
295.069
294.77
294.473
294.178
293.889
293.606
293.332
293.081
292.865
292.692
292.559
292.445
295.51
295.216
294.914
294.618
294.326
294.035
293.745
293.457
293.179
292.923
292.706
292.535
292.407
292.292
295.339
295.038
294.742
294.457
294.177
293.894
293.607
293.318
293.038
292.777
292.556
292.381
292.246
292.119
295.154
294.851
294.564
294.288
294.019
293.742
293.459
293.172
292.893
292.633
292.407
292.224
292.073
291.924
294.973
294.67
294.392
294.121
293.857
293.582
293.299
293.016
292.738
292.48
292.249
292.054
291.879
291.702
294.808
294.516
294.244
293.973
293.705
293.424
293.138
292.852
292.575
292.318
292.086
291.88
291.675
291.459
294.669
294.392
294.128
293.858
293.583
293.29
292.993
292.699
292.417
292.158
291.917
291.695
291.457
291.218
294.532
294.282
294.037
293.776
293.497
293.2
292.894
292.593
292.304
292.032
291.773
291.53
291.263
291.005
294.406
294.175
293.953
293.714
293.448
293.164
292.864
292.561
292.262
291.975
291.689
291.413
291.119
290.837
294.219
294.025
293.844
293.635
293.402
293.149
292.874
292.588
292.295
292.005
291.701
291.393
291.061
290.715
296.321
296.151
295.963
295.751
295.513
295.256
294.993
294.724
294.454
294.183
293.922
293.672
293.459
293.232
296.179
295.981
295.763
295.529
295.279
295.018
294.757
294.491
294.223
293.962
293.718
293.495
293.308
293.126
296.045
295.814
295.571
295.323
295.066
294.805
294.546
294.288
294.031
293.784
293.555
293.351
293.181
293.045
295.903
295.658
295.4
295.146
294.887
294.624
294.361
294.1
293.841
293.599
293.382
293.196
293.049
292.941
295.745
295.495
295.238
294.987
294.732
294.472
294.209
293.945
293.682
293.436
293.219
293.043
292.914
292.827
295.582
295.328
295.075
294.832
294.585
294.329
294.068
293.801
293.535
293.284
293.067
292.895
292.774
292.691
295.407
295.15
294.904
294.669
294.433
294.185
293.928
293.662
293.395
293.141
292.923
292.753
292.63
292.542
295.227
294.967
294.725
294.496
294.266
294.024
293.771
293.508
293.245
292.994
292.779
292.607
292.475
292.369
295.051
294.788
294.548
294.318
294.089
293.848
293.596
293.34
293.083
292.84
292.624
292.446
292.295
292.165
294.888
294.627
294.386
294.15
293.913
293.665
293.41
293.153
292.9
292.667
292.459
292.275
292.098
291.924
294.744
294.49
294.249
294.006
293.758
293.498
293.236
292.978
292.731
292.505
292.289
292.089
291.876
291.67
294.603
294.368
294.134
293.895
293.636
293.37
293.1
292.833
292.577
292.347
292.121
291.9
291.657
291.426
294.472
294.247
294.034
293.815
293.564
293.305
293.032
292.761
292.495
292.248
291.997
291.744
291.461
291.206
294.27
294.08
293.918
293.732
293.51
293.275
293.022
292.757
292.483
292.221
291.946
291.672
291.376
291.046
291.713
291.643
291.655
292.002
293.232
294.803
291.204
290.99
290.86
291.274
292.63
294.158
291.141
290.946
290.896
291.19
292.002
292.774
290.964
290.733
290.64
290.759
291.088
290.949
290.874
290.556
290.319
290.129
289.921
289.298
290.72
290.333
289.935
289.452
288.904
287.983
290.547
290.088
289.524
288.756
288.008
286.978
290.302
289.759
289.067
288.107
287.368
286.425
289.953
289.321
288.595
287.664
287.178
286.407
289.46
288.746
288.107
287.431
287.37
286.911
288.876
288.194
287.761
287.387
287.77
287.924
288.22
287.646
287.413
287.302
287.972
288.776
287.635
287.206
287.147
287.32
288.195
289.195
286.683
286.228
286.33
286.785
287.789
288.761
293.002
292.889
292.744
292.784
293.207
294.167
292.553
292.252
291.992
292.201
292.913
293.95
292.467
292.211
292.073
292.262
292.695
293.162
292.241
291.967
291.837
291.939
292.068
291.983
292.064
291.78
291.604
291.504
291.292
290.556
291.824
291.512
291.246
290.913
290.301
288.995
291.566
291.213
290.83
290.218
289.221
287.717
291.275
290.858
290.324
289.435
288.238
286.93
290.944
290.428
289.735
288.679
287.579
286.74
290.531
289.865
289.048
288.036
287.315
286.996
290.004
289.18
288.373
287.602
287.42
287.649
289.287
288.408
287.75
287.282
287.524
288.148
288.509
287.72
287.306
287.158
287.667
288.412
287.55
286.735
286.46
286.595
287.261
288.032
294.278
294.225
294.102
294.005
293.998
294.353
293.899
293.737
293.581
293.527
293.755
294.243
293.765
293.627
293.539
293.544
293.726
293.984
293.475
293.344
293.253
293.292
293.37
293.381
293.196
293.07
292.956
292.943
292.845
292.349
292.874
292.736
292.565
292.433
292.044
291.012
292.537
292.368
292.124
291.805
291.08
289.638
292.197
291.978
291.636
291.078
290.036
288.543
291.859
291.561
291.1
290.294
289.129
287.89
291.503
291.086
290.471
289.506
288.451
287.662
291.095
290.516
289.78
288.816
288.109
287.767
290.532
289.787
289.013
288.209
287.903
287.933
289.886
288.999
288.292
287.758
287.775
288.017
289.038
288.083
287.446
287.11
287.341
287.648
295.087
295.076
294.924
294.751
294.556
294.515
294.784
294.784
294.621
294.501
294.426
294.506
294.602
294.576
294.476
294.43
294.424
294.522
294.318
294.277
294.215
294.21
294.255
294.312
294.002
293.952
293.897
293.901
293.924
293.729
293.645
293.567
293.492
293.456
293.349
292.744
293.262
293.158
293.043
292.922
292.571
291.56
292.872
292.75
292.578
292.324
291.696
290.38
292.496
292.355
292.108
291.688
290.775
289.374
292.146
291.957
291.606
290.96
289.849
288.597
291.801
291.514
291.025
290.175
289.061
288.097
291.396
290.923
290.272
289.3
288.397
287.812
290.949
290.251
289.471
288.522
287.917
287.662
290.306
289.503