/*--------------------------------*- C++ -*----------------------------------*\
| =========                 |                                                 |
| \\      /  F ield         | OpenFOAM: The Open Source CFD Toolbox           |
|  \\    /   O peration     | Version:  v2106                                 |
|   \\  /    A nd           | Website:  www.openfoam.com                      |
|    \\/     M anipulation  |                                                 |
\*---------------------------------------------------------------------------*/
FoamFile
{
    version     2.0;
    format      ascii;
    arch        "LSB;label=32;scalar=64";
    class       surfaceScalarField;
    location    "0.000151";
    object      phi;
}
// * * * * * * * * * * * * * * * * * * * * * * * * * * * * * * * * * * * * * //

dimensions      [1 0 -1 0 0 0 0];

internalField   nonuniform List<scalar> 
52675
(
3.93929e-10
6.59145e-11
4.88728e-08
-1.6801e-10
-5.01077e-10
3.05826e-10
9.87168e-11
4.88803e-08
-2.26365e-10
2.07437e-10
6.87163e-11
4.89003e-08
-1.89729e-10
1.07648e-10
8.99001e-11
4.89204e-08
-2.11391e-10
3.05692e-13
9.29593e-11
4.89351e-08
-2.08185e-10
-1.14815e-10
1.00921e-10
4.89433e-08
-2.10125e-10
-2.32789e-10
9.99981e-11
4.89496e-08
-2.07266e-10
-3.47351e-10
9.60505e-11
4.89557e-08
-2.04483e-10
-4.5923e-10
8.96861e-11
4.89619e-08
-1.99781e-10
-5.66025e-10
7.90354e-11
4.89674e-08
-1.91907e-10
-6.64365e-10
6.93864e-11
4.89689e-08
-1.86497e-10
-7.64027e-10
4.55388e-11
4.89643e-08
-1.56829e-10
-8.62775e-10
6.57826e-11
4.89602e-08
-1.72114e-10
3.27938e-11
4.8965e-08
-1.07331e-10
-9.8307e-10
4.33173e-10
-2.47053e-11
4.8888e-08
-5.56412e-10
3.25247e-10
-1.38335e-11
4.88961e-08
2.07512e-10
-3.74039e-11
4.89174e-08
9.50646e-11
-2.41025e-11
4.89349e-08
-1.8533e-11
-2.21288e-11
4.89517e-08
-1.32352e-10
-1.56558e-11
4.89652e-08
-2.45779e-10
-1.73492e-11
4.89758e-08
-3.56401e-10
-2.10296e-11
4.89838e-08
-4.66691e-10
-2.56529e-11
4.89894e-08
-5.77951e-10
-3.3212e-11
4.89926e-08
-6.8888e-10
-3.9435e-11
4.89929e-08
-8.02532e-10
-5.62637e-11
4.89921e-08
-9.06743e-10
-4.01332e-11
4.89902e-08
-4.55065e-11
4.89899e-08
-1.02789e-09
4.0175e-10
-1.31235e-10
4.89138e-08
-5.12117e-10
3.04252e-10
-1.39214e-10
4.89235e-08
1.95539e-10
-1.54622e-10
4.89486e-08
8.95539e-11
-1.46805e-10
4.89634e-08
-2.02705e-11
-1.43333e-10
4.89798e-08
-1.31547e-10
-1.37145e-10
4.89914e-08
-2.44793e-10
-1.3723e-10
4.9001e-08
-3.5635e-10
-1.39554e-10
4.90083e-08
-4.66636e-10
-1.43365e-10
4.90139e-08
-5.75317e-10
-1.50787e-10
4.90174e-08
-6.80903e-10
-1.56877e-10
4.90184e-08
-7.8794e-10
-1.68452e-10
4.90191e-08
-8.84934e-10
-1.57231e-10
4.90143e-08
-1.43899e-10
4.9015e-08
-9.89355e-10
4.25387e-10
-2.39475e-10
4.89418e-08
-5.34788e-10
3.2125e-10
-2.59084e-10
4.895e-08
2.07153e-10
-2.67775e-10
4.89722e-08
9.481e-11
-2.64942e-10
4.89859e-08
-1.99196e-11
-2.61799e-10
4.90009e-08
-1.3444e-10
-2.57843e-10
4.90123e-08
-2.49717e-10
-2.5773e-10
4.90222e-08
-3.63041e-10
-2.59041e-10
4.90301e-08
-4.75103e-10
-2.61346e-10
4.90362e-08
-5.87224e-10
-2.66849e-10
4.90404e-08
-6.98261e-10
-2.70896e-10
4.90427e-08
-8.09057e-10
-2.78246e-10
4.90445e-08
-9.10964e-10
-2.70591e-10
4.90423e-08
-2.46732e-10
4.90428e-08
-1.01223e-09
4.28656e-10
-3.52952e-10
4.89658e-08
-5.33162e-10
3.23258e-10
-3.78703e-10
4.89745e-08
2.10055e-10
-3.82887e-10
4.89963e-08
9.71929e-11
-3.83768e-10
4.90091e-08
-1.79467e-11
-3.81003e-10
4.90238e-08
-1.33389e-10
-3.78826e-10
4.90346e-08
-2.49785e-10
-3.78417e-10
4.90444e-08
-3.64128e-10
-3.79099e-10
4.90521e-08
-4.76935e-10
-3.80258e-10
4.90583e-08
-5.89805e-10
-3.839e-10
4.90625e-08
-7.01576e-10
-3.85797e-10
4.9065e-08
-8.12061e-10
-3.89459e-10
4.90668e-08
-9.15054e-10
-3.83678e-10
4.90649e-08
-3.56634e-10
4.90658e-08
-1.01068e-09
4.40966e-10
-4.71117e-10
4.89838e-08
-5.40524e-10
3.33849e-10
-4.96702e-10
4.89965e-08
2.18687e-10
-4.96144e-10
4.90156e-08
1.02534e-10
-4.9952e-10
4.90286e-08
-1.52286e-11
-4.97864e-10
4.90426e-08
-1.33014e-10
-4.97702e-10
4.90534e-08
-2.51306e-10
-4.97572e-10
4.90632e-08
-3.67478e-10
-4.98012e-10
4.90711e-08
-4.81599e-10
-4.98115e-10
4.90775e-08
-5.96033e-10
-4.99645e-10
4.9082e-08
-7.09719e-10
-4.99148e-10
4.9085e-08
-8.20755e-10
-4.99747e-10
4.90867e-08
-9.23928e-10
-4.95912e-10
4.90867e-08
-4.69884e-10
4.90854e-08
-1.01648e-09
4.41435e-10
-5.90364e-10
4.89989e-08
-5.39354e-10
3.33248e-10
-6.12872e-10
4.90159e-08
2.18728e-10
-6.09258e-10
4.90336e-08
1.02556e-10
-6.14518e-10
4.9047e-08
-1.5035e-11
-6.14121e-10
4.90609e-08
-1.32942e-10
-6.15688e-10
4.90718e-08
-2.51365e-10
-6.15859e-10
4.90816e-08
-3.6753e-10
-6.16162e-10
4.90895e-08
-4.8146e-10
-6.15345e-10
4.90958e-08
-5.95645e-10
-6.14842e-10
4.91002e-08
-7.08855e-10
-6.12184e-10
4.9103e-08
-8.19085e-10
-6.10003e-10
4.91045e-08
-9.21883e-10
-6.07571e-10
4.91044e-08
-5.84524e-10
4.91019e-08
-1.01254e-09
4.39748e-10
-7.05906e-10
4.90133e-08
-5.39834e-10
3.30731e-10
-7.26041e-10
4.90331e-08
2.17066e-10
-7.21338e-10
4.90492e-08
1.01596e-10
-7.28378e-10
4.90633e-08
-1.5602e-11
-7.29214e-10
4.90768e-08
-1.33434e-10
-7.32386e-10
4.90878e-08
-2.51752e-10
-7.32924e-10
4.90975e-08
-3.67519e-10
-7.33072e-10
4.91055e-08
-4.80902e-10
-7.31387e-10
4.91119e-08
-5.94444e-10
-7.28957e-10
4.91164e-08
-7.06612e-10
-7.2452e-10
4.91192e-08
-8.16008e-10
-7.19614e-10
4.91207e-08
-9.18143e-10
-7.18099e-10
4.91204e-08
-6.97015e-10
4.91175e-08
-1.0091e-09
4.34165e-10
-8.14641e-10
4.90269e-08
-5.37421e-10
3.25389e-10
-8.35095e-10
4.90475e-08
2.12686e-10
-8.30515e-10
4.9063e-08
9.86506e-11
-8.39982e-10
4.90778e-08
-1.73829e-11
-8.42183e-10
4.90914e-08
-1.34221e-10
-8.47163e-10
4.91026e-08
-2.51477e-10
-8.48274e-10
4.91123e-08
-3.6583e-10
-8.4836e-10
4.91203e-08
-4.77945e-10
-8.45911e-10
4.91264e-08
-5.9017e-10
-8.4169e-10
4.91309e-08
-7.00509e-10
-8.35748e-10
4.9133e-08
-8.08531e-10
-8.27813e-10
4.91344e-08
-9.09837e-10
-8.26265e-10
4.91329e-08
-8.04735e-10
4.91314e-08
-1.00217e-09
4.25159e-10
-9.13555e-10
4.90392e-08
-5.31308e-10
3.17243e-10
-9.37043e-10
4.90597e-08
2.04961e-10
-9.32436e-10
4.90749e-08
9.25049e-11
-9.45279e-10
4.90905e-08
-2.17931e-11
-9.48989e-10
4.9104e-08
-1.36643e-10
-9.56033e-10
4.91154e-08
-2.51659e-10
-9.58072e-10
4.9125e-08
-3.63577e-10
-9.58409e-10
4.91331e-08
-4.73564e-10
-9.55415e-10
4.91392e-08
-5.83733e-10
-9.49477e-10
4.91438e-08
-6.9157e-10
-9.42154e-10
4.91455e-08
-7.97408e-10
-9.30954e-10
4.91466e-08
-8.97285e-10
-9.28776e-10
4.91435e-08
-9.05223e-10
4.91427e-08
-9.90472e-10
4.18034e-10
-1.00694e-09
4.90472e-08
-5.26132e-10
3.10508e-10
-1.03497e-09
4.90679e-08
1.98164e-10
-1.02955e-09
4.90834e-08
8.69421e-11
-1.0465e-09
4.91004e-08
-2.56115e-11
-1.05165e-09
4.91143e-08
-1.38394e-10
-1.06041e-09
4.91264e-08
-2.51004e-10
-1.06331e-09
4.91362e-08
-3.60459e-10
-1.06402e-09
4.91442e-08
-4.6844e-10
-1.06073e-09
4.91498e-08
-5.76692e-10
-1.05322e-09
4.91537e-08
-6.82155e-10
-1.04492e-09
4.91541e-08
-7.85772e-10
-1.03075e-09
4.91541e-08
-8.84143e-10
-1.02819e-09
4.91495e-08
-1.00356e-09
4.91494e-08
-9.75905e-10
3.9614e-10
-1.10359e-09
4.9051e-08
-4.97816e-10
2.92772e-10
-1.13431e-09
4.90745e-08
1.83607e-10
-1.12687e-09
4.90907e-08
7.56324e-11
-1.14747e-09
4.9109e-08
-3.35405e-11
-1.15364e-09
4.91227e-08
-1.42963e-10
-1.16322e-09
4.91347e-08
-2.51907e-10
-1.16635e-09
4.91444e-08
-3.57618e-10
-1.16716e-09
4.91528e-08
-4.62152e-10
-1.16367e-09
4.91588e-08
-5.6684e-10
-1.15511e-09
4.91631e-08
-6.68276e-10
-1.14674e-09
4.9163e-08
-7.67673e-10
-1.13047e-09
4.91619e-08
-8.61179e-10
-1.12881e-09
4.91558e-08
-1.10566e-09
4.91537e-08
-9.4654e-10
4.08836e-10
-1.19208e-09
4.90555e-08
-5.10541e-10
2.99844e-10
-1.22395e-09
4.90828e-08
1.85887e-10
-1.21627e-09
4.90972e-08
7.53402e-11
-1.24241e-09
4.91171e-08
-3.4571e-11
-1.25123e-09
4.91313e-08
-1.4413e-10
-1.26182e-09
4.91444e-08
-2.52482e-10
-1.26502e-09
4.91541e-08
-3.57298e-10
-1.26533e-09
4.91618e-08
-4.61149e-10
-1.2613e-09
4.91667e-08
-5.65215e-10
-1.25193e-09
4.91692e-08
-6.66472e-10
-1.24355e-09
4.91676e-08
-7.66937e-10
-1.22429e-09
4.91648e-08
-8.61629e-10
-1.22316e-09
4.91592e-08
-1.19959e-09
4.91579e-08
-9.46663e-10
3.87348e-10
4.90606e-08
-1.28803e-09
-4.66082e-10
3.01965e-10
4.90876e-08
-1.32394e-09
1.97607e-10
4.91011e-08
-1.3036e-09
8.90734e-11
4.91213e-08
-1.32931e-09
-2.27921e-11
4.9136e-08
-1.33849e-09
-1.35781e-10
4.91484e-08
-1.34998e-09
-2.47556e-10
4.9158e-08
-1.3541e-09
-3.54616e-10
4.91665e-08
-1.3556e-09
-4.5889e-10
4.91729e-08
-1.35307e-09
-5.61514e-10
4.91765e-08
-1.34474e-09
-6.61978e-10
4.91757e-08
-1.33536e-09
-7.61456e-10
4.91718e-08
-1.31199e-09
-8.49421e-10
4.91677e-08
-1.31538e-09
4.91664e-08
-9.22494e-10
-1.28933e-09
2.36559e-10
-1.09032e-12
3.63187e-08
-5.70534e-11
-3.07646e-10
1.88502e-10
2.64344e-11
3.63237e-08
-1.11273e-10
1.31037e-10
-2.32947e-12
3.63432e-08
-7.6941e-11
7.18172e-11
1.53894e-11
3.63601e-08
-9.31466e-11
4.7024e-12
1.66618e-11
3.63729e-08
-8.69517e-11
-6.85321e-11
2.40545e-11
3.6381e-08
-8.93145e-11
-1.43896e-10
2.46382e-11
3.63883e-08
-8.87303e-11
-2.17687e-10
2.31543e-11
3.63957e-08
-8.8725e-11
-2.87474e-10
1.96185e-11
3.64033e-08
-8.79206e-11
-3.49926e-10
1.27319e-11
3.64101e-08
-8.59201e-11
-4.03126e-10
7.38406e-12
3.64136e-08
-8.7706e-11
-4.5649e-10
-1.091e-11
3.64124e-08
-6.78104e-11
-5.08603e-10
9.07285e-12
3.64107e-08
-8.43309e-11
-1.42094e-11
3.64192e-08
-2.62238e-11
-5.91552e-10
2.69012e-10
-4.75988e-11
3.63345e-08
-3.53817e-10
2.03299e-10
-4.10411e-11
3.63385e-08
1.26737e-10
-6.28475e-11
3.63588e-08
5.64263e-11
-5.26275e-11
3.63737e-08
-1.41939e-11
-5.21245e-11
3.63891e-08
-8.27109e-11
-4.72307e-11
3.64016e-08
-1.49754e-10
-4.80477e-11
3.64121e-08
-2.16086e-10
-4.94751e-11
3.64205e-08
-2.82649e-10
-5.12041e-11
3.64273e-08
-3.49565e-10
-5.54669e-11
3.64318e-08
-4.16462e-10
-5.8434e-11
3.64341e-08
-4.86752e-10
-7.02365e-11
3.6436e-08
-5.45891e-10
-5.47994e-11
3.64353e-08
-5.63209e-11
3.64412e-08
-6.27248e-10
2.39428e-10
-1.10152e-10
3.63636e-08
-3.123e-10
1.83917e-10
-1.22096e-10
3.63681e-08
1.17003e-10
-1.35386e-10
3.63912e-08
5.35302e-11
-1.29829e-10
3.64034e-08
-1.30232e-11
-1.26909e-10
3.64179e-08
-7.99102e-11
-1.22087e-10
3.64286e-08
-1.48139e-10
-1.21663e-10
3.64382e-08
-2.16526e-10
-1.22531e-10
3.64463e-08
-2.83708e-10
-1.24435e-10
3.64533e-08
-3.48493e-10
-1.29589e-10
3.64587e-08
-4.10282e-10
-1.33639e-10
3.6462e-08
-4.73064e-10
-1.41469e-10
3.64659e-08
-5.24628e-10
-1.31178e-10
3.64629e-08
-1.16297e-10
3.64704e-08
-5.93183e-10
2.59907e-10
-1.74463e-10
3.63912e-08
-3.30712e-10
1.97305e-10
-1.96048e-10
3.63944e-08
1.25303e-10
-2.03014e-10
3.64147e-08
5.6144e-11
-2.0195e-10
3.64261e-08
-1.37449e-11
-1.99378e-10
3.64397e-08
-8.21781e-11
-1.96617e-10
3.64502e-08
-1.50626e-10
-1.96277e-10
3.64601e-08
-2.18969e-10
-1.9676e-10
3.64686e-08
-2.87118e-10
-1.97695e-10
3.6476e-08
-3.54995e-10
-2.01362e-10
3.64819e-08
-4.22074e-10
-2.03791e-10
3.64862e-08
-4.89245e-10
-2.08142e-10
3.64907e-08
-5.46622e-10
-2.01705e-10
3.64902e-08
-1.78748e-10
3.64978e-08
-6.13122e-10
2.60493e-10
-2.4539e-10
3.64156e-08
-3.24179e-10
1.9788e-10
-2.70454e-10
3.64203e-08
1.28032e-10
-2.72825e-10
3.64398e-08
5.87318e-11
-2.74241e-10
3.64506e-08
-1.13135e-11
-2.71862e-10
3.64637e-08
-8.0788e-11
-2.70296e-10
3.64738e-08
-1.50487e-10
-2.6977e-10
3.64835e-08
-2.20049e-10
-2.70054e-10
3.64919e-08
-2.89168e-10
-2.70517e-10
3.64994e-08
-3.57596e-10
-2.73219e-10
3.65055e-08
-4.2479e-10
-2.74341e-10
3.65101e-08
-4.90713e-10
-2.76649e-10
3.65148e-08
-5.49e-10
-2.72535e-10
3.65147e-08
-2.48572e-10
3.6522e-08
-6.08601e-10
2.70319e-10
-3.20592e-10
3.64351e-08
-3.29027e-10
2.05408e-10
-3.42003e-10
3.64439e-08
1.34133e-10
-3.40791e-10
3.64609e-08
6.21816e-11
-3.43703e-10
3.64719e-08
-9.63061e-12
-3.42609e-10
3.64845e-08
-8.06028e-11
-3.42537e-10
3.64947e-08
-1.51274e-10
-3.4233e-10
3.65044e-08
-2.21716e-10
-3.42533e-10
3.65129e-08
-2.91952e-10
-3.42285e-10
3.65205e-08
-3.61822e-10
-3.43472e-10
3.65267e-08
-4.30571e-10
-3.42707e-10
3.65316e-08
-4.97455e-10
-3.434e-10
3.65363e-08
-5.57391e-10
-3.41103e-10
3.65379e-08
-3.21414e-10
3.65427e-08
-6.13401e-10
2.70214e-10
-3.96635e-10
3.64531e-08
-3.27469e-10
2.04167e-10
-4.11007e-10
3.64657e-08
1.34034e-10
-4.0864e-10
3.64816e-08
6.23817e-11
-4.12288e-10
3.64931e-08
-9.17702e-12
-4.12494e-10
3.65055e-08
-8.03173e-11
-4.13588e-10
3.65157e-08
-1.51196e-10
-4.13709e-10
3.65254e-08
-2.21822e-10
-4.13883e-10
3.65338e-08
-2.92096e-10
-4.13095e-10
3.65414e-08
-3.61862e-10
-4.1292e-10
3.65475e-08
-4.30276e-10
-4.10524e-10
3.65523e-08
-4.96622e-10
-4.09817e-10
3.65569e-08
-5.57292e-10
-4.08312e-10
3.65587e-08
-3.95478e-10
3.65619e-08
-6.11112e-10
2.68433e-10
-4.69075e-10
3.6471e-08
-3.28187e-10
2.02151e-10
-4.77355e-10
3.64854e-08
1.32774e-10
-4.75376e-10
3.65004e-08
6.17463e-11
-4.79532e-10
3.65124e-08
-9.58724e-12
-4.8093e-10
3.65247e-08
-8.06407e-11
-4.83196e-10
3.65349e-08
-1.51391e-10
-4.83765e-10
3.65446e-08
-2.21749e-10
-4.83929e-10
3.65531e-08
-2.9161e-10
-4.8264e-10
3.65606e-08
-3.61064e-10
-4.81126e-10
3.65668e-08
-4.29082e-10
-4.77504e-10
3.65715e-08
-4.95094e-10
-4.75301e-10
3.6576e-08
-5.55538e-10
-4.74144e-10
3.65777e-08
-4.66464e-10
3.65808e-08
-6.10731e-10
2.63786e-10
-5.36267e-10
3.64886e-08
-3.27415e-10
1.98636e-10
-5.42516e-10
3.6503e-08
1.29688e-10
-5.40827e-10
3.65179e-08
5.98902e-11
-5.46028e-10
3.65305e-08
-1.06968e-11
-5.48237e-10
3.65429e-08
-8.10209e-11
-5.51594e-10
3.65534e-08
-1.51118e-10
-5.52494e-10
3.65631e-08
-2.20699e-10
-5.52613e-10
3.65716e-08
-2.89595e-10
-5.51e-10
3.65789e-08
-3.58238e-10
-5.4842e-10
3.65849e-08
-4.25622e-10
-5.44156e-10
3.65891e-08
-4.91386e-10
-5.3995e-10
3.65934e-08
-5.50803e-10
-5.39252e-10
3.65942e-08
-5.32709e-10
3.65986e-08
-6.08822e-10
2.56609e-10
-5.97075e-10
3.65053e-08
-3.24768e-10
1.93089e-10
-6.06876e-10
3.6519e-08
1.23827e-10
-6.04286e-10
3.65342e-08
5.55099e-11
-6.11849e-10
3.65474e-08
-1.38599e-11
-6.14518e-10
3.65599e-08
-8.26917e-11
-6.18929e-10
3.65705e-08
-1.51317e-10
-6.20022e-10
3.65801e-08
-2.19394e-10
-6.20063e-10
3.65887e-08
-2.86825e-10
-6.18129e-10
3.6596e-08
-3.54142e-10
-6.14415e-10
3.66021e-08
-4.19875e-10
-6.09878e-10
3.66058e-08
-4.84039e-10
-6.03601e-10
3.66098e-08
-5.4231e-10
-6.03702e-10
3.66092e-08
-5.93424e-10
3.66144e-08
-6.03154e-10
2.5147e-10
-6.51051e-10
3.65187e-08
-3.24111e-10
1.89163e-10
-6.69397e-10
3.65323e-08
1.19266e-10
-6.64633e-10
3.65482e-08
5.22491e-11
-6.75979e-10
3.65625e-08
-1.58848e-11
-6.78818e-10
3.65755e-08
-8.31932e-11
-6.84105e-10
3.65866e-08
-1.50365e-10
-6.85164e-10
3.65964e-08
-2.17129e-10
-6.85094e-10
3.66049e-08
-2.83435e-10
-6.8285e-10
3.66118e-08
-3.49609e-10
-6.77909e-10
3.66174e-08
-4.13866e-10
-6.73187e-10
3.662e-08
-4.77454e-10
-6.64311e-10
3.66229e-08
-5.34641e-10
-6.66191e-10
3.66209e-08
-6.49774e-10
3.66265e-08
-5.96754e-10
2.33657e-10
-7.04537e-10
3.65286e-08
-3.033e-10
1.76192e-10
-7.32343e-10
3.65446e-08
1.09193e-10
-7.23922e-10
3.65616e-08
4.51499e-11
-7.38945e-10
3.6577e-08
-2.05578e-11
-7.41822e-10
3.659e-08
-8.56777e-11
-7.47741e-10
3.6601e-08
-1.50914e-10
-7.48589e-10
3.66107e-08
-2.15818e-10
-7.48345e-10
3.66194e-08
-2.80159e-10
-7.45836e-10
3.66266e-08
-3.43805e-10
-7.39894e-10
3.66323e-08
-4.04658e-10
-7.35259e-10
3.66344e-08
-4.64514e-10
-7.23936e-10
3.66362e-08
-5.17494e-10
-7.27878e-10
3.66327e-08
-7.05593e-10
3.66365e-08
-5.76195e-10
2.47361e-10
-7.54978e-10
3.65384e-08
-3.1445e-10
1.85391e-10
-7.82809e-10
3.65561e-08
1.14155e-10
-7.71281e-10
3.65717e-08
4.70741e-11
-7.91161e-10
3.65889e-08
-1.95339e-11
-7.97138e-10
3.66025e-08
-8.49958e-11
-8.052e-10
3.66144e-08
-1.50143e-10
-8.07042e-10
3.66241e-08
-2.15091e-10
-8.06735e-10
3.66324e-08
-2.79893e-10
-8.03697e-10
3.66387e-08
-3.44503e-10
-7.96389e-10
3.6643e-08
-4.06981e-10
-7.91029e-10
3.66439e-08
-4.68386e-10
-7.76248e-10
3.66441e-08
-5.23779e-10
-7.80384e-10
3.66408e-08
-7.61323e-10
3.66456e-08
-5.77453e-10
2.34829e-10
3.6553e-08
-8.21241e-10
-2.82683e-10
1.85517e-10
3.65686e-08
-8.42682e-10
1.23332e-10
3.65849e-08
-8.25069e-10
5.95335e-11
3.66021e-08
-8.44199e-10
-8.07233e-12
3.66159e-08
-8.47761e-10
-7.76019e-11
3.6627e-08
-8.55897e-10
-1.48008e-10
3.66365e-08
-8.58526e-10
-2.17264e-10
3.66453e-08
-8.59393e-10
-2.83496e-10
3.66528e-08
-8.58489e-10
-3.45959e-10
3.66581e-08
-8.53365e-10
-4.0435e-10
3.66595e-08
-8.48915e-10
-4.61558e-10
3.66588e-08
-8.30302e-10
-5.17729e-10
3.6657e-08
-8.31822e-10
3.66624e-08
-5.65551e-10
-8.20356e-10
1.09104e-10
-5.06588e-12
2.55589e-08
-1.4652e-11
-1.43909e-10
9.72029e-11
1.60726e-11
2.55695e-08
-6.28735e-11
7.5449e-11
-1.14387e-11
2.55907e-08
-2.51397e-11
5.15972e-11
2.36201e-12
2.56071e-08
-3.54631e-11
2.09612e-11
2.18568e-12
2.56202e-08
-2.79414e-11
-1.30032e-11
8.10347e-12
2.5629e-08
-3.12357e-11
-4.76714e-11
8.91824e-12
2.56364e-08
-3.20704e-11
-8.11125e-11
8.93986e-12
2.56427e-08
-3.33757e-11
-1.11797e-10
7.88269e-12
2.56479e-08
-3.44268e-11
-1.36855e-10
4.24136e-12
2.56513e-08
-3.50804e-11
-1.54606e-10
3.45181e-12
2.56506e-08
-4.248e-11
-1.68389e-10
-8.04759e-12
2.56456e-08
-3.60125e-11
-1.79093e-10
1.13346e-11
2.56375e-08
-5.85227e-11
-9.79351e-12
2.56379e-08
1.55878e-12
-2.24122e-10
1.32424e-10
-1.45933e-11
2.55805e-08
-1.81296e-10
1.01966e-10
-1.53085e-11
2.55895e-08
6.35681e-11
-3.41647e-11
2.56116e-08
3.26827e-11
-2.75396e-11
2.56276e-08
2.86515e-12
-2.8046e-11
2.56434e-08
-2.34201e-11
-2.50456e-11
2.56554e-08
-4.79961e-11
-2.54348e-11
2.56649e-08
-7.20712e-11
-2.5374e-11
2.56714e-08
-9.6903e-11
-2.50185e-11
2.56754e-08
-1.2325e-10
-2.67595e-11
2.56766e-08
-1.51971e-10
-2.69305e-11
2.56744e-08
-1.8611e-10
-3.36422e-11
2.56709e-08
-2.12583e-10
-1.90144e-11
2.56628e-08
-1.67548e-11
2.5663e-08
-2.59553e-10
1.05681e-10
-3.91179e-11
2.56117e-08
-1.39591e-10
8.5437e-11
-5.59691e-11
2.5621e-08
5.74859e-11
-6.49729e-11
2.56448e-08
3.31287e-11
-6.18806e-11
2.56583e-08
6.74428e-12
-5.94873e-11
2.56731e-08
-1.96413e-11
-5.635e-11
2.56837e-08
-4.69058e-11
-5.57368e-11
2.56925e-08
-7.38077e-11
-5.57554e-11
2.56989e-08
-9.93694e-11
-5.62433e-11
2.57034e-08
-1.23619e-10
-5.93394e-11
2.57056e-08
-1.47396e-10
-6.1842e-11
2.57046e-08
-1.74159e-10
-6.60063e-11
2.57033e-08
-1.92339e-10
-5.80274e-11
2.56938e-08
-4.06367e-11
2.56947e-08
-2.22513e-10
1.22123e-10
-6.49956e-11
2.56383e-08
-1.52941e-10
9.40487e-11
-8.78475e-11
2.56476e-08
6.1813e-11
-9.08203e-11
2.5669e-08
3.30406e-11
-9.15127e-11
2.56822e-08
5.02279e-12
-8.93643e-11
2.56966e-08
-2.13649e-11
-8.7794e-11
2.57073e-08
-4.74557e-11
-8.72926e-11
2.57164e-08
-7.31714e-11
-8.73145e-11
2.5723e-08
-9.87006e-11
-8.73924e-11
2.57275e-08
-1.24934e-10
-8.95617e-11
2.57298e-08
-1.52868e-10
-9.11934e-11
2.57293e-08
-1.84309e-10
-9.23892e-11
2.57281e-08
-2.1041e-10
-8.87812e-11
2.5721e-08
-6.58364e-11
2.57221e-08
-2.38892e-10
1.21602e-10
-9.73367e-11
2.56615e-08
-1.44253e-10
9.39368e-11
-1.19144e-10
2.56736e-08
6.44361e-11
-1.18085e-10
2.56939e-08
3.56597e-11
-1.20186e-10
2.5707e-08
7.53349e-12
-1.18271e-10
2.57209e-08
-1.99529e-11
-1.17428e-10
2.57312e-08
-4.73292e-11
-1.16886e-10
2.57402e-08
-7.43799e-11
-1.16989e-10
2.57468e-08
-1.01012e-10
-1.17048e-10
2.57514e-08
-1.27612e-10
-1.18904e-10
2.57539e-08
-1.55535e-10
-1.19883e-10
2.57538e-08
-1.84957e-10
-1.20361e-10
2.57527e-08
-2.11114e-10
-1.19558e-10
2.57464e-08
-9.80821e-11
2.57456e-08
-2.31545e-10
1.28411e-10
-1.32324e-10
2.56801e-08
-1.47907e-10
9.78951e-11
-1.46471e-10
2.56959e-08
6.78086e-11
-1.44293e-10
2.57144e-08
3.72825e-11
-1.46696e-10
2.57278e-08
8.31104e-12
-1.46113e-10
2.57414e-08
-1.98613e-11
-1.46189e-10
2.57519e-08
-4.75067e-11
-1.46024e-10
2.57609e-08
-7.48909e-11
-1.46183e-10
2.57675e-08
-1.02323e-10
-1.45872e-10
2.57721e-08
-1.30014e-10
-1.46953e-10
2.57747e-08
-1.5906e-10
-1.46509e-10
2.57748e-08
-1.88787e-10
-1.46955e-10
2.57735e-08
-2.17633e-10
-1.46975e-10
2.57686e-08
-1.32939e-10
2.57649e-08
-2.3509e-10
1.27842e-10
-1.67831e-10
2.56974e-08
-1.47204e-10
9.65911e-11
-1.72022e-10
2.57157e-08
6.78306e-11
-1.71247e-10
2.57335e-08
3.7622e-11
-1.72708e-10
2.57474e-08
8.85756e-12
-1.73313e-10
2.57609e-08
-1.95135e-11
-1.73888e-10
2.57714e-08
-4.74409e-11
-1.74071e-10
2.57803e-08
-7.51717e-11
-1.74289e-10
2.57869e-08
-1.02901e-10
-1.73767e-10
2.57916e-08
-1.30738e-10
-1.74336e-10
2.57942e-08
-1.59497e-10
-1.72687e-10
2.57942e-08
-1.87894e-10
-1.73675e-10
2.57928e-08
-2.17153e-10
-1.72896e-10
2.57882e-08
-1.68531e-10
2.57826e-08
-2.34153e-10
1.26596e-10
-2.01088e-10
2.57138e-08
-1.48361e-10
9.57045e-11
-1.96888e-10
2.57327e-08
6.71524e-11
-1.9799e-10
2.57502e-08
3.7204e-11
-1.98288e-10
2.57644e-08
8.49134e-12
-1.999e-10
2.57779e-08
-1.97636e-11
-2.00901e-10
2.57884e-08
-4.75846e-11
-2.01392e-10
2.57974e-08
-7.52377e-11
-2.01613e-10
2.5804e-08
-1.0283e-10
-2.0092e-10
2.58086e-08
-1.30703e-10
-2.00926e-10
2.58113e-08
-1.59544e-10
-1.98349e-10
2.58112e-08
-1.87964e-10
-1.99555e-10
2.58098e-08
-2.16335e-10
-1.98005e-10
2.5805e-08
-2.0192e-10
2.57993e-08
-2.35229e-10
1.24031e-10
-2.3048e-10
2.57287e-08
-1.49186e-10
9.45927e-11
-2.2237e-10
2.57467e-08
6.56587e-11
-2.24047e-10
2.57646e-08
3.6463e-11
-2.24175e-10
2.57791e-08
8.01144e-12
-2.26336e-10
2.57928e-08
-1.98171e-11
-2.27695e-10
2.58034e-08
-4.73707e-11
-2.28204e-10
2.58124e-08
-7.48102e-11
-2.2829e-10
2.5819e-08
-1.02051e-10
-2.27502e-10
2.58235e-08
-1.29687e-10
-2.26891e-10
2.58261e-08
-1.58242e-10
-2.24006e-10
2.58256e-08
-1.87324e-10
-2.24709e-10
2.58241e-08
-2.14779e-10
-2.23505e-10
2.58185e-08
-2.31307e-10
2.58142e-08
-2.36157e-10
1.19281e-10
-2.54202e-10
2.57412e-08
-1.49083e-10
9.16495e-11
-2.48779e-10
2.57579e-08
6.19209e-11
-2.49044e-10
2.57767e-08
3.40803e-11
-2.50966e-10
2.57915e-08
6.30202e-12
-2.53089e-10
2.58053e-08
-2.07252e-11
-2.54867e-10
2.5816e-08
-4.77309e-11
-2.55179e-10
2.58249e-08
-7.462e-11
-2.55061e-10
2.58316e-08
-1.01083e-10
-2.54163e-10
2.5836e-08
-1.27777e-10
-2.52726e-10
2.58387e-08
-1.55051e-10
-2.50107e-10
2.58377e-08
-1.84355e-10
-2.49038e-10
2.5836e-08
-2.10272e-10
-2.49598e-10
2.58292e-08
-2.55641e-10
2.58262e-08
-2.35493e-10
1.17106e-10
-2.71402e-10
2.57498e-08
-1.52917e-10
9.05083e-11
-2.75241e-10
2.5766e-08
5.93556e-11
-2.71946e-10
2.5786e-08
3.27345e-11
-2.77569e-10
2.58014e-08
5.70911e-12
-2.79107e-10
2.58157e-08
-2.03993e-11
-2.81625e-10
2.58265e-08
-4.67143e-11
-2.81816e-10
2.58355e-08
-7.30748e-11
-2.81507e-10
2.58421e-08
-9.92121e-11
-2.80249e-10
2.58462e-08
-1.25634e-10
-2.77401e-10
2.58485e-08
-1.52562e-10
-2.75026e-10
2.58466e-08
-1.8318e-10
-2.70584e-10
2.58441e-08
-2.08676e-10
-2.74617e-10
2.58362e-08
-2.74512e-10
2.58339e-08
-2.38165e-10
1.04458e-10
-2.88574e-10
2.57546e-08
-1.39455e-10
8.29187e-11
-3.03956e-10
2.57726e-08
5.41637e-11
-2.94883e-10
2.57943e-08
3.01198e-11
-3.04311e-10
2.58102e-08
4.30357e-12
-3.04501e-10
2.58246e-08
-2.12121e-11
-3.07672e-10
2.58354e-08
-4.73535e-11
-3.07728e-10
2.58444e-08
-7.35175e-11
-3.07442e-10
2.5851e-08
-9.91351e-11
-3.06216e-10
2.58553e-08
-1.24083e-10
-3.02403e-10
2.58575e-08
-1.4832e-10
-3.00987e-10
2.5855e-08
-1.7633e-10
-2.92753e-10
2.58516e-08
-1.97419e-10
-3.01482e-10
2.5842e-08
-2.91491e-10
2.58385e-08
-2.26482e-10
1.20373e-10
-3.01207e-10
2.57589e-08
-1.57347e-10
9.40516e-11
-3.24337e-10
2.57764e-08
5.97989e-11
-3.09251e-10
2.57967e-08
3.20739e-11
-3.25587e-10
2.58144e-08
4.68323e-12
-3.2741e-10
2.58296e-08
-2.08084e-11
-3.32908e-10
2.58415e-08
-4.60345e-11
-3.33974e-10
2.58506e-08
-7.16115e-11
-3.33671e-10
2.58571e-08
-9.77808e-11
-3.31675e-10
2.58607e-08
-1.24655e-10
-3.25822e-10
2.58616e-08
-1.52437e-10
-3.23877e-10
2.58579e-08
-1.84996e-10
-3.11103e-10
2.58529e-08
-2.10153e-10
-3.25078e-10
2.58447e-08
-3.06578e-10
2.58426e-08
-2.41165e-10
1.05543e-10
2.57659e-08
-3.32347e-10
-1.16694e-10
9.60702e-11
2.5782e-08
-3.64782e-10
7.23287e-11
2.58029e-08
-3.38361e-10
4.86522e-11
2.58208e-08
-3.54569e-10
1.89407e-11
2.58351e-08
-3.49052e-10
-1.30032e-11
2.58454e-08
-3.51469e-10
-4.63639e-11
2.58538e-08
-3.51463e-10
-7.89651e-11
2.58605e-08
-3.52037e-10
-1.08906e-10
2.58655e-08
-3.5256e-10
-1.35758e-10
2.58678e-08
-3.49493e-10
-1.59222e-10
2.58649e-08
-3.5097e-10
-1.80976e-10
2.5859e-08
-3.3993e-10
-1.98213e-10
2.58522e-08
-3.59303e-10
2.58495e-08
-2.18052e-10
-3.34584e-10
5.92073e-11
6.05789e-11
1.64607e-08
-6.30872e-11
-7.10375e-11
6.75501e-11
7.32778e-11
1.64744e-08
-9.71352e-11
6.33752e-11
5.24197e-11
1.64949e-08
-6.19236e-11
5.80462e-11
6.23262e-11
1.65097e-08
-6.85595e-11
4.88446e-11
6.21361e-11
1.65214e-08
-6.32879e-11
3.88652e-11
6.59119e-11
1.65295e-08
-6.70264e-11
2.8716e-11
6.6619e-11
1.6535e-08
-6.85043e-11
1.95811e-11
6.71382e-11
1.65384e-08
-6.96671e-11
1.08108e-11
6.70852e-11
1.65393e-08
-7.02848e-11
2.98026e-12
6.43486e-11
1.65367e-08
-6.8586e-11
9.78213e-13
6.56146e-11
1.653e-08
-7.51387e-11
3.67276e-12
5.75744e-11
1.65196e-08
-7.26242e-11
1.58843e-11
7.78996e-11
1.65047e-08
-1.03892e-10
6.46324e-11
1.64972e-08
-6.26399e-11
-2.55544e-12
7.27616e-11
6.94761e-11
1.6482e-08
-9.82522e-11
6.36365e-11
6.34765e-11
1.64953e-08
4.84826e-11
5.16348e-11
1.65165e-08
4.08847e-11
5.53032e-11
1.6532e-08
3.54965e-11
5.49913e-11
1.6546e-08
3.29993e-11
5.65804e-11
1.65559e-08
3.11694e-11
5.66907e-11
1.65623e-08
2.98054e-11
5.72854e-11
1.65656e-08
2.69031e-11
5.8098e-11
1.65654e-08
2.13684e-11
5.72372e-11
1.6561e-08
1.49225e-11
5.83598e-11
1.6553e-08
2.76436e-12
5.50155e-11
1.65431e-08
-3.34767e-12
6.69453e-11
1.6528e-08
7.25373e-11
1.65204e-08
-3.03111e-11
5.36885e-11
6.42049e-11
1.65087e-08
-6.2918e-11
5.27971e-11
4.79318e-11
1.65228e-08
4.67773e-11
4.5392e-11
1.65445e-08
4.36208e-11
4.67849e-11
1.65584e-08
3.98971e-11
4.87464e-11
1.65716e-08
3.60672e-11
5.04191e-11
1.65806e-08
3.13872e-11
5.10775e-11
1.65867e-08
2.74179e-11
5.13838e-11
1.659e-08
2.36941e-11
5.16071e-11
1.65902e-08
1.98705e-11
5.02222e-11
1.65868e-08
1.75198e-11
4.89308e-11
1.65799e-08
1.29426e-11
4.71034e-11
1.65718e-08
1.37156e-11
4.98958e-11
1.65563e-08
6.6148e-11
1.65477e-08
2.49962e-12
6.51238e-11
5.85597e-11
1.65294e-08
-7.14223e-11
5.71289e-11
4.07703e-11
1.65448e-08
4.84594e-11
4.2402e-11
1.6565e-08
4.26173e-11
4.12822e-11
1.6579e-08
3.84673e-11
4.30456e-11
1.65921e-08
3.5247e-11
4.38414e-11
1.66013e-08
3.19162e-11
4.44042e-11
1.66076e-08
2.92208e-11
4.45844e-11
1.66109e-08
2.61178e-11
4.48729e-11
1.6611e-08
2.17422e-11
4.40051e-11
1.66075e-08
1.61807e-11
4.31092e-11
1.66006e-08
7.79824e-12
4.34705e-11
1.65924e-08
1.05186e-13
4.22275e-11
1.65785e-08
5.96672e-11
1.65687e-08
-8.69145e-12
6.51824e-11
4.88157e-11
1.65469e-08
-6.56964e-11
5.71142e-11
3.56198e-11
1.65652e-08
5.07011e-11
3.86271e-11
1.65845e-08
4.47291e-11
3.71849e-11
1.65986e-08
4.0395e-11
3.85922e-11
1.66114e-08
3.6301e-11
3.90836e-11
1.66204e-08
3.20036e-11
3.95697e-11
1.66266e-08
2.83656e-11
3.95882e-11
1.663e-08
2.44695e-11
3.97736e-11
1.66302e-08
1.9829e-11
3.88576e-11
1.66268e-08
1.41341e-11
3.83784e-11
1.66203e-08
7.83069e-12
3.87031e-11
1.6612e-08
-4.08439e-13
3.64264e-11
1.65989e-08
4.90939e-11
1.65864e-08
-3.25608e-12
6.86024e-11
3.86695e-11
1.65608e-08
-6.89966e-11
5.86295e-11
3.36634e-11
1.65812e-08
5.23186e-11
3.49975e-11
1.65996e-08
4.54816e-11
3.43296e-11
1.66141e-08
4.08356e-11
3.46911e-11
1.66268e-08
3.64781e-11
3.48959e-11
1.66359e-08
3.21384e-11
3.51091e-11
1.66421e-08
2.8482e-11
3.5026e-11
1.66454e-08
2.42049e-11
3.53312e-11
1.66456e-08
1.90523e-11
3.44378e-11
1.66422e-08
1.24642e-11
3.49377e-11
1.66358e-08
5.98989e-12
3.42147e-11
1.66273e-08
-4.52214e-12
3.38681e-11
1.6615e-08
3.79904e-11
1.66003e-08
-6.5545e-12
6.82707e-11
2.85637e-11
1.65725e-08
-6.95803e-11
5.84679e-11
3.22147e-11
1.65939e-08
5.28328e-11
3.08657e-11
1.66121e-08
4.60839e-11
3.18308e-11
1.66267e-08
4.14247e-11
3.11941e-11
1.66394e-08
3.68356e-11
3.1352e-11
1.66485e-08
3.22121e-11
3.13141e-11
1.66547e-08
2.82396e-11
3.11566e-11
1.66581e-08
2.36764e-11
3.15738e-11
1.66582e-08
1.83645e-11
3.05768e-11
1.66549e-08
1.17978e-11
3.18705e-11
1.66485e-08
5.77271e-12
2.94792e-11
1.66399e-08
-4.81798e-12
3.17948e-11
1.66278e-08
2.70149e-11
1.66121e-08
-7.36239e-12
6.76911e-11
1.89135e-11
1.65822e-08
-7.02968e-11
5.87167e-11
2.97422e-11
1.66032e-08
5.27922e-11
2.6565e-11
1.66215e-08
4.61033e-11
2.90232e-11
1.66363e-08
4.13683e-11
2.75444e-11
1.6649e-08
3.6783e-11
2.76397e-11
1.66582e-08
3.21332e-11
2.73726e-11
1.66644e-08
2.80204e-11
2.71722e-11
1.66678e-08
2.34643e-11
2.76658e-11
1.66679e-08
1.80552e-11
2.67088e-11
1.66646e-08
1.14718e-11
2.85562e-11
1.6658e-08
4.97987e-12
2.49281e-11
1.66496e-08
-4.83402e-12
2.85877e-11
1.66372e-08
1.68434e-11
1.6622e-08
-8.67958e-12
6.68769e-11
1.09252e-11
1.65895e-08
-7.08881e-11
5.91577e-11
2.60299e-11
1.6609e-08
5.25301e-11
2.28603e-11
1.6628e-08
4.61213e-11
2.58073e-11
1.66428e-08
4.1347e-11
2.38186e-11
1.66557e-08
3.69357e-11
2.36819e-11
1.66649e-08
3.23713e-11
2.32773e-11
1.66711e-08
2.82499e-11
2.3095e-11
1.66745e-08
2.37188e-11
2.36164e-11
1.66745e-08
1.80133e-11
2.30568e-11
1.66713e-08
1.1373e-11
2.51116e-11
1.66643e-08
3.76812e-12
2.13617e-11
1.6656e-08
-5.07206e-12
2.41747e-11
1.66429e-08
8.66418e-12
1.66294e-08
-1.05729e-11
6.39104e-11
5.99882e-12
1.65931e-08
-7.0423e-11
5.76338e-11
2.07674e-11
1.66111e-08
5.05617e-11
1.93724e-11
1.66312e-08
4.51636e-11
2.11935e-11
1.66459e-08
4.06229e-11
1.92165e-11
1.66592e-08
3.64368e-11
1.86665e-11
1.66683e-08
3.18581e-11
1.82857e-11
1.66746e-08
2.77067e-11
1.8144e-11
1.6678e-08
2.34664e-11
1.84328e-11
1.6678e-08
1.80795e-11
1.8443e-11
1.66748e-08
1.2538e-11
2.005e-11
1.66675e-08
4.73578e-12
1.76499e-11
1.6659e-08
-2.73096e-12
1.79746e-11
1.66448e-08
3.45946e-12
1.66331e-08
-1.07735e-11
6.4944e-11
3.54972e-12
1.65915e-08
-7.67038e-11
5.81548e-11
1.33862e-11
1.66088e-08
4.90994e-11
1.54986e-11
1.66301e-08
4.41644e-11
1.43656e-11
1.66453e-08
3.99306e-11
1.22108e-11
1.6659e-08
3.65464e-11
1.06465e-11
1.66682e-08
3.26895e-11
1.02835e-11
1.66744e-08
2.90912e-11
1.02827e-11
1.66777e-08
2.5175e-11
1.04903e-11
1.66775e-08
1.92646e-11
1.19488e-11
1.66741e-08
1.31935e-11
1.31831e-11
1.66661e-08
3.09426e-12
1.37427e-11
1.66571e-08
-5.11254e-12
9.77799e-12
1.66417e-08
-1.82561e-13
1.6631e-08
-1.74457e-11
5.70328e-11
3.66125e-12
1.65858e-08
-7.34256e-11
5.40376e-11
1.15478e-13
1.66041e-08
4.69213e-11
7.98696e-12
1.66273e-08
4.4443e-11
3.80967e-12
1.66426e-08
4.05668e-11
4.0841e-12
1.66564e-08
3.65295e-11
2.68513e-12
1.66655e-08