/*--------------------------------*- C++ -*----------------------------------*\
| =========                 |                                                 |
| \\      /  F ield         | OpenFOAM: The Open Source CFD Toolbox           |
|  \\    /   O peration     | Version:  v2106                                 |
|   \\  /    A nd           | Website:  www.openfoam.com                      |
|    \\/     M anipulation  |                                                 |
\*---------------------------------------------------------------------------*/
FoamFile
{
    version     2.0;
    format      ascii;
    arch        "LSB;label=32;scalar=64";
    class       volVectorField;
    location    "0.000138";
    object      U;
}
// * * * * * * * * * * * * * * * * * * * * * * * * * * * * * * * * * * * * * //

dimensions      [0 1 -1 0 0 0 0];

internalField   nonuniform List<vector> 
17924
(
(-0.000862493 -0.115504 12.4436)
(0.021244 -0.115854 12.437)
(0.0428153 -0.116938 12.4282)
(0.0649431 -0.115664 12.4175)
(-0.0276269 -0.11568 11.5482)
(-0.00930339 -0.113744 11.5465)
(0.00869043 -0.114629 11.542)
(0.0272783 -0.112925 11.5362)
(0.0456923 -0.111395 11.5297)
(0.0637992 -0.109718 11.5222)
(0.0820037 -0.108824 11.5142)
(-0.025723 -0.0984047 11.5509)
(-0.00642852 -0.0959976 11.548)
(0.0117547 -0.0968305 11.5427)
(0.030325 -0.0954051 11.5372)
(0.048836 -0.0938818 11.5311)
(0.0669611 -0.0922143 11.5237)
(0.0852376 -0.0912314 11.5157)
(-0.0276891 -0.0787567 11.5512)
(-0.00775198 -0.07729 11.5489)
(0.011419 -0.0779981 11.5444)
(0.0302553 -0.0767721 11.5385)
(0.0491175 -0.0753445 11.5323)
(0.0675105 -0.0738439 11.5248)
(0.0859774 -0.0729651 11.5169)
(-0.0258631 -0.0593315 11.5531)
(-0.00616407 -0.0586077 11.55)
(0.0128777 -0.0589952 11.5456)
(0.0313639 -0.0578733 11.5393)
(0.0501237 -0.056607 11.533)
(0.0684407 -0.0552946 11.5255)
(0.0869009 -0.0545501 11.5176)
(-0.024506 -0.0396806 11.5539)
(-0.00492803 -0.0393319 11.5503)
(0.01402 -0.0394943 11.5462)
(0.0323137 -0.0385885 11.5398)
(0.0509241 -0.0376186 11.5335)
(0.0691103 -0.0365972 11.526)
(0.0874045 -0.0360535 11.5182)
(-0.0232344 -0.0202177 11.5539)
(-0.00368265 -0.0198828 11.5502)
(0.0151655 -0.0198446 11.546)
(0.0333415 -0.0191347 11.5395)
(0.0518083 -0.0184833 11.5333)
(0.0698123 -0.01777 11.5258)
(0.0879078 -0.0174492 11.5182)
(-0.0221474 -0.00106565 11.5535)
(-0.00263905 -0.000728406 11.55)
(0.0160759 -0.000625233 11.5454)
(0.0342083 -0.000168188 11.5388)
(0.0525623 0.000190438 11.5325)
(0.0703991 0.000624636 11.525)
(0.0883247 0.000795981 11.5174)
(-0.0218664 0.0173533 11.5526)
(-0.00236887 0.0179991 11.5488)
(0.0162682 0.0183128 11.544)
(0.0344349 0.0185887 11.5374)
(0.0527427 0.0186493 11.5312)
(0.0705109 0.018744 11.5237)
(0.088353 0.018666 11.5161)
(-0.021897 0.0356301 11.5509)
(-0.00252725 0.036427 11.5465)
(0.0160453 0.036936 11.5419)
(0.0342726 0.0370026 11.5353)
(0.0525676 0.0367976 11.5292)
(0.0703152 0.036594 11.5217)
(0.0881148 0.0363601 11.5142)
(-0.0223525 0.053557 11.548)
(-0.00313611 0.0544425 11.5437)
(0.0153975 0.0551655 11.5391)
(0.0337711 0.0550579 11.5326)
(0.0521517 0.0546076 11.5264)
(0.0699685 0.0541174 11.5189)
(0.0877794 0.0537401 11.5113)
(-0.0227031 0.0715532 11.5447)
(-0.00362881 0.0722172 11.5408)
(0.0149764 0.0730868 11.5356)
(0.0334019 0.0727601 11.529)
(0.0518213 0.0720929 11.5227)
(0.069656 0.0713402 11.5152)
(0.0874536 0.0708601 11.5077)
(-0.0235852 0.0892702 11.5395)
(-0.00440195 0.0892466 11.5358)
(0.0143042 0.0904468 11.5305)
(0.0329109 0.0900431 11.5244)
(0.0513475 0.0892966 11.5183)
(0.0691199 0.0883669 11.5109)
(0.0867024 0.0878036 11.5033)
(-0.0203219 0.10791 11.5367)
(-0.00200184 0.106951 11.5322)
(0.0158521 0.108153 11.5256)
(0.0337479 0.107431 11.5196)
(0.0517565 0.10664 11.5136)
(0.0692201 0.105553 11.5063)
(0.086507 0.104912 11.4987)
(-0.0227004 0.125193 11.5299)
(-0.00472145 0.123829 11.5261)
(0.0135499 0.125855 11.5208)
(0.0313478 0.1245 11.5143)
(0.0493479 0.123564 11.5079)
(0.0666995 0.122366 11.5006)
(0.0837817 0.121811 11.4933)
(-0.0386908 -0.107345 10.7475)
(-0.0235003 -0.104102 10.747)
(-0.00799281 -0.105108 10.7447)
(0.00737468 -0.103383 10.7422)
(0.0221466 -0.101469 10.7389)
(0.0373166 -0.0997817 10.7346)
(0.0524544 -0.0987389 10.7302)
(0.067409 -0.0973782 10.7247)
(0.082683 -0.0963898 10.7194)
(0.0978923 -0.0962511 10.7126)
(0.113656 -0.0954869 10.7054)
(0.129698 -0.0957422 10.697)
(0.146195 -0.0916569 10.6892)
(0.164492 -0.0952005 10.6819)
(-0.0361728 -0.0891834 10.75)
(-0.0206512 -0.086991 10.7491)
(-0.00539724 -0.0876908 10.7468)
(0.00981735 -0.0864109 10.7444)
(0.0245607 -0.084674 10.7413)
(0.0398305 -0.0830836 10.7373)
(0.0551065 -0.082141 10.7329)
(0.0700486 -0.0807801 10.727)
(0.0852953 -0.0797686 10.7211)
(0.100224 -0.0795746 10.7137)
(0.115563 -0.0789663 10.7062)
(0.130245 -0.0788424 10.6974)
(0.145501 -0.076075 10.6899)
(0.161388 -0.0782452 10.6831)
(-0.0379781 -0.0708972 10.7524)
(-0.0216224 -0.0699023 10.7515)
(-0.00570566 -0.0704672 10.7499)
(0.00996768 -0.0694665 10.7472)
(0.0249685 -0.0678896 10.7437)
(0.0404833 -0.066433 10.7396)
(0.0559123 -0.0655734 10.735)
(0.071025 -0.0644224 10.7291)
(0.0865162 -0.0637063 10.7237)
(0.101823 -0.0638058 10.7169)
(0.117246 -0.0634131 10.7093)
(0.132469 -0.0633384 10.7009)
(0.147458 -0.0613132 10.6921)
(0.164189 -0.0626208 10.6862)
(-0.0363433 -0.0534599 10.7551)
(-0.0202424 -0.0531918 10.7536)
(-0.00453572 -0.0535124 10.752)
(0.0109063 -0.0527145 10.7488)
(0.025812 -0.0513653 10.7451)
(0.0413381 -0.0501275 10.7409)
(0.0567979 -0.0493862 10.7363)
(0.0719997 -0.0484377 10.7305)
(0.0874704 -0.0479104 10.725)
(0.102658 -0.0480146 10.7182)
(0.117754 -0.047755 10.7106)
(0.132737 -0.0475792 10.7025)
(0.147399 -0.0464241 10.6939)
(0.163478 -0.0469598 10.6877)
(-0.035386 -0.03632 10.7563)
(-0.0192733 -0.0363971 10.7546)
(-0.00358483 -0.0366592 10.7532)
(0.0117963 -0.0361247 10.7499)
(0.0266342 -0.035102 10.7461)
(0.0420973 -0.0341526 10.7419)
(0.0574167 -0.0335628 10.7372)
(0.0725128 -0.0328235 10.7315)
(0.0877727 -0.0324705 10.726)
(0.102751 -0.0325483 10.7193)
(0.117553 -0.0324214 10.7118)
(0.13243 -0.0322389 10.704)
(0.147029 -0.0316635 10.6954)
(0.162726 -0.0318981 10.6884)
(-0.0344963 -0.019626 10.7565)
(-0.0183179 -0.0197613 10.755)
(-0.00264939 -0.0199455 10.7533)
(0.01264 -0.0196002 10.7499)
(0.0274118 -0.0189108 10.7462)
(0.0427786 -0.0182434 10.7421)
(0.0579678 -0.0178364 10.7374)
(0.0729416 -0.017307 10.7318)
(0.0879891 -0.0171282 10.7263)
(0.102704 -0.0171939 10.7197)
(0.117265 -0.0172357 10.7123)
(0.131888 -0.0171977 10.7045)
(0.146564 -0.0171108 10.6962)
(0.161821 -0.0174305 10.6884)
(-0.0341131 -0.00360445 10.7564)
(-0.0178018 -0.0037918 10.7551)
(-0.00207242 -0.00398122 10.7531)
(0.0132483 -0.00383367 10.7495)
(0.0280717 -0.00351319 10.7457)
(0.0434121 -0.00316442 10.7415)
(0.0585138 -0.00293901 10.7368)
(0.0733727 -0.00256339 10.7312)
(0.0882502 -0.0024611 10.7258)
(0.102727 -0.00244406 10.7192)
(0.117092 -0.00250988 10.712)
(0.131344 -0.00264703 10.704)
(0.146023 -0.00284818 10.6961)
(0.160734 -0.00333124 10.6876)
(-0.0343943 0.0121244 10.7555)
(-0.017882 0.0120871 10.7541)
(-0.00204806 0.0120057 10.7519)
(0.01335 0.0120261 10.7484)
(0.0282614 0.0120373 10.7446)
(0.0436092 0.0121145 10.7404)
(0.0586668 0.0121383 10.7358)
(0.0734507 0.0123079 10.7302)
(0.0882239 0.0122545 10.7247)
(0.102551 0.0122251 10.7181)
(0.116764 0.0120483 10.7111)
(0.130774 0.0115349 10.7032)
(0.145343 0.0109536 10.6957)
(0.159917 0.0101753 10.6872)
(-0.0349322 0.0275345 10.7542)
(-0.0183481 0.0276292 10.7521)
(-0.00242862 0.0276793 10.7502)
(0.0130347 0.0275546 10.7467)
(0.028055 0.02726 10.743)
(0.0434694 0.0270603 10.7389)
(0.0585845 0.0269004 10.7342)
(0.0733941 0.0268972 10.7287)
(0.0881342 0.0267424 10.7232)
(0.102412 0.0267566 10.7167)
(0.116451 0.0265591 10.7096)
(0.130423 0.0258131 10.7019)
(0.144541 0.0248781 10.6938)
(0.159381 0.0239957 10.686)
(-0.0360174 0.0426444 10.7518)
(-0.0193482 0.0428677 10.7496)
(-0.00330061 0.043094 10.7479)
(0.0123593 0.0428199 10.7445)
(0.0276028 0.0422472 10.7408)
(0.0431707 0.0417901 10.7366)
(0.0584075 0.0414751 10.7319)
(0.0732833 0.0413352 10.7264)
(0.0880472 0.0411006 10.7209)
(0.102362 0.0412361 10.7145)
(0.116327 0.0410143 10.7073)
(0.130359 0.04021 10.6998)
(0.143987 0.0388191 10.6913)
(0.15926 0.0379511 10.6846)
(-0.0370336 0.0577581 10.7489)
(-0.0202368 0.0578943 10.7469)
(-0.00405549 0.0582486 10.7448)
(0.0117335 0.0577501 10.7413)
(0.0271601 0.0569423 10.7377)
(0.0428019 0.0562627 10.7335)
(0.0581354 0.0558622 10.7289)
(0.0730651 0.0556181 10.7233)
(0.0878855 0.0553218 10.7179)
(0.102207 0.055591 10.7115)
(0.116208 0.0553599 10.7042)
(0.130173 0.0546561 10.6966)
(0.143552 0.0527655 10.6879)
(0.159145 0.0522959 10.6824)
(-0.0384153 0.0725709 10.7447)
(-0.0212997 0.0722905 10.7428)
(-0.00486402 0.073023 10.7409)
(0.0112377 0.0724751 10.7379)
(0.0268173 0.0715602 10.7344)
(0.0424574 0.0707281 10.7302)
(0.0576906 0.0702664 10.7255)
(0.0724822 0.0699452 10.7199)
(0.0872181 0.069629 10.7146)
(0.101557 0.0700688 10.7083)
(0.115683 0.0698223 10.7011)
(0.129667 0.0693443 10.6931)
(0.14304 0.0667374 10.6843)
(0.159094 0.0671815 10.6793)
(-0.035749 0.088187 10.7419)
(-0.0194936 0.0871834 10.7394)
(-0.00379226 0.087887 10.7363)
(0.011778 0.0871316 10.7334)
(0.0271311 0.0862213 10.7303)
(0.0425173 0.0853298 10.7263)
(0.0575749 0.0849154 10.7217)
(0.0721032 0.0844779 10.7159)
(0.0864351 0.083949 10.7101)
(0.100248 0.0842344 10.7033)
(0.114063 0.0839913 10.6963)
(0.127246 0.0836974 10.6883)
(0.140507 0.0806302 10.6808)
(0.155468 0.0821726 10.6755)
(-0.0390156 0.103628 10.7374)
(-0.022277 0.101837 10.7353)
(-0.00577035 0.103093 10.7329)
(0.0102516 0.102137 10.7297)
(0.0255904 0.101094 10.7259)
(0.0408892 0.100082 10.7217)
(0.0557735 0.0997302 10.7172)
(0.0702578 0.0994897 10.7121)
(0.0845652 0.0992088 10.7072)
(0.0984927 0.0997118 10.701)
(0.112596 0.0994947 10.6943)
(0.126771 0.0998145 10.6867)
(0.141013 0.0957354 10.6794)
(0.157557 0.0989556 10.6731)
(-0.0417698 -0.0928056 10.0323)
(-0.0284324 -0.0896093 10.0323)
(-0.0152004 -0.0905297 10.0311)
(-0.00241929 -0.0890341 10.0303)
(0.0103675 -0.0875556 10.0289)
(0.0226235 -0.0859108 10.0264)
(0.0351947 -0.0851288 10.0238)
(0.0475511 -0.0840288 10.0203)
(0.0601941 -0.0832329 10.0171)
(0.072896 -0.0832446 10.0127)
(0.0861011 -0.082714 10.0078)
(0.0996834 -0.0829871 10.0018)
(0.11386 -0.0797915 9.99603)
(0.129852 -0.082615 9.99069)
(-0.0391118 -0.0762125 10.0345)
(-0.026094 -0.0746332 10.0344)
(-0.0132696 -0.0751803 10.0336)
(-0.000651968 -0.0740948 10.0327)
(0.0121614 -0.0727744 10.0315)
(0.0243866 -0.0713366 10.0293)
(0.03712 -0.0706469 10.0269)
(0.0494976 -0.069608 10.0231)
(0.0621397 -0.0687957 10.0194)
(0.0746553 -0.0687834 10.0143)
(0.0875232 -0.0683807 10.009)
(0.100095 -0.0683554 10.0027)
(0.113189 -0.0662604 9.99704)
(0.127099 -0.0679899 9.99227)
(-0.0407039 -0.0607387 10.0376)
(-0.0269206 -0.0601416 10.0371)
(-0.0136383 -0.0606452 10.0371)
(-0.000627715 -0.0598636 10.0358)
(0.0124599 -0.0586115 10.0343)
(0.024827 -0.0573038 10.0318)
(0.03774 -0.0566393 10.0292)
(0.0502678 -0.0557657 10.0254)
(0.0631223 -0.0551909 10.0219)
(0.075957 -0.055435 10.0174)
(0.0889168 -0.0552001 10.0121)
(0.101886 -0.0551786 10.006)
(0.11479 -0.0536234 9.99941)
(0.129263 -0.0546784 9.99524)
(-0.039451 -0.0460985 10.0403)
(-0.0259297 -0.0461033 10.0395)
(-0.0128411 -0.0464662 10.0394)
(1.59344e-05 -0.0459434 10.0377)
(0.0130186 -0.0448917 10.0359)
(0.025418 -0.043804 10.0334)
(0.0383898 -0.0432258 10.0307)
(0.0510319 -0.0425124 10.0269)
(0.0639031 -0.0420687 10.0234)
(0.0766663 -0.0422881 10.0188)
(0.0893579 -0.0421244 10.0135)
(0.102109 -0.041968 10.0077)
(0.1147 -0.0410124 10.0012)
(0.128601 -0.0414747 9.99673)
(-0.0388184 -0.0318993 10.0417)
(-0.0252257 -0.0321819 10.0409)
(-0.0121156 -0.0325604 10.0409)
(0.000735346 -0.0323068 10.0391)
(0.013641 -0.0315505 10.0372)
(0.0260536 -0.0307316 10.0346)
(0.0388824 -0.0302589 10.0318)
(0.0514279 -0.0297011 10.0281)
(0.0641267 -0.0293653 10.0245)
(0.0767073 -0.0294971 10.02)
(0.0891515 -0.0293826 10.0146)
(0.101795 -0.0291674 10.0091)
(0.114312 -0.0286078 10.0026)
(0.127939 -0.0287993 9.99756)
(-0.0382019 -0.0181506 10.0421)
(-0.0245146 -0.0185258 10.0417)
(-0.0113666 -0.0188719 10.0413)
(0.00145517 -0.0187887 10.0395)
(0.0142574 -0.018318 10.0376)
(0.0266476 -0.0177571 10.0351)
(0.0393409 -0.0174055 10.0323)
(0.0517821 -0.0169803 10.0286)
(0.0643232 -0.0167359 10.025)
(0.0766906 -0.0167752 10.0205)
(0.0889293 -0.0167258 10.0152)
(0.101344 -0.0165674 10.0095)
(0.113891 -0.0163588 10.0033)
(0.12723 -0.0165493 9.99763)
(-0.0382155 -0.00494976 10.0423)
(-0.0243591 -0.00535384 10.0422)
(-0.0110745 -0.0056621 10.0415)
(0.00185702 -0.00570643 10.0396)
(0.0146824 -0.00554549 10.0376)
(0.0271469 -0.00530303 10.0351)
(0.0397912 -0.00513853 10.0322)
(0.0521709 -0.00488954 10.0285)
(0.0646102 -0.00474225 10.0248)
(0.0768157 -0.00470261 10.0203)
(0.0889166 -0.00465895 10.0151)
(0.101034 -0.00464596 10.0093)
(0.11361 -0.00465247 10.0035)
(0.1265 -0.00483248 9.99712)
(-0.0386335 0.00794487 10.0419)
(-0.0245817 0.00761809 10.0416)
(-0.011174 0.00740601 10.0409)
(0.00187261 0.00729631 10.039)
(0.0147523 0.0072356 10.037)
(0.0272967 0.00726753 10.0345)
(0.039933 0.00732107 10.0316)
(0.0522797 0.00747274 10.0278)
(0.0646517 0.00756373 10.0242)
(0.0767596 0.00766343 10.0196)
(0.0887581 0.00771297 10.0145)
(0.100703 0.00747373 10.0087)
(0.113217 0.00720146 10.0032)
(0.126004 0.00685513 9.99684)
(-0.0392884 0.0206963 10.041)
(-0.0251169 0.0204855 10.0402)
(-0.011629 0.0204009 10.0398)
(0.00152068 0.0202146 10.0379)
(0.0145056 0.0199137 10.036)
(0.027174 0.0197014 10.0335)
(0.039907 0.0196194 10.0306)
(0.0523342 0.0196553 10.0268)
(0.0647367 0.0196916 10.0232)
(0.0768463 0.0198796 10.0186)
(0.0887347 0.0199548 10.0134)
(0.100659 0.0195175 10.0077)
(0.112798 0.0189234 10.0017)
(0.12574 0.0184718 9.99589)
(-0.0404987 0.0332938 10.0392)
(-0.0261893 0.0332097 10.0383)
(-0.0125552 0.0332738 10.0381)
(0.000816414 0.0329859 10.0364)
(0.0140458 0.0324614 10.0345)
(0.0269172 0.0320241 10.0319)
(0.0398237 0.0318271 10.029)
(0.0523788 0.0317688 10.0252)
(0.0648621 0.0317545 10.0215)
(0.0770397 0.0320728 10.017)
(0.0889043 0.0321579 10.0117)
(0.100884 0.0316788 10.0062)
(0.112652 0.0307123 9.99972)
(0.125878 0.0302666 9.9949)
(-0.0416703 0.0459586 10.0369)
(-0.0271921 0.0458371 10.036)
(-0.0133821 0.0459931 10.0356)
(0.000162331 0.045521 10.0338)
(0.013579 0.0447953 10.032)
(0.0265931 0.0441728 10.0295)
(0.0396446 0.0439161 10.0267)
(0.0523193 0.0437853 10.0229)
(0.0649093 0.0437279 10.0192)
(0.0771541 0.0441797 10.0146)
(0.0891064 0.0442787 10.0093)
(0.101062 0.0438973 10.0037)
(0.112659 0.0425261 9.99704)
(0.126068 0.0423873 9.99312)
(-0.0431064 0.0584884 10.0336)
(-0.0282055 0.0580867 10.0328)
(-0.0140842 0.0585742 10.0326)
(-0.000230149 0.0580332 10.0313)
(0.0134031 0.0572092 10.0297)
(0.0264294 0.0564599 10.0272)
(0.0394314 0.0561506 10.0242)
(0.0520108 0.0559472 10.0204)
(0.0645499 0.0558638 10.0168)
(0.0768302 0.0564504 10.0123)
(0.0889352 0.0565457 10.007)
(0.100933 0.0563648 10.001)
(0.112586 0.0544252 9.99426)
(0.126348 0.0550381 9.99081)
(-0.0411023 0.0716432 10.031)
(-0.0268879 0.0707049 10.0298)
(-0.0132323 0.0712075 10.0287)
(0.000264841 0.0704714 10.0275)
(0.0136853 0.0696671 10.0262)
(0.0265559 0.0689327 10.024)
(0.0394323 0.0686994 10.0212)
(0.0518333 0.0684207 10.0173)
(0.064058 0.0681638 10.0132)
(0.075937 0.0686348 10.0083)
(0.0878134 0.0687574 10.0032)
(0.0991956 0.068787 9.99712)
(0.110763 0.0664904 9.99152)
(0.123663 0.0680512 9.98777)
(-0.0442577 0.0851537 10.028)
(-0.0291079 0.0834359 10.027)
(-0.0146325 0.0845155 10.0262)
(-0.000739739 0.0835469 10.0249)
(0.0127818 0.0826431 10.023)
(0.0255076 0.0818368 10.0205)
(0.0382415 0.0816199 10.0175)
(0.050592 0.0814929 10.0142)
(0.0627968 0.08145 10.0109)
(0.0747419 0.0820849 10.0066)
(0.0868498 0.0822345 10.0016)
(0.098996 0.0827944 9.99592)
(0.111303 0.0796761 9.99041)
(0.125418 0.0825932 9.98578)
(-0.0410955 -0.0778243 9.38205)
(-0.0292749 -0.0753194 9.38225)
(-0.017863 -0.0762392 9.38178)
(-0.00696211 -0.07514 9.38152)
(0.00380438 -0.0739628 9.38076)
(0.0141798 -0.0728181 9.37924)
(0.0244229 -0.0722402 9.37747)
(0.0346425 -0.0714823 9.37499)
(0.0450886 -0.0709238 9.3728)
(0.0556608 -0.071081 9.36971)
(0.0666158 -0.0708378 9.36601)
(0.0779579 -0.0711754 9.36155)
(0.0898595 -0.0687467 9.35707)
(0.103299 -0.0709499 9.35302)
(-0.0389799 -0.0638179 9.38376)
(-0.0276493 -0.0627422 9.38379)
(-0.0165829 -0.063364 9.38373)
(-0.00578886 -0.0626288 9.38334)
(0.00499109 -0.061588 9.38283)
(0.0153203 -0.0605944 9.38153)
(0.0257163 -0.0601086 9.38004)
(0.0359925 -0.0594341 9.37738)
(0.0464507 -0.0588753 9.37471)
(0.0568948 -0.0590228 9.37104)
(0.0675892 -0.0588829 9.36707)
(0.0781684 -0.058979 9.36227)
(0.089186 -0.0574166 9.35795)
(0.100889 -0.058836 9.35444)
(-0.040342 -0.0510859 9.38657)
(-0.0284039 -0.0507601 9.3862)
(-0.0170354 -0.0513842 9.38682)
(-0.00594438 -0.0509048 9.38605)
(0.00506248 -0.0499479 9.38525)
(0.0155126 -0.0490369 9.38369)
(0.0260937 -0.0485496 9.38181)
(0.0365334 -0.0480176 9.37912)
(0.0471837 -0.0476549 9.37674)
(0.0578982 -0.0480004 9.37359)
(0.0687 -0.0479805 9.36961)
(0.0795967 -0.0480351 9.36509)
(0.0904769 -0.04685 9.35996)
(0.102598 -0.0477576 9.35691)
(-0.0395105 -0.0390253 9.3888)
(-0.0277993 -0.0391706 9.38823)
(-0.016593 -0.039689 9.38866)
(-0.00564311 -0.0394476 9.38749)
(0.00529859 -0.0387035 9.3865)
(0.0157605 -0.0379802 9.38493)
(0.0264621 -0.037582 9.38304)
(0.0370379 -0.0371953 9.38036)
(0.047743 -0.0369477 9.37784)
(0.0584197 -0.0372591 9.37461)
(0.06903 -0.037266 9.37061)
(0.0797624 -0.0371614 9.3664)
(0.0903898 -0.0363832 9.3614)
(0.102079 -0.0367897 9.35818)
(-0.0390984 -0.027424 9.39006)
(-0.0273124 -0.0277798 9.38957)
(-0.0160774 -0.0282854 9.39)
(-0.00515113 -0.0282606 9.38876)
(0.00568577 -0.0277734 9.38761)
(0.0161096 -0.0272606 9.38596)
(0.0267211 -0.0269599 9.38394)
(0.0372211 -0.0266938 9.38127)
(0.0478045 -0.0265284 9.37876)
(0.0583297 -0.0267494 9.37559)
(0.0687416 -0.0267633 9.3716)
(0.079389 -0.0265747 9.36757)
(0.0899913 -0.0260784 9.36259)
(0.101556 -0.0262015 9.35892)
(-0.0386929 -0.016195 9.39038)
(-0.0268207 -0.0166223 9.39029)
(-0.0155164 -0.0170496 9.39042)
(-0.00460353 -0.0171454 9.38913)
(0.00610351 -0.0168873 9.38798)
(0.0164921 -0.0165778 9.3864)
(0.026988 -0.0163881 9.38438)
(0.0373768 -0.0162559 9.38169)
(0.0478279 -0.0161905 9.37914)
(0.0581877 -0.0163394 9.37589)
(0.0684657 -0.0163778 9.37196)
(0.0789651 -0.0162088 9.36783)
(0.0896405 -0.0159505 9.3631)
(0.101032 -0.0159015 9.35891)
(-0.0388465 -0.00559276 9.39054)
(-0.026831 -0.00600062 9.39081)
(-0.0153838 -0.00630774 9.39066)
(-0.00436919 -0.00645507 9.38934)
(0.00633205 -0.00642218 9.38813)
(0.0167629 -0.00634443 9.3865)
(0.0272357 -0.00627858 9.38442)
(0.0375822 -0.00619031 9.38167)
(0.0479699 -0.00610877 9.37911)
(0.0582305 -0.00613308 9.37581)
(0.0684355 -0.00613752 9.37195)
(0.0787481 -0.00612701 9.36761)
(0.0895153 -0.00611186 9.36328)
(0.100643 -0.00614708 9.35849)
(-0.0392006 0.00497982 9.39032)
(-0.0270552 0.0046332 9.39053)
(-0.015521 0.00444823 9.39029)
(-0.00442775 0.00430496 9.389)
(0.00629938 0.00419114 9.38776)
(0.016771 0.00411877 9.38611)
(0.0272488 0.00411368 9.384)
(0.0375862 0.00411798 9.38123)
(0.0479394 0.00416194 9.37864)
(0.0581415 0.00421804 9.37532)
(0.0682827 0.00427534 9.37149)
(0.0784873 0.00409817 9.36715)
(0.0892264 0.00393845 9.36304)
(0.100288 0.00385167 9.35819)
(-0.0397523 0.0154063 9.3897)
(-0.0275213 0.0151518 9.38934)
(-0.0159472 0.0151279 9.38947)
(-0.00477427 0.0149774 9.38827)
(0.00603595 0.0147089 9.38706)
(0.0166175 0.0144821 9.38541)
(0.0271853 0.0144068 9.3833)
(0.0375958 0.0143641 9.38053)
(0.0479947 0.0144074 9.37788)
(0.0582338 0.014579 9.37454)
(0.0683284 0.0147115 9.37057)
(0.0785603 0.0143846 9.36636)
(0.0890249 0.0139936 9.36175)
(0.100211 0.013817 9.35733)
(-0.0407912 0.0258304 9.38836)
(-0.0284455 0.0256794 9.38788)
(-0.0167668 0.0258196 9.38833)
(-0.00540596 0.02561 9.3872)
(0.00562067 0.0251775 9.38604)
(0.0163911 0.0248045 9.38433)
(0.0271151 0.0246674 9.38216)
(0.0376495 0.0245972 9.37936)
(0.0481426 0.0246489 9.37665)
(0.0584731 0.0249787 9.37333)
(0.0685899 0.0251816 9.36924)
(0.0789064 0.0248381 9.36517)
(0.0890965 0.0241678 9.36008)
(0.100511 0.0239673 9.35646)
(-0.0418245 0.0363926 9.3865)
(-0.0293394 0.036215 9.38599)
(-0.0175156 0.03645 9.38633)
(-0.00599248 0.0360892 9.38521)
(0.0052191 0.0354988 9.38414)
(0.0161391 0.0350182 9.38247)
(0.0269938 0.0348633 9.38034)
(0.0376426 0.0347878 9.37756)
(0.0482473 0.0348532 9.37483)
(0.0586789 0.0353476 9.37145)
(0.0689203 0.0356244 9.36731)
(0.0792722 0.0353957 9.36307)
(0.0893507 0.0344103 9.3578)
(0.100894 0.0344137 9.35489)
(-0.0429837 0.0469971 9.38398)
(-0.030094 0.0466119 9.38348)
(-0.0179925 0.0471052 9.38408)
(-0.00618775 0.0466555 9.38343)
(0.00522435 0.0459843 9.38254)
(0.0161616 0.045446 9.38089)
(0.0269435 0.0452748 9.37859)
(0.0374881 0.0451838 9.37577)
(0.0480343 0.0452577 9.37309)
(0.0585027 0.0458983 9.36975)
(0.0689074 0.0462198 9.36559)
(0.079348 0.0462044 9.36101)
(0.0895152 0.0447594 9.35555)
(0.101353 0.0453563 9.35302)
(-0.041373 0.0581372 9.3816)
(-0.0290077 0.057372 9.38104)
(-0.0171958 0.0578255 9.38076)
(-0.00563541 0.0572132 9.38025)
(0.0056121 0.0565791 9.37959)
(0.0164109 0.0561126 9.37827)
(0.0270861 0.0560399 9.37625)
(0.0374852 0.055934 9.3734)
(0.0477639 0.0558858 9.37028)
(0.0579058 0.0564612 9.36652)
(0.0681318 0.0568312 9.36252)
(0.0780924 0.0570374 9.35779)
(0.0882126 0.0552922 9.35327)
(0.0993176 0.0567144 9.35047)
(-0.0440728 0.0698641 9.37925)
(-0.0306759 0.0683987 9.37893)
(-0.0181277 0.0692915 9.37893)
(-0.00621963 0.0684922 9.37837)
(0.00514603 0.0678153 9.37717)
(0.0158291 0.0673074 9.37551)
(0.0263843 0.067247 9.37328)
(0.0367205 0.0672866 9.37086)
(0.0469712 0.0674391 9.36851)
(0.0571272 0.0681557 9.36523)
(0.0675216 0.0685525 9.36142)
(0.078045 0.0692209 9.35699)
(0.0886989 0.0667522 9.35247)
(0.100741 0.0694104 9.34876)
(-0.0393241 -0.0659422 8.77898)
(-0.0290457 -0.0642371 8.77937)
(-0.019292 -0.0653136 8.77911)
(-0.00987953 -0.0647474 8.77898)
(-0.0006813 -0.0638546 8.77834)
(0.00805115 -0.0632343 8.77717)
(0.0167694 -0.0628456 8.77568)
(0.025376 -0.0623596 8.77373)
(0.0340976 -0.0619962 8.77201)
(0.0429436 -0.062185 8.76972)
(0.0520613 -0.0620824 8.76677)
(0.0615615 -0.0623326 8.76329)
(0.0715121 -0.060356 8.75961)
(0.0828153 -0.0619786 8.75635)
(-0.0379398 -0.0543633 8.78015)
(-0.028124 -0.0537819 8.78007)
(-0.0185857 -0.0546385 8.78018)
(-0.00926089 -0.0543435 8.77991)
(-0.00010952 -0.053552 8.77947)
(0.00874116 -0.0530264 8.77858)
(0.0175559 -0.0527012 8.77737)
(0.0262631 -0.0523058 8.77534)
(0.035042 -0.0519779 8.77322)
(0.0438379 -0.0521874 8.77041)
(0.0527931 -0.0521903 8.76722)
(0.0617368 -0.0522683 8.76353)
(0.0709937 -0.0509795 8.76007)
(0.0807849 -0.051999 8.75748)
(-0.0392388 -0.0439052 8.78221)
(-0.0289701 -0.0438893 8.7818)
(-0.0191741 -0.0447201 8.78252)
(-0.00963316 -0.0445807 8.78185)
(-0.000335342 -0.0438701 8.78117)
(0.00874988 -0.0433613 8.78001)
(0.0177182 -0.0430383 8.77837)
(0.0265972 -0.0427702 8.77632)
(0.0355775 -0.0426164 8.7745)
(0.044635 -0.0429837 8.77217)
(0.0537423 -0.0430957 8.76905)
(0.0629842 -0.0431214 8.76565)
(0.0721692 -0.0421239 8.76154)
(0.0823204 -0.0427328 8.7593)
(-0.0388469 -0.0339453 8.78375)
(-0.0287444 -0.0342949 8.78316)
(-0.0190448 -0.0349931 8.78368)
(-0.00963708 -0.0350332 8.78262)
(-0.000440658 -0.0345126 8.78179)
(0.00873592 -0.0340953 8.78067)
(0.0178401 -0.0338486 8.77905)
(0.0268831 -0.0336973 8.77702)
(0.0359699 -0.0336498 8.77509)
(0.0450377 -0.0339987 8.77266)
(0.0540425 -0.0341281 8.76956)
(0.0631775 -0.0340009 8.76647)
(0.0721984 -0.0333168 8.76252)
(0.0820603 -0.0335111 8.76021)
(-0.0386446 -0.0243484 8.78456)
(-0.0284496 -0.0248412 8.78408)
(-0.0186959 -0.025438 8.78457)
(-0.00932036 -0.0256304 8.78341)
(-0.000238135 -0.0253391 8.78245)
(0.00888282 -0.025052 8.78125)
(0.0179204 -0.0248914 8.77951)
(0.0269016 -0.0248304 8.77749)
(0.0358972 -0.0248445 8.77562)
(0.044846 -0.0251188 8.77325)
(0.0537025 -0.025241 8.77022)
(0.0627748 -0.0250301 8.76728)
(0.0718167 -0.0245924 8.76338)
(0.0816728 -0.0245445 8.76073)
(-0.0384169 -0.0151914 8.78453)
(-0.0281168 -0.0157053 8.78448)
(-0.0182837 -0.0161622 8.78463)
(-0.00893034 -0.0164159 8.78343)
(4.22567e-05 -0.0163431 8.78248)
(0.00907048 -0.0162227 8.78135)
(0.0180093 -0.0161752 8.77962)
(0.0268922 -0.0162047 8.77759)
(0.0357851 -0.0162557 8.7757)
(0.0446127 -0.0164448 8.77326)
(0.0533872 -0.0165508 8.7703)
(0.0623713 -0.0163836 8.76725)
(0.0715367 -0.0161742 8.76362)
(0.0813188 -0.015979 8.76053)
(-0.0386165 -0.00636541 8.78443)
(-0.0281839 -0.00679097 8.78471)
(-0.018243 -0.00707887 8.78458)
(-0.00881512 -0.00727054 8.78341)
(0.000161295 -0.00732039 8.78242)
(0.00918206 -0.00733378 8.78126)
(0.0180964 -0.00735345 8.7795)
(0.0269454 -0.00742645 8.77743)
(0.0358001 -0.0074693 8.77555)
(0.0445742 -0.00756459 8.77309)
(0.0533255 -0.00762708 8.77021)
(0.0622037 -0.00761769 8.76698)
(0.0714851 -0.00762522 8.76375)
(0.0810744 -0.0074956 8.76011)
(-0.038918 0.00238109 8.78425)
(-0.0283765 0.00208133 8.78445)
(-0.0183812 0.00194702 8.78423)
(-0.00891294 0.00183579 8.78308)
(7.59967e-05 0.00168876 8.78206)
(0.00910428 0.00154969 8.78089)
(0.0180138 0.00146697 8.77911)
(0.0268498 0.00135616 8.77703)
(0.0356857 0.00132877 8.77514)
(0.0444346 0.00132374 8.77267)
(0.0531552 0.00134017 8.76981)
(0.0619768 0.00115541 8.76656)
(0.0712489 0.000999197 8.76351)
(0.0807849 0.00103284 8.75977)
(-0.0393098 0.0110706 8.7837)
(-0.0287318 0.0109008 8.78334)
(-0.0187479 0.0109582 8.78347)
(-0.00925285 0.0109018 8.78237)
(-0.000201642 0.0106577 8.78139)
(0.00890036 0.0104077 8.7802)
(0.0178861 0.0102803 8.77843)
(0.0267923 0.0101568 8.77635)
(0.0356861 0.0101622 8.77442)
(0.0444897 0.0102758 8.77195)
(0.0531956 0.0103895 8.76896)
(0.0620527 0.0100616 8.76584)
(0.0711037 0.00973106 8.76232)
(0.0807456 0.00964978 8.75895)
(-0.0400812 0.0198075 8.78262)
(-0.0294441 0.0197701 8.7821)
(-0.0194186 0.0200232 8.78257)
(-0.0097968 0.0199474 8.78153)
(-0.000584478 0.0195842 8.78058)
(0.00866963 0.0192442 8.77932)
(0.0177832 0.0190908 8.77752)
(0.0268016 0.0189829 8.77542)
(0.0357932 0.0190367 8.77345)
(0.0446962 0.0193126 8.77099)
(0.0534391 0.0195324 8.76787)
(0.0623766 0.0191859 8.76488)
(0.0711928 0.0186361 8.76088)
(0.0810134 0.0184615 8.75815)
(-0.0408457 0.0287145 8.7811)
(-0.0301461 0.0286808 8.78048)
(-0.0200464 0.029068 8.7809)
(-0.0103012 0.0288738 8.77989)
(-0.000939545 0.0283823 8.77905)
(0.00844953 0.0280021 8.77781)
(0.0176678 0.0278607 8.77603)
(0.026785 0.0277935 8.77394)
(0.0358875 0.0279012 8.77196)
(0.0449063 0.0283531 8.76944)
(0.0537742 0.0286871 8.76623)
(0.0627662 0.0284531 8.76309)
(0.0714654 0.0276479 8.75885)
(0.0813684 0.02755 8.75669)
(-0.0415662 0.0377505 8.77909)
(-0.0305722 0.0375602 8.77848)
(-0.0202767 0.0381965 8.77918)
(-0.0102903 0.0379124 8.77861)
(-0.00080145 0.0373462 8.77791)
(0.00859602 0.0369904 8.77666)
(0.0176985 0.0368719 8.77472)
(0.026679 0.0368373 8.77258)
(0.0357046 0.0369808 8.77064)
(0.044749 0.0375837 8.76816)
(0.0537621 0.0380011 8.76492)
(0.0628584 0.037989 8.76145)
(0.0716083 0.0368148 8.75694)
(0.0817347 0.0371385 8.75507)
(-0.0400701 0.0472032 8.77708)
(-0.0295305 0.0467397 8.77645)
(-0.0194765 0.047329 8.77632)
(-0.00967533 0.0469236 8.77593)
(-0.000352488 0.0463995 8.77539)
(0.00890746 0.0462143 8.77451)
(0.0179166 0.0462242 8.77287)
(0.0267771 0.0462342 8.77072)
(0.0355741 0.0462964 8.76833)
(0.0443286 0.0468691 8.76545)
(0.0531552 0.0473422 8.76229)
(0.0618352 0.0475367 8.75864)
(0.0705338 0.0461117 8.7549)
(0.0800247 0.0471173 8.75279)
(-0.0421719 0.0572774 8.77492)
(-0.0306295 0.0561473 8.77479)
(-0.0199447 0.0570793 8.77496)
(-0.00980782 0.0566003 8.77464)
(-0.000438411 0.0561054 8.77361)
(0.00869853 0.0559455 8.77234)
(0.0175728 0.0559892 8.77046)
(0.0263389 0.0561606 8.76862)
(0.0350795 0.0564246 8.76695)
(0.043791 0.0571347 8.76448)
(0.052715 0.0576445 8.76152)
(0.0617802 0.058244 8.75809)
(0.0708352 0.0561694 8.75428)
(0.081065 0.0584206 8.75114)
(-0.0372599 -0.0576728 8.21162)
(-0.0284861 -0.0566291 8.21225)
(-0.0202691 -0.0579165 8.21216)
(-0.0122018 -0.0578059 8.21216)
(-0.00441762 -0.0573001 8.21165)
(0.00319466 -0.0569757 8.21069)
(0.0106741 -0.0567744 8.20935)
(0.0180724 -0.0564778 8.20778)
(0.0255087 -0.0562259 8.20634)
(0.0330386 -0.0563335 8.20458)
(0.0407159 -0.0562208 8.20214)
(0.048728 -0.0562674 8.19932)
(0.0570176 -0.0544435 8.19618)
(0.0666282 -0.0554589 8.19344)
(-0.0364499 -0.0480232 8.21234)
(-0.0281682 -0.0479656 8.21226)
(-0.020066 -0.0490441 8.21253)
(-0.0120074 -0.0491187 8.21242)
(-0.00426794 -0.0486609 8.21211)
(0.00347731 -0.0483922 8.21147)
(0.0110739 -0.0482296 8.21042)
(0.0186149 -0.0480025 8.20885)
(0.0261805 -0.0477937 8.20707)
(0.0337728 -0.0479333 8.20482)
(0.0414231 -0.0479256 8.20213)
(0.0490907 -0.0478529 8.19921)
(0.0568586 -0.046609 8.1963)
(0.0651018 -0.0470533 8.19443)
(-0.0378893 -0.0393982 8.21382)
(-0.0292058 -0.0397667 8.21346)
(-0.0208648 -0.040796 8.2143)
(-0.0125906 -0.0409427 8.21381)
(-0.00463921 -0.0404837 8.21327)
(0.00334923 -0.0401927 8.21241)
(0.0111113 -0.0399959 8.21092)
(0.0188277 -0.0398612 8.20932)
(0.026612 -0.0398081 8.20789)
(0.0344776 -0.0400958 8.20609)
(0.0423395 -0.0402173 8.20353)
(0.050328 -0.040118 8.20094)
(0.0581031 -0.0391247 8.19747)
(0.066731 -0.0392779 8.19581)
(-0.0378603 -0.0310524 8.21486)
(-0.0292604 -0.0316614 8.21431)
(-0.0209827 -0.0325378 8.21496)
(-0.0128872 -0.0328165 8.21411)
(-0.00491299 -0.0324734 8.21344)
(0.00314427 -0.032242 8.21267)
(0.0110873 -0.0320823 8.21122)
(0.0190209 -0.032031 8.20966)
(0.0269691 -0.0320665 8.20817)
(0.034884 -0.0323558 8.20624)
(0.0426983 -0.0325037 8.20375)
(0.0506027 -0.0322762 8.20145)
(0.0583008 -0.0315803 8.19817)
(0.0667493 -0.031449 8.1965)
(-0.0378963 -0.0229553 8.21533)
(-0.029182 -0.0236514 8.21491)
(-0.0208134 -0.0243936 8.21551)
(-0.0127833 -0.0248147 8.21453)
(-0.00482004 -0.0246664 8.21374)
(0.0031803 -0.024551 8.21291)
(0.0110767 -0.024464 8.21134)
(0.0189786 -0.024479 8.2098)