/*--------------------------------*- C++ -*----------------------------------*\
| =========                 |                                                 |
| \\      /  F ield         | OpenFOAM: The Open Source CFD Toolbox           |
|  \\    /   O peration     | Version:  v2106                                 |
|   \\  /    A nd           | Website:  www.openfoam.com                      |
|    \\/     M anipulation  |                                                 |
\*---------------------------------------------------------------------------*/
FoamFile
{
    version     2.0;
    format      ascii;
    arch        "LSB;label=32;scalar=64";
    class       volScalarField;
    location    "0.000182";
    object      p;
}
// * * * * * * * * * * * * * * * * * * * * * * * * * * * * * * * * * * * * * //

dimensions      [1 -1 -2 0 0 0 0];

internalField   nonuniform List<scalar> 
144746
(
199521
199291
198695
198376
198427
198415
198514
198421
198339
198030
197634
197303
196844
197254
199224
198964
198528
198307
198318
198228
198281
198110
197859
197458
196951
196717
196502
197002
199516
199040
198692
198404
198326
198188
198154
197929
197579
197090
196523
196210
195832
196185
199723
199160
198840
198476
198304
198157
198047
197769
197365
196817
196263
195906
195587
195723
199755
199211
198877
198602
198341
198144
197933
197611
197206
196670
196193
195819
195539
195649
199690
199235
198915
198556
198290
198047
197785
197442
197015
196548
196103
195753
195554
195641
199565
199160
198839
198502
198211
197929
197609
197229
196809
196417
196050
195817
195700
195773
199374
199033
198718
198397
198107
197795
197432
197029
196631
196275
195954
195728
195576
195651
199066
198733
198457
198213
197950
197637
197262
196857
196474
196132
195826
195637
195562
195730
198815
198560
198333
198092
197808
197483
197101
196696
196308
195957
195638
195453
195317
195518
198616
198370
198215
197978
197696
197355
196974
196558
196158
195776
195445
195243
195161
195339
198615
198215
198156
197946
197680
197371
196992
196550
196144
195743
195421
195221
195250
195410
198767
198178
198084
197891
197641
197380
197054
196586
196115
195632
195270
195041
195263
195190
199038
198051
198178
198035
197889
197572
197320
196805
196346
195935
195669
195675
196292
196369
199886
199849
199566
199488
199673
199765
199931
199934
199806
199527
199058
198640
198013
198042
199724
199718
199608
199603
199724
199734
199862
199771
199529
199193
198596
198201
197695
197776
199949
199844
199827
199769
199791
199747
199778
199631
199323
198988
198406
197981
197378
197289
200102
199927
199880
199840
199743
199659
199622
199453
199149
198833
198295
197857
197340
197081
200115
199938
199841
199764
199670
199583
199472
199273
198988
198683
198262
197877
197460
197222
200042
199891
199752
199683
199573
199452
199306
199071
198839
198536
198223
197922
197595
197386
199846
199730
199605
199571
199464
199324
199133
198884
198638
198365
198122
197952
197752
197648
199654
199545
199485
199446
199347
199182
198965
198708
198469
198234
198048
197919
197784
197747
199430
199354
199338
199289
199193
199032
198812
198551
198313
198069
197911
197811
197746
197849
199252
199243
199273
199212
199094
198919
198680
198393
198185
197912
197726
197640
197588
197748
199080
199081
199184
199131
199043
198843
198580
198239
198047
197732
197495
197357
197313
197533
199103
198982
199172
199112
199060
198841
198544
198194
197923
197570
197313
197170
197141
197369
199181
198908
199094
199121
199088
198859
198483
198101
197686
197288
196938
196706
196734
196809
199215
198857
199191
199238
199177
198901
198480
198095
197580
197185
196843
196751
197027
197140
202917
202692
202373
202217
202261
202152
202199
202043
201777
201328
200797
199983
199281
198722
202934
202814
202555
202394
202365
202220
202182
201951
201635
201140
200496
199738
199037
198456
203077
203014
202840
202600
202418
202219
202078
201783
201426
200917
200296
199539
198683
197978
203211
203030
202818
202588
202351
202126
201925
201597
201219
200698
200087
199328
198482
197682
203209
203021
202774
202521
202248
201976
201713
201352
200965
200460
199924
199228
198460
197662
203038
202839
202574
202326
202053
201765
201469
201095
200688
200192
199683
199067
198445
197731
202751
202561
202303
202062
201780
201492
201181
200818
200411
199984
199504
198987
198438
197837
202444
202253
202008
201771
201494
201205
200879
200520
200117
199726
199287
198870
198406
197915
202039
201861
201669
201448
201188
200897
200566
200204
199819
199465
199076
198734
198341
197957
201747
201529
201321
201108
200865
200563
200216
199872
199534
199188
198833
198516
198179
197829
201438
201228
201116
200870
200552
200243
199911
199540
199167
198824
198486
198164
197837
197547
201342
201033
200938
200660
200328
199976
199579
199171
198812
198461
198118
197809
197462
197206
201227
200937
200830
200533
200171
199783
199350
198884
198464
197969
197543
197187
196946
196678
201220
200690
200610
200366
199991
199549
199056
198545
198093
197594
197198
196991
196898
196723
198979
200364
200918
202312
203197
204779
196529
198121
199162
201310
202214
204708
196387
197926
198758
200870
201797
204680
195867
197251
198126
200321
201309
204613
195804
196922
197855
200022
200940
204836
195752
196705
197566
199712
200697
204732
195823
196687
197604
199815
200633
204693
195826
196744
197629
199680
200468
204076
195933
196825
197764
199674
200652
203730
195869
196795
197800
199600
200931
203725
195892
196906
198048
199708
201130
203981
196084
197014
198169
199869
201350
203936
196425
197484
198834
200455
201820
203845
196744
197600
199161
201086
202465
204091
199150
200283
200396
201228
201421
203090
196901
197946
198586
200284
200453
203086
196968
197815
198212
199927
200001
203141
196749
197374
197718
199458
199524
203023
197000
197430
197760
199352
199133
203411
197209
197560
197879
199293
199294
202767
197550
197903
198252
199556
199648
202622
197710
198136
198540
199714
199782
202344
197928
198389
198838
199963
200042
202189
197883
198388
198879
199890
199927
202148
197772
198260
198779
199737
199904
202427
197564
197967
198399
199346
199518
201999
197403
197615
198238
199404
199628
201898
196569
196650
197634
199140
199750
201312
199721
200906
201107
201643
202435
204159
197221
197783
198331
199888
200995
204034
197102
197293
197697
199125
200074
203468
196742
196575
196845
198278
199167
202589
196902
196455
196535
197952
198593
201753
197084
196520
196380
197406
198016
200649
197300
196829
196619
197449
197964
199624
197441
197037
196882
197410
197550
198727
197599
197291
197240
197539
197728
198330
197495
197240
197313
197631
197654
198215
197279
197102
197215
197682
197653
199198
196915
196779
196948
197535
197680
199870
196795
196621
196852
197555
198191
200702
195742
195274
195794
197016
198408
200141
197897
199635
200166
201697
202563
204293
195666
197467
198459
200815
201836
204559
195694
197420
198259
200619
201519
204759
195686
197070
197883
200236
201200
204874
196099
197197
198075
200328
201127
205118
196573
197479
198290
200348
201001
205232
197055
197911
198679
200598
201187
205381
197594
198365
198924
200714
201371
204985
197790
198670
199328
201013
201549
204777
198159
198894
199582
201167
201817
204658
198282
199008
199828
201307
202095
204899
198492
199151
199958
201249
202352
204859
198762
199340
200289
201656
202766
204682
198481
199072
200308
201919
203106
204563
197839
198950
198970
199745
199863
201653
195998
196904
197270
198986
199127
201969
196220
196842
197130
198920
198942
202303
196401
196723
197023
198746
198848
202478
196910
197066
197439
199054
199055
202839
197424
197563
197932
199337
199178
203100
198054
198210
198457
199718
199655
203370
198508
198867
199050
200260
200471
203063
198967
199382
199572
200803
200895
202966
199271
199726
200013
201141
201153
203012
199341
199781
200163
201249
201140
203527
199274
199646
199976
200909
200924
203346
199274
199547
199869
200815
200994
203213
198498
198493
199140
200463
201200
202325
197365
198169
198395
198859
199444
201177
195769
196029
196271
197516
198432
201547
196177
196091
196208
197477
198322
201910
196529
196266
196310
197552
198311
202093
197137
196780
196825
197989
198644
202312
197722
197397
197478
198521
199010
202378
198350
198150
198168
199031
199602
202530
198904
198850
199048
199777
200249
202346
199502
199611
199744
200425
200706
202290
199997
200238
200346
200972
201039
202430
200386
200591
200659
201345
201257
203010
200603
200673
200747
201467
201493
203865
200801
200807
200973
201598
201806
204440
200013
199991
200393
201311
202031
203236
205446
203991
202460
200921
199667
199317
205856
203454
202550
201667
200796
200350
205688
202883
202536
201504
200758
200164
205923
202933
202696
201559
200909
200223
206068
203218
202952
201575
201017
200171
206306
203329
202986
201465
200886
200066
206374
203242
202654
201265
200683
199945
206651
202609
202328
200927
200367
199777
206286
202541
202141
200615
199983
199423
205663
202536
201914
200225
199581
199033
205352
202332
201693
199887
199312
198615
205142
202474
201888
200036
199491
198423
204951
202655
201960
200117
199461
198018
204787
203358
202724
201639
201442
199947
203752
202947
201794
200418
199313
199271
205295
201831
201670
201153
200566
200347
204677
201826
201902
201084
200535
200177
204201
202298
202169
201263
200779
200345
204158
202284
202088
201161
200810
200318
204296
202155
202017
201100
200743
200246
203931
201776
201539
200641
200371
200031
203648
201355
201247
200349
200154
199848
203783
200426
200537
199758
199657
199562
203122
200434
200335
199336
199241
199247
202857
200146
200066
198948
198880
198901
202748
200198
200230
198984
198853
198700
202636
200370
200296
199059
198827
198377
202642
201303
201247
200801
200806
199824
205555
204731
203762
202565
202022
202173
206505
203971
203941
203504
203315
203324
204408
203814
203603
203391
203201
203235
203200
203802
203540
203712
203451
203442
202480
203262
203153
203580
203438
203373
202139
203128
203050
203483
203379
203221
201942
202859
202726
203023
203026
202942
202646
202726
202535
202675
202609
202597
203121
202599
202243
202195
202203
202172
203630
202550
201985
201746
201756
201826
203932
202176
201780
201309
201285
201308
203877
202016
201753
201176
201144
200982
203940
202045
201787
201084
201012
200563
203820
202892
202783
202587
202574
201979
204836
203484
202130
200441
198750
197863
205178
203107
201761
200448
199159
198490
205317
202954
201741
200320
199155
198388
205627
202969
202071
200494
199476
198557
205618
203054
202408
200715
199757
198701
205682
203264
202512
200825
199957
198918
205829
203080
202344
200623
199749
198825
205726
202976
202122
200482
199746
198899
206455
202214
201658
200054
199367
198656
206016
202309
201691
199987
199330
198572
205374
202363
201627
199811
199215
198328
205268
202694
201999
200225
199683
198563
205258
203030
202224
200478
199681
198443
205375
203929
203190
202331
202151
200879
203121
201684
201044
199508
198243
198083
203775
201711
201192
200161
199412
199125
204090
201681
201295
200237
199673
199212
204645
201684
201681
200626
200159
199587
204212
202141
201906
200826
200407
199858
204297
202400
202022
201068
200594
200127
204428
202337
201923
200913
200426
200070
204287
202043
201746
200697
200304
199994
204340
201508
201362
200103
199860
199755
204893
200886
201105
199796
199513
199494
204077
201151
201030
199546
199254
199152
204002
201424
201312
199813
199498
199121
203900
201803
201511
200016
199516
198895
203902
202679
202488
202022
201985
200945
203462
201887
200437
199118
198113
198439
203955
201732
201175
200515
199991
200015
202885
201452
201073
200641
200273
200238
201863
201698
201471
201389
201009
201028
201216
201835
201689
201829
201471
201509
201511
201964
201938
202250
201971
201974
201942
202233
202100
202218
202127
202144
203131
202500
202142
202017
202051
202177
204177
202670
201962
201711
201869
202048
204602
203074
202318
201752
201777
202017
205346
203378
202556
201790
201697
201828
205975
203868
203131
202271
202046
201922
206382
204352
203665
202620
202316
201950
206169
205465
205187
204951
204742
203832
205362
205191
205065
204761
204573
204302
204142
203851
203527
203115
202623
201935
201318
200659
205131
205004
204765
204534
204404
204166
203974
203657
203293
202860
202339
201700
201038
200243
204993
204847
204662
204478
204256
204013
203779
203444
203061
202618
202116
201498
200719
199890
204982
204742
204543
204343
204091
203820
203536
203176
202782
202339
201843
201199
200445
199561
204875
204575
204360
204122
203871
203577
203258
202883
202480
202025
201521
200901
200256
199451
204663
204364
204120
203847
203586
203274
202934
202540
202123
201663
201150
200572
199953
199230
204369
204066
203809
203521
203258
202936
202583
202179
201753
201296
200799
200291
199743
199125
204045
203726
203458
203158
202889
202558
202194
201781
201348
200897
200408
199940
199447
198922
203665
203332
203051
202759
202480
202156
201783
201373
200942
200504
200038
199603
199166
198705
203329
202938
202641
202359
202058
201732
201345
200936
200502
200070
199636
199210
198811
198401
202998
202582
202277
201996
201681
201344
200942
200532
200092
199669
199240
198826
198429
198019
202742
202205
201892
201600
201278
200930
200531
200127
199684
199272
198852
198456
198046
197610
202519
201913
201595
201311
200977
200608
200198
199780
199307
198875
198390
197941
197590
197172
202011
201473
201253
200994
200676
200340
199926
199485
198989
198549
198089
197712
197374
197245
207029
206800
206551
206274
206119
205892
205689
205428
205106
204697
204207
203538
202882
202199
206951
206694
206430
206207
205968
205693
205446
205131
204757
204285
203753
203116
202464
201703
206839
206560
206292
206037
205773
205487
205184
204827
204425
203954
203432
202792
202084
201407
206675
206355
206081
205817
205546
205228
204878
204484
204059
203570
203044
202416
201695
201039
206431
206108
205830
205547
205252
204910
204533
204114
203673
203179
202658
202045
201370
200753
206132
205806
205519
205220
204917
204562
204166
203722
203263
202759
202245
201651
201028
200439
205778
205434
205145
204840
204529
204161
203754
203295
202826
202321
201820
201276
200747
200223
205366
205012
204714
204402
204086
203713
203298
202833
202357
201860
201368
200872
200403
199936
204916
204541
204231
203912
203590
203217
202803
202345
201871
201397
200919
200482
200055
199637
204466
204061
203731
203405
203075
202700
202289
201843
201378
200935
200466
200066
199647
199270
204004
203587
203243
202915
202566
202185
201774
201343
200892
200459
199994
199615
199196
198869
203580
203107
202735
202429
202079
201702
201295
200869
200412
199967
199530
199124
198703
198375
203152
202673
202333
202006
201653
201257
200825
200395
199927
199483
199041
198609
198182
197754
202556
202175
201855
201563
201242
200867
200448
200032
199542
199105
198638
198294
197932
197582
208469
208220
208067
207859
207663
207428
207201
206901
206566
206149
205662
205084
204481
203803
208411
208138
207924
207682
207455
207178
206885
206538
206146
205675
205155
204575
203958
203247
208287
207981
207726
207458
207204
206907
206588
206210
205784
205289
204749
204170
203539
202846
208101
207773
207498
207207
206921
206588
206223
205814
205364
204854
204310
203739
203117
202421
207844
207503
207205
206893
206589
206239
205853
205427
204959
204442
203895
203335
202728
202073
207506
207151
206854
206538
206219
205848
205442
204994
204505
203984
203442
202893
202294
201714
207106
206728
206426
206104
205776
205396
204979
204518
204018
203500
202970
202446
201886
201389
206643
206249
205942
205616
205281
204895
204468
203998
203493
202980
202467
201970
201472
201018
206128
205722
205402
205070
204731
204342
203915
203446
202949
202451
201964
201488
201047
200647
205578
205165
204833
204496
204148
203758
203333
202871
202388
201907
201439
200991
200568
200209
205008
204597
204259
203920
203568
203176
202754
202299
201829
201366
200901
200474
200039
199713
204419
203985
203660
203343
202995
202613
202199
201755
201291
200834
200361
199955
199516
199160
203824
203436
203144
202843
202507
202125
201703
201253
200784
200331
199865
199447
199003
198611
203142
202787
202526
202271
201968
201600
201197
200767
200299
199854
199417
199035
198604
198191
209684
209432
209250
209046
208886
208676
208450
208171
207847
207448
206983
206435
205846
205121
209600
209340
209120
208888
208677
208420
208140
207797
207402
206928
206395
205826
205228
204507
209437
209163
208910
208652
208410
208118
207798
207422
206992
206484
205926
205339
204741
204072
209225
208927
208656
208377
208108
207791
207435
207019
206549
206003
205429
204833
204257
203634
208914
208598
208319
208029
207739
207404
207031
206603
206120
205564
204990
204398
203841
203248
208540
208205
207918
207616
207316
206967
206578
206136
205641
205085
204525
203950
203403
202832
208097
207744
207454
207142
206832
206472
206074
205627
205131
204586
204044
203497
202956
202460
207592
207226
206937
206618
206299
205930
205523
205070
204577
204051
203529
203025
202491
202054
207031
206657
206368
206040
205715
205336
204927
204473
203990
203489
202990
202535
202030
201643
206415
206045
205759
205429
205098
204714
204303
203854
203384
202908
202430
202011
201518
201185
205764
205413
205133
204807
204469
204080
203666
203219
202760
202306
201845
201444
200974
200659
205061
204732
204475
204171
203839
203459
203051
202613
202164
201723
201266
200864
200408
200042
204367
204094
203866
203585
203261
202889
202483
202047
201597
201158
200697
200266
199830
199425
203613
203373
203180
202951
202664
202308
201926
201520
201090
200664
200207
199818
199322
198841
210620
210446
210278
210115
209966
209770
209566
209307
209000
208629
208181
207646
207029
206361
210518
210351
210150
209953
209758
209519
209263
208948
208569
208108
207577
206979
206364
205640
210345
210134
209920
209701
209480
209214
208918
208557
208130
207627
207064
206435
205823
205126
210094
209853
209618
209378
209134
208844
208517
208120
207654
207107
206515
205875
205285
204650
209737
209473
209225
208972
208712
208408
208066
207656
207182
206630
206042
205414
204851
204249
209322
209034
208770
208501
208231
207916
207562
207144
206670
206124
205553
204954
204416
203847
208845
208535
208260
207975
207696
207374
207015
206599
206133
205607
205065
204506
203982
203453
208316
207991
207714
207414
207123
206790
206427
206015
205560
205057
204542
204026
203516
203047
207738
207402
207130
206816
206514
206170
205804
205396
204953
204477
203991
203529
203025
202634
207112
206778
206519
206196
205887
205531
205162
204758
204329
203880
203420
203003
202476
202151
206448
206126
205884
205562
205246
204883
204508
204104
203681
203250
202803
202401
201894
201594
205719
205428
205217
204915
204604
204246
203868
203465
203050
202630
202196
201797
201308
200963
205000
204754
204561
204286
203981
203629
203254
202852
202434
202014
201572
201148
200678
200294
204162
204000
203840
203622
203363
203052
202696
202311
201902
201494
201057
200622
200128
199574
211361
211236
211091
210943
210790
210602
210425
210204
209956
209642
209259
208750
208187
207505
211234
211107
210928
210760
210577
210360
210133
209855
209538
209136
208670
208096
207495
206736
211047
210868
210683
210492
210293
210057
209797
209481
209108
208649
208131
207512
206897
206159
210767
210550
210346
210136
209920
209665
209379
209029
208615
208111
207549
206902
206289
205628
210379
210145
209925
209704
209475
209209
208909
208545
208118
207603
207039
206411
205826
205242
209929
209678
209436
209200
208964
208692
208386
208017
207587
207077
206526
205932
205383
204859
209430
209156
208903
208652
208409
208135
207829
207467
207052
206566
206046
205495
204984
204495
208882
208592
208338
208074
207824
207542
207237
206883
206483
206022
205531
205022
204525
204072
208285
207992
207746
207469
207214
206923
206619
206272
205885
205447
204979
204514
204021
203622
207653
207363
207134
206850
206593
206292
205989
205646
205269
204851
204404
203970
203453
203103
206985
206702
206496
206212
205952
205644
205334
204989
204612
204203
203765
203354
202839
202517
206248
205998
205822
205556
205308
205003
204685
204338
203963
203567
203139
202728
202207
201857
205511
205293
205133
204892
204646
204357
204036
203685
203302
202903
202468
202046
201542
201170
204646
204512
204395
204227
204024
203764
203452
203110
202734
202345
201906
201480
200929
200398
211982
211867
211722
211567
211395
211209
211046
210870
210689
210465
210187
209770
209305
208688
211845
211708
211523
211347
211160
210961
210769
210559
210324
210015
209657
209177
208648
207918
211625
211429
211244
211051
210862
210658
210452
210211
209931
209570
209148
208604
208032
207290
211305
211090
210897
210694
210498
210279
210047
209772
209451
209042
208567
207977
207378
206685
210893
210678
210472
210266
210064
209840
209600
209310
208966
208533
208036
207452
206873
206256
210424
210206
209986
209776
209570
209344
209098
208799
208443
208005
207509
206952
206409
205865
209916
209691
209470
209254
209045
208817
208570
208274
207922
207497
207021
206504
206000
205526
209361
209136
208923
208700
208489
208259
208015
207724
207380
206971
206512
206033
205545
205129
208772
208555
208355
208128
207916
207677
207434
207146
206810
206416
205974
205536
205043
204693
208151
207942
207763
207538
207331
207086
206847
206559
206223
205839
205412
204994
204482
204150
207508
207302
207145
206924
206720
206465
206216
205922
205585
205208
204783
204366
203853
203530
206799
206606
206484
206283
206093
205835
205574
205270
204923
204550
204139
203724
203203
202839
206065
205885
205784
205591
205427
205196
204930
204623
204263
203881
203453
203019
202499
202128
205205
205114
205065
204954
204802
204591
204324
204023
203662
203292
202854
202425
201846
201337
212602
212466
212313
212149
211970
211796
211653
211516
211401
211256
211084
210777
210403
209871
212421
212265
212074
211892
211708
211531
211374
211216
211066
210860
210611
210245
209821
209186
212169
211961
211775
211585
211409
211235
211078
210904
210722
210474
210173
209751
209275
208612
211807
211607
211424
211235
211060
210879
210708
210510
210292
210000
209642
209165
208632
207988
211390
211205
211010
210829
210659
210480
210305
210095
209851
209525
209130
208633
208092
207498
210919
210746
210557
210383
210212
210031
209848
209623
209357
209011
208597
208104
207580
207045
210421
210263
210084
209913
209743
209559
209371
209137
208859
208508
208097
207628
207141
206667
209880
209745
209584
209416
209244
209050
208857
208619
208334
207980
207573
207130
206668
206243
209304
209197
209057
208894
208724
208517
208318
208077
207784
207432
207029
206613
206146
205795
208696
208603
208492
208336
208178
207969
207766
207512
207209
206851
206450
206059
205568
205257
208083
207976
207888
207734
207592
207374
207152
206888
206578
206230
205833
205431
204929
204635
207390
207277
207247
207114
206983
206759
206514
206233
205906
205554
205166
204766
204262
203930
206644
206524
206533
206427
206323
206130
205874
205585
205237
204867
204455
204023
203494
203161
205792
205765
205854
205795
205684
205511
205245
204946
204578
204203
203779
203370
202806
202315
213313
213148
212981
212795
212601
212433
212300
212183
212092
211993
211897
211695
211413
210964
213069
212903
212707
212508
212326
212161
212021
211890
211779
211642
211485
211230
210923
210433
212795
212597
212407
212205
212036
211883
211756
211627
211504
211345
211151
210849
210495
209965
212391
212230
212055
211873
211719
211569
211442
211302
211157
210963
210722
210373
209963
209419
211994
211865
211693
211524
211375
211230
211106
210965
210807
210586
210304
209917
209466
208926
211540
211440
211298
211138
210999
210856
210727
210570
210389
210140
209824
209420
208951
208435
211075
211007
210887
210739
210603
210454
210315
210146
209946
209679
209343
208938
208481
208004
210572
210552
210453
210319
210181
210021
209869
209680
209455
209171
208819
208421
207979
207539
210046
210056
209987
209862
209732
209562
209392
209181
208930
208629
208266
207884
207444
207068
209494
209510
209488
209387
209268
209071
208875
208639
208365
208052
207677
207316
206845
206529
208938
208923
208936
208845
208721
208503
208281
208026
207731
207409
207031
206665
206182
205925
208278
208273
208340
208252
208127
207912
207655
207374
207052
206719
206350
205983
205495
205229
207555
207514
207636
207599
207488
207295
207015
206716
206363
206006
205619
205209
204693
204404
206719
206811
206984
206967
206849
206672
206371
206051
205665
205288
204880
204493
203985
203507
206321
207068
207519
207946
208784
209476
204944
205407
205776
206454
207974
209330
204886
205262
205586
206323
207931
209359
204706
204968
205234
206011
207795
209284
204662
204898
205171
205956
207773
209359
204421
204633
204944
205798
207632
209445
204276
204446
204698
205528
207280
209523
204022
204178
204396
205077
206760
209093
203740
203890
204108
204626
206462
208534
203305
203378
203751
203989
206013
207583
202827
202743
203278
203495
205494
206295
202090
201893
202384
202653
204537
205185
201810
201473
201889
202220
203705
204129
200076
199249
199712
200666
202165
203118
207732
208353
208658
209200
209453
210081
206887
207115
207324
207861
208524
209814
206808
207033
207358
207827
208503
209833
206458
206722
207005
207495
208438
209921
206353
206639
206995
207561
208674
210276
206131
206414
206804
207471
208678
210361
205960
206272
206675
207351
208588
210476
205740
206085
206505
207123
208400
209895
205462
205836
206300
206922
208008
209186
205054
205413
205964
206503
207512
208447
204618
204856
205442
205858
206895
207633
203895
203934
204482
204825
205834
206577
203362
203175
203596
203836
204702
205504
201636
201021
201254
201687
202657
203822
208756
209238
209702
210131
210339
210630
208314
208604
208800
209232
209751
210503
208271
208614
208944
209412
209864
210694
208057
208368
208735
209252
209810
210876
207952
208290
208715
209265
209981
211210
207735
208110
208575
209165
210041
211328
207532
207946
208428
209066
210088
211513
207266
207721
208243
208942
210039
211577
206962
207439
207974
208682
209779
210847
206570
207008
207561
208237
209070
209946
206110
206462
207002
207502
208292
208957
205511
205674
206171
206485
207243
207755
204957
204821
205297
205435
206141
206635
203551
203092
203350
203463
204066
204695
209826
210040
210255
210483
210557
210711
209613
209771
209895
210089
210332
210668
209461
209663
209865
210102
210320
210716
209255
209462
209702
210049
210454
210981
209113
209404
209725
210196
210742
211473
208928
209268
209657
210193
210853
211826
208746
209130
209570
210151
210906
212022
208512
208940
209404
210010
210872
212034
208239
208693
209167
209762
210646
211665
207877
208336
208808
209390
210041
210841
207440
207837
208282
208744
209210
209747
206899
207122
207507
207816
208193
208544
206297
206275
206598
206741
207121
207374
205123
204828
204871
204917
205262
205604
210696
210826
210984
211125
211096
211091
210635
210744
210858
210945
210951
211061
210468
210614
210736
210878
210934
211144
210309
210460
210625
210857
211080
211461
210179
210389
210631
211005
211434
212007
210006
210262
210592
211085
211667
212403
209840
210165
210569
211138
211815
212747
209633
210011
210460
211041
211757
212855
209379
209798
210242
210811
211543
212573
209047
209494
209934
210484
211183
212055
208619
209055
209458
209926
210369
211003
208097
208434
208755
209075
209313
209598
207488
207659
207887
208047
208227
208425
206622
206362
206381
206379
206497
206706
211357
211432
211544
211688
211671
211648
211426
211520
211596
211693
211633
211545
211270
211424
211492
211581
211548
211538
211137
211321
211412
211568
211660
211810
211001
211249
211414
211698
211992
212399
210832
211110
211354
211794
212285
212921
210697
211010
211361
211930
212571
213435
210520
210865
211271
211884
212595
213590
210306
210682
211101
211674
212356
213375
210030
210429
210812
211310
211937
212838
209661
210035
210375
210784
211295
212053
209167
209491
209748
210047
210329
210706
208611
208752
208969
209152
209247
209465
207828
207754
207699
207723
207708
207869
211969
212010
212079
212174
212199
212217
212051
212143
212210
212265
212297
212248
211917
212087
212196
212242
212253
212141
211792
212013
212175
212255
212309
212253
211636
211921
212166
212373
212595
212805
211449
211761
212069
212442
212898
213398
211307
211661
212050
212582
213266
214040
211158
211538
211961
212582
213347
214268
211010
211401
211829
212474
213205
214212
210814
211203
211607
212181
212848
213769
210540
210895
211230
211689
212189
212983
210141
210441
210706
211015
211329
211795
209667
209847
210002
210182
210285
210484
208979
208986
208899
208902
208842
208904
212590
212630
212653
212624
212553
212506
212671
212779
212820
212750
212692
212685
212555
212738
212852
212852
212819
212716
212427
212668
212855
212933
212920
212793
212252
212557
212842
213030
213139
213198
212069
212397
212743
213060
213409
213733
211929
212306
212721
213187
213792
214464
211800
212212
212667
213244
213995
214880
211705
212114
212584
213215
214003
214969
211578
211971
212406
212995
213693
214598
211398
211744
212092
212559
213091
213885
211090
211353
211593
211888
212182
212768
210684
210872
210977
211098
211241
211527
210059
210072
210005
209974
209868
209988
213342
213402
213410
213304
213175
212988
213373
213515
213549
213496
213295
213127
213238
213473
213580
213550
213414
213258
213099
213382
213552
213620
213555
213371
212911
213248
213519
213680
213725
213685
212729
213070
213401
213679
213930
214088
212586
212957
213363
213760
214214
214699
212463
212854
213304
213808
214491
215311
212377
212779
213260
213854
214678
215669
212275
212666
213129
213741
214550
215536
212159
212509
212885
213404
214023
214858
211935
212194
212437
212781
213158
213765
211606
211796
211888
212020
212147
212444
211095
211127
211038
211018
210910
210908
201250
201765
201846
201853
202439
203133
199279
199270
199227
199858
201078
202236
198931
198656
198521
199026
200348
201470
198538
197953
197640
198067
199673
200638
198514
197781
197320
197564
199261
200057
198420
197695
197168
197399
199007
199718
198382
197700
197118
197184