/*--------------------------------*- C++ -*----------------------------------*\
| =========                 |                                                 |
| \\      /  F ield         | OpenFOAM: The Open Source CFD Toolbox           |
|  \\    /   O peration     | Version:  v2106                                 |
|   \\  /    A nd           | Website:  www.openfoam.com                      |
|    \\/     M anipulation  |                                                 |
\*---------------------------------------------------------------------------*/
FoamFile
{
    version     2.0;
    format      ascii;
    arch        "LSB;label=32;scalar=64";
    class       volScalarField;
    location    "0.000179";
    object      epsilon;
}
// * * * * * * * * * * * * * * * * * * * * * * * * * * * * * * * * * * * * * //

dimensions      [0 2 -3 0 0 0 0];

internalField   nonuniform List<scalar> 
18109
(
262.339
127.76
73.9561
50.5956
43.0671
43.5333
50.4177
111.649
36.1465
16.1729
10.415
8.98732
9.20027
10.8585
54.9862
11.6887
3.23884
1.74592
1.49217
1.55419
1.95933
33.309
5.85132
1.00279
0.296734
0.203454
0.22232
0.36878
24.9311
4.58423
0.761858
0.126921
0.0345603
0.0392243
0.124028
23.2239
4.65485
0.817919
0.121533
0.0183995
0.0198643
0.09331
27.0726
5.58959
0.959171
0.136679
0.0240344
0.0293974
0.120362
36.3225
7.3101
1.21272
0.199931
0.0766742
0.0987231
0.249094
167.328
77.1039
41.1795
25.0854
18.6352
16.5932
17.6501
21.2873
30.5996
53.8787
115.52
272.451
637.821
1426.23
67.7236
19.8095
7.75958
4.28887
3.17701
2.86581
3.16559
4.20614
7.69537
19.2672
55.8758
159.389
417.79
999.791
32.1139
6.22326
1.41613
0.589127
0.416394
0.386055
0.488072
0.926419
2.72399
9.42927
31.8407
98.1788
273.435
697.524
19.7429
3.46394
0.556516
0.112365
0.0478059
0.046357
0.0956171
0.336002
1.38075
5.41981
19.3771
62.8337
186.523
516.182
16.0752
3.10065
0.532475
0.0816579
0.0130176
0.00961156
0.0390657
0.192377
0.883041
3.65214
13.639
46.4687
146.46
433.624
16.7317
3.44552
0.608949
0.0888897
0.0111781
0.00635578
0.0295715
0.153387
0.722332
3.0607
11.7541
41.3605
134.793
410.454
21.3507
4.37869
0.736509
0.102438
0.016085
0.012328
0.03869
0.174782
0.796305
3.35086
12.8516
45.0717
145.397
434.091
30.0828
5.89691
0.945115
0.150413
0.0550024
0.0594521
0.106533
0.312529
1.19334
4.66436
17.083
57.3854
176.603
500.243
43.5226
8.45172
1.52306
0.414772
0.289471
0.331044
0.464412
0.890787
2.43552
7.97466
26.3902
81.9836
234.712
619.234
66.4164
14.9309
3.98778
1.78721
1.44914
1.6183
2.10276
3.26392
6.50229
16.3589
45.6865
126.382
329.436
800.819
115.919
36.1861
14.3737
7.92689
6.34884
6.79131
8.53465
12.189
20.1453
39.6759
89.6327
213.405
497.94
1107.24
239.229
103.036
51.5548
31.1556
24.3548
24.8937
30.3918
41.7064
62.71
104.69
194.644
392.28
807.141
1634.22
522.268
280.093
160.933
104.782
82.1327
81.246
96.1823
127.98
182.742
277.54
448.971
776.147
1399.74
2578.23
1107.34
678.794
428.833
302.276
245.307
240.468
276.96
356.266
488.655
699.289
1029.87
1564.58
2464.61
4104.97
684.113
1605.43
3623.07
7778.74
16719.3
37853.8
461.897
1147.92
2709.27
5963.38
12828.5
28607
282.163
850.076
2285.57
5548.02
12974
31171.1
176.618
616.73
1855.18
4988.21
12852.1
33271.3
115.176
449.865
1498.04
4451.92
12420.8
34005.6
86.2822
358.053
1275.74
4061.89
11969.3
34011.7
76.1282
320.718
1172.53
3848.17
11608.1
33202.7
79.3625
328.194
1187.65
3871.43
11576.7
32596.5
93.4721
371.591
1291.7
4040.96
11579.9
31345.6
125.881
470.75
1529.7
4457.47
11922.1
30097.4
189.014
649.507
1922.63
5081.16
12351.5
28388.3
313.155
959.948
2541.37
6008.67
13120.7
27287.8
557.86
1492.64
3505.16
7440.11
14801.7
28491.4
1019.7
2360.54
4958.2
9708.83
18362.4
34326.5
1811.91
3648.02
7022.93
13200.3
24817.8
46618.5
3141.19
5500.19
9744.71
17657.8
32902.3
61887.3
2247.53
4503.44
9065.74
18470
37779.9
75898
1687.98
3877.16
8796.65
19721.4
43187.7
90658.3
1370.27
3539.94
8784.34
20861.4
47065.2
99953.9
1223.9
3382.68
8771.92
21329.6
48547.1
102877
1174.27
3317.91
8672.61
20997.6
47424.8
99264.1
1204.64
3337.08
8518.13
20076.7
44287.8
91475.4
1312.59
3452.43
8402.96
19019.6
40573.7
83172.9
1517.8
3716.03
8486.73
18252.1
37590
76052.7
1826.73
4120.99
8766.06
17829.1
35631
71608.5
2340.54
4840.39
9577.24
18504.2
36159.3
72937.2
3207.98
6103.37
11327.8
21105.1
40892.5
83173.1
4726.83
8330.59
14753.6
26990.2
51890.1
103140
7205.91
11952.2
20484.9
36816.1
68901.4
130474
5702.32
10902.2
20616.3
39811.7
77499.4
147636
4434.21
8953.35
17882.5
36662.3
75853.2
153789
3291.88
7008.76
14900.1
32557.1
71504.5
154032
2379.92
5348.24
12099.6
27863.6
63638.3
142971
1711.65
4087.91
9806.51
23529.4
55590.2
131778
1246.67
3158.03
7983.69
19847.7
48044.4
115284
939.596
2503.37
6582.23
16668.7
40712.4
97708.9
748.064
2060.28
5538.92
14109.2
33960.4
81337
651.726
1807.7
4828.56
12209.1
28858.8
69209.7
646.087
1736.03
4480.58
10923.7
25096.3
59427.4
746.119
1848.69
4480.59
10313.6
22648.3
53007
978.862
2175.28
4780.05
10291.2
21407.7
51670.6
1434.55
2887.87
5734.89
11358.3
23714.8
59017.9
2182.46
4060.69
7513.41
14203.6
29284.7
69173.7
155.987
547.137
1696.65
4667.24
11563.3
29181.6
195.569
604.708
1717.36
4390.98
10368.2
26455.6
252.167
665.615
1764.03
4329.52
10631.5
27707.6
370.752
841.473
2074.59
5185.61
12870.7
32473.9
1529.49
3096.14
6974.54
14794.6
31319.4
72379.5
945.962
2370.34
5926.65
13123.5
29046.4
70470.8
605.452
1825.71
4765.27
10911.5
25548.5
66355.7
410.851
1356.31
3644.46
8826.41
22240.8
61087.1
288.423
974.266
2709.4
7077.15
19258.2
55773.8
201.266
685.341
1991.35
5681.22
16612.1
49823.6
137.414
481.245
1501.08
4666.85
14336.3
43284.2
96.2702
356.668
1216.42
4035.16
12489.3
36652.1
77.9066
305.329
1100.64
3686.42
11053
30856.6
79.1807
310.209
1096.92
3488.19
9778.32
25704.3
96.4521
352.481
1151.33
3347.28
8648.22
21611.4
126.654
412.475
1222.57
3245.49
7832.03
19262
168.216
473.691
1304.68
3275.87
7916.82
20237.8
245.062
596.052
1544.37
3946.98
9713.97
24111.6
67173.4
264968
1.09497e+06
839862
523845
78213
305412
1.08279e+06
811173
508053
87862.1
345912
1.04777e+06
784345
512973
92444.1
372398
1.01359e+06
792694
543432
94921.1
374925
963800
796023
568834
92580.9
341711
860714
777817
583446
86446.2
288276
716856
745134
599383
76731.5
235109
594335
733767
618204
799744
67473.1
191078
499439
720657
630951
876931
58905
162243
429489
672607
595163
904364
52621.1
145866
398998
602059
518501
855877
1.44086e+06
52319.8
151429
411914
541715
426060
713004
1.62982e+06
2.17738e+06
62283.4
187371
476205
507568
375539
532974
1.5087e+06
5.09846e+06
84053
252857
576816
498287
384034
479889
775311
3.01707e+06
112847
325937
658915
495682
399022
496800
742307
3.32274e+06
142839
378675
687638
492823
409175
537357
799226
2.61799e+06
172834
418529
708792
518398
443498
592322
829920
3.1834e+06
189520
429106
732862
577926
502090
662392
772665
1.19127e+06
193242
415447
740441
637138
554154
733519
821378
697807
184831
382900
724707
678926
586650
804005
916034
580859
168565
345959
709455
708460
618777
892972
1.06392e+06
950610
152411
329775
748266
747009
653713
996957
1.27292e+06
745214
140885
333485
812719
754383
676628
1.10817e+06
138133
361016
877609
693032
653433
1.16129e+06
145062
402367
889070
574913
572393
1.14305e+06
163960
458938
859252
470422
461781
985126
194988
527924
808585
411111
380881
743766
234157
608567
787231
413546
361392
267337
688507
785098
459146
399408
289272
742034
770871
504025
428560
303620
751577
764812
562333
476607
307324
680147
778846
656745
541423
299800
588541
787146
751328
594691
266563
486617
776148
825171
618587
224657
404621
788530
875494
616125
184943
352700
872611
938315
617901
155706
325258
1.03357e+06
973234
597146
132491
317256
1.22787e+06
921103
531429
117260
343291
1.353e+06
792844
466997
117596
416628
1.37488e+06
716586
427556
133494
520034
1.30451e+06
702658
438039
154695
626335
1.23627e+06
750314
483301
167728
712766
1.21629e+06
801742
516065
181395
761406
1.17486e+06
793034
518519
196963
756536
1.11461e+06
786007
543103
201854
683318
1.04715e+06
820823
590870
196851
582881
965926
859807
630580
176971
462896
832850
876434
652148
149078
354722
682055
870132
648712
119915
271235
566594
882720
644352
94493.1
209144
497292
909805
630955
73518.5
161921
475041
912652
581940
57350.2
132441
511202
875761
523361
48077.5
130615
620031
831371
485402
47690.8
160736
795680
803419
489045
55722.6
215087
985067
820612
515484
124.348
58.672
31.4443
18.374
12.4383
9.6639
8.9623
9.85182
14.2265
27.611
65.9402
169.332
421.923
985.131
47.5458
13.8383
5.41553
2.82407
1.85663
1.43013
1.36855
1.72185
3.48692
10.1559
32.6078
99.4371
273.809
679.231
21.9214
4.16396
0.917867
0.343018
0.204947
0.158276
0.182197
0.390006
1.37384
5.29006
18.9578
61.0397
176.2
462.122
14.0245
2.49723
0.402459
0.071766
0.0212086
0.016048
0.0380031
0.162267
0.736119
3.05391
11.3565
38.0473
116.09
327.955
12.4085
2.44017
0.423229
0.0640707
0.00864485
0.00396115
0.0173667
0.0927803
0.449892
1.9486
7.56937
26.6651
86.408
261.81
13.9103
2.8571
0.499858
0.0721993
0.00865295
0.00307271
0.0125107
0.0671224
0.332319
1.48242
5.96816
21.8995
74.1592
234.509
18.6343
3.75266
0.618296
0.0846011
0.012951
0.00793276
0.0177878
0.0712515
0.329809
1.46115
5.93308
22.0054
75.0099
236.52
27.0018
5.16597
0.804352
0.12481
0.0456805
0.0475256
0.0688434
0.150319
0.503315
1.97445
7.59207
27.0728
88.6398
266.834
39.9286
7.50802
1.28622
0.337493
0.24009
0.27812
0.363325
0.571786
1.25678
3.74319
12.4465
40.4154
122.219
340.826
61.692
13.0982
3.24395
1.41808
1.18311
1.35885
1.73803
2.4747
4.22841
9.28862
24.6289
68.9305
186.25
471.913
106.165
30.5632
11.3811
6.19431
5.09262
5.62798
7.11124
9.8395
15.0831
26.9626
56.8751
133.091
314.822
718.253
212.115
84.6858
40.3251
24.0746
19.2123
20.3229
25.1996
34.3503
50.1341
79.7299
140.914
276.057
566.047
1161.07
451.617
227.833
125.319
80.4701
64.068
65.5491
79.3416
106.289
150.737
224.871
354.579
599.353
1068.93
1977.82
955.904
554.817
334.836
231.738
190.032
192.141
227.586
297.911
411.369
588.213
860.714
1293.93
2011.37
3320.87
52.4349
30.4355
19.1546
11.9009
7.79783
5.46536
4.3302
3.86153
4.3705
7.26071
17.8966
52.3047
151.837
406.703
15.2626
5.54576
2.89321
1.67715
1.05159
0.716128
0.570824
0.544496
0.839486
2.40057
8.84748
31.7002
101.673
287.602
6.52985
1.34019
0.386316
0.173873
0.0998099
0.0669334
0.0581246
0.0871493
0.296968
1.33381
5.64584
21.1183
69.5233
203.657
5.51246
1.02693
0.174123
0.0319387
0.00859153
0.00472183
0.00732705
0.0313027
0.170203
0.846533
3.6842
14.0952
48.0155
148.358
6.48307
1.2688
0.213831
0.0311394
0.00385798
0.000802359
0.00280687
0.0184421
0.108782
0.558184
2.50644
9.98001
35.8113
118.053
8.61664
1.67599
0.272682
0.0368009
0.00411356
0.00074401
0.00209711
0.0131705
0.0780326
0.408033
1.88684
7.81952
29.4932
102.715
12.6531
2.36335
0.356174
0.0445031
0.00610388
0.00290377
0.00432972
0.0136868
0.0676383
0.346637
1.63328
6.97798
27.1936
97.3143
19.2272
3.39959
0.474704
0.0641193
0.021099
0.0211954
0.0266633
0.0412068
0.105091
0.413854
1.81511
7.58716
29.115
102.002
29.1788
4.98403
0.722022
0.160134
0.113864
0.134246
0.168948
0.225671
0.368089
0.879102
2.922
10.7293
37.9139
123.512
44.867
8.03933
1.57965
0.648228
0.582354
0.694721
0.886008
1.17638
1.69708
2.94243
6.76014
19.3424
58.4245
169.574
72.1283
16.1719
5.03028
2.83216
2.59903
3.03701
3.88985
5.21675
7.33356
11.1957
19.9542
43.6133
107.313
269.254
129.691
41.0616
17.6132
11.2047
10.1342
11.5448
14.7006
19.7735
27.5348
39.9102
62.248
111.26
224.227
482.509
258.143
111.045
56.6519
38.7157
34.904
39.0462
49.1584
65.6574
90.4571
127.767
186.433
292.679
500.717
936.924
551.908
286.841
160.8
116.864
107.181
119.573
149.214
197.087
267.783
370.587
518.363
742.704
1101.34
1764.14
15.4651
8.67531
5.51598
3.39892
2.13742
1.37804
1.01829
0.842105
0.853952
1.28394
3.282
10.9649
37.1815
116.215
3.90842
1.30803
0.697746
0.408621
0.248108
0.154915
0.113215
0.0953668
0.124126
0.35638
1.53944
6.54173
24.5717
80.3132
2.03481
0.37669
0.0899567
0.0352783
0.0187306
0.0112521
0.00858298
0.0106553
0.0373605
0.201826
1.02828
4.53436
17.2172
56.7013
2.35332
0.428108
0.0681818
0.0102277
0.00180975
0.000581977
0.000681851
0.00331687
0.0225245
0.13661
0.70741
3.13948
12.0555
40.584
3.23353
0.601131
0.0967361
0.0130177
0.00149569
0.000167624
0.00026007
0.00211779
0.0153935
0.0946325
0.495707
2.23787
8.82975
31.0145
4.70182
0.84897
0.130637
0.0161736
0.00170944
0.000224508
0.000264774
0.00159144
0.0110897
0.0683792
0.363873
1.6877
6.94291
25.8841
7.26662
1.25515
0.178844
0.0202757
0.00249759
0.00107425
0.00126398
0.00242635
0.00988451
0.0549531
0.293531
1.40787
6.0867
24.0981
11.3828
1.86151
0.242902
0.0283339
0.00806859
0.00826027
0.0102856
0.0131654
0.0218977
0.0659131
0.29658
1.4045
6.22784
25.3931
17.6477
2.75861
0.352079
0.0622009
0.0433415
0.0541473
0.0694337
0.0875683
0.116067
0.195093
0.52639
2.01332
8.25433
32.1735
27.3244
4.27737
0.667822
0.235344
0.229202
0.291925
0.380179
0.490162
0.639238
0.904148
1.63223
4.28449
14.1324
48.345
42.8721
7.83639
1.93105
1.05803
1.07367
1.33873
1.74769
2.29053
3.01813
4.11432
6.26294
12.2054
30.6467
86.8185
74.6251
18.9068
6.94406
4.50345
4.46287
5.38589
6.96213
9.16506
12.1516
16.4191
23.299
38.0398
75.4593
175.549
141.791
52.7777
24.4179
17.1698
16.6958
19.5338
24.7697
32.3165
42.6344
57.2116
78.6015
116.192
193.349
376.333
296.879
147.431
77.9873
58.4128
56.7866
65.2002
81.0394
103.941
134.885
178.108
238.704
331.772
483.978
784.033
2.89192
1.30233
0.785045
0.495215
0.314807
0.209364
0.154902
0.123578
0.109791
0.129534
0.300411
1.13556
4.63324
17.4208
0.993493
0.209371
0.0790782
0.0448469
0.0274504
0.0180749
0.0134558
0.0108031
0.0112185
0.0273028
0.135499
0.699389
3.15698
12.2269
0.786588
0.127191
0.0188422
0.00396923
0.00147691
0.000857381
0.000650003
0.000704621
0.00238523
0.0156077
0.0977813
0.521433
2.35604
9.08601
1.06218
0.186239
0.0267071
0.00356868
0.000423858
5.53256e-05
2.87727e-05
0.000171558
0.00151817
0.0115372
0.0730712
0.388855
1.75586
6.80078
1.54951
0.273992
0.0391836
0.00503201
0.000538559
5.13572e-05
1.59068e-05
0.000122928
0.0011275
0.00860835
0.0547054
0.292628
1.33371
5.25534
2.30536
0.395992
0.0533743
0.00622316
0.000611963
7.80005e-05
4.63313e-05
0.000130387
0.000887831
0.00653103
0.0415492
0.224683
1.04451
4.25293
3.57923
0.590724
0.07331
0.00767017
0.000857864
0.000371748
0.000421041
0.000551706
0.00118869
0.00562184
0.0333216
0.182073
0.878344
3.78812
5.5282
0.875932
0.0993711
0.0102199
0.0025883
0.00277051
0.00354171
0.00433749
0.00551939
0.0100038
0.0354324
0.174673
0.860472
3.92282
8.29377
1.28762
0.139911
0.0202315
0.0136934
0.0181444
0.0238316
0.0297874
0.0363942
0.047506
0.0859714
0.273273
1.17844
5.22712
12.1934
1.9479
0.241995
0.0723515
0.0739708
0.0995425
0.131844
0.168349
0.209263
0.262674
0.371121
0.752206
2.34156
8.8282
17.8916
3.29084
0.635161
0.333223
0.359654
0.469325
0.618671
0.799738
1.01148
1.27792
1.69443
2.73103
6.18023
18.3716
28.3645
7.25742
2.29293
1.51709
1.57676
1.95891
2.5322
3.27042
4.17129
5.32344
6.94451
10.0521
18.1246
42.6782
51.4236
19.7757
8.69896
6.36162
6.34729
7.46144
9.31521
11.8177
14.9922
19.2009
24.966
34.3215
53.2857
102.585
111.992
57.6995
31.0027
24.2724
23.7435
26.6309
31.8381
39.0036
48.3238
61.2089
79.115
105.94
149.492
241.84
0.477785
0.129265
0.0596494
0.0363446
0.0231835
0.0159178
0.0127039
0.010559
0.00892954
0.00847931
0.0162058
0.068999
0.342052
1.54869
0.240222
0.0369484
0.0062112
0.00207759
0.00116959
0.000817571
0.000697365
0.000612917
0.000604686
0.00128725
0.00727276
0.0456269
0.247596
1.13937
0.245396
0.0421346
0.00588974
0.000739199
0.000102119
2.23663e-05
1.4615e-05
1.94955e-05
8.77808e-05
0.000731554
0.00563345
0.0363329
0.196375
0.89707
0.347944
0.0653877
0.00977084
0.00124451
0.000148116
1.43639e-05
1.62525e-06
5.26386e-06
5.97532e-05
0.000569731
0.00444338
0.0286851
0.155018
0.7088
0.507487
0.0974268
0.0144112
0.00176431
0.000198619
1.82249e-05
2.17851e-06
4.57181e-06
4.72502e-05
0.000450392
0.00353466
0.0229539
0.124759
0.574227
0.745525
0.141909
0.019934
0.00222281
0.000230048
2.48835e-05
9.78025e-06
1.22455e-05
4.56475e-05
0.000360573
0.0027907
0.0182464
0.100304
0.468813
1.11383
0.208172
0.0274521
0.00275415
0.000294631
8.73486e-05
8.90746e-05
0.00010269
0.000136437
0.000389393
0.00232361
0.0147982
0.0826139
0.398036
1.63703
0.298217
0.0370548
0.00352141
0.000659681
0.000582349
0.000724361
0.000852847
0.000974057
0.00126509
0.00297757
0.0138874
0.0750194
0.374452
2.33438
0.415522
0.0504738
0.00580083
0.00293416
0.00375889
0.00484623
0.00585167
0.00676538
0.00783231
0.0105341
0.0242131
0.0986253
0.47037
3.27057
0.584664
0.0789329
0.0167535
0.0154074
0.0208756
0.027178
0.0335125
0.039661
0.0461925
0.0558073
0.0856779
0.220885
0.847976
4.60217
0.909046
0.174215
0.0714638
0.0757135
0.100528
0.130639
0.163399
0.197217
0.23399
0.280033
0.376357
0.706312
2.04155
7.10808
1.86493
0.570485
0.327566
0.3392
0.429124
0.549313
0.690124
0.84381
1.01867
1.23057
1.57833
2.46151
5.53482
13.1675
5.03762
2.15644
1.4308
1.406
1.66773
2.06686
2.57116
3.15364
3.85516
4.72114
5.9733
8.35216
15.2623
30.5241
15.2311
8.04323
5.81017
5.48159
6.06979
7.14978
8.63521
10.4683
12.8419
15.9129
20.1893
26.6284
41.3494
0.0823033
0.01487
0.00355455
0.00167543
0.00108693
0.000841097
0.000796435
0.000755556
0.000677901
0.000595304
0.000969784
0.00472468
0.0281459
0.148283
0.0480064
0.0079711
0.00104664
0.00013407
3.03521e-05
2.0003e-05
2.36812e-05
2.80778e-05
3.31394e-05
7.31236e-05
0.000465122
0.0034211
0.0215294
0.113944
0.0552675
0.0107691
0.00168332
0.000222297
2.71526e-05
3.17653e-06
8.79656e-07
1.20803e-06
4.66831e-06
4.09775e-05
0.000369843
0.00280061
0.0176032
0.0927309
0.0800937
0.0166495
0.00276643
0.00037747
4.56146e-05
4.67107e-06
4.46546e-07
2.76394e-07
2.77188e-06
3.13386e-05
0.000292314
0.00223328
0.0141338
0.074967
0.116362
0.024312
0.00401743
0.000529369
6.06135e-05
5.88683e-06
5.9018e-07
3.0106e-07
2.19778e-06
2.4521e-05
0.000231574
0.00179206
0.0114769
0.0615608
0.167758
0.0343383
0.00544385
0.000660759
6.95258e-05
7.10919e-06
1.84815e-06
1.67636e-06
3.15416e-06
2.03793e-05
0.000182758
0.0014261
0.00926952
0.0505074
0.243831
0.0485059
0.00729777
0.000804782
8.2206e-05
1.67217e-05
1.42406e-05
1.5787e-05
1.7841e-05
3.17517e-05
0.000160668
0.00116073
0.00758642
0.0421571
0.348261
0.0669728
0.00956027
0.000985448
0.00013968
9.26876e-05
0.000112373
0.000130162
0.000143092
0.000162437
0.000275621
0.00112542
0.00666045
0.0373399
0.480823
0.0894481
0.0123345
0.00137949
0.000488361
0.000588888
0.000757507
0.000898802
0.0010096
0.00111107
0.00130354
0.0023214
0.00854662
0.0432351
0.649532
0.119071
0.0171672
0.00305047
0.00243589
0.00334605
0.00435634
0.00526719
0.00605163
0.00677728
0.00762357
0.0100001
0.0211948
0.0787128
0.875178
0.170914
0.0317532
0.0112664
0.012075
0.0166313
0.0216642
0.0265715
0.0311229
0.0355849
0.0403799
0.0493688
0.0789809
0.211314
1.30212
0.324073
0.0927443
0.0502226
0.0549852
0.0731095
0.0943987
0.116748
0.138811
0.161794
0.186836
0.224889
0.313315
0.651909
2.41329
0.858935
0.34548
0.221831
0.230465
0.28942
0.365745
0.452232
0.542948
0.643556
0.757803
0.915113
1.18276
2.0225
5.82147
2.67501
1.32741
0.925789
0.904018
1.05546
1.28255
1.56425
1.881
2.25785
2.70915
3.31703
4.14427
6.14954
0.0170545
0.00300557
0.000561001
0.000188793
0.000112005
9.45197e-05
0.000100356
0.000104548
9.98449e-05
8.53754e-05
0.000104339
0.000458342
0.00296659
0.0169518
0.0105182
0.00187772
0.000274128
3.64173e-05
6.56248e-06
3.60254e-06
4.58116e-06
5.96279e-06
7.03055e-06
1.01063e-05
4.49647e-05
0.000342842
0.00234544
0.0134404
0.0128721
0.00265447
0.000452738
6.52368e-05
8.53363e-06
1.05518e-06
2.84881e-07
3.30174e-07
6.62378e-07
3.72883e-06
3.43157e-05
0.000284582
0.00195557
0.0111934
0.0189462
0.00410076
0.000733156
0.000108417
1.40607e-05
1.54011e-06
1.58822e-07
5.4048e-08
2.39912e-07
2.64123e-06
2.70375e-05
0.00022825
0.00158635
0.00919682
0.0273483
0.00589952
0.00104243
0.000149273
1.84883e-05
1.92133e-06
1.95927e-07
6.14267e-08
1.95391e-07
2.06454e-06
2.14366e-05
0.000183971
0.00130022
0.00766478
0.0386924
0.0081192
0.00136812
0.000181991
2.09281e-05
2.18412e-06
4.41315e-07
3.34296e-07
4.40149e-07
1.87246e-06
1.70561e-05
0.000146947
0.0010576
0.00635948
0.0548232
0.0111052
0.00176281
0.000215011
2.36881e-05
3.96166e-06
2.77419e-06
2.97836e-06
3.20247e-06
4.34626e-06
1.63645e-05
0.000120777
0.000867139
0.00530641
0.0763534
0.0148728
0.00222558
0.000254258
3.46427e-05
1.80363e-05
2.10014e-05
2.39915e-05
2.59338e-05
2.78048e-05
3.82943e-05
0.000125872
0.000758117
0.00459094
0.103072
0.0193421
0.00277391
0.000332351
9.95035e-05
0.000110383
0.000140879
0.000164922
0.000182287
0.000195235
0.000214519
0.000316217
0.000996012
0.00507602
0.136496
0.0250699
0.0036769
0.00064186
0.000463107
0.000630122
0.000817501
0.000974317
0.0010998
0.00120261
0.00130264
0.00154937
0.00274476
0.00928006
0.179856
0.0346099
0.00624545
0.00212856
0.00227768
0.00317973
0.00413529
0.00500052
0.00574922
0.00641988
0.0070505
0.0080965
0.0113826
0.0269594
0.261152
0.0623196
0.0168852
0.00912701
0.0104079
0.014223
0.0184092
0.0224873
0.0262442
0.0298613
0.0334031
0.0383503
0.0488354
0.091299
0.483105
0.161365
0.0614927
0.0397936
0.0435991
0.0570367
0.0728594
0.0894389
0.105615
0.122243
0.139419
0.161759
0.195875
0.307708
1.19413
0.507756
0.238096
0.165427
0.169671
0.208542
0.259393
0.316978
0.376693
0.442282
0.514146
0.606512
0.720984
1.00578
0.00316193
0.000570845
0.00010921
3.4995e-05
2.08267e-05
1.88657e-05
2.12953e-05
2.32883e-05
2.31199e-05
1.95855e-05
1.67708e-05
4.42256e-05
0.000281941
0.00172215
0.00208089
0.000389808
6.19986e-05
9.03496e-06
1.67486e-06
9.05063e-07
1.17495e-06
1.57596e-06
1.86565e-06
2.04719e-06
4.61095e-06
3.1293e-05
0.0002285
0.00140814
0.00273661
0.000584855
0.000106026
1.64785e-05
2.30703e-06
3.0979e-07
9.427e-08
1.05413e-07
1.52083e-07
3.9772e-07
2.97917e-06
2.61801e-05
0.000194802
0.00120364
0.0041286
0.000917556
0.00017258
2.73207e-05
3.78445e-06
4.45986e-07
5.74172e-08
2.41556e-08
3.71024e-08
2.25127e-07
2.30921e-06
2.11523e-05
0.000160039
0.00100685
0.00596802
0.00131699
0.000243884
3.74369e-05
4.97394e-06
5.54511e-07
6.57786e-08
2.37017e-08
3.08616e-08
1.7634e-07
1.83469e-06
1.71252e-05
0.000132236
0.000850207
0.00833855
0.00178293
0.000314015
4.50886e-05
5.59551e-06
6.05645e-07
1.02932e-07
6.50271e-08
7.00708e-08
1.79518e-07
1.47662e-06
1.37101e-05
0.000108051
0.000711568
0.0115884
0.00238283
0.000394271
5.23437e-05
6.14095e-06
8.67497e-07
4.54614e-07
4.60251e-07
4.77434e-07
5.54031e-07
1.56684e-06
1.13705e-05
8.86197e-05
0.000593898
0.0158198
0.00312092
0.000485737
6.05828e-05
7.90936e-06
3.00959e-06
3.23048e-06
3.6092e-06
3.81347e-06
3.90531e-06
4.71087e-06
1.27395e-05
7.70421e-05
0.000503651
0.0209501
0.00397539
0.000590281
7.48833e-05
1.80597e-05
1.73543e-05
2.17686e-05
2.50051e-05
2.70008e-05
2.79694e-05
2.92215e-05
3.7805e-05
0.000103402
0.000531697
0.0272065
0.00502466
0.000747175
0.000125047
7.56736e-05
9.99973e-05
0.000128747
0.000150482
0.000165714
0.000175545
0.000183266
0.000203158
0.000312122
0.000959981
0.0348888
0.00661264
0.00114565
0.00035758
0.000368432
0.000516353
0.000667825
0.000791835
0.000887474
0.000960705
0.00101933
0.00111239
0.00141292
0.00297124
0.0485845
0.0109682
0.0027554
0.00144924
0.00170264
0.00237034
0.00305886
0.00366675
0.00417125
0.00460245
0.00497432
0.00547142
0.0064747
0.010924
0.0865707
0.0266707
0.00955745
0.00622369
0.00719815
0.00972664
0.0124595
0.0150574
0.0173556
0.0194903
0.0214665
0.0239501
0.027425
0.0396968
0.21344
0.0830588
0.0368476
0.0257314
0.0280302
0.0361076
0.0455004
0.0550848
0.0640991
0.0731011
0.0820468
0.0931636
0.105818
0.138602
0.000525099
9.74326e-05
1.95966e-05
6.42206e-06
4.04562e-06
3.95371e-06
4.68171e-06
5.30871e-06
5.44044e-06
4.68258e-06
3.41213e-06
4.59674e-06
2.42573e-05
0.000156455
0.000371761
7.2546e-05
1.23537e-05
1.94706e-06
3.91349e-07
2.27168e-07
2.99092e-07
4.0579e-07
4.85752e-07
4.92032e-07
5.94754e-07
2.65007e-06
1.99064e-05
0.000131887
0.000524083
0.000115351
2.19287e-05
3.61021e-06
5.40097e-07
8.64038e-08
3.60335e-08
3.95733e-08
4.92192e-08
6.86367e-08
2.58645e-07
2.16587e-06
1.73196e-05
0.000115621
0.000810711
0.000184462
3.61333e-05
6.02219e-06
8.835e-07
1.18978e-07
2.59171e-08
1.75211e-08
1.8345e-08
3.16413e-08
1.89467e-07
1.75467e-06
1.43739e-05
9.8212e-05
0.00117677
0.00026517
5.10182e-05
8.25723e-06
1.16251e-06
1.45933e-07
2.76758e-08
1.68783e-08
1.67269e-08
2.67418e-08
1.52297e-07
1.42345e-06
1.19245e-05
8.36983e-05
0.00162672
0.000353919
6.47083e-05
9.86493e-06
1.30136e-06
1.5543e-07
3.22145e-08
2.18932e-08
2.15337e-08
2.87479e-08
1.26191e-07
1.13917e-06
9.74053e-06
7.03671e-05
0.00222017
0.000462699
7.93975e-05
1.12851e-05
1.39546e-06
1.86115e-07
7.56324e-08
7.05174e-08
7.08044e-08
7.39551e-08
1.47747e-07
9.53861e-07
7.9731e-06
5.87144e-05
0.00297363
0.000593171
9.56686e-05
1.28053e-05
1.63785e-06
4.57513e-07
4.28538e-07
4.64455e-07
4.7931e-07
4.73506e-07
5.18816e-07
1.15797e-06
6.90807e-06
4.90505e-05
0.00386266
0.000740257
0.000113652
1.51094e-05
2.98467e-06
2.33822e-06
2.84586e-06
3.20403e-06
3.38221e-06
3.40079e-06
3.41153e-06
3.99553e-06
9.53934e-06
4.97558e-05
0.00491696
0.000913018
0.000138385
2.2193e-05
1.0778e-05
1.35078e-05
1.72091e-05
1.97367e-05
2.12405e-05
2.18614e-05
2.20849e-05
2.31468e-05
3.14809e-05
8.82433e-05
0.00612884
0.00114591
0.000193128
5.36614e-05
5.13482e-05
7.16144e-05
9.20062e-05
0.000107078
0.000117253
0.000123351
0.000126768
0.000132268
0.00015402
0.000288987
0.00812744
0.00173299
0.000404903
0.000201659
0.000240867
0.000339277
0.000435915
0.000513189
0.000570278
0.000611353
0.000639593
0.000675338
0.000748591
0.00114639
0.0136165
0.00385032
0.00129841
0.000850483
0.00103636
0.001436
0.00183878
0.00218607
0.00246234
0.00268562
0.00285992
0.00306802
0.00333487
0.00446834
0.0327142
0.0116435
0.00490725
0.00349821
0.00408021
0.00547415
0.00694673
0.00830323
0.00945293
0.0104661
0.0113435
0.0123853
0.0134556
0.0165706
7.79784e-05
1.48515e-05
3.1624e-06
1.10744e-06
7.66692e-07
8.08005e-07
9.91186e-07
1.15304e-06
1.20964e-06
1.06282e-06
7.44663e-07
6.02787e-07
1.98508e-06
1.30513e-05
5.96048e-05
1.20217e-05
2.16434e-06
3.73087e-07
9.04792e-08
6.20046e-08
7.97132e-08
1.05126e-07
1.24889e-07
1.25138e-07
1.12137e-07
2.37833e-07
1.59562e-06
1.12896e-05
8.96852e-05
2.01673e-05
3.97312e-06
6.93825e-07
1.17953e-07
2.99984e-08
2.01355e-08
2.12129e-08
2.34582e-08
2.53481e-08
3.70189e-08
1.7674e-07
1.40603e-06
1.01097e-05
0.000142314
3.29253e-05
6.64057e-06
1.16392e-06
1.8691e-07
3.6579e-08
1.75872e-08
1.58168e-08
1.58918e-08
1.67998e-08
2.74978e-08
1.44204e-07
1.17733e-06
8.69782e-06
0.000207882
4.75069e-05
9.39126e-06
1.59864e-06
2.43659e-07
4.23637e-08
1.79335e-08
1.55946e-08
1.54602e-08
1.60807e-08
2.46065e-08
1.19366e-07
9.80718e-07
7.46368e-06
0.000284881
6.2686e-05
1.17821e-05
1.89676e-06
2.70788e-07
4.40995e-08
1.84117e-08
1.61096e-08
1.59479e-08
1.63572e-08
2.29087e-08
9.80701e-08
8.02437e-07
6.29664e-06
0.000382293
8.03168e-05
1.41931e-05
2.13828e-06
2.84946e-07
4.69243e-08
2.29631e-08
2.12574e-08
2.10683e-08
2.09895e-08
2.56799e-08
8.50137e-08
6.57917e-07
5.25607e-06
0.000502919
0.000100871
1.68102e-05
2.38025e-06
3.13437e-07
7.63885e-08
6.17885e-08
6.40034e-08
6.44055e-08
6.22119e-08
6.31824e-08
1.08119e-07
5.70773e-07
4.34293e-06
0.000641567
0.000123446
1.96318e-05
2.70618e-06
4.68664e-07
2.91002e-07
3.36202e-07
3.69671e-07
3.80813e-07
3.72038e-07
3.59553e-07
3.88304e-07
8.0697e-07
4.25092e-06
0.00080109
0.000148971
2.32305e-05
3.59205e-06
1.39224e-06
1.61101e-06
2.02111e-06
2.27461e-06
2.39042e-06
2.38903e-06
2.33381e-06
2.33196e-06
2.86118e-06
7.35242e-06
0.000971382
0.000180093
2.99829e-05
7.35362e-06
6.33884e-06
8.72158e-06
1.1113e-05
1.27013e-05
1.35837e-05
1.38774e-05
1.38022e-05
1.38259e-05
1.49495e-05
2.52669e-05
0.00122499
0.000250838
5.45412e-05
2.51887e-05
3.01483e-05
4.27027e-05
5.45441e-05
6.30734e-05
6.84525e-05
7.126e-05
7.21352e-05
7.32812e-05
7.66296e-05
0.000107473
0.00190831
0.000501489
0.000158006
0.000104131
0.000132794
0.000187189
0.000238871
0.000279078
0.000307018
0.000325069
0.000334687
0.00034558
0.000357773
0.000446897
0.0043701
0.00144018
0.000578303
0.000427596
0.000533394
0.000737709
0.000937138
0.00110266
0.00122664
0.00131766
0.00137919
0.00144818
0.00150615
0.00175127
1.04279e-05
2.04569e-06
4.70725e-07
1.87618e-07
1.47489e-07
1.64839e-07
2.04711e-07
2.4047e-07
2.55469e-07
2.29132e-07
1.63517e-07
1.0789e-07
1.77386e-07
1.02705e-06
8.64929e-06
1.80115e-06
3.46153e-07
7.30629e-08
2.86401e-08
2.47048e-08
2.86458e-08
3.4048e-08
3.8321e-08
3.84499e-08
3.36211e-08
3.69522e-08
1.3338e-07
9.08221e-07
1.38174e-05
3.16324e-06
6.46167e-07
1.26566e-07
3.25737e-08
1.79134e-08
1.62947e-08
1.65837e-08
1.70781e-08
1.73464e-08
1.78156e-08
2.6968e-08
1.18893e-07
8.30521e-07
2.24816e-05
5.26905e-06
1.09075e-06
2.06707e-07
4.45597e-08
1.90326e-08
1.5714e-08
1.5401e-08
1.54198e-08
1.54946e-08
1.61562e-08
2.416e-08
1.02139e-07
7.24117e-07
3.30768e-05
7.63497e-06
1.54541e-06
2.80948e-07
5.45918e-08
2.01057e-08
1.57772e-08
1.53476e-08
1.53213e-08
1.5361e-08
1.58955e-08
2.23887e-08
8.73651e-08
6.25976e-07
4.49799e-05
9.97391e-06
1.92177e-06
3.29576e-07
5.92403e-08
2.04101e-08
1.5826e-08
1.53958e-08
1.53654e-08
1.53885e-08
1.57945e-08
2.09062e-08
7.38082e-08
5.30646e-07
5.93764e-05
1.25391e-05
2.27741e-06
3.65144e-07
6.10802e-08
2.05836e-08
1.62333e-08
1.58728e-08
1.58315e-08
1.58013e-08
1.60663e-08
2.00573e-08
6.28529e-08
4.446e-07
7.67186e-05
1.54423e-05
2.6483e-06
3.98033e-07
6.38526e-08
2.33177e-08
1.99671e-08
1.99407e-08
1.98607e-08
1.95238e-08
1.93629e-08
2.21969e-08
5.62226e-08
3.65898e-07
9.60107e-05
1.85632e-05
3.03404e-06
4.37826e-07
7.93498e-08
4.48164e-08
4.73653e-08
4.99561e-08
5.01948e-08
4.83519e-08
4.6027e-08
4.65713e-08
7.5203e-08
3.46954e-07
0.000117499
2.20095e-05
3.49613e-06
5.35631e-07
1.75884e-07
1.82466e-07
2.21633e-07
2.43524e-07
2.49534e-07
2.42506e-07
2.29798e-07
2.20894e-07
2.47355e-07
5.72006e-07
0.000139357
2.57686e-05
4.2364e-06
9.34738e-07
7.10545e-07
9.51991e-07
1.19781e-06
1.34305e-06
1.40181e-06
1.39029e-06
1.33823e-06
1.29171e-06
1.31028e-06
2.01017e-06
0.00016865
3.32727e-05
6.76397e-06
2.85993e-06
3.3735e-06
4.77435e-06
6.04908e-06
6.86861e-06
7.27774e-06
7.35484e-06
7.20325e-06