/*--------------------------------*- C++ -*----------------------------------*\
| =========                 |                                                 |
| \\      /  F ield         | OpenFOAM: The Open Source CFD Toolbox           |
|  \\    /   O peration     | Version:  v2106                                 |
|   \\  /    A nd           | Website:  www.openfoam.com                      |
|    \\/     M anipulation  |                                                 |
\*---------------------------------------------------------------------------*/
FoamFile
{
    version     2.0;
    format      ascii;
    arch        "LSB;label=32;scalar=64";
    class       volScalarField;
    location    "0.000179";
    object      rho;
}
// * * * * * * * * * * * * * * * * * * * * * * * * * * * * * * * * * * * * * //

dimensions      [1 -3 0 0 0 0 0];

internalField   nonuniform List<scalar> 
18109
(
2.49373
2.49255
2.49235
2.49239
2.49241
2.49229
2.49197
2.49372
2.49187
2.49157
2.49108
2.49072
2.49015
2.4893
2.49264
2.49085
2.49022
2.4893
2.48852
2.48748
2.48627
2.49034
2.48876
2.48764
2.48654
2.48549
2.48422
2.48283
2.48816
2.48672
2.48528
2.48388
2.48243
2.48092
2.47942
2.48505
2.48351
2.48198
2.48044
2.47887
2.4773
2.4758
2.48145
2.48009
2.47855
2.47694
2.47533
2.47375
2.4723
2.47711
2.47609
2.47475
2.47323
2.4718
2.47027
2.46885
2.50156
2.50108
2.50141
2.50184
2.50247
2.50272
2.50274
2.50229
2.5011
2.49928
2.49742
2.49485
2.49198
2.48764
2.5016
2.50048
2.50075
2.50084
2.50117
2.50111
2.50067
2.49957
2.49794
2.49581
2.49322
2.49004
2.48672
2.48269
2.50062
2.4997
2.49967
2.49937
2.49919
2.49873
2.49799
2.49664
2.49482
2.4925
2.48994
2.48705
2.48401
2.48015
2.49835
2.4976
2.49713
2.49665
2.49616
2.49545
2.49449
2.49297
2.49109
2.48883
2.48627
2.48341
2.48045
2.47698
2.49632
2.49559
2.49478
2.49396
2.49303
2.49199
2.49084
2.4893
2.48753
2.48551
2.48328
2.48076
2.478
2.47482
2.49316
2.49227
2.49129
2.49029
2.48921
2.48802
2.4868
2.48532
2.48367
2.48186
2.47982
2.47757
2.47514
2.47253
2.48934
2.48861
2.48756
2.48643
2.48529
2.48407
2.48289
2.48151
2.47999
2.47833
2.47641
2.47434
2.47214
2.4701
2.48473
2.48429
2.48342
2.48234
2.48134
2.48018
2.47905
2.4777
2.47615
2.47448
2.47249
2.47052
2.46853
2.46681
2.47961
2.47943
2.47899
2.47808
2.4774
2.47635
2.47528
2.47392
2.47226
2.47047
2.46829
2.46629
2.46433
2.46282
2.47431
2.4743
2.47447
2.47384
2.47361
2.47271
2.47159
2.4701
2.46816
2.46608
2.46347
2.46141
2.4592
2.45814
2.46893
2.46886
2.46954
2.46933
2.46948
2.46877
2.46759
2.4659
2.46368
2.4613
2.45829
2.45635
2.4538
2.45365
2.46377
2.46378
2.46498
2.465
2.46519
2.46479
2.4634
2.46153
2.45889
2.45624
2.45303
2.45092
2.44803
2.44826
2.45872
2.45838
2.46007
2.46054
2.4603
2.45977
2.45808
2.45601
2.45324
2.45032
2.44687
2.44458
2.44188
2.4424
2.45444
2.4552
2.45611
2.45608
2.45538
2.4544
2.45218
2.44971
2.44667
2.44368
2.44062
2.43819
2.4355
2.43519
2.49259
2.49308
2.49279
2.49242
2.49247
2.4923
2.50021
2.5004
2.49956
2.49923
2.4986
2.49836
2.50093
2.49967
2.49811
2.49543
2.49438
2.49403
2.50099
2.49968
2.49787
2.49509
2.49453
2.49563
2.50204
2.50091
2.49876
2.49661
2.49592
2.50051
2.50311
2.50276
2.50158
2.50018
2.50231
2.50898
2.50397
2.50455
2.50459
2.50508
2.50958
2.51673
2.50447
2.5063
2.50806
2.51082
2.51752
2.52559
2.50451
2.50728
2.51039
2.515
2.52288
2.53099
2.50399
2.50751
2.51166
2.51757
2.52537
2.53341
2.50261
2.50653
2.51112
2.51742
2.5244
2.53165
2.50079
2.50453
2.50876
2.51413
2.51934
2.52559
2.49775
2.50082
2.50391
2.50751
2.51077
2.51606
2.49423
2.49656
2.49812
2.49956
2.50043
2.50327
2.48845
2.48892
2.48833
2.48799
2.48827
2.49045
2.48337
2.48362
2.48191
2.48057
2.47915
2.48065
2.47878
2.47641
2.47269
2.47015
2.46829
2.47178
2.47532
2.47168
2.46672
2.46386
2.46314
2.46818
2.47261
2.46821
2.46335
2.46054
2.46022
2.46525
2.47105
2.46669
2.46271
2.46032
2.46115
2.46555
2.46954
2.46609
2.46322
2.46254
2.46455
2.46675
2.46769
2.46547
2.46419
2.46509
2.46799
2.46897
2.46494
2.46356
2.46351
2.46579
2.46772
2.46852
2.46124
2.46024
2.46106
2.46333
2.46478
2.46574
2.45649
2.45544
2.45601
2.45734
2.45829
2.4595
2.45136
2.45021
2.44977
2.44975
2.44953
2.45027
2.44568
2.44426
2.4426
2.44118
2.43976
2.43995
2.44054
2.43789
2.43524
2.43282
2.43119
2.43095
2.43209
2.42786
2.42362
2.42012
2.41833
2.41852
2.42855
2.42482
2.42018
2.41558
2.41261
2.41254
2.42861
2.42133
2.41405
2.40781
2.40496
2.40546
2.42968
2.42092
2.41216
2.40536
2.40286
2.40321
2.4316
2.42174
2.4121
2.40521
2.40236
2.40223
2.43464
2.42445
2.41506
2.40857
2.4059
2.40591
2.43827
2.42874
2.42054
2.4151
2.41338
2.41404
2.44192
2.43347
2.42693
2.42324
2.4227
2.4232
2.44515
2.43838
2.43341
2.43147
2.43219
2.43235
2.44841
2.44348
2.44009
2.43949
2.44021
2.43983
2.45031
2.44695
2.44469
2.44452
2.44401
2.44307
2.45166
2.44928
2.44758
2.44697
2.44585
2.44465
2.45179
2.45003
2.44831
2.4468
2.44478
2.44297
2.45197
2.45009
2.44773
2.44526
2.44229
2.44007
2.45102
2.44885
2.44533
2.44124
2.43713
2.43517
2.49269
2.49648
2.50092
2.50714
2.51356
2.5209
2.49407
2.49719
2.50091
2.5058
2.51029
2.51562
2.49439
2.49685
2.49918
2.50188
2.50482
2.50799
2.4948
2.49635
2.4963
2.49714
2.49806
2.49915
2.45171
2.44906
2.44572
2.44145
2.43733
2.43526
2.45598
2.4519
2.44781
2.44225
2.43834
2.43665
2.46029
2.45554
2.45093
2.44617
2.44314
2.44345
2.46622
2.46162
2.45673
2.45263
2.45062
2.45282
2.47231
2.46839
2.46454
2.46157
2.46204
2.46582
2.47864
2.47592
2.47356
2.47238
2.47458
2.47931
2.48442
2.48333
2.4826
2.48378
2.48797
2.49402
2.4895
2.49002
2.49101
2.49421
2.49984
2.50735
2.49369
2.49547
2.49777
2.50238
2.50915
2.51689
2.49729
2.49965
2.50259
2.5078
2.51405
2.52138
2.49965
2.50212
2.50504
2.5099
2.51512
2.52163
2.50114
2.50328
2.50577
2.50979
2.5139
2.51846
2.50151
2.50323
2.50487
2.5074
2.5099
2.51293
2.50185
2.50307
2.50252
2.50346
2.50338
2.50503
2.50899
2.53715
2.57951
2.6756
2.84806
2.50677
2.52905
2.56147
2.65067
2.82602
2.5078
2.523
2.55295
2.6502
2.86102
2.51017
2.51908
2.54558
2.64182
2.84282
2.51613
2.52256
2.54794
2.64364
2.83264
2.52446
2.52947
2.55494
2.64944
2.82424
2.53373
2.54019
2.57176
2.678
2.88359
2.53996
2.55156
2.59058
2.69964
2.90253
3.14743
2.54404
2.56094
2.60665
2.71304
2.89142
3.10655
2.54385
2.56687
2.62163
2.73286
2.90469
3.09668
2.53943
2.56825
2.63468
2.75627
2.93292
3.12173
3.24805
2.52928
2.56372
2.64166
2.77428
2.96292
3.17291
3.37987
3.50725
2.51614
2.5553
2.63778
2.77138
2.98225
3.25615
3.5983
3.95031
2.50397
2.54608
2.62056
2.73632
2.94167
3.21904
3.53598
3.73188
2.49455
2.53208
2.58941
2.6869
2.85334
3.08354
3.31823
3.44519
2.48621
2.51391
2.55615
2.65203
2.82377
3.07796
3.26818
3.40183
2.47763
2.49644
2.5327
2.63792
2.83888
3.15957
3.48426
3.6285
2.46889
2.47941
2.51494
2.61844
2.81835
3.12978
3.44226
3.78224
2.46563
2.47098
2.50554
2.60259
2.78558
3.04465
3.29513
3.43149
2.4651
2.4667
2.50308
2.60402
2.78369
3.02894
3.21471
3.32825
2.46724
2.4729
2.52067
2.63721
2.8518
3.14345
3.3971
3.47751
2.46795
2.4833
2.54156
2.66087
2.85942
3.11617
3.38751
3.71393
2.46845
2.49482
2.56215
2.67762
2.83271
3.01027
2.46797
2.50362
2.58117
2.69623
2.83724
2.98947
2.46325
2.50421
2.58826
2.70215
2.85229
3.03034
2.45487
2.49269
2.57247
2.68489
2.86592
3.07969
2.44239
2.47566
2.54257
2.65433
2.88117
3.17769
2.43083
2.45315
2.5074
2.61174
2.83444
2.41771
2.42814
2.46969
2.56872
2.75003
2.40672
2.40954
2.44411
2.55087
2.7439
2.40028
2.39891
2.43306
2.54773
2.77964
2.39761
2.39619
2.42735
2.53688
2.76672
2.40121
2.39973
2.42914
2.52344
2.71365
2.41066
2.41012
2.44522
2.54193
2.72808
2.42055
2.42395
2.4721
2.58678
2.81874
2.43067
2.44138
2.49707
2.62132
2.84074
2.43946
2.45752
2.51923
2.64518
2.82531
2.44484
2.46678
2.5322
2.65734
2.83458
2.44639
2.4684
2.53431
2.64703
2.83407
2.44414
2.4639
2.5214
2.62576
2.8397
2.43938
2.45555
2.50389
2.59889
2.82408
2.43657
2.44824
2.48839
2.58109
2.78651
2.43573
2.44294
2.47595
2.56305
2.74403
2.43773
2.4413
2.47131
2.57063
2.76332
2.44427
2.44485
2.47226
2.58298
2.82272
2.45417
2.4537
2.47786
2.58277
2.81046
2.46783
2.46786
2.49019
2.5853
2.78497
2.48364
2.48682
2.51191
2.60529
2.79594
2.50062
2.5081
2.54289
2.64974
2.88012
2.51539
2.52884
2.57197
2.68685
2.91759
2.52669
2.54483
2.5934
2.7143
2.9283
2.53222
2.55512
2.60894
2.73674
2.95284
2.53358
2.55887
2.61735
2.74991
2.97176
2.53017
2.5565
2.6189
2.75295
2.98456
2.52362
2.55161
2.61262
2.73796
2.97965
2.51489
2.54555
2.59795
2.71114
2.92929
2.51835
2.51854
2.51968
2.52062
2.52189
2.52281
2.52351
2.52351
2.52309
2.52177
2.51998
2.51763
2.51497
2.51099
2.51811
2.51795
2.51889
2.51981
2.521
2.52174
2.52209
2.52175
2.52084
2.51916
2.51676
2.5139
2.5108
2.50688
2.5171
2.51728
2.51822
2.51896
2.51977
2.52015
2.52022
2.51962
2.51836
2.5164
2.51398
2.511
2.50776
2.50371
2.51487
2.51544
2.51607
2.51647
2.51679
2.51689
2.5167
2.51597
2.5146
2.51256
2.51006
2.507
2.50368
2.49976
2.51227
2.51269
2.51322
2.51346
2.51348
2.51334
2.51287
2.51198
2.51054
2.50856
2.50619
2.50336
2.50014
2.49636
2.50854
2.50895
2.50934
2.50938
2.5092
2.50888
2.50827
2.50734
2.50594
2.50406
2.5018
2.49918
2.49626
2.49298
2.50385
2.50441
2.50472
2.50471
2.50452
2.50419
2.50358
2.50268
2.50136
2.49966
2.49762
2.49525
2.49277
2.49003
2.49839
2.49926
2.49977
2.49978
2.49968
2.49939
2.49882
2.49795
2.49664
2.49504
2.49315
2.49108
2.48905
2.48698
2.49257
2.49357
2.49441
2.49464
2.49477
2.49463
2.49414
2.4933
2.49202
2.49055
2.48872
2.48696
2.48523
2.48398
2.48677
2.48785
2.48926
2.48972
2.49008
2.49009
2.48963
2.48875
2.48735
2.48585
2.48383
2.48235
2.48082
2.48025
2.48113
2.4819
2.48393
2.48476
2.48541
2.48561
2.48509
2.48409
2.48254
2.48094
2.47884
2.47765
2.47611
2.47651
2.4759
2.47658
2.47889
2.47997
2.48071
2.48105
2.48052
2.47942
2.47766
2.47588
2.47362
2.47234
2.4705
2.47151
2.4706
2.47109
2.47366
2.47503
2.4756
2.47589
2.47518
2.47398
2.47207
2.46996
2.46754
2.46602
2.46416
2.46569
2.46617
2.46792
2.46933
2.4701
2.47024
2.47021
2.46916
2.46774
2.46559
2.4634
2.46115
2.45933
2.45733
2.45756
2.55338
2.5543
2.55581
2.55724
2.55888
2.56014
2.56124
2.56161
2.56162
2.561
2.55984
2.55813
2.5565
2.55338
2.55235
2.55383
2.55514
2.55669
2.55811
2.55937
2.56037
2.56073
2.5606
2.55973
2.55811
2.55563
2.55354
2.55019
2.55026
2.55224
2.55386
2.5557
2.55714
2.55834
2.55908
2.55923
2.55887
2.55772
2.55595
2.5535
2.55093
2.54763
2.54805
2.55039
2.55201
2.55372
2.55494
2.55585
2.55631
2.55629
2.55573
2.55437
2.55236
2.54969
2.54674
2.5433
2.54478
2.54735
2.549
2.55058
2.55166
2.55241
2.55271
2.55257
2.55184
2.55035
2.54823
2.54558
2.54257
2.53908
2.54078
2.54335
2.54504
2.54649
2.5475
2.5481
2.5483
2.54804
2.54716
2.54558
2.54341
2.54074
2.53775
2.53428
2.53585
2.53832
2.54017
2.54157
2.54261
2.54321
2.54339
2.54306
2.5421
2.54054
2.53845
2.53595
2.53319
2.53003
2.53041
2.53273
2.53479
2.53616
2.53729
2.53794
2.53814
2.53778
2.53681
2.53536
2.53344
2.53123
2.52872
2.52613
2.52444
2.52654
2.52886
2.53035
2.53164
2.53244
2.53273
2.53239
2.53151
2.53025
2.52855
2.52677
2.52459
2.52278
2.5186
2.52043
2.523
2.52464
2.52602
2.52701
2.52736
2.52707
2.52627
2.52518
2.52362
2.52219
2.52029
2.51949
2.51275
2.51427
2.51696
2.51891
2.52042
2.52162
2.52206
2.52184
2.52111
2.52015
2.51869
2.51763
2.51599
2.51644
2.50722
2.50893
2.51132
2.51347
2.515
2.51631
2.51678
2.51661
2.51584
2.51481
2.51333
2.51238
2.51083
2.51204
2.5016
2.5035
2.50555
2.50792
2.50939
2.51069
2.51114
2.51098
2.51016
2.50907
2.50774
2.50702
2.50569
2.50722
2.4971
2.49928
2.50062
2.50252
2.50367
2.5047
2.50494
2.50468
2.50381
2.5027
2.5013
2.50032
2.49914
2.4998
2.59245
2.5942
2.59631
2.59785
2.59969
2.60117
2.60257
2.60354
2.60416
2.60435
2.60433
2.60396
2.60336
2.60208
2.59023
2.59277
2.59491
2.5967
2.59848
2.59999
2.60137
2.60232
2.60286
2.60296
2.6027
2.60196
2.60093
2.59948
2.58763
2.59081
2.59307
2.59517
2.597
2.59855
2.59984
2.6007
2.60112
2.60113
2.60078
2.59994
2.5988
2.59732
2.58496
2.58837
2.59066
2.59281
2.59458
2.59607
2.59724
2.59798
2.59828
2.59819
2.59769
2.59667
2.59537
2.59374
2.58172
2.5851
2.58749
2.58966
2.59142
2.59286
2.59393
2.59454
2.59472
2.59452
2.59389
2.59278
2.59137
2.58961
2.57803
2.58121
2.58366
2.58578
2.58751
2.5889
2.58988
2.59038
2.59045
2.59014
2.58941
2.58823
2.58672
2.58486
2.5738
2.57667
2.57917
2.58123
2.58296
2.58432
2.58525
2.58569
2.5857
2.58534
2.58458
2.58342
2.58191
2.58014
2.56922
2.57176
2.57427
2.57626
2.57797
2.5793
2.5802
2.58062
2.5806
2.58027
2.57955
2.5785
2.57709
2.57562
2.56428
2.56647
2.56896
2.57096
2.57268
2.57404
2.57495
2.5754
2.57542
2.57518
2.57459
2.57377
2.5726
2.57163
2.55948
2.56138
2.56377
2.56575
2.56744
2.56882
2.56975
2.57025
2.57032
2.57019
2.56974
2.56918
2.56827
2.56804
2.55456
2.55631
2.55846
2.5605
2.56219
2.56365
2.56462
2.56521
2.56538
2.5654
2.56512
2.56495
2.56417
2.56477
2.55005
2.55181
2.55359
2.55562
2.5572
2.55867
2.55967
2.56031
2.56055
2.56064
2.56038
2.56047
2.55973
2.56101
2.54516
2.54702
2.54849
2.55049
2.55199
2.55344
2.55443
2.55509
2.55543
2.55571
2.55566
2.5561
2.55566
2.55731
2.54101
2.54305
2.54404
2.5457
2.54678
2.54794
2.54877
2.54942
2.54982
2.55018
2.55011
2.55061
2.55027
2.55148
2.63496
2.63707
2.63894
2.64059
2.6421
2.64354
2.6449
2.64617
2.64733
2.64835
2.64929
2.65006
2.65098
2.65145
2.63204
2.63485
2.63689
2.63871
2.64036
2.64188
2.6433
2.6446
2.64577
2.64677
2.64762
2.6483
2.6489
2.64933
2.62932
2.63246
2.63465
2.63665
2.6384
2.63998
2.64142
2.64271
2.64384
2.6448
2.64561
2.64628
2.64683
2.64727
2.62656
2.62974
2.63207
2.63416
2.63595
2.63754
2.63895
2.64019
2.64127
2.64217
2.64292
2.64355
2.64404
2.6445
2.62359
2.62667
2.62911
2.63124
2.63305
2.63462
2.636
2.63717
2.63818
2.63903
2.63974
2.64036
2.64082
2.64123
2.62037
2.62326
2.62572
2.62782
2.62963
2.63118
2.6325
2.63362
2.63455
2.63536
2.63603
2.63664
2.63703
2.63737
2.61688
2.61954
2.62196
2.62402
2.6258
2.6273
2.62857
2.62963
2.63051
2.6313
2.63197
2.63258
2.63292
2.63321
2.61327
2.61565
2.61795
2.61993
2.62164
2.62309
2.62429
2.62531
2.62617
2.62697
2.62766
2.62829
2.62862
2.62893
2.60955
2.61165
2.61382
2.61571
2.61734
2.61873
2.61988
2.62086
2.62172
2.62256
2.62329
2.624
2.62438
2.62484
2.60603
2.60786
2.6098
2.61158
2.61309
2.61439
2.61548
2.61644
2.61731
2.6182
2.61901
2.61984
2.62029
2.62101
2.60235
2.60406
2.60578
2.60751
2.60894
2.61017
2.61121
2.61215
2.61303
2.614
2.61489
2.61589
2.61642
2.61754
2.59922
2.60074
2.60213
2.6037
2.60496
2.6061
2.6071
2.60803
2.60892
2.60994
2.6109
2.61209
2.61264
2.61421
2.5954
2.59703
2.59816
2.5997
2.60087
2.60193
2.60289
2.6038
2.60473
2.60585
2.60698
2.60845
2.60924
2.61113
2.59241
2.59396
2.5948
2.59601
2.59685
2.59769
2.59858
2.5995
2.60049
2.60169
2.60282
2.60439
2.60518
2.60723
2.67127
2.67344
2.67505
2.67655
2.67786
2.67908
2.68026
2.68145
2.6827
2.68401
2.6854
2.6868
2.6884
2.68963
2.66849
2.67096
2.67277
2.67439
2.67582
2.67714
2.6784
2.67965
2.68095
2.68231
2.68371
2.68519
2.68665
2.68802
2.66593
2.6685
2.67045
2.67218
2.67371
2.6751
2.67642
2.67771
2.67903
2.68042
2.68186
2.68338
2.6849
2.68635
2.66342
2.66596
2.668
2.66979
2.67137
2.6728
2.67415
2.67548
2.67684
2.67827
2.67974
2.68131
2.68285
2.68442
2.6609
2.66333
2.6654
2.66721
2.66881
2.67026
2.67164
2.673
2.67439
2.67587
2.67739
2.67904
2.68063
2.68225
2.65838
2.66065
2.66267
2.66444
2.66602
2.66746
2.66884
2.67022
2.67164
2.67317
2.67475
2.67647
2.67807
2.67974
2.65592
2.65796
2.65987
2.66155
2.66308
2.66448
2.66584
2.66722
2.66866
2.67024
2.67188
2.67366
2.67526
2.67696
2.65352
2.65531
2.65705
2.6586
2.66003
2.66136
2.66267
2.66404
2.66549
2.66712
2.6688
2.67064
2.67223
2.67396
2.65124
2.65274
2.65428
2.65567
2.65698
2.65822
2.65946
2.6608
2.66224
2.6639
2.66561
2.66751
2.6691
2.67087
2.64909
2.65032
2.65164
2.65286
2.65402
2.65514
2.6563
2.65758
2.65901
2.66067
2.66242
2.66437
2.66596
2.66781
2.64704
2.64805
2.64914
2.6502
2.65119
2.65219
2.65323
2.65444
2.65581
2.65748
2.65925
2.66127
2.6629
2.66489
2.64512
2.64594
2.64676
2.64766
2.6485
2.64936
2.6503
2.65142
2.65273
2.65438
2.65616
2.65827
2.65996
2.66214
2.643
2.64371
2.64435
2.64518
2.64588
2.64661
2.64741
2.64842
2.64965
2.65128
2.65311
2.65536
2.6572
2.6596
2.64156
2.64193
2.64228
2.64286
2.64332
2.64388
2.64458
2.64553
2.64672
2.64831
2.65011
2.65235
2.65413
2.65688
2.69702
2.69904
2.70066
2.70217
2.70352
2.70475
2.70592
2.70712
2.70836
2.70974
2.71124
2.71281
2.71458
2.71606
2.69457
2.69679
2.69856
2.70018
2.70165
2.70299
2.70426
2.70555
2.70687
2.70834
2.70989
2.71158
2.7133
2.71495
2.69254
2.69477
2.69659
2.69826
2.69978
2.70118
2.70252
2.70387
2.70525
2.70676
2.70837
2.7101
2.71192
2.71361
2.69061
2.69277
2.6946
2.69628
2.69784
2.69929
2.70068
2.7021
2.70355
2.70514
2.70681
2.70864
2.7105
2.71231
2.68884
2.69087
2.69265
2.69429
2.69584
2.6973
2.69873
2.7002
2.70173
2.7034
2.70517
2.70708
2.70902
2.71093
2.68722
2.68907
2.69075
2.69232
2.69382
2.69526
2.69671
2.69822
2.69981
2.70158
2.70343
2.70545
2.70743
2.70943
2.68576
2.68739
2.68893
2.6904
2.69182
2.69323
2.69466
2.6962
2.69785
2.6997
2.70163
2.70374
2.70575
2.70782
2.68445
2.68584
2.68722
2.68855
2.68987
2.69121
2.69262
2.69417
2.69586
2.69778
2.69977
2.70195
2.70395
2.70609
2.68329
2.68443
2.68563
2.6868
2.68801
2.68927
2.69063
2.69217
2.69388
2.69584
2.69786
2.7001
2.70209
2.70429
2.68225
2.68316
2.68417
2.68519
2.68627
2.68743
2.68872
2.69023
2.69193
2.69391
2.69596
2.69824
2.70021
2.70249
2.68135
2.68206
2.68289
2.68375
2.68468
2.68571
2.68689
2.68834
2.69
2.69198
2.69403
2.69637
2.69833
2.7007
2.68052
2.68108
2.68171
2.68244
2.68322
2.68411
2.68517
2.68651
2.6881
2.69006
2.69212
2.6945
2.69649
2.69894
2.67973
2.68018
2.68068
2.68129
2.68193
2.68267
2.68356
2.68473
2.68618
2.68807
2.69012
2.69255
2.69464
2.69722
2.67929
2.6796
2.67988
2.6803
2.68073
2.68128
2.68201
2.68302
2.68433
2.68609
2.68807
2.69044
2.69258
2.69533
2.71257
2.71428
2.71578
2.71728
2.71872
2.72011
2.72146
2.72285
2.72422
2.72571
2.7272
2.72876
2.73038
2.73182
2.71087
2.71273
2.71433
2.71593
2.71747
2.71898
2.72044
2.72193
2.7234
2.72499
2.72655
2.7282
2.72979
2.73127
2.7097
2.71152
2.71313
2.71475
2.71633
2.71787
2.71937
2.7209
2.72241
2.724
2.72559
2.72722
2.72887
2.73034
2.70865
2.7104
2.71199
2.7136
2.71519
2.71676
2.7183
2.71987
2.72141
2.72305
2.72467
2.72635
2.72799
2.72953
2.70779
2.70943
2.71097
2.71253
2.71409
2.71564
2.71718
2.71875
2.72033
2.72198
2.72363
2.72533
2.72701
2.72859
2.70706
2.70857
2.71003
2.71153
2.71303
2.71455
2.71607
2.71764
2.71923
2.7209
2.72258
2.72431
2.726
2.72762
2.70648
2.70785
2.70921
2.71061
2.71204
2.7135
2.71498
2.71653
2.71812
2.71981
2.72151
2.72326
2.72495
2.72661
2.70604
2.70725
2.70849
2.70978
2.71112
2.7125
2.71394
2.71546
2.71705
2.71875
2.72045
2.72221
2.72389
2.72559
2.70573
2.70677
2.70787
2.70904
2.71028
2.71158
2.71296
2.71445
2.71601
2.7177
2.71939
2.72117
2.72282
2.72458
2.70547
2.70638
2.70735
2.7084
2.70953
2.71074
2.71205
2.71349
2.71503
2.7167
2.71838
2.72017
2.72179
2.72362
2.70533
2.7061
2.70695
2.70789
2.70891
2.71001
2.71123
2.71261
2.71409
2.71575
2.71741
2.71922
2.72082
2.72273
2.70527
2.70594
2.70662
2.70746
2.70835
2.70934
2.71045
2.71174
2.71318
2.71482
2.71648
2.71831
2.71994
2.72187
2.70528
2.70589
2.70646
2.70718
2.70796
2.70881
2.70978
2.71096
2.71229
2.71388
2.71553
2.71739
2.71906
2.72109
2.7055
2.70613
2.70652
2.70706
2.70764
2.70831
2.70912
2.71012
2.71132
2.71279
2.7144
2.71619
2.71797
2.72001
2.72034
2.72171
2.72297
2.72435
2.72575
2.72721
2.72865
2.73015
2.73156
2.73306
2.73443
2.73582
2.7371
2.73833
2.71957
2.72102
2.72235
2.72381
2.72529
2.72685
2.7284
2.73001
2.73156
2.73315
2.73459
2.73606
2.73734
2.7386
2.71918
2.7206
2.72197
2.72345
2.72497
2.72655
2.72814
2.72977
2.73134
2.73291
2.73435
2.73578
2.73708
2.73835
2.71894
2.72031
2.72168
2.72316
2.7247
2.7263
2.72789
2.72952
2.73108
2.73263
2.73406
2.73548
2.73678
2.73803
2.71884
2.72016
2.7215
2.72296
2.72448
2.72605
2.72762
2.72921
2.73073
2.73224
2.73365
2.73502
2.73632
2.73756
2.71882
2.7201
2.72141
2.72282
2.7243
2.72582
2.72734
2.72887
2.73035
2.73181
2.73318
2.73452
2.7358
2.73705
2.71888
2.7201
2.72137
2.72273
2.72414
2.72559
2.72705
2.72852
2.72994
2.73134
2.73268
2.73398
2.73525
2.7365
2.71903
2.72019
2.72139
2.72268
2.72401
2.72538
2.72676
2.72815
2.72952
2.73085
2.73215
2.7334
2.73466
2.73592
2.71925
2.72034
2.72146
2.72266
2.72391
2.72519
2.72649
2.72779
2.72908
2.73035
2.73161
2.73284
2.73407
2.73536
2.71954
2.72057
2.72158
2.72269
2.72384
2.72501
2.72621
2.72743
2.72865
2.72986
2.73107
2.73228
2.73351
2.73483
2.71987
2.72081
2.72173
2.72275
2.7238
2.72487
2.72598
2.72711
2.72826
2.72943
2.73059
2.73181
2.73303
2.73441
2.72028
2.72118
2.72196
2.72286
2.72378
2.72474
2.72574
2.72678
2.72785
2.72897
2.73012
2.73135
2.7326
2.73405
2.72076
2.72155
2.72221
2.72301
2.72381
2.72467
2.72556
2.72653
2.72754
2.72863
2.72976
2.73103
2.73231
2.73388
2.72135
2.7222
2.72268
2.72332
2.72395
2.72465
2.72542
2.72629
2.72722
2.72826
2.72937
2.7306
2.73198
2.73348
2.72432
2.7255
2.72662
2.72788
2.72919
2.73057
2.73193
2.73331
2.73457
2.73584
2.73693
2.73804
2.73896
2.73999
2.72443
2.72558
2.72672
2.72799
2.72934
2.73079
2.73223
2.73369
2.73504
2.73639
2.73753
2.7387
2.73965
2.7407
2.72462
2.72576
2.72694
2.72823
2.72959
2.73105
2.7325
2.73398
2.73535
2.73669
2.73786
2.73901
2.73997
2.74101
2.72496
2.72607
2.72725
2.72855
2.72991
2.73135
2.7328
2.73425
2.73561
2.73693
2.7381
2.73924
2.74022
2.74126
2.72535
2.72646
2.72764
2.72892
2.73025
2.73165
2.73306
2.73447
2.73579
2.73707
2.73821
2.73933
2.74032
2.74136
2.72583
2.72692
2.72808
2.72932
2.73061
2.73195
2.7333
2.73463
2.7359
2.73711
2.73822
2.7393
2.74031
2.74136
2.72634
2.72741
2.72853
2.72973
2.73096
2.73222
2.73349
2.73474
2.73594
2.73708
2.73816
2.73921
2.74023
2.7413
2.72692
2.72797
2.72903
2.73015
2.7313
2.73247
2.73365
2.73479
2.73591
2.73698
2.73803
2.73903
2.74008
2.74115
2.72749
2.72851
2.7295
2.73055
2.73162
2.7327
2.73378
2.73483
2.73588
2.73687
2.73788
2.73885
2.73991
2.741
2.72813
2.72911
2.73002
2.73098
2.73194
2.73291
2.73389
2.73484
2.73581
2.73672
2.7377
2.73865
2.73974
2.74085
2.72876
2.72969
2.73048
2.73135
2.73222
2.7331
2.73399
2.73487
2.73577
2.73663
2.73758
2.73853
2.73965
2.74081
2.72948
2.73035
2.73099
2.73176
2.73252
2.73329
2.73409
2.73488
2.73571
2.73652
2.73746
2.73841
2.73958
2.74078
2.7302
2.73094
2.73146
2.73213
2.73279
2.73349
2.73422
2.73497
2.73577
2.73659
2.73753
2.73853
2.73972
2.74102
2.73099
2.73174
2.73212
2.73265
2.73317
2.73377
2.7344
2.73507
2.7358
2.73657
2.73748
2.73846
2.7397
2.741
2.72756
2.72855
2.72941
2.73037
2.73135
2.73236
2.73336
2.73438
2.73532
2.73627
2.73711
2.73802
2.73877
2.73973
2.72827
2.72913
2.73
2.73093
2.73191
2.73292
2.73393
2.73498
2.73595
2.73694
2.73781
2.73876
2.73954
2.7405
2.72894
2.72975
2.73061
2.73152
2.73248
2.73349
2.73449
2.73553
2.73652
2.73751
2.73839
2.73932
2.74012
2.74107
2.72963
2.73041
2.73124
2.73214
2.73307
2.73406
2.73505
2.73606
2.73704
2.73801
2.7389
2.73982
2.74065
2.74159
2.73031
2.73106
2.73187
2.73274
2.73365
2.7346
2.73556
2.73655
2.7375
2.73846
2.73935
2.74026
2.74111
2.74205
2.73102
2.73173
2.73251
2.73334
2.73421
2.73512
2.73605
2.73698
2.7379
2.73883
2.73972
2.74062
2.74149
2.74244
2.7317
2.73238
2.73312
2.73391
2.73473
2.7356
2.73648
2.73737
2.73826
2.73914
2.74002
2.74092
2.74182
2.74278
2.73241
2.73305
2.73375
2.73447
2.73525
2.73605
2.73687
2.73771
2.73855
2.7394
2.74027
2.74115
2.74209
2.74305
2.73307
2.73369
2.73434
2.735
2.73572
2.73646
2.73723
2.738
2.73882
2.73962
2.7405
2.74137
2.74236
2.74334
2.73378
2.73439
2.73495
2.73555
2.7362
2.73686
2.73756
2.73827
2.73904
2.73981
2.74069
2.74155
2.74261
2.74361
2.73445
2.73504
2.73551
2.73606
2.73664
2.73724
2.7379
2.73857
2.73932
2.74008
2.74097
2.74185
2.74294
2.74396
2.73519
2.73576
2.73613
2.73662
2.73712
2.73766
2.73826
2.73887
2.73959
2.74032
2.74122
2.74212
2.74325
2.74429
2.73594
2.73642
2.73672
2.73715
2.73757
2.73807
2.73864
2.73925
2.73998
2.74075
2.74168
2.74263
2.74378
2.74484
2.73671
2.73721
2.73742
2.73776
2.7381
2.73854
2.73906
2.73964
2.74034
2.7411
2.74202
2.74296
2.74411
2.74523
2.72851
2.72932
2.73
2.73073
2.73147
2.73227
2.73308
2.73393
2.73472
2.73555
2.73628
2.73711
2.7378
2.73871
2.72954
2.73014
2.73077
2.73143
2.73213
2.73289
2.73368
2.73453
2.73533
2.73618
2.73695
2.7378
2.73852
2.73947
2.73044
2.73095
2.73154
2.73215
2.7328
2.73352
2.73428
2.7351
2.7359
2.73675
2.73753
2.73839
2.73915
2.74009
2.73132
2.73177
2.7323
2.73287
2.73347
2.73415
2.73488
2.73566
2.73645
2.73729
2.73808
2.73896
2.73975
2.7407
2.73215
2.73256
2.73304
2.73357
2.73414
2.73477
2.73546
2.73621
2.73698
2.7378
2.73861
2.73949
2.74032
2.74127
2.73299
2.73335
2.73379
2.73427
2.73481
2.7354
2.73604
2.73675
2.73749
2.73829
2.73911
2.73999
2.74086
2.74182
2.73377
2.73409
2.73452
2.73496
2.73546
2.73602
2.73663
2.73729
2.73801
2.73879
2.73961
2.74049
2.74139
2.74235
2.73454
2.73483
2.73524
2.73564
2.73612
2.73664
2.73721
2.73784
2.73853
2.73928
2.74011
2.74098
2.74193
2.74288
2.73524
2.73555
2.73592
2.7363
2.73676
2.73724
2.7378
2.7384
2.73909
2.73983
2.74067
2.74153
2.74251
2.74345
2.73596
2.73629
2.73661
2.73697
2.7374
2.73786
2.73839
2.73898
2.73966
2.74039
2.74124
2.7421
2.74313
2.74405
2.73665
2.737
2.73727
2.73762
2.73802
2.73846
2.739
2.73958
2.74028
2.74102
2.7419
2.74278
2.74383
2.74473
2.7374
2.73775
2.73797
2.73831
2.73867
2.7391
2.73962
2.7402
2.7409
2.74165
2.74254
2.74343
2.74451
2.74542
2.73808
2.73844
2.73864
2.73896
2.73929
2.73973
2.74026
2.74086
2.7416
2.7424
2.74333
2.74426
2.74535
2.74627
2.73882
2.73916
2.73932
2.73961
2.73994
2.74038
2.7409
2.74153
2.74227
2.74307
2.74399
2.74494
2.74601
2.74703
2.72788
2.72861
2.72919
2.72976
2.73032
2.73091
2.73153
2.73216
2.7328
2.73347
2.73411
2.73487
2.73552
2.7364
2.72898
2.72946
2.72997
2.73048
2.73101
2.73156
2.73213
2.73275
2.73338
2.73405
2.73472
2.73549
2.73619
2.73709
2.72991
2.73033
2.73079
2.73124
2.7317
2.73221
2.73274
2.73331
2.73392
2.73459
2.73527
2.73605
2.73678
2.73769
2.73083
2.73117
2.73156
2.73196
2.73238
2.73284
2.73333
2.73389
2.73448
2.73515
2.73584
2.73663
2.7374
2.73832
2.73169
2.73198
2.73232
2.73266
2.73304
2.73347
2.73394
2.73447
2.73505
2.73572
2.73643
2.73723
2.73803
2.73896
2.73254
2.73277
2.73306
2.73337
2.73371
2.73411
2.73456
2.73508
2.73566
2.73633
2.73706
2.73788
2.73871
2.73964
2.73335
2.73352
2.73379
2.73406
2.73439
2.73476
2.73521
2.73572
2.73631
2.73698
2.73774
2.73856
2.73944
2.74036
2.73413
2.73428
2.73452
2.73476
2.73509
2.73545
2.7359
2.73641
2.73702
2.7377
2.73848
2.73932
2.74023
2.74114
2.73486
2.73503
2.73524
2.73548
2.7358
2.73617
2.73663
2.73716
2.73779
2.7385
2.73931
2.74014
2.74108
2.74197
2.73559
2.73579
2.73598
2.73623
2.73655
2.73693
2.7374
2.73796
2.73862
2.73935
2.74018
2.74103
2.742
2.74286
2.73629
2.73653
2.73671
2.73698
2.7373
2.7377
2.73821
2.7388
2.73951
2.74027
2.74113
2.74199
2.74298
2.74381
2.73699
2.73726
2.73745
2.73775
2.73809
2.73852
2.73906
2.73969
2.74041
2.7412
2.74208
2.74296
2.74397
2.74481
2.73762
2.73795
2.73816
2.73849
2.73886
2.73934
2.73992
2.7406
2.74138
2.74222
2.74313
2.74405
2.74505
2.7459
2.73827
2.73858
2.73883
2.73919
2.73961
2.74015
2.74077
2.74149
2.74229
2.74315
2.74406
2.745
2.746
2.74696
2.72499
2.72545
2.72587
2.7263
2.72674
2.72723
2.72776
2.72834
2.72896
2.72963
2.73033
2.73108
2.73177
2.73262
2.72603
2.72634
2.72669
2.72706
2.72747
2.72791
2.72841
2.72896
2.72957
2.73024
2.73094
2.73171
2.73244
2.73329
2.72702
2.72726
2.72756
2.72787
2.72823
2.72863
2.72908
2.72961
2.73019
2.73084
2.73154
2.7323
2.73305
2.7339
2.72799
2.72816
2.72841
2.72867
2.72899
2.72935
2.72979
2.73029
2.73086
2.73151
2.73221
2.73298
2.73373
2.73459
2.72892
2.72905
2.72926
2.72948
2.72977
2.73011
2.73053
2.73101
2.73158
2.73222
2.73293
2.7337
2.73446
2.73532
2.72985
2.72994
2.73012
2.73031
2.73058
2.73091
2.73132
2.7318
2.73237
2.73302
2.73374
2.73451
2.7353
2.73613
2.73074
2.73081
2.73097
2.73115
2.73142
2.73174
2.73216
2.73265
2.73323
2.73389
2.73462
2.73539
2.73619
2.73701
2.73161
2.73169
2.73184
2.73202
2.7323
2.73263
2.73306
2.73357
2.73417
2.73485
2.73559
2.73637
2.73719
2.73798
2.73243
2.73255
2.73269
2.7329
2.73319
2.73355
2.73401
2.73455
2.73518
2.73587
2.73664
2.73742
2.73825
2.73901
2.73323
2.7334
2.73356
2.7338
2.73412
2.73452
2.73501
2.73559
2.73625
2.73697
2.73775
2.73853
2.73939
2.74011
2.73398
2.73421
2.7344
2.73469
2.73504
2.7355
2.73604
2.73666
2.73736
2.73811
2.73892
2.73971
2.74057
2.74125
2.73468
2.73498
2.73522
2.73558
2.73599
2.73649
2.73709
2.73775
2.73849
2.73927
2.74009
2.74089
2.74176
2.74243
2.73531
2.73569
2.73597
2.73639
2.73687
2.73745
2.73811
2.73885
2.73965
2.74047
2.74132
2.74214
2.74299
2.74365
2.73589
2.73631
2.73667
2.73718
2.73774
2.7384
2.73912
2.7399
2.74073
2.74156
2.74242
2.74325
2.74411
2.74488
2.7203
2.7206
2.72094
2.7213
2.72169
2.72213
2.72262
2.72315
2.72374
2.72437
2.72503
2.72574
2.72643
2.72719
2.72131
2.7215
2.7218
2.72211
2.72248
2.72289
2.72336
2.72388
2.72447
2.7251
2.72577
2.72649
2.72719
2.72796
2.72234
2.72247
2.72273
2.723
2.72333
2.72371
2.72415
2.72465
2.72522
2.72584
2.72651
2.72722
2.72792
2.72869
2.72333
2.72343
2.72366
2.7239
2.72421
2.72457
2.725
2.7255
2.72606
2.72668
2.72735
2.72806
2.72876
2.72952
2.72432
2.72441
2.72463
2.72484
2.72514
2.72548
2.72591
2.72639
2.72696
2.72758
2.72824
2.72895
2.72964
2.7304
2.72531
2.72541
2.7256
2.72581
2.7261
2.72645
2.72688
2.72737
2.72794
2.72856
2.72923
2.72993
2.73063
2.73136
2.72627
2.72639
2.72658
2.7268
2.7271
2.72746
2.7279
2.72841
2.72899
2.72961
2.73029
2.73098
2.73167
2.73236
2.72723
2.72736
2.72756
2.72781
2.72813
2.72852
2.72899
2.72952
2.73011
2.73075
2.73142
2.73211
2.73281
2.73345
2.72812
2.72829
2.72851
2.72881
2.72917
2.7296
2.73011
2.73067
2.73128
2.73193
2.73261
2.73328
2.73398
2.73458
2.72896
2.7292
2.72946
2.72982
2.73023
2.73072
2.73126
2.73185
2.7325
2.73315
2.73385
2.73451
2.73521
2.73576
2.72974
2.73004
2.73035
2.73078
2.73126
2.73181
2.73241
2.73305
2.73372
2.7344
2.73511
2.73576
2.73646
2.73695
2.73044
2.73085
2.73123
2.73174
2.73229
2.73291
2.73356
2.73424
2.73494
2.73564
2.73635
2.737
2.73769
2.73817
2.73107
2.73156
2.73202
2.73261
2.73325
2.73394
2.73467
2.7354
2.73615
2.73688
2.73761
2.73826
2.73894
2.73941
2.73167
2.73226
2.73283
2.73352
2.73422
2.73498
2.73575
2.73652
2.73728
2.73802
2.73874
2.73941
2.74008
2.74063
2.71425
2.71436
2.71461