/*--------------------------------*- C++ -*----------------------------------*\
| =========                 |                                                 |
| \\      /  F ield         | OpenFOAM: The Open Source CFD Toolbox           |
|  \\    /   O peration     | Version:  v2106                                 |
|   \\  /    A nd           | Website:  www.openfoam.com                      |
|    \\/     M anipulation  |                                                 |
\*---------------------------------------------------------------------------*/
FoamFile
{
    version     2.0;
    format      ascii;
    arch        "LSB;label=32;scalar=64";
    class       volScalarField;
    location    "0.000179";
    object      Ttot;
}
// * * * * * * * * * * * * * * * * * * * * * * * * * * * * * * * * * * * * * //

dimensions      [0 0 0 1 0 0 0];

internalField   nonuniform List<scalar> 
18109
(
300.303
300.31
300.341
300.372
300.418
300.461
300.487
300.355
300.296
300.282
300.255
300.253
300.257
300.26
300.376
300.291
300.231
300.16
300.113
300.082
300.055
300.342
300.228
300.122
300.035
299.97
299.922
299.876
300.287
300.146
300.019
299.926
299.85
299.791
299.732
300.154
299.988
299.862
299.779
299.713
299.654
299.592
299.965
299.807
299.696
299.624
299.571
299.512
299.45
299.744
299.61
299.519
299.453
299.413
299.352
299.289
300.547
300.552
300.587
300.614
300.659
300.695
300.727
300.725
300.693
300.619
300.512
300.343
300.16
299.949
300.589
300.544
300.543
300.522
300.528
300.535
300.537
300.518
300.477
300.41
300.305
300.155
299.979
299.784
300.605
300.545
300.499
300.447
300.413
300.392
300.369
300.329
300.271
300.195
300.105
299.989
299.86
299.721
300.559
300.47
300.385
300.323
300.276
300.245
300.204
300.145
300.067
299.976
299.877
299.773
299.688
299.626
300.49
300.376
300.28
300.214
300.156
300.112
300.059
299.987
299.901
299.806
299.712
299.629
299.582
299.57
300.342
300.208
300.116
300.059
300.007
299.958
299.902
299.824
299.734
299.64
299.55
299.484
299.464
299.492
300.143
300.02
299.94
299.89
299.847
299.796
299.742
299.664
299.578
299.49
299.409
299.363
299.359
299.407
299.918
299.82
299.754
299.704
299.674
299.619
299.566
299.491
299.409
299.327
299.253
299.22
299.229
299.275
299.678
299.61
299.57
299.518
299.495
299.441
299.389
299.319
299.243
299.171
299.103
299.078
299.084
299.112
299.45
299.416
299.406
299.344
299.325
299.27
299.213
299.146
299.067
298.994
298.92
298.896
298.864
298.881
299.233
299.212
299.243
299.188
299.161
299.101
299.034
298.964
298.881
298.808
298.722
298.703
298.622
298.63
299.027
299.055
299.119
299.063
299.029
298.98
298.887
298.808
298.703
298.62
298.507
298.445
298.306
298.284
298.789
298.834
298.947
298.943
298.904
298.865
298.753
298.654
298.527
298.407
298.248
298.144
297.978
297.919
298.546
298.653
298.774
298.798
298.782
298.775
298.661
298.537
298.372
298.215
298.028
297.865
297.656
297.522
300.195
300.211
300.19
300.181
300.055
299.476
300.426
300.437
300.375
300.375
300.296
299.991
300.511
300.472
300.46
300.362
300.117
299.438
300.559
300.539
300.559
300.411
299.972
298.878
300.658
300.662
300.673
300.506
299.844
298.536
300.76
300.817
300.837
300.598
299.846
298.486
300.842
300.931
300.924
300.662
299.828
298.453
300.887
300.986
300.975
300.682
299.846
298.681
300.886
300.967
300.918
300.579
299.836
298.983
300.856
300.92
300.83
300.491
299.932
299.447
300.757
300.791
300.674
300.389
300.042
299.83
300.597
300.593
300.461
300.27
300.103
300.027
300.371
300.346
300.232
300.159
300.122
300.107
300.153
300.145
300.075
300.074
300.061
300.073
299.925
299.908
299.821
299.835
299.792
299.744
299.805
299.876
299.808
299.804
299.513
298.956
299.674
299.727
299.616
299.449
298.801
297.662
299.621
299.679
299.509
299.084
298.046
296.383
299.582
299.607
299.373
298.67
297.228
295.29
299.581
299.566
299.253
298.336
296.67
294.68
299.542
299.503
299.088
298.073
296.418
294.502
299.456
299.377
298.894
297.845
296.363
294.774
299.292
299.129
298.609
297.663
296.401
295.277
299.053
298.793
298.253
297.44
296.516
295.781
298.717
298.372
297.841
297.187
296.551
296.103
298.364
297.966
297.463
296.968
296.545
296.215
297.954
297.551
297.118
296.77
296.466
296.1
297.606
297.226
296.884
296.619
296.325
295.735
297.206
296.878
296.544
296.187
295.68
294.723
297.246
297.052
296.698
296.173
295.162
293.666
297.348
297.055
296.626
295.857
294.439
292.427
297.523
297.184
296.675
295.684
293.968
291.621
297.72
297.354
296.73
295.581
293.679
291.256
297.956
297.588
296.923
295.683
293.721
291.393
298.182
297.851
297.202
295.92
293.999
291.971
298.394
298.089
297.446
296.185
294.425
292.751
298.535
298.242
297.548
296.371
294.893
293.639
298.621
298.309
297.613
296.548
295.416
294.538
298.565
298.217
297.544
296.701
295.902
295.29
298.531
298.14
297.545
296.951
296.425
295.899
298.412
298.015
297.529
297.1
296.758
296.231
298.31
297.948
297.55
297.194
296.902
296.316
298.194
297.876
297.504
297.119
296.716
295.968
300.421
300.457
300.333
300.131
299.906
299.803
300.381
300.399
300.289
300.157
300.026
299.968
300.304
300.314
300.206
300.108
300.081
300.044
300.258
300.269
300.171
300.137
300.095
299.912
298.255
297.98
297.678
297.286
296.753
295.67
298.554
298.286
298.017
297.536
296.716
295.268
298.829
298.608
298.372
297.886
296.823
295.162
299.15
299.011
298.782
298.218
297.007
295.319
299.449
299.39
299.226
298.609
297.444
295.867
299.752
299.749
299.64
299.076
297.981
296.536
300.033
300.09
299.988
299.511
298.525
297.33
300.279
300.36
300.277
299.842
298.971
298.123
300.472
300.559
300.455
300.051
299.36
298.824
300.593
300.656
300.53
300.205
299.705
299.441
300.621
300.652
300.534
300.314
300.013
299.901
300.602
300.617
300.511
300.383
300.231
300.169
300.539
300.548
300.447
300.341
300.312
300.319
300.485
300.492
300.366
300.34
300.274
300.241
298.253
295.203
294.472
301.836
311.52
297.224
294.095
294.966
303.696
313.773
296.381
293.752
296.167
305.491
314.161
296.041
294.159
297.945
307.582
315.164
296.194
295.385
300.229
309.78
315.391
296.797
297.026
302.177
310.762
315.469
297.668
298.718
303.606
310.015
312.911
298.585
300.185
304.449
309.397
311.788
309.977
299.511
301.26
304.744
307.894
309.409
309.257
300.164
301.729
304.263
306.058
308.081
309.27
300.466
301.577
302.764
303.577
306.293
309.187
309.47
300.404
300.649
300.486
301.325
305.23
308.832
309.944
307.447
299.862
298.719
297.59
299.621
305.135
307.986
308.755
312.781
298.643
296.161
295.044
299.091
307.165
311.542
312.137
309.582
296.804
293.525
293.858
300.932
309.799
313.83
312.623
307.041
294.841
291.78
293.87
302.448
311.658
315.12
312.858
309.653
293.243
291.318
295.016
303.709
311.739
313.951
313.03
308.28
292.302
291.547
296.422
305.007
311.768
312.717
310.045
304.578
292.2
292.599
298.319
306.061
311.234
310.535
308.427
301.573
292.654
293.963
300.072
306.993
311.464
310.593
306.766
302.463
293.713
295.643
300.815
305.941
308.608
307.368
305.798
301.725
294.806
297.009
301.284
304.581
306.456
305.861
303.183
300.574
295.667
297.637
300.316
302.662
304.932
305.379
296.119
297.317
298.504
301.093
305.195
307.401
295.965
295.81
295.772
298.907
304.203
307.262
295.29
293.513
293.254
298.525
305.758
308.222
293.895
291.161
291.334
297.581
305.24
306.858
292.195
289.212
290.671
297.593
306.283
290.512
287.791
290.86
298.942
306.91
289.179
287.048
291.085
300.159
308.464
288.356
286.946
291.592
300.354
307.266
288.21
287.551
292.642
301.11
307.246
288.762
289
294.727
302.096
306.368
290.054
291.257
296.841
302.366
305.586
291.582
293.513
298.134
301.412
302.739
293.039
294.966
298.207
299.188
299.957
294.28
295.535
297.111
297.473
298.876
295.028
295.334
294.969
296.077
300.038
295.314
294.372
292.768
294.891
300.774
295.118
293.004
291.085
295.332
303.834
294.556
291.459
290.147
295.612
304.137
293.663
290.16
290.277
297.251
306.673
292.779
289.317
291.011
300.175
310.563
292.15
289.118
291.894
302.233
312.225
291.944
289.521
293.099
303.613
312.103
292.448
290.706
294.921
304.685
311.731
293.466
292.497
297.374
306.27
311.385
294.731
294.716
299.493
306.501
310.503
296.116
296.907
301.168
305.549
307.467
297.471
298.745
302.031
304.401
305.423
298.667
299.984
302.333
302.922
302.528
299.511
300.527
301.944
301.655
301.702
299.949
300.552
300.52
300.253
301.508
300.071
299.872
298.598
299.387
303.208
299.892
298.638
296.459
298.733
305.068
299.28
296.95
294.833
299.635
308.266
301.046
301.04
301.081
301.096
301.144
301.189
301.245
301.268
301.269
301.228
301.154
301.04
300.906
300.719
301.046
301.028
301.036
301.04
301.062
301.084
301.111
301.122
301.107
301.055
300.965
300.851
300.724
300.56
301.035
301.007
300.995
300.983
300.983
300.993
300.998
300.989
300.953
300.885
300.795
300.682
300.564
300.42
300.96
300.916
300.88
300.863
300.851
300.855
300.848
300.823
300.769
300.684
300.583
300.464
300.352
300.247
300.837
300.772
300.745
300.734
300.722
300.719
300.697
300.657
300.589
300.498
300.394
300.284
300.187
300.109
300.644
300.585
300.567
300.559
300.549
300.544
300.517
300.469
300.395
300.298
300.192
300.09
300.013
299.971
300.404
300.365
300.355
300.355
300.355
300.351
300.324
300.276
300.203
300.11
300.011
299.924
299.876
299.862
300.154
300.13
300.136
300.137
300.144
300.14
300.116
300.07
299.999
299.911
299.822
299.758
299.74
299.752
299.903
299.89
299.913
299.916
299.93
299.929
299.908
299.866
299.801
299.729
299.657
299.623
299.618
299.651
299.686
299.682
299.723
299.714
299.729
299.73
299.705
299.664
299.601
299.54
299.476
299.467
299.458
299.495
299.48
299.484
299.556
299.541
299.55
299.546
299.507
299.461
299.401
299.351
299.294
299.303
299.277
299.328
299.305
299.342
299.425
299.404
299.398
299.389
299.335
299.283
299.216
299.165
299.094
299.074
299.008
299.069
299.089
299.15
299.273
299.284
299.262
299.248
299.177
299.112
299.029
298.953
298.854
298.796
298.706
298.777
298.896
299.021
299.12
299.15
299.134
299.13
299.052
298.969
298.857
298.759
298.642
298.529
298.398
298.378
302.118
302.122
302.146
302.165
302.214
302.265
302.324
302.365
302.388
302.382
302.358
302.297
302.244
302.128
302.081
302.1
302.094
302.125
302.157
302.206
302.247
302.274
302.281
302.261
302.213
302.122
302.062
301.954
301.989
302.008
302.011
302.058
302.096
302.143
302.172
302.184
302.176
302.138
302.078
301.989
301.909
301.81
301.871
301.897
301.911
301.964
302.001
302.042
302.059
302.06
302.038
301.981
301.901
301.798
301.699
301.601
301.71
301.745
301.772
301.831
301.872
301.909
301.92
301.913
301.878
301.809
301.717
301.609
301.506
301.416
301.516
301.563
301.601
301.661
301.706
301.737
301.744
301.73
301.687
301.608
301.507
301.395
301.294
301.215
301.292
301.343
301.395
301.453
301.503
301.532
301.539
301.522
301.473
301.392
301.292
301.188
301.103
301.048
301.062
301.105
301.172
301.222
301.273
301.303
301.312
301.293
301.245
301.17
301.079
300.991
300.928
300.91
300.818
300.847
300.929
300.975
301.029
301.063
301.076
301.06
301.018
300.957
300.884
300.823
300.785
300.804
300.602
300.611
300.698
300.737
300.787
300.826
300.842
300.829
300.796
300.753
300.7
300.673
300.646
300.684
300.393
300.39
300.477
300.521
300.562
300.603
300.617
300.607
300.583
300.559
300.527
300.538
300.516
300.58
300.211
300.234
300.297
300.343
300.369
300.406
300.414
300.404
300.381
300.36
300.327
300.337
300.309
300.397
299.994
300.064
300.12
300.188
300.203
300.236
300.236
300.216
300.185
300.16
300.13
300.14
300.111
300.204
299.803
299.922
299.977
300.053
300.067
300.102
300.093
300.063
300.023
299.989
299.937
299.903
299.848
299.87
303.258
303.269
303.312
303.345
303.409
303.47
303.537
303.595
303.646
303.689
303.721
303.732
303.734
303.708
303.143
303.192
303.228
303.276
303.334
303.395
303.454
303.501
303.54
303.569
303.585
303.577
303.563
303.541
303.004
303.076
303.128
303.201
303.269
303.336
303.391
303.432
303.46
303.475
303.479
303.463
303.442
303.424
302.859
302.944
303.008
303.097
303.173
303.242
303.296
303.33
303.347
303.35
303.339
303.308
303.275
303.249
302.701
302.792
302.867
302.963
303.044
303.116
303.168
303.196
303.205
303.198
303.175
303.134
303.092
303.061
302.533
302.624
302.707
302.8
302.882
302.952
303
303.023
303.028
303.013
302.981
302.934
302.886
302.856
302.35
302.432
302.522
302.611
302.692
302.758
302.805
302.824
302.825
302.806
302.772
302.725
302.682
302.662
302.162
302.227
302.321
302.403
302.48
302.543
302.587
302.606
302.605
302.587
302.556
302.517
302.488
302.491
301.965
302.011
302.105
302.181
302.254
302.317
302.361
302.382
302.385
302.374
302.353
302.333
302.324
302.355
301.791
301.815
301.898
301.965
302.029
302.09
302.135
302.162
302.17
302.17
302.164
302.173
302.186
302.239
301.619
301.636
301.698
301.76
301.815
301.874
301.919
301.95
301.967
301.983
301.997
302.037
302.069
302.155
301.48
301.507
301.537
301.589
301.628
301.682
301.724
301.758
301.781
301.806
301.827
301.883
301.919
302.034
301.309
301.369
301.38
301.433
301.464
301.512
301.548
301.577
301.601
301.636
301.67
301.744
301.794
301.917
301.152
301.254
301.262
301.316
301.339
301.378
301.405
301.432
301.456
301.489
301.509
301.565
301.592
301.663
304.604
304.642
304.687
304.74
304.797
304.858
304.92
304.984
305.052
305.122
305.195
305.261
305.335
305.392
304.449
304.519
304.578
304.649
304.716
304.782
304.846
304.907
304.968
305.028
305.09
305.146
305.207
305.262
304.305
304.393
304.466
304.553
304.632
304.705
304.772
304.833
304.891
304.945
304.998
305.048
305.101
305.156
304.166
304.263
304.348
304.443
304.529
304.607
304.676
304.736
304.791
304.84
304.885
304.926
304.97
305.019
304.027
304.128
304.221
304.319
304.408
304.486
304.555
304.614
304.667
304.711
304.75
304.786
304.822
304.87
303.885
303.983
304.08
304.176
304.264
304.341
304.408
304.465
304.515
304.556
304.591
304.622
304.653
304.705
303.737
303.827
303.926
304.018
304.103
304.177
304.241
304.296
304.343
304.382
304.414
304.445
304.478
304.534
303.588
303.667
303.761
303.848
303.927
303.997
304.059
304.112
304.157
304.195
304.228
304.263
304.301
304.366
303.441
303.506
303.593
303.673
303.745
303.811
303.87
303.922
303.968
304.009
304.046
304.089
304.139
304.217
303.311
303.361
303.433
303.501
303.564
303.624
303.681
303.734
303.782
303.829
303.874
303.931
303.994
304.088
303.183
303.226
303.279
303.338
303.391
303.446
303.499
303.552
303.604
303.66
303.718
303.794
303.87
303.983
303.09
303.127
303.152
303.197
303.237
303.284
303.333
303.385
303.44
303.504
303.574
303.668
303.754
303.882
302.965
303.018
303.025
303.068
303.101
303.142
303.185
303.231
303.285
303.357
303.441
303.554
303.653
303.791
302.869
302.936
302.938
302.976
302.999
303.03
303.068
303.112
303.165
303.237
303.318
303.429
303.519
303.645
305.871
305.933
305.991
306.054
306.112
306.168
306.224
306.283
306.349
306.423
306.506
306.593
306.692
306.78
305.729
305.804
305.875
305.951
306.02
306.083
306.144
306.205
306.271
306.343
306.423
306.508
306.6
306.691
305.6
305.686
305.765
305.849
305.925
305.994
306.06
306.125
306.193
306.265
306.344
306.429
306.52
306.612
305.479
305.57
305.657
305.743
305.823
305.895
305.964
306.032
306.102
306.176
306.255
306.34
306.428
306.52
305.364
305.456
305.546
305.632
305.712
305.786
305.856
305.926
305.999
306.076
306.156
306.242
306.328
306.421
305.255
305.343
305.432
305.515
305.594
305.666
305.737
305.808
305.882
305.961
306.043
306.13
306.215
306.31
305.153
305.233
305.316
305.395
305.469
305.54
305.609
305.68
305.755
305.836
305.918
306.007
306.092
306.192
305.056
305.125
305.201
305.272
305.34
305.407
305.474
305.545
305.62
305.702
305.786
305.877
305.963
306.068
304.969
305.024
305.089
305.151
305.212
305.273
305.337
305.407
305.483
305.567
305.652
305.746
305.835
305.949
304.892
304.933
304.984
305.034
305.086
305.141
305.202
305.271
305.347
305.433
305.521
305.62
305.714
305.838
304.824
304.853
304.888
304.927
304.968
305.016
305.072
305.139
305.215
305.303
305.396
305.503
305.605
305.741
304.768
304.786
304.804
304.831
304.861
304.901
304.95
305.014
305.089
305.18
305.279
305.397
305.506
305.655
304.702
304.721
304.729
304.751
304.772
304.802
304.842
304.898
304.969
305.063
305.169
305.299
305.419
305.578
304.674
304.684
304.681
304.695
304.705
304.726
304.758
304.807
304.873
304.965
305.072
305.204
305.323
305.489
306.911
306.988
307.059
307.13
307.195
307.255
307.313
307.373
307.438
307.511
307.593
307.682
307.782
307.873
306.789
306.875
306.955
307.034
307.107
307.174
307.238
307.304
307.372
307.449
307.533
307.624
307.721
307.817
306.691
306.78
306.863
306.945
307.021
307.092
307.159
307.228
307.3
307.379
307.465
307.558
307.659
307.756
306.601
306.691
306.774
306.856
306.933
307.006
307.077
307.15
307.225
307.308
307.397
307.494
307.595
307.696
306.522
306.608
306.69
306.769
306.846
306.919
306.991
307.066
307.145
307.232
307.325
307.426
307.53
307.633
306.454
306.533
306.61
306.685
306.758
306.83
306.903
306.98
307.062
307.154
307.25
307.355
307.459
307.566
306.395
306.465
306.536
306.605
306.674
306.743
306.815
306.894
306.978
307.074
307.173
307.281
307.386
307.496
306.345
306.404
306.466
306.528
306.592
306.658
306.729
306.808
306.895
306.993
307.095
307.206
307.31
307.425
306.304
306.351
306.404
306.457
306.514
306.577
306.646
306.725
306.813
306.913
307.017
307.13
307.235
307.355
306.271
306.305
306.347
306.392
306.443
306.5
306.567
306.646
306.734
306.836
306.941
307.057
307.162
307.29
306.246
306.269
306.299
306.335
306.378
306.43
306.492
306.569
306.657
306.76
306.867
306.987
307.094
307.231
306.228
306.241
306.26
306.287
306.321
306.366
306.423
306.496
306.583
306.687
306.796
306.921
307.032
307.176
306.212
306.223
306.235
306.254
306.279
306.313
306.361
306.427
306.509
306.613
306.725
306.855
306.972
307.124
306.215
306.226
306.229
306.24
306.252
306.275
306.311
306.368
306.444
306.543
306.656
306.788
306.909
307.067
307.654
307.729
307.799
307.87
307.939
308.006
308.072
308.142
308.212
308.289
308.369
308.454
308.542
308.625
307.571
307.653
307.728
307.804
307.878
307.952
308.024
308.1
308.175
308.258
308.34
308.429
308.515
308.599
307.515
307.597
307.672
307.749
307.825
307.9
307.974
308.051
308.129
308.212
308.295
308.383
308.472
308.555
307.468
307.547
307.621
307.697
307.773
307.85
307.926
308.005
308.084
308.169
308.254
308.344
308.432
308.518
307.431
307.505
307.577
307.651
307.725
307.801
307.876
307.955
308.036
308.121
308.208
308.299
308.389
308.477
307.403
307.471
307.539
307.609
307.681
307.754
307.829
307.908
307.989
308.075
308.163
308.255
308.346
308.435
307.383
307.444
307.507
307.572
307.64
307.711
307.784
307.862
307.943
308.03
308.12
308.212
308.303
308.393
307.371
307.425
307.481
307.541
307.604
307.672
307.743
307.82
307.901
307.988
308.078
308.171
308.261
308.352
307.366
307.412
307.461
307.515
307.573
307.637
307.706
307.781
307.862
307.95
308.039
308.133
308.222
308.316
307.365
307.404
307.445
307.493
307.547
307.606
307.673
307.747
307.827
307.914
308.003
308.098
308.187
308.285
307.37
307.402
307.437
307.479
307.527
307.582
307.645
307.717
307.795
307.883
307.972
308.069
308.156
308.261
307.38
307.406
307.434
307.469
307.512
307.561
307.619
307.688
307.766
307.853
307.944
308.042
308.132
308.24
307.395
307.417
307.439
307.471
307.507
307.549
307.601
307.665
307.739
307.827
307.917
308.018
308.109
308.223
307.423
307.447
307.459
307.483
307.511
307.544
307.586
307.641
307.709
307.792
307.882
307.982
308.079
308.193
308.098
308.162
308.22
308.284
308.35
308.419
308.489
308.564
308.635
308.712
308.784
308.859
308.928
308.997
308.061
308.129
308.19
308.258
308.327
308.401
308.477
308.557
308.634
308.716
308.791
308.87
308.939
309.009
308.043
308.109
308.172
308.241
308.312
308.388
308.464
308.545
308.623
308.704
308.779
308.856
308.927
308.998
308.034
308.097
308.16
308.228
308.301
308.377
308.454
308.534
308.612
308.692
308.767
308.843
308.914
308.984
308.032
308.092
308.154
308.221
308.293
308.367
308.443
308.522
308.598
308.676
308.75
308.824
308.895
308.965
308.035
308.093
308.153
308.218
308.287
308.36
308.434
308.51
308.584
308.659
308.732
308.804
308.875
308.945
308.042
308.098
308.155
308.218
308.285
308.354
308.425
308.498
308.57
308.642
308.714
308.784
308.854
308.924
308.056
308.109
308.162
308.222
308.285
308.35
308.418
308.487
308.556
308.626
308.695
308.764
308.834
308.904
308.074
308.123
308.173
308.228
308.287
308.349
308.412
308.478
308.544
308.611
308.679
308.747
308.817
308.887
308.096
308.142
308.187
308.238
308.292
308.349
308.408
308.469
308.533
308.597
308.664
308.731
308.801
308.873
308.121
308.163
308.203
308.249
308.299
308.351
308.407
308.465
308.526
308.589
308.654
308.722
308.791
308.866
308.151
308.19
308.224
308.265
308.308
308.355
308.406
308.46
308.518
308.578
308.644
308.713
308.784
308.862
308.183
308.217
308.245
308.282
308.321
308.363
308.409
308.461
308.516
308.576
308.64
308.712
308.782
308.866
308.222
308.259
308.279
308.309
308.34
308.375
308.415
308.462
308.513
308.571
308.634
308.704
308.778
308.859
308.36
308.416
308.467
308.524
308.584
308.65
308.715
308.783
308.846
308.911
308.968
309.028
309.077
309.133
308.365
308.42
308.472
308.53
308.592
308.66
308.729
308.801
308.868
308.936
308.997
309.059
309.11
309.167
308.375
308.429
308.482
308.541
308.604
308.672
308.742
308.814
308.882
308.951
309.012
309.074
309.127
309.183
308.393
308.444
308.498
308.557
308.62
308.688
308.757
308.828
308.896
308.963
309.024
309.086
309.14
309.197
308.414
308.464
308.518
308.577
308.638
308.704
308.772
308.841
308.907
308.972
309.032
309.092
309.147
309.204
308.44
308.489
308.542
308.599
308.658
308.721
308.786
308.851
308.915
308.977
309.036
309.094
309.15
309.208
308.467
308.516
308.566
308.621
308.678
308.738
308.799
308.861
308.921
308.98
309.038
309.095
309.151
309.21
308.499
308.547
308.595
308.647
308.7
308.756
308.813
308.869
308.926
308.981
309.038
309.093
309.151
309.209
308.532
308.579
308.623
308.672
308.721
308.773
308.826
308.878
308.932
308.984
309.039
309.093
309.152
309.211
308.569
308.615
308.655
308.699
308.744
308.79
308.838
308.886
308.936
308.985
309.04
309.093
309.154
309.213
308.607
308.65
308.685
308.725
308.765
308.808
308.852
308.896
308.944
308.991
309.045
309.098
309.16
309.222
308.65
308.69
308.718
308.754
308.789
308.826
308.866
308.906
308.951
308.996
309.049
309.103
309.167
309.23
308.692
308.726
308.748
308.78
308.811
308.845
308.882
308.921
308.965
309.011
309.063
309.119
309.182
309.249
308.737
308.771
308.788
308.813
308.839
308.869
308.901
308.936
308.976
309.019
309.07
309.124
309.188
309.255
308.563
308.609
308.648
308.692
308.738
308.785
308.833
308.882
308.928
308.977
309.02
309.068
309.108
309.158
308.596
308.637
308.678
308.72
308.765
308.813
308.861
308.911
308.958
309.008
309.053
309.102
309.144
309.194
308.629
308.668
308.707
308.749
308.793
308.841
308.888
308.939
308.986
309.036
309.081
309.13
309.172
309.222
308.663
308.7
308.739
308.78
308.823
308.87
308.917
308.966
309.013
309.062
309.107
309.156
309.199
309.249
308.698
308.733
308.77
308.81
308.852
308.898
308.944
308.991
309.038
309.086
309.132
309.18
309.224
309.274
308.734
308.767
308.803
308.841
308.882
308.925
308.97
309.015
309.061
309.108
309.153
309.201
309.247
309.297
308.77
308.801
308.835
308.871
308.91
308.951
308.994
309.038
309.082
309.127
309.173
309.22
309.267
309.318
308.807
308.837
308.869
308.903
308.939
308.977
309.017
309.058
309.101
309.144
309.19
309.237
309.287
309.337
308.843
308.872
308.902
308.933
308.966
309.001
309.039
309.078
309.12
309.162
309.208
309.255
309.307
309.358
308.883
308.911
308.937
308.965
308.996
309.027
309.062
309.097
309.137
309.177
309.225
309.271
309.327
309.379
308.921
308.949
308.97
308.996
309.023
309.052
309.085
309.118
309.158
309.198
309.246
309.293
309.351
309.403
308.964
308.99
309.007
309.03
309.054
309.079
309.109
309.14
309.178
309.217
309.266
309.314
309.373
309.427
309.005
309.028
309.041
309.062
309.082
309.106
309.135
309.166
309.204
309.245
309.295
309.345
309.404
309.458
309.048
309.071
309.08
309.097
309.115
309.137
309.163
309.193
309.229
309.269
309.317
309.366
309.424
309.479
308.636
308.673
308.704
308.738
308.772
308.81
308.849
308.891
308.93
308.972
309.009
309.053
309.089
309.135
308.684
308.713
308.742
308.773
308.805
308.841
308.879
308.92
308.959
309.002
309.04
309.085
309.122
309.169
308.727
308.753
308.779
308.808
308.838
308.872
308.909
308.949
308.988
309.03
309.07
309.114
309.153
309.201
308.771
308.793
308.817
308.844
308.872
308.904
308.939
308.977
309.016
309.057
309.098
309.143
309.184
309.231
308.814
308.833
308.855
308.879
308.905
308.935
308.968
309.005
309.043
309.084
309.125
309.171
309.213
309.262
308.856
308.872
308.893
308.915
308.94
308.968
308.999
309.033
309.07
309.11
309.152
309.197
309.242
309.291
308.895
308.91
308.93
308.95
308.974
309
309.03
309.062
309.098
309.137
309.179
309.224
309.271
309.319
308.935
308.949
308.968
308.986
309.009
309.034
309.061
309.092
309.127
309.165
309.207
309.252
309.3
309.349
308.972
308.987
309.004
309.022
309.043
309.067
309.094
309.124
309.158
309.195
309.238
309.283
309.333
309.38
309.011
309.027
309.041
309.058
309.079
309.101
309.127
309.156
309.191
309.227
309.271
309.316
309.368
309.415
309.049
309.065
309.078
309.094
309.114
309.135
309.161
309.19
309.226
309.263
309.309
309.354
309.407
309.453
309.089
309.106
309.116
309.132
309.15
309.171
309.196
309.225
309.261
309.299
309.345
309.391
309.445
309.491
309.126
309.143
309.153
309.168
309.185
309.206
309.232
309.262
309.299
309.34
309.387
309.434
309.488
309.534
309.165
309.181
309.189
309.203
309.22
309.242
309.268
309.299
309.336
309.377
309.423
309.47
309.522
309.57
308.621
308.655
308.681
308.708
308.735
308.764
308.794
308.825
308.856
308.89
308.923
308.96
308.993
309.036
308.672
308.696
308.72
308.744
308.769
308.796
308.824
308.854
308.884
308.918
308.951
308.99
309.024
309.067
308.717
308.738
308.76
308.782
308.804
308.828
308.854
308.882
308.912
308.945
308.979
309.018
309.054
309.098
308.763
308.78
308.798
308.818
308.838
308.86
308.884
308.911
308.94
308.974
309.008
309.047
309.085
309.129
308.806
308.82
308.836
308.853
308.871
308.892
308.915
308.941
308.97
309.003
309.038
309.078
309.118
309.162
308.849
308.86
308.874
308.889
308.906
308.925
308.947
308.973
309.001
309.034
309.071
309.111
309.152
309.197
308.89
308.898
308.911
308.924
308.94
308.959
308.98
309.006
309.035
309.068
309.105
309.146
309.189
309.234
308.929
308.937
308.948
308.96
308.976
308.994
309.016
309.041
309.071
309.105
309.144
309.185
309.229
309.273
308.967
308.975
308.985
308.997
309.012
309.03
309.053
309.079
309.111
309.146
309.186
309.227
309.273
309.316
309.004
309.014
309.023
309.035
309.051
309.069
309.093
309.12
309.153
309.189
309.23
309.272
309.32
309.362
309.041
309.052
309.061
309.074
309.09
309.109
309.134
309.163
309.197
309.235
309.278
309.321
309.37
309.411
309.078
309.09
309.1
309.114
309.131
309.151
309.177
309.208
309.243
309.282
309.326
309.37
309.42
309.461
309.111
309.126
309.136
309.152
309.17
309.193
309.221
309.254
309.291
309.333
309.378
309.424
309.472
309.514
309.144
309.158
309.17
309.188
309.208
309.234
309.264
309.299
309.338
309.38
309.424
309.47
309.518
309.563
308.488
308.509
308.529
308.55
308.571
308.595
308.621
308.649
308.679
308.711
308.745
308.782
308.816
308.856
308.536
308.551
308.569
308.587
308.607
308.629
308.653
308.679
308.708
308.74
308.774
308.811
308.847
308.887
308.584
308.596
308.611
308.627
308.644
308.664
308.686
308.711
308.739
308.77
308.804
308.841
308.877
308.918
308.631
308.64
308.652
308.666
308.681
308.7
308.72
308.745
308.772
308.804
308.838
308.875
308.911
308.952
308.677
308.684
308.695
308.706
308.72
308.737
308.757
308.781
308.808
308.84
308.874
308.911
308.948
308.989
308.723
308.728
308.737
308.747
308.76
308.776
308.796
308.82
308.848
308.879
308.914
308.951
308.989
309.029
308.768
308.771
308.779
308.788
308.802
308.818
308.838
308.862
308.89
308.922
308.958
308.995
309.034
309.073
308.811
308.815
308.822
308.832
308.845
308.862
308.883
308.908
308.937
308.969
309.006
309.043
309.083
309.121
308.852
308.857
308.865
308.875
308.889
308.907
308.929
308.956
308.986
309.02
309.057
309.095
309.135
309.172
308.892
308.9
308.908
308.92
308.935
308.955
308.979
309.007
309.039
309.073
309.112
309.15
309.191
309.226
308.93
308.941
308.95
308.964
308.981
309.003
309.029
309.059
309.093
309.129
309.169
309.208
309.25
309.283
308.965
308.979
308.991
309.008
309.028
309.052
309.08
309.113
309.148
309.186
309.226
309.266
309.308
309.341
308.997
309.015
309.028
309.049
309.072
309.099
309.131
309.166
309.205
309.245
309.286
309.326
309.367
309.4
309.025
309.045
309.062
309.087
309.114
309.146
309.181
309.218
309.258
309.299
309.34
309.38
309.421
309.457
308.261
308.276
308.292
308.31
308.33
308.351
308.374
308.4
308.428
308.458
308.49
308.524
308.557
308.593
308.309
308.319
308.334
308.35
308.368
308.387
308.41
308.435
308.463
308.493
308.526
308.56
308.593
308.629
308.358
308.366
308.379
308.393
308.409
308.427
308.449
308.473
308.5
308.53
308.562
308.596
308.629
308.665
308.407
308.413
308.424
308.436
308.451
308.469
308.49
308.514
308.541
308.571
308.603
308.637
308.671
308.707
308.455
308.46
308.471
308.482
308.497
308.513
308.534
308.558
308.585
308.615
308.647
308.681
308.714
308.75
308.504
308.509
308.519
308.529
308.543
308.56
308.581
308.605
308.633
308.663
308.695
308.729
308.762
308.797
308.551
308.556
308.566
308.577
308.592
308.61
308.631
308.656
308.684
308.714
308.746
308.779
308.813
308.845
308.598
308.604
308.614
308.626
308.642
308.661
308.684
308.71
308.738
308.769
308.801
308.834
308.868
308.898
308.641
308.649
308.66
308.675
308.693
308.714
308.738
308.765
308.795
308.826
308.859
308.891
308.924
308.953
308.683
308.694
308.707
308.724
308.744
308.768
308.794
308.822
308.853
308.885
308.918
308.95
308.984
309.011
308.721
308.736
308.751
308.771
308.794
308.82
308.849
308.88
308.912
308.945
308.979
309.011
309.045
309.07
308.756
308.775
308.794
308.818
308.844
308.874
308.905
308.937
308.971
309.005
309.039
309.071
309.105
309.129
308.787
308.81
308.832
308.861
308.891
308.924
308.958
308.994
309.03
309.065
309.1
309.132
309.165
309.188
308.816
308.844
308.871
308.904
308.938
308.974
309.011
309.048
309.085
309.12
309.155
309.187
309.219
309.245
307.966