/*--------------------------------*- C++ -*----------------------------------*\
| =========                 |                                                 |
| \\      /  F ield         | OpenFOAM: The Open Source CFD Toolbox           |
|  \\    /   O peration     | Version:  v2106                                 |
|   \\  /    A nd           | Website:  www.openfoam.com                      |
|    \\/     M anipulation  |                                                 |
\*---------------------------------------------------------------------------*/
FoamFile
{
    version     2.0;
    format      ascii;
    arch        "LSB;label=32;scalar=64";
    class       volScalarField;
    location    "0.000214";
    object      p;
}
// * * * * * * * * * * * * * * * * * * * * * * * * * * * * * * * * * * * * * //

dimensions      [1 -1 -2 0 0 0 0];

internalField   nonuniform List<scalar> 
17924
(
240368
240260
240180
240099
240927
240824
240739
240648
240563
240483
240409
240974
240886
240809
240724
240641
240560
240482
241026
240945
240869
240790
240711
240631
240553
241079
241005
240932
240856
240778
240699
240619
241129
241060
240990
240917
240841
240762
240683
241178
241114
241046
240975
240900
240821
240740
241225
241164
241098
241028
240953
240874
240791
241268
241210
241145
241076
241000
240920
240835
241306
241249
241185
241117
241041
240960
240874
241334
241278
241216
241148
241074
240993
240906
241355
241299
241239
241172
241099
241020
240933
241369
241314
241255
241190
241118
241040
240956
241376
241322
241266
241203
241133
241058
240975
241378
241322
241269
241209
241144
241071
240990
241472
241384
241307
241226
241145
241061
240978
240895
240815
240735
240663
240590
240530
240466
241480
241401
241329
241253
241175
241095
241013
240928
240845
240761
240684
240607
240541
240476
241482
241417
241348
241276
241201
241124
241044
240961
240877
240790
240709
240628
240556
240485
241493
241435
241370
241302
241229
241153
241073
240989
240903
240813
240729
240644
240568
240493
241506
241452
241390
241325
241254
241178
241099
241013
240926
240834
240745
240657
240575
240495
241518
241467
241407
241344
241274
241198
241117
241030
240941
240847
240755
240663
240578
240495
241526
241478
241420
241357
241287
241211
241129
241041
240949
240854
240759
240665
240576
240490
241529
241481
241424
241362
241292
241216
241133
241044
240950
240853
240757
240661
240569
240481
241526
241479
241423
241362
241291
241215
241131
241041
240947
240849
240750
240653
240557
240467
241516
241468
241413
241351
241281
241205
241121
241031
240937
240839
240739
240641
240542
240451
241501
241452
241398
241336
241266
241190
241106
241016
240921
240823
240723
240623
240523
240432
241482
241431
241377
241315
241246
241171
241088
240999
240905
240808
240708
240608
240506
240412
241461
241409
241355
241293
241225
241150
241067
240977
240883
240786
240686
240586
240484
240388
241435
241379
241328
241267
241200
241125
241044
240956
240864
240771
240674
240576
240476
240368
241980
241910
241844
241775
241705
241632
241556
241476
241397
241316
241243
241170
241114
241052
241943
241882
241820
241756
241689
241617
241543
241464
241386
241306
241232
241160
241103
241042
241906
241856
241795
241734
241669
241600
241528
241452
241375
241297
241224
241152
241093
241032
241878
241832
241774
241716
241651
241584
241512
241437
241360
241283
241210
241139
241078
241017
241850
241807
241751
241696
241632
241565
241494
241419
241343
241266
241193
241121
241059
240997
241821
241779
241726
241672
241609
241542
241471
241396
241320
241243
241170
241098
241034
240971
241791
241750
241699
241645
241583
241516
241444
241369
241293
241215
241141
241069
241003
240940
241757
241716
241665
241611
241549
241482
241411
241335
241258
241180
241105
241031
240963
240900
241721
241679
241630
241575
241513
241446
241373
241297
241218
241139
241062
240988
240916
240853
241683
241639
241590
241534
241471
241403
241329
241252
241173
241092
241012
240937
240861
240798
241645
241598
241548
241491
241428
241358
241283
241204
241121
241038
240956
240878
240800
240738
241605
241555
241504
241445
241380
241309
241232
241152
241068
240984
240899
240819
240738
240674
241567
241515
241462
241400
241333
241260
241181
241097
241011
240925
240837
240754
240670
240605
241525
241469
241415
241351
241283
241208
241128
241045
240958
240872
240785
240701
240618
240542
242407
242352
242296
242237
242178
242114
242049
241981
241913
241846
241782
241720
241671
241614
242337
242292
242238
242183
242125
242062
241998
241932
241867
241802
241742
241685
241639
241588
242271
242232
242179
242126
242068
242008
241947
241883
241821
241760
241704
241650
241608
241561
242209
242173
242121
242070
242013
241954
241894
241833
241772
241714
241661
241611
241571
241529
242150
242113
242062
242014
241957
241900
241841
241781
241723
241667
241615
241567
241529
241490
242090
242052
242003
241955
241900
241843
241785
241726
241669
241615
241564
241518
241480
241443
242031
241993
241945
241897
241842
241786
241728
241670
241613
241559
241509
241462
241425
241388
241971
241932
241884
241836
241781
241725
241667
241608
241551
241496
241446
241399
241359
241324
241914
241873
241826
241776
241721
241664
241604
241544
241485
241429
241377
241329
241287
241252
241858
241813
241766
241714
241657
241598
241537
241475
241414
241356
241301
241251
241205
241172
241805
241758
241709
241653
241595
241533
241468
241403
241338
241277
241218
241167
241116
241086
241752
241701
241649
241591
241529
241464
241396
241328
241259
241195
241133
241078
241023
240992
241702
241648
241594
241532
241466
241396
241324
241250
241176
241107
241040
240980
240923
240891
241647
241590
241534
241469
241399
241325
241249
241173
241096
241023
240952
240888
240829
240785
242691
242649
242602
242553
242502
242446
242389
242331
242272
242214
242158
242102
242053
241995
242601
242569
242523
242476
242425
242371
242316
242259
242204
242149
242097
242047
242004
241956
242515
242487
242440
242395
242345
242293
242241
242188
242136
242086
242038
241994
241956
241914
242433
242404
242358
242314
242265
242215
242164
242114
242066
242020
241977
241938
241906
241871
242353
242322
242276
242234
242185
242137
242089
242042
241997
241954
241915
241880
241852
241822
242272
242239
242195
242153
242105
242059
242012
241967
241924
241884
241848
241816
241792
241767
242195
242160
242116
242075
242028
241982
241936
241892
241850
241812
241779
241749
241727
241706
242118
242081
242038
241995
241949
241903
241857
241814
241773
241736
241703
241674
241654
241636
242046
242006
241964
241919
241872
241826
241779
241735
241694
241656
241623
241595
241575
241561
241976
241932
241889
241842
241794
241746
241698
241652
241610
241571
241537
241509
241488
241478
241908
241863
241818
241769
241719
241668
241617
241568
241523
241481
241445
241417
241393
241390
241841
241792
241745
241693
241641
241587
241533
241481
241432
241388
241347
241317
241289
241291
241781
241728
241677
241623
241566
241509
241449
241392
241337
241287
241242
241208
241178
241180
241718
241662
241607
241547
241487
241425
241362
241301
241241
241187
241137
241097
241065
241052
242831
242799
242759
242718
242676
242630
242583
242533
242482
242429
242377
242323
242274
242213
242728
242706
242666
242627
242585
242540
242494
242445
242397
242347
242298
242250
242206
242156
242631
242610
242569
242531
242489
242446
242402
242358
242313
242268
242223
242180
242140
242097
242536
242513
242471
242435
242393
242352
242310
242268
242226
242186
242146
242108
242074
242037
242443
242417
242375
242340
242298
242258
242218
242179
242141
242104
242069
242036
242007
241976
242351
242321
242280
242244
242203
242165
242126
242089
242054
242020
241989
241960
241936
241911
242263
242230
242190
242152
242111
242073
242036
242000
241967
241937
241909
241884
241864
241845
242176
242139
242100
242061
242020
241982
241945
241911
241879
241851
241826
241804
241787
241774
242094
242054
242015
241974
241933
241894
241857
241823
241792
241765
241742
241722
241709
241701
242012
241969
241929
241887
241845
241805
241767
241733
241703
241676
241654
241636
241624
241622
241934
241889
241848
241804
241760
241718
241679
241644
241612
241585
241563
241546
241535
241541
241856
241808
241764
241719
241674
241630
241589
241552
241519
241491
241467
241450
241438
241452
241784
241733
241687
241639
241591
241544
241499
241458
241422
241392
241367
241350
241338
241358
241709
241655
241605
241554
241503
241453
241405
241362
241324
241291
241265
241246
241234
241249
242856
242833
242800
242769
242736
242699
242661
242618
242574
242527
242478
242428
242379
242318
242749
242734
242701
242671
242636
242600
242562
242520
242477
242432
242386
242339
242293
242241
242647
242633
242598
242568
242532
242497
242461
242422
242381
242340
242297
242254
242213
242167
242547
242529
242493
242464
242428
242394
242358
242320
242282
242244
242205
242167
242130
242089
242449
242427
242390
242360
242324
242290
242255
242220
242185
242150
242115
242081
242048
242013
242350
242323
242287
242255
242220
242186
242153
242119
242086
242054
242023
241993
241965
241936
242254
242224
242187
242153
242118
242085
242052
242020
241989
241960
241933
241907
241883
241860
242159
242124
242087
242052
242017
241983
241951
241920
241892
241865
241841
241819
241800
241782
242068
242028
241992
241954
241919
241884
241852
241823
241796
241772
241751
241733
241717
241707
241976
241933
241895
241857
241820
241786
241754
241726
241701
241679
241661
241645
241633
241629
241888
241843
241804
241763
241725
241690
241658
241630
241606
241586
241570
241557
241548
241552
241800
241753
241711
241668
241629
241593
241561
241534
241511
241492
241478
241468
241461
241472
241718
241669
241625
241579
241537
241500
241466
241438
241416
241398
241386
241378
241375
241394
241628
241578
241532
241485
241441
241403
241369
241342
241320
241304
241294
241287
241285
241308
242758
242749
242726
242704
242680
242652
242621
242586
242549
242509
242467
242421
242376
242318
242656
242652
242628
242606
242580
242551
242520
242485
242447
242408
242366
242321
242276
242222
242558
242553
242526
242504
242476
242447
242416
242382
242346
242308
242269
242226
242184
242135
242460
242450
242422
242398
242370
242341
242309
242276
242241
242205
242167
242128
242088
242044
242362
242347
242318
242293
242263
242234
242203
242171
242137
242103
242068
242032
241996
241956
242262
242242
242212
242186
242156
242126
242095
242064
242032
242000
241968
241936
241903
241868
242163
242138
242108
242079
242049
242019
241989
241959
241929
241900
241871
241843
241814
241785
242063
242033
242003
241972
241942
241912
241883
241854
241827
241800
241774
241749
241724
241701
241964
241930
241899
241867
241836
241806
241778
241751
241726
241702
241680
241659
241639
241622
241862
241825
241794
241761
241731
241701
241675
241649
241627
241606
241587
241570
241554
241544
241765
241725
241693
241658
241628
241599
241573
241550
241530
241512
241497
241484
241472
241470
241663
241622
241589
241554
241524
241496
241472
241451
241434
241419
241408
241398
241390
241395
241566
241525
241490
241455
241423
241396
241373
241354
241339
241328
241320
241314
241311
241322
241459
241420
241382
241349
241319
241294
241273
241257
241246
241237
241233
241229
241229
241247
242521
242518
242506
242494
242478
242460
242440
242416
242389
242359
242326
242289
242251
242206
242425
242428
242413
242400
242383
242363
242341
242316
242287
242256
242222
242183
242144
242095
242334
242336
242318
242303
242284
242263
242240
242214
242186
242155
242121
242084
242045
241998
242241
242238
242219
242203
242182
242160
242136
242110
242081
242049
242016
241979
241941
241896
242149
242140
242119
242100
242078
242055
242031
242004
241976
241945
241912
241877
241840
241798
242052
242038
242016
241996
241973
241949
241924
241898
241869
241840
241808
241775
241739
241701
241955
241935
241913
241890
241866
241842
241817
241791
241764
241736
241707
241676
241643
241609
241854
241830
241807
241782
241759
241734
241710
241685
241659
241633
241606
241579
241548
241518
241752
241724
241701
241675
241651
241627
241604
241580
241557
241533
241509
241486
241458
241434
241647
241615
241592
241566
241543
241520
241498
241477
241456
241436
241415
241395
241371
241353
241543
241509
241485
241459
241437
241415
241395
241376
241358
241341
241325
241309
241290
241279
241433
241398
241375
241350
241329
241310
241293
241277
241263
241250
241238
241226
241213
241208
241326
241293
241269
241245
241224
241207
241192
241180
241171
241162
241154
241147
241141
241143
241208
241180
241155
241135
241117
241103
241093
241085
241081
241077
241075
241072
241070
241075
242171
242167
242157
242150
242139
242127
242115
242100
242084
242065
242043
242020
241993
241969
242078
242081
242069
242060
242048
242035
242020
242004
241985
241964
241940
241914
241885
241850
241992
241993
241978
241968
241954
241940
241924
241907
241887
241865
241841
241813
241783
241746
241904
241901
241885
241874
241858
241843
241826
241807
241787
241763
241738
241708
241677
241639
241816
241808
241791
241777
241761
241744
241727
241707
241685
241662
241635
241606
241575
241537
241724
241711
241693
241678
241661
241644
241626
241606
241584
241560
241533
241504
241472
241435
241630
241613
241594
241577
241560
241542
241524
241504
241483
241459
241433
241405
241373
241338
241532
241510
241492
241474
241457
241440
241422
241403
241382
241359
241334
241308
241276
241244
241432
241406
241388
241370
241353
241337
241320
241302
241282
241262
241238
241215
241184
241157
241329
241299
241282
241264
241249
241233
241218
241202
241184
241166
241145
241124
241096
241073
241224
241194
241177
241159
241145
241131
241118
241104
241090
241074
241056
241039
241015
240997
241114
241084
241070
241053
241041
241029
241019
241008
240997
240985
240972
240958
240938
240924
241008
240979
240964
240950
240938
240930
240922
240915
240909
240901
240893
240883
240869
240861
240890
240868
240853
240844
240836
240831
240828
240826
240824
240821
240819
240813
240804
240797
241751
241743
241729
241723
241714
241707
241701
241694
241687
241680
241671
241662
241651
241645
241659
241658
241643
241635
241625
241617
241609
241601
241592
241582
241571
241557
241544
241527
241574
241571
241555
241546
241535
241526
241517
241507
241496
241485
241473
241458
241442
241422
241487
241482
241466
241456
241444
241435
241424
241413
241402
241389
241375
241357
241339
241315
241402
241393
241376
241364
241353
241342
241331
241319
241307
241293
241277
241259
241240
241213
241313
241301
241284
241272
241260
241249
241238
241226
241213
241198
241181
241162
241140
241113
241224
241208
241192
241179
241167
241156
241144
241132
241119
241104
241086
241067
241043
241017
241131
241112
241097
241084
241073
241062
241051
241039
241026
241011
240993
240973
240948
240923
241037
241015
241001
240988
240978
240968
240958
240947
240934
240920
240902
240883
240858
240835
240940
240916
240904
240892
240883
240874
240865
240855
240844
240830
240813
240796
240770
240749
240843
240817
240806
240796
240788
240781
240774
240766
240757
240745
240729
240714
240689
240671
240743
240716
240708
240700
240695
240690
240685
240679
240672
240662
240649
240635
240613
240597
240647
240620
240612
240606
240603
240601
240599
240596
240591
240584
240575
240564
240546
240534
240542
240522
240516
240513
240514
240515
240516
240516
240515
240511
240505
240495
240482
240470
241283
241271
241257
241252
241247
241246
241246
241248
241250
241254
241258
241263
241269
241280
241192
241189
241174
241167
241161
241159
241159
241160
241161
241163
241165
241165
241170
241165
241111
241106
241091
241083
241077
241074
241072
241072
241071
241071
241071
241070
241073
241066
241028
241022
241007
240999
240993
240989
240987
240985
240984
240982
240980
240977
240976
240965
240947
240939
240924
240916
240909
240905
240902
240900
240897
240894
240891
240886
240883
240872
240865
240854
240841
240833
240827
240822
240819
240816
240812
240808
240803
240798
240791
240779
240783
240770
240758
240750
240744
240740
240737
240733
240729
240724
240718
240711
240702
240691
240700
240686
240676
240668
240663
240659
240656
240652
240647
240642
240634
240627
240615
240603
240616
240601
240593
240587
240582
240579
240576
240572
240567
240562
240554
240546
240532
240520
240531
240518
240511
240506
240503
240500
240498
240494
240490
240484
240475
240467
240450
240438
240449
240435
240430
240427
240425
240424
240422
240419
240415
240409
240400
240392
240374
240362
240367
240353
240351
240350
240350
240349
240349
240347
240343
240337
240329
240319
240301
240289
240289
240274
240274
240275
240277
240278
240279
240279
240276
240271
240263
240254
240237
240227
240210
240196
240200
240203
240207
240210
240213
240214
240212
240207
240200
240189
240175
240162
240764
240759
240751
240750
240753
240758
240767
240777
240790
240804
240820
240836
240857
240878
240682
240685
240678
240677
240679
240683
240691
240701
240713
240726
240741
240754
240772
240781
240612
240614
240608
240607
240607
240610
240617
240626
240636
240647
240660
240671
240689
240694
240540
240541
240536
240535
240535
240539
240544
240553
240562
240572
240583
240593
240607
240608
240471
240470
240466
240465
240465
240468
240474
240481
240490
240498
240508
240517
240528
240529
240403
240401
240397
240397
240398
240401
240406
240413
240420
240427
240435
240443
240451
240453
240336
240332
240330
240330
240332
240336
240341
240346
240352
240358
240365
240371
240376
240379
240270
240266
240265
240266
240269
240273
240277
240282
240287
240292
240296
240301
240303
240306
240204
240201
240202
240204
240207
240211
240216
240220
240224
240228
240230
240233
240232
240236
240141
240139
240141
240144
240148
240152
240156
240160
240164
240166
240166
240167
240164
240167
240080
240078
240082
240086
240091
240096
240100
240103
240106
240107
240106
240105
240100
240103
240024
240021
240027
240032
240038
240042
240047
240049
240050
240050
240047
240044
240037
240039
239969
239967
239974
239980
239987
239993
239997
239999
240000
239998
239995
239990
239982
239982
239918
239915
239925
239932
239941
239946
239950
239952
239951
239947
239943
239935
239926
239919
240190
240199
240205
240215
240228
240243
240260
240280
240301
240325
240349
240375
240405
240434
240134
240144
240151
240162
240175
240191
240208
240227
240248
240271
240295
240319
240345
240364
240085
240094
240101
240113
240125
240139
240156
240174
240194
240215
240237
240260
240285
240303
240033
240043
240051
240064
240076
240091
240107
240124
240142
240162
240183
240204
240227
240244
239984
239995
240004
240016
240028
240042
240058
240075
240092
240111
240131
240151
240172
240190
239937
239949
239959
239972
239983
239997
240011
240027
240044
240062
240080
240099
240118
240136
239892
239904
239915
239927
239939
239952
239966
239981
239997
240013
240031
240048
240065
240083
239849
239860
239872
239885
239897
239910
239924
239937
239952
239967
239982
239998
240013
240030
239807
239818
239832
239844
239857
239870
239883
239895
239909
239922
239935
239949
239963
239979
239768
239780
239795
239808
239821
239833
239845
239856
239868
239879
239890
239902
239913
239928
239732
239745
239761
239773
239786
239797
239808
239818
239829
239838
239847
239857
239865
239879
239702
239714
239730
239742
239755
239765
239775
239784
239792
239799
239806
239813
239818
239829
239670
239685
239701
239714
239726
239736
239744
239751
239758
239763
239768
239772
239776
239786
239649
239661
239677
239690
239701
239709
239716
239721
239725
239728
239730
239730
239732
239735
239555
239582
239609
239634
239660
239687
239714
239742
239773
239803
239834
239866
239898
239936
239532
239562
239588
239616
239641
239668
239696
239725
239755
239785
239817
239849
239881
239912
239513
239544
239570
239597
239622
239648
239675
239703
239732
239763
239794
239826
239858
239888
239492
239523
239550
239577
239603
239629
239656
239683
239710
239740
239770
239801
239833
239863
239474
239504
239531
239557
239583
239609
239635
239662
239689
239717
239746
239776
239807
239837
239454
239485
239512
239539
239565
239591
239616
239642
239668
239695
239723
239752
239782
239811
239437
239467
239495
239521
239547
239572
239597
239622
239647
239673
239700
239727
239755
239785
239421
239451
239479
239505
239531
239555
239579
239603
239627
239651
239677
239703
239729
239758
239407
239436
239464
239490
239515
239538
239561
239584
239606
239629
239653
239678
239703
239731
239395
239424
239452
239477
239501
239523
239545
239566
239587
239608
239630
239653
239676
239702
239384
239413
239440
239465
239487
239509
239529
239548
239568
239587
239607
239628
239649
239673
239375
239403
239430
239454
239476
239496
239515
239532
239550
239567
239585
239603
239621
239644
239368
239396
239422
239445
239466
239485
239501
239517
239532
239547
239562
239578
239594
239615
239373
239398
239422
239442
239460
239475
239489
239502
239514
239526
239538
239551
239566
239581
238870
238917
238962
239003
239042
239079
239117
239153
239191
239228
239267
239305
239343
239384
238883
238929
238974
239017
239058
239098
239137
239175
239213
239251
239290
239328
239367
239407
238900
238946
238993
239036
239077
239116
239155
239192
239230
239267
239305
239343
239381
239422
238914
238961
239007
239050
239092
239131
239170
239208
239246
239283
239321
239359
239396
239436
238930
238976
239023
239066
239107
239146
239184
239221
239258
239295
239332
239369
239406
239445
238942
238990
239035
239078
239119
239158
239196
239233
239270
239306
239343
239379
239416
239454
238956
239004
239049
239091
239131
239169
239207
239243
239278
239314
239349
239385
239421
239458
238969
239017
239061
239103
239142
239180
239216
239251
239286
239321
239356
239390
239426
239462
238983
239030
239073
239114
239152
239189
239224
239258
239292
239325
239359
239392
239427
239462
238998
239044
239086
239125
239162
239198
239231
239264
239297
239329
239361
239393
239426
239460
239014
239058
239098
239137
239172
239206
239238
239269
239300
239330
239360
239391
239422
239455
239030
239072
239111
239147
239181
239213
239243
239273
239301
239330
239358
239388
239417
239449
239047
239087
239124
239159
239190
239220
239247
239274
239301
239327
239354
239381
239408
239439
239069
239108
239140
239172
239199
239226
239250
239274
239298
239322
239347
239373
239399
239430
238170
238225
238281
238331
238381
238428
238474
238517
238560
238601
238643
238683
238723
238771
238217
238268
238327
238380
238433
238482
238530
238576
238621
238664
238706
238748
238789
238838
238270
238323
238383
238436
238488
238538
238585
238630
238674
238717
238759
238801
238841
238889
238316
238370
238431
238484
238537
238587
238636
238682
238727
238771
238813
238856
238896
238943
238363
238419
238479
238533
238587
238636
238685
238730
238775
238818
238860
238902
238943
238987
238408
238466
238524
238578
238631
238681
238730
238776
238820
238863
238906
238948
238989
239031
238451
238511
238568
238622
238675
238724
238772
238817
238861
238903
238945
238987
239028
239069
238495
238554
238610
238664
238715
238764
238811
238856
238899
238941
238983
239024
239065
239105
238537
238596
238650
238703
238753
238801
238847
238891
238933
238974
239015
239055
239096
239136
238580
238637
238689
238740
238788
238835
238880
238923
238965
239005
239045
239084
239125
239164
238621
238676
238726
238775
238821
238867
238910
238952
238992
239032
239071
239110
239150
239189
238662
238714
238761
238809
238853
238897
238938
238978
239018
239056
239094
239132
239171
239210
238701
238751
238795
238840
238882
238924
238963
239002
239040
239077
239114
239151
239188
239229
238745
238791
238830
238871
238910
238948
238985
239022
239058
239094
239130
239167
239204
239247
237534
237581
237634
237684
237733
237781
237826
237869
237911
237951
237990
238028
238067
238107
237603
237648
237705
237757
237810
237860
237908
237954
237998
238040
238081
238122
238161
238209
237678
237726
237784
237837
237890
237940
237989
238035
238079
238121
238162
238203
238241
238290
237748
237799
237858
237911
237966
238017
238067
238114
238159
238203
238245
238287
238327
238374
237819
237872
237932
237986
238041
238092
238142
238189
238235
238279
238321
238364
238404
238449
237889
237945
238003
238058
238112
238164
238214
238262
238309
238353
238397
238440
238481
238524
237958
238015
238072
238127
238181
238233
238283
238331
238378
238423
238466
238509
238551
238592
238027
238084
238140
238195
238248
238300
238349
238397
238444
238489
238533
238576
238618
238659
238092
238149
238203
238258
238310
238362
238411
238459
238506
238551
238595
238637
238680
238719
238158
238214
238266
238320
238371
238422
238470
238518
238564
238608
238652
238694
238738
238777
238219
238274
238324
238377
238427
238477
238525
238572
238618
238662
238707
238748
238793
238831
238281
238334
238382
238433
238481
238530
238577
238623
238668
238712
238756
238797
238842
238882
238338
238389
238435
238484
238531
238578
238625
238670
238715
238759
238803
238845
238890
238934
238400
238446
238489
238535
238580
238625
238669
238713
238757
238799
238843
238887
238933
238981
237037
237064
237101
237137
237172
237208
237243
237277
237310
237342
237374
237403
237114
237140
237180
237217
237255
237292
237329
237366
237401
237436
237470
237503
237192
237222
237264
237302
237341
237379
237417
237454
237490
237526
237560
237594
237272
237304
237347
237386
237426
237465
237505
237543
237581
237618
237653
237689
237351
237387
237429
237470
237511
237551
237592
237631
237670
237707
237743
237780
237431
237470
237512
237553
237595
237636
237678
237718
237757
237796
237833
237871
237510
237551
237593
237635
237678
237720
237762
237803
237843
237882
237921
237958
237591
237632
237673
237716
237759
237802
237844
237885
237926
237966
238006
238044
237668
237710
237751
237794
237837
237881
237923
237966
238007
238048
238088
238126
237746
237787
237828
237872
237914
237958
238000
238043
238085
238126
238167
238206
237819
237861
237901
237945
237987
238031
238074
238117
238160
238202
238243
238283
237893
237935
237975
238017
238059
238102
238146
238189
238232
238273
238315
238355
237961
238002
238041
238083
238125
238169
238213
238257
238301
238343
238387
238428
238035
238073
238111
238151
238193
238235
238279
238321
238364
238406
238449
238492
240312
240331
240338
240362
240395
240442
240186
240181
240169
240172
240193
240231
240097
240060
240021
240000
240002
240021
240009
239944
239885
239843
239825
239829
240906
240937
240956
241001
241049
241116
240794
240803
240815
240848
240896
240963
240695
240682
240677
240691
240725
240783
240595
240557
240535
240532
240550
240596
240500
240441
240398
240376
240379
240409
240410
240337
240277
240237
240224
240239
240328
240246
240173
240120
240092
240091
241488
241539
241579
241638
241698
241770
241398
241438
241481
241544
241612
241694
241315
241341
241378
241433
241498
241582
241224
241236
241260
241304
241361
241439
241130
241127
241133
241160
241205
241272
241035
241016
241006
241015
241043
241097
240942
240909
240883
240876
240887
240925
240853
240809
240770
240750
240747
240767
240771
240718
240672
240641
240627
240633
240692
240635
240587
240552
240529
240523
240625
240566
240521
240484
240458
240444
240558
240503
240463
240430
240405
240389
240507
240450
240417
240389
240369
240356
240443
240393
240374
240355
240342
240332
242026
242091
242146
242212
242275
242342
241956
242025
242090
242169
242247
242328
241892
241958
242028
242112
242197
242286
241819
241882
241949
242031
242116
242206
241742
241796
241856
241929
242007
242091
241660
241702
241749
241807
241873
241948
241576
241602
241633
241674
241724
241785
241489
241499
241514
241536
241569
241615
241403
241397
241397
241403
241420
241450
241317
241300
241288
241281
241284
241299
241241
241214
241195
241178
241171
241174
241168
241135
241113
241093
241080
241074
241114
241077
241054
241033
241017
241007
241052
241009
240994
240977
240966
240958
242467
242533
242592
242656
242712
242768
242415
242495
242567
242645
242716
242785
242368
242454
242536
242624
242707
242787
242311
242401
242488
242582
242671
242758
242250
242339
242427
242520
242611
242696
242182
242266
242349
242436
242520
242599
242111
242184
242257
242330
242403
242472
242037
242094
242152
242209
242265
242319
241962
242000
242041
242078
242115
242153
241886
241905
241928
241946
241964
241986
241814
241815
241821
241823
241824
241830
241743
241730
241724
241712
241704
241698
241686
241662
241648
241629
241612
241597
241625
241591
241575
241555
241539
241523
242763
242830
242885
242943
242992
243038
242723
242807
242878
242950
243014
243072
242689
242784
242868
242951
243025
243093
242644
242747
242839
242932
243015
243090
242594
242701
242799
242895
242982
243059
242537
242642
242740
242835
242922
242997
242476
242574
242667
242755
242836
242907
242412
242496
242579
242656
242726
242786
242345
242413
242481
242541
242596
242642
242278
242326
242375
242416
242453
242483
242211
242238
242269
242290
242306
242318
242146
242153
242164
242166
242166
242163
242085
242076
242072
242059
242043
242024
242022
241997
241983
241961
241939
241912
242913
242981
243038
243092
243137
243179
242882
242968
243041
243112
243173
243226
242857
242958
243045
243127
243198
243258
242821
242933
243032
243123
243201
243267
242783
242900
243004
243101
243185
243257
242736
242854
242961
243058
243143
243214
242686
242799
242902
242997
243080
243149
242631
242733
242829
242916
242993
243057
242572
242659
242743
242818
242885
242940
242510
242579
242648
242707
242759
242801
242446
242495
242546
242586
242620
242647
242382
242410
242441
242462
242477
242486
242320
242328
242339
242341
242339
242332
242255
242242
242239
242225
242210
242187
242942
243009
243066
243119
243163
243202
242920
243005
243081
243151
243211
243263
242904
243007
243097
243179
243248
243307
242879
242993
243094
243185
243263
243326
242850
242972
243080
243178
243260
243327
242813
242938
243049
243148
243232
243302
242773
242894
243004
243101
243185
243253
242726
242840
242944
243037
243116
243181
242675
242776
242870
242953
243025
243084
242620
242704
242785
242855
242916
242966
242561
242626
242691
242745
242792
242830
242499
242543