/*--------------------------------*- C++ -*----------------------------------*\
| =========                 |                                                 |
| \\      /  F ield         | OpenFOAM: The Open Source CFD Toolbox           |
|  \\    /   O peration     | Version:  v2106                                 |
|   \\  /    A nd           | Website:  www.openfoam.com                      |
|    \\/     M anipulation  |                                                 |
\*---------------------------------------------------------------------------*/
FoamFile
{
    version     2.0;
    format      ascii;
    arch        "LSB;label=32;scalar=64";
    class       volScalarField;
    location    "0.000214";
    object      T;
}
// * * * * * * * * * * * * * * * * * * * * * * * * * * * * * * * * * * * * * //

dimensions      [0 0 0 1 0 0 0];

internalField   nonuniform List<scalar> 
17924
(
307.702
307.662
307.633
307.603
307.906
307.869
307.837
307.804
307.773
307.744
307.716
307.923
307.891
307.863
307.832
307.802
307.772
307.743
307.942
307.912
307.885
307.856
307.827
307.798
307.769
307.962
307.935
307.908
307.88
307.852
307.823
307.794
307.98
307.955
307.929
307.902
307.875
307.846
307.817
307.998
307.975
307.95
307.924
307.896
307.867
307.838
308.015
307.993
307.968
307.943
307.916
307.887
307.856
308.031
308.01
307.986
307.96
307.933
307.904
307.873
308.045
308.024
308.001
307.975
307.948
307.918
307.887
308.055
308.034
308.012
307.987
307.96
307.93
307.898
308.063
308.042
308.02
307.996
307.969
307.94
307.908
308.068
308.048
308.026
308.002
307.976
307.947
307.917
308.07
308.051
308.03
308.007
307.982
307.954
307.924
308.071
308.05
308.031
308.009
307.985
307.959
307.929
308.106
308.073
308.045
308.016
307.986
307.955
307.925
307.894
307.865
307.836
307.81
307.783
307.761
307.737
308.108
308.079
308.053
308.025
307.997
307.968
307.937
307.906
307.876
307.845
307.817
307.789
307.765
307.741
308.109
308.085
308.06
308.034
308.006
307.978
307.949
307.918
307.888
307.856
307.826
307.797
307.77
307.744
308.113
308.092
308.068
308.043
308.017
307.989
307.96
307.929
307.897
307.865
307.834
307.803
307.775
307.747
308.118
308.098
308.075
308.052
308.026
307.998
307.969
307.938
307.906
307.872
307.84
307.807
307.777
307.748
308.122
308.103
308.082
308.059
308.033
308.005
307.976
307.944
307.911
307.877
307.843
307.81
307.778
307.748
308.125
308.107
308.086
308.063
308.038
308.01
307.98
307.948
307.914
307.879
307.845
307.81
307.778
307.746
308.126
308.109
308.088
308.065
308.04
308.012
307.981
307.949
307.915
307.879
307.844
307.809
307.775
307.743
308.125
308.108
308.087
308.065
308.039
308.011
307.981
307.948
307.913
307.878
307.842
307.806
307.771
307.738
308.121
308.104
308.084
308.061
308.036
308.008
307.977
307.944
307.91
307.874
307.837
307.801
307.765
307.732
308.116
308.098
308.078
308.056
308.03
308.002
307.972
307.939
307.904
307.868
307.831
307.795
307.758
307.725
308.109
308.09
308.071
308.048
308.023
307.995
307.965
307.932
307.898
307.863
307.826
307.789
307.752
307.718
308.101
308.082
308.063
308.04
308.015
307.988
307.957
307.924
307.89
307.855
307.818
307.781
307.744
307.709
308.092
308.071
308.053
308.03
308.006
307.979
307.949
307.917
307.883
307.849
307.814
307.778
307.741
307.701
308.291
308.265
308.241
308.216
308.191
308.164
308.136
308.107
308.078
308.048
308.022
307.995
307.975
307.952
308.277
308.255
308.232
308.209
308.184
308.158
308.131
308.103
308.074
308.045
308.018
307.992
307.971
307.948
308.264
308.245
308.223
308.201
308.177
308.152
308.126
308.098
308.07
308.041
308.015
307.989
307.967
307.944
308.253
308.237
308.215
308.194
308.171
308.146
308.12
308.092
308.065
308.036
308.01
307.984
307.961
307.939
308.243
308.227
308.207
308.187
308.164
308.139
308.113
308.086
308.058
308.03
308.004
307.977
307.955
307.932
308.233
308.217
308.198
308.178
308.155
308.131
308.105
308.078
308.05
308.022
307.995
307.969
307.945
307.922
308.222
308.207
308.188
308.168
308.146
308.121
308.095
308.068
308.04
308.012
307.984
307.958
307.934
307.911
308.209
308.194
308.176
308.156
308.134
308.109
308.083
308.055
308.027
307.999
307.971
307.944
307.919
307.896
308.196
308.181
308.163
308.143
308.12
308.096
308.069
308.041
308.013
307.984
307.955
307.928
307.902
307.879
308.182
308.166
308.148
308.128
308.105
308.08
308.053
308.025
307.996
307.966
307.937
307.91
307.882
307.859
308.168
308.151
308.133
308.112
308.089
308.064
308.036
308.007
307.977
307.947
307.917
307.888
307.86
307.837
308.154
308.136
308.117
308.095
308.072
308.046
308.018
307.988
307.958
307.927
307.896
307.867
307.837
307.814
308.14
308.121
308.102
308.079
308.055
308.028
307.999
307.968
307.937
307.905
307.873
307.843
307.812
307.788
308.124
308.104
308.085
308.061
308.036
308.009
307.98
307.949
307.918
307.886
307.854
307.823
307.793
307.765
308.446
308.426
308.406
308.385
308.363
308.34
308.316
308.291
308.266
308.242
308.218
308.196
308.178
308.157
308.421
308.404
308.385
308.365
308.344
308.321
308.297
308.273
308.249
308.226
308.204
308.183
308.166
308.148
308.397
308.383
308.363
308.344
308.323
308.301
308.279
308.256
308.233
308.211
308.19
308.171
308.155
308.138
308.374
308.361
308.342
308.324
308.303
308.281
308.259
308.237
308.215
308.194
308.174
308.156
308.142
308.126
308.353
308.339
308.321
308.303
308.282
308.262
308.24
308.218
308.197
308.177
308.158
308.14
308.126
308.112
308.331
308.317
308.299
308.282
308.261
308.241
308.22
308.198
308.177
308.157
308.139
308.122
308.108
308.095
308.309
308.295
308.278
308.26
308.24
308.22
308.199
308.178
308.157
308.137
308.119
308.102
308.088
308.075
308.287
308.273
308.256
308.238
308.218
308.198
308.176
308.155
308.134
308.114
308.096
308.079
308.064
308.051
308.267
308.252
308.235
308.216
308.196
308.175
308.154
308.132
308.11
308.09
308.071
308.053
308.038
308.025
308.246
308.23
308.213
308.194
308.173
308.151
308.129
308.106
308.084
308.063
308.043
308.025
308.008
307.996
308.227
308.21
308.192
308.172
308.15
308.127
308.104
308.08
308.056
308.034
308.013
307.994
307.975
307.964
308.207
308.189
308.17
308.149
308.126
308.102
308.078
308.053
308.027
308.004
307.981
307.961
307.941
307.93
308.189
308.17
308.15
308.127
308.103
308.078
308.051
308.024
307.997
307.972
307.947
307.926
307.905
307.893
308.169
308.148
308.128
308.104
308.079
308.052
308.024
307.996
307.968
307.941
307.915
307.892
307.87
307.854
308.55
308.535
308.517
308.499
308.481
308.461
308.44
308.419
308.397
308.376
308.356
308.335
308.317
308.296
308.517
308.505
308.489
308.472
308.453
308.433
308.413
308.392
308.372
308.352
308.333
308.315
308.299
308.282
308.486
308.476
308.458
308.442
308.424
308.405
308.386
308.366
308.348
308.329
308.312
308.296
308.282
308.267
308.456
308.445
308.428
308.413
308.394
308.376
308.358
308.34
308.322
308.305
308.29
308.275
308.264
308.251
308.427
308.415
308.399
308.383
308.365
308.348
308.33
308.313
308.297
308.281
308.267
308.254
308.244
308.233
308.397
308.385
308.369
308.354
308.336
308.319
308.302
308.286
308.27
308.256
308.243
308.231
308.222
308.213
308.369
308.356
308.34
308.325
308.308
308.291
308.275
308.259
308.243
308.23
308.217
308.206
308.198
308.191
308.341
308.327
308.312
308.296
308.279
308.263
308.246
308.23
308.215
308.202
308.19
308.179
308.172
308.165
308.315
308.3
308.285
308.269
308.251
308.234
308.217
308.201
308.186
308.172
308.16
308.15
308.143
308.138
308.289
308.273
308.258
308.24
308.223
308.205
308.188
308.171
308.156
308.141
308.129
308.119
308.111
308.107
308.265
308.248
308.231
308.214
308.195
308.177
308.158
308.14
308.124
308.109
308.095
308.085
308.076
308.075
308.24
308.222
308.205
308.186
308.167
308.147
308.128
308.109
308.091
308.074
308.06
308.049
308.038
308.039
308.218
308.199
308.18
308.16
308.14
308.119
308.097
308.076
308.056
308.038
308.021
308.009
307.998
307.998
308.195
308.174
308.154
308.133
308.111
308.088
308.065
308.043
308.021
308.001
307.983
307.968
307.957
307.952
308.601
308.589
308.575
308.56
308.544
308.528
308.511
308.492
308.474
308.455
308.435
308.416
308.398
308.376
308.563
308.555
308.541
308.527
308.511
308.495
308.478
308.46
308.443
308.425
308.407
308.389
308.373
308.355
308.528
308.52
308.505
308.492
308.476
308.461
308.445
308.428
308.412
308.396
308.379
308.364
308.349
308.333
308.493
308.485
308.47
308.457
308.441
308.426
308.411
308.396
308.381
308.366
308.351
308.337
308.325
308.311
308.46
308.45
308.435
308.422
308.407
308.392
308.378
308.363
308.349
308.336
308.323
308.311
308.3
308.289
308.426
308.415
308.4
308.387
308.372
308.358
308.344
308.331
308.318
308.305
308.294
308.283
308.274
308.266
308.394
308.382
308.367
308.354
308.339
308.325
308.311
308.298
308.286
308.275
308.265
308.256
308.248
308.241
308.362
308.349
308.334
308.32
308.305
308.291
308.278
308.265
308.254
308.244
308.234
308.226
308.22
308.215
308.332
308.318
308.303
308.288
308.273
308.259
308.246
308.233
308.222
308.212
308.204
308.197
308.192
308.189
308.302
308.287
308.272
308.257
308.241
308.227
308.213
308.201
308.189
308.18
308.172
308.165
308.161
308.16
308.274
308.258
308.242
308.226
308.21
308.195
308.181
308.168
308.156
308.147
308.139
308.132
308.128
308.13
308.245
308.228
308.212
308.195
308.179
308.163
308.148
308.134
308.122
308.112
308.104
308.097
308.093
308.098
308.219
308.201
308.184
308.166
308.149
308.132
308.115
308.1
308.087
308.076
308.067
308.061
308.056
308.064
308.192
308.172
308.154
308.135
308.116
308.098
308.081
308.065
308.051
308.039
308.03
308.023
308.018
308.024
308.61
308.601
308.59
308.578
308.566
308.553
308.539
308.523
308.507
308.49
308.472
308.454
308.436
308.414
308.571
308.565
308.553
308.543
308.53
308.517
308.503
308.488
308.472
308.455
308.439
308.421
308.405
308.386
308.534
308.529
308.516
308.505
308.492
308.479
308.466
308.452
308.437
308.422
308.406
308.391
308.376
308.359
308.497
308.491
308.478
308.467
308.454
308.441
308.428
308.415
308.401
308.387
308.373
308.359
308.345
308.33
308.462
308.453
308.44
308.429
308.416
308.404
308.391
308.378
308.365
308.353
308.34
308.328
308.316
308.303
308.425
308.416
308.402
308.391
308.378
308.366
308.354
308.341
308.329
308.318
308.306
308.296
308.285
308.275
308.391
308.379
308.366
308.354
308.341
308.329
308.317
308.305
308.294
308.283
308.273
308.264
308.255
308.247
308.356
308.343
308.33
308.317
308.304
308.292
308.28
308.269
308.259
308.249
308.24
308.232
308.225
308.219
308.323
308.308
308.295
308.281
308.268
308.256
308.244
308.233
308.224
308.215
308.207
308.2
308.195
308.191
308.289
308.274
308.26
308.246
308.232
308.22
308.208
308.198
308.189
308.181
308.174
308.168
308.164
308.163
308.257
308.241
308.226
308.211
308.198
308.185
308.173
308.163
308.154
308.147
308.141
308.136
308.133
308.135
308.225
308.208
308.193
308.177
308.163
308.149
308.138
308.128
308.119
308.113
308.108
308.104
308.101
308.105
308.195
308.177
308.161
308.144
308.129
308.115
308.103
308.093
308.085
308.078
308.074
308.071
308.07
308.077
308.162
308.144
308.127
308.11
308.094
308.08
308.068
308.058
308.05
308.044
308.04
308.038
308.037
308.045
308.574
308.571
308.563
308.555
308.546
308.535
308.524
308.512
308.498
308.484
308.468
308.452
308.435
308.414
308.537
308.536
308.527
308.519
308.509
308.499
308.487
308.475
308.461
308.447
308.431
308.415
308.399
308.379
308.502
308.5
308.49
308.482
308.471
308.461
308.45
308.437
308.424
308.41
308.396
308.381
308.365
308.347
308.466
308.462
308.452
308.443
308.433
308.422
308.411
308.399
308.386
308.373
308.359
308.345
308.33
308.314
308.43
308.424
308.414
308.405
308.394
308.383
308.372
308.36
308.348
308.336
308.323
308.31
308.297
308.282
308.393
308.386
308.375
308.366
308.355
308.344
308.333
308.321
308.31
308.298
308.286
308.275
308.262
308.25
308.357
308.348
308.337
308.327
308.316
308.305
308.294
308.283
308.272
308.261
308.251
308.241
308.23
308.219
308.321
308.31
308.299
308.288
308.277
308.266
308.255
308.245
308.235
308.225
308.215
308.207
308.197
308.189
308.285
308.272
308.261
308.249
308.238
308.227
308.217
308.207
308.198
308.189
308.181
308.174
308.166
308.16
308.248
308.234
308.223
308.211
308.2
308.189
308.179
308.17
308.162
308.154
308.147
308.141
308.135
308.132
308.212
308.198
308.186
308.173
308.162
308.152
308.142
308.134
308.126
308.12
308.114
308.11
308.105
308.104
308.175
308.16
308.148
308.135
308.124
308.114
308.105
308.097
308.091
308.086
308.082
308.078
308.075
308.077
308.14
308.125
308.112
308.099
308.087
308.078
308.069
308.062
308.057
308.053
308.05
308.047
308.046
308.051
308.101
308.086
308.072
308.06
308.049
308.04
308.033
308.027
308.023
308.02
308.018
308.017
308.016
308.023
308.488
308.487
308.483
308.478
308.472
308.466
308.458
308.45
308.44
308.429
308.417
308.404
308.389
308.373
308.453
308.454
308.449
308.444
308.438
308.43
308.422
308.413
308.403
308.391
308.379
308.365
308.35
308.333
308.42
308.42
308.414
308.409
308.401
308.394
308.385
308.376
308.366
308.354
308.342
308.328
308.314
308.297
308.386
308.385
308.378
308.372
308.364
308.356
308.348
308.338
308.327
308.316
308.304
308.29
308.276
308.26
308.352
308.349
308.341
308.335
308.327
308.318
308.309
308.299
308.289
308.278
308.266
308.253
308.24
308.224
308.317
308.312
308.304
308.296
308.288
308.279
308.27
308.261
308.25
308.24
308.228
308.216
308.203
308.189
308.281
308.274
308.266
308.258
308.249
308.24
308.231
308.222
308.212
308.202
308.191
308.18
308.168
308.155
308.245
308.236
308.227
308.218
308.21
308.201
308.192
308.183
308.174
308.164
308.154
308.144
308.133
308.122
308.207
308.197
308.189
308.179
308.171
308.162
308.153
308.145
308.136
308.128
308.119
308.11
308.1
308.091
308.169
308.158
308.149
308.14
308.131
308.123
308.115
308.107
308.099
308.092
308.084
308.077
308.068
308.062
308.131
308.119
308.11
308.1
308.092
308.084
308.077
308.07
308.064
308.057
308.051
308.046
308.039
308.035
308.091
308.078
308.07
308.061
308.053
308.046
308.04
308.034
308.029
308.024
308.02
308.015
308.011
308.009
308.052
308.04
308.031
308.022
308.015
308.008
308.003
307.999
307.995
307.992
307.989
307.987
307.984
307.985
308.009
307.999
307.989
307.982
307.975
307.97
307.967
307.964
307.962
307.961
307.96
307.959
307.958
307.96
308.36
308.359
308.355
308.353
308.349
308.344
308.34
308.335
308.329
308.322
308.314
308.305
308.296
308.287
308.326
308.328
308.323
308.32
308.315
308.311
308.305
308.3
308.293
308.285
308.276
308.266
308.256
308.243
308.295
308.295
308.29
308.286
308.281
308.276
308.27
308.264
308.257
308.249
308.24
308.23
308.219
308.205
308.263
308.262
308.256
308.252
308.246
308.241
308.235
308.228
308.22
308.212
308.202
308.191
308.18
308.166
308.231
308.228
308.222
308.217
308.211
308.205
308.198
308.191
308.183
308.175
308.165
308.154
308.143
308.129
308.197
308.193
308.186
308.18
308.174
308.168
308.161
308.154
308.146
308.137
308.128
308.117
308.105
308.092
308.163
308.157
308.15
308.144
308.137
308.131
308.124
308.117
308.109
308.101
308.091
308.081
308.069
308.056
308.127
308.119
308.112
308.106
308.1
308.093
308.087
308.08
308.072
308.064
308.055
308.045
308.034
308.022
308.091
308.081
308.075
308.068
308.062
308.056
308.05
308.043
308.036
308.028
308.02
308.011
308
307.99
308.053
308.042
308.036
308.029
308.024
308.018
308.012
308.006
308
307.993
307.986
307.978
307.968
307.959
308.015
308.003
307.998
307.991
307.986
307.981
307.976
307.971
307.965
307.96
307.953
307.947
307.938
307.932
307.974
307.963
307.958
307.952
307.948
307.943
307.939
307.936
307.932
307.927
307.922
307.917
307.91
307.905
307.935
307.925
307.919
307.914
307.91
307.907
307.904
307.902
307.899
307.896
307.893
307.89
307.885
307.882
307.893
307.884
307.879
307.875
307.872
307.871
307.87
307.869
307.868
307.867
307.866
307.864
307.861
307.859
308.207
308.204
308.199
308.197
308.194
308.191
308.189
308.186
308.184
308.181
308.178
308.175
308.171
308.168
308.174
308.173
308.168
308.165
308.161
308.158
308.155
308.152
308.149
308.145
308.141
308.136
308.131
308.125
308.143
308.142
308.136
308.132
308.128
308.125
308.122
308.118
308.114
308.11
308.106
308.1
308.094
308.087
308.111
308.109
308.103
308.099
308.095
308.092
308.088
308.084
308.08
308.075
308.07
308.063
308.057
308.048
308.08
308.076
308.07
308.066
308.062
308.058
308.054
308.049
308.045
308.04
308.034
308.027
308.02
308.011
308.047
308.043
308.037
308.032
308.028
308.024
308.02
308.015
308.01
308.005
307.999
307.992
307.984
307.974
308.015
308.009
308.003
307.998
307.994
307.99
307.985
307.981
307.976
307.971
307.964
307.957
307.948
307.939
307.981
307.974
307.968
307.963
307.959
307.955
307.951
307.947
307.942
307.937
307.93
307.923
307.914
307.904
307.946
307.938
307.933
307.928
307.925
307.921
307.917
307.913
307.909
307.903
307.897
307.89
307.881
307.872
307.911
307.902
307.897
307.893
307.89
307.887
307.883
307.88
307.876
307.871
307.864
307.858
307.848
307.841
307.875
307.866
307.862
307.858
307.855
307.853
307.85
307.847
307.844
307.839
307.834
307.828
307.819
307.812
307.839
307.829
307.826
307.823
307.821
307.819
307.817
307.815
307.812
307.809
307.804
307.799
307.791
307.785
307.804
307.794
307.791
307.789
307.787
307.787
307.786
307.785
307.783
307.78
307.777
307.773
307.767
307.762
307.765
307.758
307.755
307.754
307.755
307.755
307.755
307.755
307.755
307.754
307.751
307.748
307.743
307.739
308.036
308.032
308.027
308.025
308.023
308.023
308.023
308.023
308.024
308.026
308.027
308.029
308.031
308.035
308.003
308.002
307.996
307.994
307.992
307.991
307.991
307.991
307.991
307.992
307.993
307.993
307.995
307.993
307.973
307.972
307.966
307.963
307.961
307.96
307.959
307.959
307.959
307.959
307.959
307.958
307.959
307.957
307.943
307.941
307.935
307.932
307.93
307.929
307.928
307.927
307.927
307.926
307.926
307.924
307.924
307.92
307.913
307.91
307.905
307.902
307.9
307.898
307.897
307.896
307.895
307.894
307.893
307.891
307.89
307.886
307.883
307.879
307.875
307.872
307.869
307.868
307.867
307.865
307.864
307.863
307.861
307.859
307.856
307.852
307.853
307.849
307.844
307.841
307.839
307.838
307.836
307.835
307.833
307.832
307.829
307.827
307.824
307.82
307.823
307.818
307.814
307.811
307.809
307.808
307.807
307.805
307.804
307.802
307.799
307.796
307.792
307.787
307.792
307.787
307.784
307.781
307.78
307.779
307.777
307.776
307.774
307.772
307.769
307.766
307.761
307.757
307.761
307.756
307.754
307.752
307.751
307.75
307.749
307.748
307.746
307.744
307.74
307.737
307.731
307.727
307.731
307.726
307.724
307.723
307.722
307.722
307.721
307.72
307.719
307.716
307.713
307.71
307.703
307.699
307.701
307.696
307.695
307.695
307.695
307.694
307.694
307.694
307.692
307.69
307.687
307.683
307.677
307.673
307.672
307.667
307.667
307.667
307.668
307.668
307.669
307.669
307.668
307.666
307.663
307.659
307.653
307.649
307.643
307.638
307.64
307.641
307.642
307.643
307.644
307.645
307.644
307.642
307.64
307.636
307.631
307.626
307.847
307.845
307.842
307.841
307.842
307.844
307.847
307.851
307.856
307.861
307.867
307.873
307.88
307.888
307.816
307.817
307.815
307.815
307.815
307.817
307.82
307.823
307.828
307.833
307.838
307.843
307.849
307.852
307.791
307.792
307.789
307.789
307.789
307.79
307.792
307.796
307.799
307.804
307.808
307.812
307.819
307.821
307.764
307.765
307.763
307.762
307.762
307.764
307.766
307.769
307.772
307.776
307.78
307.784
307.789
307.789
307.739
307.739
307.737
307.737
307.737
307.738
307.74
307.743
307.746
307.749
307.753
307.756
307.76
307.76
307.714
307.713
307.712
307.712
307.712
307.713
307.715
307.718
307.72
307.723
307.726
307.729
307.732
307.732
307.69
307.688
307.687
307.687
307.688
307.689
307.691
307.693
307.696
307.698
307.7
307.702
307.704
307.705
307.665
307.664
307.664
307.664
307.665
307.666
307.668
307.67
307.672
307.673
307.675
307.677
307.677
307.679
307.641
307.64
307.64
307.641
307.642
307.644
307.645
307.647
307.649
307.65
307.651
307.652
307.652
307.653
307.618
307.617
307.618
307.619
307.621
307.622
307.624
307.625
307.626
307.627
307.627
307.628
307.627
307.628
307.596
307.595
307.596
307.598
307.6
307.601
307.603
307.604
307.605
307.605
307.605
307.605
307.603
307.604
307.575
307.574
307.576
307.578
307.58
307.582
307.583
307.584
307.585
307.585
307.584
307.583
307.58
307.581
307.555
307.554
307.557
307.559
307.562
307.564
307.565
307.566
307.566
307.566
307.564
307.563
307.56
307.56
307.536
307.535
307.539
307.541
307.544
307.547
307.548
307.549
307.548
307.547
307.545
307.542
307.539
307.537
307.636
307.64
307.641
307.645
307.65
307.655
307.662
307.669
307.677
307.685
307.694
307.704
307.715
307.725
307.615
307.619
307.622
307.626
307.631
307.636
307.643
307.65
307.657
307.666
307.675
307.683
307.693
307.7
307.598
307.601
307.603
307.608
307.612
307.618
307.624
307.63
307.637
307.645
307.653
307.662
307.671
307.678
307.579
307.582
307.585
307.59
307.594
307.6
307.605
307.612
307.619
307.626
307.633
307.641
307.65
307.656
307.561
307.565
307.568
307.572
307.577
307.582
307.587
307.594
307.6
307.607
307.614
307.622
307.63
307.636
307.543
307.548
307.551
307.556
307.56
307.565
307.571
307.576
307.582
307.589
307.596
307.603
307.61
307.616
307.527
307.531
307.535
307.539
307.544
307.549
307.554
307.559
307.565
307.571
307.578
307.584
307.59
307.597
307.511
307.515
307.52
307.524
307.529
307.533
307.538
307.543
307.549
307.554
307.56
307.566
307.571
307.577
307.495
307.5
307.505
307.509
307.514
307.519
307.523
307.528
307.533
307.538
307.543
307.548
307.553
307.559
307.481
307.486
307.491
307.496
307.501
307.505
307.509
307.513
307.518
307.522
307.526
307.53
307.534
307.54
307.468
307.473
307.479
307.483
307.488
307.492
307.496
307.5
307.503
307.507
307.51
307.514
307.517
307.522
307.457
307.461
307.467
307.472
307.476
307.48
307.484
307.487
307.49
307.493
307.495
307.498
307.499
307.504
307.445
307.451
307.456
307.461
307.466
307.469
307.472
307.475
307.477
307.479
307.481
307.483
307.484
307.488
307.437
307.442
307.448
307.452
307.457
307.46
307.462
307.464
307.465
307.466
307.467
307.467
307.468
307.469
307.403
307.413
307.423
307.432
307.442
307.451
307.461
307.472
307.483
307.494
307.505
307.517
307.529
307.543
307.395
307.406
307.415
307.425
307.435
307.445
307.455
307.465
307.476
307.488
307.499
307.511
307.523
307.534
307.387
307.399
307.408
307.418
307.428
307.437
307.447
307.457
307.468
307.479
307.491
307.502
307.514
307.525
307.38
307.391
307.401
307.411
307.421
307.43
307.44
307.45
307.46
307.471
307.482
307.493
307.505
307.516
307.373
307.384
307.394
307.404
307.413
307.423
307.432
307.442
307.452
307.463
307.473
307.484
307.496
307.507
307.366
307.377
307.387
307.397
307.407
307.416
307.425
307.435
307.445
307.454
307.465
307.475
307.486
307.497
307.36
307.371
307.381
307.391
307.4
307.409
307.418
307.428
307.437
307.446
307.456
307.466
307.477
307.487
307.354
307.365
307.375
307.385
307.394
307.403
307.412
307.42
307.429
307.438
307.448
307.457
307.467
307.477
307.348
307.359
307.37
307.379
307.388
307.397
307.405
307.413
307.422
307.43
307.439
307.448
307.457
307.468
307.344
307.355
307.365
307.374
307.383
307.391
307.399
307.407
307.415
307.422
307.431
307.439
307.448
307.457
307.34
307.351
307.361
307.37
307.378
307.386
307.393
307.4
307.408
307.415
307.422
307.43
307.437
307.446
307.337
307.347
307.357
307.366
307.374
307.381
307.388
307.395
307.401
307.407
307.414
307.421
307.427
307.436
307.334
307.345
307.354
307.363
307.37
307.377
307.383
307.389
307.395
307.4
307.406
307.411
307.417
307.425
307.336
307.345
307.354
307.362
307.368
307.374
307.379
307.383
307.388
307.392
307.397
307.401
307.407
307.413
307.151
307.168
307.185
307.2
307.214
307.228
307.242
307.255
307.269
307.283
307.297
307.311
307.325
307.34
307.156
307.173
307.189
307.205
307.22
307.235
307.249
307.263
307.277
307.291
307.305
307.32
307.334
307.349
307.162
307.179
307.196
307.212
307.227
307.242
307.256
307.27
307.283
307.297
307.311
307.325
307.339
307.354
307.167
307.184
307.202
307.217
307.233
307.247
307.262
307.275
307.289
307.303
307.317
307.331
307.345
307.359
307.173
307.19
307.207
307.223
307.238
307.253
307.267
307.28
307.294
307.307
307.321
307.335
307.348
307.363
307.178
307.195
307.212
307.228
307.243
307.257
307.271
307.285
307.298
307.312
307.325
307.338
307.352
307.366
307.183
307.2
307.217
307.232
307.247
307.261
307.275
307.288
307.301
307.314
307.327
307.34
307.354
307.367
307.188
307.205
307.221
307.237
307.251
307.265
307.278
307.291
307.304
307.317
307.33
307.343
307.355
307.369
307.193
307.21
307.226
307.241
307.255
307.268
307.281
307.294
307.306
307.318
307.331
307.343
307.356
307.369
307.198
307.215
307.23
307.245
307.259
307.272
307.284
307.296
307.308
307.32
307.332
307.343
307.355
307.368
307.204
307.22
307.235
307.249
307.262
307.275
307.286
307.298
307.309
307.32
307.331
307.343
307.354
307.366
307.21
307.225
307.24
307.253
307.265
307.277
307.288
307.299
307.31
307.32
307.331
307.341
307.352
307.364
307.216
307.231
307.244
307.257
307.269
307.28
307.29
307.3
307.31
307.319
307.329
307.339
307.349
307.36
307.224
307.239
307.25
307.262
307.272
307.282
307.291
307.3
307.309
307.317
307.326
307.336
307.346
307.357
306.893
306.914
306.934
306.953
306.971
306.988
307.005
307.021
307.037
307.052
307.067
307.082
307.097
307.115
306.91
306.929
306.951
306.971
306.99
307.008
307.026
307.043
307.059
307.075
307.091
307.106
307.121
307.139
306.93
306.95
306.972
306.991
307.011
307.029
307.046
307.063
307.079
307.095
307.11
307.126
307.141
307.158
306.947
306.967
306.989
307.009
307.029
307.047
307.065
307.082
307.099
307.115
307.13
307.146
307.161
307.178
306.964
306.985
307.007
307.027
307.047
307.065
307.083
307.1
307.116
307.132
307.147
307.163
307.178
307.194
306.981
307.002
307.024
307.044
307.063
307.082
307.099
307.116
307.133
307.149
307.164
307.18
307.195
307.21
306.997
307.019
307.04
307.06
307.079
307.097
307.115
307.132
307.148
307.163
307.179
307.194
307.209
307.224
307.013
307.035
307.055
307.075
307.094
307.112
307.129
307.146
307.162
307.177
307.193
307.208
307.223
307.238
307.029
307.05
307.07
307.09
307.108
307.126
307.142
307.159
307.174
307.189
307.205
307.219
307.234
307.249
307.044
307.065
307.084
307.103
307.121
307.138
307.155
307.171
307.186
307.201
307.216
307.23
307.245
307.259
307.059
307.08
307.098
307.116
307.133
307.15
307.166
307.181
307.196
307.211
307.225
307.239
307.254
307.268
307.074
307.094
307.111
307.129
307.145
307.161
307.176
307.191
307.205
307.22
307.234
307.248
307.262
307.276
307.089
307.107
307.123
307.14
307.155
307.171
307.185
307.199
307.213
307.227
307.241
307.254
307.268
307.283
307.105
307.122
307.136
307.152
307.166
307.18
307.194
307.207
307.22
307.233
307.247
307.26
307.274
307.29
306.658
306.676
306.695
306.714
306.732
306.75
306.766
306.782
306.798
306.812
306.827
306.841
306.855
306.87
306.684
306.7
306.722
306.741
306.76
306.779
306.796
306.813
306.83
306.845
306.86
306.875
306.89
306.907
306.711
306.729
306.751
306.77
306.79
306.808
306.826
306.843
306.859
306.875
306.89
306.905
306.92
306.937
306.738
306.756
306.778
306.798
306.818
306.837
306.855
306.872
306.889
306.905
306.921
306.936
306.951
306.968
306.764
306.783
306.805
306.825
306.845
306.864
306.883
306.9
306.917
306.933
306.949
306.965
306.98
306.996
306.79
306.81
306.832
306.852
306.872
306.891
306.909
306.927
306.944
306.961
306.977
306.993
307.008
307.024
306.815
306.836
306.857
306.877
306.897
306.916
306.935
306.953
306.97
306.986
307.002
307.018
307.034
307.049
306.84
306.861
306.882
306.902
306.922
306.941
306.959
306.977
306.994
307.011
307.027
307.043
307.058
307.073
306.864
306.886
306.905
306.926
306.945
306.964
306.982
307
307.017
307.033
307.05
307.065
307.081
307.096
306.889
306.909
306.929
306.948
306.967
306.986
307.004
307.021
307.038
307.055
307.071
307.086
307.103
307.117
306.911
306.932
306.95
306.969
306.988
307.006
307.024
307.041
307.058
307.075
307.091
307.106
307.123
307.137
306.934
306.954
306.971
306.99
307.008
307.026
307.043
307.06
307.077
307.093
307.109
307.124
307.141
307.156
306.955
306.974
306.991
307.009
307.026
307.044
307.061
307.077
307.094
307.11
307.126
307.142
307.158
307.174
306.978
306.995
307.011
307.028
307.044
307.061
307.077
307.093
307.109
307.125
307.141
307.157
307.174
307.192
306.474
306.485
306.498
306.511
306.525
306.538
306.551
306.563
306.575
306.587
306.599
306.61
306.503
306.513
306.528
306.541
306.555
306.569
306.583
306.596
306.609
306.622
306.635
306.647
306.532
306.543
306.558
306.573
306.587
306.601
306.615
306.629
306.642
306.655
306.668
306.68
306.562
306.573
306.589
306.603
306.619
306.633
306.648
306.662
306.676
306.689
306.702
306.716
306.591
306.604
306.62
306.635
306.65
306.665
306.68
306.694
306.708
306.722
306.736
306.749
306.62
306.635
306.65
306.665
306.681
306.696
306.711
306.726
306.741
306.755
306.769
306.783
306.65
306.665
306.68
306.696
306.711
306.727
306.742
306.758
306.772
306.787
306.801
306.815
306.679
306.694
306.71
306.726
306.741
306.757
306.773
306.788
306.803
306.818
306.833
306.847
306.708
306.723
306.738
306.755
306.77
306.786
306.802
306.818
306.833
306.848
306.863
306.877
306.736
306.752
306.767
306.783
306.799
306.815
306.831
306.846
306.862
306.877
306.892
306.906
306.764
306.779
306.794
306.81
306.826
306.842
306.858
306.874
306.89
306.905
306.92
306.935
306.791
306.806
306.821
306.837
306.852
306.868
306.884
306.9
306.916
306.931
306.947
306.961
306.816
306.831
306.845
306.861
306.877
306.893
306.909
306.925
306.941
306.957
306.973
306.988
306.843
306.857
306.871
306.886
306.902
306.917
306.933
306.949
306.965
306.98
306.996
307.012
307.681
307.688
307.691
307.699
307.711
307.728
307.635
307.633
307.629
307.63
307.637
307.651
307.602
307.589
307.574
307.567
307.567
307.574
307.57
307.546
307.525
307.509
307.502
307.504
307.899
307.91
307.917
307.933
307.951
307.975
307.857
307.861
307.865
307.877
307.895
307.919
307.821
307.817
307.815
307.82
307.832
307.853
307.785
307.771
307.763
307.762
307.768
307.785
307.75
307.728
307.713
307.704
307.706
307.716
307.717
307.69
307.668
307.653
307.649
307.654
307.687
307.657
307.63
307.611
307.6
307.6
308.111
308.13
308.144
308.166
308.188
308.214
308.078
308.093
308.108
308.131
308.156
308.186
308.048
308.058
308.071
308.091
308.115
308.145
308.015
308.019
308.028