/*--------------------------------*- C++ -*----------------------------------*\
| =========                 |                                                 |
| \\      /  F ield         | OpenFOAM: The Open Source CFD Toolbox           |
|  \\    /   O peration     | Version:  v2106                                 |
|   \\  /    A nd           | Website:  www.openfoam.com                      |
|    \\/     M anipulation  |                                                 |
\*---------------------------------------------------------------------------*/
FoamFile
{
    version     2.0;
    format      ascii;
    arch        "LSB;label=32;scalar=64";
    class       volScalarField;
    location    "0.000214";
    object      Ttot;
}
// * * * * * * * * * * * * * * * * * * * * * * * * * * * * * * * * * * * * * //

dimensions      [0 0 0 1 0 0 0];

internalField   nonuniform List<scalar> 
17924
(
308.049
308.008
307.977
307.947
308.267
308.228
308.195
308.161
308.129
308.099
308.071
308.285
308.251
308.221
308.189
308.158
308.127
308.098
308.304
308.273
308.244
308.213
308.183
308.153
308.124
308.324
308.295
308.267
308.238
308.209
308.179
308.149
308.342
308.315
308.289
308.261
308.232
308.203
308.173
308.36
308.335
308.31
308.283
308.255
308.225
308.194
308.377
308.354
308.329
308.303
308.275
308.245
308.214
308.393
308.372
308.347
308.321
308.293
308.262
308.231
308.408
308.387
308.362
308.336
308.308
308.277
308.245
308.418
308.397
308.374
308.348
308.32
308.29
308.257
308.426
308.405
308.382
308.357
308.33
308.3
308.267
308.431
308.411
308.388
308.364
308.337
308.308
308.276
308.434
308.414
308.393
308.369
308.343
308.314
308.283
308.435
308.414
308.395
308.372
308.347
308.32
308.289
308.477
308.444
308.415
308.384
308.353
308.322
308.29
308.259
308.229
308.199
308.172
308.144
308.121
308.097
308.48
308.45
308.422
308.393
308.364
308.333
308.302
308.271
308.24
308.208
308.18
308.151
308.126
308.101
308.481
308.455
308.429
308.401
308.373
308.344
308.314
308.283
308.251
308.219
308.189
308.158
308.131
308.104
308.484
308.461
308.436
308.41
308.383
308.354
308.324
308.293
308.26
308.227
308.195
308.164
308.135
308.107
308.488
308.467
308.443
308.419
308.392
308.364
308.334
308.302
308.269
308.234
308.201
308.168
308.137
308.107
308.491
308.472
308.449
308.426
308.399
308.371
308.34
308.308
308.274
308.239
308.204
308.17
308.138
308.107
308.494
308.476
308.454
308.43
308.404
308.375
308.344
308.311
308.277
308.241
308.206
308.171
308.137
308.105
308.495
308.477
308.455
308.432
308.405
308.377
308.346
308.312
308.277
308.241
308.205
308.169
308.134
308.101
308.493
308.475
308.454
308.431
308.405
308.376
308.345
308.311
308.276
308.239
308.202
308.166
308.13
308.096
308.489
308.471
308.45
308.427
308.401
308.372
308.341
308.307
308.272
308.235
308.198
308.161
308.124
308.089
308.482
308.464
308.444
308.421
308.395
308.366
308.335
308.301
308.265
308.229
308.191
308.154
308.116
308.081
308.474
308.456
308.435
308.412
308.386
308.358
308.327
308.294
308.259
308.223
308.185
308.148
308.109
308.074
308.466
308.447
308.427
308.404
308.378
308.35
308.319
308.286
308.251
308.214
308.177
308.139
308.1
308.064
308.457
308.436
308.417
308.394
308.369
308.341
308.31
308.277
308.243
308.208
308.172
308.135
308.097
308.057
308.671
308.644
308.62
308.594
308.568
308.54
308.511
308.482
308.452
308.421
308.394
308.366
308.345
308.322
308.657
308.633
308.61
308.585
308.56
308.533
308.506
308.476
308.447
308.418
308.39
308.363
308.342
308.318
308.643
308.623
308.6
308.577
308.552
308.526
308.5
308.471
308.442
308.413
308.386
308.359
308.337
308.314
308.631
308.613
308.591
308.569
308.545
308.519
308.493
308.465
308.436
308.407
308.38
308.354
308.331
308.308
308.619
308.603
308.582
308.561
308.537
308.512
308.485
308.457
308.429
308.4
308.373
308.346
308.323
308.299
308.607
308.591
308.571
308.551
308.528
308.503
308.476
308.448
308.419
308.391
308.363
308.336
308.313
308.289
308.595
308.58
308.561
308.54
308.517
308.492
308.465
308.437
308.409
308.38
308.352
308.325
308.3
308.277
308.582
308.566
308.547
308.527
308.504
308.479
308.452
308.424
308.395
308.366
308.338
308.311
308.285
308.261
308.568
308.552
308.533
308.513
308.49
308.465
308.437
308.409
308.38
308.35
308.321
308.294
308.267
308.243
308.552
308.536
308.518
308.497
308.473
308.448
308.42
308.391
308.362
308.332
308.302
308.274
308.246
308.222
308.537
308.52
308.501
308.48
308.456
308.43
308.402
308.373
308.342
308.311
308.28
308.251
308.222
308.198
308.521
308.503
308.484
308.462
308.437
308.411
308.382
308.353
308.321
308.29
308.258
308.228
308.198
308.173
308.507
308.487
308.468
308.444
308.419
308.392
308.363
308.332
308.299
308.267
308.234
308.203
308.171
308.147
308.491
308.47
308.45
308.426
308.4
308.372
308.342
308.311
308.279
308.247
308.214
308.183
308.152
308.123
308.832
308.811
308.791
308.769
308.747
308.723
308.699
308.673
308.648
308.623
308.599
308.576
308.558
308.535
308.806
308.788
308.768
308.747
308.726
308.702
308.679
308.654
308.63
308.606
308.584
308.563
308.546
308.526
308.781
308.765
308.745
308.725
308.704
308.682
308.659
308.635
308.612
308.59
308.569
308.549
308.534
308.516
308.756
308.742
308.722
308.703
308.682
308.66
308.638
308.615
308.593
308.572
308.552
308.534
308.519
308.503
308.733
308.719
308.7
308.681
308.661
308.639
308.617
308.595
308.574
308.553
308.534
308.516
308.502
308.487
308.709
308.695
308.677
308.659
308.638
308.617
308.596
308.574
308.553
308.532
308.514
308.497
308.483
308.469
308.686
308.672
308.654
308.636
308.616
308.595
308.573
308.552
308.531
308.511
308.492
308.475
308.461
308.448
308.663
308.648
308.631
308.613
308.592
308.571
308.55
308.528
308.507
308.486
308.468
308.451
308.436
308.423
308.641
308.626
308.608
308.59
308.569
308.548
308.525
308.503
308.481
308.46
308.441
308.424
308.408
308.395
308.619
308.602
308.585
308.565
308.544
308.522
308.499
308.476
308.453
308.432
308.412
308.394
308.376
308.364
308.598
308.581
308.562
308.542
308.52
308.497
308.473
308.448
308.424
308.401
308.38
308.361
308.342
308.331
308.577
308.558
308.539
308.517
308.494
308.47
308.445
308.419
308.394
308.37
308.347
308.327
308.306
308.294
308.558
308.538
308.518
308.495
308.47
308.444
308.417
308.39
308.362
308.336
308.311
308.289
308.267
308.255
308.537
308.516
308.495
308.47
308.444
308.417
308.388
308.36
308.331
308.304
308.277
308.254
308.231
308.214
308.937
308.922
308.904
308.886
308.867
308.847
308.826
308.804
308.782
308.761
308.74
308.719
308.701
308.678
308.904
308.891
308.874
308.856
308.837
308.818
308.797
308.776
308.756
308.736
308.717
308.698
308.683
308.664
308.871
308.86
308.842
308.825
308.807
308.788
308.768
308.749
308.73
308.712
308.694
308.678
308.664
308.648
308.839
308.828
308.811
308.794
308.776
308.758
308.739
308.721
308.703
308.686
308.671
308.656
308.645
308.631
308.808
308.796
308.779
308.764
308.745
308.728
308.71
308.693
308.676
308.661
308.646
308.633
308.623
308.612
308.777
308.764
308.748
308.733
308.715
308.698
308.681
308.664
308.648
308.634
308.62
308.609
308.6
308.591
308.747
308.734
308.718
308.703
308.685
308.668
308.651
308.635
308.62
308.606
308.594
308.583
308.575
308.567
308.717
308.704
308.688
308.672
308.655
308.638
308.621
308.605
308.59
308.576
308.564
308.554
308.547
308.54
308.69
308.675
308.659
308.643
308.625
308.608
308.591
308.574
308.559
308.546
308.534
308.524
308.516
308.511
308.662
308.646
308.63
308.613
308.595
308.578
308.56
308.543
308.527
308.513
308.501
308.491
308.483
308.479
308.636
308.619
308.603
308.585
308.566
308.548
308.529
308.51
308.493
308.478
308.465
308.455
308.446
308.445
308.61
308.592
308.574
308.555
308.536
308.516
308.496
308.477
308.459
308.442
308.427
308.417
308.406
308.406
308.587
308.567
308.548
308.528
308.507
308.486
308.464
308.443
308.422
308.404
308.387
308.375
308.364
308.364
308.563
308.542
308.521
308.499
308.477
308.454
308.43
308.407
308.385
308.365
308.346
308.332
308.32
308.315
308.987
308.975
308.96
308.945
308.93
308.913
308.895
308.877
308.858
308.838
308.819
308.798
308.78
308.757
308.949
308.94
308.925
308.91
308.894
308.878
308.861
308.843
308.826
308.808
308.789
308.771
308.755
308.736
308.912
308.903
308.888
308.873
308.858
308.842
308.826
308.81
308.793
308.777
308.761
308.745
308.73
308.714
308.875
308.866
308.85
308.837
308.821
308.806
308.791
308.776
308.76
308.745
308.731
308.717
308.705
308.69
308.839
308.829
308.814
308.8
308.785
308.771
308.756
308.742
308.727
308.714
308.701
308.689
308.678
308.666
308.803
308.792
308.777
308.764
308.749
308.735
308.721
308.707
308.694
308.682
308.67
308.66
308.651
308.641
308.769
308.757
308.742
308.729
308.714
308.7
308.686
308.673
308.661
308.65
308.64
308.631
308.623
308.616
308.736
308.723
308.708
308.694
308.679
308.665
308.651
308.639
308.627
308.617
308.608
308.6
308.594
308.589
308.705
308.69
308.675
308.66
308.645
308.631
308.617
308.605
308.593
308.584
308.576
308.569
308.564
308.561
308.673
308.657
308.642
308.627
308.611
308.597
308.583
308.57
308.559
308.549
308.542
308.536
308.531
308.531
308.643
308.626
308.611
308.595
308.579
308.563
308.549
308.536
308.524
308.515
308.507
308.501
308.497
308.499
308.612
308.595
308.579
308.562
308.545
308.529
308.514
308.5
308.488
308.478
308.47
308.465
308.46
308.465
308.585
308.566
308.549
308.531
308.514
308.496
308.479
308.465
308.451
308.441
308.432
308.426
308.422
308.429
308.557
308.537
308.518
308.499
308.48
308.461
308.444
308.428
308.414
308.402
308.393
308.386
308.382
308.387
308.992
308.983
308.971
308.96
308.947
308.934
308.92
308.904
308.887
308.87
308.852
308.833
308.814
308.791
308.952
308.946
308.933
308.922
308.909
308.896
308.882
308.867
308.851
308.834
308.817
308.8
308.783
308.763
308.913
308.907
308.894
308.883
308.87
308.857
308.843
308.829
308.814
308.799
308.783
308.767
308.752
308.734
308.875
308.868
308.854
308.843
308.83
308.817
308.804
308.79
308.776
308.762
308.748
308.734
308.72
308.705
308.837
308.828
308.815
308.803
308.79
308.778
308.765
308.752
308.739
308.726
308.713
308.701
308.689
308.675
308.799
308.789
308.775
308.764
308.751
308.738
308.726
308.714
308.701
308.69
308.678
308.667
308.657
308.645
308.762
308.751
308.737
308.725
308.712
308.7
308.687
308.676
308.664
308.654
308.644
308.634
308.625
308.617
308.726
308.713
308.699
308.686
308.674
308.661
308.649
308.638
308.627
308.617
308.609
308.601
308.593
308.587
308.691
308.677
308.663
308.649
308.636
308.623
308.611
308.6
308.591
308.582
308.574
308.568
308.562
308.558
308.656
308.64
308.626
308.612
308.598
308.586
308.574
308.563
308.554
308.546
308.54
308.534
308.53
308.529
308.622
308.606
308.591
308.576
308.562
308.549
308.537
308.527
308.518
308.51
308.505
308.501
308.498
308.499
308.588
308.57
308.555
308.539
308.525
308.512
308.5
308.49
308.481
308.475
308.47
308.466
308.464
308.468
308.556
308.538
308.522
308.505
308.49
308.476
308.464
308.453
308.445
308.439
308.435
308.432
308.431
308.438
308.523
308.504
308.487
308.469
308.453
308.439
308.426
308.416
308.408
308.402
308.399
308.397
308.396
308.405
308.95
308.947
308.938
308.93
308.921
308.911
308.9
308.887
308.873
308.858
308.842
308.824
308.807
308.785
308.912
308.91
308.901
308.893
308.883
308.872
308.861
308.848
308.834
308.819
308.804
308.787
308.77
308.75
308.875
308.873
308.862
308.854
308.843
308.833
308.821
308.809
308.796
308.782
308.767
308.751
308.735
308.717
308.837
308.833
308.823
308.814
308.803
308.792
308.781
308.768
308.756
308.742
308.728
308.713
308.699
308.681
308.799
308.794
308.783
308.773
308.763
308.752
308.74
308.728
308.716
308.703
308.69
308.677
308.663
308.648
308.761
308.753
308.742
308.733
308.722
308.711
308.699
308.688
308.676
308.664
308.652
308.64
308.628
308.614
308.723
308.714
308.703
308.692
308.681
308.67
308.659
308.648
308.636
308.626
308.615
308.604
308.593
308.582
308.685
308.674
308.663
308.651
308.64
308.629
308.618
308.608
308.597
308.587
308.578
308.569
308.559
308.551
308.647
308.635
308.623
308.611
308.6
308.589
308.578
308.568
308.559
308.55
308.542
308.535
308.527
308.521
308.608
308.595
308.583
308.571
308.56
308.549
308.539
308.529
308.521
308.513
308.507
308.501
308.494
308.491
308.571
308.556
308.544
308.531
308.52
308.509
308.5
308.491
308.484
308.477
308.472
308.468
308.463
308.462
308.531
308.516
308.504
308.491
308.48
308.47
308.461
308.453
308.447
308.442
308.438
308.435
308.432
308.434
308.494
308.479
308.466
308.453
308.442
308.432
308.423
308.416
308.411
308.407
308.405
308.403
308.401
308.406
308.454
308.439
308.425
308.413
308.402
308.393
308.385
308.379
308.375
308.372
308.371
308.37
308.37
308.377
308.855
308.854
308.849
308.845
308.839
308.832
308.825
308.816
308.806
308.795
308.782
308.768
308.753
308.736
308.819
308.82
308.814
308.809
308.802
308.795
308.787
308.778
308.767
308.755
308.743
308.728
308.714
308.695
308.784
308.784
308.778
308.772
308.765
308.757
308.749
308.739
308.728
308.717
308.704
308.69
308.676
308.658
308.748
308.747
308.74
308.734
308.726
308.718
308.709
308.699
308.688
308.677
308.664
308.65
308.636
308.619
308.713
308.709
308.701
308.695
308.687
308.678
308.669
308.659
308.648
308.637
308.625
308.611
308.597
308.581
308.676
308.67
308.662
308.655
308.646
308.638
308.628
308.618
308.608
308.597
308.585
308.572
308.559
308.544
308.638
308.631
308.623
308.614
308.606
308.597
308.587
308.578
308.568
308.557
308.546
308.535
308.522
308.509
308.6
308.591
308.582
308.573
308.565
308.556
308.547
308.537
308.528
308.518
308.508
308.497
308.486
308.474
308.561
308.551
308.542
308.532
308.524
308.515
308.506
308.497
308.488
308.48
308.471
308.462
308.452
308.442
308.521
308.509
308.5
308.491
308.482
308.474
308.466
308.458
308.45
308.442
308.435
308.428
308.418
308.412
308.481
308.468
308.46
308.45
308.442
308.434
308.426
308.419
308.412
308.406
308.4
308.395
308.388
308.383
308.438
308.426
308.417
308.408
308.4
308.393
308.387
308.381
308.376
308.371
308.367
308.363
308.358
308.356
308.397
308.385
308.376
308.368
308.36
308.354
308.349
308.344
308.341
308.337
308.335
308.333
308.33
308.331
308.352
308.342
308.333
308.326
308.319
308.314
308.31
308.308
308.306
308.305
308.305
308.304
308.303
308.305
308.715
308.714
308.71
308.707
308.703
308.699
308.695
308.689
308.683
308.676
308.668
308.659
308.648
308.639
308.681
308.681
308.676
308.673
308.668
308.664
308.659
308.652
308.645
308.638
308.629
308.619
308.608
308.595
308.648
308.648
308.642
308.638
308.633
308.628
308.622
308.615
308.608
308.6
308.591
308.58
308.569
308.555
308.614
308.612
308.606
308.602
308.596
308.591
308.584
308.577
308.569
308.561
308.551
308.54
308.528
308.513
308.58
308.577
308.57
308.565
308.559
308.553
308.546
308.539
308.531
308.522
308.512
308.501
308.489
308.474
308.544
308.54
308.533
308.527
308.521
308.515
308.508
308.5
308.492
308.483
308.473
308.462
308.45
308.435
308.508
308.502
308.495
308.489
308.482
308.476
308.469
308.461
308.453
308.444
308.435
308.424
308.412
308.398
308.471
308.463
308.456
308.449
308.443
308.437
308.43
308.423
308.415
308.406
308.397
308.387
308.375
308.363
308.433
308.423
308.416
308.409
308.403
308.397
308.391
308.384
308.377
308.369
308.36
308.351
308.34
308.329
308.393
308.382
308.376
308.369
308.363
308.358
308.352
308.346
308.339
308.332
308.324
308.317
308.306
308.297
308.353
308.342
308.336
308.329
308.324
308.318
308.313
308.308
308.303
308.297
308.291
308.285
308.275
308.268
308.311
308.3
308.294
308.288
308.284
308.279
308.275
308.272
308.267
308.263
308.258
308.254
308.246
308.24
308.27
308.259
308.254
308.249
308.245
308.241
308.239
308.236
308.234
308.231
308.228
308.225
308.219
308.216
308.225
308.217
308.211
308.208
308.205
308.204
308.203
308.202
308.201
308.2
308.2
308.198
308.194
308.192
308.549
308.546
308.541
308.538
308.535
308.532
308.53
308.527
308.525
308.522
308.519
308.516
308.511
308.509
308.515
308.513
308.507
308.504
308.501
308.498
308.495
308.492
308.488
308.485
308.481
308.476
308.471
308.465
308.482
308.48
308.473
308.47
308.466
308.463
308.46
308.456
308.452
308.448
308.443
308.437
308.431
308.424
308.448
308.446
308.439
308.436
308.431
308.428
308.424
308.42
308.416
308.411
308.405
308.399
308.392
308.383
308.415
308.411
308.405
308.401
308.397
308.393
308.389
308.384
308.379
308.374
308.368
308.361
308.354
308.343
308.381
308.376
308.37
308.365
308.361
308.357
308.353
308.348
308.343
308.338
308.331
308.324
308.316
308.305
308.347
308.341
308.335
308.33
308.325
308.321
308.317
308.312
308.307
308.301
308.295
308.288
308.279
308.268
308.311
308.304
308.298
308.293
308.289
308.285
308.281
308.277
308.271
308.266
308.259
308.252
308.242
308.232
308.275
308.267
308.261
308.257
308.253
308.249
308.245
308.241
308.236
308.231
308.224
308.217
308.207
308.199
308.238
308.229
308.224
308.22
308.216
308.213
308.21
308.206
308.202
308.197
308.19
308.184
308.174
308.166
308.201
308.191
308.187
308.183
308.18
308.178
308.175
308.172
308.168
308.164
308.158
308.153
308.143
308.136
308.162
308.153
308.149
308.146
308.144
308.143
308.141
308.139
308.136
308.132
308.127
308.122
308.114
308.107
308.125
308.115
308.112
308.11
308.109
308.109
308.108
308.107
308.105
308.102
308.099
308.095
308.088
308.083
308.085
308.078
308.075
308.075
308.075
308.076
308.076
308.076
308.076
308.074
308.072
308.068
308.063
308.059
308.364
308.359
308.353
308.351
308.35
308.349
308.35
308.35
308.351
308.353
308.355
308.357
308.359
308.363
308.329
308.327
308.321
308.319
308.317
308.316
308.316
308.316
308.317
308.318
308.319
308.319
308.321
308.32
308.298
308.295
308.289
308.286
308.284
308.283
308.283
308.283
308.282
308.283
308.283
308.282
308.283
308.281
308.266
308.263
308.257
308.254
308.252
308.251
308.25
308.249
308.249
308.248
308.248
308.247
308.246
308.242
308.235
308.231
308.226
308.223
308.22
308.219
308.218
308.217
308.216
308.214
308.213
308.212
308.21
308.206
308.203
308.199
308.194
308.191
308.188
308.187
308.186
308.184
308.183
308.182
308.18
308.178
308.175
308.171
308.172
308.167
308.162
308.159
308.157
308.155
308.154
308.152
308.151
308.149
308.147
308.145
308.141
308.137
308.139
308.134
308.13
308.128
308.126
308.124
308.123
308.121
308.12
308.117
308.115
308.112
308.108
308.103
308.107
308.102
308.099
308.096
308.095
308.093
308.092
308.091
308.089
308.087
308.084
308.081
308.076
308.071
308.075
308.07
308.067
308.065
308.064
308.063
308.062
308.061
308.059
308.057
308.054
308.051
308.044
308.039
308.043
308.038
308.036
308.035
308.034
308.034
308.033
308.032
308.03
308.028
308.025
308.022
308.015
308.011
308.012
308.006
308.006
308.005
308.005
308.005
308.005
308.004
308.003
308.001
307.998
307.994
307.987
307.982
307.982
307.976
307.976
307.977
307.977
307.978
307.978
307.978
307.977
307.975
307.973
307.969
307.963
307.958
307.951
307.946
307.947
307.949
307.951
307.952
307.953
307.953
307.953
307.951
307.948
307.944
307.938
307.933
308.158
308.156
308.153
308.152
308.154
308.156
308.159
308.163
308.168
308.174
308.18
308.187
308.195
308.202
308.127
308.127
308.124
308.124
308.125
308.127
308.13
308.134
308.139
308.144
308.149
308.155
308.161
308.165
308.099
308.1
308.097
308.097
308.097
308.099
308.102
308.105
308.109
308.113
308.118
308.123
308.129
308.131
308.072
308.072
308.07
308.07
308.07
308.071
308.074
308.077
308.081
308.085
308.089
308.093
308.098
308.098
308.045
308.045
308.043
308.043
308.043
308.044
308.047
308.049
308.053
308.056
308.06
308.064
308.068
308.068
308.019
308.018
308.017
308.017
308.017
308.019
308.021
308.023
308.026
308.029
308.032
308.035
308.038
308.039
307.993
307.992
307.991
307.991
307.992
307.993
307.995
307.997
308
308.002
308.005
308.007
308.009
308.011
307.968
307.966
307.966
307.967
307.968
307.969
307.971
307.973
307.975
307.977
307.978
307.98
307.981
307.982
307.943
307.942
307.942
307.943
307.944
307.946
307.947
307.949
307.95
307.952
307.953
307.954
307.954
307.955
307.918
307.917
307.918
307.92
307.921
307.923
307.924
307.926
307.927
307.928
307.928
307.929
307.928
307.929
307.895
307.894
307.896
307.897
307.899
307.901
307.903
307.904
307.905
307.905
307.905
307.905
307.904
307.905
307.874
307.872
307.875
307.877
307.879
307.881
307.882
307.883
307.884
307.884
307.883
307.882
307.879
307.88
307.852
307.852
307.854
307.857
307.859
307.862
307.863
307.864
307.864
307.864
307.863
307.861
307.858
307.858
307.833
307.832
307.835
307.838
307.841
307.844
307.845
307.846
307.845
307.844
307.842
307.839
307.836
307.833
307.93
307.933
307.935
307.94
307.945
307.951
307.958
307.965
307.974
307.983
307.993
308.003
308.014
308.025
307.909
307.912
307.915
307.919
307.925
307.931
307.938
307.945
307.954
307.962
307.972
307.981
307.991
307.998
307.889
307.893
307.896
307.9
307.905
307.911
307.918
307.925
307.933
307.941
307.949
307.958
307.967
307.974
307.87
307.873
307.877
307.882
307.887
307.893
307.899
307.906
307.913
307.92
307.929
307.937
307.946
307.952
307.851
307.855
307.859
307.864
307.869
307.874
307.88
307.887
307.894
307.901
307.909
307.916
307.925
307.931
307.833
307.838
307.842
307.847
307.851
307.857
307.862
307.868
307.875
307.882
307.889
307.896
307.904
307.911
307.816
307.82
307.825
307.83
307.834
307.839
307.845
307.851
307.857
307.863
307.87
307.877
307.884
307.89
307.799
307.804
307.808
307.813
307.818
307.823
307.829
307.834
307.839
307.845
307.851
307.858
307.863
307.87
307.783
307.788
307.793
307.798
307.803
307.808
307.813
307.818
307.823
307.828
307.833
307.839
307.844
307.85
307.768
307.773
307.779
307.784
307.789
307.794
307.798
307.803
307.807
307.811
307.816
307.821
307.825
307.831
307.755
307.76
307.766
307.771
307.776
307.78
307.784
307.788
307.792
307.796
307.799
307.804
307.807
307.812
307.743
307.748
307.754
307.759
307.763
307.768
307.771
307.775
307.778
307.781
307.784
307.787
307.789
307.793
307.731
307.736
307.742
307.748
307.752
307.756
307.76
307.762
307.765
307.767
307.769
307.771
307.773
307.776
307.722
307.727
307.733
307.738
307.743
307.746
307.749
307.751
307.752
307.753
307.754
307.755
307.755
307.756
307.679
307.689
307.699
307.709
307.72
307.73
307.741
307.752
307.764
307.775
307.788
307.8
307.813
307.827
307.67
307.681
307.691
307.702
307.712
307.723
307.734
307.745
307.757
307.769
307.781
307.793
307.806
307.817
307.662
307.674
307.684
307.695
307.705
307.715
307.726
307.737
307.748
307.76
307.772
307.784
307.797
307.808
307.655
307.666
307.677
307.688
307.698
307.708
307.719
307.729
307.74
307.751
307.763
307.775
307.788
307.798
307.648
307.659
307.67
307.68
307.691
307.701
307.711
307.721
307.732
307.743
307.754
307.766
307.778
307.789
307.641
307.652
307.663
307.673
307.684
307.694
307.704
307.714
307.724
307.734
307.745
307.757
307.768
307.779
307.634
307.646
307.656
307.667
307.677
307.687
307.696
307.706
307.716
307.726
307.736
307.747
307.758
307.769
307.628
307.639
307.65
307.661
307.671
307.68
307.689
307.699
307.708
307.718
307.727
307.738
307.748
307.759
307.622
307.634
307.645
307.655
307.664
307.674
307.683
307.691
307.7
307.709
307.718
307.728
307.738
307.749
307.618
307.629
307.64
307.65
307.659
307.668
307.676
307.684
307.693
307.701
307.71
307.719
307.728
307.738
307.614
307.625
307.636
307.645
307.654
307.663
307.67
307.678
307.685
307.693
307.701
307.709
307.718
307.727
307.611
307.621
307.632
307.641
307.65
307.658
307.665
307.672
307.679
307.685
307.692
307.7
307.707
307.716
307.608
307.619
307.629
307.638
307.646
307.653
307.66
307.666
307.672
307.678
307.684
307.69
307.697
307.705
307.61
307.619
307.629
307.637
307.643
307.65
307.655
307.66
307.665
307.67
307.675
307.68
307.685
307.691
307.407
307.425
307.443
307.459
307.474
307.489
307.504
307.518
307.532
307.547
307.562
307.577
307.592
307.607
307.412
307.43
307.447
307.464
307.481
307.496
307.512
307.526
307.541
307.556
307.571
307.586
307.601
307.616
307.419
307.437
307.455
307.472
307.488
307.504
307.519
307.533
307.548
307.562
307.577
307.592
307.606
307.621
307.425
307.443
307.461
307.478
307.494
307.51
307.525
307.54
307.554
307.569
307.584
307.598
307.613
307.628
307.431
307.449
307.468
307.484
307.5
307.516
307.53
307.545
307.559
307.573
307.588
307.602
307.617
307.631
307.437
307.455
307.473
307.489
307.505
307.52
307.535
307.55
307.564
307.578
307.592
307.607
307.621
307.635
307.442
307.461
307.478
307.495
307.51
307.525
307.539
307.553
307.567
307.581
307.595
307.609
307.623
307.637
307.447
307.466
307.483
307.499
307.514
307.529
307.543
307.557
307.571
307.584
307.598
307.611
307.625
307.639
307.453
307.471
307.488
307.504
307.519
307.533
307.546
307.56
307.573
307.586
307.599
307.612
307.625
307.639
307.458
307.476
307.493
307.508
307.522
307.536
307.549
307.562
307.575
307.587
307.6
307.613
307.625
307.639
307.465
307.482
307.498
307.513
307.526
307.54
307.552
307.564
307.576
307.588
307.6
307.612
307.624
307.637
307.471
307.488
307.502
307.517
307.53
307.542
307.554
307.566
307.577
307.588
307.599
307.611
307.623
307.635
307.478
307.494
307.508
307.521
307.534
307.545
307.556
307.566
307.577
307.587
307.597
307.608
307.619
307.631
307.486
307.501
307.514
307.526
307.537
307.547
307.557
307.567
307.576
307.585
307.595
307.605
307.616
307.627
307.131
307.152
307.174
307.194
307.213
307.231
307.249
307.266
307.283
307.299
307.315
307.331
307.346
307.364
307.149
307.169
307.192
307.213
307.233
307.253
307.271
307.289
307.306
307.323
307.34
307.356
307.372
307.39
307.169
307.19
307.214
307.234
307.255
307.274
307.293
307.31
307.327
307.344
307.36
307.377
307.392
307.41
307.188
307.209
307.232
307.253
307.274
307.294
307.313
307.331
307.348
307.365
307.382
307.398
307.414
307.431
307.206
307.228
307.252
307.273
307.294
307.313
307.332
307.349
307.367
307.383
307.4
307.416
307.432
307.449
307.224
307.247
307.269
307.29
307.311
307.33
307.349
307.367
307.384
307.401
307.418
307.434
307.45
307.466
307.241
307.264
307.287
307.308
307.328
307.347
307.366
307.383
307.4
307.417
307.433
307.449
307.465
307.481
307.258
307.281
307.303
307.324
307.344
307.363
307.381
307.398
307.415
307.432
307.448
307.464
307.48
307.495
307.275
307.297
307.318
307.339
307.358
307.377
307.395
307.412
307.429
307.445
307.46
307.476
307.492
307.507
307.291
307.314
307.334
307.354
307.372
307.391
307.408
307.425
307.441
307.457
307.472
307.488
307.503
307.519
307.307
307.329
307.348
307.367
307.385
307.403
307.42
307.436
307.452
307.467
307.482
307.498
307.514
307.529
307.324
307.344
307.362
307.38
307.398
307.415
307.431
307.446
307.462
307.477
307.492
307.507
307.522
307.537
307.339
307.358
307.375
307.393
307.409
307.425
307.441
307.455
307.47
307.485
307.499
307.514
307.529
307.545
307.355
307.373
307.389
307.405
307.42
307.435
307.449
307.463
307.478
307.492
307.506
307.52
307.535
307.551
306.88
306.898
306.919
306.938
306.958
306.976
306.994
307.01
307.027
307.042
307.058
307.072
307.087
307.102
306.906
306.924
306.947
306.967
306.987
307.007
307.026
307.043
307.06
307.077
307.093
307.108
307.124
307.141
306.936
306.954
306.978
306.998
307.019
307.038
307.057
307.075
307.092
307.108
307.124
307.14
307.155
307.173
306.964
306.983
307.006
307.027
307.048
307.068
307.087
307.106
307.123
307.14
307.157
307.173
307.189
307.206
306.991
307.012
307.035
307.056
307.077
307.097
307.117
307.135
307.153
307.17
307.186
307.203
307.219
307.236
307.019
307.04
307.063
307.084
307.105
307.125
307.145
307.163
307.181
307.199
307.216
307.232
307.249
307.265
307.046
307.068
307.09
307.111
307.132
307.152
307.172
307.19
307.208
307.226
307.243
307.259
307.276
307.291
307.072
307.095
307.116
307.137
307.158
307.178
307.197
307.216
307.234
307.252
307.269
307.285
307.302
307.317
307.098
307.12
307.141
307.162
307.182
307.202
307.222
307.24
307.258
307.276
307.293
307.309
307.326
307.341
307.123
307.145
307.165
307.186
307.206
307.226
307.245
307.263
307.281
307.298
307.315
307.332
307.349
307.364
307.147
307.169
307.188
307.208
307.228
307.247
307.266
307.284
307.302
307.319
307.336
307.353
307.37
307.385
307.172
307.192
307.211
307.23
307.249
307.268
307.286
307.304
307.322
307.339
307.356
307.372
307.39
307.406
307.194
307.214
307.231
307.25
307.268
307.287
307.305
307.322
307.34
307.357
307.374
307.391
307.408
307.426
307.217
307.235
307.252
307.27
307.287
307.305
307.322
307.339
307.356
307.373
307.39
307.407
307.425
307.443
306.684
306.694
306.709
306.723
306.737
306.75
306.764
306.777
306.79
306.802
306.815
306.826
306.713
306.724
306.74
306.754
306.769
306.783
306.797
306.812
306.825
306.839
306.852
306.865
306.744
306.756
306.772
306.787
306.802
306.817
306.832
306.846
306.86
306.874
306.887
306.9
306.775
306.788
306.805
306.82
306.835
306.85
306.866
306.881
306.895
306.909
306.923
306.937
306.806
306.82
306.837
306.852
306.868
306.884
306.899
306.915
306.93
306.944
306.958
306.972
306.838
306.852
306.869
306.885
306.901
306.917
306.933
306.948
306.964
306.979
306.993
307.008
306.868
306.884
306.9
306.917
306.933
306.949
306.966
306.981
306.997
307.012
307.027
307.042
306.899
306.915
306.931
306.948
306.964
306.981
306.997
307.014
307.029
307.045
307.06
307.075
306.929
306.946
306.962
306.978
306.995
307.012
307.028
307.045
307.061
307.077
307.092
307.107
306.96
306.976
306.992
307.009
307.025
307.042
307.058
307.075
307.091
307.107
307.123
307.138
306.988
307.005
307.02
307.037
307.053
307.07
307.087
307.104
307.12
307.136
307.153
307.168
307.017
307.033
307.049
307.065
307.081
307.098
307.115
307.132
307.148
307.164
307.181
307.196
307.044
307.06
307.074
307.091
307.107
307.124
307.141
307.158
307.175
307.191
307.208
307.225
307.072
307.087
307.101
307.117
307.133
307.15
307.167
307.183
307.2
307.216
307.233
307.249
308.028
308.035
308.039
308.05
308.063
308.082
307.981
307.979
307.975
307.978
307.987
308.003
307.947
307.933
307.919
307.913
307.915
307.924
307.913
307.89
307.869
307.854
307.848
307.851
308.259
308.271
308.279
308.297
308.316
308.342
308.217
308.221
308.226
308.24
308.259
308.285
308.179
308.175
308.174
308.181
308.194
308.217
308.141
308.128
308.121
308.121
308.128
308.147
308.105
308.084
308.069
308.062
308.064
308.076
308.071
308.045
308.023
308.009
308.005
308.012
308.041
308.011
307.984
307.965
307.955
307.956
308.482
308.502
308.518
308.541
308.564
308.592
308.449
308.464
308.481
308.506
308.532
308.564
308.417
308.428