/*--------------------------------*- C++ -*----------------------------------*\
| =========                 |                                                 |
| \\      /  F ield         | OpenFOAM: The Open Source CFD Toolbox           |
|  \\    /   O peration     | Version:  v2106                                 |
|   \\  /    A nd           | Website:  www.openfoam.com                      |
|    \\/     M anipulation  |                                                 |
\*---------------------------------------------------------------------------*/
FoamFile
{
    version     2.0;
    format      ascii;
    arch        "LSB;label=32;scalar=64";
    class       volScalarField;
    location    "0.000203";
    object      T;
}
// * * * * * * * * * * * * * * * * * * * * * * * * * * * * * * * * * * * * * //

dimensions      [0 0 0 1 0 0 0];

internalField   nonuniform List<scalar> 
18109
(
292.72
292.606
292.502
292.386
292.275
292.154
292.027
292.949
292.837
292.724
292.593
292.471
292.345
292.213
293.11
292.987
292.87
292.745
292.626
292.507
292.381
293.299
293.158
293.028
292.9
292.777
292.657
292.531
293.467
293.318
293.176
293.039
292.915
292.794
292.669
293.645
293.474
293.328
293.195
293.069
292.944
292.813
293.819
293.656
293.505
293.368
293.235
293.104
292.966
294.025
293.86
293.702
293.561
293.421
293.28
293.131
292.973
292.857
292.745
292.619
292.498
292.369
292.237
292.098
291.957
291.82
291.698
291.565
291.471
291.35
293.163
293.045
292.927
292.79
292.662
292.53
292.396
292.26
292.119
291.983
291.859
291.747
291.642
291.549
293.284
293.15
293.03
292.906
292.786
292.666
292.543
292.413
292.278
292.146
292.024
291.917
291.815
291.732
293.44
293.289
293.159
293.035
292.917
292.801
292.681
292.556
292.425
292.298
292.179
292.077
291.978
291.896
293.579
293.422
293.29
293.166
293.046
292.932
292.814
292.691
292.562
292.439
292.326
292.23
292.139
292.058
293.727
293.567
293.428
293.305
293.192
293.078
292.957
292.829
292.698
292.574
292.465
292.374
292.288
292.206
293.883
293.729
293.597
293.477
293.359
293.239
293.109
292.972
292.834
292.707
292.599
292.509
292.426
292.341
294.077
293.929
293.793
293.67
293.543
293.412
293.269
293.12
292.972
292.839
292.728
292.635
292.55
292.461
294.298
294.154
294.008
293.875
293.734
293.587
293.428
293.264
293.106
292.966
292.851
292.752
292.663
292.568
294.536
294.391
294.23
294.083
293.923
293.758
293.582
293.403
293.234
293.088
292.967
292.861
292.771
292.671
294.791
294.632
294.447
294.279
294.099
293.917
293.726
293.535
293.357
293.202
293.076
292.965
292.873
292.767
295.013
294.839
294.637
294.455
294.259
294.065
293.863
293.665
293.483
293.325
293.195
293.077
292.982
292.872
295.229
295.036
294.822
294.618
294.409
294.204
293.998
293.801
293.619
293.458
293.325
293.201
293.103
292.989
295.38
295.166
294.948
294.741
294.532
294.33
294.136
293.95
293.776
293.619
293.483
293.355
293.247
293.128
292.605
292.531
292.458
292.422
292.396
292.378
292.896
292.834
292.768
292.714
292.657
292.596
292.745
292.66
292.569
292.523
292.493
292.484
292.622
292.515
292.406
292.351
292.317
292.266
292.48
292.355
292.239
292.174
292.136
292.062
292.343
292.206
292.085
292.013
291.952
291.805
292.2
292.051
291.923
291.838
291.737
291.48
292.058
291.892
291.751
291.633
291.469
291.102
291.908
291.726
291.565
291.387
291.137
290.66
291.766
291.567
291.382
291.147
290.788
290.115
291.632
291.42
291.194
290.864
290.382
289.631
291.514
291.276
291.015
290.62
290.068
289.303
291.385
291.125
290.808
290.34
289.725
288.997
291.307
290.981
290.595
290.088
289.496
288.839
291.084
290.702
290.289
289.769
289.214
288.68
291.219
290.943
290.571
290.015
289.395
288.793
291.418
291.088
290.683
290.131
289.56
289.003
291.581
291.249
290.834
290.309
289.799
289.283
291.733
291.416
291.011
290.525
290.052
289.536
291.889
291.6
291.224
290.787
290.345
289.818
292.043
291.784
291.447
291.058
290.65
290.112
292.193
291.961
291.676
291.338
290.951
290.386
292.336
292.14
291.893
291.593
291.211
290.603
292.457
292.296
292.094
291.835
291.446
290.817
292.561
292.438
292.281
292.041
291.65
291.03
292.676
292.592
292.476
292.264
291.862
291.25
292.805
292.752
292.654
292.429
292.009
291.428
292.951
292.914
292.812
292.576
292.186
291.643
293.072
293.029
292.907
292.665
292.299
291.798
293.223
293.161
293.083
292.869
292.556
292.133
293.362
293.331
293.284
293.124
292.85
292.5
293.488
293.506
293.511
293.425
293.247
293
293.624
293.695
293.738
293.719
293.633
293.489
293.773
293.884
293.965
294.002
293.983
293.911
293.934
294.074
294.18
294.25
294.262
294.258
294.105
294.262
294.375
294.464
294.493
294.521
294.286
294.449
294.562
294.649
294.675
294.713
294.479
294.647
294.758
294.834
294.856
294.885
294.692
294.861
294.97
295.037
295.057
295.052
294.91
295.083
295.19
295.252
295.275
295.231
295.14
295.322
295.429
295.483
295.485
295.42
295.34
295.525
295.627
295.679
295.681
295.624
295.558
295.711
295.809
295.852
295.848
295.831
293.389
293.381
293.358
293.303
293.199
292.99
293.164
293.129
293.082
293.006
292.911
292.761
292.968
292.914
292.859
292.791
292.735
292.654
292.755
292.686
292.632
292.549
292.522
292.501
295.577
295.755
295.888
295.978
296.016
296.046
295.432
295.656
295.803
295.944
296.052
296.154
295.249
295.486
295.667
295.855
296.03
296.19
295.006
295.256
295.468
295.691
295.896
296.066
294.745
295.004
295.237
295.478
295.683
295.837
294.497
294.744
294.987
295.228
295.413
295.53
294.273
294.511
294.753
294.965
295.098
295.174
294.079
294.296
294.51
294.663
294.733
294.737
293.904
294.074
294.23
294.313
294.346
294.194
293.732
293.838
293.909
293.912
293.872
293.623
293.559
293.59
293.596
293.56
293.443
293.182
293.364
293.349
293.315
293.235
293.092
292.869
293.201
293.158
293.098
293.007
292.879
292.72
293.019
292.95
292.891
292.788
292.702
292.611
292.22
291.26
288.772
283.183
274.687
292.047
290.763
287.564
281.395
272.974
291.729
290.1
286.33
280.11
273.178
291.312
289.178
284.858
278.591
271.692
290.774
288.092
283.258
276.514
268.923
290.056
286.749
281.477
273.952
265.642
289.366
285.606
280.186
272.512
264.881
288.668
284.878
279.483
271.447
263.083
257.896
288.091
284.488
279.186
270.755
261.18
254.781
287.734
284.563
279.871
272.001
262.902
256.681
287.543
284.877
281.123
274.37
266.041
259.971
258.174
287.544
285.405
282.486
276.937
269.598
263.536
261.698
266.84
287.585
285.856
283.449
278.743
272.425
267.581
267.794
274.68
287.674
286.271
284.084
279.76
273.541
266.758
264.974
264.44
287.827
286.546
284.249
279.217
271.193
261.879
256.517
254.611
288.096
286.765
284.294
279.109
271.227
262.605
255.035
253.452
288.42
286.979
284.292
279.076
272.123
265.957
263.383
260.674
288.634
287.072
283.825
278.19
271.126
264.36
261.175
263.351
288.81
287.131
283.42
276.917
267.89
258.375
253.476
251.707
288.969
286.888
283.028
276.293
266.947
257.441
249.723
248.035
289.152
286.936
283.055
276.495
268.248
260.922
256.641
255.303
289.281
287.083
283.309
276.832
268.009
261.482
260.608
263.746
289.511
287.448
283.831
276.966
266.608
257.496
289.795
287.898
284.765
278.381
268.079
258.13
290.07
288.446
286.067
280.964
272.211
263.327
290.327
288.973
287.342
283.767
276.874
269.145
290.642
289.56
288.448
285.929
280.758
274.542
291.029
290.161
289.297
287.186
282.758
291.525
290.802
289.998
287.633
282.017
292.057
291.457
290.656
288.047
282.402
292.638
292.057
291.232
288.543
283.442
293.202
292.577
291.437
288.064
282.036
293.684
293.005
291.634
287.563
279.621
293.979
293.24
291.519
287.083
278.325
294.217
293.449
291.622
287.238
279.076
294.4
293.623
291.711
287.301
278.437
294.569
293.86
292.089
287.753
277.944
294.746
294.114
292.733
288.934
279.504
294.952
294.464
293.596
290.488
282.423
295.197
294.878
294.411
291.838
285.227
295.491
295.353
295.076
292.706
286.868
295.813
295.805
295.424
293.022
287.543
296.09
296.174
295.591
292.776
286.124
296.241
296.296
295.525
292.404
285.375
296.284
296.263
295.341
291.997
285.894
296.146
295.962
294.584
290.476
283.768
295.878
295.473
293.543
288.549
280.079
295.403
294.618
292.098
286.45
277.246
294.81
293.669
290.799
284.972
276.145
294.152
292.653
289.707
283.705
274.419
293.492
291.846
288.93
282.772
272.927
292.89
291.314
288.835
283.28
274.149
292.468
291.149
289.17
284.36
276.36
292.233
291.225
289.593
285.333
278.309
292.222
291.389
289.869
285.858
279.49
292.239
291.472
289.627
285.055
277.906
293.402
293.289
293.176
293.05
292.923
292.788
292.655
292.516
292.383
292.256
292.144
292.024
291.938
291.837
293.548
293.425
293.308
293.174
293.045
292.909
292.772
292.633
292.502
292.376
292.261
292.159
292.064
291.991
293.636
293.502
293.382
293.258
293.139
293.017
292.888
292.763
292.636
292.514
292.402
292.306
292.217
292.151
293.754
293.611
293.486
293.367
293.252
293.136
293.018
292.899
292.775
292.656
292.546
292.452
292.364
292.294
293.864
293.724
293.601
293.485
293.375
293.267
293.154
293.036
292.914
292.797
292.689
292.597
292.511
292.435
293.985
293.848
293.73
293.62
293.516
293.411
293.298
293.178
293.053
292.934
292.825
292.731
292.641
292.552
294.125
293.994
293.88
293.774
293.67
293.562
293.445
293.318
293.187
293.062
292.948
292.847
292.75
292.648
294.289
294.162
294.044
293.936
293.825
293.71
293.584
293.448
293.309
293.176
293.054
292.944
292.838
292.724
294.475
294.342
294.212
294.092
293.97
293.842
293.704
293.558
293.411
293.271
293.141
293.022
292.906
292.781
294.66
294.517
294.371
294.235
294.095
293.952
293.8
293.646
293.492
293.346
293.212
293.084
292.961
292.829
294.836
294.676
294.508
294.355
294.198
294.04
293.877
293.716
293.558
293.408
293.269
293.135
293.009
292.878
294.978
294.798
294.616
294.451
294.281
294.113
293.943
293.778
293.62
293.471
293.333
293.196
293.069
292.934
295.1
294.902
294.708
294.532
294.357
294.184
294.013
293.849
293.694
293.546
293.411
293.272
293.147
293.009
295.169
294.967
294.777
294.6
294.429
294.261
294.099
293.944
293.796
293.655
293.527
293.388
293.262
293.114
294.004
293.942
293.869
293.768
293.647
293.504
293.364
293.22
293.086
292.957
292.841
292.728
292.631
292.52
294.112
294.024
293.94
293.834
293.717
293.579
293.439
293.296
293.155
293.023
292.904
292.793
292.687
292.609
294.197
294.1
294.01
293.904
293.787
293.657
293.522
293.388
293.256
293.131
293.014
292.909
292.806
292.729
294.287
294.187
294.091
293.988
293.874
293.752
293.624
293.495
293.365
293.242
293.125
293.02
292.917
292.834
294.378
294.277
294.184
294.078
293.964
293.846
293.727
293.606
293.484
293.365
293.248
293.143
293.039
292.942
294.473
294.373
294.278
294.177
294.073
293.962
293.849
293.732
293.61
293.488
293.369
293.259
293.15
293.04
294.57
294.471
294.376
294.279
294.179
294.074
293.964
293.85
293.729
293.604
293.48
293.362
293.242
293.115
294.663
294.564
294.466
294.37
294.273
294.173
294.065
293.952
293.828
293.7
293.571
293.444
293.313
293.169
294.748
294.642
294.539
294.441
294.344
294.247
294.14
294.025
293.9
293.769
293.633
293.496
293.353
293.199
294.814
294.701
294.592
294.492
294.394
294.294
294.185
294.069
293.941
293.808
293.668
293.524
293.373
293.213
294.856
294.736
294.621
294.517
294.416
294.317
294.208
294.092
293.964
293.828
293.682
293.529
293.371
293.218
294.875
294.75
294.632
294.525
294.422
294.321
294.213
294.097
293.97
293.834
293.685
293.524
293.357
293.193
294.879
294.751
294.635
294.528
294.428
294.328
294.226
294.113
293.987
293.844
293.69
293.516
293.342
293.182
294.849
294.735
294.632
294.535
294.443
294.347
294.249
294.143
294.025
293.888
293.741
293.567
293.395
293.193
295.041
295.045
295.013
294.941
294.845
294.717
294.587
294.432
294.287
294.139
293.996
293.858
293.729
293.568
295.162
295.133
295.082
294.997
294.899
294.77
294.64
294.483
294.331
294.175
294.032
293.892
293.757
293.632
295.247
295.202
295.142
295.054
294.955
294.824
294.688
294.535
294.394
294.252
294.113
293.976
293.839
293.718
295.327
295.274
295.211
295.111
295.007
294.876
294.743
294.592
294.45
294.306
294.168
294.037
293.904
293.783
295.403
295.338
295.27
295.17
295.066
294.936
294.806
294.66
294.523
294.381
294.242
294.108
293.976
293.844
295.464
295.394
295.323
295.223
295.12
294.992
294.866
294.725
294.59
294.446
294.306
294.167
294.028
293.885
295.505
295.434
295.353
295.256
295.155
295.036
294.916
294.781
294.649
294.504
294.362
294.216
294.069
293.914
295.527
295.449
295.361
295.265
295.166
295.057
294.944
294.819
294.689
294.546
294.401
294.248
294.09
293.92
295.512
295.432
295.344
295.25
295.156
295.054
294.948
294.831
294.704
294.561
294.411
294.25
294.08
293.899
295.472
295.392
295.304
295.214
295.126
295.033
294.933
294.82
294.695
294.552
294.398
294.229
294.048
293.858
295.402
295.327
295.245
295.162
295.08
294.993
294.898
294.789
294.663
294.517
294.354
294.177
293.987
293.799
295.305
295.242
295.169
295.096
295.02
294.941
294.85
294.745
294.619
294.471
294.298
294.108
293.911
293.726
295.19
295.145
295.093
295.033
294.966
294.894
294.808
294.707
294.579
294.426
294.243
294.035
293.825
293.65
295.074
295.055
295.02
294.966
294.907
294.843
294.765
294.675
294.558
294.416
294.236
294.02
293.809
293.561
296.591
296.615
296.597
296.55
296.478
296.38
296.276
296.147
296.024
295.878
295.751
295.61
295.465
295.269
296.674
296.658
296.62
296.56
296.487
296.385
296.276
296.143
296.016
295.872
295.741
295.598
295.462
295.3
296.728
296.694
296.65
296.575
296.501
296.398
296.292
296.164
296.042
295.902
295.776
295.636
295.493
295.345
296.762
296.712
296.663
296.578
296.501
296.393
296.286
296.158
296.037
295.902
295.776
295.643
295.51
295.366
296.766
296.712
296.661
296.573
296.499
296.391
296.289
296.168
296.05
295.918
295.791
295.656
295.522
295.377
296.756
296.707
296.651
296.564
296.492
296.388
296.29
296.174
296.057
295.926
295.796
295.658
295.518
295.367
296.724
296.682
296.625
296.547
296.479
296.38
296.288
296.178
296.061
295.931
295.797
295.657
295.509
295.351
296.683
296.641
296.584
296.512
296.452
296.361
296.274
296.168
296.05
295.918
295.779
295.633
295.472
295.302
296.605
296.57
296.522
296.453
296.406
296.322
296.24
296.139
296.022
295.891
295.747
295.596
295.427
295.251
296.506
296.479
296.446
296.384
296.343
296.265
296.189
296.095
295.979
295.849
295.699
295.54
295.355
295.167
296.394
296.375
296.359
296.307
296.268
296.195
296.122
296.03
295.913
295.781
295.621
295.453
295.256
295.066
296.26
296.247
296.252
296.216
296.179
296.116
296.046
295.958
295.842
295.709
295.54
295.359
295.149
294.942
296.112
296.114
296.131
296.114
296.082
296.03
295.962
295.877
295.756
295.618
295.437
295.237
295.011
294.803
295.955
295.962
295.997
295.993
295.969
295.93
295.869
295.795
295.682
295.551
295.375
295.165
294.914
294.621
298.871
298.85
298.827
298.78
298.726
298.649
298.564
298.46
298.352
298.228
298.118
297.982
297.844
297.665
298.871
298.84
298.809
298.75
298.69
298.609
298.523
298.42
298.316
298.194
298.078
297.938
297.81
297.653
298.855
298.812
298.782
298.718
298.66
298.578
298.493
298.394
298.293
298.176
298.063
297.929
297.801
297.651
298.822
298.775
298.743
298.674
298.616
298.535
298.451
298.355
298.255
298.141
298.027
297.898
297.773
297.632
298.767
298.729
298.697
298.63
298.575
298.499
298.418
298.324
298.227
298.117
298.004
297.878
297.753
297.614
298.715
298.685
298.65
298.583
298.53
298.456
298.376
298.285
298.186
298.077
297.964
297.841
297.713
297.571
298.635
298.616
298.582
298.52
298.473
298.405
298.328
298.239
298.14
298.031
297.916
297.794
297.662
297.521
298.548
298.534
298.505
298.448
298.407
298.343
298.269
298.181
298.081
297.971
297.852
297.727
297.587
297.44
298.443
298.432
298.419
298.368
298.331
298.27
298.198
298.113
298.013
297.903
297.781
297.653
297.505
297.355
298.333
298.32
298.327
298.285
298.25
298.189
298.118
298.035
297.934
297.823
297.694
297.558
297.395
297.236
298.222
298.21
298.23
298.195
298.164
298.103
298.031
297.948
297.845
297.73
297.595
297.449
297.277
297.112
298.084
298.076
298.116
298.094
298.069
298.013
297.941
297.86
297.755
297.638
297.495
297.337
297.145
296.964
297.927
297.95
297.993
297.98
297.964
297.917
297.844
297.765
297.652
297.527
297.372
297.195
296.995
296.788
297.74
297.785
297.845
297.851
297.842
297.81
297.74
297.673
297.558
297.435
297.275
297.081
296.85
296.577
301.392
301.308
301.279
301.228
301.18
301.125
301.071
301.008
300.939
300.856
300.77
300.666
300.569
300.463
301.315
301.244
301.21
301.154
301.104
301.048
300.994
300.93
300.86
300.775
300.682
300.572
300.474
300.371
301.266
301.195
301.159
301.1
301.048
300.99
300.933
300.869
300.8
300.719
300.632
300.532
300.436
300.332
301.203
301.131
301.09
301.028
300.975
300.916
300.858
300.794
300.724
300.644
300.558
300.463
300.369
300.269
301.127
301.062
301.018
300.957
300.905
300.847
300.789
300.724
300.654
300.577
300.493
300.403
300.312
300.218
301.047
300.985
300.94
300.88
300.829
300.772
300.714
300.649
300.578
300.5
300.418
300.332
300.243
300.152
300.954
300.896
300.855
300.799
300.75
300.696
300.638
300.574
300.503
300.426
300.345
300.262
300.173
300.084
300.866
300.807
300.77
300.716
300.669
300.616
300.558
300.494
300.423
300.347
300.265
300.183
300.091
300
300.773
300.715
300.685
300.633
300.587
300.535
300.477
300.414
300.344
300.269
300.188
300.104
300.008
299.914
300.684
300.628
300.604
300.554
300.509
300.457
300.397
300.335
300.264
300.189
300.104
300.015
299.908
299.807
300.593
300.543
300.524
300.476
300.432
300.379
300.318
300.256
300.184
300.107
300.018
299.923
299.81
299.701
300.484
300.44
300.436
300.395
300.357
300.308
300.245
300.183
300.107
300.026
299.929
299.823
299.695
299.574
300.369
300.35
300.345
300.309
300.276
300.232
300.169
300.106
300.023
299.935
299.829
299.708
299.576
299.425
300.204
300.215
300.233
300.211
300.189
300.155
300.095
300.037
299.949
299.856
299.738
299.602
299.442
299.258
303.644
303.534
303.464
303.392
303.336
303.29
303.257
303.227
303.198
303.158
303.113
303.053
302.99
302.921
303.547
303.452
303.385
303.311
303.253
303.205
303.169
303.136
303.103
303.058
303.006
302.937
302.868
302.789
303.473
303.381
303.314
303.241
303.183
303.134
303.095
303.06
303.024
302.981
302.93
302.868
302.803
302.732
303.399
303.306
303.236
303.162
303.103
303.051
303.009
302.971
302.933
302.888
302.838
302.778
302.716
302.652
303.325
303.233
303.162
303.088
303.028
302.975
302.93
302.89
302.85
302.807
302.76
302.707
302.651
302.596
303.254
303.16
303.087
303.012
302.95
302.896
302.849
302.807
302.766
302.725
302.68
302.633
302.584
302.536
303.184
303.088
303.016
302.941
302.877
302.822
302.775
302.732
302.693
302.653
302.614
302.573
302.53
302.487
303.12
303.022
302.949
302.873
302.808
302.752
302.704
302.663
302.624
302.588
302.552
302.516
302.475
302.435
303.059
302.959
302.888
302.812
302.746
302.69
302.642
302.602
302.566
302.533
302.5
302.467
302.427
302.388
303.003
302.902
302.834
302.757
302.691
302.635
302.587
302.547
302.512
302.481
302.448
302.416
302.373
302.332
302.947
302.848
302.783
302.708
302.642
302.587
302.538
302.499
302.464
302.433
302.4
302.366
302.32
302.277
302.892
302.796
302.736
302.666
302.601
302.547
302.496
302.456
302.417
302.383
302.345
302.306
302.255
302.206
302.825
302.749
302.688
302.622
302.559
302.508
302.456
302.412
302.369
302.33
302.286
302.24
302.185
302.117
302.758
302.692
302.637
302.578
302.521
302.475
302.42
302.374
302.323
302.275
302.222
302.165
302.096
302.027
305.379
305.27
305.173
305.08
305.005
304.946
304.91
304.89
304.885
304.884
304.887
304.881
304.874
304.845
305.309
305.201
305.107
305.012
304.934
304.873
304.834
304.812
304.803
304.798
304.794
304.783
304.764
304.729
305.234
305.132
305.037
304.943
304.867
304.806
304.766
304.741
304.73
304.723
304.718
304.707
304.69
304.657
305.176
305.068
304.971
304.876
304.798
304.735
304.69
304.662
304.647
304.638
304.632
304.621
304.604
304.578
305.122
305.011
304.913
304.817
304.736
304.67
304.623
304.592
304.574
304.566
304.56
304.554
304.542
304.525
305.075
304.958
304.858
304.759
304.676
304.607
304.556
304.522
304.503
304.494
304.491
304.491
304.485
304.476
305.03
304.911
304.809
304.709
304.624
304.554
304.501
304.467
304.448
304.441
304.442
304.448
304.448
304.446
304.991
304.867
304.765
304.664
304.579
304.509
304.457
304.424
304.406
304.401
304.405
304.417
304.421
304.423
304.953
304.827
304.728
304.628
304.544
304.477
304.427
304.397
304.382
304.38
304.387
304.401
304.407
304.41
304.916
304.791
304.695
304.599
304.518
304.455
304.409
304.383
304.371
304.371
304.379
304.392
304.396
304.398
304.88
304.758
304.667
304.577
304.501
304.443
304.401
304.379
304.369
304.37
304.378
304.39
304.392
304.39
304.844
304.729
304.643
304.56
304.491
304.439
304.401
304.381
304.371
304.372
304.378
304.387
304.384
304.375
304.802
304.7
304.622
304.546
304.483
304.438
304.403
304.384
304.374
304.374
304.376
304.381
304.371
304.351
304.777
304.665
304.595
304.532
304.477
304.439
304.404
304.384
304.37
304.365
304.36
304.357
304.339
304.334
306.593
306.5
306.397
306.298
306.205
306.123
306.059
306.016
305.995
305.986
305.993
306.004
306.03
306.021
306.547
306.448
306.346
306.244
306.15
306.066
306.001
305.958
305.936
305.927
305.932
305.941
305.956
305.954
306.483
306.388
306.284
306.184
306.092
306.011
305.949
305.906
305.884
305.876
305.88
305.888
305.901
305.897
306.439
306.337
306.234
306.132
306.039
305.958
305.894
305.851
305.827
305.819
305.821
305.829
305.841
305.841
306.394
306.291
306.188
306.085
305.993
305.911
305.847
305.802
305.778
305.771
305.774
305.784
305.797
305.803
306.356
306.249
306.147
306.043
305.95
305.868
305.802
305.756
305.73
305.723
305.727
305.74
305.756
305.769
306.321
306.213
306.113
306.01
305.918
305.836
305.77
305.724
305.699
305.692
305.697
305.715
305.733
305.752
306.289
306.18
306.083
305.983
305.893
305.814
305.75
305.706
305.681
305.675
305.681
305.7
305.72
305.743
306.26
306.151
306.061
305.964
305.881
305.806
305.744
305.702
305.679
305.674
305.681
305.701
305.721
305.745
306.232
306.127
306.044
305.955
305.878
305.807
305.75
305.711
305.689
305.686
305.692
305.712
305.731
305.754
306.208
306.108
306.033
305.952
305.882
305.819
305.767
305.734
305.715
305.713
305.719
305.738
305.754
305.775
306.187
306.094
306.028
305.956
305.894
305.841
305.797
305.769
305.754
305.754
305.759
305.775
305.784
305.799
306.168
306.083
306.025
305.962
305.911
305.869
305.833
305.812
305.8
305.803
305.806
305.819
305.822
305.826
306.168
306.065
306.02
305.97
305.929
305.898
305.871
305.856
305.848
305.851
305.852
305.859
305.85
305.865
307.432
307.361
307.271
307.183
307.089
306.999
306.915
306.843
306.786
306.741
306.718
306.701
306.71
306.705
307.39
307.314
307.225
307.135
307.04
306.949
306.865
306.794
306.739
306.697
306.676
306.663
306.668
306.669
307.33
307.257
307.166
307.077
306.985
306.899
306.82
306.755
306.704
306.666
306.647
306.635
306.64
306.64
307.283
307.206
307.118
307.029
306.939
306.854
306.778
306.715
306.666
306.631
306.612
306.602
306.605
306.609
307.234
307.157
307.071
306.984
306.897
306.815
306.742
306.682
306.636
306.604
306.586
306.579
306.582
306.588
307.189
307.111
307.029
306.943
306.86
306.78
306.708
306.65
306.604
306.575
306.558
306.553
306.556
306.565
307.149
307.07
306.993
306.91
306.829
306.752
306.683
306.627
306.582
306.554
306.538
306.535
306.538
306.55
307.112
307.034
306.962
306.881
306.806
306.731
306.664
306.61
306.566
306.54
306.524
306.523
306.524
306.538
307.081
307.004
306.937
306.861
306.79
306.72
306.657
306.605
306.562
306.537
306.521
306.52
306.521
306.534
307.055
306.981
306.92
306.848
306.784
306.718
306.658
306.609
306.567
306.543
306.527
306.525
306.524
306.535
307.037
306.965
306.91
306.844
306.784
306.724
306.667
306.621
306.581
306.558
306.54
306.538
306.534
306.544
307.026
306.956
306.907
306.846
306.791
306.736
306.685
306.642
306.604
306.582
306.563
306.56
306.551
306.558
307.022
306.954
306.909
306.853
306.804
306.756
306.71
306.671
306.636
306.615
306.595
306.589
306.577
306.575
307.032
306.947
306.911
306.86
306.819
306.778
306.739
306.707
306.677
306.658
306.635
306.626
306.601
306.607
307.992
307.941
307.87
307.801
307.723
307.643
307.561
307.478
307.403
307.331
307.274
307.224
307.196
307.16
307.94
307.886
307.816
307.745
307.666
307.585
307.502
307.421
307.347
307.279
307.228
307.186
307.163
307.134
307.874
307.822
307.749
307.68
307.602
307.525
307.448
307.374
307.307
307.247
307.201
307.163
307.142
307.117
307.814
307.76
307.69
307.621
307.546
307.471
307.397
307.327
307.265
307.21
307.169
307.134
307.115
307.094
307.754
307.698
307.631
307.563
307.491
307.421
307.352
307.288
307.232
307.182
307.144
307.113
307.095
307.079
307.696
307.639
307.576
307.509
307.442
307.374
307.309
307.25
307.196
307.152
307.116
307.088
307.071
307.058
307.644
307.585
307.525
307.461
307.397
307.334
307.273
307.217
307.167
307.125
307.091
307.067
307.051
307.041
307.598
307.538
307.481
307.418
307.358
307.297
307.239
307.187
307.138
307.099
307.066
307.045
307.028
307.023
307.559
307.498
307.443
307.383
307.325
307.267
307.211
307.161
307.113
307.077
307.044
307.025
307.008
307.005
307.527
307.466
307.413
307.354
307.298
307.241
307.187
307.139
307.092
307.058
307.025
307.007
306.988
306.988
307.504
307.441
307.391
307.332
307.278
307.222
307.169
307.122
307.076
307.042
307.009
306.991
306.972
306.973
307.489
307.423
307.373
307.314
307.261
307.206
307.155
307.11
307.065
307.032
306.998
306.981
306.959
306.96
307.482
307.415
307.365
307.306
307.254
307.2
307.149
307.104
307.06
307.027
306.993
306.975
306.952
306.947
307.478
307.398
307.351
307.292
307.242
307.191
307.143
307.102
307.06
307.029
306.995
306.974
306.944
306.945
308.335
308.299
308.244
308.194
308.135
308.074
308.01
307.941
307.871
307.799
307.731
307.664
307.607
307.544
308.269
308.232
308.178
308.126
308.065
308.003
307.937
307.868
307.799
307.728
307.664
307.602
307.553
307.502
308.195
308.158
308.101
308.049
307.989
307.929
307.866
307.801
307.738
307.674
307.616
307.561
307.518
307.475
308.124
308.084
308.029
307.976
307.917
307.858
307.796
307.733
307.673
307.614
307.562
307.513
307.477
307.442
308.055
308.011
307.955
307.902
307.845
307.788
307.73
307.672
307.618
307.565
307.519
307.476
307.445
307.416
307.987
307.938
307.885
307.831
307.776
307.721
307.666
307.612
307.561
307.514
307.472
307.436
307.409
307.386
307.924
307.871
307.819
307.765
307.712
307.659
307.607
307.558
307.511
307.469
307.432
307.401
307.376
307.358
307.865
307.809
307.757
307.702
307.651
307.6
307.551
307.506
307.462
307.425
307.39
307.364
307.34
307.328
307.813
307.754
307.702
307.647
307.596
307.547
307.5
307.458
307.417
307.383
307.351
307.329
307.307
307.299
307.767
307.706
307.653
307.597
307.547
307.498
307.452
307.413
307.373
307.343
307.312
307.293
307.273
307.269
307.729
307.665
307.613
307.555
307.505
307.456
307.41
307.372
307.333
307.304
307.276
307.259
307.24
307.241
307.698
307.631
307.576
307.517
307.466
307.417
307.372
307.334
307.296
307.269
307.241
307.226
307.208
307.212
307.675
307.607
307.552
307.491
307.439
307.388
307.341
307.302
307.264
307.237
307.21
307.196
307.181
307.184
307.649
307.571
307.518
307.458
307.408
307.359
307.313
307.274
307.236
307.21
307.183
307.168
307.151
307.157
308.543
308.519
308.477
308.442
308.4
308.358
308.313
308.264
308.214
308.159
308.104
308.046
307.992
307.932
308.467
308.444
308.401
308.364
308.32
308.276
308.229
308.178
308.127
308.071
308.016
307.959
307.91
307.855
308.39
308.363
308.318
308.28
308.236
308.191
308.144
308.094
308.045
307.991
307.941
307.889
307.847
307.798
308.314
308.283
308.238
308.197
308.152
308.106
308.059
308.009
307.96
307.909
307.862
307.815
307.778
307.736
308.241
308.204
308.157
308.114
308.069
308.023
307.976
307.928
307.881
307.835
307.792
307.752
307.719
307.686
308.167
308.125
308.078
308.033
307.987
307.941
307.895
307.848
307.805
307.762
307.724
307.689
307.661
307.635
308.097
308.05
308.003
307.955
307.908
307.862
307.818
307.775
307.734
307.696
307.663
307.633
307.609
307.59
308.03
307.978
307.93
307.88
307.833
307.788
307.744
307.705
307.667
307.634
307.605
307.581
307.56
307.547
307.967
307.912
307.862
307.81
307.763
307.719
307.677
307.64
307.606
307.577
307.551
307.533
307.515
307.508
307.909
307.85
307.799
307.746
307.699
307.655
307.614
307.58
307.549
307.524
307.501
307.487
307.473
307.47
307.856
307.795
307.743
307.689
307.641
307.598
307.558
307.526
307.497
307.475
307.455
307.445
307.434
307.436
307.809
307.746
307.692
307.637
307.589
307.546
307.507
307.477
307.449
307.43
307.413
307.405
307.397
307.403
307.768
307.705
307.651
307.595
307.547
307.503
307.465
307.435
307.408
307.391
307.376
307.37
307.365
307.374
307.725
307.656
307.606
307.551
307.504
307.462
307.426
307.398
307.372
307.356
307.342
307.337
307.332
307.342
308.688
308.677
308.652
308.629
308.604
308.578
308.55
308.522
308.492
308.459
308.425
308.387
308.347
308.305
308.614
308.602
308.574
308.55
308.523
308.494
308.465
308.433
308.4
308.365
308.328
308.288
308.249
308.206
308.541
308.525
308.495
308.467
308.437
308.407
308.376
308.343
308.309
308.272
308.235
308.197
308.162
308.123
308.467
308.446
308.413
308.382
308.351
308.318
308.286
308.251
308.215
308.178
308.141
308.105
308.072
308.038
308.395
308.367
308.332
308.298
308.264
308.23
308.196
308.16
308.124
308.088
308.054
308.021
307.991
307.962
308.321
308.288
308.251
308.214
308.178
308.143
308.108
308.072
308.037
308.002
307.97
307.94
307.915
307.89
308.249
308.21
308.172
308.133
308.096
308.059
308.023
307.988
307.954
307.923
307.894
307.868
307.846
307.827
308.177
308.135
308.095
308.055
308.016
307.978
307.942
307.909
307.877
307.849
307.823
307.802
307.784
307.77
308.109
308.063
308.022
307.98
307.941
307.903
307.867
307.835
307.807
307.782
307.76
307.743
307.728
307.719
308.043
307.995
307.953
307.91
307.869
307.832
307.797
307.768
307.742
307.721
307.703
307.689
307.677
307.673
307.981
307.931
307.888
307.844
307.804
307.767
307.735
307.708
307.685
307.667
307.651
307.642
307.632
307.632
307.923
307.871
307.828
307.783
307.744
307.709
307.678
307.654
307.634
307.618
307.606
307.599
307.592
307.595
307.869
307.818
307.774
307.73
307.692
307.658
307.63
307.607
307.589
307.576
307.567
307.563
307.56
307.564
307.817
307.765
307.722
307.681
307.644
307.613
307.588
307.567
307.551
307.541
307.533
307.53
307.528
307.533