/*--------------------------------*- C++ -*----------------------------------*\
| =========                 |                                                 |
| \\      /  F ield         | OpenFOAM: The Open Source CFD Toolbox           |
|  \\    /   O peration     | Version:  v2106                                 |
|   \\  /    A nd           | Website:  www.openfoam.com                      |
|    \\/     M anipulation  |                                                 |
\*---------------------------------------------------------------------------*/
FoamFile
{
    version     2.0;
    format      ascii;
    arch        "LSB;label=32;scalar=64";
    class       volScalarField;
    location    "0.000142";
    object      k;
}
// * * * * * * * * * * * * * * * * * * * * * * * * * * * * * * * * * * * * * //

dimensions      [0 2 -2 0 0 0 0];

internalField   nonuniform List<scalar> 
144746
(
7.16931
6.12701
5.36291
4.45323
3.53826
2.57865
1.85141
1.30857
0.937275
0.699026
0.657045
0.906927
1.49441
2.479
5.43989
4.66119
4.01855
3.21853
2.43546
1.68027
1.16182
0.783594
0.538514
0.40774
0.444084
0.748668
1.34134
2.19654
3.86316
3.23536
2.68122
1.99317
1.35722
0.839995
0.529477
0.332405
0.22291
0.184236
0.270751
0.60143
1.19723
1.99679
2.61811
2.08354
1.52975
0.956303
0.514837
0.277733
0.14989
0.0856383
0.0589062
0.0638457
0.155009
0.455562
1.00842
1.74911
1.9004
1.39279
0.872934
0.454165
0.213502
0.0898794
0.0349134
0.01447
0.00998308
0.0213088
0.0942596
0.334765
0.809055
1.46401
1.71428
1.25931
0.81506
0.452629
0.20906
0.0790577
0.0237364
0.00585433
0.00240768
0.0102482
0.0625613
0.241857
0.624622
1.18362
1.90465
1.48497
1.03997
0.599238
0.276077
0.100997
0.030152
0.00943517
0.00505248
0.00971409
0.047036
0.181132
0.481583
0.945878
2.36685
1.93827
1.41845
0.858146
0.41429
0.159151
0.0553167
0.0268487
0.020766
0.0234638
0.0487502
0.144848
0.371301
0.742143
3.01322
2.52502
1.90376
1.21819
0.628539
0.26392
0.113293
0.0767093
0.0728643
0.0794091
0.0995481
0.167007
0.323815
0.595941
3.95086
3.31777
2.52224
1.66889
0.920018
0.430458
0.227477
0.191107
0.204148
0.231141
0.261521
0.315152
0.409679
0.582474
4.95403
4.20388
3.21587
2.18021
1.28104
0.674435
0.425204
0.405944
0.461649
0.538148
0.604479
0.666112
0.712043
0.796797
6.04326
5.16409
3.95432
2.7255
1.69713
1.00605
0.72758
0.738878
0.859508
1.01488
1.14335
1.23512
1.25642
1.28065
6.96491
5.95542
4.56118
3.1857
2.09088
1.38843
1.11987
1.1688
1.35921
1.60765
1.83043
1.99362
2.05019
2.08911
8.1156
6.7448
5.14315
3.60707
2.45579
1.7799
1.55245
1.64795
1.91533
2.27833
2.63889
2.93609
3.10631
3.29116
9.10203
7.66249
6.5678
5.30082
4.1269
2.96457
2.09416
1.43838
1.03206
0.882437
1.13355
1.85753
3.02958
4.71964
8.03024
6.682
5.57059
4.30902
3.18753
2.12232
1.37884
0.869816
0.589277
0.535627
0.834472
1.57663
2.64673
3.9567
6.40286
5.22195
4.21685
3.05768
2.00899
1.165
0.660899
0.370164
0.240767
0.261103
0.561998
1.26918
2.2611
3.3796
4.646
3.66826
2.67807
1.67002
0.860646
0.412122
0.191684
0.0934103
0.063722
0.107031
0.346081
0.93511
1.80762
2.79074
3.28212
2.38538
1.47315
0.727546
0.319927
0.12544
0.04383
0.0152247
0.0120613
0.0458377
0.210077
0.649758
1.375
2.2219
2.52092
1.77339
1.08302
0.596402
0.279104
0.105776
0.0304955
0.00700881
0.00415188
0.0242687
0.128893
0.43255
0.992551
1.704
2.42078
1.86438
1.32125
0.797815
0.379573
0.140558
0.0419149
0.0143522
0.00967352
0.021262
0.0881634
0.295748
0.710292
1.2901
2.80849
2.37807
1.85044
1.19139
0.604777
0.238796
0.085189
0.045607
0.0396723
0.0492044
0.0931576
0.232644
0.530886
0.982046
3.44572
3.08257
2.53477
1.76118
0.972826
0.423937
0.18437
0.131564
0.135597
0.161659
0.208585
0.317117
0.525344
0.850745
4.43348
4.0677
3.42973
2.50035
1.49938
0.728934
0.376165
0.318029
0.362246
0.445563
0.540003
0.665606
0.819255
1.03978
5.53243
5.19214
4.47569
3.38668
2.17844
1.18469
0.699821
0.6453
0.770687
0.96512
1.1603
1.35242
1.48961
1.63701
6.87619
6.56062
5.70218
4.38056
2.97246
1.79324
1.18035
1.12038
1.3371
1.67226
1.99781
2.29709
2.48096
2.63048
8.02848
7.8066
6.84453
5.30056
3.7439
2.47772
1.78382
1.70056
1.97112
2.42507
2.90767
3.37857
3.73893
4.06708
9.64749
9.26581
7.99979
6.18295
4.44801
3.12904
2.40412
2.29753
2.60368
3.17374
3.84976
4.54644
5.18422
5.91419
8.44118
7.13197
6.18958
5.0745
4.07456
3.0364
2.19705
1.52656
1.19474
1.34045
2.13968
3.50996
5.2223
7.132
8.68867
7.30291
6.12393
4.79384
3.56715
2.3872
1.49248
0.897842
0.660672
0.835961
1.60182
2.90177
4.39007
5.79056
8.12784
6.68583
5.39318
3.94433
2.5683
1.423
0.723471
0.366372
0.263815
0.434239
1.09605
2.27892
3.60417
4.72085
6.82533
5.38412
3.9148
2.44966
1.24418
0.524757
0.2061
0.08713
0.0728279
0.197809
0.669902
1.61604
2.76528
3.74919
5.27268
3.75115
2.2511
1.10917
0.425866
0.148175
0.0445175
0.013241
0.0177181
0.0919773
0.385609
1.05931
2.00944
2.89913
3.83155
2.51458
1.37378
0.686522
0.312745
0.113996
0.0300305
0.00637729
0.00745226
0.0472583
0.216256
0.649166
1.36041
2.14537
3.15152
2.22914
1.47091
0.890017
0.422042
0.152759
0.0436815
0.0159771
0.0138525
0.0371083
0.140129
0.419984
0.929149
1.58611
3.24452
2.68024
2.10634
1.37983
0.706764
0.27646
0.0972976
0.0565495
0.0551466
0.0779748
0.150402
0.341722
0.706677
1.22838
3.63391
3.34396
2.90336
2.11708
1.20896
0.528953
0.226358
0.170947
0.191259
0.25121
0.350172
0.535049
0.834456
1.25531
4.31614
4.21763
3.88358
3.10046
1.98112
0.982403
0.49034
0.419539
0.509455
0.677194
0.888393
1.16045
1.46999
1.8386
4.99311
5.12237
4.98178
4.2534
3.01336
1.70153
0.954288
0.848323
1.05954
1.4083
1.8005
2.2224
2.58627
2.95783
5.98908
6.30344
6.26839
5.53215
4.22618
2.69243
1.67211
1.4637
1.76082
2.2999
2.86749
3.4668
3.96758
4.4344
6.88604
7.46079
7.52198
6.76409
5.45204
3.84606
2.61405
2.23182
2.48833
3.1101
3.80988
4.60574
5.37436
6.12061
8.24768
8.90688
8.80058
7.94621
6.57991
4.92903
3.57852
3.01209
3.15487
3.76516
4.56145
5.51564
6.54042
7.69119
3.91154
5.45303
7.31868
10.1186
18.2576
6.39303
3.28468
4.60872
6.41934
9.00429
15.4109
4.93674
2.97378
4.25973
6.10925
8.87433
15.6771
4.32062
2.65013
3.91245
5.79239
8.88596
17.2528
4.20569
2.26188
3.41171
5.20489
8.55728
19.4571
4.37429
1.87135
2.83941
4.38336
7.75302
21.4102
4.69461
1.52571
2.30165
3.5652
6.75467
22.1765
5.18678
1.22421
1.84715
2.8867
5.7403
22.0521
5.6371
0.980608
1.49943
2.36773
4.88742
21.1798
6.04874
0.862901
1.31423
2.0793
4.33663
19.7965
6.41572
0.975603
1.40498
2.15637
4.25225
18.6857
6.79025
1.38936
1.87458
2.74799
4.82208
18.0988
7.36158
2.162
2.83932
4.01739
6.19869
17.9103
8.12642
3.32024
4.38365
5.98592
8.37531
18.5507
8.33202
6.70273
8.42362
9.73735
11.4834
13.9651
6.3717
5.32728
6.9231
8.62391
10.8364
13.65
6.03879
4.56191
6.09808
8.04333
10.6988
14.5531
6.16833
3.84193
5.27052
7.26181
10.322
15.8034
6.35817
3.11607
4.3307
6.11179
9.33947
16.8872
6.43154
2.45862
3.42542
4.84832
7.88531
17.4666
6.35211
1.91761
2.66786
3.74987
6.29311
17.1246
6.16866
1.49906
2.10693
2.99061
5.02897
15.8093
5.99949
1.26044
1.81008
2.5841
4.3074
14.1046
5.95433
1.33862
1.89078
2.6647
4.27944
12.811
5.97066
1.84392
2.48831
3.40055
5.08104
12.2762
6.1287
2.79868
3.67007
4.85215
6.6426
12.535
6.49744
4.21762
5.44244
6.94684
8.83203
13.3322
7.03123
5.97339
7.54762
9.2654
11.1366
14.5955
7.17939
8.45002
9.14495
9.10587
9.52934
9.85117
11.2613
6.634
7.49994
8.11724
8.97572
9.6988
10.6454
5.50862
6.40685
7.31907
8.45869
9.65702
9.85749
4.50295
5.34531
6.30233
7.58805
9.34717
8.93741
3.58621
4.35926
5.24048
6.50908
8.86781
7.95093
2.80387
3.49019
4.25105
5.38083
8.18383
6.95601
2.19787
2.8277
3.51365
4.46995
7.23342
6.06043
1.78211
2.40711
3.10152
3.96521
6.40182
5.45879
1.74076
2.45151
3.21548
4.07229
6.0951
5.37015
2.25056
3.12633
4.0514
4.95939
6.54011
5.97124
3.32481
4.42093
5.54772
6.42602
7.37652
7.1846
4.74693
6.01572
7.19902
8.00011
8.38655
8.76657
6.29801
7.61075
8.63441
9.5195
9.40578
10.4438
7.6473
8.72367
9.55564
10.4114
10.2173
11.6223
4.98586
6.48076
8.22036
10.7046
17.993
6.53556
4.39645
5.77244
7.63685
10.2348
16.366
5.04035
4.02872
5.44625
7.42864
10.4202
17.4525
4.43037
3.5711
4.92779
7.0062
10.5677
19.6904
4.31777
3.03801
4.20923
6.11766
10.0814
21.9048
4.42079
2.51593
3.45929
5.06244
9.07419
23.4046
4.56722
2.1394
2.90762
4.22361
8.01005
24.0074
4.71168
1.97758
2.64439
3.76065
7.14624
23.9119
4.9082
2.13246
2.74517
3.75014
6.84334
23.3149
5.15893
2.67951
3.32026
4.30137
7.20952
22.5801
5.43813
3.65985
4.44805
5.48908
8.22992
21.6407
5.95215
4.98821
6.01535
7.23996
9.7499
20.3741
6.86458
6.55353
7.81251
9.39364
11.6431
19.3809
7.76053
8.0165
9.38089
11.1704
13.3104
18.9081
7.54246
7.89147
9.43909
10.6402
12.4157
14.6209
6.51797
6.58881
8.21155
10.0144
12.46
15.472
6.30224
5.74883
7.39421
9.56921
12.668
17.0362
6.47264
4.84067
6.28155
8.4214
12.0652
18.3496
6.60094
3.92736
5.03909
6.81176
10.5714
18.8584
6.53906
3.19928
4.05887
5.44462
8.90946
18.5046
6.3224
2.82672
3.56753
4.68947
7.65507
17.6503
6.06551
2.91091
3.62839
4.61692
7.09894
16.7596
5.92387
3.57149
4.31124
5.27931
7.48645
16.0312
5.98747
4.80565
5.6542
6.67414
8.87496
15.6783
6.21649
6.40363
7.51376
8.61072
10.9242
15.7614
6.69725
7.98572
9.30484
10.5633
12.8154
16.0489
7.48208
9.23148
10.5256
12.0133
14.0066
16.4036
8.24135
9.74605
10.9402
12.5992
14.3964
16.9385
8.25484
8.86707
9.53422
9.8146
10.3468
10.5249
11.6672
7.29557
8.14611
8.93122
9.94798
10.6006
10.9978
6.19036
6.97238
7.92607
9.18687
10.4282
10.0567
5.11951
5.7407
6.56872
7.87424
9.69536
8.98599
4.23483
4.77773
5.43803
6.63259
8.99533
7.99167
3.66638
4.24651
4.87685
5.96781
8.28905
7.29415
3.66285
4.37412
5.06039
5.99415
7.94935
7.12252
4.34553
5.21148
5.97354
6.7501
8.18869
7.61416
5.69097
6.62774
7.43231
8.06896
8.82027
8.71412
7.26617
8.15038
8.87235
9.48877
9.50841
10.2208
8.47653
9.21759
9.75588
10.7268
10.2803
11.8993
9.03611
9.56359
9.96327
11.2829
10.8176
13.265
9.02104
9.33836
9.74078
10.9828
10.9693
13.7951
8.2707
8.65713
9.22231
10.2404
10.989
13.3252
7.68983
18.3771
12.5017
10.2954
8.46493
7.1189
8.42438
19.8025
11.1538
8.56352
6.69008
5.5225
7.97825
21.3111
9.61955
6.71167
5.05401
4.06959
7.26564
22.4975
8.21931
5.22312
3.83371
2.98679
6.65058
23.5448
7.24505
4.26603
3.07707
2.34063
6.16874
24.457
6.84912
3.83716
2.76033
2.10822
5.65871
25.3014
7.06948
3.86902
2.82301
2.23077
5.08852
25.8035
7.91903
4.34344
3.24253
2.66276
4.71045
25.3093
9.27362
5.33297
4.04464
3.37418
4.4946
23.6292
10.8479
6.80986
5.22465
4.3848
4.38098
21.1923
12.0875
8.41317
6.54596
5.45154
4.43458
18.6684
12.6636
9.64957
7.78447
6.5619
4.8349
16.8514
12.8822
10.5743
8.91087
7.68201
5.89319
17.0235
14.0541
12.0456
10.5859
9.36168
7.99432
14.2853
12.4841
11.2738
10.0654
9.01771
8.32343
15.0995
12.4238
10.6929
9.25753
8.07556
7.98465
15.9436
11.628
9.43129
7.879
6.62967
7.47032
16.6167
10.2026
7.87622
6.37696
5.16814
7.08871
16.997
8.54379
6.39658
5.07244
3.99214
6.766
17.3624
7.29684
5.30242
4.15991
3.1909
6.41259
18.1414
6.75426
4.70996
3.69388
2.90223
6.24523
18.922
7.0688
4.6283
3.69854
3.10278
6.3091
19.4964
8.1248
5.14963
4.17249
3.65972
6.51207
19.8799
9.78592
6.34005
5.13461
4.5947
6.76019
19.7775
11.7068
8.10863
6.52652
5.72312
6.99231
19.1766
13.4093
10.0704
8.17239
7.06624
7.21698
17.7846
14.1914
11.4963
9.50987
8.24289
7.51515
16.4792
14.28
12.395
10.833
9.72119
12.7307
9.16582
8.64444
8.2941
8.32265
8.16127
13.2243
9.52003
9.34288
8.75514
8.74813
8.5073
12.9028
9.81654
9.72198
9.01313
8.78438
8.16377
11.8937
9.79956
9.55946
9.05472
8.50496
7.46715
10.5988
9.65301
9.02584
8.65146
7.7741
6.42586
9.32313
9.47108
8.23021
7.61843
6.58357
5.0905
8.21872
9.14364
7.22321
6.40371
5.40859
4.13642
7.48117
8.80856
6.33439
5.4517
4.64094
3.79717
7.2292
8.7734
5.84034
4.90576
4.32951
3.84939
7.4707
9.17743
5.91665
4.88511
4.45746
4.2745
8.13562
9.8491
6.55166
5.39473
4.95545
4.81865
9.1511
10.6226
7.6353
6.41848
5.84937
5.64968
10.4537
11.0042
8.85604
7.68195
6.92371
6.54298
11.9962
11.0763
9.64006
8.68064
8.01535
7.65948
8.834
19.6181
8.13185
5.37056
3.60171
2.65724
9.23781
19.1818
6.13827
3.65052
2.33986
1.71357
8.76176
19.0537
4.79566
2.60325
1.62961
1.13885
8.15025
19.3386
4.18188
2.1569
1.35828
0.914795
7.55682
20.2271
4.22889
2.17091
1.4358
0.995413
6.98696
21.3267
4.78278
2.5293
1.77888
1.30837
6.33413
22.3257
5.74164
3.16023
2.33584
1.79174
5.59785
22.9179
7.05307
4.07178
3.10652
2.46198
4.92553
22.3299
8.63596
5.31626
4.0927
3.31264
4.50921
20.3206
10.091
6.7694
5.25457
4.32523
4.27277
17.8712
10.887
7.98385
6.33382
5.25723
4.26512
15.6367
11.116
8.82169
7.29878
6.15951
4.63953
14.3719
11.357
9.63014
8.25708
7.03889
5.66406
15.4619
12.8251
11.1621
9.98223
8.65475
7.46408
14.9116
10.3948
8.40753
6.43645
4.93875
7.71749
14.2985
8.38553
6.31694
4.52686
3.37141
7.44616
13.4963
6.46922
4.51682
3.09395
2.21069
7.09817
12.9379
5.0147
3.29938
2.2203
1.50827
6.76453
13.0974
4.21757
2.72954
1.87214
1.26347
6.5083
13.912
4.17212
2.72237
1.97447
1.43422
6.33891
15.1219
4.70891
3.12133
2.42449
1.90137
6.26513
16.4662
5.72222
3.84544
3.13876
2.61287
6.30758
17.1743
7.32609
4.95554
4.08052
3.50904
6.43756
17.0756
9.14395
6.40913
5.25012
4.6175
6.58159
16.3909
10.6536
7.91303
6.48241
5.69299
6.73
15.1423
11.5573
9.18827
7.69651
6.78333
6.93322
13.4632
11.7173
9.9921
8.68494
7.75143
7.22564
12.7954
11.9201
10.8669
10.0675
9.31338
11.3493
9.96508
9.58966
9.28603
8.33984
7.12377
10.4259
9.58827
9.00632
8.52662
7.07578
5.54328
9.05043
8.94328
7.96476
7.21248
5.56782
4.01524
7.64406
8.18248
6.63453
5.61624
4.11641
2.75564
6.4417
7.38069
5.29601
4.25917
3.04388
1.95354
5.66404
6.73037
4.39404
3.51022
2.57668
1.73451
5.40289
6.51083
4.06948
3.37132
2.66164
2.02337
5.60582
6.86947
4.20597
3.62494
3.0999
2.61676
6.14707
7.55275
4.70566
4.11197
3.68049
3.34303
6.91832
8.22009
5.47606
4.76132
4.38329
4.19181
7.84709
8.79239
6.37024
5.51154
5.09856
4.93518
8.91737
9.11505
7.24846
6.31775
5.88095
5.72313
10.1303
8.90763
7.79161
7.05305
6.63532
6.4133
11.5384
8.99844
8.13975
7.68726
7.61036
7.51091
8.11503
6.72632
5.81982
4.82288
3.94811
2.96482
2.12484
1.4874
1.299
1.77919
3.01773
4.69336
6.41019
8.20507
8.15831
7.01944
5.88703
4.70392
3.48594
2.26678
1.33331
0.765204
0.624846
1.0098
2.09948
3.70315
5.3012
6.53853
7.91952
6.75514
5.39765
3.90468
2.44971
1.27644
0.599218
0.273954
0.222834
0.49842
1.3555
2.78991
4.27295
5.29842
7.42097
5.7968
4.0523
2.40965
1.15848
0.451123
0.15748
0.0568923
0.0576354
0.214001
0.775848
1.8802
3.17822
4.14412
6.29707
4.24137
2.40017
1.10522
0.402523
0.128269
0.0337149
0.00813112
0.0147887
0.0918945
0.410888
1.15798
2.20615
3.12077
4.75306
2.8345
1.42677
0.648752
0.273304
0.0939266
0.0231526
0.00444329
0.00617126
0.0421946
0.19934
0.623993
1.35153
2.18234
3.7186
2.32798
1.39166
0.77495
0.350499
0.122184
0.0334185
0.0121376
0.0113996
0.0327205
0.124693
0.381336
0.877287
1.57794
3.53954
2.67693
1.95377
1.20147
0.587784
0.22215
0.0767045
0.0450399
0.0459425
0.070246
0.140915
0.327403
0.696229
1.27724
3.79726
3.30539
2.71965
1.88729
1.0303
0.437967
0.186354
0.141302
0.163123
0.230326
0.344209
0.565019
0.93129
1.48714
4.31194
4.11488
3.68784
2.86508
1.77057
0.860768
0.425526
0.359973
0.447843
0.634864
0.892646
1.26587
1.73484
2.34309
4.78665
4.90548
4.73862
4.0341
2.81392
1.5725
0.870391
0.760153
0.969837
1.36015
1.84244
2.43084
3.01844
3.70322
5.61732
5.90473
5.89229
5.34141
4.13993
2.64755
1.61473
1.37379
1.68786
2.29161
2.96997
3.74805
4.46709
5.22729
6.36511
6.93756
7.05607
6.63353
5.58526
4.04299
2.70968
2.22554
2.44681
3.16706
3.93134
4.84102
5.74583
6.73193
7.713
8.17746
8.12074
7.81256
6.99582
5.52725
4.02421
3.24587
3.23661
3.82174
4.58332
5.61842
6.74175
8.26378
7.33926
6.25825
5.36201
4.35967
3.46902
2.50986
1.71693
1.15217
0.958449
1.27781
2.19913
3.50616
4.83393
6.04727
7.01492
6.14941
5.09015
3.93286
2.77973
1.71257
0.955177
0.526972
0.416444
0.655464
1.4171
2.67402
4.05469
5.12357
6.74072
5.57481
4.22186
2.86931
1.6862
0.829204
0.370338
0.166938
0.13574
0.299246
0.85814
1.94156
3.26498
4.32638
6.16042
4.46225
2.8452
1.55031
0.692581
0.256735
0.0849305
0.0307954
0.0321736
0.121093
0.465757
1.25287
2.3604
3.37168
5.03911
3.06669
1.5721
0.674382
0.245607
0.0777502
0.0195241
0.00443538
0.0079668
0.0505006
0.241388
0.744658
1.58039
2.49704
3.75785
2.05497
0.993421
0.450959
0.184414
0.0603558
0.0140474
0.0025036
0.00332102
0.0233591
0.116107
0.394416
0.94128
1.669
3.02939
1.80273
1.03927
0.535623
0.225091
0.0734944
0.0190427
0.00665737
0.00600959
0.0176334
0.0718618
0.234981
0.586069
1.15448
3.0415
2.17584
1.44505
0.806552
0.358173
0.125572
0.042589
0.0254725
0.0247457
0.0365934
0.0775665
0.196059
0.452889
0.904171
3.38758
2.77322
2.06228
1.27415
0.619333
0.243747
0.106278
0.083504
0.0912623
0.12363
0.186159
0.323839
0.57837
1.01646
3.89736
3.49453
2.89158
2.00677
1.09529
0.490895
0.252206
0.222815
0.264262
0.364768
0.5171
0.764803
1.11327
1.62548
4.39482
4.27044
3.83827
2.95534
1.82832
0.935126
0.534174
0.49476
0.613657
0.852866
1.17795
1.61128
2.09111
2.68459
5.2349
5.1936
4.87836
4.10261
2.88239
1.68935
1.03731
0.942283
1.16368
1.58255
2.10159
2.71671
3.28695
3.90709
5.87207
6.04974
5.8919
5.32906
4.19787
2.81228
1.8528
1.59846
1.84076
2.39591
3.0305
3.76463
4.37994
5.01049
6.85538
6.88135
6.77369
6.49423
5.62092
4.22704
3.00707
2.48991
2.57259
3.095
3.73705
4.52966
5.16956
5.93595
6.07652
5.15065
4.27442
3.36328
2.5403
1.74473
1.11289
0.691465
0.50014
0.550643
0.954091
1.7346
2.76327
3.90047
5.27962
4.45202
3.50414
2.55411
1.69454
0.984681
0.53301
0.280331
0.197297
0.249075
0.545487
1.22123
2.22902
3.2867
4.62481
3.46645
2.40288
1.50665
0.832502
0.392513
0.171722
0.0773838
0.0568199
0.100252
0.305059
0.839616
1.72904
2.72399
3.74511
2.37996
1.34904
0.671214
0.286703
0.103677
0.0339877
0.0125805
0.0112459
0.0360554
0.157765
0.519571
1.20213
2.0601
2.76408
1.49357
0.712667
0.303067
0.116503
0.0381716
0.00970309
0.00196965
0.00224612
0.0146346
0.0814483
0.30392
0.777441
1.4688
2.06332
1.09123
0.547365
0.256622
0.103172
0.0330461
0.00773321
0.00125598
0.000949554
0.0072588
0.0421274
0.16379
0.457267
0.952673
1.87369
1.13268
0.639738
0.31015
0.12374
0.0390225
0.00998613
0.0031083
0.00229966
0.00604262
0.0274375
0.101094
0.281877
0.621566
2.14833
1.47822
0.890203
0.45215
0.18573
0.0622115
0.0209519
0.0118903
0.0104922
0.0138108
0.0296307
0.0820794
0.208991
0.457497
2.59397
1.93828
1.27776
0.697557
0.305627
0.115056
0.0519532
0.0403167
0.0404753
0.0492724
0.0697341
0.122561
0.232902
0.449869
3.08316
2.52077
1.82188
1.0871
0.522993
0.22529
0.124989
0.112321
0.123345
0.155241
0.205582
0.296455
0.438195
0.689075
3.5972
3.15051
2.45965
1.61182
0.864749
0.423909
0.268968
0.261205
0.305645
0.396477
0.523311
0.703963
0.922257
1.24787
4.32551
3.87766
3.21145
2.31329
1.39944
0.771608
0.524953
0.521295
0.629088
0.821133
1.07007
1.37671
1.68042
2.06447
4.9217
4.57021
4.02228
3.17999
2.1728
1.34014
0.946044
0.917542
1.09217
1.39844
1.77056
2.20141
2.57081
2.97276
5.64238
5.2114
4.82545
4.16115
3.18177
2.19018
1.59888
1.47799
1.63921
2.01226
2.44564
2.9644
3.38038
3.85765
4.28396
3.44457
2.71662
1.99462
1.3576
0.844865
0.507354
0.305925
0.206694
0.176614
0.257382
0.534175
1.0918
1.96827
3.19313
2.35519
1.70256
1.11479
0.662891
0.356698
0.188518
0.102764
0.0709136
0.0696091
0.127705
0.336291
0.808722
1.57635
2.29786
1.44398
0.877412
0.483213
0.239919
0.105768
0.0463285
0.0230278
0.017044
0.0230259
0.06469
0.219294
0.596157
1.23861
1.56468
0.830389
0.411485
0.181783
0.0721691
0.0245702
0.00789385
0.00324404
0.00290113
0.00675373
0.0315981
0.130847
0.39518
0.887235
1.09275
0.546119
0.25672
0.111801
0.0433
0.0138034
0.00331044
0.000605733
0.000450879
0.00253944
0.0164576
0.0765735
0.248077
0.599216
0.922255
0.497859
0.253048
0.113831
0.0427174
0.0127209
0.00277889
0.000422185
0.000184577
0.00128452
0.00906714
0.0426015
0.144963
0.373179
0.988462
0.58235
0.301924
0.13248
0.0480827
0.0139195
0.00329914
0.000959869
0.000607997
0.00121289
0.00611679
0.027108
0.0900445
0.234958
1.27018
0.775819
0.408228
0.180774
0.0660593
0.0202618
0.00659818
0.00374828
0.00308557
0.00340594
0.00676943
0.0211979
0.0635939
0.162774
1.64011
1.05381
0.581075
0.267192
0.102224
0.0360432
0.017004
0.0136051
0.0128142
0.0138213
0.0174492
0.0302848
0.063043
0.14043
2.0877
1.43568
0.841155
0.41164
0.171351
0.0718976
0.0440578
0.0410701
0.0423091
0.0482899
0.0580599
0.0789737
0.115523
0.196447
2.54407
1.86517
1.16765
0.617678
0.28559
0.141326
0.102435
0.103738
0.114598
0.137644
0.169536
0.217955
0.277826
0.391287
3.09718
2.37194
1.59533
0.927574
0.481336
0.27059
0.213883
0.225144
0.26107
0.323846
0.406224
0.51069
0.614806
0.780085
3.62162
2.89962
2.11768
1.36571
0.794598
0.492263
0.405239
0.430298
0.50879
0.639028
0.801749
0.992466
1.16076
1.37963
4.25783
3.50606
2.78734
1.99179
1.28841
0.85801
0.710677
0.741773
0.860965
1.07542
1.3273
1.61668
1.86496
2.16211
2.54039
1.79727
1.27252
0.820089
0.501022
0.293406
0.178401
0.112096
0.0771322
0.0564158
0.0562519
0.11213
0.296579
0.723804
1.52118
0.905895
0.555565
0.311235
0.166698
0.0870166
0.0491164
0.030453
0.0222781
0.0187055
0.0229667
0.0616203
0.199399
0.545676
0.873458
0.424083
0.209107
0.0959789
0.042626
0.0183809
0.00900888
0.00559198
0.00453611
0.00473837
0.00948674
0.0375389
0.139676
0.404164
0.530894
0.234066
0.100761
0.0409751
0.0153365
0.00507345
0.00161012
0.000733462
0.000656507
0.000980835
0.00398009
0.0213656
0.0884711
0.272926
0.409179
0.198558
0.0937242
0.0408246
0.0151847
0.00453872
0.00101905
0.000174692
7.67797e-05
0.000267225
0.00202538
0.0123759
0.0539963
0.174723
0.411035
0.220997
0.107823
0.0451653
0.0157567
0.00440659
0.000921984
0.000135826
2.80236e-05
0.000120214
0.00115541
0.00726279
0.0317129
0.105367
0.492134
0.26746
0.125308
0.0499907
0.016663
0.00449333
0.000986121
0.000244209
0.000123296
0.000152737
0.000798824
0.00470282
0.0200853
0.0655082
0.649147
0.345639
0.158768
0.0618812
0.0203007
0.00568072
0.00170082
0.000908035
0.00071073
0.000651482
0.00101874
0.00356573
0.0134809
0.0428233
0.860143
0.463007
0.213059
0.0830142
0.0277812
0.00906564
0.00436027
0.0035855
0.00327815
0.00315671
0.00337122
0.00533065
0.0120965
0.0326104
1.15187
0.638876
0.301051
0.120733
0.0436245
0.0181258
0.0123892
0.0120866
0.0120328
0.0124872
0.0133891
0.0164481
0.022645
0.0413723
1.48902
0.857954
0.419921
0.177995
0.0724767
0.0383777
0.0322686
0.0341454
0.036296
0.0402401
0.0456119
0.0545181
0.0648758
0.0920553
1.91033
1.15401
0.602199
0.278746
0.129653
0.0810561
0.0749391
0.0826191
0.0926174
0.108229
0.128529
0.15442
0.177689
0.226229
2.36667
1.51646
0.867391
0.447568
0.234845
0.162081
0.155729
0.174973
0.203864
0.247572
0.302056
0.366768
0.422395
0.507131
2.96508
2.05415
1.30661
0.752905
0.432134
0.309029
0.295059
0.330757
0.391174
0.487376
0.602535
0.73752
0.859459
1.00371
1.21002
0.690504
0.410923
0.23061
0.126212
0.0699267
0.043369
0.0297394
0.0221959
0.0162145
0.0121492
0.0180025
0.0556205
0.185526
0.569703
0.250182
0.118999
0.0548466
0.0254524
0.0129217
0.00825356
0.00634031
0.00532796
0.00443663
0.00395462
0.00864082
0.035265
0.135061
0.260797
0.0957446
0.0360059
0.0131668
0.00480313
0.00196461
0.00116482
0.000986378
0.000944546
0.000891211
0.0012243
0.00489366
0.0240702
0.0968628
0.163878
0.0656405
0.0260834
0.010005
0.00342396
0.000994922
0.00027245
0.000125917
0.000121868
0.000145176
0.000403238
0.00263834
0.0147169
0.0624278
0.152995
0.0726198
0.0327018
0.0129462
0.00427171
0.00113124
0.000227691
3.58531e-05
1.27362e-05
2.48258e-05
0.000184736
0.0014841
0.00864407
0.0378411
0.171574
0.0856896
0.0375365
0.0141099
0.00442842
0.0011229
0.000216349
3.03916e-05
4.81498e-06
8.02147e-06
9.50016e-05
0.000850768
0.00503118
0.0218274
0.21285
0.101206
0.0417195
0.014746
0.00437642
0.00106061
0.000211057
4.77503e-05
2.24383e-05
1.82774e-05
6.28637e-05
0.00051488
0.00307536
0.0133106
0.282182
0.127993
0.050054
0.0167559
0.00476425
0.00117355
0.000325594
0.000176207
0.000138756
0.000114172
0.000117788
0.000373522
0.00189514
0.00808769
0.385585
0.170115
0.0640413
0.020565
0.00577869
0.00170514
0.000875463
0.00077233
0.000702868
0.000629212
0.000563916
0.000705985
0.00158994
0.00542426
0.541716
0.238087
0.0887132
0.028372
0.0085824
0.00359862
0.00285415
0.00294949
0.00287721
0.002782
0.00266129
0.00287773
0.003481
0.00643065
0.737959
0.327659
0.12347
0.0410323
0.0146686
0.00877923
0.00859855
0.00947082
0.0097646
0.0101305
0.0105019
0.0116068
0.0126489
0.0170184
0.996226
0.459755
0.183124
0.0669751
0.0291057
0.0215219
0.0228295
0.0260069
0.0282054
0.0312133
0.0347409
0.0396656
0.0434102
0.0535431
1.3027
0.645999
0.283474
0.118072
0.0603448
0.0492897
0.0536367
0.0623216
0.0708671
0.0830218
0.0975381
0.115118
0.129416
0.153893
1.7878
0.998758
0.493382
0.230637
0.127654
0.105277
0.113343
0.132562
0.156295
0.192496
0.235421
0.286641
0.333638
0.388679
0.449684
0.195416
0.0934264
0.0451992
0.0224084
0.0120112
0.00763537
0.00560053
0.00456186
0.00360313
0.0025054
0.00251789
0.00759576
0.0336219
0.158826
0.052584
0.0191637
0.00710967
0.00284776
0.0014237
0.00101576
0.000907906
0.000880563
0.00080524
0.00064681
0.000992824
0.00467583
0.0247095
0.0605912
0.0185441
0.00577863
0.00177063
0.000548318
0.000194207
0.000113859
0.000113185
0.000130231
0.000135674
0.000142597
0.000480532
0.00309128
0.0173466
0.0461055
0.0175732
0.00659651
0.00233552
0.000709771
0.000175058
3.69286e-05
1.33788e-05
1.45567e-05
1.79741e-05
3.21254e-05
0.000224395
0.00173677
0.0103943
0.0508176
0.0221771
0.00887014
0.00306818
0.000878944
0.000201872
3.50939e-05
4.62801e-06
1.37786e-06
2.02886e-06
1.08172e-05
0.000114164
0.000920451
0.00564787
0.0597272
0.0259372
0.00984397
0.00320744
0.000871999
0.00019164
3.20571e-05
3.90521e-06
4.83526e-07
4.24612e-07
4.85271e-06
6.18427e-05
0.000514005
0.00305839
0.0761139
0.0308397
0.0108288
0.00326019
0.000823283
0.000169764
2.86238e-05
5.42994e-06
2.25407e-06
1.57445e-06
3.62269e-06
3.78936e-05
0.000315185
0.00184162
0.104883
0.0399095
0.0130652
0.00366513
0.000868339
0.000177654
4.19767e-05
2.11656e-05
1.58461e-05
1.2428e-05
1.09751e-05
3.02575e-05
0.00019814
0.00112999
0.148475
0.0541892
0.0168861
0.00447683
0.00102643
0.000253164
0.000124183
0.000108029
9.3766e-05
8.12313e-05
6.98365e-05
7.87891e-05
0.000174407
0.00075006
0.214456
0.0768659
0.023447
0.00612253
0.00151118
0.00058097
0.000476647
0.000486882
0.000454126
0.000428687
0.000400929
0.000421478
0.000474537
0.000874903
0.296949
0.10592
0.0322359
0.00868665
0.00265884
0.00164586
0.00169742
0.00185139
0.00183541
0.00187607
0.00191875
0.0021032
0.00219575
0.00276526
0.413098
0.151117
0.0478709
0.0142649
0.00576245
0.00473508
0.00530945
0.00602987
0.00633911
0.00698112
0.00774541
0.0088344
0.00937279
0.0109787
0.569973
0.223727
0.0771422
0.0266044
0.0135697
0.0126746
0.0146488
0.0171309
0.0190838
0.0225092
0.0266956
0.0315855
0.0345641
0.039454
0.858597
0.385715
0.148136
0.0575439
0.0327339
0.0312079
0.0360927
0.04307
0.0505733
0.0634745
0.0793549
0.0974658
0.111119
0.1249
0.112413
0.0357218
0.0129173
0.00511357
0.00237378
0.00141731
0.00107494
0.000886734
0.000728857
0.000533671
0.000320238
0.000240202
0.000754032
0.00452454
0.0291163
0.0073588
0.0019706
0.000548483
0.000195485
0.000118569
0.000108334
0.000108666
0.000105178
8.88643e-05
6.0676e-05
7.95192e-05
0.000483849
0.00352194
0.011365
0.00309336
0.000835293
0.000227693
6.0495e-05
1.75825e-05
9.68538e-06
1.01968e-05
1.16656e-05
1.14705e-05
9.76438e-06
3.48192e-05
0.000317042
0.00247509
0.0112241
0.00390066
0.00130018
0.000389515
9.77505e-05
1.98142e-05
3.38234e-06
9.94163e-07
1.00278e-06
1.15088e-06
1.64408e-06
1.41155e-05
0.000159915
0.00137768
0.0140495
0.00533877
0.00180005
0.000519891
0.000124019
2.38469e-05
3.52498e-06
4.0065e-07
8.41664e-08
9.26312e-08
3.67184e-07
5.84478e-06
7.2303e-05
0.000645213
0.0178438
0.00657396
0.0021018
0.000572736
0.000129603
2.37856e-05
3.38661e-06
3.67816e-07
4.37721e-08
2.03942e-08
1.06352e-07
2.26859e-06
3.16663e-05
0.000293613
0.0236817
0.00814332
0.00241891
0.000612561
0.000129632
2.24031e-05
3.1912e-06
5.37166e-07
2.3377e-07
1.63923e-07
1.45855e-07
9.82658e-07
1.41225e-05
0.000137708
0.032985
0.0105741
0.00292074
0.000691036
0.000137739
2.35803e-05
4.71592e-06
2.33347e-06
1.88058e-06
1.54526e-06
1.20261e-06
1.32812e-06
6.75746e-06
6.44501e-05
0.0467677
0.0141722
0.00369338
0.000823996
0.000158678
3.31707e-05
1.54301e-05
1.40712e-05
1.30174e-05
1.16932e-05
9.851e-06
9.1009e-06
1.08071e-05
4.11826e-05
0.0678427
0.0199065
0.00503462
0.00109893
0.000230454
8.29575e-05
7.06573e-05
7.58167e-05
7.45885e-05
7.20333e-05
6.58685e-05
6.45414e-05
6.11622e-05
8.07514e-05
0.094746
0.0272521
0.00681378
0.00153904
0.000429837
0.000279706
0.000302946
0.00034587
0.000358381
0.000369818
0.000366588
0.000379498
0.000363824
0.000394383
0.133802
0.0387615
0.00999708
0.00257366
0.00106816
0.000967391
0.00113617
0.0013493
0.00147002
0.00161697
0.00173022
0.00186964
0.0018469
0.00194999
0.19415
0.0594251
0.0164319
0.00514015
0.00295983
0.0030806
0.00373494
0.00456918
0.00523287
0.00612402
0.00701127
0.00788613
0.00808256
0.00843889
0.323094
0.112006
0.0338013
0.0123308
0.00825044
0.00886994
0.0108606
0.013592
0.016353
0.0202985
0.0246676
0.0290047
0.0311638
0.0324122
0.0209611
0.00521779
0.001487
0.00051644
0.000264327
0.000197767
0.000175999
0.000159498
0.00013967
0.000108516
6.77931e-05
4.01246e-05
7.43265e-05
0.000516762
0.00489089
0.0010595
0.00022949
5.43823e-05
1.96088e-05
1.41597e-05
1.48689e-05
1.62835e-05
1.68029e-05
1.50982e-05
1.05789e-05
8.94213e-06
4.51899e-05
0.00042944
0.00276799
0.000744098
0.000196704
5.04397e-05
1.17373e-05
2.71127e-06
1.21811e-06
1.29223e-06
1.54347e-06
1.59208e-06
1.30025e-06
2.6784e-06
2.92701e-05
0.000310914
0.00343794
0.00111619
0.000333129
8.68833e-05
1.88395e-05
3.30686e-06
4.82773e-07
1.15732e-07
1.09682e-07
1.29318e-07
1.43754e-07
9.06657e-07
1.40631e-05
0.000168791
0.00435216
0.00147808
0.000438158
0.000110599
2.30468e-05
3.88156e-06
5.06606e-07
5.10298e-08
8.43356e-09
8.07793e-09
1.79452e-08
3.23339e-07
5.92606e-06
7.49935e-05
0.00552438
0.00179418
0.000503164
0.000119598
2.35633e-05
3.76812e-06
4.71337e-07
4.58319e-08
4.89552e-09
1.80105e-09
3.70342e-09
1.03476e-07
2.31644e-06
3.19899e-05
0.00733029
0.00221391
0.000576052
0.000127261
2.34727e-05
3.5385e-06
4.42018e-07
6.56121e-08
2.66983e-08
1.76777e-08
1.23487e-08
4.37203e-08
9.31996e-07
1.41806e-05
0.0101594
0.00284255