/*--------------------------------*- C++ -*----------------------------------*\
| =========                 |                                                 |
| \\      /  F ield         | OpenFOAM: The Open Source CFD Toolbox           |
|  \\    /   O peration     | Version:  v2106                                 |
|   \\  /    A nd           | Website:  www.openfoam.com                      |
|    \\/     M anipulation  |                                                 |
\*---------------------------------------------------------------------------*/
FoamFile
{
    version     2.0;
    format      ascii;
    arch        "LSB;label=32;scalar=64";
    class       volScalarField;
    location    "0.000142";
    object      p;
}
// * * * * * * * * * * * * * * * * * * * * * * * * * * * * * * * * * * * * * //

dimensions      [1 -1 -2 0 0 0 0];

internalField   nonuniform List<scalar> 
144746
(
200999
201134
201018
200884
200787
200799
200925
201111
201263
201471
201612
201797
202049
202128
200992
201186
201100
201134
201064
201128
201318
201479
201667
201857
202000
202145
202317
202392
200692
201065
201122
201270
201353
201446
201655
201790
202000
202152
202272
202368
202521
202478
200432
200849
201062
201268
201455
201646
201902
202073
202272
202404
202515
202588
202692
202559
200147
200612
200966
201234
201504
201752
202033
202231
202445
202581
202685
202723
202745
202537
199880
200395
200826
201147
201475
201771
202087
202311
202517
202655
202735
202767
202727
202511
199758
200241
200656
201047
201433
201776
202087
202341
202539
202678
202754
202775
202683
202463
199573
200104
200629
201051
201433
201777
202066
202307
202505
202646
202738
202687
202642
202399
199510
200072
200611
201049
201456
201778
202046
202264
202459
202594
202686
202630
202635
202374
199620
200192
200691
201114
201481
201772
202011
202217
202395
202531
202628
202586
202612
202365
199849
200486
200947
201288
201558
201798
201993
202163
202350
202495
202592
202594
202650
202478
200265
200771
201107
201389
201553
201731
201871
202053
202214
202359
202459
202508
202579
202452
200711
201329
201529
201713
201724
201774
201797
201925
202096
202275
202448
202556
202652
202723
200914
201470
201487
201605
201482
201482
201435
201577
201721
201921
202115
202324
202438
202526
199995
200567
200712
200788
201096
201331
201767
202095
202286
202237
202007
201638
201250
200964
199512
200200
200350
200788
201220
201611
202197
202461
202693
202703
202511
202265
201961
201741
199593
200290
200588
201017
201540
201917
202423
202634
202950
203007
202906
202761
202549
202351
199840
200392
200805
201166
201698
202116
202613
202861
203155
203245
203182
203029
202882
202705
200129
200555
200980
201408
201873
202260
202673
202897
203250
203362
203409
203346
203291
203059
200008
200549
201005
201469
201869
202295
202658
202981
203272
203432
203468
203419
203342
203216
200148
200486
200893
201376
201795
202273
202608
202987
203264
203463
203559
203569
203530
203387
199694
200084
200652
201182
201702
202185
202557
202914
203171
203372
203492
203529
203536
203329
199490
199729
200306
200835
201577
202003
202438
202800
203047
203237
203352
203378
203375
203098
199600
199538
200067
200618
201390
201835
202267
202628
202847
203029
203109
203132
203109
202737
199607
199419
199894
200353
201117
201640
202081
202402
202624
202781
202818
202817
202758
202318
199869
199361
199685
200142
200905
201491
201903
202182
202306
202421
202383
202309
202170
201606
200161
199723
199836
200184
200759
201394
201754
202037
202102
202134
202046
201883
201744
201349
199824
199421
199340
199745
200264
201038
201383
201790
201882
201958
201892
201788
201498
200970
196627
198336
199294
200438
201957
203074
204340
205021
205450
205312
204643
203640
202156
200640
196729
198382
199380
200714
202158
203348
204701
205448
206009
205999
205438
204600
203579
202614
198034
199540
200732
201863
203024
203966
205042
205757
206378
206525
206307
205717
204978
203956
199395
200433
201494
202359
203451
204367
205401
206068
206692
206922
206820
206286
205757
204759
200472
201360
202335
203155
204036
204784
205587
206250
206875
207219
207306
207017
206670
205801
201281
202064
202806
203491
204261
204947
205761
206379
206965
207371
207481
207346
206997
206383
201480
202187
202884
203571
204363
205030
205806
206422
207001
207494
207729
207758
207512
207097
201269
201839
202505
203251
204178
204909
205727
206376
206880
207369
207628
207661
207517
207164
200377
201038
201761
202660
203815
204607
205474
206212
206671
207148
207362
207340
207184
206793
199177
200003
200856
202043
203292
204310
205153
205932
206322
206756
206842
206770
206455
206019
198019
198824
199842
201244
202557
203804
204722
205493
205836
206082
205973
205828
205319
204940
197267
197653
198838
200450
201948
203286
204215
204885
205125
205324
205079
204884
204232
203428
196808
197106
198294
199732
201214
202664
203705
204252
204311
204264
203804
203426
202816
201891
195960
196058
197156
198875
200598
202033
203076
203544
203641
203484
202943
202524
201764
200316
202305
202283
202395
202272
202318
202239
202406
202200
202249
202007
202157
202235
202495
202292
202351
202118
202195
202274
202496
202226
202224
202010
202090
202232
202442
202138
202122
201933
201992
202146
202384
202032
202014
201822
201920
201991
202341
201970
201959
201765
201878
201872
202306
201959
201964
201746
201825
201741
202332
202059
202111
201891
201992
201926
202364
202090
202187
201996
202221
202272
202520
202385
202533
202451
202665
202616
202565
202509
202708
202615
202789
202691
202821
202773
202911
202797
202932
202800
202579
202485
202627
202447
202649
202597
201209
200935
201269
200872
201312
200880
201736
201525
201995
201797
202328
202396
202344
202264
202684
202596
203163
203460
202814
202780
203164
203150
203807
204114
203114
202990
203370
203430
204116
204384
203244
203014
203399
203405
204068
204164
203354
202975
203202
203046
203587
203542
203318
202754
202855
202495
202872
202523
203084
202435
202404
201712
202043
201367
202761
201732
201700
200938
201304
200375
202242
201268
201283
200374
200757
199650
201541
200630
200770
199971
200453
199523
201433
200797
201044
200470
200942
200287
200816
200338
200718
200465
201084
200635
199874
198131
196780
194479
193817
189139
201127
199389
198703
197316
197182
194100
202483
200904
200306
199445
199583
198014
203599
202265
201975
201314
201533
200579
204878
203663
203324
202552
202705
201696
205759
204821
204266
203150
202882
201191
206474
205615
204833
203101
202074
199002
206567
205495
204478
202200
200509
195917
206107
204611
203196
200132
198131
191765
205173
203264
201669
198336
196136
188603
204088
201839
200146
196614
194658
186036
202664
200157
198504
195132
193514
184885
201682
199163
197760
194792
193383
185824
199173
196821
196105
194143
193390
187613
202657
202724
202724
202585
202615
202539
202354
202054
202122
201960
202140
202182
202290
202021
201992
201791
201822
201929
201957
201653
201629
201483
201547
201675
201753
201378
201373
201200
201302
201377
201579
201179
201200
201027
201188
201144
201497
201064
201102
200911
201018
200998
201403
201020
201093
200832
201005
201127
201553
201246
201384
201268
201490
201503
201666
201531
201737
201662
201908
201953
201937
201847
202120
202091
202310
202326
201925
201847
202173
202147
202379
202421
202020
201906
202232
202230
202468
202596
201258
201121
201536
201656
201970
202277
201440
201336
201677
201427
201902
201701
201695
201783
202336
202231
202730
202860
202029
202150
202654
202703
203276
203562
202085
202174
202738
202808
203509
203754
201988
201934
202526
202610
203378
203501
201900
201737
202225
202185
202941
202947
201828
201456
201858
201677
202347
201984
201362
200865
201191
200770
201497
201142
201076
200316
200707
200182
200886
200338
200425
199756
200196
199708
200467
200202
200111
199550
200160
199896
200594
200659
199898
199578
200267
200223
200953
201072
200365
200347
201075
201218
201985
202202
200286
200384
201480
201891
202599
203072
199892
198703
197577
195914
195546
191616
200410
199314
199089
198074
198064
195809
201252
200237
200133
199562
199747
198582
201918
201184
201246
200668
200914
199892
202678
201951
201794
200945
200996
199490
203113
202383
202033
200686
200255
197578
202863
201829
201273
199573
198773
194535
202391
201167
200210
198030
197057
191686
201166
199632
198790
196602
195914
189527
199890
198249
197547
195374
195048
188692
198504
196860
196519
194696
194675
189506
197172
195757
195689
194505
194771
191289
197054
196088
196235
195666
196098
194340
196090
195466
196273
196762
197491
196882
201698
201350
201058
200983
200767
200917
201399
201345
201139
201189
201059
201151
200774
200758
200627
200685
200565
200677
200285
200243
200136
200233
200163
200316
199678
199651
199500
199607
199567
199924
199122
199096
198953
199121
199162
199608
198898
198819
198739
198934
199037
199488
198959
198868
198792
198913
198943
199304
199211
199161
199037
199014
198973
199225
199687
199469
199343
199274
199150
199326
200279
199903
199782
199643
199522
199554
200834
200361
200292
200145
200009
200081
201291
200960
200853
200745
200454
200354
201712
201484
201451
201455
201450
201383
202201
201633
200880
200293
199512
199542
201222
201024
200283
200192
199716
199940
200012
199973
199347
199426
199107
199578
199602
199606
199064
199282
199060
199706
199329
199660
199036
199408
199230
199907
199441
199872
199257
199572
199309
199841
200225
200339
199718
199926
199706
200002
201150
201180
200579
200440
199885
199755
202383
202069
201354
200947
200131
199693
203378
202867
202107
201538
200494
199902
204175
203496
202646
201916
200748
199990
204461
203661
202945
202196
201088
200345
204435
203512
202889
202171
201243
200292
203862
203129
202685
202202
201768
201305
194374
195562
194932
194810
194365
195366
191393
193999
193862
194861
195229
196763
188242
192322
192445
194217
194960
197106
186249
191813
192373
194751
195888
198212
185322
191732
192845
195641
197175
199269
186195
192470
194106
196875
198329
200120
188643
193912
195410
197761
199247
200702
192019
195911
197025
198832
199652
200646
195690
197783
198170
199135
199215
199820
198982
199429
199037
199086
198502
198707
201073
200412
199326
198645
197718
197578
202066
200702
199431
198340
197444
197045
201748
200199
198972
197782
196815
196063
200330
199280
198611
198077
197910
197228
202035
202137
201938
202093
201974
202031
201898
202054
201875
201966
201862
201967
201642
201715
201513
201598
201503
201636
201206
201170
200955
201093
201068
201397
200673
200625
200513
200719
200882
201214
200331
200252
200224
200461
200634
200994
200140
200151
200128
200287
200437
200832
200296
200127
200059
200163
200268
200625
200602
200209
200122
200129
200179
200478
200931
200349
200274
200210
200215
200471
201242
200619
200531
200401
200391
200518
201483
200930
200851
200734
200693
200782
201644
201273
201145
200933
200742
200855
201573
201446
201446
201539
201488
201310
199470
200016
199458
199938
199758
200447
198932
199806
199392
200086
200064
201105
198163
199317
198986
199938
200142
201268
198508
199590
199345
200286
200561
201704
199385
200107
199873
200636
201000
201877
200546
200960
200698
201145
201369
201960
201798
201809
201465
201559
201527
201836
203169
202789
202227
202017
201578
201512
204150
203564
202810
202264
201534
201202
204889
203968
203176
202405
201575
201136
205163
204073
203304
202275
201388
200784
204851
203799
203158
202150
201408
200829
204368
203222
202670
201730
200947
200384
203199
202509
202191
201903
201533
201037
184586
191071
192137
194616
195793
198649
182744
190849
192763
196261
198243
201238
181789
190844
193102
196976
199332
202182
183187
192024
194693
198629
201046
203337
185986
193685
196451
200029
202230
204142
189622
196050
198585
201624
203402
204691
193887
198398
200247
202462
203629
204548
197948
200402
201262
202580
203062
203867
200761
201702
201575
201900
201777
202405
202795
202249
201432
201047
200690
201077
203337
202029
200891
199870
199341
199484
202723
201038
199996
198990
198483
198518
201261
199777
198717
197708
197087
197003
197984
198037
197727
197832
197928
197503
200197
201485
202707
204089
206074
207827
209898
211244
212194
212476
212100
210950
209522
207961
200574
201819
203190
204718
206528
208047
209929
211144
212046
212382
212092
211291
210054
208860
202488
203684
204884
206088
207458
208603
210058
211128
211982
212497
212501
212017
211027
210384
204290
204985
205954
206832
207955
208884
210125
211065
211835
212348
212444
212193
211468
210841
205852
206420
207121
207690
208511
209257
210245
211068
211839
212443
212733
212725
212443
211837
206780
207204
207675
208109
208730
209364
210215
210940
211665
212274
212630
212787
212793
212386
206946
207350
207751
208172
208756
209394
210186
210899
211639
212362
212840
213246
213392
213371
206045
206387
206994
207698
208513
209247
210064
210798
211445
212220
212712
213223
213492
213654
204735
205175
205950
206968
207978
208912
209800
210623
211247
212049
212508
213063
213335
213601
203114
203756
204866
206337
207507
208747
209675
210505
211024
211757
212059
212594
212708
213045
201381
202139
203606
205480
206806
208340
209406
210265
210635
211198
211332
211760
211701
212024
200262
200887
202518
204647
206302
208057
209179
209954
210174
210617
210449
210647
210441
210576
199368
200109
201698
203939
205704
207661
208900
209565
209467
209649
209246
209302
208871
208978
198833
199387
201019
203652
205596
207415
208625
209148
208877
208754
207978
208054
207320
207123
202546
203961
205553
207088
209284
211090
213312
214851
215916
216532
216450
215621
214306
212902
203764
204882
206438
208004
209836
211263
213104
214453
215381
215922
215838
215289
214242
213163
206097
206893
207973
209067
210486
211629
213053
214189
215074
215721
215899
215632
214862
214256
208056
208423
209253
210019
211052
211882
213031
214041
214840
215425
215666
215635
215055
214724
209743
209812
210246
210664
211444
212134
213105
213967
214762
215413
215821
216035
215841
215606
210611
210586
210795
211083
211675
212250
213069
213819
214563
215216
215664
215972
216164
216040
210644
210696
210848
211146
211676
212271
213008
213718
214459
215172
215734
216257
216662
216929
209688
209831
210169
210724
211383
212103
212845
213568
214261
215027
215616
216288
216781
217244
207962
208484
209165
210045
210881
211772
212586
213357
214037
214831
215407
216164
216691
217399
206344
207103
208154
209417
210488
211568
212469
213238
213828
214545
215024
215768
216154
217036
204135
205193
206847
208502
209883
211147
212171
212957
213425
214051
214413
215040
215294
216213
202679
203668
205711
207670
209456
210973
212076
212807
213113
213537
213616
213999
214095
214805
201310
202474
204705
206931
209009
210777
211968
212611
212605
212829
212581
212755
212637
213292
200229
201631
204046
206813
209119
210929
212053
212525
212229
212041
211457
211592
211064
211445
208099
209456
211025
212244
214031
215592
217484
218902
219943
220763
221019
220653
219555
218566
209855
210503
211823
212965
214466
215621
217170
218403
219348
219959
220166
219978
219277
218536
211781
212156
213029
213811
214920
215838
217047
218069
218976
219626
220008
220047
219635
219360
213553
213552
214065
214508
215364
216039
216985
217881
218687
219283
219681
219876
219716
219494
214719
214516
214788
215029
215680
216198
217001
217769
218540
219189
219693
220105
220215
220318
215346
215103
215154
215297
215792
216244
216951
217624
218341
218997
219532
220040
220325
220692
215184
215067
215112
215317
215754
216229
216867
217503
218193
218869
219463
220085
220637
221193
214276
214331
214541
214964
215451
216045
216684
217329
217986
218687
219311
220066
220702
221409
212756
213198
213710
214393
215006
215735
216438
217122
217768
218488
219092
219906
220585
221531
211376
212053
212923
213849
214691
215518
216291
216977
217556
218231
218767
219582
220149
221280
209391
210495
211852
213031
214178
215154
216038
216752
217279
217895
218328
219050
219500
220695
208050
209214
211017
212454
213921
215073
216007
216677
217039
217494
217783
218317
218604
219670
206531
207935
210173
211830
213638
215000
216010
216637
216812
217110
217057
217373
217463
218369
205289
207343
209809
211940
213961
215340
216262
216705
216609
216604
216468
216651
216311
216849
212595
213765
215128
216214
217744
218970
220504
221693
222637
223398
223884
223731
223071
222255
214433
214760
215989
216812
218055
218996
220204
221227
222076
222636
222976
222980
222555
222095
215985
216191
217022
217563
218450
219144
220080
220926
221717
222326
222777
222981
222788
222922
217546
217364
217813
218059
218741
219255
220021
220748
221458
222036
222453
222788
222810
223056
218437
218170
218402
218481
218992
219375
220009
220642
221313
221934
222430
222957
223214
223621
218832
218577
218632
218672
219060
219393
219955
220509
221136
221752
222287
222834
223306
223759
218636
218482
218495
218633
218980
219338
219856
220379
220986
221611
222180
222806
223436
224124
217837
217868
218006
218286
218665
219127
219660
220198
220776
221417
222011
222752
223446
224225
216610
216908
217287
217793
218248
218832
219412
219992
220565
221227
221811
222594
223310
224294
215307
215895
216610
217323
217963
218641
219278
219863
220370
220981
221513
222302
222912
224072
213522
214511
215659
216645
217539
218336
219036
219630
220097
220664
221131
221855
222367
223624
212372
213482
214989
216219
217380
218321
219065
219622
219959
220336
220714
221287
221675
222850
210933
212363
214282
215724
217138
218237
219015
219539
219772
220068
220149
220540
220806
221809
209858
212114
214175
215905
217458
218577
219266
219646
219670
219742
219785
219942
219910
220585
216863
217789
219102
219943
221197
222126
223253
224195
224908
225533
225989
225978
225516
224866
218431
218716
219694
220414
221448
222178
223052
223793
224447
224921
225206
225239
224942
224788
220006
220021
220745
221098
221779
222287
222933
223583
224166
224686
225079
225319
225226
225344
220994
220791
221264
221411
221977
222372
222935
223458
223990
224497
224857
225194
225328
225561
221715
221508
221769
221755
222184
222460
222933
223405
223913
224442
224873
225333
225636
226070
221969
221768
221871
221867
222203
222457
222898
223317
223796
224312
224775
225282
225728
226255
221733
221633
221675
221781
222094
222372
222791
223198
223672
224195
224690
225256
225791
226525
221143
221153
221265
221467
221795
222154
222583
223011
223473
223996
224505
225153
225803
226568
220142
220339
220652
221032
221419
221860
222321
222782
223252
223796
224303
224986
225661
226565
219072
219500
220054
220615
221130
221652
222147
222607
223026
223541
224010
224698
225270
226327
217552
218321
219187
219984
220687
221310
221862
222340
222738
223214
223629
224277
224768
225934
216515
217542
218677
219672
220557
221291
221857
222296
222561
222896
223243
223763
224139
225230
215220
216423
217897
219139
220214
221121
221733
222145
222357
222602
222729
223061
223402
224342
214437
216254
217895
219367
220509
221407
221932
222220
222311
222390
222412
222619
222693
223224
220401
221298
222482
223196
224183
224837
225594
226241
226735
227215
227572
227641
227291
226868
221847
222077
222931
223526
224295
224863
225448
225923
226378
226741
226952
226994
226819
226711
223170
223109
223747
224020
224536
224895
225333
225790
226171
226565
226867
227060
227026
227078
224010
223750
224191
224286
224714
224988
225374
225717
226065
226448
226736
227024
227197
227400
224520
224311
224571
224541
224871
225054
225391
225704
226044
226442
226790
227163
227433
227771
224635
224490
224610
224607
224870
225055
225376
225656
225979
226361
226724
227148
227542
228028
224349
224309
224390
224500
224755
224970
225281
225561
225888
226285
226686
227165
227618
228277
223896
223926
224058
224235
224503
224771
225088
225391
225720
226120
226531
227060
227619
228291
223066
223243
223550
223839
224170
224491
224830
225159
225503
225917
226328
226893
227491
228273
222211
222560
223051
223488
223906
224278
224634
224956
225267
225660
226045
226621
227147
228053
220996
221615
222342
222932
223470
223916
224327
224676
224988
225355
225689
226241
226683
227716
220115
220952
221909
222641
223341
223855
224268
224568
224766
225028
225315
225756
226119
227148
218996
219998
221165
222073
222962
223627
224096
224402
224581
224790
224914
225163
225431
226317
218337
219880
221187
222272
223169
223807
224208
224439
224532
224627
224604
224695
224841
225310
223484
224322
225223
225866
226594
227126
227693
228155
228508
228865
229119
229219
229032
228696
224783
224957
225656
226169
226732
227163
227565
227910
228212
228472
228607
228657
228582
228480
225915
225807
226335
226549
226935
227181
227512
227825
228051
228326
228529
228687
228684
228700
226571
226356
226749
226786
227113
227301
227568
227790
227989
228247
228441
228662
228816
228997
226942
226803
227028
226994
227250
227367
227596
227794
227993
228261
228516
228804
229031
229302
227013
226936
227044
227057
227258
227383
227601
227775
227966
228228
228495
228829
229142
229551
226741
226753
226862
226966
227164
227319
227537
227719
227922
228202
228503
228879
229252
229794
226357
226410
226571
226725
226940
227144
227377
227587
227804
228096
228407
228819
229268
229821
225665
225852
226145
226364
226635
226884
227138
227374
227611
227920
228242
228700
229200
229856
224975
225283
225702
226053
226391
226671
226934
227170
227396
227694
227995
228467
228932
229689
223984
224499
225071
225556
225976
226320
226634
226906
227148
227427
227687
228146
228528
229387
223201
223903
224686
225290
225834
226221
226524
226752
226919
227130
227344
227724
228025
228912
222302
223073
224037
224784
225480
225984
226345
226586
226735
226882
226999
227228
227453
228210
221662
222936
224066
224968
225642
226097
226400
226584
226643
226693
226672
226754
226868
227368
226220
226811
227461
228009
228552
228994
229447
229814
230091
230363
230552
230671
230582
230326
227255
227350
227888
228265
228687
229025
229326
229621
229831
230029
230110
230149
230123
230031
228137
228022
228446
228579
228876
229050
229316
229554
229691
229882
230008
230127
230145
230125
228629
228474
228791
228797
229047
229177
229370
229535
229648
229811
229920
230071
230198
230340
228902
228824
229010
228989
229181
229255
229411
229546
229656
229826
229994
230204
230393
230619
228950
228933
229032
229057
229202
229283
229428
229543
229656
229834
230022
230269
230510
230847
228697
228761
228879
228982
229133
229243
229395
229520
229650
229845
230059
230346
230643
231069
228330
228439
228620
228768
228941
229100
229276
229429
229579
229792
230026
230341
230693
231138
227767
227968
228234
228441
228668
228877
229079
229259
229429
229665
229917
230283
230685
231214
227180
227474
227855
228159
228448
228681
228892
229079
229250
229483
229717
230101
230495
231111
226394
226850
227326
227731
228081
228365
228621
228842
229027
229248
229455
229834
230148
230861
225742
226336
226987
227516
227951
228250
228485
228672
228814
228981
229157
229483
229721
230475
225008
225726
226501
227115
227660
228046
228328
228519
228633
228741
228857
229075
229267
229921
224496
225594
226584
227300
227785
228110
228343
228482
228524
228514
228535
228626
228744
229231
228581
228952
229434
229851
230254
230613
230991
231302
231543
231794
231971
232125
232103
231908
229407
229393
229796
230047
230357
230604
230864
231130
231291
231484
231555
231607
231605
231542
230075
229935
230244
230310
230527
230654
230855
231049
231148
231321
231411
231517
231555
231546
230424
230294
230512
230493
230670
230757
230900
231031
231102
231232
231299
231407
231508
231613
230598
230554
230679
230657
230790
230833
230945
231044
231106
231230
231337
231488
231642
231836
230584
230610
230694
230718
230818
230865
230967
231054
231129
231262
231395
231578
231777
232033
230380
230453
230557
230655
230772
230850
230960
231058
231151
231299
231457
231677
231917
232220
230036
230177
230347
230493
230636
230761
230896
231016
231130
231299
231475
231717
232002
232354
229573
229788
230007
230231
230432
230608
230768
230911
231044
231231
231424
231714
232036
232454
229082
229386
229708
230009
230265
230467
230639
230788
230925
231110
231297
231615
231938
232434
228492
228898
229319
229677
229990
230232
230439
230609
230752
230931
231105
231427
231698
232285
227957
228502
229077
229531
229890
230134
230322
230468
230581
230722
230875
231174
231389
232033
227441
228091
228736
229258
229689
229985
230194
230334
230422
230516
230636
230867
231057
231645
227128
228085
228876
229423
229786
230031
230196
230285
230308
230304
230361
230484
230631
231103
200920
201725
201777
202228
203620
205540
199675
200080
201080
202729
204861
206951
201473
201638
202603
204201
206516
209139
203042
203127
204288
206106
208774
211516
205556
205706
206870
208529
211093
213769
207771
208148
209288
210567
213160
215715
209963
210392
211192
212021
214456
217019
211459
211849
212265
212947
215244
217864
212235
212276
212014
212096
214009
217015
212097
211769
211073
211057
212915
216438
211322
210506
209550
209314
211364
215079
210000
208763
207889
207755
209889
213772
208892
207248
206588
206654
208728
212442
206363
204954
205182
205826
207809
210808
202464
202551
202146
202311
203334
204898
201599
201047
201097
202146
203922
206415
203608
202820
202735
203803
205834
208540
205633
204896
205159
206520
208970
211651
208616
208112
208747
210137
212879
215222
211032
211239
212442
213905
216679
218606
213584
214093
215324
216876
219753
221566
215424
216356
217583
218804
221282
223131
216509
217302
218252
219617
222140
223861
216760
217361
218038
219257
221608
223642
216359
216576
216936
218119
220389
222664
215269
215176
215409
216425
218409
220744
214062
213606
213671
214429
216018
217968
211920
211072
211437
212122
213207
214384
207352
206603
205692
204883
204990
205730
207216
205775
204827
204558
205261
206829
209099
207450
206382
206339
207124
209130
210884
209457
208778
209203
210371
212732
213532
212635
212503
213251
214655
217122
215563
215376
216004
217350
219123
221502
217896
218419
219526
220884
222789
225131
219612
220690
222058
223629
225397
227508
220780
222069
223330
224815
226566
228671
221398
222462
223458
224829
226377
228354
221247
222020
222605
223669
224975
226765
220465
220755
221029
221855
222845
224316
219495
219359
219212
219429
219897
220830
217553
216963
216616
216635
216677
217017
211241
210203
208589
207100
206210
205778
211709
210169
208615
207174
206455
206574
213546
211858
210260
209097
208579
209006
215022
213692
212559
211979
211926
212796
217316
216512
216087
215996
216449
217548
219061
218886
219224
219814
220963
222375
221009
221515
222498
223560
224946
226463
222457
223514
224838
226308
227936
229469
223475
224808
226223
227844
229501
231101
224145
225428
226655
228244
229749
231306
224236
225306
226229
227497
228586
229897
223706
224320
224823
225803
226550
227582
223316
223539
223634
223622
223555
223861
221462
221165
220631
220395
219972
219721
215388
214378
212220
210282
208401
207231
216012
214580
212672
210837
208783
207934
217679
216377
214437
212799
211092
210623
218876
217831
216620
215610
214601
214644
220793
220152
219628
219209
218916
219324
222204
222101
222291
222534
223018
223876
223728
224184
224963
225854
226922
228046
224859
225785
226959
228276
229689
231057
225614
226801
228143
229707
231276
232864
226244
227398
228617
230148
231608
233316
226367
227368
228342
229573
230691
232134
225983
226600
227136
227877
228615
229678
225673
226184
226196
226204
226082
226343
224265
224027
223499
223178
222594
222269
218918
217717
215761
213807
211731
209839
219788
218056
216457
214382
212235
210398
221121
219742
218151
216336
214424
212956
222162
221081
220058
218914
217689
216816
223655
223094
222545
221996
221511
221185
224739
224700
224761
224905
225106
225481
225909
226317
226940
227674
228539
229470
226760
227558
228579
229770
231066
232343
227314
228331
229555
231025
232564
234142
227823
228846
230031
231550
233051
234773
227917
228852
229855
231186
232416
233935
227675
228371
229004
229812
230603
231681
227317
227895
228192
228398
228528
228841
226668
226586
226137
225843
225427
225094
222194
221083
219500
217745
215890
214039
223111
221691
219870
218208
216148
214105
224218
222996
221476
219800
218005
216164
225138
224152
223103
222015
220854
219670
226296
225752
225256
224700
224153
223658
227087
227013
227111
227161
227276
227399
227945
228294
228843
229446
230144
230882
228585
229265
230159
231211
232362
233511
229010
229879
230962
232285
233696
235161
229388
230301
231386
232792
234234
235890
229444
230307
231262
232542
233796
235383
229277
229958
230612
231466
232303
233479
229011
229589
229908
230319
230664
231163
228649
228748
228486
228351
228131
227890
225047
224207
223027
221607
220113
218465
225932
224621
223375
221715
220072
218143
226735
225724
224582
223080
221396
219652
227526
226726
225872
224790
223651
222507
228377
227969
227585
227024
226451
225883
229023
228977
229050
229100
229136
229168
229672
229988
230465
231021
231574
232168
230184
230781
231557
232491
233468
234466
230547
231308
232260
233427
234670
235962
230833
231656
232630
233885
235199
236686
230881
231654
232536
233724
234915
236411
230778
231411
232064
232947
233809
234987
230562
231120
231503
231988
232442
233135
230393
230622
230545
230582
230541
230530
227593
226984
226149
225160
223995
222689
228291
227271
226291
225108
223658
222201
228850
228057
227128
226014
224611
223213
229491
228890
228212
227373
226343
225346
230136
229848
229553
229145
228637
228135
230677
230695
230787
230860
230899
230903
231209
231538
231982
232493
232985
233470
231663
232229
232944
233777
234621
235468
231996
232717
233599
234643
235735
236841
232240
233019
233946
235072
236248
237532
232347
233072
233908
234998
236098
237418
232314
232957
233608
234475
235320
236446
232158
232719
233166
233701
234182
234875
232100
232439
232494
232698
232831
233039
207278
206675
206215
206394
207836
210347
206981
205977
205891
206402
207854
210229
208316
207267
206758
207232
208545
210991
209019
208293
208019
208791
210379
212500
210707
209961
209830
210674
212414
214479
211895
211449
211609
212296
214115
216315
213175
212968
213270
213778