/*--------------------------------*- C++ -*----------------------------------*\
| =========                 |                                                 |
| \\      /  F ield         | OpenFOAM: The Open Source CFD Toolbox           |
|  \\    /   O peration     | Version:  v2106                                 |
|   \\  /    A nd           | Website:  www.openfoam.com                      |
|    \\/     M anipulation  |                                                 |
\*---------------------------------------------------------------------------*/
FoamFile
{
    version     2.0;
    format      ascii;
    arch        "LSB;label=32;scalar=64";
    class       volScalarField;
    location    "0.000149";
    object      alphat;
}
// * * * * * * * * * * * * * * * * * * * * * * * * * * * * * * * * * * * * * //

dimensions      [1 -1 -1 0 0 0 0];

internalField   nonuniform List<scalar> 
17924
(
9.73629e-17
9.73669e-17
9.7374e-17
9.7381e-17
9.7047e-17
9.70474e-17
9.70495e-17
9.7052e-17
9.70544e-17
9.70566e-17
9.70586e-17
9.70605e-17
9.70605e-17
9.70626e-17
9.70649e-17
9.70672e-17
9.70694e-17
9.70712e-17
9.70734e-17
9.70735e-17
9.70757e-17
9.70779e-17
9.70802e-17
9.70822e-17
9.70839e-17
9.70873e-17
9.70873e-17
9.70891e-17
9.70911e-17
9.70932e-17
9.7095e-17
9.70966e-17
9.71007e-17
9.7101e-17
9.71026e-17
9.71045e-17
9.71063e-17
9.71079e-17
9.71094e-17
9.71144e-17
9.71151e-17
9.71165e-17
9.71181e-17
9.71196e-17
9.7121e-17
9.71223e-17
9.71279e-17
9.7129e-17
9.71302e-17
9.71316e-17
9.7133e-17
9.71342e-17
9.71354e-17
9.71415e-17
9.71428e-17
9.71438e-17
9.7145e-17
9.71462e-17
9.71474e-17
9.71485e-17
9.71548e-17
9.71561e-17
9.71569e-17
9.71581e-17
9.71592e-17
9.71604e-17
9.71615e-17
9.71677e-17
9.71691e-17
9.71696e-17
9.71707e-17
9.71719e-17
9.71731e-17
9.71743e-17
9.71799e-17
9.71814e-17
9.71818e-17
9.7183e-17
9.71842e-17
9.71856e-17
9.71869e-17
9.71919e-17
9.71933e-17
9.71937e-17
9.71949e-17
9.71962e-17
9.71977e-17
9.71993e-17
9.72032e-17
9.72045e-17
9.72053e-17
9.72065e-17
9.7208e-17
9.72097e-17
9.72116e-17
9.72156e-17
9.72162e-17
9.72168e-17
9.7218e-17
9.72198e-17
9.72218e-17
9.7224e-17
9.67461e-17
9.6745e-17
9.6744e-17
9.6743e-17
9.6742e-17
9.67408e-17
9.67395e-17
9.67382e-17
9.67368e-17
9.67355e-17
9.6734e-17
9.67327e-17
9.67312e-17
9.6731e-17
9.67544e-17
9.67526e-17
9.67516e-17
9.67505e-17
9.67494e-17
9.67481e-17
9.67468e-17
9.67454e-17
9.6744e-17
9.67426e-17
9.67411e-17
9.67397e-17
9.67382e-17
9.6738e-17
9.67619e-17
9.67602e-17
9.67592e-17
9.6758e-17
9.67568e-17
9.67555e-17
9.67541e-17
9.67527e-17
9.67513e-17
9.67499e-17
9.67483e-17
9.67469e-17
9.67452e-17
9.67448e-17
9.677e-17
9.67683e-17
9.67671e-17
9.67658e-17
9.67645e-17
9.67631e-17
9.67616e-17
9.67601e-17
9.67586e-17
9.67571e-17
9.67555e-17
9.67541e-17
9.67523e-17
9.67516e-17
9.6778e-17
9.67763e-17
9.6775e-17
9.67736e-17
9.67722e-17
9.67707e-17
9.67692e-17
9.67677e-17
9.67661e-17
9.67646e-17
9.6763e-17
9.67615e-17
9.67597e-17
9.67585e-17
9.6786e-17
9.67843e-17
9.6783e-17
9.67815e-17
9.678e-17
9.67785e-17
9.67769e-17
9.67754e-17
9.67738e-17
9.67723e-17
9.67706e-17
9.6769e-17
9.67671e-17
9.67655e-17
9.67937e-17
9.67922e-17
9.67908e-17
9.67893e-17
9.67878e-17
9.67862e-17
9.67847e-17
9.67831e-17
9.67816e-17
9.67799e-17
9.67783e-17
9.67765e-17
9.67745e-17
9.67725e-17
9.68012e-17
9.67998e-17
9.67984e-17
9.67969e-17
9.67955e-17
9.67939e-17
9.67924e-17
9.67908e-17
9.67893e-17
9.67876e-17
9.67859e-17
9.67839e-17
9.67819e-17
9.67795e-17
9.68082e-17
9.6807e-17
9.68056e-17
9.68042e-17
9.68028e-17
9.68013e-17
9.67999e-17
9.67983e-17
9.67968e-17
9.6795e-17
9.67933e-17
9.67911e-17
9.6789e-17
9.67864e-17
9.68148e-17
9.68137e-17
9.68123e-17
9.6811e-17
9.68097e-17
9.68083e-17
9.6807e-17
9.68055e-17
9.6804e-17
9.68022e-17
9.68004e-17
9.67981e-17
9.67959e-17
9.6793e-17
9.68208e-17
9.68199e-17
9.68186e-17
9.68174e-17
9.68162e-17
9.6815e-17
9.68138e-17
9.68124e-17
9.6811e-17
9.68092e-17
9.68073e-17
9.68049e-17
9.68026e-17
9.67995e-17
9.68266e-17
9.68256e-17
9.68244e-17
9.68234e-17
9.68224e-17
9.68214e-17
9.68204e-17
9.68191e-17
9.68178e-17
9.6816e-17
9.68141e-17
9.68116e-17
9.68092e-17
9.6806e-17
9.68322e-17
9.68311e-17
9.68301e-17
9.68292e-17
9.68285e-17
9.68277e-17
9.68268e-17
9.68257e-17
9.68245e-17
9.68227e-17
9.68208e-17
9.68182e-17
9.68157e-17
9.68124e-17
9.68381e-17
9.68367e-17
9.68356e-17
9.68349e-17
9.68344e-17
9.68339e-17
9.68333e-17
9.68324e-17
9.68314e-17
9.68297e-17
9.68279e-17
9.68253e-17
9.68229e-17
9.68197e-17
9.64444e-17
9.64409e-17
9.64378e-17
9.64347e-17
9.64318e-17
9.64289e-17
9.64262e-17
9.64235e-17
9.64209e-17
9.64182e-17
9.64155e-17
9.64127e-17
9.641e-17
9.64074e-17
9.64477e-17
9.64441e-17
9.64411e-17
9.6438e-17
9.6435e-17
9.64321e-17
9.64293e-17
9.64266e-17
9.64238e-17
9.6421e-17
9.64182e-17
9.64154e-17
9.64126e-17
9.64101e-17
9.64508e-17
9.64473e-17
9.64443e-17
9.64411e-17
9.64381e-17
9.64352e-17
9.64325e-17
9.64297e-17
9.6427e-17
9.64242e-17
9.64214e-17
9.64186e-17
9.64156e-17
9.64131e-17
9.64539e-17
9.64506e-17
9.64475e-17
9.64445e-17
9.64415e-17
9.64386e-17
9.64359e-17
9.64331e-17
9.64304e-17
9.64275e-17
9.64247e-17
9.64218e-17
9.64188e-17
9.64163e-17
9.6457e-17
9.64538e-17
9.64508e-17
9.64479e-17
9.64449e-17
9.64421e-17
9.64393e-17
9.64366e-17
9.64339e-17
9.6431e-17
9.64282e-17
9.64252e-17
9.64222e-17
9.64195e-17
9.646e-17
9.6457e-17
9.64541e-17
9.64512e-17
9.64484e-17
9.64456e-17
9.64429e-17
9.64401e-17
9.64374e-17
9.64345e-17
9.64317e-17
9.64287e-17
9.64257e-17
9.64228e-17
9.64628e-17
9.646e-17
9.64572e-17
9.64545e-17
9.64517e-17
9.6449e-17
9.64463e-17
9.64436e-17
9.64408e-17
9.6438e-17
9.64351e-17
9.6432e-17
9.6429e-17
9.64261e-17
9.64654e-17
9.64628e-17
9.64602e-17
9.64575e-17
9.64549e-17
9.64522e-17
9.64496e-17
9.64469e-17
9.64441e-17
9.64412e-17
9.64383e-17
9.64352e-17
9.64322e-17
9.64291e-17
9.64678e-17
9.64654e-17
9.64629e-17
9.64603e-17
9.64578e-17
9.64552e-17
9.64526e-17
9.64499e-17
9.64472e-17
9.64443e-17
9.64413e-17
9.64382e-17
9.64351e-17
9.64319e-17
9.647e-17
9.64678e-17
9.64654e-17
9.6463e-17
9.64605e-17
9.6458e-17
9.64555e-17
9.64528e-17
9.645e-17
9.64471e-17
9.64441e-17
9.64408e-17
9.64378e-17
9.64345e-17
9.64721e-17
9.647e-17
9.64677e-17
9.64654e-17
9.64631e-17
9.64607e-17
9.64582e-17
9.64555e-17
9.64527e-17
9.64497e-17
9.64466e-17
9.64433e-17
9.64402e-17
9.64368e-17
9.64742e-17
9.64721e-17
9.647e-17
9.64678e-17
9.64656e-17
9.64632e-17
9.64608e-17
9.64581e-17
9.64552e-17
9.64522e-17
9.6449e-17
9.64456e-17
9.64424e-17
9.64389e-17
9.64763e-17
9.64741e-17
9.64722e-17
9.64701e-17
9.64681e-17
9.64658e-17
9.64634e-17
9.64607e-17
9.64578e-17
9.64546e-17
9.64514e-17
9.64478e-17
9.64445e-17
9.64409e-17
9.64785e-17
9.64763e-17
9.64744e-17
9.64724e-17
9.64705e-17
9.64683e-17
9.64659e-17
9.64632e-17
9.64604e-17
9.64572e-17
9.6454e-17
9.64503e-17
9.64471e-17
9.64432e-17
9.61315e-17
9.61268e-17
9.61227e-17
9.61189e-17
9.61156e-17
9.61126e-17
9.61097e-17
9.6107e-17
9.61044e-17
9.61017e-17
9.60992e-17
9.60966e-17
9.60943e-17
9.60919e-17
9.61311e-17
9.61267e-17
9.61229e-17
9.61192e-17
9.61159e-17
9.61127e-17
9.61098e-17
9.61069e-17
9.61042e-17
9.61014e-17
9.60988e-17
9.60962e-17
9.60938e-17
9.60916e-17
9.61308e-17
9.61267e-17
9.61228e-17
9.61192e-17
9.61159e-17
9.61128e-17
9.61099e-17
9.6107e-17
9.61043e-17
9.61016e-17
9.6099e-17
9.60964e-17
9.6094e-17
9.60916e-17
9.61306e-17
9.61266e-17
9.61229e-17
9.61194e-17
9.61162e-17
9.61131e-17
9.61102e-17
9.61074e-17
9.61046e-17
9.61019e-17
9.60992e-17
9.60966e-17
9.60942e-17
9.60919e-17
9.61304e-17
9.61266e-17
9.6123e-17
9.61197e-17
9.61165e-17
9.61135e-17
9.61106e-17
9.61078e-17
9.6105e-17
9.61023e-17
9.60996e-17
9.6097e-17
9.60946e-17
9.60923e-17
9.61302e-17
9.61266e-17
9.61232e-17
9.61199e-17
9.61168e-17
9.61139e-17
9.61111e-17
9.61083e-17
9.61055e-17
9.61028e-17
9.61001e-17
9.60975e-17
9.60951e-17
9.60928e-17
9.613e-17
9.61266e-17
9.61233e-17
9.61202e-17
9.61172e-17
9.61143e-17
9.61115e-17
9.61087e-17
9.6106e-17
9.61032e-17
9.61006e-17
9.6098e-17
9.60956e-17
9.60934e-17
9.61299e-17
9.61267e-17
9.61235e-17
9.61204e-17
9.61175e-17
9.61146e-17
9.61119e-17
9.61091e-17
9.61064e-17
9.61036e-17
9.6101e-17
9.60984e-17
9.60961e-17
9.60939e-17
9.61299e-17
9.61268e-17
9.61237e-17
9.61207e-17
9.61179e-17
9.6115e-17
9.61123e-17
9.61095e-17
9.61068e-17
9.6104e-17
9.61014e-17
9.60989e-17
9.60966e-17
9.60944e-17
9.613e-17
9.6127e-17
9.61241e-17
9.61212e-17
9.61183e-17
9.61155e-17
9.61127e-17
9.611e-17
9.61072e-17
9.61044e-17
9.61018e-17
9.60993e-17
9.6097e-17
9.60949e-17
9.61304e-17
9.61274e-17
9.61246e-17
9.61217e-17
9.61189e-17
9.61161e-17
9.61133e-17
9.61105e-17
9.61076e-17
9.61049e-17
9.61022e-17
9.60997e-17
9.60974e-17
9.60952e-17
9.61309e-17
9.6128e-17
9.61252e-17
9.61224e-17
9.61196e-17
9.61167e-17
9.61139e-17
9.6111e-17
9.61082e-17
9.61054e-17
9.61027e-17
9.61001e-17
9.60978e-17
9.60956e-17
9.61317e-17
9.61286e-17
9.6126e-17
9.61232e-17
9.61205e-17
9.61176e-17
9.61148e-17
9.61118e-17
9.61089e-17
9.6106e-17
9.61032e-17
9.61005e-17
9.60981e-17
9.60959e-17
9.61327e-17
9.61296e-17
9.61268e-17
9.6124e-17
9.61213e-17
9.61185e-17
9.61156e-17
9.61126e-17
9.61097e-17
9.61067e-17
9.61039e-17
9.61011e-17
9.60988e-17
9.60963e-17
9.58151e-17
9.58104e-17
9.58066e-17
9.58032e-17
9.58002e-17
9.57976e-17
9.57952e-17
9.5793e-17
9.57911e-17
9.57893e-17
9.57879e-17
9.57865e-17
9.57856e-17
9.57846e-17
9.58124e-17
9.58083e-17
9.58047e-17
9.58013e-17
9.57983e-17
9.57956e-17
9.57932e-17
9.57909e-17
9.57889e-17
9.57871e-17
9.57856e-17
9.57842e-17
9.57831e-17
9.57823e-17
9.58102e-17
9.58063e-17
9.58026e-17
9.57993e-17
9.57963e-17
9.57936e-17
9.57911e-17
9.57889e-17
9.57869e-17
9.57851e-17
9.57837e-17
9.57824e-17
9.57814e-17
9.57805e-17
9.58082e-17
9.58044e-17
9.58008e-17
9.57975e-17
9.57945e-17
9.57918e-17
9.57894e-17
9.57871e-17
9.57851e-17
9.57834e-17
9.5782e-17
9.57807e-17
9.57798e-17
9.5779e-17
9.58065e-17
9.58028e-17
9.57991e-17
9.57958e-17
9.57928e-17
9.57902e-17
9.57877e-17
9.57855e-17
9.57836e-17
9.57819e-17
9.57805e-17
9.57793e-17
9.57785e-17
9.57778e-17
9.58051e-17
9.58013e-17
9.57977e-17
9.57945e-17
9.57915e-17
9.57888e-17
9.57864e-17
9.57842e-17
9.57823e-17
9.57806e-17
9.57793e-17
9.57782e-17
9.57775e-17
9.57769e-17
9.58039e-17
9.58002e-17
9.57966e-17
9.57933e-17
9.57903e-17
9.57876e-17
9.57853e-17
9.57831e-17
9.57812e-17
9.57796e-17
9.57783e-17
9.57773e-17
9.57767e-17
9.57762e-17
9.58029e-17
9.57993e-17
9.57958e-17
9.57925e-17
9.57895e-17
9.57869e-17
9.57845e-17
9.57823e-17
9.57805e-17
9.57789e-17
9.57776e-17
9.57766e-17
9.57761e-17
9.57757e-17
9.58023e-17
9.57987e-17
9.57952e-17
9.5792e-17
9.57891e-17
9.57864e-17
9.5784e-17
9.57818e-17
9.578e-17
9.57784e-17
9.57772e-17
9.57762e-17
9.57757e-17
9.57753e-17
9.5802e-17
9.57985e-17
9.57951e-17
9.57919e-17
9.5789e-17
9.57863e-17
9.57839e-17
9.57817e-17
9.57798e-17
9.57783e-17
9.5777e-17
9.57761e-17
9.57756e-17
9.57752e-17
9.5802e-17
9.57986e-17
9.57953e-17
9.57922e-17
9.57893e-17
9.57866e-17
9.57841e-17
9.57819e-17
9.578e-17
9.57784e-17
9.57772e-17
9.57762e-17
9.57757e-17
9.57753e-17
9.58023e-17
9.5799e-17
9.57958e-17
9.57927e-17
9.57898e-17
9.57871e-17
9.57846e-17
9.57824e-17
9.57804e-17
9.57788e-17
9.57775e-17
9.57765e-17
9.57759e-17
9.57756e-17
9.58031e-17
9.57996e-17
9.57966e-17
9.57935e-17
9.57907e-17
9.5788e-17
9.57855e-17
9.57832e-17
9.57811e-17
9.57794e-17
9.5778e-17
9.5777e-17
9.57762e-17
9.57759e-17
9.58044e-17
9.58006e-17
9.57974e-17
9.57943e-17
9.57915e-17
9.57888e-17
9.57863e-17
9.5784e-17
9.57819e-17
9.57801e-17
9.57787e-17
9.57775e-17
9.57767e-17
9.57762e-17
9.55126e-17
9.55088e-17
9.55058e-17
9.5503e-17
9.55007e-17
9.54986e-17
9.54969e-17
9.54956e-17
9.54946e-17
9.54939e-17
9.54936e-17
9.54935e-17
9.54938e-17
9.54939e-17
9.55096e-17
9.55063e-17
9.55033e-17
9.55005e-17
9.5498e-17
9.54958e-17
9.5494e-17
9.54926e-17
9.54916e-17
9.5491e-17
9.54907e-17
9.54907e-17
9.54909e-17
9.5491e-17
9.5507e-17
9.55038e-17
9.55006e-17
9.54977e-17
9.54952e-17
9.5493e-17
9.54912e-17
9.54898e-17
9.54888e-17
9.54881e-17
9.54879e-17
9.5488e-17
9.54884e-17
9.54887e-17
9.55047e-17
9.55015e-17
9.54982e-17
9.54953e-17
9.54927e-17
9.54904e-17
9.54886e-17
9.54872e-17
9.54863e-17
9.54857e-17
9.54855e-17
9.54857e-17
9.54862e-17
9.54866e-17
9.55028e-17
9.54994e-17
9.54961e-17
9.54931e-17
9.54904e-17
9.54882e-17
9.54864e-17
9.5485e-17
9.5484e-17
9.54835e-17
9.54835e-17
9.54838e-17
9.54844e-17
9.5485e-17
9.55012e-17
9.54977e-17
9.54944e-17
9.54913e-17
9.54886e-17
9.54863e-17
9.54845e-17
9.54832e-17
9.54822e-17
9.54818e-17
9.54819e-17
9.54822e-17
9.5483e-17
9.54838e-17
9.54999e-17
9.54964e-17
9.5493e-17
9.549e-17
9.54873e-17
9.5485e-17
9.54832e-17
9.54818e-17
9.54809e-17
9.54806e-17
9.54807e-17
9.54811e-17
9.54819e-17
9.54828e-17
9.54991e-17
9.54955e-17
9.54922e-17
9.54891e-17
9.54864e-17
9.54841e-17
9.54823e-17
9.5481e-17
9.54801e-17
9.54798e-17
9.548e-17
9.54804e-17
9.54813e-17
9.54823e-17
9.54986e-17
9.54952e-17
9.54918e-17
9.54888e-17
9.54861e-17
9.54839e-17
9.54821e-17
9.54807e-17
9.54799e-17
9.54796e-17
9.54797e-17
9.54802e-17
9.54811e-17
9.54821e-17
9.54986e-17
9.54953e-17
9.5492e-17
9.5489e-17
9.54864e-17
9.54841e-17
9.54824e-17
9.5481e-17
9.54802e-17
9.54798e-17
9.548e-17
9.54804e-17
9.54813e-17
9.54823e-17
9.5499e-17
9.54958e-17
9.54926e-17
9.54897e-17
9.54871e-17
9.54848e-17
9.54831e-17
9.54817e-17
9.54808e-17
9.54804e-17
9.54805e-17
9.5481e-17
9.54818e-17
9.54827e-17
9.54999e-17
9.54967e-17
9.54936e-17
9.54907e-17
9.54881e-17
9.54859e-17
9.54841e-17
9.54827e-17
9.54818e-17
9.54813e-17
9.54814e-17
9.54818e-17
9.54825e-17
9.54834e-17
9.5501e-17
9.54979e-17
9.5495e-17
9.54922e-17
9.54896e-17
9.54874e-17
9.54855e-17
9.54841e-17
9.54831e-17
9.54825e-17
9.54825e-17
9.54828e-17
9.54834e-17
9.54843e-17
9.55029e-17
9.54993e-17
9.54963e-17
9.54935e-17
9.5491e-17
9.54888e-17
9.5487e-17
9.54855e-17
9.54845e-17
9.54838e-17
9.54836e-17
9.54839e-17
9.54844e-17
9.54853e-17
9.52389e-17
9.52365e-17
9.52344e-17
9.52325e-17
9.52309e-17
9.52295e-17
9.52284e-17
9.52277e-17
9.52273e-17
9.52272e-17
9.52273e-17
9.52278e-17
9.52284e-17
9.5229e-17
9.52369e-17
9.52347e-17
9.52326e-17
9.52306e-17
9.52288e-17
9.52273e-17
9.52261e-17
9.52253e-17
9.5225e-17
9.52249e-17
9.52252e-17
9.52257e-17
9.52263e-17
9.52268e-17
9.52349e-17
9.52328e-17
9.52305e-17
9.52285e-17
9.52267e-17
9.52251e-17
9.5224e-17
9.52232e-17
9.52228e-17
9.52227e-17
9.5223e-17
9.52235e-17
9.52243e-17
9.52249e-17
9.52332e-17
9.5231e-17
9.52287e-17
9.52267e-17
9.52248e-17
9.52232e-17
9.52221e-17
9.52213e-17
9.52209e-17
9.52209e-17
9.52212e-17
9.52218e-17
9.52226e-17
9.52233e-17
9.52318e-17
9.52295e-17
9.52272e-17
9.52251e-17
9.52232e-17
9.52216e-17
9.52204e-17
9.52196e-17
9.52193e-17
9.52193e-17
9.52196e-17
9.52203e-17
9.52212e-17
9.52221e-17
9.52307e-17
9.52283e-17
9.5226e-17
9.52238e-17
9.52219e-17
9.52204e-17
9.52192e-17
9.52184e-17
9.52181e-17
9.52181e-17
9.52185e-17
9.52192e-17
9.52201e-17
9.52211e-17
9.52299e-17
9.52274e-17
9.52251e-17
9.5223e-17
9.52211e-17
9.52195e-17
9.52183e-17
9.52176e-17
9.52172e-17
9.52173e-17
9.52177e-17
9.52184e-17
9.52194e-17
9.52205e-17
9.52294e-17
9.5227e-17
9.52246e-17
9.52225e-17
9.52206e-17
9.52191e-17
9.52179e-17
9.52172e-17
9.52168e-17
9.52169e-17
9.52173e-17
9.52181e-17
9.52191e-17
9.52202e-17
9.52293e-17
9.52269e-17
9.52246e-17
9.52225e-17
9.52206e-17
9.52191e-17
9.52179e-17
9.52172e-17
9.52169e-17
9.5217e-17
9.52174e-17
9.52182e-17
9.52192e-17
9.52203e-17
9.52296e-17
9.52273e-17
9.5225e-17
9.52229e-17
9.52211e-17
9.52195e-17
9.52184e-17
9.52176e-17
9.52173e-17
9.52174e-17
9.52179e-17
9.52186e-17
9.52197e-17
9.52207e-17
9.52302e-17
9.5228e-17
9.52257e-17
9.52237e-17
9.52218e-17
9.52203e-17
9.52192e-17
9.52184e-17
9.52181e-17
9.52182e-17
9.52186e-17
9.52193e-17
9.52204e-17
9.52214e-17
9.52312e-17
9.52291e-17
9.52268e-17
9.52247e-17
9.52229e-17
9.52214e-17
9.52202e-17
9.52195e-17
9.52191e-17
9.52192e-17
9.52196e-17
9.52203e-17
9.52213e-17
9.52223e-17
9.52325e-17
9.52303e-17
9.52282e-17
9.52261e-17
9.52243e-17
9.52227e-17
9.52216e-17
9.52208e-17
9.52204e-17
9.52205e-17
9.52209e-17
9.52215e-17
9.52224e-17
9.52234e-17
9.52342e-17
9.52317e-17
9.52295e-17
9.52274e-17
9.52256e-17
9.52241e-17
9.5223e-17
9.52222e-17
9.52218e-17
9.52218e-17
9.52221e-17
9.52227e-17
9.52236e-17
9.52247e-17
9.49983e-17
9.49975e-17
9.49966e-17
9.49958e-17
9.49951e-17
9.49944e-17
9.49938e-17
9.49933e-17
9.49929e-17
9.49927e-17
9.49926e-17
9.49927e-17
9.49929e-17
9.4993e-17
9.49976e-17
9.49969e-17
9.4996e-17
9.49952e-17
9.49944e-17
9.49937e-17
9.4993e-17
9.49926e-17
9.49922e-17
9.4992e-17
9.49919e-17
9.4992e-17
9.49922e-17
9.49922e-17
9.49969e-17
9.49962e-17
9.49953e-17
9.49945e-17
9.49938e-17
9.49931e-17
9.49925e-17
9.4992e-17
9.49916e-17
9.49914e-17
9.49913e-17
9.49913e-17
9.49915e-17
9.49915e-17
9.49963e-17
9.49956e-17
9.49947e-17
9.4994e-17
9.49933e-17
9.49926e-17
9.4992e-17
9.49915e-17
9.49911e-17
9.49909e-17
9.49908e-17
9.49907e-17
9.49909e-17
9.49909e-17
9.49958e-17
9.49951e-17
9.49943e-17
9.49936e-17
9.49928e-17
9.49922e-17
9.49916e-17
9.49911e-17
9.49907e-17
9.49905e-17
9.49903e-17
9.49903e-17
9.49904e-17
9.49905e-17
9.49955e-17
9.49947e-17
9.4994e-17
9.49933e-17
9.49925e-17
9.49919e-17
9.49913e-17
9.49908e-17
9.49904e-17
9.49902e-17
9.499e-17
9.49899e-17
9.499e-17
9.49901e-17
9.49953e-17
9.49945e-17
9.49938e-17
9.49931e-17
9.49924e-17
9.49917e-17
9.49911e-17
9.49906e-17
9.49902e-17
9.499e-17
9.49898e-17
9.49897e-17
9.49897e-17
9.49898e-17
9.49952e-17
9.49944e-17
9.49937e-17
9.4993e-17
9.49923e-17
9.49916e-17
9.4991e-17
9.49905e-17
9.49902e-17
9.49899e-17
9.49897e-17
9.49896e-17
9.49896e-17
9.49897e-17
9.49953e-17
9.49945e-17
9.49937e-17
9.4993e-17
9.49923e-17
9.49916e-17
9.4991e-17
9.49905e-17
9.49902e-17
9.49899e-17
9.49897e-17
9.49896e-17
9.49897e-17
9.49898e-17
9.49955e-17
9.49947e-17
9.49938e-17
9.49931e-17
9.49924e-17
9.49917e-17
9.49911e-17
9.49906e-17
9.49903e-17
9.499e-17
9.49899e-17
9.49898e-17
9.49899e-17
9.499e-17
9.49958e-17
9.4995e-17
9.49941e-17
9.49933e-17
9.49926e-17
9.49919e-17
9.49913e-17
9.49909e-17
9.49905e-17
9.49903e-17
9.49902e-17
9.49901e-17
9.49903e-17
9.49903e-17
9.49962e-17
9.49954e-17
9.49944e-17
9.49936e-17
9.49928e-17
9.49921e-17
9.49916e-17
9.49911e-17
9.49908e-17
9.49906e-17
9.49906e-17
9.49905e-17
9.49908e-17
9.49908e-17
9.49968e-17
9.4996e-17
9.4995e-17
9.49941e-17
9.49932e-17
9.49925e-17
9.49919e-17
9.49915e-17
9.49912e-17
9.49911e-17
9.49911e-17
9.49912e-17
9.49914e-17
9.49915e-17
9.49973e-17
9.49963e-17
9.49952e-17
9.49943e-17
9.49935e-17
9.49928e-17
9.49923e-17
9.4992e-17
9.49917e-17
9.49916e-17
9.49916e-17
9.49917e-17
9.4992e-17
9.49922e-17
9.47865e-17
9.47871e-17
9.47874e-17
9.47877e-17
9.47878e-17
9.47877e-17
9.47875e-17
9.47871e-17
9.47866e-17
9.4786e-17
9.47853e-17
9.47845e-17
9.47838e-17
9.4783e-17
9.47871e-17
9.47878e-17
9.47881e-17
9.47884e-17
9.47885e-17
9.47885e-17
9.47883e-17
9.47879e-17
9.47874e-17
9.47868e-17
9.47861e-17
9.47853e-17
9.47845e-17
9.47836e-17
9.47876e-17
9.47883e-17
9.47887e-17
9.4789e-17
9.47892e-17
9.47893e-17
9.47892e-17
9.47888e-17
9.47883e-17
9.47876e-17
9.47868e-17
9.47859e-17
9.47851e-17
9.47842e-17
9.47881e-17
9.47888e-17
9.47893e-17
9.47897e-17
9.47899e-17
9.479e-17
9.47899e-17
9.47895e-17
9.4789e-17
9.47883e-17
9.47875e-17
9.47865e-17
9.47856e-17
9.47846e-17
9.47886e-17
9.47893e-17
9.47898e-17
9.47902e-17
9.47905e-17
9.47906e-17
9.47905e-17
9.47901e-17
9.47896e-17
9.47888e-17
9.4788e-17
9.4787e-17
9.47859e-17
9.47849e-17
9.4789e-17
9.47896e-17
9.47902e-17
9.47907e-17
9.47909e-17
9.4791e-17
9.47909e-17
9.47905e-17
9.479e-17
9.47892e-17
9.47883e-17
9.47873e-17
9.47862e-17
9.4785e-17
9.47892e-17
9.47899e-17
9.47905e-17
9.47909e-17
9.47912e-17
9.47913e-17
9.47912e-17
9.47908e-17
9.47902e-17
9.47895e-17
9.47885e-17
9.47875e-17
9.47863e-17
9.47851e-17
9.47893e-17
9.47899e-17
9.47905e-17
9.4791e-17
9.47912e-17
9.47913e-17
9.47912e-17
9.47908e-17
9.47902e-17
9.47895e-17
9.47885e-17
9.47874e-17
9.47862e-17
9.4785e-17
9.47893e-17
9.47898e-17
9.47904e-17
9.47908e-17
9.4791e-17
9.47911e-17
9.4791e-17
9.47906e-17
9.479e-17
9.47893e-17
9.47883e-17
9.47872e-17
9.4786e-17
9.47848e-17
9.4789e-17
9.47896e-17
9.47901e-17
9.47904e-17
9.47906e-17
9.47907e-17
9.47906e-17
9.47902e-17
9.47897e-17
9.47889e-17
9.4788e-17
9.47869e-17
9.47858e-17
9.47845e-17
9.47887e-17
9.47892e-17
9.47896e-17
9.47899e-17
9.47901e-17
9.47901e-17
9.479e-17
9.47896e-17
9.47891e-17
9.47884e-17
9.47875e-17
9.47865e-17
9.47854e-17
9.47842e-17
9.47882e-17
9.47886e-17
9.47889e-17
9.47892e-17
9.47893e-17
9.47894e-17
9.47893e-17
9.47889e-17
9.47884e-17
9.47878e-17
9.4787e-17
9.4786e-17
9.4785e-17
9.47838e-17
9.47875e-17
9.4788e-17
9.47882e-17
9.47884e-17
9.47885e-17
9.47885e-17
9.47884e-17
9.47881e-17
9.47877e-17
9.47871e-17
9.47864e-17
9.47855e-17
9.47846e-17
9.47835e-17
9.47867e-17
9.4787e-17
9.47872e-17
9.47874e-17
9.47875e-17
9.47875e-17
9.47874e-17
9.47872e-17
9.47869e-17
9.47864e-17
9.47858e-17
9.4785e-17
9.47841e-17
9.47831e-17
9.4596e-17
9.45973e-17
9.45984e-17
9.45993e-17
9.45999e-17
9.46002e-17
9.46002e-17
9.45998e-17
9.45992e-17
9.45984e-17
9.45973e-17
9.4596e-17
9.45945e-17
9.4593e-17
9.45973e-17
9.45987e-17
9.45998e-17
9.46008e-17
9.46014e-17
9.46018e-17
9.46018e-17
9.46015e-17
9.46009e-17
9.46e-17
9.45988e-17
9.45975e-17
9.4596e-17
9.45944e-17
9.45985e-17
9.45999e-17
9.46012e-17
9.46022e-17
9.46029e-17
9.46033e-17
9.46034e-17
9.46031e-17
9.46025e-17
9.46015e-17
9.46003e-17
9.45989e-17
9.45973e-17
9.45956e-17
9.45996e-17
9.46011e-17
9.46023e-17
9.46034e-17
9.46041e-17
9.46046e-17
9.46047e-17
9.46044e-17
9.46037e-17
9.46028e-17
9.46016e-17
9.46001e-17
9.45984e-17
9.45967e-17
9.46005e-17
9.4602e-17
9.46033e-17
9.46043e-17
9.46051e-17
9.46056e-17
9.46057e-17
9.46054e-17
9.46048e-17
9.46038e-17
9.46025e-17
9.4601e-17
9.45992e-17
9.45974e-17
9.46011e-17
9.46026e-17
9.4604e-17
9.4605e-17
9.46058e-17
9.46063e-17
9.46064e-17
9.46061e-17
9.46054e-17
9.46044e-17
9.46031e-17
9.46016e-17
9.45998e-17
9.45978e-17
9.46016e-17
9.4603e-17
9.46044e-17
9.46054e-17
9.46062e-17
9.46066e-17
9.46067e-17
9.46064e-17
9.46058e-17
9.46048e-17
9.46035e-17
9.46019e-17
9.46e-17
9.4598e-17
9.46017e-17
9.46031e-17
9.46044e-17
9.46054e-17
9.46062e-17
9.46066e-17
9.46067e-17
9.46064e-17
9.46058e-17
9.46048e-17
9.46034e-17
9.46018e-17
9.45999e-17
9.45978e-17
9.46014e-17
9.46027e-17
9.4604e-17
9.4605e-17
9.46057e-17
9.46062e-17
9.46063e-17
9.4606e-17
9.46053e-17
9.46043e-17
9.4603e-17
9.46014e-17
9.45995e-17
9.45974e-17
9.46008e-17
9.46021e-17
9.46033e-17
9.46043e-17
9.4605e-17
9.46055e-17
9.46055e-17
9.46052e-17
9.46046e-17
9.46036e-17
9.46023e-17
9.46007e-17
9.45988e-17
9.45968e-17
9.45999e-17
9.46011e-17
9.46023e-17
9.46032e-17
9.46039e-17
9.46044e-17
9.46044e-17
9.46042e-17
9.46035e-17
9.46026e-17
9.46013e-17
9.45997e-17
9.45978e-17
9.45959e-17
9.45987e-17
9.45998e-17
9.46009e-17
9.46018e-17
9.46025e-17
9.4603e-17
9.46031e-17
9.46028e-17
9.46022e-17
9.46013e-17
9.46e-17
9.45985e-17
9.45967e-17
9.45948e-17
9.45972e-17
9.45983e-17
9.45993e-17
9.46002e-17
9.46008e-17
9.46013e-17
9.46014e-17
9.46011e-17
9.46006e-17
9.45997e-17
9.45985e-17
9.45971e-17
9.45955e-17
9.45935e-17
9.45954e-17
9.45965e-17
9.45974e-17
9.45983e-17
9.4599e-17
9.45994e-17
9.45995e-17
9.45994e-17
9.45989e-17
9.45981e-17
9.4597e-17
9.45957e-17
9.45941e-17
9.45922e-17
9.44187e-17
9.44203e-17
9.44217e-17
9.44227e-17
9.44235e-17
9.44239e-17
9.4424e-17
9.44237e-17
9.44231e-17
9.44222e-17
9.44211e-17
9.44196e-17
9.44179e-17
9.44162e-17
9.44202e-17
9.44219e-17
9.44232e-17
9.44244e-17
9.44252e-17
9.44257e-17
9.44258e-17
9.44255e-17
9.44249e-17
9.4424e-17
9.44227e-17
9.44212e-17
9.44196e-17
9.44177e-17
9.44216e-17
9.44232e-17
9.44247e-17
9.44259e-17
9.44267e-17
9.44272e-17
9.44273e-17
9.44271e-17
9.44265e-17
9.44256e-17
9.44243e-17
9.44228e-17
9.4421e-17
9.44191e-17
9.44228e-17
9.44245e-17
9.44259e-17
9.44271e-17
9.44279e-17
9.44285e-17
9.44286e-17
9.44284e-17
9.44278e-17
9.44268e-17
9.44256e-17
9.4424e-17
9.44222e-17
9.44202e-17
9.44237e-17
9.44254e-17
9.44269e-17
9.4428e-17
9.44289e-17
9.44294e-17
9.44296e-17
9.44293e-17
9.44287e-17
9.44278e-17
9.44265e-17
9.44249e-17
9.44231e-17
9.44211e-17
9.44243e-17
9.4426e-17
9.44275e-17
9.44286e-17
9.44295e-17
9.443e-17
9.44302e-17
9.443e-17
9.44294e-17
9.44284e-17
9.44271e-17
9.44255e-17
9.44236e-17
9.44215e-17
9.44247e-17
9.44263e-17
9.44278e-17
9.44289e-17
9.44298e-17
9.44303e-17
9.44305e-17
9.44302e-17
9.44296e-17
9.44287e-17
9.44273e-17
9.44257e-17
9.44238e-17
9.44217e-17
9.44246e-17
9.44262e-17
9.44276e-17
9.44288e-17
9.44296e-17
9.44301e-17
9.44303e-17
9.44301e-17
9.44295e-17
9.44285e-17
9.44272e-17
9.44255e-17
9.44236e-17
9.44214e-17
9.44242e-17
9.44257e-17
9.44271e-17
9.44283e-17
9.44291e-17
9.44296e-17
9.44298e-17
9.44295e-17
9.44289e-17
9.4428e-17
9.44266e-17
9.4425e-17
9.4423e-17
9.44209e-17
9.44234e-17
9.44249e-17
9.44263e-17
9.44274e-17
9.44282e-17
9.44287e-17
9.44289e-17
9.44287e-17
9.44281e-17
9.44271e-17
9.44258e-17
9.44241e-17
9.44221e-17
9.442e-17
9.44223e-17
9.44237e-17
9.4425e-17
9.44261e-17
9.44269e-17
9.44275e-17
9.44276e-17
9.44274e-17
9.44268e-17
9.44259e-17
9.44245e-17
9.44229e-17
9.44209e-17
9.44188e-17
9.44208e-17
9.44221e-17
9.44234e-17
9.44245e-17
9.44254e-17
9.44259e-17
9.44261e-17
9.44259e-17
9.44253e-17
9.44243e-17
9.4423e-17
9.44214e-17
9.44195e-17
9.44174e-17
9.4419e-17
9.44203e-17
9.44215e-17
9.44226e-17
9.44234e-17
9.4424e-17
9.44242e-17
9.4424e-17
9.44234e-17
9.44225e-17
9.44213e-17
9.44197e-17
9.44178e-17
9.44158e-17
9.44169e-17
9.44182e-17
9.44194e-17
9.44205e-17
9.44213e-17
9.44219e-17
9.44221e-17
9.44219e-17
9.44214e-17
9.44206e-17
9.44194e-17
9.44179e-17
9.44161e-17
9.44141e-17
9.42496e-17
9.42511e-17
9.42523e-17
9.42534e-17
9.42541e-17
9.42545e-17
9.42546e-17
9.42544e-17
9.42539e-17
9.42531e-17
9.42521e-17
9.42508e-17
9.42492e-17
9.42475e-17
9.42509e-17
9.42525e-17
9.42537e-17
9.42548e-17
9.42555e-17
9.4256e-17
9.42561e-17
9.42559e-17
9.42554e-17
9.42546e-17
9.42535e-17
9.42522e-17
9.42506e-17
9.42489e-17
9.42522e-17
9.42536e-17
9.42549e-17
9.4256e-17
9.42567e-17
9.42572e-17
9.42573e-17
9.42571e-17
9.42567e-17
9.42559e-17
9.42548e-17
9.42534e-17
9.42519e-17
9.42501e-17
9.42532e-17
9.42546e-17
9.42559e-17
9.4257e-17
9.42577e-17
9.42581e-17
9.42583e-17
9.42581e-17
9.42576e-17
9.42568e-17
9.42558e-17
9.42544e-17
9.42529e-17
9.42511e-17
9.42539e-17
9.42554e-17
9.42566e-17
9.42576e-17
9.42584e-17
9.42588e-17
9.42589e-17
9.42588e-17
9.42583e-17
9.42575e-17
9.42565e-17
9.42551e-17
9.42535e-17
9.42518e-17
9.42544e-17
9.42558e-17
9.42571e-17
9.42581e-17
9.42588e-17
9.42592e-17
9.42594e-17
9.42592e-17
9.42587e-17
9.42579e-17
9.42569e-17
9.42556e-17
9.4254e-17
9.42522e-17
9.42545e-17
9.42559e-17
9.42572e-17
9.42582e-17
9.42589e-17
9.42593e-17
9.42594e-17
9.42593e-17
9.42588e-17
9.4258e-17
9.4257e-17
9.42556e-17
9.4254e-17
9.42522e-17
9.42543e-17
9.42557e-17
9.4257e-17
9.42579e-17
9.42586e-17
9.4259e-17
9.42592e-17
9.4259e-17
9.42585e-17
9.42578e-17
9.42567e-17
9.42554e-17
9.42537e-17
9.42519e-17
9.42539e-17
9.42552e-17
9.42564e-17
9.42574e-17
9.42581e-17
9.42585e-17
9.42586e-17
9.42585e-17
9.4258e-17
9.42572e-17
9.42561e-17
9.42548e-17
9.42532e-17
9.42513e-17
9.42531e-17
9.42544e-17
9.42556e-17
9.42565e-17
9.42572e-17
9.42577e-17
9.42578e-17
9.42576e-17
9.42572e-17
9.42564e-17
9.42553e-17
9.42539e-17
9.42523e-17
9.42504e-17
9.4252e-17
9.42532e-17
9.42544e-17
9.42554e-17
9.42561e-17
9.42565e-17
9.42567e-17
9.42565e-17
9.4256e-17
9.42553e-17
9.42542e-17
9.42528e-17
9.42511e-17
9.42493e-17
9.42505e-17
9.42517e-17
9.4253e-17
9.42539e-17
9.42546e-17
9.42551e-17
9.42553e-17
9.42551e-17
9.42547e-17
9.42539e-17
9.42528e-17
9.42514e-17
9.42497e-17
9.42479e-17
9.42488e-17
9.42501e-17
9.42512e-17
9.42522e-17
9.42529e-17
9.42534e-17
9.42536e-17
9.42534e-17
9.4253e-17
9.42522e-17
9.42511e-17
9.42497e-17
9.42481e-17
9.42463e-17
9.42469e-17
9.42481e-17
9.42493e-17
9.42503e-17
9.4251e-17
9.42515e-17
9.42517e-17
9.42516e-17
9.42512e-17
9.42504e-17
9.42494e-17
9.4248e-17
9.42464e-17
9.42446e-17
9.4086e-17
9.40872e-17
9.40883e-17
9.40891e-17
9.40897e-17
9.40901e-17
9.40902e-17
9.40901e-17
9.40897e-17
9.40891e-17
9.40883e-17
9.40872e-17
9.40859e-17
9.40844e-17
9.40871e-17
9.40883e-17
9.40893e-17
9.40902e-17
9.40908e-17
9.40911e-17
9.40913e-17
9.40911e-17
9.40908e-17
9.40902e-17
9.40893e-17
9.40882e-17
9.4087e-17
9.40855e-17
9.4088e-17
9.40892e-17
9.40903e-17
9.40911e-17
9.40916e-17
9.4092e-17
9.40921e-17
9.4092e-17
9.40916e-17
9.4091e-17
9.40902e-17
9.40892e-17
9.40879e-17
9.40865e-17
9.40888e-17
9.40899e-17
9.40909e-17
9.40917e-17
9.40923e-17
9.40926e-17
9.40927e-17
9.40926e-17
9.40922e-17
9.40917e-17
9.40909e-17
9.40899e-17
9.40886e-17
9.40872e-17
9.40893e-17
9.40904e-17
9.40914e-17
9.40921e-17
9.40927e-17
9.4093e-17
9.40931e-17
9.4093e-17
9.40927e-17
9.40921e-17
9.40913e-17
9.40903e-17
9.40891e-17
9.40877e-17
9.40895e-17
9.40907e-17
9.40916e-17
9.40924e-17
9.40929e-17
9.40932e-17
9.40933e-17
9.40932e-17
9.40928e-17
9.40923e-17
9.40915e-17
9.40906e-17
9.40893e-17
9.4088e-17
9.40895e-17
9.40907e-17
9.40916e-17
9.40923e-17
9.40928e-17
9.40932e-17
9.40933e-17
9.40931e-17
9.40928e-17
9.40923e-17
9.40915e-17
9.40905e-17
9.40893e-17
9.4088e-17
9.40893e-17
9.40904e-17
9.40914e-17
9.40921e-17
9.40926e-17
9.40929e-17
9.4093e-17
9.40929e-17
9.40925e-17
9.4092e-17
9.40912e-17
9.40903e-17
9.40891e-17
9.40877e-17
9.40889e-17
9.40899e-17
9.40909e-17
9.40916e-17
9.40921e-17
9.40924e-17
9.40925e-17
9.40924e-17
9.40921e-17
9.40915e-17
9.40908e-17
9.40898e-17
9.40886e-17
9.40872e-17
9.40882e-17
9.40892e-17
9.40902e-17
9.40909e-17
9.40914e-17
9.40917e-17
9.40918e-17
9.40917e-17
9.40914e-17
9.40908e-17
9.40901e-17
9.40891e-17
9.40878e-17
9.40865e-17
9.40872e-17
9.40883e-17
9.40892e-17
9.409e-17
9.40905e-17
9.40908e-17
9.40909e-17
9.40908e-17
9.40905e-17
9.40899e-17
9.40891e-17
9.40882e-17
9.40869e-17
9.40856e-17
9.40861e-17
9.40871e-17
9.40881e-17
9.40888e-17
9.40894e-17
9.40898e-17
9.40899e-17
9.40897e-17
9.40894e-17
9.40889e-17
9.4088e-17
9.4087e-17
9.40858e-17
9.40844e-17
9.40847e-17
9.40858e-17
9.40867e-17
9.40875e-17
9.40881e-17
9.40884e-17
9.40886e-17
9.40885e-17
9.40881e-17
9.40876e-17
9.40867e-17
9.40857e-17
9.40844e-17
9.4083e-17
9.40831e-17
9.40842e-17
9.40852e-17
9.4086e-17
9.40866e-17
9.4087e-17
9.40871e-17
9.4087e-17
9.40867e-17