/*--------------------------------*- C++ -*----------------------------------*\
| =========                 |                                                 |
| \\      /  F ield         | OpenFOAM: The Open Source CFD Toolbox           |
|  \\    /   O peration     | Version:  v2106                                 |
|   \\  /    A nd           | Website:  www.openfoam.com                      |
|    \\/     M anipulation  |                                                 |
\*---------------------------------------------------------------------------*/
FoamFile
{
    version     2.0;
    format      ascii;
    arch        "LSB;label=32;scalar=64";
    class       volScalarField;
    location    "0.000149";
    object      epsilon;
}
// * * * * * * * * * * * * * * * * * * * * * * * * * * * * * * * * * * * * * //

dimensions      [0 2 -3 0 0 0 0];

internalField   nonuniform List<scalar> 
17924
(
2.20016e-08
2.20023e-08
2.20034e-08
2.20045e-08
2.196e-08
2.19601e-08
2.19604e-08
2.19608e-08
2.19611e-08
2.19614e-08
2.19617e-08
2.19622e-08
2.19623e-08
2.19625e-08
2.19628e-08
2.19632e-08
2.19635e-08
2.19638e-08
2.19643e-08
2.19644e-08
2.19647e-08
2.1965e-08
2.19653e-08
2.19656e-08
2.19659e-08
2.19666e-08
2.19666e-08
2.19669e-08
2.19672e-08
2.19675e-08
2.19677e-08
2.19679e-08
2.19688e-08
2.19689e-08
2.19691e-08
2.19693e-08
2.19696e-08
2.19698e-08
2.197e-08
2.19711e-08
2.19712e-08
2.19714e-08
2.19716e-08
2.19718e-08
2.1972e-08
2.19722e-08
2.19733e-08
2.19735e-08
2.19736e-08
2.19738e-08
2.1974e-08
2.19742e-08
2.19743e-08
2.19756e-08
2.19757e-08
2.19759e-08
2.1976e-08
2.19762e-08
2.19763e-08
2.19765e-08
2.19778e-08
2.19779e-08
2.1978e-08
2.19782e-08
2.19783e-08
2.19785e-08
2.19787e-08
2.19799e-08
2.19801e-08
2.19801e-08
2.19803e-08
2.19805e-08
2.19806e-08
2.19808e-08
2.1982e-08
2.19821e-08
2.19822e-08
2.19823e-08
2.19825e-08
2.19827e-08
2.19829e-08
2.1984e-08
2.19841e-08
2.19842e-08
2.19843e-08
2.19845e-08
2.19847e-08
2.1985e-08
2.19859e-08
2.19861e-08
2.19861e-08
2.19863e-08
2.19865e-08
2.19868e-08
2.1987e-08
2.19879e-08
2.1988e-08
2.19881e-08
2.19882e-08
2.19885e-08
2.19888e-08
2.19891e-08
2.19203e-08
2.19201e-08
2.19199e-08
2.19197e-08
2.19195e-08
2.19193e-08
2.19191e-08
2.19188e-08
2.19186e-08
2.19184e-08
2.19181e-08
2.19179e-08
2.19177e-08
2.19177e-08
2.19216e-08
2.19214e-08
2.19211e-08
2.19209e-08
2.19207e-08
2.19205e-08
2.19203e-08
2.192e-08
2.19198e-08
2.19195e-08
2.19193e-08
2.19191e-08
2.19188e-08
2.19188e-08
2.19229e-08
2.19226e-08
2.19224e-08
2.19222e-08
2.1922e-08
2.19217e-08
2.19215e-08
2.19212e-08
2.1921e-08
2.19207e-08
2.19205e-08
2.19202e-08
2.192e-08
2.19199e-08
2.19242e-08
2.19239e-08
2.19237e-08
2.19235e-08
2.19232e-08
2.1923e-08
2.19227e-08
2.19224e-08
2.19222e-08
2.19219e-08
2.19217e-08
2.19214e-08
2.19211e-08
2.1921e-08
2.19255e-08
2.19252e-08
2.1925e-08
2.19247e-08
2.19245e-08
2.19242e-08
2.1924e-08
2.19237e-08
2.19234e-08
2.19232e-08
2.19229e-08
2.19227e-08
2.19223e-08
2.19222e-08
2.19268e-08
2.19266e-08
2.19263e-08
2.1926e-08
2.19258e-08
2.19255e-08
2.19252e-08
2.1925e-08
2.19247e-08
2.19244e-08
2.19242e-08
2.19239e-08
2.19236e-08
2.19233e-08
2.19281e-08
2.19279e-08
2.19276e-08
2.19273e-08
2.19271e-08
2.19268e-08
2.19265e-08
2.19262e-08
2.1926e-08
2.19257e-08
2.19254e-08
2.19251e-08
2.19248e-08
2.19245e-08
2.19294e-08
2.19291e-08
2.19289e-08
2.19286e-08
2.19283e-08
2.19281e-08
2.19278e-08
2.19275e-08
2.19273e-08
2.1927e-08
2.19267e-08
2.19264e-08
2.1926e-08
2.19257e-08
2.19306e-08
2.19303e-08
2.19301e-08
2.19298e-08
2.19296e-08
2.19293e-08
2.1929e-08
2.19288e-08
2.19285e-08
2.19282e-08
2.19279e-08
2.19276e-08
2.19272e-08
2.19268e-08
2.19317e-08
2.19315e-08
2.19312e-08
2.1931e-08
2.19307e-08
2.19305e-08
2.19302e-08
2.193e-08
2.19297e-08
2.19294e-08
2.19291e-08
2.19287e-08
2.19284e-08
2.19279e-08
2.19327e-08
2.19325e-08
2.19323e-08
2.1932e-08
2.19318e-08
2.19316e-08
2.19314e-08
2.19312e-08
2.19309e-08
2.19306e-08
2.19303e-08
2.19299e-08
2.19295e-08
2.1929e-08
2.19337e-08
2.19335e-08
2.19333e-08
2.19331e-08
2.19329e-08
2.19327e-08
2.19325e-08
2.19323e-08
2.19321e-08
2.19317e-08
2.19314e-08
2.1931e-08
2.19306e-08
2.19301e-08
2.19346e-08
2.19344e-08
2.19342e-08
2.19341e-08
2.19339e-08
2.19338e-08
2.19336e-08
2.19334e-08
2.19332e-08
2.19329e-08
2.19325e-08
2.19321e-08
2.19317e-08
2.19312e-08
2.19356e-08
2.19354e-08
2.19352e-08
2.1935e-08
2.19349e-08
2.19348e-08
2.19347e-08
2.19346e-08
2.19344e-08
2.19341e-08
2.19337e-08
2.19333e-08
2.19329e-08
2.19324e-08
2.18798e-08
2.18793e-08
2.18787e-08
2.18782e-08
2.18777e-08
2.18772e-08
2.18768e-08
2.18763e-08
2.18759e-08
2.18754e-08
2.1875e-08
2.18745e-08
2.18741e-08
2.18737e-08
2.18804e-08
2.18798e-08
2.18793e-08
2.18788e-08
2.18783e-08
2.18778e-08
2.18773e-08
2.18768e-08
2.18764e-08
2.18759e-08
2.18754e-08
2.1875e-08
2.18745e-08
2.18741e-08
2.18809e-08
2.18803e-08
2.18798e-08
2.18793e-08
2.18788e-08
2.18783e-08
2.18778e-08
2.18774e-08
2.18769e-08
2.18764e-08
2.1876e-08
2.18755e-08
2.1875e-08
2.18746e-08
2.18814e-08
2.18809e-08
2.18804e-08
2.18798e-08
2.18793e-08
2.18789e-08
2.18784e-08
2.18779e-08
2.18775e-08
2.1877e-08
2.18765e-08
2.1876e-08
2.18755e-08
2.18751e-08
2.18819e-08
2.18814e-08
2.18809e-08
2.18804e-08
2.18799e-08
2.18794e-08
2.1879e-08
2.18785e-08
2.1878e-08
2.18776e-08
2.18771e-08
2.18766e-08
2.18761e-08
2.18757e-08
2.18824e-08
2.18819e-08
2.18815e-08
2.1881e-08
2.18805e-08
2.188e-08
2.18795e-08
2.18791e-08
2.18786e-08
2.18782e-08
2.18777e-08
2.18772e-08
2.18767e-08
2.18762e-08
2.18829e-08
2.18824e-08
2.1882e-08
2.18815e-08
2.1881e-08
2.18806e-08
2.18801e-08
2.18797e-08
2.18792e-08
2.18787e-08
2.18782e-08
2.18777e-08
2.18772e-08
2.18768e-08
2.18834e-08
2.18829e-08
2.18825e-08
2.1882e-08
2.18816e-08
2.18811e-08
2.18807e-08
2.18802e-08
2.18798e-08
2.18793e-08
2.18788e-08
2.18783e-08
2.18778e-08
2.18773e-08
2.18838e-08
2.18834e-08
2.18829e-08
2.18825e-08
2.18821e-08
2.18816e-08
2.18812e-08
2.18807e-08
2.18803e-08
2.18798e-08
2.18793e-08
2.18788e-08
2.18783e-08
2.18778e-08
2.18842e-08
2.18838e-08
2.18834e-08
2.18829e-08
2.18825e-08
2.18821e-08
2.18817e-08
2.18812e-08
2.18808e-08
2.18803e-08
2.18798e-08
2.18792e-08
2.18787e-08
2.18782e-08
2.18845e-08
2.18841e-08
2.18838e-08
2.18834e-08
2.1883e-08
2.18826e-08
2.18821e-08
2.18817e-08
2.18812e-08
2.18807e-08
2.18802e-08
2.18797e-08
2.18791e-08
2.18786e-08
2.18849e-08
2.18845e-08
2.18842e-08
2.18838e-08
2.18834e-08
2.1883e-08
2.18826e-08
2.18821e-08
2.18817e-08
2.18811e-08
2.18806e-08
2.18801e-08
2.18795e-08
2.1879e-08
2.18853e-08
2.18849e-08
2.18845e-08
2.18842e-08
2.18838e-08
2.18834e-08
2.1883e-08
2.18826e-08
2.18821e-08
2.18816e-08
2.1881e-08
2.18804e-08
2.18799e-08
2.18793e-08
2.18856e-08
2.18853e-08
2.18849e-08
2.18846e-08
2.18843e-08
2.18839e-08
2.18835e-08
2.1883e-08
2.18826e-08
2.1882e-08
2.18815e-08
2.18809e-08
2.18803e-08
2.18797e-08
2.1837e-08
2.18362e-08
2.18355e-08
2.18349e-08
2.18344e-08
2.18338e-08
2.18334e-08
2.18329e-08
2.18325e-08
2.1832e-08
2.18316e-08
2.18312e-08
2.18308e-08
2.18304e-08
2.18369e-08
2.18362e-08
2.18356e-08
2.18349e-08
2.18344e-08
2.18339e-08
2.18334e-08
2.18329e-08
2.18324e-08
2.1832e-08
2.18315e-08
2.18311e-08
2.18307e-08
2.18304e-08
2.18369e-08
2.18362e-08
2.18356e-08
2.1835e-08
2.18344e-08
2.18339e-08
2.18334e-08
2.18329e-08
2.18325e-08
2.1832e-08
2.18316e-08
2.18312e-08
2.18307e-08
2.18304e-08
2.18369e-08
2.18362e-08
2.18356e-08
2.1835e-08
2.18345e-08
2.18339e-08
2.18335e-08
2.1833e-08
2.18325e-08
2.18321e-08
2.18316e-08
2.18312e-08
2.18308e-08
2.18304e-08
2.18368e-08
2.18362e-08
2.18356e-08
2.1835e-08
2.18345e-08
2.1834e-08
2.18335e-08
2.18331e-08
2.18326e-08
2.18321e-08
2.18317e-08
2.18313e-08
2.18309e-08
2.18305e-08
2.18368e-08
2.18362e-08
2.18356e-08
2.18351e-08
2.18346e-08
2.18341e-08
2.18336e-08
2.18331e-08
2.18327e-08
2.18322e-08
2.18318e-08
2.18314e-08
2.1831e-08
2.18306e-08
2.18368e-08
2.18362e-08
2.18357e-08
2.18351e-08
2.18346e-08
2.18341e-08
2.18337e-08
2.18332e-08
2.18328e-08
2.18323e-08
2.18319e-08
2.18314e-08
2.1831e-08
2.18307e-08
2.18368e-08
2.18362e-08
2.18357e-08
2.18352e-08
2.18347e-08
2.18342e-08
2.18338e-08
2.18333e-08
2.18328e-08
2.18324e-08
2.18319e-08
2.18315e-08
2.18311e-08
2.18308e-08
2.18368e-08
2.18363e-08
2.18358e-08
2.18353e-08
2.18348e-08
2.18343e-08
2.18338e-08
2.18334e-08
2.18329e-08
2.18325e-08
2.1832e-08
2.18316e-08
2.18312e-08
2.18309e-08
2.18368e-08
2.18363e-08
2.18358e-08
2.18353e-08
2.18349e-08
2.18344e-08
2.18339e-08
2.18335e-08
2.1833e-08
2.18325e-08
2.18321e-08
2.18317e-08
2.18313e-08
2.18309e-08
2.18369e-08
2.18364e-08
2.18359e-08
2.18354e-08
2.1835e-08
2.18345e-08
2.1834e-08
2.18335e-08
2.18331e-08
2.18326e-08
2.18322e-08
2.18318e-08
2.18314e-08
2.1831e-08
2.1837e-08
2.18365e-08
2.1836e-08
2.18356e-08
2.18351e-08
2.18346e-08
2.18341e-08
2.18337e-08
2.18332e-08
2.18327e-08
2.18323e-08
2.18318e-08
2.18314e-08
2.18311e-08
2.18371e-08
2.18366e-08
2.18362e-08
2.18357e-08
2.18352e-08
2.18348e-08
2.18343e-08
2.18338e-08
2.18333e-08
2.18328e-08
2.18324e-08
2.18319e-08
2.18315e-08
2.18312e-08
2.18373e-08
2.18368e-08
2.18363e-08
2.18359e-08
2.18354e-08
2.18349e-08
2.18344e-08
2.18339e-08
2.18334e-08
2.18329e-08
2.18325e-08
2.1832e-08
2.18316e-08
2.18312e-08
2.17929e-08
2.17922e-08
2.17915e-08
2.1791e-08
2.17905e-08
2.179e-08
2.17896e-08
2.17893e-08
2.17889e-08
2.17886e-08
2.17884e-08
2.17882e-08
2.1788e-08
2.17879e-08
2.17925e-08
2.17918e-08
2.17912e-08
2.17906e-08
2.17902e-08
2.17897e-08
2.17893e-08
2.17889e-08
2.17886e-08
2.17883e-08
2.1788e-08
2.17878e-08
2.17876e-08
2.17875e-08
2.17921e-08
2.17915e-08
2.17909e-08
2.17903e-08
2.17898e-08
2.17894e-08
2.1789e-08
2.17886e-08
2.17883e-08
2.1788e-08
2.17877e-08
2.17875e-08
2.17873e-08
2.17872e-08
2.17918e-08
2.17912e-08
2.17906e-08
2.179e-08
2.17895e-08
2.17891e-08
2.17887e-08
2.17883e-08
2.1788e-08
2.17877e-08
2.17874e-08
2.17872e-08
2.17871e-08
2.17869e-08
2.17915e-08
2.17909e-08
2.17903e-08
2.17898e-08
2.17893e-08
2.17888e-08
2.17884e-08
2.1788e-08
2.17877e-08
2.17874e-08
2.17872e-08
2.1787e-08
2.17869e-08
2.17868e-08
2.17913e-08
2.17907e-08
2.17901e-08
2.17895e-08
2.1789e-08
2.17886e-08
2.17882e-08
2.17878e-08
2.17875e-08
2.17872e-08
2.1787e-08
2.17868e-08
2.17867e-08
2.17866e-08
2.17911e-08
2.17905e-08
2.17899e-08
2.17894e-08
2.17889e-08
2.17884e-08
2.1788e-08
2.17877e-08
2.17873e-08
2.17871e-08
2.17869e-08
2.17867e-08
2.17866e-08
2.17865e-08
2.1791e-08
2.17903e-08
2.17898e-08
2.17892e-08
2.17887e-08
2.17883e-08
2.17879e-08
2.17875e-08
2.17872e-08
2.1787e-08
2.17867e-08
2.17866e-08
2.17865e-08
2.17864e-08
2.17909e-08
2.17903e-08
2.17897e-08
2.17892e-08
2.17887e-08
2.17882e-08
2.17878e-08
2.17875e-08
2.17871e-08
2.17869e-08
2.17867e-08
2.17865e-08
2.17864e-08
2.17864e-08
2.17908e-08
2.17902e-08
2.17897e-08
2.17891e-08
2.17887e-08
2.17882e-08
2.17878e-08
2.17874e-08
2.17871e-08
2.17869e-08
2.17867e-08
2.17865e-08
2.17864e-08
2.17863e-08
2.17908e-08
2.17902e-08
2.17897e-08
2.17892e-08
2.17887e-08
2.17883e-08
2.17879e-08
2.17875e-08
2.17872e-08
2.17869e-08
2.17867e-08
2.17865e-08
2.17864e-08
2.17864e-08
2.17909e-08
2.17903e-08
2.17898e-08
2.17893e-08
2.17888e-08
2.17883e-08
2.17879e-08
2.17876e-08
2.17872e-08
2.1787e-08
2.17867e-08
2.17866e-08
2.17865e-08
2.17864e-08
2.1791e-08
2.17904e-08
2.17899e-08
2.17894e-08
2.17889e-08
2.17885e-08
2.17881e-08
2.17877e-08
2.17873e-08
2.17871e-08
2.17868e-08
2.17866e-08
2.17865e-08
2.17864e-08
2.17912e-08
2.17906e-08
2.17901e-08
2.17895e-08
2.17891e-08
2.17886e-08
2.17882e-08
2.17878e-08
2.17875e-08
2.17872e-08
2.17869e-08
2.17867e-08
2.17866e-08
2.17865e-08
2.17505e-08
2.17499e-08
2.17494e-08
2.17489e-08
2.17486e-08
2.17482e-08
2.17479e-08
2.17477e-08
2.17475e-08
2.17474e-08
2.17474e-08
2.17473e-08
2.17474e-08
2.17474e-08
2.175e-08
2.17495e-08
2.1749e-08
2.17485e-08
2.17481e-08
2.17478e-08
2.17475e-08
2.17472e-08
2.17471e-08
2.17469e-08
2.17469e-08
2.17469e-08
2.17469e-08
2.17469e-08
2.17496e-08
2.17491e-08
2.17486e-08
2.17481e-08
2.17477e-08
2.17473e-08
2.1747e-08
2.17468e-08
2.17466e-08
2.17465e-08
2.17464e-08
2.17465e-08
2.17465e-08
2.17466e-08
2.17492e-08
2.17487e-08
2.17482e-08
2.17477e-08
2.17472e-08
2.17469e-08
2.17466e-08
2.17463e-08
2.17462e-08
2.17461e-08
2.17461e-08
2.17461e-08
2.17462e-08
2.17462e-08
2.17489e-08
2.17484e-08
2.17478e-08
2.17473e-08
2.17469e-08
2.17465e-08
2.17462e-08
2.1746e-08
2.17458e-08
2.17457e-08
2.17457e-08
2.17458e-08
2.17459e-08
2.1746e-08
2.17487e-08
2.17481e-08
2.17475e-08
2.1747e-08
2.17466e-08
2.17462e-08
2.17459e-08
2.17457e-08
2.17455e-08
2.17455e-08
2.17455e-08
2.17455e-08
2.17456e-08
2.17458e-08
2.17485e-08
2.17479e-08
2.17473e-08
2.17468e-08
2.17464e-08
2.1746e-08
2.17457e-08
2.17455e-08
2.17453e-08
2.17452e-08
2.17453e-08
2.17453e-08
2.17454e-08
2.17456e-08
2.17483e-08
2.17477e-08
2.17472e-08
2.17467e-08
2.17462e-08
2.17458e-08
2.17455e-08
2.17453e-08
2.17452e-08
2.17451e-08
2.17451e-08
2.17452e-08
2.17453e-08
2.17455e-08
2.17482e-08
2.17477e-08
2.17471e-08
2.17466e-08
2.17462e-08
2.17458e-08
2.17455e-08
2.17453e-08
2.17451e-08
2.17451e-08
2.17451e-08
2.17452e-08
2.17453e-08
2.17455e-08
2.17482e-08
2.17477e-08
2.17472e-08
2.17467e-08
2.17462e-08
2.17458e-08
2.17456e-08
2.17453e-08
2.17452e-08
2.17451e-08
2.17451e-08
2.17452e-08
2.17453e-08
2.17455e-08
2.17483e-08
2.17478e-08
2.17473e-08
2.17468e-08
2.17463e-08
2.1746e-08
2.17457e-08
2.17454e-08
2.17453e-08
2.17452e-08
2.17452e-08
2.17453e-08
2.17454e-08
2.17456e-08
2.17484e-08
2.17479e-08
2.17474e-08
2.17469e-08
2.17465e-08
2.17461e-08
2.17458e-08
2.17456e-08
2.17454e-08
2.17454e-08
2.17454e-08
2.17454e-08
2.17455e-08
2.17457e-08
2.17486e-08
2.17481e-08
2.17476e-08
2.17472e-08
2.17467e-08
2.17464e-08
2.17461e-08
2.17458e-08
2.17457e-08
2.17456e-08
2.17455e-08
2.17456e-08
2.17457e-08
2.17458e-08
2.17489e-08
2.17484e-08
2.17479e-08
2.17474e-08
2.1747e-08
2.17466e-08
2.17463e-08
2.17461e-08
2.17459e-08
2.17458e-08
2.17457e-08
2.17458e-08
2.17459e-08
2.1746e-08
2.17123e-08
2.17119e-08
2.17116e-08
2.17113e-08
2.1711e-08
2.17107e-08
2.17106e-08
2.17104e-08
2.17104e-08
2.17104e-08
2.17104e-08
2.17105e-08
2.17106e-08
2.17107e-08
2.1712e-08
2.17116e-08
2.17113e-08
2.17109e-08
2.17106e-08
2.17104e-08
2.17102e-08
2.17101e-08
2.171e-08
2.171e-08
2.171e-08
2.17101e-08
2.17102e-08
2.17103e-08
2.17117e-08
2.17113e-08
2.17109e-08
2.17106e-08
2.17103e-08
2.171e-08
2.17098e-08
2.17097e-08
2.17096e-08
2.17096e-08
2.17097e-08
2.17098e-08
2.17099e-08
2.171e-08
2.17114e-08
2.1711e-08
2.17106e-08
2.17103e-08
2.171e-08
2.17097e-08
2.17095e-08
2.17094e-08
2.17093e-08
2.17093e-08
2.17094e-08
2.17095e-08
2.17096e-08
2.17097e-08
2.17111e-08
2.17108e-08
2.17104e-08
2.171e-08
2.17097e-08
2.17094e-08
2.17092e-08
2.17091e-08
2.1709e-08
2.17091e-08
2.17091e-08
2.17092e-08
2.17094e-08
2.17095e-08
2.17109e-08
2.17106e-08
2.17102e-08
2.17098e-08
2.17095e-08
2.17092e-08
2.1709e-08
2.17089e-08
2.17088e-08
2.17089e-08
2.17089e-08
2.1709e-08
2.17092e-08
2.17094e-08
2.17108e-08
2.17104e-08
2.171e-08
2.17097e-08
2.17094e-08
2.17091e-08
2.17089e-08
2.17088e-08
2.17087e-08
2.17087e-08
2.17088e-08
2.17089e-08
2.17091e-08
2.17093e-08
2.17107e-08
2.17103e-08
2.17099e-08
2.17096e-08
2.17093e-08
2.1709e-08
2.17088e-08
2.17087e-08
2.17086e-08
2.17087e-08
2.17087e-08
2.17089e-08
2.1709e-08
2.17092e-08
2.17107e-08
2.17103e-08
2.17099e-08
2.17096e-08
2.17093e-08
2.1709e-08
2.17088e-08
2.17087e-08
2.17087e-08
2.17087e-08
2.17087e-08
2.17089e-08
2.1709e-08
2.17092e-08
2.17108e-08
2.17104e-08
2.171e-08
2.17097e-08
2.17094e-08
2.17091e-08
2.17089e-08
2.17088e-08
2.17087e-08
2.17087e-08
2.17088e-08
2.17089e-08
2.17091e-08
2.17093e-08
2.17109e-08
2.17105e-08
2.17101e-08
2.17098e-08
2.17095e-08
2.17092e-08
2.1709e-08
2.17089e-08
2.17089e-08
2.17089e-08
2.17089e-08
2.17091e-08
2.17092e-08
2.17094e-08
2.1711e-08
2.17107e-08
2.17103e-08
2.171e-08
2.17097e-08
2.17094e-08
2.17092e-08
2.17091e-08
2.1709e-08
2.1709e-08
2.17091e-08
2.17092e-08
2.17094e-08
2.17096e-08
2.17113e-08
2.17109e-08
2.17105e-08
2.17102e-08
2.17099e-08
2.17096e-08
2.17094e-08
2.17093e-08
2.17092e-08
2.17092e-08
2.17093e-08
2.17094e-08
2.17096e-08
2.17097e-08
2.17115e-08
2.17111e-08
2.17107e-08
2.17104e-08
2.17101e-08
2.17099e-08
2.17097e-08
2.17095e-08
2.17095e-08
2.17095e-08
2.17095e-08
2.17096e-08
2.17098e-08
2.171e-08
2.16791e-08
2.16789e-08
2.16788e-08
2.16786e-08
2.16785e-08
2.16784e-08
2.16783e-08
2.16782e-08
2.16781e-08
2.16781e-08
2.16781e-08
2.16781e-08
2.16782e-08
2.16782e-08
2.16789e-08
2.16788e-08
2.16787e-08
2.16785e-08
2.16784e-08
2.16782e-08
2.16781e-08
2.16781e-08
2.1678e-08
2.1678e-08
2.1678e-08
2.1678e-08
2.1678e-08
2.16781e-08
2.16788e-08
2.16787e-08
2.16785e-08
2.16784e-08
2.16783e-08
2.16781e-08
2.1678e-08
2.1678e-08
2.16779e-08
2.16779e-08
2.16779e-08
2.16779e-08
2.16779e-08
2.16779e-08
2.16787e-08
2.16786e-08
2.16784e-08
2.16783e-08
2.16782e-08
2.1678e-08
2.16779e-08
2.16779e-08
2.16778e-08
2.16778e-08
2.16778e-08
2.16778e-08
2.16778e-08
2.16778e-08
2.16786e-08
2.16785e-08
2.16783e-08
2.16782e-08
2.16781e-08
2.1678e-08
2.16779e-08
2.16778e-08
2.16777e-08
2.16777e-08
2.16777e-08
2.16777e-08
2.16777e-08
2.16777e-08
2.16786e-08
2.16784e-08
2.16783e-08
2.16782e-08
2.1678e-08
2.16779e-08
2.16778e-08
2.16777e-08
2.16777e-08
2.16776e-08
2.16776e-08
2.16776e-08
2.16776e-08
2.16777e-08
2.16785e-08
2.16784e-08
2.16783e-08
2.16781e-08
2.1678e-08
2.16779e-08
2.16778e-08
2.16777e-08
2.16776e-08
2.16776e-08
2.16776e-08
2.16776e-08
2.16776e-08
2.16776e-08
2.16785e-08
2.16784e-08
2.16782e-08
2.16781e-08
2.1678e-08
2.16779e-08
2.16778e-08
2.16777e-08
2.16776e-08
2.16776e-08
2.16776e-08
2.16776e-08
2.16776e-08
2.16776e-08
2.16785e-08
2.16784e-08
2.16782e-08
2.16781e-08
2.1678e-08
2.16779e-08
2.16778e-08
2.16777e-08
2.16776e-08
2.16776e-08
2.16776e-08
2.16776e-08
2.16776e-08
2.16776e-08
2.16786e-08
2.16784e-08
2.16783e-08
2.16781e-08
2.1678e-08
2.16779e-08
2.16778e-08
2.16777e-08
2.16777e-08
2.16776e-08
2.16776e-08
2.16776e-08
2.16776e-08
2.16777e-08
2.16786e-08
2.16785e-08
2.16783e-08
2.16782e-08
2.1678e-08
2.16779e-08
2.16778e-08
2.16778e-08
2.16777e-08
2.16777e-08
2.16777e-08
2.16777e-08
2.16777e-08
2.16777e-08
2.16787e-08
2.16785e-08
2.16784e-08
2.16782e-08
2.16781e-08
2.1678e-08
2.16779e-08
2.16778e-08
2.16778e-08
2.16777e-08
2.16777e-08
2.16777e-08
2.16778e-08
2.16778e-08
2.16788e-08
2.16786e-08
2.16785e-08
2.16783e-08
2.16782e-08
2.1678e-08
2.16779e-08
2.16779e-08
2.16778e-08
2.16778e-08
2.16778e-08
2.16778e-08
2.16779e-08
2.16779e-08
2.16789e-08
2.16787e-08
2.16785e-08
2.16784e-08
2.16782e-08
2.16781e-08
2.1678e-08
2.1678e-08
2.16779e-08
2.16779e-08
2.16779e-08
2.16779e-08
2.1678e-08
2.16781e-08
2.16501e-08
2.16502e-08
2.16502e-08
2.16503e-08
2.16503e-08
2.16503e-08
2.16502e-08
2.16502e-08
2.16501e-08
2.165e-08
2.16499e-08
2.16498e-08
2.16497e-08
2.16496e-08
2.16502e-08
2.16503e-08
2.16503e-08
2.16504e-08
2.16504e-08
2.16504e-08
2.16503e-08
2.16503e-08
2.16502e-08
2.16501e-08
2.165e-08
2.16499e-08
2.16498e-08
2.16496e-08
2.16503e-08
2.16504e-08
2.16504e-08
2.16505e-08
2.16505e-08
2.16505e-08
2.16505e-08
2.16504e-08
2.16503e-08
2.16502e-08
2.16501e-08
2.165e-08
2.16498e-08
2.16497e-08
2.16503e-08
2.16504e-08
2.16505e-08
2.16506e-08
2.16506e-08
2.16506e-08
2.16506e-08
2.16505e-08
2.16504e-08
2.16503e-08
2.16502e-08
2.16501e-08
2.16499e-08
2.16498e-08
2.16504e-08
2.16505e-08
2.16506e-08
2.16506e-08
2.16507e-08
2.16507e-08
2.16507e-08
2.16506e-08
2.16505e-08
2.16504e-08
2.16503e-08
2.16501e-08
2.165e-08
2.16498e-08
2.16505e-08
2.16506e-08
2.16506e-08
2.16507e-08
2.16507e-08
2.16507e-08
2.16507e-08
2.16507e-08
2.16506e-08
2.16505e-08
2.16503e-08
2.16502e-08
2.165e-08
2.16498e-08
2.16505e-08
2.16506e-08
2.16507e-08
2.16507e-08
2.16508e-08
2.16508e-08
2.16508e-08
2.16507e-08
2.16506e-08
2.16505e-08
2.16503e-08
2.16502e-08
2.165e-08
2.16498e-08
2.16505e-08
2.16506e-08
2.16507e-08
2.16507e-08
2.16508e-08
2.16508e-08
2.16508e-08
2.16507e-08
2.16506e-08
2.16505e-08
2.16503e-08
2.16502e-08
2.165e-08
2.16498e-08
2.16505e-08
2.16506e-08
2.16507e-08
2.16507e-08
2.16507e-08
2.16508e-08
2.16507e-08
2.16507e-08
2.16506e-08
2.16505e-08
2.16503e-08
2.16502e-08
2.165e-08
2.16498e-08
2.16505e-08
2.16506e-08
2.16506e-08
2.16507e-08
2.16507e-08
2.16507e-08
2.16507e-08
2.16506e-08
2.16505e-08
2.16504e-08
2.16503e-08
2.16501e-08
2.16499e-08
2.16498e-08
2.16504e-08
2.16505e-08
2.16505e-08
2.16506e-08
2.16506e-08
2.16506e-08
2.16506e-08
2.16505e-08
2.16504e-08
2.16503e-08
2.16502e-08
2.165e-08
2.16499e-08
2.16497e-08
2.16504e-08
2.16504e-08
2.16504e-08
2.16505e-08
2.16505e-08
2.16505e-08
2.16505e-08
2.16504e-08
2.16503e-08
2.16502e-08
2.16501e-08
2.165e-08
2.16498e-08
2.16497e-08
2.16503e-08
2.16503e-08
2.16503e-08
2.16504e-08
2.16504e-08
2.16504e-08
2.16503e-08
2.16503e-08
2.16502e-08
2.16501e-08
2.165e-08
2.16499e-08
2.16498e-08
2.16496e-08
2.16502e-08
2.16502e-08
2.16502e-08
2.16502e-08
2.16502e-08
2.16502e-08
2.16502e-08
2.16502e-08
2.16501e-08
2.16501e-08
2.165e-08
2.16498e-08
2.16497e-08
2.16496e-08
2.16243e-08
2.16245e-08
2.16247e-08
2.16248e-08
2.16249e-08
2.16249e-08
2.16249e-08
2.16249e-08
2.16248e-08
2.16246e-08
2.16245e-08
2.16243e-08
2.1624e-08
2.16238e-08
2.16245e-08
2.16247e-08
2.16249e-08
2.1625e-08
2.16251e-08
2.16252e-08
2.16252e-08
2.16251e-08
2.1625e-08
2.16249e-08
2.16247e-08
2.16245e-08
2.16243e-08
2.1624e-08
2.16247e-08
2.16249e-08
2.16251e-08
2.16252e-08
2.16253e-08
2.16254e-08
2.16254e-08
2.16254e-08
2.16253e-08
2.16251e-08
2.16249e-08
2.16247e-08
2.16245e-08
2.16242e-08
2.16249e-08
2.16251e-08
2.16253e-08
2.16254e-08
2.16255e-08
2.16256e-08
2.16256e-08
2.16256e-08
2.16255e-08
2.16253e-08
2.16251e-08
2.16249e-08
2.16246e-08
2.16244e-08
2.1625e-08
2.16252e-08
2.16254e-08
2.16256e-08
2.16257e-08
2.16258e-08
2.16258e-08
2.16257e-08
2.16256e-08
2.16255e-08
2.16253e-08
2.1625e-08
2.16248e-08
2.16245e-08
2.16251e-08
2.16253e-08
2.16255e-08
2.16257e-08
2.16258e-08
2.16259e-08
2.16259e-08
2.16258e-08
2.16257e-08
2.16256e-08
2.16254e-08
2.16251e-08
2.16248e-08
2.16245e-08
2.16252e-08
2.16254e-08
2.16256e-08
2.16257e-08
2.16258e-08
2.16259e-08
2.16259e-08
2.16259e-08
2.16258e-08
2.16256e-08
2.16254e-08
2.16252e-08
2.16249e-08
2.16246e-08
2.16252e-08
2.16254e-08
2.16256e-08
2.16257e-08
2.16258e-08
2.16259e-08
2.16259e-08
2.16259e-08
2.16258e-08
2.16256e-08
2.16254e-08
2.16252e-08
2.16249e-08
2.16245e-08
2.16251e-08
2.16253e-08
2.16255e-08
2.16257e-08
2.16258e-08
2.16258e-08
2.16259e-08
2.16258e-08
2.16257e-08
2.16256e-08
2.16253e-08
2.16251e-08
2.16248e-08
2.16245e-08
2.1625e-08
2.16252e-08
2.16254e-08
2.16256e-08
2.16257e-08
2.16257e-08
2.16257e-08
2.16257e-08
2.16256e-08
2.16254e-08
2.16252e-08
2.1625e-08
2.16247e-08
2.16244e-08
2.16249e-08
2.16251e-08
2.16253e-08
2.16254e-08
2.16255e-08
2.16256e-08
2.16256e-08
2.16255e-08
2.16254e-08
2.16253e-08
2.16251e-08
2.16248e-08
2.16245e-08
2.16242e-08
2.16247e-08
2.16249e-08
2.1625e-08
2.16252e-08
2.16253e-08
2.16254e-08
2.16254e-08
2.16253e-08
2.16252e-08
2.16251e-08
2.16249e-08
2.16246e-08
2.16244e-08
2.16241e-08
2.16245e-08
2.16247e-08
2.16248e-08
2.16249e-08
2.1625e-08
2.16251e-08
2.16251e-08
2.16251e-08
2.1625e-08
2.16248e-08
2.16247e-08
2.16244e-08
2.16242e-08
2.16239e-08
2.16242e-08
2.16244e-08
2.16245e-08
2.16246e-08
2.16247e-08
2.16248e-08
2.16248e-08
2.16248e-08
2.16247e-08
2.16246e-08
2.16244e-08
2.16242e-08
2.1624e-08
2.16237e-08
2.16003e-08
2.16006e-08
2.16008e-08
2.16009e-08
2.16011e-08
2.16011e-08
2.16011e-08
2.16011e-08
2.1601e-08
2.16008e-08
2.16007e-08
2.16004e-08
2.16002e-08
2.15999e-08
2.16006e-08
2.16008e-08
2.1601e-08
2.16012e-08
2.16013e-08
2.16014e-08
2.16014e-08
2.16014e-08
2.16013e-08
2.16011e-08
2.16009e-08
2.16007e-08
2.16004e-08
2.16001e-08
2.16008e-08
2.1601e-08
2.16012e-08
2.16014e-08
2.16016e-08
2.16016e-08
2.16016e-08
2.16016e-08
2.16015e-08
2.16014e-08
2.16012e-08
2.16009e-08
2.16007e-08
2.16004e-08
2.1601e-08
2.16012e-08
2.16014e-08
2.16016e-08
2.16017e-08
2.16018e-08
2.16018e-08
2.16018e-08
2.16017e-08
2.16016e-08
2.16014e-08
2.16011e-08
2.16008e-08
2.16005e-08
2.16011e-08
2.16013e-08
2.16016e-08
2.16018e-08
2.16019e-08
2.1602e-08
2.1602e-08
2.1602e-08
2.16019e-08
2.16017e-08
2.16015e-08
2.16013e-08
2.1601e-08
2.16007e-08
2.16012e-08
2.16014e-08
2.16017e-08
2.16019e-08
2.1602e-08
2.16021e-08
2.16021e-08
2.1602e-08
2.1602e-08
2.16018e-08
2.16016e-08
2.16014e-08
2.16011e-08
2.16007e-08
2.16012e-08
2.16015e-08
2.16017e-08
2.16019e-08
2.1602e-08
2.16021e-08
2.16021e-08
2.16021e-08
2.1602e-08
2.16018e-08
2.16016e-08
2.16014e-08
2.16011e-08
2.16008e-08
2.16012e-08
2.16015e-08
2.16017e-08
2.16019e-08
2.1602e-08
2.16021e-08
2.16021e-08
2.16021e-08
2.1602e-08
2.16018e-08
2.16016e-08
2.16014e-08
2.1601e-08
2.16007e-08
2.16012e-08
2.16014e-08
2.16016e-08
2.16018e-08
2.16019e-08
2.1602e-08
2.1602e-08
2.1602e-08
2.16019e-08
2.16017e-08
2.16015e-08
2.16013e-08
2.1601e-08
2.16006e-08
2.1601e-08
2.16013e-08
2.16015e-08
2.16017e-08
2.16018e-08
2.16019e-08
2.16019e-08
2.16018e-08
2.16017e-08
2.16016e-08
2.16014e-08
2.16011e-08
2.16008e-08
2.16005e-08
2.16009e-08
2.16011e-08
2.16013e-08
2.16015e-08
2.16016e-08
2.16017e-08
2.16017e-08
2.16016e-08
2.16016e-08
2.16014e-08
2.16012e-08
2.16009e-08
2.16006e-08
2.16003e-08
2.16006e-08
2.16008e-08
2.1601e-08
2.16012e-08
2.16013e-08
2.16014e-08
2.16014e-08
2.16014e-08
2.16013e-08
2.16012e-08
2.1601e-08
2.16007e-08
2.16004e-08
2.16001e-08
2.16004e-08
2.16006e-08
2.16007e-08
2.16009e-08
2.1601e-08
2.16011e-08
2.16011e-08
2.16011e-08
2.1601e-08
2.16009e-08
2.16007e-08
2.16004e-08
2.16002e-08
2.15998e-08
2.16e-08
2.16002e-08
2.16004e-08
2.16006e-08
2.16007e-08
2.16008e-08
2.16008e-08
2.16008e-08
2.16007e-08
2.16006e-08
2.16004e-08
2.16002e-08
2.15999e-08
2.15996e-08
2.15774e-08
2.15776e-08
2.15778e-08
2.1578e-08
2.15781e-08
2.15781e-08
2.15781e-08
2.15781e-08
2.1578e-08
2.15779e-08
2.15777e-08
2.15775e-08
2.15773e-08
2.1577e-08
2.15776e-08
2.15778e-08
2.1578e-08
2.15782e-08
2.15783e-08
2.15784e-08
2.15784e-08
2.15783e-08
2.15783e-08
2.15781e-08
2.1578e-08
2.15778e-08
2.15775e-08
2.15772e-08
2.15778e-08
2.1578e-08
2.15782e-08
2.15784e-08
2.15785e-08
2.15785e-08
2.15786e-08
2.15785e-08
2.15785e-08
2.15783e-08
2.15782e-08
2.15779e-08
2.15777e-08
2.15774e-08
2.15779e-08
2.15781e-08
2.15784e-08
2.15785e-08
2.15786e-08
2.15787e-08
2.15787e-08
2.15787e-08
2.15786e-08
2.15785e-08
2.15783e-08
2.15781e-08
2.15779e-08
2.15776e-08
2.1578e-08
2.15783e-08
2.15785e-08
2.15786e-08
2.15787e-08
2.15788e-08
2.15788e-08
2.15788e-08
2.15787e-08
2.15786e-08
2.15784e-08
2.15782e-08
2.1578e-08
2.15777e-08
2.15781e-08
2.15783e-08
2.15785e-08
2.15787e-08
2.15788e-08
2.15789e-08
2.15789e-08
2.15788e-08
2.15788e-08
2.15787e-08
2.15785e-08
2.15783e-08
2.1578e-08
2.15777e-08
2.15781e-08
2.15783e-08
2.15785e-08
2.15787e-08
2.15788e-08
2.15789e-08
2.15789e-08
2.15789e-08
2.15788e-08
2.15787e-08
2.15785e-08
2.15783e-08
2.1578e-08
2.15778e-08
2.15781e-08
2.15783e-08
2.15785e-08
2.15787e-08
2.15788e-08
2.15788e-08
2.15788e-08
2.15788e-08
2.15787e-08
2.15786e-08
2.15785e-08
2.15782e-08
2.1578e-08
2.15777e-08
2.1578e-08
2.15782e-08
2.15784e-08
2.15786e-08
2.15787e-08
2.15787e-08
2.15788e-08
2.15787e-08
2.15787e-08
2.15785e-08
2.15784e-08
2.15782e-08
2.15779e-08
2.15776e-08
2.15779e-08
2.15781e-08
2.15783e-08
2.15784e-08
2.15785e-08
2.15786e-08
2.15786e-08
2.15786e-08
2.15785e-08
2.15784e-08
2.15782e-08
2.1578e-08
2.15778e-08
2.15775e-08
2.15777e-08
2.15779e-08
2.15781e-08
2.15783e-08
2.15784e-08
2.15784e-08
2.15784e-08
2.15784e-08
2.15783e-08
2.15782e-08
2.15781e-08
2.15778e-08
2.15776e-08
2.15773e-08
2.15775e-08
2.15777e-08
2.15779e-08
2.1578e-08
2.15781e-08
2.15782e-08
2.15782e-08
2.15782e-08
2.15781e-08
2.1578e-08
2.15778e-08
2.15776e-08
2.15774e-08
2.15771e-08
2.15772e-08
2.15774e-08
2.15776e-08
2.15778e-08
2.15779e-08
2.15779e-08
2.1578e-08
2.15779e-08
2.15779e-08
2.15777e-08
2.15776e-08
2.15774e-08
2.15771e-08
2.15768e-08
2.15769e-08
2.15771e-08
2.15773e-08
2.15775e-08
2.15776e-08
2.15776e-08
2.15777e-08
2.15777e-08
2.15776e-08
2.15775e-08
2.15773e-08
2.15771e-08
2.15768e-08
2.15766e-08
2.1555e-08
2.15552e-08
2.15554e-08
2.15555e-08
2.15556e-08
2.15557e-08
2.15557e-08
2.15557e-08
2.15556e-08
2.15555e-08
2.15554e-08
2.15552e-08
2.1555e-08
2.15548e-08
2.15552e-08
2.15554e-08
2.15555e-08
2.15557e-08
2.15558e-08
2.15558e-08
2.15558e-08
2.15558e-08
2.15558e-08
2.15557e-08
2.15555e-08
2.15554e-08
2.15552e-08
2.15549e-08
2.15553e-08
2.15555e-08
2.15557e-08
2.15558e-08
2.15559e-08
2.1556e-08
2.1556e-08
2.1556e-08
2.15559e-08
2.15558e-08
2.15557e-08
2.15555e-08
2.15553e-08
2.15551e-08
2.15555e-08
2.15556e-08
2.15558e-08
2.15559e-08
2.1556e-08
2.15561e-08
2.15561e-08
2.1556e-08
2.1556e-08
2.15559e-08
2.15558e-08
2.15556e-08
2.15554e-08
2.15552e-08
2.15555e-08
2.15557e-08
2.15559e-08
2.1556e-08
2.15561e-08
2.15561e-08
2.15561e-08
2.15561e-08
2.15561e-08
2.1556e-08
2.15558e-08
2.15557e-08
2.15555e-08
2.15553e-08
2.15556e-08
2.15558e-08
2.15559e-08
2.1556e-08
2.15561e-08
2.15561e-08
2.15562e-08
2.15561e-08
2.15561e-08
2.1556e-08
2.15559e-08
2.15557e-08
2.15555e-08
2.15553e-08
2.15556e-08
2.15557e-08
2.15559e-08
2.1556e-08
2.15561e-08
2.15561e-08
2.15561e-08
2.15561e-08
2.15561e-08
2.1556e-08
2.15559e-08
2.15557e-08
2.15555e-08
2.15553e-08
2.15555e-08
2.15557e-08
2.15559e-08
2.1556e-08
2.1556e-08
2.15561e-08
2.15561e-08
2.15561e-08
2.1556e-08
2.15559e-08
2.15558e-08
2.15557e-08
2.15555e-08
2.15553e-08
2.15555e-08
2.15556e-08
2.15558e-08
2.15559e-08
2.1556e-08
2.1556e-08
2.1556e-08
2.1556e-08
2.1556e-08
2.15559e-08
2.15557e-08
2.15556e-08
2.15554e-08
2.15552e-08
2.15554e-08
2.15555e-08
2.15557e-08
2.15558e-08
2.15559e-08
2.15559e-08
2.15559e-08
2.15559e-08
2.15558e-08
2.15558e-08
2.15556e-08
2.15555e-08
2.15553e-08
2.15551e-08
2.15552e-08
2.15554e-08
2.15555e-08
2.15556e-08
2.15557e-08
2.15558e-08
2.15558e-08
2.15558e-08
2.15557e-08
2.15556e-08
2.15555e-08
2.15553e-08
2.15551e-08
2.15549e-08
2.1555e-08
2.15552e-08
2.15553e-08
2.15555e-08
2.15555e-08
2.15556e-08
2.15556e-08
2.15556e-08
2.15555e-08
2.15554e-08
2.15553e-08
2.15552e-08
2.1555e-08
2.15547e-08
2.15548e-08
2.1555e-08
2.15551e-08
2.15552e-08
2.15553e-08
2.15554e-08
2.15554e-08
2.15554e-08
2.15553e-08
2.15552e-08
2.15551e-08
2.15549e-08
2.15548e-08
2.15545e-08
2.15546e-08
2.15547e-08
2.15549e-08
2.1555e-08
2.15551e-08
2.15552e-08