/*--------------------------------*- C++ -*----------------------------------*\
| =========                 |                                                 |
| \\      /  F ield         | OpenFOAM: The Open Source CFD Toolbox           |
|  \\    /   O peration     | Version:  v2106                                 |
|   \\  /    A nd           | Website:  www.openfoam.com                      |
|    \\/     M anipulation  |                                                 |
\*---------------------------------------------------------------------------*/
FoamFile
{
    version     2.0;
    format      ascii;
    arch        "LSB;label=32;scalar=64";
    class       volScalarField;
    location    "0.000149";
    object      rho;
}
// * * * * * * * * * * * * * * * * * * * * * * * * * * * * * * * * * * * * * //

dimensions      [1 -3 0 0 0 0 0];

internalField   nonuniform List<scalar> 
17924
(
2.66297
2.66305
2.66319
2.66333
2.6567
2.65671
2.65676
2.65681
2.65686
2.65691
2.65695
2.65697
2.65697
2.65702
2.65706
2.65711
2.65716
2.6572
2.65722
2.65722
2.65727
2.65732
2.65737
2.65741
2.65745
2.65749
2.65749
2.65753
2.65758
2.65762
2.65766
2.65769
2.65775
2.65776
2.6578
2.65784
2.65788
2.65791
2.65794
2.65802
2.65804
2.65807
2.6581
2.65814
2.65817
2.6582
2.65828
2.65831
2.65834
2.65837
2.6584
2.65842
2.65845
2.65855
2.65858
2.6586
2.65863
2.65866
2.65868
2.65871
2.65881
2.65884
2.65886
2.65888
2.65891
2.65893
2.65896
2.65906
2.65909
2.6591
2.65913
2.65916
2.65918
2.65921
2.6593
2.65933
2.65934
2.65937
2.6594
2.65942
2.65945
2.65953
2.65956
2.65957
2.6596
2.65963
2.65966
2.65969
2.65975
2.65978
2.6598
2.65982
2.65986
2.65989
2.65993
2.65999
2.66
2.66002
2.66005
2.66008
2.66013
2.66017
2.65073
2.65071
2.65069
2.65068
2.65066
2.65064
2.65061
2.65059
2.65056
2.65054
2.65051
2.65049
2.65046
2.65046
2.65089
2.65086
2.65084
2.65082
2.6508
2.65078
2.65076
2.65073
2.65071
2.65068
2.65065
2.65063
2.6506
2.65059
2.65104
2.65101
2.65099
2.65097
2.65095
2.65092
2.6509
2.65087
2.65085
2.65082
2.65079
2.65077
2.65074
2.65073
2.6512
2.65116
2.65114
2.65112
2.6511
2.65107
2.65105
2.65102
2.65099
2.65096
2.65093
2.65091
2.65088
2.65086
2.65135
2.65132
2.6513
2.65127
2.65125
2.65122
2.65119
2.65117
2.65114
2.65111
2.65108
2.65105
2.65102
2.651
2.65151
2.65148
2.65145
2.65143
2.6514
2.65137
2.65135
2.65132
2.65129
2.65126
2.65123
2.6512
2.65116
2.65113
2.65166
2.65163
2.65161
2.65158
2.65155
2.65153
2.6515
2.65147
2.65144
2.65141
2.65138
2.65135
2.65131
2.65127
2.65181
2.65178
2.65176
2.65173
2.6517
2.65168
2.65165
2.65162
2.65159
2.65156
2.65153
2.65149
2.65145
2.65141
2.65194
2.65192
2.6519
2.65187
2.65185
2.65182
2.65179
2.65177
2.65174
2.6517
2.65167
2.65163
2.65159
2.65154
2.65207
2.65205
2.65203
2.652
2.65198
2.65196
2.65193
2.65191
2.65188
2.65184
2.65181
2.65177
2.65173
2.65167
2.65219
2.65217
2.65215
2.65213
2.65211
2.65209
2.65207
2.65204
2.65201
2.65198
2.65195
2.6519
2.65186
2.6518
2.6523
2.65228
2.65226
2.65224
2.65223
2.65221
2.65219
2.65217
2.65215
2.65211
2.65208
2.65203
2.65199
2.65192
2.65241
2.65239
2.65237
2.65236
2.65235
2.65233
2.65232
2.6523
2.65228
2.65224
2.65221
2.65216
2.65211
2.65205
2.65252
2.6525
2.65248
2.65247
2.65246
2.65245
2.65244
2.65243
2.65241
2.65238
2.65235
2.6523
2.65225
2.65219
2.64473
2.64466
2.64461
2.64455
2.64449
2.64444
2.64438
2.64433
2.64428
2.64423
2.64418
2.64413
2.64407
2.64402
2.6448
2.64473
2.64467
2.64461
2.64455
2.6445
2.64445
2.64439
2.64434
2.64429
2.64423
2.64418
2.64412
2.64408
2.64486
2.64479
2.64473
2.64467
2.64462
2.64456
2.64451
2.64445
2.6444
2.64435
2.6443
2.64424
2.64418
2.64414
2.64492
2.64485
2.6448
2.64474
2.64468
2.64463
2.64457
2.64452
2.64447
2.64441
2.64436
2.6443
2.64425
2.6442
2.64498
2.64492
2.64486
2.6448
2.64475
2.64469
2.64464
2.64459
2.64454
2.64448
2.64443
2.64437
2.64431
2.64426
2.64504
2.64498
2.64493
2.64487
2.64482
2.64476
2.64471
2.64466
2.64461
2.64455
2.6445
2.64444
2.64438
2.64432
2.64509
2.64504
2.64499
2.64493
2.64488
2.64483
2.64478
2.64473
2.64467
2.64462
2.64456
2.6445
2.64445
2.64439
2.64514
2.64509
2.64504
2.64499
2.64494
2.64489
2.64484
2.64479
2.64474
2.64468
2.64463
2.64457
2.64451
2.64445
2.64519
2.64514
2.6451
2.64505
2.645
2.64495
2.6449
2.64485
2.6448
2.64474
2.64468
2.64462
2.64456
2.6445
2.64523
2.64519
2.64514
2.6451
2.64505
2.645
2.64496
2.6449
2.64485
2.64479
2.64474
2.64468
2.64462
2.64455
2.64527
2.64523
2.64519
2.64515
2.6451
2.64506
2.64501
2.64496
2.6449
2.64485
2.64479
2.64472
2.64466
2.6446
2.64531
2.64527
2.64523
2.64519
2.64515
2.64511
2.64506
2.64501
2.64495
2.64489
2.64483
2.64477
2.64471
2.64464
2.64536
2.64531
2.64528
2.64524
2.6452
2.64516
2.64511
2.64506
2.645
2.64494
2.64488
2.64481
2.64475
2.64468
2.6454
2.64535
2.64532
2.64528
2.64524
2.6452
2.64516
2.64511
2.64505
2.64499
2.64493
2.64486
2.6448
2.64472
2.63851
2.63842
2.63834
2.63827
2.6382
2.63814
2.63809
2.63803
2.63798
2.63793
2.63788
2.63784
2.63779
2.63774
2.6385
2.63842
2.63834
2.63827
2.63821
2.63815
2.63809
2.63803
2.63798
2.63793
2.63788
2.63783
2.63778
2.63774
2.6385
2.63842
2.63834
2.63827
2.63821
2.63815
2.63809
2.63803
2.63798
2.63793
2.63788
2.63783
2.63778
2.63774
2.63849
2.63842
2.63834
2.63827
2.63821
2.63815
2.6381
2.63804
2.63799
2.63793
2.63788
2.63783
2.63779
2.63774
2.63849
2.63841
2.63834
2.63828
2.63822
2.63816
2.6381
2.63805
2.638
2.63794
2.63789
2.63784
2.6378
2.63775
2.63848
2.63841
2.63835
2.63828
2.63822
2.63817
2.63811
2.63806
2.63801
2.63795
2.6379
2.63785
2.6378
2.63776
2.63848
2.63841
2.63835
2.63829
2.63823
2.63817
2.63812
2.63807
2.63801
2.63796
2.63791
2.63786
2.63781
2.63777
2.63848
2.63841
2.63835
2.63829
2.63824
2.63818
2.63813
2.63807
2.63802
2.63797
2.63792
2.63787
2.63782
2.63778
2.63848
2.63842
2.63836
2.6383
2.63824
2.63819
2.63814
2.63808
2.63803
2.63798
2.63793
2.63788
2.63783
2.63779
2.63848
2.63842
2.63836
2.63831
2.63825
2.6382
2.63814
2.63809
2.63804
2.63798
2.63793
2.63789
2.63784
2.6378
2.63849
2.63843
2.63837
2.63832
2.63826
2.63821
2.63815
2.6381
2.63805
2.63799
2.63794
2.63789
2.63785
2.63781
2.6385
2.63844
2.63839
2.63833
2.63828
2.63822
2.63817
2.63811
2.63806
2.638
2.63795
2.6379
2.63786
2.63781
2.63851
2.63845
2.6384
2.63835
2.63829
2.63824
2.63818
2.63813
2.63807
2.63801
2.63796
2.63791
2.63786
2.63782
2.63853
2.63847
2.63842
2.63836
2.63831
2.63826
2.6382
2.63814
2.63809
2.63803
2.63797
2.63792
2.63788
2.63783
2.63222
2.63212
2.63205
2.63198
2.63192
2.63187
2.63183
2.63178
2.63175
2.63171
2.63168
2.63166
2.63164
2.63162
2.63216
2.63208
2.63201
2.63195
2.63189
2.63183
2.63179
2.63174
2.6317
2.63167
2.63164
2.63161
2.63159
2.63158
2.63212
2.63204
2.63197
2.6319
2.63184
2.63179
2.63174
2.6317
2.63166
2.63163
2.6316
2.63158
2.63156
2.63154
2.63208
2.632
2.63193
2.63187
2.63181
2.63176
2.63171
2.63167
2.63163
2.63159
2.63157
2.63154
2.63153
2.63151
2.63205
2.63197
2.6319
2.63184
2.63178
2.63172
2.63168
2.63163
2.6316
2.63156
2.63154
2.63152
2.6315
2.63149
2.63202
2.63194
2.63187
2.63181
2.63175
2.6317
2.63165
2.63161
2.63157
2.63154
2.63151
2.63149
2.63148
2.63147
2.63199
2.63192
2.63185
2.63178
2.63173
2.63167
2.63163
2.63159
2.63155
2.63152
2.63149
2.63147
2.63146
2.63145
2.63197
2.6319
2.63183
2.63177
2.63171
2.63166
2.63161
2.63157
2.63153
2.6315
2.63148
2.63146
2.63145
2.63144
2.63196
2.63189
2.63182
2.63176
2.6317
2.63165
2.6316
2.63156
2.63152
2.63149
2.63147
2.63145
2.63144
2.63144
2.63195
2.63189
2.63182
2.63176
2.6317
2.63165
2.6316
2.63156
2.63152
2.63149
2.63147
2.63145
2.63144
2.63144
2.63196
2.63189
2.63182
2.63176
2.63171
2.63165
2.63161
2.63156
2.63153
2.6315
2.63147
2.63145
2.63144
2.63144
2.63196
2.6319
2.63183
2.63177
2.63172
2.63166
2.63162
2.63157
2.63153
2.6315
2.63148
2.63146
2.63145
2.63144
2.63198
2.63191
2.63185
2.63179
2.63173
2.63168
2.63163
2.63159
2.63155
2.63152
2.63149
2.63147
2.63146
2.63145
2.632
2.63193
2.63187
2.63181
2.63175
2.6317
2.63165
2.6316
2.63156
2.63153
2.6315
2.63148
2.63147
2.63146
2.62619
2.62612
2.62606
2.626
2.62596
2.62592
2.62588
2.62586
2.62584
2.62582
2.62582
2.62582
2.62582
2.62583
2.62613
2.62607
2.62601
2.62595
2.6259
2.62586
2.62582
2.6258
2.62578
2.62577
2.62576
2.62576
2.62577
2.62577
2.62608
2.62602
2.62595
2.6259
2.62585
2.6258
2.62577
2.62574
2.62572
2.62571
2.62571
2.62571
2.62572
2.62572
2.62603
2.62597
2.6259
2.62585
2.6258
2.62575
2.62572
2.62569
2.62567
2.62566
2.62566
2.62566
2.62567
2.62568
2.626
2.62593
2.62586
2.6258
2.62575
2.62571
2.62567
2.62564
2.62563
2.62562
2.62562
2.62562
2.62564
2.62565
2.62596
2.62589
2.62583
2.62577
2.62572
2.62567
2.62564
2.62561
2.62559
2.62558
2.62559
2.62559
2.62561
2.62562
2.62594
2.62587
2.6258
2.62574
2.62569
2.62564
2.62561
2.62558
2.62557
2.62556
2.62556
2.62557
2.62559
2.62561
2.62592
2.62585
2.62579
2.62573
2.62567
2.62563
2.62559
2.62557
2.62555
2.62554
2.62555
2.62556
2.62558
2.6256
2.62591
2.62584
2.62578
2.62572
2.62567
2.62562
2.62559
2.62556
2.62554
2.62554
2.62554
2.62555
2.62557
2.62559
2.62591
2.62585
2.62578
2.62572
2.62567
2.62563
2.62559
2.62557
2.62555
2.62554
2.62555
2.62556
2.62558
2.6256
2.62592
2.62586
2.62579
2.62574
2.62569
2.62564
2.62561
2.62558
2.62556
2.62556
2.62556
2.62557
2.62559
2.62561
2.62594
2.62588
2.62581
2.62576
2.62571
2.62566
2.62563
2.6256
2.62558
2.62557
2.62558
2.62559
2.6256
2.62562
2.62596
2.6259
2.62584
2.62579
2.62574
2.62569
2.62566
2.62563
2.62561
2.6256
2.6256
2.62561
2.62562
2.62564
2.626
2.62593
2.62587
2.62581
2.62576
2.62572
2.62569
2.62566
2.62564
2.62562
2.62562
2.62563
2.62564
2.62566
2.62073
2.62068
2.62064
2.62061
2.62057
2.62055
2.62052
2.62051
2.6205
2.6205
2.6205
2.62051
2.62053
2.62054
2.62069
2.62065
2.62061
2.62057
2.62053
2.6205
2.62048
2.62046
2.62046
2.62046
2.62046
2.62047
2.62049
2.6205
2.62065
2.62061
2.62056
2.62052
2.62049
2.62046
2.62044
2.62042
2.62041
2.62041
2.62042
2.62043
2.62045
2.62046
2.62062
2.62058
2.62053
2.62049
2.62045
2.62042
2.6204
2.62038
2.62038
2.62038
2.62038
2.62039
2.62041
2.62043
2.62059
2.62055
2.6205
2.62046
2.62042
2.62039
2.62037
2.62035
2.62034
2.62034
2.62035
2.62036
2.62038
2.6204
2.62057
2.62052
2.62047
2.62043
2.6204
2.62036
2.62034
2.62033
2.62032
2.62032
2.62033
2.62034
2.62036
2.62038
2.62055
2.6205
2.62046
2.62042
2.62038
2.62035
2.62032
2.62031
2.6203
2.6203
2.62031
2.62033
2.62035
2.62037
2.62054
2.62049
2.62045
2.62041
2.62037
2.62034
2.62032
2.6203
2.62029
2.6203
2.62031
2.62032
2.62034
2.62036
2.62054
2.62049
2.62045
2.62041
2.62037
2.62034
2.62032
2.6203
2.6203
2.6203
2.62031
2.62032
2.62034
2.62037
2.62055
2.6205
2.62046
2.62041
2.62038
2.62035
2.62033
2.62031
2.6203
2.62031
2.62032
2.62033
2.62035
2.62038
2.62056
2.62052
2.62047
2.62043
2.62039
2.62036
2.62034
2.62033
2.62032
2.62032
2.62033
2.62035
2.62037
2.62039
2.62058
2.62054
2.62049
2.62045
2.62041
2.62038
2.62036
2.62035
2.62034
2.62034
2.62035
2.62037
2.62039
2.62041
2.62061
2.62056
2.62052
2.62048
2.62044
2.62041
2.62039
2.62037
2.62037
2.62037
2.62038
2.62039
2.62041
2.62043
2.62064
2.62059
2.62055
2.6205
2.62047
2.62044
2.62042
2.6204
2.62039
2.62039
2.6204
2.62041
2.62043
2.62045
2.61592
2.61591
2.61589
2.61588
2.61586
2.61585
2.61584
2.61583
2.61582
2.61581
2.61581
2.61581
2.61582
2.61582
2.61591
2.6159
2.61588
2.61586
2.61585
2.61583
2.61582
2.61581
2.61581
2.6158
2.6158
2.6158
2.61581
2.61581
2.6159
2.61588
2.61587
2.61585
2.61583
2.61582
2.61581
2.6158
2.61579
2.61579
2.61579
2.61579
2.61579
2.61579
2.61588
2.61587
2.61585
2.61584
2.61583
2.61581
2.6158
2.61579
2.61578
2.61578
2.61578
2.61578
2.61578
2.61578
2.61588
2.61586
2.61585
2.61583
2.61582
2.6158
2.61579
2.61578
2.61578
2.61577
2.61577
2.61577
2.61577
2.61577
2.61587
2.61585
2.61584
2.61583
2.61581
2.6158
2.61579
2.61578
2.61577
2.61576
2.61576
2.61576
2.61576
2.61576
2.61587
2.61585
2.61584
2.61582
2.61581
2.61579
2.61578
2.61577
2.61577
2.61576
2.61576
2.61576
2.61576
2.61576
2.61586
2.61585
2.61583
2.61582
2.61581
2.61579
2.61578
2.61577
2.61576
2.61576
2.61576
2.61575
2.61575
2.61576
2.61586
2.61585
2.61583
2.61582
2.61581
2.61579
2.61578
2.61577
2.61576
2.61576
2.61576
2.61575
2.61576
2.61576
2.61587
2.61585
2.61584
2.61582
2.61581
2.61579
2.61578
2.61577
2.61577
2.61576
2.61576
2.61576
2.61576
2.61576
2.61587
2.61586
2.61584
2.61583
2.61581
2.6158
2.61579
2.61578
2.61577
2.61577
2.61577
2.61576
2.61577
2.61577
2.61588
2.61587
2.61585
2.61583
2.61582
2.6158
2.61579
2.61578
2.61578
2.61577
2.61577
2.61577
2.61578
2.61578
2.61589
2.61588
2.61586
2.61584
2.61582
2.61581
2.6158
2.61579
2.61579
2.61578
2.61578
2.61579
2.61579
2.61579
2.6159
2.61588
2.61586
2.61585
2.61583
2.61582
2.61581
2.6158
2.6158
2.61579
2.61579
2.6158
2.6158
2.6158
2.61169
2.6117
2.6117
2.61171
2.61171
2.61171
2.61171
2.6117
2.61169
2.61168
2.61166
2.61165
2.61163
2.61162
2.6117
2.61171
2.61172
2.61172
2.61173
2.61173
2.61172
2.61172
2.61171
2.61169
2.61168
2.61166
2.61165
2.61163
2.61171
2.61172
2.61173
2.61174
2.61174
2.61174
2.61174
2.61173
2.61172
2.61171
2.61169
2.61168
2.61166
2.61164
2.61172
2.61173
2.61174
2.61175
2.61176
2.61176
2.61176
2.61175
2.61174
2.61172
2.61171
2.61169
2.61167
2.61165
2.61173
2.61174
2.61175
2.61176
2.61177
2.61177
2.61177
2.61176
2.61175
2.61173
2.61172
2.6117
2.61168
2.61166
2.61174
2.61175
2.61176
2.61177
2.61178
2.61178
2.61178
2.61177
2.61176
2.61174
2.61172
2.6117
2.61168
2.61166
2.61174
2.61175
2.61177
2.61178
2.61178
2.61178
2.61178
2.61177
2.61176
2.61175
2.61173
2.61171
2.61168
2.61166
2.61174
2.61176
2.61177
2.61178
2.61178
2.61178
2.61178
2.61177
2.61176
2.61175
2.61173
2.61171
2.61168
2.61166
2.61174
2.61175
2.61176
2.61177
2.61178
2.61178
2.61178
2.61177
2.61176
2.61174
2.61172
2.6117
2.61168
2.61165
2.61174
2.61175
2.61176
2.61177
2.61177
2.61177
2.61177
2.61176
2.61175
2.61174
2.61172
2.6117
2.61167
2.61165
2.61173
2.61174
2.61175
2.61175
2.61176
2.61176
2.61176
2.61175
2.61174
2.61173
2.61171
2.61169
2.61167
2.61164
2.61172
2.61173
2.61173
2.61174
2.61174
2.61175
2.61174
2.61174
2.61173
2.61171
2.6117
2.61168
2.61166
2.61163
2.61171
2.61172
2.61172
2.61172
2.61173
2.61173
2.61172
2.61172
2.61171
2.6117
2.61169
2.61167
2.61165
2.61163
2.61169
2.6117
2.6117
2.6117
2.61171
2.61171
2.61171
2.6117
2.6117
2.61169
2.61167
2.61166
2.61164
2.61162
2.60787
2.60789
2.60792
2.60793
2.60795
2.60795
2.60795
2.60795
2.60793
2.60792
2.60789
2.60787
2.60784
2.60781
2.60789
2.60792
2.60794
2.60796
2.60798
2.60799
2.60799
2.60798
2.60797
2.60795
2.60793
2.6079
2.60787
2.60784
2.60792
2.60795
2.60797
2.60799
2.60801
2.60802
2.60802
2.60801
2.608
2.60798
2.60796
2.60793
2.6079
2.60786
2.60794
2.60797
2.608
2.60802
2.60803
2.60804
2.60804
2.60804
2.60802
2.60801
2.60798
2.60795
2.60792
2.60788
2.60796
2.60799
2.60801
2.60804
2.60805
2.60806
2.60806
2.60806
2.60804
2.60803
2.608
2.60797
2.60793
2.6079
2.60797
2.608
2.60803
2.60805
2.60807
2.60807
2.60808
2.60807
2.60806
2.60804
2.60801
2.60798
2.60794
2.60791
2.60798
2.60801
2.60804
2.60806
2.60807
2.60808
2.60808
2.60808
2.60807
2.60805
2.60802
2.60799
2.60795
2.60791
2.60798
2.60801
2.60804
2.60806
2.60807
2.60808
2.60808
2.60808
2.60807
2.60805
2.60802
2.60799
2.60795
2.60791
2.60798
2.608
2.60803
2.60805
2.60806
2.60807
2.60808
2.60807
2.60806
2.60804
2.60801
2.60798
2.60794
2.6079
2.60796
2.60799
2.60801
2.60803
2.60805
2.60806
2.60806
2.60805
2.60804
2.60802
2.608
2.60796
2.60793
2.60788
2.60795
2.60797
2.60799
2.60801
2.60803
2.60804
2.60804
2.60803
2.60802
2.608
2.60797
2.60794
2.60791
2.60787
2.60792
2.60794
2.60797
2.60799
2.608
2.60801
2.60801
2.60801
2.60799
2.60797
2.60795
2.60792
2.60788
2.60784
2.60789
2.60791
2.60793
2.60795
2.60797
2.60797
2.60798
2.60797
2.60796
2.60794
2.60792
2.60789
2.60786
2.60782
2.60785
2.60788
2.6079
2.60791
2.60793
2.60794
2.60794
2.60794
2.60793
2.60791
2.60789
2.60786
2.60783
2.60779
2.60431
2.60434
2.60437
2.60439
2.60441
2.60442
2.60442
2.60441
2.6044
2.60438
2.60436
2.60433
2.6043
2.60426
2.60434
2.60437
2.6044
2.60442
2.60444
2.60445
2.60445
2.60445
2.60444
2.60442
2.60439
2.60436
2.60433
2.60429
2.60437
2.6044
2.60443
2.60445
2.60447
2.60448
2.60448
2.60448
2.60447
2.60445
2.60442
2.60439
2.60436
2.60432
2.60439
2.60443
2.60446
2.60448
2.6045
2.60451
2.60451
2.60451
2.60449
2.60447
2.60445
2.60442
2.60438
2.60434
2.60441
2.60444
2.60447
2.6045
2.60452
2.60453
2.60453
2.60452
2.60451
2.60449
2.60447
2.60444
2.6044
2.60436
2.60442
2.60446
2.60449
2.60451
2.60453
2.60454
2.60454
2.60454
2.60453
2.60451
2.60448
2.60445
2.60441
2.60437
2.60443
2.60446
2.60449
2.60452
2.60453
2.60454
2.60455
2.60454
2.60453
2.60451
2.60448
2.60445
2.60441
2.60437
2.60443
2.60446
2.60449
2.60451
2.60453
2.60454
2.60454
2.60454
2.60453
2.60451
2.60448
2.60445
2.60441
2.60437
2.60442
2.60445
2.60448
2.6045
2.60452
2.60453
2.60453
2.60453
2.60452
2.6045
2.60447
2.60444
2.6044
2.60435
2.60441
2.60443
2.60446
2.60449
2.6045
2.60451
2.60452
2.60451
2.6045
2.60448
2.60445
2.60442
2.60438
2.60434
2.60438
2.60441
2.60444
2.60446
2.60448
2.60449
2.60449
2.60449
2.60447
2.60445
2.60443
2.6044
2.60436
2.60431
2.60435
2.60438
2.60441
2.60443
2.60444
2.60446
2.60446
2.60445
2.60444
2.60442
2.6044
2.60437
2.60433
2.60429
2.60432
2.60434
2.60437
2.60439
2.60441
2.60442
2.60442
2.60442
2.60441
2.60439
2.60436
2.60433
2.60429
2.60425
2.60427
2.6043
2.60433
2.60435
2.60436
2.60437
2.60438
2.60438
2.60437
2.60435
2.60433
2.6043
2.60426
2.60422
2.60091
2.60094
2.60097
2.60099
2.601
2.60101
2.60102
2.60101
2.601
2.60099
2.60096
2.60094
2.60091
2.60087
2.60094
2.60097
2.601
2.60102
2.60103
2.60104
2.60104
2.60104
2.60103
2.60101
2.60099
2.60097
2.60094
2.6009
2.60097
2.601
2.60102
2.60104
2.60106
2.60107
2.60107
2.60107
2.60106
2.60104
2.60102
2.60099
2.60096
2.60093
2.60099
2.60102
2.60104
2.60106
2.60108
2.60109
2.60109
2.60109
2.60108
2.60106
2.60104
2.60101
2.60098
2.60094
2.601
2.60103
2.60106
2.60108
2.60109
2.6011
2.6011
2.6011
2.60109
2.60107
2.60105
2.60103
2.60099
2.60096
2.60101
2.60104
2.60106
2.60108
2.6011
2.60111
2.60111
2.60111
2.6011
2.60108
2.60106
2.60103
2.601
2.60097
2.60101
2.60104
2.60107
2.60109
2.6011
2.60111
2.60111
2.60111
2.6011
2.60108
2.60106
2.60104
2.601
2.60097
2.60101
2.60104
2.60106
2.60108
2.6011
2.6011
2.60111
2.6011
2.60109
2.60108
2.60106
2.60103
2.601
2.60096
2.601
2.60103
2.60105
2.60107
2.60108
2.60109
2.6011
2.60109
2.60108
2.60107
2.60105
2.60102
2.60099
2.60095
2.60098
2.60101
2.60103
2.60105
2.60107
2.60108
2.60108
2.60108
2.60107
2.60105
2.60103
2.601
2.60097
2.60093
2.60096
2.60099
2.60101
2.60103
2.60104
2.60105
2.60106
2.60105
2.60104
2.60103
2.60101
2.60098
2.60095
2.60091
2.60093
2.60096
2.60098
2.601
2.60102
2.60103
2.60103
2.60103
2.60102
2.601
2.60098
2.60095
2.60092
2.60088
2.6009
2.60092
2.60095
2.60097
2.60098
2.60099
2.60099
2.60099
2.60098
2.60097
2.60095
2.60092
2.60089
2.60085
2.60086
2.60088
2.60091
2.60093
2.60094
2.60095
2.60096
2.60095
2.60095
2.60093
2.60091
2.60088
2.60085
2.60081
2.59763
2.59765
2.59767
2.59769
2.5977
2.59771
2.59771
2.59771
2.5977
2.59769
2.59767
2.59765
2.59762
2.59759
2.59765
2.59767
2.59769
2.59771
2.59772
2.59773
2.59773
2.59773
2.59772
2.59771
2.59769
2.59767
2.59765
2.59762
2.59767
2.59769
2.59771
2.59773
2.59774
2.59775
2.59775
2.59775
2.59774
2.59773
2.59771
2.59769
2.59766
2.59764
2.59768
2.59771
2.59773
2.59774
2.59775
2.59776
2.59776
2.59776
2.59775
2.59774
2.59772
2.5977
2.59768
2.59765
2.59769
2.59771
2.59773
2.59775
2.59776
2.59777
2.59777
2.59777
2.59776
2.59775
2.59773
2.59771
2.59769
2.59766
2.5977
2.59772
2.59774
2.59775
2.59776
2.59777
2.59777
2.59777
2.59776
2.59775
2.59774
2.59772
2.59769
2.59767
2.5977
2.59772
2.59774
2.59775
2.59776
2.59777
2.59777
2.59777
2.59776
2.59775
2.59774
2.59772
2.59769
2.59767
2.59769
2.59771
2.59773
2.59775
2.59776
2.59776
2.59777
2.59776
2.59776
2.59775
2.59773
2.59771
2.59769
2.59766
2.59768
2.59771
2.59772
2.59774
2.59775
2.59776
2.59776
2.59775
2.59775
2.59774
2.59772
2.5977
2.59768
2.59765
2.59767
2.59769
2.59771
2.59772
2.59774
2.59774
2.59774
2.59774
2.59773
2.59772
2.59771
2.59769
2.59766
2.59764
2.59765
2.59767
2.59769
2.59771
2.59772
2.59772
2.59773
2.59772
2.59772
2.59771
2.59769
2.59767
2.59764
2.59762
2.59763
2.59765
2.59767
2.59768
2.59769
2.5977
2.5977
2.5977
2.5977
2.59768
2.59767
2.59765
2.59762
2.59759
2.5976
2.59762
2.59764
2.59766
2.59767
2.59768
2.59768
2.59768
2.59767
2.59766
2.59764
2.59762
2.5976
2.59757
2.59757
2.59759
2.59761
2.59763
2.59764
2.59765
2.59765
2.59765
2.59764
2.59763
2.59761
2.59759
2.59757
2.59754
2.59442
2.59444
2.59446
2.59447
2.59448
2.59448
2.59449
2.59448
2.59448
2.59447
2.59446
2.59444
2.59442
2.5944
2.59444
2.59446
2.59447
2.59448
2.59449
2.5945
2.5945
2.5945
2.59449
2.59449
2.59447
2.59446
2.59444
2.59442
2.59445
2.59447
2.59449
2.5945
2.59451
2.59451
2.59451
2.59451
2.59451
2.5945
2.59449
2.59447
2.59445
2.59443
2.59446
2.59448
2.5945
2.59451
2.59451
2.59452
2.59452
2.59452
2.59451
2.59451
2.5945
2.59448
2.59446
2.59444
2.59447
2.59449
2.5945
2.59451
2.59452
2.59452
2.59453
2.59452
2.59452
2.59451
2.5945
2.59449
2.59447
2.59445
2.59447
2.59449
2.5945
2.59451
2.59452
2.59453
2.59453
2.59453
2.59452
2.59451
2.5945
2.59449
2.59447
2.59445
2.59447
2.59449
2.5945
2.59451
2.59452
2.59453
2.59453
2.59453
2.59452
2.59451
2.5945
2.59449
2.59447
2.59445
2.59447
2.59448
2.5945
2.59451
2.59452
2.59452
2.59452
2.59452
2.59452
2.59451
2.5945
2.59449
2.59447
2.59445
2.59446
2.59448
2.59449
2.5945
2.59451
2.59451
2.59452
2.59451
2.59451
2.5945
2.59449
2.59448
2.59446
2.59444
2.59445
2.59447
2.59448
2.59449
2.5945
2.5945
2.59451
2.5945
2.5945
2.59449
2.59448
2.59447
2.59445
2.59443
2.59443
2.59445
2.59447
2.59448
2.59449
2.59449
2.59449
2.59449
2.59449
2.59448
2.59447
2.59445
2.59444
2.59442
2.59442
2.59443
2.59445
2.59446
2.59447
2.59448
2.59448
2.59448
2.59447
2.59446
2.59445
2.59444
2.59442
2.5944
2.5944
2.59442
2.59443
2.59444
2.59445
2.59446
2.59446
2.59446
2.59445
2.59444
2.59443
2.59442
2.5944
2.59438
2.59438
2.59439
2.59441
2.59442
2.59443
2.59444
2.59444
2.59444
2.59443
2.59442
2.59441
2.5944
2.59438
2.59436
2.59129
2.5913
2.59131
2.59132
2.59133
2.59133
2.59133
2.59133
2.59133
2.59133
2.59132
2.59131
2.5913
2.59128
2.59131
2.59132
2.59133
2.59133
2.59134
2.59135
2.59135
2.59135
2.59134
2.59134
2.59133
2.59132
2.59131
2.59129
2.59132
2.59133
2.59134
2.59135
2.59135
2.59135
2.59136
2.59136
2.59135
2.59135
2.59134
2.59133
2.59131
2.5913
2.59132
2.59133
2.59134
2.59135
2.59136
2.59136
2.59136
2.59136
2.59136
2.59135
2.59135
2.59134
2.59132
2.59131
2.59133
2.59134
2.59135
2.59136
2.59136
2.59137
2.59137
2.59137
2.59136
2.59136
2.59135
2.59134
2.59133
2.59131
2.59133
2.59134
2.59135
2.59136
2.59136
2.59137
2.59137
2.59137
2.59137
2.59136
2.59135
2.59134
2.59133
2.59131
2.59133
2.59134
2.59135
2.59136
2.59136
2.59137
2.59137
2.59137
2.59137
2.59136
2.59135
2.59134
2.59133
2.59132
2.59132
2.59134
2.59135
2.59136
2.59136
2.59137
2.59137
2.59137
2.59136
2.59136
2.59135
2.59134
2.59133
2.59131
2.59132
2.59133
2.59134
2.59135
2.59136
2.59136
2.59136
2.59136
2.59136
2.59135
2.59135
2.59134
2.59133
2.59131
2.59131
2.59133
2.59134
2.59135
2.59135
2.59135
2.59136
2.59136
2.59135
2.59135
2.59134
2.59133
2.59132
2.59131
2.5913
2.59132
2.59133
2.59134
2.59134
2.59135
2.59135
2.59135
2.59134
2.59134
2.59133
2.59132
2.59131
2.5913
2.59129
2.59131
2.59132
2.59133
2.59133
2.59134
2.59134
2.59134
2.59133
2.59133
2.59132
2.59131
2.5913
2.59129
2.59128
2.59129
2.59131
2.59131
2.59132
2.59132
2.59133
2.59132
2.59132
2.59132
2.59131
2.5913
2.59129
2.59128
2.59127
2.59128
2.59129
2.5913
2.59131
2.59131
2.59131
2.59131
2.59131
2.5913
2.59129
2.59128
2.59127
2.59126
2.58826
2.58826
2.58826
2.58826
2.58827
2.58827
2.58827
2.58827
2.58827
2.58827
2.58827
2.58826
2.58826
2.58825
2.58826
2.58826
2.58827
2.58827
2.58828
2.58828
2.58828
2.58828
2.58828
2.58828
2.58827
2.58827
2.58826
2.58825
2.58827
2.58827
2.58828
2.58828
2.58828
2.58828
2.58828
2.58828
2.58828
2.58828
2.58828
2.58827
2.58826
2.58826
2.58827
2.58828
2.58828
2.58828
2.58829
2.58829
2.58829
2.58829
2.58829
2.58828
2.58828
2.58828
2.58827
2.58826
2.58827
2.58828
2.58828
2.58829
2.58829
2.58829
2.58829
2.58829
2.58829
2.58829
2.58828
2.58828
2.58827
2.58826
2.58827
2.58828
2.58829
2.58829
2.58829
2.58829
2.5883
2.58829
2.58829
2.58829
2.58829
2.58828
2.58827
2.58827
2.58827
2.58828
2.58829
2.58829
2.58829
2.5883
2.5883
2.5883
2.58829
2.58829
2.58829
2.58828
2.58828
2.58827
2.58827
2.58828
2.58829
2.58829
2.58829
2.5883
2.5883
2.5883
2.58829
2.58829
2.58829
2.58828
2.58828
2.58827
2.58827
2.58828
2.58828
2.58829
2.58829
2.58829
2.5883
2.58829
2.58829
2.58829
2.58829
2.58828
2.58828
2.58827
2.58827
2.58828
2.58828
2.58829
2.58829
2.58829
2.58829
2.58829
2.58829
2.58829
2.58828
2.58828
2.58827
2.58827
2.58826
2.58827
2.58828
2.58828
2.58829
2.58829
2.58829
2.58829
2.58829
2.58828
2.58828
2.58828
2.58827
2.58827
2.58826
2.58827
2.58828
2.58828
2.58828
2.58828
2.58829
2.58828
2.58828
2.58828
2.58828
2.58827
2.58827
2.58826
2.58826
2.58826
2.58827
2.58828
2.58828
2.58828
2.58828
2.58828
2.58828
2.58827
2.58827
2.58827
2.58826
2.58826
2.58825
2.58826
2.58827
2.58827
2.58827
2.58827
2.58827
2.58827
2.58827
2.58827
2.58826
2.58826
2.58826
2.58825
2.58535
2.58534
2.58534
2.58533
2.58533
2.58533
2.58533
2.58533
2.58533
2.58534
2.58534
2.58534
2.58535
2.58535
2.58535
2.58534
2.58534
2.58533
2.58533
2.58533
2.58533
2.58533
2.58533
2.58534
2.58534
2.58534
2.58534
2.58534
2.58535
2.58534
2.58534
2.58533
2.58533
2.58533
2.58533
2.58533
2.58533
2.58533
2.58534
2.58534
2.58534
2.58534
2.58535
2.58534
2.58534
2.58533
2.58533
2.58533
2.58533
2.58533
2.58533
2.58533
2.58533
2.58534
2.58534
2.58534
2.58534
2.58534
2.58534
2.58534
2.58533
2.58533
2.58533
2.58533
2.58533
2.58533
2.58533
2.58534
2.58534
2.58534
2.58534
2.58534
2.58534
2.58534
2.58534
2.58533
2.58533
2.58533
2.58533
2.58533
2.58534
2.58534
2.58534
2.58534
2.58534
2.58534
2.58534
2.58534
2.58534
2.58534
2.58534
2.58534
2.58534
2.58534
2.58534
2.58534
2.58534
2.58534
2.58534
2.58534
2.58534
2.58534
2.58534
2.58534
2.58534
2.58534
2.58534
2.58534
2.58534
2.58534
2.58534
2.58534
2.58534
2.58534
2.58534
2.58534
2.58534
2.58534
2.58534
2.58534
2.58534
2.58534
2.58534
2.58534
2.58534
2.58535
2.58535
2.58535
2.58535
2.58534
2.58534
2.58534
2.58534
2.58534
2.58534
2.58534
2.58534
2.58535
2.58535
2.58535
2.58535
2.58535
2.58535
2.58535
2.58535
2.58535
2.58534
2.58534
2.58534
2.58535
2.58535
2.58535
2.58535
2.58535
2.58535
2.58535
2.58535
2.58535
2.58535
2.58535
2.58535
2.58535
2.58535
2.58535
2.58535
2.58535
2.58535
2.58536
2.58536
2.58536
2.58536
2.58536
2.58535
2.58535
2.58535
2.58535
2.58535
2.58535
2.58535
2.58535
2.58536
2.58536
2.58537
2.58537
2.58536
2.58536
2.58536
2.58536
2.58535
2.58535
2.58535
2.58535
2.58535
2.58536
2.58536
2.58537
2.58262
2.5826
2.58259
2.58258
2.58257
2.58257
2.58257
2.58257
2.58257
2.58258
2.58258
2.5826
2.58261
2.58263
2.58261
2.58259
2.58258
2.58257
2.58257
2.58256
2.58256
2.58256
2.58256
2.58257
2.58258
2.58259
2.5826
2.58261
2.5826
2.58259
2.58257
2.58257
2.58256
2.58256
2.58255
2.58255
2.58256
2.58256
2.58257
2.58258
2.58259
2.5826
2.58259
2.58258
2.58257
2.58256
2.58255
2.58255
2.58255
2.58255
2.58255
2.58256
2.58256
2.58257
2.58258
2.58259
2.58259
2.58258
2.58257
2.58256
2.58255
2.58255
2.58255
2.58255
2.58255
2.58255
2.58256
2.58257
2.58258
2.58259
2.58258
2.58257
2.58256
2.58256
2.58255
2.58255
2.58255
2.58255
2.58255
2.58255
2.58256
2.58257
2.58258
2.58259
2.58258
2.58257
2.58256
2.58256
2.58255
2.58255
2.58255
2.58255
2.58255
2.58255
2.58256
2.58257
2.58258
2.58259
2.58259
2.58258
2.58257
2.58256
2.58255
2.58255
2.58255
2.58255
2.58255
2.58256
2.58256
2.58257
2.58258
2.58259
2.58259
2.58258
2.58257
2.58256
2.58256
2.58256
2.58255
2.58255
2.58256
2.58256
2.58257
2.58257
2.58258
2.58259
2.5826
2.58259
2.58258
2.58257
2.58257
2.58256
2.58256
2.58256
2.58256
2.58257
2.58257
2.58258
2.58259
2.5826
2.58261
2.5826
2.58259
2.58258
2.58257
2.58257
2.58257
2.58257
2.58257
2.58258
2.58258
2.58259
2.5826
2.58261
2.58262
2.58261
2.5826
2.58259
2.58259
2.58258
2.58258
2.58258
2.58258
2.58258
2.58259
2.5826
2.58261
2.58262
2.58263
2.58262
2.58261
2.5826
2.5826
2.58259
2.58259
2.58259
2.58259
2.5826
2.5826
2.58261
2.58262
2.58264
2.58265
2.58264
2.58263
2.58262
2.58261
2.58261
2.5826
2.5826
2.5826
2.58261
2.58261
2.58262
2.58264
2.58265
2.5801
2.58008
2.58006
2.58005
2.58004
2.58004
2.58003
2.58003
2.58004
2.58004
2.58005
2.58007
2.58008
2.58006
2.58005
2.58004
2.58003
2.58002
2.58002
2.58002
2.58003
2.58003
2.58004
2.58005
2.58007
2.58005
2.58004
2.58003
2.58002
2.58001
2.58001
2.58001
2.58001
2.58002
2.58003
2.58004
2.58006
2.58004
2.58003
2.58002
2.58001
2.58
2.58
2.58
2.58001
2.58001
2.58002
2.58003
2.58005
2.58004
2.58002
2.58001
2.58
2.58
2.58
2.58
2.58
2.58001
2.58002
2.58003
2.58005
2.58003
2.58002
2.58001
2.58
2.57999
2.57999
2.57999
2.58
2.58
2.58001
2.58002
2.58005
2.58003
2.58002
2.58001
2.58
2.57999
2.57999
2.57999
2.58
2.58
2.58001
2.58002
2.58005
2.58004
2.58002
2.58001
2.58
2.58
2.58
2.58
2.58
2.58001
2.58002
2.58003
2.58006
2.58004
2.58003
2.58002
2.58001
2.58
2.58
2.58
2.58001
2.58001
2.58002
2.58003
2.58007
2.58005
2.58004
2.58003
2.58002
2.58001
2.58001
2.58001
2.58001
2.58002
2.58003
2.58004
2.58008
2.58006
2.58005
2.58004
2.58003
2.58002
2.58002
2.58002
2.58003
2.58003
2.58004
2.58005
2.58009
2.58008
2.58006
2.58005
2.58004
2.58004
2.58003
2.58004
2.58004
2.58005
2.58005
2.58007
2.58011
2.58009
2.58008
2.58007
2.58006
2.58005
2.58005
2.58005
2.58006
2.58006
2.58007
2.58008
2.58013
2.58011
2.5801
2.58009
2.58008
2.58007
2.58007
2.58007
2.58007
2.58008
2.58009
2.5801
2.66259
2.66224
2.66192
2.66162
2.66135
2.66109
2.66271
2.66233
2.66198
2.66163
2.66129
2.66097
2.6628
2.66238
2.66199
2.66161
2.66125
2.66091
2.66293
2.66248
2.66205
2.66165
2.66127
2.66091
2.65646
2.65624
2.65604
2.65587
2.6557
2.65554
2.6565
2.65626
2.65602
2.6558
2.65559
2.65539
2.6565
2.65624
2.65598
2.65573
2.6555
2.65529
2.65654
2.65625
2.65596
2.65569
2.65545
2.65522
2.65658
2.65627
2.65597
2.65569
2.65543
2.65519
2.65662
2.6563
2.65599
2.6557
2.65544
2.65521
2.65666
2.65634
2.65603
2.65574
2.65548
2.65525
2.65061
2.65052
2.65043
2.65035
2.65027
2.65019
2.65058
2.65047
2.65035
2.65024
2.65013
2.65003
2.65055
2.65042
2.65028
2.65015
2.65002
2.6499
2.65052
2.65037