/*--------------------------------*- C++ -*----------------------------------*\
| =========                 |                                                 |
| \\      /  F ield         | OpenFOAM: The Open Source CFD Toolbox           |
|  \\    /   O peration     | Version:  v2106                                 |
|   \\  /    A nd           | Website:  www.openfoam.com                      |
|    \\/     M anipulation  |                                                 |
\*---------------------------------------------------------------------------*/
FoamFile
{
    version     2.0;
    format      ascii;
    arch        "LSB;label=32;scalar=64";
    class       volScalarField;
    location    "0.000141";
    object      alphat;
}
// * * * * * * * * * * * * * * * * * * * * * * * * * * * * * * * * * * * * * //

dimensions      [1 -1 -1 0 0 0 0];

internalField   nonuniform List<scalar> 
18109
(
1.06954e-06
3.92154e-07
1.65207e-07
7.46641e-08
3.96959e-08
2.67165e-08
2.20137e-08
2.85592e-07
8.38255e-08
2.63379e-08
8.3314e-09
3.48101e-09
2.42351e-09
2.3798e-09
1.56778e-07
4.95289e-08
1.51225e-08
4.54541e-09
1.28959e-09
3.91999e-10
2.26252e-10
2.02439e-07
7.57285e-08
2.66568e-08
8.26096e-09
2.13336e-09
4.46216e-10
7.96039e-11
2.66141e-07
1.04852e-07
3.63759e-08
1.07599e-08
2.63538e-09
5.21565e-10
7.98854e-11
3.31994e-07
1.25165e-07
4.09859e-08
1.14328e-08
2.65542e-09
5.00488e-10
7.3436e-11
4.24245e-07
1.49032e-07
4.52845e-08
1.17289e-08
2.54022e-09
4.49079e-10
6.48138e-11
5.64719e-07
1.84869e-07
5.22129e-08
1.26245e-08
2.56939e-09
4.46289e-10
8.59546e-11
1.95412e-07
5.7715e-08
1.95202e-08
8.0771e-09
4.88316e-09
4.06436e-09
3.8563e-09
3.6836e-09
3.39747e-09
2.79239e-09
1.80318e-09
9.54991e-10
9.44754e-10
5.49784e-09
5.54878e-08
1.41595e-08
3.55503e-09
9.69996e-10
3.98674e-10
3.13924e-10
3.46578e-10
3.95765e-10
4.27848e-10
4.0586e-10
2.93107e-10
1.78762e-10
5.28159e-10
4.9085e-09
4.80088e-08
1.43229e-08
4.12266e-09
1.12047e-09
2.70549e-10
6.42002e-11
2.99083e-11
3.29418e-11
4.09882e-11
4.45777e-11
3.63928e-11
4.02075e-11
3.62629e-10
3.93658e-09
6.86887e-08
2.33902e-08
7.23344e-09
1.9337e-09
4.29886e-10
7.7678e-11
1.18088e-11
3.03795e-12
3.03052e-12
3.75475e-12
3.6926e-12
1.27402e-11
1.95374e-10
2.40868e-09
8.78362e-08
3.0589e-08
9.26663e-09
2.38643e-09
5.08907e-10
8.79429e-11
1.18513e-11
1.2557e-12
2.33273e-13
2.38975e-13
3.59455e-13
4.78878e-12
9.29881e-11
1.22012e-09
1.07977e-07
3.57334e-08
1.02149e-08
2.47607e-09
4.99026e-10
8.17327e-11
1.05108e-11
1.04226e-12
9.9593e-14
3.07158e-14
5.54915e-14
1.61405e-12
3.98558e-11
5.78895e-10
1.37067e-07
4.21482e-08
1.1172e-08
2.51563e-09
4.73418e-10
7.28227e-11
9.20271e-12
1.2408e-12
4.02007e-13
2.36771e-13
1.52567e-13
6.63983e-13
1.69284e-11
2.76328e-10
1.80697e-07
5.14766e-08
1.26537e-08
2.65873e-09
4.69898e-10
7.10255e-11
1.21282e-11
4.9256e-12
3.53045e-12
2.54277e-12
1.69945e-12
1.39763e-12
8.83417e-12
1.44275e-10
2.40805e-07
6.43247e-08
1.47888e-08
2.91421e-09
4.95795e-10
9.35818e-11
4.09772e-11
3.37345e-11
2.8485e-11
2.24497e-11
1.63324e-11
1.24978e-11
1.33867e-11
8.81282e-11
3.24925e-07
8.31525e-08
1.83547e-08
3.50689e-09
6.69592e-10
2.54794e-10
2.19651e-10
2.14417e-10
1.92831e-10
1.63347e-10
1.28911e-10
1.0653e-10
8.60795e-11
1.15927e-10
4.22189e-07
1.03961e-07
2.24033e-08
4.47666e-09
1.3319e-09
1.03678e-09
1.11438e-09
1.15897e-09
1.09862e-09
9.93413e-10
8.50072e-10
7.52149e-10
6.19799e-10
5.64833e-10
5.39931e-07
1.30409e-07
2.88335e-08
7.18553e-09
3.9932e-09
4.27128e-09
4.91291e-09
5.34327e-09
5.33097e-09
5.13771e-09
4.75981e-09
4.44915e-09
3.81042e-09
3.35916e-09
6.93269e-07
1.70192e-07
4.14921e-08
1.54761e-08
1.34604e-08
1.58794e-08
1.88261e-08
2.12491e-08
2.22963e-08
2.29291e-08
2.29043e-08
2.24723e-08
2.00647e-08
1.76548e-08
1.04626e-06
2.82066e-07
8.00317e-08
4.22879e-08
4.35982e-08
5.25273e-08
6.32948e-08
7.36675e-08
8.13881e-08
8.94543e-08
9.57173e-08
9.85833e-08
9.2175e-08
8.18934e-08
2.6792e-06
7.76405e-06
1.69665e-05
2.94337e-05
4.30207e-05
5.50176e-05
5.9278e-07
2.29774e-06
6.51267e-06
1.41586e-05
2.49327e-05
3.70103e-05
4.22056e-07
1.93813e-06
6.02767e-06
1.37713e-05
2.46788e-05
3.67292e-05
2.49662e-07
1.39087e-06
4.83775e-06
1.18507e-05
2.21283e-05
3.37859e-05
1.25689e-07
8.6502e-07
3.43726e-06
9.21036e-06
1.83562e-05
2.92944e-05
7.16018e-08
5.31699e-07
2.33291e-06
6.75656e-06
1.43499e-05
2.41435e-05
4.8398e-08
3.4763e-07
1.58432e-06
4.82047e-06
1.07502e-05
1.88931e-05
3.73262e-08
2.44195e-07
1.09358e-06
3.38976e-06
7.76412e-06
1.3959e-05
2.93407e-08
1.70232e-07
7.23662e-07
2.22969e-06
5.20008e-06
9.63365e-06
2.19764e-08
1.12218e-07
4.492e-07
1.37046e-06
3.27039e-06
6.29251e-06
1.44154e-08
6.57335e-08
2.54186e-07
7.85868e-07
1.95303e-06
3.9207e-06
8.01527e-09
3.56304e-08
1.41135e-07
4.52287e-07
1.16901e-06
2.43455e-06
4.22214e-09
2.0822e-08
8.84071e-08
2.96426e-07
8.05233e-07
1.85417e-06
3.17664e-09
1.89135e-08
9.15407e-08
3.54172e-07
1.12534e-06
3.01514e-06
9.03541e-09
5.14318e-08
2.41197e-07
9.01935e-07
2.68203e-06
6.44124e-06
4.27303e-08
1.85028e-07
6.91329e-07
2.13635e-06
5.41066e-06
1.12375e-05
4.11174e-08
2.09889e-07
8.67312e-07
2.82981e-06
7.21342e-06
1.45762e-05
3.43903e-08
1.99512e-07
8.87182e-07
3.00889e-06
7.76005e-06
1.56197e-05
2.26145e-08
1.51489e-07
7.38161e-07
2.64932e-06
7.08769e-06
1.4682e-05
1.1984e-08
9.28838e-08
5.05573e-07
1.97783e-06
5.6745e-06
1.24311e-05
5.7938e-09
4.81616e-08
2.94824e-07
1.3283e-06
4.19543e-06
9.7723e-06
2.93009e-09
2.52869e-08
1.7501e-07
8.81638e-07
2.97261e-06
7.20981e-06
1.71135e-09
1.56175e-08
1.11436e-07
5.60923e-07
1.94238e-06
4.88248e-06
1.09081e-09
1.00383e-08
6.71032e-08
3.2537e-07
1.14069e-06
2.95909e-06
7.63051e-10
6.62069e-09
4.10344e-08
1.87601e-07
6.46926e-07
1.68692e-06
1.09355e-09
6.78661e-09
3.50254e-08
1.41928e-07
4.52344e-07
1.14336e-06
4.45177e-09
1.90243e-08
7.43838e-08
2.50193e-07
7.16163e-07
1.77747e-06
2.19114e-08
8.01484e-08
2.6565e-07
7.71978e-07
1.95517e-06
4.344e-06
9.62827e-08
3.05293e-07
8.76595e-07
2.21644e-06
4.86616e-06
9.29761e-06
3.45241e-07
8.93086e-07
2.13407e-06
4.59816e-06
8.83094e-06
1.50459e-05
3.75719e-07
1.06052e-06
2.68336e-06
5.95388e-06
1.14308e-05
1.9002e-05
3.81426e-07
1.13578e-06
2.94561e-06
6.57394e-06
1.25452e-05
2.05944e-05
3.49709e-07
1.07328e-06
2.83156e-06
6.37514e-06
1.22368e-05
2.01655e-05
3.05612e-07
9.41222e-07
2.49499e-06
5.65402e-06
1.09483e-05
1.81895e-05
2.6085e-07
7.87619e-07
2.07017e-06
4.69004e-06
9.13319e-06
1.53111e-05
2.24271e-07
6.51486e-07
1.6592e-06
3.69212e-06
7.17181e-06
1.21119e-05
1.88478e-07
5.3079e-07
1.31068e-06
2.84487e-06
5.42602e-06
9.05297e-06
1.56026e-07
4.25955e-07
1.01493e-06
2.12349e-06
3.89927e-06
6.2745e-06
1.29647e-07
3.40371e-07
7.79547e-07
1.5771e-06
2.86457e-06
4.79129e-06
1.17713e-07
3.07936e-07
7.3451e-07
1.62671e-06
3.39192e-06
6.5723e-06
1.78922e-07
5.1427e-07
1.36957e-06
3.2715e-06
6.98714e-06
1.31108e-05
5.91592e-07
1.56196e-06
3.68695e-06
7.73022e-06
1.44088e-05
2.37296e-05
2.24108e-06
4.79927e-06
9.33061e-06
1.61857e-05
2.5169e-05
3.53493e-05
5.2924e-07
1.19816e-06
2.5282e-06
4.97459e-06
9.0846e-06
1.53845e-05
4.64745e-07
1.21064e-06
3.04978e-06
7.07167e-06
1.42951e-05
2.48038e-05
9.27017e-07
2.61467e-06
6.52052e-06
1.37627e-05
2.47243e-05
3.82029e-05
3.1959e-06
7.29705e-06
1.47098e-05
2.53524e-05
3.80779e-05
5.05839e-05
2.72857e-06
6.35294e-06
1.2489e-05
2.10859e-05
3.12431e-05
4.17578e-05
2.49555e-06
6.09227e-06
1.23251e-05
2.10979e-05
3.14169e-05
4.18407e-05
2.02372e-06
5.19858e-06
1.09228e-05
1.92187e-05
2.91326e-05
3.92046e-05
1.52526e-06
4.08901e-06
8.94037e-06
1.62936e-05
2.5419e-05
3.501e-05
1.10896e-06
3.05457e-06
6.91599e-06
1.30889e-05
2.11875e-05
3.01426e-05
7.74899e-07
2.15782e-06
5.0206e-06
9.87068e-06
1.68132e-05
2.46278e-05
5.44079e-07
1.49685e-06
3.52532e-06
7.14457e-06
1.28365e-05
1.9393e-05
3.8648e-07
1.03054e-06
2.41486e-06
5.11053e-06
9.40691e-06
1.47938e-05
2.89649e-07
7.452e-07
1.75794e-06
3.7634e-06
6.95641e-06
1.09539e-05
2.34757e-07
5.9193e-07
1.37093e-06
2.85333e-06
5.11243e-06
7.79732e-06
1.95704e-07
4.82188e-07
1.08066e-06
2.19079e-06
4.037e-06
7.03383e-06
1.51618e-07
3.8822e-07
9.55399e-07
2.29447e-06
5.23497e-06
1.08722e-05
2.02914e-07
6.24019e-07
1.80881e-06
4.6405e-06
1.02843e-05
1.94754e-05
7.50539e-07
2.08039e-06
5.13295e-06
1.08335e-05
1.96081e-05
3.06501e-05
4.85889e-05
7.10062e-05
8.68164e-05
9.35819e-05
8.65121e-05
4.80718e-05
6.83377e-05
8.35065e-05
9.01829e-05
7.6591e-05
4.48725e-05
6.41374e-05
8.01308e-05
8.74234e-05
7.26171e-05
3.99546e-05
5.75206e-05
7.26663e-05
7.98254e-05
6.77115e-05
3.45295e-05
4.87052e-05
6.15775e-05
6.84954e-05
6.09297e-05
2.81816e-05
3.87408e-05
4.91945e-05
5.64007e-05
5.37215e-05
2.16259e-05
2.94303e-05
3.75538e-05
4.46838e-05
4.78989e-05
1.57329e-05
2.15929e-05
2.76915e-05
3.46484e-05
4.44228e-05
5.27472e-05
1.08858e-05
1.52539e-05
2.00825e-05
2.71438e-05
4.27275e-05
5.7766e-05
7.02636e-06
1.03266e-05
1.45664e-05
2.28886e-05
4.2551e-05
6.43891e-05
4.30763e-06
7.6535e-06
1.37276e-05
2.47908e-05
4.60904e-05
7.5587e-05
9.5935e-05
3.86997e-06
1.0033e-05
2.09393e-05
3.59505e-05
5.69855e-05
9.21706e-05
0.000139158
9.7493e-05
6.76859e-06
1.84355e-05
3.5818e-05
5.51885e-05
7.49751e-05
0.000108339
0.000225556
0.000301597
1.26547e-05
3.03775e-05
5.25616e-05
7.35104e-05
8.90774e-05
0.000104094
0.000177165
0.000547223
1.94204e-05
4.04845e-05
6.24213e-05
7.97991e-05
8.83358e-05
8.95573e-05
0.000121106
0.000488277
2.40411e-05
4.50903e-05
6.50502e-05
8.0163e-05
8.38734e-05
7.21038e-05
8.65224e-05
0.000419941
2.55827e-05
4.57381e-05
6.56379e-05
8.20706e-05
8.53245e-05
6.5132e-05
6.47781e-05
0.000202815
2.44138e-05
4.31874e-05
6.30661e-05
8.03069e-05
8.40715e-05
6.23265e-05
5.8226e-05
0.000242337
2.14103e-05
3.80168e-05
5.60688e-05
7.2246e-05
7.51217e-05
5.67379e-05
5.36926e-05
0.000256774
1.76294e-05
3.1357e-05
4.64359e-05
6.019e-05
6.36168e-05
5.07456e-05
5.15437e-05
0.000217563
1.36832e-05
2.42136e-05
3.59218e-05
4.71838e-05
5.21031e-05
4.70294e-05
5.17964e-05
8.82227e-05
9.72804e-06
1.74005e-05
2.61284e-05
3.53681e-05
4.26824e-05
4.60422e-05
5.57314e-05
8.79361e-05
6.15489e-06
1.15105e-05
1.80221e-05
2.59348e-05
3.59543e-05
4.82504e-05
3.48059e-06
7.13685e-06
1.24537e-05
1.98679e-05
3.29759e-05
5.37495e-05
2.39092e-06
6.01722e-06
1.23729e-05
2.16452e-05
3.68266e-05
6.38625e-05
3.84515e-06
1.04395e-05
2.11746e-05
3.45343e-05
5.10876e-05
8.10623e-05
8.38669e-06
2.03719e-05
3.71136e-05
5.47396e-05
7.18619e-05
0.000101154
1.55283e-05
3.2779e-05
5.32426e-05
7.14652e-05
8.43492e-05
2.283e-05
4.2455e-05
6.19798e-05
7.66864e-05
8.23344e-05
2.77859e-05
4.68544e-05
6.45253e-05
7.72684e-05
7.69922e-05
2.97594e-05
4.77722e-05
6.53567e-05
7.88826e-05
7.59612e-05
2.89928e-05
4.55726e-05
6.2794e-05
7.7015e-05
7.30883e-05
2.60174e-05
4.06834e-05
5.64123e-05
7.00938e-05
6.54264e-05
2.18941e-05
3.43878e-05
4.78076e-05
6.00827e-05
5.66642e-05
1.72033e-05
2.73302e-05
3.82059e-05
4.88213e-05
5.03904e-05
1.26175e-05
2.05363e-05
2.94426e-05
3.91177e-05
4.94546e-05
8.81179e-06
1.53319e-05
2.38477e-05
3.55455e-05
5.50467e-05
7.6356e-06
1.54412e-05
2.66923e-05
4.20201e-05
6.72879e-05
1.17137e-05
2.48284e-05
4.15257e-05
5.95311e-05
8.47296e-05
2.17168e-05
4.17896e-05
6.35621e-05
8.2807e-05
0.00010432
3.48798e-05
5.95775e-05
8.21923e-05
9.8548e-05
0.000113581
4.60527e-05
6.96223e-05
8.73648e-05
9.74093e-05
0.000101038
5.13618e-05
7.09721e-05
8.45042e-05
9.03825e-05
8.31439e-05
5.13161e-05
6.88255e-05
8.18367e-05
8.69495e-05
7.25355e-05
4.86133e-05
6.48508e-05
7.808e-05
8.41642e-05
6.76671e-05
4.37672e-05
5.817e-05
7.07915e-05
7.74532e-05
6.4195e-05
3.77629e-05
4.96308e-05
6.05486e-05
6.82053e-05
6.06975e-05
3.11879e-05
4.03487e-05
4.96363e-05
5.8627e-05
5.80598e-05
2.4892e-05
3.1811e-05
3.97796e-05
4.94373e-05
5.80044e-05
1.92465e-05
2.47303e-05
3.17391e-05
4.36096e-05
6.21324e-05
1.43065e-05
1.92988e-05
2.72805e-05
4.36514e-05
7.0438e-05
1.07148e-05
1.80236e-05
3.05591e-05
5.10512e-05
8.22223e-05
1.20441e-05
2.54221e-05
4.41017e-05
6.67229e-05
9.76797e-05
1.96796e-05
4.06919e-05
6.4625e-05
8.71585e-05
0.000113368
3.14785e-05
5.80362e-05
8.34095e-05
0.00010247
0.000119562
4.25619e-05
6.90501e-05
8.98108e-05
0.000101349
0.000105374
1.17177e-08
3.44077e-09
1.09628e-09
4.67051e-10
3.71744e-10
3.85832e-10
4.21049e-10
4.44715e-10
4.40998e-10
3.84812e-10
2.63412e-10
1.35109e-10
6.75629e-11
2.14801e-10
5.65575e-09
1.43057e-09
3.47415e-10
8.93086e-11
3.38631e-11
2.83826e-11
3.53007e-11
4.42197e-11
5.08812e-11
5.07258e-11
3.88719e-11
2.10876e-11
2.12338e-11
2.08128e-10
8.03518e-09
2.31711e-09
6.29106e-10
1.54088e-10
3.27899e-11
6.7774e-12
2.96502e-12
3.46511e-12
4.53069e-12
5.13815e-12
4.36793e-12
2.84605e-12
1.35428e-11
1.96184e-10
1.24891e-08
3.92517e-09
1.09059e-09
2.60935e-10
5.22452e-11
8.59567e-12
1.2111e-12
3.06242e-13
3.17249e-13
4.04257e-13
3.85831e-13
5.08914e-13
8.19141e-12
1.39726e-10
1.66487e-08
5.20094e-09
1.41202e-09
3.2626e-10
6.28574e-11
9.90352e-12
1.23991e-12
1.26168e-13
2.39863e-14
2.46144e-14
2.73585e-14
1.56694e-13
4.37439e-12
8.13344e-11
2.06999e-08
6.11792e-09
1.56094e-09
3.38807e-10
6.15196e-11
9.15619e-12
1.0884e-12
1.01547e-13
8.77682e-15
2.33395e-15
2.43366e-15
5.43677e-14
2.0407e-12
4.27873e-11
2.62979e-08
7.16835e-09
1.68608e-09
3.38423e-10
5.70243e-11
7.91069e-12
9.04881e-13
1.03093e-13
2.57555e-14
1.33545e-14
7.54542e-15
2.61166e-14
9.78803e-13
2.23843e-11
3.39288e-08
8.51152e-09
1.84596e-09
3.42894e-10
5.36567e-11
7.1728e-12
1.04564e-12
3.56544e-13
2.36142e-13
1.56805e-13
9.41686e-14
6.55195e-14
5.17241e-13
1.18479e-11
4.3571e-08
1.01668e-08
2.04317e-09
3.51032e-10
5.21983e-11
8.59959e-12
3.45999e-12
2.68248e-12
2.15453e-12
1.56003e-12
1.01456e-12
6.70226e-13
6.85941e-13
6.994e-12
5.50986e-08
1.21432e-08
2.31188e-09
3.80868e-10
6.38789e-11
2.40072e-11
2.10594e-11
1.95621e-11
1.67427e-11
1.29943e-11
9.13262e-12
6.53184e-12
4.56594e-12
6.84929e-12
6.65304e-08
1.38745e-08
2.53765e-09
4.38956e-10
1.31434e-10
1.13403e-10
1.239e-10
1.22404e-10
1.10425e-10
9.1367e-11
6.94551e-11
5.33801e-11
3.79821e-11
2.99081e-11
7.71047e-08
1.55001e-08
2.88938e-09
6.84981e-10
4.6412e-10
5.43978e-10
6.33517e-10
6.55818e-10
6.23646e-10
5.49427e-10
4.5189e-10
3.68619e-10
2.73694e-10
2.04576e-10
8.64297e-08
1.73708e-08
3.7676e-09
1.6954e-09
1.85046e-09
2.33744e-09
2.81057e-09
3.035e-09
3.04281e-09
2.85911e-09
2.54095e-09
2.18503e-09
1.69925e-09
1.27456e-09
1.12885e-07
2.51734e-08
7.455e-09
5.59401e-09
6.93134e-09
8.89461e-09
1.09121e-08
1.2238e-08
1.29554e-08
1.30343e-08
1.24548e-08
1.12696e-08
9.17756e-09
7.0164e-09
8.55569e-10
2.49508e-10
9.02816e-11
5.1371e-11
5.37048e-11
6.34412e-11
7.54662e-11
8.53231e-11
8.90566e-11
8.14127e-11
5.86906e-11
3.10193e-11
1.29619e-11
1.3748e-11
8.76486e-10
2.1747e-10
5.1937e-11
1.26666e-11
4.85781e-12
4.61555e-12
6.2759e-12
8.28415e-12
9.90369e-12
1.02284e-11
8.12658e-12
4.52508e-12
2.16539e-12
1.09115e-11
1.59349e-09
4.3565e-10
1.0796e-10
2.39352e-11
4.66393e-12
9.42969e-13
4.90459e-13
6.35698e-13
8.61106e-13
1.00046e-12
8.68302e-13
5.21973e-13
7.94682e-13
1.19936e-11
2.66327e-09
7.61668e-10
1.91461e-10
4.16084e-11
7.65354e-12
1.17907e-12
1.64214e-13
5.07335e-14
5.93556e-14
7.69785e-14
7.34946e-14
5.6924e-14
5.13437e-13
1.04864e-11
3.67356e-09
1.03681e-09
2.54028e-10
5.32242e-11
9.3977e-12
1.3785e-12
1.64534e-13
1.70045e-14
4.17718e-15
4.7105e-15
4.96355e-15
1.11167e-14
3.36664e-13
7.72833e-12
4.57856e-09
1.21886e-09
2.80948e-10
5.54503e-11
9.25267e-12
1.28479e-12
1.45386e-13
1.32934e-14
1.21398e-15
4.15169e-16
4.05255e-16
4.15359e-15
1.91387e-13
4.95072e-12
5.60448e-09
1.37707e-09
2.92977e-10
5.35461e-11
8.29637e-12
1.07434e-12
1.16104e-13
1.2065e-14
2.45294e-15
1.15389e-15
6.44882e-16
2.35003e-15
1.09768e-13
3.04503e-12
6.84317e-09
1.54922e-09
3.03768e-10
5.13815e-11
7.38974e-12
9.15864e-13
1.20015e-13
3.48609e-14
2.10774e-14
1.29923e-14
7.23071e-15
4.86484e-15
6.4383e-14
1.83398e-12
8.19213e-09
1.71873e-09
3.1198e-10
4.88568e-11
6.68403e-12
1.00853e-12
3.71216e-13
2.70504e-13
2.05053e-13
1.37022e-13
8.14644e-14
4.76664e-14
6.32061e-14
1.10902e-12
9.51533e-09
1.87658e-09
3.20877e-10
4.7817e-11
7.471e-12
2.82376e-12
2.44405e-12
2.15769e-12
1.73896e-12
1.2396e-12
7.89021e-13
4.95463e-13
3.16627e-13
7.89615e-13
1.04607e-08
1.9558e-09
3.21526e-10
5.09175e-11
1.61327e-11
1.49865e-11
1.60529e-11
1.49829e-11
1.26751e-11
9.60574e-12
6.54784e-12
4.41418e-12
2.78056e-12
2.1097e-12
1.08089e-08
1.94508e-09
3.28514e-10
8.03689e-11
6.62477e-11
8.14526e-11
9.25388e-11
9.00895e-11
7.99479e-11
6.42687e-11
4.696e-11
3.36164e-11
2.19686e-11
1.46478e-11
1.04172e-08
1.89441e-09
4.03272e-10
2.35323e-10
3.02945e-10
3.96033e-10
4.65163e-10
4.71155e-10
4.38461e-10
3.73106e-10
2.9225e-10
2.20529e-10
1.49808e-10
1.00042e-10
1.14493e-08
2.41458e-09
8.66771e-10
9.09788e-10
1.2811e-09
1.70665e-09
2.05371e-09
2.16047e-09
2.10936e-09
1.90201e-09
1.59483e-09
1.26179e-09
8.91952e-10
6.02325e-10
8.17101e-11
2.11625e-11
8.15111e-12
6.62862e-12
8.27853e-12
1.08783e-11
1.39839e-11
1.67579e-11
1.81986e-11
1.71594e-11
1.27268e-11
6.9575e-12
2.84885e-12
1.45286e-12
1.44388e-10
3.47631e-11
7.83867e-12
1.79977e-12
7.22777e-13
7.89319e-13
1.16373e-12
1.61264e-12
1.98772e-12
2.09814e-12
1.69901e-12
9.74818e-13
3.95838e-13
6.22053e-13
2.91311e-10
7.44445e-11
1.71013e-11
3.51514e-12
6.43732e-13
1.33492e-13
8.62845e-14
1.22786e-13
1.71295e-13
2.01932e-13
1.77172e-13
1.07188e-13
6.73641e-14
6.98905e-13
5.05603e-10
1.33706e-10
3.10564e-11
6.27242e-12
1.08489e-12
1.60029e-13
2.28458e-14
9.09333e-15
1.18099e-14
1.54768e-14
1.48056e-14
9.88738e-15
3.22691e-14
7.17838e-13
7.13391e-10
1.85044e-10
4.18054e-11
8.14364e-12
1.35291e-12
1.89324e-13
2.20571e-14
2.44465e-15
8.49331e-16
1.02166e-15
1.05932e-15
1.13399e-15
2.34198e-14
6.31166e-13
8.83998e-10
2.16338e-10
4.60875e-11
8.47615e-12
1.33283e-12
1.7671e-13
1.94676e-14
1.83711e-15
2.52532e-16
1.54271e-16
1.53465e-16
3.93761e-16
1.60011e-14
4.83166e-13
1.03801e-09
2.35421e-10
4.64867e-11
7.94235e-12
1.16228e-12
1.43995e-13
1.51021e-14
1.55319e-15
3.34579e-16
1.89915e-16
1.42966e-16
2.85018e-16
1.11241e-14
3.57511e-13
1.19194e-09
2.49742e-10
4.56126e-11
7.23455e-12
9.84774e-13
1.16307e-13
1.4167e-14
3.62537e-15
2.04345e-15
1.22059e-15
6.80186e-16
4.78654e-16
7.36924e-15
2.41201e-13
1.32429e-09
2.57509e-10
4.36392e-11
6.43101e-12
8.32398e-13
1.17448e-13
3.94418e-14
2.72798e-14
1.96889e-14
1.23701e-14
6.91448e-15
3.73397e-15
6.89136e-15
1.62027e-13
1.40789e-09
2.573e-10
4.10692e-11
5.75602e-12
8.55345e-13
3.17965e-13
2.6789e-13
2.28232e-13
1.7456e-13
1.15826e-13
6.842e-14
3.86741e-14
2.39984e-14
1.08859e-13
1.39928e-09
2.42091e-10
3.70673e-11
5.59469e-12
1.87748e-12
1.81343e-12
1.88657e-12
1.69301e-12
1.35193e-12
9.46842e-13
5.93337e-13
3.5776e-13
2.03479e-13
1.67711e-13
1.28416e-09
2.14437e-10
3.40966e-11
9.01259e-12
8.62063e-12
1.07781e-11
1.18058e-11
1.09982e-11
9.15782e-12
6.762e-12
4.498e-12
2.86852e-12
1.68074e-12
1.01758e-12
1.0761e-09
1.83997e-10
4.07393e-11
3.08145e-11
4.37659e-11
5.76241e-11
6.50602e-11
6.27555e-11
5.44463e-11
4.23129e-11
2.98595e-11
1.99952e-11
1.20983e-11
7.2424e-12
1.02631e-09
2.14961e-10
1.00742e-10
1.35015e-10
2.04461e-10
2.74441e-10
3.17307e-10
3.16156e-10
2.85588e-10
2.33399e-10
1.74501e-10
1.21913e-10
7.61231e-11
4.60173e-11
9.6121e-12
2.25763e-12
8.39164e-13
7.88644e-13
1.11754e-12
1.61484e-12
2.23327e-12
2.83281e-12
3.20321e-12
3.11117e-12
2.36642e-12
1.34092e-12
5.58053e-13
2.15302e-13
2.15723e-11
4.94376e-12
1.04715e-12
2.26636e-13
9.53885e-14
1.17817e-13
1.8668e-13
2.71416e-13
3.45648e-13
3.73351e-13
3.0771e-13
1.81947e-13
7.44828e-14
4.30834e-14
4.5372e-11
1.08978e-11
2.34038e-12
4.50316e-13
7.83438e-14
1.70274e-14
1.34999e-14
2.07029e-14
2.9722e-14
3.56353e-14
3.16257e-14
1.95333e-14
8.69974e-15
3.56373e-14
8.0498e-11
1.98309e-11
4.29076e-12
8.127e-13
1.33456e-13
1.90813e-14
2.91665e-15
1.52854e-15
2.12153e-15
2.79235e-15
2.68764e-15
1.78682e-15
2.00792e-15
4.01548e-14
1.14081e-10
2.75277e-11
5.80451e-12
1.06378e-12
1.6818e-13
2.27607e-14
2.68522e-15
3.93505e-16
2.23438e-16
2.61627e-16
2.67834e-16
2.27122e-16
1.34745e-15
4.06161e-14
1.38263e-10
3.15484e-11
6.29792e-12
1.09394e-12
1.64145e-13
2.10951e-14
2.35799e-15
3.02279e-16
1.19324e-16
1.08857e-16
1.08998e-16
1.1742e-16
1.07741e-15
3.63084e-14
1.54481e-10
3.2788e-11
6.09635e-12
9.88578e-13
1.38675e-13
1.67347e-14
1.79772e-15
2.5678e-16
1.20743e-16
1.06734e-16
1.03193e-16
1.10263e-16
8.87502e-16
3.09993e-14
1.65599e-10
3.25799e-11
5.62769e-12
8.50332e-13
1.1136e-13
1.28079e-14
1.54662e-15
4.09186e-16
2.50994e-16
1.80445e-16
1.38006e-16
1.23728e-16
7.12438e-16
2.38599e-14
1.70135e-10
3.11162e-11
4.99986e-12
7.04474e-13
8.78235e-14
1.18422e-14
3.67868e-15
2.42575e-15
1.69141e-15
1.04169e-15
5.88193e-16
3.38972e-16
7.20891e-16
1.80892e-14
1.66195e-10
2.8589e-11
4.32927e-12
5.81333e-13
8.36625e-14
3.0583e-14
2.49705e-14
2.05123e-14
1.49267e-14
9.36313e-15
5.21889e-15
2.75065e-15
1.79584e-15
1.32069e-14
1.49783e-10
2.44374e-11
3.55556e-12
5.2376e-13
1.87469e-13
1.84835e-13
1.86178e-13
1.60499e-13
1.21173e-13
7.94509e-14
4.63943e-14
2.55537e-14
1.34634e-14
1.40336e-14
1.23628e-10
1.95714e-11
3.00594e-12
8.89441e-13
9.51527e-13
1.18598e-12
1.24913e-12
1.11253e-12
8.70667e-13
5.97424e-13
3.67058e-13
2.12471e-13
1.13571e-13
6.47308e-14
9.22001e-11
1.5215e-11
3.69141e-12
3.53951e-12
5.2929e-12
6.88237e-12
7.43886e-12
6.82561e-12
5.53295e-12
3.96896e-12
2.56331e-12
1.54968e-12
8.50451e-13
4.66498e-13
7.92307e-11
1.72414e-11
1.09445e-11
1.72499e-11
2.70182e-11
3.5734e-11
3.94254e-11
3.71574e-11
3.11553e-11
2.33268e-11
1.57961e-11
9.90613e-12
5.57487e-12
3.0758e-12
1.13261e-12
2.44783e-13
8.19895e-14
8.24678e-14
1.30038e-13
2.05252e-13
3.04391e-13
4.07847e-13
4.80004e-13
4.79207e-13
3.71719e-13
2.16845e-13
9.2703e-14
3.31162e-14
2.79066e-12
6.05606e-13
1.20928e-13
2.48099e-14
1.10132e-14
1.51971e-14
2.56816e-14
3.90747e-14
5.1414e-14
5.67962e-14
4.74774e-14
2.87671e-14
1.21798e-14
4.59518e-15
6.02256e-12
1.36266e-12
2.75424e-13
5.00139e-14
8.38415e-15
1.99594e-15
1.90542e-15
3.06432e-15
4.49021e-15
5.46289e-15
4.90057e-15
3.10795e-15
1.37997e-15
1.84809e-15
1.084e-11
2.50362e-12
5.08526e-13
9.09534e-14
1.43109e-14
2.05686e-15
4.07236e-16
2.97617e-16
3.9935e-16
5.04911e-16
4.9062e-16
3.55322e-16
2.46587e-16
2.01884e-15
1.53332e-11
3.47333e-12
6.89613e-13
1.19787e-13
1.8184e-14
2.45608e-15
3.64233e-16
1.32294e-16
1.17644e-16
1.24326e-16
1.25257e-16
1.17632e-16
1.55679e-16
2.27447e-15
1.80762e-11
3.88572e-12
7.33885e-13
1.21402e-13
1.75529e-14
2.26423e-15
3.27761e-16
1.20295e-16
1.02114e-16
1.01239e-16
1.01339e-16
1.01426e-16
1.47284e-16
2.32831e-15
1.92275e-11
3.8623e-12
6.82924e-13
1.06031e-13
1.4415e-14
1.77107e-15
2.66212e-16
1.14692e-16
1.01626e-16
1.00444e-16
1.00245e-16
1.00584e-16
1.45138e-16
2.27187e-15
1.92493e-11
3.60018e-12
5.94299e-13
8.63745e-14
1.10282e-14
1.31176e-15
2.29008e-16
1.22967e-16
1.09627e-16
1.04777e-16
1.02177e-16
1.01429e-16
1.43314e-16
2.00546e-15
1.83185e-11
3.19445e-12
4.92467e-13
6.70293e-14
8.17767e-15
1.12413e-15
3.77403e-16
2.66156e-16
2.06498e-16
1.58492e-16
1.27639e-16
1.12546e-16
1.51492e-16
1.77569e-15
1.64338e-11
2.70086e-12
3.93183e-13
5.11818e-14
7.21146e-15
2.59006e-15
2.05205e-15
1.63982e-15
1.16319e-15
7.27035e-16
4.23074e-16
2.52663e-16
2.12384e-16
1.50584e-15
1.34834e-11
2.10866e-12
2.95738e-13
4.29295e-14
1.61106e-14
1.59187e-14
1.55173e-14
1.2861e-14
9.23871e-15
5.75063e-15
3.19222e-15
1.67288e-15
8.78493e-16
1.33805e-15
1.00777e-11
1.53747e-12
2.31992e-13
7.69275e-14
8.85323e-14
1.08755e-13
1.10185e-13
9.38271e-14
6.93568e-14
4.46702e-14
2.56488e-14
1.37488e-14
6.85669e-15
3.8889e-15
6.78719e-12
1.09956e-12
3.01774e-13
3.48882e-13
5.33542e-13
6.78379e-13
7.01666e-13
6.12292e-13
4.66181e-13
3.11617e-13
1.86366e-13
1.03542e-13
5.24748e-14
2.68729e-14
5.37093e-12
1.26233e-12
1.071e-12
1.866e-12
2.95096e-12
3.80214e-12
3.99472e-12
3.56032e-12
2.78754e-12
1.93061e-12
1.19966e-12
6.87428e-13
3.55413e-13
1.81721e-13
1.20044e-13
2.42589e-14
7.28026e-15
7.53856e-15
1.30262e-14
2.22954e-14
3.52991e-14
4.98424e-14
6.10099e-14
6.25907e-14
4.93608e-14
2.94128e-14
1.29439e-14
4.62225e-15
3.11058e-13
6.40202e-14
1.21752e-14
2.44178e-15
1.17733e-15
1.75065e-15
3.0801e-15
4.85423e-15
6.57379e-15
7.41975e-15
6.29046e-15
3.90396e-15
1.74605e-15
6.65255e-16
6.85782e-13
1.46906e-13
2.82012e-14
4.93429e-15
8.70298e-16
2.86776e-16
3.07651e-16
4.62101e-16
6.53301e-16
7.89424e-16
7.22336e-16
4.93733e-16
2.69763e-16
1.99988e-16
1.24662e-12
2.72076e-13
5.23937e-14
8.98241e-15
1.43023e-15
2.77525e-16
1.29654e-16
1.23483e-16
1.37686e-16
1.51918e-16
1.50242e-16
1.32891e-16
1.15606e-16
1.82623e-16
1.75505e-12
3.76585e-13
7.10705e-14
1.18501e-14
1.80437e-15
3.14685e-16
1.23546e-16
1.03049e-16
1.02096e-16
1.03067e-16
1.03215e-16
1.02227e-16
1.03006e-16
2.05737e-16
2.00936e-12
4.10703e-13
7.40556e-14
1.1806e-14
1.72106e-15
2.94203e-16
1.19857e-16
1.01672e-16
1.00121e-16
1.00095e-16
1.00142e-16
1.00155e-16
1.02457e-16
2.26833e-16
2.03862e-12
3.91063e-13
6.632e-14
9.97862e-15
1.3892e-15
2.45186e-16
1.13968e-16
1.01114e-16
1.00032e-16
9.99724e-17
9.99954e-17
1.00053e-16
1.02763e-16
2.42061e-16
1.91355e-12
3.43399e-13
5.46087e-14
7.73826e-15
1.03567e-15
1.99233e-16
1.09874e-16
1.0143e-16
1.00475e-16
1.00209e-16
1.00096e-16
1.00105e-16
1.03264e-16
2.44942e-16
1.69301e-12
2.84258e-13
4.23994e-14
5.66873e-15
7.48532e-16
1.76146e-16
1.17987e-16
1.09757e-16
1.0585e-16
1.03041e-16
1.01384e-16
1.00669e-16
1.0449e-16
2.50296e-16
1.40109e-12
2.22388e-13
3.14276e-14
4.04794e-15
6.25191e-16
2.71828e-16
2.28156e-16
1.96214e-16
1.62336e-16
1.33977e-16
1.15957e-16
1.06955e-16
1.07894e-16
2.45487e-16
1.05428e-12
1.59726e-13
2.18187e-14
3.17912e-15
1.26733e-15
1.24231e-15
1.17901e-15
9.57915e-16
6.83743e-16
4.39557e-16
2.71933e-16
1.78855e-16
1.37187e-16
2.20538e-16
7.20447e-13
1.06972e-13
1.60111e-14
5.85758e-15
7.02454e-15
8.4577e-15
8.27768e-15
6.77506e-15
4.78474e-15
2.94633e-15
1.62879e-15
8.55892e-16
4.4544e-16
3.06925e-16
4.42772e-13
7.11092e-14
2.22079e-14
2.92606e-14
4.50451e-14
5.58584e-14
5.553e-14
4.62719e-14
3.33424e-14
2.09838e-14
1.17631e-14
6.1082e-15
2.93166e-15
1.46364e-15
3.26787e-13
8.51651e-14
9.18437e-14
1.69738e-13
2.67803e-13
3.35079e-13
3.36688e-13
2.8509e-13
2.09994e-13
1.35893e-13
7.84078e-14
4.15982e-14
2.00423e-14
9.64935e-15
1.11564e-14
2.19951e-15
6.53145e-16
6.71553e-16
1.19119e-15
2.13517e-15
3.54472e-15
5.22767e-15
6.62845e-15
6.98298e-15
5.61065e-15
3.4224e-15
1.58213e-15
6.25905e-16
2.97785e-14
5.90991e-15
1.14474e-15
2.92573e-16
1.89538e-16
2.50741e-16
3.91563e-16
5.88801e-16
7.89873e-16
8.99435e-16
7.84556e-16
5.24649e-16
2.86644e-16
1.63926e-16
6.6906e-14
1.37118e-14
2.58282e-15
5.0762e-16
1.6246e-16
1.15837e-16
1.19992e-16
1.37039e-16
1.58723e-16
1.74944e-16
1.68259e-16
1.43338e-16
1.18886e-16
1.07786e-16
1.22592e-13
2.55259e-14
4.7602e-15
8.56939e-16
2.08849e-16
1.1397e-16
1.02377e-16
1.02263e-16
1.03909e-16
1.05545e-16
1.05405e-16
1.03536e-16
1.016e-16
1.03545e-16
1.71629e-13
3.51958e-14
6.42238e-15
1.10345e-15
2.39976e-16
1.1695e-16
1.01685e-16
1.00119e-16
1.00099e-16
1.00233e-16
1.00273e-16
1.0019e-16
1.00186e-16
1.04924e-16
1.91056e-13
3.74537e-14
6.55352e-15
1.08178e-15
2.30656e-16
1.15038e-16
1.01373e-16
9.99853e-17
9.98898e-17
9.99143e-17
9.99449e-17
9.99727e-17
1.00133e-16
1.07042e-16
1.85429e-13
3.42655e-14
5.67375e-15
9.0111e-16
2.00192e-16
1.10819e-16
1.00896e-16
9.9944e-17
9.98855e-17
9.9907e-17
9.99365e-17
9.9971e-17
1.00182e-16
1.09203e-16
1.64175e-13
2.85216e-14
4.46138e-15
6.89338e-16
1.68714e-16
1.06959e-16
1.00545e-16
9.99554e-17
9.99146e-17
9.99263e-17
9.99493e-17
9.99831e-17
1.00262e-16
1.11026e-16
1.35899e-13
2.21907e-14
3.2883e-15
5.04305e-16
1.44277e-16
1.04836e-16
1.00903e-16
1.00392e-16
1.00195e-16
1.00074e-16
1.00019e-16
1.00019e-16
1.00407e-16
1.13273e-16
1.04548e-13
1.62114e-14
2.30536e-15
3.6598e-16
1.32687e-16
1.09866e-16
1.06915e-16
1.0492e-16
1.0301e-16
1.01551e-16
1.00694e-16
1.00307e-16
1.00645e-16
1.14342e-16
7.28212e-14
1.08321e-14
1.51734e-15
2.91627e-16
1.71606e-16
1.68565e-16
1.62276e-16
1.46973e-16
1.29873e-16
1.16049e-16
1.07479e-16
1.03214e-16
1.01777e-16
1.11979e-16
4.60129e-14
6.7564e-15
1.07099e-15
4.70542e-16
5.55962e-16
6.3903e-16
6.09692e-16
4.98313e-16
3.64645e-16
2.50089e-16
1.73645e-16
1.32465e-16
1.13381e-16
1.11545e-16
2.61112e-14
4.23686e-15
1.53363e-15
2.16427e-15
3.28016e-15
3.94646e-15
3.78572e-15
3.03864e-15
2.10968e-15
1.29083e-15
7.21103e-16
3.94558e-16
2.25973e-16
1.56051e-16
1.81318e-14
5.34513e-15
6.88949e-15
1.31055e-14
2.04568e-14
2.48153e-14
2.39228e-14
1.93297e-14
1.35039e-14
8.26079e-15
4.50173e-15
2.27149e-15
1.07108e-15
5.34339e-16
9.72192e-16
2.57183e-16
1.36462e-16
1.3517e-16
1.75223e-16
2.5515e-16
3.82642e-16
5.44581e-16
6.89522e-16
7.39386e-16
6.20153e-16
4.16655e-16
2.42679e-16
1.50904e-16
2.51327e-15
5.51688e-16
1.77316e-16
1.13353e-16
1.06016e-16
1.11166e-16
1.23436e-16
1.41752e-16
1.61581e-16
1.73495e-16
1.6377e-16
1.39715e-16
1.17511e-16
1.05926e-16
5.64472e-15
1.18012e-15
2.88396e-16
1.29399e-16
1.04086e-16
1.00871e-16
1.0137e-16
1.0295e-16
1.05019e-16
1.06647e-16
1.06106e-16
1.03823e-16
1.0158e-16
1.00476e-16
1.0366e-14
2.13777e-15
4.57709e-16
1.55607e-16
1.07454e-16
1.00669e-16
9.98904e-17
9.99266e-17
1.00099e-16
1.00272e-16
1.0028e-16
1.00126e-16
9.99637e-17
1.00018e-16
1.44011e-14
2.90494e-15
5.84943e-16
1.73839e-16
1.09722e-16
1.00891e-16
9.98378e-17
9.97482e-17
9.97668e-17
9.97974e-17
9.98198e-17
9.98323e-17
9.98485e-17
1.00101e-16
1.56046e-14
3.01698e-15
5.84562e-16
1.70622e-16
1.08887e-16
1.00759e-16
9.9828e-17
9.97505e-17
9.97622e-17
9.97835e-17
9.98062e-17
9.98305e-17
9.9863e-17
1.00268e-16
1.45396e-14
2.67002e-15
5.03719e-16
1.55355e-16
1.06524e-16
1.00464e-16
9.98084e-17
9.97622e-17
9.97769e-17
9.97991e-17
9.9823e-17
9.98495e-17
9.98884e-17
1.00471e-16
1.22221e-14
2.13427e-15
4.0031e-16
1.3841e-16
1.04189e-16
1.00202e-16
9.97983e-17
9.97781e-17
9.97949e-17
9.98176e-17
9.98425e-17
9.98704e-17
9.99179e-17
1.00699e-16
9.54777e-15
1.59259e-15
3.06426e-16
1.24533e-16
1.02473e-16
1.00056e-16
9.98255e-17
9.9814e-17
9.98241e-17
9.98411e-17
9.9864e-17
9.98921e-17
9.9953e-17
1.00997e-16
6.9056e-15
1.12026e-15
2.32548e-16
1.14823e-16
1.0162e-16
1.00288e-16