/*--------------------------------*- C++ -*----------------------------------*\
| =========                 |                                                 |
| \\      /  F ield         | OpenFOAM: The Open Source CFD Toolbox           |
|  \\    /   O peration     | Version:  v2106                                 |
|   \\  /    A nd           | Website:  www.openfoam.com                      |
|    \\/     M anipulation  |                                                 |
\*---------------------------------------------------------------------------*/
FoamFile
{
    version     2.0;
    format      ascii;
    arch        "LSB;label=32;scalar=64";
    class       volScalarField;
    location    "0.000141";
    object      k;
}
// * * * * * * * * * * * * * * * * * * * * * * * * * * * * * * * * * * * * * //

dimensions      [0 2 -2 0 0 0 0];

internalField   nonuniform List<scalar> 
18109
(
0.0819468
0.0283216
0.0112129
0.00475537
0.00235343
0.00147248
0.00113633
0.0199137
0.00543248
0.00159974
0.00047737
0.000187668
0.000123425
0.000115171
0.00850548
0.00244743
0.000691185
0.000195601
5.38709e-05
1.6778e-05
1.01092e-05
0.0096746
0.00344397
0.00116662
0.000351301
8.84373e-05
1.80924e-05
3.19708e-06
0.0129384
0.00493151
0.0016606
0.000478053
0.000114099
2.20434e-05
3.29827e-06
0.0169103
0.00618221
0.00196526
0.000533303
0.000120709
2.22093e-05
3.18412e-06
0.0226831
0.00772427
0.00227706
0.000573287
0.000120914
2.08456e-05
2.93505e-06
0.0317022
0.0100556
0.00275285
0.000646182
0.000127806
2.15094e-05
3.97984e-06
0.0139943
0.00387754
0.00122546
0.000471999
0.000264161
0.000205974
0.000184769
0.000167259
0.000146036
0.000113163
6.89667e-05
3.66907e-05
5.07915e-05
0.00034549
0.00328737
0.000763266
0.000176642
4.57715e-05
1.87662e-05
1.46989e-05
1.56641e-05
1.70941e-05
1.75689e-05
1.57361e-05
1.07905e-05
7.55179e-06
3.13944e-05
0.000308886
0.002167
0.000604098
0.000164992
4.33719e-05
1.02982e-05
2.50732e-06
1.24674e-06
1.35961e-06
1.61836e-06
1.66309e-06
1.31679e-06
2.01982e-06
2.13445e-05
0.000239376
0.00299285
0.00098445
0.000295887
7.72101e-05
1.67738e-05
2.96803e-06
4.46211e-07
1.17796e-07
1.15433e-07
1.35459e-07
1.37598e-07
6.74148e-07
1.09544e-05
0.000138977
0.0039807
0.00134846
0.000397903
9.99932e-05
2.08267e-05
3.51943e-06
4.64001e-07
4.81321e-08
8.67665e-09
8.40937e-09
1.4909e-08
2.45564e-07
4.89035e-06
6.58306e-05
0.00516299
0.00166141
0.000462419
0.00010931
2.15117e-05
3.44466e-06
4.33431e-07
4.21996e-08
4.10713e-09
1.31393e-09
2.51541e-09
7.76766e-08
1.94818e-06
2.89332e-05
0.00691092
0.00206414
0.000532046
0.000116683
2.14195e-05
3.21757e-06
3.97381e-07
5.34172e-08
1.83294e-08
1.13185e-08
7.49588e-09
3.0257e-08
7.66941e-07
1.27656e-05
0.00959831
0.00265176
0.000632904
0.000129292
2.22397e-05
3.26313e-06
5.37571e-07
2.20574e-07
1.64985e-07
1.23598e-07
8.54726e-08
7.03256e-08
3.81735e-07
6.20874e-06
0.0134523
0.00347808
0.000775192
0.000148173
2.4352e-05
4.32296e-06
1.80574e-06
1.53504e-06
1.35201e-06
1.10933e-06
8.36449e-07
6.59356e-07
6.71898e-07
3.68418e-06
0.0190496
0.00470816
0.00100511
0.000185294
3.32046e-05
1.13246e-05
9.71199e-06
9.89963e-06
9.29888e-06
8.21552e-06
6.73118e-06
5.74507e-06
4.71864e-06
5.83688e-06
0.0258962
0.00614549
0.0012757
0.000241594
6.31441e-05
4.50525e-05
4.98747e-05
5.43576e-05
5.38956e-05
5.09396e-05
4.53401e-05
4.14652e-05
3.49695e-05
3.19884e-05
0.0345604
0.00803251
0.0016953
0.000382713
0.000179212
0.000186247
0.000223285
0.0002549
0.000266434
0.000269057
0.000259797
0.000251233
0.000220518
0.000197386
0.0462915
0.0109306
0.00249142
0.000787704
0.000591283
0.000701929
0.000870697
0.00103265
0.00113712
0.00122843
0.00128166
0.001303
0.00119398
0.00106908
0.0733699
0.0189879
0.00489424
0.00210074
0.00192967
0.00236484
0.00298416
0.00365253
0.00424259
0.00490917
0.00549993
0.00588363
0.0056572
0.00512222
0.206092
0.620273
1.40048
2.49974
3.7554
4.93729
0.0431754
0.175431
0.51893
1.17306
2.14157
3.28391
0.0295175
0.142308
0.461911
1.09777
2.03998
3.14247
0.0165977
0.0972602
0.353696
0.901317
1.74694
2.76554
0.00785567
0.0570284
0.237642
0.663454
1.37357
2.27636
0.00417917
0.0329419
0.151944
0.458999
1.01246
1.76959
0.00263971
0.0201963
0.0970377
0.308234
0.713823
1.30453
0.00191201
0.0133129
0.0629185
0.2037
0.484126
0.904962
0.00141426
0.00869434
0.0389124
0.125076
0.302429
0.58387
0.000994461
0.00535786
0.0225309
0.0716991
0.177575
0.357285
0.000609579
0.00292582
0.0119033
0.0385417
0.100045
0.211152
0.000319571
0.00149901
0.00629181
0.0213413
0.0585668
0.130822
0.000165254
0.000882214
0.00408979
0.0150866
0.0456298
0.118148
0.000154578
0.00101872
0.00544746
0.0230944
0.0795565
0.228158
0.000566275
0.0034062
0.0168356
0.0660254
0.205085
0.51247
0.00283124
0.0127498
0.0495004
0.158615
0.416343
0.894769
0.00268117
0.0141778
0.0607079
0.205026
0.540461
1.12788
0.00215795
0.012957
0.0596716
0.209315
0.557501
1.15867
0.00134631
0.00934504
0.0471855
0.175131
0.483745
1.03477
0.000667104
0.00537298
0.0303854
0.123106
0.364844
0.825255
0.000297956
0.00256854
0.0164169
0.0770745
0.251985
0.605867
0.000138895
0.0012398
0.00895136
0.0473082
0.165844
0.416243
7.56932e-05
0.000715786
0.00533209
0.0281045
0.101315
0.264869
4.55267e-05
0.000434593
0.00302694
0.0153304
0.0560521
0.152024
3.19746e-05
0.000280484
0.00179554
0.00854341
0.0307992
0.0845138
5.618e-05
0.000336445
0.00174133
0.00726228
0.0242797
0.065572
0.00026105
0.00113741
0.00456957
0.0159509
0.0478755
0.125434
0.00135183
0.0051409
0.0177366
0.0537033
0.141849
0.328538
0.00612439
0.0202318
0.0605216
0.15911
0.36262
0.717645
0.0223846
0.059935
0.148368
0.330945
0.657674
1.15757
0.023832
0.0696047
0.182268
0.41826
0.830136
1.4255
0.0234564
0.0721518
0.19336
0.445665
0.878273
1.49063
0.0206486
0.0653894
0.178021
0.413642
0.820092
1.39894
0.0171837
0.0545295
0.14908
0.348557
0.69712
1.19952
0.0139149
0.0431553
0.116739
0.272523
0.547617
0.951507
0.0113634
0.0338253
0.088437
0.202474
0.405804
0.711522
0.00907721
0.0261935
0.0664685
0.148786
0.293866
0.511133
0.00718112
0.0201534
0.049646
0.10806
0.207925
0.353909
0.0058604
0.0160703
0.038987
0.0848061
0.168237
0.310634
0.00588018
0.0167941
0.0443435
0.108513
0.24754
0.51577
0.0112387
0.0348598
0.0994298
0.251701
0.565247
1.1064
0.0418664
0.115498
0.284506
0.620945
1.20225
2.04826
0.165632
0.36775
0.74077
1.32785
2.12856
3.07556
0.026975
0.0674492
0.160667
0.355543
0.716242
1.30094
0.0278562
0.0828103
0.232468
0.581609
1.23623
2.2156
0.0691994
0.207353
0.542211
1.18665
2.19488
3.46934
0.25646
0.604684
1.25635
2.21874
3.40341
4.61302
0.195114
0.473728
0.968082
1.69424
2.59573
3.58923
0.172363
0.438901
0.92299
1.63894
2.52758
3.49074
0.134533
0.360023
0.785944
1.4349
2.25704
3.16388
0.0971044
0.271019
0.615673
1.16441
1.8871
2.71772
0.067339
0.192794
0.453163
0.889711
1.49717
2.233
0.0447442
0.129214
0.311568
0.634659
1.12354
1.72506
0.0298096
0.0848294
0.206603
0.43324
0.809467
1.28515
0.0200611
0.055187
0.133371
0.292562
0.561596
0.932376
0.0142469
0.0377828
0.0923693
0.206345
0.40072
0.668955
0.0109868
0.0287878
0.0699706
0.154228
0.296376
0.492332
0.00890798
0.023339
0.0568983
0.12822
0.267257
0.526655
0.00742025
0.0215619
0.0610234
0.166318
0.417296
0.926003
0.0132038
0.0447596
0.139762
0.379167
0.879501
1.72947
0.0567449
0.163781
0.419865
0.917117
1.71424
2.75829
4.44772
6.95272
9.34722
11.0062
10.3577
4.274
6.67929
9.30081
11.3569
10.0976
3.85334
6.19162
9.03023
11.3612
10.2487
3.27189
5.3531
8.04197
10.5072
10.0833
2.67718
4.29478
6.56122
8.97562
9.31295
2.05672
3.18978
4.91743
7.22492
8.13706
1.47277
2.22473
3.43131
5.51904
7.00404
0.996357
1.48835
2.28195
4.13094
6.36823
6.66271
0.644794
0.965294
1.51002
3.14876
5.92216
7.26369
0.39651
0.627918
1.09594
2.51822
5.47888
7.89006
0.251131
0.520883
1.12456
2.4809
5.25193
8.79679
10.6059
0.275077
0.79515
1.79174
3.32147
5.71294
9.92729
15.729
9.9787
0.539687
1.54926
3.15885
5.12776
7.29349
11.0987
25.43
34.5872
1.04116
2.61256
4.78759
7.12138
9.10314
10.91
19.9141
62.3656
1.59448
3.50471
5.80832
8.10845
9.66043
9.91987
13.6048
62.216
1.919
3.83213
6.10134
8.54728
10.0002
8.62947
9.99382
44.9405
1.96339
3.78725
6.19033
9.11409
10.9341
8.50536
7.63147
31.2307
1.78793
3.44244
5.89437
9.14113
11.4628
8.85747
7.29194
18.4854
1.47705
2.85892
5.04599
8.22219
10.5952
8.36938
6.87958
14.2819
1.13443
2.20357
3.94083
6.62485
8.97088
7.38461
6.30344
12.8396
0.822147
1.58279
2.81496
4.887
7.20665
6.59078
6.10656
10.6657
0.549707
1.05976
1.87773
3.44843
5.85734
6.41587
6.54816
7.30921
0.330092
0.66059
1.19883
2.4294
4.85045
6.57727
0.183734
0.410533
0.833618
1.82803
4.10585
6.93328
0.148505
0.41698
0.954702
1.94283
3.97533
7.5921
0.285988
0.824184
1.7663
3.05976
4.91008
8.64018
0.658034
1.67263
3.19633
4.95143
6.79233
10.1651
1.23517
2.73474
4.70486
6.68662
8.2871
1.80834
3.55592
5.59211
7.51756
8.57851
2.15258
3.88406
5.92949
8.01045
8.69011
2.23821
3.91856
6.13514
8.61411
9.26572
2.1009
3.65683
5.91478
8.71135
9.55569
1.795
3.13
5.18696
8.03324
8.87021
1.42507
2.49746
4.20976
6.79504
7.61271
1.05376
1.85199
3.15448
5.34246
6.53216
0.740896
1.31997
2.29127
4.14082
6.21743
0.529633
1.03058
1.9019
3.66253
6.62352
0.545054
1.22314
2.33371
4.17972
7.58296
0.970316
2.16792
3.79928
5.73955
8.90388
1.89125
3.77122
5.93747
7.95637
10.4991
3.08687
5.48924
7.88193
9.72424
11.4645
4.1191
6.56696
8.73588
10.1919
10.614
4.55869
6.7911
8.87627
10.2755
9.38891
4.47521
6.66656
8.97685
10.6183
8.89793
4.15406
6.28561
8.72426
10.7281
8.83363
3.62242
5.49389
7.82398
10.1367
8.80212
2.98266
4.46584
6.46728
9.00054
8.43133
2.32145
3.39238
5.01322
7.67555
7.87351
1.73615
2.46226
3.76209
6.26698
7.5167
1.26665
1.7874
2.86164
5.30028
7.83456
0.922205
1.40017
2.49553
5.03169
8.57211
0.752515
1.47252
2.89025
5.47793
9.46073
0.992176
2.26862
4.18167
6.72738
10.5673
1.74717
3.74764
6.16775
8.59798
11.741
2.86886
5.47718
8.20462
10.3902
12.432
3.92104
6.6906
9.24665
10.9443
11.5334
0.000741741
0.000206883
6.24832e-05
2.4879e-05
1.85865e-05
1.83305e-05
1.90543e-05
1.91673e-05
1.80464e-05
1.485e-05
9.57489e-06
4.68582e-06
2.74919e-06
1.21934e-05
0.000256747
6.00494e-05
1.36616e-05
3.49332e-06
1.44144e-06
1.25672e-06
1.52136e-06
1.82739e-06
2.00396e-06
1.88545e-06
1.36339e-06
7.31415e-07
1.10659e-06
1.23421e-05
0.000316923
8.82995e-05
2.33392e-05
5.60311e-06
1.17748e-06
2.50027e-07
1.18429e-07
1.3764e-07
1.72457e-07
1.84604e-07
1.48522e-07
1.1085e-07
7.50163e-07
1.13249e-05
0.000507139
0.000155483
4.2234e-05
9.89888e-06
1.94266e-06
3.13755e-07
4.38346e-08
1.14536e-08
1.16889e-08
1.40772e-08
1.28826e-08
2.35686e-08
4.39189e-07
7.6964e-06
0.000713258
0.00021744
5.76898e-05
1.30444e-05
2.46111e-06
3.80035e-07
4.66447e-08
4.65745e-09
8.62833e-10
8.34449e-10
9.35902e-10
7.61922e-09
2.21597e-07
4.21642e-06
0.000938732
0.000270657
6.74485e-05
1.43159e-05
2.54425e-06
3.70962e-07
4.3222e-08
3.96091e-09
3.4353e-10
9.16362e-11
9.63304e-11
2.5272e-09
9.65606e-08
2.06633e-06
0.00125979
0.000334568
7.67524e-05
1.50435e-05
2.478e-06
3.36358e-07
3.76766e-08
4.27336e-09
1.13269e-09
6.17338e-10
3.58685e-10
1.1566e-09
4.30749e-08
1.00365e-06
0.00171277
0.000417952
8.82583e-05
1.59813e-05
2.43972e-06
3.17581e-07
4.48846e-08
1.54902e-08
1.0715e-08
7.38525e-09
4.57869e-09
3.19019e-09
2.14777e-08
4.94077e-07
0.00231161
0.000523628
0.000102279
1.70922e-05
2.46312e-06
3.83552e-07
1.4788e-07
1.18558e-07
9.93028e-08
7.46685e-08
5.01946e-08
3.40657e-08
3.2436e-08
2.76257e-07
0.00306311
0.000653719
0.000120702
1.92429e-05
3.03175e-06
1.02349e-06
9.02944e-07
8.76937e-07
7.83734e-07
6.3264e-07
4.6027e-07
3.38961e-07
2.39684e-07
3.12159e-07
0.00386383
0.000778197
0.000137445
2.25189e-05
5.84961e-06
4.72891e-06
5.37586e-06
5.5703e-06
5.2554e-06
4.53118e-06
3.57187e-06
2.82815e-06
2.05256e-06
1.60468e-06
0.00466265
0.000902392
0.000160475
3.37438e-05
1.93435e-05
2.2795e-05
2.78842e-05
3.03253e-05
3.02108e-05
2.77976e-05
2.37531e-05
1.99735e-05
1.51432e-05
1.14379e-05
0.0054258
0.00104496
0.000208371
7.62488e-05
7.57919e-05
9.92281e-05
0.000125682
0.000142769
0.000150231
0.000147813
0.000136746
0.000121353
9.64544e-05
7.3276e-05
0.00737783
0.00156333
0.000400418
0.000239814
0.000286127
0.000383649
0.000496348
0.000586336
0.000652791
0.000689505
0.000687361
0.000643085
0.000535915
0.000415413
4.61686e-05
1.32607e-05
4.70925e-06
2.55949e-06
2.56591e-06
2.89911e-06
3.29497e-06
3.55552e-06
3.53097e-06
3.04563e-06
2.06842e-06
1.03436e-06
4.33315e-07
6.69506e-07
3.31608e-05
7.87187e-06
1.83144e-06
4.6308e-07
2.00466e-07
1.98645e-07
2.62552e-07
3.32558e-07
3.79462e-07
3.69982e-07
2.77174e-07
1.47103e-07
8.79997e-08
6.1222e-07
5.90342e-05
1.57726e-05
3.83177e-06
8.35527e-07
1.61375e-07
3.39898e-08
1.9231e-08
2.46267e-08
3.1964e-08
3.50611e-08
2.8704e-08
1.71734e-08
4.04754e-08
6.64112e-07
0.000103392
2.89301e-05
7.12703e-06
1.52e-06
2.74543e-07
4.15996e-08
5.78224e-09
1.86229e-09
2.13709e-09
2.61894e-09
2.3648e-09
2.15015e-09
2.64834e-08
5.56832e-07
0.000150919
4.16579e-05
9.99481e-06
2.05277e-06
3.55532e-07
5.11875e-08
5.99897e-09
6.09784e-10
1.46445e-10
1.56038e-10
1.57715e-10
5.00023e-10
1.65771e-08
3.8857e-07
0.000199353
5.18894e-05
1.17063e-05
2.26345e-06
3.70302e-07
5.04493e-08
5.60359e-09
5.03325e-10
4.53097e-11
1.4742e-11
1.3969e-11
1.86817e-10
8.84896e-09
2.33421e-07
0.000257639
6.18264e-05
1.28575e-05
2.29923e-06
3.48881e-07
4.42796e-08
4.69376e-09
4.84639e-10
1.03927e-10
5.1156e-11
2.89361e-11
1.00693e-10
4.73778e-09
1.33937e-07
0.000331166
7.31168e-05
1.39923e-05
2.31199e-06
3.25042e-07
3.93305e-08
5.01955e-09
1.47816e-09
9.33696e-10
5.96286e-10
3.41611e-10
2.26933e-10
2.59615e-09
7.51742e-08
0.000415956
8.49693e-05
1.50289e-05
2.29445e-06
3.05053e-07
4.37542e-08
1.55098e-08
1.16905e-08
9.23202e-09
6.39402e-09
3.92106e-09
2.34953e-09
2.73536e-09
4.2396e-08
0.000505261
9.68302e-05
1.61027e-05
2.3278e-06
3.42036e-07
1.16868e-07
1.02437e-07
9.45483e-08
7.94745e-08
5.87934e-08
3.86437e-08
2.49393e-08
1.59587e-08
3.1735e-08
0.000579076
0.000104965
1.67164e-05
2.50616e-06
6.83965e-07
6.07943e-07
6.80695e-07
6.66102e-07
5.88524e-07
4.63557e-07
3.26735e-07
2.265e-07
1.45259e-07
1.06892e-07
0.00062148
0.000108072
1.74296e-05
3.70707e-06
2.63443e-06
3.32492e-06
3.9782e-06
4.0668e-06
3.77506e-06
3.15963e-06
2.39097e-06
1.76062e-06
1.17299e-06
7.88607e-07
0.000619595
0.000108108
2.08096e-05
9.67793e-06
1.19256e-05
1.6371e-05
2.02977e-05
2.16181e-05
2.10787e-05
1.87124e-05
1.52049e-05
1.18082e-05
8.18149e-06
5.52786e-06
0.000703424
0.000139835
4.12695e-05
3.57353e-05
5.08799e-05
7.15824e-05
9.10435e-05
0.000100851
0.000103353
9.74313e-05
8.48934e-05
6.91956e-05
4.99255e-05
3.41382e-05
3.60532e-06
9.49673e-07
3.85736e-07
3.17413e-07
3.84234e-07
4.83954e-07
5.95216e-07
6.81418e-07
7.04611e-07
6.27391e-07
4.38472e-07
2.26575e-07
8.90618e-08
5.6264e-08
5.01839e-06
1.17871e-06
2.63418e-07
6.36898e-08
2.94247e-08
3.3324e-08
4.76571e-08
6.33823e-08
7.45741e-08
7.4342e-08
5.67611e-08
3.08672e-08
1.29814e-08
3.23223e-08
1.041e-05
2.60874e-06
5.88973e-07
1.19266e-07
2.1726e-08
4.77155e-09
3.3444e-09
4.66992e-09
6.23795e-09
6.94258e-09
5.7436e-09
3.32884e-09
2.90705e-09
3.73797e-08
1.89959e-05
4.92458e-06
1.12299e-06
2.22887e-07
3.79069e-08
5.50912e-09
7.91149e-10
3.29647e-10
4.17698e-10
5.17129e-10
4.66895e-10
3.18096e-10
1.58956e-09
3.70121e-08
2.83862e-05
7.21509e-06
1.59886e-06
3.05733e-07
4.98867e-08
6.85992e-09
7.85513e-10
8.5675e-11
2.90955e-11
3.32455e-11
3.28059e-11
4.38448e-11
1.12342e-09
3.09144e-08
3.7293e-05
8.94219e-06
1.86777e-06
3.37041e-07
5.20317e-08
6.77613e-09
7.33201e-10
6.76967e-11
8.84777e-12
5.09329e-12
4.95114e-12
1.62752e-11
7.23135e-10
2.22605e-08
4.62005e-05
1.02559e-05
1.98326e-06
3.32092e-07
4.76628e-08
5.7946e-09
5.96398e-10
6.04453e-11
1.3159e-11
7.41336e-12
5.36292e-12
1.12394e-11
4.7049e-10
1.54266e-08
5.57904e-05
1.14256e-05
2.04057e-06
3.16717e-07
4.22104e-08
4.87637e-09
5.79954e-10
1.50181e-10
8.81493e-11
5.41453e-11
3.05971e-11
2.07736e-11
2.89439e-10
9.70003e-09
6.49421e-05
1.2324e-05
2.03913e-06
2.93497e-07
3.70026e-08
4.98826e-09
1.6189e-09
1.15769e-09
8.69351e-10
5.64975e-10
3.24903e-10
1.78645e-10
2.75941e-10
6.04149e-09
7.20803e-05
1.28331e-05
1.99641e-06
2.71985e-07
3.81082e-08
1.28841e-08
1.10273e-08
9.81821e-09
7.82245e-09
5.37741e-09
3.27462e-09
1.89903e-09
1.15765e-09
3.98864e-09
7.45355e-05
1.25365e-05
1.86382e-06
2.66179e-07
7.68439e-08
7.20752e-08
7.85129e-08
7.38289e-08
6.14891e-08
4.46733e-08
2.88898e-08
1.78883e-08
1.03372e-08
7.87978e-09
7.08688e-05
1.14675e-05
1.74097e-06
3.93212e-07
3.32252e-07
4.31205e-07
4.97698e-07
4.86536e-07
4.23102e-07
3.24546e-07
2.23049e-07
1.46117e-07
8.72038e-08
5.30267e-08
6.12547e-05
1.00529e-05
1.97138e-06
1.19009e-06
1.67775e-06
2.33294e-06
2.78124e-06
2.81879e-06
2.55776e-06
2.06824e-06
1.50992e-06
1.03889e-06
6.40398e-07
3.87507e-07
6.00128e-05
1.16925e-05
4.30338e-06
5.03438e-06
7.90957e-06
1.12613e-05
1.37664e-05
1.44311e-05
1.36546e-05
1.16309e-05
9.00804e-06
6.46925e-06
4.11664e-06
2.51813e-06
3.54269e-07
8.68157e-08
3.71629e-08
3.68072e-08
5.07884e-08
7.04271e-08
9.32846e-08
1.13126e-07
1.21843e-07
1.11779e-07
8.01659e-08
4.29634e-08
1.7011e-08
6.86636e-09
7.20349e-07
1.62107e-07
3.41604e-08
7.8428e-09
3.84923e-09
4.90249e-09
7.52516e-09
1.05024e-08
1.27667e-08
1.30218e-08
1.01222e-08
5.67093e-09
2.2446e-09
1.91067e-09
1.57957e-06
3.72692e-07
7.87744e-08
1.49488e-08
2.59556e-09
6.07239e-10
5.18439e-10
7.76503e-10
1.06699e-09
1.20744e-09
1.01061e-09
5.93436e-10
2.97555e-10
1.83283e-09
2.94798e-06
7.12985e-07
1.51641e-07
2.82542e-08
4.56671e-09
6.44303e-10
9.98863e-11
5.46894e-11
7.38837e-11
9.19958e-11
8.368e-11
5.38642e-11
8.93995e-11
2.01604e-09
4.42557e-06
1.04797e-06
2.17021e-07
3.90849e-08
6.07507e-09
8.08466e-10
9.36607e-11
1.3395e-11
7.42684e-12
8.41079e-12
8.31321e-12
7.35878e-12
6.19282e-11
1.9416e-09
5.68805e-06
1.27368e-06
2.49633e-07
4.25953e-08
6.28133e-09
7.9336e-10
8.6861e-11
1.06248e-11
3.91271e-12
3.50597e-12
3.49058e-12
3.95308e-12
4.68649e-11
1.6357e-09
6.70034e-06
1.39425e-06
2.54248e-07
4.04596e-08
5.57255e-09
6.60168e-10
6.92444e-11
9.33559e-12
4.10343e-12
3.54091e-12
3.3754e-12
3.67035e-12
3.61242e-11
1.311e-09
7.54568e-06
1.45339e-06
2.45861e-07
3.64034e-08
4.67347e-09
5.2611e-10
6.17036e-11
1.60474e-11
9.90052e-12
7.00809e-12
5.14355e-12
4.38458e-12
2.67821e-11
9.39e-10
8.11131e-06
1.45012e-06
2.2784e-07
3.13999e-08
3.81961e-09
4.93908e-10
1.48408e-10
1.00849e-10
7.28121e-11
4.59662e-11
2.62396e-11
1.48984e-11
2.6773e-11
6.56651e-10
8.25862e-06
1.38637e-06
2.04942e-07
2.67934e-08
3.64445e-09
1.2191e-09
1.01307e-09
8.68874e-10
6.57531e-10
4.26301e-10
2.44191e-10
1.31373e-10
8.1592e-11
4.55343e-10
7.72862e-06
1.22819e-06
1.73802e-07
2.41948e-08
7.4626e-09
7.23339e-09
7.63443e-09
6.89024e-09
5.41755e-09
3.67809e-09
2.21244e-09
1.24936e-09
6.66165e-10
5.96559e-10
6.59288e-06
1.01335e-06
1.48379e-07
3.69429e-08
3.58673e-08
4.67225e-08
5.18471e-08
4.84111e-08
3.95049e-08
2.81035e-08
1.78048e-08
1.05724e-08
5.75142e-09
3.26486e-09
5.0574e-06
8.00243e-07
1.67729e-07
1.30792e-07
1.99098e-07
2.74176e-07
3.12806e-07
3.01278e-07
2.54975e-07
1.89878e-07
1.26574e-07
7.85114e-08
4.38598e-08
2.42864e-08
4.44408e-06
8.81806e-07
4.27127e-07
6.22525e-07
1.02549e-06
1.44144e-06
1.68091e-06
1.66498e-06
1.45943e-06
1.13599e-06
7.94784e-07
5.1149e-07
2.93045e-07
1.63476e-07
3.76178e-08
8.52571e-09
3.45868e-09
3.77361e-09
5.81004e-09
8.80888e-09
1.25239e-08
1.60537e-08
1.80015e-08
1.69713e-08
1.24221e-08
6.86331e-09
2.78883e-09
9.71948e-10
9.08261e-08
1.93989e-08
3.8566e-09
8.43368e-10
4.41059e-10
6.24373e-10
1.02176e-09
1.49302e-09
1.87538e-09
1.95556e-09
1.54254e-09
8.86573e-10
3.57965e-10
1.61204e-10
2.05122e-07
4.56477e-08
9.08954e-09
1.62938e-09
2.73531e-10
7.09946e-11
7.22283e-11
1.1336e-10
1.59177e-10
1.82862e-10
1.54882e-10
9.34953e-11
4.15322e-11
8.80761e-11
3.88301e-07
8.8146e-08
1.76159e-08
3.10218e-09
4.80772e-10
6.82396e-11
1.37146e-11
1.03098e-11
1.35824e-11
1.64186e-11
1.523e-11
1.07187e-11
8.78249e-12
9.78091e-11
5.8187e-07
1.29501e-07
2.52773e-08
4.31883e-09
6.44927e-10
8.55432e-11
1.23189e-11
4.31791e-12
3.80383e-12
3.98033e-12
3.9664e-12
3.72893e-12
5.90232e-12
1.0544e-10
7.27767e-07
1.53718e-07
2.85356e-08
4.64163e-09
6.59841e-10
8.34063e-11
1.1553e-11
3.94598e-12
3.28188e-12
3.24578e-12
3.24548e-12
3.25458e-12
5.40627e-12
1.01971e-10
8.15717e-07
1.60852e-07
2.79279e-08
4.25959e-09
5.68741e-10
6.82428e-11
9.63866e-12
3.78271e-12
3.2762e-12
3.22773e-12
3.21678e-12
3.22892e-12
5.12156e-12
9.3587e-11
8.57136e-07
1.57142e-07
2.5435e-08
3.62626e-09
4.53884e-10
5.2409e-11
8.44237e-12
4.18661e-12
3.6576e-12
3.44821e-12
3.32334e-12
3.27512e-12
4.8437e-12
7.66622e-11
8.52406e-07
1.45476e-07
2.19558e-08
2.92615e-09
3.48365e-10
4.56032e-11
1.44704e-11
1.02522e-11
7.98328e-12
6.00134e-12
4.63197e-12
3.89305e-12
5.06593e-12
6.24457e-11
7.95784e-07
1.27792e-07
1.81835e-08
2.30742e-09
3.07753e-10
1.01473e-10
8.174e-11
6.79509e-11
4.97987e-11
3.17722e-11
1.85496e-11
1.08298e-11
8.26326e-12
4.96551e-11
6.76667e-07
1.03221e-07
1.40986e-08
1.93248e-09
6.27436e-10
6.14918e-10
6.28142e-10
5.44422e-10
4.0652e-10
2.61266e-10
1.48764e-10
7.93426e-11
4.1415e-11
5.01823e-11
5.21472e-07
7.73545e-08
1.11051e-08
3.06772e-09
3.28236e-09
4.23123e-09
4.51504e-09
4.02699e-09
3.09934e-09
2.06572e-09
1.22069e-09
6.69906e-10
3.39205e-10
1.87836e-10
3.60223e-07
5.58431e-08
1.29157e-08
1.25028e-08
1.97812e-08
2.66738e-08
2.91086e-08
2.66375e-08
2.11414e-08
1.46424e-08
9.02153e-09
5.13489e-09
2.6468e-09
1.36484e-09
2.90141e-07
6.05956e-08
3.90478e-08
6.58611e-08
1.10362e-07
1.5126e-07
1.6789e-07
1.57099e-07
1.28369e-07
9.22281e-08
5.90856e-08
3.46894e-08
1.82425e-08
9.42041e-09
3.7778e-09
7.93791e-10
2.94341e-10
3.38649e-10
5.73171e-10
9.43678e-10
1.43399e-09
1.93851e-09
2.2613e-09
2.18993e-09
1.63017e-09
9.21443e-10
3.85968e-10
1.32266e-10
9.92194e-09
2.01186e-09
3.80959e-10
8.15866e-11
4.63314e-11
7.06238e-11
1.20768e-10
1.832e-10
2.37069e-10
2.52598e-10
2.02225e-10
1.19328e-10
5.10468e-11
2.01859e-11
2.2912e-08
4.83187e-09
9.14493e-10
1.58095e-10
2.80127e-11
9.92513e-12
1.11572e-11
1.65925e-11
2.271e-11
2.60835e-11
2.26826e-11
1.49319e-11
8.09472e-12
7.64151e-12
4.37883e-08
9.40145e-09
1.78259e-09
3.01041e-10
4.71899e-11
9.02269e-12
4.22019e-12
4.04986e-12
4.50321e-12
4.88302e-12
4.73823e-12
4.16527e-12
3.69893e-12
7.49561e-12
6.53203e-08
1.3783e-08
2.55911e-09
4.19838e-10
6.27459e-11
1.06051e-11
4.0073e-12
3.30875e-12
3.27436e-12
3.30002e-12
3.29874e-12
3.26659e-12
3.34027e-12
8.36476e-12
7.93969e-08
1.59605e-08
2.83083e-09
4.43792e-10
6.33373e-11
1.0335e-11
3.92905e-12
3.26505e-12
3.20828e-12
3.20608e-12
3.20659e-12
3.20659e-12
3.31825e-12
8.93622e-12
8.48511e-08
1.59935e-08
2.6654e-09
3.93881e-10
5.3474e-11
8.83891e-12
3.7483e-12
3.24835e-12
3.20597e-12
3.20265e-12
3.20242e-12
3.20364e-12
3.31805e-12
9.1447e-12
8.35257e-08
1.4706e-08
2.29475e-09
3.18752e-10
4.13431e-11
7.26257e-12
3.61307e-12
3.26669e-12
3.22743e-12
3.21477e-12
3.20802e-12
3.20631e-12
3.32134e-12
8.72961e-12
7.71361e-08
1.26853e-08
1.85352e-09
2.4229e-10
3.06736e-11
6.4159e-12
3.95683e-12
3.63645e-12
3.48279e-12
3.35904e-12
3.27831e-12
3.2383e-12
3.35532e-12
8.407e-12
6.63314e-08
1.02958e-08
1.42287e-09
1.78229e-10
2.55761e-11
1.00097e-11
8.4073e-12
7.33574e-12
6.04927e-12
4.86541e-12
4.04792e-12
3.59895e-12
3.5311e-12
7.87477e-12
5.1633e-08
7.63694e-09
1.01634e-09
1.39281e-10
4.80953e-11
4.70234e-11
4.66484e-11
3.94092e-11
2.89336e-11
1.88257e-11
1.15153e-11
7.26973e-12
5.18369e-12
7.27834e-12
3.62974e-08
5.24521e-09
7.44967e-10
2.25851e-10
2.56725e-10
3.25113e-10
3.34899e-10
2.86681e-10
2.10278e-10
1.33445e-10
7.53808e-11
4.00088e-11
2.05741e-11
1.30501e-11
2.28162e-08
3.49686e-09
9.01579e-10
1.02581e-09
1.64997e-09
2.17137e-09
2.27633e-09
1.98726e-09
1.49049e-09
9.70004e-10
5.58889e-10
2.96451e-10
1.44063e-10
7.16081e-11
1.70545e-08
3.83894e-09
3.19224e-09
5.89271e-09
9.89257e-09
1.31718e-08
1.39752e-08
1.24122e-08
9.52758e-09
6.38392e-09
3.79042e-09
2.05702e-09
1.00668e-09
4.88206e-10
3.40464e-10
6.90621e-11
2.49275e-11
2.89409e-11
5.10472e-11
8.87204e-11
1.41959e-10
2.00863e-10
2.42929e-10
2.41575e-10
1.83311e-10
1.06301e-10
4.70284e-11
1.80739e-11
9.33754e-10
1.82786e-10
3.53475e-11
9.5574e-12
6.85147e-12
9.42672e-12
1.47075e-11
2.16245e-11
2.795e-11
3.01999e-11
2.50074e-11
1.6065e-11
8.60621e-12
5.02529e-12
2.19774e-09
4.43752e-10
8.24894e-11
1.60769e-11
5.19496e-12
3.78241e-12
3.98131e-12
4.57957e-12
5.26779e-12
5.67201e-12
5.32385e-12
4.48904e-12
3.74332e-12
3.48979e-12
4.23221e-09
8.67496e-10
1.59314e-10
2.82127e-11
6.75502e-12
3.65802e-12
3.28712e-12
3.28659e-12
3.33859e-12
3.38199e-12
3.36751e-12
3.30593e-12
3.24978e-12
3.40383e-12
6.28089e-09
1.26743e-09
2.27494e-10
3.82968e-11
8.03853e-12
3.78359e-12
3.26219e-12
3.20904e-12
3.20768e-12
3.21096e-12
3.21117e-12
3.20799e-12
3.20999e-12
3.46813e-12
7.43047e-09
1.43347e-09
2.46569e-10
3.97287e-11
8.02412e-12
3.75638e-12
3.25531e-12
3.20466e-12
3.20063e-12
3.20082e-12
3.20121e-12
3.20156e-12
3.20833e-12
3.54091e-12
7.59542e-09
1.37988e-09
2.24266e-10
3.4578e-11
7.12138e-12
3.62892e-12
3.2406e-12
3.20333e-12
3.20042e-12
3.2005e-12
3.20084e-12
3.20136e-12
3.20931e-12
3.59733e-12
7.04752e-09
1.20169e-09
1.84057e-10
2.73756e-11
6.04688e-12
3.49585e-12
3.22864e-12
3.20398e-12
3.20162e-12
3.20125e-12
3.20127e-12
3.20169e-12
3.211e-12
3.62093e-12
6.08282e-09
9.73002e-10
1.40738e-10
2.05154e-11
5.14033e-12
3.41606e-12
3.24422e-12
3.22329e-12
3.21472e-12
3.20846e-12
3.20476e-12
3.2034e-12
3.21502e-12
3.65507e-12
4.85559e-09
7.36162e-10
1.01773e-10
1.50581e-11
4.65769e-12
3.6057e-12
3.49368e-12
3.42526e-12
3.34962e-12
3.2843e-12
3.24168e-12
3.21994e-12
3.22496e-12
3.6551e-12
3.49227e-09
5.06817e-10
6.84886e-11
1.17627e-11
5.97418e-12
5.85641e-12
5.76093e-12
5.26051e-12
4.60426e-12
4.01382e-12
3.61132e-12
3.39088e-12
3.29673e-12
3.57547e-12
2.26485e-09
3.23181e-10
4.78577e-11
1.72928e-11
1.97739e-11
2.38714e-11
2.38343e-11
2.01571e-11
1.50276e-11
1.02662e-11
6.89843e-12
4.97034e-12
3.99136e-12
3.72512e-12
1.31049e-09
2.01716e-10
5.92359e-11
7.44964e-11
1.1865e-10
1.51479e-10
1.53046e-10
1.28397e-10
9.23955e-11
5.80077e-11
3.28118e-11
1.78154e-11
9.79249e-12
6.26809e-12
9.16508e-10
2.26914e-10
2.31677e-10
4.49041e-10
7.47587e-10
9.65088e-10
9.81862e-10
8.31246e-10
6.04141e-10
3.81721e-10
2.13301e-10
1.09447e-10
5.18052e-11
2.54037e-11
2.92482e-11
7.99271e-12
4.61732e-12
4.89874e-12
6.63345e-12
9.81869e-12
1.46189e-11
2.02923e-11
2.47265e-11
2.51698e-11
2.00557e-11
1.29563e-11
7.40757e-12
4.64811e-12
7.76847e-11
1.69668e-11
5.55563e-12
3.64361e-12
3.46298e-12
3.68705e-12
4.15292e-12
4.79458e-12
5.4151e-12
5.67294e-12
5.22255e-12
4.40355e-12
3.71293e-12
3.37228e-12
1.82522e-10
3.76555e-11
9.14313e-12
4.12589e-12
3.33768e-12
3.24196e-12
3.26357e-12
3.31876e-12
3.38409e-12
3.42493e-12
3.39528e-12
3.31917e-12
3.2507e-12
3.22101e-12
3.52092e-10
7.14587e-11
1.50271e-11
5.02247e-12
3.44892e-12
3.22994e-12
3.20505e-12
3.2062e-12
3.21133e-12
3.21573e-12
3.21477e-12
3.2094e-12
3.20436e-12
3.2099e-12
5.18815e-10
1.02859e-10
2.02056e-11
5.76644e-12
3.54145e-12
3.23881e-12
3.20288e-12
3.19951e-12
3.19971e-12
3.20027e-12
3.20056e-12
3.20057e-12
3.20086e-12
3.21383e-12
5.9815e-10
1.13562e-10
2.13255e-11
5.83302e-12
3.53674e-12
3.23677e-12
3.20255e-12
3.19933e-12
3.19928e-12
3.19955e-12
3.19987e-12
3.20022e-12
3.20096e-12
3.21971e-12
5.86931e-10
1.05608e-10
1.91409e-11
5.39832e-12
3.46692e-12
3.22764e-12
3.20174e-12
3.19947e-12
3.1995e-12
3.19977e-12
3.2001e-12
3.20048e-12
3.20137e-12
3.22559e-12
5.16623e-10
8.80796e-11
1.56647e-11
4.82449e-12
3.38638e-12
3.21827e-12
3.20112e-12
3.19975e-12
3.19983e-12
3.2001e-12
3.20042e-12
3.20083e-12
3.20191e-12
3.2307e-12
4.20233e-10
6.80993e-11
1.21925e-11
4.30767e-12
3.32106e-12
3.21244e-12
3.20192e-12
3.2009e-12
3.20071e-12
3.20072e-12
3.2009e-12
3.20128e-12
3.20268e-12
3.23755e-12
3.14732e-10
4.9265e-11
9.2717e-12
3.91558e-12
3.28427e-12
3.22075e-12
3.21407e-12
3.21061e-12
3.2071e-12
3.20432e-12
3.20276e-12
3.20229e-12
3.20367e-12
3.24144e-12
2.12131e-10
3.28047e-11
6.96698e-12
3.68094e-12
3.34762e-12
3.33665e-12
3.32843e-12
3.30037e-12
3.2663e-12
3.23744e-12
3.2189e-12
3.20956e-12
3.20676e-12
3.23518e-12
1.29464e-10
2.07794e-11
5.6175e-12
3.9735e-12
4.11734e-12
4.32267e-12
4.28912e-12
4.06429e-12
3.77916e-12
3.53119e-12
3.36553e-12
3.27612e-12
3.23421e-12
3.23243e-12
7.10904e-11
1.34321e-11
6.29397e-12
7.42578e-12
1.00312e-11
1.17618e-11
1.15665e-11
9.91811e-12
7.77521e-12
5.87486e-12
4.56803e-12
3.83715e-12
3.47285e-12
3.32617e-12
4.77909e-11
1.50678e-11
1.73722e-11
3.17822e-11
5.04337e-11
6.24353e-11
6.11661e-11
5.01068e-11
3.55803e-11
2.25117e-11
1.32997e-11
7.99912e-12
5.26784e-12
4.10068e-12
4.91882e-12
3.496e-12
3.27551e-12
3.2921e-12
3.40731e-12
3.63423e-12
3.99785e-12
4.45432e-12
4.83959e-12
4.91662e-12
4.5361e-12
3.9792e-12
3.53819e-12
3.31626e-12
8.28329e-12
4.09793e-12
3.34349e-12
3.22222e-12
3.21208e-12
3.22861e-12
3.26353e-12
3.3139e-12
3.36523e-12
3.38941e-12
3.35655e-12
3.29288e-12
3.23865e-12
3.21156e-12
1.56996e-11
5.50271e-12
3.57846e-12
3.25331e-12
3.20432e-12
3.19895e-12
3.20099e-12
3.2055e-12
3.21096e-12
3.21465e-12
3.21274e-12
3.20704e-12
3.20188e-12
3.19953e-12
2.77915e-11
7.81878e-12
3.96718e-12
3.3109e-12
3.21149e-12
3.1983e-12
3.19707e-12
3.19744e-12
3.19809e-12
3.19869e-12
3.19888e-12
3.1987e-12
3.19853e-12
3.19887e-12
3.941e-11
9.93849e-12
4.30688e-12
3.35872e-12
3.21758e-12
3.19913e-12
3.19719e-12
3.19723e-12
3.19748e-12
3.19777e-12
3.19806e-12
3.19832e-12
3.19859e-12
3.1994e-12
4.40145e-11
1.05155e-11
4.36109e-12
3.36107e-12
3.2174e-12
3.19931e-12
3.19748e-12
3.19752e-12
3.19775e-12
3.19803e-12
3.19832e-12
3.19862e-12
3.19894e-12
3.20013e-12
4.17559e-11
9.76473e-12
4.19151e-12
3.33082e-12
3.21313e-12
3.19906e-12
3.19776e-12
3.19785e-12
3.1981e-12
3.19838e-12
3.19867e-12
3.19898e-12
3.19934e-12
3.20095e-12
3.55069e-11
8.40471e-12
3.94406e-12
3.29267e-12
3.20834e-12
3.19884e-12
3.19807e-12
3.19823e-12
3.19848e-12
3.19876e-12
3.19907e-12
3.1994e-12
3.1998e-12
3.20188e-12
2.80515e-11
6.98381e-12
3.71198e-12
3.26003e-12
3.20468e-12
3.19884e-12
3.19848e-12
3.19865e-12
3.1989e-12
3.19918e-12
3.1995e-12
3.19985e-12
3.20031e-12
3.20305e-12
2.07054e-11
5.74102e-12
3.52774e-12
3.23645e-12