/*--------------------------------*- C++ -*----------------------------------*\
| =========                 |                                                 |
| \\      /  F ield         | OpenFOAM: The Open Source CFD Toolbox           |
|  \\    /   O peration     | Version:  v2106                                 |
|   \\  /    A nd           | Website:  www.openfoam.com                      |
|    \\/     M anipulation  |                                                 |
\*---------------------------------------------------------------------------*/
FoamFile
{
    version     2.0;
    format      ascii;
    arch        "LSB;label=32;scalar=64";
    class       volScalarField;
    location    "0.000168";
    object      nut;
}
// * * * * * * * * * * * * * * * * * * * * * * * * * * * * * * * * * * * * * //

dimensions      [0 2 -1 0 0 0 0];

internalField   nonuniform List<scalar> 
144746
(
3.51683e-05
3.20133e-05
2.94358e-05
2.74176e-05
2.53933e-05
2.23601e-05
1.96333e-05
1.84182e-05
1.83022e-05
1.8819e-05
2.03562e-05
2.42283e-05
3.18237e-05
4.36296e-05
2.51945e-05
2.07606e-05
1.69091e-05
1.38056e-05
1.19003e-05
1.03103e-05
9.53253e-06
1.0005e-05
1.12369e-05
1.29798e-05
1.56566e-05
2.06564e-05
2.95907e-05
4.28601e-05
1.96197e-05
1.4446e-05
9.91586e-06
6.4043e-06
4.55009e-06
3.73098e-06
3.72598e-06
4.57787e-06
6.16053e-06
8.43383e-06
1.18829e-05
1.80027e-05
2.83832e-05
4.3034e-05
1.69437e-05
1.0909e-05
5.98959e-06
2.76087e-06
1.4071e-06
1.03603e-06
1.19561e-06
1.8604e-06
3.16478e-06
5.35833e-06
9.19391e-06
1.61564e-05
2.75676e-05
4.28477e-05
1.55176e-05
8.41415e-06
3.55543e-06
1.21046e-06
4.6699e-07
2.93361e-07
4.10241e-07
8.38979e-07
1.82592e-06
3.89742e-06
8.06983e-06
1.56365e-05
2.71668e-05
4.12332e-05
1.4739e-05
6.72758e-06
2.44483e-06
9.26404e-07
3.99057e-07
2.22482e-07
2.90534e-07
6.47022e-07
1.57099e-06
3.69847e-06
7.99522e-06
1.53449e-05
2.57008e-05
3.75033e-05
1.52024e-05
6.27755e-06
2.55433e-06
1.28123e-06
6.6633e-07
4.32397e-07
5.21231e-07
9.8833e-07
2.12422e-06
4.50053e-06
8.81492e-06
1.54879e-05
2.41762e-05
3.34933e-05
1.72786e-05
7.14906e-06
3.64658e-06
2.18533e-06
1.34529e-06
9.98679e-07
1.14151e-06
1.82511e-06
3.2799e-06
5.91335e-06
1.00747e-05
1.59154e-05
2.30847e-05
3.06032e-05
2.15213e-05
9.24777e-06
5.6646e-06
3.89211e-06
2.73001e-06
2.15812e-06
2.2844e-06
3.15802e-06
4.86443e-06
7.60586e-06
1.15051e-05
1.68653e-05
2.33511e-05
2.93319e-05
3.08711e-05
1.37409e-05
8.833e-06
6.86267e-06
5.36868e-06
4.39952e-06
4.24368e-06
5.06964e-06
6.89178e-06
9.80875e-06
1.37965e-05
1.9606e-05
2.50831e-05
3.03599e-05
4.06621e-05
2.11434e-05
1.34045e-05
1.14268e-05
1.00964e-05
8.86698e-06
8.24878e-06
8.84971e-06
1.09207e-05
1.48978e-05
1.94474e-05
2.50113e-05
3.01274e-05
3.52131e-05
4.86991e-05
2.96868e-05
1.99952e-05
1.72558e-05
1.70443e-05
1.67619e-05
1.65231e-05
1.78266e-05
2.11589e-05
2.61944e-05
3.08228e-05
3.60413e-05
4.04877e-05
4.49382e-05
5.63822e-05
3.83502e-05
2.72496e-05
2.304e-05
2.33594e-05
2.53266e-05
2.79712e-05
3.17935e-05
3.69877e-05
4.31274e-05
4.82552e-05
5.24777e-05
5.55635e-05
5.89154e-05
6.39227e-05
4.64542e-05
3.47078e-05
2.91512e-05
2.88474e-05
3.16425e-05
3.66013e-05
4.3247e-05
5.00854e-05
5.68242e-05
6.30017e-05
6.70199e-05
6.9756e-05
7.30273e-05
4.0859e-05
3.78595e-05
3.55714e-05
3.32954e-05
2.99433e-05
2.49914e-05
2.05138e-05
1.77518e-05
1.65178e-05
1.6825e-05
1.94023e-05
2.5367e-05
3.55805e-05
5.05938e-05
2.70045e-05
2.26582e-05
1.92706e-05
1.65641e-05
1.46622e-05
1.23988e-05
1.06665e-05
1.00396e-05
1.03475e-05
1.17498e-05
1.52107e-05
2.20981e-05
3.36224e-05
5.00436e-05
1.80724e-05
1.32549e-05
9.64208e-06
7.00284e-06
5.64695e-06
4.74687e-06
4.35715e-06
4.66114e-06
5.71857e-06
7.88404e-06
1.20762e-05
1.98755e-05
3.2605e-05
4.9986e-05
1.32432e-05
8.25394e-06
4.7389e-06
2.54928e-06
1.64279e-06
1.34149e-06
1.40636e-06
1.87719e-06
2.97895e-06
5.23234e-06
9.71828e-06
1.80134e-05
3.11066e-05
4.80815e-05
1.11519e-05
5.83959e-06
2.51441e-06
9.39817e-07
4.26461e-07
3.19605e-07
4.31815e-07
8.18748e-07
1.78559e-06
4.02125e-06
8.73616e-06
1.71019e-05
2.92559e-05
4.37416e-05
1.06053e-05
4.78687e-06
1.73169e-06
6.26767e-07
2.50917e-07
1.50995e-07
2.37086e-07
5.8529e-07
1.52584e-06
3.77676e-06
8.33202e-06
1.58583e-05
2.59787e-05
3.72878e-05
1.14354e-05
4.75178e-06
1.8396e-06
8.27806e-07
3.94397e-07
2.62718e-07
3.7087e-07
8.06114e-07
1.89687e-06
4.24061e-06
8.47751e-06
1.48274e-05
2.27725e-05
3.12175e-05
1.38153e-05
5.68938e-06
2.62827e-06
1.42189e-06
8.31235e-07
6.37081e-07
8.04506e-07
1.40962e-06
2.71325e-06
5.12421e-06
8.94391e-06
1.4179e-05
2.04231e-05
2.7173e-05
1.81288e-05
7.6158e-06
4.08141e-06
2.5821e-06
1.76796e-06
1.45339e-06
1.65984e-06
2.43711e-06
3.90755e-06
6.28313e-06
9.70069e-06
1.43389e-05
2.00708e-05
2.58071e-05
2.7145e-05
1.12641e-05
6.41691e-06
4.63379e-06
3.58116e-06
3.05626e-06
3.16749e-06
4.00333e-06
5.60405e-06
8.04999e-06
1.13988e-05
1.66549e-05
2.19991e-05
2.75401e-05
3.73491e-05
1.81276e-05
9.88836e-06
7.84623e-06
6.8152e-06
6.16902e-06
6.13255e-06
7.02622e-06
8.99068e-06
1.22175e-05
1.64136e-05
2.20836e-05
2.75518e-05
3.32181e-05
4.62604e-05
2.70429e-05
1.64484e-05
1.27436e-05
1.19077e-05
1.16057e-05
1.18901e-05
1.34322e-05
1.676e-05
2.17622e-05
2.65908e-05
3.25407e-05
3.79099e-05
4.3223e-05
5.50685e-05
3.65494e-05
2.42227e-05
1.84334e-05
1.74252e-05
1.82718e-05
2.02242e-05
2.36227e-05
2.89686e-05
3.60248e-05
4.23427e-05
4.80501e-05
5.26825e-05
5.71377e-05
6.36578e-05
4.54484e-05
3.26802e-05
2.54932e-05
2.34363e-05
2.45581e-05
2.81406e-05
3.40973e-05
4.15475e-05
5.01173e-05
5.82323e-05
6.38723e-05
6.78949e-05
7.22787e-05
4.24911e-05
3.95679e-05
3.72046e-05
3.43814e-05
2.99521e-05
2.42451e-05
1.90362e-05
1.55746e-05
1.38846e-05
1.42923e-05
1.78186e-05
2.51599e-05
3.62978e-05
5.12294e-05
2.74121e-05
2.32737e-05
2.03567e-05
1.79776e-05
1.58963e-05
1.31853e-05
1.07098e-05
9.05609e-06
8.64172e-06
9.76729e-06
1.37959e-05
2.18403e-05
3.41594e-05
5.0292e-05
1.66176e-05
1.21474e-05
9.39486e-06
7.50155e-06
6.50371e-06
5.49073e-06
4.68167e-06
4.22593e-06
4.67822e-06
6.60014e-06
1.12423e-05
1.9912e-05
3.30095e-05
4.94669e-05
1.03482e-05
6.16974e-06
3.79375e-06
2.46469e-06
1.94411e-06
1.66942e-06
1.56051e-06
1.70158e-06
2.42685e-06
4.52702e-06
9.23584e-06
1.79489e-05
3.07542e-05
4.60484e-05
7.81342e-06
3.80411e-06
1.67204e-06
7.42235e-07
4.43298e-07
3.75561e-07
4.43568e-07
7.19874e-07
1.52842e-06
3.64804e-06
8.35724e-06
1.66011e-05
2.78256e-05
4.03815e-05
7.42254e-06
3.17449e-06
1.11577e-06
3.86025e-07
1.51176e-07
1.04269e-07
1.80741e-07
4.68806e-07
1.29985e-06
3.38437e-06
7.6848e-06
1.47043e-05
2.3656e-05
3.3135e-05
8.2598e-06
3.33861e-06
1.19154e-06
4.57517e-07
1.89328e-07
1.28571e-07
2.21142e-07
5.63708e-07
1.47118e-06
3.50676e-06
7.28647e-06
1.29446e-05
1.97311e-05
2.66303e-05
1.03274e-05
4.15771e-06
1.67988e-06
7.80104e-07
4.11765e-07
3.22742e-07
4.59832e-07
9.06547e-07
1.91251e-06
3.87129e-06
7.1275e-06
1.16236e-05
1.68332e-05
2.22717e-05
1.40504e-05
5.71824e-06
2.58018e-06
1.45138e-06
9.43136e-07
8.02039e-07
9.90429e-07
1.55718e-06
2.6425e-06
4.48976e-06
7.33186e-06
1.11366e-05
1.56445e-05
2.11647e-05
2.12049e-05
8.5436e-06
4.08727e-06
2.69139e-06
2.02939e-06
1.8074e-06
2.01355e-06
2.68428e-06
3.87948e-06
5.73988e-06
8.44058e-06
1.2371e-05
1.74022e-05
2.33845e-05
2.99324e-05
1.37995e-05
6.42811e-06
4.80776e-06
4.07959e-06
3.81881e-06
4.05826e-06
4.90171e-06
6.46776e-06
8.79268e-06
1.19887e-05
1.71748e-05
2.28976e-05
2.92268e-05
3.78629e-05
2.21667e-05
1.21626e-05
8.38568e-06
7.57698e-06
7.45286e-06
8.03694e-06
9.49745e-06
1.20893e-05
1.57876e-05
1.99662e-05
2.62102e-05
3.19681e-05
3.79057e-05
4.64134e-05
3.12581e-05
1.94644e-05
1.34552e-05
1.22289e-05
1.25664e-05
1.39779e-05
1.66234e-05
2.08375e-05
2.66855e-05
3.24532e-05
3.83668e-05
4.37388e-05
4.86828e-05
5.37664e-05
3.96158e-05
2.82872e-05
2.09905e-05
1.83391e-05
1.83213e-05
2.04336e-05
2.47419e-05
3.09735e-05
3.86711e-05
4.62057e-05
5.16776e-05
5.63673e-05
6.10786e-05
5.85499e-05
7.02351e-05
8.4793e-05
0.000105608
0.000137169
5.81714e-05
5.87355e-05
7.21305e-05
8.58704e-05
0.000103132
0.000128102
6.38762e-05
5.90597e-05
7.28936e-05
8.56502e-05
0.000100874
0.000122308
6.99168e-05
5.80177e-05
7.11019e-05
8.24977e-05
9.7061e-05
0.000117268
7.72803e-05
5.39561e-05
6.51759e-05
7.57347e-05
9.15878e-05
0.000117248
8.57612e-05
4.75142e-05
5.684e-05
6.72798e-05
8.51466e-05
0.00011897
9.46878e-05
4.08268e-05
4.83469e-05
5.8375e-05
7.71989e-05
0.000118534
0.000103079
3.60686e-05
4.17971e-05
5.05712e-05
6.84813e-05
0.000113393
0.000109592
3.39739e-05
3.85688e-05
4.61228e-05
6.26618e-05
0.000108991
0.000112406
3.52149e-05
3.9562e-05
4.65415e-05
6.19911e-05
0.00010805
0.000111409
4.06385e-05
4.52691e-05
5.22257e-05
6.68591e-05
0.000111431
0.00010657
5.04235e-05
5.5338e-05
6.24912e-05
7.64609e-05
0.000117444
9.77207e-05
6.3097e-05
6.77606e-05
7.48327e-05
8.78431e-05
0.000121919
8.41554e-05
7.48552e-05
7.88427e-05
8.53588e-05
9.66101e-05
0.000118983
6.65609e-05
6.90349e-05
8.12508e-05
9.2491e-05
0.000103404
0.000117648
6.39268e-05
6.89361e-05
8.34026e-05
9.56629e-05
0.00010568
0.000115642
7.25028e-05
6.82758e-05
8.31115e-05
9.52903e-05
0.000105207
0.000113658
8.16267e-05
6.45458e-05
7.84332e-05
8.96266e-05
0.000100162
0.000110665
9.15034e-05
5.69295e-05
6.85057e-05
7.86673e-05
9.17397e-05
0.000110673
0.000100963
4.71878e-05
5.62438e-05
6.56569e-05
8.10457e-05
0.000109441
0.000108886
3.82363e-05
4.50518e-05
5.34416e-05
6.91836e-05
0.000103767
0.000114145
3.24032e-05
3.74117e-05
4.46313e-05
5.91064e-05
9.46968e-05
0.000115848
3.03841e-05
3.44653e-05
4.0932e-05
5.43327e-05
8.87103e-05
0.000114152
3.24308e-05
3.6458e-05
4.27218e-05
5.54386e-05
8.81965e-05
0.000109731
3.86655e-05
4.31393e-05
4.96552e-05
6.17948e-05
9.28739e-05
0.000103044
4.88038e-05
5.38563e-05
6.07885e-05
7.21218e-05
0.000100425
9.42587e-05
6.16616e-05
6.67395e-05
7.34997e-05
8.32505e-05
0.000106927
8.31056e-05
7.41639e-05
7.84537e-05
8.38129e-05
9.09071e-05
0.00010676
7.01306e-05
6.92497e-05
8.1874e-05
9.29943e-05
0.000100145
9.89063e-05
7.19406e-05
6.85112e-05
8.33945e-05
9.63853e-05
0.000104396
0.000103528
8.3927e-05
6.65996e-05
8.19051e-05
9.48721e-05
0.000103544
0.000106227
9.50417e-05
6.09952e-05
7.5001e-05
8.62949e-05
9.49105e-05
0.000103162
0.000104066
5.21016e-05
6.32845e-05
7.22291e-05
8.13004e-05
9.61626e-05
0.000110145
4.18135e-05
5.01712e-05
5.75062e-05
6.71034e-05
8.70273e-05
0.000112801
3.28151e-05
3.89416e-05
4.53803e-05
5.53383e-05
7.76935e-05
0.00011197
2.70077e-05
3.15868e-05
3.76234e-05
4.79285e-05
7.07728e-05
0.00010857
2.54212e-05
2.90592e-05
3.49207e-05
4.53868e-05
6.8458e-05
0.000104148
2.77665e-05
3.11979e-05
3.68777e-05
4.72678e-05
7.09077e-05
9.91606e-05
3.36004e-05
3.72435e-05
4.2948e-05
5.32506e-05
7.63863e-05
9.36465e-05
4.18663e-05
4.62066e-05
5.25232e-05
6.25594e-05
8.36912e-05
8.77473e-05
5.1977e-05
5.7054e-05
6.40273e-05
7.28976e-05
8.92623e-05
8.1115e-05
6.29109e-05
6.8386e-05
7.47513e-05
8.03409e-05
8.86678e-05
7.29734e-05
8.16546e-05
8.56703e-05
9.14695e-05
0.000100529
0.000107041
5.84548e-05
7.65545e-05
7.97216e-05
8.48032e-05
9.48347e-05
0.00010309
6.7815e-05
7.17489e-05
7.32184e-05
7.7726e-05
8.95729e-05
0.000103524
7.85294e-05
6.58997e-05
6.6013e-05
7.00996e-05
8.34693e-05
0.000104373
9.00257e-05
5.90016e-05
5.88201e-05
6.27505e-05
7.64638e-05
0.00010415
0.000101414
5.22197e-05
5.22031e-05
5.55713e-05
6.8687e-05
0.000100966
0.000111333
4.54912e-05
4.61877e-05
4.92885e-05
6.16257e-05
9.53186e-05
0.000118554
3.93847e-05
4.10302e-05
4.47506e-05
5.66798e-05
9.05238e-05
0.000122406
3.49974e-05
3.76647e-05
4.27235e-05
5.51899e-05
8.96642e-05
0.000122699
3.32196e-05
3.73975e-05
4.41941e-05
5.78798e-05
9.40221e-05
0.000119903
3.52795e-05
4.12959e-05
4.98378e-05
6.49809e-05
0.000103084
0.000113915
4.21935e-05
4.99515e-05
6.0069e-05
7.60645e-05
0.000113308
0.000103999
5.39158e-05
6.28733e-05
7.36372e-05
8.85354e-05
0.000119744
8.91656e-05
6.84753e-05
7.76735e-05
8.68934e-05
9.7872e-05
0.000117197
7.01976e-05
8.22976e-05
8.58794e-05
8.876e-05
9.30646e-05
9.81134e-05
6.8291e-05
7.63463e-05
7.97955e-05
8.23266e-05
8.78845e-05
9.50794e-05
8.00962e-05
7.11222e-05
7.30152e-05
7.45175e-05
8.16018e-05
9.4976e-05
9.19257e-05
6.44264e-05
6.48951e-05
6.57125e-05
7.38868e-05
9.33457e-05
0.000102994
5.60257e-05
5.64228e-05
5.73112e-05
6.57348e-05
8.92772e-05
0.000112071
4.76035e-05
4.85039e-05
5.00508e-05
5.84161e-05
8.30047e-05
0.000117964
3.94132e-05
4.141e-05
4.43789e-05
5.3144e-05
7.687e-05
0.000120329
3.28409e-05
3.59318e-05
4.05056e-05
5.02569e-05
7.37491e-05
0.000119937
2.92863e-05
3.33522e-05
3.9388e-05
5.04998e-05
7.50288e-05
0.000117598
2.91974e-05
3.44011e-05
4.1828e-05
5.44703e-05
8.07336e-05
0.000113354
3.28955e-05
3.9498e-05
4.83322e-05
6.24363e-05
9.08027e-05
0.000107256
4.08424e-05
4.90003e-05
5.94545e-05
7.42201e-05
0.000102047
9.8583e-05
5.31828e-05
6.27522e-05
7.4112e-05
8.7045e-05
0.000109099
8.66499e-05
6.85069e-05
7.89307e-05
8.85431e-05
9.58515e-05
0.000106402
7.23507e-05
7.23659e-05
7.8322e-05
8.15966e-05
8.21257e-05
8.14398e-05
7.46613e-05
6.64048e-05
7.29025e-05
7.61262e-05
7.74825e-05
8.06205e-05
8.62779e-05
6.14867e-05
6.72142e-05
6.91282e-05
7.09236e-05
7.88463e-05
9.68082e-05
5.54434e-05
6.0221e-05
6.12474e-05
6.34076e-05
7.48843e-05
0.00010496
4.71856e-05
5.22187e-05
5.35512e-05
5.64147e-05
6.95477e-05
0.00010986
3.90886e-05
4.42766e-05
4.70066e-05
5.11917e-05
6.47062e-05
0.00011112
3.16831e-05
3.69304e-05
4.16523e-05
4.8048e-05
6.22275e-05
0.000109876
2.61134e-05
3.1424e-05
3.77208e-05
4.64232e-05
6.18545e-05
0.000107993
2.35742e-05
2.90016e-05
3.62287e-05
4.66425e-05
6.4311e-05
0.000105723
2.45439e-05
3.0112e-05
3.77629e-05
4.93403e-05
6.9669e-05
0.000102387
2.86725e-05
3.47913e-05
4.27484e-05
5.51492e-05
7.81149e-05
9.77322e-05
3.54967e-05
4.24508e-05
5.16171e-05
6.45293e-05
8.7244e-05
9.12884e-05
4.51362e-05
5.32221e-05
6.40652e-05
7.62149e-05
9.40108e-05
8.33104e-05
5.72303e-05
6.70885e-05
7.81876e-05
8.59576e-05
9.22566e-05
7.36613e-05
7.37965e-05
0.000136143
8.46861e-05
6.18107e-05
4.76389e-05
3.85878e-05
8.88534e-05
0.000112832
6.44462e-05
4.58678e-05
3.57306e-05
2.95814e-05
9.89193e-05
9.05658e-05
5.13749e-05
3.67458e-05
2.9177e-05
2.42535e-05
0.000106057
7.68309e-05
4.50882e-05
3.32317e-05
2.69628e-05
2.22707e-05
0.000111164
7.13615e-05
4.41361e-05
3.40544e-05
2.81542e-05
2.25594e-05
0.000114038
7.1651e-05
4.71817e-05
3.83178e-05
3.22538e-05
2.46027e-05
0.000114382
7.53331e-05
5.27919e-05
4.49383e-05
3.87561e-05
2.8544e-05
0.000112018
8.0882e-05
5.95298e-05
5.27683e-05
4.74767e-05
3.45593e-05
0.000106741
8.66554e-05
6.63993e-05
6.05754e-05
5.72583e-05
4.3235e-05
9.90304e-05
9.11498e-05
7.31158e-05
6.80259e-05
6.58784e-05
5.26143e-05
8.98063e-05
9.41369e-05
7.9648e-05
7.52025e-05
7.35161e-05
6.16066e-05
8.01526e-05
9.67005e-05
8.63379e-05
8.22128e-05
7.99082e-05
6.83122e-05
7.06889e-05
9.95474e-05
9.30531e-05
8.86618e-05
8.50645e-05
7.4171e-05
6.17571e-05
0.000104992
0.000100391
9.53644e-05
9.09638e-05
8.15196e-05
7.25953e-05
0.000121203
8.98199e-05
7.09475e-05
5.56032e-05
4.4849e-05
8.51071e-05
0.000102447
6.82156e-05
5.0745e-05
3.93978e-05
3.21696e-05
9.38894e-05
8.22944e-05
5.22863e-05
3.76039e-05
2.9267e-05
2.35728e-05
0.000100498
6.86352e-05
4.33038e-05
3.10259e-05
2.41329e-05
1.89255e-05
0.000105796
6.20239e-05
4.02039e-05
2.95589e-05
2.29787e-05
1.73906e-05
0.000109805
6.06905e-05
4.18024e-05
3.24078e-05
2.54139e-05
1.83929e-05
0.000112177
6.29922e-05
4.67128e-05
3.88691e-05
3.12417e-05
2.1777e-05
0.000112765
6.76739e-05
5.33978e-05
4.80003e-05
4.04204e-05
2.75959e-05
0.000111102
7.36544e-05
6.05064e-05
5.81051e-05
5.20892e-05
3.61312e-05
0.000106546
7.97479e-05
6.78549e-05
6.7683e-05
6.35388e-05
4.72059e-05
9.90394e-05
8.46186e-05
7.55439e-05
7.64853e-05
7.36059e-05
5.84399e-05
8.97074e-05
8.81701e-05
8.31553e-05
8.45203e-05
8.15942e-05
6.68621e-05
7.96687e-05
9.05835e-05
9.00817e-05
9.13555e-05
8.74897e-05
7.39657e-05
6.93917e-05
9.44771e-05
9.64414e-05
9.77547e-05
9.42529e-05
8.29763e-05
7.32028e-05
0.00010565
8.7568e-05
7.0663e-05
5.59674e-05
4.56692e-05
8.14027e-05
9.22565e-05
6.66878e-05
5.03447e-05
3.92306e-05
3.20454e-05
8.82202e-05
7.63591e-05
5.0481e-05
3.6385e-05
2.80136e-05
2.21633e-05
9.37036e-05
6.44631e-05
4.10816e-05
2.87083e-05
2.15184e-05
1.60857e-05
9.77515e-05
5.70466e-05
3.75404e-05
2.62021e-05
1.90824e-05
1.3521e-05
0.00010041
5.41452e-05
3.85123e-05
2.80037e-05
2.02165e-05
1.37317e-05
0.000102476
5.46461e-05
4.28159e-05
3.3618e-05
2.45854e-05
1.6105e-05
0.000104311
5.74132e-05
4.91504e-05
4.25676e-05
3.22086e-05
2.05691e-05
0.000105708
6.14281e-05
5.60037e-05
5.32775e-05
4.26241e-05
2.74886e-05
0.00010552
6.66181e-05
6.30342e-05
6.31616e-05
5.37496e-05
3.75756e-05
0.00010181
7.25633e-05
7.03448e-05
7.17927e-05
6.3866e-05
4.80284e-05
9.4532e-05
7.74727e-05
7.74043e-05
7.87906e-05
7.11252e-05
5.5327e-05
8.48782e-05
8.04215e-05
8.3458e-05
8.44242e-05
7.64865e-05
6.21379e-05
7.41469e-05
8.25583e-05
8.9112e-05
9.01576e-05
8.2653e-05
7.02492e-05
7.02352e-05
0.00013313
8.53435e-05
6.47558e-05
5.33053e-05
4.61832e-05
8.59535e-05
0.000117713
6.72257e-05
4.95983e-05
4.0776e-05
3.55349e-05
9.66976e-05
0.000102569
5.54717e-05
4.00935e-05
3.27878e-05
2.82984e-05
0.000104065
9.41824e-05
5.07667e-05
3.6211e-05
2.92925e-05
2.48228e-05
0.000108702
9.31457e-05
5.22864e-05
3.75017e-05
2.9769e-05
2.43641e-05
0.000110409
9.75821e-05
5.92183e-05
4.35665e-05
3.37796e-05
2.59631e-05
0.00010883
0.000104097
6.98795e-05
5.33541e-05
4.06949e-05
2.90493e-05
0.000104115
0.000109054
8.08861e-05
6.49878e-05
4.98512e-05
3.35606e-05
9.74884e-05
0.000110282
8.92859e-05
7.57805e-05
5.93657e-05
3.93185e-05
8.98617e-05
0.000111136
9.59397e-05
8.44356e-05
6.68712e-05
4.4325e-05
8.20275e-05
0.000114406
0.000101754
8.99638e-05
7.07281e-05
4.71805e-05
7.46832e-05
0.000123082
0.000105343
9.04656e-05
7.02329e-05
4.79631e-05
6.8135e-05
0.000132726
0.000107321
8.81411e-05
6.83149e-05
4.8979e-05
6.20816e-05
0.000145358
0.000108473
8.47857e-05
6.60242e-05
5.03095e-05
6.88371e-05
0.00011321
8.60444e-05
7.2147e-05
6.13753e-05
5.33751e-05
8.13845e-05
9.90713e-05
6.78925e-05
5.41612e-05
4.53622e-05
3.96133e-05
9.11707e-05
8.48022e-05
5.37538e-05
4.10994e-05
3.41151e-05
2.9613e-05
9.91373e-05
7.5973e-05
4.59786e-05
3.3927e-05
2.78494e-05
2.38017e-05
0.00010576
7.38893e-05
4.46817e-05
3.25899e-05
2.6175e-05
2.17074e-05
0.000110678
7.82619e-05
4.96567e-05
3.69998e-05
2.90319e-05
2.27422e-05
0.000113132
8.7035e-05
6.03575e-05
4.71368e-05
3.6461e-05
2.65912e-05
0.000112424
9.63223e-05
7.43713e-05
6.1799e-05
4.79976e-05
3.2975e-05
0.000108361
0.000102514
8.7955e-05
7.75846e-05
6.15125e-05
4.15229e-05
0.000101609
0.000105661
9.93524e-05
9.17218e-05
7.37749e-05
5.01088e-05
9.34335e-05
0.00010808
0.000108476
0.000101853
8.18162e-05
5.6134e-05
8.46029e-05
0.000113569
0.000114133
0.000104987
8.36985e-05
5.8408e-05
7.57579e-05
0.00011966
0.000114634
0.000102452
8.19082e-05
5.93902e-05
6.71221e-05
0.000126495
0.000111958
9.71021e-05
7.89343e-05
6.06658e-05
6.98786e-05
9.80795e-05
8.47992e-05
7.2284e-05
6.14527e-05
5.33306e-05
7.70847e-05
8.8139e-05
6.66702e-05
5.3666e-05
4.50896e-05
3.94465e-05
8.32904e-05
7.46998e-05
5.12498e-05
3.97078e-05
3.32025e-05
2.89398e-05
8.92321e-05
6.50232e-05
4.18296e-05
3.1235e-05
2.57134e-05
2.20328e-05
9.48161e-05
5.92805e-05
3.84024e-05
2.81274e-05
2.2513e-05
1.87198e-05
0.000100026
5.86758e-05
4.03628e-05
3.02341e-05
2.36553e-05
1.88483e-05
0.000105137
6.34807e-05
4.75148e-05
3.79193e-05
2.94978e-05
2.21e-05
0.000109537
7.28692e-05
5.91257e-05
5.07428e-05
3.99173e-05
2.83636e-05
0.000111686
8.39606e-05
7.36157e-05
6.63588e-05
5.31193e-05
3.73365e-05
0.000109925
9.51163e-05
8.91825e-05
8.22511e-05
6.63577e-05
4.68278e-05
0.000104438
0.000104245
0.000103041
9.50709e-05
7.6479e-05
5.45193e-05
9.61951e-05
0.000109469
0.000111097
0.000101358
8.11554e-05
5.85272e-05
8.59054e-05
0.000109232
0.000111936
0.000100814
8.10075e-05
6.0325e-05
7.44534e-05
0.000107781
0.000107614
9.60477e-05
7.91759e-05
6.20579e-05
2.90888e-05
2.61205e-05
2.38258e-05
2.19007e-05
1.94265e-05
1.65826e-05
1.38153e-05
1.14483e-05
1.00205e-05
9.96883e-06
1.23694e-05
1.7652e-05
2.54629e-05
3.59382e-05
1.86089e-05
1.51075e-05
1.29733e-05
1.15864e-05
1.04423e-05
9.08101e-06
7.71598e-06
6.45862e-06
5.62051e-06
6.02094e-06
8.56753e-06
1.41901e-05
2.27763e-05
3.41172e-05
1.08917e-05
7.34877e-06
5.60143e-06
4.6945e-06
4.26816e-06
3.80816e-06
3.33209e-06
2.88639e-06
2.76679e-06
3.61519e-06
6.52035e-06
1.23949e-05
2.13817e-05
3.29883e-05
6.40325e-06
3.30873e-06
1.95076e-06
1.40136e-06
1.23378e-06
1.13247e-06
1.06005e-06
1.04987e-06
1.33324e-06
2.43908e-06
5.31803e-06
1.09944e-05
1.96851e-05
3.05722e-05
4.82841e-06
1.97096e-06
7.64798e-07
3.61557e-07
2.55491e-07
2.34777e-07
2.62403e-07
3.83211e-07
7.98006e-07
2.00642e-06
4.87428e-06
1.02282e-05
1.80392e-05
2.74011e-05
4.82248e-06
1.78375e-06
5.54065e-07
1.72574e-07
6.48654e-08
4.77912e-08
8.3822e-08
2.26459e-07
6.79798e-07
1.91116e-06
4.63024e-06
9.38635e-06
1.59685e-05
2.3454e-05
5.49901e-06
1.99072e-06
6.21887e-07
1.91262e-07
6.44838e-08
4.18239e-08
8.4885e-08
2.54124e-07
7.53129e-07
1.99155e-06
4.50087e-06
8.58768e-06
1.39391e-05
1.97027e-05
6.79947e-06
2.51026e-06
8.51271e-07
3.14956e-07
1.4029e-07
1.08497e-07
1.70333e-07
3.85532e-07
9.39353e-07
2.16152e-06
4.42363e-06
7.87929e-06
1.21935e-05
1.67786e-05
8.90472e-06
3.36389e-06
1.25721e-06
6.10402e-07
3.71386e-07
3.22408e-07
4.16417e-07
6.95157e-07
1.29469e-06
2.45713e-06
4.46202e-06
7.40515e-06
1.10766e-05
1.52254e-05
1.24989e-05
4.78633e-06
1.97994e-06
1.21649e-06
9.21469e-07
8.6378e-07
1.00791e-06
1.37603e-06
2.04912e-06
3.18505e-06
4.99762e-06
7.66239e-06
1.11488e-05
1.5765e-05
1.69895e-05
7.40634e-06
3.28146e-06
2.38936e-06
2.08023e-06
2.05736e-06
2.29733e-06
2.81227e-06
3.66164e-06
4.96279e-06
6.93858e-06
9.94743e-06
1.38351e-05
1.96755e-05
2.20426e-05
1.2584e-05
6.29904e-06
4.56307e-06
4.2669e-06
4.40051e-06
4.91048e-06
5.78422e-06
7.10588e-06
8.98386e-06
1.15507e-05
1.53582e-05
1.99142e-05
2.59616e-05
2.84056e-05
1.88426e-05
1.11639e-05
8.08451e-06
7.82434e-06
8.20769e-06
9.23197e-06
1.07655e-05
1.28795e-05
1.56374e-05
1.88815e-05
2.31217e-05
2.79819e-05
3.30412e-05
3.40057e-05
2.58581e-05
1.85737e-05
1.40984e-05
1.28937e-05
1.33533e-05
1.47502e-05
1.71392e-05
2.02513e-05
2.40734e-05
2.82008e-05
3.21482e-05
3.65291e-05
4.0828e-05
1.75591e-05
1.53271e-05
1.40364e-05
1.31407e-05
1.22324e-05
1.11364e-05
9.91939e-06
8.66341e-06
7.56597e-06
7.16438e-06
8.25022e-06
1.13311e-05
1.62016e-05
2.24313e-05
1.10118e-05
8.35743e-06
7.08016e-06
6.43538e-06
6.07671e-06
5.64656e-06
5.14779e-06
4.5404e-06
4.01395e-06
3.93832e-06
5.1352e-06
8.34371e-06
1.36689e-05
2.07298e-05
6.45419e-06
3.88849e-06
2.79731e-06
2.38176e-06
2.25145e-06
2.14581e-06
2.03059e-06
1.87055e-06
1.80098e-06
2.14751e-06
3.59069e-06
6.96648e-06
1.26501e-05
2.0119e-05
4.08944e-06
1.83271e-06
9.392e-07
6.62021e-07
5.94177e-07
5.77897e-07
5.82553e-07
6.13149e-07
7.72686e-07
1.33296e-06
2.87477e-06
6.19467e-06
1.17613e-05
1.9109e-05
3.40272e-06
1.24027e-06
4.18724e-07
1.77799e-07
1.17793e-07
1.10798e-07
1.31484e-07
2.02103e-07
4.21583e-07
1.05928e-06
2.67231e-06
5.98222e-06
1.12918e-05
1.80309e-05
3.44738e-06
1.17593e-06
3.46161e-07
1.00627e-07
3.36687e-08
2.27853e-08
4.11847e-08
1.1553e-07
3.55202e-07
1.03841e-06
2.6773e-06
5.83654e-06
1.06544e-05
1.65637e-05
3.82837e-06
1.29973e-06
3.89931e-07
1.11168e-07
3.47563e-08
2.11594e-08
4.26908e-08
1.31599e-07
4.08091e-07
1.14508e-06
2.77862e-06
5.70545e-06
9.93177e-06
1.49755e-05
4.53234e-06
1.58828e-06
5.15498e-07
1.76075e-07
7.42503e-08
5.67459e-08
8.83922e-08
2.04729e-07
5.28814e-07
1.30936e-06
2.88993e-06
5.535e-06
9.18888e-06
1.34565e-05
5.67611e-06
2.0642e-06
7.53112e-07
3.4784e-07
2.0821e-07
1.82215e-07
2.34204e-07
3.93615e-07
7.66392e-07
1.55368e-06
3.02859e-06
5.38427e-06
8.56602e-06
1.22814e-05
7.50296e-06
2.80901e-06
1.21722e-06
7.39649e-07
5.58927e-07
5.23237e-07
6.02642e-07
8.17848e-07
1.24481e-06
2.03399e-06
3.39179e-06
5.50836e-06
8.40694e-06
1.20141e-05
1.01045e-05
4.07814e-06
2.10923e-06
1.56812e-06
1.36688e-06
1.33688e-06
1.46139e-06
1.75672e-06
2.27771e-06
3.13541e-06
4.50982e-06
6.63505e-06
9.55178e-06
1.35626e-05
1.37212e-05
6.98995e-06
3.81015e-06
3.14983e-06
3.00217e-06
3.06614e-06
3.32431e-06
3.79345e-06
4.54198e-06
5.6735e-06
7.33778e-06
9.8456e-06
1.30363e-05
1.76685e-05
1.8705e-05
1.13328e-05
6.92687e-06
5.84542e-06
5.81407e-06
6.13772e-06
6.71278e-06
7.5455e-06
8.72442e-06
1.03373e-05
1.24256e-05
1.53233e-05
1.87236e-05
2.3353e-05
2.36429e-05
1.73743e-05
1.25759e-05
1.03609e-05
1.002e-05
1.05666e-05
1.16377e-05
1.3033e-05
1.47902e-05
1.69205e-05
1.93028e-05
2.20484e-05
2.53445e-05
2.90583e-05
9.08982e-06
7.31825e-06
6.61744e-06
6.28725e-06
6.23945e-06
6.14012e-06
5.95538e-06
5.59324e-06
5.13739e-06
4.74354e-06
4.91611e-06
6.32684e-06
9.0001e-06
1.27768e-05
5.50605e-06
3.66414e-06
2.9445e-06
2.69453e-06
2.68044e-06
2.68697e-06
2.67828e-06
2.57174e-06
2.40527e-06
2.32687e-06
2.72477e-06
4.12696e-06
6.86749e-06
1.09743e-05
3.35877e-06
1.68735e-06
1.06494e-06
8.94361e-07
8.74678e-07
8.89563e-07
9.11204e-07
9.12275e-07
9.30349e-07
1.09011e-06
1.70371e-06
3.21767e-06
6.08052e-06
1.04814e-05
2.46158e-06
9.22964e-07
3.7683e-07
2.37541e-07
2.11003e-07
2.14524e-07
2.30288e-07
2.60473e-07
3.4772e-07
6.00751e-07
1.27296e-06
2.78474e-06
5.6409e-06
1.01192e-05
2.22095e-06
7.20706e-07
2.13577e-07
7.60597e-08
4.27793e-08
3.89943e-08
4.86468e-08
8.07295e-08
1.77709e-07
4.5344e-07
1.16625e-06
2.75072e-06
5.68657e-06
1.01537e-05
2.19527e-06
6.89762e-07
1.96604e-07
5.38963e-08
1.57651e-08
8.78522e-09
1.58926e-08
4.71235e-08
1.49979e-07
4.51562e-07
1.21893e-06
2.86154e-06
5.76842e-06
1.00266e-05
2.295e-06
7.38428e-07
2.16449e-07
5.82379e-08
1.6898e-08
9.17391e-09
1.74143e-08
5.46763e-08
1.7677e-07
5.22928e-07
1.35751e-06
3.03885e-06
5.85311e-06
9.79467e-06
2.58722e-06
8.77594e-07
2.72757e-07
8.63058e-08
3.51163e-08
2.64056e-08
3.89785e-08
8.88587e-08
2.39052e-07
6.33769e-07
1.52097e-06
3.19879e-06
5.86404e-06
9.45959e-06
3.1053e-06
1.10532e-06
3.90522e-07
1.71372e-07
1.02123e-07
9.0567e-08
1.12114e-07
1.82932e-07
3.67223e-07
8.02921e-07
1.71466e-06
3.34936e-06
5.84721e-06
9.14153e-06
3.91156e-06
1.45684e-06
6.54615e-07
3.91847e-07
2.95383e-07
2.7571e-07
3.09797e-07
4.11352e-07
6.35507e-07
1.10382e-06
2.00445e-06
3.5556e-06
5.8928e-06
8.96952e-06
4.991e-06
2.09437e-06
1.22422e-06
9.1494e-07
7.85189e-07
7.50694e-07
7.97562e-07
9.41079e-07
1.22216e-06
1.73714e-06
2.64514e-06
4.15572e-06
6.38553e-06
9.36396e-06
7.12814e-06
3.43264e-06
2.35762e-06
2.02416e-06
1.87918e-06
1.8473e-06
1.91985e-06
2.1218e-06
2.49395e-06
3.11309e-06
4.09797e-06
5.66169e-06
7.86073e-06
1.09145e-05
1.03658e-05
5.92814e-06
4.40005e-06
4.04808e-06
3.98004e-06
4.03542e-06
4.20699e-06
4.52164e-06
5.039e-06
5.85247e-06
7.03347e-06
8.79624e-06
1.10377e-05
1.43128e-05
1.45641e-05
1.04733e-05
8.02771e-06
7.3375e-06
7.36898e-06
7.68787e-06
8.13926e-06
8.71205e-06
9.46477e-06
1.04746e-05
1.1752e-05
1.35961e-05
1.58561e-05
1.90911e-05
4.29358e-06
3.06133e-06
2.61733e-06
2.46179e-06
2.54501e-06
2.67879e-06
2.84538e-06
2.94414e-06
2.94108e-06
2.84574e-06
2.83665e-06
3.29406e-06
4.56055e-06
6.67651e-06
2.63862e-06
1.45342e-06
1.03356e-06
9.13604e-07
9.26402e-07
9.76333e-07
1.04765e-06
1.10423e-06
1.13948e-06
1.16466e-06
1.3259e-06
1.894e-06
3.16168e-06
5.25955e-06
1.80027e-06
7.10811e-07
3.48836e-07
2.64341e-07
2.5553e-07
2.67086e-07
2.88107e-07
3.1186e-07
3.51317e-07
4.44297e-07
7.08282e-07
1.33886e-06
2.59088e-06
4.73334e-06
1.51242e-06
4.70972e-07
1.43119e-07
6.80744e-08
5.33429e-08
5.32529e-08
5.91423e-08
7.26773e-08
1.10548e-07
2.14824e-07
4.79946e-07
1.08041e-06
2.29972e-06
4.50446e-06
1.38226e-06
4.02536e-07
1.06686e-07
3.06925e-08
1.19351e-08
8.5255e-09
1.08765e-08
2.12698e-08
5.49426e-08
1.53474e-07
4.14791e-07
1.03585e-06
2.33831e-06
4.70505e-06
1.29854e-06
3.82228e-07
1.05664e-07
2.71136e-08
6.75781e-09
2.4787e-09
4.01113e-09
1.3383e-08
4.65266e-08
1.49924e-07
4.34773e-07
1.1186e-06
2.52996e-06
5.0235e-06
1.29214e-06
4.0274e-07
1.14122e-07
2.86832e-08
7.60883e-09
3.39692e-09
5.24654e-09
1.6169e-08
5.54095e-08
1.78212e-07
5.11663e-07
1.28679e-06
2.8195e-06
5.40407e-06
1.42299e-06
4.70602e-07
1.3747e-07
4.02593e-08
1.5759e-08
1.14126e-08
1.47202e-08
3.0003e-08
8.11819e-08
2.32841e-07
6.25337e-07
1.49288e-06
3.12113e-06
5.72461e-06
1.67964e-06
5.77219e-07
1.91137e-07
7.91051e-08
4.68876e-08
4.18839e-08
4.87148e-08
7.25095e-08
1.42075e-07
3.30827e-07
7.86469e-07
1.73746e-06
3.42714e-06
5.99176e-06
2.04977e-06
7.49151e-07
3.3249e-07
1.94397e-07
1.44995e-07
1.3531e-07
1.47915e-07
1.87489e-07
2.84408e-07
5.15651e-07
1.02813e-06
2.02769e-06
3.7187e-06
6.20273e-06
2.52355e-06
1.11989e-06
6.79997e-07
5.02367e-07
4.19377e-07
3.9183e-07
4.0709e-07
4.71057e-07
6.08944e-07
8.87764e-07
1.44033e-06
2.45953e-06
4.123e-06
6.49921e-06
3.48366e-06
1.92949e-06
1.4435e-06
1.22549e-06
1.09186e-06
1.02771e-06
1.03066e-06
1.1156e-06
1.30506e-06
1.6479e-06
2.24014e-06
3.2538e-06
4.84738e-06
7.11772e-06
5.29874e-06
3.45804e-06
2.89189e-06
2.67201e-06
2.51328e-06
2.42125e-06
2.39794e-06
2.48083e-06
2.71068e-06
3.1381e-06
3.82205e-06
4.89461e-06
6.42608e-06
8.64749e-06
8.52686e-06
6.28046e-06
5.35532e-06
5.12554e-06
5.07124e-06
5.05163e-06
5.06005e-06
5.14399e-06
5.36449e-06
5.82544e-06
6.58163e-06
7.78236e-06
9.31836e-06
1.16011e-05
2.07744e-06
1.2541e-06
9.65137e-07
8.66046e-07
8.95749e-07
9.88303e-07
1.13698e-06
1.30485e-06
1.45369e-06
1.52319e-06
1.54633e-06
1.66515e-06
2.22393e-06
3.43965e-06
1.34458e-06
5.79097e-07
3.33222e-07
2.73012e-07
2.74503e-07
3.00981e-07
3.48936e-07
4.09287e-07
4.73505e-07
5.24149e-07
6.01408e-07
8.25058e-07
1.41155e-06
2.53398e-06
1.01347e-06
3.13506e-07
1.06902e-07
6.6533e-08
6.24478e-08
6.78817e-08
7.93252e-08
9.54481e-08
1.19234e-07
1.61325e-07
2.64813e-07
5.18673e-07
1.06613e-06
2.08547e-06
8.87301e-07
2.36735e-07
5.52133e-08
1.81106e-08
1.13017e-08
1.10674e-08
1.331e-08
1.84005e-08
3.14505e-08
6.72509e-08
1.61514e-07
3.86702e-07
8.77354e-07
1.85968e-06
7.87635e-07
2.08252e-07
5.05086e-08
1.23876e-08
3.41843e-09
1.65784e-09
2.13956e-09
5.00084e-09
1.4792e-08
4.50628e-08