/*--------------------------------*- C++ -*----------------------------------*\
| =========                 |                                                 |
| \\      /  F ield         | OpenFOAM: The Open Source CFD Toolbox           |
|  \\    /   O peration     | Version:  v2106                                 |
|   \\  /    A nd           | Website:  www.openfoam.com                      |
|    \\/     M anipulation  |                                                 |
\*---------------------------------------------------------------------------*/
FoamFile
{
    version     2.0;
    format      ascii;
    arch        "LSB;label=32;scalar=64";
    class       volScalarField;
    location    "0.000168";
    object      p;
}
// * * * * * * * * * * * * * * * * * * * * * * * * * * * * * * * * * * * * * //

dimensions      [1 -1 -2 0 0 0 0];

internalField   nonuniform List<scalar> 
144746
(
200343
200024
199313
198863
198364
197875
197511
197334
197313
197385
197472
197593
197848
198533
199520
199529
198999
198637
198291
197970
197651
197444
197302
197287
197293
197431
197841
198140
199167
199069
198815
198550
198288
198014
197705
197454
197280
197142
197057
197029
197107
197310
198824
198724
198592
198427
198248
198009
197758
197448
197215
196983
196795
196674
196689
196852
198411
198382
198353
198276
198160
197961
197681
197368
197069
196781
196526
196311
196229
196279
197992
198031
198047
198038
197971
197812
197567
197222
196889
196574
196266
196006
195831
195770
197655
197733
197822
197807
197766
197599
197351
197014
196691
196352
196018
195731
195522
195462
197399
197460
197547
197487
197462
197316
197067
196751
196451
196106
195805
195546
195386
195368
197284
197258
197289
197208
197146
196961
196745
196445
196193
195850
195573
195345
195261
195394
197294
197093
197031
196911
196795
196568
196374
196061
195801
195492
195266
195135
195190
195428
197363
197063
196860
196658
196441
196126
195915
195582
195306
195047
194926
194894
195046
195364
197520
197086
196773
196482
196105
195693
195406
195051
194806
194614
194652
194790
195246
195572
198120
197498
196878
196402
195898
195429
195005
194579
194357
194270
194488
194778
195500
195740
198523
197565
197009
196513
195914
195322
194746
194313
194198
194277
194641
195051
196032
196396
199400
199053
198524
198242
197924
197671
197548
197557
197680
197716
197663
197397
197219
197214
199098
199131
198695
198417
198172
197998
197820
197751
197727
197690
197605
197418
197315
196980
199109
199031
198853
198634
198449
198271
198055
197915
197811
197685
197489
197186
196778
196399
199107
198985
198912
198753
198625
198415
198245
198025
197872
197632
197344
196964
196503
196137
198963
198897
198887
198799
198720
198572
198352
198123
197883
197581
197231
196796
196286
195875
198770
198795
198805
198765
198712
198604
198398
198148
197859
197549
197176
196714
196202
195774
198611
198650
198719
198688
198675
198566
198360
198117
197833
197493
197111
196672
196214
195817
198493
198571
198690
198644
198614
198480
198291
198014
197737
197435
197101
196731
196356
196037
198455
198521
198607
198546
198500
198346
198180
197929
197667
197362
197068
196768
196493
196316
198480
198452
198529
198485
198394
198207
198035
197770
197513
197233
196979
196751
196585
196494
198589
198459
198480
198411
198289
198065
197868
197567
197288
197005
196770
196579
196518
196522
198786
198507
198450
198325
198123
197844
197572
197235
196961
196717
196612
196566
196783
196781
199317
198786
198521
198254
197977
197622
197240
196811
196524
196339
196369
196405
196839
196856
199610
198834
198582
198256
197892
197419
196894
196415
196173
196118
196330
196493
197216
197214
199915
199543
198893
198518
198202
198049
198055
198250
198503
198629
198516
198051
197442
196749
200349
200161
199574
199145
198905
198777
198674
198813
198904
198844
198628
198096
197526
196603
200775
200489
200106
199648
199409
199244
199268
199118
199145
198910
198505
197810
196928
195885
201005
200681
200442
200077
199870
199683
199530
199395
199229
198869
198325
197532
196542
195469
200931
200689
200531
200243
200050
199836
199715
199513
199245
198808
198182
197356
196287
195161
200654
200550
200482
200320
200150
199930
199768
199531
199226
198772
198090
197270
196159
195014
200240
200358
200315
200269
200107
199918
199715
199410
199018
198568
198006
197218
196212
195155
199951
200200
200220
200177
200032
199792
199549
199265
198916
198509
197952
197285
196480
195581
199829
200058
200138
200124
199950
199669
199373
199056
198731
198375
197951
197415
196748
196049
199775
199920
200074
200048
199814
199461
199089
198763
198449
198129
197797
197433
196990
196455
199847
199896
200060
199970
199635
199141
198690
198329
197991
197717
197483
197251
197019
196618
200022
199917
200052
199793
199351
198777
198201
197783
197413
197153
196990
196875
196891
196574
200496
200166
200071
199661
199072
198305
197637
197094
196671
196372
196274
196218
196555
196353
200708
200008
199870
199404
198668
197783
196986
196299
195886
195700
195758
195772
196486
196396
199503
200585
200924
201803
202137
202868
198256
199391
199986
201233
201728
202781
197771
198910
199536
201009
201537
203110
197062
198070
198812
200466
201205
203224
196501
197595
198395
200204
201050
203134
195812
196788
197734
199735
200828
203315
195634
196583
197566
199557
200708
203013
195536
196459
197639
199604
200811
202851
195704
196617
197840
199682
200971
202745
195902
196830
198087
199789
201113
202897
196099
197074
198345
199960
201247
202794
196557
197494
198662
200150
201356
202746
197067
197865
198965
200292
201255
202525
197341
198246
199342
200824
201579
202901
197606
198350
198674
199609
200030
201015
196478
197181
197705
199049
199772
201373
196212
196825
197387
198986
199550
201728
195701
196120
196821
198362
199220
201925
195516
195935
196689
198382
198997
202306
195386
195568
196177
197984
198476
203177
195541
195757
196348
198175
198794
202916
195794
196084
196659
198381
199137
202641
196204
196480
197111
198545
199370
202261
196589
196928
197568
198755
199655
201951
196900
197281
197926
199031
199946
201682
197304
197713
198249
199225
200032
201516
197749
198066
198614
199535
200184
201559
197729
198201
198857
200065
200620
202118
196896
196760
196499
195929
195561
194582
195510
195447
195447
195398
195851
195379
195116
194939
194855
195312
195887
197033
194430
193940
193926
195070
196481
199200
194136
193670
193830
195566
197082
201251
193890
193328
193532
195611
197169
202366
194127
193622
193948
196104
197805
202891
194653
194178
194545
196439
198070
202348
195367
195013
195304
196613
197980
201491
196062
195876
196233
197057
197713
199795
196526
196375
196782
197256
197504
198434
196716
196692
196901
197147
197306
197563
196931
196912
197159
197418
197431
197490
196523
196636
196995
197616
197635
197915
197774
199028
199759
200798
201502
202804
195984
197331
198503
200016
201425
202802
195575
197123
198414
200052
201408
203350
194749
196023
197325
199573
201030
203873
194484
195795
196911
199294
200755
204107
194252
195470
196677
199302
200657
204479
194485
195622
196904
199462
200763
205231
194926
196079
197367
199640
200767
206173
195604
196764
198091
200353
201666
204734
196306
197443
198694
200858
202361
204810
196978
198077
199240
201230
202797
204597
197638
198855
199851
201619
202686
204385
198490
199445
200339
201845
202583
204262
198836
199817
200798
202336
202853
204633
198235
198993
199283
200354
200900
202114
196803
197501
198153
199509
200561
202544
196564
197512
198124
199420
200137
202518
195988
196571
197123
198820
199299
202633
195823
196366
196895
198790
198978
202883
195698
195965
196630
198733
198897
203370
196038
196238
196925
198893
199078
203718
196572
196815
197495
199205
199272
204432
197260
197619
198260
199942
200030
203848
197896
198442
199036
200573
200904
204193
198402
199042
199703
201061
201765
203815
198903
199756
200254
201530
202102
203912
199516
200203
200721
201898
202358
204056
199645
200332
200985
202356
202622
204245
197074
197773
197746
198435
198340
199143
195592
196173
196703
197724
198850
200661
195254
195682
196367
197760
199114
202055
194925
194844
195292
197034
198938
203784
194863
194594
195031
196962
198833
204212
195012
194439
194700
196815
198641
204466
195544
195013
195278
197315
199024
204514
196329
195972
196291
198147
199592
204296
197323
197236
197606
199091
200085
204036
198347
198457
198856
199849
200452
203423
199299
199468
199826
200774
201080
202134
199877
200215
200306
200946
200910
201506
200413
200761
200800
201589
201497
201943
199984
200491
200797
201991
202004
202699
204618
203701
202826
201745
201152
200441
204899
203920
202849
201825
200903
200300
205115
203721
202463
201363
200344
199704
205233
203258
202295
200848
199849
199136
205272
202555
201949
200234
199280
198552
206012
202003
201526
199695
198734
198097
205374
201808
201189
199158
198236
197654
205336
201736
200912
198720
197964
197359
205254
201795
200790
198582
197837
197191
205156
202024
200887
198855
198097
197287
205060
202350
201072
199141
198233
197351
204856
202778
201596
200054
198984
197819
205165
202353
201377
200193
199271
198088
204236
202845
202331
201414
200978
199670
203279
202278
201316
200278
199607
199223
203529
202492
201569
200788
200069
199796
203777
202205
201278
200499
199776
199548
203911
201978
201486
200437
199608
199306
204785
201387
201260
199986
199316
199011
205309
200803
200816
199520
199014
198794
205034
200722
200640
199111
198651
198544
205114
200433
200547
198815
198418
198334
204863
200251
200510
198652
198293
198187
204466
200387
200693
198939
198555
198231
204211
200795
200748
199099
198697
198269
203832
201433
201360
200046
199489
198677
203684
201928
201574
200334
199775
198928
204114
202718
202607
201636
201539
200491
199374
199570
199506
199476
199087
199377
200223
200560
200702
201033
200788
201093
202267
202012
201642
201741
201225
201252
204893
203002
202704
202066
201513
201374
207740
203612
202924
201916
201255
201110
209143
204135
203047
201308
200772
200621
210387
204066
202665
200489
200143
200133
210680
203558
201989
199746
199565
199705
210416
203048
201386
199212
199157
199377
209745
203108
201368
199290
199201
199268
208869
203254
201451
199400
199318
199174
207430
203430
202181
200314
199990
199389
205890
203258
202149
200662
200489
199565
204426
202938
202766
202097
202337
201346
202852
202026
201188
200348
199670
199068
203238
202242
201246
200303
199404
198799
203044
201853
200786
199800
198827
198308
203056
201581
200566
199423
198470
197954
202804
201122
200196
198914
198090
197600
203064
201020
200084
198547
197805
197361
203506
200900
199986
198304
197628
197254
203869
201099
200222
198498
197865
197411
205145
201310
200362
198693
198192
197733
205421
201181
200869
199423
199065
198412
204810
201787
201594
200122
199726
199008
204743
202651
202386
201005
200607
199658
204194
203065
202662
201428
200980
200004
204492
203788
203521
202770
202517
201591
200777
199863
198971
198222
197572
197445
201317
200294
199412
198713
198123
198087
201953
200494
199407
198695
197992
197978
202457
200661
199778
198871
198061
197993
203488
200606
199863
198667
197943
197829
204112
200472
199922
198395
197707
197603
204686
200042
199695
197930
197391
197352
204708
199729
199546
197727
197343
197331
203806
199802
199450
197680
197262
197289
203216
199989
199620
198242
197822
197585
203147
200170
199644
198574
198266
197891
203532
200576
200554
199417
199126
198397
203333
201264
200961
199765
199413
198579
203500
202389
201957
201187
200980
200187
194626
195633
195804
196157
196064
196728
195761
196646
197021
197645
197706
198302
197973
198064
198032
198415
198173
198557
200746
199454
199034
198752
198433
198730
203785
200248
199108
198459
198113
198467
205266
200733
199469
198053
197734
198087
206631
200784
199321
197392
197170
197633
207156
200693
199146
197029
196880
197317
207217
200535
198831
196652
196697
197169
206250
200545
199102
197074
197027
197326
204225
200201
198928
197274
197356
197609
202186
199935
199228
198186
198353
198211
200124
199739
199213
198722
198712
198520
199485
199680
199922
200278
200442
200574
201683
200975
200243
199780
199510
199434
199437
199647
200014
200375
200576
200555
200242
199971
201825
201398
200740
200295
200007
199911
199994
200111
200318
200500
200574
200398
199997
199150
201978
201545
201133
200762
200549
200462
200414
200460
200509
200530
200395
199993
199236
198265
201891
201542
201256
200971
200797
200703
200658
200623
200583
200438
200147
199558
198686
197556
201628
201437
201267
201087
200911
200829
200765
200695
200582
200346
199958
199248
198277
197065
201335
201252
201192
201049
200927
200844
200746
200619
200413
200141
199739
198977
198028
196754
201039
201084
201065
200988
200886
200777
200657
200486
200286
199943
199512
198830
197913
196693
200881
200926
200976
200908
200794
200638
200495
200306
200108
199814
199397
198838
197960
196920
200787
200875
200905
200818
200674
200465
200289
200086
199898
199662
199365
198891
198278
197375
200783
200862
200904
200776
200544
200275
200047
199831
199661
199517
199281
198965
198494
197886
200921
200939
200952
200741
200410
200021
199726
199479
199338
199225
199121
198987
198775
198342
201234
201115
201041
200695
200239
199723
199326
198997
198835
198735
198714
198774
198883
198539
201848
201548
201167
200626
200003
199385
198880
198431
198163
198007
197995
198147
198726
198512
202119
201427
201102
200509
199712
198881
198179
197621
197285
197208
197314
197534
198387
198791
203382
202761
202056
201558
201131
200927
200896
201164
201402
201870
202226
202450
202464
202349
203259
202844
202270
201893
201627
201514
201515
201587
201822
202052
202239
202311
202177
201755
203167
202755
202387
202085
201898
201810
201813
201851
201971
202030
202047
201879
201465
200909
202887
202604
202376
202154
202020
201968
201963
201972
201992
201909
201786
201439
200882
200184
202499
202385
202310
202106
202042
201989
201953
201924
201875
201733
201552
201091
200390
199559
202104
202136
202118
202041
201970
201915
201850
201781
201683
201469
201186
200728
199987
199118
201841
201935
201953
201915
201848
201776
201695
201608
201487
201300
200987
200506
199746
198880
201638
201802
201830
201785
201697
201590
201492
201392
201280
201110
200822
200379
199744
198842
201579
201747
201744
201671
201552
201409
201278
201166
201057
200925
200716
200398
199857
199138
201657
201764
201735
201602
201417
201209
201024
200889
200809
200739
200667
200467
200151
199599
201911
201918
201813
201556
201260
200964
200733
200571
200504
200511
200527
200544
200472
200121
202303
202106
201900
201553
201114
200667
200356
200126
200071
200138
200276
200491
200752
200541
202954
202588
202113
201544
200932
200349
199917
199556
199484
199600
199845
200245
200908
200890
203272
202599
202168
201463
200663
199900
199361
198910
198810
199023
199390
199942
200957
201305
204878
204266
203693
203290
202988
202910
202992
203069
203355
203740
204211
204634
205041
205158
204599
204180
203746
203472
203280
203227
203295
203435
203641
203940
204203
204454
204617
204546
204235
203945
203699
203520
203436
203434
203498
203592
203722
203871
203993
204056
203971
203754
203863
203730
203649
203493
203490
203508
203553
203615
203694
203742
203742
203654
203380
202991
203451
203492
203488
203407
203445
203470
203498
203534
203557
203517
203455
203315
202926
202400
203138
203231
203280
203284
203309
203331
203344
203366
203364
203294
203155
202908
202503
201918
202865
203010
203108
203119
203137
203146
203148
203163
203147
203066
202934
202661
202241
201603
202750
202866
202959
202961
202953
202932
202920
202924
202899
202829
202710
202464
202099
201509
202655
202777
202834
202817
202769
202713
202678
202674
202656
202616
202536
202351
202058
201573
202694
202785
202765
202678
202564
202457
202398
202386
202380
202384
202376
202325
202158
201809
202907
202895
202760
202569
202397
202234
202106
202069
202085
202149
202276
202350
202373
202146
203205
203035
202835
202525
202182
201916
201739
201686
201725
201873
202086
202358
202626
202558
203705
203408
202945
202480
202010
201584
201302
201190
201263
201460
201790
202236
202814
202924
203955
203502
202997
202393
201755
201188
200834
200614
200720
200987
201426
202003
202881
203212
205839
205370
205029
204814
204710
204747
204863
205007
205234
205545
205879
206268
206818
207020
205579
205280
205022
204890
204861
204949
205091
205237
205434
205661
205920
206139
206369
206393
205085
205005
204946
204894
204948
205054
205173
205299
205446
205572
205719
205813
205836
205753
204741
204805
204850
204831
204953
205060
205168
205266
205371
205443
205503
205481
205366
205140
204403
204567
204652
204739
204864
204972
205071
205155
205222
205248
205224
205167
204995
204670
204128
204327
204468
204584
204706
204808
204897
204977
205036
205051
205010
204868
204633
204248
203855
204110
204277
204395
204505
204599
204680
204757
204815
204829
204785
204649
204398
203994
203733
203946
204104
204201
204287
204365
204436
204512
204569
204590
204555
204436
204228
203892
203653
203805
203936
204005
204044
204098
204160
204237
204296
204337
204340
204270
204126
203797
203653
203720
203796
203806
203788
203808
203847
203913
203978
204050
204095
204104
204060
203872
203784
203735
203685
203613
203544
203487
203497
203556
203639
203754
203874
204018
204102
203973
203968
203851
203692
203442
203279
203175
203131
203155
203249
203430
203703
203936
204189
204205
204342
204112
203729
203404
203037
202799
202681
202712
202841
203123
203430
203828
204293
204468
204628
204223
203716
203211
202772
202381
202175
202183
202360
202707
203147
203709
204366
204698
206773
206478
206346
206284
206324
206496
206721
206937
207165
207423
207749
208078
208529
208790
206524
206388
206326
206327
206432
206647
206846
207062
207297
207509
207727
207929
208134
208204
206099
206178
206265
206318
206520
206727
206920
207102
207277
207409
207533
207640
207734
207725
205863
206020
206140
206319
206530
206726
206905
207062
207203
207296
207377
207382
207347
207211
205613
205836
206008
206234
206453
206648
206814
206957
207067
207128
207147
207079
206996
206824
205345
205639
205861
206090
206307
206492
206650
206783
206883
206932
206934
206855
206691
206431
205149
205439
205693
205902
206107
206280
206431
206563
206663
206715
206710
206645
206505
206238
205007
205257
205503
205682
205864
206021
206167
206301
206406
206474
206484
206450
206356
206147
204892
205091
205303
205438
205586
205725
205862
205998
206110
206196
206251
206276
206240
206090
204807
204951
205105
205180
205278
205384
205506
205645
205772
205892
206003
206086
206130
206011
204829
204848
204895
204926
204951
205019
205108
205246
205397
205556
205734
205901
206064
206039
204922
204914
204787
204682
204645
204645
204701
204838
205008
205212
205456
205770
206016
206102
205139
204990
204735
204516
204333
204268
204288
204400
204578
204853
205225
205565
205946
206195
205379
205084
204653
204284
203991
203803
203831
203977
204215
204581
204984
205453
205907
206219
207760
207628
207657
207729
207855
208137
208410
208691
208991
209249
209520
209809
210142
210366
207565
207565
207637
207760
207952
208260
208529
208808
209075
209297
209531
209673
209832
209869
207263
207408
207600
207770
208056
208348
208610
208864
209082
209241
209374
209440
209521
209475
207115
207310
207534
207780
208082
208364
208616
208842
209024
209157
209242
209245
209188
209037
206896
207179
207441
207737
208039
208316
208555
208760
208908
209009
209034
208979
208873
208706
206689
207012
207322
207621
207920
208190
208420
208612
208747
208834
208845
208779
208625
208398
206482
206825
207159
207449
207736
207995
208217
208404
208537
208624
208635
208576
208447
208234
206284
206620
206951
207216
207482
207727
207944
208131
208272
208374
208411
208396
208311
208147
206116
206408
206703
206939
207173
207400
207610
207798
207955
208079
208168
208215
208232
208147
205953
206203
206434
206615
206807
207013
207216
207410
207590
207747
207894
208020
208128
208095
205864
205984
206160
206284
206430
206596
206786
206988
207200
207398
207608
207792
208010
208086
205885
205966
205932
205972
206045
206174
206344
206553
206791
207027
207301
207566
207892
208037
205980
205953
205853
205742
205724
205784
205907
206114
206371
206648
206998
207321
207664
207976
206173
206012
205651
205475
205349
205346
205492
205710
205982
206316
206684
207073
207422
207829
209163
209179
209285
209429
209619
209916
210236
210543
210845
211112
211395
211675
211976
212203
208994
209098
209257
209449
209717
210048
210369
210680
210965
211201
211418
211565
211712
211794
208769
208985
209240
209498
209829
210161
210470
210757
210994
211170
211290
211361
211436
211426
208622
208902
209199
209525
209871
210211
210513
210778
210979
211121
211191
211205
211155
211034
208426
208786
209123
209488
209846
210189
210484
210730
210901
211008
211029
210976
210860
210703
208209
208614
208994
209370
209738
210080
210370
210608
210769
210865
210875
210805
210656
210447
207996
208414
208814
209184
209550
209885
210172
210407
210569
210671
210686
210623
210490
210287
207771
208173
208569
208923
209276
209601
209888
210128
210303
210429
210479
210457
210370
210196
207547
207907
208271
208597
208925
209238
209525
209774
209974
210132
210241
210295
210287
210198
207314
207640
207946
208226
208526
208819
209104
209364
209592
209788
209959
210095
210207
210226
207127
207354
207615
207854
208110
208379
208663
208932
209188
209424
209661
209860
210086
210203
207091
207259
207365
207512
207711
207952
208220
208490
208769
209036
209323
209589
209906
210171
207107
207198
207207
207257
207365
207541
207781
208050
208340
208640
208960
209330
209669
210040
207251
207201
207057
207048
207056
207172
207360
207611
207909
208242
208616
209013
209352
209853
210743
210841
211018
211200
211443
211736
212072
212396
212727
213003
213275
213555
213840
214088
210600
210781
211004
211239
211534
211874
212222
212547
212847
213102
213331
213503
213640
213743
210423
210704
211003
211312
211650
212006
212342
212648
212905
213100
213235
213325
213410
213447
210276
210627
210965
211339
211706
212081
212412
212701
212923
213082
213165
213204
213173
213095
210086
210512
210888
211299
211688
212073
212405
212683
212876
212995
213031
213008
212924
212791
209878
210345
210761
211189
211591
211979
212310
212582
212769
212880
212906
212858
212732
212546
209654
210128
210569
211001
211408
211796
212129
212402
212592
212709
212740
212689
212564
212385
209404
209862
210309
210728
211133
211518
211856
212139
212349
212492
212557
212541
212451
212297
209144
209561
209988
210388
210782
211165
211509
211806
212045
212223
212342
212391
212384
212281
208872
209251
209632
209999
210375
210751
211103
211420
211693
211917
212095
212236
212326
212318
208629
208928
209274
209604
209958
210322
210678
211008
211308
211577
211827
212046
212264
212359
208532
208776
208989
209258
209572
209910
210253
210587
210907
211210
211515
211788
212111
212351
208472
208673
208796
208975
209220
209508
209831
210162
210484
210813
211140
211527
211884
212255
208562
208629
208666
208771
208922
209143
209415
209709
210028
210370
210743
211155
211511
212048
212482
212662
212911
213154
213463
213790
214131
214450
214756
215025
215267
215518
215792
216050
212358
212628
212907
213206
213549
213914
214269
214597
214891
215140
215356
215542
215662
215785
212227
212580
212922
213292
213659
214043
214391
214707
214966
215170
215315
215420
215491
215569
212110
212529
212909
213329
213725
214125
214473
214779
215013
215184
215283
215339
215347
215300
211941
212424
212843
213294
213720
214132
214485
214785
214998
215133
215185
215186
215146
215060
211764
212272
212729
213194
213637
214054
214411
214710
214919
215045
215089
215068
214993
214849
211555
212062
212544
213017
213472
213895
214259
214560
214772
214898
214945
214917
214827
214671
211313
211804
212293
212762
213220
213646
214019
214329
214557
214706
214777
214772
214704
214562
211038
211498
211979
212440
212894
213323
213703
214028
214281
214466
214580
214628
214616
214513
210743
211179
211629
212071
212516
212942
213330
213673
213958
214187
214357
214483
214551
214521
210453
210844
211273
211696
212131
212549
212940
213296
213609
213880
214119
214317
214500
214563
210321
210657
210992
211372
211767
212161
212543
212904
213238
213547
213843
214100
214391
214591
210217
210516
210775
211078
211424
211788
212147
212497
212833
213173
213510
213854
214218
214564
210238
210447
210633
210863
211126
211416
211723
212037
212363
212725
213098
213523
213890
214399
202869
203457
203641
204306
205461
207129
200005
200260
200646
201523
202701
204152
199460
199610
199585
200037
200521
200782
198701
198365
198092
198378
198768
198640
198348
197765
197403
197625
198234
197884
198203
197306
196550
196724
197594
197979
198470
197586
196875
197272
198590
199320
199014
198250
197708
198203
200221
201069
199692
199209
199165
199813
202115
203071
200398
200077
200458
201419
203874
205174
200837
200732
201541
202582
205244
206833
201075
201142
202093
203012
205547
207820
201086
201105
202061
203039
205539
208222
199666
199960
201219
202860
205555
208267
204820
205605
205747
206022
206489
207507
202238
202564
202821
203395
204034
204810
201642
201788
201613
201809
201825
202167
200974
200564
200047
199855
199629
200017
200453
199681
199014
198685
198576
199228
200166
199066
198106
197437
197520
198761
200162
199026
198111
197455
197909
199460
200432
199538
198799
198278
199017
200612
201065
200456
200097
200009
201051
202558
201775
201500
201533
201907
203152
204722
202526
202455
202914
203642
205047
206859
203038
203174
203965
204799
206529
208325
203528
203478
204329
205205
206989
208859
201955
202203
203336
204824
206757
208683
206137
207208
207803
208319
208624
209290
203956
204327
204852
205571
206105
206702
203357
203520
203631
203575
203493
203665
202745
202611
202136
201620
201236
201028
202298
201987
201093
200515
199987
199761
202124
201670
200429
199644
198808
198813
202180
201591
200297
199534
198839
199430
202562
201783
200885
200234
199782
200628
203104
202497
202118
201733
201905
202892
203830
203511
203596
203609
204389
205486
204559
204635
205119
205567
206757
208053
205201
205586
206386
207241
208647
210023
206050
206409
207279
208302
209683
211203
205027
205390
206338
207906
209641
211205
206629
207421
207948
208450
208873
209559
205257
205619
206016
206513
207176
207996
204867
204979
205031
205257
205419
205516
204493
204277
203973
203862
203298
203122
204260
203779
203346
202761
202085
201613
204241
203530
203061
201947
201125
200512
204402
203562
203019
201704
200996
200527
204648
203844
203228
202171
201552
201225
205044
204427
204016
203435
203050
203056
205563
205246
205233
205085
205171
205531
206150
206189
206563
206793
207325
208230
206706
207089
207782
208348
209267
210271
207539
208027
208791
209589
210636
211747
207068
207529
208199
209317
210518
211843
207358
207987
208436
208936
209426
210020
206504
206847
207229
207690
208147
208696
206317
206469
206583
206676
206749
206924
206113
206023
205823
205594
205288
204879
206043
205729
205252
204842
204156
203809
206146
205661
204965
204541
203607
202992
206376
205847
205153
204572
203507
202987
206631
206124
205566
204809
204046
203589
206975
206592
206203
205638
205191
204886
207455
207213
207078
206935
206776
206777
207931
207952
208152
208289
208585
209042
208405
208683
209185
209639
210216
211089
209043
209467
210134
210791
211662
212559
208921
209429
210037
210891
211864
212953
208207
208684
209067
209605
210085
210641
207655
207944
208249
208759
209217
209785
207629
207759
207900
208131
208281
208547
207571
207502
207419
207282
207104
206650
207650
207413
207088
206695
206224
205481
207861
207483
206928
206363
205749
205087
208155
207722
207114
206615
205729
205097
208469
208080
207493
207035
206130
205652
208795
208511
208087
207705
207169
206864
209211
209090
208822
208660
208452
208336
209636
209642
209647
209802
209898
210094
210004
210228
210512
210934
211351
211853
210492
210855
211342
211941
212595
213449
210526
211014
211583
212290
213144
214041
209551
209897
210177
210579
210967
211436
209193
209393
209650
210021
210458
210930
209257
209359
209482
209639
209813
210047
209286
209203
209154
209116
209021
208876
209432
209234
208994
208651
208305
207698
209656
209349
208945
208363
207936
207126
209977
209627
209098
208517
208061
207045
210315
210031
209563
209004
208407
207657
210704
210420
210046
209678
209177
208744
211090
210935
210756
210504
210291
210143
211482
211464
211469
211471
211554
211633
211815
211966
212200
212480
212792
213127
212199
212524
212922
213383
213896
214435
212366
212783
213284
213870
214538
215314
211019
211241
211443
211786
212152
212619
210828
210937
211078
211467
211798
212320
210970
211018
211080
211278
211346
211603
211047
210935
210879
210909
210838
210939
211249
211055
210863
210624
210253
209951
211480
211189
210884
210453
210028
209493
211825
211493
211111
210542
210129
209380
212172
211898
211543
211037
210489
209651
212563
212366
211985
211606
211112
210494
212958
212840
212599
212351
212037
211729
213364
213320
213261
213183
213177
213177
213674
213773
213931
214084
214362
214610
213995
214257
214558
214899
215299
215699
214226
214596
214972
215448
216003
216620
212697
212856
213019
213319
213643
214098
212644
212707
212819
213170
213468
213964
212851
212858
212918
213144
213266
213573
213016
212895
212850
212892
212839
212947
213269
213071
212938
212792
212424
212160
213556
213287
213023
212704
212219
211913
213901
213614
213278
212831
212359
211915
214247
213994
213712
213231
212723
212195
214611
214396
214141
213690
213257
212716
214950
214826
214605
214323
214054
213594
215310
215277
215185
215028
214903
214783
215615
215650
215737
215781
215931
216101
215866
216055
216280
216530
216853
217196
216126
216440
216700
217084
217511
217972
201197
201596
202021
203078
204996
207572
198045
198536
199271
200480
202580
205532
197441
197492
197894
198839
200412
202210
196363
195828
195803
196722
198081
199553
195742
194914
194722
195571
196961
198156
195273
194046
193607
194573
196322
198063
195264
194011
193696
194837