/*--------------------------------*- C++ -*----------------------------------*\
| =========                 |                                                 |
| \\      /  F ield         | OpenFOAM: The Open Source CFD Toolbox           |
|  \\    /   O peration     | Version:  v2106                                 |
|   \\  /    A nd           | Website:  www.openfoam.com                      |
|    \\/     M anipulation  |                                                 |
\*---------------------------------------------------------------------------*/
FoamFile
{
    version     2.0;
    format      ascii;
    arch        "LSB;label=32;scalar=64";
    class       volScalarField;
    location    "0.000187";
    object      epsilon;
}
// * * * * * * * * * * * * * * * * * * * * * * * * * * * * * * * * * * * * * //

dimensions      [0 2 -3 0 0 0 0];

internalField   nonuniform List<scalar> 
17924
(
1.40472e-08
1.3968e-08
1.39559e-08
1.39565e-08
1.39286e-08
1.3926e-08
1.39286e-08
1.39317e-08
1.39348e-08
1.39379e-08
1.39408e-08
1.3936e-08
1.39304e-08
1.3932e-08
1.39348e-08
1.39378e-08
1.39407e-08
1.39436e-08
1.39522e-08
1.39373e-08
1.39364e-08
1.39386e-08
1.39414e-08
1.39443e-08
1.39472e-08
1.39741e-08
1.39451e-08
1.39406e-08
1.39422e-08
1.39449e-08
1.39479e-08
1.39508e-08
1.39986e-08
1.39532e-08
1.39449e-08
1.39457e-08
1.39484e-08
1.39513e-08
1.39542e-08
1.40219e-08
1.39605e-08
1.39489e-08
1.39491e-08
1.39516e-08
1.39546e-08
1.39574e-08
1.40443e-08
1.3967e-08
1.39526e-08
1.39524e-08
1.39547e-08
1.39576e-08
1.39604e-08
1.40667e-08
1.3973e-08
1.39559e-08
1.39553e-08
1.39576e-08
1.39604e-08
1.39631e-08
1.40876e-08
1.39783e-08
1.3959e-08
1.3958e-08
1.39601e-08
1.39628e-08
1.39655e-08
1.41072e-08
1.39832e-08
1.39617e-08
1.39604e-08
1.39624e-08
1.3965e-08
1.39677e-08
1.41224e-08
1.39873e-08
1.39643e-08
1.39627e-08
1.39647e-08
1.39673e-08
1.397e-08
1.41354e-08
1.39917e-08
1.39671e-08
1.39655e-08
1.3968e-08
1.39714e-08
1.39747e-08
1.41624e-08
1.40032e-08
1.39737e-08
1.39726e-08
1.39782e-08
1.39855e-08
1.39918e-08
1.42866e-08
1.40492e-08
1.39976e-08
1.39994e-08
1.40194e-08
1.40445e-08
1.4064e-08
1.38916e-08
1.38944e-08
1.38977e-08
1.39006e-08
1.39034e-08
1.39062e-08
1.39091e-08
1.3912e-08
1.39147e-08
1.39175e-08
1.39202e-08
1.39227e-08
1.39248e-08
1.39263e-08
1.38972e-08
1.38991e-08
1.39019e-08
1.39045e-08
1.39073e-08
1.391e-08
1.39129e-08
1.39158e-08
1.39186e-08
1.39215e-08
1.39244e-08
1.39271e-08
1.39294e-08
1.39318e-08
1.39035e-08
1.39041e-08
1.39064e-08
1.39088e-08
1.39114e-08
1.39141e-08
1.39169e-08
1.39198e-08
1.39226e-08
1.39255e-08
1.39284e-08
1.39312e-08
1.39337e-08
1.39364e-08
1.39096e-08
1.39087e-08
1.39105e-08
1.39128e-08
1.39154e-08
1.39181e-08
1.39209e-08
1.39237e-08
1.39266e-08
1.39295e-08
1.39324e-08
1.39351e-08
1.39378e-08
1.39405e-08
1.39156e-08
1.39132e-08
1.39145e-08
1.39168e-08
1.39193e-08
1.3922e-08
1.39248e-08
1.39276e-08
1.39305e-08
1.39334e-08
1.39363e-08
1.39391e-08
1.39418e-08
1.39444e-08
1.39214e-08
1.39177e-08
1.39186e-08
1.39207e-08
1.39232e-08
1.39259e-08
1.39286e-08
1.39315e-08
1.39344e-08
1.39374e-08
1.39403e-08
1.39432e-08
1.39459e-08
1.39485e-08
1.3927e-08
1.3922e-08
1.39226e-08
1.39246e-08
1.3927e-08
1.39297e-08
1.39324e-08
1.39354e-08
1.39383e-08
1.39413e-08
1.39444e-08
1.39473e-08
1.39501e-08
1.39529e-08
1.39324e-08
1.39261e-08
1.39264e-08
1.39284e-08
1.39307e-08
1.39334e-08
1.39362e-08
1.39392e-08
1.39422e-08
1.39453e-08
1.39484e-08
1.39515e-08
1.39545e-08
1.39574e-08
1.39375e-08
1.39299e-08
1.393e-08
1.3932e-08
1.39344e-08
1.39371e-08
1.39399e-08
1.3943e-08
1.39461e-08
1.39493e-08
1.39525e-08
1.39558e-08
1.39589e-08
1.3962e-08
1.39423e-08
1.39336e-08
1.39336e-08
1.39356e-08
1.3938e-08
1.39407e-08
1.39436e-08
1.39468e-08
1.395e-08
1.39533e-08
1.39567e-08
1.39602e-08
1.39635e-08
1.39667e-08
1.39466e-08
1.39371e-08
1.3937e-08
1.3939e-08
1.39414e-08
1.39443e-08
1.39473e-08
1.39506e-08
1.39539e-08
1.39574e-08
1.3961e-08
1.39648e-08
1.39684e-08
1.39718e-08
1.395e-08
1.39403e-08
1.39402e-08
1.39423e-08
1.39449e-08
1.39478e-08
1.39511e-08
1.39545e-08
1.3958e-08
1.39617e-08
1.39655e-08
1.39695e-08
1.3973e-08
1.39765e-08
1.39534e-08
1.39431e-08
1.39432e-08
1.39455e-08
1.39485e-08
1.39519e-08
1.39555e-08
1.39592e-08
1.39629e-08
1.39667e-08
1.39706e-08
1.39745e-08
1.39775e-08
1.39805e-08
1.39618e-08
1.39475e-08
1.39468e-08
1.39498e-08
1.39542e-08
1.3959e-08
1.39638e-08
1.39679e-08
1.39718e-08
1.39752e-08
1.39785e-08
1.39814e-08
1.39836e-08
1.39863e-08
1.38606e-08
1.38622e-08
1.38645e-08
1.38666e-08
1.3869e-08
1.38716e-08
1.38744e-08
1.38774e-08
1.38805e-08
1.38837e-08
1.38868e-08
1.38899e-08
1.38925e-08
1.38948e-08
1.38666e-08
1.38674e-08
1.38693e-08
1.38711e-08
1.38733e-08
1.38758e-08
1.38786e-08
1.38816e-08
1.38848e-08
1.3888e-08
1.38913e-08
1.38944e-08
1.38972e-08
1.39002e-08
1.38721e-08
1.38726e-08
1.38742e-08
1.38758e-08
1.3878e-08
1.38804e-08
1.38831e-08
1.3886e-08
1.38891e-08
1.38923e-08
1.38955e-08
1.38987e-08
1.39017e-08
1.39048e-08
1.38772e-08
1.38775e-08
1.3879e-08
1.38805e-08
1.38826e-08
1.3885e-08
1.38877e-08
1.38906e-08
1.38937e-08
1.38968e-08
1.39e-08
1.39032e-08
1.39062e-08
1.39095e-08
1.38819e-08
1.38823e-08
1.38837e-08
1.38853e-08
1.38874e-08
1.38898e-08
1.38924e-08
1.38953e-08
1.38983e-08
1.39015e-08
1.39047e-08
1.39078e-08
1.39109e-08
1.3914e-08
1.38868e-08
1.38873e-08
1.38886e-08
1.38903e-08
1.38923e-08
1.38947e-08
1.38974e-08
1.39002e-08
1.39033e-08
1.39064e-08
1.39096e-08
1.39128e-08
1.39159e-08
1.3919e-08
1.38916e-08
1.38922e-08
1.38934e-08
1.38952e-08
1.38973e-08
1.38998e-08
1.39024e-08
1.39053e-08
1.39084e-08
1.39115e-08
1.39148e-08
1.3918e-08
1.39211e-08
1.39242e-08
1.38965e-08
1.38971e-08
1.38984e-08
1.39003e-08
1.39024e-08
1.3905e-08
1.39077e-08
1.39106e-08
1.39137e-08
1.39169e-08
1.39202e-08
1.39235e-08
1.39267e-08
1.39299e-08
1.39012e-08
1.39019e-08
1.39033e-08
1.39054e-08
1.39076e-08
1.39103e-08
1.39131e-08
1.39161e-08
1.39193e-08
1.39225e-08
1.39259e-08
1.39292e-08
1.39325e-08
1.39357e-08
1.3906e-08
1.39067e-08
1.39083e-08
1.39105e-08
1.39129e-08
1.39157e-08
1.39186e-08
1.39217e-08
1.3925e-08
1.39283e-08
1.39317e-08
1.39352e-08
1.39387e-08
1.39418e-08
1.39106e-08
1.39114e-08
1.39131e-08
1.39156e-08
1.39182e-08
1.39211e-08
1.39242e-08
1.39275e-08
1.39309e-08
1.39343e-08
1.39378e-08
1.39415e-08
1.39451e-08
1.39482e-08
1.3915e-08
1.3916e-08
1.39181e-08
1.39207e-08
1.39235e-08
1.39266e-08
1.39299e-08
1.39333e-08
1.39368e-08
1.39403e-08
1.3944e-08
1.39478e-08
1.39514e-08
1.39545e-08
1.39185e-08
1.39199e-08
1.39225e-08
1.39254e-08
1.39286e-08
1.39319e-08
1.39355e-08
1.39391e-08
1.39428e-08
1.39465e-08
1.39504e-08
1.39542e-08
1.39574e-08
1.39601e-08
1.39216e-08
1.39236e-08
1.39269e-08
1.39302e-08
1.39339e-08
1.39375e-08
1.39413e-08
1.39451e-08
1.39489e-08
1.39527e-08
1.39564e-08
1.39598e-08
1.39626e-08
1.39652e-08
1.38399e-08
1.38401e-08
1.3841e-08
1.38422e-08
1.38437e-08
1.38455e-08
1.38476e-08
1.38499e-08
1.38525e-08
1.38552e-08
1.38581e-08
1.3861e-08
1.38634e-08
1.38658e-08
1.38459e-08
1.38455e-08
1.38463e-08
1.38472e-08
1.38485e-08
1.38502e-08
1.38522e-08
1.38546e-08
1.38571e-08
1.38598e-08
1.38627e-08
1.38656e-08
1.38681e-08
1.38709e-08
1.38511e-08
1.38506e-08
1.38513e-08
1.38522e-08
1.38536e-08
1.38552e-08
1.38572e-08
1.38595e-08
1.38619e-08
1.38645e-08
1.38672e-08
1.38701e-08
1.38728e-08
1.38756e-08
1.38562e-08
1.38558e-08
1.38565e-08
1.38575e-08
1.38588e-08
1.38605e-08
1.38625e-08
1.38647e-08
1.38671e-08
1.38696e-08
1.38723e-08
1.38751e-08
1.38777e-08
1.38806e-08
1.3861e-08
1.3861e-08
1.38617e-08
1.38628e-08
1.38642e-08
1.38659e-08
1.38679e-08
1.38701e-08
1.38725e-08
1.3875e-08
1.38776e-08
1.38803e-08
1.38829e-08
1.38857e-08
1.38661e-08
1.38665e-08
1.38672e-08
1.38684e-08
1.38699e-08
1.38716e-08
1.38736e-08
1.38758e-08
1.38782e-08
1.38807e-08
1.38833e-08
1.3886e-08
1.38886e-08
1.38913e-08
1.38712e-08
1.38719e-08
1.38728e-08
1.38741e-08
1.38757e-08
1.38775e-08
1.38795e-08
1.38818e-08
1.38841e-08
1.38866e-08
1.38892e-08
1.38919e-08
1.38945e-08
1.38971e-08
1.38765e-08
1.38774e-08
1.38785e-08
1.388e-08
1.38816e-08
1.38835e-08
1.38856e-08
1.38879e-08
1.38903e-08
1.38928e-08
1.38955e-08
1.38981e-08
1.39008e-08
1.39033e-08
1.38816e-08
1.38828e-08
1.38841e-08
1.38858e-08
1.38877e-08
1.38897e-08
1.38919e-08
1.38942e-08
1.38967e-08
1.38992e-08
1.39018e-08
1.39044e-08
1.39071e-08
1.39096e-08
1.3887e-08
1.38884e-08
1.38899e-08
1.38918e-08
1.38938e-08
1.3896e-08
1.38983e-08
1.39007e-08
1.39032e-08
1.39057e-08
1.39084e-08
1.39111e-08
1.39139e-08
1.39163e-08
1.38923e-08
1.38939e-08
1.38956e-08
1.38977e-08
1.38999e-08
1.39023e-08
1.39047e-08
1.39073e-08
1.39098e-08
1.39124e-08
1.39152e-08
1.39179e-08
1.39208e-08
1.39231e-08
1.38976e-08
1.38994e-08
1.39014e-08
1.39037e-08
1.39061e-08
1.39086e-08
1.39112e-08
1.39138e-08
1.39165e-08
1.39192e-08
1.3922e-08
1.39248e-08
1.39277e-08
1.39299e-08
1.39021e-08
1.39043e-08
1.39068e-08
1.39094e-08
1.39121e-08
1.39148e-08
1.39176e-08
1.39204e-08
1.39232e-08
1.3926e-08
1.39289e-08
1.39318e-08
1.39344e-08
1.39363e-08
1.39063e-08
1.39092e-08
1.39123e-08
1.39152e-08
1.39182e-08
1.39211e-08
1.39241e-08
1.3927e-08
1.39299e-08
1.39327e-08
1.39355e-08
1.39381e-08
1.39404e-08
1.39422e-08
1.38345e-08
1.38337e-08
1.38337e-08
1.38339e-08
1.38343e-08
1.38349e-08
1.38358e-08
1.38368e-08
1.3838e-08
1.38395e-08
1.38412e-08
1.38429e-08
1.38445e-08
1.38461e-08
1.38394e-08
1.38385e-08
1.38385e-08
1.38386e-08
1.38389e-08
1.38395e-08
1.38403e-08
1.38413e-08
1.38426e-08
1.3844e-08
1.38456e-08
1.38474e-08
1.38489e-08
1.38508e-08
1.38439e-08
1.38431e-08
1.38431e-08
1.38432e-08
1.38436e-08
1.38442e-08
1.3845e-08
1.38461e-08
1.38473e-08
1.38487e-08
1.38502e-08
1.38518e-08
1.38533e-08
1.38552e-08
1.38485e-08
1.38478e-08
1.38479e-08
1.38481e-08
1.38485e-08
1.38492e-08
1.385e-08
1.38511e-08
1.38523e-08
1.38536e-08
1.3855e-08
1.38566e-08
1.38581e-08
1.386e-08
1.38529e-08
1.38525e-08
1.38527e-08
1.3853e-08
1.38536e-08
1.38543e-08
1.38552e-08
1.38563e-08
1.38574e-08
1.38588e-08
1.38601e-08
1.38616e-08
1.38631e-08
1.38649e-08
1.38575e-08
1.38575e-08
1.38578e-08
1.38582e-08
1.38588e-08
1.38596e-08
1.38605e-08
1.38616e-08
1.38628e-08
1.38642e-08
1.38656e-08
1.3867e-08
1.38685e-08
1.38701e-08
1.38622e-08
1.38624e-08
1.38629e-08
1.38634e-08
1.38642e-08
1.38651e-08
1.3866e-08
1.38672e-08
1.38684e-08
1.38697e-08
1.38712e-08
1.38726e-08
1.38741e-08
1.38755e-08
1.38669e-08
1.38675e-08
1.38681e-08
1.38688e-08
1.38696e-08
1.38706e-08
1.38717e-08
1.38729e-08
1.38741e-08
1.38755e-08
1.38769e-08
1.38784e-08
1.38799e-08
1.38812e-08
1.38717e-08
1.38725e-08
1.38733e-08
1.38742e-08
1.38752e-08
1.38763e-08
1.38774e-08
1.38787e-08
1.388e-08
1.38814e-08
1.38828e-08
1.38842e-08
1.38857e-08
1.3887e-08
1.38767e-08
1.38777e-08
1.38786e-08
1.38797e-08
1.38808e-08
1.3882e-08
1.38832e-08
1.38846e-08
1.3886e-08
1.38874e-08
1.38888e-08
1.38902e-08
1.38918e-08
1.38931e-08
1.38818e-08
1.38828e-08
1.38839e-08
1.38852e-08
1.38865e-08
1.38878e-08
1.38892e-08
1.38906e-08
1.38921e-08
1.38935e-08
1.3895e-08
1.38963e-08
1.3898e-08
1.38992e-08
1.38869e-08
1.38882e-08
1.38894e-08
1.38908e-08
1.38922e-08
1.38936e-08
1.38951e-08
1.38967e-08
1.38982e-08
1.38997e-08
1.39012e-08
1.39027e-08
1.39044e-08
1.39054e-08
1.38915e-08
1.3893e-08
1.38947e-08
1.38962e-08
1.38979e-08
1.38995e-08
1.39011e-08
1.39027e-08
1.39043e-08
1.39059e-08
1.39075e-08
1.3909e-08
1.39105e-08
1.39114e-08
1.38961e-08
1.3898e-08
1.39001e-08
1.39019e-08
1.39037e-08
1.39054e-08
1.39071e-08
1.39088e-08
1.39105e-08
1.3912e-08
1.39135e-08
1.3915e-08
1.39163e-08
1.39172e-08
1.38386e-08
1.38379e-08
1.38373e-08
1.38368e-08
1.38364e-08
1.38361e-08
1.38359e-08
1.38358e-08
1.38359e-08
1.38362e-08
1.38365e-08
1.3837e-08
1.38375e-08
1.3838e-08
1.38425e-08
1.38416e-08
1.38411e-08
1.38405e-08
1.38401e-08
1.38397e-08
1.38395e-08
1.38395e-08
1.38395e-08
1.38398e-08
1.38402e-08
1.38407e-08
1.38411e-08
1.3842e-08
1.3846e-08
1.38451e-08
1.38446e-08
1.38441e-08
1.38438e-08
1.38435e-08
1.38433e-08
1.38433e-08
1.38434e-08
1.38436e-08
1.38439e-08
1.38443e-08
1.38447e-08
1.38455e-08
1.38496e-08
1.38487e-08
1.38484e-08
1.38479e-08
1.38476e-08
1.38474e-08
1.38473e-08
1.38472e-08
1.38473e-08
1.38475e-08
1.38477e-08
1.38481e-08
1.38484e-08
1.38492e-08
1.38529e-08
1.38523e-08
1.3852e-08
1.38517e-08
1.38515e-08
1.38514e-08
1.38513e-08
1.38513e-08
1.38514e-08
1.38515e-08
1.38517e-08
1.3852e-08
1.38523e-08
1.38529e-08
1.38564e-08
1.3856e-08
1.38559e-08
1.38556e-08
1.38555e-08
1.38554e-08
1.38554e-08
1.38554e-08
1.38555e-08
1.38556e-08
1.38558e-08
1.38561e-08
1.38563e-08
1.38567e-08
1.386e-08
1.38598e-08
1.38597e-08
1.38596e-08
1.38596e-08
1.38596e-08
1.38596e-08
1.38596e-08
1.38597e-08
1.38599e-08
1.38601e-08
1.38603e-08
1.38605e-08
1.38608e-08
1.38636e-08
1.38637e-08
1.38637e-08
1.38637e-08
1.38637e-08
1.38638e-08
1.38638e-08
1.38639e-08
1.38641e-08
1.38642e-08
1.38644e-08
1.38646e-08
1.38649e-08
1.3865e-08
1.38674e-08
1.38676e-08
1.38677e-08
1.38679e-08
1.3868e-08
1.38681e-08
1.38682e-08
1.38684e-08
1.38685e-08
1.38687e-08
1.38689e-08
1.38691e-08
1.38694e-08
1.38694e-08
1.38713e-08
1.38717e-08
1.38719e-08
1.38721e-08
1.38723e-08
1.38725e-08
1.38727e-08
1.38729e-08
1.38731e-08
1.38732e-08
1.38735e-08
1.38737e-08
1.38741e-08
1.3874e-08
1.38754e-08
1.38758e-08
1.38761e-08
1.38765e-08
1.38767e-08
1.3877e-08
1.38772e-08
1.38775e-08
1.38777e-08
1.38779e-08
1.38782e-08
1.38785e-08
1.38789e-08
1.38787e-08
1.38796e-08
1.38801e-08
1.38805e-08
1.38809e-08
1.38812e-08
1.38815e-08
1.38818e-08
1.38821e-08
1.38824e-08
1.38827e-08
1.3883e-08
1.38834e-08
1.38838e-08
1.38836e-08
1.38836e-08
1.38842e-08
1.38848e-08
1.38853e-08
1.38858e-08
1.38862e-08
1.38865e-08
1.38869e-08
1.38872e-08
1.38875e-08
1.38878e-08
1.38882e-08
1.38885e-08
1.38882e-08
1.38878e-08
1.38884e-08
1.38893e-08
1.38899e-08
1.38905e-08
1.38909e-08
1.38913e-08
1.38917e-08
1.3892e-08
1.38923e-08
1.38926e-08
1.38929e-08
1.38931e-08
1.3893e-08
1.38468e-08
1.38458e-08
1.38451e-08
1.38442e-08
1.38434e-08
1.38426e-08
1.38418e-08
1.38411e-08
1.38404e-08
1.38398e-08
1.38393e-08
1.38388e-08
1.38383e-08
1.38378e-08
1.38495e-08
1.38485e-08
1.38477e-08
1.38468e-08
1.38459e-08
1.3845e-08
1.38442e-08
1.38435e-08
1.38428e-08
1.38422e-08
1.38417e-08
1.38412e-08
1.38406e-08
1.38405e-08
1.38517e-08
1.38507e-08
1.385e-08
1.38491e-08
1.38483e-08
1.38475e-08
1.38468e-08
1.3846e-08
1.38453e-08
1.38447e-08
1.38441e-08
1.38436e-08
1.3843e-08
1.38429e-08
1.3854e-08
1.3853e-08
1.38524e-08
1.38516e-08
1.38508e-08
1.385e-08
1.38493e-08
1.38486e-08
1.38479e-08
1.38472e-08
1.38466e-08
1.3846e-08
1.38454e-08
1.38452e-08
1.38562e-08
1.38554e-08
1.38548e-08
1.3854e-08
1.38533e-08
1.38526e-08
1.38519e-08
1.38512e-08
1.38505e-08
1.38498e-08
1.38491e-08
1.38485e-08
1.38478e-08
1.38474e-08
1.38585e-08
1.38578e-08
1.38573e-08
1.38566e-08
1.38559e-08
1.38552e-08
1.38545e-08
1.38538e-08
1.38531e-08
1.38524e-08
1.38517e-08
1.3851e-08
1.38503e-08
1.38498e-08
1.38608e-08
1.38603e-08
1.38598e-08
1.38592e-08
1.38586e-08
1.38579e-08
1.38572e-08
1.38565e-08
1.38558e-08
1.38551e-08
1.38544e-08
1.38537e-08
1.38529e-08
1.38522e-08
1.38633e-08
1.38629e-08
1.38624e-08
1.38619e-08
1.38613e-08
1.38606e-08
1.386e-08
1.38593e-08
1.38586e-08
1.38578e-08
1.38571e-08
1.38563e-08
1.38556e-08
1.38548e-08
1.38659e-08
1.38655e-08
1.38651e-08
1.38646e-08
1.3864e-08
1.38634e-08
1.38628e-08
1.38621e-08
1.38614e-08
1.38606e-08
1.38599e-08
1.38591e-08
1.38583e-08
1.38574e-08
1.38686e-08
1.38683e-08
1.38679e-08
1.38675e-08
1.38669e-08
1.38663e-08
1.38656e-08
1.3865e-08
1.38642e-08
1.38635e-08
1.38627e-08
1.38619e-08
1.38612e-08
1.38602e-08
1.38714e-08
1.38712e-08
1.38708e-08
1.38704e-08
1.38698e-08
1.38692e-08
1.38686e-08
1.38679e-08
1.38672e-08
1.38664e-08
1.38657e-08
1.38648e-08
1.38641e-08
1.38631e-08
1.38743e-08
1.38742e-08
1.38738e-08
1.38734e-08
1.38728e-08
1.38722e-08
1.38716e-08
1.38709e-08
1.38702e-08
1.38694e-08
1.38687e-08
1.38678e-08
1.38672e-08
1.38661e-08
1.38772e-08
1.38771e-08
1.38768e-08
1.38764e-08
1.38759e-08
1.38753e-08
1.38746e-08
1.38739e-08
1.38732e-08
1.38724e-08
1.38717e-08
1.38708e-08
1.38701e-08
1.3869e-08
1.38803e-08
1.38801e-08
1.38798e-08
1.38794e-08
1.3879e-08
1.38784e-08
1.38778e-08
1.38771e-08
1.38763e-08
1.38756e-08
1.38747e-08
1.38738e-08
1.3873e-08
1.38721e-08
1.38553e-08
1.38543e-08
1.38533e-08
1.38523e-08
1.38513e-08
1.38501e-08
1.3849e-08
1.38479e-08
1.38468e-08
1.38457e-08
1.38446e-08
1.38435e-08
1.38424e-08
1.38411e-08
1.38568e-08
1.38558e-08
1.38549e-08
1.38538e-08
1.38527e-08
1.38515e-08
1.38503e-08
1.38492e-08
1.3848e-08
1.38469e-08
1.38458e-08
1.38447e-08
1.38435e-08
1.38425e-08
1.3858e-08
1.38569e-08
1.3856e-08
1.38549e-08
1.38539e-08
1.38528e-08
1.38516e-08
1.38505e-08
1.38494e-08
1.38482e-08
1.38471e-08
1.38459e-08
1.38448e-08
1.38437e-08
1.38592e-08
1.38581e-08
1.38573e-08
1.38562e-08
1.38551e-08
1.3854e-08
1.38529e-08
1.38518e-08
1.38506e-08
1.38494e-08
1.38483e-08
1.38471e-08
1.38459e-08
1.38449e-08
1.38602e-08
1.38593e-08
1.38585e-08
1.38574e-08
1.38564e-08
1.38553e-08
1.38542e-08
1.38531e-08
1.38519e-08
1.38507e-08
1.38495e-08
1.38483e-08
1.3847e-08
1.38459e-08
1.38614e-08
1.38606e-08
1.38598e-08
1.38588e-08
1.38578e-08
1.38567e-08
1.38555e-08
1.38544e-08
1.38532e-08
1.38519e-08
1.38507e-08
1.38494e-08
1.38481e-08
1.38469e-08
1.38627e-08
1.38619e-08
1.38611e-08
1.38601e-08
1.38591e-08
1.3858e-08
1.38569e-08
1.38557e-08
1.38545e-08
1.38532e-08
1.38519e-08
1.38506e-08
1.38493e-08
1.38479e-08
1.3864e-08
1.38633e-08
1.38625e-08
1.38615e-08
1.38605e-08
1.38594e-08
1.38582e-08
1.3857e-08
1.38557e-08
1.38544e-08
1.38531e-08
1.38517e-08
1.38504e-08
1.3849e-08
1.38654e-08
1.38647e-08
1.38639e-08
1.38629e-08
1.38619e-08
1.38607e-08
1.38596e-08
1.38583e-08
1.3857e-08
1.38557e-08
1.38543e-08
1.38529e-08
1.38515e-08
1.385e-08
1.38669e-08
1.38662e-08
1.38653e-08
1.38644e-08
1.38633e-08
1.38621e-08
1.38609e-08
1.38596e-08
1.38583e-08
1.38569e-08
1.38556e-08
1.38541e-08
1.38527e-08
1.38512e-08
1.38684e-08
1.38677e-08
1.38668e-08
1.38658e-08
1.38647e-08
1.38635e-08
1.38622e-08
1.38609e-08
1.38596e-08
1.38582e-08
1.38568e-08
1.38553e-08
1.38539e-08
1.38523e-08
1.38699e-08
1.38692e-08
1.38683e-08
1.38673e-08
1.38661e-08
1.38649e-08
1.38636e-08
1.38622e-08
1.38608e-08
1.38594e-08
1.3858e-08
1.38565e-08
1.38551e-08
1.38533e-08
1.38714e-08
1.38707e-08
1.38698e-08
1.38687e-08
1.38675e-08
1.38662e-08
1.38649e-08
1.38636e-08
1.38622e-08
1.38607e-08
1.38592e-08
1.38576e-08
1.3856e-08
1.38543e-08
1.3873e-08
1.38722e-08
1.38712e-08
1.38701e-08
1.3869e-08
1.38677e-08
1.38663e-08
1.38649e-08
1.38635e-08
1.3862e-08
1.38605e-08
1.38588e-08
1.38572e-08
1.38554e-08
1.38623e-08
1.38613e-08
1.38604e-08
1.38593e-08
1.38581e-08
1.38568e-08
1.38554e-08
1.38539e-08
1.38525e-08
1.3851e-08
1.38496e-08
1.38481e-08
1.38466e-08
1.38447e-08
1.38628e-08
1.38618e-08
1.38609e-08
1.38596e-08
1.38584e-08
1.3857e-08
1.38556e-08
1.38542e-08
1.38527e-08
1.38512e-08
1.38498e-08
1.38482e-08
1.38467e-08
1.38451e-08
1.3863e-08
1.3862e-08
1.38611e-08
1.38598e-08
1.38586e-08
1.38572e-08
1.38559e-08
1.38545e-08
1.3853e-08
1.38515e-08
1.385e-08
1.38485e-08
1.3847e-08
1.38454e-08
1.38633e-08
1.38623e-08
1.38613e-08
1.386e-08
1.38588e-08
1.38574e-08
1.38561e-08
1.38547e-08
1.38532e-08
1.38517e-08
1.38502e-08
1.38486e-08
1.38471e-08
1.38456e-08
1.38634e-08
1.38624e-08
1.38614e-08
1.38602e-08
1.3859e-08
1.38576e-08
1.38563e-08
1.38548e-08
1.38533e-08
1.38518e-08
1.38502e-08
1.38486e-08
1.3847e-08
1.38455e-08
1.38635e-08
1.38626e-08
1.38616e-08
1.38604e-08
1.38591e-08
1.38578e-08
1.38564e-08
1.38549e-08
1.38534e-08
1.38518e-08
1.38502e-08
1.38486e-08
1.38469e-08
1.38453e-08
1.38637e-08
1.38627e-08
1.38617e-08
1.38605e-08
1.38593e-08
1.38579e-08
1.38564e-08
1.38549e-08
1.38534e-08
1.38517e-08
1.38501e-08
1.38484e-08
1.38468e-08
1.38451e-08
1.38639e-08
1.38629e-08
1.38618e-08
1.38606e-08
1.38593e-08
1.38579e-08
1.38564e-08
1.38549e-08
1.38533e-08
1.38517e-08
1.385e-08
1.38483e-08
1.38466e-08
1.38448e-08
1.38641e-08
1.38631e-08
1.3862e-08
1.38607e-08
1.38594e-08
1.38579e-08
1.38564e-08
1.38548e-08
1.38532e-08
1.38515e-08
1.38498e-08
1.3848e-08
1.38463e-08
1.38445e-08
1.38643e-08
1.38633e-08
1.38621e-08
1.38608e-08
1.38594e-08
1.38579e-08
1.38563e-08
1.38547e-08
1.3853e-08
1.38513e-08
1.38496e-08
1.38478e-08
1.3846e-08
1.38442e-08
1.38646e-08
1.38634e-08
1.38622e-08
1.38608e-08
1.38593e-08
1.38578e-08
1.38562e-08
1.38545e-08
1.38528e-08
1.38511e-08
1.38493e-08
1.38475e-08
1.38456e-08
1.38438e-08
1.38648e-08
1.38636e-08
1.38622e-08
1.38608e-08
1.38593e-08
1.38577e-08
1.3856e-08
1.38543e-08
1.38526e-08
1.38508e-08
1.3849e-08
1.38471e-08
1.38452e-08
1.38434e-08
1.38649e-08
1.38636e-08
1.38622e-08
1.38607e-08
1.38591e-08
1.38575e-08
1.38558e-08
1.38541e-08
1.38523e-08
1.38505e-08
1.38486e-08
1.38467e-08
1.38447e-08
1.38427e-08
1.38649e-08
1.38636e-08
1.38623e-08
1.38607e-08
1.38591e-08
1.38574e-08
1.38556e-08
1.38539e-08
1.38521e-08
1.38503e-08
1.38484e-08
1.38464e-08
1.38444e-08
1.38423e-08
1.38661e-08
1.38652e-08
1.38642e-08
1.3863e-08
1.38617e-08
1.38603e-08
1.38588e-08
1.38572e-08
1.38555e-08
1.38538e-08
1.3852e-08
1.38502e-08
1.38484e-08
1.38462e-08
1.38656e-08
1.38646e-08
1.38636e-08
1.38623e-08
1.3861e-08
1.38596e-08
1.3858e-08
1.38564e-08
1.38548e-08
1.3853e-08
1.38513e-08
1.38495e-08
1.38477e-08
1.38458e-08
1.38648e-08
1.38639e-08
1.38628e-08
1.38615e-08
1.38602e-08
1.38588e-08
1.38573e-08
1.38557e-08
1.3854e-08
1.38523e-08
1.38506e-08
1.38487e-08
1.3847e-08
1.38451e-08
1.38641e-08
1.38631e-08
1.3862e-08
1.38607e-08
1.38593e-08
1.38579e-08
1.38564e-08
1.38548e-08
1.38531e-08
1.38514e-08
1.38497e-08
1.38479e-08
1.38461e-08
1.38443e-08
1.38631e-08
1.38622e-08
1.3861e-08
1.38598e-08
1.38584e-08
1.3857e-08
1.38554e-08
1.38538e-08
1.38522e-08
1.38504e-08
1.38487e-08
1.38468e-08
1.3845e-08
1.38432e-08
1.38622e-08
1.38612e-08
1.38601e-08
1.38588e-08
1.38574e-08
1.38559e-08
1.38544e-08
1.38528e-08
1.38511e-08
1.38493e-08
1.38475e-08
1.38457e-08
1.38439e-08
1.3842e-08
1.38613e-08
1.38603e-08
1.38591e-08
1.38578e-08
1.38564e-08
1.38549e-08
1.38533e-08
1.38516e-08
1.38499e-08
1.38481e-08
1.38464e-08
1.38445e-08
1.38427e-08
1.38408e-08
1.38604e-08
1.38593e-08
1.3858e-08
1.38567e-08
1.38553e-08
1.38537e-08
1.38521e-08
1.38504e-08
1.38487e-08
1.38469e-08
1.38451e-08
1.38432e-08
1.38414e-08
1.38395e-08
1.38595e-08
1.38583e-08
1.3857e-08
1.38556e-08
1.38541e-08
1.38525e-08
1.38509e-08
1.38491e-08
1.38473e-08
1.38455e-08
1.38437e-08
1.38418e-08
1.38399e-08
1.38381e-08
1.38585e-08
1.38572e-08
1.38558e-08
1.38544e-08
1.38528e-08
1.38512e-08
1.38495e-08
1.38478e-08
1.3846e-08
1.38441e-08
1.38423e-08
1.38404e-08
1.38384e-08
1.38367e-08
1.38576e-08
1.38562e-08
1.38547e-08
1.38532e-08
1.38516e-08
1.38499e-08
1.38481e-08
1.38464e-08
1.38445e-08
1.38426e-08
1.38407e-08
1.38388e-08
1.38369e-08
1.38351e-08
1.38565e-08
1.3855e-08
1.38535e-08
1.38519e-08
1.38502e-08
1.38485e-08
1.38467e-08
1.38449e-08
1.3843e-08
1.38411e-08
1.38392e-08
1.38373e-08
1.38353e-08
1.38335e-08
1.38553e-08
1.38537e-08
1.38522e-08
1.38506e-08
1.38488e-08
1.38471e-08
1.38452e-08
1.38434e-08
1.38414e-08
1.38395e-08
1.38375e-08
1.38356e-08
1.38335e-08
1.38317e-08
1.38539e-08
1.38524e-08
1.38508e-08
1.38491e-08
1.38473e-08
1.38455e-08
1.38437e-08
1.38418e-08
1.38399e-08
1.3838e-08
1.3836e-08
1.3834e-08
1.38319e-08
1.38301e-08
1.38634e-08
1.38625e-08
1.38615e-08
1.38604e-08
1.38591e-08
1.38578e-08
1.38563e-08
1.38547e-08
1.3853e-08
1.38512e-08
1.38494e-08
1.38475e-08
1.38456e-08
1.38434e-08
1.38619e-08
1.3861e-08
1.386e-08
1.38588e-08
1.38575e-08
1.38561e-08
1.38546e-08
1.3853e-08
1.38513e-08
1.38496e-08
1.38478e-08
1.38459e-08
1.38441e-08
1.38421e-08
1.38602e-08
1.38593e-08
1.38583e-08
1.38571e-08
1.38558e-08
1.38544e-08
1.38529e-08
1.38514e-08
1.38497e-08
1.3848e-08
1.38462e-08
1.38443e-08
1.38425e-08
1.38406e-08
1.38585e-08
1.38576e-08
1.38565e-08
1.38553e-08
1.3854e-08
1.38526e-08
1.38511e-08
1.38495e-08
1.38479e-08
1.38461e-08
1.38444e-08
1.38425e-08
1.38408e-08
1.38389e-08
1.38567e-08
1.38558e-08
1.38547e-08
1.38534e-08
1.38521e-08
1.38507e-08
1.38492e-08
1.38476e-08
1.3846e-08
1.38443e-08
1.38425e-08
1.38407e-08
1.38389e-08
1.38371e-08
1.38549e-08
1.38539e-08
1.38528e-08
1.38515e-08
1.38502e-08
1.38487e-08
1.38472e-08
1.38456e-08
1.3844e-08
1.38423e-08
1.38405e-08
1.38387e-08
1.3837e-08
1.38352e-08
1.38531e-08
1.3852e-08
1.38509e-08
1.38496e-08
1.38482e-08
1.38467e-08
1.38452e-08
1.38436e-08
1.38419e-08
1.38402e-08
1.38385e-08
1.38367e-08
1.3835e-08
1.38331e-08
1.38512e-08
1.38501e-08
1.38488e-08
1.38475e-08
1.38461e-08
1.38446e-08
1.38431e-08
1.38415e-08
1.38398e-08
1.38381e-08
1.38364e-08
1.38346e-08
1.38328e-08
1.38311e-08
1.38494e-08
1.38481e-08
1.38468e-08
1.38455e-08
1.3844e-08
1.38425e-08
1.38409e-08
1.38393e-08
1.38376e-08
1.38359e-08
1.38341e-08
1.38324e-08
1.38306e-08
1.38289e-08
1.38474e-08
1.38461e-08
1.38447e-08
1.38433e-08
1.38418e-08
1.38402e-08
1.38387e-08
1.3837e-08
1.38353e-08
1.38336e-08
1.38319e-08
1.38301e-08
1.38283e-08
1.38267e-08
1.38455e-08
1.3844e-08
1.38426e-08
1.38411e-08
1.38396e-08
1.3838e-08
1.38364e-08
1.38347e-08
1.3833e-08
1.38312e-08
1.38295e-08
1.38277e-08
1.38259e-08
1.38244e-08
1.38434e-08
1.38418e-08
1.38404e-08
1.38388e-08
1.38373e-08
1.38357e-08
1.3834e-08
1.38324e-08
1.38306e-08
1.38289e-08
1.38271e-08
1.38254e-08
1.38236e-08
1.38221e-08
1.38413e-08
1.38397e-08
1.38382e-08
1.38366e-08
1.3835e-08
1.38334e-08
1.38317e-08
1.38299e-08
1.38281e-08
1.38263e-08
1.38245e-08
1.38228e-08
1.3821e-08
1.38195e-08
1.38389e-08
1.38373e-08
1.38358e-08
1.38342e-08
1.38326e-08
1.38309e-08
1.38292e-08
1.38275e-08
1.38258e-08
1.3824e-08
1.38222e-08
1.38205e-08
1.38186e-08
1.38171e-08
1.38516e-08
1.38509e-08
1.385e-08
1.3849e-08
1.3848e-08
1.38469e-08
1.38457e-08
1.38444e-08
1.3843e-08
1.38415e-08
1.384e-08
1.38384e-08
1.38367e-08
1.38348e-08
1.38494e-08
1.38488e-08
1.38479e-08
1.38469e-08
1.38458e-08
1.38447e-08
1.38434e-08
1.38421e-08
1.38407e-08
1.38392e-08
1.38377e-08
1.38361e-08
1.38345e-08
1.38327e-08
1.38471e-08
1.38465e-08
1.38455e-08
1.38445e-08
1.38435e-08
1.38423e-08
1.38411e-08
1.38398e-08
1.38384e-08
1.3837e-08
1.38355e-08
1.38339e-08
1.38324e-08
1.38308e-08
1.38449e-08
1.38442e-08
1.38432e-08
1.38422e-08
1.38411e-08
1.384e-08
1.38387e-08
1.38374e-08
1.3836e-08
1.38346e-08
1.38331e-08
1.38316e-08
1.38301e-08
1.38285e-08
1.38426e-08
1.38418e-08
1.38408e-08
1.38398e-08
1.38387e-08
1.38375e-08
1.38363e-08
1.3835e-08
1.38336e-08
1.38322e-08
1.38308e-08
1.38293e-08
1.38278e-08
1.38262e-08
1.38403e-08
1.38394e-08
1.38384e-08
1.38373e-08
1.38362e-08
1.3835e-08
1.38338e-08
1.38325e-08
1.38311e-08
1.38297e-08
1.38283e-08
1.38268e-08
1.38254e-08
1.38239e-08
1.38379e-08
1.3837e-08
1.38359e-08
1.38348e-08
1.38337e-08
1.38325e-08
1.38312e-08
1.38299e-08
1.38286e-08
1.38272e-08
1.38258e-08
1.38244e-08
1.38229e-08
1.38215e-08
1.38355e-08
1.38345e-08
1.38334e-08
1.38323e-08
1.38311e-08
1.38299e-08
1.38286e-08
1.38273e-08
1.3826e-08
1.38246e-08
1.38232e-08
1.38218e-08
1.38204e-08
1.3819e-08
1.38331e-08
1.3832e-08
1.38309e-08
1.38297e-08
1.38285e-08
1.38273e-08
1.3826e-08
1.38247e-08
1.38234e-08
1.3822e-08
1.38206e-08
1.38193e-08
1.38178e-08
1.38165e-08
1.38305e-08
1.38294e-08
1.38282e-08
1.38271e-08
1.38259e-08
1.38246e-08
1.38233e-08
1.3822e-08
1.38207e-08
1.38193e-08
1.3818e-08
1.38166e-08
1.38152e-08
1.3814e-08
1.38281e-08
1.38268e-08
1.38257e-08
1.38244e-08
1.38232e-08
1.38219e-08
1.38206e-08
1.38193e-08
1.3818e-08
1.38166e-08
1.38152e-08
1.38139e-08
1.38125e-08
1.38115e-08
1.38254e-08
1.38241e-08
1.38229e-08
1.38217e-08
1.38205e-08
1.38192e-08
1.38179e-08
1.38166e-08
1.38153e-08
1.38139e-08
1.38125e-08
1.38112e-08
1.38099e-08
1.38089e-08
1.38229e-08
1.38215e-08
1.38203e-08
1.38191e-08
1.38178e-08
1.38165e-08
1.38151e-08
1.38138e-08
1.38124e-08
1.38111e-08
1.38097e-08
1.38084e-08
1.38071e-08
1.38062e-08
1.38199e-08
1.38186e-08
1.38174e-08
1.38162e-08
1.38149e-08
1.38137e-08
1.38124e-08
1.38111e-08
1.38097e-08
1.38084e-08
1.3807e-08
1.38057e-08
1.38044e-08
1.38034e-08
1.38308e-08
1.38302e-08
1.38296e-08
1.38289e-08
1.38283e-08
1.38276e-08
1.38269e-08
1.38261e-08
1.38252e-08
1.38243e-08
1.38234e-08
1.38224e-08
1.38213e-08
1.38202e-08
1.38284e-08
1.3828e-08
1.38273e-08
1.38267e-08
1.3826e-08
1.38253e-08
1.38245e-08
1.38237e-08
1.38228e-08
1.38219e-08
1.38209e-08
1.38199e-08
1.38189e-08
1.38177e-08
1.3826e-08
1.38256e-08
1.38249e-08
1.38243e-08
1.38236e-08
1.38229e-08
1.38221e-08
1.38213e-08
1.38204e-08
1.38195e-08
1.38186e-08
1.38176e-08
1.38167e-08
1.38155e-08
1.38237e-08
1.38232e-08
1.38225e-08
1.38219e-08
1.38212e-08
1.38205e-08
1.38197e-08
1.38189e-08
1.3818e-08
1.38171e-08
1.38162e-08
1.38152e-08
1.38142e-08
1.38132e-08
1.38214e-08
1.38208e-08
1.38201e-08
1.38195e-08
1.38187e-08
1.3818e-08
1.38172e-08
1.38164e-08
1.38156e-08
1.38147e-08
1.38138e-08
1.38128e-08
1.38119e-08
1.38109e-08
1.3819e-08
1.38184e-08
1.38177e-08
1.3817e-08
1.38163e-08
1.38155e-08
1.38147e-08
1.38139e-08
1.38131e-08
1.38122e-08
1.38113e-08
1.38104e-08
1.38095e-08
1.38085e-08
1.38166e-08
1.38159e-08
1.38152e-08
1.38145e-08
1.38138e-08
1.3813e-08
1.38122e-08
1.38114e-08
1.38106e-08
1.38097e-08
1.38089e-08
1.3808e-08
1.38071e-08
1.38062e-08
1.38141e-08
1.38134e-08
1.38127e-08
1.3812e-08
1.38112e-08
1.38105e-08
1.38097e-08
1.38089e-08
1.38081e-08
1.38072e-08
1.38064e-08
1.38055e-08
1.38046e-08
1.38038e-08
1.38117e-08
1.38109e-08
1.38102e-08
1.38094e-08
1.38087e-08
1.38079e-08
1.38071e-08
1.38063e-08
1.38055e-08
1.38047e-08
1.38039e-08
1.38031e-08
1.38022e-08
1.38015e-08
1.38092e-08
1.38083e-08
1.38076e-08
1.38068e-08
1.38061e-08
1.38053e-08
1.38046e-08
1.38038e-08
1.3803e-08
1.38022e-08
1.38014e-08
1.38006e-08
1.37997e-08
1.37991e-08
1.38067e-08
1.38058e-08
1.38051e-08
1.38043e-08
1.38035e-08
1.38028e-08
1.3802e-08
1.38012e-08
1.38004e-08
1.37996e-08
1.37988e-08
1.37981e-08
1.37973e-08
1.37968e-08
1.3804e-08
1.38031e-08
1.38024e-08
1.38017e-08
1.38009e-08
1.38002e-08
1.37994e-08
1.37986e-08
1.37978e-08
1.3797e-08
1.37963e-08
1.37956e-08
1.37948e-08
1.37944e-08
1.38015e-08
1.38007e-08
1.37999e-08
1.37992e-08
1.37984e-08
1.37976e-08
1.37968e-08
1.3796e-08
1.37952e-08
1.37944e-08
1.37937e-08
1.37931e-08
1.37924e-08
1.37921e-08
1.37987e-08
1.37979e-08
1.37972e-08
1.37965e-08