/*--------------------------------*- C++ -*----------------------------------*\
| =========                 |                                                 |
| \\      /  F ield         | OpenFOAM: The Open Source CFD Toolbox           |
|  \\    /   O peration     | Version:  v2106                                 |
|   \\  /    A nd           | Website:  www.openfoam.com                      |
|    \\/     M anipulation  |                                                 |
\*---------------------------------------------------------------------------*/
FoamFile
{
    version     2.0;
    format      ascii;
    arch        "LSB;label=32;scalar=64";
    class       volScalarField;
    location    "0.000174";
    object      nut;
}
// * * * * * * * * * * * * * * * * * * * * * * * * * * * * * * * * * * * * * //

dimensions      [0 2 -1 0 0 0 0];

internalField   nonuniform List<scalar> 
144746
(
7.39562e-05
6.39818e-05
5.33204e-05
4.261e-05
3.17066e-05
2.28369e-05
1.80222e-05
1.6378e-05
1.7434e-05
2.20212e-05
3.15135e-05
4.65694e-05
6.57375e-05
8.29667e-05
4.85282e-05
3.96214e-05
3.06558e-05
2.27673e-05
1.67043e-05
1.21105e-05
9.95611e-06
9.97147e-06
1.16664e-05
1.62852e-05
2.55122e-05
4.04391e-05
5.91971e-05
7.50728e-05
2.95903e-05
2.1793e-05
1.51845e-05
1.00945e-05
7.07813e-06
5.17277e-06
4.45383e-06
5.10918e-06
7.22369e-06
1.17829e-05
2.04508e-05
3.44564e-05
5.2101e-05
6.6571e-05
1.77653e-05
1.13722e-05
6.8e-06
3.75853e-06
2.34788e-06
1.74687e-06
1.72624e-06
2.41177e-06
4.23795e-06
8.20709e-06
1.57693e-05
2.79762e-05
4.33847e-05
5.62032e-05
1.16998e-05
6.33403e-06
3.00208e-06
1.27188e-06
6.61789e-07
5.15682e-07
6.81428e-07
1.30575e-06
2.8853e-06
6.38052e-06
1.2971e-05
2.30426e-05
3.50572e-05
4.52162e-05
9.19119e-06
4.25311e-06
1.63977e-06
6.15997e-07
2.85562e-07
2.35392e-07
4.2185e-07
1.01278e-06
2.46508e-06
5.53637e-06
1.09777e-05
1.88539e-05
2.79532e-05
3.61126e-05
8.85381e-06
3.75408e-06
1.49688e-06
6.89746e-07
3.69781e-07
3.23024e-07
5.50857e-07
1.21554e-06
2.6952e-06
5.52302e-06
1.00893e-05
1.62909e-05
2.34598e-05
3.05149e-05
1.03726e-05
4.38344e-06
2.09958e-06
1.18603e-06
7.59747e-07
6.91011e-07
9.95945e-07
1.80081e-06
3.37349e-06
6.04307e-06
1.00147e-05
1.53217e-05
2.21653e-05
2.91018e-05
1.40945e-05
6.05995e-06
3.39368e-06
2.22562e-06
1.60804e-06
1.45557e-06
1.81397e-06
2.74669e-06
4.39005e-06
6.95216e-06
1.07419e-05
1.66745e-05
2.41277e-05
3.19275e-05
2.30341e-05
9.48684e-06
5.63349e-06
4.15331e-06
3.27485e-06
2.90366e-06
3.17618e-06
4.14722e-06
5.88895e-06
8.77971e-06
1.37168e-05
2.18204e-05
3.05751e-05
4.01047e-05
3.83985e-05
1.83908e-05
9.46142e-06
7.35018e-06
6.38945e-06
5.78484e-06
5.86384e-06
6.88058e-06
9.09877e-06
1.4268e-05
2.19129e-05
3.2332e-05
4.30222e-05
5.36385e-05
5.45671e-05
3.33142e-05
1.8657e-05
1.27964e-05
1.14436e-05
1.10415e-05
1.13592e-05
1.31615e-05
1.7581e-05
2.61261e-05
3.64814e-05
4.87745e-05
5.98501e-05
6.9385e-05
6.91682e-05
4.99658e-05
3.18858e-05
2.10698e-05
1.74868e-05
1.74805e-05
1.93063e-05
2.33146e-05
3.0654e-05
4.14622e-05
5.32317e-05
6.4238e-05
7.27224e-05
7.91694e-05
8.2099e-05
6.60587e-05
4.69261e-05
3.25435e-05
2.54915e-05
2.4131e-05
2.65189e-05
3.22843e-05
4.12914e-05
5.15349e-05
6.11548e-05
6.8505e-05
7.43388e-05
7.90867e-05
7.78522e-05
6.59672e-05
5.35907e-05
4.14682e-05
2.99385e-05
2.10617e-05
1.61594e-05
1.42999e-05
1.55576e-05
2.10952e-05
3.20102e-05
4.84975e-05
6.89827e-05
8.75868e-05
5.05714e-05
4.06474e-05
3.09774e-05
2.28779e-05
1.66748e-05
1.19814e-05
9.37032e-06
8.74468e-06
1.01999e-05
1.52528e-05
2.54128e-05
4.11545e-05
6.04624e-05
7.70745e-05
2.94186e-05
2.13762e-05
1.50453e-05
1.03364e-05
7.43474e-06
5.43184e-06
4.37604e-06
4.5081e-06
6.33309e-06
1.10828e-05
2.02011e-05
3.41989e-05
5.13182e-05
6.60876e-05
1.58911e-05
9.9218e-06
6.13497e-06
3.71585e-06
2.53572e-06
1.90783e-06
1.72158e-06
2.1683e-06
3.81873e-06
7.80956e-06
1.54047e-05
2.69972e-05
4.11443e-05
5.36427e-05
9.03258e-06
4.66861e-06
2.29392e-06
1.11338e-06
6.77536e-07
5.45088e-07
6.54791e-07
1.19448e-06
2.70513e-06
6.14926e-06
1.24532e-05
2.15742e-05
3.20913e-05
4.14605e-05
6.50526e-06
2.87068e-06
1.09716e-06
4.19928e-07
2.08175e-07
1.917e-07
3.6142e-07
9.06774e-07
2.29087e-06
5.22138e-06
1.02358e-05
1.70953e-05
2.46898e-05
3.17019e-05
6.28192e-06
2.58852e-06
9.7331e-07
4.04526e-07
2.05432e-07
2.02971e-07
4.09308e-07
9.96661e-07
2.33413e-06
4.89364e-06
8.92067e-06
1.41429e-05
1.99384e-05
2.59061e-05
7.60304e-06
3.14783e-06
1.36756e-06
6.93347e-07
4.27062e-07
4.20737e-07
6.85293e-07
1.35526e-06
2.69047e-06
4.97479e-06
8.32695e-06
1.26431e-05
1.80849e-05
2.43336e-05
1.06368e-05
4.464e-06
2.2237e-06
1.3442e-06
9.56828e-07
9.19928e-07
1.24245e-06
1.99874e-06
3.33463e-06
5.4396e-06
8.52519e-06
1.3097e-05
1.94896e-05
2.71362e-05
1.73127e-05
7.0342e-06
3.74628e-06
2.5938e-06
2.04009e-06
1.91153e-06
2.24244e-06
3.07437e-06
4.49092e-06
6.80446e-06
1.04998e-05
1.71631e-05
2.51651e-05
3.47829e-05
3.03415e-05
1.34006e-05
6.25695e-06
4.76324e-06
4.09972e-06
3.87946e-06
4.21229e-06
5.22837e-06
7.13961e-06
1.07529e-05
1.67044e-05
2.57795e-05
3.59943e-05
4.69114e-05
4.59226e-05
2.6594e-05
1.38354e-05
8.76452e-06
7.6294e-06
7.45399e-06
8.0456e-06
9.67711e-06
1.30272e-05
1.94534e-05
2.77868e-05
3.92016e-05
5.08035e-05
6.1781e-05
6.20809e-05
4.26538e-05
2.57522e-05
1.56864e-05
1.24946e-05
1.23633e-05
1.3738e-05
1.67819e-05
2.22727e-05
3.10582e-05
4.1912e-05
5.40605e-05
6.48226e-05
7.41803e-05
7.75837e-05
5.89115e-05
4.0165e-05
2.65273e-05
1.98853e-05
1.82505e-05
1.98522e-05
2.42409e-05
3.16686e-05
4.19587e-05
5.32422e-05
6.33033e-05
7.14212e-05
7.86586e-05
6.52441e-05
5.42956e-05
4.31658e-05
3.30555e-05
2.39611e-05
1.71629e-05
1.30348e-05
1.15136e-05
1.26905e-05
1.80308e-05
2.82533e-05
4.27621e-05
6.0267e-05
7.78656e-05
4.25959e-05
3.40326e-05
2.577e-05
1.91164e-05
1.40474e-05
1.02597e-05
7.78512e-06
6.77777e-06
7.87754e-06
1.2532e-05
2.19945e-05
3.57683e-05
5.17461e-05
6.65314e-05
2.46573e-05
1.77907e-05
1.26216e-05
8.96021e-06
6.61112e-06
4.92114e-06
3.81447e-06
3.52839e-06
4.82944e-06
9.00679e-06
1.72811e-05
2.9378e-05
4.31054e-05
5.57554e-05
1.26056e-05
7.67513e-06
4.8761e-06
3.24412e-06
2.37928e-06
1.81356e-06
1.53157e-06
1.73933e-06
3.02899e-06
6.48484e-06
1.31332e-05
2.28287e-05
3.41516e-05
4.46788e-05
6.46216e-06
3.15077e-06
1.60691e-06
9.09733e-07
6.36015e-07
5.22252e-07
5.6639e-07
9.66061e-07
2.21393e-06
5.15003e-06
1.05056e-05
1.80745e-05
2.65732e-05
3.44185e-05
4.37317e-06
1.77744e-06
6.63573e-07
2.68877e-07
1.52758e-07
1.51852e-07
2.80324e-07
7.1735e-07
1.86768e-06
4.33729e-06
8.57993e-06
1.43302e-05
2.04654e-05
2.62103e-05
4.24794e-06
1.62494e-06
5.57243e-07
2.0162e-07
9.64814e-08
1.1307e-07
2.71476e-07
7.28813e-07
1.80397e-06
3.90944e-06
7.29894e-06
1.17218e-05
1.63835e-05
2.10127e-05
5.23369e-06
2.03309e-06
7.73908e-07
3.35707e-07
1.93544e-07
2.13381e-07
4.07447e-07
9.0103e-07
1.9279e-06
3.76136e-06
6.53629e-06
1.00788e-05
1.41497e-05
1.89338e-05
7.37737e-06
2.92915e-06
1.26606e-06
6.86915e-07
4.73704e-07
4.87544e-07
7.24021e-07
1.26276e-06
2.25872e-06
3.90324e-06
6.34606e-06
9.71903e-06
1.41827e-05
2.08407e-05
1.17719e-05
4.63038e-06
2.19283e-06
1.41734e-06
1.10847e-06
1.09573e-06
1.37707e-06
1.99221e-06
3.04368e-06
4.73944e-06
7.51853e-06
1.18574e-05
1.80189e-05
2.6779e-05
2.08673e-05
8.30547e-06
3.83816e-06
2.81442e-06
2.40993e-06
2.38228e-06
2.75054e-06
3.57722e-06
5.02183e-06
7.51747e-06
1.15473e-05
1.79956e-05
2.6399e-05
3.5961e-05
3.25923e-05
1.83349e-05
8.8573e-06
5.36444e-06
4.8107e-06
4.86218e-06
5.52541e-06
6.92989e-06
9.37484e-06
1.3403e-05
1.91564e-05
2.78021e-05
3.78335e-05
4.71578e-05
4.648e-05
3.0945e-05
1.76641e-05
1.01957e-05
8.46983e-06
8.69346e-06
9.87758e-06
1.21491e-05
1.59172e-05
2.17451e-05
2.93454e-05
3.92008e-05
4.90779e-05
5.85084e-05
5.91851e-05
4.33674e-05
2.91482e-05
1.8908e-05
1.44014e-05
1.36475e-05
1.50248e-05
1.81722e-05
2.33067e-05
3.11375e-05
4.02752e-05
4.93722e-05
5.84138e-05
6.7806e-05
9.14074e-05
9.54208e-05
0.000100235
0.000107188
0.000112597
6.70369e-05
8.1409e-05
8.58284e-05
9.12861e-05
0.000101009
0.00011099
7.81952e-05
7.16487e-05
7.55801e-05
8.16754e-05
9.44804e-05
0.000112772
9.00638e-05
6.08942e-05
6.4853e-05
7.14044e-05
8.62318e-05
0.000113235
0.000101701
5.01695e-05
5.45182e-05
6.11936e-05
7.66258e-05
0.000110793
0.000111957
4.12184e-05
4.56197e-05
5.22761e-05
6.7411e-05
0.000105228
0.000119814
3.59305e-05
4.03196e-05
4.70596e-05
6.14905e-05
9.94704e-05
0.000124521
3.50633e-05
3.98865e-05
4.68784e-05
6.0389e-05
9.63652e-05
0.000125783
3.93836e-05
4.49907e-05
5.21396e-05
6.45663e-05
9.78004e-05
0.00012372
4.89886e-05
5.52914e-05
6.22016e-05
7.2973e-05
0.000101681
0.000118598
6.2216e-05
6.812e-05
7.38676e-05
8.24586e-05
0.000105397
0.000110253
7.45007e-05
7.8004e-05
8.19294e-05
8.87192e-05
0.000105473
9.89559e-05
8.01263e-05
8.13751e-05
8.42103e-05
9.01376e-05
0.000101005
8.62986e-05
7.85144e-05
7.94156e-05
8.25282e-05
8.87474e-05
9.55523e-05
7.45506e-05
9.63052e-05
0.000100369
0.000102771
0.000104086
0.000104574
7.6117e-05
8.37995e-05
8.87579e-05
9.25598e-05
9.76043e-05
0.00010362
8.8716e-05
7.19684e-05
7.6285e-05
8.0657e-05
8.92451e-05
0.000104418
0.00010032
5.91605e-05
6.31937e-05
6.79679e-05
7.85422e-05
0.000101288
0.000110035
4.67513e-05
5.09201e-05
5.60976e-05
6.74902e-05
9.49452e-05
0.00011691
3.67689e-05
4.10265e-05
4.67751e-05
5.86106e-05
8.77457e-05
0.000120573
3.10374e-05
3.54261e-05
4.18749e-05
5.38651e-05
8.31605e-05
0.000121606
3.00491e-05
3.49124e-05
4.19679e-05
5.4022e-05
8.25381e-05
0.000120374
3.42216e-05
3.97265e-05
4.71364e-05
5.88623e-05
8.63149e-05
0.000117618
4.32553e-05
4.95068e-05
5.69885e-05
6.75443e-05
9.18585e-05
0.000113354
5.56565e-05
6.22395e-05
6.90703e-05
7.73259e-05
9.67099e-05
0.00010737
6.84105e-05
7.34807e-05
7.83591e-05
8.38807e-05
9.74489e-05
9.95493e-05
7.69203e-05
7.91304e-05
8.15296e-05
8.48809e-05
9.29597e-05
9.01854e-05
7.82262e-05
7.83104e-05
7.91416e-05
8.17574e-05
8.68507e-05
8.02428e-05
8.97511e-05
9.67534e-05
9.96104e-05
9.74562e-05
9.23578e-05
8.26584e-05
7.58664e-05
8.36765e-05
8.83399e-05
8.99185e-05
9.20265e-05
9.37207e-05
6.37255e-05
7.0435e-05
7.50722e-05
7.9512e-05
8.89381e-05
0.000102311
5.14774e-05
5.71844e-05
6.16972e-05
6.77545e-05
8.24565e-05
0.000107846
4.00936e-05
4.53308e-05
5.01166e-05
5.73484e-05
7.48692e-05
0.000110405
3.10006e-05
3.59823e-05
4.15282e-05
5.00918e-05
6.96162e-05
0.000110681
2.53686e-05
3.03076e-05
3.69113e-05
4.68658e-05
6.83721e-05
0.000110007
2.37847e-05
2.88184e-05
3.6177e-05
4.7129e-05
7.07311e-05
0.00010893
2.63756e-05
3.15772e-05
3.93298e-05
5.06992e-05
7.56975e-05
0.000107292
3.2856e-05
3.8372e-05
4.62848e-05
5.75166e-05
8.12361e-05
0.000104595
4.1919e-05
4.80757e-05
5.60876e-05
6.63615e-05
8.62273e-05
0.000101042
5.20628e-05
5.84263e-05
6.59671e-05
7.37194e-05
8.7349e-05
9.60925e-05
6.19329e-05
6.73654e-05
7.2814e-05
7.69287e-05
8.2886e-05
8.88798e-05
6.89849e-05
7.27918e-05
7.49991e-05
7.54297e-05
7.659e-05
7.95954e-05
7.41821e-05
7.60182e-05
8.03786e-05
8.74062e-05
9.19764e-05
7.6229e-05
6.86551e-05
6.90528e-05
7.38159e-05
8.35491e-05
9.56796e-05
8.99566e-05
6.31959e-05
6.2478e-05
6.61835e-05
7.69348e-05
9.64139e-05
0.000103026
5.7436e-05
5.60919e-05
5.84055e-05
6.88252e-05
9.32093e-05
0.000114495
5.07447e-05
4.98234e-05
5.13172e-05
6.11568e-05
8.79391e-05
0.000123338
4.32746e-05
4.37422e-05
4.5926e-05
5.5849e-05
8.30202e-05
0.000128986
3.64642e-05
3.89415e-05
4.32545e-05
5.40802e-05
8.0825e-05
0.000131411
3.18877e-05
3.66741e-05
4.36094e-05
5.58498e-05
8.29321e-05
0.000131299
3.1319e-05
3.84924e-05
4.77155e-05
6.13252e-05
8.90503e-05
0.000129107
3.56265e-05
4.53576e-05
5.62911e-05
7.02967e-05
9.68219e-05
0.000123453
4.55763e-05
5.7359e-05
6.86599e-05
8.10454e-05
0.000103049
0.000114648
6.01392e-05
7.15871e-05
8.08591e-05
8.95127e-05
0.000103859
0.000102579
7.53596e-05
8.29926e-05
8.78708e-05
9.1778e-05
9.8031e-05
8.86839e-05
8.46364e-05
8.75783e-05
8.79487e-05
8.85872e-05
9.04797e-05
7.54792e-05
7.42053e-05
7.34277e-05
7.40657e-05
7.77959e-05
8.32241e-05
8.25484e-05
6.75451e-05
6.64499e-05
6.73742e-05
7.31874e-05
8.53213e-05
9.5228e-05
6.16065e-05
6.00143e-05
6.03021e-05
6.65551e-05
8.38425e-05
0.000106021
5.4535e-05
5.34567e-05
5.37455e-05
5.98034e-05
7.92107e-05
0.000114249
4.58358e-05
4.65311e-05
4.794e-05
5.44091e-05
7.40091e-05
0.000119579
3.69301e-05
3.96601e-05
4.32579e-05
5.13298e-05
7.08784e-05
0.000121993
2.96883e-05
3.42092e-05
4.02777e-05
5.03991e-05
7.11105e-05
0.000122821
2.55257e-05
3.15284e-05
3.98708e-05
5.20316e-05
7.50232e-05
0.000122471
2.53719e-05
3.30448e-05
4.3184e-05
5.69741e-05
8.20224e-05
0.000120486
2.98611e-05
3.95777e-05
5.11682e-05
6.56832e-05
9.07757e-05
0.000116475
3.92922e-05
5.11776e-05
6.38304e-05
7.70875e-05
9.81455e-05
0.000110109
5.31547e-05
6.57743e-05
7.76752e-05
8.69982e-05
9.97863e-05
0.000101166
6.92453e-05
7.97238e-05
8.74161e-05
9.05693e-05
9.37464e-05
9.0178e-05
8.18552e-05
8.83137e-05
8.95641e-05
8.69978e-05
8.5199e-05
7.86197e-05
7.13982e-05
7.32719e-05
7.2251e-05
7.07758e-05
7.25589e-05
8.12114e-05
6.22149e-05
6.53883e-05
6.60759e-05
6.72416e-05
7.34697e-05
9.17074e-05
5.49965e-05
5.88839e-05
6.01722e-05
6.25619e-05
7.17829e-05
9.98149e-05
4.7142e-05
5.19398e-05
5.45057e-05
5.80878e-05
6.8408e-05
0.000105401
3.83095e-05
4.43701e-05
4.90329e-05
5.44672e-05
6.5342e-05
0.000108651
3.0275e-05
3.68743e-05
4.36642e-05
5.1717e-05
6.44596e-05
0.000110119
2.41116e-05
3.08846e-05
3.9329e-05
4.9754e-05
6.50844e-05
0.000111086
2.03223e-05
2.71423e-05
3.67065e-05
4.89072e-05
6.78638e-05
0.000111314
1.94972e-05
2.67616e-05
3.70068e-05
5.04248e-05
7.32231e-05
0.000110103
2.22548e-05
3.0437e-05
4.12088e-05
5.54875e-05
8.03036e-05
0.000107142
2.87716e-05
3.81981e-05
5.01012e-05
6.46346e-05
8.697e-05
0.000102304
3.82386e-05
4.87406e-05
6.20719e-05
7.49806e-05
9.01291e-05
9.5782e-05
5.02596e-05
6.13553e-05
7.42251e-05
8.20334e-05
8.63464e-05
8.73296e-05
6.319e-05
7.40739e-05
8.29345e-05
8.31367e-05
7.99273e-05
7.75019e-05
7.62783e-05
0.00012852
0.000112303
0.000102761
9.12759e-05
7.91097e-05
9.30921e-05
0.000129975
9.935e-05
8.26505e-05
6.85984e-05
5.73495e-05
0.000105991
0.00011632
7.95729e-05
6.10537e-05
4.82345e-05
3.87883e-05
0.000114283
9.58351e-05
6.11537e-05
4.42816e-05
3.38763e-05
2.61277e-05
0.000119543
7.83766e-05
4.87199e-05
3.45136e-05
2.58439e-05
1.90236e-05
0.000122428
6.7806e-05
4.25833e-05
3.08385e-05
2.32672e-05
1.64136e-05
0.000124004
6.37355e-05
4.17614e-05
3.21088e-05
2.50923e-05
1.72547e-05
0.000123947
6.48194e-05
4.50311e-05
3.75297e-05
3.11168e-05
2.13389e-05
0.000121719
6.93336e-05
5.09384e-05
4.56716e-05
4.08519e-05
2.90547e-05
0.000116749
7.57977e-05
5.84309e-05
5.46835e-05
5.27412e-05
4.18596e-05
0.000108998
8.20336e-05
6.63486e-05
6.2945e-05
6.3236e-05
5.57356e-05
9.89229e-05
8.59327e-05
7.34595e-05
7.02404e-05
7.15601e-05
6.73105e-05
8.75184e-05
8.64946e-05
7.91905e-05
7.67078e-05
7.81926e-05
7.62498e-05
7.57124e-05
8.44789e-05
8.32207e-05
8.29394e-05
8.53303e-05
8.53157e-05
7.91337e-05
0.000121488
0.000115839
0.000109832
9.70588e-05
8.33053e-05
9.21618e-05
0.000125384
0.00010391
8.78862e-05
7.21046e-05
5.97435e-05
0.000102339
0.000113751
8.285e-05
6.35326e-05
4.92182e-05
3.90526e-05
0.000108865
9.39272e-05
6.18803e-05
4.41633e-05
3.27938e-05
2.44851e-05
0.00011285
7.63716e-05
4.72842e-05
3.22342e-05
2.30053e-05
1.60286e-05
0.000115121
6.4288e-05
3.99047e-05
2.72058e-05
1.90405e-05
1.2569e-05
0.000116002
5.83843e-05
3.84339e-05
2.7655e-05
1.97771e-05
1.2773e-05
0.000116017
5.76928e-05
4.14075e-05
3.27304e-05
2.47015e-05
1.58673e-05
0.00011505
6.0469e-05
4.72093e-05
4.14497e-05
3.37663e-05
2.20562e-05
0.000112832
6.55297e-05
5.41236e-05
5.21159e-05
4.68576e-05
3.2946e-05
0.000108169
7.18661e-05
6.13968e-05
6.19131e-05
6.00777e-05
4.79184e-05
0.000100769
7.7062e-05
6.84835e-05
7.01735e-05
7.10059e-05
6.16893e-05
9.09827e-05
7.92298e-05
7.46944e-05
7.70849e-05
7.9408e-05
7.34986e-05
7.97808e-05
7.83909e-05
7.94565e-05
8.41613e-05
8.87928e-05
8.65526e-05
8.22548e-05
0.000112298
0.000108226
9.84078e-05
8.29514e-05
6.92283e-05
9.20001e-05
0.000115403
9.52003e-05
7.65844e-05
6.02245e-05
4.90822e-05
9.88675e-05
0.000105083
7.49276e-05
5.47414e-05
4.06316e-05
3.17657e-05
0.000103344
8.72386e-05
5.52413e-05
3.774e-05
2.68716e-05
1.94735e-05
0.000106397
7.15794e-05
4.2064e-05
2.72798e-05
1.85825e-05
1.22123e-05
0.000107648
6.03832e-05
3.62969e-05
2.32269e-05
1.51894e-05
9.25981e-06
0.000107308
5.49835e-05
3.59987e-05
2.41221e-05
1.5813e-05
9.34374e-06
0.000106249
5.42354e-05
3.97398e-05
2.89235e-05
1.95244e-05
1.14868e-05
0.000105062
5.65568e-05
4.61296e-05
3.71961e-05
2.64069e-05
1.57189e-05
0.000103727
6.05209e-05
5.37953e-05
4.81988e-05
3.72947e-05
2.34832e-05
0.000100958
6.58245e-05
6.11968e-05
5.89634e-05
4.99259e-05
3.5933e-05
9.59595e-05
7.1039e-05
6.80475e-05
6.82497e-05
6.13078e-05
4.77186e-05
8.84379e-05
7.39652e-05
7.38764e-05
7.60071e-05
7.11507e-05
5.96524e-05
7.87079e-05
7.40843e-05
7.86335e-05
8.42417e-05
8.2659e-05
7.35066e-05
7.2245e-05
0.000123467
0.000105933
9.6825e-05
9.03022e-05
8.55467e-05
8.88605e-05
0.000125737
9.7556e-05
8.55372e-05
7.75029e-05
7.15616e-05
0.00010238
0.00011697
8.25435e-05
6.88087e-05
6.02634e-05
5.40365e-05
0.000111534
0.000101623
6.61227e-05
5.24215e-05
4.46174e-05
3.89347e-05
0.000117456
8.82118e-05
5.40206e-05
4.08519e-05
3.37963e-05
2.86697e-05
0.000121238
8.11707e-05
4.83833e-05
3.57069e-05
2.88031e-05
2.36741e-05
0.000123003
8.09019e-05
4.93599e-05
3.6889e-05
2.94522e-05
2.32848e-05
0.000122264
8.61072e-05
5.62226e-05
4.41562e-05
3.58457e-05
2.72042e-05
0.000118641
9.42902e-05
6.69969e-05
5.59212e-05
4.71359e-05
3.53127e-05
0.000111985
0.00010136
7.88234e-05
6.94098e-05
6.13737e-05
4.77122e-05
0.000102828
0.000105327
8.90602e-05
8.20589e-05
7.58194e-05
6.19649e-05
9.22645e-05
0.000107149
9.75988e-05
9.34895e-05
8.88208e-05
7.48995e-05
8.13255e-05
0.000108303
0.00010522
0.00010353
9.97307e-05
8.63718e-05
7.06491e-05
0.000113796
0.000113119
0.000112783
0.000109694
9.79917e-05
7.65297e-05
0.000116114
0.000106508
0.000101626
9.56122e-05
9.01756e-05
8.85722e-05
0.000119234
0.000100373
9.06206e-05
8.19856e-05
7.51948e-05
9.85645e-05
0.000111282
8.58036e-05
7.26688e-05
6.31166e-05
5.62223e-05
0.000105519
9.67347e-05
6.78774e-05
5.42107e-05
4.56621e-05
3.96002e-05
0.000110241
8.2368e-05
5.32622e-05
4.02632e-05
3.2982e-05
2.78424e-05
0.000113739
7.27182e-05
4.50708e-05
3.29796e-05
2.62367e-05
2.14338e-05
0.000116425
6.9036e-05
4.35678e-05
3.22425e-05
2.53797e-05
2.00613e-05
0.000117795
7.1116e-05
4.82334e-05
3.81144e-05
3.06566e-05
2.34337e-05
0.000117586
7.81198e-05
5.79044e-05
4.97808e-05
4.18454e-05
3.12262e-05
0.000114786
8.73692e-05
7.0506e-05
6.48837e-05
5.74766e-05
4.41001e-05
0.000108766
9.53832e-05
8.35965e-05
8.05621e-05
7.44387e-05
5.98524e-05
9.99529e-05
0.000100277
9.53833e-05
9.53405e-05
9.0337e-05
7.50471e-05
8.93295e-05
0.000101538
0.000104978
0.000108305
0.000104094
8.8872e-05
7.76615e-05
0.000105248
0.000113278
0.000119492
0.000116913
0.000103364
8.14772e-05
0.000103373
0.000101937
9.63899e-05
8.81219e-05
8.04073e-05
9.03341e-05
0.000108376
9.62184e-05
8.36543e-05
7.26706e-05
6.48454e-05
9.62749e-05
0.000103818
8.19685e-05
6.58948e-05
5.48613e-05
4.79577e-05
0.000100104
9.15579e-05
6.38127e-05
4.86014e-05
3.9568e-05
3.37693e-05
0.000102845
7.75958e-05
4.89611e-05
3.56037e-05
2.83357e-05
2.35608e-05
0.000104786
6.67799e-05
4.06017e-05
2.8686e-05
2.21046e-05
1.77221e-05
0.000105864
6.0123e-05
3.828e-05
2.74057e-05
2.08757e-05
1.62297e-05
0.000106476
5.86626e-05
4.10764e-05
3.15709e-05
2.45619e-05
1.86545e-05
0.000107324
6.24064e-05
4.83353e-05
4.08509e-05
3.29893e-05
2.45899e-05
0.000107848
7.03095e-05
5.93136e-05
5.42824e-05
4.59004e-05
3.46239e-05
0.000106131
8.04569e-05
7.26869e-05
6.97428e-05
6.10745e-05
4.74464e-05
0.000101347
8.92539e-05
8.64745e-05
8.5336e-05
7.63344e-05
6.06854e-05
9.31683e-05
9.4364e-05
9.84843e-05
9.95141e-05
9.02208e-05
7.37222e-05
8.2622e-05
9.77437e-05
0.000108011
0.000111686
0.000103699
8.80132e-05
3.29109e-05
2.70952e-05
2.14293e-05
1.70095e-05
1.34137e-05
1.06828e-05
8.65887e-06
7.34606e-06
7.40307e-06
9.90121e-06
1.55423e-05
2.40654e-05
3.51137e-05
4.89193e-05
2.0702e-05
1.62657e-05
1.23524e-05
9.6133e-06
7.60787e-06
6.06847e-06
4.87468e-06
4.08398e-06
4.23308e-06
6.33502e-06
1.13594e-05
1.93536e-05
2.96817e-05
4.13544e-05
1.16719e-05
8.09068e-06
5.78278e-06
4.3776e-06
3.47612e-06
2.77818e-06
2.23784e-06
1.9745e-06
2.41402e-06
4.38944e-06
8.77809e-06
1.5686e-05
2.44249e-05
3.43531e-05
5.82888e-06
3.26168e-06
2.06316e-06
1.49298e-06
1.19092e-06
9.73161e-07
8.29612e-07
8.86868e-07
1.4787e-06
3.24066e-06
6.89179e-06
1.26239e-05
1.99296e-05
2.81639e-05
3.05557e-06
1.28101e-06
6.11985e-07
3.80334e-07
2.94838e-07
2.57339e-07
2.76054e-07
4.60834e-07
1.09004e-06
2.66563e-06
5.73957e-06
1.04751e-05
1.64287e-05
2.29086e-05
2.25525e-06
7.75426e-07
2.5351e-07
9.9506e-08
6.08115e-08
6.51779e-08
1.26172e-07
3.43811e-07
9.58475e-07
2.36815e-06
4.97604e-06
8.87756e-06
1.3697e-05
1.88271e-05
2.30602e-06
7.66751e-07
2.28192e-07
6.75079e-08
2.91284e-08
4.0666e-08
1.15965e-07
3.49632e-07
9.4858e-07
2.22227e-06
4.45488e-06
7.70238e-06
1.16694e-05
1.58735e-05
2.8342e-06
9.77529e-07
3.11178e-07
1.06619e-07
5.54353e-08
6.9984e-08
1.60427e-07
4.13217e-07
1.00153e-06
2.16455e-06
4.10465e-06
6.86246e-06
1.02398e-05
1.39798e-05
3.86515e-06
1.39164e-06
5.13692e-07
2.41242e-07
1.58268e-07
1.75072e-07
2.87761e-07
5.66352e-07
1.14916e-06
2.22177e-06
3.9485e-06
6.39294e-06
9.51543e-06
1.33674e-05
5.6166e-06
2.12346e-06
9.43101e-07
5.83016e-07
4.55762e-07
4.67663e-07
6.15324e-07
9.41876e-07
1.55309e-06
2.6156e-06
4.32332e-06
6.843e-06
1.02799e-05
1.48927e-05
8.87661e-06
3.6193e-06
1.81182e-06
1.32523e-06
1.15881e-06
1.18261e-06
1.40482e-06
1.85903e-06
2.66449e-06
4.01159e-06
6.16438e-06
9.40351e-06
1.36997e-05
1.92545e-05
1.43341e-05
7.26362e-06
3.58139e-06
2.75646e-06
2.59504e-06
2.71481e-06
3.13351e-06
3.90599e-06
5.19225e-06
7.20053e-06
1.0217e-05
1.45055e-05
1.97661e-05
2.58224e-05
2.22591e-05
1.30116e-05
7.17104e-06
5.25489e-06
5.14376e-06
5.46608e-06
6.24503e-06
7.54052e-06
9.51779e-06
1.23486e-05
1.62143e-05
2.13531e-05
2.76157e-05
3.38718e-05
2.92956e-05
2.03248e-05
1.38062e-05
1.00582e-05
9.15481e-06
9.61762e-06
1.0745e-05
1.26646e-05
1.53891e-05
1.90698e-05
2.37606e-05
2.933e-05
3.64104e-05
4.34451e-05
1.69301e-05
1.42399e-05
1.17245e-05
9.74347e-06
8.27227e-06
7.10182e-06
6.15166e-06
5.36434e-06
5.03789e-06
5.84137e-06
8.55848e-06
1.3324e-05
1.97442e-05
2.76605e-05
1.02569e-05
7.91836e-06
6.18714e-06
5.06334e-06
4.3099e-06
3.69401e-06
3.17389e-06
2.75875e-06
2.70238e-06
3.53763e-06
6.03179e-06
1.05782e-05
1.69131e-05
2.44901e-05
5.58013e-06
3.62045e-06
2.60637e-06
2.07721e-06
1.77554e-06
1.53287e-06
1.32787e-06
1.20944e-06
1.39084e-06
2.30762e-06
4.611e-06
8.7135e-06
1.44081e-05
2.1284e-05
2.87279e-06
1.42392e-06
8.59654e-07
6.45897e-07
5.49547e-07
4.84047e-07
4.46067e-07
4.90667e-07
7.86029e-07
1.68425e-06
3.71141e-06
7.26881e-06
1.23101e-05
1.84749e-05
1.7429e-06
6.36844e-07
2.65302e-07
1.59006e-07
1.26449e-07
1.17463e-07
1.37543e-07
2.39009e-07
5.67753e-07
1.42368e-06
3.23664e-06
6.34254e-06
1.07359e-05
1.60812e-05
1.43587e-06
4.54e-07
1.35769e-07
4.73155e-08
2.66275e-08
2.99576e-08
6.36895e-08
1.80405e-07
5.16652e-07
1.33338e-06
2.97528e-06
5.70045e-06
9.49898e-06
1.40981e-05
1.46715e-06
4.61678e-07
1.31343e-07
3.61782e-08
1.44808e-08
2.03952e-08
6.06295e-08
1.89461e-07
5.36134e-07
1.32531e-06
2.82918e-06
5.24368e-06
8.56044e-06
1.2574e-05
1.74052e-06
5.71107e-07
1.72414e-07
5.55539e-08
2.8366e-08
3.62581e-08
8.52281e-08
2.301e-07
5.90686e-07
1.35772e-06
2.74534e-06
4.91077e-06
7.85538e-06
1.14341e-05
2.25544e-06
7.81751e-07
2.81252e-07
1.28785e-07
8.58376e-08
9.54849e-08
1.58156e-07
3.24469e-07
7.01104e-07
1.45007e-06
2.74734e-06
4.72926e-06
7.41784e-06
1.0742e-05
3.09379e-06
1.15863e-06
5.40982e-07
3.37884e-07
2.67753e-07
2.74247e-07
3.55723e-07
5.52154e-07
9.53013e-07
1.69635e-06
2.9484e-06
4.85022e-06
7.46899e-06
1.08296e-05
4.54471e-06
1.91433e-06
1.10551e-06
8.36972e-07
7.34888e-07
7.39092e-07
8.56438e-07
1.11753e-06
1.6068e-06
2.45694e-06
3.84564e-06
5.93117e-06
8.78473e-06
1.24701e-05
7.4888e-06
3.46667e-06
2.21451e-06
1.87805e-06
1.76609e-06
1.80572e-06
2.01576e-06
2.42952e-06
3.1556e-06
4.33296e-06
6.15329e-06
8.76518e-06
1.2097e-05
1.60225e-05
1.19414e-05
6.47557e-06
4.19225e-06
3.75601e-06
3.70889e-06
3.88749e-06
4.31344e-06
5.02738e-06
6.1817e-06
7.90169e-06
1.03323e-05
1.35598e-05
1.7428e-05
2.11893e-05
1.69067e-05
1.12261e-05
8.02103e-06
6.85481e-06
6.83669e-06
7.28889e-06
8.09479e-06
9.26804e-06
1.09704e-05
1.32682e-05
1.62109e-05
1.98969e-05
2.43328e-05
2.81468e-05
7.57233e-06
6.17806e-06
5.26918e-06
4.62505e-06
4.27654e-06
3.97816e-06
3.71371e-06
3.42498e-06
3.22201e-06
3.33222e-06
4.24823e-06
6.39336e-06
9.85613e-06
1.46506e-05
4.25674e-06
3.02414e-06
2.39517e-06
2.05742e-06
1.91014e-06
1.79117e-06
1.68018e-06
1.55549e-06
1.52865e-06
1.7965e-06
2.75324e-06
4.81912e-06
8.23395e-06
1.30036e-05
2.27839e-06
1.27601e-06
8.8228e-07
7.29815e-07
6.72455e-07
6.32853e-07
6.01953e-07
5.89204e-07
6.79742e-07
1.04308e-06
2.0002e-06
3.93973e-06
7.16148e-06
1.17418e-05
1.3326e-06
5.35773e-07
2.75185e-07
2.03142e-07
1.8092e-07
1.71083e-07
1.73392e-07
2.08324e-07
3.41868e-07
7.19244e-07
1.61041e-06
3.37824e-06
6.35123e-06
1.06577e-05
9.72076e-07
3.03144e-07
1.00759e-07
5.03909e-08
3.82268e-08
3.7454e-08
4.95998e-08
9.62967e-08
2.38387e-07
6.11843e-07
1.46077e-06
3.11571e-06
5.87809e-06
9.85506e-06
8.53478e-07
2.49753e-07
6.87753e-08
2.00611e-08
8.94157e-09
1.01125e-08
2.45206e-08
7.45794e-08
2.21819e-07
5.9829e-07
1.42941e-06
3.00361e-06
5.57172e-06
9.20316e-06
8.52068e-07
2.56346e-07
7.00186e-08
1.79038e-08
6.28589e-09
8.1415e-09
2.48469e-08
8.09204e-08
2.40578e-07
6.33305e-07
1.46526e-06
2.98308e-06
5.38628e-06
8.7182e-06
9.7401e-07
3.07103e-07
8.77187e-08
2.66962e-08
1.32526e-08
1.62034e-08
3.71497e-08
1.03159e-07
2.80995e-07
6.96768e-07
1.53659e-06
3.00945e-06
5.27362e-06
8.35599e-06
1.20855e-06
4.03506e-07
1.38904e-07
6.24136e-08
4.27341e-08
4.6836e-08
7.4831e-08
1.55538e-07
3.56985e-07
8.00412e-07
1.65272e-06
3.09222e-06
5.24547e-06
8.13534e-06
1.57387e-06
5.90163e-07
2.79958e-07
1.7611e-07
1.41917e-07
1.44934e-07
1.83267e-07
2.8507e-07
5.1474e-07
9.84183e-07
1.84272e-06
3.24603e-06
5.30327e-06
8.03341e-06
2.17895e-06
9.98452e-07
6.24558e-07
4.78655e-07
4.17226e-07
4.13609e-07
4.68805e-07
6.0732e-07
8.85513e-07
1.40283e-06
2.30028e-06
3.71441e-06
5.73552e-06
8.40852e-06
3.36207e-06
1.84065e-06
1.36283e-06
1.17219e-06
1.07761e-06
1.06697e-06
1.15099e-06
1.35294e-06
1.72586e-06
2.35637e-06
3.37193e-06
4.89535e-06
6.99386e-06
9.72673e-06
5.50438e-06
3.38164e-06
2.73393e-06
2.53124e-06
2.44558e-06
2.46462e-06
2.62094e-06
2.94657e-06
3.51116e-06
4.39541e-06
5.70263e-06
7.5197e-06
9.82822e-06
1.25327e-05
8.78578e-06
6.10701e-06
5.02076e-06
4.80512e-06
4.84927e-06
5.04101e-06
5.39627e-06
5.96406e-06
6.84337e-06
8.09692e-06
9.77747e-06
1.19791e-05
1.46838e-05
1.74082e-05
3.15247e-06
2.36303e-06
1.99985e-06
1.81976e-06
1.81468e-06
1.84718e-06
1.8845e-06
1.87478e-06
1.8445e-06
1.85912e-06
2.14036e-06
2.9977e-06
4.70384e-06
7.42231e-06
1.71518e-06
1.04734e-06
7.90673e-07
6.95482e-07
6.89507e-07
7.03745e-07
7.26537e-07
7.36927e-07
7.57585e-07
8.57224e-07
1.21295e-06
2.07583e-06
3.7162e-06
6.34379e-06
9.70102e-07
4.30778e-07
2.58298e-07
2.11712e-07
2.04762e-07
2.0733e-07
2.16917e-07
2.34708e-07
2.84064e-07
4.25748e-07
7.9761e-07
1.61357e-06
3.15798e-06
5.73487e-06
6.62752e-07
2.09672e-07
8.03967e-08
5.19868e-08
4.65283e-08
4.67279e-08
5.23802e-08
7.06799e-08
1.24175e-07
2.66924e-07
6.14813e-07
1.36922e-06
2.82445e-06
5.32405e-06
5.37268e-07
1.46749e-07
3.92984e-08
1.41831e-08
8.86877e-09
8.88438e-09
1.36898e-08
3.06863e-08
8.1897e-08
2.20802e-07
5.60883e-07
1.30401e-06
2.74228e-06
5.21117e-06
4.78482e-07
1.31243e-07
3.37116e-08
8.35597e-09
2.65164e-09
2.63567e-09
7.30865e-09
2.43003e-08
7.70045e-08
2.22127e-07
5.76769e-07
1.34255e-06
2.79452e-06
5.22304e-06
4.72152e-07
1.36046e-07
3.51091e-08
8.2352e-09
2.48078e-09
2.66553e-09
8.0876e-09
2.76907e-08
8.81626e-08
2.52331e-07
6.43136e-07
1.45776e-06
2.94183e-06
5.32225e-06
5.34744e-07
1.60262e-07
4.25676e-08
1.20128e-08
5.69972e-09
6.39801e-09
1.36932e-08
3.86918e-08
1.12513e-07
3.04812e-07
7.42752e-07
1.61216e-06
3.12239e-06
5.43683e-06
6.50184e-07
2.04006e-07
6.57157e-08
2.86373e-08
1.9965e-08
2.14071e-08
3.21797e-08
6.61256e-08
1.59403e-07
3.87718e-07
8.77974e-07
1.79675e-06
3.31695e-06
5.56186e-06
8.18681e-07
2.9713e-07
1.38569e-07
8.66149e-08
7.03206e-08
7.15396e-08
8.86257e-08
1.37009e-07
2.55797e-07
5.21389e-07
1.05443e-06
2.00381e-06
3.51245e-06
5.67622e-06
1.10763e-06
5.31761e-07
3.39389e-07
2.58277e-07
2.21805e-07
2.16683e-07
2.42369e-07
3.13556e-07
4.65973e-07
7.70783e-07
1.34253e-06
2.31741e-06
3.81287e-06
5.90068e-06
1.71791e-06
1.05874e-06
8.12096e-07
6.89213e-07
6.16322e-07
5.93264e-07
6.26093e-07
7.29044e-07
9.31347e-07
1.29014e-06
1.90703e-06
2.90411e-06
4.39297e-06
6.45311e-06
2.85736e-06
2.06534e-06
1.75441e-06
1.6046e-06
1.49936e-06
1.45728e-06
1.49975e-06
1.64707e-06
1.93082e-06
2.40045e-06
3.13123e-06
4.21334e-06
5.73965e-06
7.77596e-06
4.8095e-06
3.77765e-06
3.35007e-06
3.23116e-06
3.18452e-06
3.19125e-06
3.28854e-06
3.51691e-06
3.92349e-06
4.57453e-06
5.5276e-06
6.83545e-06
8.50877e-06
1.05732e-05
1.37688e-06
9.13809e-07
7.29329e-07
6.61035e-07
6.82398e-07
7.42507e-07
8.21749e-07
8.88187e-07
9.30224e-07
9.5653e-07
1.06575e-06
1.44809e-06
2.33956e-06
3.91045e-06
7.50601e-07
3.7508e-07
2.52858e-07
2.19159e-07
2.23642e-07
2.42824e-07
2.71656e-07
3.00767e-07
3.29322e-07
3.76041e-07
5.23768e-07
9.13662e-07
1.73158e-06
3.15705e-06
4.56946e-07
1.56822e-07
7.42362e-08
5.74095e-08
5.69217e-08
6.12764e-08
6.94707e-08
8.16715e-08
1.04418e-07
1.60633e-07
3.10701e-07
6.62718e-07
1.38859e-06
2.72626e-06
3.39433e-07
8.85861e-08
2.48874e-08
1.27889e-08
1.10921e-08
1.18245e-08
1.45136e-08
2.14333e-08
4.04816e-08
9.26058e-08
2.2655e-07
5.3971e-07
1.20655e-06
2.49854e-06
2.81793e-07
6.99621e-08
1.62792e-08
4.40872e-09
2.05711e-09
2.02896e-09
3.55918e-09
8.93781e-09
2.57995e-08
7.44136e-08