/*--------------------------------*- C++ -*----------------------------------*\
| =========                 |                                                 |
| \\      /  F ield         | OpenFOAM: The Open Source CFD Toolbox           |
|  \\    /   O peration     | Version:  v2106                                 |
|   \\  /    A nd           | Website:  www.openfoam.com                      |
|    \\/     M anipulation  |                                                 |
\*---------------------------------------------------------------------------*/
FoamFile
{
    version     2.0;
    format      ascii;
    arch        "LSB;label=32;scalar=64";
    class       volScalarField;
    location    "0.000147";
    object      epsilon;
}
// * * * * * * * * * * * * * * * * * * * * * * * * * * * * * * * * * * * * * //

dimensions      [0 2 -3 0 0 0 0];

internalField   nonuniform List<scalar> 
18273
(
144648
124686
106691
82219.5
58590.7
37948.7
25562
18173.7
16253.1
19679.7
28640.2
42668.5
62241.8
88518.6
141277
121428
97681.8
69927.9
45594.1
26895.3
16087.4
10110.1
8715.31
12116.2
20835.2
33424.5
48742
67382.3
130016
104177
79397.9
52214.9
29613.7
14976
7527.05
4077.92
3539.76
6387.68
14058.8
25628
38610.7
53537.8
104165
78175.9
55410.9
31062.4
13348.1
5417.13
2161.98
1010.79
1046.78
2846.87
8207.47
17601.9
28772.9
40817.7
78979.2
55565.2
32888.9
13593.1
5011.29
1721.17
529.931
188.186
289.344
1235.07
4434.44
11178.9
20480.3
30521.4
60491.6
39035.1
20261.9
9417.14
4253.33
1547.24
444.605
142.833
162.032
621.221
2371.54
6696.75
13893
22669.7
50304.9
33054.6
20115.8
12356
6208.96
2398.74
793.5
387.533
373.652
679.731
1794.69
4749.56
10383.2
18090.1
48787.9
36803.8
27678.6
18986.4
10605.9
4584.52
1825.58
1178.81
1236.19
1705.83
2795.15
5334.97
10005.6
16720.5
53539.8
45295.5
38235.6
29051.7
18226.2
8948.29
4125.32
3069.71
3483.86
4677.11
6547.07
9661.48
14061.9
19804.8
65956.1
60224.4
53251.8
43205.7
30075.3
16921.3
8739.94
6746.62
7856.45
10422.3
13782.6
18135.6
22545.6
27578
82256
78871.3
73578
61973.2
46271.3
29489.2
17099.2
12944.4
14453.4
18586.8
23573.8
29309.5
34314.9
39850.9
103904
101648
98650.4
85174.9
66282.3
46211
30007.1
22509.5
22911.8
27809.6
34187.6
41861.6
49071.8
57546.4
120077
119857
120692
107861
86138.8
63705.1
45485.2
35172.6
33156.8
37557
45324.1
55820.6
66588.2
80400.8
144364
141149
140203
128448
104348
79343.1
60081.3
48273.8
44492.9
48337.9
57662.4
71653.1
85236.4
106025
138430
125108
108177
82155.3
59458.4
40203.5
28707.1
23389
26406.3
37553.8
54248.6
75021.5
99113.6
123516
152563
133194
107021
75513.2
49562.6
29255.7
17360.9
11969.8
13795.3
23444
39315.2
57118.6
74902.5
92522.5
160873
129418
97104.6
62723.2
35068.6
16837.2
7867.31
4489.39
5703.86
12840.4
26599.5
42954.2
57654.6
72079.9
146107
108303
75858.8
42049.2
17481.7
6311.74
2213.89
1089.94
1887.17
5987.68
15473.1
28916.7
41838.3
53559.9
122827
85142.4
49549.2
19893.3
6423.84
1969.85
536.649
224.341
624.092
2620.93
8150.07
17879.1
29189.6
39937.5
99558.9
61577.4
28898.1
11605.5
4948
1722.48
476.251
183.879
332.402
1264.33
4156.55
10292.9
19471.3
30019.6
80086.2
47047.2
24728.5
14571.6
7313.26
2815.96
955.868
540.622
634.623
1293.81
3220.81
7590.92
15190.2
25493.8
70079.4
47021
33036.6
22758.9
13070.7
5808.03
2413.21
1717.57
2004.67
3058.47
5271.42
9655.08
17089
27376.7
69178.6
53816.7
44957.2
35410.1
23541.8
12131.9
5772.66
4530.55
5534.08
8014.15
11991.6
18106.4
26388
36624.9
76584.4
67367
61375.6
53202.2
40352.1
24201.7
12714.9
9928.52
12052.2
16825.9
23398.9
31830.2
40818.9
50910.1
87393
83443
82330.9
75843.2
63375
44322.2
26330.7
19047.7
21237.3
27984.2
36555.5
46972.3
57311.7
69064.9
107137
106252
110200
104616
91613.2
70989.7
48263.1
34265.3
32743
39375.2
48789.6
61546
74853.6
91423.2
122342
123428
133896
132802
119582
98811
74989.2
55797.1
47908.5
51230.6
60400
75298.9
91324.2
114596
144613
144539
154678
158117
145495
123291
98967.9
77786.3
65505.3
64793.7
72928.4
90233.3
106313
132768
114573
103284
90080
70805.5
56059.2
42088.3
33515.1
33945
46729.8
67894.2
88828
107017
121125
128377
131934
114448
93538.6
69062.2
48220.2
29581.3
18183
15393.7
23339.7
41656.3
63680.1
81655.5
92979.4
97514.1
147882
122045
94729.9
64043.2
36436.5
16924.4
7610.52
5209.73
9418.7
22286.4
42306.1
61038.3
72436.3
78682.2
152215
118318
83936.6
46814.1
19047.1
6247.7
1980.07
1221.51
3188.41
10184.9
24056.8
40757.3
53334.2
60678
154006
109275
61267
23876.5
7020.27
1872.04
451.192
275.466
1075.87
4253.07
12101.6
24405.7
37016.6
47375
145699
87571.7
36472.6
12650.5
4795.51
1528
393.804
190.854
495.941
1864.89
5692.19
13300.8
24363.1
37210.3
123169
64442.2
28208.2
14665.2
6929.1
2545.54
856.651
548.938
777.637
1787.14
4514.39
10480.2
20951.6
35585.6
101974
57988.9
35856.3
23258
12909.4
5637.67
2384.79
1850.13
2397.82
4087.47
7721.55
14941.2
27235
43990.1
91683.8
62021.2
48196.6
36972
24483.2
12698.7
6192.1
5137.4
6740.38
10619.2
17319.2
28009.1
43028.8
61045.1
89705.3
70546.9
63087.6
55603.7
43735.5
27135.4
14646.5
11687.6
14794
21896.7
32295.8
46063.3
61991.3
79598.6
88851.6
78575.4
78817.7
77250.9
70447.2
53115.9
32338.7
23366
26211.9
35451.7
47666.7
62459.9
78175.7
95551.7
96623.1
93749.4
99786.8
101721
100500
88366.3
64569.9
44929.1
40937.7
48875
60133.8
74827.7
91181.3
110626
100367
103990
116750
124258
128564
124710
105712
79235.7
63330.1
63146.1
70196.3
83641
98727
121838
114717
120060
132390
144221
152427
153393
140740
115398
91858.2
81509
81742.7
92741.8
103191
125898
119386
160889
220483
334102
576255
116680
84885.6
114967
163574
253535
485249
82713
68888.7
95373.9
140275
231599
519034
70391.3
54064.6
75979.1
114488
206236
585651
66394
41491
58273.9
87479.3
171491
647278
65858.9
32111
45008.6
66631.9
136708
680428
67680.6
26494.5
37149.2
54267.4
112974
674917
73370.3
24180.8
33752.4
48364.4
99371.4
653336
80861.9
26060
35094.4
48800.1
97620.7
633559
88591
32539.4
42145.4
57620.4
110092
635420
98047.3
44138
56562.9
78004.6
140304
657426
113230
61454.7
79207.7
111573
188618
687902
138131
84506.5
110179
157737
252448
713906
169395
110063
144858
205928
320586
720947
180042
138468
167983
207622
277598
392873
172751
103799
132068
177012
254652
402503
146927
84989.5
110111
151664
233529
435717
127594
65345.7
85126
118193
197455
457119
111190
50450.9
65727.8
89694.3
157300
461157
97296.2
40300.8
53371.3
71290.1
123231
446999
86650.5
36078.2
48370.5
62716.8
99922.5
420793
80925.8
37797.1
50074.9
62850.7
93353.1
387352
81268.1
45835.4
58269.5
71388.7
102852
368195
86108.6
59059.5
73059.8
89651.1
128991
370518
94170.9
76790.4
95148.2
118584
170814
392622
108682
97529.1
121639
154676
220946
426020
135224
119854
149264
192332
268183
462340
171774
138523
171927
223491
305210
501530
203226
121296
129934
138760
161478
208525
322336
96258.8
108302
124590
150769
202386
231078
82249.6
92864.4
107655
131329
187825
168356
66403.9
76965.4
90547.8
111085
172118
126077
55907.6
67956.6
80046.4
96919.9
153416
99786.9
49789
64532
76933.2
90880.3
134121
86871.8
51612.6
69056.9
80825.9
91091.4
121324
87046.7
61835.3
80532
91081.1
97363.8
116740
101195
77939
95836.7
105185
108349
119199
129745
93796
109563
117644
119876
126742
170028
106684
120580
127345
135594
140979
222976
117207
129316
137050
155285
161167
284386
126404
136770
147540
172570
187732
341195
127572
139992
154888
182186
223217
380744
137130
179576
243607
364113
617804
118920
105515
139831
196282
304238
569064
83661.6
88860.6
118454
170488
284881
620122
70299.3
71308.5
94511.3
139199
257578
677450
64756.6
59127
76516.8
111448
225741
710460
61833.2
54379.4
68129.6
94771.8
198211
718921
60248.1
57685.5
68899
89668.2
181921
711906
60260.5
68066.1
77781.2
96148.2
183407
697496
62743.2
83943.8
94645.8
114038
203004
688630
68518.6
103114
117807
141116
230282
684456
80388
120477
140755
172215
258758
658983
105610
133508
156933
201058
291316
627149
139271
143406
169122
223560
321801
613799
167660
152257
180119
241133
343794
620102
173049
151286
186936
239636
327921
490462
179148
125408
158485
212681
312345
518774
151442
106003
130382
175450
278520
538183
130653
85632.4
103692
138383
234283
523109
113693
77003.3
91421.1
116749
199300
488551
100988
79221.1
91715.1
110007
178534
446673
93330.3
91617.4
101914
115633
175348
414752
90404.2
110206
118760
131480
191231
401233
92126.3
129964
138753
153435
221545
414963
99969.6
144498
156888
175353
252189
447009
118130
149658
166171
192640
272376
477957
151412
148714
166776
205298
290029
516644
196610
148149
168578
216818
310308
589847
242383
154597
178299
234957
342218
690225
275698
129249
139517
155501
184852
248106
331180
110906
121854
137943
166231
232477
239239
100108
107938
118568
141519
205696
181462
92888.1
102161
110208
127091
182049
149529
98800.7
110080
114531
124702
163136
138652
115201
126719
127057
129960
150138
145237
138603
146396
141702
137819
145836
165783
156790
157820
149806
143989
148461
198000
160076
155402
147663
150991
158567
239851
151322
146283
142341
160519
174433
286637
139511
137386
137804
167876
199014
328678
128282
129187
135061
170014
243936
359630
120639
125549
137309
175854
305066
382411
118603
126614
144643
191251
371490
394003
165781
489693
294044
218891
169951
145427
177736
536709
285461
205662
159203
138226
163995
596969
269798
185198
144030
126114
138193
658635
248177
160273
125364
107771
111467
713213
220725
134280
105606
89442
93709.4
744471
191647
112414
89596.8
74734.8
82846.4
771444
171334
98291
79130.9
64672.9
74449.5
807706
166025
91949.4
73781.2
60102.5
68612.2
832530
181727
94179.3
73860.9
61232.9
66962.2
833667
215520
108205
81983.9
70322.6
68955.6
800121
259536
136802
101226
86890.2
74646.6
740881
308649
179380
131986
110951
86739.3
652878
339336
221941
163658
133325
114790
600721
368634
261254
196775
160176
240634
430615
257529
194771
157144
138391
218950
400287
243723
188268
157936
145155
191119
401171
238333
184766
160007
149746
160790
425016
235083
178493
157507
144984
133814
450223
224958
165995
148134
134333
116816
460492
204885
150028
136043
121566
107132
472001
181865
135062
124409
106812
102059
501959
168747
123436
113081
94142.8
101247
544487
173177
117491
104310
86812.9
105772
599273
193666
119119
100790
86561.2
116952
650670
230175
133462
107059
93752.7
136413
705299
285255
166954
128323
112427
165895
730707
350079
217503
162876
137052
209374
742334
394542
261978
195582
161592
354134
228380
150566
127135
116980
111027
345478
184490
140931
125296
122724
123322
332003
156659
135084
126382
130658
135079
312442
143871
133803
129587
139356
144593
282604
142786
132299
135979
152048
158909
247799
143892
133586
148314
168113
171466
214526
148231
140457
160298
178391
168840
186617
158240
145529
160758
171765
149736
166194
174850
145113
150642
153706
128631
155790
200458
143008
137521
134469
113014
158919
235285
144132
126867
119125
103484
179849
282729
153665
123603
112693
103305
226327
341887
179361
133894
117249
106779
314742
400457
214158
153451
130824
118022
193529
727139
304696
189050
126595
93341.2
199164
739271
243972
143426
92970.7
69475.3
176191
716863
183720
102601
66783.9
50182.4
151377
682059
137369
74197.9
49602.6
36617.5
131068
660532
108985
58445.2
40132.9
28338
116154
660211
96956.2
52047.3
36548.2
25062.6
103122
676574
98196
52880.4
37986.7
26968.9
90814.7
700085
109901
59198
44755.5
34490.2
79072.8
715570
132288
71856.8
56474.8
46825.2
72540.5
695702
170547
94004.6
73919
64553.4
71682.9
630527
218351
127302
97261.2
84305.9
75032.5
551922
255492
164223
123777
105190
85030.3
466702
269868
191156
145549
121901
110554
432121
294425
223840
176885
148262
199039
446573
276217
205127
158436
126358
181941
453117
252167
180946
135960
106835
156771
446329
212613
148188
109580
85208.6
134966
426878
169192
116850
87116.1
66814.8
118442
409379
132772
93109.3
71491.6
52368
105875
402921
109074
78557
61098.5
41862
96073.3
414299
99487.8
72115.4
55279.8
37363.7
90152.3
443166
101488
71780
55933.9
40533.6
89754.9
476082
113703
78166.5
62691.7
49969.3
96752
499225
143262
92235.9
75051.2
65255.2
110280
506795
186176
117557
93961.9
83075.6
130720
515713
235297
154050
119808
104345
160451
496693
274423
190726
145340
122158
203696
456827
285733
210019
163584
135893
370670
186543
158752
143791
136720
125431
336640
165136
151749
141736
135844
123650
287780
153009
141004
138783
131463
115419
234445
144704
132337
136884
126443
106184
186440
139554
128114
130906
119434
93830.7
146658
137943
121731
121362
107720
76048.3
116045
140043
113830
109356
92155
59906.9
97284.8
144386
106664
99594.2
80755.9
52980.3
90622.7
155317
103253
94430
76081.2
55433.7
95441.8
176774
104809
93707.3
77254.7
63342.4
111998
198177
112485
96677.3
82345.1
71913.4
143454
224798
127419
105107
92012.3
84090.2
197117
249965
150692
120695
103339
93517.3
288824
260185
165768
132491
114609
102213
118478
97087.9
83908.3
67922.6
55781.5
41935.8
35956.4
42780.7
64434.4
91754.9
111818
121839
130368
142226
127838
103997
83731.8
63826.2
44304.6
26124.5
16095.1
16277.4
28815.7
51835.1
76656.4
94525.9
102698
104266
134472
109205
83107.9
56583.6
30876
13363.3
5649.71
4646.84
10444.1
25298.1
47256.3
68150.5
80003
84719.2
140142
111307
75315.4
40169.5
15468.5
4547.69
1262.44
909.08
3142.87
10657
25476.4
43952.2
58065.5
65360.8
155710
110114
58194.8
21669.3
5981.58
1360.12
279.58
188.963
917.217
3997.2
11902.7
24515.7
37842.3
50287.9
163034
94667.4
38292.5
12186.6
3768.51
1042.26
237.787
112.097
346.002
1418.77
4599.57
11490.4
22799.8
38583.2
147763
72710.7
28473.8
12209.3
4969.95
1657.18
520.59
334.04
513.134
1317.36
3626.23
9180.07
20361.6
39422.5
122635
61533.4
32509.6
18534.1
9308.83
3759.4
1545.72
1215.55
1648.37
3071.33
6387.5
13876.1
28597.9
52652.4
106973
63682
43839.7
30545.3
18528.9
9012.01
4348.34
3627.78
4917.87
8357.37
14898.8
27055.1
46889.9
74620.4
101910
71242.4
58438.7
47874.1
35040.5
20641.4
11099
8887.29
11555.8
18341.5
29284.5
45921.4
67763.8
94805.9
96646.6
76903.2
72837.6
68381.1
59833.6
43009.2
26129.8
19149.1
22041.4
31714.4
45496.6
63603.9
84220.2
106408
99880.8
88599.4
89021.1
89887.5
90314.8
78887.9
56750.1
39340.2
36971.1
46098.3
59135.3
75987.7
94728.3
114703
97733.6
97316.4
105573
111308
120161
121633
104331
77939.2
61605.9
62540.3
70559.5
85190
101506
125396
114744
117790
123330
129938
143022
157284
153850
129147
101286
87638.4
85088.3
95282
105112
133516
125187
94118.5
77226.5
60611
47066.7
33130
26521.9
30339.2
47191.6
71161.6
92168.8
104508
111683
122928
116333
92116.2
71388.3
52719.7
34276.2
18697
10804.2
10294.3
18335
35303.3
56816.5
75765.6
87687
93528.4
114338
91182.3
65405.5
41473.9
20966.7
8383.5
3352.46
2665.07
5839.43
15175.2
31582.2
51085.3
66718.2
75445.8
122760
90390.4
54255
25771.1
9201.92
2515.05
662.478
469.718
1586.85
5790.44
15532
30444.4
45736.8
56255.1
135123
84107.8
38565.5
13111.3
3502.66
791.684
158.453
91.9646
457.498
2141.09
6993.28
16198.3
28136
40227.9
135378
68463.2
24979.2
7965.55
2388.91
631.378
135.95
55.4331
170.868
749.037
2605.09
7038.52
15162.5
27840.5
118158
51685
19746
8178.65
3034.38
932.23
276.226
166.743
243.764
649.299
1930.29
5260.61
12618.7
26992.8
96599.5
45161.9
23318.1
12118.1
5449.88
2004.77
810.051
634.268
811.939
1484.05
3211.79
7574.27
17321.3
36363.5
85516.3
48792
32199.8
20441.1
10962.5
4821.86
2328.31
1988.23
2586.47
4325.1
7938.55
15653.5
30267
54769
85882.9
57813.4
45143.6
33953.5
21893.1
11524
6120.28
5136.91
6608.76
10537.7
17511
29725.2
48480.4
74935.6
86443.9
66427.9
59334.4
51750.8
40366.9
25735.5
14927.6
11562.7
13756.1
20364.5
30680.7
45866.3
65235.7
88912.5
94158.4
78532.5
74467.2
72411.6
67603.6
52743.7
34472.9
24416.6
24644.8
32448.5
43961
59529.4
76798.1
96335.6
94978.6
89644.1
90311.8
93692.8
99297.9
92744.3
72158.4
51432.8
42173.5
46462.6
55427.3
70058.2
84732.8
103533
119560
111797
105986
112217
127295
135604
123778
98116.1
75028
67092.2
68121.8
80995.2
91214.7
114303
107969
78074.4
60511.6
44945.4
31903
19966.3
13602.9
12604.3
18378.9
30700.7
46203
60554.8
72168.1
84670.1
87118
67127.7
49497.6
33961.8
20497.2
10198.7
5297.2
4082.28
6216.65
12853.3
24448.3
38877.2
53112.7
64026.1
84019.5
60515.1
38910.4
21992.5
10572.3
3953.96
1493.53
987.081
1785.72
4949.49
12345.5
24358.1
38517.5
50534.3
86135.5
53776.9
27719
11726
4062.1
1063.84
262.849
151.044
439.631
1786.24
5763.69
13766.7
25100.9
36638.4
84424.8
44316
18003.2
5946.91
1696.74
395.919
76.6108
27.2751
124.487
672.912
2589.33
7139.9
14788.9
24239.1
75381.9
33346.6
11978
4144.05
1321.22
338.805
69.7587
21.5018
54.5901
263.698
1022.89
3059.91
7293.89
14454.4
61431.6
25579.5
10671.1
4531.85
1627.2
471.773
133.164
73.2819
92.1684
233.093
730.446
2115.47
5299.94
11822.7
51779.4
25371.2
13410.3
6649.43
2730.78
941.494
378.498
289.297
334.571
545.159
1121.26
2662.68
6277.68
14277.4
50420.8
30615.3
19331.7
11058.4
5273.45
2163.82
1079.47
932.398
1119.77
1680.87
2850.41
5511.99
11053.8
22398.7
55772.9
39033.4
28170.2
18617.7
10450.3
5052.34
2801.21
2473.2
3034.89
4475.41
7038.43
11856.6
20210.4
34926.7
61234.4
47836.7
38721.5
29603.5
19786.5
11291.7
6663.25
5646.73
6776.16
9689.5
14314.6
21600.5
32067.1
47993.1
72691.5
58899.7
51260.5
44874.2
35668.9
24067.2
15099.8
11730.6
12889
17310.7
23809.7
32805.2
43612.1
58203
79297.6
70788.5
65151.7
63388.6
58550.4
46830.4
32826.4
23789.7
22343.8
26816.8
33703.2
43332.8
53183.6
65917.4
104725
85746.3
78929.3
82760.1
85722
79094.8
63733.8
47982.3
38770.7
39373.8
43792.1
53356.8
61715
75996.1
75821.5
53610.8
38674.8
25752.3
15715.4
8612.96
5225.53
3981.2
4623.3
7769.01
14140.7
23332.8
34569.3
47797.2
59261.1
39164.8
25065.5
14467.1
7534.46
3422.05
1714.15
1201.92
1421.16
2696.06
6056.1
12440.9
22095.4
34339.9
52005.3
29458.5
15240.8
6969.26
2873.67
995.899
379.939
249.418
361.576
934.334
2752.71
7027.55
14610.8
25123.5
44912.2
21876.3
9071.34
3187.06
978.65
242.599
60.3979
32.3403
76.28
316.917
1225.78
3732.13
8832.4
16685.5
37092.3
15886.7
5769.16
1892.96
564.378
134.944
25.5605
6.16305
20.44
122.174
555.463
1884.05
4880.92
9958.74
29050.5
11789.2
4461.34
1631.95
511.749
123.85
23.8835
5.73365
10.1949
52.8001
238.226
833.376
2327.74
5344.79
23281.8
10210.6
4482.85
1795.88
580.832
152.861
40.2227
20.545
21.83
49.3702
167.523
550.177
1546.35
3760.42
22378.6
11665.9
5749.09
2462.43
866.678
272.654
111.595
86.7565
90.9056
127.862
245.998
605.975
1538.66
3806.23
26005.4
15472.9
8399.98
3930.05
1570.14
605.916
332.557
301.632
334.564
444.006
678.939
1255.08
2579.96
5817.17
33218.5
21441.2
12778
6727.04
3128.49
1441.42
905.818
860.401
995.112
1334.37
1936.19
3114.86
5387.8
10443.2
40108.5
28460.1
19048.2
11560.1
6312.86
3356.36
2217.25
2088.01
2455.01
3312.5
4683.15
6928.98
10557.7
17691.2
49813.2
37640
28301.9
19883
12689.4
7606.42
5067.63
4508.76
5173.4
6889.46
9442.64
13098.6
18045.3
26633.1
58966.6
48239.6
40383.3
32523.1
23910.2
16155.9
11053.2
9112.86
9674.85
12341
16209.6
21362.9
27249.4
36188.1
74650.3
60908.3
55113.5
49876.6
41452.9
31494
22839.7
17859.8
16832.2
19741.5
24400.5
30732.8
36949.6
46488.6
48705.3
29946.6
18445.7
10673.9
5742.61
2897.68
1671.62
1190.02
1087.23
1485.47
2967.6
6321.21
12081.9
20794.8
36263
18411.4
9112.47
4274.72
1927.72
823.179
425.15
307.501
300.069
427.071
986.286
2650.31
6411.44
13411.1
26809.3
11404.1
4401.59
1558.84
534.411
173.431
71.922
52.5985
61.6942
121.743
387.854
1312.94
3772.07
8860.27
19310.8
7260.8
2391.44
723.427
206.787
50.2473
12.3377
5.89184
9.2638
33.7525
159.032
649.081
2095.05
5338.95
13569.4
4926.66
1710.89
587.461
182.546
43.4878
7.87141
1.30223
1.88029
12.3238
71.6357
317.992
1089.18
2925.33
9884.46
3946.77
1586.45
589.615
181.493
42.163
7.66989
1.39176
1.17027
6.09368
34.8993
153.653
532.433
1497.12
8534.97
3959.06
1713.63
637.219
191.998
46.207
10.8368
4.73263
4.11447
7.07233
25.2484
100.771
341.098
969.322
9622.38
4844.48
2138.69
800.048
246.186
69.2314
27.3022
21.2047
20.6409
24.1456
39.8259
101.104
290.775
820.296
12616.4
6582
2989.69
1153.49
387.753
141.051
84.844
80.9479
84.6151
98.3624
129.638
217.438
449.407
1136.85
17209.9
9365.6
4496.72
1887.94
737.833
341.194
249.866
254.073
278.941
336.682
437.159
639.729
1073.45
2300.24
22760.4
13331.1
7071.39
3385.35
1553.95
838.466
653.781
673.692
766.589
957.42
1256.54
1750.66
2640.13
4888.14
30617.4
19660.6
11873.7
6591.43
3484.14
2028.13
1552.7
1559.96
1803.03
2304.38
3041.07
4117.37
5766.67
9384.3
40059.6
28813.6
19977.1
12761.7
7634.28
4700.9
3453.21
3262.68
3709.97
4778.01
6297.55
8356.71
11067
16035.4
52682.5
42353.2
33373.5
24152.4
16142.6
10517.8
7423.59
6399.86
6841.62
8673.59
11323
14767.7
18750.4
24700
29126
14491.2
7012.66
3309.12
1505.08
679.891
380.658
280.099
246.255
269.227
478.236
1216.58
3100.69
7047.39
19640.6
7732.12
2729.61
921.109
317.458
119.942
67.233
56.5319
56.7831
66.5447
129.068
410.421
1348.41
3917.59
11975.4
3909.56
1071.92
264.083
65.2159
18.0463
8.84922
7.96415
9.3563
14.8647
44.5662
186.665
722.096
2348.91
7056.32
2128.04
585.534
159.213
42.0226
9.32484
2.02252
0.884985
1.10663
3.15757
16.6423
87.5459
374.115
1290.71
4307.49
1447
498.177
166.637
47.8876
10.3826
1.7246
0.244378
0.170467
1.01201
7.17167
40.4523
179.509
637.836
3197.05
1287.82
502.773
172.907
48.4001
10.3239
1.73394
0.279271
0.133762
0.502817
3.56362
20.4182
90.3979
320.642
3123.7
1390.87
542.807
179.035
47.8977
10.2665
2.16362
0.891707
0.706833
0.850119
2.59074
12.7319
55.1345
195.58
3937.15
1748.34
660.058
209.667
54.996
13.4445
5.22295
4.26451
4.02704
4.07633
5.23389
12.4517
41.8887
144.567
5489.77
2401.45
893.067
280.148
77.3461
26.1385
17.7484
18.078
18.2861
19.3207
21.8943
31.7864
62.9707
178.603
7985.24
3531.21
1349.49
446.149
143.992
68.1984
58.8319
63.5266
67.3158
75.2359
88.2359
116.576
180.691
404.178
11377.1
5323.27
2214.64
831.027
324.039
186.88
171.759
188.533
208.188
245.25
300.975
394.599
570.27
1105.3
16659.7
8756.48
4193.99
1843.63
828.737
500.864
445.738
484.865
553.932
684.007
870.919
1149.52
1603.01
2776.87
24800.6
15154.8
8466.97
4313.61
2146.09
1284.99
1059.51
1109.69
1290.7
1656.76
2174.78
2893.16
3910.7
6046.19
37239.1
26759.7
17253.7
10010.7
5439.88
3197.95
2385.62
2318.4
2664.67
3514.2
4718.27
6343.4
8367.91
11605.8
15086.3
5918.04
2151.93
767.025
284.254
116.696
65.3856
49.5239
45.7296
46.7512
67.6766
177.574
571.665
1766.14
8473.04
2608.97
666.325
156.06
39.4945
13.2926
8.17403
7.5594
8.31435
9.53573
14.9037
50.0691
214.132
865.364
4026.55
1019.2
213.474
40.9119
8.15698
1.87213
0.864898
0.854075
1.09667
1.60311
4.22536
21.1161
108.02
481.391
1932.61
505.489
130.655
34.7116
8.68749
1.72193
0.286352
0.0926437
0.107543
0.240698
1.29587
8.88123
51.1057
239.995
1188.25
389.009
129.479
39.9088
10.2734
1.97043
0.279523
0.031678
0.0124447
0.0571366
0.492182
3.64932
21.4438
102.525
992.371
381.395
134.727
40.9097
10.0496
1.87075
0.268055
0.0352726
0.011527
0.0283879
0.237255
1.80477
10.5846
49.316
1097.67
435.341
147.831
42.1261
9.70583
1.75633
0.304116
0.107704
0.0792288
0.0801229
0.199259
1.15421
6.45722
29.4834
1488.81
569.236
183.43
49.3667
10.9039
2.17556
0.737674
0.581295
0.527213
0.512593
0.592228
1.3058
5.00141
21.6154
2162.94
798.4
249.333
65.3939
14.8453
4.24587
2.84922
2.87822
2.80681
2.90951
3.20601
4.41285
8.31894
26.1666
3244.85
1192.34
376.16
102.235
27.2391
12.1898
11.0226
11.8942
12.2061
13.5051
15.7099
20.3091
29.2763
64.8812
4795.82
1842.59
620.793
187.886
63.1427
37.8189
37.4534
41.5247
44.724
52.6061
64.7843
83.9561
114.751
218.727
7601.19
3298.43
1266.84
444.607
176.298
114.094
111.846
125.1
140.984
175.532
226.744
297.697
399.902
697.276
12856.4
6644.1
2971.22
1192.8
512.929
323.996
300.267
332.349
388.465
508.262
683.955
915.971
1217.21
1928.07
22513
13875.4
7217.61
3290.44
1487.75
878.348
741.328
790.549
941.462
1285.37
1792.89
2465.29
3272.31
4672.82
7.44162
6.63279
5.94357
6.76118
17.6812
72.6128
307.773
0.856089
0.892202
0.900043
1.18137
4.55447
26.5076
149.182
0.0749248
0.0873739
0.108424
0.283076
1.91895
13.3457
80.5476
0.00697965
0.00690937
0.0120254
0.0737079
0.705236
5.62814
36.277
0.00302727
0.00066928
0.0020793
0.0234379
0.248942
2.05104
13.4168
0.00375019
0.00116746
0.00133302
0.00886594
0.0966045
0.830528
5.51831
0.0126527
0.00999012
0.0092448
0.0116297
0.0517862
0.400652
2.71238
0.0785462
0.0762466
0.0755339
0.0752843
0.104629
0.308715
1.77881
715.082
220.545
57.7775
12.7767
2.46422
0.620137
0.423286
0.455316
0.470082
0.495432
0.520468
0.621622
0.867452
2.50131
1082.08
326.657
85.0261
19.241
4.4451
1.98544
1.93018
2.21502
2.3832
2.65168
2.96877
3.56114
4.37159
8.31517
1639.67
507.932
137.704
34.4364
10.7627
7.12157
7.7131
9.1019
10.1908
11.9375
14.1717
17.2744
21.0063
35.5181
2769.07
956.278
287.613
82.9403
32.5498
24.5332
26.8152
32.1093
37.4198
46.1106
57.6218
71.7454
87.816
140.138
5391.72
2208.6
754.625
242.137
103.41
77.7063
82.4938
98.9658
119.659
154.634
202.601
260.68
324.21
482.841
11312
5549.78
2187.32
765.934
326.744
227.793
227.51
269.151
334.866
453.26
622.135
835.451
1072.97
1485.72
102908
109691
114108
122999
142463
121738
86350.4
96240.7
108342
120504
137535
116710
80956.8
92567.1
107623
121232
132251
105637
72325.7
90120.8
112357
126054
128811
95066.7
68580.5
93758.9
120403
129709
125844
88732.6
64066
100772
129266
133625
126781
88681.9
68765.8
115310
141317
141796
134731
96468.6
87254.7
136954
157266
154683
147256
112212
114000
156503
169656
165560
157548
127447
134966
163418
172766
170745
163828
137989
141349
160064
169792
172264
168502
149471
138793
154401
166757
175537
174934
154368
137302
149609
163406
178409
179627
147201
135728
143884
153525
170912
176757
135687
118476
123927
117707
109563
101181
89508.6
87129.5
99473.7
109555
110530
101334
86117.1
79658.1
94213.3
109706
113866
101612
83757.6
68022.6
87969.9
111004
117446
101170
81304.4
61707.9
88044.3
115153
118329
98500.4
77735.9
54322.1
89957.6
119182
117871
97057
77661.8
55486.7
101144
128075
120747
100189
83028.9
69693.2
119962
139467
126663
107839
93243.8
93348.1
136666
146502
131564
116831
105479
114781
144775
147955
135814
123586
114595
126024
144484
145927
135664
123840
116206
126958
140121
141660
132852
121756
112338
124365
134961
137689
132227
122781
110842
123188
129825
131284
130451
124441
111238
119120
131220
129800
119905
103789
86044.7
79437.8
93966
108105
114073
104203
83389
68312.9
83171.7
101472
111620
102081
81631.6
53695.6
69466.7
92103
107251
98167.5
78772.6
44219.1
63012.8
88008.3
103076
92300.8
74015
33968.1
57137.6
85346.1
98406.3
86101.1
69788.1
29164.7
58432.6
88253.3
97280.2
84334
70366.5
32068.2
67167.2
95622.1
99845.2
87603.7
77072.7
43928
80312.6
103137
103817
94150.5
87093.5
60012.5
92323.1
108995
107530
99845.7
94891.5
74669.4
100042
110993
107776
100645
96238.1
84433.5
102974
109118
102985
95620.2
90882.8
88221.7
101088
103218
96360.4
89863.6
84649
93247.1
101337
99460
93071.4
87852.3
82263.7
93338.8
111055
117130
115738
112343
100772
63872.5
76070.4
87986
99275.8
106815
98574.7
51183.2
63620
76494
90196.2
98286.5
93303.9
37646.1
49320.3
62546.3
78896
88163.5
85917
26892.8
39410.2
53985.3
71224.7
79916.9
77345.5
17393.4
29621.4
46144
64932.8
73353.2
69490.2
12115.1
24657.8
43484.6
62955.6
70311.9
65944.9
10487.6
24843.8
46381.1
65465.3
72110.2
69475
12965.2
30881.3
54453.2
72368.3
79223.7
79480.6
19629.3
41037.9
65228.5
81927.4
88851.8
90201.6
29531.1
52819.2
75788.8
89718.8
94707.9
94741.6
40648.3
63348.8
82783.8
91749.6
92966.1
89972.7
50975.7
70325.8
83543.8
87075.4
85195.5
80348.1
61787.8
75910.2
82618.6
82279.1
79769.5
75069.3
57114
76177.5
91937.9
103681
112624
113044
43330.9
58525.8
69570.2
82659.3
98481.4
106185
32146.4
46313.8
57780.6
70564.1
84725.7
95034
21765.3
33867.9
45084.3
57370.8
70342.7
81876.6
13521.9
23687.4
34989.9
47502.6
59784.2
70033.6
7745.27
15417.9
25843.4
38838.7
51437.8
60399.1
4760.27
10719.6
20294.3
33872.1
47319
55472.9
3458.21
8737.82
18739
33537.9
48148.2
56738.9
3374.93
9561.1
21914.1
39087.8
55111.7
66072.5
4808.46
13556.9
29481.8
49227.5
66926.5
80152.8
8420.91
20791.4
40269.1
61551.3
79165.8
91145.9
14652.9
30428
51328.1
70761.1
85411.3
93265.3
23094.6
40483.3
59266.2
73528.7
81836.7
84543.4
33858.4
49884.6
63282.8
71057.8
75182.1
76046.1
34373.8
55322.3
74481
90617.1
108093
122352
23776.4
42081.3
58783
72427.1
88455.5
107219
15971.2
30557.2
45650.7
58407.3
73362.7
91157.4
9863.3
20406
32823.7
44629.6
58226.4
74597.9
5458.38
12586.8
22156.9
33317.4
45728.1
60568.7
2776.3
7223.59
14199.3
23977.6
35318.7
48332.7
1560.65
4421.82
9622.87
17891.9
28684
40374.5
1048.85
3090.38
7393.13
15110.4
26328.8
38188.9
883.879
2796.02
7459.4
16479
29810.8
44401
1035.64
3597.93
10133.8
22323.5
39354.3
58364.8
1820.42
6071.46
15960
32578.7
53660.8
75203.5
3900.35
11099.5
25052.4
44780
66384.7
85805.3
8161.65
18724.8
35262.6
54421.1
72657.6
86075.3
15529.6
28532.7
44710.4
59516.5
70824.9
77765.9
17550.9
34662
58217.4
79816
99735.9
119355
10250.9
24261.7
43577.7
62707.8
80538.2
100297
6040.23
15957.9
30687.7
47278.9
63808.9
82904.6
3345.79
9783.28
20325.7
33482.6
47581.3
64851
1675.38
5521.26
12529.5
22501.5
34532.8
49324.9
777.535
2877.93
7295.93
14496.2
24292.9
36471.9
408.787
1605.82
4444
9648.02
17467.4
27875.6
259.855
1008.38
2953.24
6929.28
13726.7
23216
209.26
808.165
2508.56
6381.37
13650.8
24552.8
215.652
887.633
2990.24
8088.68
17832.3
33083.4
335.602
1426.91
4805.73
12714
27114.6
48116.6
773.812
2963.78
8929.84
20995.9
39954.2
63617.9
2048.09
6365.08
15734.8
31175.9
51455
72775
5349.08
12676.6
24916.1
40846.3
57621.9
71656.2
3164.4
10498.6
25470.2
45919.4
67422
87539.8
1569.71
6191.78
16419.7
31927.7
50190
69230.1
743.674
3389.67
9920.39
20945.1
35188.9
51204.4
327.198
1713.77
5623.26
12933.2
23302.5
36598
146.781
838.958
3027.94
7645.02
15062.5
25341.2
81.5599
460.688
1742.94
4719.28
9943.36
17761.3
53.4523
280.467
1068.42
3021.69
6798.7
12953.3
40.6133
204.423
780.108
2295.29
5552.58
11438.3
35.7858
185.687
746.46
2375.52
6240.32
14073.5
45.4994
251.016
1065.22
3559.54
9720.08
22296.5
104.944
541.423
2173.5
6822.82
17139.9
35300.3
339.067
1456.01
4879.91
12871.4
27326.5
47935.9
1215.15
3919.74
10188.4
21376.4
37165.4
54864.9
136912
139406
141369
148968
158340
128314
100405
108372
117118
128838
143444
124877
86499.6
93878.6
102444
113052
126605
111409
70903.1
80781.7
92701.5
103819
114741
95626.7
62712
77735
92418.5
102672
108901
84260.9
58343.4
81373
98930.3
106981
108585
80916.5
65769.5
95019.6
112542
116702