/*--------------------------------*- C++ -*----------------------------------*\
| =========                 |                                                 |
| \\      /  F ield         | OpenFOAM: The Open Source CFD Toolbox           |
|  \\    /   O peration     | Version:  v2106                                 |
|   \\  /    A nd           | Website:  www.openfoam.com                      |
|    \\/     M anipulation  |                                                 |
\*---------------------------------------------------------------------------*/
FoamFile
{
    version     2.0;
    format      ascii;
    arch        "LSB;label=32;scalar=64";
    class       volScalarField;
    location    "0.000208";
    object      T;
}
// * * * * * * * * * * * * * * * * * * * * * * * * * * * * * * * * * * * * * //

dimensions      [0 0 0 1 0 0 0];

internalField   nonuniform List<scalar> 
17920
(
306.28
306.279
306.287
306.286
306.296
306.295
306.306
306.304
306.318
306.315
306.33
306.327
306.344
306.341
306.359
306.355
306.376
306.371
306.393
306.388
306.411
306.406
306.431
306.426
306.451
306.447
306.473
306.469
306.318
306.306
306.296
306.286
306.278
306.269
306.262
306.255
306.249
306.242
306.237
306.231
306.226
306.221
306.322
306.311
306.301
306.292
306.283
306.274
306.266
306.258
306.252
306.245
306.238
306.232
306.226
306.221
306.327
306.316
306.306
306.296
306.287
306.278
306.27
306.262
306.255
306.248
306.241
306.234
306.228
306.222
306.332
306.322
306.312
306.302
306.292
306.283
306.275
306.266
306.259
306.251
306.244
306.237
306.23
306.224
306.337
306.327
306.317
306.307
306.298
306.289
306.28
306.271
306.263
306.255
306.247
306.24
306.233
306.226
306.343
306.333
306.323
306.313
306.303
306.294
306.285
306.276
306.268
306.259
306.251
306.244
306.236
306.229
306.348
306.338
306.329
306.319
306.309
306.3
306.291
306.282
306.273
306.264
306.256
306.248
306.24
306.232
306.354
306.344
306.335
306.325
306.316
306.306
306.297
306.288
306.278
306.269
306.261
306.252
306.244
306.236
306.36
306.351
306.341
306.332
306.322
306.313
306.303
306.294
306.284
306.275
306.266
306.257
306.249
306.24
306.367
306.358
306.348
306.339
306.329
306.32
306.31
306.301
306.291
306.281
306.272
306.263
306.254
306.246
306.373
306.365
306.355
306.346
306.336
306.327
306.317
306.308
306.298
306.289
306.279
306.27
306.261
306.251
306.38
306.372
306.363
306.354
306.344
306.335
306.325
306.315
306.305
306.296
306.286
306.276
306.267
306.257
306.388
306.379
306.371
306.361
306.352
306.342
306.333
306.323
306.313
306.303
306.294
306.284
306.274
306.264
306.395
306.386
306.378
306.369
306.36
306.351
306.341
306.331
306.322
306.312
306.302
306.292
306.282
306.272
306.278
306.266
306.256
306.247
306.237
306.228
306.219
306.21
306.201
306.193
306.184
306.176
306.168
306.16
306.276
306.266
306.256
306.246
306.237
306.227
306.218
306.208
306.199
306.19
306.181
306.172
306.164
306.155
306.274
306.264
306.254
306.244
306.235
306.225
306.216
306.206
306.197
306.187
306.178
306.169
306.16
306.151
306.272
306.263
306.253
306.243
306.233
306.223
306.213
306.204
306.194
306.184
306.175
306.165
306.156
306.147
306.271
306.261
306.251
306.241
306.231
306.221
306.211
306.201
306.191
306.181
306.172
306.162
306.152
306.142
306.269
306.259
306.249
306.239
306.229
306.219
306.209
306.199
306.189
306.178
306.168
306.158
306.148
306.138
306.267
306.257
306.248
306.238
306.227
306.217
306.207
306.196
306.186
306.175
306.165
306.154
306.144
306.133
306.264
306.255
306.245
306.235
306.225
306.215
306.204
306.193
306.182
306.172
306.161
306.15
306.139
306.128
306.263
306.253
306.243
306.233
306.223
306.212
306.201
306.19
306.179
306.168
306.157
306.146
306.135
306.124
306.26
306.251
306.241
306.231
306.22
306.209
306.198
306.187
306.176
306.164
306.153
306.142
306.13
306.119
306.258
306.248
306.239
306.228
306.218
306.207
306.195
306.184
306.172
306.161
306.149
306.137
306.125
306.114
306.256
306.246
306.236
306.225
306.215
306.204
306.192
306.181
306.169
306.157
306.145
306.133
306.121
306.11
306.254
306.243
306.233
306.223
306.212
306.201
306.189
306.177
306.165
306.153
306.141
306.129
306.116
306.104
306.251
306.24
306.23
306.22
306.209
306.197
306.186
306.174
306.162
306.15
306.138
306.126
306.113
306.101
306.198
306.188
306.179
306.171
306.161
306.152
306.142
306.132
306.122
306.112
306.102
306.091
306.082
306.071
306.19
306.181
306.172
306.164
306.155
306.145
306.135
306.125
306.115
306.104
306.094
306.083
306.073
306.063
306.181
306.174
306.165
306.156
306.147
306.137
306.128
306.118
306.107
306.097
306.086
306.075
306.065
306.054
306.173
306.166
306.157
306.148
306.139
306.129
306.12
306.109
306.099
306.088
306.078
306.067
306.056
306.045
306.165
306.158
306.149
306.14
306.13
306.121
306.111
306.101
306.09
306.079
306.069
306.058
306.047
306.036
306.156
306.149
306.14
306.131
306.122
306.112
306.102
306.091
306.081
306.07
306.059
306.048
306.037
306.026
306.148
306.14
306.131
306.122
306.112
306.103
306.092
306.082
306.071
306.06
306.049
306.038
306.027
306.015
306.138
306.13
306.121
306.112
306.103
306.093
306.082
306.072
306.061
306.05
306.038
306.027
306.015
306.004
306.129
306.121
306.112
306.102
306.093
306.082
306.072
306.061
306.05
306.039
306.027
306.016
306.004
305.993
306.119
306.11
306.101
306.092
306.082
306.072
306.061
306.05
306.039
306.027
306.016
306.004
305.992
305.981
306.11
306.1
306.091
306.081
306.071
306.061
306.05
306.038
306.027
306.015
306.003
305.992
305.979
305.969
306.099
306.089
306.08
306.07
306.06
306.049
306.038
306.027
306.015
306.003
305.991
305.98
305.967
305.957
306.089
306.078
306.069
306.059
306.048
306.037
306.026
306.014
306.002
305.99
305.978
305.966
305.954
305.943
306.078
306.066
306.057
306.046
306.036
306.025
306.014
306.002
305.99
305.979
305.966
305.955
305.942
305.932
306.049
306.042
306.035
306.028
306.02
306.012
306.004
305.994
305.985
305.975
305.964
305.954
305.944
305.933
306.035
306.03
306.023
306.017
306.009
306.001
305.992
305.983
305.973
305.963
305.953
305.942
305.933
305.922
306.022
306.018
306.011
306.004
305.997
305.989
305.98
305.971
305.961
305.951
305.941
305.931
305.921
305.911
306.009
306.005
305.998
305.991
305.984
305.976
305.967
305.958
305.949
305.939
305.929
305.918
305.909
305.898
305.996
305.992
305.985
305.978
305.97
305.962
305.954
305.945
305.936
305.926
305.916
305.906
305.896
305.886
305.983
305.978
305.971
305.964
305.957
305.949
305.94
305.931
305.922
305.912
305.902
305.892
305.882
305.872
305.97
305.964
305.957
305.95
305.942
305.934
305.926
305.917
305.907
305.898
305.888
305.878
305.868
305.858
305.955
305.949
305.942
305.935
305.927
305.919
305.911
305.902
305.892
305.883
305.873
305.863
305.853
305.843
305.941
305.935
305.927
305.92
305.912
305.904
305.895
305.886
305.877
305.867
305.857
305.847
305.837
305.828
305.926
305.919
305.912
305.904
305.896
305.888
305.879
305.87
305.861
305.851
305.841
305.831
305.821
305.812
305.911
305.903
305.896
305.888
305.88
305.872
305.863
305.854
305.844
305.835
305.824
305.815
305.805
305.796
305.895
305.887
305.88
305.872
305.863
305.855
305.846
305.837
305.828
305.818
305.808
305.798
305.788
305.78
305.881
305.871
305.864
305.856
305.847
305.838
305.829
305.82
305.81
305.801
305.79
305.781
305.771
305.763
305.863
305.854
305.846
305.838
305.83
305.821
305.812
305.803
305.793
305.784
305.774
305.765
305.755
305.747
305.812
305.809
305.806
305.802
305.797
305.792
305.786
305.779
305.773
305.765
305.758
305.75
305.742
305.734
305.797
305.795
305.792
305.789
305.784
305.779
305.773
305.766
305.759
305.752
305.745
305.737
305.729
305.721
305.783
305.782
305.778
305.775
305.77
305.765
305.759
305.753
305.746
305.739
305.732
305.724
305.717
305.709
305.769
305.767
305.764
305.76
305.756
305.75
305.745
305.739
305.732
305.725
305.718
305.711
305.704
305.696
305.755
305.753
305.749
305.745
305.741
305.736
305.73
305.724
305.717
305.711
305.704
305.697
305.69
305.682
305.74
305.738
305.734
305.73
305.725
305.72
305.715
305.709
305.702
305.696
305.689
305.682
305.675
305.668
305.725
305.722
305.718
305.714
305.71
305.704
305.699
305.693
305.687
305.681
305.674
305.667
305.661
305.653
305.71
305.706
305.702
305.698
305.693
305.688
305.683
305.677
305.671
305.665
305.658
305.652
305.645
305.638
305.694
305.69
305.686
305.682
305.677
305.672
305.666
305.661
305.655
305.649
305.642
305.636
305.629
305.623
305.678
305.674
305.67
305.665
305.66
305.655
305.65
305.644
305.638
305.632
305.626
305.62
305.613
305.608
305.663
305.657
305.653
305.648
305.643
305.638
305.633
305.627
305.621
305.615
305.609
305.603
305.597
305.592
305.646
305.64
305.636
305.631
305.626
305.621
305.616
305.61
305.604
305.598
305.592
305.587
305.58
305.576
305.631
305.624
305.62
305.615
305.61
305.604
305.599
305.593
305.587
305.581
305.575
305.57
305.564
305.56
305.613
305.607
305.602
305.597
305.592
305.587
305.582
305.576
305.57
305.565
305.559
305.553
305.547
305.544
305.499
305.5
305.5
305.499
305.498
305.497
305.495
305.493
305.491
305.488
305.484
305.481
305.477
305.473
305.487
305.488
305.488
305.488
305.487
305.486
305.484
305.482
305.48
305.477
305.473
305.47
305.466
305.462
305.476
305.477
305.477
305.476
305.475
305.474
305.473
305.471
305.468
305.465
305.462
305.459
305.456
305.452
305.465
305.465
305.465
305.465
305.464
305.462
305.461
305.459
305.456
305.454
305.451
305.448
305.445
305.441
305.453
305.453
305.453
305.452
305.451
305.45
305.449
305.447
305.445
305.442
305.439
305.436
305.434
305.43
305.441
305.441
305.441
305.44
305.439
305.438
305.436
305.434
305.432
305.43
305.427
305.425
305.422
305.418
305.428
305.428
305.428
305.427
305.426
305.425
305.423
305.422
305.42
305.417
305.415
305.413
305.41
305.407
305.416
305.416
305.415
305.414
305.413
305.412
305.411
305.409
305.407
305.405
305.403
305.4
305.398
305.395
305.404
305.403
305.402
305.401
305.4
305.399
305.397
305.396
305.394
305.392
305.39
305.388
305.385
305.384
305.391
305.389
305.389
305.388
305.387
305.386
305.384
305.383
305.381
305.379
305.377
305.375
305.373
305.372
305.378
305.376
305.376
305.375
305.373
305.372
305.371
305.369
305.368
305.366
305.364
305.362
305.36
305.36
305.365
305.363
305.362
305.361
305.36
305.359
305.358
305.356
305.355
305.353
305.351
305.349
305.347
305.348
305.353
305.35
305.349
305.348
305.347
305.346
305.344
305.343
305.341
305.34
305.338
305.336
305.335
305.336
305.339
305.337
305.336
305.335
305.334
305.333
305.331
305.33
305.328
305.327
305.325
305.324
305.322
305.323
305.141
305.144
305.147
305.15
305.152
305.154
305.157
305.158
305.16
305.161
305.162
305.163
305.163
305.163
305.135
305.138
305.141
305.144
305.146
305.149
305.151
305.152
305.154
305.155
305.156
305.157
305.157
305.157
305.129
305.133
305.135
305.138
305.14
305.142
305.144
305.146
305.148
305.149
305.15
305.151
305.152
305.151
305.123
305.127
305.129
305.132
305.134
305.136
305.138
305.14
305.142
305.143
305.144
305.145
305.145
305.145
305.117
305.12
305.122
305.125
305.127
305.129
305.131
305.133
305.135
305.136
305.138
305.139
305.139
305.139
305.11
305.113
305.116
305.118
305.12
305.123
305.125
305.127
305.128
305.13
305.131
305.132
305.133
305.133
305.103
305.106
305.109
305.111
305.114
305.116
305.118
305.12
305.121
305.123
305.124
305.125
305.126
305.127
305.096
305.099
305.102
305.104
305.106
305.109
305.111
305.113
305.114
305.116
305.117
305.119
305.12
305.12
305.089
305.092
305.094
305.097
305.099
305.101
305.104
305.105
305.107
305.109
305.11
305.112
305.113
305.114
305.082
305.084
305.087
305.09
305.092
305.094
305.096
305.098
305.1
305.102
305.103
305.105
305.106
305.108
305.075
305.077
305.08
305.082
305.085
305.087
305.089
305.091
305.093
305.094
305.096
305.098
305.099
305.101
305.068
305.07
305.072
305.075
305.077
305.079
305.081
305.083
305.085
305.087
305.089
305.091
305.092
305.094
305.06
305.062
305.065
305.067
305.07
305.072
305.074
305.076
305.078
305.08
305.082
305.084
305.085
305.088
305.054
305.056
305.058
305.06
305.063
305.065
305.067
305.069
305.07
305.072
305.074
305.076
305.078
305.08
304.774
304.778
304.782
304.787
304.791
304.795
304.799
304.803
304.807
304.811
304.815
304.818
304.821
304.824
304.773
304.778
304.782
304.786
304.791
304.795
304.799
304.803
304.807
304.811
304.815
304.818
304.821
304.823
304.773
304.778
304.782
304.786
304.791
304.795
304.799
304.803
304.807
304.811
304.814
304.817
304.82
304.823
304.773
304.777
304.782
304.786
304.79
304.794
304.799
304.803
304.807
304.81
304.814
304.817
304.82
304.822
304.772
304.777
304.781
304.785
304.79
304.794
304.798
304.802
304.806
304.81
304.813
304.816
304.819
304.821
304.771
304.776
304.78
304.785
304.789
304.793
304.797
304.801
304.805
304.809
304.812
304.815
304.818
304.821
304.77
304.775
304.779
304.784
304.788
304.792
304.797
304.801
304.804
304.808
304.811
304.814
304.817
304.82
304.769
304.774
304.778
304.783
304.787
304.791
304.795
304.799
304.803
304.807
304.81
304.813
304.816
304.819
304.768
304.772
304.777
304.781
304.786
304.79
304.794
304.798
304.802
304.806
304.809
304.812
304.815
304.818
304.766
304.771
304.775
304.78
304.784
304.789
304.793
304.797
304.801
304.804
304.808
304.811
304.814
304.817
304.764
304.769
304.774
304.778
304.783
304.787
304.791
304.795
304.799
304.803
304.806
304.81
304.813
304.816
304.763
304.767
304.772
304.777
304.781
304.785
304.79
304.794
304.798
304.801
304.805
304.808
304.811
304.815
304.761
304.766
304.77
304.775
304.779
304.784
304.788
304.792
304.796
304.799
304.803
304.806
304.81
304.813
304.76
304.765
304.769
304.774
304.778
304.782
304.786
304.79
304.794
304.797
304.801
304.804
304.808
304.812
304.42
304.424
304.428
304.432
304.437
304.441
304.445
304.45
304.454
304.458
304.462
304.466
304.47
304.474
304.423
304.427
304.432
304.436
304.44
304.445
304.449
304.454
304.458
304.462
304.466
304.47
304.473
304.477
304.427
304.431
304.436
304.44
304.445
304.449
304.453
304.458
304.462
304.466
304.47
304.473
304.477
304.48
304.43
304.435
304.439
304.444
304.448
304.453
304.457
304.461
304.466
304.47
304.473
304.477
304.48
304.484
304.434
304.438
304.443
304.447
304.452
304.456
304.461
304.465
304.469
304.473
304.477
304.48
304.484
304.487
304.437
304.441
304.446
304.451
304.455
304.46
304.464
304.468
304.473
304.476
304.48
304.484
304.487
304.49
304.44
304.444
304.449
304.454
304.459
304.463
304.468
304.472
304.476
304.48
304.483
304.487
304.49
304.493
304.442
304.447
304.452
304.457
304.462
304.466
304.471
304.475
304.479
304.483
304.486
304.49
304.493
304.496
304.445
304.45
304.455
304.46
304.464
304.469
304.474
304.478
304.482
304.486
304.489
304.493
304.496
304.499
304.448
304.453
304.457
304.462
304.467
304.472
304.476
304.481
304.485
304.488
304.492
304.496
304.499
304.502
304.45
304.455
304.46
304.465
304.47
304.474
304.479
304.483
304.487
304.491
304.495
304.498
304.502
304.504
304.452
304.457
304.462
304.467
304.472
304.477
304.481
304.485
304.49
304.493
304.497
304.501
304.504
304.507
304.454
304.459
304.464
304.469
304.474
304.479
304.483
304.488
304.492
304.496
304.499
304.503
304.506
304.51
304.457
304.462
304.466
304.471
304.476
304.481
304.485
304.489
304.493
304.497
304.501
304.505
304.508
304.512
304.09
304.093
304.096
304.099
304.102
304.105
304.108
304.111
304.114
304.117
304.12
304.123
304.126
304.13
304.095
304.097
304.1
304.103
304.107
304.11
304.113
304.116
304.119
304.122
304.125
304.128
304.131
304.135
304.099
304.102
304.105
304.108
304.112
304.115
304.118
304.121
304.124
304.127
304.13
304.133
304.136
304.139
304.104
304.107
304.11
304.113
304.117
304.12
304.123
304.126
304.129
304.132
304.135
304.138
304.141
304.144
304.108
304.111
304.115
304.118
304.122
304.125
304.128
304.131
304.134
304.137
304.14
304.143
304.145
304.148
304.113
304.116
304.119
304.123
304.126
304.13
304.133
304.136
304.139
304.142
304.145
304.148
304.15
304.153
304.117
304.121
304.124
304.128
304.131
304.134
304.138
304.141
304.144
304.147
304.15
304.152
304.155
304.157
304.121
304.125
304.129
304.132
304.136
304.139
304.142
304.146
304.149
304.152
304.154
304.157
304.16
304.162
304.126
304.13
304.133
304.137
304.14
304.144
304.147
304.15
304.153
304.156
304.159
304.161
304.164
304.166
304.13
304.134
304.137
304.141
304.144
304.148
304.151
304.154
304.158
304.161
304.163
304.166
304.168
304.17
304.134
304.138
304.141
304.145
304.149
304.152
304.155
304.159
304.162
304.165
304.168
304.17
304.173
304.175
304.138
304.142
304.145
304.149
304.153
304.156
304.16
304.163
304.166
304.169
304.172
304.174
304.177
304.179
304.142
304.146
304.149
304.153
304.157
304.16
304.163
304.167
304.17
304.173
304.176
304.178
304.181
304.183
304.146
304.15
304.153
304.157
304.16
304.164
304.167
304.171
304.174
304.177
304.18
304.182
304.185
304.188
303.787
303.788
303.789
303.791
303.792
303.793
303.795
303.796
303.797
303.799
303.801
303.802
303.804
303.806
303.79
303.791
303.793
303.794
303.795
303.797
303.798
303.8
303.801
303.803
303.805
303.806
303.808
303.81
303.794
303.795
303.796
303.798
303.799
303.801
303.802
303.804
303.805
303.807
303.808
303.81
303.812
303.814
303.798
303.799
303.8
303.801
303.803
303.804
303.806
303.807
303.809
303.811
303.812
303.814
303.816
303.818
303.801
303.802
303.804
303.805
303.807
303.808
303.81
303.811
303.813
303.815
303.816
303.818
303.82
303.822
303.805
303.806
303.808
303.809
303.811
303.812
303.814
303.815
303.817
303.819
303.82
303.822
303.824
303.825
303.809
303.81
303.812
303.813
303.815
303.816
303.818
303.819
303.821
303.823
303.824
303.826
303.828
303.829
303.813
303.814
303.816
303.817
303.819
303.82
303.822
303.823
303.825
303.827
303.828
303.83
303.832
303.833
303.816
303.818
303.82
303.821
303.823
303.824
303.826
303.827
303.829
303.831
303.832
303.834
303.835
303.837
303.82
303.822
303.824
303.825
303.827
303.828
303.83
303.832
303.833
303.835
303.836
303.838
303.839
303.84
303.824
303.826
303.827
303.829
303.831
303.832
303.834
303.836
303.837
303.839
303.84
303.842
303.843
303.844
303.828
303.83
303.831
303.833
303.835
303.836
303.838
303.84
303.841
303.843
303.844
303.846
303.847
303.848
303.832
303.834
303.835
303.837
303.839
303.84
303.842
303.844
303.845
303.847
303.849
303.85
303.851
303.852
303.836
303.838
303.839
303.841
303.843
303.844
303.846
303.848
303.849
303.851
303.852
303.854
303.855
303.857
303.51
303.51
303.51
303.51
303.51
303.51
303.51
303.51
303.51
303.51
303.511
303.511
303.512
303.513
303.512
303.512
303.511
303.511
303.511
303.511
303.511
303.511
303.512
303.512
303.513
303.513
303.514
303.515
303.513
303.513
303.513
303.513
303.513
303.513
303.513
303.513
303.513
303.514
303.514
303.515
303.516
303.517
303.515
303.515
303.515
303.514
303.514
303.514
303.514
303.515
303.515
303.516
303.516
303.517
303.518
303.519
303.517
303.517
303.517
303.516
303.516
303.516
303.516
303.517
303.517
303.518
303.518
303.519
303.52
303.521
303.519
303.519
303.519
303.518
303.518
303.518
303.518
303.519
303.519
303.52
303.52
303.521
303.522
303.523
303.522
303.521
303.521
303.521
303.521
303.521
303.521
303.521
303.521
303.522
303.523
303.523
303.524
303.525
303.524
303.524
303.523
303.523
303.523
303.523
303.523
303.523
303.524
303.524
303.525
303.526
303.526
303.527
303.527
303.526
303.526
303.526
303.526
303.526
303.526
303.526
303.526
303.527
303.527
303.528
303.529
303.53
303.529
303.529
303.528
303.528
303.528
303.528
303.528
303.529
303.529
303.529
303.53
303.531
303.531
303.532
303.532
303.532
303.531
303.531
303.531
303.531
303.531
303.531
303.532
303.532
303.533
303.533
303.534
303.534
303.534
303.534
303.534
303.534
303.534
303.534
303.534
303.534
303.535
303.535
303.535
303.536
303.537
303.537
303.537
303.537
303.537
303.537
303.537
303.537
303.537
303.537
303.538
303.538
303.538
303.539
303.539
303.54
303.541
303.54
303.54
303.54
303.54
303.54
303.54
303.54
303.541
303.541
303.541
303.542
303.542
303.543
303.259
303.258
303.257
303.256
303.256
303.255
303.254
303.254
303.254
303.253
303.253
303.253
303.253
303.253
303.259
303.258
303.257
303.256
303.256
303.255
303.254
303.254
303.253
303.253
303.253
303.253
303.253
303.253
303.259
303.258
303.257
303.256
303.256
303.255
303.254
303.254
303.253
303.253
303.253
303.253
303.253
303.254
303.26
303.258
303.257
303.257
303.256
303.255
303.254
303.254
303.254
303.253
303.253
303.253
303.254
303.254
303.26
303.259
303.258
303.257
303.256
303.255
303.255
303.254
303.254
303.254
303.254
303.254
303.254
303.255
303.261
303.259
303.258
303.257
303.257
303.256
303.255
303.255
303.254
303.254
303.254
303.254
303.255
303.255
303.261
303.26
303.259
303.258
303.257
303.256
303.256
303.255
303.255
303.255
303.255
303.255
303.255
303.256
303.262
303.261
303.26
303.259
303.258
303.257
303.257
303.256
303.256
303.256
303.256
303.256
303.256
303.256
303.263
303.262
303.261
303.26
303.259
303.258
303.258
303.257
303.257
303.256
303.256
303.257
303.257
303.257
303.264
303.263
303.262
303.261
303.26
303.259
303.259
303.258
303.258
303.257
303.257
303.257
303.258
303.258
303.266
303.265
303.263
303.262
303.261
303.261
303.26
303.259
303.259
303.259
303.259
303.259
303.259
303.259
303.267
303.266
303.265
303.264
303.263
303.262
303.261
303.261
303.26
303.26
303.26
303.26
303.26
303.26
303.268
303.267
303.266
303.265
303.264
303.264
303.263
303.262
303.262
303.262
303.261
303.261
303.261
303.261
303.27
303.269
303.268
303.267
303.266
303.265
303.264
303.264
303.263
303.263
303.263
303.263
303.263
303.262
303.031
303.031
303.03
303.029
303.029
303.028
303.027
303.027
303.026
303.026
303.025
303.025
303.024
303.024
303.031
303.03
303.03
303.029
303.028
303.027
303.027
303.026
303.026
303.025
303.025
303.024
303.024
303.023
303.031
303.03
303.029
303.028
303.027
303.027
303.026
303.026
303.025
303.024
303.024
303.024
303.023
303.023
303.03
303.03
303.029
303.028
303.027
303.026
303.026
303.025
303.024
303.024
303.024
303.023
303.023
303.023
303.03
303.029
303.028
303.027
303.027
303.026
303.025
303.025
303.024
303.024
303.023
303.023
303.023
303.022
303.03
303.029
303.028
303.027
303.026
303.026
303.025
303.024
303.024
303.023
303.023
303.022
303.022
303.022
303.03
303.029
303.028
303.027
303.026
303.025
303.025
303.024
303.023
303.023
303.022
303.022
303.022
303.022
303.03
303.029
303.028
303.027
303.026
303.025
303.024
303.024
303.023
303.023
303.022
303.022
303.022
303.022
303.03
303.029
303.028
303.027
303.026
303.025
303.024
303.024
303.023
303.023
303.022
303.022
303.022
303.022
303.03
303.029
303.028
303.027
303.026
303.025
303.024
303.024
303.023
303.023
303.022
303.022
303.022
303.022
303.03
303.029
303.028
303.027
303.026
303.025
303.024
303.024
303.023
303.023
303.022
303.022
303.022
303.021
303.03
303.029
303.028
303.027
303.026
303.025
303.024
303.024
303.023
303.023
303.022
303.022
303.022
303.021
303.03
303.029
303.028
303.027
303.026
303.026
303.025
303.024
303.023
303.023
303.022
303.022
303.022
303.021
303.03
303.029
303.028
303.027
303.027
303.026
303.025
303.024
303.024
303.023
303.023
303.022
303.022
303.021
302.826
302.826
302.825
302.825
302.825
302.825
302.825
302.824
302.824
302.823
302.823
302.822
302.821
302.82
302.826
302.826
302.825
302.825
302.825
302.825
302.824
302.824
302.823
302.823
302.822
302.822
302.821
302.82
302.826
302.825
302.825
302.825
302.825
302.824
302.824
302.824
302.823
302.823
302.822
302.821
302.821
302.82
302.825
302.825
302.825
302.825
302.824
302.824
302.824
302.823
302.823
302.822
302.822
302.821
302.82
302.819
302.825
302.825
302.825
302.824
302.824
302.824
302.823
302.823
302.822
302.822
302.821
302.821
302.82
302.819
302.825
302.825
302.824
302.824
302.824
302.823
302.823
302.822
302.822
302.821
302.821
302.82
302.82
302.819
302.824
302.824
302.824
302.824
302.823
302.823
302.822
302.822
302.821
302.821
302.82
302.82
302.819
302.818
302.824
302.824
302.823
302.823
302.823
302.822
302.822
302.821
302.821
302.82
302.82
302.819
302.819
302.818
302.823
302.823
302.823
302.823
302.822
302.822
302.821
302.821
302.82
302.82
302.819
302.819
302.818
302.818
302.823
302.823
302.822
302.822
302.822
302.821
302.821
302.82
302.82
302.819
302.819
302.818
302.818
302.817
302.822
302.822
302.822
302.821
302.821
302.821
302.82
302.82
302.819
302.819
302.818
302.818
302.817
302.817
302.822
302.821
302.821
302.821
302.821
302.82
302.82
302.819
302.819
302.818
302.818
302.817
302.816
302.816
302.821
302.821
302.821
302.82
302.82
302.819
302.819
302.819
302.818
302.817
302.817
302.816
302.816
302.815
302.82
302.82
302.82
302.82
302.819
302.819
302.818
302.818
302.817
302.817
302.816
302.816
302.815
302.815
302.639
302.64
302.64
302.641
302.641
302.641
302.641
302.641
302.641
302.64
302.64
302.639
302.638
302.637
302.64
302.64
302.641
302.641
302.641
302.642
302.642
302.641
302.641
302.641
302.64
302.639
302.639
302.637
302.64
302.641
302.641
302.642
302.642
302.642
302.642
302.642
302.641
302.641
302.64
302.64
302.639
302.638
302.641
302.641
302.642
302.642
302.642
302.642
302.642
302.642
302.642
302.641
302.641
302.64
302.639
302.638
302.641
302.641
302.642
302.642
302.642
302.642
302.642
302.642
302.642
302.641
302.641
302.64
302.639
302.638
302.64
302.641
302.642
302.642
302.642
302.642
302.642
302.642
302.642
302.641
302.641
302.64
302.639
302.638
302.64
302.641
302.641
302.642
302.642
302.642
302.642
302.642
302.641
302.641
302.64
302.64
302.639
302.638
302.64
302.64
302.641
302.641
302.642
302.642
302.642
302.641
302.641
302.641
302.64
302.639
302.638
302.637
302.639
302.64
302.64
302.641
302.641
302.641
302.641
302.641
302.641
302.64
302.639
302.639
302.638
302.637
302.639
302.639
302.64
302.64
302.64
302.64
302.64
302.64
302.64
302.639
302.639
302.638
302.637
302.636
302.638
302.638
302.639
302.639
302.64
302.64
302.64
302.639
302.639
302.639
302.638
302.637
302.636
302.636
302.637
302.638
302.638
302.638
302.639
302.639
302.639
302.639
302.638
302.638
302.637
302.636
302.636
302.635
302.636
302.637
302.637
302.637
302.638
302.638
302.638
302.637
302.637
302.637
302.636
302.635
302.635
302.634
302.635
302.636
302.636
302.636
302.637
302.637
302.636
302.636
302.636
302.635
302.635
302.634
302.634
302.633
302.469
302.47
302.471
302.471
302.472
302.472
302.472
302.472
302.472
302.472
302.471
302.471
302.47
302.469
302.47
302.471
302.472
302.472
302.473
302.473
302.473
302.473
302.473
302.473
302.472
302.472
302.471
302.47
302.471
302.472
302.472
302.473
302.474
302.474
302.474
302.474
302.474
302.474
302.473
302.472
302.472
302.47
302.471
302.472
302.473
302.474
302.475
302.475
302.475
302.475
302.475
302.475
302.474
302.473
302.472
302.471
302.472
302.473
302.474
302.474
302.475
302.475
302.476
302.476
302.475
302.475
302.474
302.474
302.473
302.471
302.472
302.473
302.474
302.475
302.475
302.476
302.476
302.476
302.476
302.475
302.475
302.474
302.473
302.472
302.472
302.473
302.474
302.475
302.475
302.476
302.476
302.476
302.476
302.476
302.475
302.474
302.473
302.472
302.472
302.473
302.474
302.475
302.475
302.476
302.476
302.476
302.476
302.475
302.475
302.474
302.473
302.472
302.471
302.472
302.474
302.474
302.475
302.475
302.476
302.476
302.475
302.475
302.474
302.474
302.473
302.471
302.471
302.472
302.473
302.474
302.475
302.475
302.475
302.475
302.475
302.475
302.474
302.473
302.472
302.471
302.47
302.471
302.472
302.473
302.474
302.474
302.474
302.474
302.474
302.474
302.473
302.472
302.471
302.47
302.469
302.47
302.471
302.472
302.473
302.473
302.473
302.473
302.473
302.473
302.472
302.471
302.471
302.47
302.468
302.469
302.47
302.471
302.472
302.472
302.472
302.472
302.472
302.472
302.471
302.47
302.47
302.469
302.467
302.468
302.469
302.47
302.47
302.471
302.471
302.471
302.471
302.47
302.47
302.469
302.468
302.467
302.31
302.311
302.312
302.313
302.314
302.314
302.314
302.315
302.314
302.314
302.314
302.313
302.312
302.311
302.311
302.312
302.313
302.314
302.315
302.315
302.316
302.316
302.316
302.316
302.315
302.314
302.313
302.312
302.312
302.313
302.315
302.315
302.316
302.317
302.317
302.317
302.317
302.317
302.316
302.315
302.314
302.313
302.313
302.314
302.315
302.316
302.317
302.318
302.318
302.318
302.318
302.318
302.317
302.316
302.315
302.314
302.314
302.315
302.316
302.317
302.318
302.318
302.319
302.319
302.319
302.318
302.318
302.317
302.316
302.315
302.314
302.316
302.317
302.318
302.318
302.319
302.319
302.319
302.319
302.319
302.318
302.317
302.316
302.315
302.314
302.316
302.317
302.318
302.319
302.319
302.32
302.32
302.32
302.319
302.319
302.318
302.317
302.316
302.315
302.316
302.317
302.318
302.319
302.319
302.32
302.32
302.32
302.319
302.319
302.318
302.317
302.316
302.314
302.316
302.317
302.318
302.319
302.319
302.32
302.32
302.319
302.319
302.319
302.318
302.317
302.316
302.314
302.315
302.317
302.318
302.318
302.319
302.319
302.319
302.319
302.319
302.318
302.317
302.316
302.315
302.314
302.315
302.316
302.317
302.318
302.318
302.319
302.319
302.318
302.318
302.318
302.317
302.316
302.315
302.313
302.314
302.315
302.316
302.317
302.317
302.318
302.318
302.318
302.317
302.317
302.316
302.315
302.314
302.312
302.313
302.314
302.315
302.316
302.316
302.317
302.317
302.317
302.316
302.316
302.315
302.314
302.313
302.311
302.312
302.313
302.314
302.315
302.315
302.316
302.316
302.315
302.315
302.315
302.314
302.313
302.312
306.274
306.268
306.264
306.261
306.259
306.259
306.272
306.268
306.264
306.262
306.26
306.26
306.316
306.319
306.32
306.323
306.326
306.329
306.304
306.305
306.306
306.307
306.309
306.31
306.294
306.293
306.292
306.293
306.293
306.293
306.284
306.281
306.28
306.279
306.278
306.276
306.274
306.271
306.269
306.266
306.264
306.262
306.266
306.262
306.259
306.255
306.253
306.249
306.258
306.254
306.25
306.246
306.243
306.24
306.251
306.246
306.242
306.239
306.236
306.233
306.245
306.24
306.236
306.233
306.23
306.229
306.238
306.234
306.231
306.229
306.227
306.226
306.233
306.23
306.227
306.225
306.224
306.224
306.228
306.225
306.223
306.222
306.221
306.222
306.224
306.221
306.219
306.219
306.218
306.219
306.219
306.215
306.214
306.213
306.213
306.214
306.281
306.288
306.293
306.3
306.305
306.311
306.27
306.276
306.282
306.288
306.293
306.298
306.26
306.266
306.271
306.276
306.28
306.285
306.25
306.255
306.259
306.264
306.267
306.271
306.241
306.245
306.248
306.251
306.254
306.256
306.231
306.234
306.237