/*--------------------------------*- C++ -*----------------------------------*\
| =========                 |                                                 |
| \\      /  F ield         | OpenFOAM: The Open Source CFD Toolbox           |
|  \\    /   O peration     | Version:  v2106                                 |
|   \\  /    A nd           | Website:  www.openfoam.com                      |
|    \\/     M anipulation  |                                                 |
\*---------------------------------------------------------------------------*/
FoamFile
{
    version     2.0;
    format      ascii;
    arch        "LSB;label=32;scalar=64";
    class       volScalarField;
    location    "0.000208";
    object      Ttot;
}
// * * * * * * * * * * * * * * * * * * * * * * * * * * * * * * * * * * * * * //

dimensions      [0 0 0 1 0 0 0];

internalField   nonuniform List<scalar> 
17920
(
306.474
306.473
306.482
306.48
306.491
306.489
306.501
306.499
306.513
306.51
306.526
306.523
306.54
306.537
306.556
306.552
306.573
306.569
306.591
306.586
306.61
306.605
306.631
306.626
306.652
306.647
306.675
306.671
306.511
306.498
306.488
306.478
306.469
306.46
306.453
306.445
306.438
306.432
306.426
306.42
306.414
306.409
306.516
306.504
306.494
306.483
306.474
306.465
306.457
306.449
306.441
306.434
306.427
306.421
306.415
306.409
306.521
306.509
306.499
306.488
306.479
306.47
306.461
306.452
306.445
306.437
306.43
306.423
306.416
306.41
306.526
306.515
306.504
306.494
306.484
306.474
306.465
306.457
306.449
306.441
306.433
306.426
306.418
306.412
306.531
306.52
306.51
306.5
306.49
306.48
306.471
306.462
306.453
306.445
306.437
306.429
306.421
306.414
306.537
306.526
306.516
306.506
306.495
306.486
306.476
306.467
306.458
306.449
306.441
306.432
306.424
306.416
306.542
306.532
306.522
306.512
306.502
306.492
306.482
306.472
306.463
306.454
306.445
306.437
306.428
306.42
306.548
306.538
306.528
306.518
306.508
306.498
306.488
306.478
306.469
306.459
306.45
306.441
306.432
306.424
306.554
306.545
306.535
306.525
306.515
306.505
306.495
306.485
306.475
306.465
306.456
306.446
306.437
306.428
306.561
306.552
306.542
306.532
306.522
306.512
306.502
306.492
306.482
306.472
306.462
306.452
306.443
306.434
306.568
306.559
306.549
306.539
306.529
306.519
306.509
306.499
306.489
306.479
306.469
306.459
306.449
306.439
306.575
306.566
306.557
306.547
306.537
306.527
306.517
306.507
306.496
306.486
306.476
306.466
306.456
306.445
306.583
306.574
306.565
306.555
306.545
306.535
306.525
306.515
306.505
306.494
306.484
306.473
306.463
306.452
306.591
306.581
306.572
306.563
306.554
306.544
306.534
306.524
306.513
306.503
306.492
306.482
306.471
306.46
306.466
306.454
306.443
306.433
306.424
306.414
306.404
306.395
306.386
306.376
306.368
306.358
306.351
306.342
306.464
306.453
306.443
306.432
306.422
306.412
306.403
306.393
306.383
306.373
306.364
306.355
306.346
306.337
306.462
306.451
306.441
306.43
306.42
306.41
306.4
306.39
306.381
306.37
306.361
306.351
306.342
306.332
306.46
306.45
306.439
306.429
306.418
306.408
306.398
306.388
306.378
306.367
306.358
306.347
306.338
306.328
306.458
306.448
306.437
306.427
306.416
306.406
306.396
306.385
306.375
306.364
306.354
306.343
306.333
306.323
306.456
306.446
306.435
306.425
306.414
306.404
306.393
306.382
306.372
306.361
306.35
306.339
306.329
306.318
306.454
306.444
306.433
306.423
306.412
306.401
306.39
306.379
306.368
306.357
306.346
306.335
306.324
306.313
306.451
306.441
306.431
306.421
306.41
306.399
306.388
306.376
306.365
306.354
306.342
306.331
306.32
306.308
306.449
306.439
306.429
306.418
306.407
306.396
306.385
306.373
306.361
306.35
306.338
306.326
306.315
306.303
306.446
306.436
306.426
306.415
306.404
306.393
306.381
306.37
306.358
306.346
306.334
306.322
306.31
306.298
306.444
306.434
306.424
306.413
306.402
306.39
306.378
306.366
306.354
306.342
306.329
306.317
306.304
306.293
306.441
306.431
306.42
306.41
306.398
306.387
306.375
306.363
306.35
306.338
306.325
306.313
306.3
306.288
306.439
306.428
306.418
306.407
306.395
306.384
306.372
306.359
306.346
306.334
306.32
306.308
306.295
306.282
306.436
306.425
306.415
306.403
306.392
306.38
306.368
306.356
306.343
306.331
306.318
306.305
306.291
306.279
306.379
306.369
306.359
306.35
306.341
306.331
306.321
306.31
306.299
306.288
306.278
306.267
306.257
306.246
306.371
306.361
306.352
306.343
306.333
306.323
306.313
306.302
306.292
306.28
306.27
306.258
306.248
306.237
306.362
306.353
306.344
306.335
306.325
306.315
306.305
306.294
306.284
306.272
306.261
306.25
306.24
306.228
306.353
306.345
306.335
306.326
306.317
306.307
306.296
306.286
306.275
306.263
306.252
306.241
306.23
306.219
306.344
306.336
306.327
306.317
306.308
306.298
306.287
306.277
306.266
306.254
306.243
306.231
306.22
306.209
306.335
306.327
306.318
306.308
306.298
306.288
306.278
306.267
306.256
306.244
306.233
306.221
306.21
306.198
306.326
306.318
306.308
306.299
306.289
306.278
306.268
306.257
306.245
306.234
306.222
306.21
306.199
306.187
306.316
306.307
306.298
306.288
306.278
306.268
306.257
306.246
306.235
306.223
306.211
306.199
306.187
306.175
306.306
306.297
306.288
306.278
306.268
306.257
306.246
306.235
306.223
306.211
306.199
306.187
306.175
306.163
306.295
306.286
306.277
306.267
306.256
306.246
306.234
306.223
306.211
306.199
306.187
306.175
306.162
306.151
306.285
306.276
306.266
306.256
306.245
306.234
306.223
306.211
306.199
306.187
306.174
306.162
306.149
306.138
306.274
306.264
306.254
306.244
306.233
306.222
306.21
306.199
306.186
306.174
306.161
306.149
306.136
306.125
306.263
306.252
306.243
306.232
306.221
306.21
306.198
306.186
306.173
306.16
306.147
306.135
306.122
306.111
306.251
306.24
306.23
306.219
306.208
306.196
306.185
306.173
306.16
306.148
306.135
306.123
306.11
306.099
306.219
306.212
306.205
306.197
306.19
306.181
306.172
306.162
306.152
306.142
306.131
306.12
306.11
306.098
306.205
306.199
306.192
306.185
306.178
306.169
306.16
306.15
306.14
306.129
306.119
306.108
306.098
306.087
306.192
306.186
306.179
306.172
306.165
306.156
306.147
306.138
306.128
306.117
306.107
306.096
306.086
306.075
306.178
306.173
306.166
306.159
306.151
306.143
306.134
306.124
306.114
306.104
306.094
306.083
306.073
306.062
306.164
306.159
306.152
306.145
306.137
306.129
306.12
306.11
306.101
306.09
306.08
306.069
306.059
306.048
306.15
306.145
306.138
306.13
306.122
306.114
306.105
306.096
306.086
306.076
306.066
306.055
306.045
306.034
306.136
306.13
306.123
306.115
306.107
306.099
306.09
306.081
306.071
306.061
306.051
306.04
306.03
306.019
306.121
306.115
306.107
306.1
306.092
306.083
306.074
306.065
306.055
306.045
306.035
306.025
306.014
306.004
306.106
306.099
306.092
306.084
306.076
306.067
306.058
306.049
306.039
306.029
306.018
306.008
305.998
305.988
306.09
306.083
306.075
306.067
306.059
306.05
306.041
306.032
306.022
306.012
306.002
305.992
305.981
305.971
306.075
306.067
306.059
306.051
306.042
306.033
306.024
306.015
306.005
305.995
305.984
305.974
305.963
305.955
306.058
306.049
306.042
306.033
306.025
306.016
306.007
305.997
305.987
305.977
305.967
305.957
305.946
305.938
306.042
306.033
306.025
306.017
306.008
305.999
305.989
305.979
305.969
305.959
305.948
305.939
305.928
305.92
306.024
306.015
306.007
305.998
305.989
305.98
305.971
305.961
305.952
305.942
305.931
305.921
305.911
305.903
305.969
305.966
305.962
305.958
305.953
305.947
305.941
305.935
305.927
305.92
305.912
305.904
305.896
305.887
305.953
305.951
305.948
305.944
305.939
305.934
305.928
305.921
305.914
305.906
305.898
305.89
305.883
305.874
305.938
305.937
305.933
305.929
305.925
305.919
305.913
305.907
305.9
305.892
305.885
305.877
305.87
305.861
305.923
305.922
305.918
305.914
305.91
305.904
305.898
305.892
305.885
305.878
305.87
305.863
305.856
305.847
305.908
305.906
305.903
305.899
305.894
305.889
305.883
305.876
305.87
305.863
305.856
305.848
305.841
305.833
305.893
305.891
305.887
305.883
305.878
305.872
305.867
305.86
305.854
305.847
305.84
305.833
305.826
305.818
305.878
305.874
305.87
305.866
305.861
305.856
305.85
305.844
305.838
305.831
305.824
305.817
305.81
305.803
305.862
305.858
305.854
305.849
305.844
305.839
305.833
305.827
305.821
305.815
305.808
305.801
305.794
305.787
305.845
305.841
305.837
305.832
305.827
305.822
305.816
305.81
305.804
305.798
305.791
305.784
305.778
305.771
305.829
305.824
305.819
305.815
305.81
305.804
305.799
305.793
305.787
305.78
305.774
305.767
305.76
305.755
305.812
305.807
305.802
305.797
305.792
305.787
305.781
305.775
305.769
305.763
305.757
305.75
305.744
305.739
305.795
305.789
305.784
305.779
305.774
305.769
305.763
305.757
305.751
305.745
305.739
305.733
305.726
305.722
305.779
305.772
305.767
305.762
305.757
305.751
305.746
305.74
305.733
305.727
305.721
305.716
305.709
305.706
305.76
305.754
305.749
305.744
305.739
305.733
305.728
305.722
305.716
305.71
305.704
305.698
305.692
305.688
305.639
305.639
305.639
305.639
305.638
305.637
305.635
305.633
305.63
305.627
305.624
305.62
305.616
305.612
305.626
305.628
305.627
305.627
305.626
305.625
305.623
305.621
305.619
305.616
305.612
305.608
305.605
305.6
305.615
305.616
305.615
305.615
305.614
305.613
305.611
305.609
305.607
305.604
305.601
305.597
305.594
305.59
305.603
305.604
305.603
305.603
305.602
305.601
305.599
305.597
305.595
305.592
305.589
305.586
305.583
305.578
305.59
305.591
305.591
305.59
305.589
305.588
305.586
305.584
305.582
305.579
305.577
305.574
305.571
305.567
305.578
305.578
305.578
305.577
305.576
305.575
305.573
305.571
305.569
305.567
305.564
305.561
305.558
305.555
305.565
305.565
305.565
305.564
305.563
305.562
305.56
305.558
305.556
305.554
305.551
305.549
305.546
305.543
305.552
305.552
305.551
305.55
305.549
305.548
305.547
305.545
305.543
305.541
305.538
305.536
305.533
305.531
305.539
305.538
305.538
305.537
305.536
305.534
305.533
305.531
305.529
305.527
305.525
305.523
305.52
305.519
305.526
305.524
305.524
305.523
305.522
305.521
305.519
305.518
305.516
305.514
305.512
305.51
305.507
305.506
305.513
305.511
305.51
305.509
305.508
305.507
305.505
305.504
305.502
305.5
305.498
305.496
305.494
305.494
305.499
305.497
305.496
305.495
305.494
305.493
305.491
305.49
305.488
305.487
305.485
305.483
305.481
305.481
305.486
305.483
305.483
305.482
305.48
305.479
305.478
305.476
305.475
305.473
305.471
305.469
305.468
305.469
305.472
305.47
305.469
305.468
305.467
305.465
305.464
305.463
305.461
305.459
305.458
305.456
305.455
305.455
305.263
305.266
305.269
305.272
305.275
305.277
305.279
305.281
305.283
305.284
305.285
305.286
305.287
305.286
305.257
305.26
305.263
305.266
305.269
305.271
305.273
305.275
305.277
305.278
305.279
305.28
305.28
305.28
305.251
305.254
305.257
305.26
305.262
305.265
305.267
305.269
305.27
305.272
305.273
305.274
305.274
305.274
305.244
305.248
305.251
305.253
305.256
305.258
305.26
305.262
305.264
305.265
305.266
305.267
305.268
305.268
305.238
305.241
305.244
305.246
305.249
305.251
305.253
305.255
305.257
305.259
305.26
305.261
305.262
305.262
305.231
305.234
305.237
305.239
305.242
305.244
305.246
305.248
305.25
305.252
305.253
305.254
305.255
305.255
305.224
305.227
305.23
305.232
305.235
305.237
305.239
305.241
305.243
305.245
305.246
305.247
305.248
305.249
305.217
305.219
305.222
305.225
305.227
305.23
305.232
305.234
305.236
305.237
305.239
305.24
305.241
305.242
305.209
305.212
305.215
305.217
305.22
305.222
305.224
305.226
305.228
305.23
305.231
305.233
305.234
305.235
305.202
305.204
305.207
305.21
305.212
305.215
305.217
305.219
305.221
305.223
305.224
305.226
305.227
305.229
305.194
305.197
305.2
305.202
305.205
305.207
305.209
305.211
305.213
305.215
305.217
305.218
305.22
305.222
305.187
305.189
305.192
305.195
305.197
305.199
305.201
305.204
305.205
305.207
305.209
305.211
305.213
305.215
305.18
305.182
305.184
305.187
305.189
305.192
305.194
305.196
305.198
305.2
305.202
305.204
305.205
305.208
305.172
305.174
305.177
305.18
305.182
305.184
305.186
305.188
305.19
305.192
305.194
305.196
305.198
305.2
304.879
304.883
304.888
304.893
304.897
304.901
304.906
304.91
304.914
304.918
304.922
304.925
304.928
304.931
304.878
304.883
304.887
304.892
304.897
304.901
304.906
304.91
304.914
304.918
304.922
304.925
304.928
304.931
304.879
304.883
304.888
304.892
304.897
304.901
304.905
304.91
304.914
304.918
304.921
304.924
304.928
304.93
304.878
304.883
304.887
304.892
304.896
304.901
304.905
304.909
304.913
304.917
304.921
304.924
304.927
304.93
304.878
304.882
304.887
304.891
304.896
304.9
304.905
304.909
304.913
304.916
304.92
304.923
304.926
304.929
304.877
304.881
304.886
304.891
304.895
304.9
304.904
304.908
304.912
304.916
304.919
304.923
304.926
304.928
304.875
304.88
304.885
304.89
304.894
304.899
304.903
304.907
304.911
304.915
304.918
304.922
304.925
304.927
304.874
304.879
304.884
304.889
304.893
304.898
304.902
304.906
304.91
304.914
304.917
304.921
304.924
304.927
304.873
304.878
304.882
304.887
304.892
304.896
304.901
304.905
304.909
304.913
304.916
304.919
304.923
304.926
304.871
304.876
304.881
304.886
304.89
304.895
304.899
304.903
304.907
304.911
304.915
304.918
304.921
304.924
304.87
304.875
304.879
304.884
304.889
304.893
304.898
304.902
304.906
304.91
304.913
304.917
304.92
304.923
304.868
304.873
304.878
304.882
304.887
304.892
304.896
304.9
304.904
304.908
304.912
304.915
304.919
304.922
304.866
304.871
304.876
304.881
304.885
304.89
304.894
304.898
304.902
304.906
304.91
304.913
304.917
304.921
304.865
304.87
304.874
304.879
304.883
304.888
304.892
304.896
304.9
304.904
304.908
304.911
304.915
304.919
304.511
304.514
304.519
304.523
304.528
304.532
304.537
304.541
304.546
304.55
304.554
304.558
304.562
304.566
304.514
304.518
304.522
304.527
304.532
304.536
304.541
304.545
304.55
304.554
304.558
304.562
304.566
304.57
304.518
304.522
304.527
304.531
304.536
304.54
304.545
304.549
304.554
304.558
304.562
304.566
304.569
304.573
304.521
304.525
304.53
304.535
304.54
304.544
304.549
304.553
304.558
304.562
304.566
304.569
304.573
304.577
304.525
304.529
304.534
304.539
304.544
304.548
304.553
304.557
304.561
304.565
304.569
304.573
304.576
304.58
304.528
304.532
304.537
304.542
304.547
304.552
304.556
304.561
304.565
304.569
304.573
304.576
304.58
304.583
304.531
304.536
304.541
304.546
304.55
304.555
304.56
304.564
304.568
304.572
304.576
304.58
304.583
304.586
304.534
304.539
304.544
304.549
304.554
304.558
304.563
304.567
304.572
304.576
304.579
304.583
304.586
304.589
304.536
304.542
304.547
304.552
304.557
304.561
304.566
304.57
304.575
304.579
304.582
304.586
304.589
304.592
304.539
304.544
304.549
304.555
304.559
304.564
304.569
304.573
304.578
304.582
304.585
304.589
304.592
304.595
304.542
304.547
304.552
304.557
304.562
304.567
304.571
304.576
304.58
304.584
304.588
304.592
304.595
304.598
304.544
304.549
304.554
304.559
304.564
304.569
304.574
304.578
304.583
304.587
304.591
304.594
304.598
304.601
304.546
304.551
304.556
304.561
304.566
304.571
304.576
304.581
304.585
304.589
304.593
304.597
304.6
304.604
304.548
304.554
304.559
304.564
304.569
304.573
304.578
304.582
304.587
304.591
304.595
304.599
304.602
304.606
304.168
304.17
304.173
304.176
304.18
304.183
304.186
304.189
304.192
304.195
304.199
304.202
304.205
304.208
304.172
304.175
304.178
304.181
304.185
304.188
304.191
304.195
304.198
304.201
304.204
304.207
304.21
304.213
304.177
304.18
304.183
304.186
304.19
304.193
304.197
304.2
304.203
304.206
304.209
304.212
304.215
304.218
304.182
304.185
304.188
304.192
304.195
304.198
304.202
304.205
304.208
304.211
304.214
304.217
304.22
304.223
304.186
304.189
304.193
304.197
304.2
304.204
304.207
304.21
304.213
304.216
304.219
304.222
304.225
304.228
304.191
304.194
304.198
304.201
304.205
304.208
304.212
304.215
304.218
304.221
304.224
304.227
304.23
304.232
304.195
304.199
304.203
304.206
304.21
304.213
304.217
304.22
304.223
304.226
304.229
304.232
304.235
304.237
304.2
304.204
304.207
304.211
304.215
304.218
304.222
304.225
304.228
304.231
304.234
304.237
304.239
304.242
304.204
304.208
304.212
304.216
304.219
304.223
304.226
304.23
304.233
304.236
304.239
304.241
304.244
304.246
304.209
304.213
304.216
304.22
304.224
304.227
304.231
304.234
304.237
304.24
304.243
304.246
304.249
304.251
304.213
304.217
304.221
304.224
304.228
304.232
304.235
304.239
304.242
304.245
304.248
304.25
304.253
304.255
304.217
304.221
304.225
304.229
304.232
304.236
304.239
304.243
304.246
304.249
304.252
304.255
304.257
304.259
304.221
304.225
304.229
304.233
304.236
304.24
304.244
304.247
304.25
304.253
304.256
304.259
304.262
304.264
304.225
304.229
304.233
304.237
304.24
304.244
304.247
304.251
304.254
304.257
304.26
304.263
304.266
304.268
303.853
303.854
303.856
303.857
303.858
303.86
303.861
303.863
303.864
303.866
303.867
303.869
303.871
303.873
303.857
303.858
303.859
303.861
303.862
303.864
303.865
303.867
303.868
303.87
303.871
303.873
303.875
303.877
303.86
303.861
303.863
303.864
303.866
303.867
303.869
303.87
303.872
303.874
303.875
303.877
303.879
303.881
303.864
303.865
303.867
303.868
303.87
303.871
303.873
303.874
303.876
303.878
303.88
303.881
303.883
303.885
303.868
303.869
303.871
303.872
303.874
303.875
303.877
303.879
303.88
303.882
303.884
303.885
303.887
303.889
303.872
303.873
303.875
303.876
303.878
303.879
303.881
303.883
303.884
303.886
303.888
303.889
303.891
303.893
303.876
303.877
303.879
303.88
303.882
303.883
303.885
303.887
303.888
303.89
303.892
303.893
303.895
303.897
303.88
303.881
303.883
303.884
303.886
303.888
303.889
303.891
303.893
303.894
303.896
303.898
303.899
303.901
303.884
303.885
303.887
303.889
303.89
303.892
303.893
303.895
303.897
303.898
303.9
303.902
303.903
303.905
303.888
303.89
303.891
303.893
303.894
303.896
303.898
303.899
303.901
303.903
303.904
303.906
303.907
303.909
303.892
303.894
303.895
303.897
303.899
303.9
303.902
303.904
303.905
303.907
303.908
303.91
303.912
303.912
303.896
303.898
303.899
303.901
303.903
303.904
303.906
303.908
303.909
303.911
303.913
303.914
303.916
303.917
303.9
303.902
303.903
303.905
303.907
303.908
303.91
303.912
303.914
303.915
303.917
303.918
303.92
303.921
303.904
303.906
303.907
303.909
303.911
303.913
303.914
303.916
303.918
303.919
303.921
303.922
303.924
303.925
303.567
303.567
303.567
303.567
303.566
303.566
303.566
303.567
303.567
303.567
303.568
303.568
303.569
303.57
303.569
303.568
303.568
303.568
303.568
303.568
303.568
303.568
303.568
303.569
303.57
303.57
303.571
303.572
303.57
303.57
303.57
303.57
303.57
303.57
303.57
303.57
303.57
303.571
303.571
303.572
303.573
303.574
303.572
303.572
303.572
303.571
303.571
303.571
303.572
303.572
303.572
303.573
303.573
303.574
303.575
303.576
303.574
303.574
303.574
303.573
303.573
303.573
303.574
303.574
303.574
303.575
303.575
303.576
303.577
303.578
303.577
303.576
303.576
303.576
303.576
303.576
303.576
303.576
303.576
303.577
303.578
303.578
303.579
303.58
303.579
303.578
303.578
303.578
303.578
303.578
303.578
303.578
303.579
303.579
303.58
303.581
303.582
303.583
303.581
303.581
303.581
303.58
303.58
303.58
303.58
303.581
303.581
303.582
303.582
303.583
303.584
303.585
303.584
303.584
303.583
303.583
303.583
303.583
303.583
303.583
303.584
303.584
303.585
303.585
303.586
303.587
303.587
303.586
303.586
303.586
303.586
303.586
303.586
303.586
303.586
303.587
303.587
303.588
303.589
303.589
303.589
303.589
303.589
303.589
303.588
303.589
303.589
303.589
303.589
303.59
303.59
303.591
303.591
303.592
303.592
303.592
303.592
303.591
303.591
303.591
303.592
303.592
303.592
303.593
303.593
303.594
303.594
303.594
303.595
303.595
303.595
303.595
303.595
303.595
303.595
303.595
303.595
303.596
303.596
303.597
303.597
303.597
303.598
303.598
303.598
303.598
303.598
303.598
303.598
303.598
303.598
303.599
303.599
303.6
303.6
303.6
303.308
303.307
303.306
303.305
303.304
303.304
303.303
303.303
303.302
303.302
303.302
303.302
303.302
303.302
303.308
303.307
303.306
303.305
303.304
303.304
303.303
303.303
303.302
303.302
303.302
303.302
303.302
303.302
303.308
303.307
303.306
303.305
303.304
303.304
303.303
303.303
303.302
303.302
303.302
303.302
303.302
303.302
303.308
303.307
303.306
303.305
303.305
303.304
303.303
303.303
303.302
303.302
303.302
303.302
303.302
303.303
303.309
303.308
303.307
303.306
303.305
303.304
303.303
303.303
303.303
303.303
303.302
303.303
303.303
303.303
303.31
303.308
303.307
303.306
303.305
303.305
303.304
303.303
303.303
303.303
303.303
303.303
303.303
303.304
303.31
303.309
303.308
303.307
303.306
303.305
303.305
303.304
303.304
303.304
303.304
303.304
303.304
303.304
303.311
303.31
303.309
303.308
303.307
303.306
303.305
303.305
303.305
303.304
303.304
303.304
303.305
303.305
303.312
303.311
303.31
303.309
303.308
303.307
303.306
303.306
303.306
303.305
303.305
303.305
303.306
303.306
303.314
303.312
303.311
303.31
303.309
303.308
303.308
303.307
303.307
303.306
303.306
303.306
303.307
303.307
303.315
303.314
303.312
303.311
303.31
303.31
303.309
303.308
303.308
303.308
303.307
303.307
303.308
303.308
303.316
303.315
303.314
303.313
303.312
303.311
303.31
303.31
303.309
303.309
303.309
303.309
303.309
303.309
303.318
303.316
303.315
303.314
303.313
303.313
303.312
303.311
303.311
303.31
303.31
303.31
303.31
303.31
303.319
303.318
303.317
303.316
303.315
303.314
303.314
303.313
303.312
303.312
303.312
303.312
303.312
303.311
303.074
303.073
303.072
303.071
303.071
303.07
303.069
303.069
303.068
303.068
303.067
303.067
303.066
303.066
303.073
303.072
303.072
303.071
303.07
303.069
303.069
303.068
303.068
303.067
303.067
303.066
303.066
303.065
303.073
303.072
303.071
303.07
303.07
303.069
303.068
303.068
303.067
303.066
303.066
303.065
303.065
303.065
303.072
303.072
303.071
303.07
303.069
303.068
303.068
303.067
303.066
303.066
303.065
303.065
303.065
303.064
303.072
303.071
303.07
303.069
303.069
303.068
303.067
303.067
303.066
303.065
303.065
303.065
303.064
303.064
303.072
303.071
303.07
303.069
303.068
303.068
303.067
303.066
303.066
303.065
303.065
303.064
303.064
303.064
303.072
303.071
303.07
303.069
303.068
303.067
303.067
303.066
303.065
303.065
303.064
303.064
303.064
303.064
303.072
303.071
303.07
303.069
303.068
303.067
303.066
303.066
303.065
303.065
303.064
303.064
303.064
303.064
303.072
303.071
303.07
303.069
303.068
303.067
303.066
303.066
303.065
303.064
303.064
303.064
303.064
303.063
303.072
303.071
303.07
303.069
303.068
303.067
303.066
303.066
303.065
303.064
303.064
303.064
303.064
303.063
303.072
303.071
303.07
303.069
303.068
303.067
303.066
303.066
303.065
303.064
303.064
303.064
303.063
303.063
303.072
303.071
303.07
303.069
303.068
303.067
303.066
303.066
303.065
303.065
303.064
303.064
303.063
303.063
303.072
303.071
303.07
303.069
303.068
303.067
303.067
303.066
303.065
303.065
303.064
303.064
303.064
303.063
303.072
303.071
303.07
303.069
303.069
303.068
303.067
303.066
303.066
303.065
303.064
303.064
303.064
303.063
302.862
302.862
302.862
302.862
302.861
302.861
302.861
302.861
302.86
302.859
302.859
302.858
302.857
302.857
302.862
302.862
302.862
302.862
302.861
302.861
302.861
302.86
302.86
302.859
302.859
302.858
302.857
302.856
302.862
302.862
302.862
302.861
302.861
302.861
302.86
302.86
302.859
302.859
302.858
302.858
302.857
302.856
302.862
302.862
302.861
302.861
302.861
302.86
302.86
302.86
302.859
302.858
302.858
302.857
302.857
302.856
302.861
302.861
302.861
302.861
302.86
302.86
302.86
302.859
302.859
302.858
302.857
302.857
302.856
302.855
302.861
302.861
302.861
302.86
302.86
302.86
302.859
302.859
302.858
302.858
302.857
302.856
302.856
302.855
302.861
302.86
302.86
302.86
302.86
302.859
302.859
302.858
302.858
302.857
302.857
302.856
302.855
302.855
302.86
302.86
302.86
302.859
302.859
302.859
302.858
302.858
302.857
302.857
302.856
302.856
302.855
302.854
302.86
302.859
302.859
302.859
302.859
302.858
302.858
302.857
302.857
302.856
302.856
302.855
302.854
302.854
302.859
302.859
302.859
302.858
302.858
302.858
302.857
302.857
302.856
302.856
302.855
302.854
302.854
302.853
302.859
302.858
302.858
302.858
302.857
302.857
302.857
302.856
302.856
302.855
302.854
302.854
302.853
302.853
302.858
302.858
302.857
302.857
302.857
302.856
302.856
302.855
302.855
302.854
302.854
302.853
302.853
302.852
302.857
302.857
302.857
302.857
302.856
302.856
302.855
302.855
302.854
302.854
302.853
302.853
302.852
302.851
302.857
302.856
302.856
302.856
302.855
302.855
302.855
302.854
302.854
302.853
302.852
302.852
302.851
302.851
302.671
302.671
302.672
302.672
302.672
302.673
302.673
302.672
302.672
302.672
302.671
302.671
302.67
302.669
302.671
302.672
302.672
302.673
302.673
302.673
302.673
302.673
302.673
302.672
302.672
302.671
302.67
302.669
302.672
302.672
302.673
302.673
302.673
302.674
302.674
302.673
302.673
302.673
302.672
302.671
302.67
302.669
302.672
302.673
302.673
302.673
302.674
302.674
302.674
302.674
302.673
302.673
302.672
302.671
302.67
302.669
302.672
302.673
302.673
302.674
302.674
302.674
302.674
302.674
302.673
302.673
302.672
302.671
302.67
302.669
302.672
302.673
302.673
302.673
302.674
302.674
302.674
302.674
302.673
302.673
302.672
302.671
302.67
302.669
302.672
302.672
302.673
302.673
302.674
302.674
302.674
302.673
302.673
302.673
302.672
302.671
302.67
302.669
302.671
302.672
302.672
302.673
302.673
302.673
302.673
302.673
302.673
302.672
302.671
302.671
302.67
302.669
302.671
302.671
302.672
302.672
302.673
302.673
302.673
302.672
302.672
302.672
302.671
302.67
302.669
302.668
302.67
302.671
302.671
302.672
302.672
302.672
302.672
302.672
302.671
302.671
302.67
302.67
302.669
302.668
302.669
302.67
302.67
302.671
302.671
302.671
302.671
302.671
302.671
302.67
302.669
302.669
302.668
302.667
302.668
302.669
302.67
302.67
302.67
302.67
302.67
302.67
302.67
302.669
302.669
302.668
302.667
302.666
302.668
302.668
302.669
302.669
302.669
302.669
302.669
302.669
302.669
302.668
302.667
302.667
302.666
302.665
302.667
302.667
302.667
302.668
302.668
302.668
302.668
302.668
302.667
302.667
302.666
302.666
302.665
302.664
302.496
302.497
302.498
302.499
302.499
302.5
302.5
302.5
302.5
302.499
302.499
302.498
302.497
302.496
302.497
302.498
302.499
302.5
302.5
302.501
302.501
302.501
302.501
302.5
302.5
302.499
302.498
302.497
302.498
302.499
302.5
302.501
302.501
302.502
302.502
302.502
302.502
302.501
302.501
302.5
302.499
302.498
302.499
302.5
302.501
302.501
302.502
302.502
302.503
302.503
302.502
302.502
302.501
302.501
302.5
302.498
302.499
302.5
302.501
302.502
302.503
302.503
302.503
302.503
302.503
302.503
302.502
302.501
302.5
302.499
302.499
302.5
302.501
302.502
302.503
302.503
302.504
302.504
302.503
302.503
302.502
302.501
302.5
302.499
302.499
302.5
302.502
302.502
302.503
302.503
302.504
302.504
302.503
302.503
302.502
302.501
302.5
302.499
302.499
302.5
302.501
302.502
302.503
302.503
302.504
302.504
302.503
302.503
302.502
302.501
302.5
302.499
302.499
302.5
302.501
302.502
302.503
302.503
302.503
302.503
302.503
302.503
302.502
302.501
302.5
302.499
302.498
302.499
302.5
302.501
302.502
302.502
302.503
302.503
302.502
302.502
302.501
302.501
302.5
302.498
302.498
302.499
302.5
302.501
302.501
302.502
302.502
302.502
302.502
302.501
302.501
302.5
302.499
302.498
302.497
302.498
302.499
302.5
302.5
302.501
302.501
302.501
302.501
302.5
302.5
302.499
302.498
302.497
302.496
302.497
302.498
302.499
302.499
302.5
302.5
302.5
302.499
302.499
302.499
302.498
302.497
302.496
302.495
302.496
302.497
302.497
302.498
302.498
302.498
302.498
302.498
302.498
302.497
302.497
302.496
302.495
302.334
302.335
302.336
302.337
302.338
302.338
302.338
302.338
302.338
302.338
302.338
302.337
302.336
302.335
302.335
302.336
302.337
302.338
302.339
302.339
302.34
302.34
302.34
302.339
302.339
302.338
302.337
302.336
302.336
302.337
302.338
302.339
302.34
302.341
302.341
302.341
302.341
302.341
302.34
302.339
302.338
302.337
302.337
302.338
302.339
302.34
302.341
302.342
302.342
302.342
302.342
302.341
302.341
302.34
302.339
302.338
302.338
302.339
302.34
302.341
302.342
302.342
302.343
302.343
302.343
302.342
302.342
302.341
302.34
302.339
302.338
302.339
302.341
302.342
302.342
302.343
302.343
302.343
302.343
302.343
302.342
302.341
302.34
302.339
302.338
302.34
302.341
302.342
302.343
302.343
302.344
302.344
302.343
302.343
302.343
302.342
302.341
302.34
302.338
302.34
302.341
302.342
302.343
302.343
302.344
302.344
302.344
302.343
302.343
302.342
302.341
302.34
302.338
302.34
302.341
302.342
302.343
302.343
302.343
302.344
302.343
302.343
302.342
302.342
302.341
302.34
302.338
302.339
302.341
302.341
302.342
302.343
302.343
302.343
302.343
302.343
302.342
302.341
302.34
302.339
302.337
302.339
302.34
302.341
302.342
302.342
302.342
302.343
302.342
302.342
302.342
302.341
302.34
302.339
302.337
302.338
302.339
302.34
302.341
302.341
302.342
302.342
302.342
302.341
302.341
302.34
302.339
302.338
302.336
302.337
302.338
302.339
302.34
302.34
302.341
302.341
302.341
302.34
302.34
302.339
302.338
302.337
302.335
302.336
302.337
302.338
302.339
302.339
302.339
302.339
302.339
302.339
302.339
302.338
302.337
302.336
306.468
306.462
306.457
306.454
306.452
306.451
306.466
306.461
306.457
306.455
306.453
306.452
306.508
306.512
306.513
306.516
306.519
306.523
306.497
306.498
306.498
306.5
306.502
306.504
306.486
306.485
306.485
306.485
306.485
306.485
306.475
306.473
306.472
306.47
306.469
306.468
306.466
306.462
306.46
306.457
306.455
306.452
306.457
306.453
306.449
306.446
306.443
306.44
306.448
306.444
306.44
306.436
306.433
306.43
306.441
306.436
306.432
306.428
306.425
306.422
306.434
306.43
306.425
306.422
306.42
306.418
306.428
306.423
306.42
306.417
306.416
306.415
306.422
306.418
306.415
306.414
306.413
306.413
306.416
306.413
306.411
306.41
306.41
306.41
306.412
306.409
306.407
306.407
306.406
306.407
306.406
306.403
306.402
306.401
306.401
306.402
306.469
306.476
306.481
306.489
306.495
306.501
306.457
306.464
306.47
306.477
306.482
306.488
306.447
306.453
306.458
306.464
306.469
306.473
306.437
306.442
306.447
306.451
306.455
306.459
306.427
306.431
306.435
306.438
306.441
306.444
306.417
306.42
306.423
306.425
306.427
306.429
306.407
306.409
306.411