/*--------------------------------*- C++ -*----------------------------------*\
| =========                 |                                                 |
| \\      /  F ield         | OpenFOAM: The Open Source CFD Toolbox           |
|  \\    /   O peration     | Version:  v2106                                 |
|   \\  /    A nd           | Website:  www.openfoam.com                      |
|    \\/     M anipulation  |                                                 |
\*---------------------------------------------------------------------------*/
FoamFile
{
    version     2.0;
    format      ascii;
    arch        "LSB;label=32;scalar=64";
    class       volScalarField;
    location    "0.000162";
    object      k;
}
// * * * * * * * * * * * * * * * * * * * * * * * * * * * * * * * * * * * * * //

dimensions      [0 2 -2 0 0 0 0];

internalField   nonuniform List<scalar> 
18109
(
0.107067
0.0284682
0.00685411
0.00281579
0.00230509
0.00260804
0.00343598
0.0782202
0.0163819
0.00224495
0.000407118
0.000262814
0.000325816
0.000466842
0.0590054
0.0107831
0.00126943
0.000144267
3.21274e-05
2.64416e-05
4.01343e-05
0.0457464
0.00830023
0.00120457
0.000173986
2.68526e-05
4.45115e-06
2.31455e-06
0.0353382
0.00685775
0.00123133
0.000206328
3.1513e-05
4.13594e-06
5.26231e-07
0.029337
0.00630786
0.00126555
0.000214815
3.10966e-05
4.1783e-06
7.51001e-07
0.0274175
0.00657442
0.00135208
0.000219835
3.20662e-05
6.41665e-06
3.53698e-06
0.0301424
0.00755226
0.00150442
0.000243724
4.76009e-05
2.26823e-05
2.19789e-05
0.0484326
0.0114269
0.00214715
0.00065205
0.000487781
0.00055329
0.000726022
0.000990961
0.00139945
0.0020415
0.00308959
0.00492249
0.00848265
0.0168954
0.0314548
0.00598047
0.000723826
8.97384e-05
4.29144e-05
5.37929e-05
7.98185e-05
0.00011747
0.000169986
0.000249977
0.000408702
0.000854038
0.00245796
0.00840028
0.0219826
0.00385146
0.000468243
5.0577e-05
7.61678e-06
3.6637e-06
5.38288e-06
8.68415e-06
1.34461e-05
2.40047e-05
6.79134e-05
0.000281218
0.00121744
0.00472511
0.0166403
0.00306637
0.000475712
6.83013e-05
9.26074e-06
1.14836e-06
2.87058e-07
3.88507e-07
9.8165e-07
4.49012e-06
2.61818e-05
0.000142759
0.000674118
0.00268927
0.0132386
0.0026776
0.000495051
8.1098e-05
1.09677e-05
1.23797e-06
1.22068e-07
4.28056e-08
2.59396e-07
2.02676e-06
1.38637e-05
8.07734e-05
0.000399705
0.00168621
0.011688
0.00260263
0.000519069
8.52912e-05
1.08194e-05
1.21377e-06
1.76372e-07
9.82644e-08
2.40708e-07
1.49094e-06
1.03063e-05
6.27818e-05
0.000327635
0.00146296
0.011948
0.00286524
0.000569546
8.86643e-05
1.096e-05
1.74683e-06
8.5157e-07
8.16811e-07
9.93891e-07
2.41335e-06
1.24716e-05
7.36429e-05
0.000390205
0.00177666
0.0141274
0.00340877
0.000642554
9.59284e-05
1.48035e-05
6.17165e-06
5.83656e-06
6.15133e-06
6.74958e-06
9.56116e-06
2.65077e-05
0.000124361
0.000620373
0.00275693
0.017727
0.00409775
0.000751932
0.000129045
3.968e-05
3.22448e-05
3.45231e-05
3.72087e-05
4.08161e-05
5.03118e-05
8.93197e-05
0.00028304
0.00120556
0.00500369
0.0223141
0.00509949
0.00110654
0.000308576
0.000171437
0.000161083
0.000171595
0.00018625
0.000207213
0.000248388
0.000359173
0.000794472
0.00268687
0.00996276
0.0286359
0.0081043
0.00274944
0.00121725
0.000799042
0.00071886
0.000733718
0.000791406
0.000890452
0.00106686
0.00141428
0.00243129
0.00635313
0.0201733
0.0456402
0.0202394
0.00980887
0.00531023
0.00350179
0.00288574
0.00276335
0.00290988
0.00327569
0.00394109
0.005055
0.0074121
0.0150296
0.0394772
0.0985865
0.0571875
0.033817
0.020691
0.0137167
0.0104927
0.00932754
0.0094022
0.0104229
0.0125202
0.0159572
0.0214741
0.0348307
0.0733018
0.213036
0.144088
0.0983854
0.0675949
0.0470573
0.03485
0.0287857
0.0271731
0.0289627
0.0341231
0.0434679
0.0568471
0.0793112
0.131543
0.148682
0.266266
0.526537
0.961043
1.56889
2.31818
0.0662829
0.133235
0.299537
0.615264
1.10302
1.73499
0.0210168
0.0615608
0.181631
0.433299
0.833649
1.37949
0.00784426
0.0345021
0.117667
0.299788
0.609088
1.08314
0.00446638
0.0225711
0.0814934
0.219215
0.479226
0.943594
0.00349629
0.017986
0.0666023
0.188318
0.447181
0.996759
0.003621
0.0179858
0.0658537
0.193137
0.501875
1.27298
0.00441179
0.021035
0.0765648
0.235711
0.665748
1.79652
0.00575968
0.0268732
0.0996133
0.31894
0.915635
2.37552
0.00798962
0.0365773
0.136487
0.434634
1.19337
2.8453
0.0115701
0.0509423
0.182841
0.545528
1.36369
2.91384
0.0170229
0.0692336
0.228132
0.61056
1.35964
2.61172
0.0252664
0.0902072
0.260507
0.614486
1.23188
2.14598
0.0373913
0.112648
0.279895
0.587463
1.0734
1.72517
0.0524389
0.134155
0.29208
0.554666
0.939319
1.43649
0.0410167
0.102007
0.227155
0.445197
0.767251
1.17657
0.0270389
0.0697759
0.160423
0.324867
0.582379
0.935957
0.0154727
0.0427103
0.104731
0.225989
0.43345
0.752084
0.0090767
0.0272081
0.0721733
0.168744
0.351994
0.670707
0.00613562
0.0204471
0.0594513
0.151584
0.347306
0.746966
0.00564754
0.0202126
0.0625461
0.171484
0.433465
1.05021
0.00696484
0.0257409
0.0831543
0.24289
0.659386
1.65782
0.0106068
0.0394103
0.129915
0.385236
1.02612
2.41408
0.0184632
0.0668265
0.212318
0.591058
1.43387
3.0187
0.0339852
0.111614
0.318591
0.7877
1.69246
3.18265
0.061085
0.173193
0.427488
0.920516
1.74813
2.94608
0.103637
0.248078
0.525691
0.993933
1.68655
2.57825
0.16548
0.334946
0.61707
1.03793
1.60355
2.29097
0.261118
0.448117
0.723797
1.09703
1.57041
2.13729
0.21752
0.401481
0.674233
1.03224
1.47003
1.97732
0.17191
0.328504
0.562769
0.880752
1.29464
1.83549
0.132468
0.260552
0.46075
0.75482
1.18646
1.88236
0.101669
0.209162
0.391115
0.695477
1.24215
2.36005
0.0813999
0.18001
0.370062
0.753601
1.59235
3.49296
0.0726309
0.176504
0.412923
0.978181
2.30729
5.11406
0.0729118
0.198675
0.529821
1.3612
3.21209
6.65694
0.0834256
0.248201
0.695649
1.75497
3.91647
7.57018
0.105514
0.316313
0.855362
2.02023
4.18774
7.57861
0.138883
0.387511
0.960039
2.08237
3.97941
6.73916
0.182025
0.450396
1.00461
1.99119
3.51827
5.60706
0.23461
0.505793
1.00927
1.8332
3.01933
4.52994
0.299726
0.560629
1.01851
1.70663
2.60912
3.74805
0.392062
0.658828
1.07226
1.63025
2.34985
3.2619
0.176625
0.528366
1.30426
2.65447
4.57978
7.32359
0.202909
0.523335
1.16318
2.19982
3.56807
5.3643
0.231407
0.509407
1.00231
1.75764
2.74292
3.97172
0.236632
0.460514
0.838857
1.39202
2.12284
3.02565
0.256667
0.447378
0.829049
1.37253
2.05562
2.88099
0.14807
0.34064
0.691144
1.17053
1.789
2.61299
0.113623
0.282849
0.565116
0.966819
1.55958
2.56061
0.0906674
0.224174
0.457005
0.84277
1.54973
3.10489
0.0719832
0.182484
0.399869
0.841388
1.85936
4.36351
0.0569195
0.156128
0.391541
0.986695
2.49524
5.98969
0.0478382
0.150243
0.444516
1.26695
3.26344
7.34838
0.0448758
0.161746
0.531045
1.53566
3.8059
8.0497
0.0480202
0.185472
0.614936
1.68855
3.93279
7.87385
0.0557685
0.206974
0.647758
1.65973
3.60344
6.83139
0.0676943
0.225716
0.640529
1.51353
3.04341
5.36041
0.0826474
0.239586
0.607467
1.31808
2.46235
4.00945
0.10399
0.254433
0.564864
1.11037
1.93062
2.98742
0.122947
0.258806
0.511913
0.923924
1.52095
2.28899
2.58726
3.67728
5.94281
12.089
14.4442
2.13989
3.33109
6.86863
14.4247
15.8816
1.8231
3.48503
9.24125
17.4695
17.2633
1.80073
4.56822
13.1176
20.3708
18.6076
2.23285
6.80432
16.9926
21.2216
18.8071
3.18212
9.59923
19.0409
20.0934
17.9399
4.43159
11.7484
18.7795
18.2391
17.056
5.37709
12.4225
17.6057
16.9765
16.7705
19.0266
5.78645
11.9598
16.0774
15.9342
16.0994
18.9414
5.35476
10.2727
13.9686
14.8054
15.2713
18.2892
4.39186
8.13684
11.6163
13.5142
14.1786
17.096
22.8462
3.30671
5.96991
9.03902
11.7484
12.7201
15.2018
25.0367
27.444
2.45558
4.30762
6.85822
9.98172
11.7101
12.1481
23.5797
63.3443
1.92136
3.32875
5.5148
8.93776
11.6949
11.1737
12.1603
44.9104
1.58918
2.83354
4.9162
8.90802
12.3015
12.3041
12.7198
46.0809
1.34322
2.48253
4.74541
9.64076
13.016
13.4654
14.4434
42.4353
1.1793
2.38439
5.3242
11.328
14.2736
14.9551
15.7325
37.2909
1.19768
2.90596
7.18524
13.8893
16.0483
16.7944
16.5245
28.9852
1.56657
4.37136
10.4017
15.7694
16.94
17.988
17.6228
25.6097
2.42799
6.6896
13.2428
16.0615
16.4504
18.4623
18.7838
22.8394
3.72821
9.06118
14.4365
15.1317
15.6982
19.1423
20.2874
19.1067
4.89733
10.2204
14.0045
14
15.3509
20.1734
22.2595
15.3563
5.47668
10.1247
12.919
13.0717
14.9239
20.5832
5.21464
8.8882
11.3061
12.2446
14.4892
20.5049
4.44427
7.26994
9.72103
11.7085
13.8398
19.9877
3.59956
5.73345
8.23872
11.4493
13.197
18.1983
2.99616
4.66566
7.14304
11.4911
13.4273
15.6547
2.67509
4.20735
7.24771
12.7389
14.9517
2.52098
4.26765
8.84748
15.4171
16.9858
2.55902
5.08363
12.0704
18.1144
18.2289
3.11899
7.57254
16.6419
19.9947
18.9564
4.66272
11.8489
20.349
20.2753
19.5155
7.23667
16.185
21.0415
18.5825
19.0912
9.92846
18.5036
19.387
16.3582
18.4005
11.692
18.3995
17.1189
14.5316
17.8681
12.1418
16.9075
15.2301
13.5532
17.5344
11.2762
14.7643
13.8528
13.4072
17.1212
9.41803
12.0938
12.6066
13.7083
16.7418
7.39296
9.46338
11.095
13.9278
15.8486
5.70514
7.24541
9.39621
14.2973
15.2718
4.67205
5.8793
8.60119
14.8845
15.5981
4.10781
5.38202
9.81959
16.7393
17.1221
3.81141
5.87988
13.6288
19.9613
18.9388
3.78327
7.92014
19.5985
22.5143
19.5824
4.53466
12.1675
25.0702
23.0603
19.7119
6.68835
18.2132
26.9459
22.1138
19.8707
9.81746
22.8173
25.3276
20.0213
19.397
12.5421
24.0343
22.3008
17.8314
18.6017
13.9441
22.6401
19.4546
16.0235
17.8742
14.0972
20.6875
17.7171
15.0576
17.4132
12.9206
18.1218
16.474
14.6575
16.4565
10.6508
14.5643
14.9455
14.2981
15.3802
8.06262
10.8675
12.7423
13.6442
13.9766
5.75787
7.72283
9.96935
12.7004
12.7872
4.16782
5.60005
7.50938
11.601
12.2665
3.20154
4.375
6.17211
11.0547
12.8706
0.0232755
0.00502715
0.000796719
0.00016219
9.2112e-05
9.83715e-05
0.00012622
0.000162025
0.000202359
0.000257555
0.00038262
0.00074187
0.00186066
0.00557019
0.0127485
0.0022628
0.000268099
2.66139e-05
6.41847e-06
6.77516e-06
1.02753e-05
1.48415e-05
1.97516e-05
2.60808e-05
4.72138e-05
0.00015521
0.00070134
0.00313503
0.00803506
0.00143029
0.000197275
2.43915e-05
2.98177e-06
5.43308e-07
4.89793e-07
7.85301e-07
1.23425e-06
2.69158e-06
1.2474e-05
7.40368e-05
0.000397277
0.00180089
0.00610614
0.00123655
0.000217712
3.43041e-05
4.5333e-06
4.9098e-07
5.03394e-08
2.57116e-08
9.89003e-08
7.52337e-07
5.86359e-06
3.90352e-05
0.000215902
0.000991588
0.00529148
0.00119369
0.000239047
4.104e-05
5.49406e-06
5.66951e-07
4.8557e-08
7.91155e-09
3.85506e-08
3.70641e-07
3.06808e-06
2.10485e-05
0.000119949
0.000571682
0.00521727
0.00125654
0.000260836
4.38439e-05
5.51339e-06
5.48139e-07
6.72397e-08
3.05592e-08
4.76932e-08
2.5512e-07
1.99096e-06
1.38615e-05
8.12488e-05
0.00040153
0.00599381
0.00148171
0.000296608
4.65919e-05
5.56852e-06
7.19106e-07
3.06276e-07
2.83759e-07
2.98414e-07
4.68957e-07
1.96127e-06
1.23713e-05
7.31581e-05
0.000370892
0.0075844
0.00182769
0.000339364
4.98976e-05
6.6776e-06
2.27445e-06
2.14848e-06
2.25375e-06
2.34701e-06
2.61894e-06
4.58828e-06
1.75593e-05
9.30119e-05
0.000461256
0.00978658
0.00223452
0.00039352
6.11986e-05
1.49726e-05
1.18906e-05
1.3228e-05
1.43532e-05
1.53575e-05
1.67683e-05
2.14593e-05
4.43027e-05
0.000168606
0.000750916
0.012587
0.00278256
0.00052191
0.000115729
5.94885e-05
6.04695e-05
6.81414e-05
7.53219e-05
8.30012e-05
9.29077e-05
0.000111437
0.000166562
0.000431689
0.00160161
0.0165183
0.00405216
0.00105873
0.000388592
0.000267538
0.000271088
0.00029888
0.000333374
0.000376865
0.00043493
0.000521669
0.000688299
0.00134601
0.00404917
0.0264166
0.00928504
0.00355626
0.00165373
0.00113596
0.00106971
0.00113623
0.00126542
0.00145675
0.00172762
0.00211365
0.00267557
0.0043217
0.010472
0.0563109
0.0272465
0.0130029
0.00669149
0.00435886
0.00374542
0.00379362
0.00417561
0.00484934
0.00586279
0.0073591
0.00930411
0.0133131
0.0261042
0.12818
0.074124
0.0416037
0.0236099
0.0150354
0.0118257
0.0112646
0.0120935
0.0139945
0.0170274
0.0218282
0.0280871
0.0376034
0.0601621
0.00407635
0.000770542
0.000130772
3.69345e-05
1.94723e-05
1.72731e-05
2.02245e-05
2.3061e-05
2.58746e-05
2.69575e-05
2.83898e-05
4.61746e-05
0.000153301
0.000713354
0.00194853
0.000326938
4.26368e-05
5.32548e-06
1.21952e-06
1.0016e-06
1.4191e-06
1.85404e-06
2.24967e-06
2.44738e-06
3.31234e-06
1.29259e-05
8.33117e-05
0.000494824
0.00138479
0.000273089
4.38071e-05
6.31955e-06
8.10366e-07
1.08439e-07
5.97853e-08
8.5108e-08
1.19945e-07
2.08547e-07
1.03277e-06
8.21875e-06
5.75572e-05
0.000329863
0.0013664
0.000312068
5.83858e-05
9.54704e-06
1.29865e-06
1.34757e-07
1.12567e-08
2.48179e-09
6.26084e-09
5.65137e-08
5.94653e-07
5.19471e-06
3.64792e-05
0.000207364
0.00146441
0.00035654
7.20826e-05
1.21852e-05
1.64477e-06
1.64416e-07
1.22755e-08
1.05875e-09
2.53363e-09
3.21816e-08
3.55991e-07
3.14869e-06
2.23688e-05
0.000129247
0.00164331
0.00040962
8.34427e-05
1.34697e-05
1.69664e-06
1.60268e-07
1.42117e-08
4.01335e-09
4.52268e-09
2.31741e-08
2.34059e-07
2.07855e-06
1.49975e-05
8.85959e-05
0.00201277
0.0005009
9.8936e-05
1.48534e-05
1.73921e-06
1.80118e-07
4.86242e-08
4.01858e-08
3.88001e-08
4.87724e-08
1.99211e-07
1.5497e-06
1.11604e-05
6.69934e-05
0.00260278
0.000627335
0.000116689
1.61207e-05
1.88999e-06
4.16091e-07
3.50962e-07
3.56218e-07
3.51768e-07
3.43847e-07
4.60039e-07
1.62486e-06
1.00963e-05
5.99103e-05
0.00336782
0.000778383
0.000136896
1.83628e-05
3.16733e-06
2.08496e-06
2.39262e-06
2.5403e-06
2.59585e-06
2.58443e-06
2.72099e-06
4.03084e-06
1.37739e-05
7.10046e-05
0.00437429
0.000971125
0.000166216
2.61445e-05
1.05738e-05
1.13998e-05
1.36714e-05
1.49028e-05
1.57618e-05
1.63759e-05
1.71995e-05
1.93618e-05
3.45909e-05
0.000123297
0.00557103
0.00123148
0.00023123
6.12118e-05
4.67996e-05
5.53052e-05
6.60473e-05
7.34594e-05
8.02117e-05
8.69785e-05
9.43237e-05
0.000101863
0.000137227
0.00034017
0.00777761
0.00201403
0.000519595
0.000225208
0.000201303
0.000233365
0.000273984
0.000309096
0.00034678
0.000390597
0.000439664
0.000482233
0.000586598
0.00112783
0.0139629
0.00489325
0.00177368
0.000905793
0.000775936
0.000857754
0.000986593
0.00112373
0.0012879
0.00149553
0.00174588
0.00198441
0.00234218
0.00369439
0.03255
0.0144301
0.0064212
0.00341649
0.00266689
0.00276179
0.00310387
0.00355402
0.00413515
0.00490661
0.0059157
0.00701963
0.00839429
0.0114727
0.000511448
9.93199e-05
2.26822e-05
8.77859e-06
4.93166e-06
3.52204e-06
3.61057e-06
3.71539e-06
3.75536e-06
3.42641e-06
2.77866e-06
2.97586e-06
9.45563e-06
5.83887e-05
0.000239191
4.30162e-05
6.59616e-06
1.01034e-06
2.68647e-07
1.8025e-07
2.28494e-07
2.79615e-07
3.15444e-07
3.06397e-07
2.82317e-07
8.25751e-07
6.38812e-06
4.73475e-05
0.000219961
4.82076e-05
8.92121e-06
1.40177e-06
1.88434e-07
2.41015e-08
8.9622e-09
1.17329e-08
1.57264e-08
2.00327e-08
6.06367e-08
5.61085e-07
4.99209e-06
3.58699e-05
0.000270271
6.49666e-05
1.32678e-05
2.28618e-06
3.17545e-07
3.47144e-08
2.94327e-09
4.39166e-10
5.37588e-10
2.74143e-09
3.47485e-08
4.01127e-07
3.64062e-06
2.60955e-05
0.000329354
8.19801e-05
1.74126e-05
3.0621e-06
4.17837e-07
4.36877e-08
3.39115e-09
2.18004e-10
1.18829e-10
1.55443e-09
2.34346e-08
2.75803e-07
2.52662e-06
1.82723e-05
0.000399618
9.94027e-05
2.07747e-05
3.50988e-06
4.48648e-07
4.38317e-08
3.49705e-09
5.05093e-10
3.55724e-10
1.26955e-09
1.63597e-08
1.93205e-07
1.79195e-06
1.31554e-05
0.00051439
0.000126199
2.54058e-05
4.03834e-06
4.76564e-07
4.5449e-08
7.05295e-09
4.42047e-09
3.95422e-09
4.03219e-09
1.44994e-08
1.43775e-07
1.32559e-06
9.84409e-06
0.000677158
0.000160307
3.05109e-05
4.51485e-06
5.06051e-07
7.22401e-08
4.29997e-08
4.18664e-08
3.96442e-08
3.55421e-08
3.91084e-08
1.32308e-07
1.01946e-06
7.51695e-06
0.000877739
0.000199969
3.61278e-05
5.09565e-06
6.72571e-07
2.88225e-07
3.12474e-07
3.27715e-07
3.22686e-07
2.99595e-07
2.80474e-07
3.42764e-07
1.12243e-06
7.02938e-06
0.0011364
0.000248483
4.30596e-05
6.33466e-06
1.67183e-06
1.62231e-06
1.96918e-06
2.12978e-06
2.17389e-06
2.11024e-06
2.02158e-06
1.99089e-06
2.75236e-06
9.32175e-06
0.00140852
0.000297491
5.22475e-05
1.06818e-05
6.89111e-06
8.55018e-06
1.05544e-05
1.16901e-05
1.23367e-05
1.25024e-05
1.24565e-05
1.21944e-05
1.32195e-05
2.54339e-05
0.00181265
0.000401657
8.4934e-05
3.10226e-05
3.0785e-05
3.94685e-05
4.85988e-05
5.48992e-05
5.96693e-05
6.29181e-05
6.51854e-05
6.55898e-05
6.81971e-05
0.000101961
0.00271443
0.000764618
0.000223699
0.00011672
0.000125455
0.000158771
0.00019411
0.00022297
0.000248544
0.000271438
0.000291926
0.000305054
0.000319504
0.000415904
0.00588637
0.00214239
0.000777255
0.000440077
0.000450599
0.000556083
0.00067552
0.000787559
0.000896245
0.00100801
0.001123
0.00122563
0.00132581
0.00158747
6.49844e-05
1.34753e-05
3.47774e-06
1.41015e-06
7.7927e-07
5.92057e-07
5.99651e-07
6.19191e-07
6.10782e-07
5.27777e-07
3.75607e-07
2.84129e-07
6.5772e-07
4.67354e-06
3.31272e-05
6.4342e-06
1.11547e-06
1.91445e-07
4.59923e-08
2.84108e-08
3.47176e-08
4.36305e-08
5.01675e-08
4.85783e-08
3.73609e-08
6.02918e-08
4.65573e-07
4.08496e-06
3.79212e-05
8.68019e-06
1.72843e-06
3.0046e-07
4.45474e-08
5.70931e-09
1.49584e-09
1.75022e-09
2.43165e-09
2.87983e-09
4.5194e-09
3.64748e-08
3.9405e-07
3.42528e-06
5.21201e-05
1.26616e-05
2.69188e-06
4.93119e-07
7.44539e-08
8.62811e-09
7.87016e-10
1.17758e-10
1.15779e-10
2.20379e-10
1.88756e-09
2.68825e-08
3.05615e-07
2.6861e-06
6.7458e-05
1.67154e-05
3.61149e-06
6.60266e-07
9.74695e-08
1.08249e-08
9.03955e-10
6.20513e-11
1.41306e-11
7.15516e-11
1.27738e-09
1.94726e-08
2.25561e-07
2.01701e-06
8.46558e-05
2.06572e-05
4.31854e-06
7.50143e-07
1.03866e-07
1.07722e-08
8.80454e-10
9.049e-11
4.00527e-11
7.05938e-11
9.1515e-10
1.40392e-08
1.66038e-07
1.51764e-06
0.000110145
2.61158e-05
5.19147e-06
8.42383e-07
1.07722e-07
1.05535e-08
1.2407e-09
5.55394e-10
4.62008e-10
4.05045e-10
9.48795e-10
1.0646e-08
1.2468e-07
1.15344e-06
0.000144033
3.27613e-05
6.13558e-06
9.2616e-07
1.11204e-07
1.3513e-08
5.75266e-09
5.29165e-09
4.85792e-09
4.18527e-09
3.89205e-09
1.05214e-08
9.42061e-08
8.60961e-07
0.000183493
4.00743e-05
7.10791e-06
1.01536e-06
1.32028e-07
4.23787e-08
4.2323e-08
4.38961e-08
4.20377e-08
3.77931e-08
3.30388e-08
3.49424e-08
9.94956e-08
7.31074e-07
0.000233982
4.90767e-05
8.33072e-06
1.2057e-06
2.73447e-07
2.36563e-07
2.84713e-07
3.05771e-07
3.03611e-07
2.849e-07
2.58662e-07
2.40181e-07
2.76432e-07
8.75801e-07
0.000282924
5.73327e-05
9.70475e-06
1.81779e-06
1.05472e-06
1.32253e-06
1.64409e-06
1.8103e-06
1.85909e-06
1.81537e-06
1.71858e-06
1.61199e-06
1.54697e-06
2.49705e-06
0.000346142
7.10895e-05
1.3752e-05
4.71299e-06
4.86537e-06
6.55131e-06
8.18753e-06
9.21254e-06
9.75337e-06
9.87648e-06
9.71794e-06
9.36792e-06
8.88272e-06
1.14566e-05
0.000471127
0.000115498
3.06415e-05
1.72684e-05
2.09673e-05
2.83709e-05
3.54336e-05
4.06604e-05
4.42565e-05
4.63468e-05
4.72812e-05
4.71164e-05
4.56196e-05
5.32607e-05
0.000923751
0.000291345
9.88817e-05
6.54752e-05
8.00909e-05
0.000107459
0.000134041
0.000156573
0.000174581
0.000188403
0.000198802
0.000205654
0.000206799
0.000229219
9.43264e-06
1.97095e-06
5.02674e-07
2.00261e-07
1.1912e-07
1.01253e-07
1.10487e-07
1.20161e-07
1.21904e-07
1.06342e-07
7.30769e-08
4.5149e-08
6.10858e-08
4.18039e-07
5.5526e-06
1.14638e-06
2.11698e-07
3.72434e-08
8.25766e-09
4.82053e-09
6.21217e-09
8.33924e-09
1.0097e-08
1.01523e-08
7.60261e-09
7.09086e-09
3.93398e-08
3.806e-07
7.4794e-06
1.76575e-06
3.67013e-07
6.72064e-08
1.06118e-08
1.47411e-09
3.519e-10
3.79156e-10
5.4182e-10
6.45224e-10
6.73699e-10
2.95322e-09
3.43852e-08
3.40244e-07
1.09724e-05
2.70934e-06
5.91171e-07
1.11998e-07
1.77956e-08
2.27171e-09
2.27294e-10
3.67496e-11
3.48434e-11
4.66182e-11
1.47677e-10
2.04995e-09
2.72334e-08
2.7695e-07
1.48978e-05
3.71386e-06
8.12904e-07
1.52166e-07
2.35481e-08
2.88702e-09
2.64409e-10
2.11147e-11
5.47383e-12
8.19534e-12
8.45766e-11
1.50208e-09
2.06839e-08
2.16298e-07
1.92118e-05
4.66536e-06
9.8106e-07
1.74328e-07
2.54403e-08
2.93742e-09
2.58088e-10
2.39182e-11
8.15191e-12
8.29304e-12
6.03514e-11
1.07876e-09
1.53586e-08
1.662e-07
2.51429e-05
5.87918e-06
1.17024e-06
1.94351e-07
2.63175e-08
2.85162e-09
2.93104e-10
8.64699e-11
6.44291e-11
5.21293e-11
7.81619e-11
8.24762e-10
1.15861e-08
1.27896e-07
3.27768e-05
7.32265e-06
1.37327e-06
2.12952e-07
2.70946e-08
3.23183e-09
9.28227e-10
7.51022e-10
6.61456e-10
5.46745e-10
4.54422e-10
9.20083e-10
8.71626e-09
9.51204e-08
4.12813e-05
8.835e-06
1.57071e-06
2.30771e-07
3.0385e-08
7.54605e-09
6.33557e-09
6.33785e-09
5.8592e-09
5.06444e-09
4.18961e-09
3.97482e-09
9.46878e-09
7.758e-08
5.18666e-05
1.06598e-05
1.81395e-06
2.65903e-07
5.32712e-08
3.81353e-08
4.37243e-08
4.57555e-08
4.38647e-08
3.95469e-08
3.41819e-08
3.02086e-08
3.05926e-08
8.84179e-08
6.20266e-05
1.23478e-05
2.07966e-06
3.69977e-07
1.82523e-07
2.1654e-07
2.63275e-07
2.82839e-07
2.80499e-07
2.62958e-07
2.37149e-07
2.13218e-07
1.88924e-07
2.61923e-07
7.33474e-05
1.46155e-05
2.72096e-06
8.52286e-07
8.37047e-07
1.11823e-06
1.37754e-06
1.51273e-06
1.54643e-06
1.50144e-06
1.4061e-06
1.2975e-06
1.15015e-06
1.30851e-06
9.40105e-05
2.13916e-05
5.32965e-06
2.99608e-06
3.7283e-06
5.08992e-06
6.29722e-06
7.05596e-06
7.41965e-06
7.44308e-06
7.21784e-06
6.85875e-06
6.22848e-06
6.58814e-06
0.000165692
4.76021e-05
1.5653e-05
1.14068e-05
1.49288e-05
2.04429e-05
2.53362e-05
2.88846e-05
3.11021e-05
3.21018e-05
3.21228e-05
3.15034e-05
2.9712e-05
3.04445e-05
1.21796e-06
2.50434e-07
6.16463e-08
2.40798e-08
1.6291e-08
1.62601e-08
1.95828e-08
2.26409e-08
2.41242e-08
2.17079e-08
1.51015e-08
8.51589e-09
6.36324e-09
3.21529e-08
8.70022e-07
1.86198e-07
3.57433e-08
6.46197e-09
1.41863e-09
8.41827e-10
1.15421e-09
1.63258e-09
2.07452e-09
2.16396e-09
1.66482e-09
1.1195e-09
3.03858e-09
3.01973e-08
1.33768e-06
3.19189e-07
6.75096e-08
1.26513e-08
2.06237e-09
3.08229e-10
8.71572e-11
9.72371e-11
1.39009e-10
1.65707e-10
1.47924e-10
2.54085e-10
2.58064e-09
2.86505e-08
2.06282e-06
5.11383e-07
1.12437e-07
2.15587e-08
3.50397e-09
4.71232e-10
5.4224e-11
1.15369e-11
1.11921e-11
1.35858e-11
1.81476e-11
1.38572e-10
2.06226e-09
2.40987e-08
2.88137e-06
7.15432e-07
1.56409e-07
2.94629e-08
4.65559e-09
6.01509e-10
6.2954e-11
7.45867e-12
3.46022e-12
3.5392e-12
7.54126e-12
9.94487e-11
1.5871e-09
1.93016e-08
3.7426e-06
8.98541e-07
1.88009e-07
3.36365e-08
5.03382e-09
6.15997e-10
6.17162e-11
7.51524e-12
3.52327e-12
3.26644e-12
5.8523e-12
7.09181e-11
1.17604e-09
1.49994e-08
4.84625e-06
1.11219e-06
2.19631e-07
3.67531e-08
5.12271e-09
5.88016e-10
6.23149e-11
1.44031e-11
9.84793e-12
8.01388e-12
8.3531e-12
5.52029e-11
8.87651e-10
1.16649e-08
6.21611e-06
1.3572e-06
2.52274e-07
3.94675e-08
5.16724e-09
6.16127e-10
1.36511e-10
9.32052e-11
7.85497e-11
6.23954e-11
4.77877e-11
7.18274e-11
6.6887e-10
8.7086e-09
7.69412e-06
1.60589e-06
2.82808e-07
4.18594e-08
5.51437e-09
1.14971e-09
8.12781e-10
7.77422e-10
6.93895e-10
5.73283e-10
4.46047e-10
3.84615e-10
7.62067e-10
6.92729e-09
9.40605e-06
1.88325e-06
3.17078e-07
4.63152e-08
8.4958e-09
5.19915e-09
5.68402e-09
5.78633e-09
5.35743e-09
4.61478e-09
3.76459e-09
3.14212e-09
2.8494e-09
7.58508e-09
1.09515e-05
2.11976e-06
3.50543e-07
5.97643e-08
2.63162e-08
2.98741e-08
3.55718e-08
3.72511e-08
3.5656e-08
3.19271e-08
2.7214e-08
2.32096e-08
1.90963e-08
2.32078e-08
1.24244e-05
2.38689e-06
4.26929e-07
1.25931e-07
1.20811e-07
1.60608e-07
1.94972e-07
2.08718e-07
2.05739e-07
1.90667e-07
1.68761e-07
1.47583e-07
1.22361e-07
1.24667e-07
1.48494e-05
3.16674e-06
7.5249e-07
4.34442e-07
5.59388e-07
7.68061e-07
9.38802e-07
1.02485e-06
1.03817e-06
9.93377e-07
9.09931e-07
8.1768e-07
6.95585e-07
6.72638e-07
2.37256e-05
6.29719e-06
2.07442e-06
1.69841e-06
2.35694e-06
3.2642e-06
4.00177e-06
4.43891e-06
4.59916e-06
4.52364e-06
4.27023e-06
3.94609e-06
3.48312e-06
3.30912e-06
1.41316e-07
2.89456e-08
7.05869e-09
2.87123e-09
2.31369e-09
2.68334e-09
3.48993e-09
4.22262e-09
4.65038e-09
4.29545e-09
3.05432e-09
1.68994e-09
8.6947e-10
2.32715e-09
1.25596e-07
2.74088e-08
5.38943e-09
1.00481e-09
2.39663e-10
1.64457e-10
2.35732e-10
3.39485e-10
4.35593e-10
4.61098e-10
3.62395e-10
2.19105e-10
2.5399e-10
2.15074e-09
2.12561e-07
5.05999e-08
1.07156e-08
2.02024e-09
3.35885e-10
5.50974e-11
2.0499e-11
2.4504e-11
3.42026e-11
4.03649e-11
3.53244e-11
3.18069e-11
1.78767e-10
2.13833e-09
3.40515e-07
8.38128e-08
1.83038e-08
3.50101e-09
5.74435e-10
8.11894e-11
1.19804e-11
4.65626e-12
4.72372e-12
5.29291e-12
5.35665e-12
1.15765e-11
1.40882e-10
1.85298e-09
4.84577e-07
1.18755e-07
2.56391e-08
4.8016e-09
7.64478e-10
1.03229e-10
1.34402e-11
3.69125e-12
2.91747e-12
2.9173e-12
3.09947e-12
8.31302e-12
1.10177e-10
1.52702e-09
6.28635e-07
1.48216e-07
3.05642e-08
5.44115e-09
8.2234e-10
1.05399e-10
1.31703e-11
3.63723e-12
2.86639e-12
2.81266e-12
2.91999e-12
6.56287e-12
8.21057e-11
1.20496e-09
7.98085e-07
1.78838e-07
3.47513e-08
5.79343e-09
8.1808e-10
9.85953e-11
1.2577e-11
4.24187e-12
3.46684e-12
3.24619e-12
3.16409e-12
5.71843e-12
6.25971e-11
9.50154e-10
9.96951e-07
2.11684e-07
3.86964e-08
6.03792e-09
8.01408e-10
9.72687e-11
1.97048e-11
1.21771e-11
1.02143e-11
8.34754e-12
6.67574e-12
7.48481e-12
4.77803e-11
7.13595e-10
1.20259e-06
2.43563e-07
4.21667e-08
6.21919e-09
8.17061e-10
1.52126e-10
9.20995e-11
8.37971e-11
7.25323e-11
5.77346e-11
4.30403e-11
3.47568e-11
5.69404e-11
5.57337e-10
1.42491e-06
2.76781e-07
4.58047e-08
6.6218e-09
1.14044e-09
6.12288e-10
6.37053e-10
6.28461e-10
5.62346e-10
4.62991e-10
3.57856e-10
2.8306e-10
2.35223e-10
5.85177e-10
1.60944e-06
3.01999e-07
4.88869e-08
8.05051e-09
3.25472e-09
3.54915e-09
4.12886e-09
4.20031e-09
3.88079e-09
3.31904e-09
2.68135e-09
2.17094e-09
1.67987e-09
1.83234e-09
1.75414e-06
3.24948e-07
5.61226e-08
1.58729e-08
1.50348e-08
1.98384e-08
2.36601e-08
2.46179e-08
2.34045e-08
2.07194e-08
1.73934e-08
1.44345e-08
1.12944e-08
1.04747e-08
1.96413e-06
3.95968e-07
9.09255e-08
5.45422e-08
7.24573e-08
9.94698e-08
1.19702e-07
1.27003e-07
1.23961e-07
1.1328e-07
9.84138e-08
8.38042e-08
6.72256e-08
5.99376e-08
2.83437e-06
7.10534e-07
2.40856e-07
2.21219e-07
3.20853e-07
4.45675e-07
5.38524e-07
5.80279e-07
5.78843e-07
5.43723e-07
4.86557e-07
4.24981e-07
3.52628e-07
3.11211e-07
1.52186e-08
3.16007e-09
7.9665e-10
3.61205e-10
3.44418e-10
4.43118e-10
6.0169e-10
7.509e-10
8.4265e-10
7.93009e-10
5.74668e-10
3.20414e-10
1.44505e-10
1.85304e-10
1.67739e-08
3.68247e-09
7.32213e-10
1.41083e-10
3.8935e-11
3.18866e-11
4.6587e-11
6.68028e-11
8.52497e-11
9.04954e-11
7.24288e-11
4.38618e-11
2.98936e-11
1.52157e-10
3.05131e-08
7.19486e-09
1.51077e-09
2.84405e-10
4.92206e-11
1.04482e-11
6.0297e-12
7.15542e-12
9.12769e-12
1.03429e-11
9.30531e-12
7.27968e-12
1.53844e-11
1.56016e-10
5.04356e-08
1.22398e-08
2.63131e-09
4.97961e-10
8.30026e-11
1.38154e-11
4.11766e-12
3.10681e-12
3.1613e-12
3.28221e-12
3.25859e-12
3.49353e-12
1.20062e-11
1.39651e-10
7.25934e-08
1.74501e-08
3.69319e-09
6.8236e-10
1.09693e-10
1.6921e-11
4.29818e-12
2.90087e-12
2.78709e-12
2.78896e-12
2.79828e-12
3.0962e-12
9.99296e-12
1.18958e-10
9.33715e-08
2.15256e-08
4.34948e-09
7.64958e-10
1.16898e-10
1.71433e-11
4.24982e-12
2.88663e-12
2.77174e-12
2.76417e-12
2.76916e-12
2.97845e-12
8.09998e-12
9.60128e-11
1.15545e-07
2.52276e-08
4.8036e-09
7.92818e-10
1.13677e-10
1.59073e-11
4.10526e-12
2.93075e-12
2.82318e-12
2.80009e-12
2.78924e-12
2.93143e-12
6.78572e-12
7.73167e-11
1.39799e-07
2.88373e-08
5.16653e-09
7.99318e-10
1.07996e-10
1.50987e-11
4.68484e-12
3.64673e-12
3.41957e-12
3.2319e-12
3.07156e-12
3.07837e-12
5.77371e-12
5.89392e-11
1.63342e-07
3.2069e-08
5.44067e-09
7.95469e-10
1.05412e-10
1.9905e-11
1.16076e-11
1.03723e-11
9.08562e-12
7.52603e-12
6.06761e-12
5.21127e-12
6.48466e-12
4.5764e-11
1.86637e-07
3.51159e-08
5.69517e-09
8.12727e-10
1.35053e-10
6.6481e-11
6.61062e-11
6.33903e-11
5.51759e-11
4.39981e-11
3.29586e-11
2.53372e-11
2.01786e-11
4.54177e-11
2.03247e-07
3.6922e-08
5.84406e-09
9.36136e-10
3.57897e-10
3.78291e-10
4.29919e-10
4.25294e-10
3.79901e-10
3.11307e-10
2.39625e-10
1.84823e-10
1.35761e-10
1.358e-10
2.12086e-07
3.791e-08
6.35297e-09
1.7579e-09
1.66821e-09
2.18545e-09
2.55745e-09
2.58764e-09
2.37518e-09
2.01186e-09
1.60674e-09
1.26611e-09
9.37855e-10
8.00986e-10
2.23248e-07
4.28369e-08
9.64564e-09
6.10951e-09
8.36699e-09
1.14492e-08
1.35377e-08
1.39609e-08
1.31375e-08
1.14735e-08
9.47234e-09
7.63986e-09
5.7911e-09
4.78568e-09
2.92727e-07
7.05073e-08
2.51625e-08
2.58595e-08
3.88209e-08
5.38201e-08
6.39317e-08
6.68982e-08
6.42538e-08
5.7632e-08
4.89506e-08
4.04092e-08
3.15869e-08
2.59334e-08
1.54963e-09
3.29357e-10
8.95808e-11
4.83878e-11
5.31478e-11
7.20779e-11
9.94349e-11
1.25884e-10
1.42318e-10
1.35091e-10
9.92324e-11
5.65748e-11
2.5784e-11
1.99337e-11
2.07e-09
4.55048e-10
9.22804e-11
1.99497e-11
7.82697e-12
7.5852e-12
1.02965e-11
1.38581e-11
1.70397e-11
1.7928e-11
1.48325e-11
9.86395e-12
6.40545e-12
1.38573e-11
3.97111e-09
9.24711e-10
1.92985e-10
3.77362e-11
8.48099e-12
3.76768e-12
3.30973e-12
3.55994e-12
3.91863e-12
4.12921e-12
3.93465e-12
3.5084e-12
3.82827e-12
1.41761e-11
6.72505e-09
1.60299e-09
3.39024e-10
6.48119e-11
1.26481e-11
4.11044e-12
2.93109e-12
2.81592e-12
2.83296e-12
2.85573e-12
2.84925e-12
2.84351e-12
3.44183e-12
1.33331e-11
9.7242e-09
2.28625e-09
4.7403e-10
8.76629e-11
1.58958e-11
4.48247e-12
2.94549e-12
2.77568e-12
2.7624e-12
2.76342e-12
2.76421e-12
2.78342e-12
3.29677e-12
1.20808e-11
1.23475e-08
2.77777e-09
5.49658e-10
9.67142e-11
1.66202e-11
4.49275e-12
2.93814e-12
2.77344e-12
2.75954e-12
2.75888e-12
2.75943e-12
2.77392e-12
3.16278e-12
1.04692e-11
1.48392e-08
3.15436e-09
5.88371e-10
9.73442e-11
1.5873e-11
4.30492e-12
2.91553e-12
2.77663e-12
2.76424e-12
2.76223e-12
2.76149e-12
2.77134e-12
3.06748e-12
9.07388e-12
1.73159e-08
3.46863e-09
6.08851e-10
9.46213e-11
1.47575e-11
4.14585e-12
2.95648e-12
2.83741e-12
2.81414e-12
2.7971e-12
2.78345e-12
2.78252e-12
2.99093e-12
7.59277e-12
1.94965e-08
3.70857e-09
6.16139e-10
9.05764e-11
1.39415e-11
4.51211e-12
3.56902e-12
3.42387e-12
3.29281e-12
3.14461e-12
3.01382e-12
2.93706e-12
3.03202e-12
6.41937e-12
2.13785e-08
3.89158e-09
6.17942e-10
8.85258e-11
1.62704e-11
8.84969e-12
8.5914e-12
8.18485e-12
7.29479e-12
6.17494e-12
5.13456e-12
4.43533e-12
3.98768e-12
6.071e-12
2.23122e-08
3.91777e-09
6.06579e-10
9.69518e-11
3.78038e-11
3.92534e-11
4.33547e-11
4.18204e-11
3.643e-11
2.91011e-11
2.196e-11
1.67123e-11
1.23928e-11
1.19312e-11
2.22093e-08
3.82971e-09
6.27188e-10
1.76216e-10
1.71373e-10
2.22425e-10
2.54533e-10
2.50305e-10
2.2189e-10
1.8007e-10
1.37185e-10
1.02886e-10
7.28186e-11
5.846e-11
2.20078e-08
4.04466e-09
9.1173e-10