/*--------------------------------*- C++ -*----------------------------------*\
| =========                 |                                                 |
| \\      /  F ield         | OpenFOAM: The Open Source CFD Toolbox           |
|  \\    /   O peration     | Version:  v2106                                 |
|   \\  /    A nd           | Website:  www.openfoam.com                      |
|    \\/     M anipulation  |                                                 |
\*---------------------------------------------------------------------------*/
FoamFile
{
    version     2.0;
    format      ascii;
    arch        "LSB;label=32;scalar=64";
    class       volScalarField;
    location    "0.000162";
    object      nut;
}
// * * * * * * * * * * * * * * * * * * * * * * * * * * * * * * * * * * * * * //

dimensions      [0 2 -1 0 0 0 0];

internalField   nonuniform List<scalar> 
18109
(
5.91045e-07
1.63762e-07
4.20706e-08
1.88154e-08
1.63769e-08
1.89931e-08
2.45127e-08
4.26695e-07
9.3921e-08
1.3982e-08
2.80762e-09
1.93299e-09
2.47205e-09
3.51957e-09
3.25229e-07
6.48221e-08
8.8838e-09
1.21316e-09
2.75034e-10
2.12274e-10
3.17971e-10
2.62108e-07
5.49319e-08
9.71009e-09
1.63308e-09
2.66124e-10
4.32967e-11
1.97479e-11
2.17197e-07
5.03245e-08
1.0548e-08
1.92048e-09
3.04875e-10
4.10643e-11
5.17671e-12
1.95427e-07
4.91896e-08
1.0845e-08
1.93637e-09
2.8962e-10
3.98503e-11
7.10209e-12
1.955e-07
5.19903e-08
1.12937e-08
1.9086e-09
2.87364e-10
5.92449e-11
3.21652e-11
2.19697e-07
5.84777e-08
1.20986e-08
2.02499e-09
4.12835e-10
2.06242e-10
1.96431e-10
2.73547e-07
6.71835e-08
1.34542e-08
4.50804e-09
3.64329e-09
4.32195e-09
5.71876e-09
7.53966e-09
9.8363e-09
1.30343e-08
1.83784e-08
2.85178e-08
4.96656e-08
1.011e-07
1.7688e-07
3.55678e-08
4.70659e-09
6.576e-10
3.3474e-10
4.36158e-10
6.58031e-10
9.5006e-10
1.28777e-09
1.71892e-09
2.59769e-09
5.32301e-09
1.55861e-08
5.3618e-08
1.27324e-07
2.48103e-08
3.56883e-09
4.70486e-10
7.45343e-11
3.21423e-11
4.63901e-11
7.39133e-11
1.07899e-10
1.74812e-10
4.69128e-10
1.9358e-09
8.35001e-09
3.20484e-08
1.03454e-07
2.24292e-08
4.15811e-09
6.74723e-10
9.63772e-11
1.213e-11
2.7376e-12
3.39761e-12
7.86479e-12
3.39019e-11
1.94857e-10
1.05254e-09
4.90937e-09
1.93172e-08
9.03934e-08
2.15898e-08
4.49232e-09
7.84355e-10
1.1016e-10
1.27821e-11
1.27651e-12
3.75016e-13
2.10216e-12
1.62249e-11
1.09873e-10
6.32579e-10
3.08684e-09
1.28058e-08
8.64742e-08
2.17479e-08
4.63913e-09
7.9422e-10
1.04176e-10
1.19954e-11
1.73429e-12
8.94179e-13
2.06982e-12
1.25885e-11
8.58723e-11
5.14427e-10
2.62807e-09
1.14177e-08
9.21658e-08
2.37292e-08
4.9187e-09
7.92534e-10
1.01404e-10
1.66981e-11
8.00876e-12
7.33885e-12
8.54328e-12
2.02734e-11
1.03618e-10
5.98376e-10
3.06845e-09
1.33696e-08
1.08331e-07
2.73081e-08
5.32248e-09
8.21678e-10
1.33235e-10
5.83324e-11
5.39544e-11
5.4484e-11
5.69523e-11
7.67578e-11
2.04933e-10
9.30929e-10
4.45444e-09
1.87173e-08
1.31574e-07
3.14046e-08
5.91144e-09
1.04644e-09
3.50138e-10
2.99349e-10
3.14013e-10
3.24814e-10
3.39127e-10
3.94262e-10
6.50428e-10
1.92089e-09
7.73876e-09
3.02748e-08
1.58257e-07
3.67081e-08
7.95077e-09
2.28819e-09
1.435e-09
1.44505e-09
1.52924e-09
1.60041e-09
1.69662e-09
1.92046e-09
2.56942e-09
5.14636e-09
1.61124e-08
5.62836e-08
1.91328e-07
5.29389e-08
1.75942e-08
8.17169e-09
6.1309e-09
6.10018e-09
6.35011e-09
6.67416e-09
7.18091e-09
8.15091e-09
1.00913e-08
1.57539e-08
3.76385e-08
1.12519e-07
2.83367e-07
1.21525e-07
5.81169e-08
3.27382e-08
2.41802e-08
2.25351e-08
2.28482e-08
2.39379e-08
2.5976e-08
2.97303e-08
3.59654e-08
4.87803e-08
9.08072e-08
2.2453e-07
5.79298e-07
3.26393e-07
1.90234e-07
1.18653e-07
8.49817e-08
7.32978e-08
7.16594e-08
7.4445e-08
8.0926e-08
9.3107e-08
1.12755e-07
1.42935e-07
2.16258e-07
4.29331e-07
1.20337e-06
7.92119e-07
5.30561e-07
3.64208e-07
2.6371e-07
2.13869e-07
1.9786e-07
2.01582e-07
2.17806e-07
2.49328e-07
3.03777e-07
3.7844e-07
5.01105e-07
7.90053e-07
8.11095e-07
1.45334e-06
2.82169e-06
5.07457e-06
8.09867e-06
1.15588e-05
3.70322e-07
7.39135e-07
1.6302e-06
3.29325e-06
5.77637e-06
8.82298e-06
1.23749e-07
3.62776e-07
1.05081e-06
2.44858e-06
4.57214e-06
7.24152e-06
4.99885e-08
2.17059e-07
7.21398e-07
1.78729e-06
3.50507e-06
5.86259e-06
3.05802e-08
1.50685e-07
5.28281e-07
1.3723e-06
2.84005e-06
5.02971e-06
2.53896e-08
1.26369e-07
4.49627e-07
1.19802e-06
2.55912e-06
4.76381e-06
2.72175e-08
1.28905e-07
4.41552e-07
1.16145e-06
2.54425e-06
5.22272e-06
3.29265e-08
1.45764e-07
4.7536e-07
1.24916e-06
2.9263e-06
6.65088e-06
4.0594e-08
1.70241e-07
5.48477e-07
1.49737e-06
3.70741e-06
8.53756e-06
5.12148e-08
2.08266e-07
6.80677e-07
1.91016e-06
4.72127e-06
1.03507e-05
6.76848e-08
2.69351e-07
8.7454e-07
2.39044e-06
5.56741e-06
1.12039e-05
9.44475e-08
3.5741e-07
1.10218e-06
2.78987e-06
5.92517e-06
1.09091e-05
1.3873e-07
4.73145e-07
1.3115e-06
2.98617e-06
5.8036e-06
9.84265e-06
2.08586e-07
6.09517e-07
1.47349e-06
3.02192e-06
5.41262e-06
8.55056e-06
2.99827e-07
7.52213e-07
1.60511e-06
2.99836e-06
4.9986e-06
7.50152e-06
2.46826e-07
6.02638e-07
1.31492e-06
2.53008e-06
4.2782e-06
6.4144e-06
1.70997e-07
4.3355e-07
9.78472e-07
1.94446e-06
3.41076e-06
5.31952e-06
1.03457e-07
2.80744e-07
6.75832e-07
1.42759e-06
2.65981e-06
4.40558e-06
6.42204e-08
1.8892e-07
4.8984e-07
1.10951e-06
2.19998e-06
3.84382e-06
4.56384e-08
1.47826e-07
4.12967e-07
9.89154e-07
2.04852e-06
3.7908e-06
4.24917e-08
1.44419e-07
4.14195e-07
1.01516e-06
2.20881e-06
4.53338e-06
4.93913e-08
1.67871e-07
4.84745e-07
1.23537e-06
2.90896e-06
6.4483e-06
6.69162e-08
2.25355e-07
6.63618e-07
1.75543e-06
4.21809e-06
9.10196e-06
1.04032e-07
3.45872e-07
1.00858e-06
2.59168e-06
5.85482e-06
1.15647e-05
1.80809e-07
5.59e-07
1.50452e-06
3.52121e-06
7.19385e-06
1.28993e-05
3.23981e-07
8.80814e-07
2.08726e-06
4.32465e-06
7.92416e-06
1.29073e-05
5.63346e-07
1.30777e-06
2.69027e-06
4.94615e-06
8.18202e-06
1.22108e-05
9.27612e-07
1.83471e-06
3.30378e-06
5.44189e-06
8.2349e-06
1.14877e-05
1.50873e-06
2.54511e-06
4.03138e-06
5.99494e-06
8.37953e-06
1.10216e-05
1.31451e-06
2.37713e-06
3.89792e-06
5.81802e-06
8.01675e-06
1.03197e-05
1.08645e-06
2.02884e-06
3.38794e-06
5.13124e-06
7.18972e-06
9.46589e-06
8.73745e-07
1.6775e-06
2.87541e-06
4.48214e-06
6.47063e-06
8.94744e-06
6.99746e-07
1.39471e-06
2.47594e-06
4.00494e-06
6.12616e-06
9.63785e-06
5.78734e-07
1.20818e-06
2.23758e-06
3.8648e-06
6.75377e-06
1.26103e-05
5.14973e-07
1.11929e-06
2.21373e-06
4.35001e-06
8.79787e-06
1.74993e-05
4.8399e-07
1.11929e-06
2.4997e-06
5.55591e-06
1.18098e-05
2.26379e-05
4.95657e-07
1.25637e-06
3.07584e-06
7.02893e-06
1.45379e-05
2.62946e-05
5.69359e-07
1.51733e-06
3.74269e-06
8.24592e-06
1.61259e-05
2.75088e-05
7.13784e-07
1.84509e-06
4.29765e-06
8.8694e-06
1.62296e-05
2.61535e-05
9.28351e-07
2.18587e-06
4.67059e-06
8.93083e-06
1.52978e-05
2.34328e-05
1.21513e-06
2.53261e-06
4.89802e-06
8.66086e-06
1.39575e-05
2.02896e-05
1.5892e-06
2.90666e-06
5.14718e-06
8.43767e-06
1.26631e-05
1.75582e-05
2.13704e-06
3.54329e-06
5.6312e-06
8.39169e-06
1.1779e-05
1.56058e-05
9.16189e-07
2.54314e-06
5.92805e-06
1.1599e-05
1.94298e-05
2.93033e-05
1.04908e-06
2.57959e-06
5.51438e-06
1.01535e-05
1.62029e-05
2.34493e-05
1.20689e-06
2.58145e-06
4.96053e-06
8.5415e-06
1.31526e-05
1.85076e-05
1.26283e-06
2.41924e-06
4.31821e-06
7.06163e-06
1.05962e-05
1.46729e-05
1.44504e-06
2.50197e-06
4.50706e-06
7.25864e-06
1.0463e-05
1.38353e-05
8.85526e-07
2.00918e-06
3.93343e-06
6.39437e-06
9.22017e-06
1.23325e-05
7.18107e-07
1.73373e-06
3.33013e-06
5.40416e-06
7.95442e-06
1.116e-05
5.99552e-07
1.42691e-06
2.76316e-06
4.647e-06
7.23936e-06
1.16607e-05
4.95675e-07
1.1938e-06
2.38814e-06
4.25408e-06
7.54066e-06
1.46248e-05
4.03592e-07
1.01226e-06
2.15526e-06
4.36414e-06
9.13507e-06
1.92333e-05
3.37877e-07
9.08332e-07
2.1746e-06
5.11381e-06
1.15423e-05
2.36471e-05
3.01439e-07
8.90434e-07
2.40672e-06
6.04263e-06
1.35957e-05
2.65315e-05
2.97828e-07
9.51621e-07
2.71582e-06
6.73932e-06
1.45744e-05
2.7125e-05
3.21803e-07
1.03215e-06
2.90023e-06
6.89979e-06
1.41809e-05
2.52843e-05
3.71552e-07
1.1231e-06
2.95821e-06
6.62554e-06
1.28282e-05
2.16458e-05
4.43144e-07
1.20842e-06
2.91331e-06
6.08737e-06
1.1088e-05
1.76034e-05
5.56767e-07
1.31315e-06
2.81943e-06
5.40493e-06
9.22799e-06
1.40012e-05
6.69645e-07
1.38066e-06
2.66367e-06
4.71808e-06
7.62841e-06
1.12113e-05
1.26111e-05
1.69286e-05
2.26646e-05
3.59475e-05
4.32662e-05
1.05388e-05
1.47077e-05
2.31323e-05
4.07333e-05
4.65284e-05
8.91427e-06
1.38297e-05
2.77353e-05
4.75009e-05
4.94633e-05
8.05419e-06
1.55529e-05
3.65014e-05
5.3771e-05
5.16843e-05
8.54854e-06
2.08196e-05
4.55782e-05
5.55509e-05
5.11965e-05
1.08633e-05
2.81123e-05
5.07939e-05
5.31656e-05
4.85686e-05
1.44585e-05
3.43824e-05
5.11091e-05
4.93579e-05
4.59696e-05
1.76541e-05
3.73165e-05
4.92872e-05
4.66765e-05
4.45489e-05
4.79247e-05
1.96266e-05
3.73729e-05
4.67281e-05
4.47639e-05
4.27613e-05
4.72044e-05
1.94522e-05
3.44762e-05
4.3306e-05
4.32786e-05
4.11855e-05
4.59741e-05
1.75183e-05
2.99958e-05
3.91776e-05
4.17921e-05
3.96579e-05
4.41977e-05
5.44308e-05
1.47124e-05
2.4739e-05
3.39865e-05
3.94021e-05
3.80553e-05
4.14397e-05
6.01104e-05
6.28642e-05
1.19553e-05
1.99178e-05
2.87114e-05
3.61384e-05
3.71742e-05
3.74528e-05
5.91865e-05
0.000134671
9.86926e-06
1.64391e-05
2.44438e-05
3.27929e-05
3.73686e-05
3.74566e-05
3.9567e-05
0.00014214
8.4444e-06
1.42713e-05
2.15689e-05
3.10382e-05
3.86663e-05
4.05192e-05
4.13891e-05
0.000131554
7.32191e-06
1.24688e-05
1.96945e-05
3.15831e-05
4.07045e-05
4.35947e-05
4.49949e-05
0.000126347
6.42238e-06
1.12291e-05
1.9866e-05
3.52388e-05
4.40869e-05
4.70128e-05
4.7408e-05
7.33329e-05
5.99388e-06
1.17417e-05
2.39138e-05
4.13652e-05
4.82239e-05
5.0574e-05
4.88584e-05
0.000102462
6.66014e-06
1.53775e-05
3.21219e-05
4.60063e-05
4.99736e-05
5.22886e-05
4.96671e-05
0.000113248
9.06943e-06
2.19266e-05
3.97187e-05
4.69867e-05
4.84314e-05
5.22273e-05
5.02265e-05
9.38863e-05
1.31402e-05
2.9053e-05
4.33417e-05
4.50355e-05
4.60475e-05
5.22982e-05
5.1386e-05
3.98917e-05
1.72096e-05
3.32866e-05
4.3075e-05
4.2438e-05
4.44078e-05
5.30833e-05
5.3433e-05
4.06945e-05
1.98294e-05
3.42144e-05
4.12646e-05
4.05425e-05
4.30401e-05
5.29305e-05
2.01542e-05
3.22219e-05
3.85884e-05
3.94657e-05
4.22852e-05
5.25367e-05
1.87289e-05
2.88077e-05
3.57845e-05
3.92661e-05
4.19336e-05
5.22116e-05
1.65569e-05
2.49187e-05
3.25607e-05
3.94183e-05
4.24296e-05
5.07976e-05
1.46351e-05
2.16154e-05
2.93547e-05
3.94556e-05
4.46604e-05
4.95167e-05
1.33246e-05
1.95358e-05
2.81793e-05
4.166e-05
4.88547e-05
1.24224e-05
1.85434e-05
3.05696e-05
4.76123e-05
5.39693e-05
1.18259e-05
1.93253e-05
3.76438e-05
5.42933e-05
5.725e-05
1.24996e-05
2.49706e-05
4.88224e-05
5.91217e-05
5.86935e-05
1.62518e-05
3.60861e-05
5.83074e-05
5.97272e-05
5.87951e-05
2.34403e-05
4.79779e-05
6.06701e-05
5.55329e-05
5.6436e-05
3.15139e-05
5.5097e-05
5.73753e-05
4.99663e-05
5.35304e-05
3.74411e-05
5.61156e-05
5.24214e-05
4.5312e-05
5.11836e-05
3.99549e-05
5.34775e-05
4.83257e-05
4.2752e-05
4.95616e-05
3.89253e-05
4.9003e-05
4.54912e-05
4.22862e-05
4.82874e-05
3.50018e-05
4.30517e-05
4.29223e-05
4.30467e-05
4.77103e-05
2.9912e-05
3.6593e-05
3.94475e-05
4.387e-05
4.72051e-05
2.49715e-05
3.04121e-05
3.49327e-05
4.48085e-05
4.80323e-05
2.12638e-05
2.55716e-05
3.14665e-05
4.59796e-05
5.00959e-05
1.86789e-05
2.24915e-05
3.23248e-05
4.99253e-05
5.34155e-05
1.67623e-05
2.17969e-05
3.98265e-05
5.70124e-05
5.70578e-05
1.54171e-05
2.52828e-05
5.31431e-05
6.27846e-05
5.79134e-05
1.60793e-05
3.4867e-05
6.58367e-05
6.38801e-05
5.69878e-05
2.09417e-05
4.94531e-05
7.03575e-05
6.09941e-05
5.54761e-05
2.90401e-05
6.13004e-05
6.73188e-05
5.55577e-05
5.27644e-05
3.68244e-05
6.56214e-05
6.12143e-05
5.01569e-05
4.98532e-05
4.16711e-05
6.38553e-05
5.55575e-05
4.58916e-05
4.74565e-05
4.33755e-05
6.02851e-05
5.20836e-05
4.35578e-05
4.57689e-05
4.16868e-05
5.51018e-05
4.96966e-05
4.2556e-05
4.35091e-05
3.70353e-05
4.7654e-05
4.6837e-05
4.20005e-05
4.14841e-05
3.0802e-05
3.93294e-05
4.24965e-05
4.11989e-05
3.95006e-05
2.4368e-05
3.13765e-05
3.65171e-05
3.96211e-05
3.83711e-05
1.90784e-05
2.48911e-05
3.01806e-05
3.69792e-05
3.84011e-05
1.53004e-05
2.01963e-05
2.52497e-05
3.47495e-05
3.99244e-05
1.34969e-07
3.03042e-08
5.09094e-09
1.15097e-09
7.20904e-10
8.21464e-10
1.09568e-09
1.43111e-09
1.74993e-09
2.035e-09
2.62668e-09
4.62989e-09
1.13856e-08
3.43863e-08
7.47045e-08
1.41517e-08
1.84987e-09
2.11516e-10
5.46549e-11
5.91117e-11
9.29336e-11
1.37311e-10
1.81051e-10
2.19619e-10
3.4096e-10
1.0362e-09
4.62588e-09
2.05342e-08
5.05253e-08
1.02576e-08
1.67872e-09
2.43532e-10
3.22005e-11
5.56483e-12
4.67397e-12
7.58358e-12
1.15503e-11
2.17249e-11
9.07261e-11
5.26343e-10
2.79296e-09
1.25079e-08
4.36092e-08
1.03466e-08
2.06684e-09
3.50749e-10
4.83093e-11
5.3788e-12
5.52243e-13
2.47266e-13
8.14857e-13
5.82728e-12
4.47264e-11
2.94587e-10
1.61075e-09
7.30582e-09
4.20344e-08
1.06247e-08
2.27505e-09
4.06545e-10
5.61478e-11
5.95541e-12
5.20465e-13
7.51682e-14
3.19634e-13
3.0297e-12
2.48478e-11
1.68777e-10
9.51111e-10
4.47629e-09
4.32881e-08
1.11275e-08
2.40134e-09
4.15909e-10
5.38483e-11
5.50449e-12
6.75434e-13
2.8552e-13
4.20941e-13
2.21154e-12
1.7125e-11
1.18006e-10
6.82906e-10
3.32267e-09
4.93588e-08
1.26863e-08
2.61677e-09
4.22969e-10
5.21874e-11
6.99618e-12
2.94281e-12
2.60183e-12
2.62064e-12
4.05622e-12
1.73139e-11
1.09147e-10
6.35472e-10
3.14666e-09
6.03709e-08
1.49887e-08
2.86365e-09
4.34207e-10
6.11314e-11
2.20809e-11
2.03266e-11
2.03915e-11
2.0275e-11
2.17302e-11
3.7912e-11
1.48028e-10
7.76221e-10
3.72398e-09
7.45395e-08
1.7481e-08
3.164e-09
5.11535e-10
1.38278e-10
1.14655e-10
1.23513e-10
1.28171e-10
1.3073e-10
1.36045e-10
1.66948e-10
3.35071e-10
1.24296e-09
5.30498e-09
9.11978e-08
2.0524e-08
3.90817e-09
9.18597e-10
5.42567e-10
5.72113e-10
6.2692e-10
6.63537e-10
6.9651e-10
7.41495e-10
8.44654e-10
1.18191e-09
2.84925e-09
9.96061e-09
1.12576e-07
2.73213e-08
7.10363e-09
2.8436e-09
2.30888e-09
2.48737e-09
2.70041e-09
2.89431e-09
3.11767e-09
3.41936e-09
3.89313e-09
4.79723e-09
8.56949e-09
2.39557e-08
1.67238e-07
5.70994e-08
2.18245e-08
1.10487e-08
8.98144e-09
9.35582e-09
1.00182e-08
1.08069e-08
1.18788e-08
1.33873e-08
1.55608e-08
1.85398e-08
2.75929e-08
6.19995e-08
3.35751e-07
1.58501e-07
7.52908e-08
4.10249e-08
3.08652e-08
3.03977e-08
3.22223e-08
3.4923e-08
3.8942e-08
4.47985e-08
5.34688e-08
6.40833e-08
8.58862e-08
1.5749e-07
7.35149e-07
4.1487e-07
2.29972e-07
1.34073e-07
9.44612e-08
8.60123e-08
8.99248e-08
9.80819e-08
1.10378e-07
1.2833e-07
1.56595e-07
1.91831e-07
2.43763e-07
3.69693e-07
2.47047e-08
4.87174e-09
8.82609e-10
2.72084e-10
1.56104e-10
1.49342e-10
1.84272e-10
2.19122e-10
2.5333e-10
2.63637e-10
2.49778e-10
3.28409e-10
9.90472e-10
4.55499e-09
1.23822e-08
2.27354e-09
3.32613e-10
4.67189e-11
1.08956e-11
9.06427e-12
1.34175e-11
1.82941e-11
2.29332e-11
2.48063e-11
2.82271e-11
9.16673e-11
5.69617e-10
3.3364e-09
1.0282e-08
2.34437e-09
4.30339e-10
6.78969e-11
9.12487e-12
1.19423e-12
6.01301e-13
8.75897e-13
1.25233e-12
1.90299e-12
7.83678e-12
6.01344e-11
4.15514e-10
2.35098e-09
1.17584e-08
2.97301e-09
5.95573e-10
1.015e-10
1.42139e-11
1.51215e-12
1.28583e-13
2.68181e-14
5.60291e-14
4.51083e-13
4.64461e-12
4.01359e-11
2.78725e-10
1.56531e-09
1.32204e-08
3.4009e-09
7.13928e-10
1.24167e-10
1.71869e-11
1.76146e-12
1.3465e-13
1.11431e-14
2.16505e-14
2.68246e-13
2.93984e-12
2.57617e-11
1.81146e-10
1.03479e-09
1.46718e-08
3.778e-09
7.90366e-10
1.30812e-10
1.68909e-11
1.63757e-12
1.47026e-13
3.87337e-14
4.09023e-14
2.04313e-13
2.04893e-12
1.80382e-11
1.28829e-10
7.5219e-10
1.73419e-08
4.42154e-09
8.94085e-10
1.37635e-10
1.65576e-11
1.77529e-12
4.79548e-13
3.77618e-13
3.48895e-13
4.29862e-13
1.81174e-12
1.4187e-11
1.01276e-10
6.0001e-10
2.14521e-08
5.28688e-09
1.00675e-09
1.42917e-10
1.7444e-11
4.11414e-12
3.40816e-12
3.30474e-12
3.1185e-12
2.92831e-12
3.92957e-12
1.48418e-11
9.39421e-11
5.50595e-10
2.6487e-08
6.25935e-09
1.12828e-09
1.56799e-10
2.97104e-11
2.07716e-11
2.29698e-11
2.32842e-11
2.27058e-11
2.16052e-11
2.19717e-11
3.29985e-11
1.18948e-10
6.14903e-10
3.27767e-08
7.43157e-09
1.30384e-09
2.18826e-10
1.02816e-10
1.1259e-10
1.29674e-10
1.34939e-10
1.36054e-10
1.34833e-10
1.35625e-10
1.47347e-10
2.58121e-10
9.03589e-10
3.95983e-08
8.85188e-09
1.69271e-09
5.05031e-10
4.51986e-10
5.37504e-10
6.18214e-10
6.56847e-10
6.83322e-10
7.05819e-10
7.31312e-10
7.54477e-10
9.5678e-10
2.21586e-09
5.19439e-08
1.33021e-08
3.47733e-09
1.75713e-09
1.86462e-09
2.21714e-09
2.52593e-09
2.72786e-09
2.91595e-09
3.12526e-09
3.3561e-09
3.51313e-09
4.02145e-09
7.14762e-09
8.72154e-08
2.99223e-08
1.10053e-08
6.45909e-09
6.68936e-09
7.87538e-09
8.92286e-09
9.77513e-09
1.06878e-08
1.18035e-08
1.31283e-08
1.42406e-08
1.59314e-08
2.34767e-08
1.9355e-07
8.39589e-08
3.75504e-08
2.20209e-08
2.06955e-08
2.39753e-08
2.73058e-08
3.03825e-08
3.38416e-08
3.8212e-08
4.38502e-08
4.96336e-08
5.65301e-08
7.31584e-08
3.25415e-09
6.62852e-10
1.61349e-10
6.68196e-11
4.03523e-11
3.12001e-11
3.39752e-11
3.6742e-11
3.87991e-11
3.67269e-11
2.94697e-11
2.56037e-11
6.50966e-11
3.86821e-10
1.71049e-09
3.41743e-10
5.84946e-11
9.58909e-12
2.46195e-12
1.67618e-12
2.2314e-12
2.86701e-12
3.38303e-12
3.4032e-12
2.87019e-12
6.26244e-12
4.5176e-11
3.29135e-10
1.97117e-09
4.78906e-10
9.56274e-11
1.58189e-11
2.19218e-12
2.78101e-13
9.45465e-14
1.25804e-13
1.75234e-13
2.15223e-13
4.95899e-13
4.23284e-12
3.70599e-11
2.62751e-10
2.6518e-09
6.69571e-10
1.41649e-10
2.50858e-11
3.56735e-12
3.98437e-13
3.44252e-14
5.08277e-15
5.82263e-15
2.35313e-14
2.78944e-13
3.17585e-12
2.84962e-11
2.01752e-10
3.20204e-09
8.19722e-10
1.78313e-10
3.20568e-11
4.47153e-12
4.77937e-13
3.79377e-14
2.45994e-15
1.11342e-15
1.33083e-14
1.97841e-13
2.30617e-12
2.09101e-11
1.49516e-10
3.73923e-09
9.49884e-10
2.02577e-10
3.49394e-11
4.5663e-12
4.56607e-13
3.71362e-14
5.10675e-15
3.32846e-15
1.14332e-14
1.46087e-13
1.71051e-12
1.57089e-11
1.14066e-10
4.5978e-09
1.14945e-09
2.35913e-10
3.82872e-11
4.62675e-12
4.54122e-13
7.14888e-14
4.27315e-14
3.65134e-14
3.61747e-14
1.34307e-13
1.34436e-12
1.22954e-11
9.02945e-11
5.77308e-09
1.39247e-09
2.70302e-10
4.08899e-11
4.72613e-12
7.17568e-13
4.28902e-13
3.99178e-13
3.6125e-13
3.10863e-13
3.39743e-13
1.24811e-12
9.88269e-12
7.23234e-11
7.1386e-09
1.65807e-09
3.05877e-10
4.4302e-11
6.26118e-12
2.93308e-12
3.08504e-12
3.08795e-12
2.90288e-12
2.57915e-12
2.32823e-12
2.88993e-12
1.04827e-11
6.78189e-11
8.81724e-09
1.967e-09
3.48736e-10
5.37278e-11
1.64454e-11
1.65338e-11
1.92259e-11
1.98318e-11
1.93078e-11
1.79078e-11
1.64532e-11
1.57114e-11
2.20304e-11
7.8864e-11
1.04093e-08
2.23878e-09
4.03322e-10
9.18044e-11
7.00629e-11
8.62459e-11
1.01819e-10
1.07544e-10
1.08177e-10
1.04609e-10
9.97685e-11
9.38809e-11
9.79306e-11
1.82278e-10
1.26962e-08
2.83241e-09
6.16863e-10
2.69908e-10
3.10085e-10
3.92339e-10
4.62857e-10
4.98825e-10
5.16602e-10
5.19142e-10
5.14027e-10
4.95903e-10
4.92545e-10
6.92381e-10
1.7848e-08
4.98146e-09
1.5143e-09
9.74333e-10
1.22322e-09
1.54879e-09
1.8225e-09
1.99988e-09
2.12456e-09
2.20903e-09
2.26688e-09
2.26712e-09
2.26906e-09
2.79042e-09
3.65117e-08
1.31072e-08
4.92298e-09
3.37031e-09
4.1526e-09
5.28408e-09
6.23717e-09
6.9665e-09
7.56223e-09
8.09255e-09
8.58969e-09
8.95701e-09
9.25893e-09
1.05483e-08
4.34156e-10
9.45728e-11
2.57693e-11
1.10714e-11
6.5834e-12
5.4105e-12
5.8219e-12
6.32409e-12
6.5434e-12
5.93006e-12
4.34923e-12
2.92276e-12
4.84325e-12
3.20142e-11
2.67364e-10
5.74578e-11
1.09218e-11
1.96201e-12
4.54034e-13
2.75872e-13
3.51081e-13
4.62513e-13
5.57417e-13
5.6599e-13
4.33935e-13
5.08313e-13
3.39572e-12
2.91789e-11
3.83141e-10
9.35663e-11
1.95056e-11
3.50293e-12
5.31435e-13
6.83248e-14
1.66754e-14
1.94784e-14
2.81756e-14
3.42059e-14
4.27638e-14
2.84389e-13
2.99949e-12
2.57163e-11
5.44683e-10
1.36353e-10
2.96999e-11
5.55441e-12
8.54807e-13
1.00968e-13
9.36874e-15
1.39211e-15
1.37997e-15
2.30064e-15
1.57705e-14
2.17825e-13
2.44701e-12
2.12438e-11
6.82831e-10
1.7275e-10
3.80507e-11
7.08644e-12
1.06576e-12
1.20726e-13
1.02941e-14
7.21683e-16
1.59593e-16
6.51548e-16
1.10345e-14
1.66316e-13
1.90669e-12
1.68567e-11
8.18606e-10
2.03315e-10
4.32623e-11
7.65214e-12
1.07994e-12
1.14368e-13
9.5381e-15
9.60084e-16
3.92237e-16
6.56298e-16
8.34235e-15
1.26831e-13
1.48526e-12
1.34272e-11
1.01509e-09
2.44743e-10
4.95072e-11
8.18389e-12
1.0681e-12
1.07243e-13
1.28418e-14
5.50506e-15
4.36535e-15
3.69249e-15
8.86659e-15
1.0149e-13
1.1802e-12
1.08009e-11
1.2657e-09
2.92796e-10
5.58264e-11
8.59447e-12
1.05792e-12
1.35024e-13
5.85196e-14
5.15672e-14
4.52541e-14
3.74046e-14
3.40641e-14
1.00058e-13
9.34441e-13
8.49067e-12
1.5387e-09
3.42026e-10
6.18275e-11
9.03774e-12
1.23715e-12
4.36379e-13
4.26734e-13
4.22738e-13
3.86679e-13
3.32915e-13
2.80114e-13
2.96392e-13
9.51912e-13
7.3601e-12
1.87326e-09
4.0033e-10
6.9398e-11
1.0438e-11
2.69833e-12
2.46185e-12
2.84078e-12
2.9106e-12
2.75788e-12
2.47514e-12
2.15636e-12
1.93836e-12
2.26253e-12
7.9068e-12
2.16172e-09
4.46363e-10
7.75185e-11
1.59976e-11
1.09884e-11
1.36679e-11
1.62191e-11
1.70283e-11
1.66756e-11
1.55551e-11
1.41102e-11
1.27414e-11
1.18335e-11
1.88879e-11
2.51512e-09
5.23587e-10
1.0524e-10
4.3502e-11
5.10196e-11
6.69119e-11
7.98168e-11
8.5617e-11
8.63919e-11
8.34704e-11
7.85838e-11
7.27684e-11
6.63007e-11
8.1543e-11
3.22845e-09
7.92245e-10
2.23436e-10
1.59543e-10
2.16469e-10
2.8568e-10
3.41087e-10
3.73222e-10
3.87105e-10
3.86366e-10
3.76561e-10
3.59779e-10
3.34263e-10
3.72231e-10
5.95333e-09
1.86731e-09
6.8045e-10
5.75464e-10
8.02949e-10
1.06372e-09
1.2729e-09
1.41907e-09
1.50797e-09
1.54942e-09
1.55948e-09
1.54371e-09
1.48743e-09
1.57807e-09
6.60145e-11
1.44824e-11
3.87266e-12
1.6242e-12
1.04042e-12
9.53547e-13
1.10069e-12
1.25685e-12
1.33815e-12
1.22885e-12
8.82798e-13
5.27169e-13
4.92868e-13
2.94368e-12
4.99504e-11
1.13016e-11
2.2577e-12
4.14705e-13
8.85938e-14
4.90264e-14
6.47151e-14
9.05826e-14
1.14738e-13
1.21328e-13
9.39846e-14
7.02149e-14
2.95685e-13
2.77528e-12
8.06322e-11
1.98821e-11
4.26763e-12
8.00745e-13
1.28819e-13
1.79844e-14
4.0503e-15
4.31585e-15
6.4014e-15
7.96284e-15
7.62399e-15
2.41002e-14
2.66677e-13
2.60254e-12
1.18462e-10
2.99295e-11
6.66166e-12
1.28477e-12
2.07607e-13
2.69534e-14
2.74075e-15
4.41427e-16
4.24611e-16
5.67715e-16
1.34917e-15
1.69251e-14
2.21746e-13
2.22913e-12
1.5449e-10
3.92156e-11
8.73281e-12
1.66234e-12
2.61616e-13
3.26441e-14
3.05071e-15
2.51299e-16
6.8176e-17
9.02239e-17
7.5309e-16
1.30313e-14
1.77656e-13
1.83813e-12
1.89867e-10
4.68619e-11
1.00166e-11
1.80988e-12
2.68735e-13
3.1607e-14
2.83494e-15
2.6582e-16
8.80511e-17
8.58397e-17
5.6443e-16
9.89418e-15
1.3954e-13
1.49455e-12
2.36685e-10
5.62172e-11
1.13742e-11
1.92186e-12
2.65084e-13
2.93291e-14
3.07854e-15
8.80169e-16
6.25097e-16
4.88128e-16
7.35947e-16
7.97147e-15
1.11386e-13
1.21738e-12
2.94225e-10
6.67816e-11
1.27364e-11
2.01128e-12
2.61458e-13
3.23558e-14
9.56234e-15
7.44489e-15
6.27328e-15
4.97637e-15
4.01735e-15
8.72316e-15
8.7791e-14
9.54796e-13
3.53769e-10
7.69746e-11
1.393e-11
2.08941e-12
2.86186e-13
7.76054e-14
6.4865e-14
6.20708e-14
5.48585e-14
4.54309e-14
3.61537e-14
3.38968e-14
9.11635e-14
8.00247e-13
4.24577e-10
8.88093e-11
1.54114e-11
2.33349e-12
5.21544e-13
4.01563e-13
4.43589e-13
4.43169e-13
4.05785e-13
3.50086e-13
2.9052e-13
2.48299e-13
2.53086e-13
8.2592e-13
4.85097e-10
9.83461e-11
1.69692e-11
3.27671e-12
1.91361e-12
2.27602e-12
2.64323e-12
2.70884e-12
2.56378e-12
2.29736e-12
1.98679e-12
1.72122e-12
1.47831e-12
2.04609e-12
5.46677e-10
1.10675e-10
2.14286e-11
8.026e-12
8.9554e-12
1.16419e-11
1.36793e-11
1.43233e-11
1.39651e-11
1.29461e-11
1.16112e-11
1.03048e-11
8.803e-12
9.62318e-12
6.63316e-10
1.52072e-10
4.07034e-11
2.91057e-11
3.9616e-11
5.236e-11
6.18108e-11
6.60277e-11
6.61918e-11
6.33387e-11
5.87432e-11
5.35921e-11
4.68188e-11
4.74998e-11
1.10036e-09
3.16611e-10
1.14873e-10
1.08681e-10
1.55865e-10
2.07432e-10
2.45667e-10
2.67068e-10
2.74106e-10
2.69619e-10
2.57653e-10
2.42149e-10
2.19329e-10
2.15888e-10
8.99629e-12
1.94481e-12
4.98679e-13
2.03439e-13
1.47833e-13
1.57814e-13
1.99736e-13
2.41676e-13
2.69774e-13
2.55834e-13
1.87132e-13
1.07507e-13
6.0565e-14
2.34469e-13
8.64046e-12
1.99613e-12
4.07873e-13
7.63461e-14
1.60983e-14
8.87034e-15
1.23159e-14
1.80748e-14
2.39548e-14
2.62873e-14
2.11944e-14
1.32299e-14
2.41139e-14
2.24787e-13
1.50662e-11
3.70794e-12
8.03472e-13
1.53522e-13
2.5414e-14
3.80024e-15
1.01326e-15
1.12056e-15
1.659e-15
2.0753e-15
1.87769e-15
2.32901e-15
2.04259e-14
2.23012e-13
2.28282e-11
5.76964e-12
1.29073e-12
2.51458e-13
4.15002e-14
5.66901e-15
6.6293e-16
1.41775e-16
1.39249e-16
1.74317e-16
2.03672e-16
1.18232e-15
1.70641e-14
1.97159e-13
3.05079e-11
7.70118e-12
1.71053e-12
3.27247e-13
5.25209e-14
6.8985e-15
7.37646e-16
9.19577e-17
4.49373e-17
4.57721e-17
7.81789e-17
8.82469e-16
1.38392e-14
1.66595e-13
3.77267e-11
9.19692e-12
1.95407e-12
3.55101e-13
5.40017e-14
6.72333e-15
6.8953e-16
8.88518e-17
4.38666e-17
4.08431e-17
6.34216e-17
6.65813e-16
1.08441e-14
1.36942e-13
4.65294e-11
1.08384e-11
2.17374e-12
3.6971e-13
5.24197e-14
6.13373e-15
6.66652e-16
1.55072e-16
1.0348e-16
8.32049e-17
8.59902e-17
5.45775e-16
8.66104e-15
1.12731e-13
5.6926e-11
1.26175e-11
2.3832e-12
3.79295e-13
5.06345e-14
6.22075e-15
1.42361e-15
9.42943e-16
7.62493e-16
5.83596e-16
4.34501e-16
6.83554e-16
6.83512e-15
8.88377e-14
6.73102e-11
1.42704e-11
2.55586e-12
3.85613e-13
5.24717e-14
1.1818e-14
8.42719e-15
7.72946e-15
6.60488e-15
5.23517e-15
3.92159e-15
3.31623e-15
7.37217e-15
7.29747e-14
7.86565e-11
1.60134e-11
2.74664e-12
4.12749e-13
8.30712e-14
5.52199e-14
5.84613e-14
5.68839e-14
5.03675e-14
4.15634e-14
3.2583e-14
2.62949e-14
2.3845e-14
7.29109e-14
8.75867e-11
1.72546e-11
2.91982e-12
5.34924e-13
2.77706e-13
3.18213e-13
3.62316e-13
3.62252e-13
3.31318e-13
2.83896e-13
2.32283e-13
1.91069e-13
1.52573e-13
1.86263e-13
9.48769e-11
1.85404e-11
3.45055e-12
1.20976e-12
1.31445e-12
1.69748e-12
1.96549e-12
2.00765e-12
1.88963e-12
1.67409e-12
1.42065e-12
1.19638e-12
9.58164e-13
9.43188e-13
1.07688e-10
2.32557e-11
6.00113e-12
4.40939e-12
6.07801e-12
8.0328e-12
9.36201e-12
9.748e-12
9.42336e-12
8.61188e-12
7.554e-12
6.5264e-12
5.353e-12
4.98617e-12
1.62265e-10
4.34795e-11
1.62917e-11
1.72849e-11
2.53186e-11
3.3738e-11
3.9457e-11
4.174e-11
4.12533e-11
3.87215e-11
3.49587e-11
3.10072e-11
2.6341e-11
2.41127e-11
1.11285e-12
2.3998e-13
6.04211e-14
2.53741e-14
2.17352e-14
2.66568e-14
3.62334e-14
4.57546e-14
5.26874e-14
5.12691e-14
3.83958e-14
2.20819e-14
1.00242e-14
1.79494e-14
1.35242e-12
3.13052e-13
6.44442e-14
1.22627e-14
2.76226e-15
1.75695e-15
2.55091e-15
3.80325e-15
5.08091e-15
5.65561e-15
4.67361e-15
2.85074e-15
2.27398e-15
1.63821e-14
2.46953e-12
6.01883e-13
1.29958e-13
2.4903e-14
4.1945e-15
6.85199e-16
2.41387e-16
2.87148e-16
4.12991e-16
5.103e-16
4.64831e-16
3.56976e-16
1.4632e-15
1.69338e-14
3.8457e-12
9.62904e-13
2.13581e-13
4.14498e-14
6.89936e-15
9.91037e-16
1.49765e-16
5.93524e-17
6.05892e-17
6.923e-17
6.96683e-17
1.12749e-16
1.19163e-15
1.54026e-14
5.22554e-12
1.30044e-12
2.84927e-13
5.41382e-14
8.74812e-15
1.20219e-15
1.62071e-16
4.76262e-17
3.84979e-17
3.85905e-17
3.99046e-17
8.3162e-17
9.81354e-16
1.33824e-14
6.45036e-12
1.54297e-12
3.22807e-13
5.83177e-14
8.95009e-15
1.16909e-15
1.52576e-16
4.6273e-17
3.76513e-17
3.70546e-17
3.78873e-17
7.01486e-17
7.74208e-16
1.11678e-14
7.80073e-12
1.77309e-12
3.4966e-13
5.91971e-14
8.49777e-15
1.04643e-15
1.40671e-16
5.1507e-17
4.29278e-17
4.05571e-17
3.97466e-17
6.42169e-17
6.25334e-16
9.32242e-15
9.29717e-12
2.0028e-12
3.71777e-13
5.8966e-14
7.97272e-15
9.96853e-16
2.12254e-16
1.30632e-16
1.07053e-16
8.64048e-17
6.93356e-17
7.84548e-17
5.00478e-16
7.39793e-15
1.07196e-11
2.20381e-12
3.8774e-13
5.82294e-14
7.87044e-15
1.57046e-15
9.69476e-16
8.49271e-16
7.06258e-16
5.41959e-16
3.9161e-16
3.10444e-16
5.5966e-16
5.99352e-15
1.21492e-11
2.39786e-12
4.0391e-13
5.99098e-14
1.11838e-14
6.55286e-15
6.63224e-15
6.26282e-15
5.36837e-15
4.24186e-15
3.15636e-15
2.41618e-15
1.99939e-15
5.7792e-15
1.31362e-11
2.50719e-12
4.14873e-13
7.28862e-14
3.45647e-14
3.82313e-14
4.2566e-14
4.13863e-14
3.65911e-14
2.99914e-14
2.32882e-14
1.82044e-14
1.36879e-14
1.50599e-14
1.36925e-11
2.58148e-12
4.63864e-13
1.55201e-13
1.65885e-13
2.12307e-13
2.41505e-13
2.39977e-13
2.1815e-13
1.84891e-13
1.49014e-13
1.19234e-13
9.03003e-14
8.12454e-14
1.46028e-11
2.99265e-12
7.53299e-13
5.73663e-13
8.01107e-13
1.05439e-12
1.20931e-12
1.22465e-12
1.14218e-12
9.98368e-13
8.31773e-13
6.81943e-13
5.28504e-13
4.55457e-13
1.99351e-11
5.08766e-12
2.01986e-12
2.36643e-12
3.51823e-12
4.67399e-12
5.38244e-12
5.53366e-12
5.27156e-12
4.73265e-12
4.0568e-12
3.4065e-12
2.72595e-12
2.32424e-12
1.28786e-13
2.80702e-14
7.19422e-15
3.31555e-15
3.3168e-15
4.47216e-15
6.32503e-15
8.22411e-15
9.63892e-15
9.5489e-15
7.28776e-15
4.24691e-15
1.86853e-15
1.5805e-15
1.91913e-13
4.40271e-14
9.04459e-15
1.75559e-15
4.51085e-16
3.46118e-16
5.11857e-16
7.57302e-16
1.00407e-15
1.11921e-15
9.41288e-16
5.88961e-16
3.2285e-16
1.20009e-15
3.62697e-13
8.71771e-14
1.86075e-14
3.55376e-15
6.22717e-16
1.31934e-16
7.39178e-17
8.71552e-17
1.13005e-16
1.32549e-16
1.23619e-16
9.39883e-17
1.40255e-16
1.26347e-15
5.79422e-13
1.42818e-13
3.1143e-14
5.97512e-15
1.01127e-15
1.72486e-16
5.33604e-17
4.07611e-17
4.1523e-17
4.33701e-17
4.32883e-17
4.35192e-17
1.1143e-16
1.18508e-15
7.95444e-13
1.93982e-13
4.16264e-14
7.79885e-15
1.27406e-15
2.02393e-16
5.47605e-17
3.82867e-17
3.69358e-17
3.69794e-17
3.70593e-17
3.91158e-17
9.80441e-17
1.06406e-15
9.73137e-13
2.27442e-13
4.65906e-14
8.31179e-15
1.29222e-15
1.96378e-16
5.31507e-17
3.80086e-17
3.67193e-17
3.66337e-17
3.66716e-17
3.8354e-17
8.47489e-17
9.08795e-16
1.14736e-12
2.53958e-13
4.90451e-14
8.21792e-15
1.20092e-15
1.75642e-16
5.06689e-17
3.83146e-17
3.7155e-17
3.69133e-17
3.68123e-17
3.81043e-17
7.53408e-17
7.75243e-16
1.32483e-12
2.77126e-13
5.03922e-14
7.9234e-15
1.09397e-15
1.61746e-16
5.6078e-17
4.51203e-17
4.24522e-17
4.04405e-17
3.89084e-17
3.90983e-17
6.72252e-17
6.25671e-16
1.48033e-12
2.94871e-13
5.08148e-14
7.56288e-15
1.0329e-15
2.11564e-16
1.28547e-16
1.12234e-16
9.61798e-17
7.8895e-17
6.3976e-17
5.56487e-17
7.13909e-17
5.0689e-16
1.61894e-12
3.09337e-13
5.10347e-14
7.46233e-15
1.33646e-15
7.20567e-16
7.00025e-16
6.4428e-16
5.39446e-16