/*--------------------------------*- C++ -*----------------------------------*\
| =========                 |                                                 |
| \\      /  F ield         | OpenFOAM: The Open Source CFD Toolbox           |
|  \\    /   O peration     | Version:  v2106                                 |
|   \\  /    A nd           | Website:  www.openfoam.com                      |
|    \\/     M anipulation  |                                                 |
\*---------------------------------------------------------------------------*/
FoamFile
{
    version     2.0;
    format      ascii;
    arch        "LSB;label=32;scalar=64";
    class       volScalarField;
    location    "0.000162";
    object      rho;
}
// * * * * * * * * * * * * * * * * * * * * * * * * * * * * * * * * * * * * * //

dimensions      [1 -3 0 0 0 0 0];

internalField   nonuniform List<scalar> 
18109
(
2.50271
2.50602
2.50785
2.50969
2.51066
2.51152
2.51218
2.49755
2.50292
2.50546
2.50811
2.50964
2.51117
2.51247
2.49409
2.50015
2.50363
2.50677
2.50882
2.51077
2.51252
2.49207
2.49833
2.50245
2.50578
2.50817
2.51043
2.51246
2.49081
2.49713
2.50157
2.50504
2.50765
2.51011
2.51233
2.49007
2.49629
2.50084
2.50439
2.50716
2.50973
2.51204
2.48992
2.49586
2.50027
2.50383
2.50669
2.5093
2.51164
2.49054
2.49572
2.4998
2.50326
2.50615
2.50877
2.51108
2.5202
2.52464
2.52703
2.52945
2.53107
2.53251
2.53374
2.53541
2.53742
2.53995
2.5429
2.54612
2.55012
2.55444
2.51638
2.52245
2.52534
2.52827
2.53029
2.53219
2.53392
2.53602
2.5384
2.54124
2.54449
2.54803
2.55207
2.55631
2.51395
2.52032
2.52405
2.52733
2.5297
2.53196
2.53405
2.53643
2.53903
2.54191
2.54509
2.54847
2.55217
2.55609
2.51262
2.51898
2.52324
2.52667
2.52926
2.53172
2.534
2.53651
2.53916
2.542
2.5451
2.54839
2.55203
2.55577
2.51174
2.51802
2.52253
2.5261
2.52886
2.53145
2.53385
2.53638
2.539
2.54174
2.54468
2.54777
2.55119
2.5546
2.51133
2.51739
2.52192
2.52553
2.52842
2.53109
2.53355
2.53606
2.53861
2.54125
2.54414
2.54717
2.55042
2.55353
2.51143
2.51704
2.52141
2.525
2.52794
2.53064
2.5331
2.53556
2.53803
2.54063
2.54344
2.54635
2.54938
2.55208
2.51209
2.51703
2.52111
2.52453
2.52743
2.53009
2.53249
2.53489
2.53732
2.53992
2.54273
2.54556
2.54837
2.55056
2.51299
2.51728
2.52098
2.52416
2.52695
2.5295
2.53181
2.53413
2.53653
2.53916
2.54194
2.54465
2.54717
2.54901
2.51436
2.51732
2.52068
2.52368
2.52637
2.52882
2.53106
2.53335
2.53575
2.53838
2.54111
2.54375
2.54614
2.54778
2.51497
2.51776
2.52057
2.52317
2.52566
2.52795
2.53015
2.53245
2.5349
2.53759
2.54034
2.54305
2.54548
2.54712
2.51591
2.51767
2.51981
2.52208
2.52434
2.52658
2.52888
2.53131
2.53392
2.53677
2.53971
2.54254
2.54525
2.54688
2.51623
2.51759
2.51905
2.52053
2.5224
2.52454
2.52698
2.52968
2.5326
2.53577
2.53902
2.54227
2.54538
2.54722
2.51684
2.51684
2.51713
2.51801
2.51933
2.52123
2.52388
2.5271
2.53072
2.53448
2.5383
2.54185
2.54497
2.54765
2.50907
2.51336
2.52254
2.53184
2.54136
2.54766
2.52479
2.52759
2.53475
2.54292
2.55223
2.55878
2.52748
2.53136
2.53771
2.54537
2.55358
2.56102
2.53014
2.53362
2.53917
2.54599
2.55295
2.55967
2.5316
2.53443
2.5385
2.54349
2.54848
2.55388
2.53248
2.53393
2.53604
2.53872
2.54092
2.54443
2.53302
2.53291
2.53298
2.53266
2.53181
2.53273
2.53347
2.53183
2.52966
2.52676
2.52347
2.52458
2.53428
2.53149
2.52778
2.52231
2.51688
2.51867
2.53569
2.53216
2.52735
2.52114
2.51673
2.52127
2.5381
2.5345
2.52948
2.52412
2.52187
2.52906
2.54118
2.53815
2.53447
2.53168
2.53296
2.54189
2.54512
2.5432
2.54143
2.54163
2.54641
2.55505
2.55018
2.54977
2.55028
2.55317
2.56051
2.56832
2.55555
2.55661
2.55957
2.56464
2.57308
2.58072
2.56087
2.56392
2.56931
2.57542
2.58358
2.58964
2.56128
2.56556
2.57166
2.57855
2.58626
2.59304
2.56135
2.56666
2.57302
2.57948
2.58655
2.59341
2.56054
2.56589
2.57185
2.57783
2.58428
2.59102
2.5589
2.56334
2.56801
2.57261
2.57783
2.58429
2.55704
2.56021
2.5631
2.56546
2.56899
2.57421
2.55469
2.55649
2.55766
2.55824
2.55993
2.56497
2.55229
2.55261
2.55236
2.55167
2.55175
2.5572
2.55025
2.54961
2.54861
2.54674
2.54644
2.55313
2.54891
2.54832
2.54716
2.5456
2.5474
2.55592
2.54852
2.54825
2.54779
2.54879
2.55351
2.56036
2.54893
2.54922
2.5504
2.55404
2.55925
2.56567
2.54987
2.55093
2.55398
2.55868
2.56661
2.5729
2.54989
2.55157
2.55622
2.56231
2.56958
2.57352
2.55119
2.55414
2.55967
2.56479
2.5702
2.57281
2.54713
2.55086
2.55535
2.55957
2.56381
2.56764
2.54352
2.54624
2.54905
2.55183
2.5546
2.55789
2.53844
2.53917
2.54002
2.54006
2.54096
2.54255
2.5332
2.53143
2.52969
2.5264
2.52501
2.52759
2.52773
2.5237
2.51932
2.51367
2.51273
2.51879
2.52293
2.517
2.51075
2.50429
2.50473
2.51135
2.51897
2.51181
2.50496
2.49972
2.50312
2.51035
2.51631
2.50961
2.50412
2.50226
2.50621
2.50972
2.51519
2.51015
2.50736
2.50937
2.51298
2.51545
2.51572
2.51307
2.51359
2.51661
2.52372
2.52659
2.51731
2.51563
2.51901
2.52527
2.53334
2.53565
2.51846
2.51897
2.52467
2.53146
2.53932
2.54141
2.51669
2.51857
2.52549
2.53214
2.53865
2.54115
2.48609
2.47969
2.47776
2.48053
2.48869
2.4919
2.49019
2.48632
2.48802
2.49477
2.50482
2.50898
2.49557
2.49442
2.49926
2.50897
2.52078
2.52701
2.50135
2.50413
2.51084
2.52123
2.53252
2.53995
2.51977
2.52311
2.5303
2.5353
2.5392
2.54062
2.51671
2.52005
2.52368
2.5272
2.53035
2.53414
2.51548
2.51706
2.51741
2.51916
2.52046
2.52255
2.51224
2.51125
2.5088
2.50767
2.50546
2.50465
2.51048
2.50615
2.50032
2.49533
2.48968
2.48885
2.50739
2.50023
2.49175
2.48346
2.47697
2.47646
2.50514
2.49577
2.48517
2.47439
2.46955
2.47062
2.50358
2.49271
2.48109
2.47047
2.46887
2.47097
2.50316
2.49219
2.48124
2.47269
2.47313
2.47429
2.50387
2.49417
2.48591
2.48091
2.48223
2.48485
2.50587
2.49814
2.49271
2.49124
2.49574
2.50029
2.50872
2.50329
2.50151
2.50372
2.51182
2.51719
2.51284
2.5099
2.51173
2.51787
2.52775
2.5345
2.51716
2.5182
2.52259
2.53081
2.54136
2.54855
2.56845
2.58008
2.61512
2.68421
2.84171
2.57513
2.59539
2.64208
2.7302
2.92088
2.57571
2.60277
2.65916
2.78304
3.02524
2.56983
2.5997
2.68055
2.84013
3.07365
2.55905
2.59568
2.69759
2.86155
3.05987
2.54605
2.59386
2.69391
2.83819
3.00777
2.53754
2.58307
2.66018
2.78096
2.96664
2.53276
2.56844
2.61311
2.69559
2.86498
3.06022
2.53375
2.556
2.5747
2.62342
2.74595
2.91147
2.53956
2.55071
2.55423
2.58775
2.68095
2.83416
2.5499
2.55374
2.55089
2.58884
2.67226
2.81832
2.96796
2.56256
2.56406
2.56231
2.60452
2.69598
2.85893
3.07729
3.24218
2.57546
2.579
2.58268
2.62941
2.74821
2.97061
3.28328
3.66285
2.5878
2.59384
2.60695
2.65169
2.76371
2.95819
3.23301
3.50165
2.59781
2.60705
2.62916
2.67717
2.78893
2.98579
3.22583
3.36888
2.60503
2.61983
2.65119
2.70817
2.83436
3.05751
3.27747
3.43753
2.60812
2.63135
2.66977
2.74089
2.89793
3.14852
3.429
3.56455
2.60828
2.63694
2.68718
2.78525
2.9532
3.17529
3.405
3.68514
2.60236
2.6366
2.70958
2.82784
2.98688
3.16145
3.32674
3.40814
2.59332
2.64111
2.72537
2.84493
2.99508
3.16891
3.31579
3.40326
2.58701
2.63955
2.71368
2.8164
2.96922
3.18881
3.38307
3.46976
2.57597
2.61652
2.66324
2.74225
2.88898
3.10208
3.33378
3.62024
2.56849
2.59407
2.61914
2.6745
2.7882
2.95451
2.56477
2.57311
2.58311
2.63216
2.73712
2.90095
2.56545
2.56405
2.56849
2.62799
2.73376
2.90962
2.56961
2.56529
2.57185
2.63748
2.76469
2.98139
2.57515
2.57332
2.589
2.66057
2.81875
3.10528
2.57655
2.58132
2.6101
2.68303
2.84465
2.57921
2.59431
2.63568
2.72067
2.8945
2.57898
2.6039
2.66275
2.77799
2.96588
2.57252
2.60823
2.69166
2.83462
3.03665
2.56195
2.614
2.70936
2.84354
3.02593
2.55188
2.60965
2.69301
2.81036
2.97654
2.54139
2.58517
2.64531
2.75906
2.93683
2.52832
2.54921
2.59772
2.71331
2.92227
2.51612
2.5171
2.55994
2.66668
2.85713
2.50404
2.49342
2.53045
2.61843
2.76844
2.50357
2.48727
2.52074
2.60249
2.75011
2.51373
2.49808
2.52894
2.61647
2.77825
2.52615
2.51646
2.54676
2.64201
2.82727
2.53786
2.53624
2.57179
2.67377
2.88561
2.54239
2.55238
2.59604
2.69609
2.90813
2.54694
2.56822
2.628
2.74812
2.97343
2.54756
2.58125
2.6657
2.8247
3.06416
2.53981
2.58317
2.70286
2.88838
3.15607
2.52552
2.58401
2.70559
2.88359
3.14261
2.50988
2.56253
2.65679
2.81115
3.04245
2.49524
2.52595
2.59128
2.72738
2.93915
2.48497
2.49399
2.5429
2.67614
2.9229
2.47683
2.47204
2.50707
2.61753
2.83211
2.47158
2.45807
2.48076
2.56174
2.71417
2.47756
2.46169
2.47951
2.54603
2.67284
2.49292
2.47965
2.49493
2.55935
2.68725
2.513
2.50616
2.52091
2.58679
2.73039
2.53619
2.53536
2.55265
2.61992
2.77939
2.55396
2.5611
2.58708
2.64963
2.7937
2.55241
2.55767
2.56054
2.56348
2.56566
2.56765
2.56932
2.5713
2.57352
2.57607
2.57889
2.58181
2.5851
2.58773
2.55017
2.55601
2.55945
2.56264
2.56512
2.56745
2.5696
2.572
2.57454
2.57737
2.58045
2.58365
2.58698
2.59006
2.54907
2.55488
2.55879
2.56212
2.56481
2.56741
2.5699
2.57257
2.57531
2.57816
2.5812
2.58429
2.5875
2.59044
2.5484
2.55411
2.55829
2.56177
2.5646
2.56735
2.57003
2.57285
2.57573
2.57861
2.58159
2.58453
2.58759
2.5905
2.54805
2.55363
2.55787
2.56142
2.56438
2.56724
2.57002
2.57287
2.57575
2.57856
2.58141
2.58417
2.58701
2.58965
2.54815
2.55336
2.55749
2.56104
2.56409
2.56703
2.56986
2.5727
2.5755
2.57821
2.58094
2.58357
2.58628
2.58875
2.54864
2.55335
2.55725
2.56069
2.56374
2.56669
2.56951
2.57229
2.57501
2.57764
2.58028
2.58282
2.58538
2.58763
2.54952
2.55364
2.55719
2.56043
2.56335
2.56622
2.56895
2.57165
2.57429
2.57689
2.57952
2.58201
2.58443
2.58644
2.5505
2.55404
2.55725
2.56022
2.56297
2.5657
2.5683
2.57091
2.57349
2.57609
2.57869
2.58112
2.58339
2.58513
2.55122
2.55421
2.55715
2.55989
2.56248
2.56507
2.56755
2.5701
2.57265
2.57526
2.57783
2.58019
2.58233
2.58385
2.55233
2.55465
2.5571
2.55948
2.56186
2.56427
2.56667
2.56918
2.57175
2.57437
2.57692
2.57926
2.58135
2.58281
2.5528
2.5545
2.55652
2.5585
2.56069
2.56301
2.56543
2.56803
2.57072
2.57344
2.57604
2.57845
2.58061
2.58205
2.55269
2.55408
2.55541
2.55701
2.55901
2.56126
2.56379
2.56655
2.56945
2.57236
2.57508
2.5777
2.58013
2.58168
2.55213
2.55261
2.55327
2.55445
2.55616
2.55839
2.56116
2.56433
2.56771
2.57104
2.57418
2.57685
2.57962
2.58107
2.60163
2.60637
2.60962
2.61267
2.61514
2.6174
2.61949
2.62167
2.624
2.62642
2.62901
2.63153
2.63416
2.63592
2.60161
2.60605
2.60924
2.61215
2.61465
2.61707
2.61945
2.62195
2.62461
2.62731
2.63016
2.63293
2.63573
2.63802
2.60144
2.60575
2.60903
2.61191
2.61446
2.61701
2.61959
2.62229
2.62513
2.62796
2.63084
2.63354
2.63627
2.63851
2.60174
2.60573
2.60897
2.61184
2.61445
2.61708
2.61978
2.62258
2.62549
2.62834
2.63117
2.63382
2.63647
2.63878
2.60234
2.60596
2.60901
2.61183
2.61448
2.61718
2.61995
2.62278
2.62564
2.6284
2.6311
2.63361
2.63608
2.63828
2.6032
2.60633
2.60914
2.61184
2.61451
2.61725
2.62004
2.62285
2.62563
2.62829
2.63084
2.6332
2.63552
2.63764
2.60404
2.60669
2.60927
2.61184
2.61447
2.61721
2.62
2.62277
2.62546
2.628
2.6304
2.63263
2.63479
2.63677
2.60494
2.60712
2.60943
2.61183
2.61437
2.61704
2.61977
2.62248
2.62508
2.62754
2.62985
2.63198
2.63399
2.63582
2.60576
2.60753
2.60959
2.6118
2.61419
2.61675
2.61938
2.622
2.62454
2.62694
2.62921
2.63129
2.63319
2.63488
2.60633
2.60776
2.6096
2.61164
2.61389
2.61631
2.61882
2.62137
2.62387
2.62626
2.62852
2.63056
2.63237
2.63388
2.60685
2.60791
2.60948
2.61132
2.61342
2.6157
2.61811
2.62059
2.62306
2.62547
2.62772
2.62975
2.63152
2.63293
2.60675
2.60756
2.60887
2.61054
2.61257
2.61481
2.61718
2.61968
2.62218
2.62461
2.62688
2.62895
2.63076
2.63215
2.60628
2.60682
2.60786
2.6094
2.61142
2.61364
2.61604
2.6186
2.62117
2.6237
2.62604
2.62823
2.63023
2.63178
2.60425
2.60495
2.60588
2.60747
2.60951
2.61191
2.61451
2.61729
2.62005
2.62275
2.62531
2.6275
2.62974
2.63077
2.64282
2.64613
2.64864
2.65125
2.65359
2.65581
2.65796
2.66007
2.66226
2.66443
2.66663
2.66866
2.67068
2.67256
2.64306
2.64616
2.64858
2.65092
2.65319
2.65545
2.65773
2.66004
2.66243
2.66481
2.6672
2.66947
2.6717
2.6738
2.64346
2.64623
2.64857
2.65082
2.65308
2.65536
2.65769
2.66009
2.66255
2.66501
2.66748
2.6698
2.67207
2.67417
2.64416
2.64649
2.6487
2.65086
2.6531
2.65541
2.6578
2.66023
2.6627
2.66514
2.66758
2.66989
2.67215
2.67428
2.64497
2.64692
2.64892
2.65098
2.65319
2.65552
2.65792
2.66035
2.66278
2.66516
2.66749
2.66973
2.67192
2.67405
2.64577
2.64737
2.64916
2.65111
2.65329
2.65559
2.65799
2.66041
2.66278
2.66508
2.6673
2.66943
2.67152
2.6736
2.64644
2.64777
2.64939
2.65124
2.65337
2.65564
2.65801
2.66038
2.66269
2.6649
2.66701
2.66903
2.67102
2.67303
2.64706
2.64816
2.64961
2.65135
2.65339
2.65559
2.6579
2.66021
2.66244
2.66458
2.66661
2.66855
2.67045
2.67237
2.64759
2.64847
2.64977
2.65141
2.65336
2.65547
2.65769
2.65993
2.6621
2.66419
2.66616
2.66805
2.6699
2.67173
2.64788
2.64865
2.64985
2.65141
2.65327
2.65528
2.65741
2.65959
2.66171
2.66378
2.66574
2.66761
2.66942
2.67117
2.6481
2.64873
2.64985
2.65133
2.6531
2.65502
2.65706
2.65917
2.66126
2.66334
2.66532
2.66722
2.66902
2.67072
2.64796
2.64855
2.64962
2.65109
2.65283
2.65471
2.65671
2.65878
2.66087
2.66296
2.66499
2.66696
2.6688
2.67048
2.64766
2.64816
2.6492
2.65067
2.65242
2.6543
2.65631
2.6584
2.66051
2.66265
2.66477
2.66687
2.66886
2.67066
2.64652
2.64734
2.64835
2.64989
2.6517
2.65369
2.65583
2.65805
2.66027
2.66245
2.66461
2.66667
2.66875
2.67032
2.67439
2.67642
2.67797
2.67978
2.68164
2.68357
2.6855
2.68743
2.68936
2.69131
2.69326
2.69519
2.697
2.69912
2.67494
2.67666
2.67806
2.67971
2.68151
2.6834
2.68535
2.68734
2.68935
2.69139
2.69341
2.69546
2.69737
2.69954
2.67563
2.67698
2.6783
2.67981
2.68153
2.68337
2.68528
2.68724
2.68923
2.69127
2.69331
2.6954
2.69738
2.69953
2.6763
2.6773
2.67849
2.67991
2.68156
2.68336
2.68525
2.68721
2.6892
2.69124
2.69326
2.69535
2.69737
2.69952
2.67689
2.67762
2.67868
2.68001
2.6816
2.68335
2.68521
2.68716
2.68912
2.69114
2.69314
2.69521
2.69725
2.69941
2.67743
2.67797
2.67887
2.68011
2.68164
2.68335
2.68517
2.6871
2.68903
2.69103
2.693
2.69505
2.69708
2.69924
2.67785
2.67826
2.67906
2.68024
2.6817
2.68337
2.68517
2.68706
2.68896
2.69093
2.69286
2.69488
2.69689
2.69905
2.67821
2.67851
2.67925
2.68038
2.6818
2.68343
2.6852
2.68706
2.68893
2.69085
2.69275
2.69472
2.69671
2.69887
2.67848
2.67873
2.67945
2.68056
2.68196
2.68357
2.68531
2.68714
2.68897
2.69086
2.69273
2.69466
2.69663
2.69876
2.67866
2.67895
2.6797
2.68082
2.68223
2.68382
2.68554
2.68735
2.68917
2.69104
2.69289
2.6948
2.69672
2.69882
2.67883
2.67919
2.68
2.68114
2.68255
2.68413
2.68583
2.68763
2.68944
2.6913
2.69315
2.69506
2.69698
2.69908
2.67904
2.67953
2.68038
2.68156
2.68299
2.68456
2.68626
2.68807
2.68989
2.69177
2.69363
2.69554
2.69747
2.69951
2.67921
2.67985
2.68077
2.68203
2.68349
2.68509
2.68681
2.68863
2.69047
2.69236
2.69425
2.69619
2.69814
2.70023
2.67907
2.68004
2.68108
2.68248
2.68401
2.68567
2.68743
2.68928
2.69112
2.693
2.69487
2.69677
2.6988
2.7008
2.69643
2.69689
2.6975
2.6984
2.69946
2.70067
2.70202
2.70344
2.70487
2.70643
2.70797
2.70977
2.71149
2.71365
2.69673
2.69704
2.69754
2.69839
2.69942
2.70063
2.70198
2.70344
2.70492
2.70655
2.70817
2.71003
2.71176
2.71391
2.69706
2.69725
2.69773
2.6985
2.69949
2.70064
2.70193
2.70335
2.70482
2.70645
2.7081
2.70997
2.71178
2.7139
2.69725
2.69734
2.69779
2.6985
2.69944
2.70056
2.70182
2.70325
2.70476
2.70644
2.70814
2.71004
2.7119
2.71401
2.69738
2.69741
2.69783
2.69851
2.69941
2.70051
2.70177
2.70321
2.70475
2.70647
2.70821
2.71013
2.71205
2.71415
2.69749
2.69749
2.69786
2.6985
2.69939
2.70049
2.70177
2.70324
2.70482
2.70656
2.70834
2.71028
2.71224
2.71434
2.69758
2.69758
2.69794
2.69857
2.69948
2.70061
2.70191
2.7034
2.705
2.70675
2.70856
2.71048
2.71248
2.71458
2.69771
2.69773
2.69811
2.69877
2.69971
2.70087
2.70221
2.70372
2.70533
2.70708
2.7089
2.7108
2.71281
2.7149
2.69788
2.69795
2.69838
2.69909
2.70009
2.70129
2.70267
2.70421
2.70583
2.70757
2.70937
2.71124
2.71325
2.71532
2.69822
2.6984
2.69889
2.69966
2.70071
2.70196
2.70338
2.70494
2.70656
2.70828
2.71007
2.7119
2.71388
2.71591
2.69867
2.699
2.69959
2.70044
2.70155
2.70285
2.7043
2.70588
2.70751
2.70922
2.71098
2.71278
2.71472
2.71673
2.69942
2.6999
2.70056
2.70148
2.70262
2.70395
2.70543
2.70702
2.70865
2.71035
2.71209
2.71386
2.7158
2.71771
2.7004
2.701
2.70175
2.70274
2.70393
2.70529
2.7068
2.70842
2.71007
2.71177
2.71349
2.71527
2.71713
2.71909
2.7015
2.70226
2.70312
2.70421
2.70545
2.70684
2.70834
2.70993
2.71154
2.71319
2.71486
2.71656
2.71848
2.72031
2.7075
2.70702
2.70679
2.7069
2.70723
2.70776
2.70848
2.70941
2.71047
2.71178
2.71314
2.71481
2.71645
2.71844
2.70731
2.70683
2.70665
2.70676
2.7071
2.70766
2.70843
2.70944
2.71062
2.71207
2.71356
2.71534
2.71702
2.71903
2.7072
2.70677
2.70662
2.70675
2.70709
2.70766
2.70844
2.70948
2.71069
2.71217
2.71371
2.71552
2.71729
2.71933
2.70705
2.70665
2.70653
2.7067
2.70707
2.70768
2.70852
2.70961
2.71088
2.71241
2.71403
2.71587
2.71767
2.71972
2.70693
2.70658
2.70652
2.70675
2.70717
2.70783
2.70871
2.70985
2.71117
2.71273
2.7144
2.71626
2.71811
2.72016
2.70687
2.70659
2.70658
2.70686
2.70734
2.70807
2.70903
2.71022
2.71158
2.71318
2.71488
2.71675
2.71864
2.72067
2.7069
2.7067
2.70676
2.7071
2.70767
2.70848
2.70951
2.71075
2.71216
2.71377
2.71549
2.71734
2.71927
2.72127
2.70706
2.70697
2.70712
2.70754
2.7082
2.70909
2.71018
2.71148
2.71292
2.71454
2.71627
2.71809
2.72004
2.722
2.70738
2.70743
2.70767
2.70819
2.70894
2.70991
2.71107
2.71241
2.71389
2.7155
2.71723
2.719
2.72096
2.72287
2.70795
2.70815
2.70848
2.7091
2.70992
2.71096
2.71218
2.71356
2.71506
2.71666
2.71838
2.72011
2.72206
2.7239
2.70875
2.70913
2.70956
2.71026
2.71116
2.71227
2.71355
2.71497
2.71648
2.71808
2.71978
2.72147
2.72336
2.72512
2.70992
2.71047
2.71097
2.71175
2.71271
2.71386
2.71516
2.71658
2.71807
2.71964
2.7213
2.72294
2.72482
2.72645
2.71128
2.71198
2.71257
2.71341
2.71445
2.71566
2.71701
2.71847
2.71999
2.72156
2.72318
2.72479
2.72653
2.72815
2.71318
2.71394
2.71464
2.71552
2.71659
2.71779
2.71912
2.72052
2.72196
2.72344
2.72498
2.72648
2.72819
2.72971
2.71009
2.70951
2.70911
2.7089
2.70885
2.70906
2.70942
2.71004
2.71085
2.7119
2.71312
2.71465
2.71624
2.71812
2.70973
2.70916
2.70884
2.70868
2.70871
2.709
2.70947
2.71019
2.71114
2.71232
2.71367
2.71531
2.71697
2.71889
2.70947
2.709
2.7087
2.70863
2.70876
2.70912
2.70967
2.71046
2.71146
2.71272
2.71411
2.71576
2.71745
2.71939
2.70929
2.7089
2.7087
2.70873
2.70893
2.70935
2.70998
2.71085
2.71194
2.71326
2.71472
2.71639
2.71808
2.72002
2.70927
2.70897
2.70887
2.709
2.70928
2.70977
2.71047
2.71141
2.71255
2.71392
2.71541
2.71711
2.71883
2.72074
2.7094
2.70921
2.70921
2.70941
2.70977
2.71035
2.71114
2.71214
2.71332
2.71472
2.71625
2.71795
2.71969
2.72157
2.70968
2.70964
2.70972
2.71002
2.71047
2.71115
2.71201
2.71306
2.71429
2.7157
2.71725
2.71892
2.72068
2.7225
2.71014
2.71026
2.71042
2.71083
2.71139
2.71216
2.71309
2.71419
2.71545
2.71687
2.71842
2.72005
2.7218
2.72354
2.71085
2.71112
2.71138
2.71191
2.71257
2.71342
2.71441
2.71556
2.71684
2.71825
2.71979
2.72136
2.72308
2.7247
2.71184
2.71225
2.71262
2.71325
2.71398
2.71489
2.71594
2.71712
2.71841
2.7198
2.72132
2.72281
2.72449
2.72599
2.7131
2.71365
2.7141
2.71481
2.71561
2.71658
2.71768
2.71889
2.72019
2.72156
2.72302
2.72444
2.72602
2.72737
2.71473
2.71541
2.7159
2.71665
2.71749
2.71847
2.71959
2.7208
2.72207
2.72338
2.72477
2.72609
2.7276
2.72883
2.7164
2.71722
2.71776
2.71856
2.71947
2.72051
2.72167
2.72289
2.72414
2.72541
2.7267
2.72795
2.72931
2.73046
2.71864
2.71947
2.72014
2.72088
2.7218
2.72281
2.72391
2.72505
2.72619
2.72735
2.72851
2.72964
2.73092
2.73203
2.71014
2.70986
2.70963
2.7095
2.70944
2.70955
2.70976
2.71016
2.71071
2.71143
2.71231
2.71336
2.7145
2.71586
2.70978
2.70954
2.70939
2.70935
2.70939
2.7096
2.70993
2.71045
2.71113
2.71199
2.713
2.71419
2.71544
2.71693
2.70955
2.70941
2.70934
2.70939
2.70955
2.70985
2.71029
2.71089
2.71165
2.7126
2.71368
2.71494
2.71625
2.71777
2.70952
2.70946
2.70948
2.70962
2.70988
2.71028
2.71081
2.71151
2.71236
2.71338
2.71451
2.71583
2.71718
2.71872
2.7097
2.70971
2.70982
2.71007
2.71042
2.71091
2.71153
2.71231
2.71322
2.71429
2.71545
2.71679
2.71816
2.7197
2.71004
2.71015
2.71037
2.71072
2.71117
2.71174
2.71245
2.71329
2.71426
2.71536
2.71655
2.71788
2.71925
2.72074
2.71064
2.71087
2.71117
2.71162
2.71215
2.71281
2.71359
2.71448
2.71548
2.71659
2.7178
2.71909
2.72042
2.72183
2.71149
2.71183
2.7122
2.71274
2.71335
2.71408
2.71492
2.71585
2.71687
2.71798
2.71915
2.72037
2.72166
2.72296
2.71266
2.71309
2.71352
2.71415
2.71482
2.7156
2.71647
2.71741
2.71842
2.71948
2.7206
2.72173
2.72297
2.72414
2.71409
2.71463
2.71511
2.71579
2.71649
2.7173
2.71817
2.71908
2.72005
2.72104
2.7221
2.72315
2.72433
2.72538
2.71577
2.71641
2.71692
2.71762
2.71833
2.71912
2.71996
2.72083
2.72173
2.72265
2.72366
2.72462
2.72572
2.72662
2.71774
2.71845
2.71892
2.71958
2.72023
2.72097
2.72176
2.72257
2.7234
2.72427
2.72521
2.72609
2.72713
2.72791
2.71971
2.72043
2.72086
2.72148
2.72212
2.72282
2.72356
2.72433
2.72514
2.72597
2.72684
2.72765
2.72855
2.72921
2.72202
2.72259
2.72301
2.7235
2.72407
2.7247
2.72538
2.72609
2.72682
2.72758
2.72835
2.72908
2.7299
2.73051
2.71102
2.71108
2.71103
2.71111
2.71119
2.71135
2.71152
2.7117
2.71193
2.71224
2.71264
2.71308
2.71355
2.71405
2.71067
2.71084
2.71094
2.71114
2.71134
2.71157
2.71184
2.71215
2.71252
2.71296
2.71346
2.71401
2.71456
2.71525
2.71065
2.71086
2.71108
2.71134
2.71165
2.71199
2.71236
2.71277
2.71324
2.71375
2.7143
2.71491
2.71552
2.71628
2.71082
2.71108
2.71141
2.71175
2.71215
2.71257
2.71302
2.71352
2.71406
2.71463
2.71521
2.71586
2.71653
2.71734
2.71124
2.71157
2.71198
2.7124
2.71288
2.71336
2.71387
2.71441
2.71499
2.71558
2.71618
2.71684
2.71752
2.71834
2.71197
2.71234
2.7128
2.71328
2.71379
2.7143
2.71483
2.71539
2.71598
2.71658
2.71719
2.71785
2.71854
2.71934
2.71297
2.71341
2.71388
2.71438
2.71487
2.71538
2.71592
2.71647
2.71705
2.71764
2.71824
2.7189
2.71959
2.72034
2.71424
2.7147
2.71513
2.71559
2.71606
2.71655
2.71708
2.71761
2.71816
2.71873
2.71933
2.71997
2.72064
2.72132
2.71568
2.71614
2.71651
2.71694
2.71737
2.71782
2.71831
2.7188
2.71933
2.71988
2.72046
2.72106
2.72169
2.72227
2.71721
2.71765
2.71795
2.71835
2.71872
2.71913
2.71957
2.72005
2.72055
2.72106
2.7216
2.72214
2.72271
2.7232
2.71878
2.7192
2.71946
2.71981
2.72014
2.72051
2.72091
2.72134
2.72179
2.72225
2.72273
2.7232
2.72371
2.72409
2.7204
2.72079
2.72098
2.72129
2.72157
2.72189
2.72225
2.72262
2.72302
2.72342
2.72384
2.72425
2.72471
2.72503
2.722
2.72235
2.7225
2.72275
2.72298
2.72325
2.72355
2.72387
2.72421
2.72455
2.72493
2.72528
2.72564
2.72585
2.72373
2.72391
2.72401
2.72417
2.72433
2.72455
2.7248
2.72506
2.72535
2.72565
2.72597
2.72626
2.72655
2.72676
2.71326
2.71369
2.71399
2.71424
2.71441
2.71451
2.71452
2.71449
2.71441
2.71427
2.71409
2.7139
2.71373
2.71364
2.71333
2.71376
2.71412
2.71439
2.7146
2.71475
2.71482
2.71484
2.71482
2.71474
2.71463
2.71453
2.71446
2.71454
2.7136
2.71402
2.7144
2.71468
2.71493
2.71512
2.71523
2.7153
2.71533
2.71533
2.7153
2.71527
2.71524
2.71534
2.71407
2.71446
2.71485
2.71513
2.7154
2.71559
2.71572
2.7158
2.71587
2.71593
2.71596
2.71597
2.71599
2.7161
2.71468
2.71505
2.71542
2.71571
2.71597
2.71616
2.71629
2.71639
2.71649
2.71659
2.71666
2.71667
2.7167
2.71679
2.71544
2.71578
2.71611
2.71638
2.71662
2.71679
2.71691
2.71702
2.71713
2.71722
2.71727
2.71732
2.71736
2.71746
2.7163
2.7166
2.71689
2.71714
2.71733
2.71747
2.71759
2.71769
2.71778
2.71785
2.7179
2.71796
2.71802
2.71811
2.71724
2.71751
2.71773
2.71793
2.71806
2.71817
2.71827
2.71835
2.71841
2.71845
2.7185
2.71857
2.71864
2.71872
2.71824
2.71848
2.71861
2.71874
2.71881
2.71888
2.71893
2.71898
2.71902
2.71906
2.7191
2.71915
2.71922
2.71927
2.71923
2.7194
2.71944
2.71951
2.71953
2.71956
2.71958
2.71961
2.71964
2.71966
2.71969
2.71971
2.71975
2.71977
2.72017
2.7203
2.72026
2.72029
2.72026
2.72027
2.72026
2.72026
2.72025
2.72024
2.72024
2.72022
2.72023
2.72022
2.72104
2.72113
2.72104
2.72104
2.721
2.72098
2.72094
2.72091
2.72087
2.72082
2.72078
2.72071
2.7207
2.72063
2.72195
2.72202
2.72189
2.72186
2.72178
2.72171
2.72162
2.72153
2.72144
2.72134
2.72125
2.72113
2.72107
2.72094
2.72295
2.72286
2.72269
2.72259
2.72249
2.72237
2.72226
2.72213
2.722
2.72186
2.72173
2.72156
2.72142
2.72122
2.71562
2.71597
2.71624
2.71638
2.71641
2.71632
2.71615
2.7159
2.71559
2.7152
2.71474
2.71419
2.71356
2.71286
2.71582
2.7161
2.71634
2.71644
2.71643
2.71633
2.71617
2.71592
2.7156
2.71519
2.71473
2.71423
2.7137
2.71315
2.71605
2.71628
2.71647
2.71654
2.7165
2.7164
2.71623
2.716
2.7157
2.71534
2.71493
2.71449
2.714
2.71352
2.71634
2.71654
2.71667
2.71668
2.71663
2.71651
2.71635
2.71612
2.71584
2.71552
2.71514
2.71474
2.71431
2.7139
2.71667
2.71683
2.7169
2.71687
2.71681
2.71668
2.71651
2.7163
2.71605
2.71576
2.71542
2.71506
2.71467
2.7143
2.71704
2.71713
2.71715
2.7171
2.71702
2.71688
2.71672
2.71652
2.71628
2.71601
2.7157
2.71537
2.71502
2.71467
2.71741
2.71745
2.71743
2.71737
2.71728
2.71714
2.71698
2.71678
2.71654
2.71629
2.716
2.71569
2.71536
2.71502
2.71778
2.71779
2.71774
2.71768
2.71757
2.71743
2.71725
2.71705
2.71682
2.71656
2.71627
2.71597
2.71565
2.71533
2.71818
2.71819
2.71812
2.71803
2.7179
2.71774
2.71755
2.71733
2.71708
2.71681
2.71651
2.71621
2.71589
2.71558
2.71861
2.71862
2.71851
2.71839
2.71823
2.71804
2.71782
2.71758
2.7173
2.71701
2.7167
2.71638
2.71605
2.71573
2.71908
2.71909
2.71894
2.71878
2.71857
2.71833
2.71806
2.71778
2.71747
2.71715
2.71682
2.71648
2.71611
2.71578
2.71953
2.7195
2.7193
2.71909
2.71883
2.71855
2.71824
2.71793
2.71759
2.71725
2.71689
2.71652
2.71614
2.71578
2.71999
2.71989
2.71965
2.71939
2.71908
2.71875
2.71839
2.71802
2.71763
2.71724
2.71685
2.71645
2.71604
2.71565
2.72032
2.72009
2.71983
2.71953
2.71921
2.71885
2.71846
2.71807
2.71766
2.71724
2.71681
2.71638
2.71596
2.71547
2.71628
2.7164
2.71645
2.71644
2.71636
2.7162
2.71597
2.71565
2.71525
2.71476
2.71422
2.71355
2.71285
2.71197
2.71639
2.71645
2.71648
2.71643
2.71634
2.71616
2.7159
2.71555
2.71511
2.7146
2.71401
2.71333
2.71261
2.7118
2.71648
2.7165
2.7165
2.71644
2.71631
2.7161
2.71581
2.71545
2.71501
2.7145
2.71392
2.71326
2.71254
2.71175
2.71654
2.71655
2.71652
2.71643
2.71628
2.71605
2.71574
2.71536
2.71491
2.71438
2.7138
2.71315
2.71245
2.71169
2.7166
2.71659
2.71654
2.71642
2.71624
2.71599
2.71566
2.71527
2.7148
2.71428
2.7137
2.71307
2.71239
2.71165
2.71665
2.71663
2.71655
2.71641
2.7162
2.71592
2.71557
2.71516
2.71469
2.71417
2.71359
2.71296
2.7123
2.7116
2.71671
2.71666
2.71656
2.71638
2.71614
2.71583
2.71547
2.71505
2.71457
2.71405
2.71348
2.71287
2.71222
2.71156
2.71677
2.71668
2.71653
2.71631
2.71604
2.71572
2.71534
2.71491
2.71444
2.71391
2.71335
2.71274
2.71212
2.71149
2.7168
2.71666
2.71647
2.71623
2.71593
2.71559
2.7152
2.71475
2.71426
2.71373
2.71316
2.71258
2.71197
2.71138
2.71678
2.7166
2.71638
2.7161
2.71578
2.71541
2.715
2.71454
2.71403
2.7135
2.71293
2.71235
2.71176
2.7112
2.71675
2.71654
2.71629
2.71598
2.71562
2.71521
2.71475
2.71426
2.71373
2.71319
2.71262
2.71206
2.71147
2.71095
2.71665
2.7164
2.7161
2.71575
2.71535
2.71491
2.71443
2.71393
2.71339
2.71284
2.71227
2.71171
2.71112
2.71062
2.71653
2.71623
2.71591
2.71551
2.71507
2.71459
2.71407
2.71353
2.71297
2.71239
2.7118
2.71124
2.71064
2.71016
2.71623
2.71589
2.71554
2.71512
2.71467
2.71417
2.71364
2.71308
2.71251
2.71194
2.71136
2.7108
2.7102
2.70964
2.7155
2.71548
2.71542
2.7153
2.71512
2.71487
2.71456
2.71418
2.71373
2.71321
2.71263
2.71196
2.71125
2.71039
2.71547
2.71539
2.71529
2.71514
2.71493
2.71464
2.71428
2.71385
2.71335
2.71277
2.71213
2.71141
2.71064
2.7098
2.71541
2.71531
2.71516
2.71496
2.7147
2.71437
2.71398
2.71351
2.71298
2.71237
2.7117
2.71097
2.7102
2.70936
2.71528
2.71515
2.71496
2.71472
2.71443
2.71407
2.71364
2.71315
2.71258
2.71195
2.71126
2.71051
2.70973
2.70889
2.71511
2.71494
2.71472
2.71445
2.71412
2.71373
2.71327
2.71275
2.71216
2.71152
2.71082
2.71007
2.70929
2.70845
2.71487
2.71467
2.71442
2.71412
2.71376
2.71335
2.71286
2.71232
2.71172
2.71106
2.71036
2.70961
2.70884
2.70802
2.71459
2.71436
2.71408
2.71375
2.71336
2.71292
2.71242
2.71186
2.71124
2.71058
2.70988
2.70914
2.70838
2.70759
2.71424
2.71397
2.71366
2.7133
2.71289
2.71243
2.71191
2.71134
2.71072
2.71006
2.70937
2.70865
2.7079
2.70715
2.71384
2.71354
2.71321
2.71282
2.71239
2.71191
2.71137
2.71079
2.71017
2.70951
2.70882
2.70813
2.7074
2.7067
2.71334
2.713
2.71266
2.71225
2.7118
2.71131
2.71076
2.71018
2.70956
2.70891
2.70824
2.70757
2.70686
2.70621
2.71282
2.71245
2.71208
2.71164
2.71118
2.71066
2.71011
2.70952
2.70889
2.70826
2.7076
2.70696
2.70628
2.7057
2.71218
2.71178
2.7114
2.71095
2.71047
2.70994
2.70939
2.70881
2.7082
2.70758
2.70693
2.70631
2.70566
2.70513
2.71157
2.71112
2.71072
2.71024
2.70974
2.7092
2.70863
2.70803
2.70742
2.7068
2.70617
2.70558
2.70496
2.70449
2.71073
2.71031
2.70989
2.70942
2.70892
2.70838
2.70782
2.70724
2.70665
2.70606
2.70546
2.70489
2.70429
2.70379
2.71331
2.71307
2.71283
2.71256
2.71229
2.71199
2.71166
2.71129
2.71089
2.71045
2.70997
2.70945
2.70889
2.7083
2.71299
2.71275
2.71245
2.71216
2.71185
2.71151
2.71112
2.7107
2.71023
2.70974
2.70921
2.70862
2.70802
2.70734
2.71267
2.71239
2.71205
2.71172
2.71136
2.71097
2.71054
2.71008
2.70959
2.70905
2.70849
2.70787
2.70724
2.70656
2.71227
2.71196
2.71158
2.71122
2.71082
2.71039
2.70993
2.70943
2.70889
2.70832
2.70773
2.70708
2.70644
2.70573
2.71181
2.71146
2.71105
2.71066
2.71022
2.70977
2.70927
2.70874
2.70818
2.70759
2.70697
2.70632
2.70566
2.70495
2.71128
2.71089
2.71046
2.71003
2.70957
2.70909
2.70856
2.70801
2.70743
2.70682
2.70619
2.70553
2.70487
2.70417
2.71068
2.71025
2.7098
2.70935
2.70886
2.70835
2.70781
2.70725
2.70666
2.70604
2.70541
2.70476
2.7041
2.70342
2.70998
2.70952
2.70906
2.70858
2.70809
2.70757
2.70702
2.70645
2.70585
2.70523
2.7046
2.70397
2.70331
2.70267
2.70922
2.70873
2.70827
2.70777
2.70727
2.70673
2.70618
2.70561
2.70501
2.70441
2.70379
2.70318
2.70254
2.70194
2.70835
2.70785
2.70739
2.70689
2.70638
2.70585
2.7053
2.70474
2.70415
2.70357
2.70296
2.70238
2.70177
2.70121
2.70745
2.70694
2.70648
2.70597
2.70547
2.70494
2.7044
2.70384
2.70327
2.7027
2.70213
2.70157
2.701
2.7005
2.70646
2.70594
2.70549
2.70499
2.7045
2.70398
2.70346
2.70292
2.70238
2.70184
2.70129
2.70076
2.70023
2.6998
2.70552
2.70497
2.70452
2.70402
2.70353
2.70302
2.70251
2.70198
2.70146
2.70093
2.70041
2.69992
2.69943
2.69908
2.70434
2.70389
2.70344
2.70297
2.7025
2.70202
2.70153
2.70104
2.70056
2.70007
2.69959
2.69914
2.69869
2.69834