/*--------------------------------*- C++ -*----------------------------------*\
| =========                 |                                                 |
| \\      /  F ield         | OpenFOAM: The Open Source CFD Toolbox           |
|  \\    /   O peration     | Version:  v2106                                 |
|   \\  /    A nd           | Website:  www.openfoam.com                      |
|    \\/     M anipulation  |                                                 |
\*---------------------------------------------------------------------------*/
FoamFile
{
    version     2.0;
    format      ascii;
    arch        "LSB;label=32;scalar=64";
    class       volScalarField;
    location    "0.000162";
    object      T;
}
// * * * * * * * * * * * * * * * * * * * * * * * * * * * * * * * * * * * * * //

dimensions      [0 0 0 1 0 0 0];

internalField   nonuniform List<scalar> 
18109
(
298.192
298.274
298.273
298.283
298.274
298.29
298.327
298.046
298.178
298.155
298.189
298.205
298.248
298.304
297.874
297.999
298.024
298.09
298.145
298.215
298.291
297.721
297.834
297.907
298.004
298.093
298.191
298.282
297.593
297.708
297.815
297.939
298.055
298.173
298.278
297.485
297.619
297.752
297.896
298.029
298.156
298.269
297.417
297.572
297.724
297.876
298.011
298.138
298.251
297.394
297.558
297.72
297.87
297.997
298.115
298.222
299.055
299.14
299.169
299.211
299.236
299.271
299.322
299.404
299.512
299.656
299.832
300.038
300.29
300.55
298.883
299.005
299.047
299.125
299.18
299.245
299.315
299.407
299.519
299.659
299.834
300.049
300.317
300.585
298.717
298.839
298.929
299.04
299.131
299.226
299.317
299.424
299.543
299.681
299.845
300.04
300.275
300.515
298.592
298.721
298.84
298.974
299.092
299.208
299.315
299.431
299.555
299.691
299.848
300.027
300.231
300.438
298.486
298.632
298.776
298.928
299.064
299.193
299.31
299.428
299.551
299.682
299.828
299.985
300.159
300.334
298.404
298.574
298.74
298.901
299.044
299.177
299.297
299.416
299.536
299.66
299.795
299.937
300.088
300.244
298.363
298.549
298.727
298.888
299.029
299.158
299.276
299.393
299.508
299.626
299.749
299.873
300.008
300.154
298.36
298.551
298.731
298.884
299.013
299.133
299.244
299.358
299.471
299.585
299.702
299.821
299.956
300.105
298.372
298.577
298.754
298.889
298.997
299.102
299.205
299.316
299.43
299.546
299.665
299.792
299.938
300.101
298.445
298.619
298.782
298.893
298.979
299.065
299.16
299.271
299.392
299.519
299.649
299.789
299.952
300.12
298.525
298.714
298.834
298.907
298.964
299.026
299.11
299.224
299.358
299.503
299.652
299.808
299.982
300.14
298.625
298.802
298.881
298.922
298.95
298.988
299.061
299.177
299.325
299.493
299.665
299.838
300.016
300.144
298.666
298.855
298.93
298.939
298.949
298.966
299.023
299.135
299.29
299.475
299.67
299.862
300.045
300.159
298.665
298.77
298.862
298.917
298.936
298.949
298.997
299.099
299.252
299.444
299.652
299.853
300.033
300.17
298.28
298.105
297.799
297.344
297.104
297.086
299.181
299.049
298.788
298.29
297.883
297.701
299.223
299.18
299.072
298.965
298.981
299.212
299.297
299.308
299.368
299.513
299.815
300.248
299.314
299.393
299.533
299.808
300.193
300.545
299.323
299.414
299.585
299.886
300.22
300.448
299.337
299.427
299.61
299.85
300.028
300.067
299.369
299.441
299.609
299.767
299.736
299.385
299.433
299.489
299.614
299.666
299.3
298.224
299.535
299.58
299.642
299.537
298.829
297.134
299.69
299.736
299.755
299.465
298.413
296.395
299.89
299.944
299.928
299.483
298.225
296.183
300.132
300.189
300.101
299.567
298.283
296.435
300.406
300.438
300.321
299.764
298.639
297.283
300.656
300.654
300.547
300.064
299.273
298.549
300.846
300.856
300.85
300.609
300.278
300.039
300.814
300.936
301.038
301.067
301.127
301.261
300.767
300.98
301.211
301.457
301.796
302.196
300.677
300.935
301.238
301.622
302.118
302.588
300.563
300.829
301.178
301.62
302.129
302.473
300.463
300.738
301.105
301.535
301.933
302.075
300.378
300.665
301.011
301.331
301.499
301.258
300.334
300.598
300.854
300.979
300.815
299.928
300.314
300.505
300.648
300.526
299.86
298.307
300.298
300.395
300.418
300.037
298.916
297.031
300.276
300.305
300.179
299.607
298.286
296.331
300.262
300.231
299.986
299.268
297.87
296.274
300.27
300.166
299.835
299.048
297.933
296.897
300.227
300.084
299.73
299.094
298.45
298.066
300.274
300.19
300.001
299.647
299.451
299.384
300.074
300.053
299.961
299.898
299.967
300.114
299.894
299.914
299.913
299.98
300.136
300.255
299.653
299.676
299.742
299.825
299.912
299.822
299.428
299.439
299.502
299.463
299.295
298.598
299.216
299.212
299.242
298.96
298.254
296.568
299.076
299.045
298.958
298.238
296.689
294.007
298.993
298.897
298.533
297.296
295.048
292.012
298.941
298.743
298.079
296.5
293.918
290.999
298.897
298.594
297.741
296.057
293.494
290.935
298.866
298.477
297.536
295.787
293.58
291.532
298.8
298.296
297.338
295.764
293.988
292.623
298.662
298.173
297.327
295.957
294.741
294.093
298.459
297.99
297.26
296.369
295.776
295.569
297.656
297.165
295.965
293.813
291.212
289.081
297.84
297.355
296.269
294.447
292.373
290.919
297.987
297.591
296.736
295.306
293.824
293.03
298.093
297.855
297.233
296.261
295.403
295.024
298.61
298.279
297.811
297.289
297.116
297.192
298.45
298.191
297.862
297.707
297.758
297.986
298.399
298.197
297.989
297.959
298.035
298.158
298.278
298.089
297.918
297.892
297.823
297.627
298.226
298.027
297.854
297.761
297.336
296.335
298.151
297.947
297.758
297.453
296.437
294.251
298.151
297.929
297.659
296.918
295.139
291.993
298.172
297.916
297.48
296.242
293.882
290.392
298.234
297.944
297.347
295.774
293.128
289.764
298.352
298.061
297.374
295.703
292.993
289.965
298.525
298.232
297.44
295.793
293.329
290.825
298.723
298.424
297.639
296.134
294.081
292.157
298.903
298.625
297.958
296.733
295.177
293.991
299.007
298.826
298.331
297.434
296.462
295.929
298.228
299.432
300.319
299.124
293.251
299.946
300.629
300.804
297.571
288.732
300.745
300.868
299.004
292.528
282.766
300.737
299.595
294.885
285.187
274.705
300.033
296.722
289.241
278.41
268.891
298.409
292.927
284.246
275.087
266.996
296.256
289.482
281.784
275.322
270.04
294.116
287.542
281.869
278.116
273.782
269.047
292.69
287.219
283.6
281.649
276.858
268.812
292.258
287.933
286.25
285.872
282.151
273.192
292.725
289.943
289.723
290.593
288.862
282.028
273.49
294.131
292.594
293.209
294.563
293.912
288.994
282.293
277.565
296.047
295.473
296.517
297.997
297.839
294.832
292.114
294.226
298.153
298.312
299.47
300.383
299.229
293.975
290.417
285.944
300.134
300.762
301.653
301.608
299.153
290.701
282.575
276.598
301.777
302.431
302.796
301.797
296.922
287.478
278.996
275.569
302.734
303.07
302.767
299.783
293.064
284.937
281.041
276.823
302.955
302.829
300.88
295.147
286.491
278.25
274.38
276.129
302.525
301.147
296.813
288.998
280.304
272.755
267.637
265.29
301.174
297.982
292.005
284.632
277.922
271.681
266.057
264.411
299.036
294.101
288.108
283.071
278.653
274.088
269.697
266.341
296.451
291.087
286.566
283.72
280.725
275.508
270.25
270.202
294.522
290.175
287.452
286.045
282.275
274.129
293.616
290.378
289.25
288.96
285.903
278.013
293.661
291.648
292.001
293.052
290.839
284.364
294.661
293.79
295.03
296.473
294.536
289.605
296.296
296.401
297.744
298.638
296.766
293.403
298.024
298.561
299.316
299.14
296.128
299.589
299.834
299.775
297.503
291.222
300.218
299.974
298.194
292.981
284.982
299.963
298.28
294.028
287.369
281.077
298.532
294.783
289.068
282.841
277.694
295.687
290.484
285.395
281.249
276.329
292.417
287.446
284.347
282.006
277.271
289.887
286.44
285.369
284.532
280.431
288.702
286.743
286.947
286.109
281.847
288.434
287.276
287.784
286.423
280.18
288.973
288.515
289.439
289.355
283.747
290.298
290.568
292.211
292.925
287.6
291.967
292.955
295.012
295.826
291.122
294.041
295.388
297.069
297.204
293.47
295.974
297.118
297.8
296.405
290.819
297.54
297.76
297.108
292.585
283.429
298.132
297.392
293.911
286.069
276.352
297.633
294.599
288.537
280.176
273.311
295.715
290.106
282.838
275.791
269.576
292.537
285.556
279.325
273.925
266.981
289.33
282.9
278.728
273.953
265.781
287.143
282.355
280.403
277.608
270.97
286.166
282.921
282.48
280.349
273.802
286.149
283.882
283.895
282.014
273.865
287.207
285.957
286.46
286.22
279.584
288.985
288.554
289.551
290.357
285.386
291.075
291.33
292.869
294.288
290.557
293.508
294.241
295.964
297.26
294.299
295.937
297.168
298.62
298.721
295.466
300.504
300.63
300.697
300.784
300.85
300.919
300.986
301.073
301.176
301.303
301.454
301.624
301.829
302.011
300.362
300.499
300.596
300.71
300.806
300.902
300.992
301.095
301.209
301.341
301.491
301.663
301.865
302.075
300.249
300.391
300.517
300.653
300.774
300.895
301.008
301.127
301.252
301.384
301.529
301.689
301.87
302.054
300.159
300.313
300.461
300.614
300.753
300.888
301.016
301.146
301.278
301.411
301.554
301.703
301.868
302.032
300.092
300.266
300.429
300.592
300.739
300.882
301.016
301.15
301.282
301.412
301.547
301.684
301.83
301.967
300.064
300.244
300.415
300.58
300.729
300.872
301.009
301.143
301.274
301.399
301.525
301.647
301.774
301.894
300.061
300.243
300.416
300.576
300.718
300.858
300.991
301.123
301.25
301.371
301.488
301.597
301.707
301.813
300.082
300.264
300.428
300.575
300.706
300.835
300.962
301.09
301.214
301.332
301.444
301.545
301.647
301.749
300.132
300.305
300.452
300.577
300.69
300.807
300.926
301.051
301.173
301.291
301.401
301.502
301.606
301.713
300.192
300.348
300.477
300.575
300.668
300.771
300.883
301.008
301.133
301.255
301.369
301.475
301.59
301.704
300.282
300.414
300.506
300.574
300.643
300.728
300.834
300.961
301.095
301.226
301.349
301.467
301.591
301.709
300.349
300.457
300.518
300.56
300.607
300.676
300.777
300.91
301.055
301.202
301.341
301.472
301.604
301.714
300.382
300.488
300.523
300.546
300.577
300.63
300.723
300.856
301.011
301.173
301.327
301.475
301.619
301.722
300.381
300.433
300.478
300.505
300.533
300.579
300.665
300.794
300.956
301.131
301.303
301.453
301.611
301.708
302.712
302.849
302.947
303.055
303.148
303.239
303.325
303.419
303.523
303.633
303.757
303.888
304.038
304.167
302.635
302.765
302.878
302.999
303.11
303.219
303.325
303.435
303.551
303.672
303.803
303.936
304.088
304.238
302.578
302.707
302.833
302.965
303.09
303.214
303.334
303.456
303.584
303.711
303.843
303.972
304.111
304.24
302.563
302.689
302.82
302.955
303.085
303.215
303.344
303.474
303.606
303.735
303.864
303.989
304.122
304.246
302.562
302.69
302.822
302.957
303.089
303.22
303.353
303.484
303.615
303.741
303.863
303.981
304.102
304.215
302.579
302.704
302.834
302.965
303.093
303.224
303.356
303.488
303.616
303.738
303.853
303.961
304.068
304.169
302.612
302.729
302.852
302.973
303.095
303.223
303.353
303.482
303.608
303.724
303.832
303.93
304.023
304.109
302.664
302.766
302.873
302.98
303.092
303.213
303.34
303.467
303.588
303.701
303.803
303.892
303.973
304.049
302.724
302.807
302.894
302.982
303.083
303.196
303.318
303.442
303.562
303.672
303.77
303.855
303.929
304
302.776
302.84
302.905
302.977
303.065
303.169
303.287
303.41
303.53
303.641
303.739
303.822
303.897
303.969
302.82
302.863
302.911
302.965
303.038
303.133
303.248
303.372
303.495
303.609
303.71
303.798
303.878
303.958
302.836
302.863
302.898
302.937
302.997
303.086
303.2
303.329
303.457
303.579
303.688
303.784
303.874
303.956
302.851
302.865
302.88
302.903
302.954
303.037
303.149
303.282
303.418
303.549
303.67
303.78
303.882
303.971
302.81
302.83
302.837
302.861
302.908
302.988
303.098
303.235
303.38
303.521
303.649
303.763
303.881
303.943
304.495
304.613
304.713
304.818
304.915
305.01
305.103
305.194
305.288
305.384
305.487
305.584
305.686
305.787
304.47
304.568
304.669
304.778
304.884
304.989
305.093
305.197
305.302
305.407
305.515
305.62
305.727
305.841
304.462
304.551
304.652
304.761
304.873
304.983
305.093
305.203
305.314
305.424
305.534
305.64
305.748
305.856
304.474
304.557
304.656
304.762
304.873
304.986
305.098
305.211
305.324
305.433
305.543
305.648
305.754
305.861
304.498
304.575
304.669
304.771
304.88
304.991
305.104
305.217
305.329
305.436
305.541
305.642
305.744
305.848
304.533
304.601
304.688
304.783
304.887
304.995
305.107
305.22
305.329
305.434
305.534
305.63
305.725
305.821
304.574
304.631
304.707
304.793
304.892
304.997
305.107
305.218
305.324
305.425
305.521
305.611
305.698
305.786
304.617
304.662
304.725
304.802
304.893
304.994
305.101
305.208
305.312
305.41
305.501
305.586
305.666
305.745
304.656
304.69
304.74
304.805
304.889
304.985
305.089
305.194
305.295
305.392
305.48
305.561
305.636
305.709
304.682
304.709
304.749
304.805
304.882
304.972
305.073
305.176
305.277
305.372
305.46
305.54
305.614
305.688
304.702
304.721
304.752
304.8
304.869
304.955
305.053
305.156
305.256
305.352
305.441
305.523
305.601
305.68
304.713
304.724
304.747
304.786
304.849
304.933
305.032
305.137
305.24
305.338
305.429
305.515
305.598
305.683
304.731
304.731
304.739
304.769
304.827
304.91
305.011
305.12
305.227
305.331
305.429
305.521
305.611
305.705
304.708
304.725
304.727
304.755
304.812
304.894
304.994
305.105
305.218
305.329
305.437
305.537
305.634
305.702
305.879
305.954
306.02
306.104
306.189
306.275
306.361
306.446
306.532
306.619
306.707
306.794
306.876
306.976
305.889
305.945
306.01
306.09
306.175
306.264
306.354
306.445
306.535
306.626
306.716
306.808
306.894
306.997
305.912
305.954
306.016
306.092
306.175
306.262
306.351
306.442
306.533
306.624
306.714
306.808
306.898
306.999
305.939
305.972
306.026
306.096
306.177
306.262
306.351
306.441
306.532
306.625
306.715
306.809
306.9
307
305.966
305.991
306.039
306.103
306.18
306.263
306.35
306.439
306.529
306.621
306.712
306.805
306.897
306.996
305.99
306.012
306.053
306.111
306.183
306.264
306.348
306.437
306.526
306.617
306.706
306.798
306.89
306.988
306.013
306.03
306.065
306.119
306.187
306.264
306.348
306.435
306.523
306.612
306.7
306.791
306.88
306.976
306.035
306.047
306.078
306.127
306.191
306.267
306.349
306.435
306.521
306.609
306.695
306.783
306.871
306.965
306.054
306.062
306.09
306.136
306.198
306.272
306.353
306.438
306.523
306.609
306.694
306.781
306.866
306.958
306.068
306.077
306.103
306.148
306.209
306.281
306.362
306.447
306.531
306.617
306.701
306.786
306.87
306.96
306.081
306.091
306.118
306.161
306.221
306.293
306.374
306.459
306.543
306.629
306.713
306.798
306.881
306.972
306.096
306.111
306.136
306.178
306.237
306.309
306.391
306.478
306.564
306.65
306.734
306.819
306.904
306.996
306.115
306.134
306.156
306.196
306.256
306.329
306.413
306.502
306.59
306.679
306.766
306.852
306.938
307.036
306.131
306.159
306.178
306.219
306.279
306.354
306.439
306.53
306.621
306.713
306.802
306.889
306.98
307.072
306.852
306.872
306.898
306.94
306.99
307.045
307.107
307.171
307.236
307.307
307.377
307.458
307.534
307.632
306.863
306.875
306.899
306.939
306.987
307.043
307.105
307.172
307.239
307.313
307.387
307.47
307.547
307.645
306.877
306.884
306.907
306.944
306.991
307.044
307.104
307.169
307.236
307.31
307.384
307.469
307.55
307.646
306.886
306.89
306.911
306.945
306.989
307.042
307.1
307.165
307.234
307.31
307.387
307.473
307.557
307.652
306.893
306.894
306.914
306.946
306.989
307.04
307.098
307.164
307.234
307.312
307.392
307.478
307.564
307.659
306.899
306.899
306.917
306.947
306.989
307.04
307.099
307.166
307.238
307.317
307.398
307.485
307.573
307.668
306.905
306.905
306.921
306.951
306.993
307.046
307.106
307.174
307.247
307.327
307.408
307.495
307.584
307.678
306.914
306.914
306.93
306.96
307.004
307.058
307.12
307.189
307.263
307.342
307.424
307.51
307.6
307.693
306.924
306.926
306.944
306.975
307.021
307.077
307.141
307.211
307.285
307.364
307.446
307.531
307.62
307.712
306.942
306.948
306.968
307.002
307.049
307.106
307.172
307.244
307.318
307.397
307.478
307.561
307.649
307.738
306.964
306.977
307
307.036
307.086
307.146
307.213
307.286
307.361
307.439
307.519
307.601
307.687
307.775
306.999
307.018
307.043
307.082
307.133
307.194
307.263
307.337
307.412
307.49
307.569
307.649
307.735
307.82
307.045
307.068
307.097
307.137
307.19
307.253
307.323
307.399
307.475
307.554
307.633
307.713
307.796
307.884
307.098
307.128
307.159
307.202
307.256
307.32
307.391
307.467
307.542
307.619
307.695
307.773
307.859
307.941
307.347
307.326
307.317
307.322
307.337
307.362
307.395
307.438
307.486
307.546
307.608
307.684
307.758
307.848
307.339
307.318
307.311
307.317
307.333
307.358
307.393
307.439
307.494
307.559
307.628
307.708
307.784
307.875
307.334
307.317
307.311
307.317
307.333
307.359
307.394
307.442
307.497
307.565
307.635
307.718
307.797
307.889
307.328
307.311
307.307
307.315
307.332
307.36
307.399
307.449
307.507
307.577
307.65
307.734
307.815
307.907
307.323
307.309
307.306
307.317
307.337
307.368
307.409
307.46
307.52
307.592
307.667
307.751
307.835
307.926
307.32
307.309
307.309
307.323
307.346
307.38
307.423
307.477
307.54
307.612
307.689
307.774
307.859
307.95
307.322
307.314
307.318
307.334
307.361
307.399
307.445
307.502
307.566
307.639
307.717
307.801
307.888
307.977
307.331
307.327
307.334
307.354
307.385
307.426
307.476
307.535
307.601
307.675
307.753
307.835
307.923
308.011
307.347
307.348
307.36
307.384
307.419
307.463
307.517
307.578
307.645
307.719
307.797
307.877
307.965
308.05
307.373
307.382
307.397
307.426
307.464
307.511
307.567
307.63
307.698
307.771
307.85
307.928
308.016
308.097
307.41
307.427
307.446
307.478
307.52
307.571
307.629
307.694
307.763
307.835
307.913
307.989
308.075
308.153
307.462
307.487
307.51
307.545
307.59
307.642
307.701
307.766
307.834
307.905
307.981
308.056
308.14
308.213
307.523
307.555
307.581
307.619
307.667
307.722
307.784
307.851
307.92
307.991
308.065
308.138
308.217
308.289
307.608
307.642
307.673
307.713
307.762
307.817
307.878
307.943
308.008
308.076
308.146
308.214
308.291
308.36
307.465
307.44
307.421
307.412
307.41
307.419
307.435
307.463
307.501
307.549
307.605
307.675
307.747
307.832
307.449
307.424
307.41
307.403
307.404
307.417
307.438
307.472
307.515
307.57
307.632
307.706
307.781
307.867
307.438
307.417
307.404
307.401
307.406
307.423
307.448
307.484
307.53
307.588
307.651
307.726
307.803
307.89
307.43
307.413
307.404
307.405
307.415
307.434
307.463
307.503
307.552
307.612
307.679
307.755
307.831
307.919
307.429
307.416
307.412
307.418
307.431
307.453
307.485
307.528
307.58
307.642
307.71
307.787
307.865
307.951
307.434
307.426
307.427
307.437
307.453
307.48
307.516
307.561
307.615
307.679
307.748
307.825
307.904
307.989
307.446
307.445
307.45
307.464
307.485
307.516
307.555
307.603
307.659
307.723
307.794
307.87
307.949
308.031
307.468
307.473
307.482
307.501
307.527
307.562
307.605
307.655
307.712
307.777
307.847
307.921
308.001
308.079
307.5
307.512
307.525
307.55
307.581
307.62
307.665
307.717
307.776
307.84
307.91
307.981
308.059
308.132
307.545
307.564
307.582
307.611
307.645
307.687
307.735
307.788
307.847
307.91
307.979
308.047
308.123
308.19
307.602
307.628
307.65
307.683
307.72
307.764
307.814
307.868
307.928
307.99
308.057
308.121
308.193
308.253
307.677
307.708
307.731
307.766
307.805
307.849
307.9
307.955
308.012
308.072
308.136
308.196
308.264
308.319
307.752
307.79
307.815
307.852
307.894
307.941
307.993
308.049
308.106
308.164
308.222
308.279
308.341
308.393
307.853
307.891
307.922
307.956
307.998
308.044
308.094
308.146
308.197
308.25
308.303
308.354
308.413
308.463
307.469
307.456
307.445
307.439
307.436
307.441
307.45
307.469
307.495
307.528
307.568
307.616
307.668
307.729
307.453
307.442
307.435
307.433
307.434
307.444
307.459
307.483
307.514
307.554
307.6
307.654
307.711
307.778
307.442
307.436
307.433
307.435
307.442
307.456
307.476
307.503
307.538
307.581
307.63
307.688
307.747
307.816
307.441
307.438
307.439
307.445
307.457
307.475
307.5
307.531
307.57
307.617
307.668
307.728
307.789
307.859
307.448
307.449
307.454
307.466
307.482
307.504
307.532
307.567
307.609
307.657
307.711
307.771
307.834
307.903
307.463
307.469
307.479
307.495
307.515
307.542
307.574
307.612
307.656
307.706
307.761
307.821
307.883
307.951
307.49
307.501
307.515
307.536
307.56
307.59
307.625
307.666
307.711
307.762
307.817
307.876
307.937
308
307.529
307.545
307.562
307.587
307.615
307.648
307.686
307.728
307.775
307.825
307.879
307.935
307.993
308.052
307.581
307.602
307.622
307.651
307.682
307.717
307.757
307.8
307.846
307.894
307.945
307.996
308.053
308.106
307.646
307.672
307.695
307.726
307.758
307.795
307.834
307.876
307.92
307.965
308.013
308.061
308.115
308.162
307.723
307.753
307.777
307.809
307.842
307.878
307.915
307.955
307.996
308.038
308.084
308.128
308.178
308.219
307.813
307.846
307.868
307.898
307.928
307.962
307.997
308.034
308.072
308.112
308.154
308.195
308.242
308.277
307.903
307.936
307.956
307.985
308.014
308.045
308.079
308.114
308.15
308.188
308.228
308.265
308.306
308.335
308.008
308.034
308.053
308.076
308.102
308.13
308.161
308.192
308.226
308.26
308.295
308.329
308.366
308.394
307.509
307.512
307.509
307.512
307.516
307.523
307.531
307.539
307.55
307.565
307.583
307.603
307.624
307.647
307.493
307.501
307.506
307.514
307.523
307.534
307.546
307.56
307.577
307.597
307.62
307.645
307.67
307.702
307.493
307.502
307.512
307.523
307.537
307.553
307.57
307.588
307.61
307.633
307.658
307.686
307.714
307.748
307.5
307.512
307.526
307.542
307.56
307.579
307.6
307.622
307.647
307.673
307.699
307.729
307.759
307.796
307.519
307.534
307.552
307.571
307.593
307.615
307.638
307.662
307.689
307.716
307.743
307.773
307.804
307.841
307.552
307.569
307.59
307.611
307.634
307.657
307.681
307.707
307.733
307.761
307.789
307.819
307.85
307.887
307.597
307.617
307.638
307.661
307.683
307.706
307.731
307.756
307.782
307.809
307.836
307.867
307.898
307.932
307.654
307.676
307.695
307.716
307.737
307.76
307.784
307.808
307.833
307.859
307.886
307.916
307.946
307.977
307.72
307.741
307.758
307.777
307.797
307.818
307.84
307.862
307.886
307.911
307.937
307.965
307.994
308.02
307.789
307.809
307.823
307.841
307.858
307.877
307.897
307.919
307.941
307.965
307.99
308.014
308.04
308.063
307.86
307.879
307.892
307.908
307.923
307.94
307.958
307.977
307.998
308.019
308.041
308.062
308.086
308.103
307.934
307.952
307.961
307.976
307.988
308.003
308.019
308.036
308.054
308.072
308.091
308.11
308.131
308.146
308.007
308.023
308.03
308.042
308.053
308.065
308.078
308.092
308.108
308.123
308.14
308.156
308.173
308.183
308.086
308.094
308.099
308.106
308.114
308.123
308.135
308.146
308.159
308.172
308.187
308.2
308.214
308.224
307.611
307.63
307.644
307.655
307.663
307.668
307.668
307.667
307.663
307.657
307.649
307.64
307.632
307.628
307.614
307.633
307.65
307.662
307.671
307.678
307.681
307.683
307.681
307.678
307.673
307.668
307.665
307.669
307.627
307.645
307.663
307.675
307.686
307.695
307.7
307.703
307.705
307.705
307.703
307.702
307.7
307.705
307.648
307.666
307.683
307.695
307.707
307.716
307.722
307.726
307.729
307.731
307.733
307.733
307.734
307.739
307.675
307.692
307.709
307.722
307.733
307.742
307.747
307.752
307.757
307.761
307.764
307.765
307.766
307.771
307.71
307.725
307.74
307.752
307.763
307.77
307.776
307.781
307.785
307.79
307.792
307.795
307.797
307.801
307.749
307.762
307.775
307.786
307.795
307.801
307.807
307.811
307.815
307.818
307.821
307.823
307.826
307.831
307.791
307.803
307.813
307.822
307.828
307.833
307.837
307.841
307.844
307.846
307.848
307.851
307.855
307.859
307.836
307.847
307.853
307.859
307.862
307.865
307.868
307.87
307.872
307.873
307.875
307.878
307.881
307.884
307.881
307.889
307.891
307.894
307.895
307.896
307.897
307.899
307.9
307.901
307.902
307.903
307.905
307.907
307.924
307.93
307.928
307.93
307.929
307.929
307.928
307.928
307.928
307.927
307.927
307.926
307.927
307.927
307.964
307.968
307.964
307.964
307.962
307.961
307.959
307.958
307.956
307.953
307.952
307.949
307.948
307.946
308.005
308.008
308.003
308.001
307.998
307.994
307.991
307.986
307.982
307.977
307.973
307.968
307.965
307.96
308.051
308.047
308.04
308.035
308.03
308.025
308.019
308.013
308.007
308.001
307.995
307.987
307.981
307.972
307.718
307.734
307.746
307.753
307.754
307.75
307.742
307.731
307.717
307.699
307.678
307.653
307.624
307.593
307.727
307.74
307.751
307.755
307.755
307.75
307.743
307.731
307.717
307.698
307.677
307.654
307.631
307.605
307.738
307.748
307.757
307.759
307.758
307.753
307.745
307.735
307.721
307.705
307.686
307.666
307.644
307.622
307.751
307.76
307.765
307.766
307.764
307.758
307.751
307.74
307.728
307.713
307.696
307.678
307.658
307.64
307.766
307.773
307.776
307.775
307.772
307.765
307.758
307.748
307.737
307.724
307.708
307.692
307.674
307.658
307.783
307.787
307.788
307.785
307.781
307.775
307.767
307.758
307.747
307.735
307.721
307.706
307.69
307.675
307.799
307.801
307.8
307.797
307.793
307.787
307.779
307.77
307.759
307.748
307.735
307.72
307.706
307.691
307.816
307.817
307.814
307.811
307.806
307.8
307.792
307.782
307.772
307.76
307.747
307.733
307.719
307.705
307.834
307.834
307.831
307.827
307.821
307.814
307.805
307.795
307.784
307.771
307.758
307.744
307.73
307.716
307.854
307.854
307.849
307.844
307.836
307.827
307.818
307.806
307.794
307.781
307.767
307.752
307.737
307.723
307.875
307.875
307.869
307.861
307.852
307.841
307.828
307.816
307.802
307.787
307.772
307.756
307.74
307.725
307.896
307.894
307.885
307.875
307.863
307.851
307.837
307.823
307.807
307.791
307.775
307.759
307.741
307.725
307.917
307.912
307.901
307.889
307.875
307.86
307.844
307.827
307.809
307.791
307.773
307.755
307.737
307.719
307.932
307.922
307.91
307.896
307.881
307.865
307.847
307.829
307.811
307.792
307.772
307.753
307.733
307.711
307.748
307.754
307.755
307.755
307.751
307.744
307.734
307.719
307.701
307.679
307.654
307.624
307.592
307.552
307.753
307.756
307.757
307.755
307.751
307.742
307.73
307.714
307.695
307.671
307.645
307.613
307.581
307.544
307.757
307.758
307.758
307.755
307.749
307.74
307.727
307.71
307.69
307.667
307.64
307.61
307.578
307.542
307.76
307.76
307.759
307.754
307.748
307.737
307.723
307.706
307.685
307.661
307.635
307.605
307.573
307.539
307.763
307.762
307.76
307.754
307.746
307.735
307.72
307.702
307.681
307.657
307.63
307.602
307.571
307.537
307.765
307.764
307.76
307.754
307.744
307.732
307.716
307.697
307.676
307.652
307.626
307.597
307.567
307.535
307.768
307.765
307.76
307.752
307.741
307.727
307.711
307.692
307.67
307.647
307.621
307.593
307.563
307.533
307.77
307.766
307.759
307.749
307.737
307.722
307.705
307.686
307.664
307.64
307.614
307.587
307.559
307.53
307.772
307.766
307.757
307.745
307.732
307.716
307.699
307.679
307.656
307.632
307.606
307.579
307.552
307.525
307.771
307.763
307.752
307.74
307.725
307.708
307.69
307.669
307.646
307.621
307.595
307.569
307.542
307.517
307.77
307.76
307.748
307.734
307.718
307.699
307.679
307.656
307.632
307.607
307.582
307.556
307.529
307.506
307.765
307.753
307.74
307.724
307.706
307.686
307.664
307.641
307.617
307.592
307.566
307.54
307.513
307.49
307.76
307.746
307.731
307.713
307.693
307.671
307.647
307.623
307.597
307.571
307.544
307.519
307.492
307.47
307.746
307.731
307.714
307.695
307.675
307.652
307.628
307.603
307.577
307.551
307.525
307.499
307.472
307.446
307.712
307.712
307.709
307.703
307.695
307.684
307.67
307.653
307.632
307.608
307.582
307.552
307.519
307.48
307.711
307.708
307.703
307.696
307.686
307.673
307.657
307.638
307.614
307.588
307.559
307.526
307.491
307.453
307.708
307.704
307.697
307.688
307.676
307.661
307.643
307.622
307.598
307.57
307.54
307.506
307.471
307.433
307.702
307.696
307.688
307.677
307.664
307.648
307.628
307.606
307.58
307.551
307.52
307.485
307.45
307.412
307.695
307.687
307.677
307.665
307.65
307.632
307.611
307.588
307.561
307.531
307.5
307.465
307.43
307.392
307.684
307.675
307.663
307.65
307.634
307.615
307.593
307.568
307.541
307.511
307.479
307.445
307.409
307.372
307.671
307.661
307.648
307.633
307.615
307.595
307.572
307.547
307.519
307.489
307.457
307.423
307.389
307.353
307.655
307.643
307.629
307.613
307.594
307.573
307.55
307.524
307.495
307.465
307.434
307.401
307.367
307.333
307.637
307.623
307.608
307.591
307.571
307.549
307.525
307.499
307.47
307.44
307.409
307.377
307.344
307.312
307.615
307.599
307.583
307.565
307.544
307.522
307.497
307.471
307.442
307.413
307.382
307.352
307.32
307.29
307.591
307.574
307.557
307.537
307.516
307.492
307.467
307.44
307.412
307.383
307.353
307.324
307.293
307.266
307.562
307.543
307.526
307.505
307.484
307.46
307.435
307.408
307.38
307.352
307.323
307.295
307.265
307.241
307.534
307.513
307.495
307.473
307.45
307.426
307.4
307.373
307.345
307.317
307.288
307.261
307.233
307.211
307.496
307.477
307.458
307.436
307.413
307.389
307.363
307.337
307.31
307.283
307.256
307.23
307.202
307.18
307.613
307.602
307.591
307.579
307.567
307.553
307.538
307.521
307.503
307.483
307.461
307.437
307.412
307.385
307.598
307.587
307.574
307.561
307.546
307.531
307.513
307.494
307.473
307.45
307.426
307.4
307.372
307.341
307.583
307.571
307.555
307.541
307.524
307.507
307.487
307.466
307.443
307.419
307.393
307.365
307.337
307.305
307.565
307.551
307.534
307.518
307.5
307.48
307.459
307.436
307.412
307.386
307.359
307.33
307.3
307.268
307.544
307.529
307.51
307.492
307.473
307.452
307.429
307.405
307.38
307.353
307.325
307.295
307.265
307.232
307.52
307.503
307.483
307.464
307.443
307.421
307.397
307.372
307.346
307.318
307.289
307.259
307.229
307.197
307.493
307.474
307.453
307.433
307.411
307.388
307.363
307.337
307.31
307.282
307.253
307.224
307.194
307.163
307.461
307.44
307.42
307.398
307.375
307.352
307.327
307.301
307.273
307.246
307.217
307.188
307.158
307.128
307.427
307.405
307.384
307.361
307.338
307.314
307.289
307.263
307.235
307.208
307.18
307.152
307.123
307.095
307.387
307.365
307.344
307.321
307.298
307.273
307.249
307.223
307.196
307.17
307.142
307.115
307.087
307.062
307.346
307.323
307.302
307.279
307.256
307.232
307.207
307.182
307.156
307.13
307.104
307.078
307.052
307.03
307.301
307.277
307.257
307.234
307.212
307.188
307.165
307.14
307.115
307.091
307.066
307.042
307.017
306.997
307.258
307.233
307.213
307.19
307.168
307.144
307.121
307.097
307.073
307.049
307.026
307.003
306.981
306.965
307.205
307.184
307.164
307.142
307.121
307.099
307.077
307.054
307.032
307.01
306.988
306.968
306.947
306.931
307.452
307.433
307.414
307.398