/*--------------------------------*- C++ -*----------------------------------*\
| =========                 |                                                 |
| \\      /  F ield         | OpenFOAM: The Open Source CFD Toolbox           |
|  \\    /   O peration     | Version:  v2106                                 |
|   \\  /    A nd           | Website:  www.openfoam.com                      |
|    \\/     M anipulation  |                                                 |
\*---------------------------------------------------------------------------*/
FoamFile
{
    version     2.0;
    format      ascii;
    arch        "LSB;label=32;scalar=64";
    class       volVectorField;
    location    "0.000162";
    object      U;
}
// * * * * * * * * * * * * * * * * * * * * * * * * * * * * * * * * * * * * * //

dimensions      [0 1 -1 0 0 0 0];

internalField   nonuniform List<vector> 
18109
(
(-13.7979 1.35354 -57.6491)
(-13.8249 2.77221 -56.6476)
(-13.2047 4.62549 -55.6708)
(-13.0178 6.22635 -54.7615)
(-12.4649 7.14922 -53.9804)
(-11.9138 7.59181 -53.5363)
(-11.3329 7.56047 -53.2834)
(-11.4686 -0.835938 -58.2328)
(-12.3923 0.815596 -57.505)
(-12.2522 2.73552 -56.371)
(-12.5695 4.33743 -55.5513)
(-12.3183 5.23145 -54.7648)
(-12.1451 5.67041 -54.2684)
(-11.8487 5.68227 -53.9157)
(-9.28533 -2.37203 -58.4826)
(-10.6588 -0.489754 -57.8506)
(-11.0705 1.42284 -56.8675)
(-11.6833 2.83887 -56.2263)
(-11.8417 3.62186 -55.5175)
(-11.9833 4.00585 -55.0397)
(-12.025 4.04479 -54.6088)
(-7.53771 -3.39874 -58.7964)
(-9.13843 -1.44235 -58.1668)
(-10.0404 0.305337 -57.3845)
(-10.8223 1.51075 -56.785)
(-11.2942 2.20113 -56.1573)
(-11.7111 2.49477 -55.6536)
(-12.0144 2.581 -55.1706)
(-6.11307 -3.89814 -58.985)
(-7.79873 -2.07011 -58.4486)
(-8.99806 -0.597117 -57.8343)
(-9.98336 0.368919 -57.2665)
(-10.7232 0.944922 -56.688)
(-11.3728 1.15286 -56.1602)
(-11.9249 1.2608 -55.6604)
(-4.89239 -4.24456 -59.1973)
(-6.65898 -2.65475 -58.7464)
(-8.0517 -1.4066 -58.2121)
(-9.23809 -0.640974 -57.6535)
(-10.2131 -0.187746 -57.107)
(-11.063 -0.0537712 -56.5594)
(-11.8369 0.0449319 -56.0603)
(-3.72093 -4.40268 -59.3503)
(-5.61132 -3.08388 -58.9516)
(-7.22102 -2.08319 -58.4969)
(-8.60314 -1.50882 -57.9436)
(-9.80275 -1.19458 -57.4534)
(-10.8388 -1.14163 -56.9052)
(-11.8022 -1.07992 -56.4252)
(-2.6558 -4.45443 -59.407)
(-4.76282 -3.44112 -59.1123)
(-6.57989 -2.6678 -58.7023)
(-8.13868 -2.29113 -58.1478)
(-9.51908 -2.11773 -57.6875)
(-10.7126 -2.15799 -57.1309)
(-11.8181 -2.16815 -56.6452)
(-10.5503 0.631683 -52.3559)
(-10.7962 1.97091 -51.6355)
(-10.3913 3.58979 -50.6761)
(-10.5414 4.97623 -49.7832)
(-10.3071 5.77968 -48.9305)
(-10.1584 6.19654 -48.3432)
(-9.90873 6.25755 -47.9069)
(-9.83693 6.04909 -47.4531)
(-9.75677 5.6054 -47.0513)
(-9.83808 4.88181 -46.7581)
(-9.93055 3.88547 -46.5512)
(-10.3495 2.72424 -46.3886)
(-10.8195 1.42418 -46.1511)
(-12.1323 0.386406 -45.8082)
(-8.55083 -1.18317 -52.7851)
(-9.56815 0.231728 -52.1536)
(-9.62653 1.92004 -51.1142)
(-10.1324 3.30901 -50.3279)
(-10.1793 4.08983 -49.4796)
(-10.3393 4.47584 -48.8815)
(-10.3448 4.57631 -48.3861)
(-10.4718 4.40473 -47.9338)
(-10.5308 3.97707 -47.4914)
(-10.7757 3.31232 -47.0988)
(-11.0127 2.38412 -46.7529)
(-11.555 1.3309 -46.4467)
(-12.1428 0.156201 -46.0963)
(-13.3967 -0.675026 -45.6855)
(-6.7781 -2.535 -52.8838)
(-8.12803 -0.948944 -52.3269)
(-8.68062 0.707316 -51.4363)
(-9.39236 1.94953 -50.7837)
(-9.77366 2.65426 -50.0287)
(-10.1944 2.98076 -49.4683)
(-10.4942 3.09984 -48.947)
(-10.8939 2.99025 -48.5015)
(-11.2437 2.64423 -47.9909)
(-11.7487 2.1271 -47.498)
(-12.2448 1.35513 -46.9735)
(-12.9408 0.500899 -46.4375)
(-13.6866 -0.374646 -45.8282)
(-14.9562 -0.84283 -45.315)
(-5.35357 -3.40506 -53.0494)
(-6.87423 -1.85336 -52.4936)
(-7.8314 -0.36355 -51.7757)
(-8.699 0.710775 -51.1726)
(-9.33446 1.35284 -50.501)
(-9.96081 1.62486 -49.9448)
(-10.4818 1.77275 -49.4087)
(-11.0734 1.702 -48.9321)
(-11.6457 1.42221 -48.376)
(-12.2967 0.976434 -47.7911)
(-12.9944 0.294106 -47.2101)
(-13.8688 -0.425097 -46.6079)
(-14.8268 -1.1122 -45.8942)
(-16.1511 -1.44895 -45.2948)
(-4.21506 -4.04248 -53.2155)
(-5.79447 -2.58162 -52.7045)
(-6.97448 -1.27236 -52.1069)
(-8.0292 -0.39454 -51.5225)
(-8.88643 0.165684 -50.9116)
(-9.69384 0.391075 -50.3516)
(-10.4164 0.559244 -49.8161)
(-11.1563 0.541391 -49.2906)
(-11.9067 0.35001 -48.7143)
(-12.7143 0.035714 -48.0695)
(-13.6243 -0.454633 -47.4499)
(-14.6547 -0.980445 -46.7997)
(-15.7446 -1.4524 -46.0175)
(-17.1222 -1.64907 -45.3727)
(-3.19352 -4.58538 -53.4115)
(-4.83151 -3.23894 -52.9353)
(-6.19844 -2.11196 -52.3951)
(-7.42398 -1.39534 -51.8189)
(-8.48504 -0.930012 -51.2514)
(-9.45838 -0.750218 -50.6774)
(-10.3647 -0.579823 -50.1446)
(-11.235 -0.556544 -49.5679)
(-12.1262 -0.659803 -48.9971)
(-13.0355 -0.84971 -48.3325)
(-14.037 -1.20427 -47.6975)
(-15.1327 -1.6028 -47.0235)
(-16.3079 -1.90755 -46.2117)
(-17.7315 -2.06726 -45.5169)
(-2.17492 -4.94254 -53.5474)
(-3.97195 -3.82948 -53.0823)
(-5.52482 -2.87462 -52.6067)
(-6.90868 -2.30247 -52.0413)
(-8.15386 -1.93473 -51.5384)
(-9.27793 -1.80355 -50.9724)
(-10.3393 -1.64785 -50.4579)
(-11.3234 -1.60282 -49.8448)
(-12.3203 -1.64884 -49.2659)
(-13.291 -1.75206 -48.5764)
(-14.3279 -1.99273 -47.9099)
(-15.438 -2.25685 -47.1787)
(-16.6709 -2.37147 -46.3486)
(-18.1456 -2.38679 -45.5648)
(-1.30906 -5.22669 -53.614)
(-3.24196 -4.24869 -53.202)
(-4.99067 -3.55775 -52.746)
(-6.52029 -3.1408 -52.2016)
(-7.91859 -2.87871 -51.7368)
(-9.16892 -2.81167 -51.1698)
(-10.3405 -2.69727 -50.6514)
(-11.3952 -2.65439 -50.012)
(-12.4412 -2.67947 -49.4335)
(-13.4246 -2.73966 -48.7541)
(-14.4403 -2.89796 -48.0808)
(-15.5208 -3.01667 -47.3068)
(-16.7938 -2.9254 -46.5124)
(-18.3093 -2.76042 -45.6687)
(-0.683607 -5.3841 -53.7215)
(-2.77628 -4.61049 -53.3554)
(-4.63433 -4.16652 -52.907)
(-6.27745 -3.90036 -52.4383)
(-7.7816 -3.75376 -51.9744)
(-9.13258 -3.76923 -51.4316)
(-10.3767 -3.72376 -50.9086)
(-11.475 -3.71541 -50.2615)
(-12.5204 -3.76041 -49.6536)
(-13.4782 -3.82179 -48.9673)
(-14.4286 -3.92124 -48.2448)
(-15.4484 -3.87071 -47.4255)
(-16.7442 -3.53916 -46.7301)
(-18.2648 -3.13849 -45.912)
(-0.394427 -5.30514 -53.899)
(-2.63 -4.90436 -53.5731)
(-4.58619 -4.8065 -53.0432)
(-6.3018 -4.69653 -52.5552)
(-7.83687 -4.65962 -52.0238)
(-9.22548 -4.76464 -51.5259)
(-10.4835 -4.80118 -51.0169)
(-11.5756 -4.85533 -50.3925)
(-12.5671 -4.94299 -49.7771)
(-13.4534 -5.03238 -49.1043)
(-14.2965 -5.0729 -48.3526)
(-15.2518 -4.83395 -47.577)
(-16.4775 -4.22937 -47.0067)
(-17.9763 -3.57884 -46.3294)
(-0.667277 -5.13752 -54.2482)
(-3.04482 -5.01314 -53.9498)
(-5.02332 -5.36053 -53.3793)
(-6.7569 -5.47345 -52.8408)
(-8.24961 -5.59238 -52.2412)
(-9.59145 -5.80218 -51.7677)
(-10.7833 -5.94171 -51.217)
(-11.8053 -6.08985 -50.584)
(-12.6785 -6.2423 -49.9126)
(-13.4492 -6.37511 -49.2262)
(-14.1609 -6.35263 -48.4676)
(-15.0504 -5.95643 -47.8319)
(-16.0831 -5.08757 -47.4115)
(-17.4547 -4.17566 -46.9667)
(-1.45185 -4.69361 -54.7145)
(-4.11411 -5.1616 -54.4555)
(-6.08995 -5.87264 -53.7085)
(-7.72694 -6.33507 -53.0091)
(-9.03031 -6.70424 -52.2786)
(-10.2251 -7.02784 -51.7969)
(-11.2552 -7.25803 -51.2289)
(-12.1367 -7.50403 -50.6674)
(-12.8465 -7.70501 -50.0171)
(-13.4489 -7.86897 -49.3364)
(-14.0022 -7.7839 -48.6102)
(-14.7524 -7.27384 -48.1076)
(-15.4519 -6.23009 -47.8028)
(-16.6502 -5.19092 -47.5781)
(-2.764 -4.12529 -55.0717)
(-5.60966 -4.9982 -54.9479)
(-7.54784 -6.38408 -54.1776)
(-9.09177 -7.35649 -53.3479)
(-10.2485 -7.96771 -52.5047)
(-11.271 -8.39409 -51.8931)
(-12.084 -8.72859 -51.2441)
(-12.7328 -9.09405 -50.6492)
(-13.2053 -9.3582 -49.9695)
(-13.5608 -9.56246 -49.2942)
(-13.8764 -9.44697 -48.6588)
(-14.3413 -8.84095 -48.3553)
(-14.4991 -7.65403 -48.1998)
(-15.3516 -6.4521 -48.0954)
(-3.73074 -3.03493 -55.693)
(-6.89866 -5.23687 -55.3391)
(-8.86017 -7.33898 -54.3807)
(-10.6474 -8.54407 -53.583)
(-11.7153 -9.46048 -52.6292)
(-12.5117 -10.0683 -51.838)
(-13.0201 -10.5336 -51.1476)
(-13.3965 -10.9605 -50.6172)
(-13.631 -11.2438 -50.0021)
(-13.8078 -11.4873 -49.3684)
(-13.8803 -11.4175 -48.7181)
(-14.109 -10.9037 -48.3124)
(-13.9701 -9.87063 -48.2111)
(-14.0412 -8.66144 -48.1282)
(-15.5433 3.66259 -57.438)
(-16.8202 3.51126 -56.9537)
(-18.0649 4.86922 -56.8277)
(-20.4945 5.82417 -56.2022)
(-23.2437 8.36786 -56.7228)
(-28.2484 11.7389 -55.9508)
(-11.9712 2.57774 -52.3284)
(-12.8906 2.41604 -52.0179)
(-13.8321 3.49556 -51.9867)
(-15.8973 4.10573 -51.7615)
(-18.2951 6.07419 -52.1912)
(-22.7293 8.5442 -51.5776)
(-11.2096 3.87434 -51.2734)
(-12.5027 4.59416 -50.8638)
(-13.4261 6.22118 -50.552)
(-15.5494 7.39885 -50.156)
(-18.0311 9.80022 -50.2298)
(-22.8181 12.4304 -49.3778)
(-10.6959 5.46389 -50.274)
(-11.909 6.53273 -49.5961)
(-12.5382 8.55235 -49.1245)
(-14.6965 10.2197 -48.4809)
(-17.3023 13.1031 -48.071)
(-22.2587 16.2285 -47.0784)
(-10.3209 6.82242 -49.3466)
(-11.19 8.28216 -48.4745)
(-11.7226 10.5124 -47.8172)
(-13.5301 12.5037 -46.9007)
(-15.6673 15.5476 -46.0936)
(-20.4875 19.189 -45.0743)
(-10.0014 7.7195 -48.4565)
(-10.4496 9.5319 -47.387)
(-10.499 11.9263 -46.8133)
(-11.7811 14.2318 -45.873)
(-13.3115 17.4417 -44.7087)
(-18.0398 21.1967 -43.429)
(-9.64461 8.1423 -47.6946)
(-9.54977 10.2703 -46.6244)
(-9.29977 12.8052 -46.0064)
(-10.0063 15.297 -44.8537)
(-10.7314 18.3961 -43.2142)
(-15.0329 22.5327 -42.3079)
(-9.26854 8.17964 -47.0799)
(-8.62867 10.4218 -46.1761)
(-8.05593 13.0137 -45.5246)
(-8.00593 15.656 -44.2325)
(-7.86667 19.238 -42.9101)
(-11.7834 23.1218 -41.8406)
(-8.97153 7.88846 -46.6181)
(-7.76424 10.102 -46.0315)
(-6.85563 12.7055 -45.3331)
(-5.97074 15.4965 -44.2632)
(-5.41383 18.8479 -43.3827)
(-8.77091 21.804 -41.5543)
(-8.73879 7.35546 -46.3871)
(-7.1267 9.2968 -46.0965)
(-5.83546 11.7477 -45.4498)
(-4.3092 14.3896 -44.8449)
(-3.46356 17.3237 -44.3589)
(-5.89002 19.7953 -41.8601)
(-8.78462 6.54148 -46.4173)
(-6.931 8.05191 -46.2792)
(-5.25864 10.3035 -45.8294)
(-3.33515 12.4957 -45.5525)
(-2.44657 14.5054 -45.1259)
(-4.42911 16.1062 -42.8954)
(-8.93132 5.37635 -46.5292)
(-7.01384 6.43282 -46.4447)
(-5.18677 8.27405 -46.2055)
(-3.53945 9.73785 -46.1005)
(-2.92494 10.5051 -45.7507)
(-4.27938 11.1607 -44.5356)
(-9.14949 3.78419 -46.6199)
(-7.32558 4.37671 -46.5556)
(-5.6614 5.5756 -46.4894)
(-4.40175 5.9433 -46.4176)
(-4.12377 6.03107 -46.3335)
(-5.02757 5.67988 -45.8117)
(-9.53369 1.86109 -46.4997)
(-8.07696 1.97913 -46.4985)
(-6.73691 2.22113 -46.4921)
(-5.84362 1.88955 -46.403)
(-5.54786 1.27621 -46.4837)
(-6.45762 0.0983522 -46.1676)
(-10.6982 0.137834 -46.2463)
(-9.62557 -0.333803 -46.2091)
(-8.82317 -0.890439 -46.2168)
(-8.25972 -1.77723 -45.9243)
(-8.26184 -2.91606 -46.0949)
(-9.46516 -4.80201 -45.7911)
(-12.8099 -1.01506 -45.5774)
(-12.317 -1.71372 -45.4073)
(-12.497 -2.59041 -45.4499)
(-12.139 -3.79389 -45.1038)
(-12.5624 -5.57806 -45.1448)
(-13.5414 -8.60373 -44.4272)
(-14.4457 -1.35458 -45.284)
(-14.5266 -2.45471 -44.9064)
(-15.3501 -3.51816 -44.5962)
(-15.5469 -5.14547 -43.9793)
(-16.5105 -7.49179 -43.5818)
(-17.6199 -11.5707 -42.7191)
(-16.0729 -1.38702 -44.6755)
(-16.564 -2.58448 -44.0172)
(-17.7941 -3.83135 -43.3721)
(-18.5743 -6.02664 -42.5475)
(-20.1114 -9.02255 -41.9608)
(-21.6911 -13.8873 -40.6708)
(-17.375 -1.71508 -44.3816)
(-18.3027 -2.97609 -43.485)
(-19.89 -4.21981 -42.4545)
(-21.3173 -6.33687 -41.2207)
(-23.386 -9.46212 -40.2626)
(-25.6626 -14.7819 -38.5742)
(-18.3612 -1.88881 -44.2019)
(-19.8151 -2.75498 -43.1046)
(-21.8182 -3.57606 -41.9442)
(-23.9139 -5.41953 -40.5452)
(-26.5218 -8.49944 -39.1055)
(-29.4819 -14.1977 -37.1984)
(-19.128 -2.07337 -44.17)
(-21.0778 -2.33812 -42.876)
(-23.4264 -2.76023 -41.5515)
(-26.044 -4.10194 -40.04)
(-28.9673 -6.75933 -38.0852)
(-32.6743 -12.2745 -36.0478)
(-19.7208 -2.10699 -44.1884)
(-22.0013 -1.81263 -42.9549)
(-24.58 -1.84809 -41.5596)
(-27.524 -2.55922 -40.042)
(-30.959 -4.57902 -38.0939)
(-35.1003 -9.85002 -35.8592)
(-20.0763 -2.15162 -44.5263)
(-22.403 -1.34614 -43.4088)
(-25.0494 -0.94494 -42.1645)
(-28.2044 -0.941911 -40.9533)
(-31.8162 -2.09179 -39.1433)
(-35.4459 -7.0383 -36.5255)
(-20.1394 -2.34892 -45.0907)
(-22.2339 -1.13202 -44.0677)
(-24.7662 -0.245554 -43.0787)
(-27.7073 0.392555 -42.3117)
(-30.7294 -0.0387411 -40.8292)
(-33.3741 -4.51998 -38.1752)
(-19.7816 -2.74934 -45.7717)
(-21.4059 -1.33598 -44.8349)
(-23.6414 -0.254723 -44.2753)
(-25.7752 0.897081 -43.8831)
(-27.7796 1.00706 -42.6545)
(-28.9695 -3.13017 -40.6188)
(-18.9679 -3.35609 -46.5271)
(-20.0346 -1.92511 -45.7803)
(-21.5447 -0.747987 -45.4911)
(-22.4378 0.178631 -45.2876)
(-23.2314 -0.0447203 -44.7014)
(-22.6778 -3.0488 -43.5951)
(-17.6074 -4.26436 -47.1872)
(-17.9166 -3.05416 -46.7277)
(-18.4799 -2.22596 -46.6367)
(-18.364 -1.77217 -46.6693)
(-17.6412 -1.8691 -46.5826)
(-15.5768 -4.37241 -46.1119)
(-15.6045 -5.37246 -47.873)
(-15.1939 -4.63165 -47.642)
(-14.7929 -4.0762 -47.8233)
(-13.7498 -3.89884 -47.7677)
(-12.0909 -4.72095 -47.8897)
(-8.77429 -7.6541 -47.6312)
(-13.6332 -7.62158 -48.0663)
(-12.6151 -7.28569 -47.9911)
(-11.5713 -7.64808 -48.3244)
(-9.78402 -8.05241 -48.2278)
(-7.30619 -9.66015 -48.6909)
(-2.94841 -12.9105 -48.7289)
(-12.7465 -10.6214 -48.4028)
(-11.2656 -10.753 -48.2134)
(-9.71388 -11.8149 -48.4953)
(-6.97437 -12.502 -48.2964)
(-3.18599 -14.5059 -48.7653)
(2.78927 -17.46 -48.5485)
(-13.5208 -11.7878 -48.1512)
(-11.8016 -12.9793 -48.0629)
(-9.84711 -14.8204 -47.9218)
(-6.50936 -16.3873 -47.663)
(-1.88881 -19.1543 -47.7049)
(5.60818 -22.6033 -47.4549)
(-13.4537 -12.8819 -48.3097)
(-11.7838 -14.7848 -48.0924)
(-9.72387 -17.3053 -47.798)
(-6.13881 -19.7917 -47.452)
(-0.980157 -23.3897 -47.1711)
(7.71162 -27.5575 -46.4902)
(-13.664 -13.4989 -48.552)
(-12.5319 -16.0166 -48.2951)
(-10.5801 -19.0192 -47.8529)
(-7.18226 -22.4273 -47.3141)
(-1.70651 -26.7605 -46.7673)
(7.35087 -32.1511 -45.5067)
(-13.9177 -13.6953 -48.9924)
(-13.5073 -16.6613 -48.737)
(-11.8726 -20.0057 -48.4282)
(-9.26888 -24.2169 -47.7623)
(-4.00163 -29.2056 -47.1062)
(5.60666 -34.7785 -44.7561)
(-14.2612 -13.5103 -49.5041)
(-14.5296 -16.708 -49.4224)
(-13.4362 -20.4098 -49.2994)
(-11.9325 -25.2323 -48.4222)
(-6.70315 -30.3163 -47.4197)
(3.9966 -35.1225 -44.3978)
(-14.4943 -13.2244 -50.185)
(-15.4245 -16.3968 -50.3299)
(-15.1233 -20.2966 -50.3977)
(-14.6082 -25.0362 -49.4862)
(-9.34878 -29.094 -48.467)
(2.49281 -32.3765 -44.6475)
(-14.5109 -12.7329 -50.9847)
(-16.0277 -15.552 -51.3433)
(-16.4162 -19.0001 -51.6419)
(-16.1599 -22.7568 -50.9143)
(-10.9809 -25.6017 -49.9169)
(1.7387 -27.1192 -45.353)
(-14.1485 -12.0834 -51.9547)
(-15.8642 -14.1924 -52.4756)
(-16.7042 -16.6645 -53.0204)
(-16.2601 -18.9098 -52.6212)
(-11.5041 -20.0855 -52.0286)
(0.848715 -19.7915 -47.492)
(-13.2555 -11.1678 -53.008)
(-14.9871 -12.1818 -53.5444)
(-15.4648 -13.2942 -54.0703)
(-14.6 -13.9025 -54.2749)
(-10.5627 -13.1031 -53.8084)
(0.58496 -11.5294 -50.1442)
(-11.9018 -9.61937 -54.081)
(-12.8994 -9.70916 -54.5717)
(-13.1643 -9.27711 -55.1586)
(-12.3559 -8.20698 -55.3691)
(-8.36607 -6.12035 -55.3359)
(1.65667 -3.16119 -52.6558)
(-9.81185 -7.44926 -54.9113)
(-10.3416 -6.36785 -55.1936)
(-10.3348 -5.09598 -55.8972)
(-8.76605 -3.18496 -56.2354)
(-5.09794 0.259774 -56.4312)
(3.83959 4.16057 -54.9602)
(-7.84737 -4.43285 -55.7033)
(-8.02728 -2.64823 -55.7738)
(-7.10105 -1.04556 -56.7659)
(-5.11504 1.55004 -57.2447)
(-1.79906 5.63679 -57.6423)
(5.87358 10.1138 -57.3305)
(-4.52253 -1.63049 -55.7097)
(-3.988 0.0553601 -55.7858)
(-2.18786 1.73205 -56.5639)
(0.346997 4.68559 -56.7508)
(3.99324 8.8705 -57.5607)
(10.0399 14.88 -58.2401)
(-6.55056 -5.50755 -60.124)
(-6.20458 -7.22289 -61.1039)
(-6.53409 -7.6411 -61.8786)
(-7.67519 -6.93721 -62.1425)
(-9.48486 -2.28402 -62.0533)
(-12.2866 9.42442 -58.7174)
(-9.2649 -4.05599 -59.8618)
(-9.91764 -5.44647 -60.7497)
(-11.2362 -5.84592 -61.3621)
(-12.6148 -4.27323 -61.7544)
(-15.1782 -0.352805 -61.9752)
(-18.3243 8.99679 -60.2338)
(-12.319 -2.13975 -59.1987)
(-13.7179 -3.2436 -59.7984)
(-15.2873 -3.2812 -60.399)
(-16.9844 -1.70513 -60.6362)
(-19.5589 1.63626 -60.8468)
(-22.766 8.88555 -59.9655)
(-15.0081 0.332846 -58.2678)
(-16.1171 -0.111338 -58.3766)
(-17.5827 0.584565 -58.4827)
(-19.5189 2.10162 -58.5665)
(-21.9236 5.15602 -59.0346)
(-25.8394 10.3803 -58.6083)
(-0.620141 -2.05064 -55.908)
(0.0667838 0.131806 -55.6324)
(2.19041 2.40357 -56.2458)
(4.61165 6.3166 -56.1556)
(8.16628 11.3989 -57.1944)
(13.3275 18.4183 -57.4618)
(-0.113054 -3.7248 -55.1804)
(1.86001 -1.87369 -55.2129)
(4.53778 0.202298 -55.3895)
(7.41386 4.09467 -55.5848)
(11.6979 9.2975 -56.4778)
(17.3409 17.3955 -56.43)
(1.3086 -4.51478 -54.7621)
(3.78365 -2.74955 -54.7551)
(7.19778 -1.05954 -54.9751)
(10.4715 2.82686 -55.0128)
(15.5158 7.87356 -55.6407)
(21.4579 16.7313 -55.038)
(1.94087 -5.45703 -54.3467)
(4.76423 -4.30545 -54.4977)
(8.5336 -3.01871 -54.6476)
(12.1509 0.556724 -54.6497)
(17.6852 4.93083 -54.8786)
(23.771 14.0099 -54.0221)
(2.18444 -5.93056 -54.0611)
(5.30883 -5.58739 -54.313)
(9.12395 -4.75181 -54.4504)
(13.1012 -1.93796 -54.7015)
(19.0312 1.49295 -54.4749)
(24.138 11.1368 -53.1027)
(1.79651 -6.38974 -53.9893)
(4.95663 -6.8081 -54.2565)
(8.73637 -6.48927 -54.5586)
(13.27 -4.90823 -54.9425)
(19.127 -1.81685 -54.1895)
(22.4771 8.55033 -51.9854)
(0.992672 -6.52955 -53.8983)
(3.97481 -7.7206 -54.2839)
(7.67066 -8.18508 -55.008)
(12.2217 -7.9882 -55.4901)
(17.09 -4.48807 -54.5008)
(18.8165 6.86766 -51.01)
(-0.0835853 -6.53688 -53.8392)
(2.51541 -8.24692 -54.543)
(5.74438 -9.41452 -55.5413)
(9.58986 -10.0338 -55.9502)
(12.8446 -6.30539 -54.9451)
(13.7493 5.31531 -50.8695)
(-1.29824 -6.33763 -53.8354)
(0.834551 -8.50798 -54.8982)
(3.29891 -10.321 -56.0684)
(5.83627 -10.6981 -56.4401)
(7.24843 -7.27931 -55.9809)
(7.23671 3.44444 -51.9611)
(-2.66504 -6.00074 -53.9665)
(-1.20547 -8.21032 -55.1927)
(0.23567 -9.59082 -56.2963)
(1.26399 -9.39484 -56.8495)
(1.179 -6.86649 -56.6803)
(0.483085 2.30931 -53.522)
(-4.21133 -5.10514 -54.2501)
(-3.70493 -7.02273 -55.4299)
(-3.30029 -8.01485 -56.3121)
(-3.70155 -7.9316 -57.0367)
(-4.51129 -5.70507 -56.9857)
(-6.07952 1.9081 -54.9178)
(-6.41757 -3.94487 -54.212)
(-6.72164 -5.38314 -55.1423)
(-7.18605 -6.01636 -56.0696)
(-8.39846 -5.90173 -56.3893)
(-9.67068 -3.71689 -56.7996)
(-12.2809 2.2787 -55.5957)
(-9.03105 -2.35327 -53.8081)
(-9.90433 -3.41135 -54.5798)
(-11.0224 -3.94674 -55.2075)
(-12.4506 -3.39267 -55.4151)
(-14.1845 -1.5234 -55.7996)
(-17.329 3.06395 -55.0895)
(-11.3719 -0.256707 -53.1066)
(-12.2688 -0.755762 -53.4335)
(-13.3703 -0.377605 -53.7668)
(-14.9985 0.27806 -53.7633)
(-16.8323 2.2653 -54.086)
(-20.378 5.79556 -53.7179)
(-34.9827 21.1372 -51.1309)
(-59.8581 40.7488 -47.3907)
(-89.169 66.7211 -35.289)
(-123.515 87.6951 1.21856)
(-166.317 113.428 39.8415)
(-36.0217 23.478 -48.9242)
(-63.73 38.483 -44.0265)
(-96.3305 59.8633 -25.2193)
(-136.477 74.2455 14.3107)
(-183.705 99.3612 45.1722)
(-36.2423 26.3721 -46.1169)
(-65.5192 38.7502 -37.3739)
(-102.171 53.6982 -11.1165)
(-150.142 61.4855 23.953)
(-195.954 79.4574 46.5099)
(-35.9333 28.3362 -42.347)
(-66.6784 38.4859 -27.993)
(-110.456 47.2897 2.97077)
(-166.637 53.997 33.4887)
(-214.597 61.2684 50.7646)
(-33.8418 29.9741 -38.4544)
(-67.041 35.6217 -17.6413)
(-117.957 41.473 14.7917)
(-181.327 45.5109 43.4372)
(-235.04 50.9499 57.0851)
(-31.514 29.1741 -34.0205)
(-66.5555 31.8174 -9.74834)
(-123.031 33.7478 21.6774)
(-191.798 35.0543 49.2421)
(-247.917 38.494 65.4355)
(-27.978 27.0301 -30.7647)
(-64.0834 26.6463 -5.88704)
(-122.136 22.8435 24.169)
(-190.416 19.8366 55.0979)
(-245.76 19.8825 75.1856)
(-24.5043 23.0567 -29.4826)
(-61.185 18.9833 -6.36826)
(-120.094 8.61277 20.9669)
(-190.912 -3.33713 51.4964)
(-249.17 -9.59249 73.0741)
(-277.055 -5.78881 71.9021)
(-21.4026 18.4718 -30.099)
(-58.9018 9.69611 -8.52809)
(-118.896 -7.00289 16.7572)
(-189.455 -25.8302 48.706)
(-248.351 -36.8119 79.3578)
(-284.485 -34.6935 86.5105)
(-19.4242 12.4263 -33.0846)
(-55.4814 0.894467 -14.9084)
(-113.036 -19.2964 5.77173)
(-180.721 -40.1416 36.6145)
(-233.864 -54.9635 77.7589)
(-271.175 -55.8965 100.048)
(-17.7928 5.12678 -37.3315)
(-51.4635 -7.25261 -23.7128)
(-102.603 -29.7047 -6.92119)
(-162.963 -50.4297 23.9192)
(-208.836 -67.2353 74.8379)
(-246.519 -73.3499 109.019)
(-270.455 -62.7456 110.607)
(-16.6519 -2.01221 -41.5084)
(-46.2985 -14.7158 -33.0806)
(-87.5352 -37.7969 -18.7382)
(-139.055 -60.1253 8.67383)
(-180.321 -80.1308 57.5897)
(-212.261 -91.568 100.091)
(-233.508 -87.4351 116.412)
(-240.429 -55.4392 105.237)
(-16.2702 -8.47029 -44.1458)
(-40.4353 -23.5222 -39.5789)
(-73.2076 -47.6018 -28.1745)
(-114.869 -74.5323 -4.92259)
(-149.922 -96.2269 38.9825)
(-171.033 -108.912 78.6918)
(-173.47 -105.957 102.525)
(-179.725 -56.731 112.845)
(-17.7674 -14.3613 -45.0481)
(-35.8916 -32.5319 -42.7233)
(-61.8434 -57.4662 -34.4244)
(-92.8443 -89.0322 -13.2421)
(-120.608 -118.933 27.7912)
(-149.504 -151.416 58.6644)
(-164.505 -159.514 72.9542)
(-148.44 -167.229 83.4524)
(-20.5601 -19.6444 -44.4169)
(-34.6176 -40.9272 -43.0909)
(-55.3523 -69.1067 -35.8078)
(-79.4334 -105.112 -12.9145)
(-103.909 -142.771 28.0907)
(-134.103 -182.176 58.2002)
(-156.052 -199.549 67.8991)
(-155.834 -192.346 69.2032)
(-24.2244 -24.0107 -42.3942)
(-35.0923 -48.1837 -40.6467)
(-51.2615 -79.111 -30.1405)
(-68.6536 -116.604 -1.24221)
(-89.3976 -157.064 36.142)
(-114.92 -196.202 57.9871)
(-143.641 -211.683 67.3084)
(-150.777 -203.316 71.9629)
(-27.9112 -27.6757 -39.7314)
(-35.9421 -54.1682 -35.4608)
(-48.4516 -87.2063 -20.0237)
(-56.063 -126.264 10.1657)
(-72.3221 -170.448 34.9555)
(-90.0324 -203.994 51.7544)
(-115.533 -207.96 67.2112)
(-138.633 -192.26 77.1568)
(-31.5638 -30.0897 -36.2894)
(-38.5189 -58.1668 -27.9412)
(-45.6643 -94.93 -7.5655)
(-49.27 -140.645 20.8752)
(-57.2941 -189.073 40.1293)
(-65.3137 -227.103 49.2278)
(-77.7921 -240.137 50.773)
(-67.7817 -221.809 50.5274)
(-35.5781 -30.0192 -32.2673)
(-40.3016 -59.3282 -17.9714)
(-42.7144 -100.802 6.7979)
(-45.5206 -153.741 33.842)
(-48.4078 -208.761 49.0896)
(-54.937 -250.249 54.8001)
(-61.8429 -269.975 49.7623)
(-60.3271 -261.446 45.7123)
(-37.9207 -28.4275 -27.5385)
(-40.0664 -60.1378 -9.1061)
(-39.1624 -106.156 18.2381)
(-38.6648 -165.435 43.1133)
(-39.585 -221.31 60.1588)
(-42.5964 -258.566 66.787)
(-52.8453 -277.225 57.8772)
(-63.5122 -271.376 54.0919)
(-38.5205 -26.3666 -24.486)
(-38.2956 -61.0652 -3.83161)
(-33.7285 -112.663 23.2724)
(-27.584 -174.175 49.3996)
(-23.6575 -226.009 70.2681)
(-24.3982 -256.749 74.9384)
(-40.5397 -269.429 66.7558)
(-54.4893 -267.926 62.2549)
(-36.3668 -23.9065 -24.1873)
(-32.1006 -60.7207 -3.42767)
(-21.4895 -115.926 21.2951)
(-6.22218 -178.92 48.4987)
(2.887 -233.042 69.7995)
(5.0126 -265.665 73.735)
(1.08417 -275.237 59.1436)
(-0.664435 -266.027 47.9203)
(-31.6534 -22.2447 -26.1215)
(-22.6354 -61.4985 -6.43237)
(-5.02541 -120.201 17.4692)
(16.7875 -185.69 47.4324)
(29.159 -240.21 75.838)
(30.592 -277.715 83.8918)
(-23.9894 -21.6625 -30.5788)
(-10.5225 -60.4335 -13.4817)
(12.4106 -117.759 7.20638)
(34.9344 -182.359 36.0988)
(48.5072 -231.702 75.3861)
(48.4169 -270.535 97.6183)
(-14.5902 -20.4624 -36.451)
(1.66662 -58.5863 -24.4992)
(27.6949 -110.347 -6.97605)
(49.6047 -167.63 23.746)
(63.2653 -208.16 71.0867)
(67.27 -245.001 98.7996)
(-4.93489 -20.2086 -41.6515)
(14.4975 -52.9605 -34.6096)
(41.7117 -95.6047 -18.4075)
(66.2808 -144.783 13.24)
(83.2078 -182.818 61.7217)
(94.3022 -215.082 91.9039)
(4.16856 -21.6675 -45.243)
(27.7469 -48.5509 -42.0476)
(56.3163 -82.7569 -28.6507)
(83.7659 -121.353 0.954863)
(104.947 -152.266 46.2476)
(115.835 -176.384 76.2308)
(12.6479 -24.9584 -47.2737)
(40.0553 -46.825 -46.064)
(72.4999 -73.2561 -33.0793)
(106.139 -102.615 -3.96056)
(138.209 -127.38 36.1668)
(19.931 -29.2821 -47.1608)
(51.5435 -48.283 -45.1439)
(89.13 -71.2043 -29.2886)
(129.352 -91.7575 5.72938)
(167.908 -115.375 41.4689)
(25.2945 -34.3087 -46.0456)
(61.0848 -49.8946 -39.2041)
(101.691 -68.8444 -16.0069)
(144.992 -83.4919 21.9119)
(186.866 -109.786 48.2697)
(29.5877 -38.937 -43.3687)
(67.73 -51.055 -28.8989)
(111.323 -64.0992 0.591247)
(159.184 -77.4792 31.814)
(198.649 -92.3549 54.8676)
(31.0106 -42.5931 -38.866)
(71.3781 -52.0285 -16.4635)
(121.306 -63.2648 15.1358)
(177.705 -72.5026 41.2364)
(221.888 -81.2806 61.2885)
(31.3588 -43.0395 -33.3435)
(75.9705 -50.0365 -6.86226)
(134.513 -56.4083 23.3314)
(195.564 -60.0635 51.9383)
(243.221 -67.433 69.5933)
(32.2274 -40.2837 -29.4782)
(82.7826 -43.7672 -2.69937)
(147.482 -42.5379 26.6106)
(209.743 -41.3001 58.394)
(254.606 -47.9259 80.1818)
(33.6609 -34.9571 -28.3654)
(88.9974 -32.2644 -1.2881)
(154.478 -23.2948 32.7063)
(213.089 -17.3468 67.0501)
(252.743 -21.5467 90.3701)
(35.3042 -27.2119 -28.8441)
(92.9101 -16.3866 -1.15096)
(157.761 -1.91814 33.9374)
(214.84 10.8175 67.2563)
(256.628 13.0876 90.4098)
(35.4348 -16.037 -32.6116)
(93.1162 1.27619 -6.26212)
(158.522 19.157 27.8754)
(215.89 34.7551 65.6416)
(259.558 41.2482 94.6375)
(33.6104 -2.84873 -38.918)
(88.6456 16.7079 -18.5905)
(149.53 36.1131 13.4109)
(202.821 51.1264 59.1055)
(246.565 58.7835 99.7532)
(31.3639 9.72948 -46.1847)
(81.1256 30.1471 -32.6476)
(134.763 50.8856 -4.01729)
(181.806 66.5616 44.1377)
(222.781 77.7214 88.5754)
(28.2018 20.5616 -51.7063)
(71.5985 42.4411 -43.5145)
(117.769 67.0101 -20.8395)
(159.954 84.7479 25.3315)
(196.271 100.495 74.0578)
(25.6808 28.2082 -55.5777)
(62.7531 53.4199 -50.092)
(100.572 81.7909 -32.1928)
(132.558 101.777 11.5356)
(162.134 123.99 56.0727)
(26.7701 33.7061 -57.7581)
(55.9842 63.1199 -52.0348)
(87.0216 95.5461 -34.3569)
(111.177 126.264 6.91547)
(136.666 160.144 43.0836)
(29.4888 37.2093 -57.1277)
(53.4331 72.1205 -49.8848)
(81.1312 110.128 -24.649)
(99.9486 151.929 17.1498)
(125.777 191.574 48.4404)
(33.3084 38.3672 -54.9194)
(53.2384 77.216 -40.5662)
(75.3421 119.313 -5.26511)
(94.1144 169.36 32.8342)
(119.504 209.94 60.1438)
(37.0609 39.0367 -50.8648)
(50.7645 79.9507 -26.3524)
(69.2695 129.046 11.7453)
(84.9046 182.528 45.1153)
(98.0645 218.64 69.5079)
(38.1727 38.2164 -44.5928)
(48.3523 83.2346 -13.1748)
(63.5146 142.472 23.2334)
(73.7291 202.164 55.2459)
(82.4082 241.82 69.292)
(34.9469 37.8275 -38.2387)
(41.9232 87.8176 -4.89809)
(49.0157 154.94 30.4179)
(55.3465 220.097 64.237)
(63.7138 263.438 76.1912)
(29.0972 37.8169 -34.0615)
(31.6738 93.2249 -1.09171)
(30.567 164.434 36.3005)
(33.9053 232.484 70.7272)
(42.8071 277.695 86.6778)
(22.1202 38.2661 -32.1534)
(18.2951 96.1225 -0.0954161)
(10.1315 164.954 39.1908)
(9.99074 228.023 77.0395)
(16.885 268.411 99.2498)
(13.7822 38.0953 -31.9624)
(3.76536 96.4456 -0.76257)
(-11.6157 163.29 36.2835)
(-19.8826 225.194 72.5189)
(-20.5546 268.105 95.8695)
(3.68689 36.2099 -34.9417)
(-9.91884 94.4363 -6.06372)
(-30.7611 159.92 29.0843)
(-43.018 220.892 68.1628)
(-49.9274 264.788 100.198)
(-6.91396 32.5863 -39.929)
(-20.5838 87.7232 -17.981)
(-42.9488 147.981 15.2248)
(-56.0698 204.756 60.8417)
(-66.6046 247.552 103.811)
(-15.9108 28.6505 -45.6296)
(-31.3192 77.8244 -30.9591)
(-52.0298 132.129 -2.65835)
(-68.5865 182.159 45.202)
(-81.652 222.547 95.3657)
(-22.5827 25.0408 -50.2346)
(-41.7522 65.6232 -40.6467)
(-61.2782 114.336 -19.9002)
(-82.4453 158.508 23.395)
(-97.9183 194.039 76.282)
(-27.9462 21.9601 -52.5811)
(-49.878 54.1612 -45.8355)
(-71.0883 94.8205 -30.919)
(-94.6252 129.528 7.64621)
(-114.114 158.615 57.2817)
(-32.3271 20.4902 -52.9717)
(-55.1857 46.0121 -48.0298)
(-80.4379 78.2672 -36.1826)
(-107.95 105.402 -1.30979)
(-140.166 129.743 42.6643)
(-5.58204 -0.186536 -42.8689)
(-6.55175 0.915416 -42.1889)
(-6.80729 2.32468 -41.0747)
(-7.53141 3.43593 -40.1653)
(-7.91518 4.0618 -39.2516)
(-8.34849 4.38835 -38.6481)
(-8.63251 4.56699 -38.137)
(-8.9256 4.53946 -37.6823)
(-9.11331 4.28567 -37.2258)
(-9.3937 3.85845 -36.8431)
(-9.64368 3.24053 -36.539)
(-10.107 2.58402 -36.325)
(-10.5291 1.83369 -36.1586)
(-11.5474 1.48059 -35.9631)
(-4.39048 -1.72883 -42.9087)
(-5.73853 -0.495915 -42.2962)
(-6.41487 0.943735 -41.2336)
(-7.26449 2.06311 -40.4293)
(-7.84332 2.65769 -39.5672)
(-8.43349 2.93613 -38.9646)
(-8.87391 3.08766 -38.4257)
(-9.30942 3.02498 -37.954)
(-9.6538 2.79088 -37.4581)
(-10.0554 2.39205 -37.037)
(-10.4223 1.81605 -36.6622)
(-10.9312 1.21796 -36.3324)
(-11.5192 0.595524 -36.0547)
(-12.4896 0.237643 -35.8094)
(-3.16907 -2.65631 -42.8168)
(-4.68705 -1.40129 -42.2344)
(-5.75185 -0.110115 -41.3738)
(-6.76383 0.839712 -40.6797)
(-7.50925 1.37827 -39.9133)
(-8.24248 1.61294 -39.3393)
(-8.85656 1.7614 -38.8008)
(-9.48585 1.71056 -38.3268)
(-10.059 1.51976 -37.8029)
(-10.6491 1.17785 -37.2925)
(-11.2377 0.686818 -36.7924)
(-11.8964 0.20714 -36.277)
(-12.6335 -0.207669 -35.7782)
(-13.6191 -0.415923 -35.4162)
(-2.22933 -3.45187 -42.7907)
(-3.83685 -2.2323 -42.2176)
(-5.09637 -1.06554 -41.532)
(-6.239 -0.303083 -40.9083)
(-7.1433 0.160508 -40.2284)
(-7.99499 0.360672 -39.6624)
(-8.74682 0.518471 -39.1215)
(-9.49402 0.502993 -38.611)
(-10.2082 0.362538 -38.0691)
(-10.9233 0.0849434 -37.4986)
(-11.6711 -0.344554 -36.9568)
(-12.4813 -0.769325 -36.4084)
(-13.3085 -1.1388 -35.8411)
(-14.2946 -1.34132 -35.4076)
(-1.36999 -4.06082 -42.8623)
(-3.04326 -2.92634 -42.3411)
(-4.44298 -1.93695 -41.7294)
(-5.70556 -1.35706 -41.1229)
(-6.77021 -0.978444 -40.5116)
(-7.75299 -0.820548 -39.9491)
(-8.64073 -0.663365 -39.4127)
(-9.48419 -0.65228 -38.8667)
(-10.3041 -0.745496 -38.3143)
(-11.1118 -0.932764 -37.7047)
(-11.9785 -1.25477 -37.1393)
(-12.9018 -1.59791 -36.5831)
(-13.8282 -1.87432 -35.9704)
(-14.9028 -2.01958 -35.5083)
(-0.616495 -4.6127 -42.9735)
(-2.36417 -3.61645 -42.4619)
(-3.87637 -2.78445 -41.9067)
(-5.24224 -2.34664 -41.3126)
(-6.45231 -2.0478 -40.7472)
(-7.55954 -1.93322 -40.1749)
(-8.58046 -1.79141 -39.6415)
(-9.51855 -1.76317 -39.0638)
(-10.4332 -1.80951 -38.5193)
(-11.3158 -1.90264 -37.9044)
(-12.2455 -2.12543 -37.3286)
(-13.2212 -2.40097 -36.7675)
(-14.2033 -2.60912 -36.1303)
(-15.3369 -2.74241 -35.6322)
(0.0571685 -5.11031 -43.0069)
(-1.74939 -4.21477 -42.5141)
(-3.39564 -3.58423 -42.0076)
(-4.86863 -3.27231 -41.4461)
(-6.20913 -3.04584 -40.9436)
(-7.4263 -2.97791 -40.3857)
(-8.555 -2.86737 -39.87)
(-9.57208 -2.8386 -39.2736)
(-10.5597 -2.86049 -38.7244)
(-11.4911 -2.89351 -38.0951)
(-12.4459 -3.04367 -37.5004)
(-13.4257 -3.2536 -36.9001)
(-14.4461 -3.37085 -36.2418)