/*--------------------------------*- C++ -*----------------------------------*\
| =========                 |                                                 |
| \\      /  F ield         | OpenFOAM: The Open Source CFD Toolbox           |
|  \\    /   O peration     | Version:  v2106                                 |
|   \\  /    A nd           | Website:  www.openfoam.com                      |
|    \\/     M anipulation  |                                                 |
\*---------------------------------------------------------------------------*/
FoamFile
{
    version     2.0;
    format      ascii;
    arch        "LSB;label=32;scalar=64";
    class       volScalarField;
    location    "0.000154";
    object      alphat;
}
// * * * * * * * * * * * * * * * * * * * * * * * * * * * * * * * * * * * * * //

dimensions      [1 -1 -1 0 0 0 0];

internalField   nonuniform List<scalar> 
144746
(
9.36396e-05
7.89719e-05
6.2917e-05
4.56225e-05
3.04644e-05
2.01452e-05
1.62022e-05
1.78748e-05
2.50713e-05
3.74732e-05
5.41018e-05
7.16125e-05
8.43859e-05
9.13813e-05
9.7635e-05
8.15762e-05
6.21943e-05
4.07323e-05
2.33606e-05
1.29649e-05
8.60754e-06
8.74091e-06
1.33554e-05
2.24205e-05
3.51981e-05
4.96397e-05
6.18707e-05
7.00597e-05
0.000100145
7.89892e-05
5.43893e-05
3.03188e-05
1.43635e-05
6.55341e-06
3.54981e-06
3.43736e-06
6.20757e-06
1.2418e-05
2.18921e-05
3.2917e-05
4.30336e-05
5.09803e-05
9.49054e-05
6.63787e-05
3.88661e-05
1.71634e-05
6.45139e-06
2.37609e-06
1.02542e-06
1.03883e-06
2.44914e-06
6.03571e-06
1.22733e-05
2.01873e-05
2.79572e-05
3.48723e-05
8.08518e-05
4.85348e-05
2.30192e-05
7.97677e-06
2.9957e-06
1.05871e-06
3.70686e-07
3.56295e-07
9.85391e-07
2.79077e-06
6.44515e-06
1.19144e-05
1.83515e-05
2.52853e-05
6.35915e-05
3.3221e-05
1.40497e-05
6.38074e-06
3.16135e-06
1.23753e-06
4.69083e-07
3.698e-07
6.88291e-07
1.67755e-06
3.89324e-06
7.8742e-06
1.38344e-05
2.16929e-05
4.96365e-05
2.55486e-05
1.37311e-05
8.83546e-06
4.8679e-06
2.17394e-06
1.04947e-06
9.22488e-07
1.30559e-06
2.338e-06
4.5072e-06
8.56111e-06
1.51634e-05
2.45354e-05
4.19983e-05
2.58732e-05
1.92267e-05
1.39058e-05
8.55745e-06
4.39918e-06
2.48905e-06
2.36952e-06
3.21342e-06
5.04986e-06
8.35139e-06
1.38784e-05
2.2142e-05
3.35198e-05
4.08188e-05
3.18616e-05
2.81144e-05
2.21789e-05
1.53194e-05
8.8853e-06
5.38742e-06
5.14189e-06
6.88429e-06
1.02087e-05
1.54188e-05
2.31189e-05
3.35714e-05
4.7312e-05
4.46723e-05
4.17495e-05
4.05821e-05
3.482e-05
2.67399e-05
1.73948e-05
1.08352e-05
9.46147e-06
1.20206e-05
1.69863e-05
2.41694e-05
3.40991e-05
4.71162e-05
6.35505e-05
5.1062e-05
5.23282e-05
5.5131e-05
5.22943e-05
4.41763e-05
3.23729e-05
2.12711e-05
1.62582e-05
1.80017e-05
2.37888e-05
3.24078e-05
4.43862e-05
5.96993e-05
7.77904e-05
6.04133e-05
6.42528e-05
7.06134e-05
7.26706e-05
6.63984e-05
5.40354e-05
3.94269e-05
2.90076e-05
2.64154e-05
3.04194e-05
3.87653e-05
5.15138e-05
6.7629e-05
8.65991e-05
7.19038e-05
7.59152e-05
8.42071e-05
9.1102e-05
8.97577e-05
7.94449e-05
6.36437e-05
4.88589e-05
4.02139e-05
3.92175e-05
4.45544e-05
5.61068e-05
7.14849e-05
9.06417e-05
8.63997e-05
8.96585e-05
9.72067e-05
0.000105424
0.000109285
0.000102697
8.84679e-05
7.19899e-05
5.8881e-05
5.24471e-05
5.32186e-05
6.17501e-05
7.55225e-05
9.40884e-05
7.7777e-05
6.49173e-05
5.20704e-05
3.83997e-05
2.72924e-05
2.08919e-05
2.09959e-05
2.69006e-05
3.74388e-05
5.09322e-05
6.56215e-05
7.8034e-05
8.38573e-05
8.4084e-05
8.40181e-05
6.85746e-05
5.17543e-05
3.40525e-05
2.01158e-05
1.20947e-05
9.82709e-06
1.25467e-05
1.98262e-05
3.05098e-05
4.27838e-05
5.41483e-05
6.09563e-05
6.36273e-05
8.93509e-05
6.85497e-05
4.66033e-05
2.59162e-05
1.23781e-05
5.752e-06
3.64813e-06
4.75989e-06
9.18728e-06
1.69846e-05
2.6834e-05
3.63608e-05
4.30746e-05
4.73184e-05
8.82582e-05
6.03826e-05
3.48448e-05
1.5264e-05
5.61169e-06
1.97851e-06
9.75701e-07
1.46354e-06
3.69023e-06
8.34924e-06
1.52964e-05
2.27305e-05
2.89522e-05
3.44229e-05
8.01029e-05
4.72969e-05
2.18211e-05
7.45659e-06
2.56165e-06
8.32254e-07
3.24863e-07
5.02667e-07
1.48951e-06
3.88608e-06
8.13093e-06
1.38047e-05
2.02964e-05
2.80772e-05
6.8097e-05
3.46894e-05
1.36858e-05
5.71805e-06
2.6089e-06
9.62643e-07
3.88574e-07
4.13359e-07
9.24568e-07
2.28236e-06
5.09112e-06
9.95898e-06
1.74679e-05
2.8166e-05
5.7035e-05
2.72177e-05
1.29764e-05
7.72336e-06
4.05337e-06
1.78502e-06
9.40673e-07
9.64312e-07
1.56371e-06
3.06002e-06
6.1752e-06
1.19665e-05
2.1534e-05
3.53317e-05
4.972e-05
2.66062e-05
1.77533e-05
1.21864e-05
7.35716e-06
3.86036e-06
2.3994e-06
2.53794e-06
3.74097e-06
6.31446e-06
1.10591e-05
1.90363e-05
3.11341e-05
4.77201e-05
4.72029e-05
3.14482e-05
2.57451e-05
1.96471e-05
1.35773e-05
8.19976e-06
5.43588e-06
5.62047e-06
7.90112e-06
1.21957e-05
1.90582e-05
2.92314e-05
4.32296e-05
6.18683e-05
4.93452e-05
4.01085e-05
3.68361e-05
3.10911e-05
2.42438e-05
1.66101e-05
1.1222e-05
1.04088e-05
1.35078e-05
1.93391e-05
2.7754e-05
3.93295e-05
5.45253e-05
7.46284e-05
5.32173e-05
4.88019e-05
4.94324e-05
4.68543e-05
4.07118e-05
3.16451e-05
2.24237e-05
1.8005e-05
1.98947e-05
2.59892e-05
3.48983e-05
4.7173e-05
6.30285e-05
8.28354e-05
5.90424e-05
5.82046e-05
6.26144e-05
6.52651e-05
6.1825e-05
5.38151e-05
4.2495e-05
3.29365e-05
2.97471e-05
3.30237e-05
4.03175e-05
5.17219e-05
6.63138e-05
8.48889e-05
6.55679e-05
6.63584e-05
7.3612e-05
8.15203e-05
8.39755e-05
7.93235e-05
6.9101e-05
5.68593e-05
4.74504e-05
4.43673e-05
4.69158e-05
5.50905e-05
6.67385e-05
8.36987e-05
7.48608e-05
7.6534e-05
8.42937e-05
9.47024e-05
0.000103332
0.000103502
9.63433e-05
8.45892e-05
7.18579e-05
6.25124e-05
5.88569e-05
6.19267e-05
6.98478e-05
8.41972e-05
6.28197e-05
5.18634e-05
4.25594e-05
3.28823e-05
2.64335e-05
2.50181e-05
2.99415e-05
3.8944e-05
4.86779e-05
5.66902e-05
6.29841e-05
6.71302e-05
6.79242e-05
6.58103e-05
6.59922e-05
5.18427e-05
3.87692e-05
2.61371e-05
1.67499e-05
1.1987e-05
1.26298e-05
1.78019e-05
2.58038e-05
3.4423e-05
4.22225e-05
4.81424e-05
5.05029e-05
5.0999e-05
6.80588e-05
5.03597e-05
3.35583e-05
1.89946e-05
9.47428e-06
4.84331e-06
4.0602e-06
6.33783e-06
1.1464e-05
1.8811e-05
2.68292e-05
3.37053e-05
3.78432e-05
4.10085e-05
6.68687e-05
4.48073e-05
2.53052e-05
1.11118e-05
4.09575e-06
1.44617e-06
9.22418e-07
1.78899e-06
4.3439e-06
9.00448e-06
1.54895e-05
2.18455e-05
2.71715e-05
3.31231e-05
6.41803e-05
3.77843e-05
1.69143e-05
5.86434e-06
1.88689e-06
5.63326e-07
2.56478e-07
5.44508e-07
1.63491e-06
4.07528e-06
8.17598e-06
1.36796e-05
2.07016e-05
3.08106e-05
6.10106e-05
3.11093e-05
1.17114e-05
4.63894e-06
1.86238e-06
6.20337e-07
2.56635e-07
3.48198e-07
8.93764e-07
2.30074e-06
5.27381e-06
1.07881e-05
2.0272e-05
3.50037e-05
5.81195e-05
2.68123e-05
1.1483e-05
6.05651e-06
2.85407e-06
1.17977e-06
6.48284e-07
7.50498e-07
1.3865e-06
3.02268e-06
6.66419e-06
1.39376e-05
2.6707e-05
4.55049e-05
5.65863e-05
2.6737e-05
1.5338e-05
9.45549e-06
5.29277e-06
2.70879e-06
1.79304e-06
2.06394e-06
3.29287e-06
6.05393e-06
1.15319e-05
2.13285e-05
3.67386e-05
5.75457e-05
5.47822e-05
3.10144e-05
2.18137e-05
1.53187e-05
1.00649e-05
6.08656e-06
4.33798e-06
4.81724e-06
7.07671e-06
1.14831e-05
1.89021e-05
3.02977e-05
4.62214e-05
6.65831e-05
5.51434e-05
3.83668e-05
3.07282e-05
2.41207e-05
1.83364e-05
1.28184e-05
9.36589e-06
9.33428e-06
1.23848e-05
1.80963e-05
2.64838e-05
3.79158e-05
5.26749e-05
7.08515e-05
5.69235e-05
4.52996e-05
4.10751e-05
3.61571e-05
3.10175e-05
2.49732e-05
1.92256e-05
1.67609e-05
1.88393e-05
2.46039e-05
3.26759e-05
4.30659e-05
5.59023e-05
7.18925e-05
6.05355e-05
5.31365e-05
5.21941e-05
5.09371e-05
4.77314e-05
4.33833e-05
3.7032e-05
3.10522e-05
2.90656e-05
3.22634e-05
3.82722e-05
4.68842e-05
5.68721e-05
7.02378e-05
6.38728e-05
5.94241e-05
6.12768e-05
6.4123e-05
6.52371e-05
6.44908e-05
6.1206e-05
5.50535e-05
4.84713e-05
4.54843e-05
4.62487e-05
5.0976e-05
5.72764e-05
6.85694e-05
6.9823e-05
6.77192e-05
7.03752e-05
7.5625e-05
8.1482e-05
8.46026e-05
8.53225e-05
8.20649e-05
7.47129e-05
6.65077e-05
6.10508e-05
6.00707e-05
6.19023e-05
6.9635e-05
9.75169e-05
0.000115204
0.000141956
0.000186188
0.000267768
9.72631e-05
7.66997e-05
9.25939e-05
0.000118599
0.000169438
0.00027739
0.00010826
5.73054e-05
7.04112e-05
9.35865e-05
0.000146892
0.000280755
0.000118657
4.1482e-05
5.33477e-05
7.40974e-05
0.000125152
0.000273878
0.000127623
3.28454e-05
4.48781e-05
6.46911e-05
0.000112007
0.00026282
0.000135391
3.10544e-05
4.46814e-05
6.58323e-05
0.000109701
0.000248795
0.000142051
3.59985e-05
5.23183e-05
7.67091e-05
0.00011775
0.000233999
0.00014728
4.69947e-05
6.64732e-05
9.43211e-05
0.000133138
0.000220552
0.000150303
6.22461e-05
8.40692e-05
0.000113625
0.000150098
0.000209073
0.000151902
7.81678e-05
0.000100217
0.000129577
0.000163801
0.000200073
0.000153822
9.08689e-05
0.00011127
0.000139769
0.000173066
0.00020096
0.000153329
9.84286e-05
0.000116644
0.00014439
0.000179142
0.000216977
0.000147885
0.000101251
0.000117611
0.000144743
0.000183577
0.000243917
0.000136292
0.000102127
0.000117885
0.000146124
0.000190849
0.000274337
0.000116528
8.50786e-05
9.89115e-05
0.000120925
0.000161734
0.00024107
0.000114925
6.61191e-05
7.74369e-05
9.70411e-05
0.000137692
0.000221664
0.000125514
5.09751e-05
6.09062e-05
7.86901e-05
0.000117202
0.000206085
0.000133536
4.07653e-05
5.23503e-05
7.08711e-05
0.000107235
0.000193029
0.000140397
3.7837e-05
5.26213e-05
7.40357e-05
0.000109692
0.00018701
0.000146954
4.1802e-05
6.1231e-05
8.81539e-05
0.000124802
0.000187085
0.000152605
5.25531e-05
7.74656e-05
0.000110992
0.000148433
0.000190797
0.000157163
6.77174e-05
9.71206e-05
0.000135501
0.000173572
0.000196063
0.000160376
8.25818e-05
0.000113335
0.000152844
0.000194068
0.000204861
0.000163841
9.28651e-05
0.000121054
0.000158342
0.000204562
0.000219378
0.000168272
9.71399e-05
0.000120223
0.000153645
0.000202175
0.00023846
0.000170908
9.61516e-05
0.000113994
0.000142851
0.000190503
0.000257473
0.000167161
9.27661e-05
0.00010701
0.000132071
0.000177537
0.000268979
0.000154991
9.05617e-05
0.000103835
0.000128282
0.000172981
0.000273027
0.000133021
6.39005e-05
7.147e-05
8.26788e-05
0.00010509
0.000151225
0.000118982
5.16755e-05
5.90873e-05
7.06128e-05
9.29531e-05
0.000138754
0.000126895
4.47725e-05
5.37653e-05
6.70418e-05
9.05379e-05
0.00013615
0.000135504
4.16225e-05
5.51097e-05
7.29284e-05
9.99519e-05
0.000145183
0.000146094
4.49818e-05
6.42722e-05
8.85169e-05
0.000121035
0.000165003
0.000160127
5.47779e-05
8.11287e-05
0.000113649
0.000151955
0.000190635
0.00017593
6.93979e-05
0.000101876
0.000141455
0.000183385
0.000213391
0.000190272
8.2992e-05
0.00011817
0.000160561
0.000204161
0.00022708
0.000200915
9.00489e-05
0.000122588
0.000162695
0.000209352
0.000232412
0.000206998
8.87202e-05
0.00011442
0.000148352
0.000198323
0.000230836
0.000206557
8.35319e-05
0.000100828
0.000125907
0.000172209
0.000223151
0.000198132
7.76105e-05
8.83613e-05
0.000105969
0.000142592
0.000209016
0.000182089
7.36659e-05
8.14306e-05
9.50267e-05
0.000124071
0.000193759
0.000160343
7.27265e-05
8.07001e-05
9.44638e-05
0.000121562
0.000183439
0.000134943
0.000102008
0.000122416
0.000154359
0.000206726
0.000296796
9.67229e-05
8.44347e-05
0.000104542
0.000136949
0.000194592
0.000298929
0.000107258
7.17793e-05
9.13845e-05
0.00012286
0.000181348
0.000294876
0.000117537
6.62106e-05
8.63514e-05
0.00011667
0.000171849
0.000283793
0.000126604
6.90079e-05
9.0329e-05
0.000119684
0.000169812
0.000271978
0.000133591
7.86395e-05
0.000100789
0.00012888
0.0001735
0.000260265
0.000138325
9.20365e-05
0.000113174
0.000139071
0.000178546
0.000249623
0.000142578
0.000104432
0.000122381
0.00014566
0.00018127
0.000239865
0.00014777
0.000111364
0.000125532
0.00014702
0.00018122
0.000233118
0.00015441
0.000112464
0.000124027
0.000144833
0.000178936
0.000231855
0.000161453
0.000109362
0.000119736
0.000140614
0.000175498
0.000241023
0.000163596
0.000103527
0.000113775
0.000134884
0.00017335
0.000259805
0.0001594
9.71816e-05
0.000107911
0.000129965
0.000174775
0.000285376
0.000148336
9.29734e-05
0.000105585
0.000131384
0.000185501
0.000317571
0.000127801
9.11457e-05
0.000108704
0.000135656
0.000181871
0.000266556
0.000115952
7.93837e-05
9.69288e-05
0.000123171
0.000166755
0.000243739
0.000128314
7.43812e-05
9.33878e-05
0.000119919
0.000160055
0.000229086
0.000139865
7.614e-05
9.82764e-05
0.000126528
0.000163665
0.000219523
0.000150424
8.47596e-05
0.000110313
0.000140201
0.000174765
0.000216762
0.000158783
9.73542e-05
0.000124322
0.000154454
0.000187397
0.00021769
0.000166345
0.000108829
0.000133862
0.000162143
0.000195764
0.000221735
0.000174834
0.000114903
0.000134963
0.000159891
0.000196517
0.000229709
0.000183619
0.000113706
0.000127751
0.000149041
0.000189341
0.000240394
0.00019186
0.000107264
0.00011687
0.000135395
0.000175217
0.000248567
0.000197429
9.79534e-05
0.000105824
0.000123011
0.000160887
0.000252668
0.000198
8.84259e-05
9.6259e-05
0.000113108
0.000151109
0.000256129
0.000189946
8.14192e-05
9.00569e-05
0.000108039
0.000148947
0.000263369
0.000172616
7.92826e-05
9.00503e-05
0.000111759
0.000158058
0.000279877
0.000145322
7.62915e-05
8.85988e-05
0.000105675
0.000134122
0.000177938
0.000126492
7.21837e-05
8.64058e-05
0.000105615
0.000134416
0.000175347
0.000141055
7.4322e-05
9.18497e-05
0.000114033
0.000144151
0.000182852
0.000158066
8.07407e-05
0.000102972
0.000129313
0.000161295
0.000196842
0.000177367
9.0943e-05
0.00011741
0.000147001
0.000179984
0.000210979
0.000196402
0.000101099
0.000128234
0.000157612
0.000189981
0.000217168
0.000213826
0.000106048
0.000129125
0.000154299
0.000185386
0.00021138
0.000227488
0.000103682
0.000119806
0.000138416
0.000167812
0.000199537
0.000234541
9.58881e-05
0.000105584
0.000117669
0.000144745
0.000187269
0.000233382
8.67731e-05
9.24289e-05
0.000100977
0.000124633
0.000176007
0.000224594
7.86415e-05
8.29973e-05
9.10575e-05
0.000112603
0.000170188
0.000210761
7.3029e-05
7.75488e-05
8.64275e-05
0.000108465
0.000170826
0.000191706
7.07344e-05
7.6356e-05
8.73734e-05
0.000112597
0.00017757
0.000168667
7.23261e-05
8.05094e-05
9.55972e-05
0.000126144
0.000193626
0.00014257
0.000118842
0.000258184
0.000161283
0.000125008
0.00010708
9.83681e-05
0.00013995
0.000235337
0.000159606
0.000129402
0.000112327
0.000103232
0.000155038
0.000217998
0.000161167
0.000134246
0.000117272
0.00010744
0.000165111
0.00020749
0.000163543
0.000137914
0.000120059
0.000107692
0.000169282
0.000207774
0.000167064
0.000140086
0.000119452
0.000101845
0.00016708
0.000220258
0.000171661
0.000140061
0.000114697
9.08146e-05
0.000161955
0.000237483
0.000174985
0.000137525
0.000106329
7.79564e-05
0.00015573
0.000256333
0.000174032
0.000130398
9.58744e-05
6.68304e-05
0.00014877
0.000272984
0.000169871
0.000121177
8.63334e-05
5.97662e-05
0.000141317
0.00028975
0.000165561
0.000112484
7.94191e-05
5.68549e-05
0.000132664
0.000304998
0.000166069
0.000108569
7.72961e-05
5.82836e-05
0.000122932
0.000321693
0.000175268
0.000112471
8.15792e-05
6.4558e-05
0.000112262
0.000332545
0.000191083
0.000124663
9.27598e-05
7.57036e-05
0.000101323
0.000345976
0.000211377
0.000143515
0.000109697
9.11773e-05
0.000134342
0.000220365
0.000132117
0.000101013
8.73342e-05
8.0995e-05
0.000159233
0.000214385
0.000136481
0.000109004
9.5712e-05
8.8436e-05
0.000177187
0.000212898
0.000146073
0.000119448
0.000105432
9.64769e-05
0.000188282
0.00021202
0.000157547
0.000130459
0.000114546
0.000101929
0.000192949
0.000211547
0.000169749
0.000141417
0.000121769
0.000102764
0.000192488
0.000212083
0.000182119
0.000151215
0.000125488
9.86459e-05
0.000188323
0.00021315
0.000191258
0.00015828
0.000124505
9.13815e-05
0.000181601
0.00021704
0.000193502
0.000157746
0.00011923
8.30926e-05
0.000173448
0.00022302
0.000188381
0.000150221
0.000110524
7.56366e-05
0.000165134
0.000230723
0.000178291
0.000137591
0.000100126
6.98643e-05
0.000156094
0.000238788
0.000168255
0.000125576
9.22125e-05
6.758e-05
0.000145411
0.000252921
0.000163942
0.000118584
8.87997e-05
6.85807e-05
0.000133308
0.000267752
0.000168363
0.0001189
9.08418e-05
7.31675e-05
0.000120892
0.000294862
0.000181916
0.000127292
9.88982e-05
8.16733e-05
0.000131513
0.000147056
9.67161e-05
7.77529e-05
6.94544e-05
6.47944e-05
0.000156903
0.000141491
9.94671e-05
8.32793e-05
7.53856e-05
6.99423e-05
0.000179779
0.000140423
0.000106327
9.17541e-05
8.31453e-05
7.54794e-05
0.000199371
0.000144179
0.000115377
0.000101906
9.17187e-05
8.04421e-05
0.000215487
0.000153404
0.000128073
0.000113812
0.000100862
8.45205e-05
0.00022698
0.00016874
0.000145957
0.000127695
0.000109828
8.75771e-05
0.000232053
0.000187014
0.00016563
0.000141687
0.000117531
9.03567e-05
0.000229077
0.000203685
0.000181186
0.000151714
0.000121768
9.07183e-05
0.000219321
0.00021631
0.000187725
0.000153925
0.000120539
8.74874e-05
0.000205091
0.000220636
0.000183047
0.000146495
0.000112739
8.15104e-05
0.000188178
0.000216075
0.000171419
0.000133937
0.000103148
7.69213e-05
0.000169406
0.000210573
0.000159746
0.000122501
9.55719e-05
7.44544e-05
0.00015083
0.000207568
0.000152173
0.000115438
9.15661e-05
7.43842e-05
0.00013376
0.000212918
0.000150835
0.000114243
9.28502e-05
7.79808e-05
0.000114802
0.000247215
0.000179126
0.000141419
0.000115129
9.92034e-05
0.000137235
0.000224788
0.000176145
0.000141603
0.000114149
9.6392e-05
0.000153332
0.00020674
0.000173118
0.000138833
0.000108448
8.75328e-05
0.000163356
0.000196414
0.00016784
0.000131613
9.7512e-05
7.31765e-05
0.000167556
0.000195418
0.000158767
0.000119012
8.23576e-05
5.66725e-05
0.000168168
0.00020077
0.00014456
0.000102044
6.63044e-05
4.21493e-05
0.000166096
0.000208811
0.000127173
8.4299e-05
5.27235e-05
3.20385e-05
0.000162353
0.000217571
0.000110667
6.9616e-05
4.38723e-05
2.73551e-05
0.000154091
0.000230336
0.000100301
6.08565e-05
4.07537e-05
2.85036e-05
0.00014424
0.000247148
9.81259e-05
5.87656e-05
4.32791e-05
3.55547e-05
0.000134015
0.000259359
0.00010608
6.46761e-05
5.1346e-05
4.66958e-05
0.000123788
0.000270169
0.000124262
7.92625e-05
6.51038e-05
6.07681e-05
0.000113183
0.000273975
0.000148684
0.000101238
8.37326e-05
7.63275e-05
0.000101659
0.000281218
0.000171155
0.000124804
0.000103714
9.30152e-05
0.000129555
0.000248524
0.000164939
0.000126291
0.000103856
9.09217e-05
0.000151083
0.000247982
0.000177285
0.000137147
0.000111191
9.47229e-05
0.000164973
0.000240059
0.000192189
0.000148873
0.000116458
9.3988e-05
0.000172321
0.000226165
0.000203098
0.000156936
0.000116741
8.71229e-05
0.000174197
0.000212346
0.000204846
0.00015686
0.000110095
7.54212e-05
0.00017288
0.000204179
0.000195238
0.000146092
9.7254e-05
6.19117e-05
0.000170379
0.000200445
0.000175519
0.000126599
8.11422e-05
4.88063e-05
0.000166694
0.00019747
0.000149979
0.00010367
6.54265e-05
3.87296e-05
0.000160501
0.000195019
0.000125724
8.36472e-05
5.41188e-05
3.38565e-05
0.000153155
0.000194831
0.000108117
7.08936e-05
4.90067e-05
3.51311e-05
0.000144925
0.000196469
0.000100665
6.6451e-05
5.00788e-05
4.13933e-05
0.000136547
0.000204085
0.000104017
7.0083e-05
5.64696e-05
5.09282e-05
0.000127877
0.000212417
0.000118047
8.20492e-05
6.77548e-05
6.18868e-05
0.000118019
0.000229285
0.000137549
9.9345e-05
8.26917e-05
7.46707e-05
0.000130616
0.00016344
0.000109189
8.76092e-05
7.64687e-05
6.94861e-05
0.000157588
0.000180545
0.000125644
9.98354e-05
8.51301e-05
7.51398e-05
0.000180716
0.000200611
0.000152855
0.000118201
9.58161e-05
7.90894e-05
0.000198958
0.00021705
0.000184976
0.000140582
0.000107359
8.14662e-05
0.000208991
0.000229165
0.000208931
0.000160435
0.000116818
8.16885e-05
0.00021161
0.000236551
0.00021772
0.000169553
0.000119399
7.82073e-05
0.000208281
0.000236794
0.000211561
0.000162565
0.00011097
6.90041e-05
0.000199729
0.000227583
0.000190697
0.000141654
9.45825e-05
5.67602e-05
0.000186469
0.000209567
0.000160793
0.000114997
7.64083e-05
4.58709e-05
0.00017089
0.000187621
0.00013132
9.20792e-05
6.30411e-05
4.05116e-05
0.000156222
0.00016831
0.000109932
7.75416e-05
5.62833e-05
4.08492e-05
0.000143545
0.000157063
9.80064e-05
7.07968e-05
5.54846e-05
4.56488e-05
0.000132177
0.000152972
9.61806e-05
7.15165e-05
5.9126e-05
5.17083e-05
0.000121465
0.000156265
0.000102417
7.85238e-05
6.75634e-05
6.05956e-05
5.98938e-05
4.66859e-05
3.74466e-05
2.90568e-05
2.47492e-05
2.57955e-05
3.19865e-05
4.02271e-05
4.69402e-05
5.01899e-05
5.06886e-05
5.19582e-05
5.48177e-05
5.67298e-05
5.53302e-05
4.0255e-05
2.89821e-05
1.94639e-05
1.30524e-05
1.07693e-05
1.28836e-05
1.79815e-05
2.40916e-05
2.95848e-05
3.38294e-05
3.77844e-05
4.15225e-05
4.46049e-05
5.03391e-05
3.48443e-05
2.18007e-05
1.20711e-05
6.16275e-06
3.60699e-06
3.75554e-06
5.95047e-06
9.77749e-06
1.48242e-05
2.05031e-05
2.635e-05
3.17304e-05
3.68372e-05
4.80619e-05
3.04198e-05
1.55688e-05
6.50406e-06
2.34246e-06
8.94701e-07
7.40703e-07
1.48017e-06
3.31203e-06
6.60206e-06
1.12868e-05
1.67218e-05
2.26241e-05
2.97814e-05
4.85928e-05
2.76755e-05
1.13766e-05
3.76152e-06
1.12691e-06
3.09576e-07
1.41426e-07
3.38552e-07
1.05307e-06
2.66289e-06
5.53779e-06
1.00982e-05
1.68403e-05
2.74984e-05
5.02215e-05
2.56225e-05
9.23518e-06
3.24964e-06
1.10459e-06
3.17308e-07
1.10095e-07
1.54057e-07
4.58102e-07
1.33807e-06
3.4352e-06
7.87712e-06
1.66085e-05
3.15115e-05
5.08699e-05
2.46486e-05
9.29053e-06
4.00261e-06
1.59957e-06
5.84263e-07
2.95767e-07
3.39579e-07
6.81614e-07
1.69459e-06
4.27383e-06
1.02003e-05
2.18649e-05
4.04059e-05
5.06354e-05
2.50953e-05
1.15492e-05
6.0246e-06
2.96707e-06
1.40654e-06
9.13377e-07
1.03658e-06
1.69045e-06
3.38401e-06
7.25741e-06
1.53201e-05
2.94287e-05
4.95862e-05
5.01681e-05
2.7861e-05
1.57439e-05
9.8337e-06
5.86413e-06
3.3964e-06
2.44897e-06
2.70448e-06
3.9711e-06
6.76616e-06
1.21563e-05
2.17117e-05
3.62264e-05
5.52188e-05
5.14253e-05
3.33063e-05
2.22319e-05
1.58723e-05
1.1194e-05
7.6167e-06
5.74206e-06
5.85892e-06
7.77425e-06
1.16437e-05
1.79695e-05
2.75239e-05
4.04869e-05
5.63672e-05
5.44056e-05
3.9834e-05
3.06373e-05
2.4308e-05
1.98968e-05
1.56131e-05
1.23673e-05
1.13787e-05
1.31515e-05
1.74881e-05
2.39041e-05
3.24354e-05
4.30751e-05
5.55992e-05
5.95837e-05
4.83742e-05
4.10346e-05
3.5268e-05
3.21864e-05
2.8725e-05
2.47384e-05
2.16542e-05
2.1315e-05
2.46206e-05
3.02339e-05
3.75512e-05
4.59028e-05
5.64488e-05
6.3978e-05
5.60162e-05
5.11877e-05
4.7641e-05
4.63998e-05
4.57667e-05
4.35678e-05
3.98272e-05
3.62854e-05
3.59686e-05
3.86684e-05
4.40186e-05
4.96039e-05
5.94581e-05
7.20791e-05
6.76497e-05
6.2526e-05
5.96984e-05
5.99893e-05
6.22884e-05
6.39357e-05
6.2908e-05
5.89481e-05
5.46243e-05
5.24334e-05
5.36557e-05
5.56962e-05
6.30529e-05
5.66794e-05
4.15617e-05
3.14673e-05
2.29127e-05
1.80815e-05
1.76828e-05
2.14418e-05
2.74142e-05
3.32797e-05
3.74717e-05
3.96154e-05
4.10101e-05
4.47709e-05
5.07156e-05
4.74583e-05
3.24226e-05
2.19091e-05
1.40031e-05
8.96552e-06
6.98667e-06
8.10811e-06
1.1431e-05
1.58678e-05
2.04772e-05
2.47361e-05
2.89316e-05
3.38345e-05
3.92216e-05
4.08318e-05
2.62527e-05
1.48802e-05
7.70423e-06
3.79781e-06
2.14923e-06
2.16701e-06
3.42139e-06
5.80102e-06
9.27247e-06
1.37805e-05
1.92408e-05
2.52155e-05
3.1226e-05
3.94745e-05
2.2942e-05
1.04896e-05
3.97975e-06
1.36042e-06
4.94966e-07
3.79058e-07
7.44226e-07
1.73985e-06
3.74277e-06
7.10396e-06
1.16316e-05
1.70758e-05
2.329e-05
4.05513e-05
2.14369e-05
8.04191e-06
2.51262e-06
7.3478e-07
1.9369e-07
7.18044e-08
1.56768e-07
5.27928e-07
1.47937e-06
3.39029e-06
6.66271e-06
1.16669e-05
1.94119e-05
4.09326e-05
2.01524e-05
7.01354e-06
2.31343e-06
7.34065e-07
1.99611e-07
6.28769e-08
7.82942e-08
2.37971e-07
7.35864e-07
1.99282e-06
4.76334e-06
1.04163e-05
2.06602e-05
4.00929e-05
1.86885e-05
7.22564e-06
2.77715e-06
1.01046e-06
3.46991e-07
1.69118e-07
1.82047e-07
3.47271e-07
8.74812e-07
2.30669e-06
5.82172e-06
1.3303e-05
2.61556e-05
3.87359e-05
1.87926e-05
8.77751e-06
4.0611e-06
1.82131e-06
8.21245e-07
5.33037e-07
5.81175e-07
8.89035e-07
1.75239e-06
3.91341e-06
8.86277e-06
1.8363e-05
3.29793e-05
3.84393e-05
2.13606e-05
1.1687e-05
6.65364e-06
3.64163e-06
2.02205e-06
1.47835e-06
1.60667e-06
2.2572e-06
3.78669e-06
7.01636e-06
1.33875e-05
2.40459e-05
3.87512e-05
4.08991e-05
2.62e-05
1.63526e-05
1.10043e-05
7.2382e-06
4.72084e-06
3.6049e-06
3.72663e-06
4.86769e-06
7.2463e-06
1.14607e-05
1.8515e-05
2.89576e-05
4.22028e-05
4.56004e-05
3.23535e-05
2.2901e-05
1.75706e-05
1.35726e-05
1.01818e-05
8.01956e-06
7.60071e-06
8.97073e-06
1.20519e-05
1.68128e-05
2.36436e-05
3.27846e-05
4.36139e-05
5.28684e-05
4.10603e-05
3.19853e-05
2.6777e-05
2.34928e-05
1.99439e-05
1.66347e-05
1.46563e-05
1.50246e-05
1.80783e-05
2.29428e-05
2.929e-05
3.68613e-05
4.55402e-05
5.9532e-05
5.03437e-05
4.28061e-05
3.80034e-05
3.63791e-05
3.43067e-05
3.1119e-05
2.76365e-05
2.53595e-05
2.64354e-05
3.01993e-05
3.60529e-05
4.21932e-05
5.13352e-05
7.14287e-05
6.43779e-05
5.44748e-05
4.96316e-05
4.96464e-05
5.02367e-05
4.92957e-05
4.66126e-05
4.2621e-05
4.02696e-05
4.09163e-05
4.49347e-05
4.88619e-05
5.79197e-05
4.54507e-05
3.11117e-05
2.19334e-05
1.48474e-05
1.0659e-05
9.1602e-06
1.04888e-05
1.38056e-05
1.81792e-05
2.25065e-05
2.60965e-05
2.88629e-05
3.25012e-05
3.92016e-05
3.53814e-05
2.18937e-05
1.32789e-05
7.88195e-06
4.81723e-06
3.42976e-06
3.62707e-06
5.07395e-06
7.57491e-06
1.07833e-05
1.44422e-05
1.84437e-05
2.34037e-05
2.96685e-05
3.10695e-05
1.73671e-05
8.48562e-06
3.89145e-06
1.81813e-06
9.73217e-07
9.01582e-07
1.3777e-06
2.4746e-06
4.36283e-06
7.26155e-06
1.13557e-05
1.6733e-05
2.27574e-05
3.07513e-05
1.56809e-05
6.15825e-06
2.07323e-06
6.57864e-07
2.20079e-07
1.45564e-07
2.74931e-07
6.8693e-07
1.64223e-06
3.52399e-06
6.61969e-06
1.06871e-05
1.56759e-05
3.0088e-05
1.44186e-05
5.11591e-06
1.50556e-06
4.34452e-07
1.09354e-07
3.15465e-08
5.60311e-08
2.07204e-07
6.51539e-07
1.66836e-06
3.55363e-06
6.67453e-06
1.13838e-05
2.875e-05
1.29918e-05
4.65512e-06
1.46405e-06
4.37983e-07
1.12849e-07
3.18347e-08
3.29443e-08
9.99021e-08
3.27051e-07
9.35319e-07
2.31672e-06
5.15211e-06
1.04973e-05
2.64379e-05
1.17837e-05
4.72694e-06
1.67569e-06
5.61801e-07
1.83325e-07
8.69073e-08
8.70856e-08
1.5242e-07
3.74084e-07
9.9613e-07
2.56058e-06
6.0737e-06
1.29135e-05
2.45562e-05
1.19438e-05
5.57698e-06
2.32448e-06
9.60083e-07
4.24565e-07
2.8321e-07
2.98184e-07
4.17355e-07
7.63443e-07
1.67294e-06
3.90543e-06
8.64394e-06
1.71641e-05
2.49382e-05
1.40256e-05
7.29173e-06
3.75643e-06
1.91353e-06
1.06288e-06
8.13218e-07
8.69978e-07
1.14214e-06
1.7948e-06
3.25365e-06
6.41339e-06
1.24011e-05
2.2113e-05
2.84429e-05
1.76171e-05
1.02869e-05
6.39923e-06
3.94976e-06
2.55876e-06
2.03526e-06
2.12176e-06
2.66603e-06
3.81363e-06
5.9663e-06
9.98208e-06
1.67685e-05
2.67302e-05
3.39263e-05
2.2326e-05
1.49985e-05
1.08923e-05
7.90323e-06
5.74538e-06
4.59821e-06
4.48638e-06
5.301e-06
7.04434e-06
9.85905e-06
1.43695e-05
2.11901e-05
3.03704e-05
4.19123e-05
2.97811e-05
2.20499e-05
1.80443e-05
1.48464e-05
1.18833e-05
9.67064e-06
8.72289e-06
9.34146e-06
1.15438e-05
1.49162e-05
1.96004e-05
2.58195e-05
3.35847e-05
4.98783e-05
3.94603e-05
3.15965e-05
2.80307e-05
2.53368e-05
2.21429e-05
1.88795e-05
1.64319e-05
1.5688e-05
1.75156e-05
2.11485e-05
2.61364e-05
3.17596e-05
3.88846e-05
6.37381e-05
5.26524e-05
4.23966e-05
3.9673e-05
3.83428e-05
3.61117e-05
3.28503e-05
2.92262e-05
2.62426e-05
2.60631e-05
2.87292e-05
3.40322e-05
3.88995e-05
4.75687e-05
3.0518e-05
1.8821e-05
1.21652e-05
7.77826e-06
5.25749e-06
4.07059e-06
4.16154e-06
5.30843e-06
7.47316e-06
1.03499e-05
1.35431e-05
1.66748e-05
2.03847e-05
2.54365e-05
2.47898e-05
1.29385e-05
6.51032e-06
3.38027e-06
1.93922e-06
1.32823e-06
1.29724e-06
1.68184e-06
2.55521e-06
4.00991e-06
6.07961e-06
8.80495e-06
1.27103e-05
1.8247e-05
2.23229e-05
1.01273e-05
3.92912e-06
1.46062e-06
6.03316e-07
3.11601e-07
2.80972e-07
3.98099e-07
7.00861e-07
1.33611e-06
2.54349e-06
4.65973e-06
8.15293e-06
1.30672e-05
2.09159e-05
8.8399e-06
2.85851e-06
8.45049e-07
2.46753e-07
7.38305e-08
4.06778e-08
6.79925e-08
1.70601e-07
4.51571e-07
1.12891e-06
2.51119e-06
4.87164e-06
8.39441e-06
1.88591e-05
7.68543e-06
2.50838e-06
7.53339e-07
2.16466e-07
5.16987e-08
1.17408e-08
1.31804e-08
5.06256e-08
1.79965e-07
5.34737e-07
1.34489e-06
2.9253e-06
5.54795e-06
1.6569e-05
6.76292e-06
2.42116e-06
7.64767e-07
2.15988e-07
5.17936e-08
1.25362e-08
9.3351e-09
2.7253e-08
9.81804e-08
3.1469e-07
8.66619e-07
2.09395e-06
4.50376e-06
1.44419e-05
6.30984e-06
2.51608e-06
8.20714e-07
2.46794e-07
7.324e-08
3.21739e-08
2.89945e-08
4.5278e-08
1.10669e-07
3.15733e-07
8.74733e-07
2.22514e-06
5.1146e-06
1.37018e-05
6.78292e-06
2.9011e-06
1.04355e-06
3.76768e-07
1.60077e-07
1.10278e-07
1.11261e-07
1.39317e-07
2.34328e-07
5.13073e-07
1.27373e-06
3.11477e-06
6.99982e-06
1.4994e-05
8.16865e-06
3.66291e-06
1.60578e-06
7.29223e-07
4.1453e-07
3.42278e-07
3.5815e-07
4.28548e-07
6.16374e-07
1.08219e-06
2.2385e-06
4.84974e-06
9.96204e-06
1.83817e-05
1.02218e-05
5.25209e-06
2.81725e-06
1.59241e-06
1.06427e-06
9.18366e-07
9.58095e-07
1.1246e-06
1.5046e-06
2.28804e-06
3.97989e-06
7.4361e-06
1.36405e-05
2.25843e-05
1.32083e-05
8.22305e-06
5.29832e-06
3.53623e-06
2.56631e-06
2.18572e-06
2.20041e-06
2.51885e-06
3.21949e-06
4.44828e-06
6.71704e-06
1.08639e-05
1.76942e-05
2.87331e-05
1.85156e-05
1.34457e-05
1.00343e-05
7.51367e-06
5.75199e-06
4.7764e-06
4.52105e-06
4.94085e-06
6.06946e-06
7.8697e-06
1.06714e-05
1.50942e-05
2.18222e-05
3.58769e-05
2.66508e-05
2.16099e-05
1.79441e-05
1.45913e-05
1.17688e-05
9.7134e-06
8.6644e-06
8.79319e-06
1.02544e-05
1.27103e-05
1.60948e-05
2.04369e-05
2.66206e-05
4.75783e-05
3.75793e-05
3.21505e-05
2.9027e-05
2.54915e-05
2.17588e-05
1.82987e-05
1.57594e-05
1.4682e-05
1.57992e-05
1.87091e-05
2.2949e-05
2.71728e-05
3.32641e-05
2.06244e-05
1.08977e-05
5.86765e-06
3.29833e-06
2.06716e-06
1.50617e-06
1.43231e-06
1.69493e-06
2.37676e-06
3.61664e-06
5.40274e-06
7.59625e-06
1.05113e-05
1.39997e-05
1.73279e-05
7.5094e-06
2.90011e-06
1.17206e-06
5.87076e-07
3.84798e-07
3.72222e-07
4.52612e-07
6.45301e-07
1.05782e-06
1.82468e-06
3.09575e-06
5.27583e-06
8.86711e-06
1.49725e-05
5.83038e-06
1.69222e-06
4.78345e-07
1.57645e-07
7.22302e-08
6.39072e-08
8.65802e-08
1.39268e-07
2.70117e-07
5.98234e-07
1.35375e-06
2.94568e-06
5.84673e-06
1.29892e-05
4.78398e-06
1.33798e-06
3.45611e-07
9.29033e-08
2.35065e-08
8.54538e-09
1.05698e-08
2.56778e-08
7.76386e-08
2.42206e-07
6.86747e-07
1.68998e-06
3.55742e-06
1.068e-05
3.87968e-06
1.23487e-06
3.62141e-07
9.92655e-08
2.22767e-08
4.11779e-09
1.89455e-09
7.1648e-09
3.18764e-08
1.20087e-07