/*--------------------------------*- C++ -*----------------------------------*\
| =========                 |                                                 |
| \\      /  F ield         | OpenFOAM: The Open Source CFD Toolbox           |
|  \\    /   O peration     | Version:  v2106                                 |
|   \\  /    A nd           | Website:  www.openfoam.com                      |
|    \\/     M anipulation  |                                                 |
\*---------------------------------------------------------------------------*/
FoamFile
{
    version     2.0;
    format      ascii;
    arch        "LSB;label=32;scalar=64";
    class       volScalarField;
    location    "0.000154";
    object      nut;
}
// * * * * * * * * * * * * * * * * * * * * * * * * * * * * * * * * * * * * * //

dimensions      [0 2 -1 0 0 0 0];

internalField   nonuniform List<scalar> 
144746
(
3.96811e-05
3.34677e-05
2.66994e-05
1.93692e-05
1.29294e-05
8.54234e-06
6.86203e-06
7.56046e-06
1.05945e-05
1.58253e-05
2.28578e-05
3.02865e-05
3.57331e-05
3.87072e-05
4.13913e-05
3.4612e-05
2.64089e-05
1.72944e-05
9.91561e-06
5.49879e-06
3.64722e-06
3.69972e-06
5.64976e-06
9.47664e-06
1.48844e-05
2.10159e-05
2.62274e-05
2.97162e-05
4.23915e-05
3.34711e-05
2.30733e-05
1.28661e-05
6.09538e-06
2.77948e-06
1.50459e-06
1.45584e-06
2.62815e-06
5.25536e-06
9.26759e-06
1.39481e-05
1.82536e-05
2.16369e-05
4.01372e-05
2.81078e-05
1.64744e-05
7.28037e-06
2.73714e-06
1.00772e-06
4.34692e-07
4.40131e-07
1.03731e-06
2.55542e-06
5.19736e-06
8.55373e-06
1.18576e-05
1.48029e-05
3.4146e-05
2.05349e-05
9.7529e-06
3.38387e-06
1.27116e-06
4.49135e-07
1.57188e-07
1.51017e-07
4.17531e-07
1.18223e-06
2.73048e-06
5.04883e-06
7.78096e-06
1.07283e-05
2.68372e-05
1.40549e-05
5.95363e-06
2.70729e-06
1.34185e-06
5.25207e-07
1.98982e-07
1.5679e-07
2.91716e-07
7.1078e-07
1.64961e-06
3.33687e-06
5.86302e-06
9.19946e-06
2.09482e-05
1.08127e-05
5.8214e-06
3.75061e-06
2.06721e-06
9.23055e-07
4.4538e-07
3.91298e-07
5.53551e-07
9.90931e-07
1.90998e-06
3.62781e-06
6.42362e-06
1.0396e-05
1.77416e-05
1.09625e-05
8.15889e-06
5.90681e-06
3.63631e-06
1.86909e-06
1.05699e-06
1.0057e-06
1.36317e-06
2.14155e-06
3.54029e-06
5.88231e-06
9.37717e-06
1.41949e-05
1.72686e-05
1.35177e-05
1.19447e-05
9.42859e-06
6.51377e-06
3.7774e-06
2.28911e-06
2.18367e-06
2.92216e-06
4.332e-06
6.53889e-06
9.80324e-06
1.4218e-05
2.00306e-05
1.8939e-05
1.77486e-05
1.72684e-05
1.48167e-05
1.13767e-05
7.39883e-06
4.60609e-06
4.0208e-06
5.10665e-06
7.21614e-06
1.02606e-05
1.44726e-05
1.99687e-05
2.69167e-05
2.16854e-05
2.22806e-05
2.34806e-05
2.22686e-05
1.87997e-05
1.37697e-05
9.04234e-06
6.91053e-06
7.64986e-06
1.01113e-05
1.377e-05
1.88603e-05
2.53357e-05
3.29946e-05
2.56887e-05
2.73981e-05
3.01061e-05
3.09763e-05
2.82684e-05
2.29815e-05
1.67513e-05
1.23261e-05
1.12264e-05
1.29378e-05
1.64916e-05
2.19196e-05
2.87427e-05
3.67882e-05
3.05862e-05
3.23777e-05
3.59121e-05
3.88467e-05
3.82191e-05
3.37787e-05
2.70166e-05
2.07388e-05
1.70803e-05
1.66748e-05
1.89576e-05
2.38845e-05
3.04101e-05
3.85479e-05
3.67813e-05
3.82489e-05
4.14576e-05
4.49391e-05
4.65079e-05
4.36238e-05
3.75041e-05
3.0504e-05
2.49695e-05
2.22703e-05
2.26257e-05
2.62647e-05
3.21168e-05
4.00154e-05
3.25463e-05
2.71844e-05
2.18864e-05
1.61714e-05
1.15052e-05
8.81113e-06
8.86264e-06
1.13645e-05
1.58259e-05
2.15352e-05
2.77349e-05
3.29422e-05
3.53738e-05
3.53936e-05
3.51989e-05
2.8756e-05
2.1767e-05
1.43428e-05
8.47931e-06
5.09861e-06
4.14447e-06
5.29531e-06
8.37224e-06
1.28883e-05
1.80729e-05
2.28538e-05
2.57098e-05
2.68058e-05
3.74192e-05
2.87389e-05
1.96031e-05
1.09174e-05
5.21738e-06
2.4244e-06
1.53801e-06
2.00816e-06
3.87812e-06
7.17415e-06
1.13397e-05
1.53611e-05
1.81924e-05
1.99785e-05
3.69875e-05
2.53478e-05
1.46671e-05
6.43199e-06
2.36521e-06
8.33794e-07
4.11202e-07
6.17154e-07
1.55718e-06
3.52529e-06
6.46152e-06
9.60365e-06
1.22354e-05
1.4554e-05
3.35807e-05
1.98766e-05
9.19211e-06
3.14402e-06
1.07975e-06
3.50694e-07
1.36897e-07
2.11949e-07
6.28554e-07
1.64122e-06
3.43581e-06
5.83433e-06
8.5801e-06
1.18785e-05
2.85673e-05
1.45946e-05
5.76953e-06
2.4119e-06
1.0998e-06
4.0567e-07
1.63767e-07
1.74313e-07
3.9019e-07
9.64039e-07
2.15198e-06
4.21277e-06
7.39364e-06
1.19351e-05
2.39449e-05
1.14636e-05
5.47527e-06
3.26011e-06
1.7095e-06
7.52542e-07
3.96633e-07
4.06821e-07
6.60223e-07
1.29319e-06
2.61173e-06
5.06542e-06
9.12069e-06
1.49845e-05
2.09045e-05
1.12215e-05
7.49755e-06
5.14802e-06
3.10573e-06
1.62906e-06
1.01281e-06
1.07196e-06
1.5814e-06
2.67177e-06
4.68302e-06
8.06851e-06
1.32057e-05
2.02747e-05
1.98737e-05
1.32769e-05
1.08801e-05
8.30402e-06
5.73575e-06
3.46292e-06
2.29672e-06
2.37651e-06
3.3437e-06
5.1656e-06
8.07814e-06
1.24039e-05
1.83573e-05
2.63177e-05
2.081e-05
1.69489e-05
1.55755e-05
1.31474e-05
1.02499e-05
7.02299e-06
4.74757e-06
4.40734e-06
5.7249e-06
8.20418e-06
1.17826e-05
1.6717e-05
2.3182e-05
3.17699e-05
2.2449e-05
2.06259e-05
2.0897e-05
1.98128e-05
1.72149e-05
1.33838e-05
9.49217e-06
7.63033e-06
8.4403e-06
1.10377e-05
1.48306e-05
2.00671e-05
2.67992e-05
3.52459e-05
2.49118e-05
2.46196e-05
2.64757e-05
2.76023e-05
2.6144e-05
2.27619e-05
1.79909e-05
1.39648e-05
1.26283e-05
1.40329e-05
1.71355e-05
2.19888e-05
2.81589e-05
3.60703e-05
2.76284e-05
2.80364e-05
3.11047e-05
3.44614e-05
3.549e-05
3.35307e-05
2.9222e-05
2.40749e-05
2.01145e-05
1.88302e-05
1.99184e-05
2.34022e-05
2.83136e-05
3.55298e-05
3.15867e-05
3.23638e-05
3.56614e-05
4.00654e-05
4.36892e-05
4.37566e-05
4.07159e-05
3.57556e-05
3.03965e-05
2.64848e-05
2.49505e-05
2.62583e-05
2.959e-05
3.5691e-05
2.6135e-05
2.15447e-05
1.7714e-05
1.37017e-05
1.10369e-05
1.04677e-05
1.25538e-05
1.63746e-05
2.05138e-05
2.39228e-05
2.66164e-05
2.83522e-05
2.86673e-05
2.76928e-05
2.75038e-05
2.15804e-05
1.61549e-05
1.08971e-05
6.99036e-06
5.01003e-06
5.28743e-06
7.46917e-06
1.08491e-05
1.44816e-05
1.77769e-05
2.02545e-05
2.12406e-05
2.14029e-05
2.83592e-05
2.09753e-05
1.39952e-05
7.92635e-06
3.95656e-06
2.02462e-06
1.69915e-06
2.65551e-06
4.81237e-06
7.89924e-06
1.12713e-05
1.41636e-05
1.58965e-05
1.72059e-05
2.78979e-05
1.86982e-05
1.05678e-05
4.64309e-06
1.71207e-06
6.04839e-07
3.86057e-07
7.49311e-07
1.82174e-06
3.77713e-06
6.49928e-06
9.16203e-06
1.13983e-05
1.3898e-05
2.67859e-05
1.57913e-05
7.07571e-06
2.45378e-06
7.89693e-07
2.35803e-07
1.07388e-07
2.28142e-07
6.85423e-07
1.70916e-06
3.42939e-06
5.73986e-06
8.68671e-06
1.29444e-05
2.54842e-05
1.30222e-05
4.90748e-06
1.94399e-06
7.80395e-07
2.59972e-07
1.07547e-07
1.45994e-07
3.74917e-07
9.65612e-07
2.21391e-06
4.53183e-06
8.523e-06
1.47453e-05
2.42932e-05
1.12344e-05
4.8158e-06
2.5399e-06
1.19699e-06
4.9486e-07
2.71895e-07
3.14903e-07
5.82022e-07
1.2697e-06
2.80126e-06
5.86543e-06
1.12525e-05
1.92077e-05
2.36738e-05
1.12113e-05
6.43705e-06
3.96902e-06
2.22216e-06
1.13756e-06
7.52959e-07
8.67121e-07
1.38424e-06
2.54717e-06
4.85724e-06
8.99772e-06
1.55218e-05
2.43744e-05
2.29409e-05
1.30136e-05
9.16012e-06
6.43432e-06
4.22903e-06
2.55876e-06
1.8241e-06
2.02646e-06
2.97864e-06
4.83724e-06
7.97218e-06
1.28024e-05
1.95791e-05
2.82992e-05
2.31256e-05
1.61171e-05
1.2914e-05
1.01386e-05
7.71164e-06
5.39548e-06
3.94524e-06
3.93322e-06
5.2215e-06
7.63581e-06
1.11914e-05
1.60562e-05
2.23637e-05
3.02064e-05
2.38915e-05
1.90448e-05
1.72751e-05
1.52104e-05
1.3056e-05
1.0523e-05
8.10875e-06
7.07277e-06
7.95313e-06
1.0394e-05
1.38224e-05
1.8263e-05
2.37619e-05
3.07079e-05
2.5451e-05
2.23917e-05
2.19787e-05
2.14585e-05
2.01158e-05
1.82942e-05
1.56298e-05
1.31158e-05
1.22842e-05
1.36445e-05
1.62016e-05
1.98988e-05
2.41604e-05
2.99903e-05
2.68281e-05
2.50305e-05
2.57816e-05
2.70146e-05
2.75055e-05
2.71984e-05
2.58207e-05
2.32427e-05
2.04799e-05
1.92403e-05
1.95834e-05
2.16381e-05
2.43192e-05
2.92206e-05
2.94159e-05
2.85917e-05
2.96942e-05
3.19283e-05
3.43994e-05
3.56899e-05
3.59505e-05
3.45747e-05
3.15049e-05
2.80949e-05
2.58138e-05
2.54438e-05
2.62156e-05
2.95763e-05
4.12646e-05
4.86973e-05
6.00352e-05
7.86814e-05
0.000113157
4.10312e-05
3.2593e-05
3.92982e-05
5.03234e-05
7.18695e-05
0.00011764
4.58239e-05
2.43489e-05
2.9911e-05
3.97606e-05
6.24056e-05
0.000119283
5.03543e-05
1.76307e-05
2.26904e-05
3.15305e-05
5.32649e-05
0.000116517
5.42287e-05
1.39459e-05
1.90734e-05
2.75036e-05
4.76379e-05
0.000111707
5.74751e-05
1.31691e-05
1.89659e-05
2.79334e-05
4.65536e-05
0.000105467
6.0144e-05
1.5241e-05
2.21563e-05
3.24443e-05
4.98071e-05
9.88701e-05
6.21558e-05
1.98723e-05
2.81033e-05
3.98142e-05
5.62041e-05
9.30088e-05
6.33058e-05
2.63081e-05
3.55192e-05
4.79195e-05
6.32784e-05
8.8039e-05
6.38827e-05
3.30462e-05
4.23543e-05
5.46576e-05
6.90455e-05
8.42017e-05
6.46213e-05
3.84708e-05
4.70938e-05
5.90352e-05
7.30039e-05
8.46116e-05
6.44143e-05
4.17234e-05
4.94223e-05
6.10586e-05
7.5649e-05
9.14504e-05
6.21893e-05
4.29777e-05
4.98898e-05
6.12976e-05
7.76224e-05
0.000102972
5.74213e-05
4.33411e-05
4.99765e-05
6.18237e-05
8.06329e-05
0.000115765
4.90774e-05
3.57085e-05
4.14463e-05
5.06873e-05
6.77206e-05
0.000100938
4.80204e-05
2.79164e-05
3.26352e-05
4.08784e-05
5.79474e-05
9.31839e-05
5.25971e-05
2.15404e-05
2.57182e-05
3.32243e-05
4.94978e-05
8.69849e-05
5.62956e-05
1.72504e-05
2.21696e-05
3.00307e-05
4.55022e-05
8.18462e-05
5.95025e-05
1.6017e-05
2.23101e-05
3.14173e-05
4.66494e-05
7.94248e-05
6.24306e-05
1.77293e-05
2.60204e-05
3.74578e-05
5.31438e-05
7.95278e-05
6.49432e-05
2.23034e-05
3.29384e-05
4.71755e-05
6.31922e-05
8.10299e-05
6.67554e-05
2.87875e-05
4.13464e-05
5.75976e-05
7.37894e-05
8.3126e-05
6.78482e-05
3.51255e-05
4.82343e-05
6.48812e-05
8.22637e-05
8.65506e-05
6.8955e-05
3.94922e-05
5.1449e-05
6.70973e-05
8.64768e-05
9.23376e-05
7.0565e-05
4.12575e-05
5.10077e-05
6.49815e-05
8.52805e-05
0.000100191
7.15464e-05
4.07733e-05
4.83248e-05
6.0408e-05
8.03599e-05
0.000108165
6.99656e-05
3.92734e-05
4.52954e-05
5.57962e-05
7.48395e-05
0.00011305
6.49481e-05
3.8319e-05
4.38823e-05
5.40848e-05
7.27441e-05
0.000114544
5.56146e-05
2.67821e-05
2.99264e-05
3.46553e-05
4.40707e-05
6.34635e-05
4.98141e-05
2.1761e-05
2.48811e-05
2.97638e-05
3.92526e-05
5.86601e-05
5.35996e-05
1.88085e-05
2.26297e-05
2.82969e-05
3.84206e-05
5.79483e-05
5.78744e-05
1.74921e-05
2.32333e-05
3.08684e-05
4.26265e-05
6.22068e-05
6.32542e-05
1.89292e-05
2.71613e-05
3.75652e-05
5.17409e-05
7.09039e-05
6.98918e-05
2.31227e-05
3.43559e-05
4.82788e-05
6.5008e-05
8.18702e-05
7.70089e-05
2.93576e-05
4.32693e-05
6.02317e-05
7.85494e-05
9.14545e-05
8.31258e-05
3.52494e-05
5.04078e-05
6.8577e-05
8.75796e-05
9.72112e-05
8.73323e-05
3.83691e-05
5.24576e-05
6.96451e-05
8.98182e-05
9.93149e-05
8.92075e-05
3.79011e-05
4.90554e-05
6.35508e-05
8.49133e-05
9.83089e-05
8.80855e-05
3.56923e-05
4.31512e-05
5.37821e-05
7.34254e-05
9.46251e-05
8.37211e-05
3.31137e-05
3.77165e-05
4.51471e-05
6.06103e-05
8.84812e-05
7.6628e-05
3.12977e-05
3.46218e-05
4.03318e-05
5.25591e-05
8.18409e-05
6.73555e-05
3.09103e-05
3.42778e-05
4.00045e-05
5.13283e-05
7.72272e-05
5.65016e-05
4.33201e-05
5.19026e-05
6.54073e-05
8.74624e-05
0.000125529
4.0851e-05
3.59236e-05
4.43791e-05
5.80744e-05
8.23981e-05
0.0001265
4.53071e-05
3.04991e-05
3.87554e-05
5.20244e-05
7.668e-05
0.000124572
4.9588e-05
2.80997e-05
3.65649e-05
4.92918e-05
7.24798e-05
0.000119562
5.32455e-05
2.92287e-05
3.81558e-05
5.04188e-05
7.14117e-05
0.000114292
5.60099e-05
3.32631e-05
4.25137e-05
5.42392e-05
7.28606e-05
0.000109225
5.79265e-05
3.89144e-05
4.77121e-05
5.85143e-05
7.49322e-05
0.00010468
5.96601e-05
4.41951e-05
5.16442e-05
6.13582e-05
7.61346e-05
0.000100622
6.18315e-05
4.72355e-05
5.31033e-05
6.20708e-05
7.62548e-05
9.7892e-05
6.46606e-05
4.77985e-05
5.25918e-05
6.12649e-05
7.54291e-05
9.74977e-05
6.76971e-05
4.65412e-05
5.08682e-05
5.95955e-05
7.41515e-05
0.000101552
6.8736e-05
4.40541e-05
4.83558e-05
5.72168e-05
7.33705e-05
0.000109694
6.71403e-05
4.13601e-05
4.58876e-05
5.51939e-05
7.40647e-05
0.000120655
6.25182e-05
3.95296e-05
4.48099e-05
5.56979e-05
7.85091e-05
0.000134228
5.39174e-05
3.8515e-05
4.58404e-05
5.71882e-05
7.65465e-05
0.000112098
4.86489e-05
3.36509e-05
4.09772e-05
5.19818e-05
7.02362e-05
0.000102516
5.38473e-05
3.14868e-05
3.94173e-05
5.04974e-05
6.72889e-05
9.61209e-05
5.86097e-05
3.22259e-05
4.14811e-05
5.32441e-05
6.87052e-05
9.1943e-05
6.2824e-05
3.58274e-05
4.64874e-05
5.89225e-05
7.32678e-05
9.07616e-05
6.62387e-05
4.11096e-05
5.23698e-05
6.49357e-05
7.85404e-05
9.11557e-05
6.92537e-05
4.5947e-05
5.63809e-05
6.82064e-05
8.20401e-05
9.28052e-05
7.26712e-05
4.85415e-05
5.68895e-05
6.73544e-05
8.24607e-05
9.61834e-05
7.64135e-05
4.80768e-05
5.39091e-05
6.28528e-05
7.95361e-05
0.000100793
7.9903e-05
4.53595e-05
4.93666e-05
5.71432e-05
7.36739e-05
0.0001043
8.22594e-05
4.14217e-05
4.47107e-05
5.19046e-05
6.76417e-05
0.000105939
8.24956e-05
3.73705e-05
4.06427e-05
4.76826e-05
6.34949e-05
0.000107319
7.91942e-05
3.43577e-05
3.79764e-05
4.54896e-05
6.25275e-05
0.00011023
7.19e-05
3.34236e-05
3.78771e-05
4.6914e-05
6.6174e-05
0.000116937
6.05098e-05
3.22086e-05
3.73261e-05
4.45437e-05
5.653e-05
7.50004e-05
5.32087e-05
3.06062e-05
3.65575e-05
4.46124e-05
5.67293e-05
7.39256e-05
5.94257e-05
3.14005e-05
3.86958e-05
4.79167e-05
6.05401e-05
7.66852e-05
6.64251e-05
3.40361e-05
4.32724e-05
5.41451e-05
6.74242e-05
8.20624e-05
7.40524e-05
3.82653e-05
4.9199e-05
6.13338e-05
7.49765e-05
8.76564e-05
8.16841e-05
4.24843e-05
5.37272e-05
6.58771e-05
7.92187e-05
9.02176e-05
8.86348e-05
4.4594e-05
5.42377e-05
6.47309e-05
7.74165e-05
8.80137e-05
9.38839e-05
4.36786e-05
5.04875e-05
5.82369e-05
7.0215e-05
8.32042e-05
9.65839e-05
4.04692e-05
4.45806e-05
4.95886e-05
6.06897e-05
7.83529e-05
9.62172e-05
3.66602e-05
3.90575e-05
4.26131e-05
5.23701e-05
7.39773e-05
9.28952e-05
3.3217e-05
3.50305e-05
3.83905e-05
4.73085e-05
7.15567e-05
8.71683e-05
3.08233e-05
3.27056e-05
3.63959e-05
4.55434e-05
7.17257e-05
7.94406e-05
2.97933e-05
3.21522e-05
3.67233e-05
4.7179e-05
7.43695e-05
6.99016e-05
3.05395e-05
3.39464e-05
4.0167e-05
5.27335e-05
8.07585e-05
5.90197e-05
4.99655e-05
0.000108822
6.80966e-05
5.29057e-05
4.53232e-05
4.16642e-05
5.87489e-05
9.90686e-05
6.72916e-05
5.46538e-05
4.7473e-05
4.36596e-05
6.48124e-05
9.14125e-05
6.76951e-05
5.6529e-05
4.94638e-05
4.54099e-05
6.87897e-05
8.67343e-05
6.84725e-05
5.7933e-05
5.05464e-05
4.547e-05
7.03712e-05
8.66633e-05
6.97948e-05
5.8734e-05
5.01881e-05
4.29316e-05
6.93988e-05
9.17604e-05
7.1581e-05
5.86128e-05
4.81042e-05
3.82324e-05
6.72779e-05
9.89159e-05
7.28983e-05
5.74844e-05
4.45543e-05
3.28007e-05
6.47296e-05
0.000106791
7.25053e-05
5.45039e-05
4.01864e-05
2.81423e-05
6.19685e-05
0.000113939
7.08924e-05
5.07301e-05
3.62464e-05
2.52032e-05
5.89812e-05
0.000121207
6.92545e-05
4.71907e-05
3.34188e-05
2.40252e-05
5.55749e-05
0.000128035
6.97439e-05
4.57173e-05
3.26385e-05
2.47041e-05
5.16662e-05
0.000135449
7.38365e-05
4.74902e-05
3.45211e-05
2.74172e-05
4.73418e-05
0.000140448
8.07536e-05
5.27958e-05
3.93632e-05
3.22359e-05
4.28168e-05
0.000146414
8.94411e-05
6.08376e-05
4.65093e-05
3.87554e-05
5.5556e-05
9.15027e-05
5.49585e-05
4.21644e-05
3.64988e-05
3.38983e-05
6.58829e-05
8.91386e-05
5.68086e-05
4.54956e-05
3.99746e-05
3.69617e-05
7.31235e-05
8.84291e-05
6.07376e-05
4.98238e-05
4.40217e-05
4.03538e-05
7.75879e-05
8.80286e-05
6.54451e-05
5.43875e-05
4.78136e-05
4.26414e-05
7.94285e-05
8.78406e-05
7.05015e-05
5.89787e-05
5.08308e-05
4.29939e-05
7.9188e-05
8.79993e-05
7.55477e-05
6.30227e-05
5.23723e-05
4.12868e-05
7.74519e-05
8.83808e-05
7.92968e-05
6.59239e-05
5.19481e-05
3.82516e-05
7.47485e-05
9.0021e-05
8.02284e-05
6.56905e-05
4.97616e-05
3.48139e-05
7.15643e-05
9.26246e-05
7.81814e-05
6.25983e-05
4.61685e-05
3.17276e-05
6.83166e-05
9.5838e-05
7.40375e-05
5.73565e-05
4.18851e-05
2.93595e-05
6.47057e-05
9.92751e-05
7.00216e-05
5.24485e-05
3.86536e-05
2.84537e-05
6.03855e-05
0.000105233
6.82942e-05
4.9557e-05
3.72344e-05
2.88911e-05
5.55289e-05
0.000111787
7.0374e-05
4.9862e-05
3.81979e-05
3.08856e-05
5.04603e-05
0.000123347
7.60929e-05
5.33527e-05
4.14631e-05
3.43544e-05
5.38294e-05
6.07734e-05
4.00263e-05
3.23202e-05
2.89292e-05
2.70234e-05
6.42297e-05
5.85894e-05
4.11448e-05
3.45223e-05
3.12974e-05
2.90806e-05
7.34983e-05
5.82078e-05
4.40027e-05
3.80626e-05
3.45511e-05
3.14212e-05
8.14678e-05
5.9784e-05
4.7721e-05
4.23001e-05
3.81272e-05
3.34866e-05
8.79406e-05
6.35411e-05
5.29728e-05
4.72911e-05
4.19598e-05
3.51933e-05
9.24504e-05
6.96735e-05
6.0256e-05
5.30028e-05
4.56694e-05
3.64733e-05
9.43908e-05
7.69941e-05
6.83167e-05
5.87615e-05
4.88363e-05
3.76381e-05
9.3304e-05
8.37742e-05
7.47038e-05
6.28192e-05
5.05151e-05
3.77942e-05
8.95772e-05
8.88315e-05
7.73087e-05
6.35891e-05
4.9959e-05
3.64701e-05
8.3884e-05
9.0459e-05
7.5289e-05
6.04435e-05
4.68051e-05
3.40467e-05
7.71285e-05
8.88007e-05
7.07302e-05
5.546e-05
4.29691e-05
3.22062e-05
6.98006e-05
8.69041e-05
6.61483e-05
5.08927e-05
3.99156e-05
3.12398e-05
6.24502e-05
8.62451e-05
6.34158e-05
4.8292e-05
3.84503e-05
3.13345e-05
5.54737e-05
8.86552e-05
6.28406e-05
4.7688e-05
3.87679e-05
3.26762e-05
4.82e-05
0.000104078
7.55518e-05
5.97392e-05
4.87049e-05
4.19865e-05
5.75236e-05
9.44429e-05
7.41348e-05
5.96924e-05
4.81968e-05
4.07389e-05
6.41372e-05
8.67046e-05
7.27418e-05
5.84672e-05
4.57547e-05
3.69669e-05
6.8302e-05
8.23013e-05
7.04352e-05
5.53311e-05
4.10739e-05
3.08627e-05
7.01194e-05
8.19303e-05
6.66216e-05
5.00069e-05
3.46675e-05
2.38919e-05
7.04571e-05
8.4254e-05
6.06971e-05
4.28947e-05
2.79184e-05
1.77769e-05
6.97323e-05
8.7791e-05
5.34881e-05
3.54854e-05
2.22344e-05
1.35334e-05
6.82785e-05
9.1621e-05
4.6647e-05
2.93729e-05
1.85407e-05
1.15729e-05
6.49985e-05
9.73342e-05
4.24147e-05
2.57581e-05
1.72659e-05
1.20823e-05
6.09997e-05
0.000104706
4.15915e-05
2.49261e-05
1.83628e-05
1.5093e-05
5.6792e-05
0.000110144
4.50614e-05
2.749e-05
2.18154e-05
1.98495e-05
5.24454e-05
0.000114688
5.27506e-05
3.36779e-05
2.76425e-05
2.58279e-05
4.7821e-05
0.000116151
6.30784e-05
4.3006e-05
3.55504e-05
3.24583e-05
4.2904e-05
0.000118967
7.2388e-05
5.2844e-05
4.38621e-05
3.93804e-05
5.38391e-05
0.000103697
6.90452e-05
5.30066e-05
4.36645e-05
3.82597e-05
6.28123e-05
0.00010347
7.4209e-05
5.75498e-05
4.67294e-05
3.98507e-05
6.85352e-05
0.000100183
8.04975e-05
6.25559e-05
4.90306e-05
3.96158e-05
7.16475e-05
9.44385e-05
8.50895e-05
6.59898e-05
4.92033e-05
3.67729e-05
7.25966e-05
8.8956e-05
8.60783e-05
6.60931e-05
4.6492e-05
3.18757e-05
7.23292e-05
8.586e-05
8.22683e-05
6.16842e-05
4.1133e-05
2.61765e-05
7.16485e-05
8.45054e-05
7.41738e-05
5.3539e-05
3.43389e-05
2.06234e-05
7.03663e-05
8.33876e-05
6.34801e-05
4.3852e-05
2.76828e-05
1.63605e-05
6.79519e-05
8.24884e-05
5.32605e-05
3.53786e-05
2.28746e-05
1.42868e-05
6.47315e-05
8.23609e-05
4.57483e-05
2.99584e-05
2.06926e-05
1.48206e-05
6.11047e-05
8.29813e-05
4.25507e-05
2.80704e-05
2.11288e-05
1.74572e-05
5.72879e-05
8.57974e-05
4.37571e-05
2.94963e-05
2.37514e-05
2.14411e-05
5.33147e-05
8.89235e-05
4.94805e-05
3.44382e-05
2.84347e-05
2.6024e-05
4.90229e-05
9.55371e-05
5.72766e-05
4.13991e-05
3.44317e-05
3.11673e-05
5.43212e-05
6.83766e-05
4.58448e-05
3.68985e-05
3.22547e-05
2.9324e-05
6.55781e-05
7.56099e-05
5.2753e-05
4.20222e-05
3.58792e-05
3.16635e-05
7.53078e-05
8.41826e-05
6.43351e-05
4.99034e-05
4.05104e-05
3.34277e-05
8.30519e-05
9.11972e-05
7.80457e-05
5.94833e-05
4.54748e-05
3.44636e-05
8.82873e-05
9.66907e-05
8.84979e-05
6.80161e-05
4.95414e-05
3.45368e-05
9.0407e-05
0.000100031
9.24404e-05
7.18104e-05
5.05587e-05
3.30139e-05
8.95765e-05
0.000100344
8.98792e-05
6.87588e-05
4.69014e-05
2.90681e-05
8.62476e-05
9.66276e-05
8.09781e-05
5.98072e-05
3.98563e-05
2.38407e-05
8.06869e-05
8.9213e-05
6.8243e-05
4.84926e-05
3.21398e-05
1.92275e-05
7.37467e-05
7.99135e-05
5.57032e-05
3.87814e-05
2.64442e-05
1.69372e-05
6.68332e-05
7.14593e-05
4.65238e-05
3.26034e-05
2.35692e-05
1.7051e-05
6.05695e-05
6.61681e-05
4.12163e-05
2.96542e-05
2.31792e-05
1.90388e-05
5.50829e-05
6.39702e-05
4.02014e-05
2.98701e-05
2.46764e-05
2.15963e-05
5.01316e-05
6.4767e-05
4.23732e-05
3.24661e-05
2.79095e-05
2.50955e-05
2.44821e-05
1.90399e-05
1.53291e-05
1.19089e-05
1.01652e-05
1.06141e-05
1.31965e-05
1.66394e-05
1.94725e-05
2.08594e-05
2.11037e-05
2.16359e-05
2.28002e-05
2.34837e-05
2.27509e-05
1.65029e-05
1.19061e-05
7.99585e-06
5.36876e-06
4.4341e-06
5.31519e-06
7.43285e-06
9.98275e-06
1.227e-05
1.40359e-05
1.5667e-05
1.71858e-05
1.83898e-05
2.07492e-05
1.43339e-05
8.98562e-06
4.97372e-06
2.54039e-06
1.48717e-06
1.54991e-06
2.4586e-06
4.04705e-06
6.13991e-06
8.4922e-06
1.0905e-05
1.31192e-05
1.51961e-05
1.98642e-05
1.25685e-05
6.43525e-06
2.68725e-06
9.674e-07
3.69398e-07
3.05928e-07
6.11591e-07
1.36979e-06
2.73076e-06
4.66828e-06
6.91287e-06
9.34373e-06
1.22788e-05
2.01087e-05
1.14627e-05
4.71429e-06
1.55703e-06
4.66085e-07
1.27975e-07
5.84588e-08
1.4001e-07
4.35534e-07
1.1014e-06
2.28986e-06
4.17377e-06
6.95678e-06
1.13597e-05
2.07998e-05
1.06323e-05
3.83427e-06
1.34755e-06
4.5754e-07
1.31359e-07
4.55604e-08
6.37612e-08
1.89618e-07
5.53909e-07
1.42196e-06
3.26041e-06
6.87454e-06
1.30472e-05
2.10803e-05
1.02368e-05
3.85901e-06
1.66138e-06
6.63304e-07
2.42186e-07
1.22553e-07
1.40729e-07
2.82478e-07
7.02458e-07
1.77216e-06
4.23101e-06
9.07551e-06
1.67759e-05
2.09882e-05
1.04236e-05
4.79864e-06
2.5023e-06
1.23196e-06
5.83873e-07
3.79026e-07
4.30206e-07
7.01632e-07
1.40538e-06
3.0167e-06
6.37523e-06
1.22524e-05
2.0653e-05
2.08049e-05
1.15758e-05
6.54473e-06
4.08793e-06
2.438e-06
1.41232e-06
1.0181e-06
1.12448e-06
1.65117e-06
2.81493e-06
5.06171e-06
9.05192e-06
1.51285e-05
2.30965e-05
2.13354e-05
1.38404e-05
9.2449e-06
6.6029e-06
4.65998e-06
3.17308e-06
2.39246e-06
2.44102e-06
3.23876e-06
4.85289e-06
7.49634e-06
1.15016e-05
1.69549e-05
2.36722e-05
2.25658e-05
1.65519e-05
1.27423e-05
1.01194e-05
8.29019e-06
6.51507e-06
5.16405e-06
4.7506e-06
5.48875e-06
7.30015e-06
9.98486e-06
1.35735e-05
1.8071e-05
2.34322e-05
2.47378e-05
2.01217e-05
1.70749e-05
1.46933e-05
1.34273e-05
1.20018e-05
1.03466e-05
9.0543e-06
8.91051e-06
1.02914e-05
1.26454e-05
1.57335e-05
1.92529e-05
2.38102e-05
2.64941e-05
2.32693e-05
2.12816e-05
1.98658e-05
1.93778e-05
1.91277e-05
1.82188e-05
1.66579e-05
1.51742e-05
1.50418e-05
1.61767e-05
1.84437e-05
2.07747e-05
2.5045e-05
2.9976e-05
2.82366e-05
2.61229e-05
2.49779e-05
2.50975e-05
2.60282e-05
2.66848e-05
2.62466e-05
2.46011e-05
2.28113e-05
2.19001e-05
2.24273e-05
2.32563e-05
2.6438e-05
2.2987e-05
1.68135e-05
1.27717e-05
9.31136e-06
7.35723e-06
7.20525e-06
8.75642e-06
1.12127e-05
1.36446e-05
1.53901e-05
1.62856e-05
1.68651e-05
1.83997e-05
2.07527e-05
1.93646e-05
1.31945e-05
8.93145e-06
5.71074e-06
3.65795e-06
2.8529e-06
3.31579e-06
4.68071e-06
6.5104e-06
8.40898e-06
1.01532e-05
1.18598e-05
1.38438e-05
1.59932e-05
1.67105e-05
1.07295e-05
6.08925e-06
3.15312e-06
1.55391e-06
8.79361e-07
8.87141e-07
1.40162e-06
2.37957e-06
3.80632e-06
5.65515e-06
7.88716e-06
1.03193e-05
1.27347e-05
1.619e-05
9.41337e-06
4.30706e-06
1.63283e-06
5.57768e-07
2.02837e-07
1.55368e-07
3.05136e-07
7.13659e-07
1.53531e-06
2.91282e-06
4.76444e-06
6.98195e-06
9.50389e-06
1.66519e-05
8.81694e-06
3.30904e-06
1.03292e-06
3.01729e-07
7.94805e-08
2.94591e-08
6.43263e-08
2.16637e-07
6.07031e-07
1.39039e-06
2.72981e-06
4.77232e-06
7.92817e-06
1.68263e-05
8.30209e-06
2.88966e-06
9.52273e-07
3.01835e-07
8.20202e-08
2.58267e-08
3.21585e-08
9.77361e-08
3.0222e-07
8.18174e-07
1.95429e-06
4.26922e-06
8.45797e-06
1.64916e-05
7.70309e-06
2.97854e-06
1.14405e-06
4.1593e-07
1.42765e-07
6.95619e-08
7.48765e-08
1.42821e-07
3.59809e-07
9.48748e-07
2.39402e-06
5.46722e-06
1.07363e-05
1.59355e-05
7.74567e-06
3.61911e-06
1.6743e-06
7.50658e-07
3.38417e-07
2.19596e-07
2.39413e-07
3.66189e-07
7.21952e-07
1.61293e-06
3.65453e-06
7.56908e-06
1.35687e-05
1.58119e-05
8.8039e-06
4.82047e-06
2.74555e-06
1.50317e-06
8.34755e-07
6.10162e-07
6.6305e-07
9.31323e-07
1.56268e-06
2.89665e-06
5.53008e-06
9.93389e-06
1.59951e-05
1.68279e-05
1.08017e-05
6.74945e-06
4.54586e-06
2.99272e-06
1.95305e-06
1.49111e-06
1.54079e-06
2.01178e-06
2.99474e-06
4.73766e-06
7.65936e-06
1.19838e-05
1.7474e-05
1.87571e-05
1.33363e-05
9.45497e-06
7.26392e-06
5.61932e-06
4.22067e-06
3.32447e-06
3.14897e-06
3.71306e-06
4.98626e-06
6.9552e-06
9.78658e-06
1.35807e-05
1.81124e-05
2.17476e-05
1.69285e-05
1.32084e-05
1.10751e-05
9.73375e-06
8.27819e-06
6.90706e-06
6.07971e-06
6.22593e-06
7.48542e-06
9.49528e-06
1.21273e-05
1.52734e-05
1.89452e-05
2.44163e-05
2.0727e-05
1.76608e-05
1.57239e-05
1.50708e-05
1.42316e-05
1.29174e-05
1.14655e-05
1.05103e-05
1.09464e-05
1.24996e-05
1.49304e-05
1.74602e-05
2.1359e-05
2.94464e-05
2.66509e-05
2.25643e-05
2.0573e-05
2.05693e-05
2.07962e-05
2.04044e-05
1.92881e-05
1.76314e-05
1.66526e-05
1.69095e-05
1.85643e-05
2.01531e-05
2.4009e-05
1.82659e-05
1.24742e-05
8.8106e-06
5.96987e-06
4.28801e-06
3.68812e-06
4.22837e-06
5.57364e-06
7.35019e-06
9.11152e-06
1.05661e-05
1.16884e-05
1.3156e-05
1.58061e-05
1.43131e-05
8.83583e-06
5.36169e-06
3.1813e-06
1.94418e-06
1.38444e-06
1.46518e-06
2.05149e-06
3.06565e-06
4.36736e-06
5.84533e-06
7.45439e-06
9.44004e-06
1.19372e-05
1.26115e-05
7.03917e-06
3.44121e-06
1.57626e-06
7.35844e-07
3.93671e-07
3.64723e-07
5.57501e-07
1.00166e-06
1.76676e-06
2.93876e-06
4.59009e-06
6.75065e-06
9.15135e-06
1.25117e-05
6.37766e-06
2.50443e-06
8.41869e-07
2.66783e-07
8.91698e-08
5.89605e-08
1.11361e-07
2.78263e-07
6.65003e-07
1.42601e-06
2.67559e-06
4.31113e-06
6.30745e-06
1.22573e-05
5.87621e-06
2.0834e-06
6.12241e-07
1.76424e-07
4.43627e-08
1.27916e-08
2.27149e-08
8.39845e-08
2.6399e-07
6.75528e-07
1.43715e-06
2.69441e-06
4.58521e-06
1.17182e-05
5.29925e-06
1.89712e-06
5.95887e-07
1.78057e-07
4.58366e-08
1.29239e-08
1.33703e-08
4.05339e-08
1.32654e-07
3.79184e-07
9.38248e-07
2.08374e-06
4.23707e-06
1.07766e-05
4.80628e-06
1.92679e-06
6.82594e-07
2.28648e-07
7.45609e-08
3.53319e-08
3.53943e-08
6.19308e-08
1.51966e-07
4.04534e-07
1.0392e-06
2.46264e-06
5.22472e-06
1.00068e-05
4.87081e-06
2.27447e-06
9.4779e-07
3.9129e-07
1.7296e-07
1.1533e-07
1.2139e-07
1.6985e-07
3.10638e-07
6.80572e-07
1.58832e-06
3.51338e-06
6.96338e-06
1.01574e-05
5.71981e-06
2.97519e-06
1.53338e-06
7.81175e-07
4.33837e-07
3.31791e-07
3.54799e-07
4.65596e-07
7.31462e-07
1.32578e-06
2.61318e-06
5.05087e-06
8.9894e-06
1.15812e-05
7.18437e-06
4.20099e-06
2.61602e-06
1.61589e-06
1.04681e-06
8.32219e-07
8.66961e-07
1.08854e-06
1.5562e-06
2.4338e-06
4.07106e-06
6.83485e-06
1.08854e-05
1.38025e-05
9.10325e-06
6.12932e-06
4.4582e-06
3.23977e-06
2.35598e-06
1.88444e-06
1.83663e-06
2.16739e-06
2.87738e-06
4.02415e-06
5.8624e-06
8.63773e-06
1.23836e-05
1.70378e-05
1.21429e-05
9.0145e-06
7.39379e-06
6.09496e-06
4.88245e-06
3.97138e-06
3.57677e-06
3.82343e-06
4.71732e-06
6.08884e-06
7.99532e-06
1.05245e-05
1.37183e-05
2.02173e-05
1.60762e-05
1.29095e-05
1.14858e-05
1.0401e-05
9.10168e-06
7.75775e-06
6.74031e-06
6.42335e-06
7.15671e-06
8.6294e-06
1.06558e-05
1.29411e-05
1.58953e-05
2.59379e-05
2.15416e-05
1.73696e-05
1.62617e-05
1.57198e-05
1.48136e-05
1.34747e-05
1.19743e-05
1.07383e-05
1.06408e-05
1.17067e-05
1.38496e-05
1.58092e-05
1.93993e-05
1.21929e-05
7.50469e-06
4.85438e-06
3.10214e-06
2.09676e-06
1.62371e-06
1.66137e-06
2.12188e-06
2.99077e-06
4.14931e-06
5.43322e-06
6.69078e-06
8.17186e-06
1.01677e-05
9.96806e-06
5.18859e-06
2.6101e-06
1.35297e-06
7.75696e-07
5.31119e-07
5.18909e-07
6.73211e-07
1.02346e-06
1.60747e-06
2.43753e-06
3.52755e-06
5.08336e-06
7.27889e-06
9.00515e-06
4.07659e-06
1.58037e-06
5.86387e-07
2.41913e-07
1.24854e-07
1.12566e-07
1.59521e-07
2.809e-07
5.35668e-07
1.01942e-06
1.86585e-06
3.25865e-06
5.20791e-06
8.45309e-06
3.56764e-06
1.15196e-06
3.39878e-07
9.91078e-08
2.96296e-08
1.63194e-08
2.72767e-08
6.84364e-08
1.81097e-07
4.52416e-07
1.00518e-06
1.94623e-06
3.34574e-06
7.63047e-06
3.10575e-06
1.01191e-06
3.03353e-07
8.70576e-08
2.07751e-08
4.71618e-09
5.29321e-09
2.03256e-08
7.2223e-08
2.14433e-07
5.3865e-07
1.16949e-06
2.21305e-06
6.70469e-06
2.73384e-06
9.77246e-07
3.08222e-07
8.69688e-08
2.08406e-08
5.04217e-09
3.75341e-09
1.09538e-08
3.94426e-08
1.26331e-07
3.47508e-07
8.38437e-07
1.79957e-06
5.84226e-06
2.55036e-06
1.0158e-06
3.31073e-07
9.94925e-08
2.95097e-08
1.29588e-08
1.16742e-08
1.82239e-08
4.4523e-08
1.26942e-07
3.51367e-07
8.92733e-07
2.04807e-06
5.53894e-06
2.74113e-06
1.17201e-06
4.21465e-07
1.52112e-07
6.46e-08
4.44873e-08
4.48657e-08
5.61555e-08
9.44087e-08
2.06601e-07
5.12567e-07
1.25237e-06
2.80983e-06
6.05782e-06
3.30205e-06
1.48088e-06
6.49406e-07
2.94893e-07
1.67588e-07
1.3832e-07
1.4466e-07
1.73004e-07
2.48703e-07
4.36421e-07
9.02391e-07
1.95326e-06
4.00663e-06
7.42293e-06
4.13333e-06
2.12596e-06
1.14141e-06
6.45317e-07
4.31186e-07
3.71841e-07
3.87629e-07
4.54627e-07
6.07804e-07
9.23699e-07
1.60603e-06
2.99976e-06
5.49836e-06
9.11666e-06
5.34267e-06
3.33265e-06
2.15052e-06
1.43632e-06
1.04209e-06
8.86817e-07
8.91713e-07
1.01951e-06
1.30173e-06
1.79697e-06
2.71212e-06
4.38438e-06
7.13984e-06
1.15918e-05
7.48983e-06
5.45536e-06
4.07938e-06
3.05829e-06
2.34078e-06
1.94173e-06
1.83477e-06
2.00151e-06
2.45488e-06
3.17956e-06
4.30898e-06
6.09132e-06
8.81244e-06
1.44454e-05
1.07802e-05
8.76659e-06
7.29921e-06
5.94688e-06
4.79727e-06
3.9543e-06
3.51983e-06
3.56385e-06
4.147e-06
5.13238e-06
6.49451e-06
8.23959e-06
1.07528e-05
1.91982e-05
1.52387e-05
1.30637e-05
1.18139e-05
1.03885e-05
8.86919e-06
7.45009e-06
6.40164e-06
5.95017e-06
6.38614e-06
7.54686e-06
9.24541e-06
1.09392e-05
1.34059e-05
8.20347e-06
4.32398e-06
2.32604e-06
1.30563e-06
8.17764e-07
5.95675e-07
5.66667e-07
6.71148e-07
9.42184e-07
1.43542e-06
2.14591e-06
3.01811e-06
4.17239e-06
5.54665e-06
6.92687e-06
2.99268e-06
1.15383e-06
4.65308e-07
2.32801e-07
1.52496e-07
1.47517e-07
1.79439e-07
2.55989e-07
4.19833e-07
7.24333e-07
1.22859e-06
2.09103e-06
3.506e-06
5.99834e-06
2.32962e-06
6.74811e-07
1.90338e-07
6.26384e-08
2.86761e-08
2.53648e-08
3.43659e-08
5.52854e-08
1.07238e-07
2.37437e-07
5.36939e-07
1.16664e-06
2.31085e-06
5.20951e-06
1.91445e-06
5.34244e-07
1.37713e-07
3.6968e-08
9.34605e-09
3.39638e-09
4.20028e-09
1.02025e-08
3.08389e-08
9.61471e-08
2.72339e-07
6.69036e-07
1.40555e-06
4.28495e-06
1.55335e-06
4.93373e-07
1.44442e-07
3.95486e-08
8.86865e-09
1.6387e-09
7.53718e-10
2.84943e-09