/*--------------------------------*- C++ -*----------------------------------*\
| =========                 |                                                 |
| \\      /  F ield         | OpenFOAM: The Open Source CFD Toolbox           |
|  \\    /   O peration     | Version:  v2106                                 |
|   \\  /    A nd           | Website:  www.openfoam.com                      |
|    \\/     M anipulation  |                                                 |
\*---------------------------------------------------------------------------*/
FoamFile
{
    version     2.0;
    format      ascii;
    arch        "LSB;label=32;scalar=64";
    class       volScalarField;
    location    "0.000127";
    object      k;
}
// * * * * * * * * * * * * * * * * * * * * * * * * * * * * * * * * * * * * * //

dimensions      [0 2 -2 0 0 0 0];

internalField   nonuniform List<scalar> 
18273
(
0.218715
0.203202
0.24773
0.295446
0.352165
0.403688
0.437444
0.450799
0.446302
0.421936
0.363931
0.276413
0.198032
0.145542
0.219293
0.14525
0.132482
0.140098
0.159908
0.184451
0.205529
0.218955
0.224352
0.219379
0.188944
0.137271
0.0936432
0.0685243
0.287042
0.160555
0.0970294
0.0694536
0.0633033
0.0679156
0.0760395
0.0837169
0.089835
0.0926225
0.0799553
0.0576335
0.0432991
0.0476446
0.393836
0.219808
0.111249
0.053084
0.0285079
0.0212143
0.0212022
0.0237024
0.0270943
0.0300564
0.026347
0.020815
0.023079
0.0428997
0.493561
0.283809
0.14073
0.0593433
0.0220539
0.00850161
0.00487776
0.00471896
0.00574621
0.0070463
0.00668014
0.00779215
0.0173606
0.0471536
0.542617
0.313316
0.154442
0.0635233
0.0215589
0.00605978
0.00157669
0.000693455
0.000774116
0.00110802
0.00163168
0.00517099
0.020227
0.0632208
0.556885
0.312951
0.148527
0.0585287
0.018753
0.00475674
0.000926067
0.000151922
6.36228e-05
0.000152793
0.00101842
0.0064658
0.0281478
0.087368
0.550757
0.299323
0.136844
0.0511845
0.0153357
0.00359723
0.000649137
9.48143e-05
1.82638e-05
0.000117145
0.00147988
0.00950076
0.0389554
0.114111
0.520171
0.274057
0.121339
0.0440209
0.0129638
0.00317864
0.000762803
0.000245281
0.000113692
0.000251964
0.0023266
0.0133726
0.0504551
0.137942
0.463203
0.236381
0.102595
0.0378678
0.0125695
0.00459141
0.00226544
0.00131619
0.000766101
0.000721788
0.0030868
0.0152692
0.0546987
0.145319
0.387442
0.194469
0.0858819
0.0361022
0.0178018
0.0118526
0.00883322
0.00611033
0.00385281
0.00273262
0.00449649
0.0148999
0.0490719
0.131605
0.312167
0.158892
0.078113
0.0459455
0.0376835
0.0348603
0.0296373
0.0220719
0.0147873
0.00991228
0.00941405
0.0158468
0.0384191
0.101837
0.247642
0.134451
0.0866593
0.0806349
0.0889129
0.0907964
0.0806686
0.0632455
0.044927
0.030423
0.0236018
0.0246984
0.0326851
0.0719774
0.209274
0.140484
0.134087
0.165268
0.195878
0.200954
0.181314
0.148513
0.111866
0.0785934
0.0568854
0.0494557
0.042579
0.0604565
0.46221
0.503378
0.618719
0.733889
0.834807
0.893523
0.899978
0.864591
0.799062
0.709839
0.577326
0.411119
0.275665
0.195443
0.357836
0.295249
0.309461
0.348152
0.394111
0.431595
0.448625
0.445064
0.423872
0.387103
0.312725
0.212429
0.135398
0.103966
0.427056
0.267522
0.188528
0.156587
0.153177
0.162339
0.171843
0.176228
0.175006
0.16777
0.135282
0.0922923
0.0700929
0.0917567
0.611718
0.366133
0.200675
0.105469
0.0627437
0.0492857
0.0481139
0.0503462
0.0530647
0.0546132
0.0449145
0.0351656
0.0451064
0.0987697
0.815635
0.500512
0.26434
0.118741
0.0469975
0.0189683
0.0107776
0.00969068
0.0108385
0.0124655
0.0114844
0.0155219
0.0422155
0.12245
0.950446
0.586026
0.307337
0.134298
0.0481063
0.0140587
0.00362194
0.0013775
0.00134632
0.00188116
0.00332072
0.0133091
0.0543115
0.165161
1.03411
0.622502
0.315598
0.131586
0.0442372
0.0116925
0.00233935
0.000363636
0.000107735
0.000323615
0.00279569
0.0177882
0.0738728
0.215464
1.09531
0.64074
0.312869
0.123949
0.0390326
0.00955805
0.00179844
0.000281614
5.94608e-05
0.000337265
0.0040312
0.0245579
0.0948744
0.259784
1.11245
0.628097
0.29641
0.11341
0.0349719
0.00897597
0.00231026
0.000827468
0.000403529
0.00068887
0.00563137
0.0308566
0.110777
0.286055
1.06566
0.577726
0.264527
0.101256
0.034397
0.0129082
0.00675236
0.0042198
0.00254871
0.00205744
0.00691647
0.0318836
0.109015
0.275958
0.95324
0.498058
0.225549
0.0942182
0.0454103
0.0308156
0.0244226
0.0181425
0.0119883
0.00803152
0.0103722
0.0292756
0.0899243
0.2303
0.796196
0.40972
0.196479
0.107827
0.0861089
0.0831371
0.075737
0.0607429
0.0431214
0.0287846
0.0235034
0.0318499
0.0666697
0.164438
0.639257
0.33555
0.194788
0.164985
0.184506
0.200132
0.19115
0.16164
0.122777
0.0857153
0.0616493
0.0541344
0.0594385
0.110563
0.533493
0.315753
0.254048
0.298956
0.372329
0.409834
0.398834
0.352982
0.286312
0.212439
0.150915
0.115098
0.0887924
0.099661
1.11553
1.25839
1.4832
1.67491
1.77697
1.76489
1.65616
1.48548
1.28765
1.07398
0.819193
0.548059
0.346612
0.259704
0.664768
0.662547
0.740634
0.835611
0.905936
0.929944
0.899689
0.8237
0.723733
0.611481
0.45553
0.287784
0.181233
0.178988
0.608657
0.450303
0.373747
0.351198
0.355749
0.364822
0.36162
0.340198
0.308112
0.269427
0.198718
0.130518
0.114984
0.201205
0.853961
0.549177
0.324736
0.190526
0.128823
0.107911
0.102077
0.0980485
0.0930555
0.0868597
0.0662258
0.0561451
0.09706
0.248101
1.20432
0.784857
0.431709
0.201215
0.0830957
0.0356515
0.0208641
0.0175138
0.0178306
0.0190676
0.0178666
0.0335792
0.110342
0.321724
1.49013
0.971846
0.529585
0.238179
0.0868637
0.0253969
0.00633582
0.00219429
0.00198728
0.00285947
0.00736659
0.0365271
0.145007
0.413462
1.69643
1.08593
0.574198
0.246416
0.0840242
0.022077
0.00428001
0.000603567
0.00014671
0.00078479
0.00802766
0.0485576
0.186382
0.499788
1.89853
1.19058
0.609916
0.249455
0.0797373
0.0194102
0.00358541
0.000580038
0.000148167
0.000979688
0.0107906
0.0609099
0.217822
0.550096
2.05967
1.25073
0.620089
0.244111
0.0759572
0.0195174
0.00523939
0.00211574
0.00111597
0.00177786
0.0132248
0.0678933
0.228453
0.551691
2.13045
1.2365
0.591755
0.230476
0.0775835
0.0290331
0.0160556
0.0108174
0.00686729
0.00523512
0.0148828
0.0633418
0.204054
0.488608
2.06398
1.1389
0.527983
0.216379
0.098865
0.0670881
0.0563237
0.044738
0.0312417
0.0208918
0.0229143
0.0547707
0.154523
0.374694
1.84632
0.979888
0.459781
0.230041
0.172461
0.171538
0.166283
0.142686
0.107958
0.0747505
0.0566333
0.0627017
0.110106
0.245873
1.56062
0.815974
0.42568
0.309701
0.340849
0.39037
0.39773
0.360228
0.293551
0.21758
0.155797
0.121349
0.111487
0.165233
1.34365
0.73673
0.481678
0.499586
0.640944
0.752991
0.783345
0.743537
0.650192
0.519251
0.384007
0.279051
0.201332
0.182453
0.141065
0.238128
0.454499
1.10846
7.63141
6.36316
0.072611
0.12321
0.239694
0.60197
4.80972
4.43709
0.0799033
0.143999
0.270646
0.601484
4.0746
3.25155
0.0920411
0.180492
0.344709
0.708686
3.86341
2.55351
0.115158
0.242803
0.472367
0.926885
4.11799
2.20389
0.157778
0.335174
0.647803
1.22973
4.77604
2.09846
0.210686
0.436669
0.828904
1.5536
5.71464
2.16767
0.261834
0.520844
0.968346
1.82433
6.70558
2.3766
0.301695
0.573725
1.04899
2.01553
7.6463
2.70341
0.312658
0.573571
1.0436
2.06923
8.37081
3.11565
0.289034
0.518495
0.944249
1.95089
8.74804
3.5996
0.233094
0.417695
0.769933
1.67984
8.55881
4.23515
0.164716
0.305892
0.589411
1.37805
8.09938
5.2181
0.110227
0.223188
0.471499
1.18853
8.16618
6.83917
0.198839
0.31724
0.559568
1.13781
5.15152
4.55671
0.139702
0.238632
0.425876
0.819181
3.47312
3.19727
0.176294
0.320312
0.565515
0.994309
3.34883
2.50747
0.224863
0.437919
0.785245
1.32492
3.69642
2.24188
0.296098
0.596623
1.07442
1.77245
4.41049
2.26301
0.389349
0.775065
1.38008
2.23267
5.30599
2.45893
0.483045
0.931297
1.62504
2.61028
6.17762
2.72172
0.553047
1.0212
1.74774
2.84602
6.92045
2.97711
0.585618
1.03444
1.74635
2.92676
7.52358
3.22252
0.561203
0.957924
1.60793
2.78541
7.75037
3.3995
0.483513
0.80789
1.35515
2.42827
7.51985
3.51086
0.362969
0.605646
1.02752
1.92696
6.90688
3.66632
0.2377
0.411232
0.726202
1.4488
6.06192
4.08412
0.155068
0.284078
0.543057
1.14001
5.54025
4.93476
0.323972
0.486145
0.755649
1.16665
1.93508
2.83871
0.325106
0.554938
0.90605
1.36851
2.031
2.61042
0.435519
0.780749
1.27984
1.89224
2.60323
3.00201
0.574077
1.066
1.74632
2.53956
3.3471
3.67068
0.73862
1.37532
2.2176
3.15805
4.05251
4.345
0.900868
1.63977
2.579
3.60244
4.55416
4.76985
1.02489
1.80077
2.75639
3.80929
4.84949
4.88979
1.07321
1.81124
2.72062
3.80061
5.05727
4.77633
1.04525
1.6956
2.52025
3.57707
5.18803
4.48786
0.929093
1.4561
2.16114
3.10003
4.97501
3.99915
0.746068
1.13786
1.68863
2.43289
4.27407
3.39849
0.519806
0.785355
1.18209
1.70233
3.22981
2.88198
0.322187
0.497375
0.770163
1.13603
2.25047
2.66448
0.229534
0.368569
0.598889
0.904391
1.82542
2.85687
0.0835453
0.150487
0.307102
0.781997
6.53612
6.57472
0.0763435
0.129527
0.242577
0.574907
4.6345
4.52314
0.0989934
0.171722
0.309398
0.650768
4.16991
3.30857
0.123965
0.231591
0.420895
0.821468
4.15575
2.62079
0.173549
0.331761
0.598707
1.11143
4.60278
2.29632
0.235809
0.447286
0.79725
1.4446
5.36563
2.21071
0.297651
0.551177
0.96911
1.74781
6.30245
2.27736
0.350394
0.62806
1.09023
1.9802
7.22687
2.44937
0.383927
0.668523
1.15013
2.13192
8.08951
2.733
0.382648
0.653
1.12254
2.14498
8.80686
3.09068
0.333279
0.565963
0.982512
1.98072
9.07009
3.5037
0.256988
0.43622
0.773953
1.68663
8.84356
4.05225
0.210032
0.35202
0.629399
1.44452
8.38902
5.01319
0.227269
0.383917
0.677406
1.45913
8.92344
6.61986
0.15485
0.256769
0.455032
0.902719
4.36193
4.59421
0.171481
0.282964
0.476853
0.858599
3.40949
3.2309
0.237421
0.408048
0.681134
1.14918
3.5344
2.58476
0.324987
0.585289
0.982794
1.59806
4.11214
2.39831
0.444616
0.80456
1.34139
2.13022
4.98394
2.49602
0.563373
1.00243
1.64967
2.58945
5.90314
2.71391
0.656286
1.13426
1.84189
2.89592
6.70581
2.94101
0.713915
1.19179
1.91002
3.04051
7.34843
3.1334
0.725884
1.17487
1.86279
3.02591
7.82356
3.27487
0.672949
1.06323
1.6755
2.79333
7.87385
3.33656
0.547899
0.857304
1.35275
2.35169
7.39909
3.35011
0.412963
0.640207
1.0228
1.86761
6.61044
3.44574
0.382724
0.584661
0.91158
1.6408
6.08332
3.93821
0.52558
0.811663
1.20602
1.90852
6.36332
4.92634
0.329625
0.499657
0.757984
1.12245
1.79972
2.7714
0.418865
0.67141
1.03
1.48329
2.09325
2.66408
0.591514
0.987233
1.5228
2.16953
2.83737
3.22629
0.808404
1.38097
2.12906
2.98787
3.76875
4.08453
1.03521
1.74938
2.65125
3.64638
4.52217
4.80352
1.20759
1.9877
2.93556
3.9729
4.89654
5.07273
1.2996
2.06948
2.98377
4.02963
5.06799
5.04388
1.31395
2.02212
2.85504
3.89731
5.16493
4.79446
1.24649
1.85529
2.56914
3.55203
5.04386
4.32933
1.07771
1.55285
2.11614
2.93043
4.44088
3.66561
0.826153
1.16593
1.57874
2.19547
3.50017
3.02655
0.646631
0.897697
1.21233
1.66993
2.63243
2.7034
0.758471
1.05413
1.39639
1.80837
2.52241
3.03796
1.26594
1.72708
2.21205
2.64205
3.24863
3.97941
6.53229
10.5162
2.19882
1.01948
0.558754
0.307162
5.29831
10.6078
2.29569
1.06705
0.624071
0.381582
4.36027
10.9624
2.55276
1.2664
0.774984
0.503249
3.72222
11.1263
2.91291
1.53526
0.966807
0.64842
3.21373
10.9733
3.2163
1.7883
1.1497
0.775013
2.79142
10.4771
3.3666
1.97401
1.27451
0.844503
2.4475
9.75815
3.39281
2.09413
1.35607
0.885108
2.24992
8.929
3.3018
2.12929
1.40072
0.899843
2.18372
8.06694
3.13647
2.05195
1.36859
0.87672
2.26223
7.30459
2.85368
1.86888
1.25449
0.806532
2.5575
6.72776
2.4449
1.58843
1.06979
0.69202
3.17862
6.43558
2.00441
1.27087
0.864945
0.562534
4.29702
6.68553
1.68486
1.01774
0.684836
0.449289
6.26598
8.35575
1.66587
0.924225
0.595533
0.379112
4.99438
7.67978
2.46862
1.42711
0.88884
0.532582
4.36141
7.96095
2.41387
1.30981
0.830896
0.539555
3.94813
8.6891
2.7074
1.50753
1.0024
0.700479
3.71333
9.371
3.19886
1.88948
1.30091
0.941837
3.57646
9.69547
3.74331
2.31844
1.62437
1.18456
3.44516
9.58535
4.18103
2.72459
1.90768
1.36798
3.28938
9.13414
4.46862
3.07108
2.15661
1.52065
3.15746
8.51648
4.64302
3.35871
2.40164
1.65491
3.01743
8.07759
4.67536
3.48164
2.53633
1.73807
2.8964
7.5983
4.59275
3.44101
2.53748
1.7323
2.8595
7.00335
4.23342
3.18414
2.3707
1.61291
2.99885
6.28933
3.61456
2.73057
2.06313
1.39321
3.48703
5.84368
3.0088
2.22607
1.69514
1.1476
4.65007
6.32174
2.65695
1.91912
1.45123
0.986821
4.06331
3.50912
2.67869
2.16729
1.59638
1.09747
3.34872
3.13176
2.07707
1.56637
1.12922
0.797966
3.08032
3.52228
2.04157
1.52777
1.15958
0.89208
3.27612
4.36989
2.48542
1.90462
1.51837
1.21936
3.72166
5.13355
3.11147
2.4502
1.98758
1.60692
4.2592
5.4913
3.76368
3.01501
2.44798
1.94977
4.7681
5.48828
4.30703
3.51971
2.89963
2.27775
5.24197
5.37235
4.67941
4.00814
3.35774
2.60819
5.69541
5.42463
5.03998
4.47155
3.78933
2.92062
6.09176
5.63589
5.44079
4.87094
4.12603
3.15253
6.31121
5.7879
5.68703
5.0454
4.233
3.20244
6.07323
5.51163
5.43971
4.76174
3.98774
2.99284
5.31791
4.73122
4.60197
4.02349
3.45402
2.62255
4.70655
3.96655
3.72626
3.3205
2.9057
2.30272
6.87494
10.2332
1.93739
0.860307
0.436113
0.235891
5.58539
10.4258
2.16965
1.01527
0.57215
0.347002
4.58915
10.7015
2.46337
1.22152
0.735416
0.471921
3.85517
10.6738
2.81737
1.48094
0.916461
0.597946
3.29537
10.3966
3.11783
1.72904
1.08148
0.69901
2.80693
9.86156
3.29476
1.91875
1.20598
0.763472
2.40296
9.14543
3.30771
2.03211
1.27938
0.791182
2.13808
8.30884
3.18902
2.05474
1.29709
0.787975
2.05418
7.4544
2.9649
1.94617
1.24442
0.747853
2.13566
6.69139
2.62612
1.70556
1.10325
0.664849
2.44535
6.21435
2.19489
1.40838
0.912022
0.556725
3.07325
6.17677
1.8205
1.13768
0.742047
0.460599
4.15927
6.58839
1.57148
0.908806
0.576221
0.354813
6.02105
8.81994
1.85598
0.971405
0.574968
0.334961
5.16336
7.22049
1.76527
0.889289
0.489245
0.288962
4.58865
8.17375
2.1746
1.15769
0.710069
0.458743
4.16952
8.9528
2.63571
1.49202
0.976245
0.667528
3.88752
9.30982
3.16955
1.8942
1.2731
0.889536
3.67243
9.29471
3.70492
2.32769
1.57809
1.09179
3.42127
9.04274
4.13947
2.71739
1.85724
1.26352
3.14319
8.62102
4.36867
3.02752
2.09178
1.40119
2.92661
8.07059
4.47971
3.27445
2.28419
1.50065
2.74104
7.62955
4.44056
3.36881
2.37744
1.5411
2.60376
7.10977
4.24938
3.21888
2.29077
1.48169
2.58059
6.4498
3.829
2.87114
2.05423
1.32431
2.7731
5.86143
3.25252
2.43643
1.75535
1.1305
3.31971
5.64031
2.77
2.00447
1.4412
0.922127
4.50378
6.71306
2.71627
1.86904
1.30662
0.822961
3.08679
2.38462
1.11655
0.771889
0.502352
0.340982
3.04894
3.26261
1.49857
1.08941
0.774299
0.55848
3.21063
4.30329
2.05117
1.54095
1.14509
0.863321
3.5406
5.09201
2.6633
2.05827
1.56494
1.19966
3.97429
5.45417
3.29932
2.61722
2.01599
1.52915
4.42445
5.40499
3.88572
3.15206
2.47438
1.85116
4.83828
5.25354
4.32604
3.61591
2.92547
2.17064
5.22493
5.19649
4.62183
4.03432
3.33708
2.47629
5.5924
5.25685
4.90955
4.3912
3.65909
2.71548
5.87441
5.3919
5.16058
4.60688
3.81541
2.81707
5.92103
5.37259
5.18275
4.57056
3.74271
2.73731
5.57569
5.02459
4.82778
4.22231
3.44544
2.5038
4.97144
4.43824
4.19457
3.63105
3.00833
2.19415
4.57134
3.94271
3.57784
3.1246
2.63231
1.98831
2.33465
2.49126
2.77063
2.92865
2.8975
2.69968
2.40186
2.05588
1.71618
1.39515
1.04333
0.68269
0.426934
0.36614
1.23256
1.27174
1.39589
1.50426
1.53027
1.46674
1.33361
1.15355
0.967412
0.791539
0.570751
0.355225
0.240177
0.320589
0.872404
0.701349
0.624632
0.603741
0.597344
0.57901
0.538411
0.474842
0.408556
0.344379
0.245949
0.163303
0.179226
0.399404
1.08902
0.700617
0.425807
0.267562
0.194252
0.164759
0.149688
0.134684
0.12185
0.108696
0.0810053
0.0773473
0.177303
0.508811
1.5274
0.975923
0.531952
0.249204
0.106066
0.0483535
0.0296195
0.0240895
0.0229338
0.0226534
0.0225291
0.0564371
0.213574
0.638456
1.90625
1.24616
0.67698
0.302346
0.109365
0.0319255
0.00800586
0.00266537
0.00222279
0.00329713
0.0115541
0.0655544
0.268051
0.762287
2.23057
1.44083
0.7629
0.324893
0.10943
0.0285111
0.0055219
0.0007675
0.000159301
0.00120791
0.0135416
0.0835107
0.321755
0.855851
2.60272
1.66231
0.857778
0.348807
0.109665
0.0262616
0.00481024
0.000781346
0.000204783
0.00154708
0.0171453
0.0977619
0.350829
0.880429
2.97439
1.85908
0.931898
0.364972
0.110782
0.0273997
0.0071683
0.00296502
0.00163068
0.00265289
0.0197275
0.102478
0.347353
0.837946
3.27703
1.97818
0.958676
0.367019
0.117147
0.0408851
0.022454
0.0158128
0.0105601
0.00807907
0.0215045
0.0911945
0.296307
0.710601
3.40385
1.95888
0.916872
0.357419
0.146449
0.0936841
0.08079
0.0676433
0.0500413
0.0349129
0.0356145
0.0784381
0.219314
0.527159
3.27417
1.79382
0.832186
0.373151
0.244998
0.24188
0.244317
0.22189
0.178363
0.132577
0.100475
0.099564
0.158459
0.335035
2.91315
1.55158
0.759208
0.464834
0.474515
0.556409
0.592332
0.568602
0.493538
0.396993
0.297686
0.223752
0.188332
0.238283
2.66698
1.41095
0.788807
0.694298
0.88465
1.07755
1.16942
1.17233
1.0925
0.944273
0.746316
0.552686
0.393591
0.321361
1.93659
2.09283
2.32249
2.45392
2.43308
2.27458
2.03508
1.75344
1.47345
1.21683
0.917297
0.591975
0.358619
0.287418
1.04577
1.06477
1.14265
1.21288
1.22676
1.17501
1.07129
0.932067
0.78765
0.654958
0.47783
0.29515
0.191546
0.245357
0.747851
0.577912
0.493509
0.464816
0.455391
0.440655
0.410343
0.363672
0.315096
0.269879
0.195696
0.128184
0.134533
0.300949
0.965857
0.593251
0.343505
0.205799
0.144019
0.120213
0.108975
0.0984523
0.0896314
0.0812203
0.0612199
0.0576799
0.132746
0.387351
1.35776
0.833171
0.437533
0.19847
0.0814752
0.0354653
0.0209017
0.0168116
0.0160843
0.0161509
0.0163289
0.0422137
0.162971
0.492127
1.66048
1.03974
0.545687
0.237438
0.0843575
0.0242283
0.00587742
0.00182527
0.00149475
0.0023164
0.00875932
0.0502049
0.206413
0.593227
1.90155
1.18044
0.602845
0.250017
0.0829797
0.0214992
0.00414991
0.000566962
0.000113542
0.000959549
0.0105232
0.0643349
0.249912
0.675983
2.1803
1.34006
0.667054
0.264162
0.0819261
0.019588
0.00362486
0.000615829
0.000178258
0.00123982
0.013209
0.0751673
0.274092
0.704777
2.44813
1.47831
0.716766
0.273589
0.0819154
0.0203653
0.00555068
0.00242902
0.00135144
0.00206214
0.0148782
0.0781404
0.271784
0.676484
2.65169
1.55841
0.734409
0.274334
0.0864232
0.0307758
0.0176116
0.0126436
0.00837956
0.00617255
0.0157929
0.0685233
0.230758
0.573928
2.70895
1.5352
0.703303
0.267742
0.109052
0.071749
0.0629908
0.0527614
0.0385086
0.0262956
0.0256328
0.0569615
0.167437
0.419744
2.58728
1.41489
0.644729
0.282295
0.186485
0.187924
0.190384
0.171099
0.13502
0.0988458
0.0729712
0.0702631
0.115443
0.254803
2.29515
1.23439
0.592788
0.356293
0.370791
0.44047
0.466558
0.439476
0.372104
0.294388
0.217802
0.160298
0.132568
0.166635
2.07793
1.11994
0.614453
0.541973
0.710295
0.872515
0.936285
0.914276
0.824891
0.695665
0.541844
0.397692
0.277712
0.215421
0.985201
1.08611
1.24812
1.38291
1.42112
1.37009
1.25227
1.09603
0.927279
0.77101
0.580539
0.370649
0.216776
0.151217
0.505643
0.487408
0.522295
0.575788
0.609328
0.607037
0.569881
0.508613
0.437596
0.371477
0.276445
0.168519
0.096339
0.0992892
0.428753
0.283459
0.214116
0.193278
0.193928
0.195627
0.189071
0.173919
0.155102
0.13718
0.101789
0.063149
0.0518528
0.117383
0.644623
0.360001
0.185456
0.0961379
0.0593923
0.0476031
0.0440921
0.0416592
0.0393893
0.0371118
0.0280359
0.0227334
0.0476215
0.164115
0.920614
0.523814
0.255793
0.107316
0.0397645
0.0149941
0.00786073
0.00631577
0.00627677
0.00659348
0.00617262
0.0144193
0.0628895
0.223834
1.09767
0.633682
0.308637
0.125779
0.0421929
0.0114424
0.00255717
0.000698329
0.00055645
0.000840787
0.00284909
0.0181043
0.0855576
0.283726
1.24524
0.705285
0.330318
0.127208
0.0398007
0.00985331
0.00183605
0.000243045
4.20934e-05
0.000284516
0.00352965
0.0245876
0.108812
0.337073
1.40116
0.778126
0.351375
0.127916
0.0371322
0.00844304
0.00149938
0.000241479
6.11493e-05
0.000372235
0.00462698
0.0298022
0.122745
0.358253
1.53113
0.82961
0.361388
0.12546
0.0348146
0.00819293
0.00217223
0.000926234
0.000488885
0.000642186
0.00534898
0.0318561
0.124451
0.348589
1.60275
0.841834
0.354142
0.119422
0.0350015
0.0123857
0.0072404
0.00507155
0.00320625
0.00207008
0.00556364
0.0281737
0.10705
0.297207
1.57137
0.793784
0.323276
0.111832
0.0451519
0.0315075
0.0277603
0.0224473
0.0156423
0.00971675
0.00869004
0.0222563
0.076993
0.215919
1.42656
0.697438
0.284654
0.119238
0.0855965
0.0900398
0.0897615
0.0778117
0.0587575
0.0401558
0.0268134
0.0247798
0.0489495
0.126402
1.20979
0.586092
0.258935
0.164629
0.189139
0.227862
0.236708
0.215957
0.17551
0.131942
0.0907151
0.0604502
0.0486779
0.0712142
1.05299
0.520154
0.281212
0.281775
0.394958
0.486692
0.51413
0.489192
0.426207
0.345696
0.255406
0.174202
0.111622
0.0834702
0.338761
0.377664
0.469458
0.548557
0.590824
0.590016
0.5523
0.490336
0.416379
0.34335
0.252455
0.154785
0.0856606
0.0589802
0.171281
0.145794
0.158482
0.183085
0.204352
0.212401
0.205729
0.188312
0.164961
0.14123
0.103932
0.060517
0.0310238
0.0270368
0.191175
0.104772
0.0661218
0.0539528
0.053938
0.0559942
0.0560075
0.0533693
0.0491554
0.0444713
0.0328844
0.0191523
0.0129173
0.0293287
0.323097
0.161338
0.0730508
0.0320704
0.0163989
0.0117246
0.0107877
0.0105889
0.0104743
0.0102399
0.0077847
0.00549541
0.0104466
0.0438654
0.467926
0.240363
0.106219
0.0404075
0.0133368
0.00418543
0.00174469
0.00131104
0.00142265
0.00162403
0.00145238
0.00283249
0.014464
0.0642791
0.558501
0.28752
0.125924
0.0466074
0.0143395
0.00358048
0.000722035
0.000163728
0.00012232
0.000182154
0.000489417
0.00354542
0.0209356
0.0869064
0.62884
0.312448
0.129903
0.0450372
0.0128714
0.00294984
0.000515998
6.50417e-05
9.78766e-06
3.80395e-05
0.000567312
0.00502547
0.0278863
0.107812
0.693275
0.332997
0.131659
0.042667
0.011221
0.00234649
0.000386637
5.69243e-05
1.21806e-05
4.56573e-05
0.000769074
0.00630373
0.0323167
0.116702
0.735765
0.34059
0.128415
0.0392956
0.00978648
0.00209191
0.000508568
0.000202796
0.000100565
9.28058e-05
0.000914519
0.0069084
0.0333493
0.11437
0.742818
0.330466
0.11938
0.0352274
0.00925904
0.003085
0.00176355
0.00118662
0.000710714
0.000391611
0.000969868
0.00612439
0.0286226
0.0963774
0.697697
0.29653
0.103282
0.0315171
0.0121667
0.00864614
0.00748878
0.00578055
0.00381379
0.0021527
0.0016656
0.00467183
0.0198995
0.0673658
0.604853
0.248715
0.0873354
0.0343089
0.0261033
0.0279546
0.0271296
0.0224257
0.0160422
0.0101065
0.00614616
0.00527339
0.0119759
0.0377259
0.490385
0.200764
0.0794866
0.0537353
0.0663636
0.0799689
0.0809209
0.0707385
0.0545697
0.0382453
0.0244555
0.0150474
0.0117261
0.0198799
0.414482
0.17628
0.0945486
0.108279
0.15774
0.194033
0.201135
0.185009
0.153619
0.117741
0.0816348
0.0521592
0.0314197
0.0232083
0.0823509
0.0952053
0.135774
0.17377
0.200209
0.208946
0.200536
0.179935
0.152329
0.122651
0.0880867
0.0508938
0.0246045
0.0162958
0.0473976
0.0330185
0.0361832
0.0451645
0.054632
0.0600595
0.0603664
0.0566788
0.0501835
0.0422808
0.0304563
0.0167426
0.00742507
0.00542637
0.0699709
0.031693
0.0161292
0.0115437
0.0116593
0.0127374
0.0133664
0.0132361
0.0124012
0.0110935
0.00808887
0.00437356
0.00230861
0.00487265
0.131893
0.0576601
0.0226914
0.00839672
0.00351928
0.00224089
0.00209043
0.00213725
0.00216683
0.00215166
0.00162713
0.000970529
0.00149762
0.0081381
0.200823
0.0910208
0.0356164
0.0120124
0.00347867
0.000913782
0.000304878
0.000220743
0.000252615
0.000293432
0.00024737
0.000354829
0.00220998
0.0134376
0.244695
0.110731
0.0429243
0.0141243
0.00387568
0.000864161
0.000154202
2.92388e-05
1.95941e-05
2.73333e-05
5.20441e-05
0.000435846
0.00354933
0.0199018
0.276492
0.119771
0.0438798
0.013533
0.00346046
0.000712313
0.000112685
1.2966e-05
1.62848e-06
2.80698e-06
5.04203e-05
0.000646969
0.00493752
0.0255648
0.3005
0.12427
0.0429532
0.0123347
0.0029011
0.000544439
7.96052e-05
9.62834e-06
1.48234e-06
2.3768e-06
6.89737e-05
0.000827604
0.00579103
0.0277146
0.310389
0.12211
0.0398704
0.0107283
0.00236084
0.000434685
8.36796e-05
2.6891e-05
1.21774e-05
7.02152e-06
8.04678e-05
0.000894965
0.00587708
0.02653
0.301322
0.112648
0.0348779
0.00891849
0.00199043
0.000538873
0.000272418
0.000175664
0.000100708
4.83893e-05
8.60469e-05
0.000760972
0.004821
0.0211891
0.268204
0.0946832
0.0279049
0.00720152
0.0023343
0.00155928
0.00134561
0.00101816
0.000644356
0.000338718
0.000195287
0.000535594
0.00305249
0.0134763
0.217644
0.0733838
0.0215229
0.00725832
0.00538366
0.00595506
0.00583183
0.00473176
0.00325587
0.00190819
0.00100617
0.000683907
0.00162051
0.00666524
0.160827
0.0537088
0.0182444
0.0123565
0.0163474
0.0204391
0.020875
0.0179267
0.0133407
0.00867569
0.00503848
0.00272814
0.00177673
0.00326577
0.126121
0.0448393
0.0236936
0.0303606
0.0468926
0.0596306
0.0624981
0.0566062
0.0453775
0.0325477
0.0208209
0.0120614
0.00643196
0.0044337
0.014377
0.0167301
0.0279141
0.0401925
0.051161
0.0573236
0.057841
0.0536908
0.04576
0.0361415
0.0250082
0.0136043
0.00558534
0.00307528
0.0112054
0.00577414
0.00568542
0.00764853
0.0104164
0.0126849
0.0138661
0.0138069
0.0124164
0.0102605
0.00713895
0.00370348
0.00136456
0.000806442
0.0218693
0.00830476
0.00323853
0.00176799
0.00172905
0.00210586
0.00248743
0.00264763
0.00251886
0.00222651
0.00157123
0.000786868
0.000322407
0.000626799
0.0463823
0.0176132
0.00598979
0.00185498
0.000603588
0.000321146
0.000315315
0.000349336
0.000372731
0.000363331
0.000266563
0.000138007
0.000166959
0.001193
0.0749145
0.0297622
0.0102308
0.00304326
0.000776648
0.000175024
4.80477e-05
3.3064e-05
3.84108e-05
4.27916e-05
3.42322e-05
3.51912e-05
0.000264041
0.002227
0.0930699
0.0367765
0.0125426
0.00366253
0.000902067
0.000183353
3.02751e-05
5.1048e-06
2.82297e-06
3.46401e-06
4.47417e-06
3.89045e-05
0.000463138
0.00360143
0.105224
0.0395565
0.0127628
0.00351105
0.000811994
0.000153925
2.30224e-05
2.60088e-06
2.89797e-07
1.93766e-07
2.50873e-06
5.64382e-05
0.000654651
0.00477539
0.111622
0.0394851
0.0119272
0.00304947
0.000649975
0.000112702
1.54789e-05
1.71309e-06
2.06524e-07
6.03788e-08
2.83831e-06
6.68332e-05
0.000732721
0.00503165
0.110253
0.0363806
0.0102221
0.002423
0.00047815
7.88477e-05
1.27136e-05
3.32821e-06
1.43199e-06
5.81344e-07
2.82922e-06
6.4564e-05
0.000680916
0.00447345
0.101115
0.0310421
0.00808687
0.00177809
0.000341546
7.71844e-05
3.55863e-05
2.3134e-05
1.345e-05
6.16654e-06
4.04072e-06
4.90633e-05
0.000502262
0.00321734
0.083896
0.0238559
0.00576575
0.00123357
0.00034246
0.000227641
0.000205036
0.000158746
0.000100482
5.09406e-05
2.12504e-05
3.31737e-05
0.000277588
0.0017822
0.0625084
0.0167628
0.00395217
0.00113678
0.000889003
0.0010566
0.00107351
0.000882466
0.000598928
0.000334327
0.000151147
6.99883e-05
0.000127625
0.000723921
0.0409555
0.0108237
0.00306337
0.0022436
0.00335523
0.00442948
0.00465622
0.00401828
0.00291934
0.00178502
0.000910415
0.000415945
0.000197864
0.000314585
0.0289534
0.00840763
0.00453678
0.00701137
0.0118107
0.0157313
0.0169192
0.0153076
0.0119058
0.00793984
0.00454133
0.00229937
0.00103648
0.00060216
0.00200134
0.00241275
0.00474313
0.00745738
0.00993554
0.0112238
0.0112302
0.0103689
0.00901913
0.00742215
0.00524052
0.00282994
0.00107938
0.000441505
0.00184371
0.000766083
0.000706849
0.000999025
0.00141128
0.00173663
0.00192499
0.00197659
0.00191548
0.00171929
0.00125173
0.000656124
0.000224327
9.05051e-05
0.00474927
0.00155664
0.00049802
0.000204268
0.000165203
0.000196522
0.00024246
0.000285022
0.000314305
0.000310733
0.00023374
0.000119275
4.04821e-05
5.20358e-05
0.011984
0.00393477
0.00115738
0.000305403
7.60347e-05
2.59191e-05
2.25545e-05
3.01198e-05
3.88387e-05
4.30069e-05
3.3951e-05
1.72251e-05
1.24844e-05
0.000105605
0.0203108
0.00696065
0.0020697
0.000532108
0.000116598
2.17346e-05
4.26768e-06
2.5336e-06
3.47738e-06
4.38271e-06
3.721e-06
2.61637e-06
1.75498e-05
0.000220067
0.0256779
0.00855676
0.00248073
0.000618364
0.000130135
2.26096e-05
3.17032e-06
4.33315e-07
2.30379e-07
3.11551e-07
3.26948e-07
1.83936e-06
3.31768e-05
0.000387392
0.0290084
0.00898532
0.00242262
0.000561796
0.000110107
1.7782e-05
2.28422e-06
2.24565e-07
2.2706e-08
1.50586e-08
7.78423e-08
2.79347e-06
5.09085e-05
0.000549317
0.0306672
0.00874413
0.00216038
0.000457226
8.14966e-05
1.19393e-05
1.39796e-06
1.30602e-07
1.205e-08
2.26547e-09
7.51579e-08
3.51255e-06
6.0941e-05
0.000608639
0.0301258
0.00790103
0.00178268
0.000342976
5.5467e-05
7.52237e-06
9.7307e-07
2.02154e-07
7.49507e-08
2.68253e-08
6.7633e-08
3.37046e-06
5.79397e-05
0.000550623
0.0270762
0.00658312
0.00136458
0.000239693
3.65603e-05
6.52495e-06
2.65548e-06
1.61345e-06
8.5576e-07
3.51732e-07
1.46096e-07
2.36561e-06
4.1261e-05
0.000382343
0.0215767
0.00484449
0.000926441
0.00015476
3.36775e-05
2.13203e-05
1.88893e-05
1.37863e-05
7.98334e-06
3.65352e-06
1.33857e-06
1.43382e-06
1.98955e-05
0.000187177
0.0151915
0.00321538
0.000591625
0.00012999
9.92025e-05
0.000123694
0.000123694
9.61443e-05
6.00872e-05
3.05989e-05
1.25985e-05
4.71815e-06
7.23265e-06
5.92371e-05
0.00910877
0.00188745
0.000406222
0.000275847
0.000465652
0.00064593
0.000672128
0.000552218
0.00037296
0.000210807
9.82252e-05
3.99379e-05
1.53901e-05
1.96713e-05
0.00592177
0.00134424
0.000614499
0.00106415
0.00202533
0.00285202
0.00306407
0.00266473
0.00195013
0.0012163
0.000638352
0.000292693
0.000116298
5.52872e-05
0.00157926
0.00133276
0.00101302
0.000639519
0.000304548
9.98722e-05
3.26844e-05
0.000217412
0.000205067
0.000170917
0.000112733
5.2763e-05
1.56987e-05
5.15027e-06
2.26334e-05
2.46286e-05
2.29176e-05
1.58895e-05
7.37372e-06
2.14723e-06
3.20808e-06
1.77843e-06
2.2831e-06
2.41199e-06
1.78733e-06
8.38474e-07
5.60575e-07
7.87744e-06
1.19637e-07
1.58607e-07
1.93486e-07
1.57146e-07
9.47352e-08
8.42307e-07
1.74975e-05
2.27085e-08
8.95244e-09
1.13904e-08
1.06251e-08
4.34626e-08
1.52305e-06
3.05792e-05
1.3232e-08
1.09043e-09
5.1243e-10
7.64553e-10
5.05029e-08
2.06148e-06
4.04659e-05
7.74741e-09
5.83151e-10
8.9252e-11
1.7095e-10
4.43761e-08
1.95473e-06
3.79185e-05
0.00738287
0.00156162
0.00028426
4.41553e-05
5.78683e-06
6.35584e-07
6.30975e-08
9.36845e-09
3.17641e-09
1.18914e-09
4.42077e-10
2.81803e-08
1.39906e-06
2.70722e-05
0.00661561
0.00128936
0.000215108
3.04874e-05
3.69504e-06
4.6712e-07
1.37875e-07
8.16573e-08
4.55513e-08
1.96746e-08
6.67763e-09
1.54706e-08
7.39954e-07
1.43638e-05
0.00514946
0.000937819
0.000143903
1.90801e-05
2.91907e-06
1.38837e-06
1.2112e-06
9.18695e-07
5.57789e-07
2.64604e-07
9.80122e-08
3.5622e-08
2.80369e-07
5.28727e-06
0.00344339
0.000604248
9.03464e-05
1.50712e-05
8.85631e-06
1.0486e-05
1.06643e-05
8.61784e-06
5.5924e-06
2.90684e-06
1.19413e-06
4.14113e-07
1.9681e-07
1.44511e-06
0.00192957
0.000339101
6.16528e-05
3.70519e-05
5.58421e-05
7.46169e-05
7.89434e-05