/*--------------------------------*- C++ -*----------------------------------*\
| =========                 |                                                 |
| \\      /  F ield         | OpenFOAM: The Open Source CFD Toolbox           |
|  \\    /   O peration     | Version:  v2106                                 |
|   \\  /    A nd           | Website:  www.openfoam.com                      |
|    \\/     M anipulation  |                                                 |
\*---------------------------------------------------------------------------*/
FoamFile
{
    version     2.0;
    format      ascii;
    arch        "LSB;label=32;scalar=64";
    class       volScalarField;
    location    "0.000151";
    object      alphat;
}
// * * * * * * * * * * * * * * * * * * * * * * * * * * * * * * * * * * * * * //

dimensions      [1 -1 -1 0 0 0 0];

internalField   nonuniform List<scalar> 
17924
(
9.75586e-17
9.75679e-17
9.75796e-17
9.7591e-17
9.72093e-17
9.7213e-17
9.72196e-17
9.72259e-17
9.72324e-17
9.7239e-17
9.72456e-17
9.72269e-17
9.72305e-17
9.72373e-17
9.72434e-17
9.72499e-17
9.72564e-17
9.72629e-17
9.72448e-17
9.72487e-17
9.72556e-17
9.72617e-17
9.72681e-17
9.72744e-17
9.72807e-17
9.7263e-17
9.72672e-17
9.72738e-17
9.72799e-17
9.72862e-17
9.72924e-17
9.72986e-17
9.72809e-17
9.72857e-17
9.7292e-17
9.72981e-17
9.73043e-17
9.73104e-17
9.73165e-17
9.72993e-17
9.73045e-17
9.73104e-17
9.73163e-17
9.73223e-17
9.73283e-17
9.73343e-17
9.73174e-17
9.7323e-17
9.73285e-17
9.73344e-17
9.73402e-17
9.7346e-17
9.73519e-17
9.73359e-17
9.73417e-17
9.73469e-17
9.73526e-17
9.73582e-17
9.73639e-17
9.73697e-17
9.73545e-17
9.73604e-17
9.73653e-17
9.73708e-17
9.73763e-17
9.7382e-17
9.73877e-17
9.73737e-17
9.73796e-17
9.7384e-17
9.73894e-17
9.73948e-17
9.74004e-17
9.7406e-17
9.73928e-17
9.73987e-17
9.74028e-17
9.74082e-17
9.74136e-17
9.74192e-17
9.74247e-17
9.74126e-17
9.74183e-17
9.74222e-17
9.74275e-17
9.74328e-17
9.74382e-17
9.74437e-17
9.74313e-17
9.74368e-17
9.74411e-17
9.74464e-17
9.74517e-17
9.74571e-17
9.74627e-17
9.74521e-17
9.74564e-17
9.74608e-17
9.74656e-17
9.74709e-17
9.74761e-17
9.74816e-17
9.68896e-17
9.68898e-17
9.68918e-17
9.68942e-17
9.68965e-17
9.68988e-17
9.6901e-17
9.69032e-17
9.69052e-17
9.69072e-17
9.69089e-17
9.69109e-17
9.69131e-17
9.69161e-17
9.69027e-17
9.69027e-17
9.69048e-17
9.69068e-17
9.69091e-17
9.69114e-17
9.69136e-17
9.69156e-17
9.69176e-17
9.69194e-17
9.69211e-17
9.6923e-17
9.69247e-17
9.69282e-17
9.69151e-17
9.69154e-17
9.69177e-17
9.69197e-17
9.6922e-17
9.69242e-17
9.69263e-17
9.69282e-17
9.69299e-17
9.69315e-17
9.6933e-17
9.69344e-17
9.69358e-17
9.69389e-17
9.69283e-17
9.69287e-17
9.69306e-17
9.69325e-17
9.69347e-17
9.69368e-17
9.69388e-17
9.69405e-17
9.69421e-17
9.69435e-17
9.69448e-17
9.69461e-17
9.69472e-17
9.69496e-17
9.69408e-17
9.69415e-17
9.69433e-17
9.69451e-17
9.69472e-17
9.69492e-17
9.6951e-17
9.69526e-17
9.6954e-17
9.69553e-17
9.69564e-17
9.69575e-17
9.69584e-17
9.696e-17
9.69534e-17
9.69543e-17
9.69559e-17
9.69576e-17
9.69595e-17
9.69613e-17
9.6963e-17
9.69644e-17
9.69657e-17
9.69668e-17
9.69678e-17
9.69687e-17
9.69696e-17
9.69705e-17
9.69656e-17
9.69668e-17
9.69682e-17
9.69699e-17
9.69716e-17
9.69732e-17
9.69748e-17
9.69761e-17
9.69773e-17
9.69782e-17
9.69791e-17
9.69798e-17
9.69806e-17
9.69811e-17
9.69779e-17
9.69793e-17
9.69804e-17
9.6982e-17
9.69836e-17
9.69851e-17
9.69865e-17
9.69877e-17
9.69889e-17
9.69897e-17
9.69905e-17
9.69911e-17
9.69918e-17
9.69921e-17
9.69901e-17
9.69915e-17
9.69925e-17
9.6994e-17
9.69954e-17
9.69969e-17
9.69982e-17
9.69994e-17
9.70006e-17
9.70014e-17
9.70022e-17
9.70027e-17
9.70035e-17
9.70036e-17
9.70023e-17
9.70038e-17
9.70046e-17
9.70059e-17
9.70073e-17
9.70087e-17
9.70101e-17
9.70113e-17
9.70125e-17
9.70133e-17
9.70142e-17
9.70149e-17
9.70158e-17
9.70157e-17
9.70142e-17
9.70159e-17
9.70166e-17
9.70179e-17
9.70193e-17
9.70207e-17
9.70221e-17
9.70234e-17
9.70246e-17
9.70256e-17
9.70266e-17
9.70275e-17
9.70286e-17
9.70283e-17
9.70263e-17
9.7028e-17
9.70286e-17
9.70299e-17
9.70313e-17
9.70327e-17
9.70342e-17
9.70356e-17
9.7037e-17
9.70383e-17
9.70396e-17
9.70408e-17
9.70421e-17
9.70418e-17
9.70381e-17
9.70396e-17
9.70405e-17
9.70417e-17
9.70432e-17
9.70447e-17
9.70464e-17
9.7048e-17
9.70496e-17
9.70511e-17
9.70527e-17
9.70542e-17
9.70555e-17
9.70553e-17
9.70508e-17
9.70515e-17
9.70522e-17
9.70534e-17
9.7055e-17
9.70567e-17
9.70585e-17
9.70604e-17
9.70624e-17
9.70642e-17
9.70661e-17
9.70681e-17
9.70697e-17
9.7071e-17
9.65851e-17
9.65845e-17
9.65841e-17
9.65837e-17
9.65831e-17
9.65823e-17
9.65813e-17
9.65802e-17
9.65789e-17
9.65775e-17
9.6576e-17
9.65748e-17
9.65734e-17
9.65734e-17
9.65936e-17
9.65921e-17
9.65918e-17
9.65913e-17
9.65908e-17
9.659e-17
9.6589e-17
9.65877e-17
9.65863e-17
9.65849e-17
9.65834e-17
9.6582e-17
9.65806e-17
9.65805e-17
9.66009e-17
9.65997e-17
9.65994e-17
9.65989e-17
9.65983e-17
9.65975e-17
9.65965e-17
9.65952e-17
9.65937e-17
9.65922e-17
9.65906e-17
9.65892e-17
9.65876e-17
9.65872e-17
9.66086e-17
9.66075e-17
9.66071e-17
9.66064e-17
9.66057e-17
9.66048e-17
9.66037e-17
9.66023e-17
9.66008e-17
9.65993e-17
9.65976e-17
9.65961e-17
9.65943e-17
9.65936e-17
9.66161e-17
9.66151e-17
9.66145e-17
9.66137e-17
9.66129e-17
9.66119e-17
9.66107e-17
9.66093e-17
9.66078e-17
9.66061e-17
9.66044e-17
9.66027e-17
9.66009e-17
9.65997e-17
9.66235e-17
9.66224e-17
9.66217e-17
9.66209e-17
9.662e-17
9.66189e-17
9.66176e-17
9.66161e-17
9.66145e-17
9.66128e-17
9.6611e-17
9.66092e-17
9.66072e-17
9.66056e-17
9.66306e-17
9.66295e-17
9.66287e-17
9.66278e-17
9.66268e-17
9.66256e-17
9.66243e-17
9.66228e-17
9.66212e-17
9.66194e-17
9.66175e-17
9.66156e-17
9.66135e-17
9.66115e-17
9.66373e-17
9.66364e-17
9.66354e-17
9.66345e-17
9.66334e-17
9.66323e-17
9.66309e-17
9.66294e-17
9.66278e-17
9.66259e-17
9.6624e-17
9.66219e-17
9.66197e-17
9.66174e-17
9.66437e-17
9.66429e-17
9.66419e-17
9.66409e-17
9.66399e-17
9.66387e-17
9.66374e-17
9.66359e-17
9.66342e-17
9.66324e-17
9.66304e-17
9.66282e-17
9.6626e-17
9.66233e-17
9.66498e-17
9.6649e-17
9.6648e-17
9.6647e-17
9.6646e-17
9.66449e-17
9.66437e-17
9.66422e-17
9.66406e-17
9.66387e-17
9.66368e-17
9.66345e-17
9.66323e-17
9.66294e-17
9.66554e-17
9.66548e-17
9.66538e-17
9.66529e-17
9.6652e-17
9.66509e-17
9.66498e-17
9.66484e-17
9.66469e-17
9.6645e-17
9.66432e-17
9.66408e-17
9.66386e-17
9.66355e-17
9.66609e-17
9.66602e-17
9.66593e-17
9.66584e-17
9.66576e-17
9.66567e-17
9.66557e-17
9.66544e-17
9.66531e-17
9.66513e-17
9.66495e-17
9.66472e-17
9.6645e-17
9.66419e-17
9.66662e-17
9.66654e-17
9.66646e-17
9.66638e-17
9.66631e-17
9.66623e-17
9.66615e-17
9.66604e-17
9.66592e-17
9.66575e-17
9.66558e-17
9.66535e-17
9.66515e-17
9.66484e-17
9.66717e-17
9.66705e-17
9.66696e-17
9.66689e-17
9.66684e-17
9.66678e-17
9.66672e-17
9.66664e-17
9.66654e-17
9.6664e-17
9.66625e-17
9.66603e-17
9.66584e-17
9.66556e-17
9.62817e-17
9.62794e-17
9.62774e-17
9.62753e-17
9.62731e-17
9.62707e-17
9.62681e-17
9.62654e-17
9.62627e-17
9.62599e-17
9.62572e-17
9.62544e-17
9.62518e-17
9.62492e-17
9.62852e-17
9.62829e-17
9.62809e-17
9.62788e-17
9.62766e-17
9.62742e-17
9.62716e-17
9.62689e-17
9.62661e-17
9.62632e-17
9.62604e-17
9.62576e-17
9.62548e-17
9.62523e-17
9.62885e-17
9.62862e-17
9.62843e-17
9.62821e-17
9.62799e-17
9.62774e-17
9.62748e-17
9.62721e-17
9.62694e-17
9.62666e-17
9.62638e-17
9.6261e-17
9.6258e-17
9.62555e-17
9.62917e-17
9.62894e-17
9.62875e-17
9.62853e-17
9.62831e-17
9.62806e-17
9.6278e-17
9.62753e-17
9.62725e-17
9.62697e-17
9.62669e-17
9.6264e-17
9.62611e-17
9.62584e-17
9.62948e-17
9.62926e-17
9.62906e-17
9.62885e-17
9.62862e-17
9.62837e-17
9.62811e-17
9.62784e-17
9.62756e-17
9.62728e-17
9.62699e-17
9.62671e-17
9.6264e-17
9.62613e-17
9.62978e-17
9.62957e-17
9.62937e-17
9.62915e-17
9.62892e-17
9.62868e-17
9.62842e-17
9.62815e-17
9.62787e-17
9.62758e-17
9.62729e-17
9.627e-17
9.62669e-17
9.6264e-17
9.63005e-17
9.62985e-17
9.62966e-17
9.62944e-17
9.62921e-17
9.62897e-17
9.62871e-17
9.62844e-17
9.62817e-17
9.62788e-17
9.62758e-17
9.62728e-17
9.62697e-17
9.62665e-17
9.6303e-17
9.63011e-17
9.62992e-17
9.62971e-17
9.62949e-17
9.62924e-17
9.62899e-17
9.62872e-17
9.62845e-17
9.62816e-17
9.62786e-17
9.62755e-17
9.62723e-17
9.62689e-17
9.63051e-17
9.63034e-17
9.63015e-17
9.62995e-17
9.62974e-17
9.6295e-17
9.62925e-17
9.62899e-17
9.62871e-17
9.62842e-17
9.62812e-17
9.62779e-17
9.62747e-17
9.62712e-17
9.63069e-17
9.63052e-17
9.63035e-17
9.63016e-17
9.62995e-17
9.62973e-17
9.62949e-17
9.62922e-17
9.62895e-17
9.62865e-17
9.62835e-17
9.62802e-17
9.62768e-17
9.62732e-17
9.63084e-17
9.63068e-17
9.63051e-17
9.63033e-17
9.63014e-17
9.62992e-17
9.62969e-17
9.62943e-17
9.62916e-17
9.62886e-17
9.62855e-17
9.62821e-17
9.62787e-17
9.6275e-17
9.63096e-17
9.6308e-17
9.63065e-17
9.63048e-17
9.63029e-17
9.63009e-17
9.62987e-17
9.62962e-17
9.62935e-17
9.62905e-17
9.62874e-17
9.62839e-17
9.62805e-17
9.62766e-17
9.63109e-17
9.63092e-17
9.63077e-17
9.63061e-17
9.63044e-17
9.63024e-17
9.63003e-17
9.62978e-17
9.62952e-17
9.62922e-17
9.6289e-17
9.62855e-17
9.62821e-17
9.62783e-17
9.63119e-17
9.63103e-17
9.63088e-17
9.63073e-17
9.63057e-17
9.63038e-17
9.63018e-17
9.62994e-17
9.62969e-17
9.6294e-17
9.6291e-17
9.62874e-17
9.6284e-17
9.62799e-17
9.59696e-17
9.59662e-17
9.59631e-17
9.59602e-17
9.59574e-17
9.59546e-17
9.59519e-17
9.59492e-17
9.59466e-17
9.5944e-17
9.59414e-17
9.59388e-17
9.59363e-17
9.59336e-17
9.59696e-17
9.59663e-17
9.59636e-17
9.59607e-17
9.59579e-17
9.5955e-17
9.59523e-17
9.59495e-17
9.59469e-17
9.59442e-17
9.59415e-17
9.59388e-17
9.59362e-17
9.59337e-17
9.59696e-17
9.59666e-17
9.59638e-17
9.59609e-17
9.59581e-17
9.59553e-17
9.59525e-17
9.59498e-17
9.59472e-17
9.59446e-17
9.5942e-17
9.59393e-17
9.59367e-17
9.59341e-17
9.59697e-17
9.59668e-17
9.59641e-17
9.59613e-17
9.59585e-17
9.59557e-17
9.5953e-17
9.59503e-17
9.59476e-17
9.5945e-17
9.59424e-17
9.59397e-17
9.59371e-17
9.59345e-17
9.59698e-17
9.59671e-17
9.59644e-17
9.59616e-17
9.59589e-17
9.59562e-17
9.59535e-17
9.59508e-17
9.59481e-17
9.59455e-17
9.59429e-17
9.59402e-17
9.59376e-17
9.59349e-17
9.59698e-17
9.59672e-17
9.59646e-17
9.5962e-17
9.59593e-17
9.59567e-17
9.5954e-17
9.59513e-17
9.59487e-17
9.5946e-17
9.59433e-17
9.59406e-17
9.5938e-17
9.59354e-17
9.59697e-17
9.59673e-17
9.59648e-17
9.59623e-17
9.59597e-17
9.59571e-17
9.59545e-17
9.59518e-17
9.59492e-17
9.59464e-17
9.59438e-17
9.5941e-17
9.59384e-17
9.59357e-17
9.59696e-17
9.59673e-17
9.59649e-17
9.59625e-17
9.596e-17
9.59575e-17
9.59549e-17
9.59522e-17
9.59496e-17
9.59468e-17
9.59441e-17
9.59414e-17
9.59387e-17
9.5936e-17
9.59694e-17
9.59672e-17
9.5965e-17
9.59626e-17
9.59602e-17
9.59577e-17
9.59551e-17
9.59525e-17
9.59498e-17
9.59471e-17
9.59444e-17
9.59416e-17
9.59389e-17
9.59362e-17
9.59691e-17
9.5967e-17
9.59648e-17
9.59626e-17
9.59602e-17
9.59577e-17
9.59552e-17
9.59526e-17
9.59499e-17
9.59472e-17
9.59444e-17
9.59416e-17
9.59389e-17
9.59362e-17
9.59687e-17
9.59667e-17
9.59646e-17
9.59624e-17
9.59601e-17
9.59576e-17
9.59552e-17
9.59525e-17
9.59499e-17
9.59471e-17
9.59443e-17
9.59415e-17
9.59387e-17
9.59361e-17
9.59684e-17
9.59663e-17
9.59643e-17
9.59622e-17
9.59599e-17
9.59575e-17
9.5955e-17
9.59524e-17
9.59497e-17
9.59469e-17
9.59441e-17
9.59412e-17
9.59385e-17
9.59358e-17
9.59683e-17
9.5966e-17
9.59641e-17
9.5962e-17
9.59598e-17
9.59574e-17
9.59549e-17
9.59523e-17
9.59495e-17
9.59467e-17
9.59438e-17
9.59409e-17
9.59381e-17
9.59354e-17
9.59681e-17
9.59659e-17
9.59639e-17
9.59618e-17
9.59596e-17
9.59572e-17
9.59547e-17
9.59521e-17
9.59494e-17
9.59466e-17
9.59438e-17
9.59409e-17
9.59382e-17
9.59351e-17
9.56552e-17
9.56512e-17
9.56479e-17
9.56449e-17
9.56423e-17
9.564e-17
9.56378e-17
9.56359e-17
9.56341e-17
9.56325e-17
9.56309e-17
9.56295e-17
9.56283e-17
9.56272e-17
9.56529e-17
9.56494e-17
9.56463e-17
9.56434e-17
9.56408e-17
9.56383e-17
9.56361e-17
9.56341e-17
9.56323e-17
9.56306e-17
9.56291e-17
9.56276e-17
9.56263e-17
9.56252e-17
9.5651e-17
9.56477e-17
9.56446e-17
9.56417e-17
9.5639e-17
9.56366e-17
9.56345e-17
9.56325e-17
9.56307e-17
9.56291e-17
9.56276e-17
9.56261e-17
9.56249e-17
9.56238e-17
9.56493e-17
9.56462e-17
9.56431e-17
9.56403e-17
9.56377e-17
9.56353e-17
9.56331e-17
9.56311e-17
9.56294e-17
9.56277e-17
9.56262e-17
9.56248e-17
9.56236e-17
9.56225e-17
9.56478e-17
9.56448e-17
9.56418e-17
9.5639e-17
9.56364e-17
9.56341e-17
9.56319e-17
9.56299e-17
9.56282e-17
9.56265e-17
9.56251e-17
9.56236e-17
9.56225e-17
9.56214e-17
9.56465e-17
9.56436e-17
9.56407e-17
9.5638e-17
9.56354e-17
9.56331e-17
9.56309e-17
9.5629e-17
9.56272e-17
9.56255e-17
9.56241e-17
9.56227e-17
9.56216e-17
9.56206e-17
9.56454e-17
9.56425e-17
9.56397e-17
9.5637e-17
9.56345e-17
9.56322e-17
9.56301e-17
9.56281e-17
9.56263e-17
9.56247e-17
9.56232e-17
9.56219e-17
9.56209e-17
9.56199e-17
9.56444e-17
9.56416e-17
9.56388e-17
9.56362e-17
9.56337e-17
9.56315e-17
9.56294e-17
9.56274e-17
9.56256e-17
9.5624e-17
9.56225e-17
9.56212e-17
9.56202e-17
9.56193e-17
9.56436e-17
9.56409e-17
9.56382e-17
9.56356e-17
9.56331e-17
9.56309e-17
9.56288e-17
9.56268e-17
9.5625e-17
9.56234e-17
9.56219e-17
9.56206e-17
9.56197e-17
9.56189e-17
9.56429e-17
9.56403e-17
9.56376e-17
9.56351e-17
9.56327e-17
9.56304e-17
9.56283e-17
9.56263e-17
9.56245e-17
9.56229e-17
9.56214e-17
9.56202e-17
9.56192e-17
9.56184e-17
9.56425e-17
9.56399e-17
9.56373e-17
9.56348e-17
9.56324e-17
9.56301e-17
9.5628e-17
9.5626e-17
9.56242e-17
9.56226e-17
9.56211e-17
9.56198e-17
9.56188e-17
9.56181e-17
9.56424e-17
9.56397e-17
9.56372e-17
9.56347e-17
9.56323e-17
9.56301e-17
9.56279e-17
9.56259e-17
9.56241e-17
9.56224e-17
9.56209e-17
9.56196e-17
9.56185e-17
9.56178e-17
9.56425e-17
9.56397e-17
9.56373e-17
9.56349e-17
9.56325e-17
9.56302e-17
9.56281e-17
9.5626e-17
9.56241e-17
9.56224e-17
9.56207e-17
9.56194e-17
9.56182e-17
9.56175e-17
9.5643e-17
9.564e-17
9.56375e-17
9.5635e-17
9.56326e-17
9.56303e-17
9.56282e-17
9.56261e-17
9.56242e-17
9.56223e-17
9.56207e-17
9.56193e-17
9.56182e-17
9.56172e-17
9.53549e-17
9.53512e-17
9.53483e-17
9.53457e-17
9.53436e-17
9.53419e-17
9.53405e-17
9.53393e-17
9.53385e-17
9.53379e-17
9.53376e-17
9.53376e-17
9.53378e-17
9.53381e-17
9.53519e-17
9.53487e-17
9.53458e-17
9.53433e-17
9.5341e-17
9.53392e-17
9.53377e-17
9.53365e-17
9.53357e-17
9.53351e-17
9.53348e-17
9.53348e-17
9.5335e-17
9.53352e-17
9.53494e-17
9.53463e-17
9.53433e-17
9.53407e-17
9.53384e-17
9.53365e-17
9.5335e-17
9.53338e-17
9.5333e-17
9.53325e-17
9.53323e-17
9.53324e-17
9.53327e-17
9.53329e-17
9.53472e-17
9.53441e-17
9.53411e-17
9.53384e-17
9.53361e-17
9.53342e-17
9.53327e-17
9.53315e-17
9.53307e-17
9.53302e-17
9.53301e-17
9.53302e-17
9.53307e-17
9.5331e-17
9.53453e-17
9.53422e-17
9.53392e-17
9.53365e-17
9.53342e-17
9.53322e-17
9.53307e-17
9.53295e-17
9.53287e-17
9.53283e-17
9.53282e-17
9.53284e-17
9.5329e-17
9.53295e-17
9.53438e-17
9.53406e-17
9.53376e-17
9.53349e-17
9.53325e-17
9.53306e-17
9.5329e-17
9.53279e-17
9.53271e-17
9.53267e-17
9.53267e-17
9.5327e-17
9.53276e-17
9.53283e-17
9.53426e-17
9.53394e-17
9.53363e-17
9.53337e-17
9.53313e-17
9.53293e-17
9.53278e-17
9.53266e-17
9.53259e-17
9.53255e-17
9.53256e-17
9.53259e-17
9.53266e-17
9.53274e-17
9.53417e-17
9.53385e-17
9.53355e-17
9.53328e-17
9.53305e-17
9.53285e-17
9.5327e-17
9.53258e-17
9.5325e-17
9.53247e-17
9.53248e-17
9.53252e-17
9.53259e-17
9.53268e-17
9.53412e-17
9.53381e-17
9.53351e-17
9.53325e-17
9.53301e-17
9.53281e-17
9.53266e-17
9.53254e-17
9.53247e-17
9.53244e-17
9.53245e-17
9.53249e-17
9.53257e-17
9.53266e-17
9.53411e-17
9.53381e-17
9.53352e-17
9.53325e-17
9.53302e-17
9.53282e-17
9.53267e-17
9.53255e-17
9.53247e-17
9.53244e-17
9.53245e-17
9.53249e-17
9.53257e-17
9.53267e-17
9.53414e-17
9.53385e-17
9.53356e-17
9.5333e-17
9.53307e-17
9.53288e-17
9.53272e-17
9.5326e-17
9.53252e-17
9.53248e-17
9.53249e-17
9.53252e-17
9.5326e-17
9.53269e-17
9.5342e-17
9.53391e-17
9.53363e-17
9.53338e-17
9.53315e-17
9.53296e-17
9.5328e-17
9.53268e-17
9.53259e-17
9.53255e-17
9.53255e-17
9.53258e-17
9.53265e-17
9.53274e-17
9.5343e-17
9.534e-17
9.53374e-17
9.5335e-17
9.53328e-17
9.53308e-17
9.53292e-17
9.53279e-17
9.5327e-17
9.53264e-17
9.53263e-17
9.53266e-17
9.5327e-17
9.5328e-17
9.53445e-17
9.53413e-17
9.53386e-17
9.53361e-17
9.5334e-17
9.53321e-17
9.53305e-17
9.53291e-17
9.53282e-17
9.53275e-17
9.53272e-17
9.53274e-17
9.53279e-17
9.53288e-17
9.50836e-17
9.50807e-17
9.50785e-17
9.50765e-17
9.50749e-17
9.50737e-17
9.50728e-17
9.50722e-17
9.5072e-17
9.50721e-17
9.50725e-17
9.50731e-17
9.50741e-17
9.50751e-17
9.50811e-17
9.50786e-17
9.50763e-17
9.50742e-17
9.50725e-17
9.50711e-17
9.50702e-17
9.50696e-17
9.50693e-17
9.50695e-17
9.50699e-17
9.50706e-17
9.50715e-17
9.50724e-17
9.50789e-17
9.50765e-17
9.5074e-17
9.50719e-17
9.50701e-17
9.50687e-17
9.50677e-17
9.50671e-17
9.50668e-17
9.5067e-17
9.50675e-17
9.50682e-17
9.50693e-17
9.50703e-17
9.5077e-17
9.50745e-17
9.5072e-17
9.50698e-17
9.5068e-17
9.50665e-17
9.50655e-17
9.50649e-17
9.50646e-17
9.50648e-17
9.50654e-17
9.50662e-17
9.50674e-17
9.50685e-17
9.50755e-17
9.50729e-17
9.50703e-17
9.50681e-17
9.50662e-17
9.50647e-17
9.50637e-17
9.5063e-17
9.50628e-17
9.5063e-17
9.50637e-17
9.50646e-17
9.50659e-17
9.50672e-17
9.50743e-17
9.50715e-17
9.5069e-17
9.50667e-17
9.50648e-17
9.50633e-17
9.50622e-17
9.50616e-17
9.50614e-17
9.50617e-17
9.50624e-17
9.50634e-17
9.50648e-17
9.50662e-17
9.50734e-17
9.50707e-17
9.5068e-17
9.50658e-17
9.50638e-17
9.50623e-17
9.50613e-17
9.50607e-17
9.50605e-17
9.50608e-17
9.50616e-17
9.50626e-17
9.5064e-17
9.50656e-17
9.50729e-17
9.50702e-17
9.50676e-17
9.50653e-17
9.50634e-17
9.50619e-17
9.50608e-17
9.50602e-17
9.50601e-17
9.50604e-17
9.50612e-17
9.50623e-17
9.50638e-17
9.50654e-17
9.50729e-17
9.50702e-17
9.50676e-17
9.50654e-17
9.50634e-17
9.50619e-17
9.50609e-17
9.50603e-17
9.50602e-17
9.50605e-17
9.50613e-17
9.50625e-17
9.5064e-17
9.50656e-17
9.50733e-17
9.50706e-17
9.50681e-17
9.50659e-17
9.5064e-17
9.50625e-17
9.50615e-17
9.50608e-17
9.50607e-17
9.50611e-17
9.50618e-17
9.5063e-17
9.50645e-17
9.50661e-17
9.5074e-17
9.50715e-17
9.5069e-17
9.50668e-17
9.5065e-17
9.50635e-17
9.50625e-17
9.50618e-17
9.50616e-17
9.5062e-17
9.50627e-17
9.50638e-17
9.50653e-17
9.50669e-17
9.50751e-17
9.50727e-17
9.50703e-17
9.50682e-17
9.50663e-17
9.50649e-17
9.50638e-17
9.50631e-17
9.50629e-17
9.50632e-17
9.50639e-17
9.50649e-17
9.50664e-17
9.50679e-17
9.50766e-17
9.50742e-17
9.5072e-17
9.50699e-17
9.50681e-17
9.50666e-17
9.50655e-17
9.50648e-17
9.50645e-17
9.50647e-17
9.50653e-17
9.50663e-17
9.50676e-17
9.50691e-17
9.50786e-17
9.50759e-17
9.50736e-17
9.50716e-17
9.50698e-17
9.50684e-17
9.50673e-17
9.50665e-17
9.50662e-17
9.50663e-17
9.50667e-17
9.50676e-17
9.50688e-17
9.50704e-17
9.48453e-17
9.48438e-17
9.48425e-17
9.48414e-17
9.48404e-17
9.48396e-17
9.48391e-17
9.48387e-17
9.48386e-17
9.48387e-17
9.4839e-17
9.48395e-17
9.48402e-17
9.48408e-17
9.4844e-17
9.48427e-17
9.48414e-17
9.48402e-17
9.48392e-17
9.48383e-17
9.48377e-17
9.48373e-17
9.48372e-17
9.48373e-17
9.48376e-17
9.48382e-17
9.48388e-17
9.48394e-17
9.48428e-17
9.48415e-17
9.48401e-17
9.48389e-17
9.48379e-17
9.4837e-17
9.48364e-17
9.4836e-17
9.48359e-17
9.4836e-17
9.48363e-17
9.48368e-17
9.48376e-17
9.48382e-17
9.48418e-17
9.48405e-17
9.48391e-17
9.48379e-17
9.48368e-17
9.48359e-17
9.48353e-17
9.48349e-17
9.48348e-17
9.48349e-17
9.48352e-17
9.48357e-17
9.48365e-17
9.48372e-17
9.4841e-17
9.48396e-17
9.48382e-17
9.4837e-17
9.48359e-17
9.4835e-17
9.48344e-17
9.4834e-17
9.48339e-17
9.4834e-17
9.48343e-17
9.48349e-17
9.48356e-17
9.48364e-17
9.48404e-17
9.48389e-17
9.48376e-17
9.48363e-17
9.48353e-17
9.48344e-17
9.48338e-17
9.48334e-17
9.48332e-17
9.48334e-17
9.48337e-17
9.48343e-17
9.4835e-17
9.48359e-17
9.484e-17
9.48385e-17
9.48371e-17
9.48359e-17
9.48349e-17
9.4834e-17
9.48334e-17
9.4833e-17
9.48329e-17
9.4833e-17
9.48334e-17
9.48339e-17
9.48347e-17
9.48356e-17
9.48398e-17
9.48384e-17
9.4837e-17
9.48358e-17
9.48347e-17
9.48339e-17
9.48332e-17
9.48329e-17
9.48328e-17
9.48329e-17
9.48333e-17
9.48339e-17
9.48347e-17
9.48356e-17
9.484e-17
9.48385e-17
9.48372e-17
9.48359e-17
9.48349e-17
9.4834e-17
9.48334e-17
9.48331e-17
9.48329e-17
9.48331e-17
9.48335e-17
9.48341e-17
9.48349e-17
9.48359e-17
9.48404e-17
9.4839e-17
9.48376e-17
9.48364e-17
9.48353e-17
9.48344e-17
9.48338e-17
9.48335e-17
9.48334e-17
9.48335e-17
9.48339e-17
9.48345e-17
9.48354e-17
9.48363e-17
9.4841e-17
9.48397e-17
9.48383e-17
9.4837e-17
9.4836e-17
9.48351e-17
9.48345e-17
9.48341e-17
9.4834e-17
9.48342e-17
9.48346e-17
9.48352e-17
9.48362e-17
9.4837e-17
9.48419e-17
9.48406e-17
9.48391e-17
9.48379e-17
9.48368e-17
9.48359e-17
9.48353e-17
9.4835e-17
9.48349e-17
9.48351e-17
9.48355e-17
9.48361e-17
9.48371e-17
9.48379e-17
9.48429e-17
9.48416e-17
9.48403e-17
9.4839e-17
9.48379e-17
9.4837e-17
9.48364e-17
9.4836e-17
9.48359e-17
9.48361e-17
9.48366e-17
9.48372e-17
9.48381e-17
9.48389e-17
9.48442e-17
9.48427e-17
9.48413e-17
9.484e-17
9.4839e-17
9.48381e-17
9.48375e-17
9.48371e-17
9.4837e-17
9.48372e-17
9.48376e-17
9.48382e-17
9.4839e-17
9.484e-17
9.46359e-17
9.46358e-17
9.46357e-17
9.46355e-17
9.46353e-17
9.4635e-17
9.46347e-17
9.46344e-17
9.46341e-17
9.46338e-17
9.46335e-17
9.46332e-17
9.46331e-17
9.46328e-17
9.46359e-17
9.4636e-17
9.46358e-17
9.46356e-17
9.46355e-17
9.46352e-17
9.46349e-17
9.46346e-17
9.46342e-17
9.46339e-17
9.46336e-17
9.46334e-17
9.46332e-17
9.46328e-17
9.46359e-17
9.46359e-17
9.46358e-17
9.46357e-17
9.46356e-17
9.46354e-17
9.46351e-17
9.46348e-17
9.46344e-17
9.46341e-17
9.46337e-17
9.46334e-17
9.46331e-17
9.46328e-17
9.46359e-17
9.4636e-17
9.46359e-17
9.46359e-17
9.46357e-17
9.46355e-17
9.46353e-17
9.46349e-17
9.46346e-17
9.46342e-17
9.46338e-17
9.46334e-17
9.46331e-17
9.46327e-17
9.4636e-17
9.46361e-17
9.4636e-17
9.4636e-17
9.46359e-17
9.46357e-17
9.46354e-17
9.46351e-17
9.46347e-17
9.46343e-17
9.46339e-17
9.46335e-17
9.46331e-17
9.46327e-17
9.4636e-17
9.46361e-17
9.46361e-17
9.46361e-17
9.4636e-17
9.46358e-17
9.46355e-17
9.46352e-17
9.46348e-17
9.46344e-17
9.4634e-17
9.46335e-17
9.46331e-17
9.46327e-17
9.46361e-17
9.46361e-17
9.46362e-17
9.46361e-17
9.4636e-17
9.46359e-17
9.46356e-17
9.46353e-17
9.46349e-17
9.46345e-17
9.4634e-17
9.46335e-17
9.4633e-17
9.46326e-17
9.46361e-17
9.46362e-17
9.46362e-17
9.46361e-17
9.46361e-17
9.46359e-17
9.46356e-17
9.46353e-17
9.46349e-17
9.46345e-17
9.4634e-17
9.46335e-17
9.4633e-17
9.46326e-17
9.46362e-17
9.46362e-17
9.46362e-17
9.46361e-17
9.4636e-17
9.46358e-17
9.46356e-17
9.46352e-17
9.46349e-17
9.46344e-17
9.4634e-17
9.46335e-17
9.4633e-17
9.46326e-17
9.46362e-17
9.46362e-17
9.46361e-17
9.4636e-17
9.46359e-17
9.46357e-17
9.46355e-17
9.46352e-17
9.46348e-17
9.46344e-17
9.4634e-17
9.46335e-17
9.4633e-17
9.46326e-17
9.46362e-17
9.46361e-17
9.4636e-17
9.46359e-17
9.46358e-17
9.46356e-17
9.46353e-17
9.4635e-17
9.46347e-17
9.46343e-17
9.46339e-17
9.46335e-17
9.46331e-17
9.46326e-17
9.46361e-17
9.46361e-17
9.46359e-17
9.46357e-17
9.46356e-17
9.46354e-17
9.46351e-17
9.46349e-17
9.46345e-17
9.46342e-17
9.46339e-17
9.46335e-17
9.46332e-17
9.46327e-17
9.46362e-17
9.46361e-17
9.46358e-17
9.46356e-17
9.46354e-17
9.46351e-17
9.46349e-17
9.46346e-17
9.46344e-17
9.46341e-17
9.46339e-17
9.46336e-17
9.46334e-17
9.46329e-17
9.46361e-17
9.46358e-17
9.46355e-17
9.46353e-17
9.46351e-17
9.46349e-17
9.46346e-17
9.46344e-17
9.46343e-17
9.46341e-17
9.46338e-17
9.46336e-17
9.46334e-17
9.46331e-17
9.44479e-17
9.44489e-17
9.44497e-17
9.44503e-17
9.44507e-17
9.44508e-17
9.44508e-17
9.44504e-17
9.44499e-17
9.44493e-17
9.44484e-17
9.44475e-17
9.44464e-17
9.44453e-17
9.44489e-17
9.445e-17
9.44508e-17
9.44514e-17
9.44518e-17
9.44521e-17
9.4452e-17
9.44517e-17
9.44512e-17
9.44505e-17
9.44496e-17
9.44486e-17
9.44475e-17
9.44463e-17
9.44498e-17
9.44509e-17
9.44518e-17
9.44525e-17
9.4453e-17
9.44532e-17
9.44532e-17
9.44529e-17
9.44524e-17
9.44517e-17
9.44507e-17
9.44496e-17
9.44484e-17
9.44471e-17
9.44506e-17
9.44517e-17
9.44527e-17
9.44534e-17
9.44539e-17
9.44542e-17
9.44542e-17
9.44539e-17
9.44534e-17
9.44526e-17
9.44517e-17
9.44505e-17
9.44492e-17
9.44478e-17
9.44513e-17
9.44524e-17
9.44534e-17
9.44542e-17
9.44547e-17
9.4455e-17
9.4455e-17
9.44547e-17
9.44542e-17
9.44534e-17
9.44524e-17
9.44511e-17
9.44497e-17
9.44483e-17
9.44517e-17
9.44529e-17
9.44539e-17
9.44547e-17
9.44552e-17
9.44555e-17
9.44555e-17
9.44552e-17
9.44547e-17
9.44539e-17
9.44528e-17
9.44516e-17
9.44501e-17
9.44486e-17
9.4452e-17
9.44532e-17
9.44542e-17
9.4455e-17
9.44555e-17
9.44558e-17
9.44558e-17
9.44555e-17
9.4455e-17
9.44541e-17
9.44531e-17
9.44518e-17
9.44502e-17
9.44487e-17
9.44521e-17
9.44532e-17
9.44542e-17
9.4455e-17
9.44555e-17
9.44558e-17
9.44558e-17
9.44555e-17
9.4455e-17
9.44541e-17
9.4453e-17
9.44517e-17
9.44501e-17
9.44485e-17
9.44519e-17
9.44529e-17
9.44539e-17
9.44547e-17
9.44552e-17
9.44555e-17
9.44555e-17
9.44552e-17
9.44546e-17
9.44538e-17
9.44527e-17
9.44514e-17
9.44498e-17
9.44482e-17
9.44515e-17
9.44524e-17
9.44534e-17
9.44541e-17
9.44546e-17
9.44549e-17
9.44549e-17
9.44546e-17
9.44541e-17
9.44532e-17
9.44521e-17
9.44508e-17
9.44493e-17
9.44477e-17
9.44508e-17
9.44517e-17
9.44526e-17
9.44533e-17
9.44538e-17
9.44541e-17
9.44541e-17
9.44538e-17
9.44532e-17
9.44524e-17
9.44514e-17
9.44501e-17
9.44487e-17
9.44471e-17
9.44499e-17
9.44508e-17
9.44515e-17
9.44522e-17
9.44527e-17
9.4453e-17
9.4453e-17
9.44527e-17
9.44522e-17
9.44515e-17
9.44505e-17
9.44493e-17
9.44479e-17
9.44464e-17
9.44489e-17
9.44497e-17
9.44504e-17
9.4451e-17
9.44514e-17
9.44516e-17
9.44517e-17
9.44514e-17
9.4451e-17
9.44503e-17
9.44494e-17
9.44483e-17
9.44471e-17
9.44455e-17
9.44475e-17
9.44483e-17
9.44489e-17
9.44495e-17
9.44499e-17
9.44502e-17
9.44502e-17
9.44501e-17
9.44497e-17
9.44491e-17
9.44483e-17
9.44473e-17
9.44461e-17
9.44447e-17
9.42739e-17
9.42754e-17
9.42767e-17
9.42777e-17
9.42783e-17
9.42787e-17
9.42788e-17
9.42785e-17
9.42779e-17
9.42771e-17
9.4276e-17
9.42747e-17
9.42732e-17
9.42715e-17
9.42753e-17
9.42769e-17
9.42781e-17
9.42792e-17
9.42799e-17
9.42804e-17
9.42805e-17
9.42802e-17
9.42796e-17
9.42787e-17
9.42776e-17
9.42762e-17
9.42747e-17
9.4273e-17
9.42766e-17
9.42781e-17
9.42795e-17
9.42806e-17
9.42814e-17
9.42819e-17
9.4282e-17
9.42818e-17
9.42812e-17
9.42803e-17
9.42791e-17
9.42776e-17
9.4276e-17
9.42743e-17
9.42777e-17
9.42793e-17
9.42807e-17
9.42818e-17
9.42826e-17
9.42831e-17
9.42832e-17
9.4283e-17
9.42824e-17
9.42815e-17
9.42803e-17
9.42788e-17
9.42771e-17
9.42753e-17
9.42786e-17
9.42802e-17
9.42816e-17
9.42827e-17
9.42836e-17
9.42841e-17
9.42842e-17
9.4284e-17
9.42834e-17
9.42825e-17
9.42812e-17
9.42797e-17
9.42779e-17
9.4276e-17
9.42792e-17
9.42808e-17
9.42822e-17
9.42833e-17
9.42842e-17
9.42847e-17
9.42848e-17
9.42846e-17
9.4284e-17
9.42831e-17
9.42818e-17
9.42802e-17
9.42784e-17
9.42764e-17
9.42795e-17
9.42811e-17
9.42825e-17
9.42836e-17
9.42844e-17
9.4285e-17
9.42851e-17
9.42849e-17
9.42843e-17
9.42833e-17
9.4282e-17
9.42804e-17
9.42785e-17
9.42765e-17
9.42795e-17
9.4281e-17
9.42824e-17
9.42835e-17
9.42843e-17
9.42848e-17
9.4285e-17
9.42847e-17
9.42841e-17
9.42832e-17
9.42819e-17
9.42803e-17
9.42783e-17
9.42762e-17
9.42791e-17
9.42806e-17
9.4282e-17
9.4283e-17
9.42838e-17
9.42843e-17
9.42845e-17
9.42842e-17
9.42836e-17
9.42827e-17
9.42813e-17
9.42797e-17
9.42778e-17
9.42757e-17
9.42784e-17
9.42798e-17
9.42811e-17
9.42822e-17
9.4283e-17
9.42835e-17
9.42836e-17
9.42834e-17
9.42828e-17
9.42818e-17
9.42805e-17
9.42789e-17
9.4277e-17
9.42749e-17
9.42774e-17
9.42787e-17
9.428e-17
9.4281e-17
9.42818e-17
9.42823e-17
9.42824e-17
9.42822e-17
9.42816e-17
9.42807e-17
9.42794e-17
9.42778e-17
9.42759e-17
9.42739e-17
9.4276e-17
9.42772e-17
9.42785e-17
9.42795e-17
9.42803e-17
9.42808e-17
9.42809e-17
9.42807e-17
9.42801e-17
9.42792e-17
9.4278e-17
9.42764e-17
9.42746e-17
9.42726e-17
9.42743e-17
9.42756e-17
9.42767e-17
9.42777e-17
9.42784e-17
9.42789e-17
9.42791e-17
9.42789e-17
9.42784e-17
9.42775e-17
9.42763e-17
9.42748e-17
9.42731e-17
9.42712e-17
9.42723e-17
9.42736e-17
9.42747e-17
9.42757e-17
9.42764e-17
9.42769e-17
9.42771e-17
9.4277e-17
9.42765e-17
9.42757e-17
9.42746e-17
9.42732e-17
9.42715e-17
9.42696e-17
9.41084e-17
9.411e-17
9.41113e-17
9.41124e-17
9.41131e-17
9.41136e-17
9.41137e-17
9.41135e-17
9.4113e-17
9.41121e-17
9.4111e-17
9.41097e-17
9.41081e-17
9.41064e-17
9.41098e-17
9.41114e-17
9.41127e-17
9.41138e-17
9.41146e-17
9.41151e-17
9.41153e-17
9.41151e-17
9.41145e-17
9.41137e-17
9.41126e-17
9.41112e-17
9.41096e-17
9.41079e-17
9.4111e-17
9.41126e-17
9.4114e-17
9.41152e-17
9.4116e-17
9.41165e-17
9.41167e-17
9.41165e-17
9.41159e-17
9.41151e-17
9.4114e-17
9.41126e-17
9.41109e-17
9.41092e-17
9.41121e-17
9.41137e-17
9.41151e-17
9.41162e-17
9.41171e-17
9.41176e-17
9.41177e-17
9.41176e-17
9.4117e-17
9.41162e-17
9.41151e-17
9.41137e-17
9.4112e-17
9.41102e-17
9.41129e-17
9.41145e-17
9.41159e-17
9.4117e-17
9.41179e-17
9.41184e-17
9.41185e-17
9.41184e-17
9.41179e-17
9.4117e-17
9.41159e-17
9.41145e-17
9.41128e-17
9.41109e-17
9.41134e-17
9.4115e-17
9.41164e-17
9.41175e-17
9.41184e-17
9.41189e-17
9.4119e-17
9.41189e-17
9.41184e-17
9.41175e-17
9.41164e-17
9.41149e-17
9.41132e-17
9.41113e-17
9.41137e-17
9.41152e-17
9.41166e-17
9.41177e-17
9.41185e-17
9.4119e-17
9.41192e-17
9.4119e-17
9.41185e-17
9.41177e-17
9.41165e-17
9.41151e-17
9.41133e-17
9.41114e-17
9.41135e-17
9.41151e-17
9.41164e-17
9.41175e-17
9.41183e-17
9.41188e-17
9.4119e-17
9.41188e-17
9.41183e-17
9.41174e-17
9.41163e-17
9.41148e-17
9.4113e-17
9.41111e-17
9.41131e-17
9.41146e-17
9.41159e-17
9.41169e-17
9.41177e-17
9.41182e-17
9.41184e-17
9.41182e-17
9.41177e-17
9.41169e-17
9.41157e-17
9.41142e-17
9.41124e-17
9.41105e-17
9.41123e-17
9.41137e-17
9.4115e-17
9.41161e-17
9.41169e-17
9.41174e-17
9.41175e-17
9.41174e-17
9.41168e-17
9.4116e-17
9.41148e-17
9.41133e-17
9.41115e-17
9.41096e-17
9.41112e-17
9.41125e-17
9.41138e-17
9.41148e-17
9.41156e-17
9.41161e-17
9.41163e-17
9.41161e-17
9.41156e-17
9.41148e-17
9.41136e-17
9.41122e-17
9.41104e-17
9.41084e-17
9.41097e-17
9.4111e-17
9.41123e-17
9.41133e-17
9.41141e-17
9.41146e-17
9.41148e-17
9.41147e-17
9.41142e-17
9.41133e-17
9.41122e-17
9.41107e-17
9.41089e-17
9.4107e-17
9.41079e-17
9.41092e-17
9.41104e-17
9.41115e-17
9.41123e-17
9.41128e-17
9.4113e-17
9.41129e-17
9.41124e-17
9.41116e-17
9.41105e-17
9.4109e-17
9.41073e-17
9.41054e-17
9.41059e-17
9.41072e-17
9.41084e-17
9.41095e-17
9.41102e-17