/*--------------------------------*- C++ -*----------------------------------*\
| =========                 |                                                 |
| \\      /  F ield         | OpenFOAM: The Open Source CFD Toolbox           |
|  \\    /   O peration     | Version:  v2106                                 |
|   \\  /    A nd           | Website:  www.openfoam.com                      |
|    \\/     M anipulation  |                                                 |
\*---------------------------------------------------------------------------*/
FoamFile
{
    version     2.0;
    format      ascii;
    arch        "LSB;label=32;scalar=64";
    class       volScalarField;
    location    "0.000151";
    object      k;
}
// * * * * * * * * * * * * * * * * * * * * * * * * * * * * * * * * * * * * * //

dimensions      [0 2 -2 0 0 0 0];

internalField   nonuniform List<scalar> 
17924
(
2.95091e-12
2.95106e-12
2.95122e-12
2.95139e-12
2.94632e-12
2.94638e-12
2.94647e-12
2.94657e-12
2.94666e-12
2.94675e-12
2.94685e-12
2.94659e-12
2.94665e-12
2.94674e-12
2.94683e-12
2.94692e-12
2.94702e-12
2.94711e-12
2.94686e-12
2.94693e-12
2.94702e-12
2.94711e-12
2.9472e-12
2.9473e-12
2.94739e-12
2.94714e-12
2.94721e-12
2.9473e-12
2.94739e-12
2.94748e-12
2.94757e-12
2.94766e-12
2.94742e-12
2.94749e-12
2.94758e-12
2.94767e-12
2.94776e-12
2.94785e-12
2.94793e-12
2.9477e-12
2.94778e-12
2.94786e-12
2.94795e-12
2.94803e-12
2.94812e-12
2.94821e-12
2.94798e-12
2.94806e-12
2.94814e-12
2.94823e-12
2.94831e-12
2.94839e-12
2.94848e-12
2.94827e-12
2.94835e-12
2.94843e-12
2.94851e-12
2.94859e-12
2.94867e-12
2.94875e-12
2.94856e-12
2.94864e-12
2.94871e-12
2.94879e-12
2.94887e-12
2.94895e-12
2.94903e-12
2.94885e-12
2.94893e-12
2.949e-12
2.94908e-12
2.94915e-12
2.94923e-12
2.94932e-12
2.94915e-12
2.94923e-12
2.94929e-12
2.94937e-12
2.94944e-12
2.94953e-12
2.94961e-12
2.94945e-12
2.94953e-12
2.94959e-12
2.94967e-12
2.94974e-12
2.94982e-12
2.9499e-12
2.94974e-12
2.94982e-12
2.94988e-12
2.94996e-12
2.95003e-12
2.95011e-12
2.95019e-12
2.95005e-12
2.95012e-12
2.95018e-12
2.95025e-12
2.95033e-12
2.95041e-12
2.95049e-12
2.94214e-12
2.94214e-12
2.94217e-12
2.9422e-12
2.94223e-12
2.94226e-12
2.94229e-12
2.94232e-12
2.94235e-12
2.94238e-12
2.9424e-12
2.94243e-12
2.94246e-12
2.94251e-12
2.94234e-12
2.94234e-12
2.94236e-12
2.94239e-12
2.94242e-12
2.94245e-12
2.94248e-12
2.94251e-12
2.94254e-12
2.94257e-12
2.94259e-12
2.94262e-12
2.94264e-12
2.94269e-12
2.94253e-12
2.94253e-12
2.94256e-12
2.94259e-12
2.94262e-12
2.94265e-12
2.94268e-12
2.9427e-12
2.94273e-12
2.94275e-12
2.94277e-12
2.94279e-12
2.94281e-12
2.94286e-12
2.94273e-12
2.94274e-12
2.94276e-12
2.94279e-12
2.94281e-12
2.94284e-12
2.94287e-12
2.94289e-12
2.94292e-12
2.94294e-12
2.94295e-12
2.94297e-12
2.94299e-12
2.94302e-12
2.94292e-12
2.94293e-12
2.94296e-12
2.94298e-12
2.94301e-12
2.94303e-12
2.94306e-12
2.94308e-12
2.9431e-12
2.94312e-12
2.94313e-12
2.94315e-12
2.94316e-12
2.94318e-12
2.94312e-12
2.94313e-12
2.94315e-12
2.94317e-12
2.9432e-12
2.94322e-12
2.94324e-12
2.94326e-12
2.94328e-12
2.94329e-12
2.94331e-12
2.94332e-12
2.94333e-12
2.94335e-12
2.94331e-12
2.94332e-12
2.94334e-12
2.94336e-12
2.94338e-12
2.9434e-12
2.94343e-12
2.94344e-12
2.94346e-12
2.94347e-12
2.94348e-12
2.94349e-12
2.9435e-12
2.94351e-12
2.9435e-12
2.94351e-12
2.94353e-12
2.94355e-12
2.94357e-12
2.94359e-12
2.94361e-12
2.94362e-12
2.94364e-12
2.94365e-12
2.94366e-12
2.94367e-12
2.94368e-12
2.94368e-12
2.94369e-12
2.9437e-12
2.94372e-12
2.94373e-12
2.94375e-12
2.94377e-12
2.94379e-12
2.94381e-12
2.94382e-12
2.94383e-12
2.94384e-12
2.94385e-12
2.94386e-12
2.94386e-12
2.94388e-12
2.94389e-12
2.9439e-12
2.94392e-12
2.94394e-12
2.94396e-12
2.94397e-12
2.94399e-12
2.94401e-12
2.94402e-12
2.94403e-12
2.94404e-12
2.94405e-12
2.94405e-12
2.94406e-12
2.94408e-12
2.94409e-12
2.94411e-12
2.94412e-12
2.94414e-12
2.94416e-12
2.94418e-12
2.9442e-12
2.94421e-12
2.94422e-12
2.94424e-12
2.94425e-12
2.94425e-12
2.94425e-12
2.94427e-12
2.94428e-12
2.94429e-12
2.94431e-12
2.94433e-12
2.94435e-12
2.94437e-12
2.94439e-12
2.94441e-12
2.94442e-12
2.94444e-12
2.94446e-12
2.94446e-12
2.94443e-12
2.94446e-12
2.94446e-12
2.94448e-12
2.9445e-12
2.94452e-12
2.94454e-12
2.94456e-12
2.94459e-12
2.94461e-12
2.94463e-12
2.94465e-12
2.94467e-12
2.94467e-12
2.94463e-12
2.94464e-12
2.94465e-12
2.94466e-12
2.94468e-12
2.94471e-12
2.94473e-12
2.94476e-12
2.94479e-12
2.94481e-12
2.94484e-12
2.94486e-12
2.94489e-12
2.94491e-12
2.93814e-12
2.93813e-12
2.93812e-12
2.93812e-12
2.9381e-12
2.93809e-12
2.93807e-12
2.93805e-12
2.93803e-12
2.93801e-12
2.93798e-12
2.93796e-12
2.93794e-12
2.93795e-12
2.93827e-12
2.93825e-12
2.93824e-12
2.93823e-12
2.93822e-12
2.93821e-12
2.93819e-12
2.93817e-12
2.93814e-12
2.93812e-12
2.9381e-12
2.93808e-12
2.93805e-12
2.93805e-12
2.93839e-12
2.93837e-12
2.93836e-12
2.93835e-12
2.93834e-12
2.93832e-12
2.9383e-12
2.93828e-12
2.93826e-12
2.93823e-12
2.93821e-12
2.93819e-12
2.93816e-12
2.93816e-12
2.9385e-12
2.93849e-12
2.93848e-12
2.93846e-12
2.93845e-12
2.93843e-12
2.93841e-12
2.93839e-12
2.93837e-12
2.93834e-12
2.93832e-12
2.93829e-12
2.93826e-12
2.93825e-12
2.93862e-12
2.9386e-12
2.93859e-12
2.93858e-12
2.93856e-12
2.93854e-12
2.93852e-12
2.9385e-12
2.93848e-12
2.93845e-12
2.93842e-12
2.9384e-12
2.93837e-12
2.93835e-12
2.93873e-12
2.93872e-12
2.9387e-12
2.93869e-12
2.93867e-12
2.93865e-12
2.93863e-12
2.93861e-12
2.93858e-12
2.93855e-12
2.93852e-12
2.9385e-12
2.93847e-12
2.93844e-12
2.93884e-12
2.93883e-12
2.93881e-12
2.93879e-12
2.93878e-12
2.93876e-12
2.93873e-12
2.93871e-12
2.93868e-12
2.93865e-12
2.93863e-12
2.9386e-12
2.93856e-12
2.93853e-12
2.93895e-12
2.93893e-12
2.93892e-12
2.9389e-12
2.93888e-12
2.93886e-12
2.93884e-12
2.93881e-12
2.93879e-12
2.93876e-12
2.93873e-12
2.93869e-12
2.93866e-12
2.93862e-12
2.93905e-12
2.93903e-12
2.93902e-12
2.939e-12
2.93898e-12
2.93896e-12
2.93894e-12
2.93891e-12
2.93889e-12
2.93886e-12
2.93883e-12
2.93879e-12
2.93876e-12
2.93872e-12
2.93914e-12
2.93913e-12
2.93911e-12
2.93909e-12
2.93908e-12
2.93906e-12
2.93904e-12
2.93901e-12
2.93899e-12
2.93896e-12
2.93893e-12
2.93889e-12
2.93886e-12
2.93881e-12
2.93923e-12
2.93922e-12
2.9392e-12
2.93919e-12
2.93917e-12
2.93915e-12
2.93913e-12
2.93911e-12
2.93909e-12
2.93906e-12
2.93903e-12
2.93899e-12
2.93896e-12
2.93891e-12
2.93932e-12
2.93931e-12
2.93929e-12
2.93928e-12
2.93926e-12
2.93924e-12
2.93923e-12
2.93921e-12
2.93918e-12
2.93916e-12
2.93913e-12
2.93909e-12
2.93906e-12
2.93901e-12
2.93941e-12
2.93939e-12
2.93938e-12
2.93936e-12
2.93935e-12
2.93933e-12
2.93932e-12
2.9393e-12
2.93928e-12
2.93925e-12
2.93923e-12
2.93919e-12
2.93916e-12
2.93911e-12
2.93949e-12
2.93948e-12
2.93946e-12
2.93944e-12
2.93943e-12
2.93942e-12
2.93941e-12
2.9394e-12
2.93938e-12
2.93936e-12
2.93933e-12
2.9393e-12
2.93927e-12
2.93923e-12
2.93412e-12
2.93409e-12
2.93406e-12
2.93402e-12
2.93399e-12
2.93395e-12
2.93391e-12
2.93387e-12
2.93382e-12
2.93378e-12
2.93374e-12
2.93369e-12
2.93365e-12
2.93362e-12
2.93418e-12
2.93414e-12
2.93411e-12
2.93408e-12
2.93404e-12
2.934e-12
2.93396e-12
2.93392e-12
2.93387e-12
2.93383e-12
2.93379e-12
2.93374e-12
2.9337e-12
2.93366e-12
2.93423e-12
2.93419e-12
2.93416e-12
2.93413e-12
2.93409e-12
2.93405e-12
2.93401e-12
2.93397e-12
2.93393e-12
2.93388e-12
2.93384e-12
2.93379e-12
2.93375e-12
2.93371e-12
2.93428e-12
2.93424e-12
2.93421e-12
2.93418e-12
2.93414e-12
2.9341e-12
2.93406e-12
2.93402e-12
2.93397e-12
2.93393e-12
2.93389e-12
2.93384e-12
2.9338e-12
2.93376e-12
2.93433e-12
2.93429e-12
2.93426e-12
2.93423e-12
2.93419e-12
2.93415e-12
2.93411e-12
2.93407e-12
2.93402e-12
2.93398e-12
2.93393e-12
2.93389e-12
2.93384e-12
2.9338e-12
2.93437e-12
2.93434e-12
2.93431e-12
2.93427e-12
2.93424e-12
2.9342e-12
2.93416e-12
2.93411e-12
2.93407e-12
2.93402e-12
2.93398e-12
2.93393e-12
2.93389e-12
2.93384e-12
2.93442e-12
2.93439e-12
2.93435e-12
2.93432e-12
2.93428e-12
2.93424e-12
2.9342e-12
2.93416e-12
2.93412e-12
2.93407e-12
2.93403e-12
2.93398e-12
2.93393e-12
2.93388e-12
2.93446e-12
2.93443e-12
2.93439e-12
2.93436e-12
2.93432e-12
2.93429e-12
2.93425e-12
2.9342e-12
2.93416e-12
2.93412e-12
2.93407e-12
2.93402e-12
2.93397e-12
2.93392e-12
2.93449e-12
2.93446e-12
2.93443e-12
2.9344e-12
2.93436e-12
2.93433e-12
2.93429e-12
2.93425e-12
2.9342e-12
2.93416e-12
2.93411e-12
2.93406e-12
2.93401e-12
2.93396e-12
2.93452e-12
2.93449e-12
2.93446e-12
2.93443e-12
2.9344e-12
2.93436e-12
2.93432e-12
2.93428e-12
2.93424e-12
2.93419e-12
2.93415e-12
2.9341e-12
2.93404e-12
2.93399e-12
2.93454e-12
2.93452e-12
2.93449e-12
2.93446e-12
2.93443e-12
2.93439e-12
2.93436e-12
2.93432e-12
2.93428e-12
2.93423e-12
2.93418e-12
2.93413e-12
2.93407e-12
2.93402e-12
2.93457e-12
2.93454e-12
2.93451e-12
2.93449e-12
2.93446e-12
2.93442e-12
2.93439e-12
2.93435e-12
2.93431e-12
2.93426e-12
2.93421e-12
2.93416e-12
2.9341e-12
2.93404e-12
2.93459e-12
2.93456e-12
2.93454e-12
2.93451e-12
2.93448e-12
2.93445e-12
2.93441e-12
2.93438e-12
2.93433e-12
2.93429e-12
2.93424e-12
2.93418e-12
2.93413e-12
2.93407e-12
2.93461e-12
2.93458e-12
2.93456e-12
2.93453e-12
2.9345e-12
2.93447e-12
2.93444e-12
2.9344e-12
2.93436e-12
2.93432e-12
2.93427e-12
2.93421e-12
2.93416e-12
2.9341e-12
2.92993e-12
2.92988e-12
2.92983e-12
2.92978e-12
2.92974e-12
2.9297e-12
2.92965e-12
2.92961e-12
2.92957e-12
2.92953e-12
2.92949e-12
2.92945e-12
2.92941e-12
2.92937e-12
2.92993e-12
2.92988e-12
2.92984e-12
2.92979e-12
2.92975e-12
2.9297e-12
2.92966e-12
2.92962e-12
2.92957e-12
2.92953e-12
2.92949e-12
2.92945e-12
2.92941e-12
2.92937e-12
2.92993e-12
2.92989e-12
2.92984e-12
2.9298e-12
2.92975e-12
2.92971e-12
2.92966e-12
2.92962e-12
2.92958e-12
2.92954e-12
2.9295e-12
2.92946e-12
2.92942e-12
2.92938e-12
2.92993e-12
2.92989e-12
2.92985e-12
2.9298e-12
2.92976e-12
2.92971e-12
2.92967e-12
2.92963e-12
2.92959e-12
2.92955e-12
2.9295e-12
2.92946e-12
2.92942e-12
2.92938e-12
2.92994e-12
2.92989e-12
2.92985e-12
2.92981e-12
2.92976e-12
2.92972e-12
2.92968e-12
2.92964e-12
2.92959e-12
2.92955e-12
2.92951e-12
2.92947e-12
2.92943e-12
2.92939e-12
2.92994e-12
2.9299e-12
2.92985e-12
2.92981e-12
2.92977e-12
2.92973e-12
2.92969e-12
2.92964e-12
2.9296e-12
2.92956e-12
2.92952e-12
2.92948e-12
2.92944e-12
2.9294e-12
2.92994e-12
2.9299e-12
2.92986e-12
2.92982e-12
2.92978e-12
2.92974e-12
2.92969e-12
2.92965e-12
2.92961e-12
2.92957e-12
2.92953e-12
2.92949e-12
2.92944e-12
2.9294e-12
2.92993e-12
2.9299e-12
2.92986e-12
2.92982e-12
2.92978e-12
2.92974e-12
2.9297e-12
2.92966e-12
2.92962e-12
2.92958e-12
2.92953e-12
2.92949e-12
2.92945e-12
2.92941e-12
2.92993e-12
2.9299e-12
2.92986e-12
2.92982e-12
2.92979e-12
2.92975e-12
2.92971e-12
2.92967e-12
2.92962e-12
2.92958e-12
2.92954e-12
2.92949e-12
2.92945e-12
2.92941e-12
2.92993e-12
2.92989e-12
2.92986e-12
2.92982e-12
2.92979e-12
2.92975e-12
2.92971e-12
2.92967e-12
2.92963e-12
2.92958e-12
2.92954e-12
2.9295e-12
2.92945e-12
2.92941e-12
2.92992e-12
2.92989e-12
2.92986e-12
2.92982e-12
2.92979e-12
2.92975e-12
2.92971e-12
2.92967e-12
2.92963e-12
2.92958e-12
2.92954e-12
2.92949e-12
2.92945e-12
2.92941e-12
2.92992e-12
2.92989e-12
2.92986e-12
2.92982e-12
2.92978e-12
2.92975e-12
2.92971e-12
2.92967e-12
2.92962e-12
2.92958e-12
2.92954e-12
2.92949e-12
2.92945e-12
2.92941e-12
2.92992e-12
2.92988e-12
2.92985e-12
2.92982e-12
2.92978e-12
2.92975e-12
2.92971e-12
2.92967e-12
2.92962e-12
2.92958e-12
2.92953e-12
2.92949e-12
2.92945e-12
2.9294e-12
2.92992e-12
2.92988e-12
2.92985e-12
2.92982e-12
2.92978e-12
2.92975e-12
2.92971e-12
2.92966e-12
2.92962e-12
2.92958e-12
2.92953e-12
2.92949e-12
2.92945e-12
2.9294e-12
2.92566e-12
2.9256e-12
2.92554e-12
2.9255e-12
2.92546e-12
2.92542e-12
2.92539e-12
2.92535e-12
2.92533e-12
2.9253e-12
2.92528e-12
2.92525e-12
2.92523e-12
2.92522e-12
2.92562e-12
2.92557e-12
2.92552e-12
2.92547e-12
2.92543e-12
2.92539e-12
2.92536e-12
2.92533e-12
2.9253e-12
2.92527e-12
2.92525e-12
2.92522e-12
2.9252e-12
2.92519e-12
2.92559e-12
2.92554e-12
2.92549e-12
2.92545e-12
2.92541e-12
2.92537e-12
2.92533e-12
2.9253e-12
2.92528e-12
2.92525e-12
2.92523e-12
2.9252e-12
2.92518e-12
2.92516e-12
2.92557e-12
2.92552e-12
2.92547e-12
2.92543e-12
2.92539e-12
2.92535e-12
2.92531e-12
2.92528e-12
2.92525e-12
2.92523e-12
2.92521e-12
2.92518e-12
2.92516e-12
2.92515e-12
2.92554e-12
2.9255e-12
2.92545e-12
2.92541e-12
2.92537e-12
2.92533e-12
2.9253e-12
2.92526e-12
2.92524e-12
2.92521e-12
2.92519e-12
2.92517e-12
2.92515e-12
2.92513e-12
2.92552e-12
2.92548e-12
2.92543e-12
2.92539e-12
2.92535e-12
2.92531e-12
2.92528e-12
2.92525e-12
2.92522e-12
2.9252e-12
2.92517e-12
2.92515e-12
2.92513e-12
2.92512e-12
2.92551e-12
2.92546e-12
2.92542e-12
2.92538e-12
2.92534e-12
2.9253e-12
2.92527e-12
2.92524e-12
2.92521e-12
2.92518e-12
2.92516e-12
2.92514e-12
2.92512e-12
2.92511e-12
2.92549e-12
2.92545e-12
2.92541e-12
2.92536e-12
2.92533e-12
2.92529e-12
2.92526e-12
2.92523e-12
2.9252e-12
2.92517e-12
2.92515e-12
2.92513e-12
2.92511e-12
2.9251e-12
2.92548e-12
2.92544e-12
2.9254e-12
2.92536e-12
2.92532e-12
2.92528e-12
2.92525e-12
2.92522e-12
2.92519e-12
2.92516e-12
2.92514e-12
2.92512e-12
2.9251e-12
2.92509e-12
2.92547e-12
2.92543e-12
2.92539e-12
2.92535e-12
2.92531e-12
2.92527e-12
2.92524e-12
2.92521e-12
2.92518e-12
2.92516e-12
2.92513e-12
2.92511e-12
2.9251e-12
2.92509e-12
2.92546e-12
2.92542e-12
2.92538e-12
2.92534e-12
2.92531e-12
2.92527e-12
2.92524e-12
2.92521e-12
2.92518e-12
2.92515e-12
2.92513e-12
2.92511e-12
2.92509e-12
2.92508e-12
2.92546e-12
2.92542e-12
2.92538e-12
2.92534e-12
2.92531e-12
2.92527e-12
2.92524e-12
2.92521e-12
2.92518e-12
2.92515e-12
2.92513e-12
2.9251e-12
2.92509e-12
2.92508e-12
2.92546e-12
2.92542e-12
2.92538e-12
2.92534e-12
2.92531e-12
2.92527e-12
2.92524e-12
2.92521e-12
2.92518e-12
2.92515e-12
2.92512e-12
2.9251e-12
2.92508e-12
2.92507e-12
2.92547e-12
2.92543e-12
2.92539e-12
2.92535e-12
2.92531e-12
2.92527e-12
2.92524e-12
2.92521e-12
2.92518e-12
2.92515e-12
2.92512e-12
2.9251e-12
2.92508e-12
2.92507e-12
2.92155e-12
2.9215e-12
2.92145e-12
2.92141e-12
2.92138e-12
2.92135e-12
2.92133e-12
2.92131e-12
2.9213e-12
2.92129e-12
2.92128e-12
2.92128e-12
2.92128e-12
2.92129e-12
2.92151e-12
2.92146e-12
2.92141e-12
2.92137e-12
2.92134e-12
2.92131e-12
2.92129e-12
2.92127e-12
2.92125e-12
2.92124e-12
2.92124e-12
2.92124e-12
2.92124e-12
2.92124e-12
2.92147e-12
2.92142e-12
2.92137e-12
2.92133e-12
2.9213e-12
2.92127e-12
2.92125e-12
2.92123e-12
2.92121e-12
2.9212e-12
2.9212e-12
2.9212e-12
2.92121e-12
2.92121e-12
2.92143e-12
2.92139e-12
2.92134e-12
2.9213e-12
2.92126e-12
2.92123e-12
2.92121e-12
2.92119e-12
2.92118e-12
2.92117e-12
2.92117e-12
2.92117e-12
2.92117e-12
2.92118e-12
2.92141e-12
2.92136e-12
2.92131e-12
2.92127e-12
2.92123e-12
2.9212e-12
2.92118e-12
2.92116e-12
2.92115e-12
2.92114e-12
2.92114e-12
2.92114e-12
2.92115e-12
2.92116e-12
2.92138e-12
2.92133e-12
2.92129e-12
2.92124e-12
2.92121e-12
2.92118e-12
2.92115e-12
2.92114e-12
2.92112e-12
2.92112e-12
2.92112e-12
2.92112e-12
2.92113e-12
2.92114e-12
2.92136e-12
2.92131e-12
2.92127e-12
2.92123e-12
2.92119e-12
2.92116e-12
2.92114e-12
2.92112e-12
2.9211e-12
2.9211e-12
2.9211e-12
2.9211e-12
2.92111e-12
2.92112e-12
2.92135e-12
2.9213e-12
2.92126e-12
2.92121e-12
2.92118e-12
2.92115e-12
2.92112e-12
2.9211e-12
2.92109e-12
2.92109e-12
2.92109e-12
2.92109e-12
2.9211e-12
2.92112e-12
2.92134e-12
2.92129e-12
2.92125e-12
2.92121e-12
2.92117e-12
2.92114e-12
2.92112e-12
2.9211e-12
2.92109e-12
2.92108e-12
2.92108e-12
2.92109e-12
2.9211e-12
2.92111e-12
2.92134e-12
2.92129e-12
2.92125e-12
2.92121e-12
2.92117e-12
2.92114e-12
2.92112e-12
2.9211e-12
2.92109e-12
2.92108e-12
2.92108e-12
2.92109e-12
2.9211e-12
2.92111e-12
2.92134e-12
2.9213e-12
2.92126e-12
2.92122e-12
2.92118e-12
2.92115e-12
2.92113e-12
2.92111e-12
2.92109e-12
2.92109e-12
2.92109e-12
2.92109e-12
2.9211e-12
2.92112e-12
2.92135e-12
2.92131e-12
2.92127e-12
2.92123e-12
2.92119e-12
2.92116e-12
2.92114e-12
2.92112e-12
2.9211e-12
2.9211e-12
2.9211e-12
2.9211e-12
2.92111e-12
2.92112e-12
2.92137e-12
2.92132e-12
2.92128e-12
2.92125e-12
2.92121e-12
2.92118e-12
2.92116e-12
2.92114e-12
2.92112e-12
2.92111e-12
2.92111e-12
2.92111e-12
2.92112e-12
2.92113e-12
2.92139e-12
2.92134e-12
2.9213e-12
2.92126e-12
2.92123e-12
2.9212e-12
2.92117e-12
2.92115e-12
2.92114e-12
2.92113e-12
2.92112e-12
2.92112e-12
2.92113e-12
2.92115e-12
2.91785e-12
2.91781e-12
2.91777e-12
2.91774e-12
2.91772e-12
2.9177e-12
2.91768e-12
2.91768e-12
2.91767e-12
2.91767e-12
2.91768e-12
2.91769e-12
2.9177e-12
2.91772e-12
2.91781e-12
2.91777e-12
2.91774e-12
2.91771e-12
2.91768e-12
2.91766e-12
2.91764e-12
2.91763e-12
2.91763e-12
2.91763e-12
2.91764e-12
2.91765e-12
2.91766e-12
2.91768e-12
2.91778e-12
2.91774e-12
2.9177e-12
2.91767e-12
2.91764e-12
2.91762e-12
2.91761e-12
2.9176e-12
2.91759e-12
2.91759e-12
2.9176e-12
2.91761e-12
2.91763e-12
2.91764e-12
2.91775e-12
2.91771e-12
2.91767e-12
2.91764e-12
2.91761e-12
2.91759e-12
2.91757e-12
2.91756e-12
2.91756e-12
2.91756e-12
2.91757e-12
2.91758e-12
2.9176e-12
2.91762e-12
2.91773e-12
2.91769e-12
2.91765e-12
2.91761e-12
2.91758e-12
2.91756e-12
2.91754e-12
2.91753e-12
2.91753e-12
2.91753e-12
2.91754e-12
2.91756e-12
2.91758e-12
2.9176e-12
2.91771e-12
2.91767e-12
2.91763e-12
2.91759e-12
2.91756e-12
2.91754e-12
2.91752e-12
2.91751e-12
2.91751e-12
2.91751e-12
2.91752e-12
2.91754e-12
2.91756e-12
2.91758e-12
2.9177e-12
2.91765e-12
2.91761e-12
2.91758e-12
2.91755e-12
2.91752e-12
2.91751e-12
2.9175e-12
2.9175e-12
2.9175e-12
2.91751e-12
2.91753e-12
2.91755e-12
2.91757e-12
2.91769e-12
2.91765e-12
2.91761e-12
2.91757e-12
2.91754e-12
2.91752e-12
2.9175e-12
2.91749e-12
2.91749e-12
2.91749e-12
2.91751e-12
2.91752e-12
2.91754e-12
2.91757e-12
2.91769e-12
2.91765e-12
2.91761e-12
2.91757e-12
2.91754e-12
2.91752e-12
2.9175e-12
2.91749e-12
2.91749e-12
2.9175e-12
2.91751e-12
2.91752e-12
2.91755e-12
2.91757e-12
2.91769e-12
2.91765e-12
2.91761e-12
2.91758e-12
2.91755e-12
2.91753e-12
2.91751e-12
2.9175e-12
2.9175e-12
2.9175e-12
2.91752e-12
2.91753e-12
2.91755e-12
2.91758e-12
2.9177e-12
2.91767e-12
2.91763e-12
2.91759e-12
2.91757e-12
2.91754e-12
2.91753e-12
2.91752e-12
2.91751e-12
2.91752e-12
2.91753e-12
2.91754e-12
2.91757e-12
2.91759e-12
2.91772e-12
2.91768e-12
2.91765e-12
2.91761e-12
2.91759e-12
2.91756e-12
2.91755e-12
2.91754e-12
2.91753e-12
2.91754e-12
2.91755e-12
2.91756e-12
2.91758e-12
2.91761e-12
2.91774e-12
2.91771e-12
2.91767e-12
2.91764e-12
2.91761e-12
2.91759e-12
2.91757e-12
2.91756e-12
2.91756e-12
2.91756e-12
2.91757e-12
2.91758e-12
2.9176e-12
2.91762e-12
2.91778e-12
2.91773e-12
2.9177e-12
2.91767e-12
2.91764e-12
2.91762e-12
2.9176e-12
2.91759e-12
2.91758e-12
2.91758e-12
2.91759e-12
2.9176e-12
2.91762e-12
2.91765e-12
2.91462e-12
2.9146e-12
2.91458e-12
2.91456e-12
2.91455e-12
2.91454e-12
2.91453e-12
2.91452e-12
2.91452e-12
2.91452e-12
2.91452e-12
2.91453e-12
2.91454e-12
2.91456e-12
2.9146e-12
2.91458e-12
2.91456e-12
2.91454e-12
2.91453e-12
2.91451e-12
2.9145e-12
2.9145e-12
2.9145e-12
2.9145e-12
2.9145e-12
2.91451e-12
2.91452e-12
2.91453e-12
2.91458e-12
2.91456e-12
2.91454e-12
2.91452e-12
2.91451e-12
2.91449e-12
2.91448e-12
2.91448e-12
2.91448e-12
2.91448e-12
2.91448e-12
2.91449e-12
2.9145e-12
2.91451e-12
2.91457e-12
2.91455e-12
2.91453e-12
2.91451e-12
2.91449e-12
2.91448e-12
2.91447e-12
2.91446e-12
2.91446e-12
2.91446e-12
2.91447e-12
2.91447e-12
2.91449e-12
2.9145e-12
2.91456e-12
2.91453e-12
2.91451e-12
2.91449e-12
2.91448e-12
2.91446e-12
2.91445e-12
2.91445e-12
2.91444e-12
2.91445e-12
2.91445e-12
2.91446e-12
2.91447e-12
2.91449e-12
2.91455e-12
2.91452e-12
2.9145e-12
2.91448e-12
2.91447e-12
2.91445e-12
2.91444e-12
2.91444e-12
2.91443e-12
2.91444e-12
2.91444e-12
2.91445e-12
2.91446e-12
2.91448e-12
2.91454e-12
2.91452e-12
2.9145e-12
2.91448e-12
2.91446e-12
2.91445e-12
2.91444e-12
2.91443e-12
2.91443e-12
2.91443e-12
2.91444e-12
2.91445e-12
2.91446e-12
2.91447e-12
2.91454e-12
2.91452e-12
2.91449e-12
2.91447e-12
2.91446e-12
2.91444e-12
2.91443e-12
2.91443e-12
2.91443e-12
2.91443e-12
2.91444e-12
2.91444e-12
2.91446e-12
2.91447e-12
2.91454e-12
2.91452e-12
2.9145e-12
2.91448e-12
2.91446e-12
2.91445e-12
2.91444e-12
2.91443e-12
2.91443e-12
2.91443e-12
2.91444e-12
2.91445e-12
2.91446e-12
2.91448e-12
2.91455e-12
2.91452e-12
2.9145e-12
2.91448e-12
2.91447e-12
2.91445e-12
2.91444e-12
2.91444e-12
2.91444e-12
2.91444e-12
2.91445e-12
2.91446e-12
2.91447e-12
2.91448e-12
2.91456e-12
2.91454e-12
2.91451e-12
2.91449e-12
2.91448e-12
2.91446e-12
2.91445e-12
2.91445e-12
2.91445e-12
2.91445e-12
2.91446e-12
2.91447e-12
2.91448e-12
2.91449e-12
2.91457e-12
2.91455e-12
2.91453e-12
2.91451e-12
2.91449e-12
2.91448e-12
2.91447e-12
2.91446e-12
2.91446e-12
2.91446e-12
2.91447e-12
2.91448e-12
2.91449e-12
2.91451e-12
2.91459e-12
2.91457e-12
2.91454e-12
2.91452e-12
2.91451e-12
2.91449e-12
2.91448e-12
2.91448e-12
2.91448e-12
2.91448e-12
2.91449e-12
2.9145e-12
2.91451e-12
2.91452e-12
2.91461e-12
2.91458e-12
2.91456e-12
2.91454e-12
2.91452e-12
2.91451e-12
2.9145e-12
2.9145e-12
2.91449e-12
2.9145e-12
2.9145e-12
2.91451e-12
2.91453e-12
2.91454e-12
2.91181e-12
2.91181e-12
2.9118e-12
2.9118e-12
2.9118e-12
2.91179e-12
2.91179e-12
2.91178e-12
2.91178e-12
2.91178e-12
2.91177e-12
2.91177e-12
2.91177e-12
2.91176e-12
2.91181e-12
2.91181e-12
2.91181e-12
2.9118e-12
2.9118e-12
2.91179e-12
2.91179e-12
2.91179e-12
2.91178e-12
2.91178e-12
2.91177e-12
2.91177e-12
2.91177e-12
2.91176e-12
2.91181e-12
2.91181e-12
2.91181e-12
2.9118e-12
2.9118e-12
2.9118e-12
2.91179e-12
2.91179e-12
2.91178e-12
2.91178e-12
2.91177e-12
2.91177e-12
2.91176e-12
2.91176e-12
2.91181e-12
2.91181e-12
2.91181e-12
2.9118e-12
2.9118e-12
2.9118e-12
2.91179e-12
2.91179e-12
2.91178e-12
2.91178e-12
2.91177e-12
2.91177e-12
2.91176e-12
2.91176e-12
2.91181e-12
2.91181e-12
2.91181e-12
2.91181e-12
2.9118e-12
2.9118e-12
2.9118e-12
2.91179e-12
2.91179e-12
2.91178e-12
2.91177e-12
2.91177e-12
2.91176e-12
2.91176e-12
2.91181e-12
2.91181e-12
2.91181e-12
2.91181e-12
2.9118e-12
2.9118e-12
2.9118e-12
2.91179e-12
2.91179e-12
2.91178e-12
2.91177e-12
2.91177e-12
2.91176e-12
2.91176e-12
2.91181e-12
2.91181e-12
2.91181e-12
2.91181e-12
2.91181e-12
2.9118e-12
2.9118e-12
2.91179e-12
2.91179e-12
2.91178e-12
2.91178e-12
2.91177e-12
2.91176e-12
2.91176e-12
2.91181e-12
2.91181e-12
2.91181e-12
2.91181e-12
2.91181e-12
2.9118e-12
2.9118e-12
2.91179e-12
2.91179e-12
2.91178e-12
2.91178e-12
2.91177e-12
2.91176e-12
2.91176e-12
2.91181e-12
2.91181e-12
2.91181e-12
2.91181e-12
2.91181e-12
2.9118e-12
2.9118e-12
2.91179e-12
2.91179e-12
2.91178e-12
2.91177e-12
2.91177e-12
2.91176e-12
2.91176e-12
2.91181e-12
2.91181e-12
2.91181e-12
2.91181e-12
2.9118e-12
2.9118e-12
2.9118e-12
2.91179e-12
2.91179e-12
2.91178e-12
2.91177e-12
2.91177e-12
2.91176e-12
2.91176e-12
2.91181e-12
2.91181e-12
2.91181e-12
2.91181e-12
2.9118e-12
2.9118e-12
2.91179e-12
2.91179e-12
2.91179e-12
2.91178e-12
2.91177e-12
2.91177e-12
2.91176e-12
2.91176e-12
2.91181e-12
2.91181e-12
2.91181e-12
2.9118e-12
2.9118e-12
2.9118e-12
2.91179e-12
2.91179e-12
2.91178e-12
2.91178e-12
2.91177e-12
2.91177e-12
2.91177e-12
2.91176e-12
2.91181e-12
2.91181e-12
2.91181e-12
2.9118e-12
2.9118e-12
2.91179e-12
2.91179e-12
2.91179e-12
2.91178e-12
2.91178e-12
2.91178e-12
2.91177e-12
2.91177e-12
2.91176e-12
2.91181e-12
2.91181e-12
2.9118e-12
2.9118e-12
2.91179e-12
2.91179e-12
2.91179e-12
2.91178e-12
2.91178e-12
2.91178e-12
2.91178e-12
2.91177e-12
2.91177e-12
2.91177e-12
2.9093e-12
2.90931e-12
2.90932e-12
2.90933e-12
2.90934e-12
2.90934e-12
2.90934e-12
2.90933e-12
2.90933e-12
2.90932e-12
2.9093e-12
2.90929e-12
2.90928e-12
2.90926e-12
2.90931e-12
2.90933e-12
2.90934e-12
2.90935e-12
2.90935e-12
2.90936e-12
2.90936e-12
2.90935e-12
2.90934e-12
2.90933e-12
2.90932e-12
2.90931e-12
2.90929e-12
2.90927e-12
2.90933e-12
2.90934e-12
2.90935e-12
2.90936e-12
2.90937e-12
2.90937e-12
2.90937e-12
2.90937e-12
2.90936e-12
2.90935e-12
2.90934e-12
2.90932e-12
2.9093e-12
2.90929e-12
2.90934e-12
2.90935e-12
2.90937e-12
2.90938e-12
2.90938e-12
2.90939e-12
2.90939e-12
2.90938e-12
2.90938e-12
2.90936e-12
2.90935e-12
2.90933e-12
2.90931e-12
2.90929e-12
2.90935e-12
2.90936e-12
2.90938e-12
2.90939e-12
2.9094e-12
2.9094e-12
2.9094e-12
2.90939e-12
2.90939e-12
2.90938e-12
2.90936e-12
2.90934e-12
2.90932e-12
2.9093e-12
2.90935e-12
2.90937e-12
2.90938e-12
2.9094e-12
2.9094e-12
2.90941e-12
2.90941e-12
2.9094e-12
2.90939e-12
2.90938e-12
2.90937e-12
2.90935e-12
2.90933e-12
2.90931e-12
2.90936e-12
2.90937e-12
2.90939e-12
2.9094e-12
2.90941e-12
2.90941e-12
2.90941e-12
2.90941e-12
2.9094e-12
2.90939e-12
2.90937e-12
2.90935e-12
2.90933e-12
2.90931e-12
2.90936e-12
2.90937e-12
2.90939e-12
2.9094e-12
2.90941e-12
2.90941e-12
2.90941e-12
2.90941e-12
2.9094e-12
2.90939e-12
2.90937e-12
2.90935e-12
2.90933e-12
2.9093e-12
2.90936e-12
2.90937e-12
2.90938e-12
2.9094e-12
2.9094e-12
2.90941e-12
2.90941e-12
2.9094e-12
2.90939e-12
2.90938e-12
2.90936e-12
2.90935e-12
2.90932e-12
2.9093e-12
2.90935e-12
2.90936e-12
2.90938e-12
2.90939e-12
2.90939e-12
2.9094e-12
2.9094e-12
2.90939e-12
2.90939e-12
2.90937e-12
2.90936e-12
2.90934e-12
2.90932e-12
2.90929e-12
2.90934e-12
2.90935e-12
2.90937e-12
2.90938e-12
2.90938e-12
2.90939e-12
2.90939e-12
2.90938e-12
2.90937e-12
2.90936e-12
2.90935e-12
2.90933e-12
2.90931e-12
2.90928e-12
2.90933e-12
2.90934e-12
2.90935e-12
2.90936e-12
2.90937e-12
2.90937e-12
2.90937e-12
2.90937e-12
2.90936e-12
2.90935e-12
2.90933e-12
2.90932e-12
2.9093e-12
2.90927e-12
2.90931e-12
2.90932e-12
2.90933e-12
2.90934e-12
2.90935e-12
2.90935e-12
2.90935e-12
2.90935e-12
2.90934e-12
2.90933e-12
2.90932e-12
2.9093e-12
2.90928e-12
2.90926e-12
2.90929e-12
2.9093e-12
2.90931e-12
2.90932e-12
2.90933e-12
2.90933e-12
2.90933e-12
2.90933e-12
2.90932e-12
2.90931e-12
2.9093e-12
2.90929e-12
2.90927e-12
2.90925e-12
2.90698e-12
2.907e-12
2.90702e-12
2.90703e-12
2.90704e-12
2.90705e-12
2.90705e-12
2.90705e-12
2.90704e-12
2.90702e-12
2.90701e-12
2.90699e-12
2.90697e-12
2.90694e-12
2.907e-12
2.90702e-12
2.90704e-12
2.90706e-12
2.90707e-12
2.90707e-12
2.90707e-12
2.90707e-12
2.90706e-12
2.90705e-12
2.90703e-12
2.90701e-12
2.90699e-12
2.90696e-12
2.90702e-12
2.90704e-12
2.90706e-12
2.90708e-12
2.90709e-12
2.9071e-12
2.9071e-12
2.90709e-12
2.90708e-12
2.90707e-12
2.90705e-12
2.90703e-12
2.90701e-12
2.90698e-12
2.90704e-12
2.90706e-12
2.90708e-12
2.90709e-12
2.90711e-12
2.90711e-12
2.90711e-12
2.90711e-12
2.9071e-12
2.90709e-12
2.90707e-12
2.90705e-12
2.90702e-12
2.907e-12
2.90705e-12
2.90707e-12
2.90709e-12
2.90711e-12
2.90712e-12
2.90713e-12
2.90713e-12
2.90713e-12
2.90712e-12
2.9071e-12
2.90708e-12
2.90706e-12
2.90704e-12
2.90701e-12
2.90706e-12
2.90708e-12
2.9071e-12
2.90712e-12
2.90713e-12
2.90714e-12
2.90714e-12
2.90713e-12
2.90713e-12
2.90711e-12
2.90709e-12
2.90707e-12
2.90704e-12
2.90701e-12
2.90706e-12
2.90708e-12
2.9071e-12
2.90712e-12
2.90713e-12
2.90714e-12
2.90714e-12
2.90714e-12
2.90713e-12
2.90712e-12
2.9071e-12
2.90707e-12
2.90705e-12
2.90702e-12
2.90706e-12
2.90708e-12
2.9071e-12
2.90712e-12
2.90713e-12
2.90714e-12
2.90714e-12
2.90714e-12
2.90713e-12
2.90711e-12
2.90709e-12
2.90707e-12
2.90704e-12
2.90701e-12
2.90706e-12
2.90708e-12
2.9071e-12
2.90711e-12
2.90712e-12
2.90713e-12
2.90713e-12
2.90713e-12
2.90712e-12
2.90711e-12
2.90709e-12
2.90706e-12
2.90703e-12
2.907e-12
2.90704e-12
2.90707e-12
2.90708e-12
2.9071e-12
2.90711e-12
2.90712e-12
2.90712e-12
2.90712e-12
2.90711e-12
2.90709e-12
2.90707e-12
2.90705e-12
2.90702e-12
2.90699e-12
2.90703e-12
2.90705e-12
2.90707e-12
2.90708e-12
2.90709e-12
2.9071e-12
2.9071e-12
2.9071e-12
2.90709e-12
2.90708e-12
2.90706e-12
2.90703e-12
2.90701e-12
2.90698e-12
2.90701e-12
2.90703e-12
2.90705e-12
2.90706e-12
2.90707e-12
2.90708e-12
2.90708e-12
2.90708e-12
2.90707e-12
2.90706e-12
2.90704e-12
2.90701e-12
2.90699e-12
2.90696e-12
2.90699e-12
2.907e-12
2.90702e-12
2.90703e-12
2.90704e-12
2.90705e-12
2.90705e-12
2.90705e-12
2.90704e-12
2.90703e-12
2.90701e-12
2.90699e-12
2.90697e-12
2.90694e-12
2.90696e-12
2.90697e-12
2.90699e-12
2.907e-12
2.90701e-12
2.90702e-12
2.90702e-12
2.90702e-12
2.90702e-12
2.907e-12
2.90699e-12
2.90697e-12
2.90694e-12
2.90692e-12
2.90477e-12
2.90479e-12
2.90481e-12
2.90483e-12
2.90484e-12
2.90484e-12
2.90485e-12
2.90484e-12
2.90484e-12
2.90482e-12
2.90481e-12
2.90479e-12
2.90476e-12
2.90474e-12
2.90479e-12
2.90481e-12
2.90483e-12
2.90485e-12
2.90486e-12
2.90487e-12
2.90487e-12
2.90487e-12
2.90486e-12
2.90485e-12
2.90483e-12
2.90481e-12
2.90479e-12
2.90476e-12
2.90481e-12
2.90483e-12
2.90485e-12
2.90487e-12
2.90488e-12
2.90489e-12
2.90489e-12
2.90489e-12
2.90488e-12
2.90487e-12
2.90485e-12
2.90483e-12
2.9048e-12
2.90478e-12
2.90482e-12
2.90485e-12
2.90487e-12
2.90488e-12
2.9049e-12
2.9049e-12
2.90491e-12
2.9049e-12
2.9049e-12
2.90488e-12
2.90487e-12
2.90485e-12
2.90482e-12
2.90479e-12
2.90484e-12
2.90486e-12
2.90488e-12
2.9049e-12
2.90491e-12
2.90491e-12
2.90492e-12
2.90491e-12
2.90491e-12
2.90489e-12
2.90488e-12
2.90486e-12
2.90483e-12
2.9048e-12
2.90484e-12
2.90487e-12
2.90489e-12
2.9049e-12
2.90491e-12
2.90492e-12
2.90492e-12
2.90492e-12
2.90491e-12
2.9049e-12
2.90488e-12
2.90486e-12
2.90484e-12
2.90481e-12
2.90485e-12
2.90487e-12
2.90489e-12
2.9049e-12
2.90492e-12
2.90492e-12
2.90493e-12
2.90492e-12
2.90492e-12
2.9049e-12
2.90489e-12
2.90487e-12
2.90484e-12
2.90481e-12
2.90484e-12
2.90487e-12
2.90489e-12
2.9049e-12
2.90491e-12
2.90492e-12
2.90492e-12
2.90492e-12
2.90491e-12
2.9049e-12
2.90488e-12
2.90486e-12
2.90484e-12
2.90481e-12
2.90484e-12
2.90486e-12
2.90488e-12
2.90489e-12
2.90491e-12
2.90491e-12
2.90491e-12
2.90491e-12
2.9049e-12
2.90489e-12
2.90487e-12
2.90485e-12
2.90483e-12
2.9048e-12
2.90483e-12
2.90485e-12
2.90487e-12
2.90488e-12
2.90489e-12
2.9049e-12
2.9049e-12
2.9049e-12
2.90489e-12
2.90488e-12
2.90486e-12
2.90484e-12
2.90481e-12
2.90478e-12
2.90481e-12
2.90483e-12
2.90485e-12
2.90486e-12
2.90487e-12
2.90488e-12
2.90488e-12
2.90488e-12
2.90487e-12
2.90486e-12
2.90484e-12
2.90482e-12
2.9048e-12
2.90477e-12
2.90479e-12
2.90481e-12
2.90482e-12
2.90484e-12
2.90485e-12
2.90486e-12
2.90486e-12
2.90486e-12
2.90485e-12
2.90484e-12
2.90482e-12
2.9048e-12
2.90477e-12
2.90475e-12
2.90476e-12
2.90478e-12
2.9048e-12
2.90481e-12
2.90482e-12
2.90483e-12
2.90484e-12
2.90483e-12
2.90483e-12
2.90481e-12
2.9048e-12
2.90478e-12
2.90475e-12
2.90472e-12
2.90473e-12
2.90475e-12
2.90477e-12
2.90478e-12
2.90479e-12
2.9048e-12