/*--------------------------------*- C++ -*----------------------------------*\
| =========                 |                                                 |
| \\      /  F ield         | OpenFOAM: The Open Source CFD Toolbox           |
|  \\    /   O peration     | Version:  v2106                                 |
|   \\  /    A nd           | Website:  www.openfoam.com                      |
|    \\/     M anipulation  |                                                 |
\*---------------------------------------------------------------------------*/
FoamFile
{
    version     2.0;
    format      ascii;
    arch        "LSB;label=32;scalar=64";
    class       volScalarField;
    location    "0.000197";
    object      nut;
}
// * * * * * * * * * * * * * * * * * * * * * * * * * * * * * * * * * * * * * //

dimensions      [0 2 -1 0 0 0 0];

internalField   nonuniform List<scalar> 
17924
(
3.79574e-17
3.64854e-17
3.61606e-17
3.61002e-17
3.6274e-17
3.61007e-17
3.60619e-17
3.60544e-17
3.60545e-17
3.60572e-17
3.60614e-17
3.64832e-17
3.61478e-17
3.60668e-17
3.60492e-17
3.60455e-17
3.60449e-17
3.60451e-17
3.68349e-17
3.62315e-17
3.60819e-17
3.60489e-17
3.6042e-17
3.60406e-17
3.60402e-17
3.72579e-17
3.63308e-17
3.61002e-17
3.60495e-17
3.60392e-17
3.60371e-17
3.60366e-17
3.76511e-17
3.64138e-17
3.61132e-17
3.60488e-17
3.60362e-17
3.60339e-17
3.60334e-17
3.79615e-17
3.64649e-17
3.61175e-17
3.60465e-17
3.60333e-17
3.60311e-17
3.60305e-17
3.8225e-17
3.64974e-17
3.61169e-17
3.60435e-17
3.60307e-17
3.60286e-17
3.60281e-17
3.84538e-17
3.65181e-17
3.61142e-17
3.60406e-17
3.60286e-17
3.60268e-17
3.60264e-17
3.86256e-17
3.65267e-17
3.61104e-17
3.60387e-17
3.60281e-17
3.6027e-17
3.6027e-17
3.87395e-17
3.65257e-17
3.61082e-17
3.60415e-17
3.6035e-17
3.60368e-17
3.60383e-17
3.87659e-17
3.65162e-17
3.6116e-17
3.60657e-17
3.60758e-17
3.6091e-17
3.60996e-17
3.88354e-17
3.65432e-17
3.61735e-17
3.61809e-17
3.62618e-17
3.63377e-17
3.63789e-17
3.95368e-17
3.67725e-17
3.64231e-17
3.66447e-17
3.70122e-17
3.73409e-17
3.75214e-17
4.32974e-17
3.78664e-17
3.73538e-17
3.83095e-17
3.97343e-17
4.10393e-17
4.17946e-17
3.60683e-17
3.60489e-17
3.60444e-17
3.60431e-17
3.60427e-17
3.60428e-17
3.60432e-17
3.6044e-17
3.60448e-17
3.60455e-17
3.60457e-17
3.60456e-17
3.6046e-17
3.60462e-17
3.60909e-17
3.60527e-17
3.60427e-17
3.60399e-17
3.60387e-17
3.60381e-17
3.60379e-17
3.60379e-17
3.60383e-17
3.6039e-17
3.60398e-17
3.60404e-17
3.60414e-17
3.60426e-17
3.61299e-17
3.60601e-17
3.60417e-17
3.6037e-17
3.60352e-17
3.60345e-17
3.60341e-17
3.60341e-17
3.60343e-17
3.60349e-17
3.60357e-17
3.60364e-17
3.60378e-17
3.60395e-17
3.61774e-17
3.6069e-17
3.6041e-17
3.60341e-17
3.6032e-17
3.60312e-17
3.60307e-17
3.60306e-17
3.60307e-17
3.60311e-17
3.60317e-17
3.60323e-17
3.60336e-17
3.60356e-17
3.62206e-17
3.60759e-17
3.60396e-17
3.60312e-17
3.60289e-17
3.6028e-17
3.60275e-17
3.60273e-17
3.60274e-17
3.60277e-17
3.60282e-17
3.60287e-17
3.60298e-17
3.6032e-17
3.62523e-17
3.60789e-17
3.60375e-17
3.60284e-17
3.6026e-17
3.60252e-17
3.60246e-17
3.60243e-17
3.60242e-17
3.60244e-17
3.60248e-17
3.60254e-17
3.60263e-17
3.60287e-17
3.62766e-17
3.60797e-17
3.6035e-17
3.60258e-17
3.60234e-17
3.60226e-17
3.60219e-17
3.60217e-17
3.60215e-17
3.60216e-17
3.6022e-17
3.60226e-17
3.60234e-17
3.6026e-17
3.62953e-17
3.6079e-17
3.60324e-17
3.60234e-17
3.60212e-17
3.60203e-17
3.60197e-17
3.60194e-17
3.60191e-17
3.60192e-17
3.60195e-17
3.60201e-17
3.60209e-17
3.60235e-17
3.63061e-17
3.60772e-17
3.60302e-17
3.60215e-17
3.60194e-17
3.60186e-17
3.6018e-17
3.60176e-17
3.60174e-17
3.60174e-17
3.60177e-17
3.60184e-17
3.60192e-17
3.60216e-17
3.63093e-17
3.60744e-17
3.60283e-17
3.60203e-17
3.60187e-17
3.60181e-17
3.60176e-17
3.60172e-17
3.60169e-17
3.60168e-17
3.6017e-17
3.60178e-17
3.60183e-17
3.60204e-17
3.63009e-17
3.60707e-17
3.60276e-17
3.60212e-17
3.60212e-17
3.60218e-17
3.6022e-17
3.60216e-17
3.60209e-17
3.60203e-17
3.60199e-17
3.60201e-17
3.60199e-17
3.60214e-17
3.6289e-17
3.60695e-17
3.60316e-17
3.60307e-17
3.60372e-17
3.60432e-17
3.60462e-17
3.60457e-17
3.60432e-17
3.60396e-17
3.60361e-17
3.60334e-17
3.60304e-17
3.603e-17
3.63078e-17
3.60827e-17
3.60532e-17
3.60731e-17
3.6106e-17
3.61346e-17
3.61491e-17
3.6149e-17
3.6139e-17
3.61236e-17
3.61067e-17
3.60915e-17
3.60763e-17
3.60685e-17
3.64825e-17
3.61476e-17
3.61349e-17
3.62306e-17
3.63632e-17
3.64795e-17
3.65397e-17
3.65441e-17
3.65089e-17
3.64503e-17
3.6383e-17
3.63207e-17
3.62604e-17
3.62219e-17
3.6039e-17
3.60371e-17
3.60366e-17
3.60362e-17
3.60358e-17
3.60356e-17
3.60356e-17
3.60359e-17
3.60364e-17
3.6037e-17
3.60378e-17
3.60385e-17
3.60392e-17
3.6039e-17
3.60397e-17
3.60359e-17
3.60345e-17
3.60337e-17
3.6033e-17
3.60326e-17
3.60325e-17
3.60326e-17
3.60329e-17
3.60336e-17
3.60344e-17
3.60351e-17
3.60357e-17
3.60359e-17
3.60422e-17
3.60347e-17
3.6032e-17
3.60309e-17
3.60301e-17
3.60297e-17
3.60295e-17
3.60296e-17
3.603e-17
3.60305e-17
3.60313e-17
3.6032e-17
3.6033e-17
3.60334e-17
3.6045e-17
3.60331e-17
3.60294e-17
3.60281e-17
3.60273e-17
3.6027e-17
3.60268e-17
3.60268e-17
3.6027e-17
3.60274e-17
3.6028e-17
3.60285e-17
3.60295e-17
3.603e-17
3.60471e-17
3.60313e-17
3.60267e-17
3.60253e-17
3.60246e-17
3.60242e-17
3.6024e-17
3.6024e-17
3.60241e-17
3.60245e-17
3.6025e-17
3.60255e-17
3.60262e-17
3.60269e-17
3.60478e-17
3.60291e-17
3.60241e-17
3.60228e-17
3.60221e-17
3.60217e-17
3.60214e-17
3.60213e-17
3.60214e-17
3.60216e-17
3.6022e-17
3.60225e-17
3.60232e-17
3.6024e-17
3.60478e-17
3.6027e-17
3.60218e-17
3.60205e-17
3.60197e-17
3.60193e-17
3.6019e-17
3.60189e-17
3.60189e-17
3.60191e-17
3.60195e-17
3.602e-17
3.60206e-17
3.60216e-17
3.60474e-17
3.60249e-17
3.60196e-17
3.60184e-17
3.60177e-17
3.60173e-17
3.60169e-17
3.60167e-17
3.60166e-17
3.60168e-17
3.60171e-17
3.60177e-17
3.60182e-17
3.60194e-17
3.60464e-17
3.6023e-17
3.60179e-17
3.60167e-17
3.6016e-17
3.60155e-17
3.60151e-17
3.60149e-17
3.60147e-17
3.60149e-17
3.60152e-17
3.60158e-17
3.60164e-17
3.60175e-17
3.60451e-17
3.60213e-17
3.60164e-17
3.60153e-17
3.60146e-17
3.60141e-17
3.60137e-17
3.60134e-17
3.60132e-17
3.60133e-17
3.60136e-17
3.60143e-17
3.60148e-17
3.60159e-17
3.60428e-17
3.60198e-17
3.60154e-17
3.60144e-17
3.60139e-17
3.60134e-17
3.6013e-17
3.60126e-17
3.60124e-17
3.60124e-17
3.60126e-17
3.60133e-17
3.60136e-17
3.60147e-17
3.60399e-17
3.60186e-17
3.6015e-17
3.60145e-17
3.60146e-17
3.60145e-17
3.60143e-17
3.60138e-17
3.60133e-17
3.60129e-17
3.60129e-17
3.60132e-17
3.6013e-17
3.60136e-17
3.60389e-17
3.60186e-17
3.60164e-17
3.60177e-17
3.60201e-17
3.60219e-17
3.60226e-17
3.6022e-17
3.60206e-17
3.60191e-17
3.60177e-17
3.60164e-17
3.60146e-17
3.60138e-17
3.60488e-17
3.60228e-17
3.60233e-17
3.60315e-17
3.60427e-17
3.60521e-17
3.60565e-17
3.60557e-17
3.60515e-17
3.60454e-17
3.60389e-17
3.60325e-17
3.60264e-17
3.60222e-17
3.60257e-17
3.60266e-17
3.60273e-17
3.60277e-17
3.60279e-17
3.60281e-17
3.60284e-17
3.60289e-17
3.60295e-17
3.60302e-17
3.6031e-17
3.60318e-17
3.60324e-17
3.6032e-17
3.60248e-17
3.60255e-17
3.60258e-17
3.6026e-17
3.60261e-17
3.60263e-17
3.60266e-17
3.6027e-17
3.60276e-17
3.60284e-17
3.60293e-17
3.60299e-17
3.60305e-17
3.60306e-17
3.60239e-17
3.60239e-17
3.60239e-17
3.60241e-17
3.60241e-17
3.60243e-17
3.60246e-17
3.60251e-17
3.60257e-17
3.60265e-17
3.60274e-17
3.60281e-17
3.6029e-17
3.60293e-17
3.60224e-17
3.6022e-17
3.60219e-17
3.60221e-17
3.60222e-17
3.60224e-17
3.60227e-17
3.60231e-17
3.60236e-17
3.60243e-17
3.6025e-17
3.60257e-17
3.60266e-17
3.60271e-17
3.60206e-17
3.60199e-17
3.60197e-17
3.602e-17
3.60201e-17
3.60204e-17
3.60207e-17
3.60211e-17
3.60216e-17
3.60222e-17
3.60229e-17
3.60235e-17
3.60243e-17
3.60249e-17
3.60188e-17
3.60178e-17
3.60177e-17
3.6018e-17
3.60182e-17
3.60185e-17
3.60188e-17
3.60191e-17
3.60196e-17
3.60201e-17
3.60207e-17
3.60213e-17
3.60219e-17
3.60227e-17
3.60172e-17
3.6016e-17
3.60159e-17
3.60162e-17
3.60164e-17
3.60167e-17
3.60169e-17
3.60173e-17
3.60177e-17
3.60182e-17
3.60187e-17
3.60194e-17
3.60199e-17
3.60208e-17
3.60157e-17
3.60144e-17
3.60143e-17
3.60147e-17
3.60148e-17
3.60151e-17
3.60153e-17
3.60156e-17
3.60159e-17
3.60163e-17
3.60168e-17
3.60175e-17
3.6018e-17
3.6019e-17
3.60145e-17
3.60131e-17
3.60131e-17
3.60134e-17
3.60135e-17
3.60137e-17
3.60138e-17
3.6014e-17
3.60142e-17
3.60146e-17
3.60151e-17
3.60158e-17
3.60163e-17
3.60174e-17
3.60136e-17
3.6012e-17
3.6012e-17
3.60123e-17
3.60124e-17
3.60124e-17
3.60125e-17
3.60126e-17
3.60128e-17
3.60131e-17
3.60135e-17
3.60142e-17
3.60148e-17
3.60158e-17
3.60131e-17
3.60113e-17
3.60114e-17
3.60116e-17
3.60116e-17
3.60115e-17
3.60115e-17
3.60114e-17
3.60115e-17
3.60118e-17
3.60122e-17
3.6013e-17
3.60134e-17
3.60144e-17
3.60124e-17
3.60106e-17
3.60109e-17
3.6011e-17
3.6011e-17
3.60109e-17
3.60107e-17
3.60106e-17
3.60106e-17
3.60107e-17
3.60111e-17
3.60117e-17
3.60118e-17
3.60125e-17
3.60118e-17
3.60101e-17
3.60108e-17
3.60109e-17
3.6011e-17
3.60108e-17
3.60107e-17
3.60104e-17
3.60101e-17
3.601e-17
3.60102e-17
3.60104e-17
3.60099e-17
3.60098e-17
3.6012e-17
3.601e-17
3.60112e-17
3.60118e-17
3.60126e-17
3.6013e-17
3.6013e-17
3.60125e-17
3.60118e-17
3.6011e-17
3.60103e-17
3.60093e-17
3.6008e-17
3.6007e-17
3.60077e-17
3.60103e-17
3.60123e-17
3.60138e-17
3.60149e-17
3.6016e-17
3.60169e-17
3.60178e-17
3.60187e-17
3.60196e-17
3.60207e-17
3.60215e-17
3.60221e-17
3.60217e-17
3.6008e-17
3.60105e-17
3.60121e-17
3.60135e-17
3.60145e-17
3.60156e-17
3.60166e-17
3.60175e-17
3.60185e-17
3.60196e-17
3.60207e-17
3.60215e-17
3.60222e-17
3.60224e-17
3.60078e-17
3.60099e-17
3.60113e-17
3.60127e-17
3.60138e-17
3.60149e-17
3.6016e-17
3.6017e-17
3.60181e-17
3.60192e-17
3.60203e-17
3.60212e-17
3.60222e-17
3.60227e-17
3.6007e-17
3.6009e-17
3.60104e-17
3.60118e-17
3.6013e-17
3.60142e-17
3.60153e-17
3.60163e-17
3.60174e-17
3.60184e-17
3.60195e-17
3.60203e-17
3.60213e-17
3.6022e-17
3.6006e-17
3.60079e-17
3.60095e-17
3.60109e-17
3.60121e-17
3.60133e-17
3.60144e-17
3.60155e-17
3.60165e-17
3.60175e-17
3.60185e-17
3.60193e-17
3.60202e-17
3.6021e-17
3.60049e-17
3.60068e-17
3.60085e-17
3.60099e-17
3.60112e-17
3.60124e-17
3.60135e-17
3.60146e-17
3.60156e-17
3.60165e-17
3.60174e-17
3.60182e-17
3.6019e-17
3.60198e-17
3.60042e-17
3.60061e-17
3.60077e-17
3.60092e-17
3.60104e-17
3.60116e-17
3.60126e-17
3.60136e-17
3.60145e-17
3.60154e-17
3.60162e-17
3.60171e-17
3.60177e-17
3.60187e-17
3.60035e-17
3.60055e-17
3.6007e-17
3.60085e-17
3.60096e-17
3.60107e-17
3.60116e-17
3.60125e-17
3.60133e-17
3.60142e-17
3.6015e-17
3.60158e-17
3.60165e-17
3.60175e-17
3.60033e-17
3.6005e-17
3.60065e-17
3.60079e-17
3.60089e-17
3.60099e-17
3.60107e-17
3.60115e-17
3.60122e-17
3.6013e-17
3.60137e-17
3.60146e-17
3.60153e-17
3.60163e-17
3.60033e-17
3.60047e-17
3.60061e-17
3.60074e-17
3.60083e-17
3.60091e-17
3.60098e-17
3.60104e-17
3.60111e-17
3.60118e-17
3.60125e-17
3.60134e-17
3.60141e-17
3.60151e-17
3.60036e-17
3.60046e-17
3.60059e-17
3.6007e-17
3.60077e-17
3.60084e-17
3.60089e-17
3.60094e-17
3.60099e-17
3.60106e-17
3.60113e-17
3.60123e-17
3.60129e-17
3.6014e-17
3.60036e-17
3.60044e-17
3.60057e-17
3.60066e-17
3.60072e-17
3.60076e-17
3.6008e-17
3.60084e-17
3.60088e-17
3.60094e-17
3.60101e-17
3.6011e-17
3.60114e-17
3.60122e-17
3.60035e-17
3.60042e-17
3.60056e-17
3.60062e-17
3.60067e-17
3.60069e-17
3.60071e-17
3.60073e-17
3.60076e-17
3.6008e-17
3.60086e-17
3.60093e-17
3.60092e-17
3.60093e-17
3.60033e-17
3.60039e-17
3.60054e-17
3.60059e-17
3.60063e-17
3.60065e-17
3.60066e-17
3.60066e-17
3.60067e-17
3.60068e-17
3.60069e-17
3.60068e-17
3.60062e-17
3.60057e-17
3.59811e-17
3.59849e-17
3.59881e-17
3.59908e-17
3.59929e-17
3.59948e-17
3.59965e-17
3.5998e-17
3.59994e-17
3.60007e-17
3.6002e-17
3.6003e-17
3.60038e-17
3.60038e-17
3.59829e-17
3.59863e-17
3.59892e-17
3.59917e-17
3.59939e-17
3.59959e-17
3.59978e-17
3.59994e-17
3.6001e-17
3.60025e-17
3.6004e-17
3.60051e-17
3.6006e-17
3.60066e-17
3.59841e-17
3.59873e-17
3.59901e-17
3.59926e-17
3.59949e-17
3.5997e-17
3.5999e-17
3.60007e-17
3.60024e-17
3.60039e-17
3.60055e-17
3.60066e-17
3.60077e-17
3.60087e-17
3.59848e-17
3.59878e-17
3.59907e-17
3.59933e-17
3.59956e-17
3.59978e-17
3.59998e-17
3.60017e-17
3.60034e-17
3.6005e-17
3.60065e-17
3.60076e-17
3.60088e-17
3.60099e-17
3.59852e-17
3.59884e-17
3.59913e-17
3.59939e-17
3.59963e-17
3.59985e-17
3.60006e-17
3.60024e-17
3.60041e-17
3.60056e-17
3.60071e-17
3.60082e-17
3.60094e-17
3.60105e-17
3.59856e-17
3.59888e-17
3.59917e-17
3.59944e-17
3.59968e-17
3.5999e-17
3.6001e-17
3.60029e-17
3.60045e-17
3.60061e-17
3.60075e-17
3.60087e-17
3.60097e-17
3.60108e-17
3.59863e-17
3.59896e-17
3.59924e-17
3.5995e-17
3.59973e-17
3.59994e-17
3.60013e-17
3.60031e-17
3.60047e-17
3.60062e-17
3.60075e-17
3.60088e-17
3.60098e-17
3.60109e-17
3.5987e-17
3.59901e-17
3.59928e-17
3.59953e-17
3.59975e-17
3.59996e-17
3.60014e-17
3.60031e-17
3.60046e-17
3.60061e-17
3.60074e-17
3.60087e-17
3.60096e-17
3.60109e-17
3.59879e-17
3.59908e-17
3.59933e-17
3.59957e-17
3.59977e-17
3.59997e-17
3.60014e-17
3.6003e-17
3.60044e-17
3.60058e-17
3.60071e-17
3.60084e-17
3.60094e-17
3.60107e-17
3.59888e-17
3.59914e-17
3.59937e-17
3.59959e-17
3.59978e-17
3.59996e-17
3.60012e-17
3.60027e-17
3.6004e-17
3.60053e-17
3.60065e-17
3.60079e-17
3.60089e-17
3.60102e-17
3.59899e-17
3.5992e-17
3.59941e-17
3.59961e-17
3.59978e-17
3.59994e-17
3.60008e-17
3.60021e-17
3.60033e-17
3.60046e-17
3.60058e-17
3.60073e-17
3.60082e-17
3.60097e-17
3.59905e-17
3.59923e-17
3.59943e-17
3.59961e-17
3.59976e-17
3.5999e-17
3.60002e-17
3.60014e-17
3.60025e-17
3.60037e-17
3.60049e-17
3.60064e-17
3.60072e-17
3.60084e-17
3.59907e-17
3.59924e-17
3.59944e-17
3.59959e-17
3.59972e-17
3.59983e-17
3.59993e-17
3.60003e-17
3.60013e-17
3.60025e-17
3.60037e-17
3.60049e-17
3.60054e-17
3.6006e-17
3.59907e-17
3.59922e-17
3.59942e-17
3.59954e-17
3.59966e-17
3.59975e-17
3.59985e-17
3.59993e-17
3.60002e-17
3.60011e-17
3.6002e-17
3.60026e-17
3.60026e-17
3.60028e-17
3.59455e-17
3.59498e-17
3.59536e-17
3.5957e-17
3.59599e-17
3.59625e-17
3.59649e-17
3.5967e-17
3.59689e-17
3.59707e-17
3.59724e-17
3.59738e-17
3.5975e-17
3.59755e-17
3.59485e-17
3.59523e-17
3.59561e-17
3.59593e-17
3.59624e-17
3.59651e-17
3.59677e-17
3.597e-17
3.59721e-17
3.59741e-17
3.5976e-17
3.59776e-17
3.5979e-17
3.59803e-17
3.59514e-17
3.5955e-17
3.59586e-17
3.59619e-17
3.5965e-17
3.59678e-17
3.59705e-17
3.59729e-17
3.59752e-17
3.59773e-17
3.59793e-17
3.59809e-17
3.59824e-17
3.5984e-17
3.59536e-17
3.59572e-17
3.59608e-17
3.59642e-17
3.59673e-17
3.59703e-17
3.5973e-17
3.59755e-17
3.59779e-17
3.598e-17
3.5982e-17
3.59837e-17
3.59854e-17
3.59871e-17
3.59558e-17
3.59594e-17
3.59631e-17
3.59664e-17
3.59696e-17
3.59726e-17
3.59754e-17
3.59779e-17
3.59803e-17
3.59824e-17
3.59845e-17
3.59862e-17
3.59879e-17
3.59895e-17
3.59579e-17
3.59616e-17
3.59651e-17
3.59685e-17
3.59716e-17
3.59746e-17
3.59774e-17
3.598e-17
3.59824e-17
3.59845e-17
3.59866e-17
3.59884e-17
3.599e-17
3.59916e-17
3.59601e-17
3.59638e-17
3.59672e-17
3.59705e-17
3.59736e-17
3.59765e-17
3.59792e-17
3.59818e-17
3.59841e-17
3.59863e-17
3.59883e-17
3.59902e-17
3.59918e-17
3.59935e-17
3.59622e-17
3.59658e-17
3.5969e-17
3.59722e-17
3.59752e-17
3.59781e-17
3.59807e-17
3.59832e-17
3.59855e-17
3.59877e-17
3.59897e-17
3.59917e-17
3.59933e-17
3.59951e-17
3.59643e-17
3.59677e-17
3.59708e-17
3.59739e-17
3.59767e-17
3.59794e-17
3.5982e-17
3.59844e-17
3.59866e-17
3.59888e-17
3.59907e-17
3.59928e-17
3.59944e-17
3.59964e-17
3.59663e-17
3.59694e-17
3.59722e-17
3.59752e-17
3.59778e-17
3.59804e-17
3.59829e-17
3.59852e-17
3.59874e-17
3.59896e-17
3.59916e-17
3.59937e-17
3.59954e-17
3.59975e-17
3.59683e-17
3.59709e-17
3.59736e-17
3.59763e-17
3.59788e-17
3.59813e-17
3.59835e-17
3.59858e-17
3.59878e-17
3.599e-17
3.5992e-17
3.59944e-17
3.59962e-17
3.59984e-17
3.59697e-17
3.5972e-17
3.59746e-17
3.59771e-17
3.59794e-17
3.59817e-17
3.59839e-17
3.5986e-17
3.59881e-17
3.59902e-17
3.59924e-17
3.59948e-17
3.59965e-17
3.59986e-17
3.59705e-17
3.59728e-17
3.59753e-17
3.59776e-17
3.59797e-17
3.59818e-17
3.59838e-17
3.59859e-17
3.59879e-17
3.599e-17
3.59922e-17
3.59944e-17
3.59958e-17
3.59974e-17
3.59709e-17
3.59731e-17
3.59755e-17
3.59776e-17
3.59797e-17
3.59817e-17
3.59837e-17
3.59857e-17
3.59877e-17
3.59897e-17
3.59917e-17
3.59933e-17
3.59944e-17
3.59958e-17
3.5906e-17
3.59097e-17
3.59133e-17
3.59167e-17
3.59198e-17
3.59226e-17
3.59253e-17
3.59278e-17
3.59301e-17
3.59324e-17
3.59345e-17
3.59364e-17
3.59382e-17
3.59393e-17
3.59102e-17
3.59134e-17
3.5917e-17
3.59202e-17
3.59234e-17
3.59263e-17
3.59292e-17
3.59319e-17
3.59344e-17
3.59368e-17
3.59392e-17
3.59413e-17
3.59432e-17
3.59452e-17
3.59144e-17
3.59174e-17
3.59209e-17
3.59241e-17
3.59273e-17
3.59303e-17
3.59332e-17
3.59359e-17
3.59385e-17
3.5941e-17
3.59435e-17
3.59457e-17
3.59478e-17
3.595e-17
3.59181e-17
3.5921e-17
3.59245e-17
3.59277e-17
3.5931e-17
3.5934e-17
3.5937e-17
3.59398e-17
3.59425e-17
3.59451e-17
3.59476e-17
3.59499e-17
3.59521e-17
3.59545e-17
3.59216e-17
3.59247e-17
3.59282e-17
3.59314e-17
3.59346e-17
3.59377e-17
3.59407e-17
3.59436e-17
3.59464e-17
3.5949e-17
3.59515e-17
3.59539e-17
3.59562e-17
3.59584e-17
3.59252e-17
3.59284e-17
3.59317e-17
3.59349e-17
3.59381e-17
3.59412e-17
3.59443e-17
3.59472e-17
3.595e-17
3.59527e-17
3.59553e-17
3.59578e-17
3.59601e-17
3.59623e-17
3.59287e-17
3.5932e-17
3.59351e-17
3.59383e-17
3.59415e-17
3.59446e-17
3.59476e-17
3.59506e-17
3.59534e-17
3.59562e-17
3.59588e-17
3.59614e-17
3.59637e-17
3.5966e-17
3.59322e-17
3.59354e-17
3.59384e-17
3.59416e-17
3.59446e-17
3.59477e-17
3.59508e-17
3.59537e-17
3.59566e-17
3.59594e-17
3.59621e-17
3.59647e-17
3.59671e-17
3.59695e-17
3.59355e-17
3.59385e-17
3.59415e-17
3.59446e-17
3.59476e-17
3.59507e-17
3.59537e-17
3.59566e-17
3.59595e-17
3.59624e-17
3.59651e-17
3.59678e-17
3.59703e-17
3.59728e-17
3.59387e-17
3.59415e-17
3.59443e-17
3.59474e-17
3.59503e-17
3.59533e-17
3.59563e-17
3.59593e-17
3.59622e-17
3.5965e-17
3.59678e-17
3.59707e-17
3.59733e-17
3.59759e-17
3.59417e-17
3.59443e-17
3.5947e-17
3.59499e-17
3.59528e-17
3.59558e-17
3.59587e-17
3.59617e-17
3.59646e-17
3.59675e-17
3.59703e-17
3.59734e-17
3.59761e-17
3.5979e-17
3.59443e-17
3.59468e-17
3.59494e-17
3.59522e-17
3.5955e-17
3.59579e-17
3.59609e-17
3.59638e-17
3.59667e-17
3.59697e-17
3.59727e-17
3.59758e-17
3.59785e-17
3.59814e-17
3.59463e-17
3.59487e-17
3.59515e-17
3.59542e-17
3.5957e-17
3.59598e-17
3.59628e-17
3.59657e-17
3.59686e-17
3.59716e-17
3.59747e-17
3.59778e-17
3.59804e-17
3.5983e-17
3.59477e-17
3.59502e-17
3.59531e-17
3.59558e-17
3.59586e-17
3.59614e-17
3.59644e-17
3.59673e-17
3.59704e-17
3.59734e-17
3.59764e-17
3.59792e-17
3.59814e-17
3.59838e-17
3.58725e-17
3.58745e-17
3.5877e-17
3.58793e-17
3.58818e-17
3.58842e-17
3.58866e-17
3.58891e-17
3.58914e-17
3.58938e-17
3.58961e-17
3.58983e-17
3.59004e-17
3.5902e-17
3.58775e-17
3.58791e-17
3.58815e-17
3.58837e-17
3.5886e-17
3.58884e-17
3.58909e-17
3.58935e-17
3.5896e-17
3.58985e-17
3.5901e-17
3.59034e-17
3.59055e-17
3.59079e-17
3.58822e-17
3.58838e-17
3.58861e-17
3.58882e-17
3.58906e-17
3.5893e-17
3.58955e-17
3.58981e-17
3.59006e-17
3.59032e-17
3.59057e-17
3.59081e-17
3.59104e-17
3.59128e-17
3.58867e-17
3.58883e-17
3.58906e-17
3.58928e-17
3.58952e-17
3.58976e-17
3.59002e-17
3.59028e-17
3.59054e-17
3.5908e-17
3.59105e-17
3.5913e-17
3.59154e-17
3.5918e-17
3.5891e-17
3.58927e-17
3.58951e-17
3.58973e-17
3.58998e-17
3.59022e-17
3.59048e-17
3.59075e-17
3.59101e-17
3.59128e-17
3.59154e-17
3.59179e-17
3.59203e-17
3.59228e-17
3.58955e-17
3.58974e-17
3.58996e-17
3.59019e-17
3.59043e-17
3.59069e-17
3.59095e-17
3.59122e-17
3.59149e-17
3.59176e-17
3.59203e-17
3.59229e-17
3.59254e-17
3.59279e-17
3.58998e-17
3.59019e-17
3.59041e-17
3.59064e-17
3.59089e-17
3.59115e-17
3.59142e-17
3.59169e-17
3.59197e-17
3.59225e-17
3.59252e-17
3.59279e-17
3.59305e-17
3.5933e-17
3.59042e-17
3.59063e-17
3.59085e-17
3.59109e-17
3.59134e-17
3.59161e-17
3.59188e-17
3.59216e-17
3.59244e-17
3.59273e-17
3.59301e-17
3.59329e-17
3.59355e-17
3.59381e-17
3.59084e-17
3.59105e-17
3.59127e-17
3.59153e-17
3.59178e-17
3.59205e-17
3.59233e-17
3.59262e-17
3.59291e-17
3.5932e-17
3.59349e-17
3.59377e-17
3.59405e-17
3.59431e-17
3.59126e-17
3.59147e-17
3.59169e-17
3.59195e-17
3.59221e-17
3.59249e-17
3.59277e-17
3.59306e-17
3.59336e-17
3.59366e-17
3.59395e-17
3.59425e-17
3.59454e-17
3.59481e-17
3.59166e-17
3.59187e-17
3.59209e-17
3.59236e-17
3.59262e-17
3.59291e-17
3.5932e-17
3.5935e-17
3.5938e-17
3.5941e-17
3.59441e-17
3.59472e-17
3.59503e-17
3.5953e-17
3.59205e-17
3.59226e-17
3.59249e-17
3.59275e-17
3.59302e-17
3.59331e-17
3.59361e-17
3.59391e-17
3.59422e-17
3.59453e-17
3.59485e-17
3.59517e-17
3.59549e-17
3.59577e-17
3.59237e-17
3.59259e-17
3.59284e-17
3.59311e-17
3.59339e-17
3.59369e-17
3.594e-17
3.59431e-17
3.59463e-17
3.59495e-17
3.59528e-17
3.59561e-17
3.59591e-17
3.59618e-17
3.59265e-17
3.59289e-17
3.59317e-17
3.59346e-17
3.59375e-17
3.59405e-17
3.59437e-17
3.59468e-17
3.59501e-17
3.59533e-17
3.59565e-17
3.59596e-17
3.59623e-17
3.5965e-17
3.58517e-17
3.58518e-17
3.58528e-17
3.58539e-17
3.58552e-17
3.58566e-17
3.58582e-17
3.58599e-17
3.58617e-17
3.58636e-17
3.58655e-17
3.58674e-17
3.58692e-17
3.58708e-17
3.58567e-17
3.58565e-17
3.58574e-17
3.58582e-17
3.58594e-17
3.58608e-17
3.58624e-17
3.58642e-17
3.5866e-17
3.58679e-17
3.58699e-17
3.5872e-17
3.58738e-17
3.58758e-17
3.58611e-17
3.58609e-17
3.58617e-17
3.58627e-17
3.58639e-17
3.58654e-17
3.5867e-17
3.58687e-17
3.58705e-17
3.58724e-17
3.58744e-17
3.58764e-17
3.58782e-17
3.58804e-17
3.58655e-17
3.58654e-17
3.58663e-17
3.58673e-17
3.58686e-17
3.587e-17
3.58716e-17
3.58734e-17
3.58752e-17
3.58772e-17
3.58791e-17
3.58812e-17
3.58831e-17
3.58853e-17
3.58696e-17
3.58699e-17
3.58708e-17
3.5872e-17
3.58733e-17
3.58748e-17
3.58765e-17
3.58782e-17
3.58801e-17
3.5882e-17
3.5884e-17
3.58861e-17
3.5888e-17
3.58901e-17
3.5874e-17
3.58746e-17
3.58756e-17
3.58768e-17
3.58782e-17
3.58797e-17
3.58814e-17
3.58832e-17
3.58852e-17
3.58872e-17
3.58892e-17
3.58913e-17
3.58933e-17
3.58954e-17
3.58784e-17
3.58793e-17
3.58804e-17
3.58816e-17
3.58831e-17
3.58847e-17
3.58865e-17
3.58884e-17
3.58903e-17
3.58924e-17
3.58945e-17
3.58966e-17
3.58987e-17
3.59007e-17
3.5883e-17
3.5884e-17
3.58851e-17
3.58865e-17
3.5888e-17
3.58898e-17
3.58916e-17
3.58936e-17
3.58956e-17
3.58977e-17
3.58999e-17
3.59021e-17
3.59042e-17
3.59062e-17
3.58874e-17
3.58886e-17
3.58898e-17
3.58914e-17
3.5893e-17
3.58948e-17
3.58968e-17
3.58988e-17
3.59009e-17
3.59031e-17
3.59053e-17
3.59075e-17
3.59098e-17
3.59118e-17
3.5892e-17
3.58933e-17
3.58946e-17
3.58962e-17
3.5898e-17
3.58999e-17
3.5902e-17
3.59041e-17
3.59063e-17
3.59085e-17
3.59109e-17
3.59131e-17
3.59155e-17
3.59175e-17
3.58964e-17
3.58977e-17
3.58992e-17
3.5901e-17
3.59029e-17
3.5905e-17
3.59071e-17
3.59094e-17
3.59117e-17
3.5914e-17
3.59164e-17
3.59188e-17
3.59213e-17
3.59233e-17
3.59008e-17
3.59022e-17
3.59038e-17
3.59057e-17
3.59078e-17
3.591e-17
3.59122e-17
3.59145e-17
3.59169e-17
3.59193e-17
3.59218e-17
3.59244e-17
3.5927e-17
3.5929e-17
3.59047e-17
3.59062e-17
3.59082e-17
3.59102e-17
3.59125e-17
3.59148e-17
3.59172e-17
3.59197e-17
3.59222e-17
3.59247e-17
3.59273e-17
3.593e-17
3.59325e-17
3.59345e-17
3.59084e-17
3.59103e-17
3.59126e-17
3.59148e-17
3.59172e-17
3.59196e-17
3.59221e-17
3.59247e-17
3.59273e-17
3.59298e-17
3.59324e-17
3.59349e-17
3.59373e-17
3.59393e-17
3.58422e-17
3.58416e-17
3.58415e-17
3.58415e-17
3.58418e-17
3.58421e-17
3.58427e-17
3.58434e-17
3.58442e-17
3.58453e-17
3.58463e-17
3.58475e-17
3.58486e-17
3.58496e-17
3.58463e-17
3.58454e-17
3.58453e-17
3.58452e-17
3.58453e-17
3.58457e-17
3.58462e-17
3.58469e-17
3.58478e-17
3.58488e-17
3.58499e-17
3.5851e-17
3.58521e-17
3.58533e-17
3.58498e-17
3.5849e-17
3.58489e-17
3.58489e-17
3.5849e-17
3.58494e-17
3.585e-17
3.58507e-17
3.58515e-17
3.58525e-17
3.58535e-17
3.58546e-17
3.58556e-17
3.58569e-17
3.58535e-17
3.58528e-17
3.58528e-17
3.58528e-17
3.5853e-17
3.58533e-17
3.58539e-17
3.58546e-17
3.58554e-17
3.58564e-17
3.58574e-17
3.58585e-17
3.58595e-17
3.58608e-17
3.5857e-17
3.58566e-17
3.58567e-17
3.58567e-17
3.5857e-17
3.58574e-17
3.5858e-17
3.58587e-17
3.58595e-17
3.58605e-17
3.58615e-17
3.58625e-17
3.58636e-17
3.58648e-17
3.58609e-17
3.58607e-17
3.58607e-17
3.58609e-17
3.58612e-17
3.58616e-17
3.58622e-17
3.5863e-17
3.58638e-17
3.58648e-17
3.58658e-17
3.58669e-17
3.58679e-17
3.58691e-17
3.58647e-17
3.58646e-17
3.58648e-17
3.5865e-17
3.58654e-17
3.5866e-17
3.58666e-17
3.58674e-17
3.58683e-17
3.58693e-17
3.58703e-17
3.58714e-17
3.58725e-17
3.58735e-17
3.58685e-17
3.58687e-17
3.5869e-17
3.58693e-17
3.58698e-17
3.58704e-17
3.58711e-17
3.5872e-17
3.58729e-17
3.58739e-17
3.5875e-17
3.58761e-17
3.58773e-17
3.58783e-17
3.58724e-17
3.58728e-17
3.58731e-17
3.58737e-17
3.58742e-17
3.58749e-17
3.58758e-17
3.58767e-17
3.58777e-17
3.58787e-17
3.58799e-17
3.58809e-17
3.58822e-17
3.58831e-17
3.58764e-17
3.58769e-17
3.58774e-17
3.58781e-17
3.58788e-17
3.58796e-17
3.58805e-17
3.58815e-17
3.58826e-17
3.58837e-17
3.58849e-17
3.5886e-17
3.58873e-17
3.58883e-17
3.58804e-17
3.58811e-17
3.58817e-17
3.58825e-17
3.58834e-17
3.58843e-17
3.58853e-17
3.58864e-17
3.58876e-17
3.58888e-17
3.589e-17
3.58912e-17
3.58926e-17
3.58935e-17
3.58845e-17
3.58853e-17
3.58861e-17
3.5887e-17
3.5888e-17
3.5889e-17
3.58902e-17
3.58914e-17
3.58927e-17
3.5894e-17
3.58953e-17
3.58965e-17
3.5898e-17
3.58988e-17
3.58884e-17
3.58893e-17
3.58903e-17
3.58914e-17
3.58926e-17
3.58938e-17
3.58951e-17
3.58964e-17
3.58978e-17
3.58992e-17
3.59005e-17
3.59019e-17
3.59034e-17
3.59042e-17
3.58924e-17
3.58935e-17
3.58948e-17
3.5896e-17
3.58974e-17
3.58987e-17
3.59e-17
3.59015e-17
3.59029e-17
3.59043e-17
3.59057e-17
3.5907e-17
3.59085e-17
3.59094e-17
3.58397e-17
3.58387e-17
3.5838e-17
3.58374e-17
3.5837e-17
3.58366e-17
3.58364e-17
3.58363e-17
3.58363e-17
3.58365e-17
3.58366e-17
3.58369e-17
3.58372e-17
3.58376e-17
3.58426e-17
3.58415e-17
3.58408e-17
3.58401e-17
3.58395e-17
3.58391e-17
3.58389e-17
3.58388e-17
3.58388e-17
3.58389e-17
3.5839e-17
3.58393e-17
3.58394e-17
3.584e-17
3.58452e-17
3.5844e-17
3.58434e-17
3.58427e-17
3.58422e-17
3.58418e-17
3.58416e-17
3.58414e-17
3.58414e-17
3.58414e-17
3.58415e-17
3.58417e-17
3.58418e-17
3.58424e-17
3.58478e-17
3.58468e-17
3.58461e-17
3.58454e-17
3.5845e-17
3.58446e-17
3.58443e-17
3.58441e-17
3.58441e-17
3.58441e-17
3.58442e-17
3.58443e-17
3.58444e-17
3.58449e-17
3.58504e-17
3.58494e-17
3.58489e-17
3.58483e-17
3.58478e-17
3.58475e-17
3.58472e-17
3.5847e-17
3.5847e-17
3.58469e-17
3.5847e-17
3.58471e-17
3.58472e-17
3.58475e-17
3.58531e-17
3.58523e-17
3.58518e-17
3.58512e-17
3.58508e-17
3.58505e-17
3.58502e-17
3.58501e-17
3.585e-17
3.585e-17
3.585e-17
3.58501e-17
3.58502e-17
3.58504e-17
3.58558e-17
3.58552e-17
3.58547e-17
3.58543e-17
3.58539e-17
3.58536e-17
3.58534e-17
3.58532e-17
3.58532e-17
3.58531e-17
3.58532e-17
3.58532e-17
3.58533e-17
3.58534e-17
3.58587e-17
3.58582e-17
3.58578e-17
3.58574e-17
3.58571e-17
3.58568e-17
3.58567e-17
3.58565e-17
3.58565e-17
3.58564e-17
3.58565e-17
3.58565e-17
3.58566e-17
3.58566e-17
3.58616e-17
3.58613e-17
3.5861e-17
3.58607e-17
3.58604e-17
3.58602e-17
3.58601e-17
3.586e-17
3.58599e-17
3.58599e-17
3.586e-17
3.586e-17
3.58601e-17
3.586e-17
3.58646e-17
3.58645e-17
3.58643e-17
3.58641e-17
3.58639e-17
3.58637e-17
3.58636e-17
3.58636e-17
3.58636e-17
3.58635e-17
3.58636e-17
3.58636e-17
3.58639e-17
3.58637e-17
3.58677e-17
3.58678e-17
3.58676e-17
3.58675e-17
3.58674e-17
3.58673e-17
3.58673e-17
3.58673e-17
3.58673e-17
3.58673e-17
3.58675e-17
3.58675e-17
3.58678e-17
3.58676e-17
3.5871e-17
3.58712e-17
3.58711e-17
3.58711e-17
3.58711e-17
3.58711e-17
3.58711e-17
3.58712e-17
3.58713e-17
3.58713e-17
3.58715e-17
3.58716e-17
3.58719e-17
3.58717e-17
3.58742e-17
3.58745e-17
3.58746e-17
3.58747e-17
3.58748e-17
3.58749e-17
3.5875e-17
3.58751e-17
3.58753e-17
3.58754e-17
3.58755e-17
3.58758e-17
3.5876e-17
3.58757e-17
3.58777e-17
3.58779e-17
3.58782e-17
3.58784e-17
3.58786e-17
3.58788e-17
3.5879e-17
3.58792e-17
3.58794e-17
3.58796e-17
3.58797e-17
3.58799e-17
3.58801e-17
3.588e-17
3.584e-17
3.58388e-17
3.58379e-17
3.58369e-17
3.58361e-17
3.58353e-17
3.58346e-17
3.58339e-17
3.58334e-17
3.58328e-17
3.58324e-17
3.5832e-17
3.58315e-17
3.58311e-17
3.58418e-17
3.58405e-17
3.58396e-17
3.58386e-17
3.58377e-17
3.58368e-17
3.58361e-17
3.58354e-17
3.58348e-17
3.58342e-17
3.58337e-17
3.58332e-17
3.58327e-17
3.58324e-17
3.58433e-17
3.5842e-17
3.58411e-17
3.58401e-17
3.58392e-17
3.58384e-17
3.58377e-17
3.58369e-17
3.58363e-17
3.58357e-17
3.58351e-17
3.58346e-17
3.5834e-17
3.58337e-17
3.58449e-17
3.58437e-17
3.58428e-17
3.58417e-17
3.58409e-17
3.584e-17
3.58393e-17
3.58385e-17
3.58379e-17
3.58372e-17
3.58366e-17
3.58361e-17
3.58354e-17
3.58351e-17
3.58464e-17
3.58453e-17
3.58444e-17
3.58434e-17
3.58426e-17
3.58417e-17
3.5841e-17
3.58402e-17
3.58395e-17
3.58389e-17
3.58382e-17
3.58376e-17
3.5837e-17
3.58365e-17
3.5848e-17
3.5847e-17
3.58461e-17
3.58452e-17
3.58444e-17
3.58435e-17
3.58427e-17
3.5842e-17
3.58413e-17
3.58406e-17
3.58399e-17
3.58393e-17
3.58386e-17
3.5838e-17
3.58497e-17
3.58488e-17
3.5848e-17
3.58471e-17
3.58462e-17
3.58454e-17
3.58446e-17
3.58439e-17
3.58431e-17
3.58424e-17
3.58417e-17
3.5841e-17
3.58403e-17
3.58396e-17
3.58516e-17
3.58507e-17
3.58499e-17
3.58491e-17
3.58482e-17
3.58474e-17
3.58466e-17
3.58458e-17
3.58451e-17
3.58443e-17
3.58436e-17
3.58429e-17
3.58422e-17
3.58414e-17
3.58534e-17
3.58527e-17
3.58519e-17
3.58511e-17
3.58503e-17
3.58495e-17
3.58487e-17
3.58479e-17
3.58472e-17
3.58464e-17
3.58457e-17
3.58449e-17
3.58442e-17
3.58433e-17
3.58554e-17
3.58548e-17
3.5854e-17
3.58533e-17
3.58524e-17
3.58517e-17
3.58509e-17
3.58501e-17
3.58493e-17
3.58485e-17
3.58478e-17
3.58469e-17
3.58462e-17
3.58453e-17
3.58574e-17
3.58569e-17
3.58561e-17
3.58554e-17
3.58547e-17
3.58539e-17
3.58531e-17
3.58524e-17
3.58516e-17
3.58508e-17
3.585e-17
3.58491e-17
3.58484e-17
3.58474e-17
3.58595e-17
3.58591e-17
3.58584e-17
3.58577e-17
3.5857e-17
3.58563e-17
3.58555e-17
3.58547e-17
3.58539e-17
3.58531e-17
3.58523e-17
3.58514e-17
3.58507e-17
3.58496e-17
3.58617e-17
3.58613e-17
3.58607e-17
3.58601e-17
3.58594e-17
3.58587e-17
3.58579e-17
3.58571e-17
3.58563e-17
3.58555e-17
3.58546e-17
3.58537e-17
3.5853e-17
3.58519e-17
3.58641e-17
3.58636e-17
3.5863e-17
3.58625e-17
3.58619e-17
3.58612e-17
3.58605e-17
3.58597e-17
3.58589e-17
3.5858e-17