/*--------------------------------*- C++ -*----------------------------------*\
| =========                 |                                                 |
| \\      /  F ield         | OpenFOAM: The Open Source CFD Toolbox           |
|  \\    /   O peration     | Version:  v2106                                 |
|   \\  /    A nd           | Website:  www.openfoam.com                      |
|    \\/     M anipulation  |                                                 |
\*---------------------------------------------------------------------------*/
FoamFile
{
    version     2.0;
    format      ascii;
    arch        "LSB;label=32;scalar=64";
    class       volScalarField;
    location    "0.000166";
    object      nut;
}
// * * * * * * * * * * * * * * * * * * * * * * * * * * * * * * * * * * * * * //

dimensions      [0 2 -1 0 0 0 0];

internalField   nonuniform List<scalar> 
17924
(
3.64541e-17
3.64531e-17
3.64517e-17
3.64501e-17
3.64327e-17
3.64312e-17
3.64294e-17
3.64277e-17
3.64261e-17
3.64246e-17
3.64232e-17
3.64297e-17
3.64282e-17
3.64262e-17
3.64244e-17
3.64226e-17
3.6421e-17
3.64194e-17
3.64264e-17
3.64246e-17
3.64225e-17
3.64206e-17
3.64188e-17
3.64171e-17
3.64155e-17
3.64228e-17
3.64209e-17
3.64187e-17
3.64169e-17
3.6415e-17
3.64132e-17
3.64115e-17
3.6419e-17
3.6417e-17
3.64148e-17
3.64129e-17
3.64109e-17
3.64091e-17
3.64074e-17
3.6415e-17
3.64129e-17
3.64108e-17
3.64088e-17
3.64068e-17
3.6405e-17
3.64032e-17
3.64109e-17
3.64088e-17
3.64066e-17
3.64046e-17
3.64026e-17
3.64008e-17
3.6399e-17
3.64066e-17
3.64044e-17
3.64023e-17
3.64003e-17
3.63983e-17
3.63965e-17
3.63947e-17
3.64023e-17
3.64e-17
3.6398e-17
3.63959e-17
3.6394e-17
3.63922e-17
3.63905e-17
3.63978e-17
3.63955e-17
3.63935e-17
3.63915e-17
3.63897e-17
3.63879e-17
3.63862e-17
3.63935e-17
3.63911e-17
3.63892e-17
3.63872e-17
3.63854e-17
3.63837e-17
3.63821e-17
3.63888e-17
3.63865e-17
3.63847e-17
3.63828e-17
3.63811e-17
3.63794e-17
3.63779e-17
3.63844e-17
3.63823e-17
3.63805e-17
3.63787e-17
3.6377e-17
3.63754e-17
3.63739e-17
3.63791e-17
3.63775e-17
3.63758e-17
3.63742e-17
3.63727e-17
3.63713e-17
3.637e-17
3.64065e-17
3.6405e-17
3.64034e-17
3.64021e-17
3.6401e-17
3.64e-17
3.63992e-17
3.63985e-17
3.63979e-17
3.63975e-17
3.63973e-17
3.63972e-17
3.63973e-17
3.63971e-17
3.64027e-17
3.64015e-17
3.63998e-17
3.63985e-17
3.63973e-17
3.63962e-17
3.63953e-17
3.63946e-17
3.63939e-17
3.63935e-17
3.63932e-17
3.63929e-17
3.63931e-17
3.63926e-17
3.63989e-17
3.63976e-17
3.63959e-17
3.63945e-17
3.63933e-17
3.63923e-17
3.63914e-17
3.63907e-17
3.63901e-17
3.63896e-17
3.63892e-17
3.63889e-17
3.6389e-17
3.63885e-17
3.63949e-17
3.63936e-17
3.63919e-17
3.63906e-17
3.63894e-17
3.63884e-17
3.63875e-17
3.63867e-17
3.63861e-17
3.63856e-17
3.63851e-17
3.63847e-17
3.63848e-17
3.63843e-17
3.63909e-17
3.63895e-17
3.63879e-17
3.63866e-17
3.63854e-17
3.63844e-17
3.63835e-17
3.63827e-17
3.63821e-17
3.63816e-17
3.63812e-17
3.63808e-17
3.63807e-17
3.63804e-17
3.63868e-17
3.63854e-17
3.63839e-17
3.63826e-17
3.63814e-17
3.63804e-17
3.63795e-17
3.63788e-17
3.63781e-17
3.63776e-17
3.63772e-17
3.63769e-17
3.63767e-17
3.63764e-17
3.63828e-17
3.63813e-17
3.63799e-17
3.63786e-17
3.63774e-17
3.63764e-17
3.63756e-17
3.63749e-17
3.63743e-17
3.63738e-17
3.63734e-17
3.63731e-17
3.63729e-17
3.63727e-17
3.63787e-17
3.63772e-17
3.63758e-17
3.63746e-17
3.63735e-17
3.63725e-17
3.63717e-17
3.6371e-17
3.63705e-17
3.637e-17
3.63697e-17
3.63694e-17
3.63691e-17
3.63691e-17
3.63748e-17
3.63732e-17
3.63719e-17
3.63707e-17
3.63696e-17
3.63687e-17
3.6368e-17
3.63673e-17
3.63668e-17
3.63665e-17
3.63661e-17
3.63659e-17
3.63657e-17
3.63658e-17
3.63708e-17
3.63692e-17
3.63679e-17
3.63668e-17
3.63659e-17
3.6365e-17
3.63644e-17
3.63638e-17
3.63634e-17
3.6363e-17
3.63627e-17
3.63626e-17
3.63624e-17
3.63626e-17
3.6367e-17
3.63654e-17
3.63642e-17
3.63632e-17
3.63623e-17
3.63615e-17
3.63609e-17
3.63604e-17
3.63601e-17
3.63598e-17
3.63596e-17
3.63596e-17
3.63594e-17
3.63597e-17
3.63632e-17
3.63616e-17
3.63606e-17
3.63596e-17
3.63588e-17
3.63581e-17
3.63576e-17
3.63572e-17
3.63569e-17
3.63567e-17
3.63567e-17
3.63567e-17
3.63566e-17
3.63569e-17
3.63596e-17
3.63582e-17
3.63573e-17
3.63563e-17
3.63556e-17
3.63549e-17
3.63545e-17
3.63542e-17
3.6354e-17
3.63539e-17
3.63539e-17
3.6354e-17
3.63541e-17
3.63544e-17
3.63555e-17
3.63545e-17
3.63537e-17
3.63529e-17
3.63523e-17
3.63518e-17
3.63515e-17
3.63514e-17
3.63513e-17
3.63512e-17
3.63513e-17
3.63514e-17
3.63515e-17
3.63517e-17
3.63776e-17
3.63768e-17
3.63759e-17
3.63754e-17
3.6375e-17
3.63747e-17
3.63745e-17
3.63745e-17
3.63746e-17
3.63749e-17
3.63753e-17
3.63758e-17
3.63767e-17
3.63773e-17
3.63738e-17
3.63735e-17
3.63727e-17
3.63722e-17
3.63718e-17
3.63715e-17
3.63714e-17
3.63713e-17
3.63715e-17
3.63717e-17
3.63721e-17
3.63726e-17
3.63733e-17
3.63737e-17
3.63704e-17
3.63701e-17
3.63694e-17
3.63689e-17
3.63685e-17
3.63683e-17
3.63681e-17
3.63682e-17
3.63683e-17
3.63686e-17
3.6369e-17
3.63694e-17
3.63702e-17
3.63705e-17
3.63671e-17
3.63667e-17
3.63661e-17
3.63656e-17
3.63653e-17
3.63651e-17
3.6365e-17
3.6365e-17
3.63652e-17
3.63655e-17
3.63659e-17
3.63663e-17
3.63669e-17
3.63672e-17
3.63638e-17
3.63633e-17
3.63627e-17
3.63623e-17
3.6362e-17
3.63618e-17
3.63618e-17
3.63619e-17
3.63621e-17
3.63624e-17
3.63628e-17
3.63632e-17
3.63638e-17
3.63642e-17
3.63605e-17
3.636e-17
3.63595e-17
3.63591e-17
3.63588e-17
3.63587e-17
3.63587e-17
3.63588e-17
3.6359e-17
3.63593e-17
3.63597e-17
3.63601e-17
3.63607e-17
3.63611e-17
3.63573e-17
3.63567e-17
3.63563e-17
3.63559e-17
3.63557e-17
3.63556e-17
3.63556e-17
3.63558e-17
3.6356e-17
3.63563e-17
3.63567e-17
3.63572e-17
3.63577e-17
3.63582e-17
3.63541e-17
3.63536e-17
3.63531e-17
3.63528e-17
3.63527e-17
3.63526e-17
3.63527e-17
3.63528e-17
3.63531e-17
3.63534e-17
3.63538e-17
3.63543e-17
3.63548e-17
3.63554e-17
3.63512e-17
3.63505e-17
3.63502e-17
3.63499e-17
3.63498e-17
3.63498e-17
3.63498e-17
3.635e-17
3.63503e-17
3.63507e-17
3.63511e-17
3.63517e-17
3.63521e-17
3.63528e-17
3.63482e-17
3.63476e-17
3.63473e-17
3.63471e-17
3.6347e-17
3.6347e-17
3.63472e-17
3.63474e-17
3.63477e-17
3.63481e-17
3.63486e-17
3.63491e-17
3.63496e-17
3.63503e-17
3.63455e-17
3.63448e-17
3.63446e-17
3.63444e-17
3.63444e-17
3.63445e-17
3.63447e-17
3.6345e-17
3.63453e-17
3.63457e-17
3.63462e-17
3.63468e-17
3.63473e-17
3.63481e-17
3.63428e-17
3.63421e-17
3.6342e-17
3.63419e-17
3.63419e-17
3.63421e-17
3.63423e-17
3.63427e-17
3.63431e-17
3.63435e-17
3.6344e-17
3.63447e-17
3.63452e-17
3.6346e-17
3.63403e-17
3.63397e-17
3.63396e-17
3.63395e-17
3.63396e-17
3.63398e-17
3.63401e-17
3.63405e-17
3.6341e-17
3.63415e-17
3.63421e-17
3.63427e-17
3.63434e-17
3.63441e-17
3.63376e-17
3.63372e-17
3.63372e-17
3.63372e-17
3.63374e-17
3.63377e-17
3.63381e-17
3.63386e-17
3.63391e-17
3.63397e-17
3.63402e-17
3.63408e-17
3.63414e-17
3.63421e-17
3.63469e-17
3.63472e-17
3.63473e-17
3.63477e-17
3.63481e-17
3.63485e-17
3.63491e-17
3.63496e-17
3.63503e-17
3.6351e-17
3.63519e-17
3.63527e-17
3.63538e-17
3.63548e-17
3.63446e-17
3.6345e-17
3.63452e-17
3.63456e-17
3.63461e-17
3.63466e-17
3.63471e-17
3.63477e-17
3.63484e-17
3.63492e-17
3.635e-17
3.63509e-17
3.63518e-17
3.63526e-17
3.63425e-17
3.63429e-17
3.63431e-17
3.63436e-17
3.6344e-17
3.63445e-17
3.63451e-17
3.63458e-17
3.63465e-17
3.63473e-17
3.63482e-17
3.6349e-17
3.635e-17
3.63508e-17
3.63403e-17
3.63407e-17
3.6341e-17
3.63415e-17
3.6342e-17
3.63425e-17
3.63431e-17
3.63438e-17
3.63446e-17
3.63454e-17
3.63463e-17
3.63471e-17
3.63481e-17
3.63488e-17
3.63382e-17
3.63387e-17
3.6339e-17
3.63395e-17
3.63399e-17
3.63405e-17
3.63411e-17
3.63418e-17
3.63426e-17
3.63435e-17
3.63444e-17
3.63453e-17
3.63462e-17
3.6347e-17
3.63361e-17
3.63366e-17
3.6337e-17
3.63375e-17
3.6338e-17
3.63385e-17
3.63392e-17
3.63399e-17
3.63407e-17
3.63415e-17
3.63424e-17
3.63433e-17
3.63442e-17
3.63451e-17
3.63342e-17
3.63346e-17
3.6335e-17
3.63355e-17
3.6336e-17
3.63366e-17
3.63373e-17
3.6338e-17
3.63388e-17
3.63396e-17
3.63405e-17
3.63414e-17
3.63423e-17
3.63433e-17
3.63322e-17
3.63326e-17
3.6333e-17
3.63336e-17
3.63341e-17
3.63347e-17
3.63354e-17
3.63361e-17
3.63369e-17
3.63378e-17
3.63386e-17
3.63395e-17
3.63404e-17
3.63414e-17
3.63303e-17
3.63307e-17
3.63312e-17
3.63317e-17
3.63323e-17
3.6333e-17
3.63337e-17
3.63344e-17
3.63352e-17
3.6336e-17
3.63369e-17
3.63378e-17
3.63387e-17
3.63397e-17
3.63286e-17
3.63289e-17
3.63295e-17
3.633e-17
3.63306e-17
3.63313e-17
3.6332e-17
3.63328e-17
3.63336e-17
3.63344e-17
3.63353e-17
3.63362e-17
3.6337e-17
3.6338e-17
3.6327e-17
3.63272e-17
3.63278e-17
3.63284e-17
3.63291e-17
3.63297e-17
3.63305e-17
3.63312e-17
3.6332e-17
3.63329e-17
3.63337e-17
3.63347e-17
3.63355e-17
3.63365e-17
3.63254e-17
3.63256e-17
3.63262e-17
3.63268e-17
3.63275e-17
3.63282e-17
3.6329e-17
3.63298e-17
3.63306e-17
3.63314e-17
3.63323e-17
3.63332e-17
3.6334e-17
3.6335e-17
3.63239e-17
3.63242e-17
3.63248e-17
3.63254e-17
3.63261e-17
3.63269e-17
3.63277e-17
3.63285e-17
3.63293e-17
3.63301e-17
3.6331e-17
3.63319e-17
3.63328e-17
3.63337e-17
3.63223e-17
3.63227e-17
3.63234e-17
3.6324e-17
3.63248e-17
3.63256e-17
3.63264e-17
3.63272e-17
3.63281e-17
3.63289e-17
3.63297e-17
3.63306e-17
3.63314e-17
3.63323e-17
3.63144e-17
3.63156e-17
3.63166e-17
3.63177e-17
3.63187e-17
3.63197e-17
3.63207e-17
3.63217e-17
3.63228e-17
3.63238e-17
3.63248e-17
3.63258e-17
3.63268e-17
3.63277e-17
3.63137e-17
3.63149e-17
3.6316e-17
3.63171e-17
3.63182e-17
3.63192e-17
3.63202e-17
3.63213e-17
3.63223e-17
3.63233e-17
3.63244e-17
3.63254e-17
3.63265e-17
3.63273e-17
3.6313e-17
3.63143e-17
3.63153e-17
3.63164e-17
3.63175e-17
3.63185e-17
3.63196e-17
3.63207e-17
3.63218e-17
3.63228e-17
3.63239e-17
3.6325e-17
3.63261e-17
3.63269e-17
3.63123e-17
3.63136e-17
3.63146e-17
3.63158e-17
3.63168e-17
3.63179e-17
3.6319e-17
3.632e-17
3.63211e-17
3.63222e-17
3.63233e-17
3.63244e-17
3.63255e-17
3.63264e-17
3.63117e-17
3.63129e-17
3.63139e-17
3.6315e-17
3.63161e-17
3.63172e-17
3.63183e-17
3.63194e-17
3.63204e-17
3.63215e-17
3.63226e-17
3.63237e-17
3.63248e-17
3.63258e-17
3.63109e-17
3.63121e-17
3.63132e-17
3.63143e-17
3.63154e-17
3.63165e-17
3.63176e-17
3.63186e-17
3.63197e-17
3.63208e-17
3.63219e-17
3.6323e-17
3.63241e-17
3.63251e-17
3.63102e-17
3.63114e-17
3.63125e-17
3.63136e-17
3.63147e-17
3.63158e-17
3.63168e-17
3.63179e-17
3.6319e-17
3.63201e-17
3.63212e-17
3.63223e-17
3.63233e-17
3.63244e-17
3.63095e-17
3.63106e-17
3.63118e-17
3.63129e-17
3.6314e-17
3.63151e-17
3.63161e-17
3.63172e-17
3.63183e-17
3.63194e-17
3.63205e-17
3.63215e-17
3.63226e-17
3.63237e-17
3.63088e-17
3.63099e-17
3.63111e-17
3.63122e-17
3.63133e-17
3.63144e-17
3.63155e-17
3.63165e-17
3.63176e-17
3.63187e-17
3.63197e-17
3.63208e-17
3.63218e-17
3.63229e-17
3.63082e-17
3.63092e-17
3.63104e-17
3.63115e-17
3.63126e-17
3.63137e-17
3.63148e-17
3.63159e-17
3.63169e-17
3.6318e-17
3.6319e-17
3.63201e-17
3.63211e-17
3.63222e-17
3.63076e-17
3.63086e-17
3.63098e-17
3.63109e-17
3.6312e-17
3.63131e-17
3.63141e-17
3.63152e-17
3.63162e-17
3.63173e-17
3.63183e-17
3.63194e-17
3.63203e-17
3.63214e-17
3.6307e-17
3.6308e-17
3.63092e-17
3.63103e-17
3.63113e-17
3.63124e-17
3.63135e-17
3.63145e-17
3.63156e-17
3.63166e-17
3.63176e-17
3.63187e-17
3.63196e-17
3.63207e-17
3.63064e-17
3.63075e-17
3.63086e-17
3.63097e-17
3.63108e-17
3.63118e-17
3.63129e-17
3.63139e-17
3.63149e-17
3.6316e-17
3.63169e-17
3.6318e-17
3.63189e-17
3.63199e-17
3.63059e-17
3.63069e-17
3.6308e-17
3.63091e-17
3.63102e-17
3.63113e-17
3.63123e-17
3.63133e-17
3.63143e-17
3.63153e-17
3.63162e-17
3.63172e-17
3.63181e-17
3.6319e-17
3.6279e-17
3.62805e-17
3.62819e-17
3.62833e-17
3.62846e-17
3.62859e-17
3.62871e-17
3.62883e-17
3.62894e-17
3.62905e-17
3.62915e-17
3.62925e-17
3.62934e-17
3.62943e-17
3.62794e-17
3.62809e-17
3.62824e-17
3.62839e-17
3.62853e-17
3.62866e-17
3.62879e-17
3.62891e-17
3.62903e-17
3.62914e-17
3.62924e-17
3.62934e-17
3.62943e-17
3.62952e-17
3.62801e-17
3.62816e-17
3.62831e-17
3.62846e-17
3.6286e-17
3.62873e-17
3.62885e-17
3.62897e-17
3.62909e-17
3.6292e-17
3.62931e-17
3.62941e-17
3.62951e-17
3.6296e-17
3.62806e-17
3.62822e-17
3.62837e-17
3.62851e-17
3.62865e-17
3.62878e-17
3.62891e-17
3.62903e-17
3.62915e-17
3.62927e-17
3.62938e-17
3.62948e-17
3.62958e-17
3.62967e-17
3.62812e-17
3.62827e-17
3.62842e-17
3.62856e-17
3.6287e-17
3.62884e-17
3.62896e-17
3.62909e-17
3.6292e-17
3.62932e-17
3.62943e-17
3.62953e-17
3.62964e-17
3.62973e-17
3.62816e-17
3.62831e-17
3.62846e-17
3.62861e-17
3.62875e-17
3.62888e-17
3.62901e-17
3.62913e-17
3.62925e-17
3.62937e-17
3.62948e-17
3.62959e-17
3.62969e-17
3.62978e-17
3.6282e-17
3.62836e-17
3.62851e-17
3.62865e-17
3.62879e-17
3.62892e-17
3.62905e-17
3.62917e-17
3.62929e-17
3.62941e-17
3.62952e-17
3.62962e-17
3.62972e-17
3.62982e-17
3.62824e-17
3.62839e-17
3.62854e-17
3.62869e-17
3.62883e-17
3.62896e-17
3.62909e-17
3.62921e-17
3.62933e-17
3.62944e-17
3.62955e-17
3.62966e-17
3.62976e-17
3.62986e-17
3.62828e-17
3.62843e-17
3.62858e-17
3.62872e-17
3.62886e-17
3.62899e-17
3.62912e-17
3.62924e-17
3.62936e-17
3.62947e-17
3.62958e-17
3.62968e-17
3.62978e-17
3.62988e-17
3.62831e-17
3.62846e-17
3.62861e-17
3.62875e-17
3.62889e-17
3.62902e-17
3.62914e-17
3.62927e-17
3.62938e-17
3.62949e-17
3.6296e-17
3.6297e-17
3.6298e-17
3.6299e-17
3.62834e-17
3.62849e-17
3.62864e-17
3.62878e-17
3.62891e-17
3.62904e-17
3.62916e-17
3.62928e-17
3.62939e-17
3.6295e-17
3.62961e-17
3.62971e-17
3.62981e-17
3.62991e-17
3.62837e-17
3.62852e-17
3.62866e-17
3.6288e-17
3.62893e-17
3.62905e-17
3.62918e-17
3.62929e-17
3.6294e-17
3.62951e-17
3.62961e-17
3.62971e-17
3.62981e-17
3.62991e-17
3.6284e-17
3.62855e-17
3.62868e-17
3.62882e-17
3.62894e-17
3.62907e-17
3.62918e-17
3.6293e-17
3.6294e-17
3.62951e-17
3.62961e-17
3.62971e-17
3.6298e-17
3.6299e-17
3.62843e-17
3.62857e-17
3.6287e-17
3.62884e-17
3.62896e-17
3.62908e-17
3.62919e-17
3.6293e-17
3.6294e-17
3.6295e-17
3.6296e-17
3.62969e-17
3.62978e-17
3.62987e-17
3.62406e-17
3.62419e-17
3.62433e-17
3.62445e-17
3.62458e-17
3.6247e-17
3.62482e-17
3.62493e-17
3.62503e-17
3.62512e-17
3.62521e-17
3.62529e-17
3.62537e-17
3.62545e-17
3.62418e-17
3.62431e-17
3.62445e-17
3.62459e-17
3.62472e-17
3.62485e-17
3.62497e-17
3.62508e-17
3.62519e-17
3.62528e-17
3.62537e-17
3.62546e-17
3.62553e-17
3.62561e-17
3.62432e-17
3.62446e-17
3.6246e-17
3.62474e-17
3.62487e-17
3.625e-17
3.62512e-17
3.62523e-17
3.62533e-17
3.62543e-17
3.62552e-17
3.62561e-17
3.62569e-17
3.62576e-17
3.62445e-17
3.62459e-17
3.62473e-17
3.62487e-17
3.62501e-17
3.62513e-17
3.62526e-17
3.62537e-17
3.62548e-17
3.62558e-17
3.62567e-17
3.62576e-17
3.62584e-17
3.62591e-17
3.62458e-17
3.62472e-17
3.62487e-17
3.62501e-17
3.62514e-17
3.62527e-17
3.62539e-17
3.62551e-17
3.62561e-17
3.62571e-17
3.62581e-17
3.6259e-17
3.62598e-17
3.62605e-17
3.6247e-17
3.62485e-17
3.625e-17
3.62514e-17
3.62527e-17
3.6254e-17
3.62552e-17
3.62564e-17
3.62575e-17
3.62585e-17
3.62594e-17
3.62603e-17
3.62611e-17
3.62619e-17
3.62482e-17
3.62497e-17
3.62512e-17
3.62526e-17
3.6254e-17
3.62553e-17
3.62565e-17
3.62576e-17
3.62587e-17
3.62597e-17
3.62607e-17
3.62615e-17
3.62624e-17
3.62631e-17
3.62493e-17
3.62509e-17
3.62524e-17
3.62538e-17
3.62551e-17
3.62564e-17
3.62577e-17
3.62588e-17
3.62599e-17
3.62609e-17
3.62618e-17
3.62627e-17
3.62635e-17
3.62643e-17
3.62505e-17
3.6252e-17
3.62534e-17
3.62549e-17
3.62562e-17
3.62575e-17
3.62587e-17
3.62599e-17
3.62609e-17
3.62619e-17
3.62629e-17
3.62638e-17
3.62646e-17
3.62654e-17
3.62515e-17
3.6253e-17
3.62545e-17
3.62559e-17
3.62572e-17
3.62585e-17
3.62597e-17
3.62608e-17
3.62619e-17
3.62629e-17
3.62638e-17
3.62647e-17
3.62655e-17
3.62663e-17
3.62525e-17
3.6254e-17
3.62554e-17
3.62568e-17
3.62581e-17
3.62594e-17
3.62606e-17
3.62617e-17
3.62627e-17
3.62637e-17
3.62646e-17
3.62655e-17
3.62663e-17
3.62672e-17
3.62535e-17
3.6255e-17
3.62563e-17
3.62577e-17
3.6259e-17
3.62602e-17
3.62614e-17
3.62625e-17
3.62635e-17
3.62644e-17
3.62653e-17
3.62662e-17
3.6267e-17
3.62679e-17
3.62545e-17
3.62559e-17
3.62573e-17
3.62586e-17
3.62598e-17
3.6261e-17
3.62621e-17
3.62632e-17
3.62641e-17
3.62651e-17
3.6266e-17
3.62668e-17
3.62677e-17
3.62685e-17
3.62554e-17
3.62568e-17
3.62581e-17
3.62594e-17
3.62606e-17
3.62617e-17
3.62628e-17
3.62638e-17
3.62647e-17
3.62656e-17
3.62665e-17
3.62673e-17
3.62681e-17
3.6269e-17
3.62019e-17
3.62027e-17
3.62036e-17
3.62045e-17
3.62054e-17
3.62063e-17
3.62071e-17
3.62079e-17
3.62086e-17
3.62093e-17
3.62099e-17
3.62105e-17
3.62111e-17
3.62117e-17
3.62032e-17
3.6204e-17
3.6205e-17
3.6206e-17
3.62069e-17
3.62078e-17
3.62087e-17
3.62095e-17
3.62103e-17
3.6211e-17
3.62116e-17
3.62122e-17
3.62128e-17
3.62134e-17
3.62047e-17
3.62056e-17
3.62066e-17
3.62076e-17
3.62085e-17
3.62094e-17
3.62103e-17
3.62111e-17
3.62119e-17
3.62126e-17
3.62132e-17
3.62138e-17
3.62144e-17
3.6215e-17
3.62062e-17
3.62071e-17
3.62082e-17
3.62091e-17
3.62101e-17
3.6211e-17
3.62119e-17
3.62128e-17
3.62135e-17
3.62143e-17
3.62149e-17
3.62155e-17
3.62161e-17
3.62166e-17
3.62076e-17
3.62086e-17
3.62097e-17
3.62107e-17
3.62117e-17
3.62126e-17
3.62135e-17
3.62144e-17
3.62152e-17
3.62159e-17
3.62165e-17
3.62171e-17
3.62177e-17
3.62182e-17
3.62091e-17
3.62102e-17
3.62112e-17
3.62123e-17
3.62133e-17
3.62142e-17
3.62151e-17
3.6216e-17
3.62168e-17
3.62175e-17
3.62182e-17
3.62188e-17
3.62193e-17
3.62199e-17
3.62106e-17
3.62117e-17
3.62127e-17
3.62138e-17
3.62148e-17
3.62158e-17
3.62167e-17
3.62175e-17
3.62183e-17
3.6219e-17
3.62197e-17
3.62203e-17
3.62209e-17
3.62214e-17
3.6212e-17
3.62131e-17
3.62142e-17
3.62153e-17
3.62163e-17
3.62172e-17
3.62181e-17
3.6219e-17
3.62198e-17
3.62205e-17
3.62212e-17
3.62218e-17
3.62224e-17
3.62229e-17
3.62134e-17
3.62145e-17
3.62156e-17
3.62167e-17
3.62177e-17
3.62186e-17
3.62196e-17
3.62204e-17
3.62212e-17
3.62219e-17
3.62226e-17
3.62232e-17
3.62238e-17
3.62243e-17
3.62148e-17
3.62159e-17
3.6217e-17
3.6218e-17
3.6219e-17
3.622e-17
3.62209e-17
3.62217e-17
3.62225e-17
3.62232e-17
3.62239e-17
3.62245e-17
3.62251e-17
3.62256e-17
3.62161e-17
3.62172e-17
3.62183e-17
3.62193e-17
3.62203e-17
3.62213e-17
3.62222e-17
3.6223e-17
3.62238e-17
3.62245e-17
3.62251e-17
3.62258e-17
3.62264e-17
3.62269e-17
3.62174e-17
3.62185e-17
3.62196e-17
3.62206e-17
3.62216e-17
3.62225e-17
3.62233e-17
3.62242e-17
3.62249e-17
3.62256e-17
3.62263e-17
3.62269e-17
3.62275e-17
3.62281e-17
3.62187e-17
3.62198e-17
3.62208e-17
3.62218e-17
3.62227e-17
3.62236e-17
3.62245e-17
3.62252e-17
3.6226e-17
3.62267e-17
3.62273e-17
3.62279e-17
3.62286e-17
3.62292e-17
3.62199e-17
3.6221e-17
3.6222e-17
3.62229e-17
3.62239e-17
3.62247e-17
3.62255e-17
3.62263e-17
3.6227e-17
3.62276e-17
3.62282e-17
3.62288e-17
3.62295e-17
3.62301e-17
3.61653e-17
3.61656e-17
3.61661e-17
3.61665e-17
3.6167e-17
3.61674e-17
3.61678e-17
3.61682e-17
3.61686e-17
3.6169e-17
3.61693e-17
3.61696e-17
3.617e-17
3.61704e-17
3.61664e-17
3.61667e-17
3.61672e-17
3.61677e-17
3.61682e-17
3.61686e-17
3.6169e-17
3.61695e-17
3.61699e-17
3.61702e-17
3.61706e-17
3.61709e-17
3.61712e-17
3.61717e-17
3.61676e-17
3.61679e-17
3.61685e-17
3.6169e-17
3.61694e-17
3.61699e-17
3.61703e-17
3.61707e-17
3.61711e-17
3.61715e-17
3.61718e-17
3.61722e-17
3.61725e-17
3.61729e-17
3.61688e-17
3.61692e-17
3.61697e-17
3.61702e-17
3.61707e-17
3.61712e-17
3.61716e-17
3.61721e-17
3.61725e-17
3.61728e-17
3.61732e-17
3.61735e-17
3.61738e-17
3.61742e-17
3.617e-17
3.61705e-17
3.6171e-17
3.61715e-17
3.6172e-17
3.61725e-17
3.61729e-17
3.61734e-17
3.61738e-17
3.61742e-17
3.61745e-17
3.61748e-17
3.61751e-17
3.61754e-17
3.61713e-17
3.61718e-17
3.61723e-17
3.61728e-17
3.61733e-17
3.61738e-17
3.61743e-17
3.61747e-17
3.61751e-17
3.61755e-17
3.61758e-17
3.61762e-17
3.61765e-17
3.61767e-17
3.61725e-17
3.6173e-17
3.61736e-17
3.61741e-17
3.61746e-17
3.61751e-17
3.61756e-17
3.6176e-17
3.61764e-17
3.61768e-17
3.61772e-17
3.61775e-17
3.61778e-17
3.6178e-17
3.61738e-17
3.61743e-17
3.61749e-17
3.61754e-17
3.61759e-17
3.61764e-17
3.61769e-17
3.61773e-17
3.61777e-17
3.61781e-17
3.61785e-17
3.61788e-17
3.61791e-17
3.61793e-17
3.6175e-17
3.61756e-17
3.61761e-17
3.61767e-17
3.61772e-17
3.61777e-17
3.61781e-17
3.61786e-17
3.6179e-17
3.61794e-17
3.61797e-17
3.61801e-17
3.61803e-17
3.61806e-17
3.61762e-17
3.61768e-17
3.61774e-17
3.61779e-17
3.61784e-17
3.61789e-17
3.61794e-17
3.61798e-17
3.61802e-17
3.61806e-17
3.6181e-17
3.61813e-17
3.61816e-17
3.61818e-17
3.61774e-17
3.61781e-17
3.61786e-17
3.61791e-17
3.61796e-17
3.61801e-17
3.61806e-17
3.6181e-17
3.61814e-17
3.61818e-17
3.61821e-17
3.61825e-17
3.61828e-17
3.6183e-17
3.61786e-17
3.61793e-17
3.61798e-17
3.61803e-17
3.61808e-17
3.61813e-17
3.61817e-17
3.61822e-17
3.61826e-17
3.61829e-17
3.61833e-17
3.61836e-17
3.61839e-17
3.61841e-17
3.61798e-17
3.61804e-17
3.61809e-17
3.61814e-17
3.61819e-17
3.61824e-17
3.61828e-17
3.61833e-17
3.61837e-17
3.6184e-17
3.61844e-17
3.61847e-17
3.6185e-17
3.61853e-17
3.6181e-17
3.61815e-17
3.6182e-17
3.61825e-17
3.6183e-17
3.61835e-17
3.61839e-17
3.61843e-17
3.61847e-17
3.6185e-17
3.61854e-17
3.61857e-17
3.6186e-17
3.61864e-17
3.61316e-17
3.61317e-17
3.61318e-17
3.61319e-17
3.6132e-17
3.61321e-17
3.61322e-17
3.61323e-17
3.61323e-17
3.61324e-17
3.61325e-17
3.61325e-17
3.61326e-17
3.61328e-17
3.61324e-17
3.61324e-17
3.61325e-17
3.61326e-17
3.61327e-17
3.61328e-17
3.61329e-17
3.6133e-17
3.61331e-17
3.61332e-17
3.61332e-17
3.61333e-17
3.61334e-17
3.61335e-17
3.61331e-17
3.61332e-17
3.61333e-17
3.61334e-17
3.61335e-17
3.61336e-17
3.61337e-17
3.61338e-17
3.61338e-17
3.61339e-17
3.6134e-17
3.61341e-17
3.61341e-17
3.61343e-17
3.61339e-17
3.6134e-17
3.61341e-17
3.61342e-17
3.61343e-17
3.61344e-17
3.61345e-17
3.61345e-17
3.61346e-17
3.61347e-17
3.61348e-17
3.61349e-17
3.61349e-17
3.6135e-17
3.61347e-17
3.61348e-17
3.61349e-17
3.6135e-17
3.61351e-17
3.61352e-17
3.61353e-17
3.61353e-17
3.61354e-17
3.61355e-17
3.61356e-17
3.61356e-17
3.61357e-17
3.61358e-17
3.61355e-17
3.61356e-17
3.61357e-17
3.61358e-17
3.61359e-17
3.6136e-17
3.61361e-17
3.61362e-17
3.61362e-17
3.61363e-17
3.61364e-17
3.61365e-17
3.61365e-17
3.61366e-17
3.61363e-17
3.61364e-17
3.61365e-17
3.61366e-17
3.61367e-17
3.61368e-17
3.61369e-17
3.6137e-17
3.61371e-17
3.61371e-17
3.61372e-17
3.61373e-17
3.61373e-17
3.61373e-17
3.61371e-17
3.61373e-17
3.61374e-17
3.61375e-17
3.61375e-17
3.61376e-17
3.61377e-17
3.61378e-17
3.61379e-17
3.6138e-17
3.6138e-17
3.61381e-17
3.61381e-17
3.61381e-17
3.6138e-17
3.61381e-17
3.61382e-17
3.61383e-17
3.61384e-17
3.61385e-17
3.61386e-17
3.61386e-17
3.61387e-17
3.61388e-17
3.61388e-17
3.61389e-17
3.61389e-17
3.61389e-17
3.61388e-17
3.61389e-17
3.6139e-17
3.61391e-17
3.61392e-17
3.61393e-17
3.61394e-17
3.61395e-17
3.61395e-17
3.61396e-17
3.61397e-17
3.61397e-17
3.61397e-17
3.61397e-17
3.61395e-17
3.61397e-17
3.61398e-17
3.61399e-17
3.614e-17
3.61401e-17
3.61402e-17
3.61403e-17
3.61404e-17
3.61404e-17
3.61405e-17
3.61405e-17
3.61406e-17
3.61405e-17
3.61403e-17
3.61405e-17
3.61406e-17
3.61407e-17
3.61408e-17
3.61409e-17
3.6141e-17
3.61411e-17
3.61412e-17
3.61412e-17
3.61413e-17
3.61413e-17
3.61414e-17
3.61413e-17
3.61411e-17
3.61412e-17
3.61413e-17
3.61414e-17
3.61416e-17
3.61417e-17
3.61417e-17
3.61418e-17
3.61419e-17
3.6142e-17
3.6142e-17
3.61421e-17
3.61421e-17
3.61421e-17
3.61418e-17
3.6142e-17
3.61421e-17
3.61422e-17
3.61423e-17
3.61424e-17
3.61425e-17
3.61426e-17
3.61427e-17
3.61427e-17
3.61428e-17
3.61428e-17
3.61429e-17
3.61429e-17
3.60999e-17
3.60999e-17
3.60998e-17
3.60998e-17
3.60997e-17
3.60996e-17
3.60995e-17
3.60994e-17
3.60993e-17
3.60992e-17
3.60991e-17
3.6099e-17
3.60988e-17
3.60988e-17
3.61004e-17
3.61003e-17
3.61002e-17
3.61001e-17
3.61001e-17
3.61e-17
3.60999e-17
3.60998e-17
3.60997e-17
3.60995e-17
3.60994e-17
3.60993e-17
3.60992e-17
3.60991e-17
3.61008e-17
3.61007e-17
3.61006e-17
3.61005e-17
3.61004e-17
3.61003e-17
3.61002e-17
3.61001e-17
3.61e-17
3.60999e-17
3.60998e-17
3.60997e-17
3.60995e-17
3.60994e-17
3.61012e-17
3.61011e-17
3.6101e-17
3.61009e-17
3.61008e-17
3.61007e-17
3.61006e-17
3.61005e-17
3.61004e-17
3.61002e-17
3.61001e-17
3.61e-17
3.60999e-17
3.60997e-17
3.61016e-17
3.61015e-17
3.61014e-17
3.61013e-17
3.61012e-17
3.61011e-17
3.61009e-17
3.61008e-17
3.61007e-17
3.61006e-17
3.61005e-17
3.61003e-17
3.61002e-17
3.61001e-17
3.6102e-17
3.61019e-17
3.61018e-17
3.61017e-17
3.61015e-17
3.61014e-17
3.61013e-17
3.61012e-17
3.61011e-17
3.61009e-17
3.61008e-17
3.61007e-17
3.61005e-17
3.61004e-17
3.61024e-17
3.61022e-17
3.61021e-17
3.6102e-17
3.61019e-17
3.61018e-17
3.61017e-17
3.61015e-17
3.61014e-17
3.61013e-17
3.61012e-17
3.6101e-17
3.61009e-17
3.61007e-17
3.61027e-17
3.61026e-17
3.61025e-17
3.61024e-17
3.61023e-17
3.61021e-17
3.6102e-17
3.61019e-17
3.61018e-17
3.61016e-17
3.61015e-17
3.61014e-17
3.61012e-17
3.6101e-17
3.61031e-17
3.6103e-17
3.61029e-17
3.61028e-17
3.61026e-17
3.61025e-17
3.61024e-17
3.61023e-17
3.61021e-17
3.6102e-17
3.61019e-17
3.61017e-17
3.61015e-17
3.61013e-17
3.61034e-17
3.61033e-17
3.61032e-17
3.61031e-17
3.6103e-17
3.61029e-17
3.61027e-17
3.61026e-17
3.61025e-17
3.61024e-17
3.61022e-17
3.6102e-17
3.61019e-17
3.61017e-17
3.61037e-17
3.61037e-17
3.61035e-17
3.61034e-17
3.61033e-17
3.61032e-17
3.61031e-17
3.6103e-17
3.61028e-17
3.61027e-17
3.61026e-17
3.61024e-17
3.61022e-17
3.6102e-17
3.6104e-17
3.6104e-17
3.61038e-17
3.61037e-17
3.61036e-17
3.61035e-17
3.61034e-17
3.61033e-17
3.61032e-17
3.61031e-17
3.61029e-17
3.61027e-17
3.61026e-17
3.61023e-17
3.61043e-17
3.61042e-17
3.61041e-17
3.6104e-17
3.61039e-17
3.61038e-17
3.61037e-17
3.61036e-17
3.61035e-17
3.61034e-17
3.61032e-17
3.61031e-17
3.61029e-17
3.61027e-17
3.61045e-17
3.61045e-17
3.61044e-17
3.61043e-17
3.61042e-17
3.61041e-17
3.6104e-17
3.61039e-17
3.61038e-17
3.61037e-17
3.61036e-17
3.61034e-17
3.61033e-17
3.6103e-17
3.6069e-17
3.6069e-17
3.60689e-17
3.60688e-17
3.60687e-17
3.60686e-17
3.60684e-17
3.60682e-17
3.60681e-17
3.60679e-17
3.60677e-17
3.60674e-17
3.60672e-17
3.6067e-17
3.60692e-17
3.60692e-17
3.60691e-17
3.6069e-17
3.60689e-17
3.60687e-17
3.60686e-17
3.60684e-17
3.60682e-17
3.6068e-17
3.60678e-17
3.60676e-17
3.60673e-17
3.60671e-17
3.60694e-17
3.60693e-17
3.60692e-17
3.60691e-17
3.6069e-17
3.60689e-17
3.60687e-17
3.60685e-17
3.60683e-17
3.60681e-17
3.60679e-17
3.60677e-17
3.60674e-17
3.60672e-17
3.60696e-17
3.60695e-17
3.60694e-17
3.60693e-17
3.60691e-17
3.6069e-17
3.60688e-17
3.60686e-17
3.60684e-17
3.60682e-17
3.6068e-17
3.60678e-17
3.60675e-17
3.60673e-17
3.60697e-17
3.60696e-17
3.60695e-17
3.60694e-17
3.60692e-17
3.60691e-17
3.60689e-17
3.60687e-17
3.60685e-17
3.60683e-17
3.60681e-17
3.60679e-17
3.60676e-17
3.60673e-17
3.60698e-17
3.60697e-17
3.60696e-17
3.60695e-17
3.60693e-17
3.60692e-17
3.6069e-17
3.60688e-17
3.60686e-17
3.60684e-17
3.60682e-17
3.60679e-17
3.60677e-17
3.60674e-17
3.60699e-17
3.60698e-17
3.60697e-17
3.60695e-17
3.60694e-17
3.60692e-17
3.60691e-17
3.60689e-17
3.60687e-17
3.60684e-17
3.60682e-17
3.6068e-17
3.60677e-17
3.60674e-17
3.607e-17
3.60698e-17
3.60697e-17
3.60696e-17
3.60694e-17
3.60693e-17
3.60691e-17
3.60689e-17
3.60687e-17
3.60685e-17
3.60682e-17
3.6068e-17
3.60677e-17
3.60674e-17
3.607e-17
3.60699e-17
3.60697e-17
3.60696e-17
3.60695e-17
3.60693e-17
3.60691e-17
3.60689e-17
3.60687e-17
3.60685e-17
3.60683e-17
3.6068e-17
3.60677e-17
3.60675e-17
3.607e-17
3.60699e-17
3.60697e-17
3.60696e-17
3.60695e-17
3.60693e-17
3.60691e-17
3.6069e-17
3.60688e-17
3.60685e-17
3.60683e-17
3.6068e-17
3.60677e-17
3.60675e-17
3.607e-17
3.60698e-17
3.60697e-17
3.60696e-17
3.60695e-17
3.60693e-17
3.60691e-17
3.6069e-17
3.60688e-17
3.60685e-17
3.60683e-17
3.6068e-17
3.60677e-17
3.60674e-17
3.60699e-17
3.60698e-17
3.60697e-17
3.60695e-17
3.60694e-17
3.60693e-17
3.60691e-17
3.60689e-17
3.60687e-17
3.60685e-17
3.60683e-17
3.6068e-17
3.60677e-17
3.60674e-17
3.60698e-17
3.60697e-17
3.60696e-17
3.60695e-17
3.60694e-17
3.60692e-17
3.60691e-17
3.60689e-17
3.60687e-17
3.60685e-17
3.60683e-17
3.6068e-17
3.60677e-17
3.60674e-17
3.60697e-17
3.60696e-17
3.60695e-17
3.60694e-17
3.60693e-17
3.60692e-17
3.6069e-17
3.60689e-17
3.60687e-17
3.60685e-17
3.60683e-17
3.6068e-17
3.60677e-17
3.60674e-17
3.60385e-17
3.60385e-17
3.60384e-17
3.60384e-17
3.60383e-17
3.60382e-17
3.60381e-17
3.60379e-17
3.60377e-17
3.60375e-17
3.60373e-17
3.60371e-17
3.60368e-17
3.60365e-17
3.60386e-17
3.60385e-17
3.60385e-17
3.60384e-17
3.60384e-17
3.60383e-17
3.60381e-17
3.6038e-17
3.60378e-17
3.60376e-17
3.60373e-17
3.60371e-17
3.60368e-17
3.60365e-17
3.60386e-17
3.60386e-17
3.60386e-17
3.60385e-17
3.60384e-17
3.60383e-17
3.60382e-17
3.6038e-17
3.60378e-17
3.60376e-17
3.60374e-17
3.60371e-17
3.60369e-17
3.60366e-17
3.60386e-17
3.60386e-17
3.60386e-17
3.60385e-17
3.60384e-17
3.60383e-17
3.60382e-17
3.6038e-17
3.60379e-17
3.60376e-17
3.60374e-17
3.60372e-17
3.60369e-17
3.60366e-17
3.60386e-17
3.60386e-17
3.60386e-17
3.60385e-17
3.60384e-17
3.60383e-17
3.60382e-17
3.6038e-17
3.60378e-17
3.60376e-17
3.60374e-17
3.60371e-17
3.60369e-17
3.60366e-17
3.60386e-17
3.60386e-17
3.60386e-17
3.60385e-17
3.60384e-17
3.60383e-17
3.60382e-17
3.6038e-17
3.60378e-17
3.60376e-17
3.60374e-17
3.60371e-17
3.60368e-17
3.60365e-17
3.60386e-17
3.60385e-17
3.60385e-17
3.60384e-17
3.60383e-17
3.60382e-17
3.60381e-17
3.60379e-17
3.60377e-17
3.60375e-17
3.60373e-17
3.6037e-17
3.60367e-17
3.60364e-17
3.60385e-17
3.60384e-17
3.60384e-17
3.60383e-17
3.60382e-17
3.60381e-17
3.6038e-17
3.60378e-17
3.60376e-17
3.60374e-17
3.60372e-17
3.60369e-17
3.60366e-17
3.60363e-17
3.60383e-17
3.60383e-17
3.60383e-17
3.60382e-17
3.60381e-17
3.6038e-17
3.60379e-17
3.60377e-17
3.60375e-17
3.60373e-17
3.60371e-17
3.60368e-17
3.60365e-17
3.60362e-17
3.60382e-17
3.60381e-17
3.60381e-17
3.6038e-17
3.6038e-17
3.60379e-17
3.60377e-17
3.60376e-17
3.60374e-17
3.60372e-17
3.60369e-17
3.60367e-17
3.60364e-17
3.60361e-17
3.6038e-17
3.6038e-17
3.60379e-17
3.60379e-17
3.60378e-17
3.60377e-17
3.60375e-17
3.60374e-17
3.60372e-17
3.6037e-17
3.60367e-17
3.60365e-17
3.60362e-17
3.60359e-17
3.60378e-17
3.60377e-17
3.60377e-17
3.60377e-17
3.60376e-17
3.60375e-17
3.60374e-17
3.60372e-17
3.6037e-17
3.60368e-17
3.60366e-17
3.60363e-17
3.6036e-17
3.60357e-17
3.60375e-17
3.60375e-17
3.60375e-17
3.60374e-17
3.60373e-17
3.60373e-17
3.60371e-17
3.6037e-17
3.60368e-17
3.60366e-17
3.60364e-17
3.60361e-17
3.60358e-17
3.60355e-17
3.60373e-17
3.60372e-17
3.60372e-17
3.60372e-17
3.60371e-17
3.6037e-17
3.60369e-17