/*--------------------------------*- C++ -*----------------------------------*\
| =========                 |                                                 |
| \\      /  F ield         | OpenFOAM: The Open Source CFD Toolbox           |
|  \\    /   O peration     | Version:  v2106                                 |
|   \\  /    A nd           | Website:  www.openfoam.com                      |
|    \\/     M anipulation  |                                                 |
\*---------------------------------------------------------------------------*/
FoamFile
{
    version     2.0;
    format      ascii;
    arch        "LSB;label=32;scalar=64";
    class       volScalarField;
    location    "0.000146";
    object      alphat;
}
// * * * * * * * * * * * * * * * * * * * * * * * * * * * * * * * * * * * * * //

dimensions      [1 -1 -1 0 0 0 0];

internalField   nonuniform List<scalar> 
18109
(
3.34784e-06
1.0656e-06
3.17302e-07
9.91534e-08
3.81679e-08
2.10086e-08
1.65767e-08
1.31811e-06
3.32854e-07
7.3343e-08
1.57498e-08
4.08951e-09
1.9445e-09
1.77447e-09
5.40602e-07
1.40738e-07
3.48295e-08
8.55076e-09
2.02209e-09
4.58852e-10
1.80742e-10
4.06389e-07
1.36094e-07
4.34454e-08
1.26241e-08
3.08493e-09
5.83146e-10
8.35083e-11
4.06306e-07
1.51895e-07
5.15975e-08
1.50841e-08
3.58125e-09
6.55024e-10
8.60451e-11
4.31952e-07
1.64899e-07
5.45508e-08
1.52071e-08
3.42304e-09
6.02763e-10
7.86274e-11
5.09749e-07
1.86197e-07
5.7878e-08
1.51e-08
3.21271e-09
5.47418e-10
8.12889e-11
6.5631e-07
2.25255e-07
6.56341e-08
1.61173e-08
3.29536e-09
6.08816e-10
1.77758e-10
9.08001e-07
2.24867e-07
5.1174e-08
1.26623e-08
4.80064e-09
3.28984e-09
3.06779e-09
2.99886e-09
2.91643e-09
2.71197e-09
2.17903e-09
2.13653e-09
5.84596e-09
3.07139e-08
2.9329e-07
6.24998e-08
1.18714e-08
2.21407e-09
5.24105e-10
2.66758e-10
2.73425e-10
3.2056e-10
3.59668e-10
3.79241e-10
3.30358e-10
4.58926e-10
2.61145e-09
1.95451e-08
1.40661e-07
3.68575e-08
9.17225e-09
2.17017e-09
4.64892e-10
8.82401e-11
2.6526e-11
2.63719e-11
3.322e-11
3.76693e-11
4.06882e-11
1.65941e-10
1.49071e-09
1.2035e-08
1.35964e-07
4.28788e-08
1.24988e-08
3.2208e-09
6.88857e-10
1.14548e-10
1.43096e-11
2.62146e-12
2.40581e-12
3.07821e-12
6.08348e-12
5.96734e-11
6.67853e-10
5.89732e-09
1.38935e-07
4.72178e-08
1.42957e-08
3.68787e-09
7.7119e-10
1.25423e-10
1.48505e-11
1.30071e-12
1.99471e-13
2.33269e-13
1.4836e-12
2.26033e-11
2.73092e-10
2.48495e-09
1.50013e-07
5.10225e-08
1.4923e-08
3.66083e-09
7.2448e-10
1.12794e-10
1.30938e-11
1.27219e-12
2.43073e-13
1.5255e-13
5.55496e-13
8.9957e-12
1.1847e-10
1.12768e-09
1.78567e-07
5.7614e-08
1.57939e-08
3.62475e-09
6.79059e-10
1.02228e-10
1.32663e-11
3.14807e-12
1.99579e-12
1.52664e-12
1.33786e-12
5.17553e-12
6.10816e-11
6.10311e-10
2.29435e-07
6.92178e-08
1.77299e-08
3.82399e-09
6.86107e-10
1.11069e-10
2.88766e-11
1.96347e-11
1.67183e-11
1.40111e-11
1.14634e-11
1.28661e-11
4.70014e-11
4.23258e-10
3.03633e-07
8.63162e-08
2.09474e-08
4.32792e-09
7.99991e-10
2.05377e-10
1.34735e-10
1.27312e-10
1.16095e-10
1.0353e-10
9.03093e-11
8.99476e-11
1.12513e-10
4.46619e-10
4.14954e-07
1.13548e-07
2.69512e-08
5.67031e-09
1.35307e-09
7.18581e-10
6.92262e-10
7.04318e-10
6.69105e-10
6.29042e-10
5.879e-10
5.98902e-10
6.07794e-10
1.03804e-09
5.58525e-07
1.50536e-07
3.62951e-08
8.73787e-09
3.44779e-09
2.9243e-09
3.1282e-09
3.29501e-09
3.25546e-09
3.22244e-09
3.22108e-09
3.37249e-09
3.38234e-09
4.44726e-09
8.10623e-07
2.26361e-07
5.90544e-08
1.84969e-08
1.12604e-08
1.11476e-08
1.22011e-08
1.31825e-08
1.35681e-08
1.41578e-08
1.50632e-08
1.6216e-08
1.65346e-08
2.01106e-08
1.39374e-06
4.35277e-07
1.26026e-07
4.93851e-08
3.6956e-08
3.79468e-08
4.15616e-08
4.57557e-08
4.91005e-08
5.39589e-08
6.07632e-08
6.80173e-08
7.16621e-08
8.28819e-08
2.88488e-06
1.05663e-06
3.37441e-07
1.4358e-07
1.12394e-07
1.14727e-07
1.24528e-07
1.38902e-07
1.55271e-07
1.79689e-07
2.13717e-07
2.51415e-07
2.78981e-07
3.11899e-07
4.21285e-06
1.11043e-05
2.31693e-05
3.7364e-05
5.09942e-05
6.14504e-05
1.17643e-06
4.09492e-06
1.07799e-05
2.12326e-05
3.39569e-05
4.61465e-05
5.82508e-07
2.65209e-06
8.03668e-06
1.7215e-05
2.87612e-05
4.01161e-05
2.98228e-07
1.59083e-06
5.37322e-06
1.26386e-05
2.26821e-05
3.33874e-05
1.43741e-07
9.04753e-07
3.41588e-06
8.77897e-06
1.69517e-05
2.65501e-05
7.03255e-08
5.0183e-07
2.11747e-06
5.93911e-06
1.22828e-05
2.01988e-05
4.13464e-08
2.94989e-07
1.31577e-06
3.90132e-06
8.51028e-06
1.48053e-05
3.02018e-08
1.94924e-07
8.58127e-07
2.62145e-06
5.96976e-06
1.08159e-05
2.37213e-08
1.36055e-07
5.74846e-07
1.76598e-06
4.14304e-06
7.77169e-06
1.92267e-08
1.01523e-07
4.08975e-07
1.24111e-06
2.96627e-06
5.75348e-06
1.596e-08
8.07057e-08
3.16679e-07
9.5873e-07
2.31651e-06
4.58005e-06
1.34751e-08
6.8922e-08
2.71558e-07
8.3416e-07
2.08643e-06
4.47777e-06
1.44056e-08
7.58453e-08
3.10039e-07
1.02171e-06
2.82219e-06
6.67986e-06
2.91682e-08
1.5093e-07
6.15587e-07
2.00052e-06
5.26584e-06
1.13851e-05
1.08047e-07
4.72634e-07
1.62798e-06
4.41949e-06
9.68411e-06
1.74713e-05
1.7664e-07
6.93122e-07
2.24009e-06
5.78696e-06
1.20184e-05
2.0432e-05
1.31752e-07
5.63934e-07
1.95226e-06
5.31549e-06
1.14218e-05
1.98553e-05
8.14633e-08
3.88049e-07
1.45703e-06
4.25391e-06
9.6992e-06
1.77254e-05
4.10946e-08
2.25607e-07
9.40965e-07
3.0104e-06
7.44404e-06
1.46505e-05
1.77669e-08
1.08765e-07
5.17724e-07
1.89388e-06
5.31001e-06
1.12666e-05
8.10064e-09
5.17699e-08
2.66841e-07
1.15825e-06
3.62148e-06
8.26611e-06
4.63238e-09
3.114e-08
1.72198e-07
7.65593e-07
2.49338e-06
5.98763e-06
3.45815e-09
2.42875e-08
1.33179e-07
5.54862e-07
1.74335e-06
4.19744e-06
3.31545e-09
2.25134e-08
1.14812e-07
4.44079e-07
1.32018e-06
3.07515e-06
4.44216e-09
2.60666e-08
1.18776e-07
4.21824e-07
1.18975e-06
2.73538e-06
1.13738e-08
5.21014e-08
2.01213e-07
6.4573e-07
1.74603e-06
4.07165e-06
4.26396e-08
1.63057e-07
5.40964e-07
1.53978e-06
3.78078e-06
8.06368e-06
1.60689e-07
5.26824e-07
1.49691e-06
3.67653e-06
7.80284e-06
1.43739e-05
5.54256e-07
1.54186e-06
3.71266e-06
7.6607e-06
1.36817e-05
2.13565e-05
1.07826e-06
2.55748e-06
5.46031e-06
1.03152e-05
1.71305e-05
2.51419e-05
9.77145e-07
2.42006e-06
5.32092e-06
1.02249e-05
1.71427e-05
2.5336e-05
8.23091e-07
2.10967e-06
4.74973e-06
9.32068e-06
1.59342e-05
2.39361e-05
6.57158e-07
1.72945e-06
3.97896e-06
7.98465e-06
1.39575e-05
2.13402e-05
5.21141e-07
1.38047e-06
3.20195e-06
6.49268e-06
1.15131e-05
1.79576e-05
4.30392e-07
1.12738e-06
2.59557e-06
5.25353e-06
9.37107e-06
1.47725e-05
3.73108e-07
9.56697e-07
2.16051e-06
4.31344e-06
7.63256e-06
1.19523e-05
3.33403e-07
8.45651e-07
1.87972e-06
3.68303e-06
6.38775e-06
9.90639e-06
3.11433e-07
7.77233e-07
1.69475e-06
3.29083e-06
5.85577e-06
9.92123e-06
3.06412e-07
7.62203e-07
1.73957e-06
3.74975e-06
7.70898e-06
1.48443e-05
3.94859e-07
1.08232e-06
2.77437e-06
6.53204e-06
1.37544e-05
2.52875e-05
9.35047e-07
2.52217e-06
6.07732e-06
1.27979e-05
2.35537e-05
3.79679e-05
2.69089e-06
6.07492e-06
1.22499e-05
2.17535e-05
3.43838e-05
4.83785e-05
6.4247e-06
1.17752e-05
1.97331e-05
2.99105e-05
4.13628e-05
5.23352e-05
1.15329e-06
2.94005e-06
7.0178e-06
1.51747e-05
2.87053e-05
4.65687e-05
1.81471e-06
4.9351e-06
1.18094e-05
2.38016e-05
4.05024e-05
5.93496e-05
4.10552e-06
9.62228e-06
1.96348e-05
3.39662e-05
5.08888e-05
6.66396e-05
8.5581e-06
1.62886e-05
2.77581e-05
4.14702e-05
5.53072e-05
6.63894e-05
4.50124e-06
1.00464e-05
1.8574e-05
2.91759e-05
4.03891e-05
5.04331e-05
3.61567e-06
8.48246e-06
1.61596e-05
2.58645e-05
3.61565e-05
4.55537e-05
2.67179e-06
6.49715e-06
1.28759e-05
2.13824e-05
3.08521e-05
3.99563e-05
1.88233e-06
4.70425e-06
9.68165e-06
1.68002e-05
2.53128e-05
3.37865e-05
1.31716e-06
3.34999e-06
7.10424e-06
1.28528e-05
2.00994e-05
2.77389e-05
9.03035e-07
2.31699e-06
4.99537e-06
9.25299e-06
1.53807e-05
2.22418e-05
6.41665e-07
1.62708e-06
3.55284e-06
6.87298e-06
1.19792e-05
1.798e-05
4.78496e-07
1.21473e-06
2.76387e-06
5.61671e-06
9.91349e-06
1.49785e-05
4.01371e-07
1.04972e-06
2.45488e-06
4.99971e-06
8.76113e-06
1.36683e-05
3.90034e-07
1.0174e-06
2.34156e-06
4.75825e-06
8.89829e-06
1.60831e-05
4.02753e-07
1.03522e-06
2.48769e-06
5.70599e-06
1.23846e-05
2.41875e-05
4.89122e-07
1.43384e-06
3.94198e-06
9.6047e-06
2.00245e-05
3.5429e-05
1.11444e-06
3.13703e-06
7.79297e-06
1.6424e-05
2.95366e-05
4.52787e-05
2.92006e-06
6.57508e-06
1.3237e-05
2.32054e-05
3.58213e-05
4.88403e-05
5.62771e-05
7.41332e-05
8.61026e-05
8.99542e-05
7.36331e-05
4.95876e-05
6.62451e-05
7.96255e-05
8.61879e-05
7.05746e-05
4.2561e-05
5.75189e-05
7.05522e-05
7.77263e-05
6.78292e-05
3.54926e-05
4.80584e-05
5.96819e-05
6.78666e-05
6.44021e-05
2.90004e-05
3.89236e-05
4.90095e-05
5.8224e-05
6.12604e-05
2.274e-05
3.04733e-05
3.93074e-05
4.96918e-05
6.01013e-05
1.72778e-05
2.34066e-05
3.08801e-05
4.30597e-05
6.26309e-05
1.28867e-05
1.80562e-05
2.52943e-05
4.12901e-05
7.03514e-05
9.31728e-05
9.68073e-06
1.47317e-05
2.43151e-05
4.62691e-05
8.27248e-05
0.000110725
7.8369e-06
1.50049e-05
2.99861e-05
5.68138e-05
9.56565e-05
0.00012774
8.71637e-06
2.11747e-05
4.18581e-05
6.96614e-05
0.000104597
0.000142787
0.000162767
1.35189e-05
3.19199e-05
5.598e-05
8.04296e-05
0.000105628
0.000146784
0.00021636
0.000157585
2.04107e-05
4.25565e-05
6.59065e-05
8.4203e-05
9.65493e-05
0.00012266
0.00026937
0.00049441
2.6818e-05
4.92944e-05
6.92482e-05
8.27179e-05
8.64319e-05
8.04918e-05
0.000111226
0.000593083
2.95755e-05
5.10606e-05
6.9852e-05
8.42224e-05
8.67422e-05
6.73942e-05
7.47793e-05
0.000430679
2.91884e-05
4.90588e-05
6.84661e-05
8.47678e-05
8.741e-05
6.29608e-05
6.57188e-05
0.000359497
2.67592e-05
4.47779e-05
6.39249e-05
8.01419e-05
8.3285e-05
6.26663e-05
6.12634e-05
0.000179954
2.31239e-05
3.91462e-05
5.64264e-05
7.16775e-05
7.56616e-05
6.18428e-05
5.9902e-05
0.000229955
1.90413e-05
3.24591e-05
4.71392e-05
6.11299e-05
6.65817e-05
5.93073e-05
6.10116e-05
0.000262116
1.4957e-05
2.55823e-05
3.75295e-05
5.02451e-05
5.75821e-05
5.95763e-05
6.69058e-05
0.000220855
1.12787e-05
1.92864e-05
2.86171e-05
4.03341e-05
5.19921e-05
6.64046e-05
7.60976e-05
9.16129e-05
8.0407e-06
1.43111e-05
2.23303e-05
3.46384e-05
5.364e-05
7.94892e-05
9.16431e-05
9.48512e-05
5.79517e-06
1.14183e-05
2.031e-05
3.57854e-05
6.32765e-05
9.8154e-05
5.38576e-06
1.27965e-05
2.56921e-05
4.54528e-05
7.74674e-05
0.000116993
8.33126e-06
2.05612e-05
3.88403e-05
6.08957e-05
8.97583e-05
0.00013147
1.49215e-05
3.26563e-05
5.45068e-05
7.48984e-05
9.5369e-05
0.000134382
2.30523e-05
4.39572e-05
6.49989e-05
8.02606e-05
8.95121e-05
0.000113034
2.98416e-05
5.03465e-05
6.796e-05
7.87912e-05
7.89379e-05
3.34445e-05
5.26166e-05
6.92677e-05
8.1005e-05
7.70629e-05
3.37876e-05
5.16419e-05
6.87412e-05
8.21993e-05
7.62149e-05
3.19672e-05
4.81174e-05
6.46201e-05
7.83652e-05
7.39215e-05
2.85226e-05
4.29216e-05
5.78409e-05
7.15616e-05
7.06246e-05
2.4408e-05
3.67753e-05
4.98335e-05
6.4168e-05
6.86653e-05
1.99891e-05
3.03781e-05
4.26307e-05
5.80039e-05
7.17439e-05
1.60328e-05
2.53274e-05
3.8315e-05
5.65039e-05
8.25897e-05
1.40405e-05
2.49666e-05
4.15502e-05
6.60211e-05
0.000101388
1.64359e-05
3.3389e-05
5.66149e-05
8.57894e-05
0.000124029
2.60978e-05
5.1005e-05
7.8867e-05
0.000106011
0.000139618
4.05989e-05
7.02882e-05
9.6555e-05
0.000116121
0.00014207
5.40068e-05
8.21849e-05
0.000101804
0.000112534
0.000130078
6.14731e-05
8.27835e-05
9.40356e-05
9.75502e-05
0.000101658
6.17993e-05
7.86744e-05
8.71679e-05
8.8193e-05
7.85948e-05
5.86143e-05
7.38368e-05
8.37495e-05
8.68251e-05
7.13256e-05
5.31813e-05
6.70049e-05
7.75085e-05
8.32755e-05
6.98323e-05
4.70494e-05
5.88937e-05
6.90884e-05
7.65052e-05
7.08799e-05
4.04144e-05
4.99706e-05
5.98343e-05
6.99657e-05
7.33937e-05
3.38135e-05
4.15946e-05
5.17909e-05
6.56912e-05
7.90639e-05
2.75787e-05
3.4586e-05
4.59663e-05
6.52881e-05
8.89353e-05
2.26477e-05
3.01322e-05
4.46231e-05
7.12375e-05
0.000103216
1.98236e-05
3.04674e-05
5.12651e-05
8.52137e-05
0.000122031
2.07946e-05
3.90505e-05
6.80698e-05
0.000104907
0.000141241
2.80333e-05
5.57663e-05
8.88516e-05
0.000121021
0.000153416
4.0923e-05
7.38617e-05
0.00010424
0.000126976
0.000154647
5.33568e-05
8.54467e-05
0.000107857
0.00011982
0.000139961
6.07106e-05
8.60491e-05
9.92189e-05
0.000102717
0.000107443
6.07365e-05
8.06063e-05
9.03424e-05
9.11509e-05
8.07742e-05
8.20099e-08
1.66832e-08
3.42908e-09
8.54266e-10
4.07314e-10
3.6561e-10
3.96472e-10
4.24841e-10
4.25813e-10
3.91378e-10
2.90365e-10
1.89962e-10
2.69241e-10
1.70244e-09
2.47739e-08
5.35373e-09
1.11053e-09
2.29173e-10
5.58653e-11
2.91399e-11
3.27728e-11
4.16824e-11
4.86903e-11
5.00311e-11
4.07849e-11
3.22098e-11
1.40876e-10
1.39565e-09
2.11187e-08
5.84615e-09
1.49895e-09
3.51428e-10
7.17288e-11
1.26627e-11
3.37112e-12
3.23686e-12
4.2682e-12
4.84567e-12
4.27941e-12
8.47162e-12
9.19779e-11
1.00186e-09
2.56482e-08
7.90774e-09
2.20377e-09
5.33291e-10
1.06807e-10
1.69085e-11
2.08883e-12
3.38775e-13
2.93677e-13
3.74863e-13
4.43368e-13
3.07124e-12
4.66769e-11
5.54374e-10
2.92447e-08
9.39792e-09
2.64102e-09
6.29755e-10
1.22492e-10
1.89009e-11
2.2108e-12
1.87189e-13
2.48375e-14
2.34631e-14
6.83908e-14
1.25504e-12
2.15049e-11
2.65502e-10
3.37742e-08
1.05243e-08
2.8112e-09
6.31338e-10
1.15765e-10
1.69569e-11
1.90852e-12
1.6589e-13
2.12747e-14
9.87724e-15
2.441e-14
5.38925e-13
1.0089e-11
1.29832e-10
4.20606e-08
1.22517e-08
3.03972e-09
6.3548e-10
1.09225e-10
1.51746e-11
1.77427e-12
3.03713e-13
1.57652e-13
1.09115e-13
8.05814e-14
3.17757e-13
5.31276e-12
7.07138e-11
5.44793e-08
1.46782e-08
3.36955e-09
6.53831e-10
1.05599e-10
1.50466e-11
3.165e-12
1.8303e-12
1.47523e-12
1.13451e-12
8.1608e-13
7.79155e-13
3.46896e-12
4.29659e-11
7.10628e-08
1.78923e-08
3.85324e-09
7.04487e-10
1.13398e-10
2.45848e-11
1.49051e-11
1.33705e-11
1.17419e-11
9.63025e-12
7.42862e-12
6.35914e-12
7.09172e-12
3.72473e-11
9.33665e-08
2.22469e-08
4.58826e-09
8.31096e-10
1.70769e-10
8.77512e-11
8.6411e-11
8.49321e-11
7.81796e-11
6.78169e-11
5.62855e-11
4.99653e-11
4.28039e-11
6.63663e-11
1.19205e-07
2.71641e-08
5.52408e-09
1.12669e-09
4.34353e-10
4.0145e-10
4.46396e-10
4.57536e-10
4.40524e-10
4.03941e-10
3.60514e-10
3.3241e-10
2.84399e-10
3.00831e-10
1.56264e-07
3.51192e-08
7.56481e-09
2.20827e-09
1.5662e-09
1.73198e-09
1.98603e-09
2.10538e-09
2.12366e-09
2.06316e-09
1.97424e-09
1.88957e-09
1.66728e-09
1.62827e-09
2.29965e-07
5.51889e-08
1.36725e-08
6.11401e-09
5.771e-09
6.63746e-09
7.6814e-09
8.38326e-09
8.8667e-09
9.13862e-09
9.34516e-09
9.36573e-09
8.62804e-09
8.16896e-09
4.47262e-07
1.22986e-07
3.45e-08
1.92075e-08
1.95194e-08
2.24252e-08
2.60302e-08
2.9166e-08
3.23799e-08
3.53856e-08
3.85925e-08
4.09301e-08
3.98498e-08
3.76778e-08
4.33958e-09
9.48849e-10
2.193e-10
7.24477e-11
5.42577e-11
6.03109e-11
7.18262e-11
8.19267e-11
8.61883e-11
7.90366e-11
5.71222e-11
3.196e-11
1.85153e-11
7.58395e-11
2.38591e-09
5.67815e-10
1.2758e-10
2.7917e-11
7.37176e-12
4.65845e-12
5.86679e-12
7.80613e-12
9.48131e-12
9.79611e-12
7.70216e-12
4.54889e-12
7.05433e-12
7.42491e-11
3.45603e-09
9.37685e-10
2.32767e-10
5.18571e-11
1.00085e-11
1.75063e-12
5.4827e-13
5.93922e-13
8.10707e-13
9.46558e-13
8.11612e-13
6.72642e-13
5.11916e-12
6.82064e-11
4.91903e-09
1.43148e-09
3.70197e-10
8.28771e-11
1.55199e-11
2.36829e-12
2.97387e-13
5.75492e-14
5.51739e-14
7.15617e-14
7.00885e-14
1.86514e-13
3.27558e-12
4.83836e-11
6.23095e-09
1.8303e-09
4.68609e-10
1.02169e-10
1.84611e-11
2.71305e-12
3.13024e-13
2.83038e-14
4.39715e-15
4.35851e-15
6.3171e-15
8.67256e-14
1.95363e-12
3.0394e-11
7.50384e-09
2.10067e-09
5.07203e-10
1.04095e-10
1.77507e-11
2.47456e-12
2.73191e-13
2.38504e-14
2.38012e-15
8.88944e-16
1.56236e-15
4.25208e-14
1.08269e-12
1.80042e-11
9.26903e-09
2.41792e-09
5.41822e-10
1.03349e-10
1.64511e-11
2.15551e-12
2.37228e-13
3.2466e-14
1.2785e-14
7.91314e-15
5.19848e-15
2.6288e-14
6.36491e-13
1.10351e-11
1.16011e-08
2.8047e-09
5.80874e-10
1.02652e-10
1.52784e-11
1.99764e-12
3.50378e-13
1.68619e-13
1.25349e-13
8.81488e-14
5.62847e-14
5.03233e-14
4.00193e-13
6.83715e-12
1.43988e-08
3.25155e-09
6.28436e-10
1.03796e-10
1.51595e-11
2.89426e-12
1.57964e-12
1.33009e-12
1.10216e-12
8.28209e-13
5.65278e-13
4.15337e-13
5.15938e-13
4.8578e-12
1.78157e-08
3.78212e-09
6.93098e-10
1.11508e-10
2.06483e-11
1.03952e-11
1.01415e-11
9.49189e-12
8.24654e-12
6.56368e-12
4.81009e-12
3.69802e-12
2.79422e-12
5.22432e-12
2.10943e-08
4.26899e-09
7.65862e-10
1.38356e-10
5.38523e-11
5.34149e-11
5.96269e-11
5.82679e-11
5.28218e-11
4.44192e-11
3.49652e-11
2.82407e-11
2.10711e-11
1.95947e-11
2.46012e-08
4.83752e-09
9.16728e-10
2.61177e-10
2.18262e-10
2.62169e-10
3.04248e-10
3.08359e-10
2.91863e-10
2.59139e-10
2.18511e-10
1.84277e-10
1.42061e-10
1.194e-10
2.93192e-08
6.00088e-09
1.41437e-09
7.87023e-10
9.15403e-10
1.14431e-09
1.3524e-09
1.41827e-09
1.4021e-09
1.3155e-09
1.18476e-09
1.04412e-09
8.39469e-10
6.89268e-10
4.53263e-08
1.074e-08
3.38886e-09
2.81149e-09
3.51332e-09
4.41938e-09
5.27609e-09
5.71405e-09
5.90537e-09
5.86291e-09
5.61116e-09
5.17854e-09
4.36635e-09
3.5942e-09
3.68521e-10
8.43382e-11
2.23607e-11
1.01137e-11
9.95421e-12
1.23286e-11
1.55966e-11
1.85774e-11
2.02342e-11
1.9021e-11
1.38879e-11
7.55207e-12
3.30085e-12
5.48885e-12
3.68379e-10
8.83451e-11
1.98039e-11
4.27242e-12
1.20831e-12
9.24436e-13
1.27294e-12
1.75491e-12
2.18089e-12
2.30991e-12
1.84694e-12
1.0502e-12
6.71523e-13
5.02579e-12
6.44797e-10
1.68696e-10
3.97508e-11
8.36516e-12
1.54266e-12
2.73395e-13
1.07301e-13
1.32271e-13
1.84753e-13
2.19585e-13
1.90938e-13
1.21546e-13
3.67945e-13
5.31256e-12
9.975e-10
2.73479e-10
6.60923e-11
1.38736e-11
2.46952e-12
3.6625e-13
4.71875e-14
1.15177e-14
1.25954e-14
1.65578e-14
1.58594e-14
1.79988e-14
2.53812e-13
4.39867e-12
1.33508e-09
3.63272e-10
8.61178e-11
1.75213e-11
2.99969e-12
4.25359e-13
4.87392e-14
4.71284e-15
1.00337e-15
1.07635e-15
1.18822e-15
6.62987e-15
1.75788e-13
3.27454e-12
1.63235e-09
4.21123e-10
9.42333e-11
1.8089e-11
2.92927e-12
3.9427e-13
4.30823e-14
3.86887e-15
4.41183e-16
2.05918e-16
2.27098e-16
3.4874e-15
1.10786e-13
2.24199e-12
1.97894e-09
4.75419e-10
9.88114e-11
1.76319e-11
2.65977e-12
3.35499e-13
3.59247e-14
4.46729e-15
1.49878e-15
8.84505e-16
5.61786e-16
2.38481e-15
7.24929e-14
1.54444e-12
2.39426e-09
5.33814e-10
1.02787e-10
1.70246e-11
2.39979e-12
2.98194e-13
4.67671e-14
1.97043e-14
1.37788e-14
9.15593e-15
5.50508e-15
4.50837e-15
4.71506e-14
1.02028e-12
2.82977e-09
5.89929e-10
1.06125e-10
1.6422e-11
2.25535e-12
3.94649e-13
1.95653e-13
1.58202e-13
1.25643e-13
8.88065e-14
5.6482e-14
3.7396e-14
5.17633e-14
7.05433e-13
3.28381e-09
6.44734e-10
1.09961e-10
1.64972e-11
2.85545e-12
1.38858e-12
1.31587e-12
1.19768e-12
9.96653e-13
7.44142e-13
5.04266e-13
3.49659e-13
2.43982e-13
5.80415e-13
3.63013e-09
6.78633e-10
1.12311e-10
1.88809e-11
7.46645e-12
7.62559e-12
8.32851e-12
7.90488e-12
6.84878e-12
5.39015e-12
3.89558e-12
2.8478e-12
1.92973e-12
1.65811e-12
3.84703e-09
6.97986e-10
1.22135e-10
3.51463e-11
3.28547e-11
4.07936e-11
4.63625e-11
4.55212e-11
4.10372e-11
3.39823e-11
2.61484e-11
1.99829e-11
1.38983e-11
1.0422e-11
3.97976e-09
7.46252e-10
1.73188e-10
1.15147e-10
1.50474e-10
1.94995e-10
2.26618e-10
2.29753e-10
2.15448e-10
1.87488e-10
1.53227e-10
1.21915e-10
8.75714e-11
6.47206e-11
5.11679e-09
1.13821e-09
4.23866e-10
4.53864e-10
6.31496e-10
8.28707e-10
9.78687e-10
1.02303e-09
9.97844e-10
9.11586e-10
7.86394e-10
6.4959e-10
4.85025e-10
3.60301e-10
3.61577e-11
8.25605e-12
2.38026e-12
1.45058e-12
1.71219e-12
2.30677e-12
3.07923e-12
3.81765e-12
4.27717e-12
4.11977e-12
3.08152e-12
1.71198e-12
7.12777e-13
4.82698e-13
5.78865e-11
1.36346e-11
2.96416e-12
6.23443e-13
1.88857e-13
1.70744e-13
2.52628e-13
3.60331e-13
4.56802e-13
4.91762e-13
4.00366e-13
2.32466e-13
1.02512e-13
3.14616e-13
1.10308e-10
2.76822e-11
6.21277e-12
1.24446e-12
2.20237e-13
4.01119e-14
1.98696e-14
2.71788e-14
3.87079e-14
4.64345e-14
4.08712e-14
2.51238e-14
2.7783e-14
3.56817e-13
1.79209e-10
4.65245e-11
1.06095e-11
2.1087e-12
3.58804e-13
5.18105e-14
6.92607e-15
2.21854e-15
2.71111e-15
3.56809e-15
3.42386e-15
2.58176e-15
1.75291e-14
3.3754e-13
2.45889e-10
6.27351e-11
1.39652e-11
2.685e-12
4.39452e-13
6.0445e-14
6.92611e-15
7.78825e-16
2.75014e-16
3.06221e-16
3.16778e-16
5.82162e-16
1.33878e-14
2.89163e-13
2.99465e-10
7.22745e-11
1.5202e-11
2.76284e-12
4.28314e-13
5.59215e-14
6.09725e-15
6.26858e-16
1.47528e-16
1.15911e-16
1.15458e-16
3.2687e-16
9.39752e-15
2.23677e-13
3.50023e-10
7.8639e-11
1.53847e-11
2.60356e-12
3.76495e-13
4.61234e-14
4.90724e-15
6.44425e-16
2.45421e-16
1.72876e-16
1.37922e-16
2.63611e-16
6.70618e-15
1.69642e-13
4.0226e-10
8.38763e-11
1.52314e-11
2.39711e-12
3.24224e-13
3.89232e-14
5.77148e-15
2.24974e-15
1.50553e-15
9.77339e-16
5.86426e-16
4.52217e-16
4.61655e-15
1.19351e-13
4.47974e-10
8.72671e-11
1.47951e-11
2.17592e-12
2.86228e-13
4.79549e-14
2.25705e-14
1.75793e-14
1.3338e-14
8.92092e-15
5.33339e-15
3.23551e-15
4.75022e-15
8.32718e-14
4.84861e-10
8.90363e-11
1.43052e-11
2.03865e-12
3.42945e-13
1.68526e-13
1.56106e-13
1.37547e-13
1.09036e-13
7.65158e-14
4.82537e-14
3.03453e-14
1.96868e-14
6.09208e-14
4.95732e-10
8.65294e-11
1.34595e-11
2.19131e-12
9.29978e-13
9.77561e-13
1.03944e-12
9.52878e-13
7.84223e-13
5.77772e-13
3.86184e-13
2.5566e-13
1.58033e-13
1.29662e-13
4.78265e-10
8.11463e-11
1.34984e-11
4.22378e-12
4.43253e-12
5.57355e-12
6.15127e-12
5.81602e-12
4.96255e-12
3.83129e-12
2.70889e-12
1.87305e-12
1.18584e-12
7.98481e-13
4.40067e-10
7.77161e-11
1.88029e-11
1.54497e-11
2.18395e-11
2.85377e-11
3.22153e-11
3.13651e-11
2.77287e-11
2.23957e-11
1.67059e-11
1.19999e-11
7.80477e-12
5.20131e-12
4.94449e-10
1.07514e-10
5.03529e-11
6.63706e-11
9.8548e-11
1.30663e-10
1.50067e-10
1.50177e-10
1.37358e-10
1.15756e-10
9.05114e-11
6.72294e-11
4.51148e-11
3.03829e-11
4.01506e-12
9.08151e-13
2.68356e-13
1.92342e-13
2.56828e-13
3.7304e-13
5.25166e-13
6.77989e-13
7.80938e-13
7.68058e-13
5.85988e-13
3.34288e-13
1.4055e-13
6.01426e-14
8.28943e-12
1.89454e-12
3.95572e-13
8.06525e-14
2.62728e-14
2.76031e-14
4.34901e-14
6.4166e-14
8.30751e-14
9.07444e-14
7.49295e-14
4.44944e-14
1.865e-14
2.02876e-14
1.65586e-11
3.97977e-12
8.50343e-13
1.62286e-13
2.76663e-14
5.30827e-15
3.33282e-15
4.92419e-15
7.12159e-15
8.60736e-15
7.65145e-15
4.76708e-15
2.77227e-15
2.11116e-14
2.78643e-11
6.85602e-12
1.47827e-12
2.78838e-13
4.54766e-14
6.45e-15
9.66606e-16
4.49144e-16
5.75091e-16
7.36807e-16
7.11796e-16
5.09819e-16
1.19125e-15
2.1996e-14
3.86028e-11
9.29241e-12
1.95343e-12
3.56693e-13
5.60213e-14
7.5421e-15
9.29352e-16
1.86765e-16
1.29816e-16
1.37882e-16
1.39312e-16
1.42106e-16
9.39897e-16
2.09963e-14
4.63657e-11
1.05642e-11
2.10418e-12
3.64388e-13
5.43199e-14
6.9554e-15
8.22671e-16
1.629e-16
1.05776e-16
1.02223e-16
1.02129e-16
1.12899e-16
7.41636e-16
1.80683e-14
5.20101e-11
1.10528e-11
2.05486e-12
3.32492e-13
4.63853e-14
5.60071e-15
6.60194e-16
1.58724e-16
1.12902e-16
1.05678e-16
1.02659e-16
1.09665e-16
5.93973e-16
1.50288e-14
5.64321e-11
1.11511e-11
1.93083e-12
2.91353e-13
3.81275e-14
4.51222e-15
7.03884e-16
3.04828e-16
2.23502e-16
1.71417e-16
1.36029e-16
1.23276e-16
4.63756e-16
1.13925e-14
5.88963e-11
1.08767e-11
1.76073e-12
2.48927e-13
3.17311e-14
5.18839e-15
2.36402e-15
1.78943e-15
1.31773e-15
8.6614e-16
5.25416e-16
3.30835e-16
4.76074e-16
8.36779e-15
5.91608e-11
1.03079e-11
1.58146e-12
2.17142e-13
3.60606e-14
1.79554e-14
1.62185e-14
1.38123e-14
1.04457e-14
6.94695e-15
4.15413e-15
2.43252e-15
1.53482e-15
6.06756e-15
5.56478e-11
9.22494e-12
1.37319e-12
2.21579e-13
1.01838e-13
1.08708e-13
1.12062e-13
9.89469e-14
7.73442e-14
5.35572e-14
3.35103e-14
2.03399e-14
1.16589e-14
9.69003e-15
4.89058e-11
7.90151e-12
1.28329e-12
4.53794e-13
5.21471e-13
6.53322e-13
6.96237e-13
6.31763e-13
5.10176e-13
3.68308e-13
2.41979e-13
1.52846e-13
8.91358e-14
5.49065e-14
4.05586e-11
6.91777e-12
1.84208e-12
1.85447e-12
2.74046e-12
3.54714e-12
3.85739e-12
3.59091e-12
2.99347e-12
2.25049e-12
1.54808e-12
1.01299e-12
6.04579e-13
3.66883e-13
4.124e-11
9.14402e-12
5.62369e-12
8.60053e-12
1.31926e-11
1.7311e-11
1.91095e-11
1.82021e-11
1.56247e-11
1.21924e-11
8.73253e-12
5.88992e-12
3.61194e-12
2.21833e-12
4.52161e-13
9.83151e-14
2.81724e-14
2.22816e-14
3.28506e-14
5.12184e-14
7.60433e-14
1.02356e-13
1.21428e-13
1.21944e-13
9.46981e-14
5.52867e-14
2.37464e-14
8.90366e-15
1.04462e-12
2.30068e-13
4.61027e-14
9.15948e-15
3.25618e-15
3.88352e-15
6.4303e-15
9.78743e-15
1.29501e-14
1.437e-14
1.20287e-14
7.30863e-15
3.15115e-15
1.68815e-15
2.1551e-12
4.95223e-13
1.01032e-13
1.85046e-14
3.12111e-15
7.00448e-16
5.57168e-16
8.31665e-16
1.18959e-15
1.43734e-15
1.29721e-15
8.48426e-16
4.40206e-16
1.23865e-15
3.70597e-12
8.67021e-13
1.77875e-13
3.21172e-14
5.11541e-15
7.83938e-16
1.97682e-16
1.50236e-16
1.7378e-16
2.00154e-16
1.96493e-16
1.63286e-16
1.67111e-16
1.35024e-15
5.13375e-12
1.17497e-12
2.35274e-13
4.11818e-14
6.31051e-15
9.03905e-16
1.88311e-16
1.0979e-16
1.04338e-16
1.05848e-16
1.0604e-16
1.04728e-16
1.43147e-16
1.41005e-15
6.03408e-12
1.31022e-12
2.49377e-13
4.1521e-14
6.0547e-15
8.32308e-16
1.75478e-16
1.06448e-16
1.00467e-16
1.00108e-16
1.00087e-16
1.00558e-16
1.36156e-16
1.34631e-15
6.48828e-12
1.31758e-12
2.34908e-13
3.66843e-14
5.03515e-15
6.70707e-16
1.56179e-16
1.05416e-16
1.00821e-16
1.00154e-16
9.98936e-17
1.00244e-16
1.31164e-16
1.23762e-15
6.64005e-12
1.25694e-12
2.09452e-13
3.06215e-14
3.96857e-15
5.3402e-16
1.54871e-16
1.16311e-16
1.08899e-16
1.04683e-16
1.02053e-16
1.01115e-16
1.26155e-16
1.0439e-15
6.49893e-12
1.15088e-12
1.7966e-13
2.46861e-14
3.13319e-15
5.66172e-16
2.94851e-16
2.3851e-16
1.94253e-16
1.55042e-16
1.27745e-16
1.13353e-16
1.28532e-16
8.5675e-16
6.06315e-12
1.01456e-12
1.5029e-13
2.01136e-14
3.36701e-15
1.72502e-15
1.53228e-15
1.2794e-15
9.50653e-16
6.32801e-16
3.94958e-16
2.54165e-16
1.92467e-16
6.82811e-16
5.25638e-12
8.38666e-13
1.20932e-13
1.95759e-14
9.69686e-15
1.04223e-14
1.04525e-14
8.93251e-15
6.6923e-15
4.42071e-15
2.64096e-15
1.52326e-15
8.54707e-16
8.10883e-16
4.22781e-12
6.60362e-13
1.06552e-13
4.28984e-14
5.25942e-14
6.52644e-14
6.7374e-14
5.88741e-14
4.52651e-14
3.08404e-14
1.90199e-14
1.11537e-14
6.07682e-15
3.54505e-15
3.19165e-12
5.36304e-13
1.62662e-13
1.93489e-13
2.92744e-13
3.73136e-13
3.91818e-13
3.49763e-13
2.76332e-13
1.94879e-13
1.24861e-13
7.54238e-14
4.17168e-14
2.33886e-14
3.00664e-12
7.07805e-13
5.7104e-13
9.60482e-13
1.49473e-12
1.92637e-12
2.04726e-12
1.86168e-12
1.5078e-12
1.09791e-12
7.2807e-13
4.5177e-13
2.55878e-13
1.44809e-13
4.75432e-14
9.91602e-15
2.7458e-15
2.30848e-15
3.65992e-15
6.05451e-15
9.42935e-15
1.32074e-14
1.61371e-14
1.65536e-14
1.30615e-14
7.79053e-15
3.45887e-15
1.31063e-15
1.15951e-13
2.45797e-14
4.79608e-15
9.93136e-16
4.29152e-16
5.41415e-16
8.82743e-16
1.34454e-15
1.79511e-15
2.01701e-15
1.7201e-15
1.09222e-15
5.27426e-16
2.6297e-16
2.44609e-13
5.37764e-14
1.05661e-14
1.92941e-15
3.91064e-16
1.61048e-16
1.55124e-16
1.93961e-16
2.43898e-16
2.79664e-16
2.62076e-16
2.02063e-16
1.44617e-16
1.56795e-16
4.26078e-13
9.50301e-14
1.86839e-14
3.30844e-15
5.85317e-16
1.64612e-16
1.09697e-16
1.06199e-16
1.09705e-16
1.13391e-16
1.12928e-16
1.08412e-16
1.0521e-16
1.60384e-16
5.87136e-13
1.28261e-13
2.46414e-14
4.22028e-15
7.02581e-16
1.75915e-16
1.08152e-16
1.00854e-16
1.0042e-16
1.00646e-16
1.00668e-16
1.00425e-16
1.02027e-16
1.71095e-16
6.72297e-13
1.39785e-13
2.56265e-14
4.19076e-15
6.69764e-16
1.67948e-16
1.06779e-16
1.00412e-16
9.98546e-17
9.98207e-17
9.9814e-17
9.98242e-17
1.01772e-16
1.76941e-16
6.92397e-13
1.3516e-13
2.33122e-14
3.60094e-15
5.5799e-16
1.51059e-16
1.04782e-16
1.0023e-16
9.98129e-17
9.97522e-17
9.97249e-17
9.97358e-17
1.01689e-16
1.79076e-16
6.68873e-13
1.22228e-13
1.97927e-14
2.88821e-15
4.42048e-16
1.36462e-16
1.04154e-16
1.00892e-16
1.00304e-16
9.99948e-17
9.98046e-17
9.97342e-17
1.01602e-16
1.74291e-16
6.14397e-13
1.05286e-13
1.60313e-14
2.22266e-15
3.51927e-16
1.36058e-16
1.13866e-16
1.09209e-16
1.05819e-16
1.03069e-16
1.01287e-16
1.00392e-16
1.01925e-16
1.6756e-16
5.34426e-13
8.67797e-14
1.25817e-14
1.71917e-15
3.56492e-16
2.25562e-16
2.07293e-16
1.84676e-16
1.57599e-16
1.33383e-16
1.16752e-16
1.07751e-16
1.05169e-16
1.57577e-16
4.2992e-13
6.67749e-14
9.47317e-15
1.60694e-15
8.81601e-16
9.40056e-16
9.20733e-16
7.76928e-16
5.83107e-16
3.99374e-16
2.63814e-16
1.83166e-16
1.39843e-16
1.55158e-16
3.19404e-13
4.88343e-14
7.96583e-15
3.64748e-15
4.64434e-15
5.67052e-15
5.68653e-15
4.81394e-15
3.56626e-15
2.34127e-15
1.39991e-15
8.07588e-16
4.54317e-16
2.95138e-16
2.21879e-13
3.72976e-14
1.30842e-14
1.76049e-14
2.68954e-14
3.36469e-14
3.41992e-14
2.93929e-14
2.21628e-14
1.48261e-14
8.96835e-15
5.10079e-15
2.68365e-15
1.44929e-15
1.96647e-13
5.08163e-14
5.19216e-14
9.27308e-14
1.44872e-13
1.82767e-13
1.8738e-13
1.63329e-13
1.2563e-13
8.62246e-14
5.35538e-14
3.10104e-14
1.64413e-14
8.7197e-15
4.54557e-15
9.76678e-16
3.19395e-16
2.85237e-16
4.26811e-16
6.88634e-16
1.07493e-15
1.53072e-15
1.90687e-15
1.99548e-15
1.6139e-15
1.00977e-15
5.03348e-16
2.44227e-16
1.13529e-14
2.38093e-15
5.20536e-16
1.77132e-16
1.29145e-16
1.42884e-16
1.81224e-16
2.35242e-16
2.90183e-16
3.19767e-16
2.87858e-16
2.16089e-16
1.50606e-16
1.17929e-16
2.43077e-14
5.18755e-15
1.05216e-15
2.59973e-16
1.24599e-16
1.05329e-16
1.05581e-16
1.10145e-16
1.16072e-16
1.20499e-16
1.18636e-16
1.11762e-16
1.05081e-16
1.03162e-16
4.27038e-14
9.18279e-15
1.80592e-15
3.83366e-16
1.4137e-16
1.05228e-16
1.00682e-16
1.00498e-16
1.00937e-16
1.01384e-16
1.01345e-16
1.00832e-16
1.00357e-16
1.02486e-16
5.85099e-14
1.23286e-14
2.35158e-15
4.64401e-16
1.51483e-16
1.06165e-16
1.00464e-16
9.98705e-17
9.98514e-17
9.98877e-17
9.98984e-17
9.98756e-17
9.9942e-17
1.03287e-16
6.53608e-14
1.31519e-14
2.40113e-15
4.55958e-16
1.47757e-16
1.05388e-16
1.00311e-16
9.97931e-17
9.97551e-17
9.97603e-17
9.97673e-17
9.97746e-17
9.98888e-17
1.04128e-16
6.46992e-14
1.22772e-14
2.12582e-15
3.9502e-16
1.36966e-16
1.03838e-16
1.00102e-16
9.97414e-17
9.9716e-17
9.97193e-17
9.97248e-17
9.97324e-17
9.98589e-17
1.04833e-16
5.93429e-14
1.05965e-14
1.74253e-15
3.24026e-16
1.26054e-16
1.02485e-16
9.99854e-17
9.97421e-17
9.97092e-17
9.96978e-17
9.96925e-17
9.96949e-17
9.98336e-17
1.05198e-16
5.14361e-14
8.64984e-15
1.35841e-15
2.60501e-16
1.17792e-16
1.0217e-16
1.00537e-16
1.00217e-16
1.00004e-16
9.98403e-17
9.97378e-17
9.96918e-17
9.9836e-17
1.054e-16
4.19834e-14
6.72272e-15
1.02604e-15
2.13632e-16
1.16895e-16