/*--------------------------------*- C++ -*----------------------------------*\
| =========                 |                                                 |
| \\      /  F ield         | OpenFOAM: The Open Source CFD Toolbox           |
|  \\    /   O peration     | Version:  v2106                                 |
|   \\  /    A nd           | Website:  www.openfoam.com                      |
|    \\/     M anipulation  |                                                 |
\*---------------------------------------------------------------------------*/
FoamFile
{
    version     2.0;
    format      ascii;
    arch        "LSB;label=32;scalar=64";
    class       volScalarField;
    location    "0.000146";
    object      rho;
}
// * * * * * * * * * * * * * * * * * * * * * * * * * * * * * * * * * * * * * //

dimensions      [1 -3 0 0 0 0 0];

internalField   nonuniform List<scalar> 
18109
(
2.57973
2.58846
2.59486
2.60231
2.609
2.61535
2.62104
2.5855
2.59126
2.59671
2.60278
2.60878
2.6143
2.61934
2.59073
2.59437
2.59868
2.60355
2.60849
2.61322
2.61775
2.59456
2.596
2.59961
2.60305
2.6075
2.612
2.61607
2.59682
2.5968
2.59978
2.60277
2.60684
2.61077
2.61465
2.59736
2.59712
2.59944
2.60197
2.60575
2.60935
2.61308
2.59649
2.5965
2.59835
2.60101
2.60469
2.60808
2.61183
2.59466
2.59515
2.59693
2.59976
2.60347
2.60687
2.6107
2.60417
2.61064
2.61501
2.62031
2.62543
2.63057
2.63551
2.64015
2.64392
2.64693
2.64873
2.64936
2.64855
2.64688
2.60882
2.61299
2.61649
2.62073
2.62528
2.62964
2.63387
2.63806
2.64127
2.6439
2.64556
2.64643
2.64686
2.64604
2.61268
2.6148
2.61751
2.62083
2.62445
2.6283
2.63214
2.63597
2.63907
2.6419
2.64375
2.64473
2.64536
2.6454
2.61514
2.61524
2.61746
2.62012
2.62356
2.62705
2.63042
2.63385
2.63665
2.63934
2.64147
2.64301
2.64436
2.64512
2.61583
2.61524
2.61721
2.61928
2.62248
2.62558
2.6288
2.63214
2.63499
2.63777
2.64002
2.64192
2.64356
2.64514
2.6153
2.61476
2.61625
2.61812
2.62117
2.62404
2.62712
2.63031
2.63315
2.63609
2.63852
2.64092
2.64291
2.6451
2.61395
2.61377
2.61494
2.61694
2.61988
2.6226
2.6257
2.62888
2.63178
2.63487
2.63742
2.64018
2.64249
2.64511
2.61208
2.61236
2.61356
2.61571
2.61864
2.62134
2.62449
2.62767
2.63068
2.6339
2.63653
2.6396
2.64202
2.64498
2.61004
2.61047
2.61192
2.61425
2.6173
2.62013
2.62338
2.62661
2.62972
2.63305
2.63579
2.63906
2.64147
2.64477
2.60786
2.60845
2.61065
2.61315
2.61638
2.61939
2.62275
2.62605
2.62925
2.63257
2.63538
2.63859
2.64085
2.64434
2.60492
2.60638
2.60896
2.61197
2.61538
2.61861
2.62205
2.6254
2.62864
2.63191
2.63487
2.63797
2.64015
2.64333
2.60125
2.60418
2.60764
2.61105
2.61496
2.61857
2.62208
2.62533
2.62836
2.6314
2.63429
2.63706
2.63926
2.6419
2.59835
2.60184
2.60611
2.61014
2.61416
2.61815
2.62179
2.62512
2.6281
2.63083
2.6335
2.63604
2.63811
2.63922
2.59168
2.5978
2.60399
2.60988
2.61466
2.61892
2.62232
2.62535
2.62794
2.6306
2.63308
2.63468
2.63583
2.63589
2.5727
2.568
2.56768
2.56865
2.5725
2.57196
2.59704
2.59147
2.58758
2.58548
2.58598
2.58733
2.60733
2.60017
2.59534
2.59144
2.58966
2.58883
2.61212
2.60586
2.6015
2.5977
2.59639
2.59651
2.61876
2.6137
2.61032
2.6073
2.60674
2.60717
2.62509
2.62231
2.62081
2.61946
2.62039
2.62238
2.6313
2.63092
2.63116
2.63218
2.63457
2.63756
2.63722
2.63871
2.64083
2.64371
2.64744
2.65183
2.64267
2.64581
2.64924
2.65324
2.65778
2.66275
2.647
2.65078
2.65457
2.65892
2.66369
2.66926
2.64955
2.65364
2.65744
2.6616
2.66511
2.6702
2.65094
2.65471
2.65779
2.66064
2.66193
2.66538
2.6508
2.65326
2.65409
2.65442
2.6542
2.65602
2.64958
2.65104
2.65023
2.64886
2.64647
2.64551
2.6487
2.6476
2.64471
2.64158
2.63806
2.6349
2.64356
2.64184
2.63888
2.63536
2.63168
2.62767
2.64601
2.64334
2.64084
2.63672
2.63315
2.62867
2.64588
2.64471
2.64327
2.64044
2.63746
2.63458
2.64634
2.64651
2.64622
2.64481
2.64285
2.64207
2.64684
2.64814
2.64932
2.65006
2.65028
2.65159
2.64732
2.64974
2.65218
2.65482
2.6572
2.66011
2.64785
2.65119
2.65461
2.65847
2.66212
2.66631
2.64794
2.65171
2.65567
2.66031
2.66498
2.66992
2.64769
2.65149
2.65529
2.65968
2.66429
2.66965
2.64666
2.65001
2.65311
2.65674
2.6601
2.66515
2.64511
2.64767
2.64961
2.6518
2.65348
2.6575
2.64272
2.64434
2.6451
2.64557
2.64585
2.64843
2.64015
2.6407
2.63952
2.63846
2.63711
2.63733
2.638
2.63634
2.63416
2.63159
2.62941
2.6275
2.6324
2.63025
2.62781
2.6256
2.62345
2.62115
2.63464
2.63188
2.6295
2.62683
2.62427
2.62216
2.63359
2.63207
2.63028
2.62809
2.62583
2.62523
2.63241
2.63208
2.63152
2.63092
2.63034
2.63092
2.63056
2.63122
2.63223
2.63365
2.63522
2.63765
2.62851
2.62996
2.63216
2.63526
2.63873
2.64277
2.62593
2.62763
2.63038
2.63451
2.63953
2.64533
2.62263
2.6241
2.62665
2.63069
2.63651
2.64384
2.61855
2.61913
2.62072
2.6237
2.62868
2.63683
2.61355
2.61309
2.61303
2.61416
2.61798
2.62677
2.60818
2.60635
2.60492
2.60468
2.60761
2.61653
2.60253
2.59978
2.5966
2.59507
2.59716
2.60415
2.59712
2.59342
2.59092
2.58957
2.59137
2.59437
2.59111
2.58608
2.584
2.58235
2.58318
2.58274
2.59262
2.59298
2.5949
2.59967
2.61015
2.62825
2.58841
2.58651
2.58616
2.58977
2.5994
2.61436
2.58444
2.58203
2.58181
2.58491
2.59184
2.59741
2.5786
2.57401
2.5731
2.57447
2.57826
2.57881
2.58591
2.58117
2.57977
2.57878
2.58144
2.58162
2.596
2.59126
2.58947
2.58784
2.58819
2.58763
2.59917
2.59569
2.5952
2.59553
2.59735
2.59747
2.60402
2.60203
2.60313
2.60501
2.60794
2.60895
2.608
2.60815
2.61102
2.615
2.61977
2.62247
2.61139
2.61365
2.61813
2.62369
2.62948
2.63433
2.61367
2.61687
2.62238
2.62914
2.63645
2.64364
2.61575
2.61959
2.62541
2.63258
2.64062
2.64986
2.61655
2.61986
2.62505
2.63172
2.6392
2.64946
2.61579
2.61793
2.62143
2.62602
2.63184
2.64235
2.61401
2.61502
2.61625
2.61856
2.62298
2.63289
2.6112
2.61038
2.60894
2.60859
2.61163
2.61949
2.60753
2.60497
2.60224
2.60108
2.60302
2.60706
2.60269
2.59768
2.59373
2.59114
2.59135
2.59101
2.57698
2.55059
2.53422
2.55993
2.6596
2.57864
2.55592
2.54166
2.56144
2.64075
2.58968
2.57365
2.56619
2.59211
2.68441
2.60392
2.59681
2.59839
2.62798
2.71384
2.6237
2.62352
2.63536
2.66921
2.74991
2.64236
2.64991
2.67099
2.70915
2.79588
2.65973
2.67302
2.70075
2.74801
2.84935
2.67271
2.69162
2.72391
2.77497
2.87525
3.04131
2.68078
2.70303
2.73551
2.78457
2.87988
3.02672
2.68076
2.70244
2.73494
2.78494
2.88307
3.01061
2.67317
2.69328
2.72927
2.78615
2.88137
3.00051
3.14026
2.66214
2.68218
2.72519
2.79334
2.88888
3.00643
3.16091
3.26819
2.6475
2.65761
2.68489
2.75443
2.86539
3.02651
3.23347
3.5745
2.63307
2.63043
2.63335
2.66791
2.75988
2.9393
3.20468
3.4184
2.62523
2.61224
2.60448
2.61888
2.68313
2.81932
3.02038
3.17431
2.62425
2.60922
2.59909
2.60412
2.65133
2.77958
2.95898
3.12281
2.62944
2.61934
2.61047
2.61664
2.675
2.82032
3.04125
3.23287
2.64067
2.63527
2.62969
2.63734
2.69223
2.82063
3.01271
3.34214
2.65269
2.65197
2.65276
2.66506
2.71701
2.8374
3.00425
3.15735
2.66415
2.66875
2.67704
2.69699
2.75295
2.88374
3.04658
3.18604
2.67287
2.68227
2.69714
2.72527
2.79485
2.94181
3.12001
3.26126
2.67872
2.69285
2.71457
2.74971
2.82
2.95679
3.14466
3.40081
2.68026
2.69874
2.72477
2.76201
2.83098
2.95792
2.67612
2.69705
2.72679
2.76733
2.84107
2.96036
2.66687
2.68875
2.7256
2.77565
2.85246
2.95536
2.65669
2.68013
2.72254
2.78398
2.87413
2.98332
2.64292
2.65556
2.6906
2.76232
2.86888
3.01843
2.62952
2.62858
2.64034
2.68159
2.78514
2.62085
2.61176
2.61153
2.63862
2.72328
2.61738
2.60753
2.60323
2.62311
2.69334
2.62133
2.61417
2.6105
2.6308
2.7144
2.63002
2.62605
2.62554
2.64609
2.7223
2.64
2.64046
2.64633
2.67163
2.74354
2.64881
2.65648
2.67085
2.70313
2.78205
2.6558
2.67198
2.69501
2.73705
2.83162
2.65872
2.68198
2.71234
2.76282
2.86174
2.65564
2.68592
2.72594
2.78793
2.88663
2.6488
2.68983
2.74449
2.81465
2.9065
2.64069
2.68566
2.74721
2.82218
2.91003
2.62449
2.65738
2.7223
2.79827
2.90831
2.59984
2.60114
2.62778
2.70412
2.85269
2.57809
2.56236
2.56429
2.62006
2.75905
2.57045
2.54638
2.53898
2.58542
2.69471
2.57532
2.55243
2.5453
2.58547
2.68135
2.5887
2.57183
2.56988
2.61421
2.72636
2.60402
2.59552
2.60165
2.64476
2.7497
2.62325
2.62301
2.63777
2.68205
2.78423
2.6399
2.6492
2.67266
2.72298
2.83352
2.65502
2.67374
2.70533
2.76488
2.89268
2.66634
2.69055
2.72588
2.79221
2.92144
2.66888
2.69963
2.74276
2.81676
2.93644
2.66477
2.7047
2.75989
2.83741
2.944
2.6571
2.70142
2.76238
2.83883
2.93553
2.64062
2.67068
2.72887
2.80478
2.92044
2.61448
2.61371
2.63382
2.70434
2.8539
2.59013
2.57058
2.56268
2.60033
2.73396
2.63902
2.64241
2.64489
2.64811
2.65135
2.65483
2.65824
2.66153
2.66404
2.6663
2.66759
2.66825
2.66798
2.66702
2.64137
2.6437
2.64551
2.64806
2.65086
2.65382
2.65696
2.65993
2.66205
2.66399
2.66497
2.66581
2.66638
2.66599
2.64348
2.64415
2.64573
2.64768
2.65026
2.65285
2.65551
2.65823
2.66032
2.66249
2.66361
2.66465
2.66515
2.66535
2.64409
2.64359
2.64514
2.64674
2.64917
2.65158
2.65397
2.65635
2.65821
2.66025
2.66163
2.66305
2.66412
2.66489
2.64375
2.64314
2.64444
2.6457
2.64802
2.65011
2.65236
2.65469
2.65664
2.65878
2.66034
2.66198
2.66335
2.66466
2.64272
2.64226
2.6431
2.64433
2.64652
2.64843
2.65062
2.65284
2.65482
2.65706
2.65887
2.66087
2.6626
2.66444
2.6413
2.64119
2.6418
2.64307
2.64515
2.64692
2.64909
2.65128
2.65334
2.65567
2.65761
2.65992
2.66193
2.66424
2.63978
2.63994
2.64055
2.64184
2.64379
2.64551
2.64767
2.64985
2.65201
2.65444
2.65648
2.65905
2.66117
2.66383
2.63807
2.63839
2.63924
2.64062
2.64255
2.6443
2.64645
2.64864
2.65087
2.65338
2.65549
2.65824
2.66036
2.66331
2.63679
2.63714
2.63837
2.63985
2.64181
2.64359
2.64573
2.64793
2.6502
2.65271
2.65486
2.6576
2.65957
2.66269
2.63489
2.63554
2.63728
2.63896
2.64101
2.64284
2.64495
2.64716
2.64945
2.65194
2.65415
2.65677
2.6586
2.6616
2.63254
2.63423
2.63641
2.63836
2.64075
2.64278
2.64485
2.64694
2.64907
2.65138
2.65358
2.65597
2.6578
2.6604
2.63044
2.63282
2.63548
2.63772
2.64009
2.64245
2.64458
2.64672
2.64879
2.65089
2.65299
2.65505
2.65686
2.65828
2.62606
2.62989
2.63414
2.63777
2.64048
2.64297
2.64486
2.64678
2.6486
2.65041
2.65216
2.65381
2.65512
2.65598
2.67091
2.67187
2.67295
2.67452
2.67653
2.67864
2.681
2.68311
2.6847
2.68635
2.68687
2.68767
2.68735
2.68718
2.67156
2.67168
2.67227
2.67342
2.67523
2.67717
2.67945
2.68144
2.68285
2.68429
2.68468
2.6854
2.6856
2.6858
2.67198
2.67132
2.67201
2.67287
2.6744
2.67598
2.6779
2.67967
2.68113
2.68271
2.68336
2.68435
2.68453
2.68484
2.67148
2.67048
2.67088
2.67148
2.67287
2.67423
2.67599
2.67766
2.67906
2.6806
2.6815
2.6827
2.68341
2.68418
2.67082
2.66986
2.66997
2.67029
2.67152
2.67261
2.67422
2.67585
2.67738
2.67907
2.68028
2.6817
2.68273
2.68384
2.66988
2.66891
2.66872
2.66888
2.66988
2.67087
2.6724
2.674
2.67561
2.67741
2.67892
2.68064
2.6821
2.68365
2.66889
2.66799
2.66769
2.6678
2.66859
2.66953
2.67097
2.67255
2.67424
2.67616
2.67788
2.67988
2.68165
2.68357
2.66796
2.6671
2.6668
2.66688
2.66753
2.66846
2.66984
2.67141
2.67314
2.67515
2.67699
2.67921
2.68112
2.68333
2.66678
2.66611
2.666
2.66614
2.66677
2.66771
2.66906
2.67062
2.67238
2.67442
2.67625
2.67859
2.68051
2.68294
2.66604
2.66547
2.66562
2.66585
2.66656
2.66751
2.66885
2.67037
2.67207
2.67406
2.67585
2.6782
2.67996
2.6825
2.66487
2.66437
2.66505
2.66552
2.6665
2.66753
2.66891
2.6704
2.67203
2.67389
2.67551
2.67765
2.67915
2.68158
2.6637
2.66354
2.6648
2.66562
2.66692
2.66806
2.66942
2.67083
2.67233
2.67402
2.6755
2.6773
2.67861
2.68083
2.6625
2.66298
2.6644
2.66549
2.66699
2.66836
2.66982
2.67123
2.67268
2.67414
2.67537
2.67673
2.67784
2.67912
2.6599
2.6617
2.66414
2.66603
2.66779
2.66928
2.67064
2.67189
2.67311
2.67428
2.67526
2.6762
2.677
2.67807
2.6918
2.69115
2.69104
2.69133
2.69217
2.69299
2.69443
2.6957
2.69697
2.69825
2.69894
2.69995
2.70009
2.70059
2.69055
2.68977
2.68942
2.68945
2.69014
2.69098
2.69236
2.69368
2.69498
2.69623
2.69698
2.69787
2.69821
2.69877
2.69006
2.68862
2.68827
2.68799
2.68844
2.68916
2.69039
2.69164
2.69297
2.69432
2.69534
2.69642
2.69705
2.69758
2.68865
2.68718
2.68656
2.68612
2.6864
2.68707
2.68821
2.68946
2.69084
2.69225
2.69342
2.6946
2.69554
2.69636
2.68767
2.68611
2.6852
2.68463
2.68472
2.68526
2.68631
2.68754
2.68901
2.69058
2.69199
2.69339
2.69462
2.69565
2.68639
2.68474
2.68365
2.683
2.68298
2.68345
2.68447
2.68573
2.68728
2.68897
2.69058
2.69218
2.69367
2.69498
2.68546
2.68373
2.68255
2.68183
2.68172
2.68215
2.68313
2.6844
2.68601
2.68781
2.68957
2.69139
2.69306
2.69464
2.68454
2.68278
2.68166
2.68095
2.68085
2.68127
2.68223
2.6835
2.6851
2.68696
2.68878
2.69076
2.69253
2.69434
2.68354
2.68185
2.68093
2.6803
2.68025
2.68073
2.68168
2.68296
2.68458
2.68646
2.68828
2.69033
2.69209
2.69402
2.68292
2.68134
2.68067
2.68015
2.68022
2.68069
2.68166
2.68289
2.68444
2.68627
2.68802
2.69007
2.69172
2.69371
2.68214
2.68083
2.68043
2.68006
2.68039
2.68094
2.68196
2.68319
2.68465
2.68638
2.68795
2.68985
2.69127
2.69317
2.68158
2.6806
2.68055
2.68048
2.68112
2.68176
2.68281
2.68397
2.68529
2.68683
2.68813
2.68976
2.69091
2.69266
2.68115
2.68052
2.68084
2.68104
2.68189
2.6827
2.6838
2.68494
2.68613
2.68741
2.68841
2.68964
2.69044
2.6918
2.68025
2.68039
2.68163
2.68215
2.68323
2.68411
2.68513
2.68611
2.68707
2.68803
2.68874
2.68954
2.69004
2.69116
2.70668
2.70546
2.7045
2.70385
2.70354
2.70339
2.70364
2.70405
2.7047
2.70542
2.70607
2.7069
2.70759
2.7083
2.70465
2.70345
2.70252
2.70183
2.70155
2.70143
2.70169
2.70216
2.70288
2.70364
2.70435
2.70517
2.70585
2.70646
2.70327
2.70183
2.70078
2.69999
2.69966
2.69953
2.69979
2.70028
2.70104
2.70186
2.7027
2.70361
2.70447
2.70512
2.70129
2.69987
2.69872
2.69794
2.69757
2.69747
2.69777
2.69833
2.69915
2.70005
2.70096
2.70192
2.70285
2.70359
2.69981
2.69829
2.69701
2.69617
2.69574
2.69564
2.69594
2.69653
2.69741
2.69841
2.69945
2.70052
2.70159
2.70244
2.69805
2.69647
2.69518
2.69432
2.69388
2.69381
2.69416
2.69479
2.69573
2.69681
2.69795
2.6991
2.70026
2.70123
2.69659
2.69495
2.69366
2.69278
2.69233
2.69228
2.69267
2.69334
2.69434
2.6955
2.69673
2.698
2.69923
2.70036
2.69525
2.69356
2.69235
2.69148
2.69108
2.69105
2.69147
2.69216
2.69317
2.69437
2.69564
2.69699
2.69825
2.69952
2.69391
2.69227
2.6912
2.69039
2.69005
2.69008
2.69055
2.69126
2.69229
2.69353
2.69482
2.69623
2.6975
2.69886
2.69297
2.69137
2.69048
2.68975
2.6895
2.68957
2.69006
2.69075
2.69173
2.69293
2.69417
2.69558
2.6968
2.69822
2.69214
2.69062
2.68991
2.68926
2.68911
2.68926
2.6898
2.6905
2.69146
2.69263
2.69378
2.69514
2.69626
2.69768
2.6916
2.69025
2.68976
2.68924
2.6892
2.68939
2.68992
2.69058
2.69144
2.69251
2.69352
2.69477
2.69577
2.69716
2.69129
2.69009
2.6897
2.68926
2.68931
2.68956
2.69011
2.69077
2.69158
2.69258
2.69345
2.69455
2.69538
2.69668
2.69108
2.69008
2.69004
2.68971
2.68987
2.6901
2.6906
2.69117
2.69184
2.69267
2.69336
2.69432
2.69501
2.69618
2.71431
2.71362
2.7129
2.71221
2.71159
2.71104
2.71067
2.71037
2.71032
2.71036
2.71053
2.71082
2.71122
2.71143
2.7127
2.712
2.71131
2.71063
2.71004
2.7095
2.70913
2.70883
2.70874
2.70874
2.70888
2.70914
2.70948
2.70966
2.71124
2.71056
2.70982
2.70915
2.70853
2.708
2.7076
2.7073
2.70719
2.70716
2.7073
2.70753
2.70791
2.70803
2.70954
2.70887
2.7081
2.70744
2.70683
2.70633
2.70595
2.70568
2.70559
2.70558
2.70571
2.70594
2.70626
2.70641
2.70796
2.70725
2.70646
2.70582
2.70521
2.70473
2.70433
2.70409
2.70402
2.70405
2.70419
2.70442
2.70474
2.70493
2.7062
2.70545
2.70469
2.70406
2.70347
2.70301
2.70266
2.70247
2.70243
2.7025
2.70265
2.70288
2.70319
2.70345
2.70446
2.70368
2.70294
2.7023
2.70174
2.70133
2.70104
2.70092
2.70092
2.70102
2.70122
2.70148
2.70183
2.70221
2.70281
2.70197
2.70126
2.7006
2.7001
2.69973
2.69949
2.69941
2.69945
2.6996
2.69983
2.70015
2.70054
2.70104
2.70115
2.70025
2.69958
2.69893
2.6985
2.69818
2.69803
2.69801
2.69812
2.69834
2.69863
2.69904
2.6995
2.70012
2.69974
2.69876
2.69812
2.69748
2.69711
2.69682
2.69672
2.69674
2.6969
2.69718
2.69753
2.69802
2.69853
2.69924
2.69843
2.69739
2.69678
2.69614
2.6958
2.69557
2.69552
2.6956
2.69585
2.69623
2.69666
2.69726
2.69781
2.69862
2.69734
2.69627
2.6957
2.69508
2.69477
2.69457
2.69455
2.69468
2.69497
2.6954
2.69587
2.69653
2.69713
2.69806
2.69649
2.69543
2.69486
2.69424
2.69391
2.69372
2.69374
2.69395
2.69429
2.69481
2.69535
2.69608
2.69671
2.69767
2.69584
2.69473
2.69428
2.6937
2.69341
2.69321
2.69324
2.69346
2.6938
2.69433
2.69485
2.69562
2.6963
2.69729
2.71474
2.71442
2.71402
2.71365
2.71329
2.71296
2.71271
2.71251
2.71244
2.71242
2.71253
2.71266
2.71294
2.71293
2.71337
2.71312
2.71277
2.71247
2.71215
2.71185
2.71161
2.71141
2.7113
2.71123
2.71127
2.71133
2.7115
2.71147
2.71214
2.71198
2.71166
2.7114
2.71107
2.71078
2.71051
2.71029
2.71013
2.70999
2.70994
2.70993
2.71004
2.70992
2.71075
2.71068
2.71041
2.71017
2.70986
2.70959
2.7093
2.70908
2.70887
2.70867
2.70852
2.70843
2.70843
2.70829
2.70941
2.70936
2.70912
2.7089
2.7086
2.70835
2.70805
2.70779
2.70751
2.70724
2.70701
2.70684
2.70677
2.70661
2.70798
2.70791
2.70772
2.70751
2.70725
2.707
2.70669
2.70639
2.70605
2.70573
2.70544
2.70521
2.70509
2.70496
2.70649
2.70637
2.7062
2.70602
2.70579
2.70554
2.70521
2.70488
2.70452
2.70418
2.70388
2.70366
2.70352
2.70343
2.70499
2.7048
2.70466
2.70447
2.70425
2.70398
2.70365
2.7033
2.70294
2.70262
2.70234
2.70214
2.70203
2.70199
2.70342
2.70316
2.70304
2.70283
2.70261
2.70233
2.70203
2.70173
2.70142
2.70115
2.70093
2.7008
2.70074
2.70079
2.70191
2.70157
2.70145
2.70119
2.70097
2.70069
2.70042
2.70017
2.69992
2.69973
2.69957
2.69955
2.69954
2.69972
2.70046
2.70002
2.69984
2.69952
2.69931
2.69906
2.69886
2.69868
2.69854
2.69847
2.69842
2.69851
2.69863
2.69895
2.69907
2.69854
2.69832
2.69799
2.69778
2.69757
2.69741
2.69731
2.69726
2.6973
2.69737
2.6976
2.69785
2.69832
2.69782
2.69725
2.69693
2.69656
2.69633
2.69616
2.69608
2.6961
2.69619
2.6964
2.69664
2.69703
2.69739
2.69796
2.69667
2.69607
2.69572
2.69537
2.69516
2.69503
2.69501
2.69512
2.69532
2.69565
2.69601
2.69649
2.69693
2.69765
2.71242
2.71244
2.71238
2.7123
2.71224
2.71218
2.71213
2.7121
2.71212
2.71217
2.71229
2.71241
2.71262
2.71266
2.71134
2.71141
2.71136
2.71135
2.71131
2.71127
2.71124
2.71123
2.71125
2.71129
2.71139
2.71148
2.71163
2.71161
2.71037
2.7105
2.71046
2.71048
2.71044
2.71041
2.71037
2.71036
2.71036
2.71038
2.71043
2.71046
2.71057
2.71051
2.7093
2.70945
2.70945
2.70949
2.70947
2.70946
2.70943
2.70942
2.70941
2.70939
2.70939
2.70938
2.70943
2.70936
2.7082
2.70836
2.70841
2.70848
2.70848
2.70849
2.70847
2.70846
2.70842
2.70837
2.70831
2.70826
2.70823
2.70815
2.70703
2.7072
2.70729
2.70739
2.70742
2.70746
2.70744
2.70742
2.70735
2.70726
2.70716
2.70706
2.70697
2.70687
2.70581
2.70597
2.7061
2.70622
2.7063
2.70636
2.70635
2.70631
2.70622
2.7061
2.70595
2.70581
2.70566
2.70555
2.70456
2.7047
2.70488
2.70502
2.70513
2.70518
2.70517
2.70512
2.70501
2.70485
2.70464
2.70445
2.70427
2.70415
2.70325
2.70335
2.70356
2.70371
2.70384
2.7039
2.7039
2.70385
2.70372
2.70354
2.70332
2.70312
2.70289
2.70276
2.70192
2.702
2.70223
2.70236
2.7025
2.70256
2.70257
2.70249
2.70235
2.70218
2.70197
2.70179
2.70159
2.70148
2.70056
2.70057
2.7008
2.70092
2.70106
2.70113
2.70114
2.70109
2.70098
2.70085
2.7007
2.7006
2.70048
2.70045
2.6992
2.69916
2.69939
2.69948
2.69962
2.69968
2.69971
2.6997
2.69965
2.69962
2.69956
2.69956
2.69954
2.69959
2.69787
2.69779
2.69795
2.69804
2.69818
2.69828
2.69836
2.69844
2.6985
2.69859
2.69867
2.69879
2.69888
2.69899
2.69661
2.69657
2.69669
2.69678
2.69691
2.69705
2.69719
2.69736
2.69752
2.69771
2.69788
2.69808
2.69825
2.6985
2.70835
2.70853
2.70872
2.70894
2.70918
2.70941
2.70963
2.70984
2.71003
2.7102
2.71036
2.7105
2.71065
2.71078
2.70751
2.70777
2.70798
2.70825
2.70852
2.70879
2.70904
2.70928
2.70949
2.70968
2.70985
2.71001
2.71018
2.71029
2.70678
2.70709
2.70733
2.70763
2.70791
2.7082
2.70846
2.70871
2.70892
2.70911
2.70929
2.70944
2.70963
2.70973
2.70602
2.70635
2.70662
2.70695
2.70726
2.70756
2.70783
2.70807
2.70828
2.70847
2.70864
2.70879
2.70898
2.70909
2.70524
2.70558
2.70589
2.70624
2.70657
2.70689
2.70716
2.7074
2.70761
2.70778
2.70795
2.7081
2.70828
2.7084
2.70443
2.70479
2.70513
2.70551
2.70585
2.70616
2.70643
2.70667
2.70686
2.70703
2.70719
2.70735
2.70752
2.70765
2.70357
2.70394
2.70431
2.7047
2.70505
2.70537
2.70565
2.70589
2.70609
2.70626
2.70642
2.70657
2.7067
2.70682
2.70269
2.70306
2.70346
2.70384
2.7042
2.70454
2.70483
2.70507
2.70528
2.70546
2.7056
2.70572
2.7058
2.7059
2.70174
2.7021
2.70251
2.70291
2.70329
2.70364
2.70395
2.70421
2.70442
2.70459
2.7047
2.7048
2.70486
2.70495
2.70078
2.70113
2.70155
2.70196
2.70235
2.70272
2.70304
2.7033
2.70351
2.70367
2.70378
2.70388
2.70392
2.704
2.69979
2.70012
2.70055
2.70097
2.70139
2.70176
2.70208
2.70235
2.70257
2.70275
2.70286
2.70297
2.70299
2.70306
2.69884
2.69914
2.69956
2.69999
2.70041
2.7008
2.70114
2.70142
2.70166
2.70185
2.70198
2.70207
2.70207
2.70212
2.69793
2.69819
2.6986
2.69903
2.69946
2.69986
2.70022
2.70053
2.70078
2.70099
2.70111
2.7012
2.7012
2.70123
2.69699
2.69727
2.69768
2.69811
2.69854
2.69895
2.69933
2.69966
2.69992
2.70013
2.70026
2.70035
2.70036
2.70037
2.70418
2.70451
2.70479
2.70511
2.70541
2.70571
2.706
2.70627
2.70652
2.70675
2.70696
2.70717
2.70737
2.70763
2.70362
2.70397
2.70428
2.70462
2.70495
2.70529
2.70561
2.7059
2.70617
2.70643
2.70667
2.70692
2.70716
2.70742
2.70314
2.70352
2.70384
2.70419
2.70453
2.70489
2.70522
2.70553
2.70583
2.7061
2.70637
2.70664
2.7069
2.70717
2.70268
2.70305
2.7034
2.70377
2.70414
2.7045
2.70484
2.70516
2.70545
2.70574
2.70602
2.70631
2.70659
2.70687
2.70219
2.70258
2.70295
2.70333
2.70372
2.70409
2.70443
2.70476
2.70507
2.70539
2.70569
2.70599
2.70628
2.70657
2.70171
2.70211
2.7025
2.7029
2.70329
2.70367
2.70402
2.70436
2.7047
2.70503
2.70535
2.70564
2.70593
2.70622
2.70119
2.7016
2.70201
2.70243
2.70283
2.70322
2.70359
2.70396
2.70431
2.70465
2.70496
2.70526
2.70553
2.70581
2.70064
2.70108
2.70152
2.70195
2.70236
2.70277
2.70316
2.70354
2.70391
2.70424
2.70455
2.70484
2.7051
2.70536
2.70007
2.70052
2.70098
2.70143
2.70187
2.70229
2.70271
2.7031
2.70346
2.7038
2.7041
2.70438
2.70462
2.70487
2.69948
2.69995
2.70043
2.7009
2.70137
2.70182
2.70224
2.70264
2.70301
2.70335
2.70364
2.70391
2.70412
2.70434
2.6989
2.69938
2.69989
2.70038
2.70087
2.70133
2.70176
2.70217
2.70254
2.70287
2.70315
2.7034
2.70356
2.70374
2.69831
2.69881
2.69933
2.69985
2.70035
2.70083
2.70129
2.7017
2.70207
2.7024
2.70265
2.70285
2.70294
2.70309
2.69774
2.69824
2.69877
2.69931
2.69984
2.70034
2.70079
2.70121
2.70156
2.70186
2.70207
2.70222
2.70229
2.70241
2.69725
2.69774
2.69826
2.6988
2.69932
2.69981
2.70026
2.70066
2.70099
2.70126
2.70144
2.70156
2.70162
2.70168
2.6997
2.70009
2.70045
2.70083
2.70121
2.70158
2.70195
2.7023
2.70263
2.70295
2.70323
2.70351
2.70376
2.70406
2.69942
2.69984
2.70024
2.70066
2.70106
2.70146
2.70185
2.70223
2.70259
2.70295
2.70328
2.7036
2.7039
2.70425
2.69923
2.69966
2.70006
2.7005
2.70092
2.70134
2.70176
2.70218
2.70257
2.70295
2.70332
2.70367
2.70401
2.70438
2.69904
2.69949
2.69992
2.70036
2.70081
2.70126
2.7017
2.70213
2.70255
2.70296
2.70336
2.70374
2.7041
2.70449
2.69886
2.69932
2.69977
2.70023
2.7007
2.70117
2.70163
2.70209
2.70253
2.70296
2.70338
2.70378
2.70415
2.70454
2.69869
2.69916
2.69964
2.70012
2.7006
2.70109
2.70157
2.70204
2.70251
2.70295
2.70338
2.70378
2.70416
2.70454
2.69851
2.699
2.69949
2.69999
2.70049
2.70099
2.70149
2.70198
2.70245
2.7029
2.70332
2.70372
2.7041
2.70447
2.69833
2.69884
2.69935
2.69986
2.70038
2.70089
2.7014
2.7019
2.70237
2.70282
2.70324
2.70363
2.70401
2.70436
2.69813
2.69865
2.69919
2.69972
2.70025
2.70078
2.70129
2.70178
2.70225
2.70269
2.7031
2.70349
2.70384
2.70418
2.69792
2.69846
2.69901
2.69956
2.7001
2.70064
2.70115
2.70165
2.70211
2.70254
2.70294
2.70329
2.70361
2.70391
2.69769
2.69825
2.69881
2.69938
2.69993
2.70047
2.70098
2.70147
2.70192
2.70232
2.70267
2.70299
2.70326
2.70356
2.69745
2.69803
2.6986
2.69917
2.69973
2.70027
2.70078
2.70125
2.70168
2.70205
2.70237
2.70265
2.70288
2.70318
2.69726
2.69785
2.69842
2.69899
2.69954
2.70006
2.70054
2.70098
2.70137
2.70171
2.702
2.70226
2.70249
2.70276
2.69717
2.69776
2.6983
2.69884
2.69935
2.69983
2.70027
2.70068
2.70103
2.70134
2.70161
2.70184
2.70204
2.70224
2.69467
2.69512
2.69555
2.69597
2.69638
2.69679
2.69718
2.69757
2.69794
2.69829
2.69862
2.69894
2.69923
2.69956
2.69472
2.69516
2.6956
2.69604
2.69647
2.6969
2.69733
2.69774
2.69814
2.69852
2.69889
2.69924
2.69957
2.69995
2.69479
2.69524
2.6957
2.69615
2.6966
2.69705
2.69749
2.69792
2.69834
2.69874
2.69914
2.69951
2.69987
2.70026
2.69485
2.69532
2.6958
2.69627
2.69674
2.6972
2.69766
2.69811
2.69856
2.69898
2.6994
2.6998
2.70019
2.7006
2.69494
2.69543
2.69592
2.69641
2.69689
2.69737
2.69785
2.69831
2.69877
2.69921
2.69965
2.70007
2.70047
2.70089
2.69505
2.69555
2.69606
2.69656
2.69706
2.69755
2.69804
2.69852
2.69899
2.69945
2.69989
2.70032
2.70075
2.70117
2.69517
2.69569
2.69621
2.69673
2.69724
2.69774
2.69824
2.69873
2.6992
2.69966
2.70011
2.70054
2.70097
2.7014
2.69531
2.69585
2.69638
2.69691
2.69743
2.69794
2.69844
2.69892
2.6994
2.69985
2.7003
2.70074
2.70117
2.70159
2.69545
2.69601
2.69655
2.69708
2.69761
2.69812
2.69862
2.6991
2.69956
2.70001
2.70045
2.70088
2.7013
2.70172
2.69561
2.69617
2.69672
2.69726
2.69778
2.69829
2.69878
2.69926
2.69971
2.70015
2.70057
2.70098
2.70138
2.70177
2.69575
2.69633
2.69688
2.69742
2.69794
2.69844
2.69892
2.69938
2.69982
2.70022
2.70062
2.701
2.70139
2.70177
2.6959
2.69648
2.69703
2.69756
2.69808
2.69857
2.69903
2.69947
2.69988
2.70026
2.70063
2.70098
2.70134
2.7017
2.69604
2.69662
2.69716
2.69769
2.69819
2.69865
2.69909
2.69948
2.69985
2.70021
2.70055
2.70088
2.7012
2.70152
2.69618
2.69679
2.69729
2.6978
2.69826
2.69869
2.69909
2.69946
2.69981
2.70013
2.70043
2.7007
2.70096
2.70123
2.68872
2.68915
2.6896
2.69002
2.69044
2.69085
2.69126
2.69166
2.69204
2.69241
2.69276
2.69309
2.6934
2.69372
2.689
2.68941
2.68988
2.69031
2.69075
2.69118
2.6916
2.69201
2.69241
2.6928
2.69316
2.69351
2.69384
2.6942
2.68933
2.68976
2.69023
2.69067
2.69111
2.69153
2.69196
2.69237
2.69277
2.69316
2.69354
2.6939
2.69425
2.69462
2.68963
2.69007
2.69055
2.691
2.69145
2.69189
2.69232
2.69274
2.69316
2.69356
2.69395
2.69433
2.6947
2.69509
2.68995
2.69041
2.6909
2.69136
2.69181
2.69226
2.69269
2.69312
2.69354
2.69395
2.69435
2.69474
2.69513
2.69552
2.69028
2.69076
2.69125
2.69172
2.69218
2.69263
2.69308
2.69351
2.69393
2.69435
2.69476
2.69517
2.69557
2.69598
2.69063
2.69113
2.69163
2.6921
2.69257
2.69302
2.69346
2.69389
2.69432
2.69474
2.69516
2.69558
2.696
2.69641
2.69101
2.69152
2.69202
2.6925
2.69296
2.69341
2.69385
2.69428
2.69471
2.69513
2.69556
2.69598
2.69641
2.69684
2.69139
2.69192
2.69241
2.6929
2.69336
2.69381
2.69424
2.69467
2.69509
2.6955
2.69593
2.69635
2.69679
2.69722
2.69181
2.69234
2.69283
2.69331
2.69376
2.6942
2.69463
2.69504
2.69545
2.69586
2.69627
2.69669
2.69713
2.69756
2.69221
2.69275
2.69323
2.69371
2.69415
2.69458
2.69499
2.69539
2.69579
2.69618
2.69658
2.69699
2.69743
2.69785
2.69265
2.69318
2.69365
2.69411
2.69454
2.69495
2.69534
2.69572
2.69609
2.69646
2.69684
2.69724
2.69766
2.69809
2.69305
2.69357
2.69404
2.69448
2.69489
2.69528
2.69565
2.696
2.69635
2.6967
2.69706
2.69743
2.69785
2.6983
2.69349
2.69401
2.69444
2.69486
2.69524
2.69559
2.69592
2.69624
2.69656
2.69688
2.69723
2.69758
2.69797
2.6984
2.68178
2.68215
2.68257
2.68296
2.68336
2.68375
2.68414
2.68451
2.68488
2.68523
2.68557
2.68589
2.68619
2.6865
2.68223
2.68258
2.68301
2.6834
2.68381
2.68421
2.6846
2.68498
2.68535
2.6857
2.68604
2.68637
2.68667
2.68699
2.68272
2.68308
2.68352
2.68391
2.6843
2.68469
2.68507
2.68543
2.68579
2.68614
2.68648
2.68681
2.68711
2.68744
2.68318
2.68356
2.68398
2.68438
2.68477
2.68516
2.68554
2.6859
2.68626
2.68661
2.68695
2.68729
2.6876
2.68793
2.68366
2.68405
2.68448
2.68487
2.68526
2.68564
2.68601
2.68637
2.68673
2.68707
2.68742
2.68775
2.68807
2.68841
2.68414
2.68455
2.68497
2.68536
2.68575
2.68613
2.68649
2.68685
2.68721
2.68756
2.6879
2.68825
2.68858
2.68893
2.68463
2.68506
2.68547
2.68587
2.68625
2.68662
2.68698
2.68733
2.68769
2.68803
2.68839
2.68874
2.68909
2.68943
2.68516
2.68559
2.68599
2.68639
2.68676
2.68713
2.68748
2.68783
2.68818
2.68853
2.68889
2.68925
2.68962
2.68997
2.68568
2.68612
2.68652
2.68691
2.68728
2.68763
2.68798
2.68833
2.68867
2.68902
2.68938
2.68975
2.69013
2.69049
2.68624
2.68667
2.68706
2.68745
2.6878
2.68815
2.68849
2.68882
2.68916
2.68951
2.68987
2.69025
2.69065
2.69102
2.68679
2.68722
2.6876
2.68797
2.68832
2.68866
2.68898
2.68931
2.68965
2.68999
2.69036
2.69073
2.69114
2.69151
2.68737
2.68779
2.68815
2.68851
2.68884
2.68916
2.68947
2.68979
2.69011
2.69045
2.6908
2.69118
2.6916
2.69199
2.68791
2.68831
2.68867
2.68901
2.68933
2.68963
2.68994
2.69024
2.69056
2.69089
2.69125
2.69163
2.69205
2.69245
2.68852
2.68888
2.68921
2.68952
2.68982
2.6901
2.69038
2.69066
2.69096
2.69127
2.69162
2.692
2.69242
2.6929
2.67444
2.67471
2.67504
2.67535
2.67567
2.67598
2.67629
2.6766
2.6769
2.67719
2.67747
2.67775
2.678
2.67827
2.67494
2.67519
2.67552
2.67583
2.67615
2.67647
2.67678
2.67709
2.67738
2.67767
2.67795
2.67823
2.67847
2.67875
2.67547
2.67572
2.67606
2.67636
2.67667
2.67697
2.67727
2.67757
2.67785
2.67812
2.67839
2.67866
2.6789
2.67917
2.67598
2.67625
2.67657
2.67687
2.67718
2.67747
2.67777
2.67806
2.67833
2.67861
2.67887
2.67913
2.67937
2.67964
2.6765
2.67678
2.6771
2.67739
2.67769
2.67798
2.67827
2.67854
2.67881
2.67908
2.67934
2.6796
2.67984
2.6801
2.67703
2.67732
2.67763
2.67792
2.67821
2.67849
2.67877
2.67904
2.67931
2.67957
2.67983
2.68009
2.68034
2.68059
2.67757
2.67787
2.67817
2.67845
2.67873
2.67901
2.67928
2.67954
2.67981
2.68007
2.68033
2.68058
2.68084
2.68108
2.67813
2.67843
2.67871
2.67899
2.67927
2.67953
2.6798
2.68006
2.68032
2.68058
2.68085
2.6811
2.68137
2.68161
2.67869
2.67898
2.67925
2.67953
2.67979
2.68006
2.68031
2.68057
2.68083
2.6811
2.68137
2.68163
2.68191
2.68214
2.67926
2.67955
2.67981
2.68008
2.68033
2.68058
2.68083
2.68109
2.68135
2.68162
2.68189
2.68217
2.68246
2.6827
2.67981
2.6801
2.68034
2.6806
2.68085
2.6811
2.68135
2.68161
2.68187
2.68214
2.68242
2.68271
2.68302
2.68326
2.68038
2.68067
2.6809
2.68114
2.68138
2.68162
2.68186
2.68212
2.68238
2.68266
2.68294
2.68324
2.68357
2.68383
2.68091
2.68118
2.6814
2.68164
2.68188
2.68211
2.68236
2.68262
2.6829
2.68318
2.68348
2.68379
2.68413
2.68441
2.68152
2.68173
2.68195
2.68217
2.68239
2.68262
2.68286
2.68311
2.68338
2.68367
2.68396
2.68429
2.68463
2.68499
2.66743
2.66756
2.66777