/*--------------------------------*- C++ -*----------------------------------*\
| =========                 |                                                 |
| \\      /  F ield         | OpenFOAM: The Open Source CFD Toolbox           |
|  \\    /   O peration     | Version:  v2106                                 |
|   \\  /    A nd           | Website:  www.openfoam.com                      |
|    \\/     M anipulation  |                                                 |
\*---------------------------------------------------------------------------*/
FoamFile
{
    version     2.0;
    format      ascii;
    arch        "LSB;label=32;scalar=64";
    class       volScalarField;
    location    "0.000129";
    object      p;
}
// * * * * * * * * * * * * * * * * * * * * * * * * * * * * * * * * * * * * * //

dimensions      [1 -1 -2 0 0 0 0];

internalField   nonuniform List<scalar> 
144746
(
205757
205951
206037
206151
206196
206241
206231
206215
206162
206126
206077
206038
206031
205959
205632
205808
205907
206054
206123
206200
206211
206205
206165
206116
206050
205984
205965
205852
205401
205606
205690
205856
205937
206030
206048
206030
205996
205954
205896
205836
205798
205715
205296
205504
205593
205758
205831
205924
205939
205920
205872
205814
205756
205694
205652
205582
205175
205395
205470
205600
205654
205728
205742
205723
205666
205590
205525
205461
205419
205368
205077
205251
205314
205424
205468
205523
205530
205497
205426
205344
205277
205219
205189
205153
204943
205099
205157
205249
205287
205328
205316
205271
205191
205094
205017
204964
204939
204905
204831
204948
204985
205063
205087
205110
205084
205028
204947
204850
204772
204724
204711
204683
204703
204784
204812
204879
204886
204892
204859
204796
204722
204633
204564
204516
204512
204483
204580
204621
204628
204675
204668
204654
204621
204582
204534
204451
204373
204333
204344
204323
204472
204476
204459
204481
204449
204424
204388
204359
204314
204255
204216
204197
204229
204212
204348
204330
204285
204281
204236
204203
204167
204147
204114
204078
204061
204068
204142
204147
204298
204257
204210
204179
204122
204071
204039
204009
203983
203973
203991
204024
204125
204142
204217
204143
204034
204002
203954
203907
203890
203868
203863
203871
203916
203971
204094
204167
204161
204705
205112
205640
206089
206448
206768
206954
207106
207163
207047
206715
206231
205559
204925
205551
205958
206386
206750
207003
207228
207341
207438
207423
207313
206982
206530
205853
205497
206052
206417
206809
207130
207348
207526
207631
207680
207614
207478
207167
206728
206082
205973
206482
206791
207164
207457
207649
207785
207853
207872
207806
207640
207336
206922
206305
206167
206677
206959
207331
207606
207826
207967
208035
208034
207904
207746
207455
207049
206464
206125
206680
207018
207453
207739
207965
208098
208142
208111
207973
207767
207466
207108
206566
205930
206542
206957
207412
207671
207924
208084
208148
208118
207964
207758
207451
207112
206601
205732
206370
206854
207248
207564
207813
207984
208050
208021
207861
207651
207345
207037
206547
205382
206051
206635
206984
207348
207595
207767
207836
207808
207657
207460
207182
206878
206435
204985
205686
206316
206688
207049
207297
207470
207549
207525
207382
207205
206962
206656
206253
204536
205270
205944
206339
206691
206928
207084
207154
207128
207003
206865
206623
206334
205959
203998
204751
205428
205875
206238
206502
206688
206787
206753
206588
206454
206177
205920
205562
203581
204377
205027
205473
205793
206013
206138
206201
206174
206090
205926
205649
205379
204984
202946
203627
204283
204795
205129
205339
205448
205499
205481
205378
205164
204848
204584
204226
207346
208485
209549
210352
211154
211761
212413
212871
213324
213550
213576
213106
212182
210607
209444
210303
211326
212034
212741
213315
213872
214283
214638
214679
214531
213932
212794
211207
210836
211848
212794
213536
214144
214623
215015
215272
215445
215455
215153
214469
213414
211844
211717
212901
213778
214537
215112
215525
215831
216028
216121
216004
215663
214972
213915
212351
212184
213443
214374
215127
215677
216077
216349
216509
216538
216366
215960
215262
214252
212735
212087
213443
214553
215373
215972
216388
216650
216793
216778
216563
216134
215437
214464
212992
211618
213201
214371
215304
215962
216440
216724
216873
216841
216619
216191
215499
214559
213162
211052
212839
214080
215133
215838
216345
216633
216785
216737
216513
216093
215427
214515
213201
210302
212179
213580
214746
215520
216055
216357
216515
216454
216234
215819
215205
214350
213255
209618
211549
213069
214294
215116
215662
215976
216128
216040
215806
215370
214776
213913
212944
208675
210728
212381
213689
214563
215104
215419
215549
215439
215196
214751
214187
213373
212431
207807
209922
211579
212942
213863
214417
214715
214776
214616
214326
213835
213239
212430
211530
206573
208821
210556
212008
212938
213481
213687
213681
213467
213129
212550
211932
211002
210180
205112
207673
209419
210897
211782
212366
212508
212347
211999
211545
210955
210310
209252
208203
206047
206134
206242
206195
206329
206231
205988
205899
206128
205960
206160
205972
205854
205813
206050
205931
206142
205909
205716
205660
205924
205818
206025
205811
205499
205455
205715
205602
205812
205624
205279
205208
205473
205364
205595
205261
205029
204936
205199
205083
205321
205058
204800
204677
204937
204824
205073
204854
204582
204457
204719
204576
204813
204594
204441
204355
204588
204443
204684
204524
204332
204240
204486
204281
204497
204359
204307
204263
204492
204402
204704
204516
204295
204264
204464
204334
204532
204394
204341
204367
204566
204534
204777
204643
204877
204093
204099
203441
203776
202898
205375
204495
204390
203559
203849
202702
205402
204492
204348
203463
203798
202509
205618
204633
204441
203618
204007
202591
205775
204794
204575
203746
204150
202702
205929
204997
204791
203994
204369
203001
206023
205196
205017
204281
204615
203357
206053
205346
205221
204549
204819
203707
206054
205481
205361
204681
204885
203837
205943
205383
205254
204593
204807
203811
205683
205063
204956
204274
204483
203526
205324
204617
204478
203714
203920
202863
204787
203956
203824
203004
203122
202271
204125
203307
203376
202611
202843
202000
208566
205884
203459
199602
197254
189495
209666
206963
204403
200005
197278
187741
210045
207243
204408
199689
196904
186687
210572
207647
204898
200184
197475
187182
211061
208114
205398
200814
198430
188941
211392
208523
206015
201743
199642
191467
211684
208939
206606
202749
200911
194157
211838
209322
207214
203859
202234
196664
211877
209656
207707
204684
203172
198277
211738
209620
207919
205158
203656
199034
211285
209200
207608
204727
203109
198225
210251
208177
206489
203564
201965
196530
209033
206670
204760
201215
199091
192839
206404
203853
201903
198409
196412
189281
204260
204338
204455
204376
204535
204335
204162
204174
204390
204315
204549
204333
204079
204054
204274
204177
204416
204132
203985
203934
204155
204075
204323
204020
203905
203798
203975
203855
204053
203708
203858
203686
203838
203677
203872
203496
203840
203628
203762
203566
203730
203404
203841
203585
203704
203519
203706
203405
203863
203640
203794
203455
203624
203373
203932
203724
203847
203616
203871
203510
204003
203823
203968
203785
203963
203795
204070
203949
204125
204044
204358
204144
204174
204095
204268
204205
204415
204191
204221
204230
204398
204297
204525
204342
203502
202631
202637
201885
202203
201153
204076
203184
203059
202115
202390
201064
204158
203131
202913
201989
202281
200814
204388
203301
203014
202077
202454
200844
204543
203447
203114
202177
202534
200849
204698
203642
203306
202424
202721
201014
204788
203832
203530
202718
203008
201410
204869
204047
203803
203025
203269
201745
204819
204038
203794
202975
203205
201720
204668
203889
203726
202967
203261
201786
204394
203469
203214
202254
202434
200972
203946
202947
202767
201823
201949
200613
203474
202415
202342
201326
201476
200193
202660
201611
201703
200823
201181
200022
206229
203060
200677
196614
194280
185800
207559
204621
201943
197447
194739
184165
208343
205248
202290
197566
194785
183238
209032
206013
203035
198199
195448
183769
209596
206628
203695
198995
196422
185656
210087
207244
204413
199972
197542
188062
210457
207767
205057
200942
198639
190484
210695
208199
205698
201873
199737
192462
210741
208244
205978
202350
200204
193377
210365
207797
205637
202006
199864
192865
209419
206876
204767
201042
198799
191399
207925
205269
203004
199117
196805
188864
206534
203395
201119
197285
195212
186317
203029
199793
197830
194389
192654
183322
205573
205722
205608
205780
205669
205721
205518
205664
205516
205604
205487
205612
205139
205214
205059
205298
205211
205385
205129
205276
205070
205188
205067
205277
204593
204792
204663
204963
204890
205123
204548
204724
204596
204820
204773
205035
204502
204602
204505
204747
204735
204999
204466
204530
204480
204727
204699
204927
204429
204541
204488
204733
204675
204840
204398
204593
204524
204749
204658
204758
204464
204661
204584
204761
204635
204675
204531
204732
204607
204754
204590
204592
204468
204745
204572
204649
204477
204467
204522
204788
204642
204706
204582
204468
201430
202361
202033
202871
202809
203785
201856
202807
202625
203539
203614
204658
202177
203131
203031
203915
204117
205112
203027
204038
203876
204636
204861
205627
203737
204582
204415
205066
205219
205894
204192
204981
204671
205271
205402
205915
204279
204921
204557
205161
205136
205620
203825
204502
204136
204753
204661
205321
203138
203950
203568
204163
204071
204890
202391
203338
202963
203551
203490
204406
201635
202756
202369
202987
202957
203943
201034
202187
201782
202375
202349
203404
200621
201810
201493
202153
202145
203096
200187
201371
201090
201739
201648
202519
187552
195474
197291
200539
202521
205160
190740
198108
200084
203492
205478
208003
193411
199776
201862
205210
207245
209336
196492
202095
203998
206898
208400
210509
198410
203133
204744
207374
208974
210979
199285
203604
204881
207166
208510
210626
199018
203144
204024
206218
207659
209951
197153
201913
202706
205064
206649
209095
194586
200398
201144
203790
205588
208172
191577
198812
199611
202535
204563
207306
188525
197138
198137
201336
203553
206402
185573
195474
196766
200301
202657
205556
183388
194059
195652
199244
201595
204607
182400
192550
194440
198092
200369
203406
206018
206134
206001
206222
206029
206176
206277
206498
206258
206326
206099
206164
206357
206342
206183
206275
206135
206197
206400
206418
206185
206289
206093
206192
206445
206440
206222
206345
206173
206281
206532
206461
206290
206418
206250
206344
206535
206466
206342
206504
206339
206432
206574
206514
206402
206577
206397
206469
206513
206539
206450
206629
206435
206499
206420
206526
206446
206636
206430
206480
206408
206520
206451
206607
206417
206439
206358
206472
206373
206509
206316
206337
206152
206337
206211
206354
206166
206199
205987
206194
206103
206221
206093
206067
203459
204118
203941
204685
204688
205398
203935
204569
204519
205204
205341
206051
204835
205516
205358
205870
205955
206501
205461
206179
205952
206409
206412
206926
206042
206555
206291
206729
206714
207098
206134
206511
206209
206694
206688
207003
205835
206225
205920
206440
206383
206783
205367
205822
205495
206019
205947
206487
204715
205278
204977
205502
205430
206102
204013
204739
204418
204944
204875
205627
203224
204191
203823
204396
204331
205157
202623
203652
203223
203784
203682
204623
202059
203158
202825
203462
203433
204343
201594
202650
202377
202993
202928
203711
193278
199581
201702
204964
206857
208852
196972
202426
204347
207319
209081
211044
200611
205022
206750
209266
210497
212155
202540
206350
207602
209768
211071
212727
203659
206849
207795
209685
210833
212512
203603
206468
207022
208815
210061
211986
202174
205369
205876
207763
209084
211194
200043
203973
204441
206645
208116
210458
197266
202362
202936
205496
207148
209641
194488
200830
201506
204389
206268
208923
191692
199252
200134
203281
205391
208113
189110
197716
198921
202321
204521
207268
187129
196385
197961
201482
203797
206625
186297
195007
197057
200497
202731
205320
216023
215932
216665
216635
217010
217194
217688
218127
218726
219194
219633
219796
219861
218870
217894
217809
218300
218369
218644
218795
219134
219395
219848
220203
220383
220264
219863
218672
218926
219126
219524
219719
219912
220051
220273
220436
220696
220822
220872
220588
220068
219060
219240
219822
220218
220535
220732
220871
221022
221129
221279
221307
221193
220840
220173
219080
218994
219882
220499
220926
221167
221341
221488
221581
221658
221601
221380
220973
220267
219259
218541
219699
220473
221021
221378
221622
221790
221872
221899
221793
221516
221048
220295
219259
217900
219250
220196
220923
221403
221708
221902
221991
222005
221889
221597
221133
220391
219394
217452
218871
220056
220876
221429
221774
221980
222071
222063
221928
221630
221163
220441
219487
216843
218346
219723
220662
221310
221707
221932
222039
222025
221897
221613
221184
220517
219685
216529
218173
219616
220592
221249
221631
221838
221936
221893
221754
221459
221071
220440
219754
215933
217750
219290
220345
221043
221431
221619
221699
221632
221503
221212
220899
220307
219731
215941
217725
219214
220197
220849
221188
221304
221319
221183
221034
220688
220412
219818
219360
215026
217216
218751
219786
220395
220668
220706
220668
220473
220327
219966
219750
219200
218959
214916
217276
218642
219448
219911
220093
219996
219825
219555
219345
218891
218652
217783
217565
222403
221838
222119
221705
221703
221689
222066
222554
223297
224065
224709
225184
225769
225266
223975
223469
223517
223301
223311
223326
223616
223911
224416
224908
225403
225562
225603
224893
224486
224394
224453
224435
224459
224495
224691
224874
225197
225472
225678
225732
225542
224987
224471
224814
224971
225105
225172
225242
225401
225535
225737
225887
225931
225808
225466
224771
223983
224666
225107
225347
225516
225663
225838
225964
226090
226146
226058
225831
225383
224694
223348
224315
224928
225354
225667
225909
226104
226226
226311
226315
226147
225824
225280
224512
222612
223737
224612
225228
225672
225984
226207
226342
226414
226393
226198
225859
225281
224485
221952
223294
224390
225152
225686
226046
226282
226416
226470
226427
226212
225865
225292
224506
221375
222872
224130
225012
225635
226035
226280
226419
226467
226422
226217
225900
225398
224711
221227
222820
224128
225045
225676
226043
226255
226375
226393
226333
226131
225847
225401
224818
221022
222724
224073
224999
225636
225984
226158
226256
226244
226189
226017
225811
225445
225052
221494
223056
224282
225113
225653
225911
226002
226032
225961
225897
225705
225581
225240
224961
221093
223003
224198
225045
225500
225672
225662
225612
225482
225450
225279
225295
225057
225062
221684
223615
224565
225111
225408
225394
225222
225048
224864
224833
224663
224719
224263
224352
227841
227205
227120
226584
226422
226263
226411
226784
227305
227995
228708
229214
229989
229890
229011
228389
228115
227741
227562
227452
227571
227822
228226
228681
229186
229490
229826
229555
229076
228939
228691
228509
228359
228290
228376
228512
228754
229037
229248
229495
229597
229399
228927
229047
228991
228903
228823
228793
228876
228969
229134
229318
229432
229490
229463
229151
228426
228861
228973
228991
229029
229085
229188
229277
229390
229491
229523
229454
229280
228964
227879
228418
228739
228964
229126
229256
229373
229467
229558
229623
229597
229443
229161
228742
227154
227984
228522
228886
229140
229326
229469
229576
229656
229698
229639
229465
229118
228645
226606
227642
228357
228858
229197
229420
229575
229682
229744
229765
229673
229486
229131
228642
226287
227440
228295
228874
229261
229497
229654
229763
229814
229832
229735
229560
229252
228791
226399
227552
228433
229022
229418
229630
229757
229848
229868
229873
229765
229597
229345
228904
226390
227635
228560
229161
229558
229746
229832
229898
229888
229899
229820
229718
229587
229203
226972
228123
228939
229442
229744
229862
229882
229905
229856
229861
229763
229704
229611
229392
226988
228400
229181
229682
229869
229919
229850
229805
229706
229736
229676
229778
229790
229812
227686
229177
229652
229952
230078
229925
229740
229605
229477
229529
229479
229641
229489
229586
231134
230395
230135
229722
229548
229456
229602
229874
230274
230787
231348
231834
232538
232657
231850
231310
230924
230593
230400
230316
230439
230627
230984
231345
231807
232040
232412
232313
231754
231583
231315
231148
231031
230994
231095
231201
231414
231621
231796
232028
232174
232091
231618
231657
231559
231459
231394
231391
231478
231567
231721
231873
231982
232039
232072
231892
231142
231426
231498
231488
231549
231623
231736
231834
231950
232044
232089
232038
231914
231697
230611
231134
231305
231503
231656
231775
231894
231998
232099
232169
232167
232049
231833
231535
230093
230755
231165
231451
231671
231840
231985
232105
232198
232254
232224
232096
231827
231464
229748
230474
231059
231455
231737
231935
232089
232207
232285
232321
232264
232128
231848
231477
229570
230389
231058
231502
231815
232018
232171
232285
232352
232384
232328
232209
231977
231625
229695
230535
231208
231667
231979
232153
232274
232365
232402
232420
232356
232239
232064
231739
229803
230708
231397
231852
232151
232287
232363
232426
232435
232455
232420
232348
232247
232077
230324
231188
231773
232161
232386
232451
232461
232475
232446
232452
232414
232363
232341
232212
230524
231590
232122
232456
232553
232544
232490
232452
232392
232426
232433
232474
232588
232606
231294
232364
232622
232876
232873
232673
232519
232415
232322
232385
232378
232511
232507
232637
233040
232280
232033
231750
231619
231570
231736
231915
232252
232686
233105
233500
234112
234292
233578
233093
232730
232464
232325
232289
232444
232592
232871
233162
233525
233695
234031
233983
233412
233248
233045
232929
232884
232894
232999
233093
233248
233409
233568
233739
233866
233796
233345
233353
233276
233226
233220
233248
233340
233427
233548
233658
233746
233769
233787
233644
232940
233176
233247
233282
233379
233473
233589
233683
233776
233843
233870
233808
233691
233489
232553
232975
233149
233346
233506
233637
233759
233856
233936
233980
233959
233843
233644
233376
232215
232716
233069
233339
233559
233729
233871
233977
234050
234076
234024
233905
233661
233345
231974
232548
233037
233377
233640
233832
233979
234081
234141
234147
234073
233944
233699
233376
231820
232463
233037
233428
233709
233907
234051
234150
234200
234199
234127
234010
233810
233511
231901
232572
233148
233562
233839
234018
234137
234216
234243
234229
234156
234041
233889
233633
232006
232738
233293
233709
233963
234107
234192
234253
234265
234256
234208
234121
234024
233899
232429
233153
233611
233974
234171
234250
234281
234303
234281
234258
234216
234144
234107
233984
232643
233525
233906
234213
234299
234303
234287
234274
234238
234245
234257
234264
234354
234369
233466
234246
234423
234630
234627
234463
234346
234279
234221
234256
234261
234322
234340
234466
234203
233517
233322
233117
233052
233050
233219
233400
233705
234035
234347
234644
235117
235287
234550
234163
233902
233710
233645
233674
233817
233978
234208
234438
234702
234819
235079
235031
234398
234278
234172
234135
234151
234215
234325
234428
234556
234677
234795
234906
234980
234900
234417
234421
234408
234425
234479
234554
234658
234747
234847
234931
234974
234969
234935
234801
234127
234327
234431
234537
234671
234795
234918
235007
235082
235123
235110
235036
234899
234700
233898
234216
234423
234641
234822
234977
235105
235191
235252
235263
235212
235094
234889
234631
233673
234086
234405
234677
234901
235083
235223
235313
235365
235356
235282
235156
234923
234638
233467
233966
234394
234725
234982
235180
235321
235405
235440
235413
235322
235188
234965
234668
233330
233893
234391
234757
235023
235224
235361
235443
235471
235439
235349
235226
235053
234788
233384
233960
234461
234843
235099
235289
235407
235475
235488
235446
235355
235236
235103
234886
233472
234084
234551
234934
235166
235323
235412
235468
235476
235441
235376
235282
235202
235078
233829
234428
234788
235126
235306
235411
235458
235484
235465
235424
235373
235290
235262
235147
234022
234741
235014
235306
235402
235431
235438
235430
235395
235383
235383
235373
235439
235443
234824
235374
235453
235638
235641
235548
235462
235413
235366
235379
235381
235406
235452
235571
235022
234447
234326
234197
234191
234241
234393
234587
234849
235119
235368
235563
235900
236035
235275
234970
234797
234691
234698
234767
234924
235093
235295
235481
235666
235714
235875
235818
235192
235109
235075
235096
235166
235262
235390
235495
235607
235693
235761
235800
235806
235709
235290
235303
235334
235404
235494
235593
235706
235795
235880
235939
235930
235871
235778
235634
235113
235285
235413
235560
235706
235845
235967
236048
236104
236111
236052
235943
235767
235563
234992
235268
235466
235689
235876
236037
236157
236227
236264
236241
236148
236006
235778
235523
234837
235192
235475
235744
235961
236141
236267
236337
236361
236321
236217
236066
235825
235545
234674
235109
235480
235790
236033
236223
236346
236409
236419
236364
236248
236094
235870
235584
234557
235044
235469
235802
236046
236236
236357
236421
236429
236372
236260
236119
235946
235697
234593
235082
235509
235852
236087
236270
236377
236432
236430
236370
236264
236129
235992
235785
234650
235156
235553
235899
236113
236267
236350
236395
236391
236345
236268
236161
236078
235943
234944
235423
235721
236031
236200
236312
236362
236381
236360
236315
236256
236179
236139
236031
235113
235667
235884
236157
236260
236309
236323
236309
236270
236251
236249
236245
236294
236292
235819
236201
236238
236414
236430
236380
236316
236267
236226
236233
236245
236274
236347
236445
235551
235111
235035
234970
235005
235080
235243
235435
235671
235897
236106
236256
236511
236630
235779
235553
235439
235395
235459
235551
235722
235889
236077
236225
236353
236386
236490
236433
235769
235729
235733
235786
235892
236006
236147
236259
236367
236428
236492
236477
236440
236351
235917
235953
236010
236103
236214
236328
236449
236543
236625
236669
236630
236552
236428
236299
235847
235998
236137
236285
236435
236576
236700
236783
236835
236829
236744
236621
236435
236251
235789
236029
236225
236428
236612
236771
236888
236956
236987
236950
236835
236687
236466
236233
235673
235988
236243
236493
236699
236875
236994
237058
237076
237024
236906
236752
236522
236261
235547
235932
236259
236542
236765
236949
237063
237120
237125
237064
236944
236790
236577
236303
235457
235883
236247
236547
236768
236948
237060
237119
237126
237066
236955
236816
236648
236403
235488
235910
236276
236585
236798
236971
237070
237119
237118
237059
236960
236832
236696
236486
235530
235962
236308
236618
236810
236957
237035
237071
237065
237022
236949
236853
236766
236623
235781
236175
236439
236717
236868
236978
237024
237037
237018
236980
236922
236879
236816
236725
235946
236385
236573
236818
236913
236970
236976
236956
236917
236896
236893
236909
236944
236953
236536
236815
236855
237020
237036
237008
236955
236903
236863
236860
236882
236925
237012
237115
236123
235799
235765
235743
235802
235887
236043
236214
236427
236621
236798
236921
237105
237184
236361
236195
236139
236138
236220
236327
236493
236647
236813
236927
237019
237029
237076
237004
236414
236393
236425
236503
236629
236760
236904
237012
237105
237137
237171
237112
237029
236931
236571
236620
236697
236810
236943
237078
237210
237302
237367
237380
237307
237188
237023
236892
236549
236692
236830
236994
237160
237320
237455
237538
237578
237544
237421
237256
237040
236857
236519
236739
236925
237135
237329
237506
237637
237709
237729
237665
237509
237323
237084
236856
236431
236718
236957
237199
237407
237598
237729
237801
237811
237737
237581
237396
237157
236897
236349
236692
236982
237248
237463
237655
237780
237846
237850
237774
237631
237453
237229
236952
236290
236659
236970
237248
237459
237641
237760
237827
237836
237771
237648
237492
237308
237052
236324
236687
236999
237279
237478
237647
237749
237803
237811
237753
237653
237520
237368
237145
236366
236736
237028
237301
237474
237618
237697
237733
237735
237697
237623
237537
237426
237277
236585
236911
237134
237371
237502
237607
237655
237669
237661
237634
237581
237561
237476
237383
236741
237092
237246
237446
237522
237578
237584
237571
237546
237531
237528
237548
237576
237587
237223
237432
237468
237599
237597
237579
237537
237492
237464
237462
237503
237559
237649
237747
214889
214413
213770
214162
215955
218433
213782
212322
211360
211388
213026
215656
214365
212495
210958
210178
211005
213143
214298
212077
210234
209164
209678
211500
214769
212355
210380
209043
209323
210814
215113
212697
210930
209642
209720
210923
215761
213483
212079
211035
211237
212413
216427
214567
213611
213012
213509
214935
217284
215981
215413
215096
215935
217579
218173
217410
217184
217155
218377
220144
218932
218477
218388
218319
219736
221706
219225
219112
219107
219313
221046
223217
219186
218862
218636
218839
220858
223393
217374
217413
217411
218001
220306
222979
221814
222360
222214
222621
223671
224827
219732
219070
218672
218899
220066
221554
219820
218387
217195
216566
216815
217617
219238
217258
215510
214441
214391
214722
219330
217030
214833
213366
213064
213078
219476
217001
214761
213224
212816
212797
220049
217545
215567
214157
213979
214086
220912
218726
217213
216123
216360
216485
221950
220308
219403
218712
219417
219580
223035
222098
221697
221505
222598
222794
224130
223698
223633
223798
225020
225445
224792
224910
225279
225821
227302
228010
225362
225432
225775
226414
227893
229010
224058
224640
225213
226176
227802
229146
227569
228165
227920
227903
227893
228227
225410
224965
224412
224018
224120
224612
225140
223938
222641
221517
220719
220369
224458
222742
220876
219223
218002
217300
224370
222228
219894
217843
216305
215386
224367
222150
219680
217561
216022
215055
224765
222614
220259
218286
216976
216173
225509
223579
221654
220117
219263
218865
226456
224900
223772
222739
222369
222457
227378
226386
225886
225473
225642
226163
228390
228067
228004
228090
228641
229403
229059
229259
229712
230239
231161
232191
229986
230183
230649
231227
232179
233364
229078
229776
230386
231318
232284
233454
231058
231874
231675
231395
231132
230980
228958
228750
228316
227953
227469
227265
228529
227575
226385
225170
224044
223007
227936
226499
224805
222977
221283
219703
227809
225933
223781
221407
219192
217264
227823
225854
223556
221053
218764
216710
228150
226257
224039
221660
219605
217718
228695
227122
225143
223283
221789
220356
229482
228158
226992
225737
224821
223926
230257
229411
228854
228159
227888
227602
231172
230822
230818
230711
230887
230951
231724
231880
232343
232686
233339
233812
232703
232879
233413
233894
234615
235311
232161
232783
233304
234193
234968
235740
232866
233561
233376
233113
232663
232499
231070
230871
230365
229949
229445
229088
230704
229882
228665
227390
226055
224950
230259
228966
227251
225421
223495
221772
230140
228507
226465
224075
221541
219227
230188
228419
226341
223730
221083
218571
230544
228756
226902
224382
222014
219635
230966
229537
227822
225870
224115
222248
231530
230375
229300
228049
226915
225727
232178
231433
230854
230154
229685
229220
232910
232569
232522
232416
232475
232446
233380
233487
233851
234139
234653
235081
234229
234387
234893
235283
235890
236588
233948
234529
234919
235640
236288
237109
234045
234660
234597
234445
234187
233930
232520
232405
231918
231587
231194
230982
232251
231657
230619
229494
228254
227110
231920
230900
229373
227687
225815
224042
231836
230550
228721
226679
224148
221685
231896
230491
228549
226424
223612
220977
232203
230839
229041
226977
224443
222021
232611
231429
229867
228145
226343
224390
233052
232093
231041
229938
228772
227513
233590
232956
232369
231721
231193
230656
234156
233834
233759
233653
233693
233666
234545
234577
234824
235095
235552
235962
235192
235304
235746
236130
236710
237383
235032
235555
235915
236537
237124
237907
234872
235405
235405
235380
235269
235159
233622
233593
233181
232951
232680
232351
233437
232976
232161
231264
230202
229151
233200
232370
231143
229736
228053
226364
233184
232101
230653
228857
226813
224452
233288
232069
230545
228558
226425
223734
233553
232380
230924
229087
226989
224570
233915
232925
231676
230087
228440
226628
234290
233497
232606
231542
230497
229291
234725
234207
233686
233078
232573
232047
235176
234900
234799
234685
234731
234721
235467
235460
235630
235869
236289
236688
235960
236035
236413
236779
237318
237953
235851
236277
236617
237186
237728
238445
235387
235782
235830
235876
235861
235907
234433
234388
234075
233931
233765
233508
234306
233922
233300
232622
231814
230897
234150
233458
232497
231395
230049
228576
234166
233271
232123
230742
228990
227192
234285
233280
232022
230550
228596
226648
234520
233562
232318
230879
229082
227117
234850
234045
233013
231743
230232
228677
235185
234535
233768
232881
231907
230885
235564
235131
234678
234170
233684
233218
235940
235689
235578
235475
235498
235522
236170
236138
236258
236461
236823
237192
236548
236613
236935
237269
237750
238320
236491
236860
237163
237665
238151
238786
235935
236198
236232
236282
236293
236399
235209
235125
234871
234762
234638
234482
235135
234782
234287
233763
233150
232444
235047
234439
233655
232768
231711
230461
235087
234320
233380
232248
230889
229229
235205
234343
233316
232060
230613
228801
235415
234579
233557
232310
230912
229314
235692
235001
234169
233117
231902
230547
235983
235426
234784
234034
233229
232355
236316
235947
235560
235130
234716
234283
236650
236430
236318
236209
236218
236228
236845
236809
236895
237044
237335
237628
237143
237204
237478
237763
238175
238655
237091
237399
237667
238102
238534
239083
218109
217968
217512
217835
220127
222340
217325
216365
215531
215430
217587
219790
217589
216176
214904
214129
215477
217525
217468
215712
214119
212740
213396
215123
217647
215617
213832
212023
212157
213556
217680
215619
213781
211796
211522
212713
217876
215863
214044
212120