/*--------------------------------*- C++ -*----------------------------------*\
| =========                 |                                                 |
| \\      /  F ield         | OpenFOAM: The Open Source CFD Toolbox           |
|  \\    /   O peration     | Version:  v2106                                 |
|   \\  /    A nd           | Website:  www.openfoam.com                      |
|    \\/     M anipulation  |                                                 |
\*---------------------------------------------------------------------------*/
FoamFile
{
    version     2.0;
    format      ascii;
    arch        "LSB;label=32;scalar=64";
    class       volScalarField;
    location    "0.000146";
    object      p;
}
// * * * * * * * * * * * * * * * * * * * * * * * * * * * * * * * * * * * * * //

dimensions      [1 -1 -2 0 0 0 0];

internalField   nonuniform List<scalar> 
17924
(
232949
232945
232942
232939
232235
232223
232214
232204
232196
232189
232182
232247
232236
232226
232217
232210
232202
232196
232260
232248
232239
232230
232223
232216
232209
232273
232261
232252
232244
232236
232229
232223
232285
232274
232265
232257
232250
232243
232237
232296
232286
232278
232270
232263
232257
232251
232308
232299
232290
232283
232276
232270
232265
232319
232311
232303
232296
232290
232284
232278
232331
232323
232316
232310
232304
232298
232292
232343
232336
232330
232323
232318
232312
232307
232356
232350
232344
232338
232332
232327
232321
232370
232364
232358
232353
232347
232342
232336
232384
232378
232373
232368
232363
232357
232352
232400
232393
232387
232382
232377
232372
232367
231489
231474
231463
231452
231442
231432
231424
231415
231408
231401
231394
231389
231384
231379
231490
231477
231465
231455
231445
231436
231427
231418
231410
231403
231396
231390
231386
231381
231492
231479
231468
231457
231447
231438
231429
231421
231413
231406
231399
231393
231388
231384
231494
231481
231470
231460
231450
231441
231432
231424
231416
231409
231402
231396
231391
231387
231496
231484
231473
231462
231453
231444
231435
231427
231419
231412
231405
231399
231394
231390
231498
231486
231475
231465
231456
231447
231439
231430
231423
231415
231409
231403
231398
231394
231500
231489
231479
231469
231460
231451
231443
231434
231427
231419
231413
231407
231402
231398
231504
231493
231483
231473
231464
231455
231447
231439
231431
231424
231417
231411
231406
231402
231507
231497
231487
231478
231469
231460
231452
231444
231436
231429
231422
231416
231411
231407
231511
231502
231492
231483
231474
231466
231458
231450
231442
231434
231428
231422
231417
231412
231516
231507
231498
231489
231480
231472
231464
231456
231448
231440
231434
231427
231422
231418
231522
231513
231504
231496
231487
231478
231470
231462
231454
231446
231440
231433
231428
231423
231529
231520
231511
231503
231494
231486
231477
231469
231461
231453
231446
231439
231434
231429
231537
231527
231518
231510
231501
231493
231484
231476
231468
231460
231452
231446
231440
231435
230713
230700
230689
230679
230669
230661
230652
230645
230638
230633
230628
230625
230622
230619
230708
230696
230686
230676
230666
230657
230648
230640
230634
230628
230624
230620
230617
230614
230704
230692
230681
230671
230661
230652
230643
230636
230629
230624
230620
230616
230614
230611
230700
230689
230677
230667
230657
230648
230639
230632
230625
230620
230616
230613
230610
230608
230697
230685
230674
230664
230654
230644
230636
230628
230622
230617
230613
230610
230608
230605
230694
230683
230672
230661
230651
230642
230633
230626
230620
230615
230611
230608
230606
230604
230693
230681
230670
230660
230649
230640
230632
230624
230618
230613
230609
230606
230605
230603
230692
230681
230669
230659
230649
230640
230631
230624
230618
230613
230609
230606
230604
230603
230691
230680
230670
230659
230649
230640
230632
230625
230618
230613
230610
230607
230605
230603
230692
230681
230671
230660
230651
230642
230633
230626
230620
230615
230611
230608
230606
230605
230693
230683
230673
230662
230653
230644
230636
230629
230622
230617
230613
230610
230608
230606
230695
230685
230675
230665
230656
230647
230639
230632
230625
230620
230616
230613
230611
230609
230699
230688
230679
230669
230660
230651
230643
230635
230629
230623
230619
230616
230613
230611
230703
230692
230682
230672
230663
230655
230647
230639
230633
230627
230623
230619
230616
230614
229946
229935
229926
229918
229910
229903
229897
229892
229888
229886
229884
229882
229881
229880
229940
229930
229921
229912
229904
229897
229890
229885
229881
229879
229877
229876
229875
229874
229934
229924
229915
229906
229897
229890
229884
229878
229875
229872
229870
229869
229869
229868
229928
229919
229909
229900
229892
229884
229877
229872
229869
229866
229865
229864
229864
229863
229924
229914
229904
229895
229886
229879
229872
229867
229863
229861
229860
229859
229859
229859
229920
229910
229900
229891
229882
229874
229868
229863
229859
229857
229856
229855
229855
229856
229916
229907
229897
229888
229879
229871
229865
229860
229856
229854
229853
229853
229853
229853
229914
229905
229895
229886
229877
229870
229863
229858
229854
229852
229851
229851
229851
229852
229913
229904
229894
229885
229876
229869
229862
229857
229854
229852
229851
229850
229851
229851
229913
229903
229894
229885
229877
229869
229863
229858
229854
229852
229851
229851
229851
229852
229913
229905
229895
229887
229878
229871
229865
229860
229856
229854
229852
229852
229852
229853
229915
229906
229897
229889
229881
229873
229867
229862
229858
229856
229854
229854
229854
229854
229918
229909
229900
229892
229884
229877
229870
229865
229861
229858
229857
229856
229856
229856
229922
229912
229903
229895
229887
229880
229874
229868
229864
229862
229860
229859
229858
229858
229230
229224
229218
229213
229208
229204
229200
229197
229195
229193
229193
229192
229192
229191
229226
229220
229214
229209
229204
229199
229195
229192
229190
229189
229188
229188
229188
229187
229222
229216
229210
229204
229199
229195
229191
229188
229186
229184
229183
229183
229183
229183
229218
229212
229206
229201
229195
229191
229187
229184
229182
229180
229179
229179
229179
229179
229214
229209
229203
229197
229192
229187
229183
229180
229178
229177
229176
229176
229176
229176
229212
229206
229200
229194
229189
229184
229181
229178
229175
229174
229173
229173
229173
229173
229209
229204
229198
229192
229187
229182
229179
229175
229173
229172
229171
229171
229171
229171
229208
229202
229196
229191
229186
229181
229177
229174
229172
229171
229170
229170
229170
229170
229207
229201
229196
229190
229185
229181
229177
229174
229171
229170
229169
229169
229170
229170
229207
229202
229196
229190
229185
229181
229177
229174
229172
229170
229169
229169
229170
229170
229208
229203
229197
229191
229186
229182
229178
229175
229172
229171
229170
229170
229171
229171
229210
229204
229198
229193
229188
229183
229179
229176
229174
229172
229172
229172
229172
229173
229212
229206
229201
229195
229190
229185
229181
229178
229176
229174
229174
229174
229174
229174
229214
229208
229202
229197
229192
229187
229183
229180
229178
229177
229176
229176
229176
229176
228593
228592
228590
228588
228586
228584
228583
228581
228579
228577
228576
228574
228573
228572
228592
228591
228589
228587
228586
228584
228582
228580
228579
228577
228575
228574
228572
228571
228591
228590
228588
228587
228585
228583
228582
228580
228578
228576
228575
228573
228572
228570
228590
228589
228587
228586
228585
228583
228582
228580
228578
228576
228574
228572
228571
228569
228589
228588
228587
228586
228584
228583
228581
228580
228578
228576
228574
228572
228570
228569
228589
228588
228587
228585
228584
228583
228581
228579
228577
228575
228573
228571
228570
228568
228589
228587
228586
228585
228584
228582
228581
228579
228577
228575
228573
228571
228569
228567
228588
228587
228586
228585
228584
228582
228580
228578
228577
228574
228572
228570
228568
228567
228588
228587
228586
228584
228583
228582
228580
228578
228576
228574
228572
228570
228568
228566
228588
228587
228585
228584
228583
228581
228579
228577
228575
228573
228571
228569
228568
228566
228588
228587
228585
228584
228582
228580
228579
228577
228575
228573
228571
228569
228567
228566
228588
228586
228585
228583
228581
228580
228578
228576
228574
228572
228571
228569
228567
228566
228588
228586
228584
228583
228581
228579
228577
228576
228574
228572
228571
228569
228568
228566
228588
228586
228584
228582
228580
228578
228577
228575
228574
228572
228571
228569
228568
228566
228034
228036
228038
228039
228040
228040
228039
228038
228036
228034
228031
228028
228025
228022
228036
228039
228040
228042
228042
228043
228042
228041
228039
228036
228034
228030
228027
228024
228038
228040
228042
228044
228045
228045
228045
228044
228042
228039
228036
228033
228030
228026
228040
228042
228044
228046
228047
228048
228048
228046
228045
228042
228039
228035
228032
228028
228042
228044
228046
228048
228049
228050
228050
228048
228047
228044
228041
228037
228033
228030
228043
228046
228048
228050
228051
228051
228051
228050
228048
228045
228042
228038
228034
228030
228044
228046
228049
228050
228052
228052
228052
228051
228049
228046
228043
228039
228035
228031
228045
228047
228049
228051
228052
228052
228052
228051
228049
228046
228043
228039
228035
228031
228044
228046
228048
228050
228051
228052
228051
228050
228048
228045
228042
228038
228034
228030
228043
228045
228047
228049
228050
228050
228050
228049
228047
228044
228041
228037
228033
228029
228042
228044
228045
228047
228048
228048
228048
228047
228045
228042
228039
228035
228031
228027
228040
228041
228043
228044
228045
228046
228045
228044
228042
228040
228037
228033
228029
228025
228037
228039
228040
228041
228042
228042
228042
228041
228039
228037
228034
228031
228027
228023
228034
228035
228036
228038
228038
228039
228039
228038
228036
228034
228032
228028
228025
228021
227536
227539
227543
227545
227547
227548
227547
227546
227545
227542
227539
227535
227531
227527
227539
227543
227547
227549
227551
227552
227552
227551
227549
227547
227544
227540
227535
227531
227543
227547
227550
227553
227555
227556
227556
227556
227554
227551
227548
227544
227539
227534
227546
227550
227554
227557
227559
227560
227560
227559
227557
227555
227551
227547
227542
227537
227549
227553
227556
227559
227561
227563
227563
227562
227560
227558
227554
227550
227545
227540
227551
227555
227558
227561
227563
227565
227565
227564
227562
227560
227556
227552
227547
227541
227552
227556
227559
227562
227564
227566
227566
227565
227563
227561
227557
227553
227547
227542
227552
227556
227560
227562
227564
227566
227566
227565
227563
227561
227557
227552
227547
227542
227551
227555
227559
227561
227563
227565
227565
227564
227562
227560
227556
227551
227546
227541
227550
227553
227557
227559
227562
227563
227563
227562
227560
227558
227554
227549
227544
227539
227547
227551
227554
227557
227559
227560
227560
227559
227558
227555
227551
227547
227542
227536
227544
227547
227550
227553
227555
227556
227556
227556
227554
227551
227548
227543
227538
227533
227540
227543
227546
227548
227550
227551
227552
227551
227549
227547
227543
227539
227535
227529
227535
227538
227541
227543
227545
227546
227547
227546
227545
227542
227539
227535
227531
227525
227075
227079
227083
227085
227087
227088
227088
227088
227086
227084
227081
227077
227073
227068
227080
227084
227087
227090
227092
227093
227093
227092
227091
227088
227085
227081
227077
227072
227083
227087
227091
227093
227095
227097
227097
227096
227095
227092
227089
227085
227081
227076
227086
227090
227094
227097
227099
227100
227100
227099
227098
227096
227092
227089
227084
227079
227089
227093
227096
227099
227101
227102
227102
227102
227100
227098
227095
227091
227086
227081
227090
227094
227098
227101
227103
227104
227104
227103
227102
227100
227096
227092
227088
227082
227091
227095
227099
227101
227103
227104
227105
227104
227103
227100
227097
227093
227088
227083
227091
227095
227098
227101
227103
227104
227104
227104
227102
227100
227097
227093
227088
227082
227090
227094
227097
227100
227102
227103
227103
227103
227101
227099
227095
227091
227086
227081
227088
227092
227095
227098
227100
227101
227101
227100
227099
227097
227093
227089
227084
227079
227085
227089
227092
227095
227097
227098
227098
227097
227096
227094
227090
227086
227081
227076
227081
227085
227088
227091
227093
227094
227094
227094
227092
227090
227086
227082
227077
227072
227077
227080
227083
227086
227088
227089
227090
227089
227088
227085
227082
227078
227073
227068
227072
227075
227078
227081
227083
227084
227084
227084
227083
227080
227077
227074
227069
227064
226639
226642
226645
226647
226649
226650
226650
226650
226648
226647
226644
226641
226637
226633
226642
226646
226649
226651
226652
226653
226654
226653
226652
226650
226647
226644
226641
226636
226645
226649
226651
226654
226655
226656
226656
226656
226655
226653
226650
226647
226643
226639
226648
226651
226654
226656
226657
226658
226659
226658
226657
226655
226653
226649
226646
226641
226649
226653
226655
226657
226659
226660
226660
226660
226658
226657
226654
226651
226647
226643
226650
226654
226656
226658
226660
226661
226661
226660
226659
226657
226655
226652
226648
226644
226651
226654
226657
226659
226660
226661
226661
226661
226659
226658
226655
226652
226648
226644
226650
226653
226656
226658
226659
226660
226660
226660
226659
226657
226654
226651
226647
226643
226649
226652
226655
226657
226658
226659
226659
226659
226657
226656
226653
226650
226646
226642
226647
226650
226653
226655
226656
226657
226657
226657
226656
226654
226651
226648
226644
226640
226644
226647
226650
226652
226654
226654
226655
226654
226653
226651
226648
226645
226641
226637
226641
226644
226647
226649
226650
226651
226651
226651
226650
226648
226645
226642
226638
226634
226637
226640
226643
226645
226646
226647
226648
226647
226646
226644
226641
226638
226634
226630
226633
226635
226638
226640
226642
226643
226643
226643
226642
226640
226637
226634
226630
226626
226219
226222
226224
226226
226227
226228
226228
226227
226227
226225
226223
226221
226218
226214
226221
226224
226226
226228
226229
226230
226230
226230
226229
226227
226225
226223
226220
226217
226224
226226
226228
226230
226231
226232
226232
226231
226231
226229
226227
226225
226222
226219
226225
226228
226230
226231
226232
226233
226233
226233
226232
226230
226229
226226
226223
226220
226226
226229
226231
226232
226233
226234
226234
226233
226233
226231
226229
226227
226224
226221
226227
226229
226231
226232
226233
226234
226234
226234
226233
226232
226230
226228
226225
226221
226226
226229
226231
226232
226233
226234
226234
226233
226233
226231
226229
226227
226225
226221
226226
226228
226230
226232
226233
226233
226233
226233
226232
226231
226229
226227
226224
226221
226225
226227
226229
226230
226231
226232
226232
226232
226231
226229
226228
226225
226223
226219
226223
226225
226227
226229
226230
226230
226230
226230
226229
226228
226226
226224
226221
226218
226221
226223
226225
226227
226228
226228
226228
226228
226227
226226
226224
226222
226219
226216
226218
226221
226223
226224
226225
226226
226226
226225
226225
226223
226221
226219
226216
226213
226215
226218
226220
226221
226222
226223
226223
226223
226222
226220
226218
226216
226213
226210
226212
226214
226216
226218
226219
226220
226220
226219
226218
226217
226215
226213
226210
226206
225812
225814
225816
225817
225818
225819
225819
225818
225818
225817
225815
225814
225811
225809
225814
225816
225817
225819
225820
225820
225820
225820
225819
225818
225817
225815
225813
225810
225815
225817
225819
225820
225821
225821
225822
225821
225821
225820
225818
225817
225814
225812
225816
225818
225820
225821
225822
225822
225822
225822
225821
225821
225819
225817
225815
225813
225817
225819
225820
225822
225822
225823
225823
225823
225822
225821
225820
225818
225816
225813
225817
225819
225821
225822
225822
225823
225823
225823
225822
225821
225820
225818
225816
225814
225817
225819
225820
225821
225822
225823
225823
225822
225822
225821
225820
225818
225816
225814
225816
225818
225820
225821
225822
225822
225822
225822
225821
225820
225819
225817
225815
225813
225815
225817
225819
225820
225821
225821
225821
225821
225820
225819
225818
225817
225815
225812
225814
225816
225818
225819
225820
225820
225820
225820
225819
225818
225817
225815
225813
225811
225813
225814
225816
225817
225818
225818
225818
225818
225818
225817
225815
225814
225812
225810
225811
225813
225814
225815
225816
225817
225817
225816
225816
225815
225813
225812
225810
225808
225808
225810
225812
225813
225814
225815
225815
225814
225814
225813
225811
225810
225808
225805
225806
225808
225810
225811
225812
225812
225812
225812
225811
225810
225809
225807
225805
225803
225416
225418
225419
225420
225421
225421
225421
225421
225421
225420
225420
225418
225417
225415
225418
225419
225421
225422
225422
225423
225423
225423
225422
225422
225421
225419
225418
225416
225419
225421
225422
225423
225423
225424
225424
225424
225423
225423
225422
225420
225419
225417
225420
225421
225423
225424
225424
225425
225425
225425
225424
225423
225422
225421
225420
225418
225421
225422
225423
225424
225425
225425
225425
225425
225425
225424
225423
225422
225420
225418
225421
225422
225423
225424
225425
225425
225426
225425
225425
225424
225423
225422
225420
225418
225421
225422
225423
225424
225425
225425
225425
225425
225425
225424
225423
225422
225420
225419
225420
225422
225423
225424
225425
225425
225425
225425
225425
225424
225423
225422
225420
225418
225420
225421
225422
225423
225424
225424
225425
225424
225424
225423
225422
225421
225420
225418
225419
225420
225422
225423
225423
225424
225424
225424
225423
225423
225422
225420
225419
225417
225418
225419
225421
225422
225422
225423
225423
225423
225422
225421
225421
225419
225418
225416
225416
225418
225419
225420
225421
225421
225421
225421
225421
225420
225419
225418
225417
225415
225415
225416
225418
225419
225419
225420
225420
225420
225419
225419
225418
225416
225415
225414
225413
225415
225416
225417
225418
225418
225418
225418
225417
225417
225416
225415
225413
225412
225033
225034
225035
225035
225035
225036
225036
225036
225036
225036
225035
225035
225034
225033
225035
225035
225036
225036
225037
225037
225037
225037
225037
225037
225036
225035
225034
225033
225035
225036
225037
225037
225038
225038
225038
225038
225038
225038
225037
225036
225035
225034
225036
225037
225037
225038
225038
225039
225039
225039
225039
225038
225038
225037
225036
225034
225036
225037
225038
225039
225039
225039
225040
225039
225039
225039
225038
225037
225036
225035
225037
225038
225038
225039
225039
225040
225040
225040
225040
225039
225038
225038
225037
225035
225037
225038
225038
225039
225040
225040
225040
225040
225040
225039
225039
225038
225037
225036
225036
225038
225038
225039
225040
225040
225040
225040
225040
225039
225039
225038
225037
225036
225036
225037
225038
225039
225039
225040
225040
225040
225040
225039
225039
225038
225037
225036
225036
225037
225038
225039
225039
225039
225040
225040
225039
225039
225038
225037
225037
225036
225035
225036
225037
225038
225039
225039
225039
225039
225039
225038
225038
225037
225036
225035
225035
225036
225037
225037
225038
225038
225038
225038
225038
225038
225037
225036
225035
225035
225034
225035
225036
225037
225037
225037
225038
225037
225037
225037
225036
225035
225035
225034
225033
225035
225035
225036
225036
225036
225036
225036
225036
225036
225035
225034
225034
225033
224667
224666
224666
224665
224665
224665
224665
224665
224665
224666
224666
224666
224667
224667
224667
224666
224666
224666
224666
224666
224666
224666
224666
224666
224666
224666
224666
224666
224667
224666
224666
224666
224666
224666
224666
224666
224666
224666
224666
224666
224666
224666
224667
224667
224666
224666
224666
224666
224666
224666
224666
224666
224666
224666
224666
224666
224667
224667
224667
224667
224667
224667
224667
224667
224667
224667
224667
224667
224666
224666
224667
224667
224667
224667
224667
224667
224667
224667
224667
224667
224667
224667
224667
224666
224667
224667
224667
224667
224667
224667
224667
224667
224667
224667
224667
224667
224667
224667
224667
224667
224667
224668
224668
224668
224668
224668
224668
224668
224667
224667
224667
224667
224667
224668
224668
224668
224668
224668
224668
224668
224668
224668
224668
224668
224668
224667
224667
224668
224668
224668
224668
224668
224668
224668
224668
224668
224668
224668
224668
224668
224668
224668
224668
224668
224668
224668
224668
224668
224668
224668
224668
224668
224668
224668
224668
224668
224668
224669
224669
224669
224669
224668
224668
224668
224668
224668
224669
224669
224669
224669
224669
224669
224669
224669
224669
224669
224669
224668
224668
224669
224669
224669
224670
224670
224669
224669
224669
224669
224669
224669
224668
224668
224668
224669
224669
224670
224321
224319
224318
224317
224316
224315
224315
224315
224316
224316
224317
224318
224320
224322
224320
224318
224317
224316
224315
224315
224315
224315
224315
224316
224316
224317
224318
224320
224319
224317
224316
224315
224314
224314
224314
224314
224314
224315
224315
224316
224318
224319
224318
224317
224316
224315
224314
224314
224313
224314
224314
224314
224315
224316
224317
224318
224318
224317
224315
224315
224314
224313
224313
224313
224314
224314
224315
224316
224317
224318
224317
224316
224315
224314
224314
224314
224313
224313
224314
224314
224315
224316
224317
224318
224317
224316
224315
224315
224314
224314
224314
224314
224314
224314
224315
224316
224317
224318
224318
224317
224316
224315
224315
224314
224314
224314
224314
224315
224315
224316
224317
224318
224318
224317
224316
224316
224315
224315
224315
224315
224315
224315
224316
224317
224318
224319
224319
224318
224317
224317
224316
224316
224315
224315
224316
224316
224317
224318
224319
224320
224320
224319
224318
224318
224317
224317
224316
224316
224317
224317
224318
224319
224320
224321
224322
224321
224320
224319
224318
224318
224317
224317
224318
224318
224319
224320
224321
224322
224323
224322
224321
224320
224320
224319
224319
224319
224319
224319
224320
224321
224322
224324
224326
224324
224323
224322
224321
224320
224320
224320
224320
224321
224321
224322
224324
224326
224001
223998
223996
223995
223994
223993
223992
223992
223993
223994
223995
223996
223999
224001
223999
223996
223995
223993
223992
223991
223991
223991
223991
223992
223993
223995
223997
223999
223997
223995
223993
223992
223990
223990
223989
223989
223990
223991
223992
223993
223995
223998
223996
223994
223992
223990
223989
223989
223988
223988
223989
223990
223991
223992
223994
223996
223995
223993
223991
223990
223989
223988
223988
223988
223988
223989
223990
223992
223994
223996
223994
223993
223991
223989
223988
223988
223987
223987
223988
223989
223990
223991
223993
223995
223994
223992
223991
223989
223988
223988
223987
223987
223988
223989
223990
223991
223993
223995
223995
223993
223991
223990
223989
223988
223988
223988
223988
223989
223990
223992
223994
223996
223996
223994
223992
223991
223990
223989
223989
223989
223989
223990
223991
223992
223994
223996
223997
223995
223993
223992
223991
223990
223990
223990
223990
223991
223992
223994
223995
223997
223998
223996
223995
223993
223992
223991
223991
223991
223992
223992
223994
223995
223997
223999
224000
223998
223996
223995
223994
223993
223993
223993
223993
223994
223995
223997
223999
224001
224002
224001
223999
223997
223996
223995
223995
223995
223995
223996
223997
223999
224001
224003
224006
224003
224001
223999
223998
223998
223997
223997
223998
223998
224000
224001
224003
224006
223708
223706
223704
223702
223701
223701
223700
223700
223701
223701
223702
223704
223706
223708
223706
223704
223702
223701
223700
223699
223698
223698
223699
223700
223701
223702
223704
223707
223704
223702
223700
223699
223698
223697
223697
223697
223697
223698
223699
223701
223703
223705
223703
223701
223699
223698
223696
223696
223695
223695
223696
223697
223698
223700
223702
223704
223702
223700
223698
223697
223696
223695
223694
223695
223695
223696
223697
223699
223701
223703
223701
223699
223698
223696
223695
223694
223694
223694
223695
223695
223697
223698
223701
223703
223702
223699
223698
223696
223695
223694
223694
223694
223694
223695
223697
223698
223700
223703
223702
223700
223698
223696
223695
223695
223694
223694
223695
223696
223697
223699
223701
223703
223703
223701
223699
223697
223696
223695
223695
223695
223696
223696
223698
223699
223701
223704
223704
223702
223700
223698
223697
223696
223696
223696
223697
223698
223699
223700
223703
223705
223705
223703
223701
223700
223699
223698
223698
223698
223698
223699
223700
223702
223704
223706
223707
223705
223703
223702
223701
223700
223699
223700
223700
223701
223702
223704
223706
223708
223709
223707
223705
223704
223703
223702
223702
223702
223702
223703
223705
223706
223708
223710
223712
223710
223708
223706
223705
223704
223704
223704
223705
223706
223707
223708
223710
223713
223440
223439
223438
223438
223437
223437
223437
223437
223437
223437
223438
223439
223439
223438
223437
223436
223436
223435
223435
223435
223435
223436
223437
223438
223438
223437
223436
223435
223434
223434
223434
223434
223434
223435
223436
223437
223437
223436
223435
223434
223434
223433
223433
223433
223433
223434
223435
223436
223437
223436
223435
223434
223433
223432
223432
223432
223433
223434
223435
223436
223437
223436
223434
223433
223433
223432
223432
223432
223433
223433
223434
223436
223437
223436
223434
223433
223433
223432
223432
223432
223432
223433
223434
223436
223438
223436
223435
223434
223433
223432
223432
223432
223433
223433
223434
223436
223438
223437
223435
223434
223433
223433
223433
223433
223433
223434
223435
223436
223439
223438
223436
223435
223434
223434
223434
223434
223434
223435
223436
223437
223440
223439
223437
223436
223435
223435
223435
223435
223435
223436
223437
223438
223441
223440
223439
223438
223437
223436
223436
223436
223437
223437
223438
223439
223443
223441
223440
223439
223438
223438
223438
223438
223439
223439
223440
223441
223444
223443
223441
223441
223440
223440
223440
223440
223441
223441
223442
223443
232928
232914
232898
232885
232871
232858
232924
232906
232887
232869
232851
232834
232918
232898
232876
232856
232836
232815
232914
232891
232868
232846
232824
232802
232225
232224
232220
232216
232212
232208
232213
232209
232203
232197
232191
232184
232203
232196
232188
232180
232172
232163
232193
232183
232174
232165
232156
232145
232184
232173
232163
232153
232143
232131
232176
232164
232153
232143
232132
232120
232169
232156
232145
232135
232124
232112
231489
231495
231498
231502
231505
231508
231475
231479
231481
231484
231485
231486
231463
231465
231466
231467
231467
231465
231451
231452
231452
231451
231450
231447
231440
231440
231439
231438
231435
231432
231430
231429
231427
231426
231423
231419
231421
231419
231417
231415
231413
231409
231412
231410
231408
231406
231405
231401
231405
231402
231400
231399
231398
231395
231398
231395
231393
231392
231391
231389
231392
231388
231386
231385
231385
231383
231386
231383
231380
231379
231378
231377
231382
231378
231375
231373
231371
231369
231377
231373
231370
231367
231364
231361
230719
230728
230734
230742
230749
230756
230706
230714
230721
230729
230735
230740
230696
230703
230710
230715
230720
230725
230685
230692
230698
230702
230706
230709
230675
230682
230686
230690
230693
230695
230666
230672
230676
230679
230682
230683
230657
230663
230667
230670
230672
230673
230650
230654
230658
230662
230664
230665
230643
230647
230651
230655
230657
230659
230637
230641
230645
230648
230651
230653
230632
230636
230639
230642
230645
230648
230628
230631
230634
230636
230639
230641
230625
230626
230628
230630
230631
230632
230621
230622
230622
230623
230623
230623
229953
229962
229968
229976
229983
229990
229943
229952
229960
229968
229975
229982
229935
229944
229952
229959
229966
229973
229926
229935
229943
229950
229957
229962
229918
229927
229935
229942
229948
229953
229911
229920
229927
229934
229939
229943
229905
229914
229921
229926
229931
229935
229900
229908
229915
229920
229925
229928
229896
229903
229910
229915
229919
229922
229892
229899
229905
229910
229914
229917
229890
229896
229901
229906
229910
229913
229888
229893
229898
229902
229905
229908
229886
229890
229894
229897
229900
229902
229884
229887
229890
229892
229894
229895
229236
229242
229247
229253
229258
229263
229230
229237
229243
229249
229255
229260
229224
229231
229238
229244
229250
229256
229219
229226
229233
229239
229245
229251
229214
229221
229227
229234
229239
229245
229209
229216
229223
229229
229234
229238
229206
229212
229218
229224
229229
229233
229203
229209
229214
229220
229224
229227
229200
229206
229211
229216
229219
229222
229198
229204
229208
229212
229216
229218
229197
229202
229206
229209
229212
229215
229196
229200
229204
229207
229209
229211
229196
229199
229202
229204
229206
229208
229195
229198
229200
229202
229204
229205
228596
228597
228600
228602
228604
228606
228594
228596
228598
228601
228604
228606
228592
228594
228597
228600
228603
228606
228590
228592
228595
228598
228601
228604
228588
228590
228592
228595
228598
228600
228586
228587
228589
228591
228594
228596
228583
228585
228586
228588
228590
228591
228581
228582
228583
228585
228586
228587
228579
228580
228581
228582
228583
228584
228578
228578
228578
228579
228580
228580
228576
228576
228576
228577
228577
228577
228575
228575
228575
228575
228575
228575
228574
228573
228574
228574
228574
228574
228573
228572
228573
228573
228573
228573
228033
228030
228028
228027
228026
228025
228035
228032
228030
228029
228028
228027
228035
228033
228031
228029
228029
228028
228036
228033
228031
228030
228029
228028
228036
228033
228031
228029
228027
228026
228036
228032
228029
228027
228025
228023
228035
228031
228027
228024
228022
228019
228034
228029
228025
228021
228018
228016
228032
228027
228022
228018
228015
228012
228029
228024
228020
228016
228012
228009
228027
228022
228017
228013
228010
228007
228024
228019