/*--------------------------------*- C++ -*----------------------------------*\
| =========                 |                                                 |
| \\      /  F ield         | OpenFOAM: The Open Source CFD Toolbox           |
|  \\    /   O peration     | Version:  v2106                                 |
|   \\  /    A nd           | Website:  www.openfoam.com                      |
|    \\/     M anipulation  |                                                 |
\*---------------------------------------------------------------------------*/
FoamFile
{
    version     2.0;
    format      ascii;
    arch        "LSB;label=32;scalar=64";
    class       surfaceScalarField;
    location    "0.000196";
    object      phi;
}
// * * * * * * * * * * * * * * * * * * * * * * * * * * * * * * * * * * * * * //

dimensions      [1 0 -1 0 0 0 0];

internalField   nonuniform List<scalar> 
52267
(
1.95199e-09
1.9461e-09
-2.37768e-07
-1.73794e-09
-1.74366e-09
1.96206e-09
2.17178e-09
-2.3764e-07
-1.91058e-09
1.83143e-09
2.99771e-09
-2.37555e-07
-2.72257e-09
1.53846e-09
3.47412e-09
-2.37479e-07
-3.20461e-09
1.08742e-09
3.93261e-09
-2.37451e-07
-3.65935e-09
5.76143e-10
4.15208e-09
-2.37427e-07
-3.94346e-09
4.30565e-09
-2.37455e-07
-4.13094e-09
2.17871e-09
1.95707e-09
-2.37641e-07
-1.91561e-09
2.26286e-09
2.25751e-09
-2.37597e-07
2.21078e-09
3.00574e-09
-2.37534e-07
1.9035e-09
3.46314e-09
-2.37488e-07
1.41074e-09
3.89163e-09
-2.37466e-07
7.7341e-10
4.13611e-09
-2.37437e-07
4.31067e-09
-2.37459e-07
3.00457e-09
1.82902e-09
-2.37557e-07
-2.72729e-09
3.01184e-09
2.20861e-09
-2.37535e-07
2.82639e-09
2.82375e-09
-2.37435e-07
2.37427e-09
3.26407e-09
-2.37429e-07
1.71976e-09
3.63157e-09
-2.37449e-07
9.18303e-10
3.87783e-09
-2.37467e-07
4.04285e-09
-2.37519e-07
3.48067e-09
1.53999e-09
-2.37483e-07
-3.20929e-09
3.46908e-09
1.90435e-09
-2.37491e-07
3.26694e-09
2.37532e-09
-2.37431e-07
2.78823e-09
2.78907e-09
-2.37485e-07
2.02788e-09
3.08769e-09
-2.37533e-07
1.08102e-09
3.30029e-09
-2.37563e-07
3.44348e-09
-2.37622e-07
3.94087e-09
1.09184e-09
-2.37458e-07
-3.66514e-09
3.89798e-09
1.41368e-09
-2.37471e-07
3.63412e-09
1.72333e-09
-2.37452e-07
3.0875e-09
2.03238e-09
-2.37535e-07
2.25482e-09
2.25928e-09
-2.37615e-07
1.20612e-09
2.42106e-09
-2.37669e-07
2.52525e-09
-2.37743e-07
4.15844e-09
5.82131e-10
-2.37435e-07
-3.9485e-09
4.14062e-09
7.78184e-10
-2.37444e-07
3.87935e-09
9.23463e-10
-2.37473e-07
3.29793e-09
1.08781e-09
-2.37567e-07
2.41459e-09
1.21348e-09
-2.37671e-07
1.29389e-09
1.30293e-09
-2.37737e-07
1.36204e-09
-2.37818e-07
4.31436e-09
3.54932e-11
-2.37464e-07
-4.14129e-09
4.31499e-09
3.66065e-11
-2.37468e-07
4.0463e-09
3.38527e-11
-2.37526e-07
3.44204e-09
3.24373e-11
-2.37627e-07
2.51889e-09
2.9974e-11
-2.37746e-07
1.3523e-09
2.70357e-11
-2.37819e-07
2.4401e-11
-2.37907e-07
4.30336e-09
-5.2189e-10
-2.3746e-07
-4.12507e-09
4.3108e-09
-7.14541e-10
-2.37462e-07
4.04502e-09
-8.61589e-10
-2.37523e-07
3.44223e-09
-1.0275e-09
-2.37623e-07
2.51889e-09
-1.15664e-09
-2.37743e-07
1.35153e-09
-1.25081e-09
-2.37817e-07
-1.31422e-09
-2.37905e-07
4.15765e-09
-2.37434e-07
-3.95126e-09
4.13904e-09
-2.37444e-07
3.87669e-09
-2.37475e-07
3.29413e-09
-2.37569e-07
2.40876e-09
-2.37674e-07
1.28737e-09
-2.3774e-07
-2.37822e-07
3.19605e-09
3.17746e-09
-2.37589e-07
-3.32291e-09
-3.34221e-09
2.90599e-09
3.25219e-09
-2.37471e-07
-3.29132e-09
2.51358e-09
3.97741e-09
-2.37356e-07
-4.03512e-09
1.98297e-09
4.36041e-09
-2.37225e-07
-4.41714e-09
1.35692e-09
4.74693e-09
-2.37168e-07
-4.78638e-09
7.10237e-10
4.95205e-09
-2.37126e-07
-5.0172e-09
3.5595e-11
5.10133e-09
-2.37145e-07
-5.18237e-09
-6.45883e-10
5.09136e-09
-2.37144e-07
-5.16774e-09
-1.29579e-09
4.95154e-09
-2.37129e-07
-5.01983e-09
-1.9244e-09
4.74827e-09
-2.37175e-07
-4.79402e-09
-2.46e-09
4.36673e-09
-2.37233e-07
-4.42969e-09
-2.86296e-09
3.98154e-09
-2.37363e-07
-4.04921e-09
-3.16615e-09
3.26237e-09
-2.37478e-07
-3.3096e-09
3.1877e-09
-2.37595e-07
-3.34666e-09
-3.32579e-09
3.27278e-09
2.8892e-09
-2.37471e-07
-3.31044e-09
3.06069e-09
3.04206e-09
-2.3741e-07
2.75928e-09
3.69497e-09
-2.37308e-07
2.28089e-09
4.13498e-09
-2.37216e-07
1.64159e-09
4.52109e-09
-2.37155e-07
8.7628e-10
4.72701e-09
-2.37098e-07
3.72345e-11
4.88304e-09
-2.37107e-07
-8.09493e-10
4.87824e-09
-2.37103e-07
-1.58059e-09
4.72437e-09
-2.37101e-07
-2.22602e-09
4.51639e-09
-2.37163e-07
-2.7097e-09
4.13286e-09
-2.37227e-07
-3.019e-09
3.69537e-09
-2.37321e-07
-3.24021e-09
3.04066e-09
-2.37421e-07
2.88607e-09
-2.37482e-07
-3.28889e-09
3.99755e-09
2.49887e-09
-2.37355e-07
-4.05264e-09
3.71432e-09
2.74379e-09
-2.37309e-07
3.3182e-09
3.30169e-09
-2.37177e-07
2.70693e-09
3.73259e-09
-2.37098e-07
1.92007e-09
4.04124e-09
-2.37053e-07
1.01099e-09
4.21453e-09
-2.37038e-07
3.49731e-11
4.35061e-09
-2.37072e-07
-9.45912e-10
4.34855e-09
-2.37069e-07
-1.85648e-09
4.20914e-09
-2.37043e-07
-2.64529e-09
4.03101e-09
-2.37061e-07
-3.26619e-09
3.72276e-09
-2.37109e-07
-3.67089e-09
3.29903e-09
-2.3719e-07
-3.96281e-09
2.73549e-09
-2.37325e-07
2.48626e-09
-2.3737e-07
-4.02948e-09
4.3796e-09
1.97209e-09
-2.37226e-07
-4.43512e-09
4.15373e-09
2.2695e-09
-2.37217e-07
3.74879e-09
2.69479e-09
-2.37099e-07
3.06317e-09
3.05106e-09
-2.37054e-07
2.17381e-09
3.29285e-09
-2.37029e-07
1.14211e-09
3.43116e-09
-2.37023e-07
3.18027e-11
3.53176e-09
-2.3706e-07
-1.0813e-09
3.53075e-09
-2.37058e-07
-2.11387e-09
3.42393e-09
-2.37027e-07
-3.00378e-09
3.28027e-09
-2.37035e-07
-3.69283e-09
3.03744e-09
-2.37064e-07
-4.10876e-09
2.67995e-09
-2.37113e-07
-4.34636e-09
2.25741e-09
-2.37236e-07
1.95457e-09
-2.37245e-07
-4.41201e-09
4.76532e-09
1.35114e-09
-2.3717e-07
-4.8037e-09
4.53939e-09
1.63456e-09
-2.37157e-07
4.05659e-09
1.91173e-09
-2.37054e-07
3.30459e-09
2.16566e-09
-2.37029e-07
2.33513e-09
2.32687e-09
-2.37028e-07
1.22302e-09
2.41657e-09
-2.37043e-07
2.77469e-11
2.47601e-09
-2.37097e-07
-1.16806e-09
2.47458e-09
-2.37096e-07
-2.27898e-09
2.40744e-09
-2.37051e-07
-3.24677e-09
2.31281e-09
-2.37034e-07
-3.99893e-09
2.14927e-09
-2.37038e-07
-4.48912e-09
1.89425e-09
-2.37068e-07
-4.72657e-09
1.61609e-09
-2.37175e-07
1.33129e-09
-2.37191e-07
-4.7765e-09
4.96894e-09
7.09542e-10
-2.37129e-07
-5.03268e-09
4.74398e-09
8.73056e-10
-2.371e-07
4.229e-09
1.0059e-09
-2.3704e-07
3.44227e-09
1.13728e-09
-2.37024e-07
2.42455e-09
1.218e-09
-2.37045e-07
1.26564e-09
1.26054e-09
-2.37074e-07
2.40313e-11
1.28669e-09
-2.37132e-07
-1.21606e-09
1.28491e-09
-2.3713e-07
-2.37208e-09
1.2518e-09
-2.37081e-07
-3.38882e-09
1.20517e-09
-2.37055e-07
-4.17644e-09
1.12167e-09
-2.37032e-07
-4.69647e-09
9.88872e-10
-2.37053e-07
-4.93258e-09
8.51454e-10
-2.37117e-07
6.87107e-10
-2.37149e-07
-5.00639e-09
5.1185e-09
3.73493e-11
-2.3715e-07
-5.19726e-09
4.90022e-09
3.87159e-11
-2.37111e-07
4.36527e-09
3.48956e-11
-2.37076e-07
3.54257e-09
3.17398e-11
-2.37064e-07
2.48345e-09
2.74638e-11
-2.371e-07
1.29122e-09
2.33771e-11
-2.37133e-07
2.01636e-11
2.02195e-11
-2.37192e-07
-1.24805e-09
1.8029e-11
-2.37189e-07
-2.43528e-09
1.63297e-11
-2.37139e-07
-3.49159e-09
1.71255e-11
-2.37109e-07
-4.31266e-09
1.74042e-11
-2.37069e-07
-4.84839e-09
1.6696e-11
-2.37086e-07
-5.07564e-09
1.57387e-11
-2.37125e-07
1.38142e-11
-2.37169e-07
-5.16221e-09
5.1073e-09
-6.40996e-10
-2.37149e-07
-5.18164e-09
4.89492e-09
-8.04132e-10
-2.37107e-07
4.36323e-09
-9.41209e-10
-2.37074e-07
3.54189e-09
-1.07686e-09
-2.37061e-07
2.48242e-09
-1.16379e-09
-2.37098e-07
1.28966e-09
-1.21223e-09
-2.37132e-07
1.82203e-11
-1.24348e-09
-2.3719e-07
-1.24998e-09
-1.2458e-09
-2.37188e-07
-2.43729e-09
-1.21683e-09
-2.37138e-07
-3.49386e-09
-1.17006e-09
-2.37109e-07
-4.31444e-09
-1.08768e-09
-2.37068e-07
-4.84819e-09
-9.57336e-10
-2.37084e-07
-5.07206e-09
-8.22289e-10
-2.37122e-07
-6.61668e-10
-2.37168e-07
-5.15676e-09
4.96408e-09
-1.28891e-09
-2.37136e-07
-5.02852e-09
4.73952e-09
-1.57328e-09
-2.37106e-07
4.22328e-09
-1.84875e-09
-2.37048e-07
3.43557e-09
-2.10632e-09
-2.37032e-07
2.41614e-09
-2.27163e-09
-2.37055e-07
1.25696e-09
-2.3649e-09
-2.37085e-07
1.68579e-11
-2.42756e-09
-2.37142e-07
-1.22095e-09
-2.42987e-09
-2.3714e-07
-2.37631e-09
-2.36795e-09
-2.3709e-07
-3.39398e-09
-2.27471e-09
-2.37064e-07
-4.18189e-09
-2.11372e-09
-2.37037e-07
-4.70029e-09
-1.86186e-09
-2.37057e-07
-4.93351e-09
-1.58793e-09
-2.3712e-07
-1.30667e-09
-2.37153e-07
-5.00583e-09
4.76056e-09
-1.91531e-09
-2.37182e-07
-4.80386e-09
4.53047e-09
-2.21557e-09
-2.37169e-07
4.04441e-09
-2.63444e-09
-2.37066e-07
3.29224e-09
-2.99236e-09
-2.37041e-07
2.32253e-09
-3.2356e-09
-2.37039e-07
1.21082e-09
-3.37684e-09
-2.37059e-07
1.78858e-11
-3.47969e-09
-2.37112e-07
-1.1744e-09
-3.48204e-09
-2.37111e-07
-2.28369e-09
-3.38015e-09
-2.37064e-07
-3.2513e-09
-3.23712e-09
-2.37043e-07
-4.00314e-09
-2.99713e-09
-2.37046e-07
-4.49256e-09
-2.64447e-09
-2.37075e-07
-4.72947e-09
-2.22887e-09
-2.37182e-07
-1.92831e-09
-2.37199e-07
-4.77896e-09
4.37834e-09
-2.4479e-09
-2.37241e-07
-4.43745e-09
4.14735e-09
-2.6963e-09
-2.37234e-07
3.73769e-09
-3.2525e-09
-2.37114e-07
3.05016e-09
-3.67618e-09
-2.37069e-07
2.15997e-09
-3.9824e-09
-2.37044e-07
1.12793e-09
-4.15759e-09
-2.37037e-07
1.88973e-11
-4.29501e-09
-2.37074e-07
-1.09165e-09
-4.29644e-09
-2.37072e-07
-2.12297e-09
-4.16084e-09
-2.37039e-07
-3.01212e-09
-3.98213e-09
-2.37047e-07
-3.70053e-09
-3.67872e-09
-2.37074e-07
-4.11669e-09
-3.26033e-09
-2.37123e-07
-4.35516e-09
-2.70663e-09
-2.37247e-07
-2.45656e-09
-2.37257e-07
-4.4204e-09
3.99808e-09
-2.8485e-09
-2.37369e-07
-4.05721e-09
3.71206e-09
-3.00182e-09
-2.37328e-07
3.31375e-09
-3.65267e-09
-2.37195e-07
2.6951e-09
-4.08797e-09
-2.37117e-07
1.90645e-09
-4.46779e-09
-2.37072e-07
9.96192e-10
-4.67155e-09
-2.37056e-07
1.91052e-11
-4.82585e-09
-2.37089e-07
-9.61171e-10
-4.8247e-09
-2.37087e-07
-1.87094e-09
-4.67383e-09
-2.37059e-07
-2.65864e-09
-4.46696e-09
-2.37077e-07
-3.28279e-09
-4.09022e-09
-2.37123e-07
-3.68532e-09
-3.65869e-09
-2.37205e-07
-3.97503e-09
-3.01041e-09
-2.37342e-07
-2.85513e-09
-2.37384e-07
-4.04237e-09
3.27651e-09
-3.15181e-09
-2.37483e-07
-3.31836e-09
3.05887e-09
-3.22207e-09
-2.37426e-07
2.75433e-09
-3.94162e-09
-2.37329e-07
2.27359e-09
-4.32382e-09
-2.37238e-07
1.6295e-09
-4.70426e-09
-2.37177e-07
8.60222e-10
-4.90628e-09
-2.37119e-07
2.0142e-11
-5.05293e-09
-2.37128e-07
-8.24742e-10
-5.0471e-09
-2.37124e-07
-1.59694e-09
-4.906e-09
-2.37121e-07
-2.24353e-09
-4.70374e-09
-2.37183e-07
-2.72656e-09
-4.32774e-09
-2.37247e-07
-3.03519e-09
-3.94803e-09
-2.37342e-07
-3.25929e-09
-3.23063e-09
-2.37439e-07
-3.16015e-09
-2.37497e-07
-3.30869e-09
3.20205e-09
-2.37597e-07
-3.31255e-09
-3.35963e-09
2.90325e-09
-2.37483e-07
-3.27403e-09
2.50438e-09
-2.37371e-07
-4.01224e-09
1.97105e-09
-2.37245e-07
-4.39134e-09
1.34443e-09
-2.37191e-07
-4.75507e-09
6.96556e-10
-2.37149e-07
-4.98221e-09
1.82599e-11
-2.37169e-07
-5.1427e-09
-6.63121e-10
-2.37168e-07
-5.1341e-09
-1.31383e-09
-2.37153e-07
-4.98067e-09
-1.94262e-09
-2.37198e-07
-4.7553e-09
-2.47727e-09
-2.37256e-07
-4.39507e-09
-2.87975e-09
-2.37383e-07
-4.01803e-09
-3.18609e-09
-2.37496e-07
-3.28353e-09
-2.37609e-07
-3.35074e-09
-3.32694e-09
4.84398e-09
4.82515e-09
-2.36345e-07
-5.23951e-09
-5.26077e-09
4.2319e-09
4.80497e-09
-2.36129e-07
-5.10029e-09
3.55206e-09
5.49519e-09
-2.35858e-07
-5.86542e-09
2.75509e-09
5.80074e-09
-2.35584e-07
-6.19934e-09
1.86758e-09
6.09289e-09
-2.35391e-07
-6.52951e-09
9.56405e-10
6.2654e-09
-2.35275e-07
-6.742e-09
2.68474e-11
6.37361e-09
-2.35264e-07
-6.87344e-09
-9.0366e-10
6.35788e-09
-2.35265e-07
-6.85716e-09
-1.8133e-09
6.24816e-09
-2.35283e-07
-6.72736e-09
-2.70008e-09
6.07607e-09
-2.35405e-07
-6.51598e-09
-3.50001e-09
5.78167e-09
-2.356e-07
-6.18578e-09
-4.18616e-09
5.47301e-09
-2.35875e-07
-5.85098e-09
-4.80624e-09
4.78775e-09
-2.36147e-07
-5.09125e-09
4.80711e-09
-2.36362e-07
-5.23311e-09
-5.2292e-09
4.82578e-09
4.21542e-09
-2.36127e-07
-5.1212e-09
4.32685e-09
4.30887e-09
-2.35966e-07
3.74004e-09
4.87695e-09
-2.35652e-07
2.97426e-09
5.21006e-09
-2.35372e-07
2.07944e-09
5.4765e-09
-2.35152e-07
1.09091e-09
5.65056e-09
-2.35e-07
2.39033e-11
5.77706e-09
-2.34965e-07
-1.04726e-09
5.76566e-09
-2.34964e-07
-2.03862e-09
5.6367e-09
-2.35007e-07
-2.93095e-09
5.45853e-09
-2.35167e-07
-3.69405e-09
5.18676e-09
-2.35393e-07
-4.28178e-09
4.85117e-09
-2.35676e-07
-4.78537e-09
4.28558e-09
-2.3599e-07
4.19024e-09
-2.36153e-07
-5.08517e-09
5.5148e-09
3.53685e-09
-2.35854e-07
-5.88412e-09
4.89482e-09
3.72437e-09
-2.3565e-07
4.18322e-09
4.16604e-09
-2.35276e-07
3.32134e-09
4.48836e-09
-2.35012e-07
2.3036e-09
4.7155e-09
-2.34805e-07
1.19172e-09
4.85868e-09
-2.34686e-07
2.1301e-11
4.97895e-09
-2.34672e-07
-1.15242e-09
4.97151e-09
-2.34672e-07
-2.26513e-09
4.84866e-09
-2.34696e-07
-3.28106e-09
4.69891e-09
-2.34822e-07
-4.1401e-09
4.4686e-09
-2.35034e-07
-4.85163e-09
4.14249e-09
-2.35303e-07
-5.47258e-09
3.69695e-09
-2.35679e-07
3.50877e-09
-2.35884e-07
-5.84461e-09
5.81834e-09
2.74095e-09
-2.35578e-07
-6.21679e-09
5.22648e-09
2.96098e-09
-2.35369e-07
4.50392e-09
3.30612e-09
-2.35011e-07
3.58455e-09
3.5711e-09
-2.34767e-07
2.5063e-09
3.76871e-09
-2.34562e-07
1.29519e-09
3.89435e-09
-2.34439e-07
1.71589e-11
3.98639e-09
-2.34422e-07
-1.26271e-09
3.9813e-09
-2.34421e-07
-2.47497e-09
3.88645e-09
-2.34449e-07
-3.55239e-09
3.75625e-09
-2.3458e-07
-4.46665e-09
3.55304e-09
-2.34789e-07
-5.18659e-09
3.28614e-09
-2.35038e-07
-5.77854e-09
2.9363e-09
-2.35399e-07
2.71194e-09
-2.3561e-07
-6.17714e-09
6.11118e-09
1.85389e-09
-2.35385e-07
-6.54653e-09
5.4945e-09
2.06755e-09
-2.35147e-07
4.73171e-09
2.28916e-09
-2.34801e-07
3.78302e-09
2.49404e-09
-2.3456e-07
2.64045e-09
2.62751e-09
-2.34361e-07
1.36428e-09
2.71902e-09
-2.34255e-07
1.45137e-11
2.78144e-09
-2.34245e-07
-1.3367e-09
2.77813e-09
-2.34244e-07
-2.61346e-09
2.71324e-09
-2.34265e-07
-3.75435e-09
2.61832e-09
-2.34378e-07
-4.69995e-09
2.48023e-09
-2.34582e-07
-5.45648e-09
2.27495e-09
-2.34827e-07
-6.06874e-09
2.04908e-09
-2.35176e-07
1.82876e-09
-2.35417e-07
-6.50435e-09
6.28217e-09
9.44688e-10
-2.35269e-07
-6.75796e-09
5.66714e-09
1.0786e-09
-2.34993e-07
4.87467e-09
1.17737e-09
-2.34682e-07
3.90942e-09
1.2829e-09
-2.34434e-07
2.7333e-09
1.35236e-09
-2.34253e-07
1.41541e-09
1.4028e-09
-2.34137e-07
1.39042e-11
1.43652e-09
-2.34124e-07
-1.38947e-09
1.43476e-09
-2.34122e-07
-2.70983e-09
1.39973e-09
-2.34144e-07
-3.88686e-09
1.34724e-09
-2.34266e-07
-4.85218e-09
1.2751e-09
-2.34453e-07
-5.63836e-09
1.16801e-09
-2.34704e-07
-6.24644e-09
1.06492e-09
-2.35018e-07
9.23739e-10
-2.35298e-07
-6.71901e-09
6.3924e-09
1.75512e-11
-2.35258e-07
-6.8898e-09
5.79555e-09
1.35305e-11
-2.34957e-07
4.9945e-09
1.13053e-11
-2.34666e-07
3.99993e-09
7.38739e-12
-2.34416e-07
2.79397e-09
5.11856e-12
-2.34241e-07
1.44715e-09
4.5393e-12
-2.34122e-07
1.28074e-11
5.24856e-12
-2.34105e-07
-1.42341e-09
4.10284e-12
-2.34102e-07
-2.77303e-09
2.08698e-12
-2.34127e-07
-3.97967e-09
1.14958e-12
-2.34251e-07
-4.97289e-09
1.14638e-12
-2.34431e-07
-5.76566e-09
1.47288e-12
-2.34685e-07
-6.35255e-09
2.44076e-13
-2.34977e-07
-2.2046e-13
-2.35284e-07
-6.84244e-09
6.3784e-09
-9.06621e-10
-2.3526e-07
-6.87593e-09
5.78655e-09
-1.05262e-09
-2.34956e-07
4.98979e-09
-1.15567e-09
-2.34666e-07
3.99737e-09
-1.26734e-09
-2.34415e-07
2.79264e-09
-1.34099e-09
-2.3424e-07
1.44654e-09
-1.39269e-09
-2.3412e-07
1.25669e-11
-1.4253e-09
-2.34101e-07
-1.42283e-09
-1.42593e-09
-2.34099e-07
-2.77161e-09
-1.39512e-09
-2.34124e-07
-3.97791e-09
-1.34405e-09
-2.34249e-07
-4.9712e-09
-1.27201e-09
-2.34428e-07
-5.76341e-09
-1.16416e-09
-2.34681e-07
-6.3492e-09
-1.06269e-09
-2.34975e-07
-9.20879e-10
-2.35282e-07
-6.84083e-09
6.26512e-09
-1.81103e-09
-2.35279e-07
-6.7403e-09
5.65677e-09
-2.03864e-09
-2.35002e-07
4.86866e-09
-2.26345e-09
-2.34691e-07
3.90469e-09
-2.47447e-09
-2.34443e-07
2.72926e-09
-2.61264e-09
-2.34261e-07
1.41198e-09
-2.70702e-09
-2.34142e-07
1.06223e-11
-2.77012e-09
-2.34126e-07
-1.39203e-09
-2.77018e-09
-2.34123e-07
-2.71136e-09
-2.70927e-09
-2.34144e-07
-3.88835e-09
-2.61479e-09
-2.34266e-07
-4.85372e-09
-2.47772e-09
-2.34452e-07
-5.63724e-09
-2.27032e-09
-2.34703e-07
-6.24007e-09
-2.04579e-09
-2.35017e-07
-1.82057e-09
-2.353e-07
-6.7132e-09
6.08994e-09
-2.69065e-09
-2.35402e-07
-6.52643e-09
5.47609e-09
-2.92164e-09
-2.35164e-07
4.71737e-09
-3.27147e-09
-2.34817e-07
3.77288e-09
-3.54347e-09
-2.34576e-07
2.63266e-09
-3.74599e-09
-2.34376e-07
1.35803e-09
-3.8766e-09
-2.34265e-07
9.22714e-12
-3.97134e-09
-2.34252e-07
-1.34017e-09
-3.97128e-09
-2.3425e-07
-2.61517e-09
-3.88006e-09
-2.34267e-07
-3.75547e-09
-3.74965e-09
-2.3438e-07
-4.69938e-09
-3.54803e-09
-2.34583e-07
-5.45449e-09
-3.27734e-09
-2.34828e-07
-6.0645e-09
-2.92673e-09
-2.35178e-07
-2.69697e-09
-2.35422e-07
-6.50001e-09
5.79645e-09
-3.48199e-09
-2.356e-07
-6.19544e-09
5.20291e-09
-3.67267e-09
-2.35392e-07
4.48681e-09
-4.1168e-09
-2.35034e-07
3.5707e-09
-4.44606e-09
-2.34789e-07
2.49475e-09
-4.68003e-09
-2.34584e-07
1.28538e-09
-4.83056e-09
-2.34457e-07
8.39697e-12
-4.95533e-09
-2.34436e-07
-1.26904e-09
-4.95543e-09
-2.34433e-07
-2.47863e-09
-4.83569e-09
-2.34457e-07
-3.55374e-09
-4.6856e-09
-2.34587e-07
-4.46729e-09
-4.45158e-09
-2.34794e-07
-5.18071e-09
-4.12389e-09
-2.35044e-07
-5.77223e-09
-3.67903e-09
-2.35406e-07
-3.4883e-09
-2.35618e-07
-6.17249e-09
5.4902e-09
-4.1579e-09
-2.35878e-07
-5.8637e-09
4.86896e-09
-4.24978e-09
-2.35678e-07
4.16122e-09
-4.81604e-09
-2.35305e-07
3.30353e-09
-5.15332e-09
-2.35041e-07
2.28934e-09
-5.4244e-09
-2.34832e-07
1.17781e-09
-5.60525e-09
-2.34709e-07
7.51063e-12
-5.73663e-09
-2.34692e-07
-1.16368e-09
-5.73583e-09
-2.34689e-07
-2.27528e-09
-5.60882e-09
-2.3471e-07
-3.28624e-09
-5.42944e-09
-2.34834e-07
-4.13978e-09
-5.15719e-09
-2.35046e-07
-4.84549e-09
-4.82336e-09
-2.35315e-07
-5.46781e-09
-4.25974e-09
-2.35691e-07
-4.16392e-09
-2.35896e-07
-5.8421e-09
4.8065e-09
-4.77073e-09
-2.36152e-07
-5.10702e-09
4.30453e-09
-4.74647e-09
-2.35994e-07
3.71423e-09
-5.43103e-09
-2.35683e-07
2.95095e-09
-5.73679e-09
-2.35403e-07
2.06008e-09
-6.02764e-09
-2.35183e-07
1.07149e-09
-6.20263e-09
-2.35027e-07
4.72354e-12
-6.3161e-09
-2.34989e-07
-1.06172e-09
-6.31261e-09
-2.34986e-07
-2.04905e-09
-6.20089e-09
-2.35027e-07
-2.93454e-09
-6.03098e-09
-2.35186e-07
-3.69317e-09
-5.74107e-09
-2.3541e-07
-4.28251e-09
-5.4377e-09
-2.35693e-07
-4.78728e-09
-4.75591e-09
-2.36007e-07
-4.77704e-09
-2.36169e-07
-5.0874e-09
4.8237e-09
-2.36366e-07
-5.19322e-09
-5.24939e-09
4.20772e-09
-2.36157e-07
-5.0485e-09
3.52631e-09
-2.35889e-07
-5.80434e-09
2.72741e-09
-2.35616e-07
-6.13462e-09
1.83922e-09
-2.35425e-07
-6.45955e-09
9.2938e-10
-2.35308e-07
-6.67156e-09
2.36069e-12
-2.35296e-07
-6.80538e-09
-9.21519e-10
-2.35294e-07
-6.80242e-09
-1.82694e-09
-2.35311e-07
-6.66782e-09
-2.70888e-09
-2.35431e-07
-6.46211e-09
-3.50503e-09
-2.35625e-07
-6.13634e-09
-4.18571e-09
-2.359e-07
-5.80903e-09
-4.80412e-09
-2.3617e-07
-5.05483e-09
-2.36381e-07
-5.22854e-09
-5.19792e-09
7.44056e-09
7.43375e-09
-2.34012e-07
-8.03679e-09
-8.04828e-09
6.44698e-09
7.49914e-09
-2.33569e-07
-7.97058e-09
5.40972e-09
8.32651e-09
-2.3309e-07
-8.96469e-09
4.19072e-09
8.74758e-09
-2.32625e-07
-9.44792e-09
2.8577e-09
9.07576e-09
-2.32277e-07
-9.86084e-09
1.44639e-09
9.26421e-09
-2.32063e-07
-1.00954e-08
4.3306e-12
9.29813e-09
-2.32006e-07
-1.01633e-08
-1.43529e-09
9.28603e-09
-2.32007e-07
-1.01514e-08
-2.84077e-09
9.23931e-09
-2.3207e-07
-1.00703e-08
-4.1664e-09
9.03936e-09
-2.32289e-07
-9.82404e-09
-5.3791e-09
8.70331e-09
-2.32641e-07
-9.40453e-09
-6.41315e-09
8.27418e-09
-2.33107e-07
-8.91542e-09
-7.4052e-09
7.44701e-09
-2.33586e-07
-7.92429e-09
7.38068e-09
-2.3403e-07
-7.99097e-09
-8.01046e-09
7.50956e-09
6.44202e-09
-2.33568e-07
-7.98225e-09
6.68235e-09
6.67778e-09
-2.33252e-07
5.73904e-09
7.3279e-09
-2.32693e-07
4.52492e-09
7.72205e-09
-2.32187e-07
3.12316e-09
7.9909e-09
-2.31772e-07
1.59179e-09
8.16465e-09
-2.31504e-07
-1.45024e-12
8.1967e-09
-2.31412e-07
-1.59187e-09
8.18649e-09
-2.31411e-07
-3.11772e-09
8.1448e-09
-2.3151e-07
-4.50987e-09
7.96085e-09
-2.31784e-07
-5.71402e-09
7.68463e-09
-2.32203e-07
-6.65018e-09
7.28099e-09
-2.32712e-07
-7.47375e-09
6.6291e-09
-2.33274e-07
6.39121e-09
-2.33595e-07
-7.94126e-09
8.33492e-09
5.40526e-09
-2.33087e-07
-8.97516e-09
7.33181e-09
5.73716e-09
-2.32691e-07
6.1818e-09
6.17846e-09
-2.32044e-07
4.79308e-09
6.51238e-09
-2.31571e-07
3.26506e-09
6.69852e-09
-2.31185e-07
1.64532e-09
6.85121e-09
-2.30957e-07
-9.35181e-12
6.86564e-09
-2.30893e-07
-1.66211e-09
6.85998e-09
-2.30892e-07
-3.27552e-09
6.83748e-09
-2.30962e-07
-4.7901e-09
6.6739e-09
-2.31195e-07
-6.16419e-09
6.4843e-09
-2.31586e-07
-7.30228e-09
6.14333e-09
-2.32063e-07
-8.29616e-09
5.69766e-09
-2.32713e-07
5.36304e-09
-2.33114e-07
-8.92908e-09
8.75399e-09
4.18392e-09
-2.32618e-07
-9.45756e-09
7.72456e-09
4.52189e-09
-2.32183e-07
6.51304e-09
4.78904e-09
-2.31569e-07
5.0683e-09
5.06817e-09
-2.31109e-07
3.45752e-09
5.20169e-09
-2.30722e-07
1.74369e-09
5.32594e-09
-2.30471e-07
-1.50858e-11
5.33523e-09
-2.30401e-07
-1.77094e-09
5.33325e-09
-2.30399e-07
-3.47533e-09
5.3208e-09
-2.30473e-07
-5.07294e-09
5.18691e-09
-2.30728e-07
-6.5055e-09
5.04899e-09
-2.31119e-07
-7.70222e-09
4.76593e-09
-2.31583e-07
-8.71724e-09
4.49557e-09
-2.32201e-07
4.15367e-09
-2.32641e-07
-9.41034e-09
9.08344e-09
2.8452e-09
-2.32267e-07
-9.87074e-09
7.99576e-09
3.11546e-09
-2.31765e-07
6.70188e-09
3.25781e-09
-2.31179e-07
5.20321e-09
3.45625e-09
-2.30718e-07
3.53549e-09
3.53319e-09
-2.30347e-07
1.77382e-09
3.61804e-09
-2.30114e-07
-1.83382e-11
3.62342e-09
-2.30053e-07
-1.80591e-09
3.62458e-09
-2.3005e-07
-3.55966e-09
3.62161e-09
-2.30112e-07
-5.21294e-09
3.53237e-09
-2.30347e-07
-6.69687e-09
3.45063e-09
-2.30723e-07
-7.97875e-09
3.24861e-09
-2.31188e-07
-9.05221e-09
3.10429e-09
-2.31778e-07
2.82938e-09
-2.32285e-07
-9.82671e-09
9.27241e-09
1.43133e-09
-2.32054e-07
-1.0109e-08
8.16741e-09
1.57981e-09
-2.31492e-07
6.85173e-09
1.63424e-09
-2.30949e-07
5.3261e-09
1.73776e-09
-2.30464e-07
3.61859e-09
1.76767e-09
-2.3011e-07
1.82666e-09
1.8224e-09
-2.29868e-07
-1.86069e-11
1.83006e-09
-2.29803e-07
-1.85916e-09
1.83393e-09
-2.29798e-07
-3.64318e-09
1.8325e-09
-2.29862e-07
-5.33912e-09
1.77603e-09
-2.30105e-07
-6.85288e-09
1.74682e-09
-2.30462e-07
-8.15781e-09
1.63801e-09
-2.3095e-07
-9.2488e-09
1.5797e-09
-2.31498e-07
1.4259e-09
-2.32065e-07
-1.00699e-08
9.31182e-09
-1.35182e-11
-2.31995e-07
-1.01797e-08
8.20571e-09
-1.76105e-11
-2.31396e-07
6.86837e-09
-2.17921e-11
-2.30882e-07
5.33537e-09
-2.68138e-11
-2.30389e-07
3.6232e-09
-2.95995e-11
-2.30045e-07
1.83341e-09
-2.95592e-11
-2.29799e-07
-1.75521e-11
-2.74915e-11
-2.29728e-07
-1.86446e-09
-2.50043e-11
-2.29721e-07
-3.64915e-09
-2.00729e-11
-2.29789e-07
-5.35291e-09
-1.93485e-11
-2.30037e-07
-6.87099e-09
-1.43208e-11
-2.30384e-07
-8.19392e-09
-1.34148e-11
-2.30881e-07
-9.28845e-09
-1.04393e-11
-2.31398e-07
-1.07538e-11
-2.32003e-07
-1.01435e-08
9.30758e-09
-1.44948e-09
-2.31996e-07
-1.01784e-08
8.20134e-09
-1.60609e-09
-2.31397e-07
6.86716e-09
-1.67311e-09
-2.30881e-07
5.33686e-09
-1.7848e-09
-2.30387e-07
3.62689e-09
-1.81834e-09
-2.30042e-07
1.83882e-09
-1.87294e-09
-2.29794e-07
-1.33934e-11
-1.87683e-09
-2.29721e-07
-1.86153e-09
-1.87598e-09
-2.29716e-07
-3.64624e-09
-1.86699e-09
-2.29784e-07
-5.35087e-09
-1.80916e-09
-2.30032e-07
-6.86973e-09
-1.77148e-09
-2.30379e-07
-8.19407e-09
-1.66041e-09
-2.30876e-07
-9.29148e-09
-1.59659e-09
-2.31395e-07
-1.44518e-09
-2.31999e-07
-1.01493e-08
9.2563e-09
-2.8534e-09
-2.32059e-07
-1.00881e-08
8.15784e-09
-3.13048e-09
-2.31497e-07
6.84669e-09
-3.28513e-09
-2.30949e-07
5.32727e-09
-3.48762e-09
-2.3046e-07
3.62541e-09
-3.5709e-09
-2.30102e-07
1.83716e-09
-3.65456e-09
-2.29855e-07
-9.32755e-12
-3.66123e-09
-2.29787e-07
-1.85272e-09
-3.66028e-09
-2.29781e-07
-3.63683e-09
-3.64971e-09
-2.29844e-07
-5.33384e-09
-3.5612e-09
-2.3009e-07
-6.84847e-09
-3.47274e-09
-2.3045e-07
-8.15414e-09
-3.27099e-09
-2.30942e-07
-9.24696e-09
-3.12131e-09
-2.31493e-07
-2.84727e-09
-2.32062e-07
-1.00707e-08
9.05474e-09
-4.17379e-09
-2.32277e-07
-9.83916e-09
7.97409e-09
-4.51759e-09
-2.31773e-07
6.68379e-09
-4.79425e-09
-2.31182e-07
5.19276e-09
-5.07882e-09
-2.30717e-07
3.53707e-09
-5.21798e-09
-2.30339e-07
1.78023e-09
-5.34077e-09
-2.301e-07
-9.96401e-12
-5.3641e-09
-2.30034e-07
-1.79697e-09
-5.36352e-09
-2.3003e-07
-3.54948e-09
-5.33832e-09
-2.30091e-07
-5.20054e-09
-5.20904e-09
-2.30329e-07
-6.6856e-09
-5.06784e-09
-2.30709e-07
-7.97138e-09
-4.78776e-09
-2.31176e-07
-9.04734e-09
-4.51331e-09
-2.31769e-07
-4.16909e-09
-2.32281e-07
-9.82551e-09
8.72079e-09
-5.37539e-09
-2.32634e-07
-9.42084e-09
7.69968e-09
-5.71037e-09
-2.32196e-07
6.49487e-09
-6.15749e-09
-2.31578e-07
5.05422e-09
-6.50025e-09
-2.31113e-07
3.45243e-09
-6.69089e-09
-2.30719e-07
1.74876e-09
-6.84797e-09
-2.30461e-07
-7.20088e-12
-6.87348e-09
-2.30385e-07
-1.7606e-09
-6.87332e-09
-2.30381e-07
-3.46077e-09
-6.84758e-09
-2.30454e-07
-5.05878e-09
-6.68669e-09
-2.30712e-07
-6.49426e-09
-6.49792e-09
-2.31105e-07
-7.69723e-09
-6.16007e-09
-2.31573e-07
-8.71464e-09
-5.71397e-09
-2.32193e-07
-5.37452e-09
-2.32636e-07
-9.41001e-09
8.29278e-09
-6.3943e-09
-2.33105e-07
-8.93287e-09
7.29639e-09
-6.63051e-09
-2.32709e-07
6.15646e-09
-7.28128e-09
-2.32059e-07
4.77666e-09
-7.68316e-09
-2.31581e-07
3.25439e-09
-7.9595e-09
-2.31189e-07
1.64173e-09
-8.14241e-09
-2.30952e-07
-6.74833e-12
-8.18178e-09
-2.30885e-07
-1.6529e-09
-8.18262e-09
-2.30881e-07
-3.26357e-09
-8.14464e-09
-2.30948e-07
-4.78176e-09
-7.96321e-09
-2.31183e-07
-6.1568e-09
-7.69208e-09
-2.31576e-07
-7.29473e-09
-7.29109e-09
-2.32055e-07
-8.28865e-09
-6.63887e-09
-2.32708e-07
-6.3957e-09
-2.33112e-07
-8.92214e-09
7.46788e-09
-7.37329e-09
-2.33589e-07
-7.94347e-09
6.64484e-09
-7.43854e-09
-2.33276e-07
5.70802e-09
-8.26023e-09
-2.32715e-07
4.50178e-09
-8.68341e-09
-2.32204e-07
3.10722e-09
-9.01668e-09
-2.31784e-07
1.57949e-09
-9.21271e-09
-2.31508e-07
-8.0433e-12
-9.26273e-09
-2.3141e-07
-1.59107e-09
-9.26595e-09
-2.31407e-07
-3.11629e-09
-9.21736e-09
-2.31505e-07
-4.50661e-09
-9.02545e-09
-2.3178e-07
-5.7094e-09
-8.69665e-09
-2.322e-07
-6.64324e-09
-8.27214e-09
-2.32711e-07
-7.4646e-09
-7.44602e-09
-2.33276e-07
-7.37585e-09
-2.33597e-07
-7.93089e-09
7.39556e-09
-2.34035e-07
-7.96999e-09
-8.00737e-09
6.40371e-09
-2.33599e-07
-7.90115e-09
5.37232e-09
-2.3312e-07
-8.88696e-09
4.15922e-09
-2.3265e-07
-9.36803e-09
2.83135e-09
-2.32296e-07
-9.77952e-09
1.42529e-09
-2.32078e-07
-1.00191e-08
-1.16543e-11
-2.32017e-07
-1.01027e-08
-1.44338e-09
-2.32014e-07
-1.01095e-08
-2.84458e-09
-2.32076e-07
-1.00243e-08
-4.16573e-09
-2.32294e-07
-9.78898e-09
-5.37379e-09
-2.32648e-07
-9.37827e-09
-6.40061e-09
-2.33117e-07
-8.89541e-09
-7.38732e-09
-2.33597e-07
-7.90597e-09
-2.34041e-07
-7.98931e-09
-7.96799e-09
1.12367e-08
1.12439e-08
-2.30599e-07
-1.21269e-08
-1.21259e-08
9.78189e-09
1.14321e-08
-2.29943e-07
-1.22285e-08
8.21662e-09
1.25316e-08
-2.29277e-07
-1.36233e-08
6.40919e-09
1.30583e-08
-2.28702e-07
-1.42906e-08
4.40123e-09
1.3501e-08
-2.28255e-07
-1.48249e-08
2.22361e-09
1.37868e-08
-2.2799e-07
-1.5122e-08
-1.84292e-11
1.37901e-08
-2.2791e-07
-1.5135e-08
-2.25462e-09
1.37816e-08
-2.27909e-07
-1.51263e-08
-4.42326e-09
1.3767e-08
-2.27992e-07
-1.50946e-08
-6.41838e-09
1.34664e-08
-2.28259e-07
-1.47792e-08
-8.21033e-09
1.30152e-08
-2.28709e-07
-1.4237e-08
-9.75984e-09
1.24748e-08
-2.29287e-07
-1.35568e-08
-1.12016e-08
1.13697e-08
-2.29954e-07
-1.21602e-08
1.11737e-08
-2.30615e-07
-1.20507e-08
-1.20807e-08
1.14318e-08
9.78991e-09
-2.29947e-07
-1.22312e-08
1.0139e-08
1.01479e-08
-2.29556e-07
8.64104e-09
1.09635e-08
-2.28823e-07
6.76773e-09
1.14608e-08
-2.282e-07
4.64101e-09
1.17955e-08
-2.2766e-07
2.33809e-09
1.20562e-08
-2.27318e-07
-2.53901e-11
1.20509e-08
-2.27203e-07
-2.38149e-09
1.20433e-08
-2.27203e-07
-4.675e-09
1.20472e-08
-2.27319e-07
-6.78644e-09
1.17808e-08
-2.27663e-07
-8.63965e-09
1.14325e-08
-2.28204e-07
-1.01203e-08
1.09257e-08
-2.28828e-07
-1.13995e-08
1.01051e-08
-2.29568e-07
9.7375e-09
-2.29966e-07
-1.21849e-08
1.25268e-08
8.2257e-09
-2.29282e-07
-1.36245e-08
1.0951e-08
8.65432e-09
-2.28824e-07
9.14717e-09
9.16223e-09
-2.28021e-07
7.02889e-09
9.58785e-09
-2.2745e-07
4.75873e-09
9.7852e-09
-2.26968e-07
2.37902e-09
1.00093e-08
-2.26681e-07
-2.74611e-11
9.98132e-09
-2.26612e-07
-2.42781e-09
9.97627e-09
-2.26609e-07
-4.80111e-09
1.00113e-08
-2.26678e-07
-7.06048e-09
9.78214e-09
-2.26966e-07
-9.15993e-09
9.57897e-09
-2.27449e-07
-1.09417e-08
9.14602e-09
-2.28022e-07
-1.24955e-08
8.63289e-09
-2.2883e-07
8.19952e-09
-2.29296e-07
-1.3577e-08
1.30526e-08
6.41716e-09
-2.28703e-07
-1.42937e-08
1.14477e-08
6.7795e-09
-2.282e-07
9.57118e-09
7.04192e-09
-2.27449e-07
7.37999e-09
7.39868e-09
-2.26895e-07
5.01445e-09
7.54278e-09
-2.26445e-07
2.52597e-09
7.75135e-09
-2.26155e-07
-2.71079e-11
7.73328e-09
-2.26089e-07
-2.57494e-09
7.73059e-09
-2.26085e-07
-5.05625e-09
7.76289e-09
-2.26148e-07
-7.41265e-09
7.54876e-09
-2.26436e-07
-9.59274e-09
7.40958e-09
-2.26889e-07
-1.14501e-08
7.04625e-09
-2.27445e-07
-1.30344e-08
6.78038e-09
-2.28199e-07
6.4154e-09
-2.28707e-07
-1.42559e-08
1.35004e-08
4.40208e-09
-2.28253e-07
-1.48304e-08
1.17866e-08
4.64694e-09
-2.27658e-07
9.77167e-09
4.76757e-09
-2.26967e-07
7.52534e-09
5.03116e-09
-2.26443e-07
5.09501e-09
5.11235e-09
-2.26055e-07
2.56392e-09
5.26421e-09
-2.25789e-07
-2.44205e-11
5.25692e-09
-2.25751e-07
-2.60753e-09
5.2553e-09
-2.25748e-07
-5.13279e-09
5.28169e-09
-2.25781e-07
-7.55439e-09
5.13281e-09
-2.26044e-07
-9.79464e-09
5.05772e-09
-2.26432e-07
-1.18005e-08
4.78939e-09
-2.26956e-07
-1.34956e-08
4.66659e-09
-2.27651e-07
4.41932e-09
-2.2825e-07
-1.48042e-08
1.37897e-08
2.21736e-09
-2.27987e-07
-1.51337e-08
1.20491e-08
2.33535e-09
-2.27312e-07
9.99387e-09
2.38068e-09
-2.26679e-07
7.73171e-09
2.53465e-09
-2.26152e-07
5.24422e-09
2.57399e-09
-2.25788e-07
2.64711e-09
2.65957e-09
-2.2552e-07
-2.11131e-11
2.66402e-09
-2.25487e-07
-2.6835e-09
2.66193e-09
-2.25483e-07
-5.27617e-09
2.67825e-09
-2.25511e-07
-7.76145e-09
2.59856e-09
-2.25775e-07
-1.00175e-08
2.56796e-09
-2.26138e-07
-1.20667e-08
2.41507e-09
-2.26663e-07
-1.37951e-08
2.36849e-09
-2.273e-07
2.24497e-09
-2.27977e-07
-1.5119e-08
1.38023e-08
-3.6585e-11
-2.27904e-07
-1.51515e-08
1.20552e-08
-3.90445e-11
-2.27194e-07
9.97405e-09