/*--------------------------------*- C++ -*----------------------------------*\
| =========                 |                                                 |
| \\      /  F ield         | OpenFOAM: The Open Source CFD Toolbox           |
|  \\    /   O peration     | Version:  v2106                                 |
|   \\  /    A nd           | Website:  www.openfoam.com                      |
|    \\/     M anipulation  |                                                 |
\*---------------------------------------------------------------------------*/
FoamFile
{
    version     2.0;
    format      ascii;
    arch        "LSB;label=32;scalar=64";
    class       volScalarField;
    location    "0.000211";
    object      p;
}
// * * * * * * * * * * * * * * * * * * * * * * * * * * * * * * * * * * * * * //

dimensions      [1 -1 -2 0 0 0 0];

internalField   nonuniform List<scalar> 
144746
(
195302
195200
194906
194744
194530
194355
194108
193866
193627
193481
193415
193438
193338
193768
195068
195215
195001
194907
194740
194581
194369
194145
193932
193758
193665
193635
193576
193829
195172
195308
195155
195093
194967
194833
194657
194460
194262
194076
193934
193832
193686
193725
195263
195383
195296
195265
195185
195088
194944
194777
194607
194426
194246
194082
193893
193764
195375
195472
195443
195432
195388
195309
195187
195036
194873
194717
194547
194350
194128
193927
195469
195576
195597
195618
195581
195513
195401
195263
195112
194958
194799
194619
194388
194138
195568
195670
195735
195782
195758
195698
195593
195463
195319
195169
195021
194856
194647
194375
195687
195771
195884
195935
195929
195873
195779
195660
195528
195387
195244
195082
194879
194625
195786
195868
196014
196067
196075
196031
195952
195852
195739
195613
195475
195314
195122
194884
195871
195969
196125
196186
196199
196168
196109
196035
195950
195845
195720
195560
195363
195127
195991
196095
196208
196278
196287
196267
196234
196189
196134
196056
195950
195803
195625
195399
196102
196173
196273
196330
196347
196338
196329
196316
196294
196241
196148
196021
195874
195656
196254
196263
196333
196375
196389
196382
196394
196402
196406
196372
196311
196198
196081
195834
196299
196194
196319
196383
196410
196404
196446
196469
196490
196488
196484
196482
196497
196411
194621
195021
195015
195077
195090
195093
195005
194879
194727
194619
194571
194560
194511
194911
194475
194895
194981
195084
195138
195167
195144
195071
194964
194865
194843
194863
194851
195121
194589
194957
195003
195130
195218
195260
195238
195172
195112
195053
195029
195029
194983
195101
194714
195012
195069
195187
195276
195301
195301
195258
195203
195149
195141
195148
195147
195181
194882
195114
195186
195289
195351
195379
195371
195331
195271
195244
195230
195284
195316
195334
195049
195237
195309
195400
195453
195472
195463
195434
195400
195362
195350
195400
195477
195506
195185
195336
195410
195493
195542
195561
195559
195546
195532
195516
195511
195544
195610
195671
195249
195405
195497
195593
195643
195672
195678
195681
195681
195680
195690
195720
195760
195831
195287
195446
195563
195664
195724
195766
195789
195813
195832
195853
195867
195906
195931
196030
195320
195491
195632
195742
195816
195871
195912
195954
195990
196032
196059
196110
196130
196208
195385
195527
195674
195790
195876
195948
196011
196077
196140
196203
196247
196320
196350
196404
195449
195602
195741
195864
195960
196039
196115
196197
196284
196365
196444
196512
196569
196579
195524
195636
195780
195903
196003
196089
196184
196287
196402
196509
196606
196693
196774
196718
195477
195579
195789
195933
196046
196138
196241
196361
196492
196627
196754
196896
197049
197010
193780
194397
194560
194723
194817
194884
194853
194786
194688
194597
194572
194598
194624
195125
194042
194559
194765
194934
195031
195098
195090
195048
195004
194978
195000
195113
195251
195707
194530
194924
195124
195271
195359
195421
195428
195395
195347
195289
195343
195419
195565
195951
195047
195338
195505
195630
195703
195749
195758
195733
195693
195660
195674
195781
195931
196237
195541
195764
195910
196011
196069
196103
196116
196101
196076
196047
196070
196148
196310
196558
195957
196164
196293
196377
196429
196459
196469
196463
196454
196453
196481
196564
196714
196904
196279
196480
196614
196706
196766
196802
196820
196826
196833
196856
196901
196985
197123
197262
196577
196782
196927
197032
197101
197151
197176
197199
197221
197255
197313
197405
197525
197613
196803
197022
197187
197315
197405
197477
197525
197572
197612
197662
197727
197827
197931
197975
197002
197246
197437
197593
197707
197805
197878
197948
198005
198069
198139
198241
198341
198349
197133
197417
197636
197825
197974
198103
198207
198306
198386
198471
198555
198660
198756
198746
197235
197549
197826
198050
198228
198382
198517
198646
198754
198863
198960
199072
199167
199136
197272
197599
197906
198146
198361
198565
198749
198925
199068
199204
199322
199433
199540
199577
197012
197524
197916
198263
198536
198775
198987
199189
199354
199513
199634
199735
199928
199883
194692
195442
195266
195578
195443
196809
193234
193863
194036
194818
195048
196091
193406
193785
193897
194634
194842
196037
193479
193629
193637
194322
194574
195641
193680
193694
193651
194293
194406
195695
193891
193819
193725
194324
194352
195836
194088
194009
193925
194544
194589
196056
194309
194226
194114
194741
194802
196292
194584
194528
194417
195004
195059
196530
194877
194852
194751
195231
195199
197029
195238
195322
195278
195785
195733
196833
195560
195601
195610
196108
196225
196904
195912
196058
196138
196512
196627
197572
195592
195805
195892
196518
196819
197295
195792
196406
196162
196235
195790
197009
194602
195005
194920
195502
195531
196504
194844
195160
195048
195646
195562
196835
195024
195196
195109
195653
195698
196673
195257
195365
195296
195854
195943
196673
195474
195567
195551
196068
196108
196545
195652
195761
195791
196312
196417
196620
195831
195965
196013
196515
196607
196910
196043
196202
196250
196687
196814
197129
196244
196395
196443
196782
196963
197174
196469
196630
196725
196945
197078
197371
196690
196776
196822
197007
197165
197436
196914
196982
197079
197280
197402
197680
196609
196696
196735
196930
197179
197357
196186
196454
196535
196540
196062
196725
195431
195754
195612
195969
195919
197130
195822
196107
195993
196510
196474
197304
196193
196405
196321
196701
196620
197315
196573
196755
196724
197061
197019
197617
196982
197120
197085
197339
197328
197687
197386
197480
197441
197593
197576
197804
197785
197837
197801
197825
197779
197850
198183
198206
198201
198136
198106
197959
198586
198602
198634
198484
198418
198098
198998
199042
199096
198915
198789
198378
199362
199479
199476
199287
199040
198587
199786
199835
199816
199625
199430
198889
199815
199812
199670
199472
199189
198741
196987
197521
197336
197690
197723
198422
196175
196706
196666
197239
197226
197446
196386
196766
196707
197315
197343
197863
196462
196674
196639
197135
197293
197558
196533
196679
196715
197100
197251
197721
196533
196640
196678
196966
197118
197375
196500
196571
196599
196841
197022
197394
196467
196506
196533
196704
196859
197187
196427
196450
196486
196617
196743
197159
196431
196420
196475
196563
196677
197078
196452
196394
196434
196497
196594
197018
196466
196388
196365
196439
196464
196929
196459
196408
196311
196440
196501
197120
195730
195610
195555
195835
195991
196676
197557
197878
197798
197960
197911
198115
196945
197292
197273
197565
197512
197624
196910
197197
197183
197479
197527
197739
196819
197049
197060
197263
197371
197456
196728
196914
196987
197125
197278
197344
196603
196748
196842
196923
197057
197062
196443
196551
196650
196698
196863
196837
196296
196356
196441
196439
196596
196498
196180
196177
196230
196204
196359
196263
196086
196005
196040
195987
196135
196082
195998
195824
195862
195761
195889
195885
195894
195652
195654
195530
195618
195613
195789
195501
195463
195400
195567
195756
194977
194629
194555
194645
194943
195102
200548
200741
200765
200534
200078
199393
200158
200401
200504
200298
199875
199067
200064
200271
200356
200134
199747
198764
199907
200144
200237
199987
199535
198441
199777
199989
200079
199759
199195
197939
199574
199761
199818
199390
198703
197135
199357
199465
199437
198793
198030
196111
199090
199105
198936
198048
197165
194835
198807
198707
198306
197274
196192
193477
198489
198281
197713
196478
195215
192262
198181
197812
197166
195670
194397
191308
197891
197267
196628
194938
193722
190578
197612
196672
196069
194434
193351
190681
196550
195279
194574
193166
192416
189998
197571
195763
195548
194784
194470
194440
197326
196589
196292
195698
195485
195487
196576
195906
195799
195350
195280
195391
197311
195348
195470
195199
195249
195371
197383
195135
195251
195113
195223
195371
196711
195620
195499
195238
195286
195424
196459
195525
195513
195302
195373
195496
196504
195644
195652
195452
195528
195594
196341
195648
195677
195513
195642
195680
196630
195875
195884
195665
195790
195773
196528
195809
195923
195714
195891
195850
196838
196054
196224
195922
196109
195915
196637
196000
196231
195950
196203
195950
197438
196775
197002
196875
196853
196592
195737
194599
194122
193456
193265
193616
195735
194920
194695
194430
194466
194823
195145
194460
194358
194229
194325
194717
195508
194411
194369
194275
194399
194765
195282
194384
194393
194378
194516
194849
195187
194421
194474
194522
194674
194955
195045
194377
194474
194591
194779
195027
195097
194555
194601
194691
194872
195096
195049
194628
194648
194722
194915
195128
195296
194877
194820
194801
194987
195138
195206
194879
194865
194836
195059
195170
195472
195107
195104
194958
195149
195178
195304
195095
195106
194996
195236
195200
196055
195875
195892
195880
195804
195724
190127
191001
190715
191015
191366
192536
189941
191410
191537
192510
192986
194212
189035
191131
191377
192662
193183
194419
189246
191410
191764
193117
193634
194782
189358
191774
192265
193567
194169
195170
190133
192372
192941
194150
194785
195598
190860
192968
193560
194646
195293
195952
191611
193549
194172
195152
195757
196262
192065
193870
194589
195489
196086
196497
192363
194075
194843
195710
196312
196690
192232
193970
194835
195778
196406
196812
191921
193806
194755
195813
196466
196883
191407
193451
194315
195623
196398
196858
191080
193397
194494
195850
196474
196981
196785
195380
195075
193957
193344
192925
196761
195599
195291
194452
193999
193695
197040
195556
195141
194124
193716
193515
197264
195562
195176
194096
193655
193407
197458
195537
195083
193939
193568
193389
197581
195608
195114
193983
193639
193424
197617
195630
195124
194055
193788
193634
197606
195854
195306
194315
194075
193907
197444
195968
195409
194550
194332
194184
197616
196041
195656
194824
194614
194406
197456
196041
195758
194961
194785
194583
197878
196323
196088
195279
195146
194768
197472
196150
196204
195410
195293
194764
198372
196930
197108
196738
196804
196061
196348
195304
194875
193982
193624
193648
196241
195266
195131
194650
194501
194706
196174
194884
194788
194288
194251
194505
196228
194741
194758
194212
194186
194412
196259
194590
194660
194117
194194
194410
196363
194644
194745
194234
194351
194534
196419
194773
194879
194443
194582
194712
196505
195177
195165
194732
194816
194866
196479
195352
195353
194949
195002
194988
196531
195563
195607
195125
195111
195007
196473
195643
195616
195065
195083
194978
196940
195667
195619
195026
195081
194891
196439
195159
195296
194785
194822
194651
196856
195755
196063
195857
195907
195441
195480
194767
194076
193662
193630
193855
195008
194329
194273
194172
194202
194733
194329
193714
193638
193697
193897
194432
194167
193556
193575
193568
193808
194280
194253
193396
193495
193469
193799
194251
194523
193483
193638
193618
193941
194333
194705
193683
193844
193828
194118
194447
194925
194019
194049
194023
194284
194571
194783
194170
194281
194264
194460
194673
194885
194310
194327
194254
194437
194628
194385
193832
193918
193977
194210
194454
194148
193609
193643
193716
193937
194189
192791
193040
193129
193420
193640
193836
192335
192798
193393
194213
194272
194473
194382
194707
194797
194870
194901
194911
194878
194805
194751
194716
194731
194805
194874
195280
194778
195052
195116
195207
195235
195250
195236
195193
195163
195146
195172
195301
195465
195936
195292
195519
195562
195626
195635
195627
195611
195580
195560
195550
195589
195693
195880
196300
195843
196014
196063
196089
196074
196052
196032
196009
195997
196001
196046
196160
196319
196715
196430
196528
196564
196557
196533
196504
196481
196460
196452
196466
196528
196649
196833
197187
196963
197006
197029
197016
196990
196961
196939
196924
196927
196957
197036
197178
197387
197726
197425
197457
197470
197461
197439
197417
197399
197394
197412
197461
197561
197730
197958
198275
197897
197906
197905
197899
197883
197871
197863
197873
197905
197972
198096
198291
198530
198838
198309
198303
198304
198311
198311
198317
198329
198359
198411
198499
198640
198857
199095
199400
198756
198736
198733
198746
198762
198786
198817
198867
198936
199043
199195
199426
199665
199964
199103
199113
199139
199171
199210
199256
199313
199387
199479
199604
199767
200005
200246
200531
199578
199563
199591
199627
199682
199749
199836
199934
200048
200192
200364
200611
200850
201111
199840
199913
199944
200006
200097
200206
200339
200477
200627
200801
200983
201238
201463
201741
200350
200426
200492
200571
200675
200792
200932
201078
201239
201434
201629
201918
202119
202518
195265
195308
195227
195132
195068
194996
194930
194841
194746
194666
194638
194738
194845
195149
195696
195731
195635
195582
195503
195430
195366
195302
195243
195207
195227
195341
195477
195836
196184
196243
196160
196090
195997
195910
195838
195777
195732
195706
195730
195833
195999
196351
196760
196763
196698
196616
196517
196425
196350
196296
196262
196252
196289
196404
196569
196906
197336
197302
197231
197140
197040
196949
196875
196827
196803
196810
196862
196978
197175
197485
197898
197827
197742
197654
197559
197476
197409
197374
197366
197394
197467
197605
197824
198139
198441
198353
198254
198165
198073
198001
197944
197926
197936
197985
198084
198247
198488
198802
198984
198872
198761
198670
198587
198529
198488
198486
198514
198585
198708
198897
199155
199465
199505
199382
199267
199179
199109
199066
199045
199059
199104
199195
199337
199546
199810
200111
200021
199893
199782
199702
199650
199624
199622
199651
199711
199818
199974
200193
200459
200748
200491
200383
200290
200227
200197
200191
200212
200260
200336
200457
200623
200841
201105
201377
201012
200911
200831
200784
200777
200794
200840
200903
200992
201121
201290
201505
201766
202031
201401
201357
201312
201301
201336
201388
201471
201561
201670
201813
201987
202204
202455
202732
202072
202028
202002
201999
202041
202097
202183
202276
202390
202540
202708
202939
203166
203496
196240
196092
195865
195633
195461
195313
195183
195059
194922
194803
194701
194694
194739
194911
196706
196563
196355
196146
195960
195803
195667
195556
195451
195380
195346
195378
195448
195651
197205
197064
196887
196694
196509
196345
196203
196094
195999
195942
195922
195955
196040
196293
197778
197608
197436
197255
197074
196912
196770
196666
196582
196545
196545
196601
196704
196922
198360
198175
197993
197815
197638
197482
197346
197254
197186
197169
197185
197252
197376
197600
198962
198758
198558
198378
198202
198051
197927
197849
197804
197808
197845
197934
198087
198322
199571
199356
199136
198947
198771
198628
198517
198455
198432
198455
198515
198628
198807
199058
200179
199959
199728
199535
199361
199224
199124
199074
199067
199106
199188
199325
199534
199789
200761
200547
200318
200129
199963
199835
199748
199707
199713
199765
199866
200022
200252
200504
201333
201133
200916
200744
200594
200477
200401
200365
200378
200437
200552
200718
200963
201205
201874
201695
201501
201353
201229
201132
201072
201046
201063
201125
201244
201408
201660
201881
202450
202287
202122
202000
201905
201826
201782
201762
201783
201847
201964
202121
202380
202578
203021
202870
202739
202634
202576
202526
202507
202504
202531
202596
202712
202865
203118
203299
203725
203591
203478
203367
203321
203280
203274
203280
203317
203384
203499
203654
203882
204035
197037
196766
196529
196208
195950
195712
195513
195329
195167
194995
194820
194686
194596
194604
197482
197247
197014
196743
196487
196248
196038
195856
195692
195576
195458
195394
195346
195396
197988
197765
197538
197286
197041
196808
196596
196419
196264
196158
196066
196026
196009
196126
198586
198333
198098
197848
197605
197377
197174
197006
196866
196776
196715
196705
196732
196835
199220
198934
198677
198418
198171
197948
197756
197606
197486
197417
197381
197395
197443
197565
199874
199564
199277
199004
198750
198530
198348
198216
198119
198071
198064
198100
198177
198315
200519
200205
199895
199610
199347
199127
198953
198835
198760
198737
198754
198813
198913
199070
201144
200843
200524
200238
199968
199748
199578
199467
199411
199406
199450
199528
199655
199822
201730
201456
201151
200878
200614
200398
200232
200125
200082
200086
200147
200239
200384
200550
202302
202065
201785
201538
201286
201078
200915
200809
200773
200784
200853
200955
201112
201267
202863
202665
202419
202207
201979
201787
201632
201528
201490
201496
201561
201658
201818
201948
203467
203309
203088
202902
202698
202519
202374
202274
202236
202237
202295
202382
202543
202647
204110
203977
203786
203621
203448
203282
203149
203054
203007
202996
203043
203112
203268
203350
204804
204718
204548
204370
204215
204060
203943
203853
203809
203786
203823
203876
204011
204093
197587
197299
197049
196714
196419
196128
195880
195666
195483
195300
195090
194870
194672
194512
198056
197786
197536
197230
196936
196646
196400
196190
196013
195857
195695
195540
195385
195304
198601
198297
198039
197739
197459
197184
196941
196737
196570
196427
196286
196164
196039
196016
199254
198911
198619
198303
198011
197739
197503
197303
197147
197018
196904
196816
196742
196736
199928
199544
199222
198891
198585
198311
198081
197891
197742
197633
197542
197477
197438
197456
200593
200212
199854
199507
199186
198907
198679
198500
198361
198267
198199
198161
198157
198201
201215
200861
200491
200142
199812
199529
199300
199130
199005
198919
198875
198864
198886
198950
201805
201488
201127
200791
200459
200176
199946
199780
199666
199596
199573
199584
199630
199700
202358
202089
201757
201450
201130
200854
200623
200459
200351
200290
200280
200303
200364
200435
202915
202696
202394
202120
201817
201551
201324
201161
201057
201003
201000
201030
201099
201167
203488
203320
203052
202813
202529
202276
202051
201886
201778
201718
201712
201733
201806
201855
204113
203987
203736
203515
203247
203004
202786
202624
202516
202448
202438
202446
202526
202549
204810
204709
204473
204257
204000
203757
203542
203375
203259
203178
203158
203149
203226
203211
205559
205443
205217
204980
204734
204498
204295
204132
204017
203927
203899
203886
203939
203919
198080
197791
197521
197180
196852
196537
196273
196037
195841
195633
195411
195140
194868
194599
198625
198285
197999
197660
197335
197018
196757
196533
196343
196155
195963
195745
195509
195317
199200
198817
198505
198155
197833
197530
197270
197050
196865
196689
196511
196331
196121
195977
199850
199439
199086
198717
198380
198072
197812
197590
197409
197243
197083
196933
196768
196655
200490
200065
199688
199311
198962
198648
198385
198161
197981
197824
197682
197552
197422
197330
201090
200689
200300
199922
199568
199252
198986
198762
198580
198433
198308
198198
198102
198045
201643
201283
200905
200547
200199
199885
199615
199392
199212
199071
198960
198867
198800
198778
202181
201864
201511
201181
200846
200540
200271
200049
199873
199739
199639
199564
199525
199525
202716
202444
202123
201828
201512
201220
200954
200734
200559
200427
200333
200274
200256
200254
203280
203052
202752
202485
202187
201910
201651
201435
201262
201134
201045
200997
200992
200982
203892
203708
203421
203171
202882
202614
202359
202144
201967
201836
201747
201696
201695
201675
204557
204398
204107
203856
203573
203311
203061
202851
202675
202544
202452
202397
202403
202365
205310
205157
204857
204580
204285
204014
203764
203553
203374
203234
203137
203069
203070
202993
206083
205881
205571
205260
204963
204694
204453
204250
204077
203936
203840
203772
203756
203684
198598
198252
197948
197594
197255
196918
196631
196355
196119
195881
195644
195362
195093
194810
199176
198772
198438
198064
197714
197377
197086
196827
196598
196379
196166
195931
195679
195446
199705
199289
198941
198560
198208
197877
197589
197331
197108
196899
196695
196489
196246
196050
200282
199862
199491
199104
198749
198417
198129
197872
197652
197447
197254
197069
196854
196678
200829
200423
200049
199674
199326
199000
198711
198453
198231
198030
197845
197670
197475
197313
201350
200970
200611
200263
199927
199612
199326
199068
198843
198642
198463
198295
198124
197980
201852
201511
201175
200860
200548
200247
199965
199709
199483
199281
199104
198941
198788
198671
202374
202067
201757
201475
201184
200900
200625
200371
200144
199942
199767
199611
199470
199377
202924
202651
202361
202106
201834
201566
201298
201045
200815
200610
200434
200287
200158
200077
203520
203277
202991
202750
202488
202230
201968
201718
201487
201281
201106
200967
200854
200773
204175
203955
203660
203416
203149
202891
202629
202379
202144
201936
201758
201626
201525
201435
204863
204645
204327
204066
203789
203529
203267
203020
202789
202587
202416
202291
202205
202094
205616
205379
205032
204730
204429
204155
203891
203647
203417
203216
203049
202919
202838
202691
206333
206033
205669
205334
205028
204754
204498
204271
204059
203874
203714
203590
203506
203382
199090
198716
198388
198032
197697
197352
197034
196705
196398
196092
195808
195493
195232
194981
199609
199212
198860
198485
198135
197785
197466
197157
196865
196583
196325
196057
195795
195564
200049
199658
199316
198950
198608
198269
197956
197655
197375
197108
196859
196617
196355
196137
200526
200142
199801
199448
199119
198796
198494
198204
197933
197675
197431
197204
196951
196744
200991
200623
200293
199970
199665
199364
199074
198794
198530
198277
198037
197811
197563
197360
201467
201115
200807
200520
200243
199966
199690
199417
199156
198905
198665
198433
198201
198002
201950
201621
201340
201089
200841
200588
200324
200056
199794
199539
199296
199060
198844
198655
202476
202177
201912
201688
201462
201225
200970
200702
200434
200172
199927
199692
199488
199310
203048
202777
202520
202312
202096
201866
201612
201340
201064
200794
200545
200316
200116
199952
203672
203424
203156
202947
202725
202492
202234
201959
201679
201406
201157
200934
200738
200578
204349
204108
203816
203586
203342
203097
202830
202551
202268
201994
201745
201530
201339
201171
205031
204776
204448
204189
203922
203664
203392
203117
202841
202579
202341
202138
201960
201783
205735
205446
205083
204784
204488
204215
203939
203668
203400
203148
202918
202719
202548
202368
206373
206017
205635
205311
205010
204741
204479
204231
203985
203756
203538
203357
203195
203050
199502
199121
198785
198430
198104
197771
197456
197116
196773
196407
196062
195682
195376
195116
199940
199565
199214
198854
198522
198191
197880
197564
197237
196900
196577
196246
195935
195688
200316
199943
199618
199282
198973
198661
198360
198054
197744
197429
197115
196816
196505
196248
200731
200363
200054
199745
199462
199174
198891
198598
198299
197995
197688
197402
197096
196843
201159
200808
200516
200240
199987
199727
199461
199179
198889
198591
198290
198003
197702
197443
201619
201286
201018
200780
200554
200318
200065
199790
199501
199202
198902
198611
198323
198064
202116
201804
201559
201350
201148
200930
200685
200409
200115
199810
199507
199212
198936
198685
202661
202379
202146
201956
201766
201554
201306
201024
200720
200405
200098
199803
199544
199306
203253
202999
202767
202582
202389
202171
201913
201619
201303
200978
200669
200376
200127
199896
203892
203652
203400
203199
202986
202754
202483
202180
201859
201532
201222
200932
200689
200454
204551
204310
204025
203795
203550
203297
203013
202704
202381
202055
201751
201465
201227
200989
205201
204931
204599
204332
204056
203788
203498
203195
202883
202573
202285
202013
201787
201550
205821
205515
205146
204848
204546
204263
203971
203676
203378
203085
202808
202546
202323
202094
206366
205997
205610
205297
204996
204720
204444
204174
203900
203634
203373
203136
202917
202738
194895
195048
195053
194665
195058
195414
194200
194063
193956
193840
194448
194998
194352
194109
194003
193963
194525
194993
194479
194205
194051
193903
194231
194471
194582
194318
194142
193896
193972
193745
194622
194326
194078
193714
193563
192927
194568
194151
193776
193384
193211
192690
194466
193956
193552
193143
192946
192522
194403
193851
193433
192964
192757
192302
194336
193760
193330
192819
192734
192092
194345
193818
193479
193007
193131
192251
194503
193917
193665
193144
193618
192745
194859
194262
194317
193960
194485
193508
194470
194038
193916
193909
194900
194618
195545
195809
195780
195702
195525
195695
194908
194931
194845
194904
194868
195263
194832
194673
194535
194631
194710
195205
194725
194458
194280
194349
194430
195059
194681
194388
194230
194302
194374
195013
194614
194303
194127
194033
193909
194228
194532
194151
193836
193506
193176
193289
194427
193914
193452
192926
192448
192507
194331
193730
193217
192586
192007
192010
194253
193572
193028
192358
191799
191720
194254
193594
193089
192476
191932
191623
194333
193694
193202
192640
192262
191846
194646
194093
193836
193418
193040
192523
194393
193910
193471
193240
193365
193424
196348
196508
196572
196516
196349
196298
195761
195720
195548
195466
195438
195485
195491
195338
195147
195095
195029
195146
195190
194931
194658
194622
194666
194958
195030
194736
194486
194490
194659
195095
194880
194561
194312
194294
194415
194648
194745
194373
194073
193886
193734
193662
194605
194118
193718
193270
192869
192725
194464
193882
193376
192783
192283
192137
194348
193651
193094
192411
191895
191711
194275
193557
193039
192381
191816
191482
194264
193569
193060
192421
191942
191639
194468
193873
193504
193005
192482
192067
194204
193682
193218
192854
192772
192720
196993
197038
197168
197089
196890
196781
196461
196375
196226
196106
196039
195949
196177
196015
195829
195618
195350
195160
195777
195506
195184
194924
194647
194566
195467
195144
194793
194545
194311
194416
195193
194838
194459
194236
194119
194322
194990
194599
194167
193905
193740
193740
194806
194331
193881
193453
193047
192884
194636
194088
193542
192960
192435
192224
194482
193814
193210
192549
192023
191776
194337
193618
193043
192405
191832
191466
194213
193471
192900
192264
191740
191423
194242
193580
193141
192601
192027
191659
193894
193307
192840
192406
192215
192111
197558
197519
197532
197547
197349
197263
197058
197024
196895
196852
196725
196667
196771
196681
196506
196360
196045
195837
196351
196140
195840
195595
195213
194926
195962
195628
195231
194899
194502
194253
195603
195192
194753
194397
194020
193879
195332
194877
194395
194037
193659
193509
195099
194602
194072
193645
193122
192776
194917
194361
193770
193202
192569
192185
194736
194091
193446
192772
192151
191779
194571
193858
193218
192537
191900
191426
194380
193592
192957
192259
191682
191282
194283
193536
193026
192413
191803
191383
193795
193080
192563
192013
191741
191641
198028
197985
197927
197910
197742
197620
197564
197532
197385
197343
197165
197106
197258
197178
197003
196884
196615
196466
196865
196698
196450
196257
195944
195712
196465
196190
195847
195558
195166
194901
196071
195682
195253
194876
194468
194176
195757
195291
194793
194371
193963
193691
195488
194962
194410
193925
193387
192981
195283
194734
194101
193504
192848
192355
195066
194419
193746
193084
192414
191916
194873
194190
193520
192828
192137
191511
194644
193877
193224
192497
191864
191337
194463
193715
193193
192559
191934
191386
193915
193175
192627
192017
191658
191431
198477
198420
198342
198298
198136
198038
197983
197906
197716
197668
197518
197435
197667
197563
197362
197265
197033
196840
197283
197125
196891
196742
196439
196204
196906
196671
196378
196136
195743
195433
196506
196171
195796
195446
194997
194606
196159
195736
195279
194857
194398
194027
195841
195344
194818
194328
193780
193350
195595
195068
194455
193860
193227
192712
195336
194710
194053
193412
192764
192277
195119
194478
193831
193154
192468
191852
194896
194179
193537
192809
192156
191615
194704
193989
193458
192819
192190
191580
194153
193434
192859
192240
191825
191503
198976
198915
198865
198878
198784
198699
198453
198352
198145
198075
197936
197858
198105
197965
197732
197597
197380
197207
197712
197525
197265
197100
196829
196587
197350
197114
196820
196593
196255
195948
196961
196655
196307
195996
195608
195213
196597
196209
195796
195413
194982
194558
196222
195763
195271
194805
194291
193827
195899
195398
194827
194278
193702
193224
195565
194962
194343
193764
193213
192804
195293
194675
194093
193501
192923
192386
195047
194375
193806
193160
192579
192087
194860
194204
193726
193168
192607
192021
194372
193726
193239
192697
192285
191919
199447
199396
199368
199439
199410
199325
198907
198845
198674
198602
198463
198353
198533
198404
198165
197986
197716
197477
198113
197908
197615
197387
197069
196757
197749
197486
197153
196884
196538
196168
197374
197047
196673
196356
195943
195497
197023
196622
196198
195809
195339
194839
196639
196174
195679
195197
194628
194075
196272
195753
195181
194619
193989
193466
195874
195263
194625
194027
193431
193027
195541
194893
194309
193707
193129
192647
195220
194535
193969
193331
192766
192311
195000
194347
193873
193340
192823
192292
194533
193911
193476
192980
192580
192228
196251
196536
196949
196702
196997
196171
195990
196298
196583
196745
197435
197334
196480
196734
197064
197445
198328
198780
197011
197290
197715
198216
199184
199895
197537
197892
198425
198997
200048
200988
198111
198533
199137
199799
200880
201996
198686
199189
199860
200616