/*--------------------------------*- C++ -*----------------------------------*\
| =========                 |                                                 |
| \\      /  F ield         | OpenFOAM: The Open Source CFD Toolbox           |
|  \\    /   O peration     | Version:  v2106                                 |
|   \\  /    A nd           | Website:  www.openfoam.com                      |
|    \\/     M anipulation  |                                                 |
\*---------------------------------------------------------------------------*/
FoamFile
{
    version     2.0;
    format      ascii;
    arch        "LSB;label=32;scalar=64";
    class       volScalarField;
    location    "0.000169";
    object      alphat;
}
// * * * * * * * * * * * * * * * * * * * * * * * * * * * * * * * * * * * * * //

dimensions      [1 -1 -1 0 0 0 0];

internalField   nonuniform List<scalar> 
144746
(
9.46747e-05
8.63666e-05
7.89213e-05
7.22079e-05
6.45526e-05
5.44594e-05
4.62844e-05
4.26216e-05
4.19414e-05
4.35598e-05
4.89913e-05
6.16038e-05
8.42777e-05
0.000117368
6.50557e-05
5.39366e-05
4.40531e-05
3.59377e-05
3.05191e-05
2.55599e-05
2.29654e-05
2.36288e-05
2.62287e-05
3.05858e-05
3.84204e-05
5.34012e-05
7.90067e-05
0.00011478
4.73698e-05
3.49544e-05
2.42998e-05
1.60765e-05
1.16654e-05
9.44115e-06
9.14536e-06
1.10353e-05
1.46965e-05
2.03882e-05
2.99005e-05
4.71326e-05
7.54932e-05
0.000113345
3.84012e-05
2.4662e-05
1.37376e-05
6.57817e-06
3.55663e-06
2.67899e-06
3.02069e-06
4.58612e-06
7.75292e-06
1.33482e-05
2.35959e-05
4.22191e-05
7.18527e-05
0.00010949
3.39747e-05
1.83738e-05
7.8542e-06
2.74079e-06
1.10737e-06
7.45815e-07
1.05408e-06
2.12486e-06
4.63371e-06
1.00145e-05
2.08607e-05
4.01202e-05
6.84255e-05
0.000101174
3.18144e-05
1.45212e-05
5.30323e-06
1.99209e-06
8.57936e-07
5.10343e-07
7.22556e-07
1.64791e-06
4.02325e-06
9.43619e-06
2.01702e-05
3.80093e-05
6.23001e-05
8.87485e-05
3.28425e-05
1.35859e-05
5.50052e-06
2.71527e-06
1.41274e-06
9.57666e-07
1.23209e-06
2.41624e-06
5.24335e-06
1.10602e-05
2.14207e-05
3.70355e-05
5.68035e-05
7.73459e-05
3.78714e-05
1.56407e-05
7.86474e-06
4.65291e-06
2.87363e-06
2.20253e-06
2.62584e-06
4.29774e-06
7.78344e-06
1.40108e-05
2.37195e-05
3.71357e-05
5.341e-05
7.03385e-05
4.81732e-05
2.05374e-05
1.23104e-05
8.36006e-06
5.87604e-06
4.74586e-06
5.17603e-06
7.2716e-06
1.12541e-05
1.7615e-05
2.66414e-05
3.9191e-05
5.42901e-05
6.80534e-05
7.1665e-05
3.07783e-05
1.94026e-05
1.48759e-05
1.16226e-05
9.63176e-06
9.49724e-06
1.15231e-05
1.57589e-05
2.26257e-05
3.22018e-05
4.62841e-05
5.96175e-05
7.27249e-05
9.80507e-05
4.96876e-05
2.9996e-05
2.49994e-05
2.19898e-05
1.93712e-05
1.82772e-05
1.99172e-05
2.49955e-05
3.49451e-05
4.65937e-05
6.10072e-05
7.43318e-05
8.76613e-05
0.000120781
7.25524e-05
4.6603e-05
3.8562e-05
3.74528e-05
3.66901e-05
3.6443e-05
3.98679e-05
4.87722e-05
6.23112e-05
7.53896e-05
9.00347e-05
0.000102593
0.000114708
0.000142648
9.63753e-05
6.5899e-05
5.29479e-05
5.20245e-05
5.5772e-05
6.1798e-05
7.12677e-05
8.51168e-05
0.000101964
0.000117282
0.000130311
0.000140273
0.000150149
0.000164025
0.00011875
8.60892e-05
6.90342e-05
6.56481e-05
7.0592e-05
8.12789e-05
9.71036e-05
0.000114606
0.000132249
0.00014916
0.000161366
0.000171149
0.000181347
0.000110104
0.00010153
9.36763e-05
8.5124e-05
7.34085e-05
5.89513e-05
4.71918e-05
4.03731e-05
3.76916e-05
3.95398e-05
4.80791e-05
6.59071e-05
9.48205e-05
0.000135526
7.0884e-05
5.96063e-05
5.02706e-05
4.24852e-05
3.6481e-05
2.98155e-05
2.50375e-05
2.32107e-05
2.39146e-05
2.79639e-05
3.8182e-05
5.78717e-05
8.95768e-05
0.000132247
4.51938e-05
3.32727e-05
2.44006e-05
1.78451e-05
1.42839e-05
1.1707e-05
1.04321e-05
1.09751e-05
1.35123e-05
1.92261e-05
3.08306e-05
5.20712e-05
8.5535e-05
0.000128769
3.09114e-05
1.9241e-05
1.12647e-05
6.29517e-06
4.20698e-06
3.4175e-06
3.47241e-06
4.54154e-06
7.24968e-06
1.31083e-05
2.49977e-05
4.6502e-05
7.92563e-05
0.000119593
2.4651e-05
1.28223e-05
5.6043e-06
2.17829e-06
1.06051e-06
8.29204e-07
1.10157e-06
2.05966e-06
4.52948e-06
1.0323e-05
2.23425e-05
4.29943e-05
7.18924e-05
0.00010473
2.28938e-05
1.027e-05
3.72547e-06
1.34353e-06
5.47059e-07
3.59658e-07
6.01382e-07
1.50135e-06
3.91177e-06
9.58084e-06
2.07439e-05
3.85657e-05
6.17279e-05
8.65667e-05
2.45878e-05
1.0188e-05
3.91821e-06
1.73394e-06
8.28397e-07
5.85095e-07
8.88058e-07
1.98656e-06
4.68939e-06
1.03766e-05
2.04057e-05
3.50059e-05
5.27874e-05
7.12094e-05
2.99778e-05
1.23178e-05
5.6152e-06
2.99587e-06
1.7587e-06
1.40107e-06
1.85237e-06
3.32153e-06
6.43254e-06
1.20992e-05
2.09337e-05
3.28423e-05
4.69544e-05
6.22286e-05
4.006e-05
1.67124e-05
8.79471e-06
5.50086e-06
3.77974e-06
3.18572e-06
3.75112e-06
5.59234e-06
9.00758e-06
1.45041e-05
2.23846e-05
3.31727e-05
4.66489e-05
6.02413e-05
6.1457e-05
2.50323e-05
1.39928e-05
9.98926e-06
7.72441e-06
6.68824e-06
7.0878e-06
9.08215e-06
1.27929e-05
1.85209e-05
2.6484e-05
3.93119e-05
5.25168e-05
6.65721e-05
8.85185e-05
4.18615e-05
2.18867e-05
1.71389e-05
1.48394e-05
1.35179e-05
1.36454e-05
1.58435e-05
2.06081e-05
2.84699e-05
3.9117e-05
5.36815e-05
6.80225e-05
8.29975e-05
0.000113314
6.5354e-05
3.81547e-05
2.8427e-05
2.62158e-05
2.55351e-05
2.64032e-05
3.01495e-05
3.84437e-05
5.12881e-05
6.43319e-05
8.06485e-05
9.55534e-05
0.000110001
0.00013821
9.10424e-05
5.8428e-05
4.24614e-05
3.90339e-05
4.05645e-05
4.50104e-05
5.31253e-05
6.62922e-05
8.44846e-05
0.000102087
0.000118613
0.000132385
0.000145296
0.000162646
0.000115431
8.09188e-05
6.07451e-05
5.3861e-05
5.53157e-05
6.29203e-05
7.66773e-05
9.49158e-05
0.00011662
0.000138142
0.000154363
0.000167019
0.000180063
0.000111585
0.000102786
9.42336e-05
8.42169e-05
7.05774e-05
5.53979e-05
4.27257e-05
3.50306e-05
3.1724e-05
3.41546e-05
4.49897e-05
6.54709e-05
9.52758e-05
0.000134151
7.12599e-05
6.03468e-05
5.18056e-05
4.45651e-05
3.80178e-05
3.06145e-05
2.4336e-05
2.05428e-05
1.97991e-05
2.35085e-05
3.51419e-05
5.70671e-05
8.92842e-05
0.000129507
4.21958e-05
3.09355e-05
2.38184e-05
1.88109e-05
1.5884e-05
1.30388e-05
1.08409e-05
9.66806e-06
1.09654e-05
1.62602e-05
2.88897e-05
5.16054e-05
8.4443e-05
0.000123686
2.488e-05
1.48713e-05
9.30682e-06
6.17321e-06
4.87671e-06
4.09988e-06
3.72352e-06
4.02046e-06
5.89027e-06
1.1402e-05
2.36606e-05
4.54971e-05
7.61878e-05
0.000111287
1.75646e-05
8.48298e-06
3.81188e-06
1.77688e-06
1.12122e-06
9.57767e-07
1.10724e-06
1.79598e-06
3.88662e-06
9.33469e-06
2.1057e-05
4.08211e-05
6.66508e-05
9.44538e-05
1.60992e-05
6.78465e-06
2.38789e-06
8.32143e-07
3.42986e-07
2.60967e-07
4.67604e-07
1.21462e-06
3.34292e-06
8.53751e-06
1.88735e-05
3.51404e-05
5.51827e-05
7.57179e-05
1.77358e-05
7.07873e-06
2.50297e-06
9.45692e-07
3.94818e-07
2.9244e-07
5.44593e-07
1.41349e-06
3.66213e-06
8.57356e-06
1.74341e-05
3.03042e-05
4.53093e-05
6.02572e-05
2.22462e-05
8.87587e-06
3.54095e-06
1.61969e-06
8.60911e-07
7.10695e-07
1.06969e-06
2.15875e-06
4.56832e-06
9.17495e-06
1.66807e-05
2.68569e-05
3.8533e-05
5.07768e-05
3.05961e-05
1.23263e-05
5.49216e-06
3.06087e-06
2.00164e-06
1.75443e-06
2.23768e-06
3.5764e-06
6.10907e-06
1.03875e-05
1.6924e-05
2.56723e-05
3.61501e-05
4.94436e-05
4.68722e-05
1.86107e-05
8.81792e-06
5.77088e-06
4.36927e-06
3.95975e-06
4.50669e-06
6.08406e-06
8.84081e-06
1.31651e-05
1.95493e-05
2.89598e-05
4.13091e-05
5.63264e-05
6.94537e-05
3.08983e-05
1.41241e-05
1.04942e-05
8.90576e-06
8.40805e-06
9.06563e-06
1.10853e-05
1.47685e-05
2.03809e-05
2.8292e-05
4.11311e-05
5.58846e-05
7.20646e-05
9.09485e-05
5.24255e-05
2.77959e-05
1.86235e-05
1.67711e-05
1.65548e-05
1.80063e-05
2.14806e-05
2.77256e-05
3.67594e-05
4.74594e-05
6.37341e-05
7.90589e-05
9.44234e-05
0.000114644
7.64371e-05
4.63287e-05
3.0794e-05
2.75378e-05
2.82407e-05
3.14951e-05
3.76278e-05
4.76567e-05
6.17871e-05
7.70238e-05
9.29778e-05
0.000107955
0.000121532
0.000135206
9.85063e-05
6.89932e-05
4.96453e-05
4.22597e-05
4.17179e-05
4.62884e-05
5.6031e-05
7.07599e-05
8.9576e-05
0.000108849
0.000123952
0.000137713
0.000151442
0.000156392
0.000184707
0.000217056
0.000260378
0.000323035
0.000141771
0.00015418
0.000185501
0.000214753
0.000251074
0.000300154
0.000156427
0.000151429
0.000182029
0.000208256
0.000241752
0.000285584
0.0001731
0.000143449
0.000170861
0.00019422
0.000228504
0.000276414
0.00019324
0.000128313
0.000151507
0.000174399
0.000213171
0.000278025
0.000215768
0.000109674
0.000129161
0.000152392
0.000195395
0.000280939
0.000237395
9.29086e-05
0.000108839
0.00013095
0.000174691
0.000275346
0.000256902
8.24446e-05
9.48747e-05
0.000114299
0.000155194
0.000261328
0.000270946
7.94006e-05
9.01177e-05
0.000107525
0.000145506
0.000252798
0.000276443
8.53449e-05
9.62841e-05
0.000113113
0.000148908
0.000254214
0.000273494
0.000102131
0.000114114
0.00013117
0.000164991
0.000264829
0.000260593
0.000129058
0.000141518
0.000158698
0.000190223
0.000278799
0.000237464
0.000160751
0.000171444
0.000187315
0.00021531
0.000284824
0.000203078
0.000185687
0.00019367
0.000207399
0.000231156
0.000273081
0.000161539
0.000181814
0.000210088
0.000234169
0.000256077
0.000283267
0.000157316
0.000176946
0.000209603
0.000235253
0.000256125
0.000274864
0.000179818
0.000170262
0.000202225
0.00022693
0.000248496
0.000266426
0.000203886
0.000155182
0.000183659
0.000206007
0.000230677
0.00026028
0.000227222
0.000132237
0.000155447
0.000176416
0.000207829
0.000258407
0.000249312
0.000107069
0.00012538
0.000145174
0.000180625
0.000250488
0.000267393
8.61783e-05
0.000100419
0.000118387
0.00015365
0.000233896
0.00027767
7.39452e-05
8.49149e-05
0.000101123
0.000133872
0.000214386
0.000279961
7.15404e-05
8.12502e-05
9.65811e-05
0.000127648
0.000205595
0.000275579
7.92997e-05
8.95045e-05
0.000104936
0.00013497
0.000210301
0.000265791
9.74766e-05
0.000109056
0.000125248
0.000153954
0.000225317
0.000251098
0.000124606
0.000137476
0.000154356
0.000180529
0.000244031
0.000230567
0.000156802
0.000168647
0.000183916
0.000205189
0.000255666
0.000203907
0.000184267
0.000192857
0.000203731
0.000218674
0.000249739
0.000173625
0.000178966
0.000208591
0.000232645
0.000245007
0.000237101
0.000175881
0.000171907
0.00020602
0.000234154
0.000249751
0.000246277
0.000205396
0.000162005
0.000195357
0.000222177
0.000239848
0.000248275
0.000232239
0.000143344
0.000172251
0.000194599
0.00021339
0.000237066
0.000252914
0.000118913
0.000141506
0.000159432
0.000180037
0.000218137
0.000265834
9.37639e-05
0.000110825
0.000126199
0.000148086
0.000195512
0.000270137
7.34175e-05
8.63908e-05
0.000100749
0.000123778
0.000175572
0.000266785
6.14951e-05
7.17299e-05
8.59739e-05
0.000110289
0.000163149
0.00025881
5.96582e-05
6.84758e-05
8.27669e-05
0.000107726
0.000162482
0.000249654
6.73734e-05
7.59537e-05
9.00857e-05
0.000115184
0.00017221
0.000239058
8.32604e-05
9.25489e-05
0.000106987
0.000131914
0.000187575
0.00022763
0.000104598
0.000115695
0.000131653
0.000155564
0.000205271
0.000214754
0.00013007
0.000142472
0.000159212
0.000179198
0.000215579
0.000199448
0.000155682
0.000167911
0.000181871
0.000193455
0.000209793
0.000179828
0.000195606
0.000203329
0.000215351
0.000234807
0.000246011
0.000146461
0.000180329
0.00018572
0.000197242
0.000220992
0.000241738
0.000171611
0.000166703
0.000168759
0.000179366
0.000208332
0.000244066
0.000198747
0.000151458
0.000150788
0.000160563
0.000192564
0.00024502
0.000227059
0.000134901
0.000134221
0.000142807
0.00017468
0.000241668
0.000254311
0.000118624
0.000118724
0.000125802
0.000155899
0.000231377
0.00027727
0.000102768
0.000104939
0.000111995
0.000140541
0.000217668
0.000293247
8.87435e-05
9.36031e-05
0.000103175
0.000131675
0.000208966
0.000301804
7.97593e-05
8.76222e-05
0.000101215
0.000131875
0.00021174
0.000301163
7.79192e-05
8.99341e-05
0.000108073
0.000142184
0.000226593
0.000295078
8.61043e-05
0.000102914
0.000125367
0.000162725
0.000250179
0.000279386
0.000106631
0.000127772
0.000153463
0.000191321
0.000272607
0.000253649
0.000138696
0.000161562
0.000187001
0.000219526
0.000282398
0.000216164
0.000175194
0.000196187
0.000215219
0.000236448
0.000270297
0.000171374
0.000198471
0.000204284
0.000209014
0.000218414
0.000227748
0.00017099
0.000180763
0.000185961
0.000190449
0.000203943
0.000223
0.000199456
0.000166388
0.000168269
0.000170503
0.000187743
0.000222034
0.000227192
0.000149171
0.000148415
0.000149397
0.000168412
0.000215555
0.000252634
0.000128776
0.000128981
0.000130506
0.000149429
0.000203488
0.000272594
0.000108436
0.000110661
0.000114435
0.000133644
0.000188267
0.000285237
8.91427e-05
9.45836e-05
0.000102393
0.000123269
0.000176165
0.000290126
7.44097e-05
8.27508e-05
9.4892e-05
0.000118961
0.000172621
0.000290254
6.74507e-05
7.84902e-05
9.44832e-05
0.000122476
0.000180354
0.000285816
6.92341e-05
8.34233e-05
0.000102968
0.000134969
0.00019841
0.000277719
8.06747e-05
9.86871e-05
0.000121792
0.000157197
0.000225415
0.000264459
0.000102935
0.000125105
0.00015201
0.000187822
0.000251488
0.000243631
0.000136112
0.00016101
0.000188612
0.000217463
0.000263256
0.000214629
0.000174771
0.000199641
0.000220162
0.000233563
0.000250502
0.000180463
0.000175989
0.000188508
0.000193839
0.000193594
0.000191471
0.000184199
0.000158536
0.000172158
0.000177752
0.000180378
0.000189918
0.000212051
0.000144966
0.000157045
0.000160249
0.000164323
0.000184431
0.00023569
0.000129175
0.000139507
0.000141428
0.00014671
0.000174094
0.000253789
0.000108862
0.000120569
0.00012424
0.000131588
0.000161446
0.000263812
8.93761e-05
0.000101908
0.00010958
0.000120765
0.000151548
0.000266392
7.21327e-05
8.51315e-05
9.77529e-05
0.000114644
0.000147659
0.000264543
5.9628e-05
7.29779e-05
8.93079e-05
0.000111752
0.000149104
0.000261898
5.45289e-05
6.83248e-05
8.68946e-05
0.000113344
0.000157284
0.000258796
5.79932e-05
7.23882e-05
9.20483e-05
0.00012124
0.000172611
0.000251523
6.93894e-05
8.55549e-05
0.000106219
0.000137378
0.000194628
0.000241422
8.76716e-05
0.000106239
0.000130215
0.00016233
0.000217017
0.000226791
0.000113083
0.000134538
0.000162271
0.000191234
0.000230682
0.000208184
0.00014375
0.000168901
0.000195679
0.000212254
0.000222096
0.000184978
0.000180814
0.000334747
0.000220334
0.00016533
0.000128752
0.000104026
0.000218404
0.000283351
0.000168107
0.000121143
9.40419e-05
7.71906e-05
0.000242925
0.000225991
0.000130706
9.32322e-05
7.30713e-05
5.9838e-05
0.000259624
0.000187141
0.000110405
8.0137e-05
6.37876e-05
5.17133e-05
0.000271839
0.000168618
0.000104012
7.85635e-05
6.37082e-05
5.02062e-05
0.000280187
0.000165664
0.00010828
8.623e-05
7.13885e-05
5.36959e-05
0.000281551
0.000172727
0.000120064
0.000100809
8.56757e-05
6.22435e-05
0.000277555
0.000185768
0.000135931
0.000119539
0.000106301
7.64579e-05
0.000266502
0.0002009
0.000152999
0.000138902
0.000130701
9.75696e-05
0.000249223
0.000213933
0.000170081
0.000157578
0.000153255
0.000122719
0.000227434
0.000222654
0.000186288
0.000174931
0.000172972
0.000146996
0.000203309
0.00022893
0.000202649
0.000192991
0.000190309
0.000166057
0.000178876
0.00023403
0.000218605
0.00020974
0.000204832
0.000182686
0.000155272
0.00024202
0.000235834
0.000228199
0.000222704
0.000204094
0.000179335
0.000302137
0.000233728
0.000188672
0.00014938
0.000120547
0.000209722
0.00026041
0.000178979
0.000134754
0.000104581
8.49754e-05
0.000230168
0.000208601
0.000134671
9.71151e-05
7.49258e-05
5.98069e-05
0.000244547
0.000170289
0.00010778
7.6439e-05
5.86123e-05
4.52828e-05
0.000256799
0.000149523
9.62161e-05
6.93631e-05
5.29609e-05
3.94019e-05
0.000266355
0.000142255
9.69477e-05
7.34289e-05
5.65544e-05
4.03575e-05
0.000271679
0.000145498
0.000106912
8.70006e-05
6.87016e-05
4.7349e-05
0.000273918
0.000155315
0.000122316
0.000108075
8.95496e-05
6.04958e-05
0.000271214
0.000169229
0.000139532
0.000132582
0.000117556
8.0679e-05
0.000262085
0.000184767
0.000157269
0.000156492
0.000147026
0.00010879
0.000245705
0.000198262
0.000175825
0.000178176
0.000173161
0.000138324
0.00022393
0.000208285
0.000194869
0.000198627
0.000194803
0.000161836
0.000199852
0.000214417
0.000212152
0.000216567
0.000211473
0.000182077
0.000174819
0.000221438
0.000228637
0.000235305
0.000232348
0.000208354
0.00018193
0.000264032
0.000225207
0.000184618
0.000146671
0.000119657
0.000200887
0.000234839
0.000173175
0.000131894
0.000102421
8.34711e-05
0.0002166
0.000194267
0.000129451
9.36055e-05
7.1538e-05
5.63957e-05
0.000230292
0.000162577
0.000102563
7.12432e-05
5.29105e-05
3.92078e-05
0.000241
0.000141152
9.09633e-05
6.2448e-05
4.47837e-05
3.12226e-05
0.000247607
0.000131664
9.12792e-05
6.46921e-05
4.58636e-05
3.05699e-05
0.000252808
0.000131309
0.000100486
7.64804e-05
5.48926e-05
3.53758e-05
0.000256781
0.000137088
0.000115517
9.69211e-05
7.1859e-05
4.52074e-05
0.00025962
0.000146266
0.000132481
0.000122861
9.63609e-05
6.10653e-05
0.000259482
0.00015839
0.000149864
0.000148313
0.000124703
8.58481e-05
0.000252153
0.00017339
0.000167578
0.000170494
0.00015124
0.000112935
0.000236151
0.000186361
0.000185309
0.00018909
0.000171528
0.000133237
0.000213675
0.000194296
0.000200592
0.00020433
0.000187159
0.000152492
0.000187386
0.000199126
0.000215466
0.000221432
0.000206554
0.000176366
0.000169582
0.00031991
0.000216359
0.000169409
0.000141891
0.000124041
0.000208224
0.000286014
0.000171486
0.000129605
0.000107658
9.42679e-05
0.000234892
0.000246562
0.000137947
0.000101477
8.35536e-05
7.22788e-05
0.000252956
0.000221174
0.00012104
8.7098e-05
7.06868e-05
6.00141e-05
0.000264975
0.000213679
0.000119507
8.55875e-05
6.82183e-05
5.62088e-05
0.000270564
0.000221874
0.000132012
9.6424e-05
7.52371e-05
5.86447e-05
0.000269144
0.000238414
0.000155789
0.000117929
9.06365e-05
6.58756e-05
0.00026006
0.000254488
0.000183774
0.000146378
0.000113349
7.76511e-05
0.000245238
0.00026184
0.000207044
0.000174795
0.000139233
9.40403e-05
0.000226182
0.000265078
0.000226273
0.000199858
0.000162711
0.000110688
0.000206547
0.000269941
0.000242974
0.00021892
0.000178957
0.000122852
0.000186566
0.000287879
0.000257063
0.000228012
0.0001842
0.000128591
0.000168937
0.000312003
0.000266838
0.00022824
0.000183228
0.000133096
0.000153348
0.000345157
0.000274642
0.000224651
0.000180031
0.000138104
0.000167433
0.000278338
0.000219146
0.000187695
0.000162117
0.000142558
0.000197241
0.000246692
0.00017549
0.000142615
0.000120566
0.000105809
0.000220134
0.000209783
0.000137183
0.000106632
8.89217e-05
7.73149e-05
0.000238141
0.000183137
0.000113177
8.43796e-05
6.93831e-05
5.93739e-05
0.000254107
0.000172205
0.000104754
7.64558e-05
6.15449e-05
5.12471e-05
0.000267039
0.000177085
0.000111532
8.24913e-05
6.49886e-05
5.15435e-05
0.00027512
0.000194732
0.000132834
0.000102833
8.0069e-05
5.94653e-05
0.000275963
0.000217722
0.000164463
0.000135743
0.000106532
7.45307e-05
0.000268071
0.000237054
0.000198028
0.000173967
0.000140083
9.62421e-05
0.000253157
0.000248943
0.000228378
0.000211224
0.000173897
0.00012064
0.000233844
0.000256679
0.000253545
0.000241644
0.000200426
0.000140946
0.000212115
0.000268135
0.000273999
0.000259172
0.000213371
0.000152073
0.000189849
0.000283206
0.000283048
0.000261202
0.000214984
0.000158139
0.000167708
0.000304831
0.000283482
0.000254509
0.000212143
0.000164624
0.000170137
0.00023925
0.000213433
0.000185462
0.000159328
0.000139509
0.000186849
0.000220081
0.000171681
0.000139875
0.000118047
0.000103718
0.000200977
0.000188196
0.000131478
0.000102992
8.61894e-05
7.52114e-05
0.000214677
0.00016158
0.000104707
7.87008e-05
6.48565e-05
5.56714e-05
0.000228699
0.000144394
9.24045e-05
6.75918e-05
5.40627e-05
4.50235e-05
0.000241412
0.000138701
9.33351e-05
6.89788e-05
5.39168e-05
4.32123e-05
0.00025367
0.000145676
0.000106799
8.35876e-05
6.50006e-05
4.93457e-05
0.000265
0.000164948
0.000131661
0.000111401
8.77805e-05
6.31017e-05
0.000272817
0.000191132
0.00016476
0.000147724
0.000119013
8.43704e-05
0.000271923
0.000219567
0.000202599
0.000187432
0.000153197
0.000109134
0.000260659
0.000244528
0.000239038
0.000223015
0.000182728
0.000131789
0.00024164
0.000261804
0.000265504
0.000246388
0.000201222
0.000146691
0.000215812
0.000264139
0.000275901
0.000253822
0.000207195
0.000155257
0.000186189
0.000264036
0.000271273
0.000248381
0.000207772
0.000163751
7.30721e-05
6.48724e-05
5.78198e-05
5.16903e-05
4.46329e-05
3.73598e-05
3.07455e-05
2.53796e-05
2.25201e-05
2.32969e-05
3.04823e-05
4.4772e-05
6.52842e-05
9.26787e-05
4.63053e-05
3.753e-05
3.16396e-05
2.76028e-05
2.41855e-05
2.05758e-05
1.72042e-05
1.42305e-05
1.25258e-05
1.41095e-05
2.13567e-05
3.62666e-05
5.83294e-05
8.68209e-05
2.66273e-05
1.80928e-05
1.37359e-05
1.13719e-05
1.00825e-05
8.77815e-06
7.50104e-06
6.4156e-06
6.27502e-06
8.72752e-06
1.64756e-05
3.15326e-05
5.37485e-05
8.16376e-05
1.4929e-05
7.79085e-06
4.70562e-06
3.43634e-06
2.99115e-06
2.68461e-06
2.44721e-06
2.40638e-06
3.17412e-06
6.10191e-06
1.34871e-05
2.74822e-05
4.81808e-05
7.35048e-05
1.05182e-05
4.25583e-06
1.70127e-06
8.56918e-07
6.30104e-07
5.78272e-07
6.35616e-07
9.39201e-07
2.01819e-06
5.11167e-06
1.22138e-05
2.49676e-05
4.29912e-05
6.41692e-05
1.013e-05
3.67253e-06
1.1401e-06
3.61119e-07
1.46659e-07
1.20079e-07
2.17176e-07
5.89808e-07
1.75503e-06
4.82696e-06
1.13775e-05
2.24506e-05
3.73702e-05
5.39762e-05
1.14489e-05
4.06609e-06
1.2579e-06
3.81532e-07
1.30632e-07
9.62133e-08
2.14811e-07
6.50775e-07
1.90235e-06
4.91606e-06
1.08369e-05
2.02247e-05
3.22744e-05
4.506e-05
1.42233e-05
5.17211e-06
1.73344e-06
6.2914e-07
2.83816e-07
2.3603e-07
3.99919e-07
9.35219e-07
2.28459e-06
5.19595e-06
1.04632e-05
1.83647e-05
2.81309e-05
3.85087e-05
1.87864e-05
6.99669e-06
2.60163e-06
1.25308e-06
7.67077e-07
6.91682e-07
9.30797e-07
1.59809e-06
3.02289e-06
5.75882e-06
1.04096e-05
1.71696e-05
2.56143e-05
3.52803e-05
2.65077e-05
1.00417e-05
4.18792e-06
2.56829e-06
1.95806e-06
1.86423e-06
2.22226e-06
3.09011e-06
4.66681e-06
7.33268e-06
1.1585e-05
1.7848e-05
2.61188e-05
3.72217e-05
3.75941e-05
1.58316e-05
7.10582e-06
5.17087e-06
4.51198e-06
4.49407e-06
5.08025e-06
6.30005e-06
8.3136e-06
1.14315e-05
1.62322e-05
2.3565e-05
3.31123e-05
4.72162e-05
5.06858e-05
2.80827e-05
1.37691e-05
1.00303e-05
9.40252e-06
9.73978e-06
1.09496e-05
1.30253e-05
1.62013e-05
2.07795e-05
2.71903e-05
3.66531e-05
4.79812e-05
6.28054e-05
6.75505e-05
4.38448e-05
2.5364e-05
1.81619e-05
1.75698e-05
1.8452e-05
2.08154e-05
2.44036e-05
2.94506e-05
3.61447e-05
4.43134e-05
5.50665e-05
6.76872e-05
8.03085e-05
8.20918e-05
6.12603e-05
4.34045e-05
3.24319e-05
2.94564e-05
3.05075e-05
3.3714e-05
3.92082e-05
4.65326e-05
5.57633e-05
6.60805e-05
7.65536e-05
8.85676e-05
0.000100111
4.31215e-05
3.75284e-05
3.37113e-05
3.08342e-05
2.80687e-05
2.5099e-05
2.21139e-05
1.91908e-05
1.67948e-05
1.63351e-05
1.97219e-05
2.80983e-05
4.08226e-05
5.69419e-05
2.66467e-05
2.0365e-05
1.70794e-05
1.52476e-05
1.40743e-05
1.28117e-05
1.14667e-05
9.98507e-06
8.83566e-06
8.98212e-06
1.24276e-05
2.09528e-05
3.46769e-05
5.25177e-05
1.52235e-05
9.3057e-06
6.76355e-06
5.72496e-06
5.31218e-06
4.95355e-06
4.57666e-06
4.14014e-06
4.0232e-06
5.06467e-06
8.96987e-06
1.76748e-05
3.18115e-05
5.00043e-05
9.15719e-06
4.1487e-06
2.21289e-06
1.60578e-06
1.43756e-06
1.372e-06
1.3482e-06
1.40068e-06
1.81441e-06
3.29588e-06
7.28696e-06
1.55989e-05
2.90674e-05
4.64718e-05
7.21659e-06
2.60204e-06
9.00712e-07
4.10072e-07
2.88405e-07
2.73216e-07
3.1981e-07
4.95744e-07
1.0641e-06
2.71089e-06
6.76524e-06
1.479e-05
2.72763e-05
4.29384e-05
7.11151e-06
2.38315e-06
7.00102e-07
2.05743e-07
7.41686e-08
5.70056e-08
1.07605e-07
3.03658e-07
9.26306e-07
2.65568e-06
6.66815e-06
1.41503e-05
2.5283e-05
3.88534e-05
7.83527e-06
2.61901e-06
7.77752e-07
2.19389e-07
6.97059e-08
4.84884e-08
1.09034e-07
3.4175e-07
1.04642e-06
2.86887e-06
6.77901e-06
1.35975e-05
2.32847e-05
3.48419e-05
9.31406e-06
3.22292e-06
1.0337e-06
3.4732e-07
1.49277e-07
1.23081e-07
2.0822e-07
5.0282e-07
1.30621e-06
3.19216e-06
6.91424e-06
1.30275e-05
2.14167e-05
3.12551e-05
1.17477e-05
4.22323e-06
1.53605e-06
7.07324e-07
4.28409e-07
3.88532e-07
5.20669e-07
9.07422e-07
1.80538e-06
3.68082e-06
7.13442e-06
1.25874e-05
1.99506e-05
2.86441e-05
1.56465e-05
5.8159e-06
2.54918e-06
1.55307e-06
1.18452e-06
1.12753e-06
1.32427e-06
1.83366e-06
2.84334e-06
4.70661e-06
7.90334e-06
1.28667e-05
1.96873e-05
2.82516e-05
2.15925e-05
8.61884e-06
4.54374e-06
3.38274e-06
2.9549e-06
2.90733e-06
3.21371e-06
3.91148e-06
5.14727e-06
7.19682e-06
1.05021e-05
1.56149e-05
2.26421e-05
3.22446e-05
3.05414e-05
1.50797e-05
8.35332e-06
6.94157e-06
6.6023e-06
6.74716e-06
7.36116e-06
8.47365e-06
1.02802e-05
1.30431e-05
1.71558e-05
2.33259e-05
3.11989e-05
4.21452e-05
4.31257e-05
2.53405e-05
1.53394e-05
1.30798e-05
1.3008e-05
1.37077e-05
1.50327e-05
1.69841e-05
1.98453e-05
2.38211e-05
2.90824e-05
3.63233e-05
4.49358e-05
5.5748e-05
5.54539e-05
3.99443e-05
2.86845e-05
2.3524e-05
2.27736e-05
2.40279e-05
2.64753e-05
2.97131e-05
3.39494e-05
3.92141e-05
4.53067e-05
5.24182e-05
6.10634e-05
7.02285e-05
2.172e-05
1.75794e-05
1.57491e-05
1.47366e-05
1.43844e-05
1.3941e-05
1.33579e-05
1.24305e-05
1.13857e-05
1.06148e-05
1.13915e-05
1.52545e-05
2.22614e-05
3.20868e-05
1.28632e-05
8.68831e-06
7.00501e-06
6.34795e-06
6.21771e-06
6.12638e-06
6.00539e-06
5.67944e-06
5.28431e-06
5.21619e-06
6.43048e-06
1.01672e-05
1.7222e-05
2.77529e-05
7.58893e-06
3.88348e-06
2.51779e-06
2.12322e-06
2.05437e-06
2.05057e-06
2.05665e-06
2.02322e-06
2.06823e-06
2.52947e-06
4.17868e-06
8.10648e-06
1.53597e-05
2.63342e-05
5.30703e-06
1.9973e-06
8.51899e-07
5.61653e-07
5.03674e-07
5.03879e-07
5.28869e-07
5.93613e-07
8.13288e-07
1.47394e-06
3.21403e-06
7.05453e-06
1.41585e-05
2.51066e-05
4.62138e-06
1.48174e-06
4.43919e-07
1.66605e-07
1.01068e-07
9.41054e-08
1.16933e-07
1.97773e-07
4.48791e-07
1.16354e-06
2.97984e-06
6.91664e-06
1.40345e-05
2.47041e-05
4.48718e-06
1.39145e-06
3.94323e-07
1.08138e-07
3.31506e-08
2.1261e-08
4.13774e-08
1.24314e-07
3.93644e-07
1.16643e-06
3.08148e-06
7.07415e-06
1.3996e-05
2.40351e-05
4.66995e-06
1.48511e-06
4.30455e-07
1.14599e-07
3.36475e-08
2.06904e-08
4.44559e-08
1.43041e-07
4.5801e-07
1.32725e-06
3.36654e-06
7.37963e-06
1.39999e-05
2.3224e-05
5.29329e-06
1.77428e-06
5.43523e-07
1.70175e-07
7.08617e-08
5.7154e-08
9.15996e-08
2.19777e-07
5.97777e-07
1.56858e-06
3.70062e-06
7.6605e-06
1.38977e-05
2.23251e-05
6.39943e-06
2.25117e-06
7.91156e-07
3.47832e-07
2.11203e-07
1.93448e-07
2.48873e-07
4.2392e-07
8.76551e-07
1.93391e-06
4.10676e-06
7.95057e-06
1.38045e-05
2.15667e-05
8.11228e-06
3.01428e-06
1.36438e-06
8.22957e-07
6.27902e-07
5.95472e-07
6.81408e-07
9.26084e-07
1.46684e-06
2.59202e-06
4.7398e-06
8.40674e-06
1.39144e-05
2.11995e-05
1.05046e-05
4.45399e-06
2.63054e-06
1.97313e-06
1.69904e-06
1.63615e-06
1.75657e-06
2.10222e-06
2.77722e-06
4.01635e-06
6.20097e-06
9.80482e-06
1.51054e-05
2.21834e-05
1.53097e-05
7.44139e-06
5.18675e-06
4.45175e-06
4.12517e-06
4.06081e-06
4.24936e-06
4.74508e-06
5.65159e-06
7.1563e-06
9.56066e-06
1.33492e-05
1.86487e-05
2.59135e-05
2.30618e-05
1.29876e-05
9.82082e-06
9.05101e-06
8.86588e-06
8.9716e-06
9.38793e-06
1.01622e-05
1.14597e-05
1.3487e-05
1.64393e-05
2.07831e-05
2.63149e-05
3.39562e-05
3.32065e-05
2.35133e-05
1.805e-05
1.65841e-05
1.66789e-05
1.73661e-05
1.84047e-05
1.97749e-05
2.16934e-05
2.42782e-05
2.75887e-05
3.22732e-05
3.81213e-05
4.56588e-05
9.97667e-06
7.19512e-06
6.16677e-06
5.77014e-06
5.90938e-06
6.157e-06
6.47275e-06
6.62978e-06
6.56567e-06
6.35013e-06
6.43896e-06
7.75437e-06
1.1099e-05
1.66015e-05
5.95582e-06
3.34537e-06
2.42078e-06
2.14438e-06
2.16159e-06
2.25494e-06
2.39185e-06
2.4917e-06
2.54918e-06
2.61854e-06
3.08783e-06
4.60366e-06
7.85897e-06
1.3242e-05
3.90619e-06
1.56717e-06
8.0194e-07
6.21469e-07
6.01442e-07
6.22511e-07
6.6229e-07
7.10277e-07
8.03031e-07
1.04236e-06
1.72758e-06
3.34285e-06
6.53744e-06
1.20106e-05
3.16716e-06
9.81665e-07
3.07779e-07
1.55574e-07
1.26334e-07
1.26029e-07
1.38459e-07
1.71065e-07
2.67342e-07
5.34459e-07
1.21288e-06
2.74585e-06
5.84473e-06
1.14055e-05
2.84181e-06
8.17515e-07
2.15942e-07
6.3409e-08
2.66408e-08
2.04589e-08
2.68817e-08
5.41025e-08
1.42169e-07
3.98279e-07
1.07162e-06
2.65201e-06
5.91558e-06
1.17665e-05
2.64792e-06
7.70881e-07
2.10775e-07
5.35742e-08
1.3525e-08
5.70866e-09
1.0692e-08
3.61874e-08
1.24517e-07
3.94852e-07
1.12442e-06
2.83991e-06
6.31863e-06
1.23916e-05
2.63524e-06
8.11653e-07
2.26571e-07
5.62792e-08
1.50128e-08
7.43329e-09
1.33859e-08
4.32102e-08
1.47444e-07
4.6542e-07
1.3074e-06
3.22186e-06
6.94369e-06
1.31554e-05
2.92224e-06
9.51468e-07
2.73787e-07
7.95554e-08
3.1863e-08
2.44651e-08
3.41082e-08
7.49806e-08
2.08755e-07
5.95968e-07
1.57353e-06
3.68923e-06
7.60112e-06
1.38034e-05
3.47062e-06
1.17387e-06
3.87098e-07
1.61583e-07
9.83444e-08
9.04429e-08
1.08734e-07
1.70367e-07
3.49032e-07
8.24951e-07
1.94915e-06
4.24877e-06
8.27648e-06
1.43564e-05
4.25658e-06
1.55061e-06
6.93778e-07
4.10973e-07
3.11313e-07
2.94796e-07
3.27757e-07
4.27084e-07
6.70948e-07
1.2476e-06
2.50264e-06
4.90535e-06
8.92485e-06
1.48093e-05
5.32015e-06
2.38879e-06
1.46297e-06
1.08848e-06
9.14176e-07
8.60411e-07
9.03897e-07
1.06321e-06
1.40368e-06
2.09084e-06
3.44003e-06
5.89239e-06
9.85018e-06
1.5481e-05
7.47978e-06
4.22364e-06
3.17691e-06
2.69718e-06
2.4047e-06
2.274e-06
2.29877e-06
2.51731e-06
2.98552e-06
3.82444e-06
5.27373e-06
7.72735e-06
1.15456e-05
1.69557e-05
1.15551e-05
7.69124e-06
6.46041e-06
5.95771e-06
5.59146e-06
5.39729e-06
5.37711e-06
5.6154e-06
6.21184e-06
7.27774e-06
8.96635e-06
1.15879e-05
1.53112e-05
2.05998e-05
1.90579e-05
1.39984e-05
1.20333e-05
1.15517e-05
1.14138e-05
1.13658e-05
1.1434e-05
1.17068e-05
1.23582e-05
1.35865e-05
1.55298e-05
1.85147e-05
2.23604e-05
2.78068e-05
4.71325e-06
2.89871e-06
2.25872e-06
2.03632e-06
2.10567e-06
2.31383e-06
2.64205e-06
2.99919e-06
3.29538e-06
3.41344e-06
3.47191e-06
3.86175e-06
5.40006e-06
8.57269e-06
2.94324e-06
1.29816e-06
7.74559e-07
6.44745e-07
6.50419e-07
7.11187e-07
8.17728e-07
9.48726e-07
1.08297e-06
1.18903e-06
1.38951e-06
1.99916e-06
3.5317e-06
6.40153e-06
2.13408e-06
6.66139e-07
2.40282e-07
1.574e-07
1.50017e-07
1.62836e-07
1.88433e-07
2.24913e-07
2.80268e-07
3.84278e-07
6.502e-07
1.30423e-06
2.70965e-06
5.33979e-06
1.82259e-06
4.82046e-07
1.14311e-07
4.011e-08
2.7028e-08
2.70996e-08
3.2536e-08
4.52913e-08
7.88203e-08
1.71255e-07
4.14338e-07
9.95571e-07
2.26631e-06
4.81189e-06
1.6035e-06
4.1957e-07
1.00857e-07
2.47548e-08
7.20863e-09
4.01601e-09
5.60439e-09
1.33914e-08
3.96183e-08