/*--------------------------------*- C++ -*----------------------------------*\
| =========                 |                                                 |
| \\      /  F ield         | OpenFOAM: The Open Source CFD Toolbox           |
|  \\    /   O peration     | Version:  v2106                                 |
|   \\  /    A nd           | Website:  www.openfoam.com                      |
|    \\/     M anipulation  |                                                 |
\*---------------------------------------------------------------------------*/
FoamFile
{
    version     2.0;
    format      ascii;
    arch        "LSB;label=32;scalar=64";
    class       volScalarField;
    location    "0.000169";
    object      epsilon;
}
// * * * * * * * * * * * * * * * * * * * * * * * * * * * * * * * * * * * * * //

dimensions      [0 2 -3 0 0 0 0];

internalField   nonuniform List<scalar> 
144746
(
157873
143141
133513
123117
106347
82925.5
64488.7
55810.5
54639.4
59797.7
71605
92632.2
127107
183615
106898
87489.3
71915.9
58429.3
48503.1
38018.1
31636.3
30459
33126.6
40636.1
55440.6
80387.7
118986
174629
74103
52417.4
35885.8
23701.1
17400.1
13593.1
12283.1
13808.1
18079.8
26832.4
43494.9
72255.6
116386
174848
54372.2
32422.7
17453.5
8335.88
4719.03
3568.68
3774.85
5408.1
9320
17630.7
34384
64346.8
110391
168484
45141.1
22534.7
9140.49
2986.72
1189.64
841.201
1180.7
2416.19
5696.83
13571
30177.4
59358.3
101511
149431
42733.2
17967
5841.89
1830.15
736.611
470.065
750.672
1886.49
5010.57
12491.3
27485.4
52184.1
85905
122597
47965.3
17429.6
5649.46
2405.93
1238.99
876.519
1235.53
2662.17
6188.33
13614.5
26907.7
47216.5
73864.9
101976
62877.4
20961.6
7955.65
4319.25
2677.89
2079.97
2555.75
4429.47
8467.49
15871.7
27837.3
45587.3
68813
93714
91777.9
29103.9
12897.3
8202.28
5832.55
4744.43
5127.17
7300.77
11722.8
19342
31316.9
50422.3
74829.3
97211.8
155357
50420.3
21823.2
15536.1
12385.7
10553.5
10423.7
12631.2
17797
27688.4
43090.7
68228.7
91620.4
113701
228321
95737.8
40268.2
27789.6
25047.8
23329.7
23147.4
26382.2
35090.8
53841
75903.9
104031
126189
146789
278845
150043
78713.4
51450.9
46342.5
47249.8
50775.5
61090.7
82126.4
114941
143264
171221
187909
202940
321547
203397
123898
83060.2
71620
75995.1
90717.4
117511
156223
203408
241445
262837
268499
278946
371080
251273
168624
120882
102211
102779
120982
158879
205958
252720
294963
312583
319658
340545
197485
182960
171504
154606
126105
92670
68415.6
56366.2
54543
62804
82215.8
113057
156255
221042
129754
107906
90769
75085.7
61690.7
46838.9
36732.7
32344.1
33401.4
42386.8
63562.3
98681.7
148908
215346
81063.9
57345.3
41490.8
29899.6
23511.9
18269.6
15173.3
14911.6
18340.7
28786.8
51277.2
89444.9
144727
213528
49584.9
28583.3
16419.5
9260.36
6389.37
5066.25
4769.46
5822.52
9567.69
19403.8
40667.8
77634.8
131071
195285
34823.7
16590.7
6932.78
2626.72
1350.13
1085.7
1365.36
2542.46
6110.24
15419
35267.5
68219
112519
162249
31112.8
12942.9
4143.05
1266.65
501.942
368.819
683.494
1866.89
5291.44
13722.7
30324.9
55938.9
88666.8
124708
35473.3
13187.2
4020.31
1534.79
729.214
554.297
955.17
2364.37
5965.69
13702
27276.9
46775.1
71120
98282.2
48713.1
16590.7
5665.26
2785.64
1643.14
1337.49
1875.39
3630.54
7461.72
14581.4
25947.4
42073
62921.9
88666
75019.8
23901.9
9235.39
5430.45
3760.03
3172.67
3748.39
5784.67
9784.15
16641.9
27462.1
44808.5
68755.7
96247.5
135098
41019.3
15910.6
10530.5
8253.12
7264.66
7689.52
9965.11
14707.6
23254.9
36796.1
62419.1
89696.6
120301
217062
82216.7
28580.6
19229.9
16984.5
16183.4
17061.6
20797.8
29145.1
44832.6
67011.9
100176
130398
161042
282666
143977
67696.3
38116.3
32378.8
32629
36115.6
45064.5
64026.5
96658
128710
167077
195654
219598
342437
211663
120136
69392.4
53342
54022.7
64018.3
84817.4
120084
173448
223679
261240
280581
295978
403787
270836
177467
117078
87556.4
80263.6
92414.3
126083
177618
242941
306588
338252
348059
366591
214397
197416
181409
158041
123559
89157.2
64514.9
52298.3
50957.3
62505.3
89896
129706
175163
228700
144374
120071
101408
84280.4
67691.2
50671.1
38007.2
30979.8
30536
40469.4
67164.1
110891
164774
222670
85518.4
59981.9
45249.8
34709.6
28153.5
21740.4
16940.2
14267.4
16467.6
27705.8
54863.8
100097
157105
215303
45378.5
25194.5
15628.1
10381.4
8199.26
6601.71
5576.33
5634.07
8603.09
18980.4
43113.2
84160.7
135765
187851
26963.1
11873
5196.12
2471.93
1668.38
1416.75
1523.77
2428.41
5783.98
15390.1
36488.1
70420.7
110409
149981
22712.6
8804.33
2702.35
836.278
368.841
315.508
590.303
1651.7
4937.48
13324.9
30002.5
54854.8
82987
111107
25783.7
9279.25
2566.77
838.71
352.802
297.161
645.732
1848.08
5092.28
12338.2
25298.8
43316.2
63279.6
84257
35373.3
12003.9
3569.51
1515.42
810.83
698.116
1159.52
2569.58
5785.38
12045.9
22327.8
36266.8
52904.6
73836.5
55085.6
17758.2
5785.88
3064.54
2010.08
1756.15
2297.73
3900.01
7084.23
12703
21861.7
35710.7
54566.9
84948.8
99353.4
30647.3
10112.8
6209.54
4732.97
4297.81
4880.07
6744.41
10368.1
16841.8
28018
47887.2
76343.8
117118
167848
59966.2
17916.2
12130.9
10484.9
10240.3
11428.3
14687.8
21236.8
32634.2
50353.8
83140.9
121158
165589
228266
119205
50307.5
24396.4
21326.6
21887.6
25498.1
33183.9
47546.8
70696.4
98696.9
142823
181480
218138
295931
190523
100915
49621.1
37016.9
38232.2
45565.8
60155.5
85810.9
127282
173044
215140
247886
272410
349592
250722
167289
102342
69182.6
58651.5
65484.7
88515.7
128945
188513
251675
286754
307889
332074
269493
365141
543660
884186
1.62043e+06
570482
245708
321218
440361
665907
1.12299e+06
444880
235022
290805
376271
555328
909967
391369
216522
255086
316933
475551
807809
392392
182821
207509
256818
410510
831882
429496
147343
166698
209793
352917
899261
493463
121322
138702
176372
299302
940962
581189
110342
124431
156342
264110
931776
680387
113023
123855
151250
252457
942196
774588
129501
139756
166898
269413
990959
864908
164252
176746
208519
319726
1.07284e+06
945072
219692
235345
275452
400777
1.14759e+06
992380
287624
302529
349885
485818
1.14075e+06
955955
339257
351712
405542
542280
991967
826422
306185
368246
462443
636387
1.03726e+06
773711
286402
340203
406844
521858
758491
667660
274050
316081
368311
463666
639959
634125
244548
277111
319153
413932
611396
643331
198445
222268
261597
369725
659209
673936
153541
173781
211985
318721
702215
709328
121998
140156
174953
267678
697401
738370
109459
123894
153607
232773
655699
755583
115851
126349
151020
223161
642120
770821
139206
147711
169327
238431
673996
796767
179486
188363
210024
278998
740076
839470
235230
245683
269592
340851
813858
895725
301634
308020
329999
402302
844481
948806
356446
351983
367895
440512
777463
1.00589e+06
291010
328546
363543
426290
606030
1.11631e+06
276486
316981
352278
401232
537764
1.02184e+06
261399
297303
325502
363356
480457
951686
227299
258481
280466
314578
430789
883056
181533
208025
230938
271794
399694
809261
137487
162184
191504
240306
381832
730543
106261
128222
162012
216692
367693
652394
94459.7
111879
145662
203714
353154
595808
105612
117825
147394
202600
352875
574329
136911
144123
166544
214038
369214
587790
180794
185868
201881
240128
396254
638040
226420
234424
249038
278297
443469
738948
275343
284382
296489
317265
491075
902218
327147
330540
333331
348737
512389
1.13081e+06
352525
370950
435209
564589
751351
617430
301684
295937
337354
443949
593843
576649
271732
247246
278709
389567
575532
588243
242890
210250
236835
350199
600167
634378
210787
185128
207307
312165
631562
702809
181740
167832
184324
273211
641875
776854
154025
154006
168590
246797
634207
845246
132628
141669
160464
237137
643012
907853
123543
137504
163653
246739
700700
975341
128850
148858
184356
282223
818173
1.05202e+06
153892
182287
228989
348342
981641
1.13109e+06
205506
244519
303759
443310
1.12325e+06
1.17696e+06
286876
333263
396270
537185
1.14827e+06
1.12165e+06
385659
425460
470486
585196
989546
961164
376429
361443
377060
457225
656044
971671
332970
304811
303618
365487
521821
912203
313989
268780
258126
321201
499490
891170
283948
234906
224474
287693
497524
887834
236751
203503
201037
259657
492103
880828
188557
174450
183371
239418
473572
859432
142606
148672
170336
229833
457390
831204
113649
131669
163166
228852
466775
817596
108514
132635
170052
242062
516691
833317
125418
153530
194955
275041
610589
873998
162555
195878
241871
332147
750091
942245
221645
263626
317416
413380
879175
1.01513e+06
309043
358687
409489
488925
908193
1.06062e+06
419572
464335
481272
515530
779819
1.08629e+06
367493
364961
351607
370969
524561
1.2111e+06
327084
325130
304393
311610
438706
1.07835e+06
310812
301703
272673
275848
392489
978636
278004
268726
246173
253552
358274
882215
218149
225835
222835
242951
338334
784092
161307
180058
201180
240001
334975
687889
114119
139385
181427
241471
342497
618962
86485.8
116564
169190
244556
357707
594154
84993.6
118556
174234
254689
388596
608106
111040
144673
196601
274306
437717
648389
155901
190909
237029
307744
503514
719142
209111
247706
297199
358615
564849
817957
274055
320424
374143
415128
593045
956839
361076
417607
455280
449114
546307
1.13939e+06
1.14069e+06
1.98722e+06
688969
360732
231805
173904
1.17003e+06
1.54152e+06
446256
227856
155240
124456
1.05474e+06
1.03487e+06
296552
158185
114946
93466
933662
710662
222536
128838
96664
76838.3
846251
544109
195844
123609
93781.5
70937.7
785401
473380
197270
136197
106157
75853.5
741616
450336
213673
162304
135128
95780.1
706906
450468
233068
194193
182964
135455
672282
456283
249723
220868
240694
198018
637343
456759
268775
244543
290549
267184
609504
455893
295364
270702
332269
333355
603077
476973
341194
313161
368889
371512
631286
543819
418260
375194
405215
398494
715098
730476
568157
490460
485970
466553
1.10042e+06
1.33021e+06
583197
375564
272172
213815
1.0335e+06
1.08853e+06
402386
247873
183318
150024
902144
765010
280141
171844
130512
105612
789209
543561
217384
133878
100020
76591.2
718638
432807
194300
120120
85182.6
60744.6
682128
384760
197128
126460
87043.7
58268.9
672310
372308
217347
154403
110806
71907.3
685649
375655
243580
201498
163244
105807
716006
382626
262771
252178
242046
165571
751644
386136
273803
293803
324042
251247
779932
386937
286772
326360
392673
346118
813587
401467
312895
359835
440237
404687
877574
449715
363854
402331
469085
440584
995923
601741
476874
489695
542270
522043
1.15742e+06
650185
416462
332189
269669
224320
921326
553167
324278
241755
192710
160991
756180
460080
256454
178567
139433
111893
647485
409507
218275
139218
101788
75185.8
573369
369813
204359
119057
78290.6
52889.3
525528
348244
208360
118071
71430.6
45358.7
510325
341037
229224
141283
85322.2
52117
531483
342097
261906
193798
126762
74336.1
592451
341184
292377
266341
199964
117287
691430
334920
312702
335048
291793
192432
800778
341862
326049
386467
379760
287029
905583
367439
342025
419986
434353
342877
1.01732e+06
411471
369821
446320
461544
384875
1.17072e+06
495487
437519
507577
525907
462780
978397
1.79975e+06
656246
360594
244221
195404
1.05242e+06
1.56544e+06
447542
236068
167394
140845
984638
1.21714e+06
309365
163912
122845
105949
887318
964340
242332
131499
100739
86540.5
802795
833782
225092
126245
94601.4
78166
729348
793385
242151
143221
103133
78395.1
659238
790663
281404
178138
127575
88878.6
588067
787955
325985
223627
169289
112133
525383
752551
367315
273060
222572
148741
480437
726341
421603
329247
276317
187919
460925
764346
500932
392628
320069
216812
473530
946907
601732
441898
335455
224727
540709
1.27274e+06
748164
495200
345463
231171
694288
1.89763e+06
977790
576239
368921
248769
941374
1.12879e+06
497464
336991
265764
229196
900266
994912
363008
238948
191628
169095
818511
797663
264622
173027
142477
127181
749546
645186
212948
136187
112373
99383
712045
570845
199846
124204
97222.8
82647.9
699783
562059
216760
135318
98237.2
76718.8
700162
590216
259196
172182
120897
85319.2
700436
616688
312297
230379
169004
111674
692765
610117
359001
295555
236440
156920
678420
576919
403063
363825
309251
212611
672854
559782
454921
433134
371899
261730
692269
626640
530656
484147
400553
283023
756422
823026
627731
516267
406517
289440
890838
1.23779e+06
778131
561923
418673
305974
1.02523e+06
524963
341290
285785
254857
231266
795133
448944
275517
224009
198925
181535
643121
383988
224469
176170
156077
142132
557720
357328
194662
141065
121119
109117
516560
344629
185034
121630
96027.6
83361.5
509351
340803
193633
121058
86369.5
70245.2
537989
351766
219754
145628
98862.7
73101.7
605145
373363
256382
195269
138709
94717.9
701726
385164
292790
256522
199717
136212
799065
397745
330197
320600
268541
189860
886703
429549
377668
382936
330434
242928
976308
484879
428190
427679
367632
274608
1.07906e+06
568007
479813
450496
377467
286845
1.21538e+06
706380
524453
455822
385474
305725
162517
141161
122839
105408
84687.5
65602.2
50427.1
40043.8
36940
44501.9
68099.5
104810
145287
187398
106261
83490.1
68385.6
57171.2
46936.1
37073
28886.2
22568.8
19787.9
25110.1
44589.6
81094.4
127243
174661
59060.6
38157.9
28434.3
22831.7
19311.7
15742
12529.9
10030.9
9780.73
15636
34315
69751.7
116106
163064
28548.3
13976.4
8585.54
6328.26
5436.4
4639.38
3935.71
3608.11
4911.8
10936.1
27081.5
57326.5
97943.6
139848
16191.2
6010.59
2393.9
1299.09
1027.29
926.05
945.754
1356.21
3214.4
9134.64
23320.1
48288.6
80387.9
113645
14312.5
4676.28
1222.45
360.311
173.528
161.434
296.066
861.715
2801.28
8219.62
20006.4
39385
63235.8
87363.9
16701.2
5168.42
1222.54
322.022
113.111
102.687
275.704
922.211
2873.75
7736.98
17375.2
32216.4
49857.6
67430.5
22300.6
6718.54
1683.23
570.27
257.195
230.301
456.154
1200.85
3144.56
7443.72
15278.4
26827.1
40591.3
55619.9
32228.5
9579.49
2660.66
1236.93
749.588
671.783
960.395
1816.74
3725.88
7498.67
14039
23850.2
37075.5
55474.2
51049.3
15290.7
4622.12
2735.06
2087.28
1974.69
2377.68
3443.72
5519.26
9280.22
15861.2
26966
44105.5
74149.3
81345.5
27872.6
8638.11
5920.58
5256.82
5387.8
6308.57
8203.2
11561.4
17328.1
27364.2
45129.9
70695.8
116431
117006
59058.1
21384.7
12496.5
11836.5
12904.7
15523.2
19973
27168.2
38435.1
55386.7
82629.7
116792
165827
170878
104978
48548.9
24852.4
23261
25566.5
31071.1
39915.9
53341.6
72593.2
96962.5
129059
167498
204711
214603
158236
102369
58966.4
42625
42658
49728.6
63483.5
84401.8
113815
148176
177290
210476
240280
104526
87708.1
76146.3
66161.1
55978.5
46135.3
37483.4
30357.2
26028.8
27897.4
40855.1
66646.4
100921
138957
61310.1
45160.5
37129.7
31903.3
27797.2
23528.4
19478.5
15763.8
13404.7
14514.9
23941.3
46530.8
81755
123393
31386.1
18316.2
13403.3
11205.6
10060.5
8852.16
7616.03
6390.85
5971.39
8245.44
17530.8
39207.5
73920.2
114090
15367.3
6597.19
3688.6
2803.7
2527.58
2320
2131.76
2050.78
2644.76
5496.94
14109.7
32995.4
63084.4
98435.9
10057.5
3314.27
1107.3
561.303
443.434
421.412
460.554
685.779
1602.29
4648.33
12764.3
29308.3
54288.3
82933.7
9578.4
2822.03
675.412
181.46
78.578
72.0316
140.091
425.065
1426.63
4432.39
11751.9
25547.4
45371.9
67668.6
10947.6
3055.86
696.151
172.223
55.8738
48.7395
134.486
469.666
1546.28
4468.47
10927.9
22218.2
37713.1
55169.8
13683.6
3757.03
933.791
295.894
126.14
112.344
227.071
628.262
1767.74
4535.63
10117.9
19311.2
31635.6
45757.5
18368.9
5068.93
1466.23
660.533
392.495
351.722
507.937
995.683
2178.44
4725.17
9509.49
17172.7
27670.8
40744.7
26684.1
7505.21
2618.98
1571.65
1191.75
1115.98
1321.57
1918.04
3175.62
5608.75
10000.4
17333.9
28536.3
45294.7
40630.9
12374.8
5069.8
3683.8
3268.8
3272.06
3692.22
4631.68
6381.99
9515.2
15107
24970.3
40544.3
66918.4
62569.3
25955.8
10439.7
8122.82
7935.11
8505.98
9810.94
11994.9
15576.7
21412.3
30851.6
46559.1
68631.7
104756
100113
50488.2
22094.8
16362.2
16602
18484.8
21820.8
26763.3
34149.2
44817
59459.9
80493.1
107598
144713
137540
91314.8
54961.2
33980.5
30678.2
33239.3
39291.4
48250.5
60824.3
77412
97019.6
118573
147048
178362
45084
35783.5
32177
29397.4
27557.6
25163.3
22475.8
19435.6
16743.3
15376.5
18254.8
28892.7
47534
73484.5
23635.3
15647.2
12952
11731.7
11278.2
10632.4
9818.5
8658.72
7564.64
7316.69
9835.03
18101.8
34847.6
61057.5
11925.4
5933.92
4062.75
3550.82
3461.37
3363.17
3210.11
2955.76
2839.02
3492.42
6560.16
14896.1
31701.9
57935.2
7089.45
2517.19
1119.87
816.553
772.918
768.542
770.299
804.914
1059.49
2070.31
5209.88
12973.2
28375.4
52622.3
5755.82
1640.45
437.86
178.892
131.075
129.194
152.583
245.771
590.817
1727.08
4952.2
12508
26773.7
48287.9
5585.11
1450.86
326.325
79.7312
28.2869
23.1769
48.1146
155.237
540.625
1750.44
4975.01
12054.9
24645.9
42905.8
5861.21
1480.63
337.598
80.4505
23.8009
18.2473
49.3999
178.991
620.677
1914.97
5108.56
11626.5
22566.8
37753.9
6685.53
1720.84
435.116
130.285
53.3795
46.1815
90.0496
253.398
756.423
2105.61
5184.18
11070.5
20490.1
33272.7
8209.43
2191.11
676.313
294.451
172.997
155.189
217.521
428.295
996.317
2369.96
5278.19
10561.8
18790.3
29960.2
10882.2
3058.47
1265.96
763.022
569.095
520.477
597.825
866.027
1502.39
2882.14
5603.72
10411
17942.4
28532.8
15001.1
4824.54
2646.05
1988.69
1713.32
1634.07
1742.64
2109.44
2885.49
4408.36
7255.49
12305.9
20401.4
32627.9
24239.4
8962.51
5649.27
4850.81
4593.4
4631.85
4960.33
5668.99
6948.82
9180.44
13022.6
19705.2
29973.9
46397.1
40991.9
17603.3
11573.3
10584.6
10704.1
11343.4
12502.6
14261.2
16939.3
21069.9
27213.3
36848.8
50146.4
71384.7
65506.4
39648.5
24516.1
20982.2
21435.2
23453
26560.9
30666.6
36177
43336.9
52050.3
64102.3
80455.4
103974
14499
10534.4
9536.3
9216.34
9621.84
9930.72
10133
9868.55
9196.98
8374.64
8261.22
10424.7
16457.3
27415.2
7812.28
4319.84
3303.29
3067.96
3206.8
3362.36
3498.85
3496.07
3385.38
3278.4
3764.43
5915.85
11304.6
21637.3
4769.65
1815.65
958.54
793.506
809.264
852.42
895.907
924.452
987.511
1218.17
2068.06
4449.89
9949.82
20695.2
3717.02
1040.99
304.492
168.157
151.752
157.43
170.623
199.479
294.171
595.89
1487.51
3820.52
9197.52
19919.9
3265.78
795.943
170.408
47.8863
24.8275
22.2193
28.7609
55.1937
150.253
464.41
1402.58
3873.39
9498.62
20409.3
2976.2
688.937
147.314
32.7668
8.49161
4.57118
9.98657
36.7158
139.084
486.549
1518.97
4164.12
9937.68
20651.3
2838.88
673.611
153.97
35.0343
9.14847
5.19385
12.0922
45.2327
169.996
580.8
1749.7
4588.92
10441.3
20707.9
3008.33
765.278
193.63
54.3592
20.9966
16.4731
27.5542
73.9082
233.139
720.413
2020.63
4989.21
10754.4
20301.1
3478.6
956.723
297.834
123.563
71.1845
62.6968
81.0227
149.586
357.113
933.856
2357.08
5395.59
10949.5
19691
4314.35
1335.45
592.159
350.85
252.835
225.239
249.305
350.795
622.378
1292.6
2801.27
5794.44
11002.5
18965.4
5593.01
2224.67
1372.37
1025.83
839.921
756.399
768.949
909.001
1259.15
2021.29
3580.35
6510.76
11446.1
18890.3
8460.46
4269.68
3227.79
2775.7
2478.9
2317.62
2298.44
2475.69
2930.43
3836.72
5520.26
8539.52
13474.3
21007.2
13980.6
8416.31
7050.98
6633.77
6375.4
6275.55
6322.35
6615.8
7303.66
8588.48
10770.4
14479.6
20080.2
28973.8
26155.5
17294.4
14223.3
13857.7
14150.7
14688.8
15375.6
16254.3
17542.3
19587.9
22652.9
27638.4
34408.3
45895.4
5330.25
3172.37
2557.66
2432.12
2698.18
3115.2
3633.56
4083.16
4331.42
4244.13
4064.68
4344.89
6146.96
10271.1
3280.82
1353.96
802.315
693.258
746.657
861.886
1020.99
1186.02
1322.04
1380.38
1513.2
2094.05
3813
7526.98
2373.26
678.328
228.146
153.221
155.604
178.512
213.532
255.973
310.088
399.617
645.298
1324.97
3000.06
6672.5
2002.17
462.67
91.413
31.7984
24.5767
26.8037
33.128
45.2152
74.5005
156.853
393.332
1032.85
2649.29
6423.99
1703.14
360.787
66.3503
14.0865
4.62376
3.28734
4.83369
11.206
33.6294
108.714
343.707
1025.81
2834.13
7120.79
1445.83
302.319
61.2521
12.5812
2.70133
0.954815
1.93599
7.7073
30.8926
114.972
390.738
1204.6
3337.48
8220.72
1296.03
290.934
64.3209
13.5498
3.20604
1.50973
2.8675
10.4287
41.225
152.973
513.482
1539.83
4086.76
9546.26
1328.21
330.009
79.28
20.1558
7.52008
5.755
8.39445
20.6275
66.785
223.922
699.201
1963.74
4887.54
10694.1
1521.09
415.641
122.143
46.8693
26.7308
23.5995
28.7643
50.0717
120.878
339.647
951.339
2452.34
5643.02
11488.1
1869.85
602.647
262.846
148.179
103.849
90.749
97.3022
134.086
242.013
535.468
1278.6
2951.08
6222.43
11833.2
2449.36
1108.38
688.027
494.257
383.583
327.546
318.495
372.095
528.793
901.78
1744.45
3494.59
6733.31
12042.5
3862.91
2357.26
1811.73
1502.76
1269.48
1099.3
1013.87
1052.37
1248.3
1695.68
2607.86
4370.13
7493.39
12497
6735.63
4960.35
4321.23
3957.91
3613.55
3298.52
3062.66
3000.14
3172.77
3694.62
4732.44
6616.69
9728.45
14765.3
12823.5
10100.9
9082.05
8938.62
8811.04
8606.29
8378.31
8217.75
8278.48
8799.42
9994
12242.3
15460.4
21154.4
2453.52
1140.86
745.829
639.62
694.839
844.901
1072.85
1336.5
1572.91
1683.84
1706.5
1835.26
2552.81
4431.22
1620.99
511.309
216.252
158.998
164.543
196.244
248.138
312.422
377.168
426.611
499.191
733.818
1434.26
3005.63
1222.64
282.27
62.752
30.5512
28.8064
33.7504
42.4996
54.1116
69.2745
97.0808
176.306
407.296
999.624
2342.73
1006.56
199.067
30.7779
6.96637
3.98011
4.14734
5.35367
7.82882
14.255
34.8046
99.8679
289.916
801.779
2091.5
803.674
151.715
25.3498
4.59375
1.04689
0.480742
0.687956
1.84531
6.40011
23.3798
82.0256
269.573
824.257
2329.8
648.133
126.607
24.2957
4.52607
0.834051
0.20317
0.313439
1.34673
6.00243
24.9448
94.8366
328.184
1033.78
2947.84
576.534
124.888
25.842
4.79973
0.972689
0.373717
0.570845
2.01678
8.67084
36.1394
137.291
467.891
1427.42
3885.66
605.389
144.785
31.2769
6.67926
2.18703
1.59987
2.13631
4.81733
16.0748
59.6943
211.446
678.061
1936.11
4905.02
716.753
184.123
47.0076
15.3716
8.29828
7.39755
8.8169
14.4236
34.3543
103.225
323.507
950.652
2506.56
5844.19
904.937
273.696
106.109
53.8716
36.2234
31.792
34.2294
46.1115
81.6718
186.592
487.27
1271.19
3054.31
6565.26
1236.52
545.023
315.027
208.179
152.967
127.955
124.725
146.154
208.443
363.891
751.692
1667.12
3593.98
7148.81
2094.3
1290.69
942.409
731.241
580.618
480.602
434.885
452.488
548.106
770.307
1245.8
2252.43
4242.18
7758.23
3969.38
2974.54
2500.18
2162.73
1868.46
1614.94
1435.74
1376.76
1467.3
1760.66
2351.47
3466.69
5480.95
8969.11
7769.58
6295.59
5667.01
5355.49
5025.48
4667.02
4326.89
4066.47
3990.14
4238.07
4930.64
6257.29
8331.89
11928.9
1201.57
439.245
224.448
169.457
173.724
210.201
274.977
362.133
459.436
540.767
602.889
705.944
1046.82
2014.67
802.449
200.44
57.2351
33.7564
33.1787
39.6205
51.5254
67.845
86.606
107.299
142.571
246.268
551.934
1293.73
590.878
114.244
17.395
5.32473
4.45682
5.25255
6.83824
9.07225
12.4186
20.3692
45.9798
127.513
353.133
900.321
457.013
79.9171
10.6585
1.65288
0.556107
0.47799
0.629744
1.0163
2.2966
7.28191
25.4176
84.3753
256.04
716.295
345.479
60.7011
9.73108
1.57411
0.265589
0.0614162
0.0684411
0.241548
1.0805
4.75516
19.2394
70.7591
237.917
739.026
277.187
52.8977
9.79472
1.64199
0.254248
0.0439564
0.0425233
0.198947
1.03037
4.93144
21.3125
82.9487
292.901
943.969
257.29
55.2956
10.7527
1.76709
0.303755
0.10152
0.119361
0.35476
1.58346
7.36382
31.69
122.777
427.719
1347.11
287.021
66.0902
13.0207
2.41307
0.708513
0.500973
0.599304
1.10729
3.40858
13.4543
53.4507
195.559
643.721
1896.93
355.168
85.0698
19.5109
5.66129
2.9338
2.58244
2.94902
4.28488
9.07785
27.2255
93.0355
309.164
936.823
2536.57
461.111
130.011
45.814
21.4164
13.9043
12.0377
12.8709
16.542
27.0616
59.6155
163.144
471.277
1285.32
3161.2
660.971
276.006
147.91
90.1554
62.8325
51.32
50.5683
59.3176
82.7001
141.09
297.145
709.317
1696.55
3767.32
1193.54
709.727
483.712
345.439
255.472
202.999
184.668
196.714
243.644
347.148
573.062
1088.79
2217.26
4431.54
2426.45
1761.07
1388.64
1113.84
892.107
728.585
635.965
618.497
685.106
857.492
1188.63
1825.86
3069.72
5402.74
4856.85
3875.64
3362.99
2978.76
2614.48
2296.99
2046.66
1894.04
1891.66
2099.35
2573.29
3415.68
4798.73
7276.74
585.412
179.266
73.2903
48.0671
44.8978
50.5996
63.5735
83.5155
110.027
138.687
170.268
231.282
415.851
948.849
368.185
77.892
16.3646
7.56105
6.90778
7.88543
9.95632
13.006
17.0258
22.7529
35.6951
79.2308
218.861
591.177
249.782
42.5583
5.28171
1.06189
0.73293
0.828706
1.05858
1.40447
2.05756
4.14758
12.2323
41.513
132.682
377.829
181.558
29.5252
3.82508
0.509792
0.104197
0.0602331
0.0751094
0.135341
0.400128
1.63568
6.79882
25.8031
87.4932
267.138
136.645
23.6826
3.81448
0.580258
0.0803765
0.0115388
0.00813842
0.0364635
0.201033
1.03219
4.74381
19.4693
71.898
242.239
115.783
22.4941
4.0806
0.634276
0.0826449
0.011188
0.00689337
0.0310717
0.181191
0.986173
4.80408
20.8548
81.3715
289.201
117.437
25.2275
4.64543
0.6943
0.0980431
0.0285715
0.0286593
0.0654632
0.278956
1.42079
6.88033
30.0321
117.684
417.328
141.748
31.2063
5.60012
0.888535
0.218414
0.157014
0.182406
0.276975
0.700355
2.75757
12.1032
50.1713
188.222
634.971
183.94
40.4571
7.96161
1.9086
0.943538
0.887366
1.02453
1.35343
2.38932
6.52409
23.4258
87.1604
301.141
935.204
245.878
61.1579
17.9172
7.42543
4.81525
4.44323
4.89504
6.08453
8.95195
17.676
47.8901
150.018
460.627
1288.8
363.157
131.035
60.9926
34.0911
23.3613
19.9714
20.4885
24.1858
32.3798
51.579
104.607
259.959
683.85
1702.14
678.166
358.991
218.659
143.184
101.72
82.1917
77.7577
85.8118
107.228
150.556
243.635
469.42
1017.36
2224.35
1458.21
963.431
687.162
505.345
382.145
307.625
274.695
279.855
323.72
417.021
586.756
915.916
1602.49
3010.1
3025.99
2262.76
1806.21
1472.6
1218.1
1033.09
916.629
873.632
920.101
1082.87
1392
1908.92
2777.02
4399.55
303.405
80.087
25.8677
14.0978
11.4696
11.6771
13.7219
17.345
23.0244
31.1753
44.1661
75.8421
173.898
469.817
174.454
32.9994
5.41547
1.76072
1.3769
1.4604
1.7675
2.25399
3.02324
4.60383
9.5676
28.5757
95.0167
289.989
107.596
17.4782
2.08087
0.284995
0.119118
0.118134
0.148097
0.202135
0.348215
0.980894
3.84646
15.4719
55.8148
175.275
75.55
12.6776
1.81049
0.244269
0.0337979
0.00833594
0.00829527
0.0195043
0.0841517
0.43792
2.12366
9.07913
33.9275
111.535
59.624
11.1677
1.93692
0.299538
0.037857
0.00404866
0.0012969
0.00675778
0.0450254
0.266038
1.36961
6.15535
24.3936
86.5057
56.045
11.6734
2.16559
0.332411
0.0396035
0.00447269
0.00170443
0.00605428
0.03763
0.22629
1.20655
5.66282
23.6269
89.0807
64.1618
14.0778
2.5516
0.369651
0.0461443
0.0113871
0.00977231
0.0161386
0.0566743
0.295482
1.545
7.31195
31.0222
119.279
83.7647
18.0772
3.11375
0.458344
0.0953536
0.0645755
0.0708177
0.0905582
0.172432
0.593543
2.68457
12.0482
49.5267
184.541
113.38
23.8617
4.32895
0.89515
0.404324
0.380887
0.429387
0.523933
0.769466
1.70391
5.74557
22.49
85.119
294
156.375
36.0253
9.11561
3.28802
2.07776
1.96446
2.172
2.62518
3.53995
5.96787
14.2513
44.3921
146.511
453.541
237.261
75.3695
30.0964
15.0809
10.1144
8.93119
9.44327
11.2511
14.6868
21.6621
39.3524
92.7593
253.289
686.093
446.058
206.649
110.014
64.6893
44.2639
36.5939
36.3477
41.8467
53.225
73.6099
113.2
207.025
450.826
1044.45
969.574
570.694
359.794
237.174
169.511
136.34
127.625
138.916
169.524
224.456
316.08
485.19
847.258
1645.04
2048.91
1392.99
994.869
729.626
562.31
463.485
421.091
428.774
488.364
611.377
815.358
1136.85
1675.79
2711.06
222580
282440
344164
395648
417680
387671
199047
262028
329138
380831
406234
398114
182605
249912
321794
376472
412151
413917
158611
223487
299044
358053
405473
425248
127280
185402
255193
312516
378238
421199
96901.7
140595
198310
262397
348146
400094
72907.5
102718
149063
223410
316234
370259
58327.5
79455.4
117424
195761
298504
338074
55281
72657.7
107103
184730
302998
317470
65380.3
81870.1
114617
189621
320250
297552
88616.6
105634
137411
209084
335887
279356
117713
136885
170710
239835
339405
272863
148917
170816
207398
276108
335470
275971
186691
212769
249364
303419
331954
290627
151425
192579
237252
277267
303047
310584
133642
180368
231343
277965
305675
309137
121639
172067
226886
274196
302444
304975
106922
154669
208973
262584
306712
316655
89567
132759
185356
246468
311679
324732
73054.5
108090
154527
219661
302654
311261
58907.3
85717.1
124836
192763
278579
282371
48180.7
68901.7
102204
172514
252238
253908
42679.6
61415.2
93002.4
160854
235235
236004
45307.6
63529.3
95869.4
158765
225318
224686
58358.3
77337.2
111986
168703
222193
216606
80089.1
101253
138200
189017
223380
213483
105791
129738
167030
209497
227081
219342
135917
161163
195286
224593
236376
232299
75008.4
104910
138966
177838
219679
259061
65883.2
100019
141400
191306
244478
288340
62308
98543.3
144292
200940
260024
301340
57583.8
93424
140085
199668
262748
305124
52732.1
86504.1
131940
191232
259181
308927
46986.5
76888
116844
172671
249089
303803
40975.4
66254.6
100103
153223
236287
279250
35312.8
56283.7
84458.4
134184
217514
244442
30691.3
48473.4
73144
121329
194199
213621
28101.8
43742.9
68111.8
112919
172890
187294
30131.5
44895.8
69982.7
112305
159544
168666
38064.6
54174.2
82217.1
121962
155548
158848
52220.9
71955.9
103058
137515
157488
160713
72554.4
96090.3
126265
152612
168275
175341
26359.6
41695.6
62784.7
90535.3
125395
171350
22510.1
39669
64837.7
99758.9
145569
206626
22244.5
41875.8
70735.2
111021
167390
241800
22075.3
43530.7
75201.9
120520
187511
273442
22785.9
45488.4
78673
128720
203795
293718
23032.9
45745.8
78506.3
128423
203543
291148
22793.5
43997.4
73879.4
119184
191195
273115
21591.1
40434.3
66097.9
104561
169790
244490
19797
35844.4
57285.1
89560.5
145677
210706
17790.9
30949.7
48686.2
76856.7
123540
172848
16377.4
27277.8
42692.9
67843.7
106987
140535
16651.1
26583.7
41925.8
65769.8
98588.7
120347
20012.8
30953.3
48348.9
71840.5
97117.1
113919
27772
41585.6
61044.7
83466.3
104301
120980
9347.78
15979.4
26495.9
42474.9
67181.7
108386
7141.59
14072.6
25913.9
45616.9
79060.4
137364
6729.08
14689
28913.3
53696
97747.7
175230
6822.53
16095.5
33467.2
64647.9
119859
215468
7720.11
18928.3
39906.1
77229.8
142815
253753
8856.31
21816.7
45598.4
86504.9
157186
271441
10054.6
24006.8
48475.3
88401
156072
260247
10832.2
24542.6
47206.7
81891.2
140038
226698
10985
23490.5
42849.3
71008.1
118184
188123
10456.6
21067.5
36694.3
58634.2
94743.1
149249
9622.55
18213.8
30614.4
47940.8
75044
116351
8938.57
15979.4
26430.4
41154.8
63312.3
93318.6
9145.32
15664.2
25677.2
39505.3
59172.5
82204.7
11192.2
18283.7
28996.4
43484.6
62331.9
83805.5
4061.71
7332.74
13166.3
22556.7
38439.6
67896.4
2624.11
5684.22
11520.2
22253
42994.7
84565.7
2154.55
5305.21
11848.8
25285.6
53122
111751
2028.46
5544.08
13567.6
31145.4
68222.4
146890
2313.19
6772.28
17307.7
40308.2