/*--------------------------------*- C++ -*----------------------------------*\
| =========                 |                                                 |
| \\      /  F ield         | OpenFOAM: The Open Source CFD Toolbox           |
|  \\    /   O peration     | Version:  v2106                                 |
|   \\  /    A nd           | Website:  www.openfoam.com                      |
|    \\/     M anipulation  |                                                 |
\*---------------------------------------------------------------------------*/
FoamFile
{
    version     2.0;
    format      ascii;
    arch        "LSB;label=32;scalar=64";
    class       volScalarField;
    location    "0.00019";
    object      p;
}
// * * * * * * * * * * * * * * * * * * * * * * * * * * * * * * * * * * * * * //

dimensions      [1 -1 -2 0 0 0 0];

internalField   nonuniform List<scalar> 
17920
(
232818
232838
232829
232849
232837
232857
232848
232867
232857
232876
232867
232886
232877
232895
232888
232905
232899
232915
232911
232926
232923
232938
232936
232951
232949
232965
232963
232980
231764
231772
231781
231791
231800
231810
231821
231832
231843
231854
231866
231879
231892
231907
231776
231783
231793
231802
231812
231823
231834
231845
231857
231869
231882
231895
231908
231924
231789
231796
231806
231815
231826
231836
231847
231858
231870
231882
231895
231909
231922
231937
231802
231810
231819
231829
231839
231849
231861
231872
231884
231897
231910
231924
231938
231953
231816
231824
231834
231843
231853
231864
231875
231886
231899
231911
231924
231938
231952
231967
231831
231839
231848
231858
231868
231878
231890
231901
231914
231926
231940
231953
231967
231982
231846
231855
231864
231873
231883
231894
231905
231917
231929
231942
231955
231968
231982
231996
231862
231871
231880
231889
231899
231910
231921
231933
231945
231957
231970
231984
231997
232011
231879
231888
231896
231906
231916
231927
231938
231949
231961
231974
231986
231999
232013
232026
231895
231905
231913
231923
231933
231944
231955
231966
231978
231990
232003
232016
232029
232041
231912
231922
231931
231941
231951
231961
231972
231984
231996
232008
232020
232032
232045
232056
231930
231940
231948
231958
231968
231979
231990
232001
232013
232025
232037
232049
232062
232073
231947
231957
231965
231976
231986
231997
232008
232020
232031
232043
232055
232067
232079
232089
231966
231975
231984
231994
232004
232015
232026
232038
232049
232061
232072
232084
232096
232109
230940
230943
230949
230954
230959
230965
230971
230976
230982
230988
230994
231000
231007
231014
230951
230955
230960
230965
230971
230977
230982
230989
230995
231001
231008
231014
231021
231029
230963
230967
230972
230978
230983
230989
230995
231001
231007
231014
231021
231027
231034
231043
230976
230979
230985
230990
230996
231002
231008
231014
231020
231027
231034
231041
231048
231057
230989
230993
230998
231003
231009
231015
231021
231027
231034
231041
231048
231055
231062
231070
231002
231006
231012
231017
231023
231028
231035
231041
231048
231054
231062
231069
231076
231084
231016
231020
231026
231031
231037
231043
231049
231055
231062
231068
231075
231083
231090
231098
231030
231035
231040
231046
231051
231057
231063
231069
231076
231083
231090
231097
231104
231111
231045
231050
231055
231060
231066
231072
231078
231084
231091
231097
231104
231111
231118
231125
231060
231065
231070
231076
231081
231087
231093
231099
231106
231112
231119
231125
231132
231138
231075
231081
231085
231091
231096
231102
231108
231114
231121
231127
231133
231140
231146
231152
231090
231096
231101
231106
231112
231118
231123
231130
231136
231142
231148
231154
231160
231165
231106
231111
231116
231122
231127
231133
231139
231145
231151
231157
231163
231169
231174
231179
231123
231128
231132
231138
231143
231149
231154
231160
231166
231172
231177
231183
231189
231194
230178
230179
230180
230182
230184
230186
230187
230189
230190
230192
230192
230193
230194
230195
230187
230188
230189
230191
230193
230195
230196
230198
230199
230201
230202
230203
230203
230205
230195
230196
230198
230200
230202
230204
230205
230207
230208
230210
230211
230212
230212
230214
230204
230205
230207
230209
230211
230213
230215
230216
230218
230219
230220
230221
230222
230224
230213
230214
230216
230218
230220
230222
230224
230226
230227
230228
230230
230231
230231
230233
230222
230224
230226
230228
230230
230232
230233
230235
230236
230238
230239
230240
230241
230242
230231
230233
230235
230237
230239
230241
230243
230244
230246
230247
230248
230250
230251
230252
230240
230242
230244
230247
230249
230250
230252
230254
230255
230257
230258
230259
230260
230261
230249
230252
230254
230256
230258
230260
230262
230263
230264
230266
230267
230268
230269
230270
230258
230261
230263
230265
230267
230269
230271
230272
230274
230275
230276
230277
230278
230278
230268
230271
230272
230275
230277
230278
230280
230281
230283
230284
230285
230286
230287
230287
230277
230280
230282
230284
230286
230287
230289
230290
230291
230292
230293
230294
230295
230295
230287
230289
230291
230293
230295
230296
230298
230299
230300
230301
230301
230302
230303
230302
230297
230299
230301
230302
230304
230305
230306
230307
230308
230309
230309
230310
230311
230310
229475
229475
229475
229475
229475
229474
229474
229473
229471
229470
229467
229465
229462
229459
229481
229481
229481
229481
229481
229480
229479
229478
229477
229475
229472
229470
229467
229464
229486
229486
229486
229486
229486
229486
229485
229484
229482
229480
229478
229475
229472
229468
229491
229491
229492
229492
229492
229491
229490
229489
229487
229485
229483
229480
229477
229473
229496
229496
229497
229497
229497
229496
229495
229494
229492
229490
229488
229485
229481
229478
229500
229501
229501
229502
229501
229501
229500
229499
229497
229495
229492
229489
229486
229483
229504
229505
229506
229506
229506
229505
229505
229503
229501
229499
229497
229494
229491
229487
229508
229509
229510
229510
229510
229509
229509
229507
229505
229503
229501
229498
229495
229491
229512
229513
229513
229514
229514
229513
229512
229511
229509
229507
229504
229502
229499
229495
229515
229516
229517
229517
229517
229516
229515
229514
229512
229510
229508
229505
229502
229499
229518
229519
229520
229520
229520
229519
229518
229517
229515
229513
229510
229507
229505
229501
229521
229522
229522
229523
229522
229522
229521
229519
229517
229515
229512
229510
229507
229504
229524
229525
229525
229525
229525
229524
229523
229521
229519
229517
229514
229511
229509
229506
229526
229527
229528
229527
229527
229526
229524
229523
229521
229518
229516
229513
229510
229507
228822
228822
228822
228822
228821
228820
228819
228817
228815
228812
228809
228805
228801
228796
228826
228826
228826
228826
228825
228824
228822
228820
228818
228815
228811
228807
228803
228798
228829
228829
228829
228829
228828
228827
228825
228823
228821
228817
228814
228809
228805
228800
228831
228831
228832
228831
228831
228830
228828
228826
228823
228820
228816
228812
228807
228802
228833
228833
228834
228834
228833
228832
228830
228828
228825
228822
228818
228813
228809
228803
228834
228835
228835
228835
228834
228833
228832
228829
228827
228823
228819
228815
228810
228805
228835
228836
228836
228836
228835
228834
228833
228830
228828
228824
228820
228816
228811
228806
228835
228836
228836
228836
228836
228835
228833
228831
228828
228824
228821
228816
228811
228806
228835
228836
228836
228836
228836
228834
228833
228830
228828
228824
228820
228816
228811
228806
228834
228835
228836
228835
228835
228834
228832
228830
228827
228823
228820
228815
228811
228806
228833
228834
228834
228834
228834
228832
228831
228828
228825
228822
228818
228814
228810
228805
228832
228833
228833
228833
228832
228830
228829
228826
228823
228820
228816
228812
228808
228803
228830
228831
228831
228831
228830
228828
228826
228824
228821
228817
228814
228810
228806
228801
228828
228828
228828
228828
228827
228825
228823
228821
228818
228815
228811
228807
228803
228799
228211
228213
228213
228214
228214
228213
228212
228210
228208
228206
228203
228199
228195
228190
228214
228215
228216
228216
228216
228216
228214
228213
228210
228208
228204
228200
228196
228191
228216
228217
228218
228218
228218
228217
228216
228214
228212
228209
228206
228202
228197
228192
228217
228218
228219
228220
228219
228219
228218
228216
228213
228210
228207
228203
228198
228193
228218
228219
228220
228220
228220
228220
228218
228216
228214
228211
228207
228203
228199
228193
228217
228219
228220
228220
228220
228220
228218
228216
228214
228211
228207
228203
228198
228193
228217
228218
228219
228220
228220
228219
228218
228216
228213
228210
228207
228203
228198
228193
228216
228217
228218
228219
228219
228218
228217
228215
228212
228209
228206
228201
228197
228192
228214
228215
228217
228217
228217
228216
228215
228213
228211
228207
228204
228200
228195
228190
228212
228213
228214
228215
228215
228214
228212
228211
228208
228205
228202
228197
228193
228188
228209
228210
228211
228212
228212
228211
228209
228208
228205
228202
228199
228195
228190
228185
228206
228207
228208
228208
228208
228207
228206
228204
228201
228198
228195
228191
228187
228182
228202
228203
228204
228204
228204
228203
228202
228200
228197
228194
228191
228187
228183
228179
228197
228198
228199
228199
228199
228198
228197
228195
228192
228190
228186
228183
228179
228175
227641
227643
227644
227646
227646
227646
227646
227645
227644
227642
227639
227637
227633
227629
227643
227645
227647
227648
227648
227649
227648
227647
227646
227644
227641
227638
227635
227630
227644
227647
227648
227649
227650
227650
227650
227649
227648
227645
227643
227640
227636
227632
227645
227648
227649
227651
227651
227651
227651
227650
227649
227647
227644
227641
227637
227633
227646
227648
227650
227651
227652
227652
227652
227651
227649
227647
227644
227641
227637
227633
227646
227648
227650
227651
227652
227652
227652
227651
227649
227647
227644
227641
227637
227633
227645
227647
227649
227651
227651
227652
227651
227650
227649
227646
227644
227640
227637
227632
227644
227646
227648
227649
227650
227650
227650
227649
227647
227645
227643
227639
227635
227631
227642
227645
227647
227648
227648
227649
227648
227647
227646
227643
227641
227638
227634
227629
227640
227642
227644
227645
227646
227646
227646
227645
227643
227641
227638
227635
227631
227627
227637
227639
227641
227642
227643
227643
227643
227642
227640
227638
227636
227632
227629
227625
227634
227636
227638
227639
227640
227640
227639
227638
227637
227635
227632
227629
227625
227622
227630
227632
227634
227635
227635
227636
227635
227634
227633
227631
227628
227625
227622
227618
227625
227627
227629
227630
227631
227631
227630
227630
227628
227626
227624
227621
227617
227614
227109
227112
227114
227116
227117
227117
227118
227117
227116
227115
227114
227111
227109
227106
227111
227114
227116
227118
227119
227120
227120
227120
227119
227118
227116
227114
227111
227108
227113
227116
227118
227120
227121
227122
227122
227122
227121
227120
227118
227116
227113
227110
227114
227117
227119
227121
227123
227123
227124
227123
227123
227121
227120
227117
227114
227111
227115
227118
227120
227122
227124
227124
227125
227124
227124
227122
227121
227118
227115
227112
227115
227118
227121
227123
227124
227125
227125
227125
227124
227123
227121
227119
227116
227113
227115
227118
227121
227123
227124
227125
227125
227125
227124
227123
227121
227119
227116
227112
227115
227118
227120
227122
227123
227124
227125
227124
227123
227122
227120
227118
227115
227112
227114
227117
227119
227121
227122
227123
227123
227123
227122
227121
227119
227117
227114
227111
227112
227115
227117
227119
227121
227121
227122
227122
227121
227119
227118
227115
227112
227109
227110
227113
227115
227117
227118
227119
227120
227119
227119
227117
227115
227113
227110
227107
227107
227110
227112
227114
227116
227116
227117
227117
227116
227115
227113
227111
227108
227104
227104
227107
227109
227111
227112
227113
227114
227113
227113
227111
227110
227107
227105
227102
227100
227103
227105
227107
227108
227109
227110
227110
227109
227108
227106
227104
227101
227098
226616
226619
226621
226623
226624
226625
226625
226625
226625
226624
226623
226621
226619
226617
226618
226621
226623
226625
226626
226627
226628
226628
226627
226626
226625
226624
226622
226620
226620
226623
226625
226627
226628
226629
226630
226630
226629
226629
226627
226626
226624
226622
226621
226624
226627
226628
226630
226631
226631
226631
226631
226630
226629
226628
226626
226624
226623
226625
226628
226630
226631
226632
226633
226633
226632
226632
226630
226629
226627
226625
226623
226626
226628
226630
226632
226633
226633
226634
226633
226632
226631
226630
226628
226626
226624
226626
226629
226631
226632
226633
226634
226634
226634
226633
226632
226630
226628
226626
226624
226626
226629
226631
226632
226633
226634
226634
226634
226633
226632
226630
226628
226625
226623
226626
226628
226630
226631
226632
226633
226633
226633
226632
226631
226629
226627
226625
226622
226625
226627
226629
226630
226631
226632
226632
226632
226631
226630
226628
226626
226624
226621
226623
226626
226627
226629
226630
226631
226631
226631
226630
226629
226627
226625
226622
226619
226621
226624
226626
226627
226628
226629
226629
226629
226628
226627
226625
226623
226621
226616
226619
226621
226623
226625
226626
226627
226627
226627
226626
226625
226623
226621
226619
226613
226616
226619
226621
226622
226623
226624
226624
226624
226624
226623
226621
226619
226616
226160
226162
226164
226165
226166
226167
226167
226167
226166
226166
226165
226164
226163
226162
226162
226163
226165
226166
226167
226168
226168
226168
226168
226168
226167
226166
226165
226164
226163
226165
226166
226168
226169
226169
226170
226170
226170
226169
226168
226168
226167
226166
226164
226166
226167
226169
226170
226170
226171
226171
226171
226170
226170
226169
226168
226167
226165
226167
226168
226170
226171
226171
226172
226172
226172
226171
226171
226170
226169
226168
226165
226167
226169
226170
226171
226172
226172
226172
226172
226172
226171
226171
226170
226168
226166
226168
226169
226170
226171
226172
226173
226173
226173
226172
226172
226171
226170
226169
226166
226168
226169
226170
226171
226172
226173
226173
226173
226172
226172
226171
226170
226168
226166
226167
226169
226170
226171
226172
226172
226173
226173
226172
226172
226171
226169
226168
226165
226167
226168
226170
226171
226171
226172
226172
226172
226172
226171
226170
226169
226167
226165
226166
226168
226169
226170
226171
226171
226171
226171
226171
226170
226169
226168
226167
226163
226165
226167
226168
226169
226170
226170
226171
226171
226170
226170
226169
226167
226166
226162
226164
226165
226166
226168
226168
226169
226169
226169
226169
226168
226167
226166
226165
226160
226162
226164
226165
226166
226167
226168
226168
226168
226168
226167
226166
226165
226163
225738
225739
225740
225740
225740
225740
225740
225740
225740
225740
225740
225739
225739
225739
225739
225739
225740
225740
225740
225740
225740
225740
225740
225740
225740
225740
225740
225740
225739
225739
225740
225740
225740
225740
225740
225740
225740
225740
225740
225740
225740
225740
225739
225740
225740
225740
225740
225741
225741
225741
225741
225741
225740
225740
225740
225740
225739
225740
225740
225740
225740
225741
225741
225741
225741
225741
225741
225741
225741
225741
225739
225740
225740
225740
225740
225741
225741
225741
225741
225741
225741
225741
225741
225741
225739
225740
225740
225740
225740
225740
225741
225741
225741
225741
225741
225741
225741
225741
225740
225740
225740
225740
225740
225740
225741
225741
225741
225741
225741
225741
225741
225740
225739
225740
225740
225740
225740
225740
225740
225741
225741
225741
225741
225740
225740
225740
225739
225740
225740
225740
225740
225740
225740
225740
225740
225740
225740
225740
225740
225740
225739
225739
225739
225740
225740
225740
225740
225740
225740
225740
225740
225740
225740
225740
225739
225739
225739
225739
225740
225740
225740
225740
225740
225740
225740
225740
225740
225739
225739
225738
225739
225739
225739
225740
225740
225740
225740
225740
225740
225740
225739
225739
225738
225738
225738
225739
225739
225739
225740
225740
225740
225740
225740
225740
225740
225739
225349
225348
225347
225346
225346
225346
225345
225345
225345
225346
225346
225346
225347
225348
225348
225347
225346
225345
225345
225344
225344
225344
225344
225344
225345
225345
225346
225347
225347
225346
225345
225344
225344
225343
225343
225343
225343
225343
225344
225344
225345
225346
225346
225345
225344
225343
225343
225342
225342
225342
225342
225342
225343
225343
225344
225345
225345
225344
225343
225343
225342
225342
225341
225341
225341
225342
225342
225343
225344
225344
225345
225344
225343
225342
225341
225341
225341
225341
225341
225341
225341
225342
225343
225344
225344
225343
225342
225342
225341
225341
225340
225340
225340
225341
225341
225342
225343
225344
225344
225343
225342
225341
225341
225340
225340
225340
225340
225340
225341
225342
225342
225343
225344
225343
225342
225341
225341
225340
225340
225340
225340
225340
225341
225341
225342
225343
225344
225343
225342
225341
225341
225340
225340
225340
225340
225340
225341
225342
225342
225343
225345
225344
225342
225342
225341
225341
225340
225340
225341
225341
225341
225342
225343
225344
225345
225344
225343
225342
225342
225341
225341
225341
225341
225341
225342
225342
225343
225344
225346
225344
225344
225343
225342
225342
225342
225342
225342
225342
225342
225343
225343
225344
225346
225345
225344
225344
225343
225343
225343
225343
225343
225343
225343
225344
225344
225345
224990
224987
224986
224985
224984
224983
224983
224983
224983
224983
224984
224985
224986
224988
224988
224986
224984
224983
224982
224981
224981
224981
224981
224981
224982
224983
224984
224985
224986
224984
224982
224981
224980
224979
224979
224979
224979
224980
224980
224981
224982
224984
224984
224983
224981
224980
224979
224978
224978
224977
224978
224978
224979
224980
224981
224982
224983
224982
224980
224979
224977
224977
224976
224976
224976
224977
224978
224978
224980
224981
224982
224981
224979
224978
224977
224976
224975
224975
224975
224976
224977
224978
224979
224980
224982
224980
224978
224977
224976
224975
224975
224975
224975
224975
224976
224977
224978
224980
224981
224980
224978
224977
224976
224975
224974
224974
224974
224975
224976
224977
224978
224980
224981
224980
224978
224977
224976
224975
224974
224974
224974
224975
224976
224977
224978
224980
224982
224980
224978
224977
224976
224975
224975
224975
224975
224975
224976
224977
224978
224980
224982
224980
224979
224978
224977
224976
224975
224975
224975
224976
224976
224977
224979
224980
224983
224981
224980
224978
224977
224977
224976
224976
224976
224976
224977
224978
224980
224981
224984
224982
224981
224980
224979
224978
224977
224977
224977
224978
224978
224979
224980
224982
224986
224984
224982
224981
224980
224979
224979
224978
224978
224979
224979
224980
224982
224983
224659
224657
224655
224654
224653
224652
224652
224652
224652
224652
224653
224654
224655
224656
224657
224655
224653
224652
224651
224650
224650
224650
224650
224651
224651
224652
224653
224654
224655
224653
224652
224650
224649
224649
224648
224648
224648
224649
224649
224650
224651
224652
224654
224652
224650
224649
224648
224647
224647
224647
224647
224647
224648
224649
224650
224651
224653
224651
224649
224648
224647
224646
224646
224646
224646
224646
224647
224648
224649
224650
224652
224650
224648
224647
224646
224645
224645
224645
224645
224645
224646
224647
224648
224649
224651
224649
224648
224646
224645
224645
224644
224644
224644
224645
224645
224646
224647
224649
224651
224649
224647
224646
224645
224644
224644
224644
224644
224644
224645
224646
224647
224648
224650
224649
224647
224646
224645
224644
224644
224644
224644
224644
224645
224646
224647
224649
224651
224649
224648
224646
224645
224645
224644
224644
224644
224644
224645
224646
224647
224649
224651
224650
224648
224647
224646
224645
224645
224644
224644
224645
224646
224647
224648
224649
224652
224651
224649
224648
224647
224646
224645
224645
224645
224646
224646
224647
224649
224650
224653
224652
224650
224649
224648
224647
224646
224646
224646
224647
224647
224648
224649
224651
224655
224653
224651
224650
224649
224648
224648
224647
224647
224647
224648
224649
224650
224652
224352
224351
224350
224350
224349
224349
224349
224349
224349
224349
224349
224350
224350
224350
224351
224351
224350
224349
224348
224348
224348
224347
224348
224348
224348
224348
224349
224349
224351
224350
224349
224348
224347
224347
224347
224346
224346
224347
224347
224347
224348
224348
224350
224349
224348
224347
224347
224346
224346
224346
224346
224346
224346
224346
224347
224347
224349
224348
224347
224346
224346
224345
224345
224345
224345
224345
224345
224346
224346
224346
224348
224347
224347
224346
224345
224345
224344
224344
224344
224344
224345
224345
224345
224346
224348
224347
224346
224345
224345
224344
224344
224344
224344
224344
224344
224345
224345
224346
224347
224347
224346
224345
224344
224344
224344
224343
224343
224344
224344
224344
224345
224345
224347
224346
224346
224345
224344
224344
224344
224343
224343
224343
224344
224344
224345
224345
224347
224347
224346
224345
224344
224344
224344
224343
224343
224343
224344
224344
224345
224346
224347
224347
224346
224345
224345
224344
224344
224344
224343
224344
224344
224344
224345
224346
224348
224347
224346
224346
224345
224344
224344
224344
224344
224344
224344
224345
224345
224346
224348
224348
224347
224346
224345
224345
224344
224344
224344
224344
224344
224345
224346
224346
224349
224348
224347
224347
224346
224345
224345
224345
224344
224344
224345
224345
224346
224346
224065
224066
224066
224066
224066
224066
224066
224066
224066
224065
224065
224065
224064
224063
224065
224066
224066
224066
224066
224066
224066
224066
224066
224065
224065
224065
224064
224064
224065
224066
224066
224066
224066
224066
224066
224066
224066
224065
224065
224065
224064
224063
224065
224066
224066
224066
224066
224066
224066
224066
224066
224065
224065
224065
224064
224063
224065
224066
224066
224066
224066
224066
224066
224066
224066
224065
224065
224064
224064
224063
224065
224066
224066
224066
224066
224066
224066
224066
224065
224065
224065
224064
224064
224063
224065
224065
224066
224066
224066
224066
224066
224065
224065
224065
224065
224064
224064
224063
224065
224065
224065
224065
224065
224065
224065
224065
224065
224065
224064
224064
224063
224063
224065
224065
224065
224065
224065
224065
224065
224065
224065
224064
224064
224064
224063
224063
224064
224064
224065
224065
224065
224065
224065
224064
224064
224064
224064
224063
224063
224062
224064
224064
224064
224064
224064
224064
224064
224064
224064
224064
224063
224063
224062
224062
224063
224064
224064
224064
224064
224064
224064
224063
224063
224063
224063
224062
224062
224061
224063
224063
224063
224063
224063
224063
224063
224063
224063
224062
224062
224062
224061
224061
224062
224062
224063
224063
224063
224063
224062
224062
224062
224062
224061
224061
224061
224060
223791
223792
223793
223794
223795
223795
223795
223795
223795
223794
223793
223792
223791
223789
223792
223793
223794
223795
223796
223796
223796
223796
223796
223795
223794
223793
223792
223790
223793
223794
223795
223796
223797
223797
223797
223797
223797
223796
223795
223794
223793
223791
223793
223795
223796
223797
223798
223798
223798
223798
223798
223797
223796
223795
223793
223792
223794
223795
223797
223797
223798
223799
223799
223799
223798
223797
223796
223795
223794
223792
223794
223796
223797
223798
223798
223799
223799
223799
223798
223798
223797
223796
223794
223792
223794
223796
223797
223798
223798
223799
223799
223799
223798
223798
223797
223796
223794
223792
223794
223795
223797
223798
223798
223799
223799
223799
223798
223797
223796
223795
223794
223792
223794
223795
223796
223797
223798
223798
223798
223798
223798
223797
223796
223795
223793
223792
223793
223794
223795
223796
223797
223797
223797
223797
223797
223796
223795
223794
223792
223791
223792
223793
223794
223795
223796
223796
223796
223796
223796
223795
223794
223793
223791
223790
223791
223792
223793
223794
223794
223795
223795
223795
223794
223794
223793
223792
223790
223789
223789
223790
223791
223792
223793
223793
223793
223793
223793
223792
223791
223790
223789
223787
223787
223789
223790
223790
223791
223791
223792
223791
223791
223790
223790
223789
223787
223786
223523
223525
223526
223528
223529
223529
223529
223529
223529
223528
223527
223525
223523
223521
223524
223526
223528
223529
223530
223531
223531
223531
223531
223530
223528
223527
223525
223523
223526
223528
223530
223531
223532
223533
223533
223533
223532
223531
223530
223528
223526
223524
223527
223529
223531
223532
223533
223534
223534
223534
223533
223533
223531
223530
223528
223525
223528
223530
223532
223533
223534
223535
223535
223535
223534
223533
223532
223530
223528
223526
223528
223530
223532
223534
223535
223535
223536
223535
223535
223534
223533
223531
223529
223527
223529
223531
223532
223534
223535
223535
223536
223536
223535
223534
223533
223531
223529
223527
223528
223530
223532
223533
223534
223535
223535
223535
223535
223534
223532
223531
223529
223526
223528
223530
223531
223533
223534
223534
223535
223535
223534
223533
223532
223530
223528
223526
223527
223529
223530
223532
223533
223533
223534
223534
223533
223532
223531
223529
223527
223525
223525
223527
223529
223530
223531
223532
223532
223532
223531
223531
223529
223528
223525
223523
223524
223525
223527
223528
223529
223530
223530
223530
223530
223529
223528
223526
223524
223522
223522
223523
223525
223526
223527
223528
223528
223528
223528
223527
223525
223524
223522
223520
223519
223521
223522
223524
223525
223525
223526
223526
223525
223524
223523
223522
223520
223518
232814
232815
232814
232813
232812
232809
232836
232839
232841
232844
232846
232847
231751
231734
231719
231705
231691
231677
231759
231741
231726
231710
231696
231681
231767
231749
231733
231717
231701
231686
231776
231758
231741
231724
231708
231693
231785
231767
231750
231733
231716
231700
231795
231777
231759
231742
231724
231708
231805
231787
231770
231752
231734
231717
231816
231799
231782
231764
231746
231728
231828
231812
231795
231778
231760
231742
231840
231826
231810
231794
231777
231760
231853
231841
231827
231813
231798
231781
231867
231857
231846
231834
231822
231807
231882
231875
231867
231858
231849
231838
231898
231893
231888
231883
231878
231871
230928
230914
230902
230890
230878
230867
230933
230918
230905
230892
230880
230867
230936
230921
230908
230894
230881
230868
230941
230926
230911
230897
230884
230871
230946
230930
230915
230901
230887
230874
230951
230935
230920
230905
230891
230878
230956
230941
230925
230911
230896
230882
230962
230947
230932
230917
230902
230888
230968
230954
230939
230924
230910
230895
230975
230961
230947
230933
230919
230904
230981
230969
230956
230942
230929
230915
230988
230977
230966
230954
230942
230929
230997
230987
230977
230967
230956
230945
231004
230997
230988
230981
230973
230964
230170
230161
230153
230145
230138
230130
230171
230161
230152
230143
230135
230126
230171
230161
230151
230142
230132
230123
230172
230162
230151
230141
230132
230122
230174
230162
230152
230141
230132
230123
230175
230164
230153
230143
230133
230124
230177
230165
230154
230144
230135
230126
230179
230167
230156
230147
230137
230129
230180
230169
230159
230149
230140
230132
230182
230171
230161
230152
230143
230135
230183
230173
230164
230155
230146
230138
230185
230175
230167
230158
230150
230142
230186
230177
230169
230161
230154
230146
230187
230179
230172
230165
230158
230151
229470
229465
229460
229456
229452
229448
229470
229464
229458
229452
229447
229441
229469
229462
229455
229449
229442
229435
229468
229461
229453
229446
229439
229431
229468
229460
229452
229444
229437
229429
229467
229459
229451
229444
229436
229429
229467
229459
229451
229444
229437
229431
229466
229458
229451
229444
229438
229432
229464
229457
229450
229443
229438
229433
229463
229456
229449
229443
229438
229433
229461
229454
229448
229442
229437
229433
229459
229452
229446
229441
229436
229431
229457
229450
229444
229439
229434
229429
229454
229447
229442
229436
229431
229426
228819
228815
228812
228809
228806
228803
228819
228814
228810
228806
228801
228797
228818
228813
228808
228802
228796
228790
228818
228812
228806
228800
228793
228785
228817
228811
228805
228798
228790
228782
228816
228810
228803
228796
228789
228782
228814
228809
228802
228796
228789
228782
228813
228807
228801
228795
228789
228782
228810
228805
228799
228793
228788
228783
228808
228802
228797
228792
228787
228783
228804
228799
228794
228789
228785
228781
228801
228796
228791
228786
228782
228779
228798
228792
228787
228783
228779
228775
228792
228787
228782
228778
228773
228769
228209
228205
228202
228198
228194
228190
228210
228206
228202
228197
228192
228186
228210
228206
228201
228195
228189
228182
228210
228206
228200
228193
228186
228178
228210
228205
228199
228192
228184
228175
228209
228204
228198
228191
228183
228174
228208
228203
228197
228190
228182
228173
228207
228202
228196
228189
228181
228172
228205
228200
228194
228187
228180
228173
228202
228197
228192
228186
228179
228173
228199
228194
228189
228183
228178
228172
228196
228191
228186
228181
228176
228171
228192
228187
228182
228177
228173
228168
228187
228181
228177
228172
228168
228163
227638
227633
227629
227624
227619
227613
227640
227635
227630
227625
227619
227613
227641
227636
227631
227625
227619
227612
227642
227637
227631
227625
227618
227609
227642
227637
227631
227624
227616
227607
227642
227637
227631
227623
227614
227605
227642
227637
227630
227622
227613
227603
227641
227636
227629
227621
227612
227602
227640
227634
227628
227620
227612
227602
227638
227633
227626
227619
227611
227602
227636
227630
227624
227618
227611
227603
227633
227628
227622
227616
227609
227603
227630
227625
227620
227614
227608
227602
227626
227620
227615
227610
227605
227599