/*--------------------------------*- C++ -*----------------------------------*\
| =========                 |                                                 |
| \\      /  F ield         | OpenFOAM: The Open Source CFD Toolbox           |
|  \\    /   O peration     | Version:  v2106                                 |
|   \\  /    A nd           | Website:  www.openfoam.com                      |
|    \\/     M anipulation  |                                                 |
\*---------------------------------------------------------------------------*/
FoamFile
{
    version     2.0;
    format      ascii;
    arch        "LSB;label=32;scalar=64";
    class       surfaceScalarField;
    location    "0.00019";
    object      phi;
}
// * * * * * * * * * * * * * * * * * * * * * * * * * * * * * * * * * * * * * //

dimensions      [1 0 -1 0 0 0 0];

internalField   nonuniform List<scalar> 
52246
(
-3.95907e-08
-6.99226e-08
1.5572e-06
6.72912e-08
-7.12185e-08
1.5585e-06
7.05503e-08
-4.35691e-08
-4.05447e-08
-7.24252e-08
1.55945e-06
-7.23821e-08
1.56072e-06
-4.36835e-08
-4.05421e-08
-7.46005e-08
1.56119e-06
-7.37093e-08
1.56256e-06
-4.33535e-08
-4.12762e-08
-7.65408e-08
1.56351e-06
-7.50078e-08
1.56492e-06
-4.37122e-08
-4.13768e-08
-7.8516e-08
1.56531e-06
-7.66447e-08
1.56683e-06
-4.32724e-08
-4.15372e-08
-8.03673e-08
1.56736e-06
-7.81445e-08
1.56896e-06
-4.3233e-08
-4.11385e-08
-8.21484e-08
1.56917e-06
-7.96346e-08
1.57086e-06
-4.27069e-08
-4.07739e-08
-8.36808e-08
1.5711e-06
-8.0932e-08
1.57292e-06
-4.22802e-08
-3.98472e-08
-8.49753e-08
1.57292e-06
-8.19906e-08
1.57491e-06
-4.13985e-08
-3.87066e-08
-8.59963e-08
1.57483e-06
-8.28914e-08
1.57693e-06
-4.01785e-08
-3.6942e-08
-8.68707e-08
1.57675e-06
-8.39123e-08
1.57904e-06
-3.80139e-08
-3.61517e-08
-8.73884e-08
1.57874e-06
-8.56244e-08
1.58114e-06
-3.61305e-08
-3.51066e-08
-8.79187e-08
1.5809e-06
-8.8698e-08
1.58347e-06
-3.35109e-08
-3.71958e-08
1.58352e-06
-8.54671e-08
1.58509e-06
-3.77307e-08
-8.923e-08
1.91439e-10
-4.45759e-08
1.44514e-06
4.31307e-08
-2.39459e-09
-1.04161e-09
-4.32578e-08
1.44578e-06
4.07408e-08
-2.12566e-09
-4.53105e-08
1.44687e-06
4.27498e-08
-2.99644e-09
-4.50839e-08
1.44781e-06
4.23641e-08
-4.07436e-09
-4.52208e-08
1.44875e-06
4.28e-08
-5.28034e-09
-4.5145e-08
1.44965e-06
4.28744e-08
-6.46708e-09
-4.51931e-08
1.45054e-06
4.29201e-08
-7.53743e-09
-4.52587e-08
1.45146e-06
4.2871e-08
-8.42992e-09
-4.54062e-08
1.45243e-06
4.2848e-08
-9.08066e-09
-4.56546e-08
1.45335e-06
4.28414e-08
-9.47938e-09
-4.57195e-08
1.45427e-06
4.26281e-08
-9.97825e-09
-4.5994e-08
1.45511e-06
4.298e-08
-1.06145e-08
-4.51507e-08
1.45624e-06
4.23324e-08
-4.64085e-08
1.45703e-06
4.55424e-08
-1.36212e-08
1.56821e-09
-4.58605e-08
1.44687e-06
-4.0197e-09
-1.07804e-11
-4.55286e-08
1.44745e-06
-1.66058e-09
-4.7276e-08
1.44846e-06
-3.02383e-09
-4.73105e-08
1.44937e-06
-4.29441e-09
-4.74613e-08
1.4504e-06
-5.46204e-09
-4.74435e-08
1.4514e-06
-6.53999e-09
-4.74819e-08
1.45239e-06
-7.56397e-09
-4.75146e-08
1.45337e-06
-8.55626e-09
-4.76181e-08
1.45438e-06
-9.52197e-09
-4.78629e-08
1.45535e-06
-1.03425e-08
-4.80822e-08
1.45639e-06
-1.11993e-08
-4.83912e-08
1.45734e-06
-1.19532e-08
-4.76818e-08
1.45863e-06
-4.74335e-08
1.45946e-06
-1.46094e-08
-9.73968e-10
-4.74598e-08
1.44867e-06
-9.43366e-10
-1.86238e-09
-4.81685e-08
1.44921e-06
-2.89705e-09
-4.951e-08
1.45045e-06
-3.74366e-09
-4.97031e-08
1.45133e-06
-4.63446e-09
-4.97296e-08
1.45239e-06
-5.52332e-09
-4.96986e-08
1.45337e-06
-6.39571e-09
-4.96893e-08
1.45434e-06
-7.2368e-09
-4.97235e-08
1.45532e-06
-8.04922e-09
-4.98429e-08
1.45634e-06
-8.851e-09
-5.01139e-08
1.45732e-06
-9.63008e-09
-5.03338e-08
1.4583e-06
-1.04993e-08
-5.05723e-08
1.45928e-06
-1.13259e-08
-4.98202e-08
1.46047e-06
-4.90084e-08
1.46147e-06
-1.31434e-08
-5.04284e-10
-4.90874e-08
1.45072e-06
-1.13031e-09
-1.5169e-09
-5.04888e-08
1.45123e-06
-2.69748e-09
-5.14239e-08
1.45241e-06
-3.72643e-09
-5.17126e-08
1.45328e-06
-4.72933e-09
-5.16867e-08
1.45432e-06
-5.67353e-09
-5.16861e-08
1.45531e-06
-6.54823e-09
-5.1665e-08
1.45631e-06
-7.39672e-09
-5.16717e-08
1.45733e-06
-8.27791e-09
-5.17265e-08
1.45837e-06
-9.23035e-09
-5.19185e-08
1.4594e-06
-1.02127e-08
-5.20612e-08
1.46044e-06
-1.12771e-08
-5.22138e-08
1.4615e-06
-1.21325e-08
-5.15355e-08
1.46269e-06
-5.0361e-08
1.46373e-06
-1.3772e-08
-6.30263e-10
-5.09363e-08
1.45269e-06
-4.95101e-10
-1.61669e-09
-5.25994e-08
1.4532e-06
-2.77249e-09
-5.31318e-08
1.4544e-06
-3.78856e-09
-5.34773e-08
1.45528e-06
-4.75476e-09
-5.34152e-08
1.45631e-06
-5.67551e-09
-5.34371e-08
1.4573e-06
-6.55502e-09
-5.33977e-08
1.4583e-06
-7.41932e-09
-5.33846e-08
1.45932e-06
-8.31711e-09
-5.33887e-08
1.46038e-06
-9.30203e-09
-5.34926e-08
1.46142e-06
-1.03857e-08
-5.35142e-08
1.46246e-06
-1.157e-08
-5.35689e-08
1.46353e-06
-1.24207e-08
-5.30986e-08
1.46467e-06
-5.19224e-08
1.46576e-06
-1.35968e-08
-3.15699e-10
-5.28486e-08
1.45468e-06
-5.34483e-10
-1.29853e-09
-5.4531e-08
1.45532e-06
-2.5358e-09
-5.45948e-08
1.45641e-06
-3.65367e-09
-5.49478e-08
1.45732e-06
-4.69456e-09
-5.48779e-08
1.45832e-06
-5.67295e-09
-5.492e-08
1.45932e-06
-6.59555e-09
-5.4874e-08
1.46032e-06
-7.50761e-09
-5.48203e-08
1.46135e-06
-8.46373e-09
-5.4742e-08
1.46241e-06
-9.52759e-09
-5.47124e-08
1.46347e-06
-1.06792e-08
-5.46273e-08
1.46453e-06
-1.19351e-08
-5.45706e-08
1.46561e-06
-1.28217e-08
-5.43918e-08
1.46676e-06
-5.31494e-08
1.46782e-06
-1.39561e-08
-4.14986e-10
-5.47742e-08
1.45661e-06
-2.82107e-10
-1.37239e-09
-5.62877e-08
1.45743e-06
-2.56086e-09
-5.59192e-08
1.45844e-06
-3.65683e-09
-5.62351e-08
1.45939e-06
-4.66443e-09
-5.61668e-08
1.46038e-06
-5.61711e-09
-5.62123e-08
1.46138e-06
-6.52843e-09
-5.61518e-08
1.46238e-06
-7.43755e-09
-5.60506e-08
1.46341e-06
-8.38954e-09
-5.58962e-08
1.46447e-06
-9.45359e-09
-5.57352e-08
1.46553e-06
-1.06048e-08
-5.55653e-08
1.46659e-06
-1.18519e-08
-5.54026e-08
1.46764e-06
-1.28343e-08
-5.54849e-08
1.46876e-06
-5.41646e-08
1.46981e-06
-1.39336e-08
-3.98687e-10
-5.65495e-08
1.4586e-06
-3.56661e-10
-1.38596e-09
-5.78085e-08
1.4596e-06
-2.53772e-09
-5.71308e-08
1.46052e-06
-3.61117e-09
-5.73683e-08
1.46151e-06
-4.604e-09
-5.72954e-08
1.46247e-06
-5.53332e-09
-5.73285e-08
1.46348e-06
-6.42132e-09
-5.72453e-08
1.46447e-06
-7.3136e-09
-5.70822e-08
1.4655e-06
-8.26598e-09
-5.68394e-08
1.46655e-06
-9.345e-09
-5.65377e-08
1.4676e-06
-1.05245e-08
-5.628e-08
1.46865e-06
-1.17839e-08
-5.60102e-08
1.46969e-06
-1.29183e-08
-5.62714e-08
1.47076e-06
-5.48172e-08
1.47184e-06
-1.40908e-08
-5.93395e-10
-5.80528e-08
1.46063e-06
-3.14289e-10
-1.6285e-09
-5.90664e-08
1.46175e-06
-2.68888e-09
-5.82656e-08
1.4626e-06
-3.67183e-09
-5.8403e-08
1.46362e-06
-4.59036e-09
-5.83135e-08
1.46458e-06
-5.44758e-09
-5.83146e-08
1.46559e-06
-6.27432e-09
-5.81971e-08
1.46658e-06
-7.10983e-09
-5.79763e-08
1.4676e-06
-8.01616e-09
-5.76591e-08
1.46863e-06
-9.0444e-09
-5.72427e-08
1.46966e-06
-1.02002e-08
-5.68865e-08
1.47069e-06
-1.14042e-08
-5.65202e-08
1.47172e-06
-1.26804e-08
-5.68226e-08
1.4727e-06
-5.51587e-08
1.47385e-06
-1.39612e-08
-7.29291e-10
-5.92892e-08
1.46265e-06
-3.0211e-10
-1.82585e-09
-6.00749e-08
1.4639e-06
-2.8152e-09
-5.93215e-08
1.4647e-06
-3.71589e-09
-5.93546e-08
1.46575e-06
-4.54777e-09
-5.92585e-08
1.46672e-06
-5.303e-09
-5.92237e-08
1.46773e-06
-6.02171e-09
-5.9074e-08
1.46871e-06
-6.75874e-09
-5.87907e-08
1.46972e-06
-7.59836e-09
-5.83822e-08
1.47075e-06
-8.57601e-09
-5.78373e-08
1.47176e-06
-9.70544e-09
-5.73647e-08
1.47275e-06
-1.08622e-08
-5.68952e-08
1.47375e-06
-1.22571e-08
-5.71392e-08
1.47463e-06
-5.52596e-08
1.47583e-06
-1.36057e-08
-8.4882e-10
-6.01859e-08
1.46474e-06
-1.84995e-10
-2.0575e-09
-6.06565e-08
1.4661e-06
-2.92599e-09
-6.02112e-08
1.4668e-06
-3.67073e-09
-6.0208e-08
1.46787e-06
-4.3662e-09
-6.0125e-08
1.46883e-06
-5.03351e-09
-6.00245e-08
1.46986e-06
-5.70381e-09
-5.98251e-08
1.47084e-06
-6.40298e-09
-5.94926e-08
1.47184e-06
-7.1869e-09
-5.90294e-08
1.47284e-06
-8.07439e-09
-5.83944e-08
1.47381e-06
-9.09426e-09
-5.78319e-08
1.47478e-06
-1.00887e-08
-5.72821e-08
1.47572e-06
-1.15057e-08
-5.73114e-08
1.47656e-06
-5.53344e-08
1.47781e-06
-1.26467e-08
-8.29408e-10
-6.11074e-08
1.46673e-06
4.22687e-11
-2.02406e-09
-6.10688e-08
1.46821e-06
-2.77197e-09
-6.10639e-08
1.46888e-06
-3.4567e-09
-6.09773e-08
1.46999e-06
-4.08659e-09
-6.09223e-08
1.47097e-06
-4.69635e-09
-6.07443e-08
1.472e-06
-5.30644e-09
-6.04907e-08
1.47297e-06
-5.96433e-09
-6.00815e-08
1.47396e-06
-6.73478e-09
-5.95159e-08
1.47497e-06
-7.62442e-09
-5.87458e-08
1.47593e-06
-8.67967e-09
-5.80506e-08
1.47687e-06
-9.73128e-09
-5.74111e-08
1.47774e-06
-1.12361e-08
-5.72711e-08
1.4785e-06
-5.59223e-08
1.47972e-06
-1.16984e-08
-5.83118e-10
-6.24464e-08
1.46911e-06
5.85378e-10
-1.62343e-09
-6.13147e-08
1.47061e-06
-2.20232e-09
-6.16782e-08
1.47115e-06
-2.81324e-09
-6.1441e-08
1.47218e-06
-3.45132e-09
-6.14006e-08
1.47314e-06
-4.17001e-09
-6.11379e-08
1.47416e-06
-4.95454e-09
-6.08426e-08
1.47514e-06
-5.7998e-09
-6.04133e-08
1.47609e-06
-6.72663e-09
-5.9827e-08
1.47704e-06
-7.7182e-09
-5.9023e-08
1.47791e-06
-8.78587e-09
-5.82938e-08
1.4788e-06
-9.79033e-09
-5.76293e-08
1.47962e-06
-1.10125e-08
-5.73908e-08
1.48054e-06
-5.80999e-08
1.48186e-06
-9.77343e-09
6.46883e-10
1.47089e-06
-6.47905e-08
3.03086e-10
-5.70723e-10
1.47218e-06
-6.14892e-08
-1.36151e-09
1.47301e-06
-6.21929e-08
-2.24697e-09
1.47413e-06
-6.17875e-08
-3.04657e-09
1.47517e-06
-6.17756e-08
-3.80976e-09
1.4762e-06
-6.14551e-08
-4.56091e-09
1.47719e-06
-6.1071e-08
-5.28845e-09
1.47819e-06
-6.05873e-08
-6.02138e-09
1.47919e-06
-5.99474e-08
-6.82461e-09
1.48009e-06
-5.90254e-08
-7.91957e-09
1.48099e-06
-5.79492e-08
-9.63711e-09
1.4818e-06
-5.66235e-08
-1.302e-08
1.48272e-06
-5.49131e-08
1.48375e-06
-1.42259e-08
-5.81938e-08
1.02646e-08
-2.27104e-08
1.35683e-06
2.26535e-08
-1.22561e-08
9.60874e-09
-2.17603e-08
1.35704e-06
2.03442e-08
9.08005e-09
-2.3365e-08
1.35746e-06
2.1994e-08
8.68359e-09
-2.31909e-08
1.35787e-06
2.17193e-08
8.17359e-09
-2.31326e-08
1.35824e-06
2.18211e-08
7.60848e-09
-2.29454e-08
1.35859e-06
2.16981e-08
7.09436e-09
-2.27408e-08
1.35891e-06
2.14535e-08
6.68827e-09
-2.25004e-08
1.35925e-06
2.10981e-08
6.4401e-09
-2.22899e-08
1.35962e-06
2.0694e-08
6.42807e-09
-2.22161e-08
1.35991e-06
2.02977e-08
6.64242e-09
-2.19605e-08
1.36015e-06
1.9687e-08
6.90754e-09
-2.1817e-08
1.36028e-06
1.93347e-08
7.13655e-09
-2.02388e-08
1.36058e-06
1.76727e-08
-2.10721e-08
1.3609e-06
1.99968e-08
5.28715e-09
1.13596e-08
-2.27269e-08
1.35835e-06
-1.32846e-08
1.04949e-08
-2.28665e-08
1.35852e-06
9.64461e-09
-2.42703e-08
1.35886e-06
8.99602e-09
-2.42685e-08
1.35924e-06
8.48766e-09
-2.42683e-08
1.35966e-06
8.08088e-09
-2.41434e-08
1.36006e-06
7.75245e-09
-2.399e-08
1.36041e-06
7.4561e-09
-2.37828e-08
1.36073e-06
7.16037e-09
-2.3591e-08
1.36106e-06
6.84393e-09
-2.35408e-08
1.36132e-06
6.52474e-09
-2.33532e-08
1.36161e-06
6.13807e-09
-2.32883e-08
1.36181e-06
5.98864e-09
-2.20712e-08
1.36224e-06
-2.20314e-08
1.36263e-06
4.24982e-09
9.43328e-09
-2.3275e-08
1.35963e-06
-1.05643e-08
9.07092e-09
-2.41755e-08
1.35977e-06
8.67549e-09
-2.52921e-08
1.3603e-06
8.41755e-09
-2.53854e-08
1.36068e-06
8.2107e-09
-2.53457e-08
1.36113e-06
8.04503e-09
-2.52298e-08
1.36152e-06
7.91874e-09
-2.51029e-08
1.36187e-06
7.81853e-09
-2.49628e-08
1.36222e-06
7.72803e-09
-2.48594e-08
1.36258e-06
7.63447e-09
-2.48992e-08
1.36289e-06
7.53794e-09
-2.47974e-08
1.36315e-06
7.37051e-09
-2.4808e-08
1.36338e-06
7.37597e-09
-2.38174e-08
1.36361e-06
-2.33047e-08
1.36412e-06
6.36336e-09
9.72499e-09
-2.39242e-08
1.36114e-06
-1.04954e-08
9.29733e-09
-2.52019e-08
1.36132e-06
8.82473e-09
-2.60089e-08
1.36183e-06
8.49312e-09
-2.61664e-08
1.36217e-06
8.26979e-09
-2.61406e-08
1.36261e-06
8.13941e-09
-2.60698e-08
1.363e-06
8.07814e-09
-2.59915e-08
1.36336e-06
8.02144e-09
-2.58942e-08
1.36371e-06
7.90541e-09
-2.58116e-08
1.36407e-06
7.69609e-09
-2.58483e-08
1.36439e-06
7.4243e-09
-2.57785e-08
1.36469e-06
7.0139e-09
-2.58084e-08
1.36498e-06
6.81562e-09
-2.51084e-08
1.36523e-06
-2.43731e-08
1.36571e-06
5.89432e-09
9.63544e-09
-2.48154e-08
1.36256e-06
-9.96542e-09
9.22174e-09
-2.6063e-08
1.36279e-06
8.7722e-09
-2.65528e-08
1.36332e-06
8.46976e-09
-2.67547e-08
1.36368e-06
8.28153e-09
-2.67443e-08
1.36411e-06
8.17757e-09
-2.67083e-08
1.36451e-06
8.1194e-09
-2.66575e-08
1.36487e-06
8.05929e-09
-2.65938e-08
1.36524e-06
7.94693e-09
-2.65388e-08
1.36561e-06
7.7339e-09
-2.65764e-08
1.36595e-06
7.41368e-09
-2.6527e-08
1.36625e-06
6.91848e-09
-2.65647e-08
1.36657e-06
6.63389e-09
-2.61887e-08
1.3668e-06
-2.55502e-08
1.36724e-06
6.04517e-09
9.74302e-09
-2.57332e-08
1.36401e-06
-9.90061e-09
9.36208e-09
-2.679e-08
1.36436e-06
8.90431e-09
-2.69329e-08
1.36483e-06
8.58243e-09
-2.71404e-08
1.3652e-06
8.37054e-09
-2.71455e-08
1.36562e-06
8.24642e-09
-2.71411e-08
1.36602e-06
8.16966e-09
-2.71152e-08
1.36638e-06
8.0827e-09
-2.70631e-08
1.36675e-06
7.92563e-09
-2.70058e-08
1.36712e-06
7.63302e-09
-2.70091e-08
1.36746e-06
7.2209e-09
-2.69777e-08
1.36778e-06
6.62832e-09
-2.70163e-08
1.3681e-06
6.2409e-09
-2.69908e-08
1.36839e-06
-2.64875e-08
1.36872e-06
5.69011e-09
9.59987e-09
-2.66389e-08
1.36546e-06
-9.7191e-09
9.26748e-09
-2.74411e-08
1.36592e-06
8.87181e-09
-2.72667e-08
1.36634e-06
8.59215e-09
-2.74364e-08
1.36674e-06
8.40724e-09
-2.74375e-08
1.36716e-06
8.2973e-09
-2.74435e-08
1.36756e-06
8.21863e-09
-2.74226e-08
1.36792e-06
8.11965e-09
-2.73639e-08
1.36829e-06
7.94486e-09
-2.72951e-08
1.36866e-06
7.62341e-09
-2.72578e-08
1.36901e-06
7.17755e-09
-2.72434e-08
1.36933e-06
6.5664e-09
-2.72894e-08
1.36963e-06
6.0554e-09
-2.75463e-08
1.36995e-06
-2.7187e-08
1.3702e-06
5.49134e-09
9.51492e-09
-2.74288e-08
1.36695e-06
-9.73341e-09
9.21721e-09
-2.80077e-08
1.36749e-06
8.86151e-09
-2.75736e-08
1.36788e-06
8.61851e-09
-2.76739e-08
1.36828e-06
8.45324e-09
-2.7654e-08
1.3687e-06
8.35982e-09
-2.76554e-08
1.3691e-06
8.28588e-09
-2.76243e-08
1.36946e-06
8.17556e-09
-2.75422e-08
1.36982e-06
7.96998e-09
-2.74435e-08
1.37019e-06
7.60085e-09
-2.73458e-08
1.37053e-06
7.10009e-09
-2.73303e-08
1.37084e-06
6.43763e-09
-2.73769e-08
1.37115e-06
5.76656e-09
-2.78302e-08
1.37146e-06
-2.75365e-08
1.37168e-06
5.05784e-09
9.34673e-09
-2.81124e-08
1.36847e-06
-9.68863e-09
9.09177e-09
-2.85354e-08
1.36903e-06
8.78525e-09
-2.7909e-08
1.36941e-06
8.60094e-09
-2.79192e-08
1.36981e-06
8.47385e-09
-2.78592e-08
1.37023e-06
8.41061e-09
-2.78356e-08
1.37063e-06
8.34634e-09
-2.77744e-08
1.37098e-06
8.22971e-09
-2.76581e-08
1.37134e-06
8.00809e-09
-2.75213e-08
1.37171e-06
7.62421e-09
-2.73545e-08
1.37204e-06
7.09374e-09
-2.73096e-08
1.37233e-06
6.38613e-09
-2.73385e-08
1.37264e-06
5.5599e-09
-2.7904e-08
1.37291e-06
-2.75703e-08
1.37318e-06
4.67709e-09
9.20772e-09
-2.87093e-08
1.36996e-06
-9.66823e-09
8.96378e-09
-2.90242e-08
1.37057e-06
8.68941e-09
-2.82838e-08
1.37096e-06
8.56582e-09
-2.82072e-08
1.37136e-06
8.49705e-09
-2.81096e-08
1.37178e-06
8.49406e-09
-2.80574e-08
1.37217e-06
8.47746e-09
-2.79597e-08
1.37252e-06
8.38928e-09
-2.77951e-08
1.37287e-06
8.17631e-09
-2.75918e-08
1.37323e-06
7.7873e-09
-2.73195e-08
1.37355e-06
7.2269e-09
-2.72085e-08
1.37382e-06
6.44135e-09
-2.71763e-08
1.3741e-06
5.43881e-09
-2.77958e-08
1.37432e-06
-2.73305e-08
1.3746e-06
4.37487e-09
9.23567e-09
-2.92979e-08
1.37144e-06
-9.66329e-09
8.93922e-09
-2.93851e-08
1.37212e-06
8.74588e-09
-2.87117e-08
1.37245e-06
8.71702e-09
-2.85633e-08
1.37285e-06
8.71326e-09
-2.84095e-08
1.37328e-06
8.72846e-09
-2.82907e-08
1.37367e-06
8.68543e-09
-2.81255e-08
1.37402e-06
8.55423e-09
-2.79042e-08
1.37436e-06
8.31373e-09
-2.76426e-08
1.3747e-06
7.92001e-09
-2.72712e-08
1.37498e-06
7.34396e-09
-2.70876e-08
1.37524e-06
6.51101e-09
-2.69832e-08
1.37548e-06
5.36293e-09
-2.75914e-08
1.37569e-06
-2.6993e-08
1.37594e-06
4.30006e-09
9.30431e-09
-3.01745e-08
1.37287e-06
-9.49626e-09
9.00211e-09
-2.97463e-08
1.37362e-06
8.8862e-09
-2.92518e-08
1.37394e-06
8.89705e-09
-2.89932e-08
1.37439e-06
8.92598e-09
-2.87778e-08
1.37481e-06
8.95431e-09
-2.85805e-08
1.37519e-06
8.90767e-09
-2.83385e-08
1.37552e-06
8.74438e-09
-2.80396e-08
1.37585e-06
8.44489e-09
-2.7691e-08
1.37619e-06
7.98875e-09
-2.72127e-08
1.37647e-06
7.34337e-09
-2.696e-08
1.37671e-06
6.4257e-09
-2.67995e-08
1.37688e-06
5.14664e-09
-2.73902e-08
1.37706e-06
-2.6883e-08
1.37718e-06
4.3088e-09
1.00751e-08
-3.14688e-08
1.37453e-06
-9.63974e-09
9.80827e-09
-2.99466e-08
1.37528e-06
9.75708e-09
-2.96761e-08
1.37547e-06
9.76976e-09
-2.93223e-08
1.37588e-06
9.71919e-09
-2.90186e-08
1.37629e-06
9.55938e-09
-2.86966e-08
1.3767e-06
9.25599e-09
-2.83552e-08
1.37704e-06
8.81019e-09
-2.79915e-08
1.37735e-06
8.228e-09
-2.75874e-08
1.37763e-06
7.519e-09
-2.70703e-08
1.37784e-06
6.65786e-09
-2.68074e-08
1.37804e-06
5.56191e-09
-2.66194e-08
1.37817e-06
4.26807e-09
-2.72259e-08
1.37845e-06
-2.79014e-08
1.37852e-06
4.63265e-09
1.15748e-08
1.37603e-06
-3.32857e-08
-1.09325e-08
1.06154e-08
1.3766e-06
-2.98368e-08
1.01907e-08
1.37693e-06
-3.00043e-08
9.93112e-09
1.37738e-06
-2.96244e-08
9.77229e-09
1.37776e-06
-2.92978e-08
9.55895e-09
1.3781e-06
-2.8844e-08
9.22066e-09
1.3784e-06
-2.83654e-08
8.77527e-09
1.37869e-06
-2.79452e-08
8.23019e-09
1.379e-06
-2.75241e-08
7.57064e-09
1.37922e-06
-2.69891e-08
6.70371e-09
1.3794e-06
-2.66137e-08
5.43582e-09
1.37947e-06
-2.61532e-08
3.12756e-09
1.37975e-06
-2.59582e-08
1.37987e-06
2.03381e-09
-2.7936e-08
1.34601e-08
-5.98349e-09
1.27451e-06
6.62672e-09
-1.5098e-08
1.3215e-08
-5.57157e-09
1.2743e-06
4.96294e-09
1.29814e-08
-6.76989e-09
1.27431e-06
6.25115e-09
1.28213e-08
-6.64723e-09
1.27437e-06
6.11138e-09
1.26303e-08
-6.45545e-09
1.27436e-06
6.02776e-09
1.24274e-08
-6.19784e-09
1.27433e-06
5.82444e-09
1.22486e-08
-5.91639e-09
1.27426e-06
5.51848e-09
1.21103e-08
-5.57643e-09
1.27418e-06
5.10154e-09
1.20654e-08
-5.23521e-09
1.27412e-06
4.60803e-09
1.21847e-08
-5.02261e-09
1.27396e-06
4.11519e-09
1.24756e-08
-4.57236e-09
1.27375e-06
3.32961e-09
1.29264e-08
-4.26788e-09
1.27341e-06
2.69757e-09
1.35471e-08
-2.43631e-09
1.27315e-06
4.66331e-10
-3.05242e-09
1.27303e-06
1.99386e-09
1.29904e-08
1.41719e-08
-5.37442e-09
1.27536e-06
-1.53898e-08
1.3839e-08
-5.71115e-09
1.27518e-06
1.34205e-08
-6.77367e-09
1.27516e-06
1.31653e-08
-6.75028e-09
1.2752e-06
1.30629e-08
-6.62941e-09
1.27522e-06
1.30584e-08
-6.42924e-09
1.27522e-06
1.30966e-08
-6.20875e-09
1.27515e-06
1.31373e-08
-5.92245e-09
1.27503e-06
1.31715e-08
-5.63235e-09
1.27487e-06
1.31851e-08
-5.48609e-09
1.27463e-06
1.31163e-08
-5.115e-09
1.2744e-06
1.28994e-08
-4.88695e-09
1.27406e-06
1.2868e-08
-3.40899e-09
1.27383e-06
-3.50525e-09
1.27378e-06
1.20883e-08
1.27776e-08
-5.29713e-09
1.27612e-06
-1.33135e-08
1.27719e-08
-6.04133e-09
1.27594e-06
1.26687e-08
-6.89582e-09
1.27609e-06
1.27061e-08
-6.93457e-09
1.27612e-06
1.2855e-08
-6.8322e-09
1.27616e-06
1.30674e-08
-6.64922e-09
1.27615e-06
1.32991e-08
-6.4705e-09
1.27606e-06
1.35415e-08
-6.25962e-09
1.27595e-06
1.37992e-08
-6.06307e-09
1.27584e-06
1.40388e-08
-6.0104e-09
1.27564e-06
1.42175e-08
-5.76428e-09
1.27539e-06
1.42561e-08
-5.64006e-09
1.27509e-06
1.44636e-08
-4.54768e-09
1.27465e-06
-4.23251e-09
1.27467e-06
1.39955e-08
1.28856e-08
-5.29744e-09
1.27699e-06
-1.31483e-08
1.28655e-08
-6.14658e-09
1.27687e-06
1.27623e-08
-6.79477e-09
1.27701e-06
1.27995e-08
-6.88363e-09
1.277e-06
1.29723e-08
-6.82912e-09
1.27703e-06
1.32415e-08
-6.70018e-09
1.27701e-06
1.35452e-08
-6.58563e-09
1.27694e-06
1.38431e-08
-6.43845e-09
1.27682e-06
1.41104e-08
-6.29303e-09
1.27668e-06
1.42995e-08
-6.2678e-09
1.27648e-06
1.43991e-08
-6.11036e-09
1.27623e-06
1.42853e-08
-6.03043e-09
1.27596e-06
1.43033e-08
-5.32274e-09
1.27554e-06
-4.85354e-09
1.27553e-06
1.39138e-08
1.28028e-08
-5.47319e-09
1.27778e-06
-1.27719e-08
1.28171e-08
-6.15488e-09
1.27772e-06
1.27644e-08
-6.58818e-09
1.27787e-06
1.28394e-08
-6.70425e-09
1.27788e-06
1.30452e-08
-6.69011e-09
1.27791e-06
1.33413e-08
-6.60809e-09
1.27789e-06
1.3653e-08
-6.53796e-09
1.27781e-06
1.39481e-08
-6.44204e-09
1.27769e-06
1.4214e-08
-6.35005e-09
1.27756e-06
1.43977e-08
-6.35073e-09
1.27737e-06
1.4483e-08
-6.27051e-09
1.27712e-06
1.43554e-08
-6.23803e-09
1.27687e-06
1.42987e-08
-5.8862e-09
1.27645e-06
-5.52439e-09
1.27634e-06
1.41509e-08
1.28061e-08
-5.66987e-09
1.27854e-06
-1.26626e-08
1.28748e-08
-6.09076e-09
1.27858e-06
1.28582e-08
-6.29386e-09
1.2787e-06
1.29454e-08
-6.40215e-09
1.27871e-06
1.31477e-08
-6.41442e-09
1.27874e-06
1.34379e-08
-6.3762e-09
1.27871e-06
1.37414e-08
-6.34718e-09
1.27863e-06
1.40175e-08
-6.29177e-09
1.27851e-06
1.42461e-08
-6.23697e-09
1.27838e-06
1.43731e-08
-6.24679e-09
1.27819e-06
1.43942e-08
-6.23097e-09
1.27795e-06
1.42206e-08
-6.26003e-09
1.2777e-06
1.40844e-08
-6.22207e-09
1.27733e-06
-6.11633e-09
1.2771e-06
1.40116e-08
1.26922e-08
-5.875e-09
1.27931e-06
-1.25149e-08
1.28225e-08
-6.02583e-09
1.27942e-06
1.28677e-08
-6.00458e-09
1.27951e-06
1.29908e-08
-6.07064e-09
1.27954e-06
1.32096e-08
-6.08589e-09
1.27956e-06
1.35056e-08
-6.07569e-09
1.27954e-06
1.38032e-08
-6.07149e-09
1.27945e-06
1.40625e-08
-6.04206e-09
1.27934e-06
1.42647e-08
-6.01297e-09
1.27921e-06
1.43583e-08
-6.02541e-09
1.27902e-06
1.4336e-08
-6.06195e-09
1.27878e-06
1.41588e-08
-6.16788e-09
1.27852e-06
1.40173e-08
-6.38834e-09
1.2782e-06
-6.56794e-09
1.27788e-06
1.38316e-08
1.25949e-08
-6.00276e-09
1.28007e-06
-1.24854e-08
1.27698e-08
-5.95168e-09
1.28019e-06
1.28537e-08
-5.72483e-09
1.28029e-06
1.30067e-08
-5.73486e-09
1.28032e-06
1.32412e-08
-5.74081e-09
1.28035e-06
1.35452e-08
-5.74889e-09
1.28033e-06
1.38402e-08
-5.75622e-09
1.28024e-06
1.40839e-08
-5.73852e-09
1.28012e-06
1.42554e-08
-5.71888e-09
1.27999e-06
1.43026e-08
-5.7153e-09
1.2798e-06
1.42249e-08
-5.78837e-09
1.27956e-06
1.40021e-08
-5.9665e-09
1.2793e-06
1.37902e-08
-6.41917e-09
1.27899e-06
-6.80475e-09
1.27868e-06
1.34558e-08
1.24644e-08
-6.08983e-09
1.28083e-06
-1.24352e-08
1.26959e-08
-5.92571e-09
1.28092e-06
1.28076e-08
-5.49477e-09
1.28105e-06
1.29939e-08
-5.44797e-09
1.28106e-06
1.32455e-08
-5.43477e-09
1.28109e-06
1.35542e-08
-5.4486e-09
1.28107e-06
1.38391e-08
-5.45115e-09
1.28098e-06
1.40621e-08
-5.43157e-09
1.28086e-06
1.42071e-08
-5.40719e-09
1.28072e-06
1.42219e-08
-5.36724e-09
1.28053e-06
1.40973e-08
-5.45945e-09
1.28029e-06
1.37788e-08
-5.6744e-09
1.28005e-06
1.34781e-08
-6.34683e-09
1.2797e-06
-6.81653e-09
1.27947e-06
1.29763e-08
1.22912e-08
-6.13897e-09
1.28155e-06
-1.23964e-08
1.25547e-08
-5.97241e-09
1.28161e-06
1.26832e-08
-5.34632e-09
1.28179e-06
1.29205e-08
-5.26625e-09
1.28179e-06
1.32164e-08
-5.23508e-09
1.28183e-06
1.35586e-08
-5.25015e-09
1.2818e-06
1.38647e-08
-5.23991e-09
1.28171e-06
1.41004e-08
-5.20541e-09
1.28158e-06
1.42519e-08
-5.15474e-09
1.28144e-06
1.42565e-08
-5.0461e-09
1.28125e-06
1.40828e-08
-5.12858e-09
1.28099e-06
1.36146e-08
-5.31588e-09
1.28075e-06
1.3159e-08
-6.18499e-09
1.28038e-06
-6.58156e-09
1.28019e-06
1.24487e-08
1.23365e-08
-6.26361e-09
1.28223e-06
-1.24962e-08
1.2604e-08
-6.10603e-09
1.28231e-06
1.27601e-08
-5.33001e-09
1.28246e-06
1.30379e-08
-5.21351e-09
1.28246e-06
1.33536e-08
-5.1396e-09
1.28249e-06
1.36795e-08
-5.12614e-09
1.28247e-06
1.39398e-08
-5.08135e-09
1.28237e-06
1.41251e-08
-5.02519e-09
1.28224e-06
1.42356e-08
-4.95116e-09
1.28208e-06
1.42007e-08
-4.77925e-09
1.28187e-06
1.39555e-08
-4.84254e-09
1.28161e-06
1.33204e-08
-4.97284e-09
1.28134e-06
1.2685e-08
-6.0039e-09
1.281e-06
-6.20731e-09
1.28081e-06
1.1873e-08
1.23169e-08
-6.52793e-09
1.28285e-06
-1.24987e-08
1.26096e-08
-6.34865e-09
1.28294e-06
1.28059e-08
-5.47384e-09
1.2831e-06
1.31199e-08
-5.30212e-09
1.28313e-06
1.34513e-08
-5.15755e-09
1.28317e-06
1.37563e-08
-5.08917e-09
1.28313e-06
1.39713e-08
-4.99518e-09
1.28301e-06
1.41002e-08
-4.90724e-09
1.28287e-06
1.41486e-08
-4.80854e-09
1.28272e-06
1.40451e-08
-4.59246e-09
1.28251e-06
1.37146e-08
-4.63995e-09
1.28224e-06
1.29895e-08
-4.72222e-09
1.28194e-06
1.2276e-08
-5.89423e-09
1.28158e-06
-5.88704e-09
1.28132e-06
1.1402e-08
1.35587e-08
-7.24751e-09
1.28359e-06
-1.32859e-08
1.36045e-08
-6.35489e-09
1.28366e-06
1.36895e-08
-5.56096e-09
1.28369e-06
1.391e-08
-5.37614e-09
1.28371e-06
1.41073e-08
-5.1165e-09
1.28373e-06
1.42019e-08
-4.93759e-09
1.28371e-06
1.41564e-08
-4.75955e-09
1.28361e-06
1.39914e-08
-4.61003e-09
1.28344e-06
1.37142e-08
-4.46388e-09
1.28324e-06
1.32895e-08
-4.23431e-09
1.28295e-06
1.26627e-08
-4.306e-09
1.28269e-06
1.17114e-08
-4.38997e-09
1.28235e-06
1.08066e-08
-5.70519e-09
1.28213e-06
-5.9542e-09
1.28181e-06
1.01806e-08
1.4331e-08
1.28443e-06
-8.38074e-09
-1.40799e-08
1.37968e-08
1.28438e-06
-6.20636e-09
1.37106e-08
1.28445e-06
-5.81411e-09
1.38227e-08
1.28448e-06
-5.66237e-09
1.39496e-08
1.28442e-06
-5.30516e-09
1.39443e-08
1.28431e-06
-4.97057e-09
1.3777e-08
1.28414e-06
-4.67307e-09
1.35143e-08
1.28398e-06
-4.49637e-09
1.31967e-08
1.28383e-06
-4.39614e-09
1.28106e-08
1.28361e-06
-4.27581e-09
1.22928e-08
1.28334e-06
-4.42923e-09
1.14706e-08
1.28298e-06
-4.50217e-09
1.03452e-08
1.28278e-06
-5.61478e-09
1.28243e-06
9.61396e-09
-6.16718e-09
1.19757e-08
3.77009e-09
1.19741e-06
-3.23302e-09
-1.28422e-08
1.19557e-08
3.97948e-09
1.19712e-06
-4.17975e-09
1.19092e-08
3.07036e-09
1.19696e-06
-3.13549e-09
1.18981e-08
3.24692e-09
1.19688e-06
-3.26677e-09
1.18558e-08
3.44175e-09
1.19673e-06
-3.37225e-09
1.17523e-08
3.66749e-09
1.19654e-06
-3.51814e-09
1.16107e-08
3.85894e-09
1.19628e-06
-3.69035e-09
1.1452e-08
4.10664e-09
1.19601e-06
-3.96604e-09
1.13155e-08
4.35895e-09
1.19575e-06
-4.30937e-09
1.12742e-08
4.4794e-09
1.19539e-06
-4.62146e-09
1.13735e-08
4.81379e-09
1.19497e-06
-5.21376e-09
1.15665e-08
4.96561e-09
1.19442e-06
-5.6145e-09
1.19887e-08
6.71827e-09
1.19401e-06
-7.80794e-09
6.02383e-09
1.19352e-06
-7.04763e-09
1.21896e-08
1.24846e-08
4.29598e-09
1.19776e-06
-1.308e-08
1.23491e-08
4.15445e-09
1.19751e-06
1.21401e-08
3.37661e-09
1.19737e-06
1.20793e-08
3.46333e-09
1.19728e-06
1.21081e-08
3.61437e-09
1.19715e-06
1.21855e-08
3.80116e-09
1.19699e-06
1.22662e-08
3.95387e-09
1.19675e-06
1.23208e-08
4.16374e-09
1.19644e-06
1.23288e-08
4.37987e-09
1.19607e-06
1.22861e-08
4.44389e-09
1.19561e-06
1.21683e-08
4.72874e-09
1.19516e-06
1.19216e-08
4.85108e-09
1.19457e-06
1.18798e-08
6.22227e-09
1.1941e-06
5.9219e-09
1.19364e-06
1.13243e-08
1.14405e-08
4.53437e-09
1.19809e-06
-1.16176e-08
1.15307e-08
4.2029e-09
1.19787e-06
1.1551e-08
3.58804e-09
1.19786e-06
1.16928e-08
3.62036e-09
1.19775e-06
1.19141e-08
3.75025e-09
1.19763e-06
1.21653e-08
3.92965e-09
1.19744e-06
1.24077e-08
4.06168e-09
1.19716e-06
1.26407e-08
4.22043e-09
1.19685e-06
1.28549e-08
4.3753e-09
1.19652e-06
1.30112e-08
4.39134e-09
1.1961e-06
1.31143e-08
4.59858e-09
1.19561e-06
1.30887e-08
4.69139e-09
1.19505e-06
1.32343e-08
5.6713e-09
1.19439e-06
5.73487e-09
1.19398e-06
1.2892e-08
1.15164e-08
4.77385e-09
1.19848e-06
-1.15788e-08
1.15836e-08
4.41614e-09
1.19828e-06
1.162e-08
3.93572e-09
1.19827e-06
1.17674e-08
3.92262e-09
1.19813e-06
1.19979e-08
4.00912e-09
1.198e-06
1.22845e-08
4.14525e-09
1.1978e-06
1.25796e-08
4.23443e-09
1.19754e-06
1.28572e-08
4.34658e-09
1.19722e-06
1.30938e-08
4.46246e-09
1.19686e-06
1.32357e-08
4.46832e-09
1.19641e-06
1.33112e-08
4.61241e-09
1.19591e-06
1.32233e-08
4.70856e-09
1.19538e-06
1.32455e-08
5.34786e-09
1.19472e-06
5.5725e-09
1.1943e-06
1.29832e-08
1.1553e-08
4.88827e-09
1.19878e-06
-1.14223e-08
1.16322e-08
4.68481e-09
1.19864e-06
1.16911e-08
4.34364e-09
1.19864e-06
1.18425e-08
4.30192e-09
1.1985e-06
1.20772e-08
4.34276e-09
1.19836e-06
1.23735e-08
4.43403e-09
1.19816e-06
1.26744e-08
4.48821e-09
1.19788e-06
1.29528e-08
4.56185e-09
1.19756e-06
1.31921e-08
4.63856e-09
1.1972e-06
1.33364e-08
4.63724e-09
1.19676e-06
1.341e-08
4.72082e-09
1.19625e-06
1.33495e-08
4.79129e-09
1.19574e-06
1.33267e-08
5.15195e-09
1.19508e-06
5.29412e-09
1.19456e-06
1.32547e-08
1.15965e-08
4.96144e-09
1.19899e-06
-1.13715e-08
1.1712e-08
4.98307e-09
1.19893e-06
1.17996e-08
4.7921e-09
1.1989e-06
1.19479e-08
4.75112e-09
1.19877e-06
1.21681e-08
4.75801e-09
1.19863e-06
1.24521e-08
4.80295e-09
1.19842e-06
1.27432e-08
4.82098e-09
1.19814e-06
1.301e-08
4.85901e-09
1.19782e-06
1.32306e-08
4.9025e-09
1.19745e-06
1.33541e-08
4.89413e-09
1.19702e-06
1.33992e-08
4.92333e-09
1.19651e-06
1.3349e-08
4.92441e-09
1.19599e-06
1.32874e-08
5.06282e-09
1.19537e-06
4.98375e-09
1.19477e-06
1.32819e-08
1.15779e-08
5.00515e-09
1.1992e-06
-1.1307e-08
1.17322e-08
5.25856e-09
1.1992e-06
1.18558e-08
5.22179e-09
1.19914e-06
1.20126e-08
5.20885e-09
1.19903e-06
1.2228e-08
5.19938e-09
1.19887e-06
1.25053e-08
5.20294e-09
1.19867e-06
1.27862e-08
5.19091e-09
1.19839e-06
1.30413e-08
5.19759e-09
1.19806e-06
1.32476e-08
5.21217e-09
1.19769e-06
1.33606e-08
5.19352e-09
1.19726e-06
1.33867e-08
5.17637e-09
1.19676e-06
1.3348e-08
5.07958e-09
1.19622e-06
1.32756e-08
5.02813e-09
1.19564e-06
4.69149e-09
1.19499e-06
1.32713e-08
1.15289e-08
5.0881e-09
1.19936e-06
-1.12936e-08
1.17069e-08
5.51511e-09
1.19936e-06
1.1849e-08
5.63712e-09
1.19931e-06
1.20174e-08
5.65874e-09
1.1992e-06
1.22394e-08
5.63912e-09
1.19905e-06
1.25205e-08
5.60439e-09
1.19885e-06
1.28003e-08
5.56836e-09
1.19856e-06
1.30493e-08
5.54982e-09
1.19824e-06
1.32413e-08
5.54352e-09
1.19787e-06
1.33305e-08
5.52408e-09
1.19743e-06
1.33297e-08
5.46567e-09
1.19693e-06
1.32564e-08
5.27969e-09
1.1964e-06
1.31801e-08
5.01728e-09
1.19582e-06
4.45275e-09
1.19521e-06
1.31168e-08
1.14572e-08
5.19882e-09
1.19951e-06
-1.12792e-08
1.16641e-08
5.71608e-09
1.19945e-06
1.1806e-08
6.02734e-09
1.19944e-06
1.19823e-08
6.07531e-09
1.19931e-06
1.22098e-08
6.04558e-09
1.19916e-06
1.24902e-08
5.97789e-09
1.19896e-06
1.27637e-08
5.9249e-09
1.19867e-06
1.30017e-08
5.88667e-09
1.19834e-06
1.31784e-08
5.86449e-09
1.19797e-06
1.32407e-08
5.85859e-09
1.19754e-06
1.32215e-08
5.75672e-09
1.19704e-06
1.30895e-08
5.524e-09
1.19653e-06
1.30138e-08
5.00395e-09
1.19591e-06
4.30549e-09
1.19541e-06
1.28413e-08
1.12716e-08
5.35837e-09
1.19958e-06
-1.12243e-08
1.14954e-08
5.82491e-09
1.19948e-06
1.16406e-08
6.33814e-09
1.19952e-06
1.18534e-08
6.37966e-09
1.19937e-06
1.21201e-08
6.3305e-09
1.19924e-06
1.2431e-08
6.23533e-09
1.19903e-06
1.27281e-08
6.17095e-09
1.19874e-06
1.29853e-08
6.11701e-09
1.19841e-06
1.31806e-08
6.08316e-09
1.19804e-06
1.32504e-08
6.10694e-09
1.19761e-06
1.3233e-08
5.97462e-09
1.1971e-06
1.3035e-08
5.76355e-09
1.1966e-06