/*--------------------------------*- C++ -*----------------------------------*\
| =========                 |                                                 |
| \\      /  F ield         | OpenFOAM: The Open Source CFD Toolbox           |
|  \\    /   O peration     | Version:  v2106                                 |
|   \\  /    A nd           | Website:  www.openfoam.com                      |
|    \\/     M anipulation  |                                                 |
\*---------------------------------------------------------------------------*/
FoamFile
{
    version     2.0;
    format      ascii;
    arch        "LSB;label=32;scalar=64";
    class       volScalarField;
    location    "0.000152";
    object      alphat;
}
// * * * * * * * * * * * * * * * * * * * * * * * * * * * * * * * * * * * * * //

dimensions      [1 -1 -1 0 0 0 0];

internalField   nonuniform List<scalar> 
144746
(
0.000103229
8.87838e-05
7.17315e-05
5.27352e-05
3.54859e-05
2.2498e-05
1.58226e-05
1.45088e-05
1.88994e-05
2.91368e-05
4.5097e-05
6.49932e-05
8.33202e-05
9.58674e-05
0.000105114
8.90749e-05
6.90398e-05
4.65634e-05
2.74998e-05
1.51787e-05
9.18476e-06
7.48833e-06
1.02006e-05
1.77121e-05
2.99957e-05
4.57475e-05
6.17099e-05
7.43636e-05
0.00010409
8.28289e-05
5.84257e-05
3.41559e-05
1.68783e-05
7.8592e-06
3.99113e-06
2.99866e-06
4.7029e-06
9.90766e-06
1.90887e-05
3.11087e-05
4.36553e-05
5.47575e-05
9.36764e-05
6.62836e-05
4.05098e-05
1.90138e-05
7.4606e-06
2.84819e-06
1.16253e-06
8.56563e-07
1.79284e-06
4.80374e-06
1.08342e-05
1.94344e-05
2.87299e-05
3.73824e-05
7.51169e-05
4.62828e-05
2.33153e-05
8.54343e-06
3.31551e-06
1.19879e-06
3.90848e-07
2.59366e-07
6.87742e-07
2.19892e-06
5.69904e-06
1.14683e-05
1.85239e-05
2.57605e-05
5.60692e-05
3.06964e-05
1.40851e-05
6.79858e-06
3.41031e-06
1.32246e-06
4.51858e-07
2.75342e-07
4.69279e-07
1.24667e-06
3.21029e-06
6.96227e-06
1.25292e-05
1.93424e-05
4.27337e-05
2.40064e-05
1.41997e-05
9.43443e-06
5.14126e-06
2.20316e-06
9.49329e-07
7.2423e-07
9.33471e-07
1.63686e-06
3.23765e-06
6.37512e-06
1.15753e-05
1.8696e-05
3.70023e-05
2.57602e-05
2.02507e-05
1.47807e-05
8.8506e-06
4.30391e-06
2.21005e-06
1.93471e-06
2.46227e-06
3.7084e-06
5.98261e-06
9.89027e-06
1.58733e-05
2.40504e-05
3.79076e-05
3.29531e-05
2.95939e-05
2.33559e-05
1.55263e-05
8.46534e-06
4.75204e-06
4.34583e-06
5.64358e-06
8.16394e-06
1.20652e-05
1.78013e-05
2.545e-05
3.53769e-05
4.405e-05
4.40014e-05
4.25498e-05
3.60112e-05
2.65192e-05
1.61622e-05
9.45495e-06
8.20249e-06
1.04735e-05
1.47384e-05
2.07564e-05
2.88461e-05
3.90175e-05
5.14536e-05
5.3055e-05
5.62356e-05
5.80023e-05
5.29163e-05
4.27666e-05
2.93891e-05
1.82611e-05
1.40286e-05
1.62409e-05
2.19645e-05
3.00414e-05
4.08063e-05
5.40339e-05
6.95199e-05
6.55567e-05
7.05029e-05
7.53009e-05
7.34101e-05
6.34212e-05
4.81153e-05
3.28739e-05
2.38967e-05
2.32246e-05
2.86193e-05
3.7817e-05
5.08659e-05
6.67172e-05
8.48664e-05
8.0052e-05
8.45615e-05
9.11032e-05
9.35635e-05
8.60501e-05
7.04873e-05
5.24038e-05
3.88434e-05
3.3257e-05
3.55112e-05
4.37722e-05
5.77579e-05
7.47863e-05
9.46357e-05
9.67907e-05
9.99451e-05
0.000105775
0.000110156
0.000106453
9.23698e-05
7.34826e-05
5.67597e-05
4.66769e-05
4.46773e-05
5.02013e-05
6.34459e-05
8.04622e-05
0.0001007
8.87991e-05
7.51553e-05
6.05991e-05
4.47277e-05
3.09779e-05
2.1162e-05
1.7713e-05
2.06459e-05
2.97594e-05
4.38278e-05
6.13189e-05
7.93287e-05
9.16473e-05
9.62199e-05
9.49664e-05
7.87451e-05
6.03342e-05
4.05639e-05
2.41591e-05
1.36912e-05
9.24175e-06
9.90688e-06
1.58133e-05
2.64812e-05
4.03468e-05
5.51172e-05
6.65255e-05
7.28053e-05
9.90046e-05
7.71541e-05
5.37882e-05
3.11991e-05
1.5295e-05
6.96739e-06
3.73181e-06
3.81547e-06
7.32964e-06
1.48617e-05
2.56561e-05
3.73357e-05
4.68713e-05
5.33304e-05
9.45535e-05
6.59366e-05
3.97337e-05
1.84242e-05
6.98478e-06
2.47314e-06
1.02941e-06
1.13508e-06
2.90942e-06
7.30445e-06
1.46695e-05
2.3384e-05
3.1069e-05
3.70612e-05
8.19748e-05
4.98649e-05
2.44554e-05
8.72003e-06
3.0569e-06
1.00538e-06
3.31917e-07
3.66801e-07
1.14875e-06
3.35612e-06
7.70062e-06
1.38272e-05
2.04718e-05
2.71078e-05
6.61399e-05
3.50565e-05
1.47898e-05
6.43375e-06
3.01098e-06
1.10482e-06
3.88341e-07
3.19675e-07
6.93407e-07
1.84138e-06
4.37296e-06
8.7564e-06
1.50156e-05
2.30328e-05
5.28487e-05
2.68615e-05
1.3928e-05
8.69417e-06
4.57753e-06
1.93888e-06
8.99893e-07
8.01181e-07
1.19736e-06
2.29808e-06
4.6505e-06
9.01539e-06
1.60872e-05
2.61066e-05
4.4808e-05
2.67919e-05
1.933e-05
1.36642e-05
8.14081e-06
4.04922e-06
2.26218e-06
2.19408e-06
3.0474e-06
4.958e-06
8.49759e-06
1.44695e-05
2.35933e-05
3.61506e-05
4.29317e-05
3.26189e-05
2.80519e-05
2.179e-05
1.47658e-05
8.40882e-06
5.10056e-06
5.01329e-06
6.86786e-06
1.04215e-05
1.60852e-05
2.44335e-05
3.58846e-05
5.10285e-05
4.63481e-05
4.2101e-05
3.99047e-05
3.38902e-05
2.58941e-05
1.67302e-05
1.0465e-05
9.47821e-06
1.23995e-05
1.7833e-05
2.56066e-05
3.61629e-05
4.98494e-05
6.77063e-05
5.17645e-05
5.17397e-05
5.33643e-05
5.0065e-05
4.25748e-05
3.13935e-05
2.06831e-05
1.61943e-05
1.86501e-05
2.51127e-05
3.42092e-05
4.66349e-05
6.25995e-05
8.26087e-05
5.96026e-05
6.26983e-05
6.81818e-05
6.94425e-05
6.35653e-05
5.23143e-05
3.86043e-05
2.85801e-05
2.66938e-05
3.15734e-05
4.04689e-05
5.36071e-05
7.0412e-05
9.14529e-05
6.84238e-05
7.276e-05
8.13588e-05
8.78731e-05
8.60845e-05
7.67558e-05
6.23828e-05
4.82983e-05
4.00671e-05
3.96707e-05
4.54146e-05
5.72037e-05
7.28411e-05
9.38036e-05
8.05067e-05
8.51067e-05
9.42457e-05
0.000103908
0.000107747
0.000101209
8.78955e-05
7.20569e-05
5.88995e-05
5.23677e-05
5.28784e-05
6.11442e-05
7.44124e-05
9.3885e-05
6.95924e-05
5.85593e-05
4.8302e-05
3.66845e-05
2.7158e-05
2.15392e-05
2.2724e-05
3.05506e-05
4.22953e-05
5.46222e-05
6.57264e-05
7.45264e-05
7.84445e-05
7.73374e-05
7.46318e-05
6.03316e-05
4.60312e-05
3.13567e-05
1.94688e-05
1.19981e-05
1.01302e-05
1.37548e-05
2.20835e-05
3.29736e-05
4.38609e-05
5.30496e-05
5.76479e-05
5.87253e-05
7.76753e-05
5.91938e-05
4.08471e-05
2.38196e-05
1.19265e-05
5.54145e-06
3.51515e-06
4.8778e-06
9.77223e-06
1.80396e-05
2.79195e-05
3.69737e-05
4.24731e-05
4.53779e-05
7.57658e-05
5.25693e-05
3.12429e-05
1.44384e-05
5.41911e-06
1.83471e-06
8.60637e-07
1.36562e-06
3.68022e-06
8.59978e-06
1.60214e-05
2.37245e-05
2.95198e-05
3.39945e-05
7.11615e-05
4.3556e-05
2.06305e-05
7.40365e-06
2.41597e-06
7.20156e-07
2.52437e-07
4.20988e-07
1.38311e-06
3.81838e-06
8.22443e-06
1.4047e-05
2.03192e-05
2.75174e-05
6.49107e-05
3.42516e-05
1.35263e-05
5.50122e-06
2.28582e-06
7.62896e-07
2.67802e-07
2.85237e-07
7.29856e-07
1.97369e-06
4.64082e-06
9.32076e-06
1.65653e-05
2.70619e-05
5.86053e-05
2.7887e-05
1.27878e-05
7.10367e-06
3.41476e-06
1.36789e-06
6.58488e-07
6.62051e-07
1.13243e-06
2.39925e-06
5.20602e-06
1.06859e-05
2.01848e-05
3.43711e-05
5.29387e-05
2.72483e-05
1.71143e-05
1.10393e-05
6.19769e-06
3.02535e-06
1.79569e-06
1.89362e-06
2.85028e-06
5.04679e-06
9.40749e-06
1.72319e-05
2.98004e-05
4.72967e-05
4.95942e-05
3.1806e-05
2.43796e-05
1.77376e-05
1.1573e-05
6.6414e-06
4.32116e-06
4.54344e-06
6.51162e-06
1.04213e-05
1.70237e-05
2.72498e-05
4.18556e-05
6.09111e-05
5.04037e-05
3.95584e-05
3.40984e-05
2.75104e-05
2.07553e-05
1.37894e-05
9.28696e-06
8.9387e-06
1.19359e-05
1.75962e-05
2.5927e-05
3.73088e-05
5.22521e-05
7.11383e-05
5.30794e-05
4.68272e-05
4.496e-05
4.03407e-05
3.45698e-05
2.65637e-05
1.8914e-05
1.58285e-05
1.83188e-05
2.46824e-05
3.3494e-05
4.48115e-05
5.90777e-05
7.6908e-05
5.74806e-05
5.4905e-05
5.64344e-05
5.5778e-05
5.21243e-05
4.56832e-05
3.63916e-05
2.85911e-05
2.69029e-05
3.13576e-05
3.89124e-05
4.92768e-05
6.18677e-05
7.84246e-05
6.12499e-05
6.12921e-05
6.60273e-05
6.9889e-05
7.01601e-05
6.7427e-05
6.03501e-05
5.04842e-05
4.26355e-05
4.09641e-05
4.40452e-05
5.15259e-05
6.11386e-05
7.64563e-05
6.79778e-05
6.96836e-05
7.53853e-05
8.23974e-05
8.75329e-05
8.83293e-05
8.48958e-05
7.62714e-05
6.51239e-05
5.69612e-05
5.36574e-05
5.61296e-05
6.17771e-05
7.42394e-05
0.00010469
0.000122792
0.000146601
0.000179602
0.000234355
9.18957e-05
8.37169e-05
0.000101783
0.000128152
0.000171276
0.000254429
0.000101932
6.36073e-05
7.89895e-05
0.000103508
0.00015327
0.000266695
0.00011211
4.51875e-05
5.78638e-05
7.91301e-05
0.000129616
0.000266804
0.000120973
3.29095e-05
4.39508e-05
6.24793e-05
0.000110105
0.000259078
0.000128518
2.69339e-05
3.79166e-05
5.56186e-05
9.87869e-05
0.000245879
0.000134937
2.72156e-05
3.95001e-05
5.87691e-05
9.83533e-05
0.000229263
0.000140476
3.38256e-05
4.85216e-05
7.08459e-05
0.000107984
0.000213965
0.000143757
4.66275e-05
6.41104e-05
8.93051e-05
0.000123987
0.000200914
0.000144448
6.36649e-05
8.31512e-05
0.000109784
0.000141026
0.000188891
0.000144145
8.13301e-05
0.000100965
0.000127623
0.000155234
0.000181493
0.000143008
9.5694e-05
0.00011403
0.000140212
0.000166385
0.000186629
0.000137946
0.000104645
0.000121634
0.000146909
0.000175331
0.000206714
0.000126936
0.00010863
0.000124609
0.000150531
0.000184006
0.000235522
0.00010824
9.85463e-05
0.000114188
0.000136597
0.000172226
0.000232842
0.000110243
7.67311e-05
8.97071e-05
0.000110365
0.000148855
0.000222051
0.000121156
5.74937e-05
6.74163e-05
8.49127e-05
0.000122902
0.000207043
0.000129452
4.22487e-05
5.18792e-05
6.80746e-05
0.00010389
0.000190984
0.000134896
3.4071e-05
4.50473e-05
6.19329e-05
9.57581e-05
0.000179855
0.000139441
3.26271e-05
4.65467e-05
6.65115e-05
9.98159e-05
0.000174345
0.000143301
3.84595e-05
5.65857e-05
8.21078e-05
0.000116503
0.000174551
0.000146878
5.12574e-05
7.44136e-05
0.00010646
0.000141563
0.000177212
0.000149305
6.84876e-05
9.57885e-05
0.000131979
0.000167874
0.000181695
0.000150599
8.55733e-05
0.000113838
0.000150518
0.000188999
0.000190703
0.000152193
9.80552e-05
0.000123832
0.000158606
0.000199403
0.000206835
0.000154279
0.000103942
0.000125228
0.000157156
0.000199347
0.000229569
0.00015197
0.000104154
0.000121103
0.000149205
0.000191597
0.000251074
0.000142427
0.000101435
0.000115953
0.000141935
0.000184057
0.000263063
0.000124305
7.4276e-05
8.19983e-05
9.28948e-05
0.000112774
0.000152956
0.000118516
5.7979e-05
6.41691e-05
7.39047e-05
9.34809e-05
0.000136691
0.000124561
4.67695e-05
5.27079e-05
6.24398e-05
8.18069e-05
0.000125483
0.000130139
3.86729e-05
4.75535e-05
6.01214e-05
8.14784e-05
0.000124467
0.000136041
3.65921e-05
4.99513e-05
6.71392e-05
9.26429e-05
0.000135446
0.000144691
4.10232e-05
6.01618e-05
8.4318e-05
0.00011582
0.000157181
0.000156493
5.28899e-05
7.87524e-05
0.00011124
0.000148512
0.000183752
0.000169841
6.92331e-05
0.000100723
0.000139839
0.000180343
0.000205704
0.000181311
8.38787e-05
0.000117315
0.000158749
0.00020146
0.000218261
0.000189153
9.14817e-05
0.000121618
0.000160428
0.00020786
0.0002245
0.000192032
9.17588e-05
0.000114859
0.000146991
0.000196686
0.000224723
0.000187903
8.8102e-05
0.000103204
0.000126993
0.000169859
0.00021631
0.000175462
8.30279e-05
9.27256e-05
0.000109522
0.000142843
0.000202631
0.000156229
7.80497e-05
8.60129e-05
0.000100129
0.000127777
0.000187583
0.000131893
0.000108313
0.000127398
0.000155067
0.00019582
0.000260871
9.15378e-05
8.85449e-05
0.000107944
0.000138335
0.000189461
0.000278179
0.000101192
7.1164e-05
8.93326e-05
0.000119718
0.000176319
0.000284635
0.000110981
5.94695e-05
7.71978e-05
0.000106392
0.000162874
0.000280276
0.000119695
5.65472e-05
7.46514e-05
0.000102536
0.000155437
0.000271222
0.00012678
6.1751e-05
8.10216e-05
0.000108061
0.000155566
0.000260357
0.000131775
7.38814e-05
9.38235e-05
0.000119822
0.000161693
0.000248809
0.000135195
8.94692e-05
0.000108509
0.000132626
0.000169284
0.00023698
0.000138505
0.000103308
0.000119797
0.000141829
0.000174645
0.000225677
0.000142808
0.000111445
0.000125245
0.000146132
0.000177115
0.00021659
0.000148614
0.000113909
0.000125779
0.000146842
0.000177006
0.000217816
0.000150304
0.000111965
0.000123203
0.000144901
0.000177071
0.000232817
0.000145634
0.000107817
0.000118957
0.000141315
0.00017911
0.000257398
0.000134463
0.000104081
0.000116003
0.000140504
0.000186545
0.000287711
0.00011533
9.79229e-05
0.000114816
0.000141217
0.000184535
0.000258895
0.000110865
8.02201e-05
9.61436e-05
0.000121677
0.000165756
0.000242817
0.000122823
6.87137e-05
8.45149e-05
0.000109305
0.000151228
0.000226869
0.000133014
6.45874e-05
8.25369e-05
0.000108045
0.000146884
0.000213759
0.000142144
6.88337e-05
9.00623e-05
0.000117388
0.000153406
0.000207195
0.000150066
8.00051e-05
0.000104484
0.000133493
0.000166838
0.000205269
0.000155852
9.48046e-05
0.00012022
0.000149501
0.00018194
0.000207917
0.000161315
0.000107926
0.000131082
0.000158756
0.000193295
0.000214228
0.000167796
0.000114576
0.000133068
0.000158015
0.00019668
0.000225142
0.000174323
0.000113872
0.000127284
0.000149225
0.000190195
0.000238249
0.000179559
0.000107775
0.000117968
0.000138082
0.000177766
0.000249705
0.00018149
9.89966e-05
0.000108309
0.000127596
0.000166473
0.000259257
0.000176038
9.07984e-05
0.000100073
0.000119468
0.000160358
0.000267109
0.000161785
8.56224e-05
9.58384e-05
0.000117415
0.000163132
0.000279242
0.000137386
7.58103e-05
8.59892e-05
0.000101164
0.000128224
0.000173525
0.000122759
6.66706e-05
7.76336e-05
9.37624e-05
0.000120675
0.000164894
0.000134094
6.47491e-05
7.80437e-05
9.60965e-05
0.000123693
0.000165892
0.000147067
6.80059e-05
8.58002e-05
0.00010776
0.000137274
0.000176522
0.000162604
7.70239e-05
9.98601e-05
0.000126393
0.000158182
0.000193176
0.000179966
8.95348e-05
0.000115819
0.000145284
0.000178391
0.000208089
0.000196588
0.000100559
0.000125968
0.000154619
0.000188239
0.00021423
0.000211147
0.000105017
0.000125166
0.00014946
0.0001838
0.000208896
0.000221311
0.000101589
0.000115153
0.000133171
0.000166702
0.000198691
0.000224099
9.40039e-05
0.000101958
0.000113847
0.000143392
0.000187091
0.000218038
8.53315e-05
9.02428e-05
9.92114e-05
0.000123788
0.000179039
0.000205776
7.75933e-05
8.19803e-05
9.06686e-05
0.000113101
0.000176419
0.000187549
7.20724e-05
7.69809e-05
8.69705e-05
0.000111229
0.000177816
0.000164897
6.99429e-05
7.63845e-05
8.95092e-05
0.000118567
0.000188185
0.000138577
0.000109539
0.00023734
0.000167816
0.000136898
0.000118041
0.000107879
0.00012971
0.000215371
0.000164628
0.000138577
0.000120592
0.000110599
0.000145308
0.000199682
0.000163214
0.000139676
0.000121836
0.000111106
0.000155531
0.000194615
0.000163275
0.000139115
0.000119834
0.000106163
0.000159142
0.000202815
0.000164951
0.000136496
0.00011364
9.47764e-05
0.000156727
0.000221207
0.000165934
0.00013076
0.000103255
7.96665e-05
0.000152251
0.000239895
0.000163421
0.000121972
9.0532e-05
6.53395e-05
0.00014705
0.000258055
0.000156804
0.000110477
7.8559e-05
5.48898e-05
0.000140679
0.000273515
0.000150504
0.000100316
7.02387e-05
4.98552e-05
0.000133239
0.00028854
0.00014852
9.46372e-05
6.66105e-05
5.00079e-05
0.000124669
0.000301077
0.000153922
9.62265e-05
6.90559e-05
5.5135e-05
0.000115255
0.000311809
0.000167853
0.000106739
7.89137e-05
6.57541e-05
0.00010511
0.000313262
0.000186188
0.000125108
9.58236e-05
8.12807e-05
9.47997e-05
0.000314366
0.000204227
0.000146665
0.000116289
9.98457e-05
0.000128224
0.000224899
0.000145659
0.000115311
0.000100083
9.26398e-05
0.000150178
0.000220051
0.000151333
0.000123217
0.000107821
9.94107e-05
0.00016558
0.00021488
0.000159769
0.000132052
0.000115824
0.000105676
0.000174755
0.000209407
0.000169138
0.000140454
0.000121885
0.000107758
0.000178263
0.000206064
0.000178785
0.000147745
0.000124496
0.000103781
0.000177661
0.00020546
0.000186469
0.00015189
0.00012214
9.45146e-05
0.000173937
0.000206852
0.000187272
0.000150796
0.000114588
8.30751e-05
0.000168424
0.000211597
0.000180071
0.000141991
0.000104054
7.19056e-05
0.00016246
0.000216779
0.000168209
0.000128662
9.27012e-05
6.37731e-05
0.000155786
0.000224388
0.000155938
0.000114661
8.29749e-05
5.958e-05
0.000147286
0.000233769
0.000148349
0.000105482
7.77319e-05
5.9373e-05
0.000137291
0.000248932
0.0001493
0.000103579
7.80835e-05
6.32247e-05
0.000126916
0.000263946
0.000160018
0.000110277
8.49873e-05
7.10372e-05
0.000115619
0.000288797
0.000178279
0.000125017
9.81227e-05
8.31794e-05
0.000129314
0.000146163
9.93463e-05
8.21638e-05
7.51105e-05
7.1303e-05
0.000154801
0.000144053
0.000105411
8.99122e-05
8.26099e-05
7.7701e-05
0.000176976
0.000145705
0.000114014
9.92186e-05
9.0934e-05
8.38718e-05
0.0001959
0.000152626
0.00012564
0.000109702
9.89735e-05
8.8074e-05
0.000210534
0.000166096
0.000142275
0.000121963
0.000106711
9.01927e-05
0.000219767
0.000183731
0.000161591
0.000135158
0.000113488
9.0748e-05
0.000220939
0.000199015
0.000176577
0.000145528
0.000117659
8.98387e-05
0.000214974
0.000210195
0.000182498
0.000148496
0.000116549
8.53749e-05
0.000204305
0.000213647
0.000178193
0.000142295
0.000109201
7.77631e-05
0.000190289
0.000209634
0.000165407
0.0001285
9.78527e-05
7.0751e-05
0.000173896
0.000201762
0.000150471
0.000114275
8.79674e-05
6.65982e-05
0.000157286
0.00019729
0.000139034
0.000103914
8.15548e-05
6.53915e-05
0.000142119
0.000196543
0.000133978
9.91816e-05
7.93609e-05
6.6409e-05
0.000127738
0.000202511
0.000136511
0.000101416
8.29959e-05
7.13609e-05
0.000107805
0.000215302
0.000173428
0.000145028
0.000120119
0.000103193
0.000130271
0.000196329
0.000167713
0.000140306
0.000113421
9.50087e-05
0.000145759
0.000183993
0.000160246
0.000130599
0.000100712
8.00523e-05
0.000155104
0.000180081
0.000149639
0.000116177
8.38226e-05
6.15653e-05
0.000159359
0.000183592
0.000134974
9.79933e-05
6.57508e-05
4.43672e-05
0.000161014
0.000190234
0.00011748
7.92598e-05
5.03558e-05
3.16741e-05
0.000159509
0.000198684
0.000101328
6.39321e-05
4.00003e-05
2.481e-05
0.000155336
0.000209551
9.04158e-05
5.45445e-05
3.57223e-05
2.40054e-05
0.000146315
0.000225086
8.7481e-05
5.20017e-05
3.7491e-05
2.91392e-05
0.000136433
0.000243755
9.36903e-05
5.63258e-05
4.47223e-05
3.97369e-05
0.00012669
0.000255106
0.000109675
6.89832e-05
5.7396e-05
5.37022e-05
0.000116811
0.000262568
0.000133195
8.98064e-05
7.54927e-05
7.03629e-05
0.000106137
0.000261182
0.000157983
0.000115225
9.69428e-05
8.80006e-05
9.50235e-05
0.000256874
0.000175505
0.00013744
0.000116706
0.000104461
0.00012068
0.000237937
0.000179055
0.000143875
0.00011928
0.000103635
0.000139687
0.000230106
0.000188952
0.00015226
0.000123279
0.00010378
0.00015192
0.000215203
0.000195984
0.000156986
0.000121505
9.63004e-05
0.000158737
0.000199939
0.000195809
0.000154439
0.000112794
8.2262e-05
0.000160843
0.000189958
0.000185774
0.000142431
9.76781e-05
6.54989e-05
0.000161042
0.000185238
0.000166432
0.000122053
7.95176e-05
4.95835e-05
0.000159652
0.000181686
0.000141354
9.8405e-05
6.21133e-05
3.70889e-05
0.00015614
0.000177888
0.000116381
7.75825e-05
4.94942e-05
3.02382e-05
0.00015047
0.000176775
9.81052e-05
6.42583e-05
4.35176e-05
2.99058e-05
0.000144436
0.000180235
8.9513e-05
5.88057e-05
4.40079e-05
3.58214e-05
0.00013797
0.000186237
9.1426e-05
6.1643e-05
5.01686e-05
4.56195e-05
0.000131287
0.000197702
0.000103221
7.20152e-05
6.11901e-05
5.79913e-05
0.000123461
0.000210015
0.000123569
9.00519e-05
7.68309e-05
7.15598e-05
0.000113993
0.000225894
0.000146282
0.000111383
9.48902e-05
8.62172e-05
0.000128807
0.00017206
0.000125745
0.000103534
9.05363e-05
8.17905e-05
0.000154314
0.000192349
0.000149778
0.000119649
0.00010056
8.72518e-05
0.000174798
0.000209667
0.000178976
0.000138975
0.000109924
8.84933e-05
0.000188913
0.000221843
0.000203409
0.000156202
0.000116861
8.61705e-05
0.000195029
0.000227525
0.000212294
0.000165321
0.000118184
8.03022e-05
0.000195022
0.000226875
0.000206474
0.00015942
0.000109422
6.96242e-05
0.000189464
0.00021854
0.000186332
0.000138849
9.22981e-05
5.57585e-05
0.000179509
0.000200765
0.000156236
0.000111513
7.30048e-05
4.29517e-05
0.000166642
0.000177795
0.000125238
8.70083e-05
5.81077e-05
3.57594e-05
0.000154367
0.000156336
0.000101648
7.11552e-05
5.05407e-05
3.55241e-05
0.000143786
0.000142199
8.78295e-05
6.37379e-05
4.9409e-05
4.03853e-05
0.000134867
0.00013765
8.32815e-05
6.29874e-05
5.30038e-05
4.80884e-05
0.000126449
0.000139566
8.80436e-05
6.83101e-05
5.9802e-05
5.56422e-05
0.000118468
0.000147707
9.94966e-05
7.88454e-05
7.04427e-05
6.53744e-05
6.45761e-05
5.17737e-05
4.20858e-05
3.17249e-05
2.40252e-05
2.10659e-05
2.47244e-05
3.34036e-05
4.34617e-05
5.12635e-05
5.55575e-05
5.85447e-05
6.21463e-05
6.37642e-05
6.1709e-05
4.70407e-05
3.49019e-05
2.35674e-05
1.47007e-05
9.77893e-06
9.81516e-06
1.42064e-05
2.15583e-05
2.9723e-05
3.69568e-05
4.26694e-05
4.69458e-05
4.94545e-05
5.82659e-05
4.23171e-05
2.77901e-05
1.57251e-05
7.72109e-06
3.72061e-06
2.91941e-06
4.57636e-06
8.63944e-06
1.48988e-05
2.24637e-05
2.97501e-05
3.56582e-05
4.00479e-05
5.60395e-05
3.74514e-05
2.04238e-05
8.95654e-06
3.19572e-06
1.03308e-06
5.71652e-07
1.11346e-06
2.93057e-06
6.66424e-06
1.24014e-05
1.88005e-05
2.48386e-05
3.04412e-05
5.54184e-05
3.33022e-05
1.46783e-05
5.03756e-06
1.53728e-06
4.13122e-07
1.31083e-07
2.55941e-07
9.26605e-07
2.6507e-06
5.86109e-06
1.06325e-05
1.66689e-05
2.46037e-05
5.47769e-05
2.95254e-05
1.12094e-05
4.07016e-06
1.43869e-06
4.19047e-07
1.25407e-07
1.32208e-07
3.9044e-07
1.18571e-06
3.07708e-06
6.82712e-06
1.35505e-05
2.47228e-05
5.27499e-05
2.62218e-05
1.08058e-05
4.90818e-06
2.01826e-06
7.20529e-07
3.2113e-07
3.17315e-07
5.81004e-07
1.39091e-06
3.41044e-06
7.93674e-06
1.69047e-05
3.17993e-05
4.97401e-05
2.56247e-05
1.32787e-05
7.32167e-06
3.63965e-06
1.6458e-06
9.63203e-07
1.00464e-06
1.53395e-06
2.92746e-06
6.0787e-06
1.27001e-05
2.47058e-05
4.28154e-05
4.75834e-05
2.86574e-05
1.81796e-05
1.18359e-05
7.02566e-06
3.85123e-06
2.54607e-06
2.66841e-06
3.81092e-06
6.36852e-06
1.12675e-05
2.00796e-05
3.3987e-05
5.30123e-05
4.90067e-05
3.49487e-05
2.5638e-05
1.88438e-05
1.31364e-05
8.47401e-06
5.90593e-06
5.81476e-06
7.73077e-06
1.16724e-05
1.81095e-05
2.79118e-05
4.14931e-05
5.88072e-05
5.26466e-05
4.19287e-05
3.47046e-05
2.8298e-05
2.28684e-05
1.71369e-05
1.26054e-05
1.11414e-05
1.31653e-05
1.80091e-05
2.50602e-05
3.44044e-05
4.62957e-05
6.06743e-05
5.80706e-05
5.01537e-05
4.4968e-05
3.99888e-05
3.62886e-05
3.12268e-05
2.51722e-05
2.0725e-05
2.05776e-05
2.48727e-05
3.14992e-05
3.98237e-05
4.95116e-05
6.16693e-05
6.19376e-05
5.69408e-05
5.45481e-05
5.22997e-05
5.13386e-05
4.93419e-05
4.46436e-05
3.81905e-05
3.34635e-05
3.40013e-05
3.80497e-05
4.47163e-05
5.1825e-05
6.33242e-05
6.96998e-05
6.72767e-05
6.48259e-05
6.43478e-05
6.54476e-05
6.69185e-05
6.61446e-05
6.14446e-05
5.42567e-05
4.9261e-05
4.81237e-05
5.11456e-05
5.47802e-05
6.42365e-05
6.23128e-05
4.72732e-05
3.65381e-05
2.61726e-05
1.86257e-05
1.51357e-05
1.68627e-05
2.2534e-05
2.9997e-05
3.68857e-05
4.1912e-05
4.5148e-05
4.89373e-05
5.43781e-05
5.35818e-05
3.87266e-05
2.70969e-05
1.74517e-05
1.04295e-05
6.60084e-06
6.28147e-06
8.89607e-06
1.37714e-05
1.98501e-05
2.61667e-05
3.21069e-05
3.76978e-05
4.28e-05
4.75899e-05
3.25193e-05
1.94709e-05
1.03484e-05
4.87608e-06
2.26649e-06
1.7085e-06
2.57808e-06
4.95367e-06
9.03381e-06
1.47398e-05
2.15e-05
2.82688e-05
3.43906e-05
4.57634e-05
2.83238e-05
1.39481e-05
5.60615e-06
1.89374e-06
5.82314e-07
2.94801e-07
5.46944e-07
1.49301e-06
3.67464e-06
7.59833e-06
1.30643e-05
1.90613e-05
2.49571e-05
4.52629e-05
2.53682e-05
1.02704e-05
3.34382e-06
1.00036e-06
2.63132e-07
7.23474e-08
1.18425e-07
4.58085e-07
1.44618e-06
3.56041e-06
7.09429e-06
1.20135e-05
1.84466e-05
4.37388e-05
2.2106e-05
8.37288e-06
2.91414e-06
9.62929e-07
2.65785e-07
7.311e-08
6.71407e-08
2.00605e-07
6.50717e-07
1.80592e-06
4.24324e-06
8.80685e-06
1.67279e-05
4.09146e-05
1.9411e-05
8.27941e-06
3.43863e-06
1.28522e-06
4.29309e-07
1.83126e-07
1.69874e-07
2.94005e-07
7.17627e-07
1.85196e-06
4.55309e-06
1.02949e-05
2.06445e-05
3.79709e-05
1.93616e-05
1.00981e-05
4.97416e-06
2.24006e-06
9.53985e-07
5.57778e-07
5.62994e-07
8.0123e-07
1.49366e-06
3.20328e-06
7.17048e-06
1.5077e-05
2.79541e-05
3.72534e-05
2.25555e-05
1.36462e-05
8.07191e-06
4.35102e-06
2.25871e-06
1.52207e-06
1.58143e-06
2.14348e-06
3.49716e-06
6.32537e-06
1.19916e-05
2.17892e-05
3.59633e-05
4.05194e-05
2.83879e-05
1.92531e-05
1.31761e-05
8.43669e-06
5.14486e-06
3.65802e-06
3.68639e-06
4.78705e-06
7.12939e-06
1.12557e-05
1.82169e-05
2.86669e-05
4.23195e-05
4.62177e-05
3.52739e-05
2.66346e-05
2.05851e-05
1.54532e-05
1.09125e-05
8.02217e-06
7.44913e-06
8.95999e-06
1.22841e-05
1.73576e-05
2.46014e-05
3.42757e-05
4.60333e-05
5.39187e-05
4.38938e-05
3.5884e-05
3.05626e-05
2.62632e-05
2.12127e-05
1.65454e-05
1.40168e-05
1.47445e-05
1.8463e-05
2.39303e-05
3.08881e-05
3.91426e-05
4.85445e-05
5.99584e-05
5.24618e-05
4.64003e-05
4.23403e-05
4.00719e-05
3.64574e-05
3.12508e-05
2.61055e-05
2.3719e-05
2.5867e-05
3.06297e-05
3.71749e-05
4.38197e-05
5.26448e-05
7.12358e-05
6.49046e-05
5.7148e-05
5.37785e-05
5.38621e-05
5.32316e-05
5.02247e-05
4.49619e-05
3.93065e-05
3.727e-05
3.90402e-05
4.42448e-05
4.87312e-05
5.7677e-05
5.17853e-05
3.69594e-05
2.65845e-05
1.77687e-05
1.18672e-05
8.56475e-06
8.39657e-06
1.08461e-05
1.52976e-05
2.06617e-05
2.59808e-05
3.05925e-05
3.51825e-05
4.18628e-05
4.095e-05
2.70485e-05
1.715e-05
1.02587e-05
5.88594e-06
3.48204e-06
2.9467e-06
3.82152e-06
6.10569e-06
9.6896e-06
1.43007e-05
1.96516e-05
2.57219e-05
3.25097e-05
3.63277e-05
2.18962e-05
1.15679e-05
5.51174e-06
2.43385e-06
1.07256e-06
7.40949e-07
1.01044e-06
1.9708e-06
3.96634e-06
7.34452e-06
1.22845e-05
1.85976e-05
2.54008e-05
3.46464e-05
1.9025e-05
8.30153e-06
2.95087e-06
9.37854e-07
2.70912e-07
1.16462e-07
1.91399e-07
5.50588e-07
1.51705e-06
3.59202e-06
7.19113e-06
1.2077e-05
1.74618e-05
3.25324e-05
1.62721e-05
6.37971e-06
2.00692e-06
5.93817e-07
1.51983e-07
3.52628e-08
4.0056e-08
1.6819e-07
6.0356e-07
1.69414e-06
3.79416e-06
7.11132e-06
1.1656e-05
2.96135e-05
1.38121e-05
5.40107e-06
1.87902e-06
5.83601e-07
1.53058e-07
3.85737e-08
2.83126e-08
8.17911e-08
2.84491e-07
8.52809e-07
2.13968e-06
4.63898e-06
9.01428e-06
2.61329e-05
1.21241e-05
5.40545e-06
2.12279e-06
7.30473e-07
2.3141e-07
9.56757e-08
8.26604e-08
1.29438e-07
3.07037e-07
8.11727e-07
2.05111e-06
4.75891e-06
1.00808e-05
2.39537e-05
1.25596e-05
6.5055e-06
2.9127e-06
1.20603e-06
4.97948e-07
2.97846e-07
2.92046e-07
3.79532e-07
6.49284e-07
1.34642e-06
3.05953e-06
6.77653e-06
1.38207e-05
2.49389e-05
1.53649e-05
8.71053e-06
4.65724e-06
2.31384e-06
1.18495e-06
8.37631e-07
8.61503e-07
1.0868e-06
1.64049e-06
2.84397e-06
5.46841e-06
1.05631e-05
1.92642e-05
2.96369e-05
1.98054e-05
1.24455e-05
7.76467e-06
4.59801e-06
2.75397e-06
2.06108e-06
2.10913e-06
2.61748e-06
3.70232e-06
5.68413e-06
9.3529e-06
1.55931e-05
2.51715e-05
3.61411e-05
2.53019e-05
1.78177e-05
1.28003e-05
8.88671e-06
6.02467e-06
4.56614e-06
4.43271e-06
5.30313e-06
7.11267e-06
9.9616e-06
1.44333e-05
2.11152e-05
3.04438e-05
4.45812e-05
3.30523e-05
2.54196e-05
2.05242e-05
1.62664e-05
1.22639e-05
9.43009e-06
8.42294e-06
9.31345e-06
1.18245e-05
1.54464e-05
2.0352e-05
2.6698e-05
3.48205e-05
5.22145e-05
4.25472e-05
3.5226e-05
3.09911e-05
2.72495e-05
2.26923e-05
1.83307e-05
1.5438e-05
1.51186e-05
1.76903e-05
2.18177e-05
2.70954e-05
3.28226e-05
3.98699e-05
6.52665e-05
5.43902e-05
4.56993e-05
4.28747e-05
4.07454e-05
3.70121e-05
3.21366e-05
2.7301e-05
2.43042e-05
2.51731e-05
2.88048e-05
3.46217e-05
3.95979e-05
4.72333e-05
3.5953e-05
2.3333e-05
1.53352e-05
9.55835e-06
6.00687e-06
4.05101e-06
3.53564e-06
4.08602e-06
5.7931e-06
8.68154e-06
1.24154e-05
1.65867e-05
2.1448e-05
2.74177e-05
2.90737e-05
1.62989e-05
8.76003e-06
4.50465e-06
2.36117e-06
1.36168e-06
1.11312e-06
1.28761e-06
1.93727e-06
3.29341e-06
5.5617e-06
8.88129e-06
1.36381e-05
2.01119e-05
2.54754e-05
1.25232e-05
5.29331e-06
2.06354e-06
8.01198e-07
3.36577e-07
2.3484e-07
2.98978e-07
5.38311e-07
1.13541e-06
2.42997e-06
4.852e-06
8.87723e-06
1.46126e-05
2.254e-05
1.01771e-05
3.71234e-06
1.15026e-06
3.41434e-07
9.27399e-08
3.4362e-08
4.74139e-08
1.32047e-07
3.97396e-07
1.1033e-06
2.64712e-06
5.38462e-06
9.3578e-06
1.93552e-05
8.32019e-06
3.03695e-06
9.73189e-07
2.90467e-07
7.13677e-08
1.45507e-08
9.59631e-09
3.9388e-08
1.5913e-07
5.18649e-07
1.37776e-06
3.06326e-06
5.79874e-06
1.63516e-05
7.07887e-06
2.8078e-06
9.74631e-07
2.86272e-07
6.9966e-08
1.56821e-08
8.24393e-09
2.1447e-08
8.17424e-08
2.7742e-07
7.89039e-07
1.91838e-06
4.0645e-06
1.40489e-05
6.59529e-06
2.90015e-06
1.03834e-06
3.20697e-07
9.25379e-08
3.5505e-08
2.78597e-08
3.83743e-08
8.88382e-08
2.53574e-07
7.03696e-07
1.77251e-06
4.02986e-06
1.36775e-05
7.28712e-06
3.39094e-06
1.30785e-06
4.72252e-07
1.85513e-07
1.14602e-07
1.09187e-07
1.27688e-07
1.98272e-07
4.05074e-07
9.68268e-07
2.33583e-06
5.31896e-06
1.56505e-05
9.06868e-06
4.38895e-06
1.98543e-06
8.70263e-07
4.51673e-07
3.48039e-07
3.53903e-07
4.086e-07
5.60542e-07
9.22162e-07
1.80598e-06
3.81591e-06
7.96823e-06
1.98475e-05
1.17033e-05
6.35738e-06
3.38187e-06
1.80347e-06
1.11338e-06
9.20426e-07
9.48547e-07
1.09706e-06
1.44146e-06
2.11674e-06
3.52488e-06
6.38766e-06
1.18111e-05
2.47821e-05
1.53728e-05
9.7246e-06
6.09322e-06
3.82509e-06
2.60165e-06
2.15086e-06
2.16955e-06
2.48917e-06
3.18683e-06
4.3599e-06
6.42554e-06
1.0113e-05
1.65018e-05
3.16432e-05
2.12956e-05
1.53741e-05
1.10925e-05
7.87359e-06
5.6975e-06
4.5974e-06
4.39431e-06
4.89296e-06
6.10272e-06
7.95294e-06
1.0732e-05
1.49441e-05
2.15796e-05
3.91079e-05
2.97736e-05
2.38943e-05
1.92195e-05
1.4949e-05
1.14678e-05
9.16983e-06
8.2171e-06
8.60761e-06
1.03359e-05
1.29878e-05
1.65363e-05
2.08565e-05
2.70503e-05
5.01136e-05
4.02706e-05
3.47109e-05
3.05761e-05
2.58552e-05
2.10846e-05
1.71059e-05
1.45656e-05
1.39724e-05
1.57402e-05
1.90951e-05
2.36275e-05
2.78674e-05
3.37789e-05
2.44561e-05
1.36914e-05
7.67384e-06
4.19509e-06
2.39721e-06
1.54009e-06
1.28757e-06
1.3473e-06
1.753e-06
2.72105e-06
4.42093e-06
6.85734e-06
1.03662e-05
1.47469e-05
1.9981e-05
9.26481e-06
3.84414e-06
1.5966e-06
7.21376e-07
3.96302e-07
3.32028e-07
3.6699e-07
4.8418e-07
7.89367e-07
1.49201e-06
2.85881e-06
5.3438e-06
9.53e-06
1.62169e-05
6.65133e-06
2.19944e-06
6.56573e-07
2.10906e-07
7.94508e-08
5.50462e-08
6.88644e-08
1.0748e-07
2.14002e-07
5.2302e-07
1.31281e-06
3.04982e-06
6.33057e-06
1.32315e-05
5.07867e-06
1.60965e-06
4.49769e-07
1.24871e-07
3.1233e-08
8.71683e-09
7.74023e-09
1.90738e-08
6.32277e-08
2.18219e-07
6.73242e-07
1.76096e-06
3.8535e-06
1.03547e-05
3.98737e-06
1.41769e-06
4.6182e-07
1.31837e-07
3.05639e-08
5.59496e-09
1.6246e-09
5.20805e-09
2.56889e-08
1.06293e-07