/*--------------------------------*- C++ -*----------------------------------*\
| =========                 |                                                 |
| \\      /  F ield         | OpenFOAM: The Open Source CFD Toolbox           |
|  \\    /   O peration     | Version:  v2106                                 |
|   \\  /    A nd           | Website:  www.openfoam.com                      |
|    \\/     M anipulation  |                                                 |
\*---------------------------------------------------------------------------*/
FoamFile
{
    version     2.0;
    format      ascii;
    arch        "LSB;label=32;scalar=64";
    class       surfaceScalarField;
    location    "0.00016";
    object      phi;
}
// * * * * * * * * * * * * * * * * * * * * * * * * * * * * * * * * * * * * * //

dimensions      [1 0 -1 0 0 0 0];

internalField   nonuniform List<scalar> 
53237
(
-9.13161e-11
-1.23226e-10
-4.86601e-08
1.67361e-10
-7.00564e-11
-1.26871e-10
-4.8654e-08
1.70626e-10
-4.69908e-11
-1.33854e-10
-4.86503e-08
1.78405e-10
-2.05677e-11
-1.41787e-10
-4.86476e-08
1.88517e-10
9.7693e-12
-1.4653e-10
-4.86458e-08
1.94594e-10
4.35676e-11
-1.50831e-10
-4.86456e-08
1.98135e-10
7.98536e-11
-1.53375e-10
-4.86473e-08
2.01392e-10
1.17344e-10
-1.56807e-10
-4.8652e-08
2.05793e-10
1.52835e-10
-1.54819e-10
-4.86599e-08
2.02989e-10
1.86601e-10
-1.81455e-10
-4.86681e-08
2.29825e-10
-1.71338e-10
-4.86703e-08
2.12963e-10
2.21064e-10
-1.35231e-10
-1.08402e-10
-4.86735e-08
-1.10789e-10
-8.6798e-11
-4.86655e-08
-8.92599e-11
-9.05989e-11
-4.86558e-08
-6.98121e-11
-9.1102e-11
-4.86482e-08
-4.96006e-11
-9.50957e-11
-4.86416e-08
-2.70977e-11
-9.96281e-11
-4.86375e-08
3.13247e-13
-1.03116e-10
-4.86358e-08
3.31391e-11
-1.07796e-10
-4.86369e-08
7.09405e-11
-1.11142e-10
-4.86409e-08
1.13469e-10
-1.16033e-10
-4.86467e-08
1.57048e-10
-1.16817e-10
-4.86556e-08
1.9661e-10
-1.40137e-10
-4.86641e-08
-1.37494e-10
-4.86702e-08
2.39185e-10
-1.30672e-10
-8.3581e-11
-4.86737e-08
1.60471e-10
-1.14285e-10
-7.74345e-11
-4.86688e-08
-9.73305e-11
-6.3081e-11
-4.86573e-08
-8.19114e-11
-6.52988e-11
-4.86478e-08
-6.72419e-11
-6.46315e-11
-4.86395e-08
-5.03849e-11
-6.6148e-11
-4.8633e-08
-3.0201e-11
-6.73871e-11
-4.86289e-08
-5.54797e-12
-6.89526e-11
-4.86272e-08
2.34448e-11
-7.18979e-11
-4.86284e-08
5.71774e-11
-7.44283e-11
-4.86325e-08
9.52737e-11
-7.87004e-11
-4.86389e-08
1.33922e-10
-8.01744e-11
-4.86472e-08
1.68947e-10
-9.84825e-11
-4.86585e-08
-1.04902e-10
-4.86648e-08
2.09637e-10
-1.37063e-10
-6.50657e-11
-4.86683e-08
1.64855e-10
-1.17442e-10
-5.64579e-11
-4.86627e-08
-9.93993e-11
-4.81458e-11
-4.86515e-08
-8.34765e-11
-4.91349e-11
-4.86426e-08
-6.88532e-11
-4.76179e-11
-4.86344e-08
-5.2093e-11
-4.66235e-11
-4.86281e-08
-3.17564e-11
-4.46124e-11
-4.86241e-08
-7.2391e-12
-4.40124e-11
-4.86226e-08
2.1463e-11
-4.44121e-11
-4.86241e-08
5.51248e-11
-4.53268e-11
-4.86282e-08
9.38111e-11
-4.8118e-11
-4.86345e-08
1.33611e-10
-4.94224e-11
-4.86426e-08
1.71181e-10
-6.24669e-11
-4.8653e-08
-7.37393e-11
-4.86599e-08
2.11737e-10
-1.39417e-10
-5.13849e-11
-4.86649e-08
1.65726e-10
-1.16685e-10
-4.56619e-11
-4.86581e-08
-9.77809e-11
-4.17792e-11
-4.86462e-08
-8.14e-11
-4.21373e-11
-4.86377e-08
-6.6874e-11
-4.02104e-11
-4.86292e-08
-5.03495e-11
-3.73969e-11
-4.86232e-08
-3.05484e-11
-3.24167e-11
-4.86197e-08
-7.1797e-12
-2.92526e-11
-4.86189e-08
2.00541e-11
-2.67926e-11
-4.86209e-08
5.20366e-11
-2.53402e-11
-4.86254e-08
8.94953e-11
-2.59759e-11
-4.86319e-08
1.28934e-10
-2.65312e-11
-4.86397e-08
1.68101e-10
-3.4889e-11
-4.86505e-08
-4.59802e-11
-4.86579e-08
2.07103e-10
-1.42928e-10
-4.12255e-11
-4.86636e-08
1.69504e-10
-1.18133e-10
-4.1417e-11
-4.86542e-08
-9.83727e-11
-4.07127e-11
-4.86429e-08
-8.10439e-11
-4.05117e-11
-4.86346e-08
-6.61035e-11
-3.79971e-11
-4.86263e-08
-4.8801e-11
-3.42932e-11
-4.86205e-08
-2.83114e-11
-2.72604e-11
-4.86173e-08
-5.12651e-12
-2.14297e-11
-4.86168e-08
2.16648e-11
-1.63839e-11
-4.86191e-08
5.26152e-11
-1.19628e-11
-4.86242e-08
8.87424e-11
-9.67291e-12
-4.86311e-08
1.27327e-10
-8.64574e-12
-4.86386e-08
1.67266e-10
-1.23371e-11
-4.86493e-08
-2.00493e-11
-4.86581e-08
2.05462e-10
-1.49425e-10
-2.96911e-11
-4.86616e-08
1.78524e-10
-1.21163e-10
-3.6345e-11
-4.86504e-08
-9.82866e-11
-3.90042e-11
-4.86392e-08
-7.7878e-11
-3.88811e-11
-4.86311e-08
-6.05214e-11
-3.58384e-11
-4.86231e-08
-4.1864e-11
-3.16497e-11
-4.86178e-08
-2.10826e-11
-2.3315e-11
-4.86156e-08
9.3093e-13
-1.49432e-11
-4.86162e-08
2.57418e-11
-8.10192e-12
-4.86193e-08
5.43861e-11
-1.46754e-12
-4.86249e-08
8.86223e-11
3.14883e-12
-4.86321e-08
1.26205e-10
5.59352e-12
-4.86394e-08
1.66293e-10
6.51528e-12
-4.86499e-08
4.68408e-12
-4.86593e-08
2.03495e-10
-1.54081e-10
-1.22833e-11
-4.86588e-08
1.85134e-10
-1.23768e-10
-2.36211e-11
-4.86477e-08
-9.78759e-11
-2.97162e-11
-4.86362e-08
-7.41122e-11
-3.01559e-11
-4.86284e-08
-5.34121e-11
-2.76776e-11
-4.8621e-08
-3.31074e-11
-2.31156e-11
-4.86163e-08
-1.18202e-11
-1.46545e-11
-4.86151e-08
9.86756e-12
-5.15854e-12
-4.86169e-08
3.31338e-11
2.91709e-12
-4.86203e-08
5.96604e-11
1.09471e-11
-4.86262e-08
9.14972e-11
1.73803e-11
-4.86334e-08
1.26486e-10
2.0873e-11
-4.86406e-08
1.64214e-10
2.58195e-11
-4.86506e-08
3.02387e-11
-4.86598e-08
1.9936e-10
-1.59112e-10
1.19445e-11
-4.86561e-08
1.91094e-10
-1.27594e-10
-1.97262e-12
-4.86464e-08
-9.87509e-11
-1.10049e-11
-4.86346e-08
-7.20759e-11
-1.09377e-11
-4.86269e-08
-4.87567e-11
-9.14858e-12
-4.86201e-08
-2.68924e-11
-4.32374e-12
-4.86159e-08
-4.74026e-12
2.87951e-12
-4.86152e-08
1.73737e-11
1.18833e-11
-4.86173e-08
4.01677e-11
2.05955e-11
-4.8621e-08
6.57002e-11
2.90775e-11
-4.86273e-08
9.57504e-11
3.66547e-11
-4.86347e-08
1.28008e-10
4.06772e-11
-4.86421e-08
1.624e-10
4.94743e-11
-4.86517e-08
5.74934e-11
-4.86595e-08
1.96164e-10
-1.62758e-10
4.47218e-11
-4.86547e-08
1.97479e-10
-1.3044e-10
3.23364e-11
-4.86468e-08
-9.91384e-11
1.96398e-11
-4.86348e-08
-6.96705e-11
2.05209e-11
-4.86271e-08
-4.35374e-11
2.1646e-11
-4.86208e-08
-1.94758e-11
2.64274e-11
-4.8617e-08
3.90585e-12
3.16509e-11
-4.86169e-08
2.62025e-11
3.93397e-11
-4.86195e-08
4.7966e-11
4.79853e-11
-4.86236e-08
7.19632e-11
5.51681e-11
-4.86298e-08
1.00082e-10
6.21226e-11
-4.86372e-08
1.29942e-10
6.5361e-11
-4.86448e-08
1.60741e-10
7.83572e-11
-4.86541e-08
8.61908e-11
-4.86599e-08
1.93789e-10
-1.66781e-10
8.49583e-11
-4.86564e-08
2.04806e-10
-1.34302e-10
7.91792e-11
-4.86491e-08
-1.00745e-10
6.2263e-11
-4.86376e-08
-6.86299e-11
6.42266e-11
-4.86295e-08
-4.00168e-11
6.50231e-11
-4.86234e-08
-1.379e-11
6.95237e-11
-4.862e-08
1.09211e-11
7.28875e-11
-4.86202e-08
3.37304e-11
7.87051e-11
-4.8623e-08
5.54389e-11
8.59245e-11
-4.86273e-08
7.89558e-11
9.01551e-11
-4.86335e-08
1.05774e-10
9.52544e-11
-4.86408e-08
1.33714e-10
9.67017e-11
-4.86484e-08
1.61165e-10
1.13942e-10
-4.86575e-08
1.16472e-10
-4.86621e-08
1.94543e-10
-1.65212e-10
1.28426e-10
-4.8662e-08
2.04882e-10
-1.33667e-10
1.33297e-10
-4.86552e-08
-9.93063e-11
1.11932e-10
-4.86431e-08
-6.59723e-11
1.15338e-10
-4.86346e-08
-3.62114e-11
1.16043e-10
-4.86286e-08
-8.90325e-12
1.19888e-10
-4.86252e-08
1.66717e-11
1.21713e-10
-4.86252e-08
3.96372e-11
1.2536e-10
-4.86278e-08
6.08616e-11
1.29781e-10
-4.8632e-08
8.30396e-11
1.30805e-10
-4.8638e-08
1.07455e-10
1.33621e-10
-4.86453e-08
1.32556e-10
1.32298e-10
-4.86532e-08
1.56238e-10
1.533e-10
-4.86629e-08
1.4563e-10
-4.8667e-08
1.8957e-10
-1.93496e-10
1.71229e-10
-4.86678e-08
2.37974e-10
-1.54973e-10
1.85337e-10
-4.86609e-08
-1.13749e-10
1.61098e-10
-4.86519e-08
-7.44363e-11
1.67615e-10
-4.86429e-08
-3.98333e-11
1.69594e-10
-4.86373e-08
-8.67073e-12
1.7364e-10
-4.86337e-08
2.04341e-11
1.74881e-10
-4.86335e-08
4.61779e-11
1.76768e-10
-4.86359e-08
7.01119e-11
1.77224e-10
-4.864e-08
9.54148e-11
1.74115e-10
-4.86465e-08
1.23594e-10
1.72814e-10
-4.86533e-08
1.53799e-10
1.66017e-10
-4.86618e-08
1.82619e-10
1.89167e-10
-4.86686e-08
1.73922e-10
-4.86722e-08
2.18001e-10
-1.81509e-10
-4.8669e-08
2.20746e-10
2.18068e-10
-1.47549e-10
-4.86657e-08
2.41236e-10
-1.12481e-10
-4.86571e-08
2.16072e-10
-7.66387e-11
-4.8649e-08
2.23394e-10
-4.25982e-11
-4.86446e-08
2.24006e-10
-1.00039e-11
-4.86433e-08
2.26246e-10
2.16711e-11
-4.8644e-08
2.26136e-10
5.01237e-11
-4.86462e-08
2.26168e-10
7.60376e-11
-4.86488e-08
2.23144e-10
1.01005e-10
-4.86523e-08
2.17772e-10
1.24997e-10
-4.86578e-08
2.15442e-10
1.47017e-10
-4.86655e-08
2.06264e-10
1.67895e-10
-4.8672e-08
2.31077e-10
-4.86723e-08
1.93797e-10
2.08034e-10
-1.62763e-10
-1.61569e-10
-5.35977e-08
2.02608e-10
1.98314e-10
-1.37002e-10
-1.72634e-10
-5.35979e-08
2.20919e-10
-1.09688e-10
-1.40546e-10
-5.35953e-08
1.87186e-10
-8.6134e-11
-1.43387e-10
-5.35877e-08
1.9022e-10
-6.14581e-11
-1.4228e-10
-5.35845e-08
1.87919e-10
-3.60233e-11
-1.44809e-10
-5.35824e-08
1.89871e-10
-1.05214e-11
-1.50105e-10
-5.35805e-08
1.95853e-10
1.8231e-11
-1.54971e-10
-5.35782e-08
2.01145e-10
5.15312e-11
-1.60629e-10
-5.35763e-08
2.05317e-10
8.63211e-11
-1.65801e-10
-5.35764e-08
2.09897e-10
1.21889e-10
-1.72229e-10
-5.3579e-08
2.15822e-10
1.60551e-10
-1.72791e-10
-5.35877e-08
2.14134e-10
1.93167e-10
-2.02719e-10
-5.35934e-08
2.44663e-10
-1.92896e-10
-5.35971e-08
2.26103e-10
2.29593e-10
-1.73301e-10
-1.34057e-10
-5.35993e-08
2.18554e-10
-1.40487e-10
-1.37465e-10
-5.35957e-08
-1.0458e-10
-1.10303e-10
-5.35937e-08
-7.77375e-11
-1.09751e-10
-5.35859e-08
-5.51399e-11
-1.06035e-10
-5.35822e-08
-3.596e-11
-1.06248e-10
-5.35773e-08
-1.80031e-11
-1.09592e-10
-5.35738e-08
5.82863e-12
-1.14715e-10
-5.35711e-08
3.6669e-11
-1.22136e-10
-5.35695e-08
7.28567e-11
-1.29663e-10
-5.35709e-08
1.14517e-10
-1.38903e-10
-5.35736e-08
1.63064e-10
-1.43208e-10
-5.35823e-08
2.04915e-10
-1.69946e-10
-5.35875e-08
-1.67114e-10
-5.35952e-08
2.51301e-10
-1.39731e-10
-1.05379e-10
-5.35988e-08
1.82897e-10
-1.13316e-10
-9.85888e-11
-5.35958e-08
-8.44602e-11
-7.84903e-11
-5.35912e-08
-6.44381e-11
-7.7119e-11
-5.35846e-08
-4.84094e-11
-7.32877e-11
-5.35808e-08
-3.5589e-11
-7.26265e-11
-5.35765e-08
-2.29825e-11
-7.4542e-11
-5.35732e-08
-3.63301e-12
-7.92637e-11
-5.35698e-08
2.19659e-11
-8.65924e-11
-5.35672e-08
5.34035e-11
-9.47955e-11
-5.35674e-08
9.12025e-11
-1.04171e-10
-5.35693e-08
1.36322e-10
-1.09177e-10
-5.3576e-08
1.75641e-10
-1.30464e-10
-5.35833e-08
-1.35955e-10
-5.35906e-08
2.22779e-10
-1.43047e-10
-8.13861e-11
-5.35938e-08
1.85906e-10
-1.13119e-10
-7.04868e-11
-5.3591e-08
-8.31326e-11
-5.74522e-11
-5.35875e-08
-6.30918e-11
-5.61068e-11
-5.35825e-08
-4.82891e-11
-5.30012e-11
-5.35798e-08
-3.79474e-11
-5.17406e-11
-5.3576e-08
-2.7183e-11
-5.21555e-11
-5.35727e-08
-9.69615e-12
-5.57737e-11
-5.35689e-08
1.43069e-11
-6.19755e-11
-5.35657e-08
4.64542e-11
-6.86398e-11
-5.35647e-08
8.65706e-11
-7.58782e-11
-5.35654e-08
1.34837e-10
-8.00336e-11
-5.35706e-08
1.78749e-10
-9.52643e-11
-5.35759e-08
-1.04566e-10
-5.35832e-08
2.28098e-10
-1.42903e-10
-5.77318e-11
-5.35926e-08
1.84589e-10
-1.09576e-10
-4.91517e-11
-5.35895e-08
-7.88155e-11
-4.25744e-11
-5.35861e-08
-5.92797e-11
-4.19713e-11
-5.35822e-08
-4.63329e-11
-4.01452e-11
-5.35798e-08
-3.88599e-11
-3.89401e-11
-5.35767e-08
-2.97965e-11
-3.7798e-11
-5.35739e-08
-1.46452e-11
-3.95468e-11
-5.35703e-08
7.10071e-12
-4.25905e-11
-5.3567e-08
3.88305e-11
-4.58233e-11
-5.35657e-08
7.94134e-11
-4.98612e-11
-5.35658e-08
1.29389e-10
-5.2435e-11
-5.35697e-08
1.77122e-10
-6.15889e-11
-5.35744e-08
-7.06295e-11
-5.35814e-08
2.27693e-10
-1.44669e-10
-3.46276e-11
-5.35923e-08
1.86089e-10
-1.08908e-10
-3.24468e-11
-5.3587e-08
-7.79583e-11
-3.1397e-11
-5.35844e-08
-5.88398e-11
-3.2221e-11
-5.35813e-08
-4.70178e-11
-3.20812e-11
-5.35796e-08
-4.10347e-11
-3.19331e-11
-5.35771e-08
-3.26478e-11
-2.96943e-11
-5.35746e-08
-1.81347e-11
-2.87015e-11
-5.35711e-08
3.12111e-12
-2.84861e-11
-5.3568e-08
3.5249e-11
-2.78956e-11
-5.35667e-08
7.66667e-11
-2.78558e-11
-5.35662e-08
1.28072e-10
-2.74418e-11
-5.35692e-08
1.78766e-10
-3.02272e-11
-5.35731e-08
-3.53142e-11
-5.35814e-08
2.29759e-10
-1.49353e-10
-1.23452e-11
-5.35908e-08
1.92229e-10
-1.10902e-10
-1.78844e-11
-5.35837e-08
-7.83059e-11
-2.13984e-11
-5.35814e-08
-5.7905e-11
-2.36587e-11
-5.35786e-08
-4.51713e-11
-2.48471e-11
-5.35771e-08
-3.8275e-11
-2.55918e-11
-5.35755e-08
-3.08294e-11
-2.18975e-11
-5.35738e-08
-1.80611e-11
-1.76188e-11
-5.35713e-08
2.9071e-12
-1.47929e-11
-5.35689e-08
3.47766e-11
-1.0142e-11
-5.35678e-08
7.63887e-11
-6.10338e-12
-5.35672e-08
1.28524e-10
-2.71717e-12
-5.357e-08
1.80656e-10
3.1178e-13
-5.35735e-08
1.81047e-12
-5.35825e-08
2.31244e-10
-1.52991e-10
1.16653e-11
-5.35877e-08
1.96997e-10
-1.13877e-10
2.52436e-13
-5.35803e-08
-8.00787e-11
-7.18262e-12
-5.35775e-08
-5.81344e-11
-1.03399e-11
-5.35747e-08
-4.36585e-11
-1.23403e-11
-5.35736e-08
-3.44932e-11
-1.29363e-11
-5.35725e-08
-2.54999e-11
-8.63443e-12
-5.35716e-08
-1.24025e-11
-2.25577e-12
-5.35703e-08
8.68272e-12
3.89495e-12
-5.35686e-08
3.99654e-11
1.17531e-11
-5.35681e-08
8.06017e-11
1.9046e-11
-5.35679e-08
1.31385e-10
2.4806e-11
-5.35709e-08
1.81898e-10
3.31463e-11
-5.35742e-08
4.05729e-11
-5.35831e-08
2.30824e-10
-1.56698e-10
4.06267e-11
-5.35838e-08
2.00746e-10
-1.18696e-10
2.66074e-11
-5.35769e-08
-8.41508e-11
1.5066e-11
-5.35732e-08
-6.06927e-11
1.18492e-11
-5.35699e-08
-4.41608e-11
9.33737e-12
-5.35688e-08
-3.26924e-11
9.3627e-12
-5.3568e-08
-2.13754e-11
1.34798e-11
-5.35677e-08
-6.56035e-12
2.06982e-11
-5.35674e-08
1.54732e-11
2.88209e-11
-5.35667e-08
4.70813e-11
3.87651e-11
-5.35674e-08
8.69095e-11
4.85076e-11
-5.35682e-08
1.35799e-10
5.56295e-11
-5.35718e-08
1.83376e-10
6.88244e-11
-5.35757e-08
7.89355e-11
-5.35834e-08
2.30763e-10
-1.5966e-10
7.45118e-11
-5.35806e-08
2.0464e-10
-1.23058e-10
6.27087e-11
-5.35748e-08
-8.77254e-11
4.69156e-11
-5.35698e-08
-6.26459e-11
4.44713e-11
-5.35657e-08
-4.35995e-11
4.14893e-11
-5.35643e-08
-2.87415e-11
4.16761e-11
-5.35639e-08
-1.44489e-11
4.47773e-11
-5.35645e-08
1.90106e-12
5.24156e-11
-5.35651e-08
2.45428e-11
6.19012e-11
-5.35658e-08
5.59981e-11
7.20473e-11
-5.35673e-08
9.44991e-11
8.2526e-11
-5.35691e-08
1.40895e-10
8.93192e-11
-5.35738e-08
1.84264e-10
1.06766e-10
-5.35784e-08
1.14998e-10
-5.35846e-08
2.30265e-10
-1.63088e-10
1.10108e-10
-5.358e-08
2.08762e-10
-1.28439e-10
1.05017e-10
-5.35737e-08
-9.25752e-11
8.47642e-11
-5.35683e-08
-6.58076e-11
8.37869e-11
-5.35627e-08
-4.38051e-11
8.11148e-11
-5.3561e-08
-2.55117e-11
8.20926e-11
-5.35606e-08
-8.18057e-12
8.4578e-11
-5.35617e-08
1.07347e-11
9.20769e-11
-5.3563e-08
3.5003e-11
1.0169e-10
-5.35648e-08
6.67346e-11
1.09845e-10
-5.35673e-08
1.03812e-10
1.19208e-10
-5.35702e-08
1.47439e-10
1.2417e-10
-5.35765e-08
1.85968e-10
1.4503e-10
-5.35816e-08
1.4688e-10
-5.35875e-08
2.29956e-10
-1.61429e-10
1.49127e-10
-5.35865e-08
2.06785e-10
-1.29325e-10
1.54936e-10
-5.35798e-08
-9.40271e-11
1.30298e-10
-5.35727e-08
-6.65484e-11
1.31709e-10
-5.35657e-08
-4.25201e-11
1.30207e-10
-5.35633e-08
-2.12387e-11
1.32267e-10
-5.35623e-08
-1.51966e-12
1.34721e-10
-5.35631e-08
1.88915e-11
1.41239e-10
-5.35647e-08
4.38708e-11
1.48486e-10
-5.35673e-08
7.46019e-11
1.53677e-10
-5.3571e-08
1.08824e-10
1.60434e-10
-5.3575e-08
1.48419e-10
1.61769e-10
-5.35829e-08
1.81243e-10
1.85214e-10
-5.35898e-08
1.76575e-10
-5.35958e-08
2.22163e-10
-1.92435e-10
1.84018e-10
-5.35904e-08
2.40041e-10
-1.54576e-10
1.99072e-10
-5.35831e-08
-1.12588e-10
1.71649e-10
-5.35782e-08
-7.86069e-11
1.77525e-10
-5.35696e-08
-4.83269e-11
1.78632e-10
-5.35666e-08
-2.07583e-11
1.82004e-10
-5.3565e-08
4.23293e-12
1.84528e-10
-5.35659e-08
2.90482e-11
1.89064e-10
-5.35678e-08
5.82701e-11
1.92197e-10
-5.35709e-08
9.24137e-11
1.92519e-10
-5.35759e-08
1.29694e-10
1.94226e-10
-5.35806e-08
1.7271e-10
1.89025e-10
-5.35901e-08
2.07774e-10
2.1424e-10
-5.35946e-08
1.97811e-10
-5.36005e-08
2.47206e-10
-1.78271e-10
-5.35931e-08
2.28035e-10
2.1568e-10
-1.48755e-10
-5.35895e-08
2.50989e-10
-1.14379e-10
-5.35843e-08
2.21403e-10
-8.38654e-11
-5.35759e-08
2.28505e-10
-5.3188e-11
-5.35736e-08
2.28978e-10
-2.20119e-11
-5.35739e-08
2.30983e-10
7.59832e-12
-5.35758e-08
2.32499e-10
3.70623e-11
-5.35778e-08
2.34293e-10
6.88887e-11
-5.35798e-08
2.34049e-10
1.01402e-10
-5.35826e-08
2.31885e-10
1.32304e-10
-5.35868e-08
2.31535e-10
1.6501e-10
-5.35962e-08
2.22126e-10
1.8991e-10
-5.36008e-08
2.4827e-10
-5.36028e-08
2.19376e-10
2.2077e-10
-2.11294e-10
-2.24024e-10
-5.89766e-08
2.54927e-10
2.48541e-10
-1.73984e-10
-2.37377e-10
-5.898e-08
2.7412e-10
-1.37527e-10
-2.08217e-10
-5.89764e-08
2.44712e-10
-9.99663e-11
-2.1352e-10
-5.89726e-08
2.50493e-10
-6.35261e-11
-2.12249e-10
-5.89699e-08
2.47105e-10
-2.71879e-11
-2.13491e-10
-5.89697e-08
2.45823e-10
7.6836e-12
-2.15068e-10
-5.89697e-08
2.45881e-10
4.05617e-11
-2.15302e-10
-5.89689e-08
2.45221e-10
7.43529e-11
-2.15242e-10
-5.89677e-08
2.43697e-10
1.08886e-10
-2.14399e-10
-5.89675e-08
2.42088e-10
1.43926e-10
-2.15123e-10
-5.89709e-08
2.42576e-10
1.76926e-10
-2.0857e-10
-5.89764e-08
2.34753e-10
2.06471e-10
-2.3469e-10
-5.89827e-08
2.65076e-10
-2.19777e-10
-5.89818e-08
2.41268e-10
2.39841e-10
-2.25645e-10
-1.90243e-10
-5.89793e-08
2.69582e-10
-1.82255e-10
-2.00008e-10
-5.89784e-08
-1.36347e-10
-1.7603e-10
-5.89756e-08
-9.29828e-11
-1.79081e-10
-5.89722e-08
-5.53407e-11
-1.77205e-10
-5.89696e-08
-2.26285e-11
-1.77934e-10
-5.8967e-08
5.81306e-12
-1.79316e-10
-5.89656e-08
3.32369e-11
-1.80975e-10
-5.89643e-08
6.50305e-11
-1.84371e-10
-5.89637e-08
1.01629e-10
-1.86384e-10
-5.89646e-08
1.42219e-10
-1.89661e-10
-5.89675e-08
1.84361e-10
-1.86225e-10
-5.89731e-08
2.23821e-10
-2.07746e-10
-5.89791e-08
-1.98951e-10
-5.89829e-08
2.66019e-10
-1.96167e-10
-1.55961e-10
-5.89749e-08
2.42331e-10
-1.57846e-10
-1.56057e-10
-5.8975e-08
-1.17601e-10
-1.38642e-10
-5.89703e-08
-7.97658e-11
-1.41489e-10
-5.89686e-08
-4.75304e-11
-1.40674e-10
-5.89665e-08
-2.01019e-11
-1.41974e-10
-5.89649e-08
3.61371e-12
-1.44001e-10
-5.89636e-08
2.7395e-11
-1.4754e-10
-5.89615e-08
5.50573e-11
-1.52979e-10
-5.89594e-08
8.77126e-11
-1.55733e-10
-5.89585e-08
1.24658e-10
-1.5935e-10
-5.89604e-08
1.62601e-10
-1.57593e-10
-5.89639e-08
1.98724e-10
-1.74336e-10
-5.89721e-08
-1.72358e-10
-5.89756e-08
2.39985e-10
-2.03346e-10
-1.16721e-10
-5.8971e-08
2.5053e-10
-1.61455e-10
-1.11332e-10
-5.89715e-08
-1.19803e-10
-9.97067e-11
-5.89681e-08
-8.13613e-11
-1.02501e-10
-5.89686e-08
-4.93459e-11
-1.02919e-10
-5.89677e-08
-2.26568e-11
-1.05397e-10
-5.89667e-08
3.42894e-13
-1.08571e-10
-5.89655e-08
2.37304e-11
-1.14116e-10
-5.89631e-08
5.13262e-11
-1.19974e-10
-5.896e-08
8.64168e-11
-1.23229e-10
-5.89575e-08
1.26797e-10
-1.26258e-10
-5.89574e-08
1.67735e-10
-1.25074e-10
-5.89586e-08
2.08793e-10
-1.35759e-10
-5.8965e-08
-1.37766e-10
-5.89687e-08
2.52647e-10
-2.05077e-10
-7.48349e-11
-5.89679e-08
2.50995e-10
-1.6108e-10
-6.82216e-11
-5.89684e-08
-1.19069e-10
-6.19984e-11
-5.89655e-08
-8.13358e-11
-6.48397e-11
-5.89673e-08
-5.0881e-11
-6.70138e-11
-5.89665e-08
-2.56331e-11
-7.06277e-11
-5.89658e-08
-3.83414e-12
-7.42911e-11
-5.89649e-08
1.87299e-11
-8.07258e-11
-5.89622e-08
4.66975e-11
-8.65028e-11
-5.89585e-08
8.25402e-11
-8.98758e-11
-5.89552e-08
1.24398e-10
-9.20855e-11
-5.89541e-08
1.68162e-10
-9.07016e-11
-5.89534e-08
2.13794e-10
-9.55093e-11
-5.89595e-08
-9.75137e-11
-5.89634e-08
2.59448e-10
-2.07544e-10
-3.05315e-11
-5.8968e-08
2.52212e-10
-1.62349e-10
-2.59223e-11
-5.89663e-08
-1.21171e-10
-2.37469e-11
-5.89644e-08
-8.46944e-11
-2.64815e-11
-5.8967e-08
-5.59331e-11
-3.02284e-11
-5.89668e-08
-3.2106e-11
-3.51198e-11
-5.89664e-08
-1.05459e-11
-3.96836e-11
-5.89653e-08
1.256e-11
-4.60786e-11
-5.8962e-08
4.22026e-11
-5.06538e-11
-5.89576e-08
7.98848e-11
-5.32525e-11
-5.89539e-08
1.24791e-10
-5.44573e-11
-5.8952e-08
1.72159e-10
-5.2636e-11
-5.89505e-08
2.21736e-10
-5.33494e-11
-5.89557e-08
-5.2373e-11
-5.89614e-08
2.68744e-10
-2.09741e-10
1.28756e-11
-5.8968e-08
2.53734e-10
-1.6397e-10
1.34942e-11
-5.89644e-08
-1.23287e-10
1.26364e-11
-5.89627e-08
-8.76321e-11
1.05209e-11
-5.89653e-08
-5.98431e-11
6.70341e-12
-5.89651e-08
-3.69896e-11
1.54176e-12
-5.89651e-08
-1.58664e-11
-3.37265e-12
-5.89642e-08
8.1262e-12
-8.69264e-12
-5.89611e-08
3.92063e-11
-1.18891e-11
-5.89567e-08
7.81164e-11
-1.31058e-11
-5.89532e-08
1.25652e-10
-1.29164e-11
-5.89512e-08
1.76059e-10
-1.09761e-11
-5.89495e-08
2.28123e-10
-7.61532e-12
-5.89543e-08
-3.83573e-12
-5.89614e-08
2.75578e-10
-2.08549e-10
5.31036e-11
-5.89671e-08
2.51965e-10
-1.63913e-10
5.01219e-11
-5.89634e-08
-1.24985e-10
4.64429e-11
-5.8961e-08
-9.09187e-11
4.50873e-11
-5.89633e-08
-6.3784e-11
4.16192e-11
-5.89629e-08
-4.10679e-11
3.74968e-11
-5.8963e-08
-1.91691e-11
3.39665e-11
-5.8962e-08
6.81592e-12
3.10078e-11
-5.89593e-08
3.95489e-11
2.97058e-11
-5.89553e-08
8.02722e-11
3.01267e-11
-5.89521e-08
1.28334e-10
3.17812e-11
-5.89506e-08
1.79143e-10
3.38479e-11
-5.89493e-08
2.32005e-10
4.10874e-11
-5.89544e-08
4.7371e-11
-5.89617e-08
2.78827e-10
-2.0536e-10
9.00914e-11
-5.89659e-08
2.47077e-10
-1.63981e-10
8.56007e-11
-5.89631e-08
-1.27553e-10
7.8633e-11
-5.89595e-08
-9.5165e-11
7.84653e-11
-5.8961e-08
-6.89715e-11
7.62532e-11
-5.89602e-08
-4.64461e-11
7.3134e-11
-5.89599e-08
-2.27897e-11
7.13613e-11
-5.89588e-08
5.12113e-12
7.20251e-11
-5.89562e-08
3.91858e-11
7.33404e-11
-5.89529e-08
8.13638e-11
7.48663e-11
-5.89506e-08
1.30418e-10
7.72541e-11
-5.89504e-08
1.81775e-10
7.9129e-11
-5.895e-08
2.33741e-10
9.01596e-11
-5.89561e-08
9.65945e-11
-5.89624e-08
2.80251e-10
-2.00348e-10
1.22957e-10
-5.89652e-08
2.41485e-10
-1.62391e-10
1.20439e-10
-5.89637e-08
-1.27523e-10
1.09983e-10
-5.89588e-08
-9.64916e-11
1.11927e-10
-5.8959e-08
-7.07225e-11
1.11298e-10
-5.89576e-08
-4.85126e-11
1.10433e-10
-5.89572e-08
-2.42512e-11
1.10361e-10
-5.89562e-08
5.55443e-12
1.1343e-10
-5.89544e-08
4.07199e-11
1.16546e-10
-5.89522e-08
8.30191e-11
1.18703e-10
-5.89506e-08
1.32497e-10
1.22188e-10
-5.89517e-08
1.83577e-10
1.22953e-10
-5.89529e-08
2.3283e-10
1.37064e-10
-5.89602e-08
1.39641e-10
-5.89653e-08
2.78893e-10
-1.95744e-10
1.55154e-10
-5.89682e-08
2.35368e-10
-1.61873e-10
1.58282e-10
-5.89658e-08
-1.28863e-10
1.43447e-10
-5.89605e-08
-9.84534e-11
1.47652e-10
-5.8959e-08
-7.20882e-11
1.48455e-10
-5.8957e-08
-4.8444e-11
1.50118e-10
-5.89562e-08
-2.29845e-11
1.51468e-10
-5.89554e-08
7.78742e-12
1.55856e-10
-5.89542e-08
4.46973e-11
1.59953e-10
-5.8953e-08
8.78252e-11
1.61824e-10
-5.8953e-08
1.36366e-10
1.65171e-10
-5.89555e-08
1.85521e-10
1.64068e-10
-5.8959e-08
2.30803e-10
1.80897e-10
-5.8967e-08
1.76555e-10
-5.89719e-08
2.74774e-10
-1.85551e-10
1.8264e-10
-5.89735e-08
2.24017e-10
-1.55773e-10
1.95124e-10
-5.8971e-08
-1.24949e-10
1.75006e-10
-5.89635e-08
-9.57388e-11
1.81696e-10
-5.896e-08
-6.9552e-11
1.83668e-10
-5.89568e-08
-4.52193e-11
1.87406e-10
-5.8955e-08
-1.94605e-11
1.90032e-10
-5.89541e-08
1.12433e-11
1.94981e-10
-5.89536e-08
4.77694e-11
1.98967e-10
-5.89539e-08
8.95053e-11
1.99852e-10
-5.89558e-08
1.35406e-10
2.01886e-10
-5.896e-08
1.80955e-10
1.97891e-10
-5.89655e-08
2.2054e-10
2.17907e-10
-5.89754e-08
2.04164e-10
-5.89805e-08
2.60569e-10
-2.11625e-10
2.05632e-10
-5.89796e-08
2.52278e-10
-1.76969e-10
2.25125e-10
-5.89764e-08
-1.40141e-10
1.99829e-10
-5.89714e-08
-1.05656e-10
2.10736e-10
-5.89663e-08
-7.43772e-11
2.15069e-10
-5.89624e-08
-4.51892e-11
2.21464e-10
-5.89601e-08
-1.53481e-11
2.25589e-10
-5.89596e-08
1.92364e-11
2.30227e-10
-5.89598e-08
5.92226e-11
2.32277e-10
-5.89608e-08
1.03897e-10
2.30969e-10
-5.89642e-08
1.52746e-10
2.30256e-10
-5.89695e-08
2.01725e-10
2.21034e-10
-5.89768e-08
2.43276e-10
2.44847e-10
-5.89841e-08
2.24057e-10
-5.89888e-08
2.82834e-10
-1.91629e-10
-5.89788e-08
2.32201e-10
2.22342e-10
-1.66922e-10
-5.89804e-08
2.60313e-10
-1.38752e-10
-5.8975e-08
2.29411e-10
-1.08121e-10
-5.89699e-08
2.40402e-10
-7.70164e-11
-5.89667e-08
2.43769e-10
-4.51006e-11
-5.89664e-08
2.5005e-10
-1.10917e-11
-5.8967e-08
2.53768e-10
2.7029e-11
-5.89676e-08
2.57617e-10
6.77569e-11
-5.8968e-08
2.59301e-10
1.09019e-10
-5.89696e-08
2.57891e-10
1.50337e-10
-5.89746e-08
2.57001e-10
1.88616e-10
-5.89819e-08
2.44723e-10
2.20386e-10
-5.8989e-08
2.71472e-10
-5.89884e-08
2.5193e-10
2.40193e-10
-2.69352e-10
-2.80466e-10
-6.4834e-08
3.07611e-10
3.09463e-10
-2.29118e-10
-3.00606e-10
-6.48336e-08
3.33597e-10
-1.80539e-10
-2.79796e-10
-6.48293e-08
3.10711e-10
-1.32678e-10
-2.92694e-10
-6.48213e-08
3.24443e-10
-8.24133e-11
-2.96569e-10
-6.48183e-08
3.26876e-10
-3.16875e-11
-2.99607e-10
-6.4818e-08
3.27577e-10
1.68083e-11
-2.99722e-10
-6.48188e-08
3.26167e-10
6.14327e-11
-2.94918e-10
-6.48195e-08
3.2078e-10
1.03006e-10
-2.86854e-10
-6.48205e-08
3.1062e-10
1.40492e-10
-2.74666e-10
-6.48224e-08
2.98825e-10
1.73695e-10
-2.64354e-10
-6.48262e-08
2.90406e-10
2.08018e-10
-2.48326e-10
-6.48344e-08
2.7454e-10
2.34496e-10
-2.6878e-10
-6.48377e-08
3.01622e-10
-2.48696e-10
-6.48367e-08
2.74889e-10
2.71265e-10
-2.90368e-10
-2.47615e-10
-6.48319e-08
3.34185e-10
-2.45622e-10
-2.65195e-10
-6.48251e-08
-1.88626e-10
-2.49234e-10
-6.48208e-08
-1.33347e-10
-2.60022e-10
-6.48124e-08
-7.80577e-11
-2.63656e-10
-6.48092e-08
-2.56534e-11
-2.6697e-10
-6.48065e-08
2.21702e-11
-2.67644e-10
-6.48063e-08
6.47251e-11
-2.64733e-10
-6.48075e-08
1.04234e-10
-2.60225e-10
-6.481e-08
1.4295e-10
-2.50985e-10
-6.48143e-08
1.80762e-10
-2.42551e-10
-6.4819e-08
2.22528e-10
-2.29289e-10
-6.48278e-08
2.55739e-10
-2.42691e-10
-6.48317e-08
-2.27048e-10
-6.48369e-08
2.9771e-10
-2.70527e-10
-2.03382e-10
-6.48256e-08
3.14602e-10
-2.3001e-10
-2.13055e-10
-6.48186e-08
-1.77077e-10
-2.01391e-10
-6.48116e-08
-1.25054e-10
-2.11112e-10
-6.48042e-08
-7.19247e-11
-2.15815e-10
-6.48008e-08
-2.1126e-11
-2.20673e-10
-6.4799e-08
2.54136e-11
-2.22917e-10
-6.47994e-08
6.71766e-11
-2.22763e-10
-6.48004e-08
1.03957e-10
-2.21233e-10
-6.4802e-08
1.39542e-10
-2.15671e-10
-6.48059e-08
1.73384e-10
-2.08972e-10
-6.48106e-08
2.08367e-10
-1.96363e-10
-6.48184e-08
2.35594e-10
-2.0415e-10
-6.48257e-08
-1.94605e-10
-6.48314e-08
2.73015e-10
-2.85214e-10
-1.53834e-10
-6.48152e-08
3.30711e-10
-2.41188e-10
-1.57001e-10
-6.48079e-08
-1.85798e-10
-1.49587e-10
-6.48013e-08
-1.32257e-10
-1.58028e-10
-6.47958e-08
-7.73066e-11
-1.63287e-10
-6.47933e-08
-2.40959e-11
-1.69032e-10
-6.47917e-08
2.52392e-11
-1.72987e-10
-6.47921e-08
7.07927e-11
-1.76e-10
-6.47926e-08
1.11539e-10
-1.77209e-10
-6.47938e-08
1.4885e-10
-1.74486e-10
-6.47967e-08
1.84595e-10
-1.70132e-10
-6.48007e-08
2.23103e-10
-1.59893e-10
-6.48076e-08
2.53705e-10
-1.63768e-10
-6.4814e-08
-1.58034e-10
-6.48209e-08
2.90973e-10
-2.92287e-10
-9.67991e-11
-6.48101e-08
3.36759e-10
-2.4689e-10
-9.5212e-11
-6.48019e-08
-1.91665e-10
-9.07447e-11
-6.47951e-08
-1.3784e-10
-9.74441e-11
-6.47902e-08
-8.17597e-11
-1.03417e-10
-6.47873e-08
-2.7438e-11
-1.09557e-10
-6.47855e-08
2.3554e-11
-1.147e-10
-6.47857e-08
7.02879e-11
-1.2067e-10
-6.4786e-08
1.12569e-10
-1.24286e-10
-6.47866e-08
1.52149e-10
-1.23787e-10
-6.47888e-08
1.91246e-10
-1.21928e-10
-6.47928e-08
2.32937e-10
-1.15159e-10
-6.47989e-08
2.65916e-10
-1.16358e-10
-6.48061e-08
-1.13132e-10
-6.48144e-08
3.02699e-10
-2.97011e-10
-3.58513e-11
-6.48092e-08
3.39305e-10
-2.52068e-10
-3.15117e-11
-6.47983e-08
-1.98288e-10
-2.85465e-11
-6.47922e-08
-1.45234e-10
-3.26621e-11
-6.47875e-08
-9.0145e-11
-3.81658e-11
-6.47845e-08
-3.58173e-11
-4.45391e-11
-6.47822e-08
1.74615e-11
-5.09445e-11
-6.47815e-08
6.70569e-11
-5.90022e-11
-6.47808e-08
1.12137e-10
-6.48597e-11
-6.47807e-08
1.5446e-10
-6.70824e-11
-6.47824e-08
1.96685e-10
-6.77264e-11
-6.47859e-08
2.41694e-10
-6.48379e-11
-6.47918e-08
2.7813e-10
-6.44737e-11
-6.47991e-08
-6.1751e-11
-6.48107e-08
3.15558e-10
-2.98139e-10
2.34992e-11
-6.48097e-08
3.38621e-10
-2.53422e-10
2.95962e-11
-6.47974e-08
-2.00717e-10
3.18405e-11
-6.47915e-08
-1.49548e-10
3.14835e-11
-6.47868e-08
-9.67131e-11
2.82964e-11
-6.47831e-08
-4.34096e-11
2.26175e-11
-6.47803e-08
1.04411e-11
1.57224e-11
-6.47792e-08
6.12976e-11
7.09321e-12
-6.4778e-08
1.08777e-10
-5.16457e-13
-6.47774e-08
1.53913e-10
-5.90092e-12
-6.47786e-08
1.98826e-10
-9.65033e-12
-6.47819e-08
2.46444e-10
-1.08405e-11
-6.47878e-08
2.85911e-10
-9.55228e-12
-6.47952e-08
-6.75813e-12
-6.4809e-08
3.24656e-10
-2.92922e-10
7.7974e-11
-6.48111e-08
3.31559e-10
-2.50477e-10
8.46317e-11
-6.47993e-08
-2.00099e-10
8.68528e-11
-6.47932e-08
-1.51322e-10
9.07961e-11
-6.47882e-08
-1.00874e-10
9.00883e-11
-6.47839e-08
-4.91273e-11
8.57948e-11
-6.47807e-08
3.8713e-12
7.95133e-11
-6.4779e-08
5.48779e-11
7.18393e-11
-6.47773e-08
1.03832e-10
6.36059e-11
-6.47761e-08
1.51381e-10
5.57e-11
-6.47768e-08
1.98569e-10
4.96269e-11
-6.47803e-08
2.4764e-10
4.49004e-11
-6.47866e-08
2.87957e-10
4.72349e-11
-6.47947e-08
4.90597e-11
-6.48091e-08
3.27099e-10
-2.82176e-10
1.26063e-10
-6.48136e-08
3.18967e-10
-2.44429e-10
1.32306e-10
-6.48037e-08
-1.982e-10
1.33057e-10
-6.47972e-08
-1.53022e-10
1.41149e-10
-6.47917e-08
-1.05939e-10
1.43525e-10
-6.47868e-08
-5.65603e-11
1.41243e-10
-6.47829e-08
-5.17725e-12
1.36263e-10
-6.47801e-08
4.55358e-11
1.30448e-10
-6.47776e-08
9.54589e-11
1.22011e-10
-6.47762e-08
1.45522e-10
1.1364e-10
-6.47773e-08
1.94013e-10
1.06777e-10
-6.47815e-08
2.44049e-10
9.86601e-11
-6.47884e-08
2.85334e-10
1.01951e-10
-6.47977e-08
1.01367e-10
-6.48107e-08
3.26279e-10
-2.68295e-10
1.65209e-10
-6.48178e-08
3.03824e-10
-2.33932e-10
1.73078e-10
-6.48103e-08
-1.91381e-10
1.70485e-10
-6.48033e-08
-1.50455e-10
1.80823e-10
-6.47969e-08
-1.06922e-10
1.85781e-10
-6.47917e-08
-6.12799e-11
1.8657e-10
-6.47873e-08
-1.28741e-11
1.83624e-10
-6.47841e-08
3.69693e-11
1.80089e-10
-6.47817e-08
8.70357e-11
1.74337e-10
-6.47804e-08
1.38108e-10
1.6595e-10
-6.47818e-08
1.87201e-10
1.58531e-10
-6.47864e-08
2.36754e-10
1.47526e-10
-6.47941e-08
2.78025e-10
1.52477e-10
-6.48041e-08
1.47389e-10
-6.4815e-08
3.21221e-10
-2.52462e-10
1.94435e-10
-6.48243e-08
2.86859e-10
-2.23569e-10
2.0658e-10
-6.48177e-08
-1.85597e-10
1.99652e-10
-6.48117e-08
-1.48059e-10
2.11924e-10
-6.48041e-08
-1.07029e-10
2.18952e-10
-6.47986e-08
-6.37891e-11
2.23046e-10
-6.47939e-08
-1.73076e-11
2.22332e-10
-6.47905e-08
3.07663e-11
2.2086e-10
-6.4788e-08
8.00065e-11
2.17349e-10
-6.47872e-08
1.30093e-10
2.08693e-10
-6.47892e-08
1.78863e-10
2.00741e-10
-6.47938e-08
2.29007e-10
1.88081e-10
-6.48031e-08
2.68858e-10
1.97184e-10
-6.48127e-08
1.86254e-10
-6.48224e-08
3.12663e-10
-2.31557e-10
2.18525e-10
-6.48342e-08