/*--------------------------------*- C++ -*----------------------------------*\
| =========                 |                                                 |
| \\      /  F ield         | OpenFOAM: The Open Source CFD Toolbox           |
|  \\    /   O peration     | Version:  v2106                                 |
|   \\  /    A nd           | Website:  www.openfoam.com                      |
|    \\/     M anipulation  |                                                 |
\*---------------------------------------------------------------------------*/
FoamFile
{
    version     2.0;
    format      ascii;
    arch        "LSB;label=32;scalar=64";
    class       volScalarField;
    location    "0.000137";
    object      k;
}
// * * * * * * * * * * * * * * * * * * * * * * * * * * * * * * * * * * * * * //

dimensions      [0 2 -2 0 0 0 0];

internalField   nonuniform List<scalar> 
18109
(
0.0171476
0.00995822
0.00636
0.00338724
0.00215693
0.00162016
0.00135261
0.00396822
0.00155126
0.000698063
0.00026835
0.000162447
0.000141242
0.00014207
0.0031294
0.0010133
0.000323083
9.91422e-05
3.07612e-05
1.35321e-05
1.17801e-05
0.00584635
0.00211555
0.000701649
0.000201806
4.92794e-05
1.02196e-05
2.18912e-06
0.00941902
0.00339781
0.0010727
0.000293023
6.7879e-05
1.30585e-05
2.03529e-06
0.0129856
0.00442047
0.00131857
0.000340451
7.47343e-05
1.36344e-05
1.99931e-06
0.0175378
0.00553148
0.00152551
0.000364018
7.39964e-05
1.25259e-05
1.73555e-06
0.0238875
0.00699157
0.00178693
0.000394716
7.43667e-05
1.18305e-05
1.7856e-06
0.00230919
0.00115596
0.000648235
0.000340647
0.000261842
0.000234036
0.000217474
0.000198607
0.000173641
0.000135115
8.31687e-05
3.92554e-05
1.86629e-05
5.5972e-05
0.000743563
0.000218965
6.73267e-05
2.48563e-05
1.68027e-05
1.68821e-05
1.88662e-05
2.05607e-05
2.08731e-05
1.86513e-05
1.28075e-05
6.43515e-06
6.06391e-06
5.66381e-05
0.000932911
0.00027709
8.04545e-05
2.14918e-05
5.33375e-06
1.73708e-06
1.36011e-06
1.64901e-06
1.93949e-06
1.97609e-06
1.51218e-06
9.27219e-07
4.07865e-06
6.01365e-05
0.00181572
0.000589018
0.000168755
4.19139e-05
8.84145e-06
1.57572e-06
2.77265e-07
1.21971e-07
1.39447e-07
1.62233e-07
1.41518e-07
1.70087e-07
2.82893e-06
4.93501e-05
0.00276489
0.000877021
0.000242441
5.76944e-05
1.16116e-05
1.94298e-06
2.64173e-07
3.16957e-08
9.28897e-09
1.00579e-08
1.00779e-08
4.9739e-08
1.68081e-06
3.23303e-05
0.00375834
0.00112373
0.000292195
6.54344e-05
1.24173e-05
1.96093e-06
2.50848e-07
2.53778e-08
2.31735e-09
6.71677e-10
6.24619e-10
1.35104e-08
8.13715e-07
1.79058e-05
0.00503318
0.00138684
0.000332682
6.88606e-05
1.21132e-05
1.77871e-06
2.15533e-07
2.33596e-08
4.00611e-09
1.65561e-09
8.54881e-10
4.76094e-09
3.32956e-07
8.72668e-06
0.00678348
0.00172466
0.000382461
7.33277e-05
1.19807e-05
1.65886e-06
2.20603e-07
5.36217e-08
3.05993e-08
1.94435e-08
1.12268e-08
7.92808e-09
1.64965e-07
4.42284e-06
0.00902881
0.00213029
0.000437139
7.75036e-05
1.18552e-05
1.78284e-06
5.13083e-07
3.55187e-07
2.82291e-07
2.00475e-07
1.2748e-07
7.72753e-08
1.27838e-07
2.25583e-06
0.0118758
0.00265778
0.000515226
8.6213e-05
1.35704e-05
3.69782e-06
2.77301e-06
2.61307e-06
2.26157e-06
1.74115e-06
1.20761e-06
7.99588e-07
5.52517e-07
1.39839e-06
0.0146769
0.00313408
0.000582405
9.7331e-05
2.20406e-05
1.50527e-05
1.6289e-05
1.67633e-05
1.54164e-05
1.27884e-05
9.6136e-06
6.95438e-06
4.74216e-06
3.7142e-06
0.0169955
0.00351312
0.000650185
0.000128979
6.23374e-05
7.04503e-05
8.47463e-05
9.24777e-05
9.01929e-05
8.03558e-05
6.52329e-05
5.09298e-05
3.64758e-05
2.58568e-05
0.0181257
0.00369964
0.0007411
0.000241132
0.000228562
0.000303437
0.00038366
0.000440712
0.00045543
0.000435382
0.000381238
0.000317267
0.000238349
0.000170762
0.0203836
0.00451054
0.00115476
0.000673413
0.000841591
0.0011655
0.00152237
0.00182815
0.00200274
0.00206124
0.00194811
0.00170944
0.00134151
0.000982475
0.083511
0.272583
0.686232
1.38645
2.34853
3.43523
0.014087
0.0615983
0.204061
0.521445
1.09052
1.90398
0.0126819
0.0659748
0.239743
0.644358
1.35591
2.32841
0.00980407
0.0595822
0.234018
0.653187
1.38639
2.38053
0.00612302
0.0460865
0.198138
0.577986
1.25752
2.19802
0.00381693
0.0299289
0.143102
0.448309
1.02649
1.8543
0.00276606
0.0207282
0.100622
0.326571
0.774479
1.44673
0.00213636
0.0146483
0.0695384
0.228781
0.55561
1.06435
0.0016354
0.0100951
0.0458047
0.15012
0.369565
0.718436
0.00119246
0.00653471
0.0278079
0.0889972
0.218826
0.434925
0.000742351
0.00358055
0.0144105
0.0459817
0.116393
0.240536
0.000382994
0.00167241
0.00655445
0.0211367
0.0554997
0.118787
0.000157004
0.000653517
0.00266341
0.00902911
0.025431
0.0581817
5.84241e-05
0.000287069
0.00136933
0.00544609
0.018578
0.0537437
7.37726e-05
0.000442069
0.00245551
0.0113958
0.0434964
0.133836
0.00047401
0.00236821
0.0105466
0.0402008
0.127869
0.335912
0.000591194
0.00366604
0.0184242
0.0747766
0.240666
0.607617
0.00067693
0.00490098
0.0267931
0.110754
0.34578
0.830606
0.000601933
0.00497543
0.029116
0.122989
0.380685
0.894715
0.000416768
0.00386517
0.024492
0.108476
0.34357
0.817035
0.000240395
0.00244515
0.0168366
0.0794909
0.264256
0.653306
0.000125007
0.00133317
0.00996108
0.0527554
0.18798
0.481635
7.00085e-05
0.000783092
0.00611639
0.0326205
0.119351
0.316175
3.79911e-05
0.00042158
0.00326807
0.017456
0.0655429
0.179696
1.825e-05
0.000194269
0.00142983
0.00758927
0.0297283
0.0855959
1.10628e-05
9.85992e-05
0.000660428
0.00329141
0.0127079
0.0371702
2.87926e-05
0.000144685
0.00070179
0.00293672
0.0102627
0.0292148
0.000173424
0.00068677
0.00260531
0.0089586
0.0270594
0.0712216
0.00100432
0.00353598
0.0117273
0.035364
0.0938645
0.217743
0.00501415
0.0149702
0.0418788
0.106728
0.244627
0.499616
0.00661311
0.0221041
0.0664949
0.17745
0.412458
0.825049
0.00806238
0.0289721
0.0909589
0.245246
0.560406
1.08313
0.00871607
0.032488
0.10327
0.276072
0.617796
1.16434
0.00856608
0.0318946
0.100706
0.265938
0.587424
1.09752
0.00771638
0.0279127
0.0865801
0.226558
0.499295
0.932863
0.00663267
0.0228969
0.0684145
0.175456
0.384323
0.71941
0.00532616
0.0176
0.0505497
0.12595
0.271861
0.507999
0.00400457
0.0126167
0.0346643
0.083339
0.175018
0.319718
0.00287812
0.00862337
0.0225222
0.0518769
0.104866
0.185624
0.00213631
0.00622373
0.0160782
0.0370011
0.0764192
0.143587
0.00253134
0.00775216
0.0219252
0.0558128
0.128547
0.267936
0.0074267
0.0231679
0.06548
0.161431
0.351497
0.67741
0.0348758
0.0906385
0.214277
0.449345
0.844259
1.4173
0.0158638
0.0366324
0.0802639
0.164085
0.30334
0.488235
0.00969237
0.0252416
0.0635804
0.152104
0.335615
0.659956
0.0119469
0.0381071
0.115097
0.310415
0.704974
1.33019
0.0461121
0.13825
0.36232
0.797933
1.49864
2.40916
0.078839
0.202277
0.451286
0.870058
1.48568
2.25796
0.0807441
0.225344
0.528125
1.04449
1.78261
2.69037
0.0738473
0.21808
0.527135
1.05907
1.81371
2.73633
0.0608539
0.188067
0.468384
0.959547
1.66932
2.54593
0.0464985
0.147154
0.376737
0.793582
1.41502
2.2031
0.0332768
0.105991
0.277457
0.60206
1.10722
1.7739
0.0231419
0.0722768
0.190725
0.42677
0.825868
1.3593
0.0158474
0.0473476
0.124277
0.293075
0.575485
0.967012
0.0110234
0.0310558
0.0798194
0.187279
0.376026
0.650929
0.00783753
0.0207214
0.0507615
0.11671
0.234538
0.400136
0.00536688
0.0136197
0.0324641
0.0720908
0.145249
0.246812
0.00312411
0.00828822
0.0211196
0.0508093
0.114476
0.238467
0.00269678
0.00843255
0.0266232
0.0800863
0.215362
0.497363
0.00789268
0.0279041
0.0897593
0.244649
0.566049
1.11143
2.87983
5.31823
7.95311
10.119
11.1253
3.47686
5.90113
8.5172
10.6712
10.5908
3.54853
5.9715
8.88306
11.4281
10.7309
3.3285
5.76296
8.98013
11.7509
10.8867
2.87991
5.05669
8.02737
10.6415
10.1512
2.33852
3.94748
6.32524
8.70374
8.80113
1.74833
2.82208
4.5293
6.68713
7.45205
1.20087
1.87776
2.98493
4.88182
6.50093
5.88988
0.769868
1.17377
1.81592
3.31766
5.53966
5.81239
0.449077
0.679543
1.01968
2.0429
4.37538
5.5026
0.227914
0.359806
0.572637
1.21
3.11271
5.09268
5.69052
0.116473
0.251943
0.541853
1.10404
2.34692
4.66841
7.0737
4.85602
0.136225
0.45332
1.0991
2.044
3.20958
5.09675
10.6015
14.8836
0.33384
1.06604
2.35678
4.06397
5.91655
8.06577
14.8125
31.7633
0.736064
2.00745
3.93571
6.197
8.3186
10.5295
18.0323
55.9589
1.2281
2.87985
5.07338
7.37316
9.0513
9.68538
13.6877
53.0515
1.58571
3.34624
5.59898
8.08364
9.73907
8.8928
8.74252
38.8822
1.66428
3.40141
5.81276
8.84441
10.9047
9.23566
7.77741
21.6362
1.53941
3.14251
5.60751
8.96284
11.179
8.99514
7.39976
14.314
1.2633
2.58427
4.77068
7.95499
10.0313
8.1774
6.82516
13.0006
0.957806
1.95159
3.63038
6.30716
8.32475
7.26491
6.40974
11.2049
0.659961
1.34201
2.50148
4.5324
6.82078
6.69972
6.36044
8.07143
0.396677
0.82151
1.52629
2.93681
5.31329
6.08317
0.198094
0.427465
0.807244
1.64444
3.65356
5.2488
0.086156
0.207775
0.428628
0.897913
2.23254
4.35485
0.0691061
0.211904
0.504357
0.982324
1.85685
3.77268
0.164224
0.511956
1.16633
2.07237
3.1084
4.68489
0.44035
1.20196
2.45994
4.05347
5.72577
0.910986
2.16092
3.9664
5.98743
7.80614
1.43222
2.9961
4.98548
6.98503
8.29186
1.79834
3.42729
5.46407
7.61735
8.67143
1.89613
3.48901
5.67495
8.23471
9.30971
1.77492
3.26533
5.50562
8.26681
9.25532
1.49519
2.76656
4.78428
7.4354
8.35902
1.14447
2.12852
3.77309
6.11985
7.09802
0.790601
1.47547
2.64853
4.64346
6.03396
0.482485
0.923095
1.65976
3.18156
5.05118
0.283067
0.571714
1.0636
2.17578
4.26645
0.253154
0.599938
1.18291
2.14243
4.03187
0.50748
1.21773
2.25101
3.45398
5.07805
1.16403
2.50333
4.22588
5.95734
7.62401
2.15243
4.12864
6.39959
8.46543
10.1255
3.13268
5.40619
7.74711
9.65308
10.4481
3.70462
5.90813
8.22334
10.0594
9.72026
3.77927
5.99252
8.57934
10.631
9.53464
3.57628
5.80873
8.58746
10.8656
9.4227
3.14412
5.1217
7.69027
10.0457
8.86144
2.52741
4.06991
6.21224
8.5434
7.95645
1.91054
2.95175
4.57653
6.92665
7.07046
1.37042
2.02043
3.14381
5.3482
6.56113
0.921435
1.31288
2.04157
3.96961
6.13705
0.549958
0.823813
1.39648
3.00285
5.65537
0.368021
0.715658
1.40013
2.77392
5.34029
0.469996
1.17943
2.27767
3.70035
5.86078
0.979112
2.32881
4.12035
6.00464
7.98198
1.87604
3.93429
6.38318
8.69266
10.6016
0.000129173
5.58389e-05
2.83956e-05
1.93893e-05
1.90977e-05
2.00311e-05
2.10255e-05
2.11668e-05
1.98543e-05
1.64783e-05
1.08491e-05
5.31371e-06
2.13039e-06
2.36565e-06
8.56618e-05
2.15646e-05
5.56589e-06
1.86116e-06
1.21986e-06
1.36277e-06
1.71669e-06
2.05126e-06
2.21956e-06
2.08561e-06
1.53157e-06
7.85957e-07
3.74774e-07
1.8681e-06
0.000158473
4.39181e-05
1.12408e-05
2.58955e-06
5.46388e-07
1.51461e-07
1.1924e-07
1.55563e-07
1.93235e-07
2.05049e-07
1.65888e-07
9.20002e-08
1.32324e-07
2.2329e-06
0.00030892
8.8994e-05
2.25679e-05
4.9681e-06
9.33607e-07
1.49434e-07
2.41025e-08
1.08726e-08
1.31845e-08
1.58011e-08
1.41762e-08
9.85693e-09
8.59497e-08
2.11312e-06
0.000465145
0.000131551
3.23786e-05
6.86286e-06
1.23674e-06
1.86778e-07
2.32633e-08
2.6535e-09
8.36366e-10
9.43346e-10
9.33695e-10
1.33297e-09
5.42479e-08
1.56421e-06
0.000628718
0.000167225
3.86755e-05
7.71294e-06
1.31025e-06
1.86665e-07
2.18522e-08
2.06846e-09
1.84329e-10
5.83234e-11
5.40507e-11
3.12838e-10
2.75243e-08
9.50984e-07
0.000822268
0.000200795
4.27365e-05
7.86421e-06
1.2363e-06
1.63517e-07
1.80098e-08
1.74202e-09
2.3461e-10
8.02305e-11
3.97234e-11
1.45833e-10
1.43432e-08
5.26102e-07
0.00106985
0.000239687
4.68952e-05
7.94888e-06
1.15271e-06
1.42651e-07
1.66494e-08
3.31369e-09
1.66134e-09
9.71224e-10
5.15812e-10
3.19534e-10
7.96067e-09
2.9246e-07
0.00135803
0.000280079
5.0391e-05
7.86234e-06
1.06319e-06
1.4081e-07
3.59265e-08
2.30328e-08
1.72258e-08
1.12754e-08
6.52034e-09
3.50667e-09
6.51777e-09
1.58449e-07
0.00166704
0.000322946
5.43642e-05
7.93685e-06
1.10556e-06
2.89936e-07
2.1762e-07
1.94596e-07
1.5851e-07
1.11842e-07
7.00943e-08
4.08651e-08
2.5834e-08
9.68747e-08
0.00189737
0.000347228
5.56842e-05
8.16277e-06
1.83081e-06
1.38509e-06
1.49265e-06
1.4484e-06
1.25059e-06
9.46087e-07
6.39857e-07
4.06141e-07
2.43166e-07
1.87984e-07
0.00199211
0.000349122
5.56983e-05
1.05782e-05
6.2866e-06
7.67716e-06
9.07601e-06
9.29789e-06
8.4989e-06
6.87903e-06
5.00558e-06
3.42806e-06
2.15104e-06
1.34484e-06
0.00186861
0.000325448
5.93496e-05
2.38333e-05
2.80985e-05
3.86697e-05
4.79977e-05
5.16842e-05
5.0012e-05
4.328e-05
3.38513e-05
2.47823e-05
1.63219e-05
1.02346e-05
0.00185903
0.00036494
0.000101259
8.44277e-05
0.000121416
0.000172572
0.00022198
0.000250454
0.000256876
0.000238469
0.000200934
0.000155699
0.000106998
6.82567e-05
9.85758e-06
3.39133e-06
2.08369e-06
2.06624e-06
2.46199e-06
2.93032e-06
3.39451e-06
3.68972e-06
3.6508e-06
3.15362e-06
2.17395e-06
1.09472e-06
4.23664e-07
2.21216e-07
1.40118e-05
3.39249e-06
8.13747e-07
2.42949e-07
1.60954e-07
2.00418e-07
2.76033e-07
3.50913e-07
3.96642e-07
3.8438e-07
2.90595e-07
1.5442e-07
5.98077e-08
9.07778e-08
3.09372e-05
7.89871e-06
1.83218e-06
3.825e-07
7.40658e-08
2.07035e-08
1.8715e-08
2.62276e-08
3.3855e-08
3.67314e-08
3.01593e-08
1.70324e-08
9.95848e-09
1.07742e-07
6.07934e-05
1.60202e-05
3.70909e-06
7.48002e-07
1.29793e-07
1.94908e-08
3.18498e-09
1.74443e-09
2.28139e-09
2.77768e-09
2.4956e-09
1.54729e-09
4.25335e-09
1.20304e-07
9.3338e-05
2.40991e-05
5.41788e-06
1.05373e-06
1.75527e-07
2.47803e-08
2.9399e-09
3.46283e-10
1.39596e-10
1.6689e-10
1.63883e-10
1.32477e-10
2.83903e-09
1.06919e-07
0.000124458
3.02375e-05
6.40293e-06
1.17509e-06
1.85078e-07
2.47245e-08
2.75649e-09
2.56522e-10
2.65523e-11
1.21401e-11
1.17737e-11
2.33849e-11
1.78966e-09
7.71304e-08
0.000154981
3.46905e-05
6.78653e-06
1.1543e-06
1.68933e-07
2.10405e-08
2.20752e-09
2.04214e-10
2.55078e-11
9.2601e-12
6.02875e-12
1.33038e-11
1.18509e-09
5.21218e-08
0.000187424
3.85268e-05
6.94307e-06
1.09099e-06
1.47851e-07
1.72458e-08
1.86647e-09
3.13442e-10
1.36118e-10
7.45675e-11
3.82817e-11
2.50216e-11
7.63577e-10
3.28077e-08
0.000217523
4.11724e-05
6.84325e-06
9.93453e-07
1.2579e-07
1.54848e-08
3.51511e-09
2.06206e-09
1.44623e-09
8.78256e-10
4.67898e-10
2.31702e-10
6.44748e-10
1.99817e-08
0.000240268
4.25219e-05
6.59534e-06
8.9661e-07
1.17732e-07
3.0031e-08
2.19876e-08
1.87003e-08
1.42985e-08
9.2854e-09
5.30408e-09
2.76922e-09
1.78178e-09
1.24664e-08
0.000243376
4.06985e-05
5.99974e-06
8.23516e-07
1.93005e-07
1.57283e-07
1.65606e-07
1.5203e-07
1.22551e-07
8.47595e-08
5.184e-08
2.91952e-08
1.56495e-08
1.47079e-08
0.000221905
3.57093e-05
5.29364e-06
1.05052e-06
7.71187e-07
9.79461e-07
1.11704e-06
1.07551e-06
9.12025e-07
6.70411e-07
4.37596e-07
2.63953e-07
1.4637e-07
8.35333e-08
0.000178664
2.89005e-05
5.29168e-06
2.86056e-06
3.97379e-06
5.53787e-06
6.59459e-06
6.62952e-06
5.9099e-06
4.60703e-06
3.20088e-06
2.05038e-06
1.18682e-06
6.65563e-07
0.000153958
2.93065e-05
1.02893e-05
1.21269e-05
1.9342e-05
2.77693e-05
3.42241e-05
3.58247e-05
3.36128e-05
2.78183e-05
2.0606e-05
1.39206e-05
8.33336e-06
4.71975e-06
1.00921e-06
2.86317e-07
1.79118e-07
2.13462e-07
2.96212e-07
3.97667e-07
5.06626e-07
5.92491e-07
6.1717e-07
5.51379e-07
3.89874e-07
2.053e-07
7.98957e-08
2.98508e-08
2.19872e-06
4.9572e-07
1.07813e-07
2.89402e-08
1.97561e-08
2.75376e-08
4.13147e-08
5.58164e-08
6.58013e-08
6.55364e-08
5.02814e-08
2.78144e-08
1.05746e-08
5.95011e-09
5.09954e-06
1.20148e-06
2.55218e-07
4.88333e-08
8.81416e-09
2.59963e-09
2.76316e-09
4.15282e-09
5.56514e-09
6.16549e-09
5.09719e-09
2.95515e-09
1.23736e-09
4.69474e-09
1.01102e-05
2.44465e-06
5.19574e-07
9.67363e-08
1.56483e-08
2.22989e-09
3.86384e-10
2.68339e-10
3.75547e-10
4.638e-10
4.16641e-10
2.57077e-10
2.38302e-10
5.71066e-09
1.56183e-05
3.70104e-06
7.65905e-07
1.37897e-07
2.14355e-08
2.85442e-09
3.27219e-10
4.35718e-11
2.46262e-11
3.03991e-11
2.97352e-11
2.14046e-11
1.34854e-10
5.85167e-09
2.03423e-05
4.54963e-06
8.90306e-07
1.51787e-07
2.23688e-08
2.82443e-09
3.0362e-10
3.02665e-11
6.04627e-12
4.70907e-12
4.69433e-12
5.1058e-12
1.07054e-10
5.12792e-09
2.40317e-05
4.97945e-06
9.04765e-07
1.43601e-07
1.97398e-08
2.33239e-09
2.36806e-10
2.36705e-11
5.30973e-12
3.78e-12
3.54224e-12
4.08891e-12
8.86131e-11
4.25778e-09
2.68805e-05
5.14167e-06
8.64762e-07
1.27345e-07
1.62666e-08
1.80252e-09
1.8571e-10
2.94445e-11
1.28734e-11
8.04941e-12
5.48886e-12
4.82869e-12
6.93934e-11
3.08761e-09
2.84876e-05
5.03341e-06
7.83512e-07
1.07009e-07
1.28035e-08
1.4805e-09
3.02763e-10
1.63715e-10
1.08699e-10
6.29683e-11
3.25796e-11
1.68763e-11
6.63307e-11
2.20958e-09
2.83374e-05
4.68163e-06
6.81329e-07
8.7376e-08
1.08791e-08
2.67149e-09
1.88843e-09
1.53238e-09
1.10151e-09
6.64838e-10
3.50145e-10
1.67846e-10
1.29156e-10
1.55853e-09
2.54573e-05
3.9743e-06
5.49802e-07
7.19145e-08
1.7576e-08
1.49657e-08
1.52565e-08
1.33095e-08
1.00232e-08
6.38663e-09
3.56759e-09
1.81019e-09
8.95536e-10
1.33388e-09
2.03952e-05
3.07744e-06
4.32727e-07
9.23325e-08
8.00162e-08
1.02482e-07
1.11737e-07
1.01697e-07
8.0025e-08
5.37821e-08
3.1858e-08
1.71999e-08
8.56367e-09
4.68528e-09
1.42789e-05
2.19794e-06
4.22806e-07
3.05119e-07
4.64993e-07
6.40082e-07
7.22704e-07
6.83466e-07
5.61043e-07
3.96758e-07
2.48281e-07
1.41548e-07
7.30851e-08
3.7226e-08
1.09113e-05
2.10128e-06
9.99178e-07
1.50673e-06
2.52277e-06
3.56049e-06
4.13601e-06
4.05038e-06
3.46706e-06
2.57988e-06
1.70425e-06
1.01793e-06
5.40679e-07
2.76728e-07
1.15103e-07
2.76391e-08
1.50466e-08
1.98403e-08
3.13846e-08
4.70968e-08
6.56132e-08
8.2263e-08
9.01317e-08
8.33101e-08
6.00627e-08
3.28213e-08
1.31507e-08
4.39512e-09
2.976e-07
6.26486e-08
1.25466e-08
3.06673e-09
2.14759e-09
3.31532e-09
5.38088e-09
7.7119e-09
9.48379e-09
9.71301e-09
7.55076e-09
4.28885e-09
1.69518e-09
6.16509e-10
7.05268e-07
1.54899e-07
3.05907e-08
5.44834e-09
9.31223e-10
2.94953e-10
3.61189e-10
5.7625e-10
7.99986e-10
9.05961e-10
7.55114e-10
4.46e-10
1.81498e-10
2.23227e-10
1.40423e-06
3.1523e-07
6.22948e-08
1.08379e-08
1.65479e-09
2.28395e-10
4.5159e-11
3.91408e-11
5.65338e-11
7.0245e-11
6.34931e-11
4.04134e-11
2.35205e-11
2.56398e-10
2.16163e-06
4.76598e-07
9.20121e-08
1.55221e-08
2.27978e-09
2.91682e-10
3.50521e-11
7.64136e-12
6.28055e-12
7.24248e-12
7.13374e-12
5.83543e-12
1.06613e-11
3.06306e-10
2.72618e-06
5.69547e-07
1.04442e-07
1.67495e-08
2.33875e-09
2.84359e-10
3.21592e-11
5.85669e-12
3.6044e-12
3.50411e-12
3.50559e-12
3.50014e-12
9.95405e-12
3.3079e-10
3.0425e-06
5.91702e-07
1.01222e-07
1.51878e-08
1.98753e-09
2.27662e-10
2.50453e-11
5.14225e-12
3.47295e-12
3.34353e-12
3.32807e-12
3.37135e-12
9.69435e-12
3.26856e-10
3.14666e-06
5.67328e-07
9.01863e-08
1.26096e-08
1.53977e-09
1.66486e-10
1.90427e-11
5.27073e-12
3.90921e-12
3.58228e-12
3.42711e-12
3.41442e-12
9.15793e-12
2.78614e-10
3.05036e-06
5.09536e-07
7.52302e-08
9.79615e-09
1.12456e-09
1.26145e-10
2.55445e-11
1.40568e-11
9.91622e-12
6.82034e-12
4.90431e-12
4.04137e-12
9.63317e-12
2.34384e-10
2.74458e-06
4.296e-07
5.9473e-08
7.29745e-09
8.74145e-10
2.07757e-10
1.4136e-10
1.09938e-10
7.53129e-11
4.38469e-11
2.28816e-11
1.18817e-11
1.3133e-11
1.90297e-10
2.20867e-06
3.27403e-07
4.31659e-08
5.46483e-09
1.39514e-09
1.21433e-09
1.1933e-09
9.89054e-10
6.97439e-10
4.14313e-10
2.13863e-10
1.00499e-10
4.9819e-11
1.43916e-10
1.57878e-06
2.27443e-07
3.08891e-08
7.25037e-09
7.12081e-09
9.01665e-09
9.3858e-09
8.06574e-09
5.89926e-09
3.66224e-09
1.9831e-09
9.70559e-10
4.40029e-10
2.58683e-10
9.81821e-07
1.46599e-07
3.094e-08
2.87654e-08
4.58546e-08
6.14087e-08
6.57309e-08
5.83514e-08
4.42361e-08
2.86886e-08
1.63118e-08
8.37319e-09
3.90021e-09
1.83487e-09
6.82942e-07
1.38897e-07
9.13712e-08
1.6111e-07
2.73717e-07
3.73778e-07
4.09078e-07
3.73791e-07
2.93334e-07
1.98491e-07
1.18142e-07
6.31649e-08
3.0163e-08
1.41142e-08
1.20218e-08
2.54338e-09
1.15397e-09
1.60508e-09
2.85603e-09
4.75817e-09
7.21608e-09
9.67768e-09
1.11514e-08
1.06674e-08
7.84473e-09
4.38879e-09
1.81765e-09
6.01128e-10
3.35988e-08
6.6536e-09
1.24602e-09
2.82714e-10
2.03358e-10
3.43462e-10
5.98369e-10
9.0729e-10
1.16416e-09
1.2274e-09
9.68989e-10
5.61289e-10
2.31044e-10
7.81097e-11
8.12094e-08
1.67754e-08
3.11669e-09
5.24983e-10
8.81298e-11
3.18789e-11
4.30369e-11
7.07085e-11
1.00547e-10
1.16155e-10
9.82553e-11
5.9866e-11
2.64393e-11
1.68015e-11
1.62415e-07
3.4223e-08
6.363e-09
1.0478e-09
1.54775e-10
2.32474e-11
7.3723e-12
7.48078e-12
9.80292e-12
1.16264e-11
1.08241e-11
7.96182e-12
5.44845e-12
1.50727e-11
2.48592e-07
5.15695e-08
9.39551e-09
1.50399e-09
2.13284e-10
2.88764e-11
6.05692e-12
3.72448e-12
3.66077e-12
3.79147e-12
3.7781e-12
3.61237e-12
3.76929e-12
1.96052e-11
3.03496e-07
5.9908e-08
1.04156e-08
1.59157e-09
2.15266e-10
2.78843e-11
5.75775e-12
3.51765e-12
3.33147e-12
3.32586e-12
3.32635e-12
3.32219e-12
3.7146e-12
2.41587e-11
3.20952e-07
5.92725e-08
9.66165e-09
1.38886e-09
1.77385e-10
2.23532e-11
5.10262e-12
3.45067e-12
3.31469e-12
3.30473e-12
3.30388e-12
3.3071e-12
3.74491e-12
2.67938e-11
3.08489e-07
5.30898e-08
8.07719e-09
1.08752e-09
1.3087e-10
1.64448e-11
4.52017e-12
3.43489e-12
3.33502e-12
3.31595e-12
3.30811e-12
3.30998e-12
3.77571e-12
2.61152e-11
2.74975e-07
4.40524e-08
6.25529e-09
7.88913e-10
9.04011e-11
1.24112e-11
4.73668e-12
3.90684e-12
3.6504e-12
3.47773e-12
3.3776e-12
3.34029e-12
3.8933e-12
2.5513e-11
2.25401e-07
3.3972e-08
4.5421e-09
5.42505e-10
6.52214e-11
1.66415e-11
1.16867e-11
9.47754e-12
7.25758e-12
5.40361e-12
4.24876e-12
3.69527e-12
4.13237e-12
2.37027e-11
1.64248e-07
2.3531e-08
3.00553e-09
3.73242e-10
9.73522e-11
8.40557e-11
7.98012e-11
6.37617e-11
4.34857e-11
2.56325e-11
1.39157e-11
7.82579e-12
5.64432e-12
1.85406e-11
1.062e-07
1.48586e-08
1.97763e-09
5.00774e-10
5.25801e-10
6.51589e-10
6.49934e-10
5.30306e-10
3.64955e-10
2.12733e-10
1.07937e-10
5.01817e-11
2.28309e-11
1.84041e-11
5.96547e-08
8.77462e-09
2.05798e-09
2.28385e-09
3.69482e-09
4.79319e-09
4.88349e-09
4.08608e-09
2.89059e-09
1.73998e-09
9.10065e-10
4.28052e-10
1.83723e-10
8.34835e-11
3.84462e-08
8.52156e-09
7.41685e-09
1.42573e-08
2.41278e-08
3.17207e-08
3.28284e-08
2.80865e-08
2.04259e-08
1.27234e-08
6.90681e-09
3.35673e-09
1.46009e-09
6.34246e-10
1.09473e-09
2.12927e-10
8.18291e-11
1.14731e-10
2.2422e-10
4.09353e-10
6.70412e-10
9.57351e-10
1.15781e-09
1.14564e-09
8.60327e-10
4.90974e-10
2.09789e-10
7.2621e-11
3.19231e-09
6.01339e-10
1.08481e-10
2.52104e-11
1.91919e-11
3.28184e-11
5.86818e-11
9.22712e-11
1.22545e-10
1.32806e-10
1.07145e-10
6.41438e-11
2.87363e-11
1.16333e-11
7.8691e-09
1.5416e-09
2.73827e-10
4.63375e-11
1.00167e-11
5.71004e-12
7.0227e-12
9.96067e-12
1.32639e-11
1.51558e-11
1.34032e-11
9.37943e-12
5.83511e-12
4.33984e-12
1.57846e-08
3.15071e-09
5.58365e-10
9.01496e-11
1.53734e-11
4.84569e-12
3.64661e-12
3.71191e-12
3.96685e-12
4.17097e-12
4.09353e-12
3.79438e-12
3.51681e-12
3.84605e-12
2.39628e-08
4.72053e-09
8.21127e-10
1.28212e-10
2.0108e-11
5.28209e-12
3.5101e-12
3.33632e-12
3.33645e-12
3.35112e-12
3.35001e-12
3.33264e-12
3.33039e-12
4.11034e-12
2.83246e-08
5.33187e-09
8.88853e-10
1.32959e-10
1.99985e-11
5.18035e-12
3.48389e-12
3.31611e-12
3.30254e-12
3.30243e-12
3.30259e-12
3.30216e-12
3.32303e-12
4.47613e-12
2.84564e-08
5.0376e-09
7.9181e-10
1.12414e-10
1.6588e-11
4.71767e-12
3.43166e-12
3.31085e-12
3.30101e-12
3.30036e-12
3.3004e-12
3.30079e-12
3.32756e-12
4.78925e-12
2.55551e-08
4.23947e-09
6.25467e-10
8.42625e-11
1.25721e-11
4.23407e-12
3.38447e-12
3.30863e-12
3.30205e-12
3.30112e-12
3.30086e-12
3.30133e-12
3.33495e-12
4.95875e-12
2.10861e-08
3.27582e-09
4.54194e-10
5.8468e-11
9.27109e-12
3.90077e-12
3.38202e-12
3.32944e-12
3.3162e-12
3.30834e-12
3.30413e-12
3.30324e-12
3.35072e-12
5.17672e-12
1.58786e-08
2.33309e-09
3.06906e-10
3.85341e-11
7.19881e-12
4.04301e-12
3.72161e-12
3.59664e-12
3.48229e-12
3.39305e-12
3.34064e-12
3.31789e-12
3.37161e-12
5.24567e-12
1.05937e-08
1.48693e-09
1.88542e-10
2.55538e-11
8.67132e-12
7.71211e-12
7.33338e-12
6.35975e-12
5.23794e-12
4.32127e-12
3.7571e-12
3.48407e-12
3.42592e-12
4.81967e-12
6.28146e-09
8.65423e-10
1.16105e-10
3.25435e-11
3.46729e-11
4.12918e-11
3.97643e-11
3.16634e-11
2.17381e-11
1.33612e-11
7.99659e-12
5.25505e-12
4.0753e-12
4.33933e-12
3.23883e-09
4.75391e-10
1.23961e-10
1.52678e-10
2.44933e-10
3.069e-10
2.98997e-10
2.37882e-10
1.59507e-10
9.13066e-11
4.59885e-11
2.17901e-11
1.05598e-11
6.49765e-12
1.95614e-09
4.79567e-10
5.16935e-10
1.03707e-09
1.72862e-09
2.18455e-09
2.14603e-09
1.73e-09
1.17789e-09
6.83919e-10
3.44369e-10
1.5592e-10
6.43806e-11
2.81436e-11
8.74147e-11
1.83015e-11
8.02345e-12
9.97318e-12
1.78872e-11
3.26523e-11
5.52496e-11
8.2203e-11
1.03329e-10
1.05518e-10
8.14625e-11
4.83545e-11
2.2686e-11
9.94225e-12
2.5702e-10
4.85786e-11
1.08392e-11
4.76224e-12
4.37e-12
5.46135e-12
7.63301e-12
1.06419e-11
1.35567e-11
1.47645e-11
1.26423e-11
8.8319e-12
5.65043e-12
4.07959e-12
6.41319e-10
1.21948e-10
2.31624e-11
6.31297e-12
3.75046e-12
3.47028e-12
3.59093e-12
3.84933e-12
4.15268e-12
4.34081e-12
4.19875e-12
3.84461e-12
3.52967e-12
3.38139e-12
1.28869e-09
2.47133e-10
4.43065e-11
9.44048e-12
4.11909e-12
3.40004e-12
3.32288e-12
3.33177e-12
3.35505e-12
3.37429e-12
3.36835e-12
3.34232e-12
3.31763e-12
3.32325e-12
1.93631e-09
3.66389e-10
6.3509e-11
1.21304e-11
4.44489e-12
3.42907e-12
3.3115e-12
3.30056e-12
3.30108e-12
3.3026e-12
3.30271e-12
3.30142e-12
3.30073e-12
3.33425e-12
2.21654e-09
4.0228e-10
6.69993e-11
1.22933e-11
4.42051e-12
3.42115e-12
3.30987e-12
3.29919e-12
3.29844e-12
3.29861e-12
3.29879e-12
3.29898e-12
3.30015e-12
3.35624e-12
2.1207e-09
3.64118e-10
5.78812e-11
1.0618e-11
4.16583e-12
3.38888e-12
3.30669e-12
3.29918e-12
3.29866e-12
3.29878e-12
3.29895e-12
3.2992e-12
3.30086e-12
3.38077e-12
1.78933e-09
2.90033e-10
4.41796e-11
8.47835e-12
3.87862e-12
3.35612e-12
3.30393e-12
3.29943e-12
3.29914e-12
3.29926e-12
3.29941e-12
3.29968e-12
3.30206e-12
3.40469e-12
1.37715e-09
2.11027e-10
3.12329e-11
6.64304e-12
3.65423e-12
3.33388e-12
3.30346e-12
3.30064e-12
3.30017e-12
3.30004e-12
3.30007e-12
3.30033e-12
3.3041e-12
3.43798e-12
9.62493e-10
1.41143e-10
2.0916e-11
5.30662e-12
3.51459e-12
3.33546e-12
3.31758e-12
3.31183e-12
3.30713e-12
3.30375e-12
3.30197e-12
3.30149e-12
3.30654e-12
3.46055e-12
5.95628e-10
8.4925e-11
1.33296e-11
4.47535e-12
3.56066e-12
3.49998e-12
3.47658e-12
3.42935e-12
3.37897e-12
3.3403e-12
3.3179e-12
3.30794e-12
3.30902e-12
3.43392e-12
3.29437e-10
4.74938e-11
8.99957e-12
4.76306e-12
4.85543e-12
5.1357e-12
5.00158e-12
4.56976e-12
4.08812e-12
3.70915e-12
3.4812e-12
3.37224e-12
3.33026e-12
3.38001e-12
1.59853e-10
2.59824e-11
9.44662e-12
1.14031e-11
1.62996e-11
1.91268e-11
1.80911e-11
1.44841e-11
1.0364e-11
7.05867e-12
5.01165e-12
3.99422e-12
3.55703e-12
3.42431e-12
9.24807e-11
2.7064e-11
3.32859e-11
6.50981e-11
1.04544e-10
1.26418e-10
1.18505e-10
9.11859e-11
5.96289e-11
3.39329e-11
1.76245e-11
9.26754e-12
5.52621e-12
4.16714e-12
8.76315e-12
4.20922e-12
3.54057e-12
3.63763e-12
4.11846e-12
5.10022e-12
6.7209e-12
8.80037e-12
1.05873e-11
1.09772e-11
9.27402e-12
6.77519e-12
4.80937e-12
3.82264e-12
2.02565e-11
6.17872e-12
3.74927e-12
3.37573e-12
3.35443e-12
3.42773e-12
3.58037e-12
3.80473e-12
4.03653e-12
4.14742e-12
4.00061e-12
3.71636e-12
3.47625e-12
3.3562e-12
4.67191e-11
1.09924e-11
4.52346e-12
3.47173e-12
3.31909e-12
3.30399e-12
3.31326e-12
3.33247e-12
3.35595e-12
3.37164e-12
3.36231e-12
3.33632e-12
3.31302e-12
3.30167e-12
9.12294e-11
1.92036e-11
5.85215e-12
3.66141e-12
3.3411e-12
3.29969e-12
3.29574e-12
3.2968e-12
3.29883e-12
3.30061e-12
3.3005e-12
3.29886e-12
3.29727e-12
3.29718e-12
1.34174e-10
2.68144e-11
7.03497e-12
3.82241e-12
3.36054e-12
3.30179e-12
3.29541e-12
3.29506e-12
3.29536e-12
3.29574e-12
3.29601e-12
3.29619e-12
3.29637e-12
3.29785e-12
1.48509e-10
2.84488e-11
7.16286e-12
3.82261e-12
3.35868e-12
3.30178e-12
3.2958e-12
3.29544e-12
3.29562e-12
3.29589e-12
3.29614e-12
3.29643e-12
3.29673e-12
3.29931e-12
1.35871e-10
2.51158e-11
6.49108e-12
3.71138e-12
3.34339e-12
3.3004e-12
3.29613e-12
3.29594e-12
3.29612e-12
3.29637e-12
3.29661e-12
3.29689e-12
3.29722e-12
3.30122e-12
1.08815e-10
1.97399e-11
5.57755e-12
3.57786e-12
3.32683e-12
3.29909e-12
3.29653e-12
3.2965e-12
3.29669e-12
3.29693e-12
3.29716e-12
3.29742e-12
3.29781e-12
3.30366e-12
7.94394e-11
1.45348e-11
4.77518e-12
3.46998e-12
3.31465e-12
3.29842e-12
3.29707e-12
3.29713e-12
3.29731e-12
3.29754e-12
3.29776e-12
3.29803e-12
3.29852e-12
3.30721e-12
5.29901e-11
1.03041e-11
4.17745e-12
3.39577e-12
3.30747e-12
3.29884e-12
3.29816e-12
3.29813e-12
3.29818e-12
3.29829e-12
3.29846e-12
3.29871e-12
3.29934e-12
3.31036e-12
3.1972e-11
7.19263e-12
3.76985e-12
3.35174e-12
3.30863e-12
3.30556e-12
3.30462e-12
3.30295e-12
3.3013e-12
3.30017e-12
3.29965e-12
3.29961e-12
3.30014e-12
3.30977e-12
1.81213e-11
5.28358e-12
3.55038e-12
3.36042e-12
3.36236e-12
3.37207e-12
3.36479e-12
3.34647e-12
3.32752e-12
3.31356e-12
3.30569e-12
3.30231e-12
3.30138e-12
3.30627e-12
1.00017e-11
4.26103e-12
3.56682e-12
3.66291e-12
3.876e-12
3.98088e-12
3.91306e-12
3.74402e-12
3.56762e-12
3.43563e-12
3.35882e-12
3.32309e-12
3.30888e-12
3.3061e-12
6.9284e-12
4.33749e-12
4.76414e-12
6.35032e-12
8.19551e-12
9.03335e-12
8.42879e-12
7.02208e-12
5.5612e-12
4.4629e-12
3.81238e-12
3.50126e-12
3.3717e-12
3.32858e-12
3.58856e-12
3.33406e-12
3.29771e-12
3.30212e-12
3.3272e-12
3.38252e-12
3.48017e-12
3.61381e-12
3.73773e-12
3.77565e-12
3.67402e-12
3.51478e-12
3.3881e-12
3.32425e-12
4.24924e-12
3.44291e-12
3.31043e-12
3.29122e-12
3.2905e-12
3.29491e-12
3.3042e-12
3.31847e-12
3.33405e-12
3.34248e-12
3.33417e-12
3.31648e-12
3.30139e-12
3.29392e-12
5.79128e-12
3.71103e-12
3.35226e-12
3.29684e-12
3.28936e-12
3.28892e-12
3.28976e-12
3.2912e-12
3.29298e-12
3.29431e-12
3.29405e-12
3.29267e-12
3.29142e-12
3.29092e-12
8.37776e-12
4.16727e-12
3.42353e-12
3.30716e-12
3.29105e-12
3.28926e-12
3.28934e-12
3.28967e-12
3.29007e-12
3.29046e-12
3.29072e-12
3.29087e-12
3.291e-12
3.29118e-12
1.07732e-11
4.57652e-12
3.48543e-12
3.31587e-12
3.29262e-12
3.28996e-12
3.28991e-12
3.29014e-12
3.29041e-12
3.29069e-12
3.29097e-12
3.29123e-12
3.29147e-12
3.29174e-12
1.13312e-11
4.62863e-12
3.48798e-12
3.31597e-12
3.29309e-12
3.29057e-12
3.29052e-12
3.29075e-12
3.291e-12
3.29127e-12
3.29153e-12
3.29179e-12
3.29203e-12
3.29234e-12
1.03033e-11
4.40518e-12
3.44838e-12
3.31045e-12
3.29292e-12
3.29112e-12
3.29114e-12
3.29137e-12
3.29161e-12
3.29186e-12
3.29211e-12
3.29236e-12
3.29259e-12
3.29297e-12
8.57226e-12
4.08963e-12
3.39882e-12
3.30413e-12
3.29272e-12
3.29168e-12
3.29179e-12
3.29201e-12
3.29225e-12
3.29249e-12
3.29272e-12
3.29296e-12
3.29319e-12
3.29367e-12
6.88263e-12
3.80858e-12
3.35818e-12
3.29946e-12
3.29278e-12
3.29229e-12
3.29244e-12