/*--------------------------------*- C++ -*----------------------------------*\
| =========                 |                                                 |
| \\      /  F ield         | OpenFOAM: The Open Source CFD Toolbox           |
|  \\    /   O peration     | Version:  v2106                                 |
|   \\  /    A nd           | Website:  www.openfoam.com                      |
|    \\/     M anipulation  |                                                 |
\*---------------------------------------------------------------------------*/
FoamFile
{
    version     2.0;
    format      ascii;
    arch        "LSB;label=32;scalar=64";
    class       volScalarField;
    location    "0.000137";
    object      nut;
}
// * * * * * * * * * * * * * * * * * * * * * * * * * * * * * * * * * * * * * //

dimensions      [0 2 -1 0 0 0 0];

internalField   nonuniform List<scalar> 
18109
(
9.28624e-08
5.56358e-08
3.69927e-08
2.0851e-08
1.40654e-08
1.11757e-08
9.83723e-09
2.61699e-08
1.01789e-08
4.56423e-09
1.82753e-09
1.15038e-09
1.04294e-09
1.09689e-09
2.6037e-08
8.73264e-09
2.87294e-09
9.06981e-10
2.77865e-10
1.14493e-10
9.71303e-11
4.86277e-08
1.81761e-08
6.19963e-09
1.82819e-09
4.56618e-10
9.63133e-11
2.03911e-11
7.45429e-08
2.77333e-08
9.01349e-09
2.52857e-09
6.00184e-10
1.18077e-10
1.87882e-11
9.74468e-08
3.42243e-08
1.05125e-08
2.78767e-09
6.27065e-10
1.16996e-10
1.75225e-11
1.25364e-07
4.08121e-08
1.15978e-08
2.84372e-09
5.92666e-10
1.02655e-10
1.45357e-11
1.63016e-07
4.92608e-08
1.29822e-08
2.94938e-09
5.70446e-10
9.31577e-11
1.44913e-11
1.36793e-08
6.9584e-09
4.05134e-09
2.26025e-09
1.83856e-09
1.72776e-09
1.68615e-09
1.61816e-09
1.48964e-09
1.22975e-09
8.0555e-10
3.99833e-10
1.7646e-10
3.75984e-10
6.01633e-09
1.77663e-09
5.43721e-10
1.98196e-10
1.30259e-10
1.33056e-10
1.54555e-10
1.76064e-10
1.87565e-10
1.77524e-10
1.29646e-10
6.73434e-11
4.53115e-11
3.50871e-10
8.55751e-09
2.62677e-09
7.83984e-10
2.13221e-10
5.26568e-11
1.59925e-11
1.18878e-11
1.47641e-11
1.81476e-11
1.95778e-11
1.59179e-11
9.24528e-12
2.71795e-11
3.78874e-10
1.60798e-08
5.36365e-09
1.57607e-09
4.00672e-10
8.63546e-11
1.56613e-11
2.73645e-12
1.1555e-12
1.35391e-12
1.66628e-12
1.53708e-12
1.42947e-12
1.92221e-11
3.23961e-10
2.31901e-08
7.56796e-09
2.14812e-09
5.23807e-10
1.07832e-10
1.84277e-11
2.55537e-12
3.11545e-13
9.3142e-14
1.06695e-13
1.11952e-13
3.80753e-13
1.20429e-11
2.24548e-10
2.9787e-08
9.16618e-09
2.44842e-09
5.61991e-10
1.09107e-10
1.75987e-11
2.29678e-12
2.36726e-13
2.19827e-14
6.82712e-15
6.77006e-15
1.06762e-13
6.23241e-12
1.33226e-10
3.78531e-08
1.07462e-08
2.65113e-09
5.62943e-10
1.01387e-10
1.52168e-11
1.88217e-12
2.06447e-13
3.39393e-14
1.32191e-14
6.64451e-15
3.98812e-14
2.74909e-12
7.00217e-11
4.85417e-08
1.27307e-08
2.90718e-09
5.72556e-10
9.59211e-11
1.36169e-11
1.86145e-12
4.51983e-13
2.47354e-13
1.51562e-13
8.49259e-14
6.15308e-14
1.46659e-12
3.82165e-11
6.169e-08
1.5035e-08
3.1811e-09
5.80397e-10
9.14565e-11
1.43891e-11
4.34561e-12
2.93679e-12
2.24261e-12
1.53713e-12
9.47863e-13
5.61963e-13
1.10303e-12
2.09901e-11
7.76947e-08
1.79862e-08
3.60006e-09
6.22172e-10
1.03092e-10
3.10316e-11
2.35456e-11
2.12817e-11
1.76729e-11
1.31162e-11
8.81315e-12
5.68096e-12
3.95965e-12
1.27334e-11
9.23516e-08
2.0431e-08
3.93007e-09
6.88104e-10
1.75655e-10
1.30527e-10
1.36717e-10
1.34298e-10
1.1834e-10
9.44839e-11
6.87267e-11
4.83653e-11
3.2422e-11
2.63609e-11
1.03257e-07
2.21591e-08
4.27839e-09
9.34088e-10
5.34583e-10
6.09568e-10
6.99979e-10
7.27656e-10
6.78985e-10
5.81144e-10
4.55791e-10
3.46088e-10
2.43299e-10
1.7125e-10
1.06877e-07
2.27387e-08
4.8798e-09
1.90566e-09
2.0127e-09
2.58873e-09
3.11179e-09
3.40003e-09
3.35605e-09
3.07515e-09
2.59703e-09
2.10126e-09
1.54942e-09
1.09834e-09
1.16956e-07
2.72008e-08
7.89259e-09
5.68089e-09
7.36243e-09
9.76232e-09
1.21012e-08
1.38035e-08
1.4418e-08
1.41868e-08
1.29078e-08
1.10024e-08
8.47265e-09
6.13664e-09
4.31345e-07
1.35622e-06
3.29989e-06
6.45951e-06
1.06163e-05
1.50697e-05
7.6842e-08
3.20993e-07
1.02042e-06
2.50853e-06
5.04891e-06
8.49337e-06
7.08894e-08
3.524e-07
1.22724e-06
3.16576e-06
6.40104e-06
1.05644e-05
5.7236e-08
3.31208e-07
1.24282e-06
3.3232e-06
6.76834e-06
1.11344e-05
3.78323e-08
2.69091e-07
1.10164e-06
3.07436e-06
6.40838e-06
1.0697e-05
2.49892e-08
1.8478e-07
8.38967e-07
2.51147e-06
5.50516e-06
9.49592e-06
1.91227e-08
1.34849e-07
6.20548e-07
1.92482e-06
4.37741e-06
7.82017e-06
1.55611e-08
1.00467e-07
4.51899e-07
1.42082e-06
3.31202e-06
6.07265e-06
1.25587e-08
7.31497e-08
3.14839e-07
9.87034e-07
2.33665e-06
4.35639e-06
9.69221e-09
5.0264e-08
2.03359e-07
6.23873e-07
1.47956e-06
2.82194e-06
6.46123e-09
2.95709e-08
1.13171e-07
3.45507e-07
8.41367e-07
1.66475e-06
3.55339e-09
1.47722e-08
5.50038e-08
1.69162e-07
4.25451e-07
8.69617e-07
1.54042e-09
6.11782e-09
2.35737e-08
7.54475e-08
2.00249e-07
4.27602e-07
5.77186e-10
2.62263e-09
1.13359e-08
4.03989e-08
1.2302e-07
3.1675e-07
5.25665e-10
2.89931e-09
1.49208e-08
6.45876e-08
2.31775e-07
6.76163e-07
2.87539e-09
1.36668e-08
5.82886e-08
2.1345e-07
6.5299e-07
1.65115e-06
3.51836e-09
2.10336e-08
1.01816e-07
3.97879e-07
1.2335e-06
3.00351e-06
4.12177e-09
2.8776e-08
1.51643e-07
6.04301e-07
1.81997e-06
4.21984e-06
3.81596e-09
3.03846e-08
1.71356e-07
6.98345e-07
2.08751e-06
4.73658e-06
2.79295e-09
2.49044e-08
1.51739e-07
6.48161e-07
1.98393e-06
4.55409e-06
1.72732e-09
1.68584e-08
1.11227e-07
5.0521e-07
1.62282e-06
3.87634e-06
9.70859e-10
9.94594e-09
7.11321e-08
3.59632e-07
1.23317e-06
3.05259e-06
5.83331e-10
6.25397e-09
4.66914e-08
2.37892e-07
8.36863e-07
2.13759e-06
3.39107e-10
3.59889e-09
2.66456e-08
1.36027e-07
4.90201e-07
1.2918e-06
1.73835e-10
1.77065e-09
1.24609e-08
6.32775e-08
2.3761e-07
6.54875e-07
9.91597e-11
9.01178e-10
5.88984e-09
2.82773e-08
1.04797e-07
2.92648e-07
2.00178e-10
1.03821e-09
5.09367e-09
2.09874e-08
7.0761e-08
1.90544e-07
1.11644e-09
4.30408e-09
1.58349e-08
5.24717e-08
1.51964e-07
3.82156e-07
6.24805e-09
2.12212e-08
6.77529e-08
1.96395e-07
5.01035e-07
1.1175e-06
3.03308e-08
8.76191e-08
2.36795e-07
5.82425e-07
1.28745e-06
2.53505e-06
4.04573e-08
1.30618e-07
3.78961e-07
9.74764e-07
2.18507e-06
4.21882e-06
5.02938e-08
1.74584e-07
5.29311e-07
1.37813e-06
3.04085e-06
5.67186e-06
5.60589e-08
2.02091e-07
6.21502e-07
1.60723e-06
3.47675e-06
6.32278e-06
5.73687e-08
2.0706e-07
6.33583e-07
1.62116e-06
3.46362e-06
6.23632e-06
5.41741e-08
1.90453e-07
5.73392e-07
1.45536e-06
3.10583e-06
5.59393e-06
4.89267e-08
1.64568e-07
4.78513e-07
1.19255e-06
2.53463e-06
4.58169e-06
4.14139e-08
1.33579e-07
3.73773e-07
9.05424e-07
1.89623e-06
3.42151e-06
3.28479e-08
1.01112e-07
2.70638e-07
6.31946e-07
1.28493e-06
2.26097e-06
2.47371e-08
7.22439e-08
1.83037e-07
4.06851e-07
7.89481e-07
1.33323e-06
1.83026e-08
5.10322e-08
1.24459e-07
2.67548e-07
5.11347e-07
8.83593e-07
1.80647e-08
5.13058e-08
1.33861e-07
3.16453e-07
6.82484e-07
1.3443e-06
4.38891e-08
1.2999e-07
3.50047e-07
8.2596e-07
1.72598e-06
3.19947e-06
1.92994e-07
4.83007e-07
1.09983e-06
2.22447e-06
4.03377e-06
6.54314e-06
1.2717e-07
2.80276e-07
5.76769e-07
1.09227e-06
1.85475e-06
2.73931e-06
7.68873e-08
1.81217e-07
4.0358e-07
8.57343e-07
1.71833e-06
3.1517e-06
7.57908e-08
2.14818e-07
5.93447e-07
1.50377e-06
3.27012e-06
5.97358e-06
2.39443e-07
6.86594e-07
1.73278e-06
3.6992e-06
6.76106e-06
1.0602e-05
4.36399e-07
1.07675e-06
2.31168e-06
4.29272e-06
7.06521e-06
1.03612e-05
4.57709e-07
1.22728e-06
2.76544e-06
5.26035e-06
8.63828e-06
1.2521e-05
4.31864e-07
1.22528e-06
2.84673e-06
5.49869e-06
9.04947e-06
1.30643e-05
3.69156e-07
1.09641e-06
2.62626e-06
5.17258e-06
8.62781e-06
1.25364e-05
2.93784e-07
8.94413e-07
2.2037e-06
4.46486e-06
7.6302e-06
1.12885e-05
2.1989e-07
6.74784e-07
1.70192e-06
3.55707e-06
6.28057e-06
9.57042e-06
1.60387e-07
4.83616e-07
1.23208e-06
2.6591e-06
4.9421e-06
7.74594e-06
1.15567e-07
3.34035e-07
8.483e-07
1.92893e-06
3.6456e-06
5.8421e-06
8.48009e-08
2.31598e-07
5.76763e-07
1.30633e-06
2.5219e-06
4.15278e-06
6.37858e-08
1.6375e-07
3.87887e-07
8.57478e-07
1.64762e-06
2.67108e-06
4.60255e-08
1.12899e-07
2.57482e-07
5.41713e-07
1.02319e-06
1.61422e-06
2.75401e-08
6.86302e-08
1.59768e-07
3.43427e-07
6.86362e-07
1.2761e-06
2.07239e-08
5.64251e-08
1.56203e-07
4.24383e-07
1.06201e-06
2.32536e-06
4.45613e-08
1.47951e-07
4.52615e-07
1.18361e-06
2.63788e-06
4.99989e-06
1.24178e-05
2.14298e-05
2.93402e-05
3.41202e-05
3.52311e-05
1.51299e-05
2.36288e-05
3.04108e-05
3.37619e-05
3.1135e-05
1.57771e-05
2.38483e-05
3.06289e-05
3.39226e-05
2.89487e-05
1.52628e-05
2.31552e-05
3.02826e-05
3.34018e-05
2.73979e-05
1.38383e-05
2.0988e-05
2.73423e-05
2.98083e-05
2.45473e-05
1.18499e-05
1.73695e-05
2.25165e-05
2.46484e-05
2.0966e-05
9.41737e-06
1.33907e-05
1.73453e-05
1.94598e-05
1.77016e-05
6.94353e-06
9.78501e-06
1.26544e-05
1.47717e-05
1.53401e-05
1.46061e-05
4.78475e-06
6.76097e-06
8.74132e-06
1.06178e-05
1.31877e-05
1.43233e-05
2.98828e-06
4.29072e-06
5.64686e-06
7.1189e-06
1.08934e-05
1.37799e-05
1.60389e-06
2.40215e-06
3.38156e-06
4.75253e-06
8.66072e-06
1.34635e-05
1.60484e-05
7.87682e-07
1.47257e-06
2.76864e-06
4.78214e-06
8.1716e-06
1.41233e-05
2.05013e-05
1.63029e-05
7.25694e-07
2.19446e-06
4.9881e-06
8.7212e-06
1.28513e-05
1.88451e-05
3.52702e-05
4.75104e-05
1.61246e-06
4.88156e-06
1.01855e-05
1.64037e-05
2.23205e-05
2.87581e-05
4.90806e-05
0.000116724
3.4882e-06
9.03106e-06
1.65385e-05
2.39369e-05
2.95984e-05
3.51068e-05
5.53148e-05
0.000145222
5.85943e-06
1.29783e-05
2.10715e-05
2.75585e-05
3.04902e-05
3.06615e-05
4.01629e-05
0.000140961
7.76628e-06
1.53283e-05
2.31067e-05
2.89735e-05
3.03155e-05
2.58409e-05
2.52825e-05
7.45178e-05
8.4749e-06
1.59829e-05
2.3803e-05
3.02137e-05
3.12533e-05
2.42792e-05
2.13363e-05
8.19207e-05
8.22985e-06
1.53477e-05
2.31009e-05
2.96661e-05
3.02256e-05
2.22432e-05
1.94832e-05
8.45796e-05
7.19523e-06
1.34488e-05
2.04356e-05
2.63662e-05
2.6481e-05
1.96185e-05
1.78184e-05
7.08034e-05
5.83667e-06
1.08802e-05
1.65761e-05
2.15378e-05
2.18582e-05
1.71547e-05
1.63513e-05
2.83786e-05
4.28462e-06
8.0239e-06
1.2358e-05
1.6347e-05
1.77051e-05
1.53967e-05
1.58841e-05
2.61267e-05
2.73836e-06
5.28198e-06
8.32285e-06
1.14334e-05
1.37367e-05
1.38292e-05
1.45513e-06
2.9675e-06
4.92838e-06
7.19116e-06
9.83797e-06
1.22882e-05
6.46504e-07
1.44835e-06
2.70319e-06
4.38216e-06
6.9071e-06
1.11061e-05
4.19361e-07
1.16663e-06
2.56347e-06
4.56772e-06
7.2256e-06
1.17229e-05
8.42014e-07
2.48042e-06
5.35064e-06
8.99202e-06
1.2781e-05
1.78269e-05
2.17751e-06
5.63795e-06
1.08696e-05
1.67473e-05
2.21944e-05
4.46299e-06
1.00084e-05
1.71087e-05
2.38112e-05
2.8737e-05
7.07221e-06
1.39103e-05
2.12845e-05
2.69483e-05
2.90976e-05
9.06325e-06
1.61107e-05
2.30652e-05
2.80769e-05
2.82743e-05
9.87482e-06
1.6656e-05
2.3554e-05
2.8811e-05
2.80654e-05
9.62773e-06
1.5966e-05
2.27398e-05
2.79586e-05
2.63883e-05
8.55163e-06
1.41379e-05
2.02246e-05
2.49899e-05
2.31539e-05
6.9667e-06
1.16005e-05
1.67128e-05
2.08302e-05
1.94727e-05
5.13174e-06
8.71207e-06
1.26712e-05
1.62115e-05
1.6398e-05
3.29997e-06
5.8322e-06
8.71256e-06
1.15628e-05
1.3888e-05
1.93043e-06
3.5629e-06
5.6992e-06
8.41684e-06
1.25478e-05
1.43074e-06
3.08032e-06
5.5519e-06
8.76369e-06
1.36097e-05
2.42609e-06
5.50394e-06
9.64583e-06
1.40349e-05
1.90872e-05
5.30565e-06
1.08365e-05
1.72751e-05
2.31076e-05
2.8306e-05
9.62049e-06
1.7359e-05
2.50691e-05
3.1012e-05
3.51847e-05
1.38767e-05
2.22853e-05
2.92918e-05
3.34966e-05
3.43274e-05
1.65377e-05
2.41379e-05
3.00346e-05
3.28199e-05
3.00093e-05
1.71041e-05
2.41982e-05
3.00743e-05
3.25355e-05
2.72768e-05
1.64805e-05
2.33618e-05
2.93675e-05
3.17837e-05
2.52852e-05
1.49823e-05
2.10941e-05
2.64898e-05
2.87666e-05
2.28774e-05
1.274e-05
1.77207e-05
2.21966e-05
2.4412e-05
2.02944e-05
1.02813e-05
1.39516e-05
1.74766e-05
1.99605e-05
1.81272e-05
7.89531e-06
1.04926e-05
1.31207e-05
1.57241e-05
1.68671e-05
5.65049e-06
7.44397e-06
9.38328e-06
1.20787e-05
1.61167e-05
3.52181e-06
4.83679e-06
6.54128e-06
9.77472e-06
1.58166e-05
2.19186e-06
3.68845e-06
6.16138e-06
1.00788e-05
1.67963e-05
2.29594e-06
5.30556e-06
9.59876e-06
1.45095e-05
2.09622e-05
4.3905e-06
9.93255e-06
1.66294e-05
2.29218e-05
2.89957e-05
8.17026e-06
1.62177e-05
2.45246e-05
3.11121e-05
3.58282e-05
8.90493e-10
3.72664e-10
1.92259e-10
1.37304e-10
1.41409e-10
1.55213e-10
1.70628e-10
1.80124e-10
1.77648e-10
1.56156e-10
1.09355e-10
5.66234e-11
2.33099e-11
1.94362e-11
8.25849e-10
2.12361e-10
5.5053e-11
1.692e-11
1.00385e-11
1.11844e-11
1.45965e-11
1.82022e-11
2.0651e-11
2.05433e-11
1.60274e-11
8.67408e-12
3.68532e-12
1.23872e-11
1.54625e-09
4.39348e-10
1.14845e-10
2.69023e-11
5.67162e-12
1.45976e-12
1.07503e-12
1.43475e-12
1.86241e-12
2.09301e-12
1.7983e-12
1.03452e-12
9.95429e-13
1.47137e-11
2.86817e-09
8.47216e-10
2.19801e-10
4.94174e-11
9.4706e-12
1.54043e-12
2.45873e-13
1.05659e-13
1.31361e-13
1.6667e-13
1.58665e-13
1.04957e-13
6.117e-13
1.44311e-11
4.0783e-09
1.18339e-09
2.98278e-10
6.46333e-11
1.18911e-11
1.8312e-12
2.32295e-13
2.6858e-14
8.59633e-15
1.02535e-14
1.07552e-14
1.20385e-14
4.01767e-13
1.1254e-11
5.19833e-09
1.41876e-09
3.36154e-10
6.85559e-11
1.18926e-11
1.72796e-12
2.06121e-13
1.98659e-14
1.81155e-15
6.23886e-16
6.22643e-16
2.61714e-15
2.17049e-13
7.29894e-12
6.44371e-09
1.61646e-09
3.5286e-10
6.6469e-11
1.06796e-11
1.44171e-12
1.6189e-13
1.58648e-14
2.06587e-15
6.67059e-16
3.26739e-16
1.2553e-15
1.21162e-13
4.33217e-12
7.97258e-09
1.83741e-09
3.69238e-10
6.41603e-11
9.52397e-12
1.20609e-12
1.44239e-13
2.86358e-14
1.37496e-14
7.76055e-15
4.01092e-15
2.55274e-15
7.26003e-14
2.58907e-12
9.6619e-09
2.05308e-09
3.79969e-10
6.08864e-11
8.46248e-12
1.16774e-12
3.11341e-13
1.94654e-13
1.39967e-13
8.85871e-14
4.97865e-14
2.62783e-14
5.95901e-14
1.51907e-12
1.13648e-08
2.2721e-09
3.94054e-10
5.93017e-11
8.68492e-12
2.51062e-12
1.8906e-12
1.62035e-12
1.26751e-12
8.63895e-13
5.25754e-13
2.99195e-13
1.93962e-13
9.54485e-13
1.24515e-08
2.35585e-09
3.90289e-10
5.99791e-11
1.53311e-11
1.23785e-11
1.28175e-11
1.18714e-11
9.83012e-12
7.17398e-12
4.70713e-12
2.91389e-12
1.72034e-12
1.4406e-12
1.26435e-08
2.29703e-09
3.82423e-10
8.1618e-11
5.68929e-11
6.82899e-11
7.67514e-11
7.4916e-11
6.55728e-11
5.1118e-11
3.60445e-11
2.40672e-11
1.48549e-11
9.27322e-12
1.15417e-08
2.09638e-09
4.16485e-10
2.07333e-10
2.58374e-10
3.39214e-10
3.99057e-10
4.08788e-10
3.78114e-10
3.14536e-10
2.38039e-10
1.69883e-10
1.10078e-10
6.85017e-11
1.12352e-08
2.33988e-09
7.76172e-10
7.78235e-10
1.10549e-09
1.48847e-09
1.81162e-09
1.94155e-09
1.89981e-09
1.69141e-09
1.37672e-09
1.03963e-09
7.02966e-10
4.44718e-10
8.34745e-11
2.63341e-11
1.51496e-11
1.5163e-11
1.87601e-11
2.33259e-11
2.82639e-11
3.21858e-11
3.34696e-11
3.0617e-11
2.24186e-11
1.19669e-11
4.85555e-12
2.28293e-12
1.46683e-10
3.61856e-11
8.60544e-12
2.32484e-12
1.35607e-12
1.67897e-12
2.39552e-12
3.17691e-12
3.76468e-12
3.86404e-12
3.10075e-12
1.74335e-12
6.85911e-13
6.7188e-13
3.12859e-10
8.1612e-11
1.92901e-11
4.08869e-12
7.88736e-13
2.01728e-13
1.70972e-13
2.45922e-13
3.31924e-13
3.81673e-13
3.32648e-13
1.97942e-13
9.38305e-14
7.36505e-13
5.83307e-10
1.57218e-10
3.71625e-11
7.64026e-12
1.34996e-12
2.05591e-13
3.29244e-14
1.71349e-14
2.30696e-14
2.97662e-14
2.83801e-14
1.8188e-14
3.23049e-14
8.46031e-13
8.44427e-10
2.23144e-10
5.12682e-11
1.01759e-11
1.72801e-12
2.48447e-13
2.99822e-14
3.56768e-15
1.4565e-15
1.84046e-15
1.91504e-15
1.4525e-15
2.15933e-14
7.88905e-13
1.06077e-09
2.63764e-10
5.70908e-11
1.0695e-11
1.71752e-12
2.33712e-13
2.65246e-14
2.51446e-15
2.69869e-16
1.34038e-16
1.36862e-16
2.17253e-16
1.43954e-14
6.04365e-13
1.25221e-09
2.87154e-10
5.7479e-11
9.9886e-12
1.49169e-12
1.8938e-13
2.02378e-14
1.90165e-15
2.36299e-16
8.57772e-17
5.85344e-17
1.23092e-16
1.01641e-14
4.35871e-13
1.44091e-09
3.03874e-10
5.61121e-11
9.02123e-12
1.24928e-12
1.48852e-13
1.64661e-14
2.76178e-15
1.15084e-15
6.12085e-16
3.09973e-16
2.14013e-16
7.1024e-15
2.94847e-13
1.5982e-09
3.1083e-10
5.30181e-11
7.88873e-12
1.02435e-12
1.30779e-13
3.08881e-14
1.76825e-14
1.19369e-14
7.02196e-15
3.6443e-15
1.7846e-15
6.26795e-15
1.95218e-13
1.69423e-09
3.08568e-10
4.91916e-11
6.87846e-12
9.47147e-13
2.64915e-13
1.93804e-13
1.58045e-13
1.16192e-13
7.30076e-14
4.05619e-14
2.0715e-14
1.42478e-14
1.29924e-13
1.65469e-09
2.85229e-10
4.33324e-11
6.2364e-12
1.67406e-12
1.43148e-12
1.44369e-12
1.26586e-12
9.79928e-13
6.55049e-13
3.8938e-13
2.14221e-13
1.1371e-13
1.26408e-13
1.46304e-09
2.43298e-10
3.76247e-11
8.55733e-12
7.2104e-12
8.86398e-12
9.59889e-12
8.81273e-12
7.16704e-12
5.08541e-12
3.22365e-12
1.89905e-12
1.03676e-12
5.96492e-13
1.1496e-09
1.93713e-10
3.94378e-11
2.66387e-11
3.74699e-11
4.94576e-11
5.57793e-11
5.33921e-11
4.55768e-11
3.4243e-11
2.3083e-11
1.444e-11
8.2311e-12
4.58879e-12
9.73613e-10
1.99218e-10
8.79615e-11
1.17706e-10
1.80466e-10
2.44201e-10
2.84559e-10
2.83201e-10
2.54012e-10
2.02258e-10
1.4519e-10
9.57902e-11
5.64982e-11
3.17644e-11
1.02274e-11
2.60146e-12
1.37936e-12
1.60923e-12
2.30961e-12
3.23506e-12
4.30671e-12
5.27312e-12
5.77196e-12
5.46406e-12
4.10039e-12
2.28676e-12
9.37521e-13
3.52951e-13
2.39321e-11
5.48751e-12
1.18652e-12
2.87011e-13
1.69199e-13
2.34574e-13
3.6466e-13
5.1383e-13
6.35204e-13
6.70602e-13
5.45942e-13
3.19215e-13
1.27355e-13
5.50107e-14
5.30093e-11
1.27371e-11
2.75315e-12
5.34241e-13
9.56974e-14
2.54063e-14
2.55164e-14
3.94925e-14
5.53725e-14
6.50767e-14
5.7105e-14
3.49196e-14
1.42736e-14
3.37774e-14
9.96954e-11
2.46094e-11
5.33161e-12
1.01062e-12
1.66266e-13
2.39754e-14
4.02079e-15
2.6609e-15
3.84871e-15
5.04097e-15
4.80481e-15
3.10982e-15
2.11616e-15
4.12988e-14
1.45133e-10
3.51283e-11
7.41705e-12
1.36093e-12
2.15415e-13
2.91861e-14
3.40091e-15
4.56764e-16
2.61533e-16
3.39527e-16
3.50028e-16
2.54514e-16
1.0719e-15
4.42546e-14
1.77957e-10
4.06465e-11
8.11591e-12
1.41035e-12
2.11675e-13
2.72021e-14
2.9774e-15
3.04978e-16
6.49586e-17
5.27303e-17
5.35555e-17
5.49168e-17
8.84773e-16
4.10566e-14
1.99355e-10
4.22238e-11
7.83538e-12
1.26867e-12
1.77744e-13
2.13902e-14
2.21405e-15
2.28682e-16
5.51104e-17
4.0914e-17
3.90077e-17
4.37296e-17
7.78456e-16
3.62254e-14
2.12339e-10
4.15775e-11
7.15172e-12
1.07588e-12
1.40256e-13
1.58592e-14
1.67135e-15
2.69191e-16
1.16895e-16
7.42704e-17
5.30735e-17
4.95093e-17
6.64354e-16
2.82814e-14
2.15308e-10
3.90056e-11
6.21946e-12
8.69225e-13
1.06474e-13
1.27247e-14
2.6995e-15
1.42777e-15
9.15874e-16
5.17819e-16
2.65147e-16
1.41048e-16
6.80366e-16
2.20771e-14
2.05871e-10
3.4928e-11
5.21501e-12
6.86658e-13
8.94147e-14
2.39447e-14
1.68662e-14
1.31319e-14
9.08944e-15
5.3189e-15
2.73182e-15
1.28809e-15
1.13803e-15
1.68591e-14
1.78673e-10
2.8689e-11
4.08251e-12
5.59983e-13
1.5694e-13
1.38302e-13
1.34835e-13
1.12439e-13
8.1431e-14
5.0235e-14
2.73165e-14
1.3563e-14
6.71604e-15
1.32186e-14
1.39168e-10
2.16489e-11
3.17722e-12
7.90582e-13
7.66222e-13
9.41289e-13
9.7435e-13
8.46366e-13
6.39737e-13
4.15822e-13
2.39618e-13
1.26535e-13
6.20884e-14
3.50935e-14
9.53608e-11
1.52918e-11
3.35294e-12
2.98232e-12
4.46876e-12
5.8062e-12
6.21017e-12
5.59747e-12
4.40798e-12
3.01127e-12
1.83201e-12
1.0216e-12
5.19752e-13
2.63905e-13
7.18958e-11
1.51962e-11
9.37845e-12
1.51151e-11
2.39915e-11
3.18396e-11
3.4981e-11
3.26049e-11
2.67367e-11
1.91929e-11
1.23176e-11
7.19741e-12
3.76936e-12
1.917e-12
1.28129e-12
2.81786e-13
1.22159e-13
1.5298e-13
2.49456e-13
3.901e-13
5.67323e-13
7.4422e-13
8.56798e-13
8.39705e-13
6.42328e-13
3.71025e-13
1.56673e-13
5.45994e-14
3.32527e-12
7.11577e-13
1.4221e-13
3.13437e-14
1.86547e-14
2.86487e-14
4.81709e-14
7.19819e-14
9.28424e-14
1.00877e-13
8.32117e-14
4.98873e-14
2.07764e-14
7.0821e-15
7.50542e-12
1.67883e-12
3.37007e-13
6.08177e-14
1.02784e-14
2.89042e-15
3.3714e-15
5.54824e-15
8.06008e-15
9.68995e-15
8.57212e-15
5.33423e-15
2.24479e-15
1.78544e-15
1.41796e-11
3.2448e-12
6.52835e-13
1.15509e-13
1.79191e-14
2.4972e-15
4.73154e-16
3.94057e-16
5.87734e-16
7.73012e-16
7.39604e-16
4.92195e-16
2.53919e-16
1.91347e-15
2.05606e-11
4.62301e-12
9.09427e-13
1.56178e-13
2.33369e-14
3.03703e-15
3.71994e-16
8.26151e-17
6.86491e-17
8.14858e-17
8.28086e-17
6.8224e-17
9.61578e-17
2.37292e-15
2.43894e-11
5.19503e-12
9.70701e-13
1.58496e-13
2.2521e-14
2.78777e-15
3.23664e-16
6.26754e-17
4.01663e-17
3.93195e-17
3.94667e-17
3.91804e-17
9.03864e-17
2.70016e-15
2.58157e-11
5.1234e-12
8.93838e-13
1.36662e-13
1.82136e-14
2.12709e-15
2.42225e-16
5.43853e-17
3.8602e-17
3.73978e-17
3.72745e-17
3.76448e-17
9.21997e-17
2.82791e-15
2.54433e-11
4.68822e-12
7.61132e-13
1.08589e-13
1.35232e-14
1.49509e-15
1.79197e-16
5.43134e-17
4.19025e-17
3.91173e-17
3.7921e-17
3.80126e-17
9.32578e-17
2.60039e-15
2.36253e-11
4.04004e-12
6.10168e-13
8.12093e-14
9.53575e-15
1.10677e-15
2.35717e-16
1.29985e-16
9.13175e-17
6.42987e-17
4.86155e-17
4.24079e-17
1.03883e-16
2.38979e-15
2.04654e-11
3.2846e-12
4.65863e-13
5.861e-14
7.32809e-15
1.89144e-15
1.28178e-15
9.59144e-16
6.35997e-16
3.6273e-16
1.8872e-16
1.00919e-16
1.33014e-16
2.10634e-15
1.59415e-11
2.42665e-12
3.28657e-13
4.36506e-14
1.27631e-14
1.13682e-14
1.06766e-14
8.46808e-15
5.75247e-15
3.31639e-15
1.6725e-15
7.74401e-16
3.97868e-16
1.59807e-15
1.11056e-11
1.64662e-12
2.33759e-13
6.48806e-14
6.94252e-14
8.38628e-14
8.28977e-14
6.80601e-14
4.78882e-14
2.88029e-14
1.51996e-14
7.28975e-15
3.26822e-15
2.11132e-15
6.77931e-12
1.056e-12
2.6112e-13
2.90737e-13
4.47309e-13
5.64496e-13
5.72654e-13
4.8504e-13
3.53345e-13
2.21797e-13
1.22822e-13
6.17604e-14
2.83705e-14
1.33867e-14
4.67299e-12
1.07321e-12
9.19922e-13
1.65322e-12
2.64336e-12
3.3908e-12
3.5118e-12
3.05771e-12
2.30313e-12
1.50685e-12
8.73116e-13
4.57385e-13
2.15512e-13
1.00405e-13
1.40548e-13
2.80483e-14
9.86928e-15
1.26378e-14
2.30995e-14
4.00489e-14
6.33312e-14
8.88053e-14
1.07508e-13
1.09112e-13
8.51286e-14
5.02679e-14
2.1908e-14
7.60859e-15
3.83893e-13
7.72448e-14
1.44754e-14
2.97037e-15
1.79427e-15
3.01142e-15
5.42831e-15
8.57448e-15
1.15378e-14
1.2914e-14
1.08178e-14
6.6051e-15
2.85916e-15
9.81574e-16
8.83116e-13
1.8557e-13
3.50083e-14
5.96911e-15
9.87281e-16
3.1654e-16
4.09622e-16
6.91403e-16
1.02627e-15
1.25746e-15
1.12737e-15
7.20889e-16
3.29546e-16
1.64119e-16
1.6764e-12
3.59627e-13
6.79972e-14
1.13761e-14
1.70582e-15
2.58233e-16
7.93764e-17
7.87472e-17
1.04801e-16
1.29472e-16
1.25669e-16
9.45563e-17
6.27257e-17
1.23914e-16
2.41552e-12
5.10327e-13
9.46246e-14
1.54049e-14
2.22217e-15
3.07207e-16
6.64929e-17
4.15051e-17
4.08811e-17
4.26156e-17
4.27687e-17
4.09042e-17
4.09364e-17
1.61646e-16
2.77035e-12
5.56752e-13
9.85113e-14
1.53131e-14
2.10884e-15
2.80766e-16
6.16366e-17
3.92332e-17
3.73563e-17
3.73196e-17
3.73402e-17
3.72782e-17
4.01554e-17
2.06227e-16
2.77858e-12
5.22886e-13
8.68159e-14
1.27068e-14
1.65525e-15
2.16339e-16
5.40256e-17
3.84572e-17
3.71644e-17
3.70703e-17
3.70633e-17
3.70904e-17
4.0765e-17
2.40433e-16
2.54649e-12
4.47257e-13
6.94115e-14
9.53027e-15
1.17316e-15
1.55162e-16
4.79073e-17
3.82109e-17
3.73107e-17
3.71486e-17
3.70882e-17
3.71172e-17
4.16296e-17
2.51915e-16
2.17633e-12
3.56464e-13
5.17185e-14
6.66436e-15
7.85264e-16
1.16169e-16
4.95663e-17
4.20871e-17
3.97558e-17
3.83274e-17
3.7566e-17
3.73394e-17
4.34242e-17
2.66644e-16
1.71994e-12
2.6546e-13
3.63218e-14
4.44714e-15
5.61204e-16
1.58033e-16
1.12403e-16
8.97918e-17
6.9004e-17
5.29862e-17
4.37204e-17
3.96943e-17
4.59606e-17
2.66183e-16
1.21529e-12
1.78562e-13
2.34031e-14
3.04985e-15
9.09387e-16
7.99556e-16
7.26743e-16
5.58086e-16
3.69705e-16
2.15065e-16
1.18106e-16
6.96728e-17
5.56231e-17
2.16574e-16
7.67418e-13
1.10352e-13
1.53699e-14
4.63135e-15
5.19928e-15
6.13067e-15
5.81039e-15
4.53542e-15
3.0089e-15
1.70476e-15
8.47888e-16
3.91038e-16
1.81267e-16
1.7695e-16
4.24281e-13
6.52188e-14
1.83189e-14
2.36098e-14
3.64914e-14
4.45805e-14
4.307e-14
3.44206e-14
2.34332e-14
1.36765e-14
6.98048e-15
3.22434e-15
1.37051e-15
6.36714e-16
2.72308e-13
7.024e-14
7.82283e-14
1.48772e-13
2.36041e-13
2.91405e-13
2.8555e-13
2.33056e-13
1.62934e-13
9.83078e-14
5.20399e-14
2.48168e-14
1.06637e-14
4.63264e-15
1.32086e-14
2.4798e-15
7.4222e-16
9.27627e-16
1.84864e-15
3.50137e-15
5.9678e-15
8.90073e-15
1.13059e-14
1.1876e-14
9.46132e-15
5.69135e-15
2.55293e-15
9.24265e-16
3.72398e-14
7.12202e-15
1.28644e-15
2.73023e-16
1.76995e-16
2.96691e-16
5.43249e-16
8.8552e-16
1.23073e-15
1.41508e-15
1.21006e-15
7.60964e-16
3.54818e-16
1.44948e-16
8.73367e-14
1.73855e-14
3.13174e-15
5.34922e-16
1.13328e-16
6.04293e-17
7.17653e-17
1.01896e-16
1.39137e-16
1.66514e-16
1.54199e-16
1.11054e-16
6.91776e-17
4.86833e-17
1.66321e-13
3.37604e-14
6.07804e-15
9.96226e-16
1.7219e-16
5.43939e-17
4.06208e-17
4.11398e-17
4.40172e-17
4.67808e-17
4.64376e-17
4.31404e-17
3.97302e-17
4.07784e-17
2.37508e-13
4.75931e-14
8.41755e-15
1.33707e-15
2.14534e-16
5.82444e-17
3.92995e-17
3.74109e-17
3.7418e-17
3.76112e-17
3.76292e-17
3.74319e-17
3.7311e-17
4.25726e-17
2.63323e-13
5.04051e-14
8.54499e-15
1.3021e-15
2.0212e-16
5.57876e-17
3.88845e-17
3.71907e-17
3.70524e-17
3.70531e-17
3.70559e-17
3.70491e-17
3.71984e-17
4.59384e-17
2.50854e-13
4.51971e-14
7.23163e-15
1.04831e-15
1.6149e-16
5.03203e-17
3.82731e-17
3.71291e-17
3.70343e-17
3.70278e-17
3.70278e-17
3.70306e-17
3.72569e-17
4.95297e-17
2.14908e-13
3.63435e-14
5.46777e-15
7.55096e-16
1.19738e-16
4.52867e-17
3.77795e-17
3.71011e-17
3.70411e-17
3.70327e-17
3.70305e-17
3.70348e-17
3.73654e-17
5.2643e-17
1.70175e-13
2.70003e-14
3.82583e-15
5.07896e-16
8.78719e-17
4.20896e-17
3.77331e-17
3.72692e-17
3.71503e-17
3.70855e-17
3.70532e-17
3.70497e-17
3.75729e-17
5.66481e-17
1.23706e-13
1.85954e-14
2.50582e-15
3.27738e-16
6.92734e-17
4.35812e-17
4.07242e-17
3.94651e-17
3.84273e-17
3.76976e-17
3.73027e-17
3.71483e-17
3.78262e-17
5.91028e-17
8.01593e-14
1.15296e-14
1.50397e-15
2.18935e-16
8.66455e-17
7.85806e-17
7.30031e-17
6.27423e-17
5.23211e-17
4.45535e-17
4.01643e-17
3.8219e-17
3.81583e-17
5.53383e-17
4.65021e-14
6.58097e-15
9.29149e-16
3.1196e-16
3.50025e-16
3.96922e-16
3.64705e-16
2.80077e-16
1.88246e-16
1.15914e-16
7.18375e-17
5.04745e-17
4.21329e-17
4.83325e-17
2.3657e-14
3.63792e-15
1.15378e-15
1.60662e-15
2.44929e-15
2.8902e-15
2.67266e-15
2.03467e-15
1.31698e-15
7.35127e-16
3.65683e-16
1.74725e-16
8.86486e-17
6.02439e-17
1.43052e-14
4.19237e-15
5.6269e-15
1.09756e-14
1.71157e-14
2.0311e-14
1.89029e-14
1.45522e-14
9.53844e-15
5.37468e-15
2.64605e-15
1.18101e-15
4.86801e-16
2.18659e-16
1.07721e-15
2.18837e-16
8.11219e-17
8.93989e-17
1.56375e-16
2.89091e-16
5.03254e-16
7.77765e-16
1.02429e-15
1.10956e-15
9.07598e-16
5.65646e-16
2.75512e-16
1.22356e-16
3.05638e-15
5.83686e-16
1.28284e-16
5.31714e-17
4.62142e-17
5.5641e-17
7.64074e-17
1.07251e-16
1.40481e-16
1.60324e-16
1.43751e-16
1.03441e-16
6.64733e-17
4.71278e-17
7.25692e-15
1.39985e-15
2.68167e-16
7.24255e-17
4.22168e-17
3.86734e-17
3.97232e-17
4.237e-17
4.58102e-17
4.85042e-17
4.75421e-17
4.36892e-17
3.99439e-17
3.803e-17
1.38481e-14
2.69813e-15
4.91102e-16
1.05957e-16
4.63397e-17
3.81694e-17
3.72659e-17
3.73466e-17
3.76095e-17
3.78675e-17
3.78449e-17
3.7554e-17
3.72511e-17
3.71972e-17
1.95536e-14
3.76129e-15
6.63936e-16
1.30257e-16
4.92797e-17
3.84297e-17
3.7155e-17
3.70338e-17
3.70394e-17
3.70581e-17
3.7061e-17
3.70449e-17
3.70309e-17
3.72455e-17
2.09576e-14
3.8667e-15
6.57349e-16
1.25602e-16
4.81578e-17
3.82469e-17
3.71274e-17
3.70177e-17
3.70095e-17
3.70107e-17
3.70119e-17
3.70127e-17
3.70207e-17
3.74332e-17
1.90083e-14
3.32193e-15
5.41037e-16
1.05074e-16
4.50827e-17
3.78624e-17
3.70883e-17
3.70158e-17
3.70103e-17
3.70108e-17
3.70117e-17
3.70132e-17
3.70269e-17
3.76918e-17
1.5308e-14
2.53121e-15
3.97525e-16
8.26762e-17
4.20868e-17
3.75207e-17
3.70576e-17
3.70165e-17
3.70134e-17
3.70139e-17
3.70148e-17
3.70165e-17
3.70392e-17
3.80139e-17
1.13179e-14
1.77442e-15
2.7342e-16
6.49707e-17
3.99463e-17
3.73071e-17
3.70508e-17
3.70255e-17
3.70208e-17
3.70193e-17
3.70192e-17
3.70209e-17
3.70613e-17
3.84762e-17
7.64687e-15
1.15149e-15
1.80395e-16
5.28966e-17
3.87284e-17
3.73299e-17
3.71743e-17
3.7117e-17
3.70741e-17
3.7046e-17
3.70322e-17
3.70289e-17
3.70882e-17
3.88488e-17
4.60554e-15
6.78081e-16
1.15527e-16
4.60806e-17
3.93824e-17
3.88888e-17
3.85668e-17
3.80755e-17
3.76217e-17
3.73081e-17
3.71404e-17
3.70709e-17
3.71058e-17
3.86367e-17
2.49917e-15
3.75836e-16
8.09213e-17
5.07076e-17
5.25724e-17
5.42952e-17
5.20032e-17
4.74731e-17
4.30746e-17
3.99534e-17
3.82376e-17
3.74797e-17
3.72238e-17
3.79694e-17
1.20265e-15
2.10979e-16
9.50637e-17
1.23242e-16
1.67862e-16
1.86597e-16
1.69118e-16
1.31792e-16
9.38258e-17
6.55143e-17
4.90851e-17
4.15389e-17
3.85941e-17
3.7957e-17
7.03409e-16
2.53446e-16
3.70901e-16
6.99113e-16
1.05018e-15
1.19348e-15
1.06186e-15
7.83048e-16
4.96241e-16
2.77817e-16
1.45294e-16
7.97915e-17
5.17972e-17
4.25969e-17
1.0576e-16
4.83496e-17
3.93873e-17
3.95045e-17
4.33486e-17
5.20289e-17
6.74065e-17
8.86988e-17
1.09454e-16
1.18499e-16
1.04413e-16
7.82433e-17
5.57047e-17
4.37452e-17
2.42586e-16
7.23254e-17
4.2571e-17
3.79063e-17
3.74961e-17
3.81142e-17
3.955e-17
4.18411e-17
4.44948e-17
4.62453e-17
4.51282e-17
4.20749e-17
3.9258e-17
3.77744e-17
5.37572e-16
1.26929e-16
5.1501e-17
3.90966e-17
3.72717e-17
3.70736e-17
3.71555e-17
3.73516e-17
3.76167e-17
3.78358e-17
3.77753e-17
3.74882e-17
3.72078e-17
3.70619e-17
9.9955e-16
2.13685e-16
6.57764e-17
4.11653e-17
3.75195e-17
3.70408e-17
3.69922e-17
3.70015e-17
3.7023e-17
3.70447e-17
3.70453e-17
3.70253e-17
3.70042e-17
3.69972e-17
1.38142e-15
2.82058e-16
7.64711e-17
4.26293e-17
3.76962e-17
3.70588e-17
3.69874e-17
3.69822e-17
3.69843e-17
3.69873e-17
3.69891e-17
3.69896e-17
3.699e-17
3.69992e-17
1.43025e-15
2.81374e-16
7.48839e-17
4.22022e-17
3.76221e-17
3.70509e-17
3.69889e-17
3.69842e-17
3.69851e-17
3.69867e-17
3.69882e-17
3.69899e-17
3.69918e-17
3.70107e-17
1.24151e-15
2.37427e-16
6.63838e-17
4.08257e-17
3.74347e-17
3.70316e-17
3.69901e-17
3.69874e-17
3.69883e-17
3.69898e-17
3.69912e-17
3.69929e-17
3.6995e-17
3.70284e-17
9.51352e-16
1.80666e-16
5.67493e-17
3.94286e-17
3.72602e-17
3.70155e-17
3.69919e-17
3.69909e-17
3.6992e-17
3.69934e-17
3.69948e-17
3.69964e-17
3.69992e-17
3.70549e-17
6.70019e-16
1.30668e-16
4.90444e-17
3.84046e-17
3.71425e-17
3.70072e-17
3.69951e-17
3.6995e-17
3.69961e-17
3.69974e-17
3.69987e-17
3.70003e-17
3.70044e-17
3.70962e-17
4.35239e-16
9.26589e-17
4.37363e-17
3.77548e-17
3.70782e-17
3.70097e-17
3.70033e-17