/*--------------------------------*- C++ -*----------------------------------*\
| =========                 |                                                 |
| \\      /  F ield         | OpenFOAM: The Open Source CFD Toolbox           |
|  \\    /   O peration     | Version:  v2106                                 |
|   \\  /    A nd           | Website:  www.openfoam.com                      |
|    \\/     M anipulation  |                                                 |
\*---------------------------------------------------------------------------*/
FoamFile
{
    version     2.0;
    format      ascii;
    arch        "LSB;label=32;scalar=64";
    class       volScalarField;
    location    "0.000137";
    object      rho;
}
// * * * * * * * * * * * * * * * * * * * * * * * * * * * * * * * * * * * * * //

dimensions      [1 -3 0 0 0 0 0];

internalField   nonuniform List<scalar> 
18109
(
2.62592
2.6217
2.62158
2.62105
2.62319
2.62602
2.62999
2.62898
2.62379
2.62352
2.62252
2.62384
2.62616
2.62966
2.63002
2.62556
2.62438
2.62318
2.62384
2.62572
2.62849
2.62886
2.62533
2.62347
2.62245
2.62283
2.62451
2.62711
2.62668
2.624
2.62214
2.62129
2.62158
2.62316
2.62555
2.62409
2.62182
2.62031
2.61975
2.62016
2.62179
2.62411
2.62058
2.61904
2.61803
2.61782
2.61862
2.62026
2.62266
2.61698
2.61623
2.61596
2.61618
2.61771
2.61939
2.62183
2.64136
2.63745
2.63733
2.63661
2.63784
2.64006
2.64307
2.6464
2.65024
2.6541
2.65746
2.66153
2.66317
2.66599
2.64323
2.63877
2.63829
2.6373
2.63806
2.63982
2.64251
2.64526
2.64891
2.65259
2.65582
2.65933
2.66049
2.66291
2.64336
2.63957
2.63841
2.63734
2.63772
2.63914
2.64145
2.64387
2.6472
2.65073
2.65391
2.65752
2.65908
2.66184
2.64179
2.63889
2.63723
2.63632
2.63652
2.63783
2.64001
2.64249
2.64568
2.64904
2.65211
2.65549
2.65706
2.65928
2.64003
2.63764
2.63601
2.63526
2.63545
2.63669
2.63865
2.64102
2.64398
2.6472
2.65025
2.65367
2.65555
2.6574
2.63732
2.63541
2.63413
2.63365
2.63396
2.63525
2.63715
2.63953
2.6424
2.6455
2.64843
2.65159
2.65371
2.65542
2.63455
2.63313
2.63213
2.63197
2.63256
2.63386
2.63579
2.63818
2.64098
2.64397
2.64682
2.64977
2.65196
2.65382
2.63145
2.63071
2.63023
2.63053
2.63163
2.63296
2.63493
2.63726
2.6399
2.64268
2.64532
2.64796
2.64997
2.65208
2.62797
2.62792
2.62818
2.62895
2.63042
2.63204
2.63414
2.63653
2.63905
2.64166
2.64402
2.64641
2.64829
2.65047
2.62556
2.62633
2.62757
2.62863
2.63027
2.63196
2.63401
2.63632
2.63859
2.64095
2.64293
2.64514
2.64682
2.64895
2.62303
2.62445
2.62643
2.62799
2.63005
2.63208
2.63421
2.63645
2.63839
2.64057
2.64218
2.64428
2.64559
2.64783
2.62199
2.62417
2.62693
2.6288
2.63092
2.63299
2.63507
2.6372
2.63876
2.64068
2.64185
2.64383
2.64459
2.64725
2.62146
2.62385
2.62726
2.62975
2.63222
2.63439
2.63631
2.63825
2.63939
2.64083
2.64152
2.64313
2.64331
2.64636
2.62382
2.62748
2.63049
2.63282
2.63479
2.63665
2.63817
2.63966
2.64034
2.64126
2.64187
2.64307
2.643
2.64534
2.62194
2.62467
2.62445
2.62842
2.63352
2.64241
2.63842
2.6409
2.64
2.64112
2.64227
2.64599
2.63511
2.63411
2.63173
2.63073
2.62998
2.63094
2.63447
2.63206
2.62822
2.62523
2.62232
2.62145
2.63446
2.63145
2.62704
2.62336
2.61896
2.61799
2.63637
2.63358
2.62974
2.62577
2.62159
2.61869
2.63944
2.63761
2.63456
2.63131
2.62812
2.62601
2.64317
2.64259
2.6412
2.63948
2.63784
2.63661
2.64705
2.64772
2.64789
2.64805
2.64831
2.64875
2.65152
2.65342
2.65513
2.6571
2.65931
2.66179
2.65605
2.65888
2.66179
2.6654
2.66938
2.67377
2.65973
2.66324
2.66671
2.67122
2.67614
2.68219
2.66341
2.66707
2.67045
2.6753
2.68041
2.68715
2.66464
2.66841
2.6715
2.67587
2.68007
2.68632
2.66693
2.67064
2.6718
2.67419
2.67565
2.67922
2.66557
2.66818
2.66791
2.66885
2.66908
2.67048
2.66245
2.66321
2.66247
2.66128
2.65926
2.65796
2.66123
2.66074
2.65847
2.65518
2.65081
2.64627
2.65942
2.65843
2.65556
2.65132
2.64592
2.63952
2.65789
2.65698
2.65404
2.64997
2.64439
2.63846
2.65626
2.65592
2.65355
2.65025
2.64538
2.64004
2.65479
2.65513
2.65406
2.65179
2.64885
2.64594
2.65325
2.65392
2.65405
2.65356
2.65304
2.65293
2.65202
2.65328
2.65449
2.6557
2.65735
2.65987
2.65057
2.65229
2.65438
2.65715
2.66078
2.6654
2.64929
2.65129
2.65384
2.65744
2.66221
2.66857
2.64824
2.65027
2.65266
2.6564
2.66094
2.66772
2.64662
2.64859
2.65074
2.65413
2.65761
2.66339
2.6455
2.64791
2.64874
2.65088
2.65289
2.65656
2.64329
2.6457
2.64536
2.64621
2.64673
2.64836
2.64147
2.64145
2.64056
2.63988
2.63852
2.63778
2.64136
2.64053
2.6385
2.63593
2.63258
2.62925
2.64107
2.63998
2.6378
2.63475
2.63085
2.62548
2.64107
2.64046
2.6387
2.63587
2.63236
2.62732
2.64101
2.64153
2.64115
2.63951
2.63569
2.6318
2.64104
2.64235
2.64294
2.64289
2.64146
2.63927
2.64027
2.64275
2.6447
2.64657
2.6473
2.64769
2.63918
2.64246
2.64568
2.64948
2.65277
2.65615
2.63731
2.64098
2.64511
2.65031
2.65562
2.66161
2.63479
2.6382
2.64229
2.64801
2.65431
2.66232
2.63125
2.63399
2.6374
2.64245
2.64814
2.65723
2.62767
2.62989
2.63206
2.63578
2.63993
2.64777
2.62332
2.62452
2.62499
2.62704
2.63034
2.63686
2.63266
2.63918
2.64568
2.65483
2.66383
2.67531
2.63199
2.63795
2.64368
2.65206
2.66042
2.6726
2.62975
2.63456
2.63851
2.64504
2.65247
2.66407
2.62586
2.62916
2.63093
2.63584
2.64323
2.65458
2.61971
2.6206
2.61955
2.6203
2.6216
2.62533
2.61805
2.61545
2.613
2.61184
2.61104
2.61271
2.61829
2.61525
2.61153
2.60898
2.60623
2.60646
2.62029
2.61685
2.61312
2.6102
2.60732
2.6052
2.62418
2.62205
2.61924
2.61643
2.61335
2.61123
2.6276
2.62685
2.62565
2.62463
2.62343
2.62224
2.63211
2.63321
2.63407
2.63489
2.63538
2.63559
2.63627
2.63911
2.64202
2.64525
2.6482
2.65082
2.64009
2.64448
2.6492
2.65467
2.65989
2.66493
2.64333
2.64851
2.65403
2.66083
2.66766
2.6751
2.6452
2.65093
2.65658
2.66417
2.67165
2.68103
2.64547
2.65072
2.6558
2.66278
2.66943
2.67911
2.64426
2.6486
2.65214
2.65724
2.66182
2.66997
2.64204
2.64519
2.64595
2.64902
2.6526
2.6589
2.66022
2.68846
2.73487
2.8096
2.91073
2.63861
2.64883
2.66883
2.71821
2.82492
2.62107
2.61745
2.62089
2.65697
2.75269
2.61182
2.60268
2.60024
2.62779
2.70682
2.61356
2.6049
2.60225
2.62328
2.68802
2.62291
2.61739
2.61853
2.64468
2.71307
2.63557
2.63474
2.643
2.67586
2.75547
2.65041
2.65494
2.66849
2.69899
2.76934
2.91124
2.66667
2.67604
2.69395
2.7237
2.78233
2.90638
2.6817
2.69577
2.71527
2.74516
2.79058
2.8861
2.69324
2.71254
2.73386
2.76512
2.80379
2.87923
3.05001
2.69987
2.72176
2.74708
2.77768
2.81556
2.86161
2.99508
3.2345
2.69826
2.71973
2.74725
2.78259
2.8209
2.87478
2.948
3.235
2.68813
2.70774
2.7388
2.7804
2.8376
2.89918
2.95189
2.9641
2.6761
2.69324
2.72369
2.77523
2.83955
2.92643
3.0098
3.01494
2.65832
2.66513
2.68059
2.72157
2.79701
2.91247
3.0528
3.16051
2.64198
2.63973
2.63943
2.66417
2.72926
2.8649
3.07145
3.1968
2.63235
2.62052
2.6135
2.63025
2.6875
2.80692
2.9977
3.24543
2.62879
2.61636
2.60876
2.62091
2.66913
2.77741
2.92851
3.07019
2.63251
2.62595
2.62301
2.63808
2.68534
2.79792
2.94497
3.08739
2.64359
2.64228
2.64591
2.66645
2.72027
2.85138
3.01873
3.15374
2.65388
2.65852
2.66953
2.68953
2.73562
2.84996
3.02058
3.27489
2.66544
2.67606
2.69111
2.71227
2.75097
2.85243
2.67458
2.68956
2.70795
2.73244
2.76973
2.85363
2.68063
2.69973
2.72097
2.74767
2.78498
2.8437
2.68077
2.7025
2.72783
2.75649
2.7955
2.85139
2.67541
2.69768
2.72629
2.76203
2.80202
2.85632
2.66614
2.68687
2.71861
2.76253
2.81983
2.65594
2.67481
2.70665
2.75729
2.82138
2.64013
2.64737
2.66558
2.70726
2.78195
2.62712
2.62335
2.625
2.65229
2.72558
2.61861
2.60567
2.60015
2.62154
2.68977
2.61724
2.60381
2.59637
2.61224
2.67291
2.62397
2.61339
2.60876
2.62785
2.69038
2.63448
2.6288
2.62917
2.65533
2.72667
2.64718
2.6468
2.65261
2.67807
2.74175
2.66027
2.66736
2.67907
2.70316
2.75665
2.67111
2.68543
2.70328
2.73079
2.77713
2.67627
2.6985
2.72279
2.75652
2.80363
2.67324
2.70138
2.73601
2.7798
2.82779
2.66469
2.69955
2.74656
2.80702
2.87333
2.65586
2.6945
2.74856
2.82092
2.90989
2.6378
2.66437
2.7106
2.78244
2.88368
2.61647
2.62532
2.64412
2.69643
2.80238
2.60101
2.59747
2.60126
2.64231
2.74005
2.59699
2.58524
2.58185
2.61364
2.69897
2.60399
2.59229
2.59007
2.61617
2.68679
2.61809
2.61092
2.61237
2.64246
2.71852
2.63481
2.63361
2.64116
2.6766
2.76624
2.65391
2.6586
2.67161
2.70545
2.78813
2.67188
2.68306
2.70159
2.73348
2.80196
2.68691
2.70511
2.72755
2.75876
2.80877
2.69673
2.72118
2.74824
2.78101
2.82494
2.69623
2.72549
2.7615
2.80213
2.84899
2.68794
2.72265
2.77096
2.83005
2.89216
2.67747
2.71691
2.77076
2.84521
2.93381
2.66193
2.65839
2.65788
2.65687
2.65722
2.65853
2.66083
2.66312
2.6661
2.66885
2.67141
2.67434
2.676
2.67821
2.66168
2.65818
2.65741
2.65656
2.65689
2.65805
2.66014
2.66213
2.66488
2.66774
2.67043
2.67301
2.6743
2.67605
2.66102
2.65829
2.65715
2.65634
2.65646
2.65743
2.65933
2.66136
2.66393
2.66659
2.66919
2.67183
2.67323
2.67536
2.65935
2.65722
2.65589
2.65526
2.65541
2.65646
2.65829
2.66037
2.66293
2.66559
2.66815
2.67065
2.67196
2.67372
2.65804
2.65628
2.65504
2.65452
2.65471
2.65576
2.65743
2.65947
2.66193
2.6645
2.66699
2.6695
2.67096
2.67258
2.65598
2.65458
2.65363
2.65335
2.6537
2.65482
2.65647
2.65851
2.66093
2.66344
2.66582
2.66819
2.66977
2.67115
2.65411
2.65304
2.65229
2.65223
2.65282
2.65397
2.65562
2.65765
2.66
2.66242
2.66471
2.66692
2.66857
2.66989
2.65201
2.65143
2.65112
2.65142
2.65222
2.65344
2.6551
2.65706
2.65927
2.66152
2.66363
2.6656
2.66719
2.6684
2.64989
2.64965
2.64988
2.65052
2.65159
2.65298
2.65468
2.65662
2.6587
2.66078
2.66267
2.66443
2.66586
2.66716
2.64844
2.64875
2.64947
2.65022
2.65144
2.65292
2.65463
2.65649
2.6584
2.66025
2.6618
2.66337
2.66456
2.66599
2.64673
2.64748
2.64885
2.65006
2.6516
2.65323
2.65496
2.65667
2.6583
2.65997
2.66119
2.66265
2.66349
2.66501
2.64636
2.64756
2.64939
2.65074
2.65233
2.65398
2.65569
2.65725
2.65856
2.65996
2.66076
2.66213
2.66253
2.66429
2.64601
2.64739
2.6497
2.65148
2.65329
2.65498
2.65659
2.65798
2.65899
2.66004
2.66048
2.66162
2.66158
2.66358
2.64797
2.65018
2.65209
2.65363
2.65511
2.65656
2.65789
2.65899
2.65961
2.66032
2.66056
2.66134
2.66119
2.66274
2.68048
2.67745
2.67625
2.67495
2.67467
2.67481
2.67581
2.67714
2.67907
2.68128
2.68349
2.68587
2.68793
2.6905
2.67871
2.67632
2.67502
2.67408
2.67387
2.67411
2.67519
2.67669
2.67869
2.68084
2.68312
2.68536
2.68725
2.68925
2.67748
2.67546
2.67414
2.67341
2.67321
2.67354
2.67466
2.6762
2.67817
2.68024
2.68248
2.68477
2.68672
2.68906
2.67573
2.6742
2.67307
2.67257
2.67248
2.67297
2.67419
2.6758
2.67779
2.67989
2.68213
2.68437
2.6863
2.68843
2.67454
2.67319
2.67223
2.67186
2.67192
2.67258
2.67383
2.67546
2.67743
2.67953
2.68174
2.68399
2.68597
2.68807
2.67316
2.67208
2.67142
2.67122
2.67146
2.67228
2.67355
2.67518
2.67713
2.67921
2.68138
2.68358
2.68554
2.68745
2.67189
2.67107
2.67064
2.67061
2.67107
2.67199
2.6733
2.67493
2.67685
2.67889
2.68101
2.68314
2.68509
2.68692
2.67084
2.67031
2.67012
2.67031
2.67095
2.67193
2.67327
2.67486
2.67669
2.67862
2.68061
2.68262
2.68453
2.68634
2.67
2.66969
2.66977
2.67013
2.67091
2.67197
2.67331
2.67485
2.67659
2.67842
2.68027
2.68216
2.68397
2.6858
2.66928
2.66932
2.66976
2.67025
2.67119
2.67229
2.67361
2.67505
2.67664
2.67829
2.67994
2.68169
2.68329
2.68515
2.66911
2.66946
2.67014
2.67079
2.67181
2.6729
2.67418
2.67549
2.6769
2.67838
2.67978
2.68141
2.68275
2.6846
2.66973
2.67028
2.67108
2.67176
2.67277
2.67381
2.67502
2.67616
2.67736
2.67865
2.67969
2.68116
2.68218
2.68405
2.67028
2.67096
2.67207
2.67293
2.67397
2.67495
2.67608
2.67702
2.67801
2.67906
2.67981
2.6811
2.68177
2.68374
2.6724
2.67342
2.67427
2.67491
2.67573
2.67651
2.67746
2.67815
2.67884
2.67958
2.68001
2.68106
2.68139
2.68299
2.69291
2.69102
2.6898
2.68865
2.68805
2.68771
2.68776
2.68805
2.68877
2.68974
2.69093
2.69228
2.69375
2.69572
2.69104
2.68968
2.68846
2.68756
2.68703
2.68679
2.68688
2.68725
2.68808
2.68914
2.69044
2.69183
2.69332
2.69494
2.6896
2.68835
2.68724
2.6865
2.6861
2.68597
2.68613
2.68661
2.68751
2.68862
2.68995
2.69144
2.69304
2.69494
2.68809
2.68711
2.68619
2.68564
2.68535
2.68533
2.68557
2.68616
2.68713
2.6883
2.68969
2.69125
2.69292
2.69486
2.68678
2.68592
2.68519
2.68479
2.68464
2.68472
2.68508
2.68578
2.68682
2.68805
2.68951
2.69118
2.69298
2.69506
2.68563
2.68494
2.68442
2.68418
2.68413
2.6843
2.68476
2.68555
2.68663
2.68789
2.68941
2.69116
2.69301
2.69502
2.6845
2.684
2.68367
2.68358
2.68363
2.68392
2.68447
2.68533
2.68644
2.68776
2.68935
2.69116
2.69311
2.69517
2.68374
2.68337
2.68319
2.6832
2.68335
2.68374
2.68435
2.68525
2.68637
2.68769
2.68928
2.69108
2.69306
2.69517
2.68318
2.68295
2.68288
2.68299
2.68322
2.68366
2.6843
2.6852
2.68632
2.68766
2.68926
2.69107
2.6931
2.69528
2.68282
2.68274
2.68279
2.68299
2.68329
2.68378
2.68442
2.68531
2.68638
2.68767
2.68921
2.69098
2.69294
2.69515
2.68299
2.683
2.68313
2.68337
2.68369
2.68417
2.68477
2.6856
2.68659
2.68781
2.68928
2.691
2.69287
2.69513
2.6837
2.68378
2.68392
2.68411
2.68441
2.68483
2.68535
2.68608
2.68694
2.68804
2.68932
2.69094
2.69265
2.69493
2.68461
2.68473
2.68502
2.68523
2.6855
2.68581
2.68622
2.68679
2.68749
2.68846
2.68956
2.69109
2.69258
2.69486
2.68644
2.68664
2.68678
2.68677
2.68697
2.68714
2.68739
2.68771
2.68819
2.68894
2.68975
2.69108
2.69232
2.69426
2.69936
2.69863
2.69815
2.69763
2.69729
2.69698
2.6968
2.69666
2.6967
2.69685
2.6972
2.69765
2.69832
2.69929
2.69841
2.69796
2.69744
2.69696
2.69657
2.69624
2.69604
2.6959
2.69595
2.69612
2.69653
2.69704
2.69778
2.69866
2.69767
2.69717
2.69665
2.69621
2.69586
2.69557
2.6954
2.6953
2.69536
2.69557
2.69604
2.69664
2.69748
2.69859
2.697
2.69655
2.69606
2.69565
2.6953
2.69503
2.69488
2.69481
2.6949
2.69519
2.69572
2.69642
2.69732
2.69851
2.69623
2.69582
2.69539
2.69502
2.69472
2.69449
2.69437
2.69435
2.69452
2.69489
2.69551
2.69634
2.69734
2.6987
2.69558
2.69521
2.69485
2.69453
2.69426
2.69406
2.69397
2.694
2.69424
2.69471
2.69538
2.69635
2.69748
2.69889
2.69492
2.69461
2.6943
2.69402
2.69379
2.69365
2.6936
2.69371
2.69405
2.69459
2.69538
2.69648
2.69771
2.69918
2.69444
2.69418
2.69391
2.69366
2.69346
2.69337
2.69337
2.69354
2.69393
2.69455
2.69542
2.6966
2.69798
2.69955
2.69403
2.69381
2.69357
2.69337
2.6932
2.69316
2.69318
2.69342
2.69389
2.69461
2.69557
2.69682
2.69832
2.69997
2.69387
2.69367
2.69343
2.69327
2.69311
2.6931
2.69315
2.69344
2.69395
2.69473
2.69574
2.69701
2.6986
2.70034
2.69399
2.69381
2.69355
2.69341
2.69324
2.69323
2.69329
2.69359
2.69412
2.69492
2.696
2.6973
2.69896
2.70079
2.69441
2.6942
2.69392
2.69376
2.69357
2.69355
2.69358
2.69387
2.69437
2.69515
2.69621
2.69749
2.69912
2.701
2.69505
2.69488
2.6946
2.69441
2.69416
2.69409
2.69405
2.69429
2.69476
2.69551
2.69653
2.69784
2.69943
2.70137
2.69608
2.69592
2.69557
2.69527
2.69497
2.69482
2.6947
2.69483
2.6952
2.69585
2.69671
2.69793
2.69933
2.70113
2.70027
2.70017
2.70018
2.70013
2.70014
2.70014
2.70018
2.7002
2.7003
2.70041
2.7006
2.70084
2.70115
2.70164
2.70008
2.70007
2.70002
2.69995
2.69993
2.6999
2.69991
2.69992
2.70001
2.70012
2.70033
2.70058
2.7009
2.70135
2.69988
2.69986
2.6998
2.69974
2.69971
2.69968
2.69968
2.6997
2.69979
2.6999
2.70013
2.70042
2.70079
2.70136
2.69978
2.69974
2.69969
2.69962
2.69957
2.69953
2.69953
2.69957
2.69967
2.6998
2.70003
2.70036
2.70074
2.70139
2.69964
2.69961
2.69956
2.69949
2.69944
2.6994
2.69941
2.69946
2.69958
2.69975
2.70002
2.70042
2.70088
2.70161
2.69954
2.69952
2.69947
2.6994
2.69935
2.69933
2.69935
2.69942
2.69955
2.69976
2.70007
2.70053
2.70104
2.70181
2.69946
2.69945
2.6994
2.69934
2.69931
2.69931
2.69934
2.69943
2.69958
2.69982
2.70019
2.70074
2.70135
2.70216
2.69946
2.69946
2.69941
2.69937
2.69934
2.69935
2.69939
2.69949
2.69966
2.69995
2.70036
2.70097
2.70168
2.70254
2.69948
2.6995
2.69946
2.69944
2.69941
2.69942
2.69948
2.69961
2.69982
2.70017
2.70062
2.7013
2.70213
2.70303
2.69967
2.6997
2.69964
2.69963
2.69959
2.69961
2.69967
2.69982
2.70005
2.70045
2.70096
2.70167
2.70262
2.70357
2.69996
2.69999
2.6999
2.69991
2.69985
2.69987
2.69994
2.70011
2.70035
2.7008
2.70139
2.70214
2.70318
2.70419
2.70044
2.70046
2.70033
2.70033
2.70025
2.70025
2.7003
2.70046
2.70072
2.70119
2.70182
2.7026
2.70368
2.70474
2.70105
2.70104
2.70088
2.70084
2.70073
2.7007
2.70074
2.7009
2.70117
2.70166
2.70233
2.70316
2.70427
2.70543
2.70176
2.70177
2.70157
2.70147
2.70132
2.70124
2.70123
2.70137
2.70161
2.70207
2.70269
2.70354
2.70458
2.70575
2.69688
2.69736
2.69779
2.69822
2.69864
2.69904
2.6994
2.69972
2.70005
2.70035
2.70065
2.70095
2.70121
2.70161
2.69725
2.69766
2.69806
2.69844
2.69882
2.69917
2.6995
2.6998
2.70009
2.70037
2.70066
2.70095
2.70119
2.70159
2.69755
2.69792
2.6983
2.69865
2.699
2.69931
2.6996
2.69986
2.70013
2.7004
2.70067
2.70097
2.70124
2.70171
2.69784
2.69817
2.69853
2.69885
2.69916
2.69944
2.69971
2.69997
2.70024
2.7005
2.70078
2.70109
2.70137
2.70183
2.69808
2.69841
2.69875
2.69904
2.69932
2.69958
2.69984
2.7001
2.70037
2.70064
2.70092
2.70127
2.70159
2.70208
2.69836
2.69868
2.69898
2.69925
2.69951
2.69976
2.70002
2.70028
2.70055
2.70084
2.70114
2.70152
2.70187
2.70238
2.69866
2.69895
2.69922
2.69947
2.69973
2.69998
2.70024
2.7005
2.70077
2.70108
2.70141
2.70182
2.70224
2.70277
2.69902
2.69929
2.69953
2.69978
2.70003
2.70027
2.70052
2.70079
2.70107
2.7014
2.70175
2.70219
2.70267
2.70321
2.6994
2.69968
2.69989
2.70014
2.70037
2.70061
2.70085
2.70113
2.70142
2.70178
2.70216
2.70263
2.70318
2.70373
2.69989
2.70016
2.70035
2.70058
2.70079
2.70102
2.70126
2.70154
2.70185
2.70222
2.70265
2.70314
2.70376
2.70433
2.70041
2.70067
2.70082
2.70104
2.70123
2.70146
2.70171
2.702
2.70233
2.70273
2.7032
2.70373
2.7044
2.705
2.70101
2.70127
2.70138
2.70158
2.70175
2.70197
2.70221
2.7025
2.70285
2.70326
2.70375
2.70435
2.70505
2.7057
2.70163
2.70185
2.70194
2.70211
2.70226
2.70247
2.70272
2.70303
2.7034
2.70385
2.70441
2.70504
2.70579
2.70648
2.70231
2.70252
2.70258
2.7027
2.70282
2.703
2.70323
2.70354
2.70392
2.70439
2.70495
2.70562
2.70636
2.70718
2.69242
2.69304
2.6936
2.69412
2.69459
2.69503
2.69543
2.69582
2.69621
2.69658
2.69694
2.6973
2.69761
2.69803
2.69305
2.69351
2.69404
2.69452
2.69495
2.69538
2.69577
2.69615
2.69653
2.69689
2.69724
2.69759
2.69788
2.69828
2.6936
2.69402
2.69451
2.69497
2.69537
2.69577
2.69614
2.6965
2.69686
2.6972
2.69754
2.6979
2.6982
2.69861
2.69411
2.69451
2.69497
2.69539
2.69579
2.69617
2.69654
2.69689
2.69724
2.69758
2.69792
2.69828
2.69858
2.69898
2.69463
2.69504
2.69546
2.69586
2.69624
2.6966
2.69695
2.69729
2.69763
2.69798
2.69832
2.69869
2.69901
2.69942
2.69519
2.69558
2.69598
2.69635
2.69672
2.69706
2.69739
2.69773
2.69807
2.69843
2.69878
2.69916
2.6995
2.69991
2.69576
2.69613
2.6965
2.69686
2.6972
2.69752
2.69785
2.69819
2.69854
2.69891
2.69927
2.69966
2.70002
2.70043
2.69637
2.69672
2.69706
2.69739
2.6977
2.69802
2.69835
2.69869
2.69905
2.69943
2.69981
2.70021
2.70061
2.701
2.69698
2.69732
2.69761
2.69792
2.69822
2.69853
2.69886
2.69921
2.69958
2.69997
2.70037
2.70078
2.70123
2.70161
2.69762
2.69795
2.6982
2.69849
2.69877
2.69908
2.69941
2.69977
2.70015
2.70056
2.70099
2.70142
2.7019
2.7023
2.69823
2.69855
2.69877
2.69905
2.69932
2.69963
2.69997
2.70035
2.70075
2.70118
2.70164
2.7021
2.7026
2.70304
2.69889
2.6992
2.69939
2.69965
2.69991
2.70022
2.70056
2.70094
2.70136
2.70182
2.70229
2.70279
2.70334
2.70384
2.69951
2.6998
2.69997
2.70021
2.70047
2.70079
2.70114
2.70155
2.702
2.7025
2.70302
2.70356
2.70415
2.70468
2.70024
2.70046
2.70062
2.70083
2.70107
2.70138
2.70174
2.70216
2.70262
2.70314
2.70367
2.70426
2.70486
2.70553
2.68626
2.68682
2.68739
2.68794
2.68847
2.68899
2.68949
2.68997
2.69044
2.69089
2.69134
2.69176
2.69214
2.69256
2.68704
2.68747
2.68805
2.68857
2.68909
2.68961
2.6901
2.69058
2.69105
2.6915
2.69193
2.69235
2.69269
2.6931
2.68781
2.68823
2.68878
2.68927
2.68977
2.69025
2.69073
2.69118
2.69163
2.69207
2.69247
2.69289
2.69322
2.69362
2.68857
2.68897
2.68948
2.68994
2.69043
2.6909
2.69137
2.69181
2.69225
2.69268
2.69307
2.69347
2.69379
2.69418
2.68931
2.68972
2.6902
2.69065
2.69112
2.69156
2.69201
2.69243
2.69285
2.69326
2.69364
2.69403
2.69435
2.69472
2.69008
2.69049
2.69093
2.69136
2.69181
2.69224
2.69266
2.69308
2.69348
2.69388
2.69426
2.69464
2.69496
2.69532
2.69084
2.69125
2.69166
2.69208
2.6925
2.69291
2.69332
2.69371
2.6941
2.6945
2.69487
2.69524
2.69557
2.6959
2.69164
2.69202
2.6924
2.6928
2.6932
2.69359
2.69399
2.69438
2.69476
2.69514
2.69552
2.69588
2.69623
2.69654
2.6924
2.69277
2.69312
2.69351
2.69388
2.69427
2.69465
2.69504
2.69542
2.6958
2.69618
2.69653
2.6969
2.6972
2.69317
2.69354
2.69386
2.69423
2.69459
2.69497
2.69534
2.69573
2.69611
2.69649
2.69688
2.69724
2.69763
2.69792
2.6939
2.69427
2.69456
2.69492
2.69527
2.69565
2.69603
2.69642
2.69682
2.69721
2.69761
2.69798
2.69838
2.69868
2.69465
2.69502
2.69529
2.69564
2.69599
2.69637
2.69675
2.69714
2.69754
2.69795
2.69835
2.69875
2.69918
2.6995
2.69534
2.69569
2.69595
2.6963
2.69666
2.69705
2.69746
2.69788
2.6983
2.69874
2.69916
2.6996
2.70003
2.70038
2.6961
2.6964
2.69668
2.69701
2.69738
2.69777
2.69819
2.69862
2.69906
2.69952
2.69995
2.70041
2.70087
2.70133
2.67964
2.68
2.68039
2.68083
2.68124
2.68169
2.68212
2.68255
2.68298
2.68339
2.6838
2.68419
2.68455
2.68495
2.68046
2.68072
2.68114
2.68155
2.68198
2.68241
2.68284
2.68327
2.68369
2.6841
2.6845
2.68489
2.68522
2.68561
2.68126
2.68153
2.68194
2.68234
2.68275
2.68315
2.68357
2.68397
2.68437
2.68477
2.68514
2.68552
2.68584
2.68621
2.68208
2.68234
2.68273
2.68311
2.68351
2.68389
2.6843
2.6847
2.68509
2.68548
2.68584
2.68621
2.68652
2.68687
2.68287
2.68315
2.68352
2.68389
2.68427
2.68464
2.68504
2.68542
2.68579
2.68616
2.68651
2.68686
2.68717
2.6875
2.68368
2.68398
2.68432
2.68468
2.68504
2.6854
2.68578
2.68615
2.68651
2.68688
2.68722
2.68756
2.68786
2.68817
2.68447
2.68478
2.68511
2.68546
2.6858
2.68616
2.68652
2.68688
2.68723
2.68758
2.68791
2.68823
2.68853
2.68882
2.68529
2.68559
2.6859
2.68623
2.68657
2.68692
2.68727
2.68762
2.68796
2.6883
2.68863
2.68894
2.68924
2.68951
2.68607
2.68637
2.68666
2.68699
2.68732
2.68767
2.68801
2.68835
2.6887
2.68902
2.68935
2.68965
2.68995
2.6902
2.68686
2.68716
2.68743
2.68776
2.68808
2.68843
2.68877
2.68911
2.68945
2.68977
2.6901
2.69039
2.6907
2.69093
2.68759
2.6879
2.68816
2.68849
2.68882
2.68917
2.68952
2.68987
2.69022
2.69054
2.69087
2.69116
2.69147
2.69167
2.68834
2.68867
2.68891
2.68925
2.68958
2.68993
2.69029
2.69065
2.691
2.69133
2.69166
2.69197
2.69229
2.69247
2.68904
2.68934
2.68961
2.68995
2.69031
2.69068
2.69106
2.69144
2.6918
2.69217
2.6925
2.69282
2.69314
2.69333
2.6898
2.69007
2.69037
2.69071
2.69109
2.69147
2.69186
2.69224
2.69261
2.69299
2.69333
2.69368
2.694
2.69429
2.67339
2.67352
2.67368
2.67391
2.67414
2.6744
2.67467
2.67495
2.67524
2.67554
2.67584
2.67614
2.67642
2.67674
2.67416
2.67419
2.67436
2.67456
2.67479
2.67505
2.67532
2.67559
2.67588
2.67617
2.67647
2.67676
2.67703
2.67734
2.67483
2.67488
2.67505
2.67524
2.67547
2.67572
2.67597
2.67623
2.67651
2.67678
2.67706
2.67734
2.67759
2.67789
2.67553
2.6756
2.67576
2.67594
2.67616
2.6764
2.67665
2.6769
2.67717
2.67743
2.6777
2.67797
2.67821
2.67849
2.67621
2.67631
2.67647
2.67665
2.67686
2.67708
2.67732
2.67756
2.67782
2.67807
2.67833
2.67859
2.67882
2.67909
2.67693
2.67703
2.67718
2.67736
2.67756
2.67778
2.67801
2.67824
2.67849
2.67874
2.67899
2.67923
2.67947
2.67971
2.67762
2.67775
2.67789
2.67807
2.67826
2.67847
2.67869
2.67892
2.67916
2.6794
2.67964
2.67987
2.6801
2.68033
2.67833
2.67847
2.6786
2.67878
2.67897
2.67917
2.67939
2.67961
2.67984
2.68007
2.68031
2.68054
2.68076
2.68097
2.67902
2.67917
2.6793
2.67948
2.67967
2.67987
2.68009
2.68031
2.68054
2.68076
2.68099
2.6812
2.68143
2.68162
2.67972
2.67987
2.68
2.68019
2.68038
2.68059
2.6808
2.68102
2.68125
2.68147
2.68169
2.68191
2.68213
2.6823
2.68039
2.68056
2.68069
2.68089
2.68109
2.68131
2.68153
2.68175
2.68197
2.68219
2.68241
2.68262
2.68285
2.68297
2.68107
2.68127
2.68141
2.68161
2.68182
2.68204
2.68227
2.68249
2.68272
2.68294
2.68317
2.68338
2.68361
2.6837
2.68173
2.68192
2.6821
2.68232
2.68255
2.68278
2.68302
2.68326
2.6835
2.68373
2.68395
2.68416
2.68437
2.68447
2.68246
2.68264
2.68284
2.68306
2.68331
2.68355
2.6838
2.68405
2.68428
2.68452
2.68474
2.68496
2.68517
2.68535
2.66781
2.66776
2.66775
2.66778
2.66784
2.66792
2.66802
2.66815
2.6683
2.66845
2.66862
2.6688
2.66898
2.66917
2.66837
2.66828
2.66828
2.6683
2.66834
2.66841
2.66851
2.66863
2.66877
2.66893
2.66909
2.66926
2.66943
2.66963
2.66889
2.66879
2.66879
2.66881
2.66885
2.66891
2.66901
2.66912
2.66925
2.66939
2.66954
2.6697
2.66986
2.67005
2.66943
2.66934
2.66934
2.66935
2.66938
2.66943
2.66952
2.66962
2.66974
2.66988
2.67002
2.67018
2.67033
2.67051
2.66995
2.66988
2.66987
2.66988
2.66991
2.66996
2.67003
2.67013
2.67024
2.67037
2.67051
2.67066
2.6708
2.67098
2.67049
2.67043
2.67042
2.67042
2.67045
2.67049
2.67056
2.67065
2.67076
2.67088
2.67102
2.67116
2.6713
2.67146
2.67101
2.67097
2.67096
2.67096
2.67099
2.67103
2.6711
2.67118
2.67129
2.6714
2.67153
2.67166
2.6718
2.67195
2.67154
2.67152
2.67151
2.67151
2.67154
2.67158
2.67164
2.67173
2.67183
2.67194
2.67206
2.67219
2.67233
2.67246
2.67206
2.67207
2.67205
2.67207
2.6721
2.67214
2.67221
2.67229
2.67238
2.67249
2.67261
2.67273
2.67287
2.67299
2.6726
2.67263
2.67261
2.67264
2.67267
2.67272
2.67279
2.67287
2.67296
2.67307
2.67318
2.6733
2.67344
2.67355
2.67314
2.67319
2.67318
2.67322
2.67326
2.67332
2.67339
2.67347
2.67356
2.67366
2.67378
2.67389
2.67403
2.67411
2.67371
2.67377
2.67378
2.67382
2.67387
2.67394
2.67401
2.67409
2.67419
2.67429
2.6744
2.67451
2.67466
2.67471
2.67427
2.67434
2.67438
2.67444
2.67451
2.67458
2.67466
2.67474
2.67484
2.67494
2.67504
2.67515
2.67528
2.67532
2.67492
2.67496
2.67502
2.67508
2.67516
2.67524
2.67532
2.67541
2.6755
2.6756
2.6757
2.67581
2.67593
2.67604
2.66266
2.6625
2.66239
2.6623
2.66224
2.66221
2.6622
2.66221
2.66223
2.66228
2.66234
2.66241
2.66248
2.66257
2.66305
2.66286
2.66276
2.66266
2.66259
2.66255
2.66253
2.66253
2.66256
2.6626
2.66265
2.66272
2.66279
2.66289
2.66339
2.66322
2.66311
2.66301
2.66294
2.66289
2.66286
2.66287
2.66288
2.66291
2.66296
2.66302
2.66308
2.66319
2.66376
2.66359
2.66348
2.66337
2.66329
2.66324
2.66321
2.6632
2.66321
2.66324
2.66328
2.66334
2.66339
2.66349
2.6641
2.66395
2.66383
2.66373
2.66365
2.66359
2.66355
2.66354
2.66355
2.66357
2.66361
2.66366
2.66371
2.66379
2.66446
2.66431
2.6642
2.66409
2.66401
2.66395
2.66391
2.66389
2.66389
2.66391
2.66394
2.66399
2.66404
2.6641
2.6648
2.66467
2.66455
2.66445
2.66437
2.66431
2.66427
2.66425
2.66425
2.66427
2.66429
2.66433
2.66438
2.66444
2.66515
2.66504
2.66492
2.66483
2.66475
2.66469
2.66465
2.66463
2.66462
2.66463
2.66466
2.66469
2.66474
2.66479
2.6655
2.66541
2.6653
2.66521
2.66514
2.66508
2.66504
2.66502
2.66502
2.66502
2.66505
2.66508
2.66512
2.66516
2.66587
2.6658
2.66569
2.66561
2.66555
2.66549
2.66546
2.66543
2.66543
2.66543
2.66546
2.66549
2.66553
2.66556
2.66626
2.6662
2.66611
2.66604
2.66598
2.66593
2.66589
2.66587
2.66586
2.66586
2.66589
2.66591
2.66595
2.66597
2.66668
2.66663
2.66654
2.66648
2.66643
2.66638
2.66635
2.66632
2.66632
2.66632
2.66634
2.66637
2.66641
2.66641
2.66711
2.66707
2.667
2.66695
2.66691
2.66686
2.66683
2.6668
2.66679
2.66679
2.6668
2.66682
2.66685
2.66685
2.66761
2.66754
2.66748
2.66743
2.66739
2.66735
2.66732
2.66729
2.66728
2.66727
2.66728
2.6673
2.66733
2.66737
2.65744
2.65725
2.65711
2.65697
2.65686
2.65676
2.65668
2.65662
2.65657
2.65654
2.65651
2.6565
2.65649
2.65651
2.65768
2.65748
2.65734
2.6572
2.65708
2.65698
2.65689
2.65683
2.65677
2.65674
2.65671
2.6567
2.65669
2.65671
2.65789
2.6577
2.65756
2.65742
2.6573
2.65719
2.65711
2.65704
2.65698
2.65694
2.65691
2.65689
2.65687
2.65689
2.6581
2.65792
2.65777
2.65763
2.65751
2.65741
2.65732
2.65724
2.65718
2.65714
2.6571
2.65708
2.65706
2.65707
2.6583
2.65813
2.65798
2.65784
2.65772
2.65762
2.65753
2.65745
2.65739
2.65734
2.6573
2.65728
2.65725
2.65725
2.6585
2.65834
2.6582
2.65806
2.65794
2.65783
2.65774
2.65766
2.6576
2.65755
2.6575
2.65747
2.65744
2.65743
2.6587
2.65855
2.65841
2.65828
2.65816
2.65805
2.65796
2.65788
2.65782
2.65776
2.65771
2.65768
2.65765
2.65763
2.6589
2.65876
2.65863
2.6585
2.65839
2.65829
2.65819
2.65811
2.65805
2.65799
2.65794
2.6579
2.65787
2.65784
2.65911
2.65899
2.65886
2.65874
2.65863
2.65853
2.65844
2.65836
2.65829
2.65823
2.65818
2.65814
2.65811
2.65807
2.65934
2.65923
2.65911
2.65899
2.65889
2.65879
2.6587
2.65862
2.65855
2.65849
2.65844
2.65839
2.65836
2.65832
2.65958
2.65948
2.65937
2.65926
2.65916
2.65907
2.65898
2.6589
2.65883
2.65876
2.65871
2.65866
2.65863
2.65859
2.65984
2.65975
2.65964
2.65954
2.65945
2.65935
2.65927
2.65919
2.65912
2.65905
2.659
2.65894
2.65891
2.65886
2.66013
2.66004
2.65994
2.65984
2.65975
2.65966
2.65957
2.65949
2.65941
2.65934
2.65928
2.65922
2.65918
2.65913
2.66045
2.66034
2.66023
2.66014
2.66005
2.65996
2.65987
2.65979
2.65972
2.65964
2.65958
2.65951
2.65948
2.65944
2.65176
2.6516
2.65147
2.65133
2.65121
2.65109
2.65098
2.65088
2.65078
2.6507
2.65063
2.65057
2.6505
2.65045
2.65187
2.65171
2.65158
2.65145
2.65133
2.65121
2.6511
2.651
2.6509
2.65082
2.65074
2.65067
2.6506
2.65055
2.65197
2.65182
2.65169
2.65156
2.65144
2.65133
2.65122
2.65112
2.65102
2.65093
2.65085
2.65078
2.65071
2.65066
2.65207
2.65192
2.6518
2.65167
2.65155
2.65144
2.65133
2.65123
2.65113
2.65104
2.65096
2.65089
2.65081
2.65076
2.65216
2.65202
2.6519
2.65178
2.65166
2.65155
2.65145
2.65135
2.65125
2.65116
2.65107
2.651
2.65092
2.65086
2.65226
2.65213
2.65201
2.65189
2.65178
2.65167
2.65157
2.65146
2.65137
2.65127
2.65118
2.6511
2.65102
2.65096
2.65236
2.65224
2.65212
2.65201
2.6519
2.6518
2.65169
2.65159
2.65149
2.6514
2.65131
2.65122
2.65114
2.65107
2.65247
2.65235
2.65224
2.65214
2.65203
2.65193
2.65182
2.65172
2.65162
2.65153
2.65143
2.65134
2.65126
2.65118
2.65259
2.65248
2.65237
2.65227
2.65217
2.65206
2.65196
2.65186
2.65176
2.65166
2.65157
2.65147
2.65139
2.6513
2.65271
2.65261
2.65251
2.6524
2.65231
2.65221
2.65211
2.65201
2.65191
2.6518
2.65171
2.65161
2.65152
2.65143
2.65284
2.65274
2.65264
2.65254
2.65245
2.65235
2.65225
2.65215
2.65205
2.65195
2.65185
2.65175
2.65166
2.65156
2.65297
2.65288
2.65278
2.65269
2.65259
2.65249
2.65239
2.65229
2.65219
2.65209
2.65199
2.65188
2.65179
2.65169
2.65311
2.65302
2.65293
2.65283
2.65273
2.65263
2.65253
2.65243
2.65233
2.65223
2.65213
2.65202
2.65192
2.65182
2.65327
2.65317
2.65307
2.65297
2.65287
2.65277
2.65267
2.65257
2.65247
2.65237
2.65227
2.65216
2.65207
2.65196