/*--------------------------------*- C++ -*----------------------------------*\
| =========                 |                                                 |
| \\      /  F ield         | OpenFOAM: The Open Source CFD Toolbox           |
|  \\    /   O peration     | Version:  v2106                                 |
|   \\  /    A nd           | Website:  www.openfoam.com                      |
|    \\/     M anipulation  |                                                 |
\*---------------------------------------------------------------------------*/
FoamFile
{
    version     2.0;
    format      ascii;
    arch        "LSB;label=32;scalar=64";
    class       volScalarField;
    location    "0.000209";
    object      k;
}
// * * * * * * * * * * * * * * * * * * * * * * * * * * * * * * * * * * * * * //

dimensions      [0 2 -2 0 0 0 0];

internalField   nonuniform List<scalar> 
18273
(
7.12828
5.24209
4.09686
3.55098
3.65288
4.21498
5.06803
5.92668
6.59686
7.10176
7.45065
8.19195
9.43788
10.7053
5.14923
3.52426
2.52392
1.92702
1.74703
1.88444
2.30773
2.92019
3.60387
4.21823
4.92699
5.64101
6.60673
8.25136
3.73944
2.50815
1.70545
1.19076
0.956219
0.918109
1.0777
1.41837
1.8975
2.43969
2.9982
3.76022
4.41972
6.03554
2.84925
1.84011
1.20524
0.791778
0.573317
0.489623
0.531768
0.705515
1.00819
1.40445
1.83105
2.21338
2.75093
4.16849
2.18885
1.36485
0.838754
0.517143
0.344485
0.268166
0.269745
0.356033
0.540712
0.815868
1.1402
1.45739
1.84478
2.89168
1.66186
0.96229
0.5457
0.31294
0.193881
0.141002
0.134993
0.180112
0.293511
0.482103
0.726978
0.995512
1.31903
2.18674
1.20684
0.627296
0.322589
0.17073
0.0990891
0.0688538
0.0654884
0.0924033
0.165135
0.296859
0.484007
0.714352
1.03024
1.93041
0.836036
0.382733
0.175379
0.0845623
0.0460269
0.0314212
0.0319656
0.0513125
0.10237
0.199493
0.34836
0.552259
0.886156
1.91653
0.587121
0.238561
0.0965507
0.0416315
0.0211427
0.0149412
0.0181803
0.034786
0.0754624
0.153906
0.281506
0.479364
0.875741
2.08225
0.488919
0.188309
0.0706833
0.0282101
0.0139924
0.0109396
0.0155675
0.0317321
0.0689875
0.141092
0.266291
0.49275
1.02055
2.37166
0.556006
0.231109
0.0922596
0.0390412
0.0210575
0.0171486
0.0222356
0.0396892
0.0792045
0.157336
0.304999
0.616041
1.32402
2.73449
0.860501
0.43478
0.210753
0.0995539
0.0539931
0.0403493
0.0439041
0.0645715
0.112655
0.211264
0.414452
0.871779
1.79516
3.24877
1.44984
0.874566
0.515318
0.285437
0.15937
0.106678
0.0981303
0.121609
0.184007
0.315291
0.59191
1.1998
2.3071
3.83296
2.27066
1.52815
1.04554
0.693884
0.443092
0.295529
0.237366
0.247558
0.322154
0.490088
0.828653
1.56099
2.80631
4.32391
6.70422
4.55896
3.34368
2.68179
2.50446
2.61477
2.92466
3.26789
3.57043
3.8248
4.42387
5.57204
7.63832
9.78435
4.16314
2.72717
1.92974
1.47187
1.28678
1.28966
1.45104
1.70543
2.01034
2.31697
2.68945
3.44464
4.7643
6.70423
2.47409
1.65133
1.16974
0.86109
0.704897
0.663562
0.729201
0.885325
1.11789
1.39758
1.72974
2.17906
2.97392
4.34318
1.6196
1.08257
0.743759
0.525398
0.403141
0.353795
0.372282
0.458397
0.614922
0.832992
1.10193
1.42078
1.82992
2.80129
1.17626
0.746438
0.482929
0.320948
0.230249
0.188957
0.189579
0.234755
0.334842
0.49285
0.700785
0.952388
1.26308
1.91269
0.891717
0.516204
0.306155
0.188056
0.125494
0.0968143
0.0935477
0.117883
0.181053
0.292065
0.450027
0.651705
0.91124
1.39652
0.672451
0.346511
0.183781
0.102557
0.0633368
0.046268
0.0440654
0.0585015
0.0994386
0.177624
0.297812
0.462911
0.69148
1.13247
0.508089
0.229766
0.106081
0.0522978
0.029436
0.0205462
0.0202837
0.0303995
0.0589223
0.116438
0.211213
0.351156
0.56411
1.01413
0.407373
0.163204
0.0647365
0.0271465
0.0134057
0.00907417
0.010262
0.0188079
0.0413445
0.0876704
0.168141
0.296302
0.513192
1.00495
0.386619
0.145406
0.052114
0.0189733
0.00817821
0.00556169
0.00754182
0.0159147
0.0366498
0.0792829
0.156397
0.28903
0.537088
1.08944
0.45164
0.175022
0.0644453
0.0240807
0.0108945
0.0077791
0.0100678
0.0193093
0.0415712
0.0874147
0.173336
0.332008
0.636676
1.25574
0.664417
0.290035
0.123681
0.0530354
0.0264341
0.0186888
0.0204348
0.0317575
0.0592037
0.115923
0.225545
0.436039
0.821852
1.56446
1.06711
0.533234
0.271313
0.138019
0.0745851
0.0503909
0.0479437
0.0621432
0.0985518
0.173437
0.320234
0.607669
1.16658
2.09875
1.67353
0.919911
0.539147
0.324498
0.19807
0.134299
0.115336
0.129372
0.177327
0.276312
0.467882
0.863457
1.68513
2.85338
5.55438
3.66275
2.56457
1.94045
1.66571
1.59295
1.66754
1.80818
2.01167
2.20606
2.40045
2.73076
4.1678
6.90908
2.80347
1.90003
1.32959
0.994394
0.835266
0.789142
0.830756
0.92583
1.07203
1.23843
1.43636
1.71919
2.4162
4.17229
1.4792
0.985378
0.690949
0.51508
0.424803
0.393849
0.412519
0.469761
0.567479
0.697318
0.868689
1.10721
1.5682
2.49543
0.950239
0.567916
0.377857
0.273746
0.21942
0.197743
0.203691
0.23503
0.29738
0.392189
0.527286
0.718745
1.03575
1.59246
0.679318
0.361103
0.2187
0.148546
0.113313
0.0981244
0.0986132
0.114829
0.153326
0.22013
0.322024
0.47158
0.704145
1.09681
0.508704
0.242882
0.130561
0.0803092
0.0569333
0.0468879
0.0459286
0.0543614
0.0778869
0.123786
0.199495
0.315823
0.494687
0.798737
0.394111
0.170131
0.0795346
0.042605
0.0272071
0.0210609
0.0202972
0.0251348
0.0399587
0.071623
0.128075
0.219971
0.365593
0.616161
0.333201
0.130666
0.0521981
0.0231293
0.012552
0.00888895
0.008643
0.0119769
0.022208
0.0452711
0.0890806
0.164469
0.289579
0.510137
0.310189
0.113101
0.0395492
0.0142551
0.00611137
0.00376529
0.00393166
0.0067718
0.0149888
0.0337785
0.0708476
0.137387
0.252668
0.461028
0.331533
0.117258
0.0384444
0.0121546
0.00420546
0.00220799
0.00259656
0.0054736
0.0133279
0.0310958
0.0665466
0.131478
0.24687
0.457672
0.388077
0.138505
0.0463201
0.0150857
0.00543505
0.00297772
0.00342539
0.00673496
0.0154872
0.034932
0.0734988
0.143959
0.269101
0.497127
0.528847
0.199339
0.0734494
0.0276243
0.0118988
0.00728657
0.00743612
0.0116843
0.0228152
0.0468962
0.09365
0.177361
0.3225
0.586238
0.760077
0.309355
0.131808
0.0598718
0.0305265
0.0200138
0.018773
0.0245267
0.0398483
0.0719193
0.132861
0.241554
0.431233
0.761825
1.13337
0.490599
0.236792
0.127246
0.0751578
0.0523964
0.0471175
0.0548624
0.0770693
0.122278
0.206831
0.36522
0.681321
1.23119
12.5073
14.8912
16.3224
17.6521
23.0399
53.0821
10.4616
13.7224
15.8551
16.8752
21.3582
50.1453
8.7829
13.0671
15.8241
16.4406
19.9366
48.2978
7.30933
12.6409
15.9542
16.0347
18.7227
47.2871
6.15926
12.2172
15.7899
15.5482
17.5425
46.966
5.32632
11.7001
15.1776
14.9643
16.7378
47.1937
5.08413
10.7313
14.0401
14.3408
16.4913
47.9033
5.02452
9.6259
12.6375
13.7701
16.5829
48.9242
4.83831
8.33621
11.2204
13.1833
16.7278
50.1712
4.57401
7.14783
9.90713
12.5603
16.8618
51.2923
4.40071
6.33943
8.89813
11.959
17.049
52.423
4.47789
6.034
8.32078
11.4766
17.2378
53.4494
4.71553
6.06935
8.16845
11.2283
17.3312
53.4807
4.94402
6.29442
8.35436
11.351
17.8975
54.2364
12.2373
15.2976
17.2326
18.2015
21.4163
45.5044
8.74211
12.0536
15.1997
17.0597
19.9644
42.8639
6.34128
9.91399
13.9919
16.4831
18.8845
41.047
4.59254
8.31543
13.1536
16.1535
18.0725
39.8528
3.49052
7.19219
12.4538
15.7555
17.4201
39.1562
2.7548
6.437
11.7999
15.1761
17.0459
38.9698
2.41395
5.81747
10.9759
14.3477
16.7933
39.6663
2.29857
5.38151
9.94199
13.4981
16.8578
41.0637
2.2546
4.86871
8.80848
12.6993
17.1463
42.7245
2.24004
4.32425
7.723
11.9168
17.5017
44.1495
2.2827
3.9393
6.89418
11.1956
17.7849
45.0711
2.49318
3.91031
6.5233
10.6831
17.8406
45.3404
2.93258
4.25503
6.63305
10.4749
17.8146
45.1981
3.42485
4.7875
7.06008
10.5193
17.8434
45.165
10.3095
14.4882
17.7229
18.8381
20.7946
35.6544
6.45529
9.69767
13.1825
15.9429
19.1534
33.5049
4.05552
6.70051
10.1977
13.902
18.1987
31.921
2.57849
4.79868
8.18017
12.5289
17.5333
30.8268
1.83357
3.62639
6.84927
11.4411
16.647
30.2845
1.38926
2.88984
6.06037
10.7046
15.9281
30.3582
1.12049
2.42328
5.54997
10.0947
15.3764
31.3638
0.971169
2.19064
5.13164
9.45529
15.3543
33.092
0.908191
2.06413
4.6923
8.86232
15.7149
34.9049
0.898131
1.9304
4.21348
8.34047
16.0339
36.2073
0.922975
1.80864
3.81812
7.89049
16.0885
36.6529
1.00864
1.80187
3.65028
7.58965
15.8561
36.2644
1.24524
2.05186
3.83753
7.58272
15.6432
35.3259
1.58433
2.49678
4.35904
7.87449
15.3417
33.9494
4.97132
6.53246
8.78178
12.0548
19.5657
55.7293
3.29657
4.66842
6.96063
10.2749
16.8945
50.4067
2.03204
3.24505
5.58079
9.01206
15.2999
46.2215
1.24481
2.29505
4.62884
8.1564
14.3836
42.9994
0.877047
1.8229
4.04007
7.42399
13.0486
40.9648
0.693683
1.67133
3.82543
6.91167
12.0599
40.1581
0.642752
1.67528
3.75978
6.5762
11.6484
40.5533
0.695827
1.76485
3.70637
6.31278
11.7597
42.4718
0.833978
1.86222
3.57519
6.08904
12.4279
45.3561
1.03433
1.93928
3.4139
6.02658
13.7165
48.6588
1.27106
2.03497
3.37531
6.32196
15.5218
51.9394
1.55923
2.26791
3.69942
7.24674
17.8981
54.9456
1.97444
2.81811
4.68375
9.13404
21.5032
57.6219
2.61715
3.90632
6.64425
12.3872
27.0112
60.1755
3.73047
5.26772
7.46734
10.8364
18.1089
45.2118
2.24936
3.4089
5.3471
8.57144
14.9699
40.1961
1.25808
2.12302
3.80879
6.92509
13.0976
36.1369
0.751903
1.35564
2.79355
5.71871
11.5344
32.9738
0.507681
1.00726
2.23781
4.85468
10.1946
30.8373
0.375872
0.840882
1.98749
4.35945
9.39763
29.8683
0.317332
0.779244
1.88916
4.08751
9.0605
30.31
0.315335
0.789065
1.8664
3.96813
9.27705
32.2311
0.364294
0.840029
1.8635
4.00354
10.3147
35.4049
0.461216
0.917478
1.89555
4.30936
12.1985
39.2918
0.603551
1.04242
2.07669
5.08666
14.8375
43.2977
0.815898
1.30493
2.61098
6.56129
18.1041
46.9678
1.1891
1.90607
3.83262
9.01599
22.0872
50.067
1.8955
3.1879
6.17251
12.7742
27.1974
52.6007
1.86907
3.00602
4.91182
8.32003
15.2567
32.0719
1.1044
1.88282
3.32053
6.10926
11.9271
27.7496
0.604073
1.13651
2.21116
4.51261
9.49866
24.3106
0.371803
0.709729
1.49511
3.37797
7.76013
21.7869
0.247278
0.508974
1.12104
2.67355
6.59944
20.1377
0.176357
0.393203
0.914375
2.27816
5.95934
19.5532
0.139464
0.331423
0.809883
2.09681
5.85924
20.2382
0.126416
0.30767
0.77915
2.11043
6.48569
22.4241
0.135532
0.318565
0.820909
2.40038
8.06096
26.1423
0.168332
0.365873
0.966369
3.11815
10.6954
30.986
0.229499
0.470832
1.30983
4.44298
14.3091
36.1709
0.339645
0.69295
1.98458
6.46713
18.5221
40.8648
0.576247
1.19752
3.25779
9.34126
22.7208
44.4182
1.16892
2.43211
5.64068
13.0742
26.5671
46.4992
57.6543
29.6454
19.9216
14.6083
10.4931
7.87267
56.3071
27.1509
16.7582
11.4323
7.89878
5.9708
55.2815
25.1452
14.6224
9.29909
6.09668
4.49968
54.3949
23.635
13.3874
8.22771
5.16876
3.62797
52.9232
22.1279
12.8629
7.91818
4.79421
3.0811
51.1522
21.2358
12.7538
7.89617
4.56852
2.66208
49.7443
21.4798
12.7659
7.79477
4.26112
2.21783
49.2289
22.5506
12.8018
7.3706
3.74155
1.75038
49.5488
24.3067
12.809
6.7556
3.17539
1.36856
50.5562
26.3259
12.883
6.29414
2.82745
1.18859
52.1877
28.2971
13.3809
6.38218
2.89838
1.27534
54.4049
29.8948
14.1745
7.05391
3.46083
1.70446
57.2052
31.1351
15.2768
8.15586
4.42188
2.47876
60.9269
32.5199
16.6736
9.60996
5.74468
3.56985
51.6283
33.6262
22.1977
15.6596
10.6008
7.37755
50.5801
31.2965
19.1528
12.1323
7.40575
4.90802
49.4211
29.3895
16.9995
9.63079
5.25945
3.22734
48.1964
27.9738
15.4911
8.22238
4.16574
2.32556
46.9369
26.6806
14.3487
7.30121
3.58628
1.88439
45.6777
25.5509
13.2494
6.74043
3.23747
1.58736
44.5913
24.7488
12.4226
6.17928
2.88689
1.32896
44.0799
24.5517
11.885
5.6767
2.56494
1.11206
44.1481
25.122
11.7363
5.38672
2.35188
0.972185
44.9218
26.2818
12.0414
5.4262
2.35041
0.960874
46.303
27.7604
12.8557
5.88841
2.60686
1.10154
48.1743
29.2192
14.0875
6.84221
3.24433
1.49165
50.4013
30.7351
15.5204
8.08221
4.18145
2.15288
53.2175
32.5196
17.4117
9.73507
5.49468
3.1312
45.4341
34.5651
24.4514
16.3158
10.0433
5.91609
45.2362
32.9727
21.604
12.5127
6.63086
3.43989
44.6965
31.5326
19.5858
9.96907
4.68649
2.32356
44.0032
30.3468
17.6252
8.47298
3.8683
1.79545
43.1619
28.9326
15.798
7.37024
3.25308
1.41952
42.0305
27.2171
14.0096
6.36695
2.73188
1.1351
40.769
25.3336
12.3923
5.50535
2.31297
0.928124
39.7295
23.8658
11.3252
4.99039
2.08706
0.822906
39.2042
23.1807
10.9181
4.84275
2.03418
0.796807
39.4113
23.3881
11.2021
5.09079
2.18196
0.86673
40.2914
24.3134
12.0611
5.65336
2.48297
1.01574
41.6812
25.3264
13.43
6.64508
3.07554
1.33919
43.4954
26.9638
15.051
7.83712
3.86751
1.83295
45.8384
29.3288
17.3518
9.55564
5.07187
2.62932
51.2213
20.6179
16.5726
15.2592
13.5623
11.5796
49.9971
19.0558
15.7404
14.2066
12.2818
10.5258
49.1555
18.0267
15.0803
13.4165
11.2886
9.46113
48.6659
17.3736
14.6851
13.0783
10.874
9.0101
48.5548
17.0995
14.5686
13.3473
11.3866
9.25388
48.7889
17.067
14.7458
14.2346
12.6962
9.87092
49.2107
17.2735
15.2869
15.7059
14.2819
10.2558
49.5689
18.0314
16.4335
17.4218
15.3052
9.88707
49.7321
19.392
18.0555
18.7045
15.1593
8.84588
50.1135
21.1529
19.5383
18.7299
13.8462
7.66317
51.0732
23.5928
20.5828
17.8043
12.3091
6.89773
52.7251
26.5287
21.0964
16.854
11.5636
7.01523
55.1036
28.9346
22.0291
17.1222
12.086
8.0364
58.4806
31.7578
23.2128
18.3112
13.773
10.0274
44.1214
20.425
18.2576
17.0016
14.1392
11.0931
43.1615
19.9086
18.1778
15.9385
12.2906
9.40774
42.4837
19.5429
17.9769
14.9808
10.6117
7.50339
42.1196
19.3487
17.9252
14.5877
9.74318
6.52024
42.1069
19.2644
18.0986
14.8723
9.90864
6.15586
42.4365
19.3088
18.4568
15.7221
10.4879
6.05239
42.9514
19.5445
19.0367
16.6864
10.8636
6.01039
43.5181
20.1467
19.8888
17.2123
10.8635
5.73385
43.8088
21.5039
20.7268
17.0517
10.3498
5.29469
44.2465
23.6812
20.976
16.0972
9.59485
4.98366
45.4756
26.3651
21.0913
15.2172
9.16492
5.02462
47.0749
29.3789
21.4634
15.226
9.68432
5.7834
49.0391
31.7682
22.8155
16.5504
11.2373
7.32249
51.6691
35.1287
25.0014
19.1428
14.167
10.0289
35.8958
21.5764
20.5039
17.959
12.6317
8.2661
36.3145
22.4947
21.0302
16.0011
9.8139
6.08277
36.774
23.1796
21.3531
14.8736
8.20392
4.45346
37.3437
23.888
21.8789
14.6719
7.55492
3.97006
38.0825
24.6352
22.4781
14.5841
7.50818
3.92313
38.9138
25.342
22.6214
14.3247
7.54682
3.77075
39.5656
25.7493
22.0264
13.8677
7.23634
3.51677
39.8504
25.8935
21.1954
13.2403
6.87287
3.32097
40.0099
26.3158
20.3216
12.5568
6.56157
3.20316
40.4428
27.2771
19.6224
12.126
6.55584
3.31115
41.0341
28.7281
19.8532
12.4441
7.05287
3.74324
41.855
30.4557
21.0754
13.8096
8.39652
4.78645
42.896
32.1461
23.2595
16.1986
10.6138
6.59137
44.5856
35.3148
26.6457
19.9023
14.1832
9.57246
3.23825
2.14052
1.4502
1.07034
0.89949
0.841755
0.861178
0.926603
1.04718
1.20192
1.3727
1.53014
1.70691
2.244
1.54836
0.974729
0.650522
0.4767
0.400202
0.378243
0.393113
0.431768
0.499493
0.592378
0.707494
0.834339
0.998583
1.39927
0.898869
0.475446
0.29245
0.209126
0.175635
0.167717
0.176631
0.197521
0.233803
0.286943
0.359494
0.451289
0.587155
0.878058
0.606136
0.26464
0.1395
0.0928343
0.0766039
0.0734832
0.0780731
0.0885192
0.107003
0.136353
0.181185
0.246596
0.353676
0.569289
0.428104
0.162671
0.071952
0.0422169
0.0331585
0.0315932
0.0337072
0.0386518
0.0478607
0.0641069
0.092237
0.139512
0.222916
0.386552
0.312866
0.108397
0.0406988
0.0199748
0.0141912
0.0131652
0.0140494
0.0163583
0.0210632
0.0304831
0.0489959
0.0840197
0.149762
0.27704
0.240161
0.0786206
0.0258542
0.0102191
0.006063
0.00526633
0.00560453
0.00674621
0.00939381
0.01541
0.028532
0.0555002
0.108304
0.210305
0.203158
0.0643034
0.01925
0.00613031
0.00273341
0.0020417
0.0021606
0.00282889
0.00460834
0.00904166
0.0193124
0.0413392
0.0854557
0.170587
0.18754
0.0582841
0.016588
0.00455705
0.00147639
0.000828127
0.000871766
0.00138559
0.00288171
0.00674547
0.0158245
0.0354101
0.0747391
0.150071
0.196292
0.0607469
0.0170179
0.00439646
0.00116105
0.000469317
0.000496521
0.0010208
0.00257227
0.00652837
0.0156298
0.0348358
0.0728237
0.144408
0.217918
0.0668507
0.0187581
0.00494444
0.00135987
0.000574176
0.000617972
0.0012668
0.0031231
0.00768314
0.0178059
0.038483
0.0783653
0.151685
0.283993
0.0873597
0.0251607
0.00724127
0.0024761
0.00137756
0.00143987
0.00235979
0.00484144
0.0106037
0.022816
0.0468307
0.0915969
0.171415
0.383021
0.119206
0.0369108
0.012711
0.00580029
0.00400853
0.00406843
0.00551997
0.00916479
0.0170254
0.0327693
0.0624801
0.115619
0.207358
0.579782
0.187967
0.0663263
0.0281049
0.0156401
0.0118113
0.0116328
0.0141694
0.0202388
0.0322778
0.0546732
0.0950477
0.164102
0.277709
1.6917
1.12234
0.791568
0.60907
0.534968
0.523805
0.560353
0.628022
0.728073
0.851312
0.990757
1.13723
1.29649
1.59581
0.873702
0.520367
0.3487
0.262736
0.229152
0.225724
0.244914
0.281515
0.336733
0.409729
0.500309
0.605497
0.735394
0.961892
0.543506
0.266429
0.158416
0.113621
0.0976111
0.096328
0.105443
0.12351
0.151896
0.19235
0.247246
0.317926
0.415992
0.586581
0.374923
0.153327
0.0767011
0.0499996
0.0414923
0.0407276
0.0447267
0.0530438
0.0668076
0.0881954
0.120343
0.167156
0.239597
0.368757
0.268652
0.0961703
0.0399786
0.0225035
0.0174959
0.016916
0.0185831
0.0222573
0.0287404
0.0398982
0.0587994
0.0902426
0.144121
0.243193
0.198618
0.0649425
0.0228181
0.010551
0.00729912
0.00682544
0.0074878
0.00909459
0.0121919
0.018209
0.0298159
0.0517053
0.0925845
0.170197
0.152375
0.0471849
0.0145775
0.00538934
0.00305858
0.00265631
0.00290319
0.0036367
0.00524027
0.00879601
0.0165191
0.0325813
0.0645234
0.126799
0.123705
0.0372755
0.0106513
0.00322614
0.00136898
0.00101009
0.00109347
0.00147944
0.00246467
0.00491179
0.0106759
0.0233847
0.0496078
0.101522
0.107445
0.0322044
0.00892751
0.00239421
0.000748943
0.000408317
0.000433335
0.000701362
0.00147814
0.00352468
0.00849191
0.019626
0.0428371
0.0887998
0.103484
0.0314176
0.00874579
0.00225846
0.000593668
0.000236414
0.000247773
0.00051017
0.00130138
0.00338166
0.00835544
0.0193099
0.0418566
0.0858693
0.10604
0.0325807
0.00929803
0.0025001
0.000702077
0.00030447
0.000328032
0.00066147
0.00163159
0.00408627
0.00973991
0.0217827
0.0459245
0.0918655
0.126423
0.0392992
0.0116786
0.00351435
0.00127584
0.000760034
0.000819153
0.00133094
0.00270292
0.00595296
0.0130497
0.0275371
0.0555309
0.107047
0.157226
0.0501017
0.016408
0.00612151
0.00305858
0.00228019
0.00241312
0.00331354
0.00549256
0.0102144
0.019838
0.0385381
0.0730747
0.134282
0.22411
0.0765682
0.0294889
0.0137763
0.0083704
0.00676885
0.00701626
0.00879872
0.01271
0.0203269
0.0344738
0.0602348
0.104987
0.180408
0.770609
0.524536
0.390235
0.319192
0.298074
0.311821
0.355461
0.421737
0.506988
0.606927
0.719457
0.84672
0.994515
1.22697
0.421791
0.253991
0.177662
0.140076
0.127219
0.131452
0.150584
0.183151
0.228756
0.287182
0.359044
0.446491
0.556736
0.727196
0.267488
0.134395
0.0835126
0.0620234
0.0543625
0.0551075
0.062849
0.077546
0.0999896
0.131471
0.173971
0.230507
0.308844
0.433166
0.186107
0.0780578
0.0409081
0.0275401
0.0230183
0.0228235
0.0257997
0.0320518
0.0424357
0.0584893
0.0825694
0.118277
0.173133
0.264201
0.136471
0.0493179
0.0211965
0.0122685
0.00954697
0.00923003
0.0103497
0.0129247
0.0175708
0.0255827
0.0391499
0.0618906
0.100577
0.168565
0.103017
0.0334271
0.0118766
0.00559258
0.0038687
0.00360469
0.00402031
0.00507775
0.00717454
0.01127
0.0191797
0.0341589
0.0621111
0.114199
0.0791292
0.0240089
0.00736089
0.00273716
0.00155791
0.00135199
0.00150249
0.00195626
0.00297199
0.00524186
0.010206
0.0206331
0.0415965
0.0825978
0.0625538
0.0184148
0.00518042
0.00156109
0.000665234
0.000494425
0.000546484
0.000769183
0.0013469
0.00280344
0.00629929
0.0141771
0.030829
0.0644555
0.0519317
0.0153321
0.00420116
0.00111678
0.000348838
0.000192883
0.000210807
0.000354872
0.00077934
0.0019272
0.00480302
0.0114739
0.0258817
0.055327
0.0470376
0.0143584
0.00401498
0.0010372
0.000273792
0.000112866
0.000123492
0.00025986
0.000678127
0.0018135
0.00463472
0.011114
0.025019
0.0532266
0.0460439
0.0146906
0.00430753
0.00117866
0.000342886
0.000163389
0.000184751
0.000364322
0.000887655
0.00224819
0.0055005
0.0127284
0.0278465
0.0577885
0.0506921
0.017036
0.00540441
0.00172108
0.000677604
0.000449666
0.000509302
0.000813908
0.00160631
0.00350642
0.00777875
0.0168333
0.0350263
0.0697438
0.059457
0.021456
0.00782941
0.00320078
0.0017448
0.00140802
0.00156756
0.00217846
0.00356763
0.0065549
0.012743
0.0251076
0.0487232
0.0918142
0.0780474
0.0316984
0.014093
0.00731385
0.00483936
0.00421225
0.00461876
0.00597749
0.00871184
0.0139061
0.0235772
0.0414457
0.0734197
0.128846
0.411533
0.292055
0.222949
0.186653
0.177624
0.192063
0.228242
0.282635
0.35284
0.436226
0.531871
0.643185
0.776149
0.968591
0.226714
0.145627
0.10554
0.0842661
0.076237
0.0794644
0.0935281
0.118288
0.154107
0.201301
0.260799
0.335315
0.43034
0.570587
0.140818
0.0764481
0.0502939
0.0379083
0.0326628
0.0327249
0.0377722
0.0482037
0.0650144
0.0895688
0.123696
0.17047
0.235723
0.335759
0.095853
0.0428614
0.0242003
0.0167513
0.0137195
0.013259
0.0149796
0.0191521
0.0265973
0.0386864
0.057425
0.0859676
0.130016
0.201285
0.069252
0.0258916
0.0119686
0.00725376
0.00556611
0.00520728
0.00578728
0.00741948
0.0106272
0.0164539
0.0266551
0.0441319
0.073974
0.125823
0.0513556
0.0167578
0.00627246
0.0031361
0.00217413
0.0019602
0.00215952
0.00280414
0.00420419
0.00707654
0.0127959
0.0238288
0.0445762
0.0832574
0.0384756
0.0115386
0.00362284
0.00142487
0.000831602
0.000705034
0.000775912
0.0010454
0.00170081
0.00322793
0.0066593
0.0140044
0.028997
0.0586568
0.0295114
0.00856387
0.00241769
0.000752109
0.000332884
0.000246726
0.00027287
0.000402011
0.000758041
0.00168734
0.00398073
0.00927718
0.0207549
0.0444586
0.0239144
0.00704137
0.00192972
0.000516933
0.000165033
9.2862e-05
0.000103584
0.000184027
0.000430373
0.00112015
0.00290915
0.00720431
0.0168162
0.037143
0.0215923
0.00668958
0.00188124
0.000485957
0.000130008
5.66825e-05
6.47806e-05
0.000138764
0.000371112
0.00102542
0.00271983
0.00678326
0.0158979
0.0352072
0.0218873
0.00719237
0.0021338
0.000588465
0.000179821
9.71101e-05
0.000114538
0.000216036
0.000511027
0.00129961
0.00326079
0.00782012
0.0178167
0.038557
0.0249791
0.00874708
0.00283402
0.000927407
0.000396573
0.000295581
0.000349354
0.000542624
0.00102548
0.00219202
0.00489299
0.0108465
0.0233465
0.0482463
0.0306187
0.0116749
0.00440627
0.00187048
0.00109323
0.000957263
0.00111776
0.00156147
0.00250821
0.00451749
0.00874084
0.0174121
0.0345857
0.0670152
0.0407654
0.017876
0.00829129
0.00445918
0.0031071
0.00288713
0.00333379
0.00442574
0.0064793
0.0102925
0.0174121
0.0307543
0.0553446
0.099101
0.279947
0.205267
0.15692
0.129329
0.119095
0.125621
0.148931
0.188637
0.244637
0.314929
0.398098
0.496403
0.614963
0.780269
0.15298
0.104457
0.077006
0.0605749
0.0525444
0.0523792
0.0602023
0.0768391
0.103702
0.141752
0.191613
0.255458
0.338349
0.458045
0.0910022
0.053739
0.0369672
0.0277326
0.0228714
0.0216539
0.0240164
0.0305648
0.0425489
0.0615415
0.0892463
0.128252
0.183778
0.26801
0.0581665
0.0284284
0.0173699
0.0122217
0.00961924
0.00872538
0.00937439
0.0118627
0.0169719
0.0260072
0.0407955
0.064049
0.10061
0.159853
0.0391316
0.0157428
0.00810373
0.00516649
0.00385546
0.00337465
0.00354485
0.00448815
0.00663981
0.0108903
0.0187473
0.0326775
0.0569236
0.0994332
0.0270944
0.00924628
0.00386964
0.00212185
0.00146773
0.00124073
0.00128875
0.00165835
0.00259057
0.00465505
0.00897145
0.0175778
0.0341098
0.0653563
0.0191915
0.00585437
0.00199748
0.000883046
0.000536848
0.000432491
0.000449995
0.000606983
0.00104399
0.00212867
0.00466626
0.010265
0.0219635
0.0455176
0.0142895
0.00415395
0.00121849
0.000415107
0.000199285
0.000145231
0.000153847
0.000231075
0.000466598
0.00111189
0.00276007
0.00668182
0.0154122
0.0338607
0.0117586
0.0034695
0.000956018
0.000263532
8.96478e-05
5.20197e-05
5.7418e-05
0.000105834
0.000263415
0.000722861
0.0019581
0.00502837
0.0121308
0.0276182
0.0112631
0.00350449
0.000974879
0.00024946
6.87073e-05
3.26945e-05
3.86207e-05
8.27536e-05
0.000225514
0.000643378
0.0017713
0.00459182
0.0111787
0.0256753
0.0123808
0.00406943
0.00118578
0.000323754
0.000105414
6.58544e-05
8.05806e-05
0.000144292
0.000327584
0.000830641
0.00213129
0.00528716
0.012507
0.0281133
0.0151074
0.00525757
0.00167562
0.000554249
0.000260336
0.000218076
0.0002671
0.000403241
0.000727083
0.00151124
0.00337514
0.00763199
0.016921
0.0361391
0.0195226
0.00739206
0.00276398
0.00120145
0.000760759
0.000724352
0.00088035
0.00122988
0.00193166
0.00339763
0.00651401
0.0130673
0.0264557
0.0525179
0.0269112
0.0118065
0.00545541
0.0029932
0.0022124
0.00219971
0.00265291
0.00357842
0.00522592
0.00822487
0.0138318
0.0244786
0.0445819
0.0811889
0.223921
0.167569
0.127379
0.101765
0.0884509
0.0873354
0.0991439
0.125244
0.167192
0.224415
0.29579
0.382952
0.491028
0.639915
0.119085
0.0852759
0.0634204
0.0488223
0.0401967
0.0372539
0.0402215
0.0502177
0.0691418
0.0987072
0.139998
0.194911
0.268598
0.374845
0.0663233
0.0425466
0.0302911
0.0225114
0.0177349
0.0155986
0.0160842
0.0197458
0.0278193
0.0420382
0.0643196
0.0970871
0.145333
0.219239
0.0386488
0.0211171
0.0138792
0.00986039
0.00746645
0.00629646
0.00625907
0.00758494
0.0109422
0.0175464
0.0291845
0.0484114
0.0796772
0.13139
0.0233866
0.0106152
0.00615626
0.00409145
0.00296972
0.00241847
0.00234477
0.00284001
0.00425051
0.00733682
0.0134572
0.0248771
0.0454628
0.082471
0.0146063
0.00553496
0.00270133
0.00161841
0.00111228
0.000877401
0.000840495
0.00104049
0.00166404
0.00317786
0.00654339
0.013576
0.0275625
0.0546781
0.00958293
0.00313841
0.00124083
0.000628591
0.000395106
0.000300217
0.00028883
0.000380093
0.00068275
0.0014921
0.00348136
0.00804752
0.0179008
0.0382273
0.00698006
0.0021051
0.000676064
0.000264105
0.000138493
9.82006e-05
9.73935e-05
0.000146243
0.000314239
0.000800244
0.00209056
0.00526618
0.0125497
0.0283151
0.00603992
0.00180432
0.00050878
0.000149302
5.61512e-05
3.38216e-05
3.63353e-05
6.86719e-05
0.000181236
0.000523108
0.00147464
0.00391867
0.00974718
0.0227927
0.0063777
0.00196195
0.000535193
0.000136564
4.01015e-05
2.16228e-05
2.64652e-05
5.64541e-05
0.000156264
0.00045895
0.00130642
0.0035031
0.00880801
0.0208343
0.00770407
0.00245104
0.000687673
0.000186158
6.707e-05
4.93437e-05
6.2738e-05
0.000108217
0.000237352
0.000599821
0.00156894
0.00400573
0.00977545
0.0226469
0.0100289
0.0033474
0.00102952
0.000347469
0.000184857
0.00017377
0.000219618
0.000325762
0.0005674
0.00115273
0.00257494
0.00591953
0.013449
0.0295014
0.0135722
0.00494916
0.00181063
0.000817695
0.00057195
0.000589496
0.000739348
0.00103292
0.00159499
0.00275333
0.00523943
0.0105766
0.0217713
0.0441318
0.0193713
0.00830547
0.00379662
0.00215082
0.00170711
0.0018072
0.00225214
0.00306628
0.00445817
0.00695225
0.0116222
0.0206108
0.0379709
0.0702838
0.191144
0.145489
0.110488
0.0865029
0.071866
0.0666048
0.0711848
0.0874213
0.117758
0.163279
0.224033
0.301292
0.400557
0.5378
0.0984271
0.0732963
0.0550241
0.041908
0.0333066
0.0290916
0.0293651
0.0351033
0.0481983
0.0708805
0.104977
0.152508
0.218727
0.315182
0.0515634
0.0355996
0.0260331
0.0193113
0.014799
0.012323
0.0118645
0.0138273
0.0192716
0.0299288
0.0479384
0.0758619
0.118552
0.185242
0.0275626
0.0168483
0.0117082
0.00840039
0.00622432
0.00498583
0.00463123
0.0053116
0.00756399
0.0124785
0.0217965
0.0380707
0.0655929
0.112359
0.0150007
0.00785693
0.00502437
0.00344133
0.0024621
0.00190873
0.00173075
0.00198655
0.00295012
0.00527291
0.0101991
0.0198951
0.0380775
0.0717478
0.00839882
0.00369628
0.00208294
0.00133036
0.000913307
0.000687824
0.000616991
0.000728437
0.00117184
0.00234218
0.00509724
0.0111285
0.0235656
0.0483756
0.00507107
0.00186978
0.000872098
0.000493935
0.00031885
0.000233198
0.000210845
0.000268342
0.000494966
0.00114141
0.00280359
0.00676594
0.0155877
0.0342566
0.00363024
0.00115936
0.000419583
0.000189097
0.000107408
7.5183e-05
7.09101e-05
0.000105469
0.000236965
0.000635019
0.00172906
0.00450543
0.0110474
0.0255316
0.00332859
0.000993758
0.000287507
9.21553e-05
3.94131e-05
2.51058e-05
2.66163e-05
5.11046e-05
0.000140868
0.00042266
0.00123037
0.00336268
0.00857657
0.0204944
0.00382606
0.00113229
0.000297876
7.63682e-05
2.50973e-05
1.59064e-05
2.03879e-05
4.35722e-05
0.000122498
0.000368877
0.00107938
0.00297348
0.00766563
0.0185353
0.00494887
0.00148387
0.000394545
0.000107307
4.51795e-05
3.9365e-05
5.19548e-05
8.81101e-05
0.00019011
0.000482466
0.00128627
0.00336524
0.00841806
0.0199485
0.00675979
0.00211866
0.000625206
0.000222215
0.000138886
0.000145045
0.000188044
0.000276789
0.000473242
0.000951653
0.00213826
0.00499962
0.011606
0.0260123
0.00951923
0.00330018
0.00118949
0.000577484
0.000454364
0.00050183
0.000643936
0.000900132
0.00137546
0.00234976
0.00446717
0.00910763
0.0190742
0.0394056
0.0141682
0.00590889
0.00269923
0.00161843
0.00139375
0.0015573
0.001985
0.00271562
0.00393067
0.00608958
0.0101581
0.0181195
0.0338397
0.0636969
0.0654581
0.0872971
0.123398
0.175114
0.243962
0.33616
0.465465
0.0265613
0.0357708
0.0533552
0.081731
0.123313
0.183621
0.273021
0.0105283
0.0143305
0.0225091
0.0373023
0.0614782
0.0999227
0.16141
0.00405246
0.00564377
0.00943216
0.0170787
0.0311422
0.0558913
0.0992043
0.0015152
0.00221675
0.00404264
0.00813543
0.0165787
0.0330389
0.0644846
0.00055606
0.00089378
0.0018426
0.0041819
0.00951084
0.0208853
0.044249
0.00020635
0.000387729
0.000929848
0.00237584
0.00593565
0.0140946
0.0318141
8.26674e-05
0.000192313
0.000535554
0.00150663
0.00403653
0.0101469
0.023986
0.00197669
0.000578842
0.000171745
6.08589e-05
2.94176e-05
1.97625e-05
2.10508e-05
4.12151e-05
0.000117723
0.000364281
0.00108881
0.00304655
0.00794149
0.0193575
0.00240939
0.000666885
0.000166696
4.36746e-05
1.67997e-05
1.2483e-05
1.67095e-05
3.60723e-05
0.000103319
0.00031848
0.00095461
0.00269064
0.00708644
0.0174674
0.00324987
0.000893279
0.00022159
6.23553e-05
3.24411e-05
3.27786e-05
4.44773e-05
7.50118e-05
0.000161437
0.000414529
0.00112821
0.00302011
0.00772331
0.0186674
0.00458838
0.00131986
0.000373073
0.000146331
0.000109852
0.000124845
0.000164697
0.000241601
0.000409653
0.000823646
0.00187322
0.00446577
0.0105906
0.0242111
0.00671402
0.00218626
0.000785942
0.000424544
0.000376612
0.000439325
0.000572344
0.000800141
0.00121494
0.00206736
0.00395047
0.00816909
0.0174388
0.0367132
0.0105071
0.00424958
0.0019608
0.00126772
0.00118319
0.00138048
0.0017864
0.00244942
0.00353151
0.00544915
0.00910084
0.0163822
0.0310851
0.0595589
6.88118
11.1035
16.8272
23.4746
30.2571
36.5298
4.34776
7.76866
12.8992
19.6394
27.6292
36.021
3.027
5.88717
10.5735
17.3928
26.3911
36.5934
2.30368
4.71504
9.07092
15.9574
25.7576
37.4423
1.97156
4.19427
8.39245
15.4353