/*--------------------------------*- C++ -*----------------------------------*\
| =========                 |                                                 |
| \\      /  F ield         | OpenFOAM: The Open Source CFD Toolbox           |
|  \\    /   O peration     | Version:  v2106                                 |
|   \\  /    A nd           | Website:  www.openfoam.com                      |
|    \\/     M anipulation  |                                                 |
\*---------------------------------------------------------------------------*/
FoamFile
{
    version     2.0;
    format      ascii;
    arch        "LSB;label=32;scalar=64";
    class       volScalarField;
    location    "0.000146";
    object      epsilon;
}
// * * * * * * * * * * * * * * * * * * * * * * * * * * * * * * * * * * * * * //

dimensions      [0 2 -3 0 0 0 0];

internalField   nonuniform List<scalar> 
18273
(
144951
123063
105121
82255
59927.5
39426.6
26658.2
18492.4
15245.7
16756.9
23697.8
35644
52967.8
77713.8
135533
115227
93641.4
68598.1
46150.3
27934.3
17030.1
10575.7
8268.91
10202.8
17301
28606.7
42698.1
60341.9
118471
95097.2
74231.8
50269
29588.6
15522.7
8055.39
4352.62
3327.98
5222.29
11639.6
22327.1
34791.8
49144.2
91693.4
70152.2
50756.8
29275.2
13055.2
5560.71
2317.62
1081.76
934.642
2259.33
6834.91
15608.6
26595.7
38608.3
68840.1
49316.8
29623.1
12725.7
4879.85
1727.28
550.411
189.857
228.851
971.492
3768.76
10112.3
19346.1
29501.3
53025.1
35041.7
18901
9168.81
4150.36
1513.87
433.101
125.436
118.378
490.304
2061.62
6194.41
13327.5
22141.9
45343.4
30971
19729.3
12071
5963.42
2266.35
725.487
322.537
283.429
517.094
1503.18
4309.78
9788.73
17380.6
45915.9
35736.8
27252.9
18385.7
10014.5
4213.19
1621
990.371
985.659
1311.86
2172.64
4386.08
8701.24
15096.3
52043.7
44630
37460.7
27820.7
16932.3
8053.19
3628.61
2637.64
2900.92
3773.14
5158.32
7610.26
11361.2
16536.3
65602.6
59630.7
51862.7
40885.9
27500.2
14931.8
7625.76
5927.29
6814.98
8856.62
11462.8
14842.1
18341.4
22471.8
82426.1
78269
70929.7
57809
41671.4
25595.1
14706
11514.3
12998.2
16563.1
20657
25186.4
28827.3
32755.6
103588
100565
94108.6
78167.3
58825.7
39753.9
25556
19948.1
21029.1
25632.3
31106.9
37221
42371.2
48131
119503
118978
114954
97714.5
75277.7
54490.3
38703.8
30893.6
30488.9
35192.1
42228.7
50863.7
59269.1
69539.1
144873
140443
133968
115899
90277.8
67529.9
51207.8
42347.6
40824.4
45689.2
54682.4
66739.9
78494.6
95738.4
141833
126695
110174
85044
62452.5
42352.4
29808.4
22677.6
23062.8
31447.5
46503.4
65973
89650.8
116679
153836
132978
107813
77580.4
52240.6
31415.6
18700.6
12103.2
12130.7
19614.3
34176.1
51723.6
69500.7
88003.8
155938
125247
95999.8
63734.6
36919
18273.7
8710.75
4670.33
4918.74
10609.4
23234.5
39601.7
54747.1
69559.3
136519
103002
73934
42271.4
18272.1
6871.39
2480.17
1124.38
1547.22
4908.62
13625.5
27036.9
40522.1
52917.9
112416
79560.9
47231.4
19756.5
6607.73
2093.32
583.763
209.647
481.066
2165.57
7287.87
16953
28703.8
39856.4
89447.3
56641.7
27600.7
11687.7
5048.62
1772.29
484.026
159.668
252.916
1052.82
3768.45
9854.65
19167.2
29747.1
71759.4
44113.8
24655
14783
7356.72
2792.83
910.064
466.053
503.482
1033.74
2758.71
6900.58
14225.5
24097.8
64575.9
45756.2
33337.5
22977.6
12951.4
5601.26
2232.85
1504.2
1669.64
2461.56
4216.86
7925.84
14476.4
23790.5
65759.1
53429.1
45370.5
35455.8
22983.9
11449.5
5279.37
4044.13
4798.38
6758.3
9873.73
14792.7
21688.3
30493.9
75117.1
67738.1
61771.3
52795.6
38816.4
22450.5
11513
9003.51
10849.4
14933.8
20431.7
27451.6
34851.9
43059.8
87681
84709.3
82744.6
74683.9
60286.8
40365.9
23422.6
17352.2
19704.5
25964.5
33625.4
42605.8
50888.3
59851.9
108484
107978
110403
101919
86303.6
64137
42345.3
30707.9
30652.5
37499.4
46375.1
57627.3
68500.1
81403
123219
125743
134353
128292
111509
89082.5
65701
49140
44150.4
48943.4
58379.5
72069.1
86279.7
106398
144492
147702
156112
152794
134669
110642
86755.5
68185.1
59404.3
61510
71101.4
87706
102912
128305
116851
105817
93437.7
74336.7
59175.7
44064.1
33800.2
30720.1
39472.2
58670.7
80992.1
101314
118200
129540
135385
118101
98132.5
73757.6
52504.2
32592.6
19642.1
14616.7
19843.1
36061
58585.1
78767.7
92395.7
99105.2
150737
125597
99453.3
68733
40421.1
19252.9
8623.02
5102.23
7916.45
19244.4
39139.4
59622.6
72864.8
80025.2
153704
120931
87439.7
50352.5
21275.5
7208.74
2296.27
1171.32
2606.72
8820.98
22412.5
40079
54102
62229.6
151916
108968
62343.9
25415.6
7671.41
2106.31
508.808
237.487
867.21
3727.72
11400.7
24218.2
37768.4
48351.1
137972
83875.9
36233.4
13126.7
5108.4
1652.86
416.837
164.746
402.022
1652.32
5409.5
13169.3
24439.6
36891.4
111724
60942.3
28514.3
15352.8
7286.96
2651.58
849.053
489.119
643.536
1501.67
3985.86
9581.18
19346.2
32632.6
92536.5
56382.2
36974.7
24369.3
13397.5
5709.27
2297.08
1683.61
2074.97
3429.63
6395.36
12457.3
22952.4
37389.6
84799.5
61308.7
49623
38447
25089
12588.7
5885.12
4756.96
6069.54
9339.31
14909.9
23882.2
36617.1
52081.8
84706.9
70574.8
64988.7
57567.5
44385.5
26445.3
13764.3
10961.1
13819.3
20259.1
29550.6
41811.2
55795.3
71106.9
85648.9
79727
81312.8
79534.3
70790.8
51125.3
30079.3
21854.8
25088.2
34149.7
45828.5
59738.6
73861
88981.3
95398.5
95872.6
102712
104211
100719
84664
59045.4
41054.2
39056.7
47886.5
59321.4
73690.3
88857.1
105966
100588
107002
120591
126869
128561
119821
96717.5
70845.8
58448.6
61179.3
69714.1
83518.1
98830.3
120618
115029
123484
136849
146933
152140
147975
129745
102908
82420.5
76545.5
80101.5
92511.6
103968
127196
109528
150227
208007
321064
573198
113158
78322.5
107069
152771
237149
454989
77209.2
64461.4
89689.9
131634
214555
471214
64249.8
51946.8
73573
111014
195078
529451
60395.2
40691.8
57832.9
87470.9
166651
592526
60360.3
31734
44966.1
67270.2
135389
634345
62655.5
25764.9
36443.2
54020.7
112079
639236
68367.9
22380.5
31710.8
46432.6
96538.1
626838
75792.3
22543.8
31106.3
44315.9
90849.3
608529
83692.9
26974.4
35566.8
49368
97371.9
607753
92710.3
36297.4
46672.1
64714.6
119919
629947
106998
51195.5
66056.4
93282.8
162019
666418
130345
72522.9
95160.1
136886
223252
697696
161387
98358.2
130886
187524
295412
709929
173935
136510
164948
199598
263464
362479
156231
100532
127384
167747
236740
359992
133754
83001.3
107899
148064
222440
392520
118359
65282.1
85762.8
119679
194891
421932
105127
50723.9
66716.1
92098.3
159038
437559
93177.3
39965.5
53052.5
71862.3
124755
433604
83258.1
34135.5
45800.9
60610.8
98838.2
413485
76951.3
33273.5
44767.6
57518.4
87916.9
379713
76427.6
38760.9
50112.9
62254
91464.3
356211
80363
49864.7
62081.3
76338.3
110785
353114
87354.2
66098.8
81706.5
101623
146678
370864
99682.2
86575.6
107948
136586
194973
402122
121986
110552
138305
176883
245437
433542
154117
132407
165157
211898
285593
461150
182209
124081
130224
134257
151445
188684
313618
97169.5
108017
121684
144395
184530
229600
83577.5
94080.3
108473
130802
176905
169553
67947.3
78280.8
92105.7
112512
166722
127109
56348.5
67661.6
79734.6
96967.5
152700
98592.9
48116.6
61393.1
73462.8
87665.4
133820
82099.8
46531.8
62021.8
73884.1
85036.4
118745
77204.7
52868.6
70211.8
80963.5
88117.3
110831
85057.2
67080.8
84267.8
93680
97548.6
110908
107373
83843
99489.6
107620
109177
116154
142921
98985.1
112777
119102
123148
127722
191561
111987
123855
129433
141895
145659
252943
123885
133912
141140
159966
167328
315239
127456
139104
150478
171959
197088
362806
128991
169396
230224
346712
597731
115670
99029.6
131464
183836
282346
522061
78590.6
84057.9
113143
162305
264975
560806
64881.6
68747.4
92326.9
135790
243685
620757
59757.4
56614.8
74372.5
108765
215004
663842
57435.7
50281.2
64179.4
90572.3
187987
683066
56277.1
51107.2
62394.9
82760
169066
685313
56459.8
58680.8
68206.4
85496.7
165468
677380
58910.8
72147.9
81961.6
99467.9
180154
671787
64178.4
90357.4
103718
124511
207414
672403
74242.8
109708
129129
156963
238631
656183
95617.3
126661
150262
190154
275020
622920
127751
140745
166880
218874
311171
596396
157029
150859
179441
238150
333312
579477
161598
148197
181909
228626
305667
436513
162751
121654
154340
205467
293719
462084
139142
104312
130577
175765
271093
493988
121989
84356.1
103653
139338
232011
497236
107254
73092.3
87958.7
114206
195943
477066
95127.4
71739.6
84456.3
103506
171618
444050
87028
80758.1
91265.7
105123
162442
413359
83395.9
97125.2
105724
117491
171812
394546
84336.2
117401
125792
138687
198989
397784
90500.2
135701
147723
163698
233224
421451
104815
146322
163430
185930
258964
447661
132080
149103
167958
202509
277653
469457
172621
148815
169295
214577
296144
513128
213844
152673
176585
230006
321701
584593
243971
130556
139507
152275
175865
222440
322942
111552
122610
138347
163687
214920
235930
99807.9
107844
119180
141623
195919
177344
89519.9
98035.4
106736
124263
177164
141775
90675
101319
107043
118858
159784
125805
102729
114427
116859
122026
145765
127033
124752
133913
131636
129546
139248
142883
146189
149691
143285
137143
139436
171277
156215
153385
145414
143685
146064
210436
152892
147986
142188
153102
159316
257823
143392
140546
138418
161902
176789
304136
132180
131983
135582
165476
207049
339922
122581
125965
135428
168799
254598
364080
117610
124837
140623
179459
313510
377258
158629
484970
292612
218678
170534
144982
170702
547056
281623
201784
155604
132992
154520
611931
260082
175939
135155
116164
128263
667305
232157
146941
113309
95893.3
103688
707688
200712
119934
93470.3
78468.1
87935.7
727398
172704
100123
79278.3
65472.3
77773
748660
157002
89031.6
70862.4
57432.6
69186.4
775957
156634
85605.9
67651.7
54986.9
63054
787571
174414
90544.2
70160.9
58362.8
61334.5
769431
208961
107542
81241.2
69737.8
62977.8
717706
250947
138280
102787
87486.6
68089.6
645434
292318
178855
132905
110705
79889.6
560196
314194
215032
160389
130450
108444
526024
345502
253658
194075
158598
217370
377449
244117
191826
158143
140256
199287
371497
236281
187338
159269
146029
173808
390582
232946
182191
158303
146343
145224
422257
227374
172000
151121
136995
121501
445269
210786
155314
137853
123814
107257
453707
185300
137402
124401
109706
98573.5
468088
163100
122808
112381
94986.4
93636.6
499112
155075
113176
102040
84034.5
93174.3
536164
164248
109512
95303.6
79324.7
98171.8
578549
188139
114249
95062.7
82395.4
109499
612269
226632
132917
105691
92878.6
127907
644369
280531
170320
131064
114098
154715
643160
335298
219005
165243
137713
193424
623564
363166
254130
193014
159282
344586
194197
138982
121952
115879
111503
334757
161412
131984
121465
123048
125489
318831
144020
128848
123682
131192
136821
293596
138002
128859
127858
140377
146119
258840
137767
128665
136215
153186
158805
222041
138638
131655
149400
166672
165800
189161
144760
138698
156691
170289
155296
162691
155790
140714
151890
157825
133718
144595
171897
137520
139568
138349
114281
137469
194985
133921
126000
120224
102011
144099
225353
135118
117073
108211
95743.4
168183
265822
145880
116873
106179
98868.4
217129
311747
170814
130347
114362
104732
306064
348410
198156
148048
127612
116168
188979
724853
281750
171065
112587
82031.7
191930
727819
216237
124041
79283.2
59132
167808
697504
158171
86269.5
55898
41962.2
143224
657861
118227
62619
41777.7
30556
123319
636641
96739.4
50946
34794.4
24287.3
108650
638297
90378.2
47735.3
33327.6
23006.3
95641.9
650848
95604.3
50922.2
36660.4
26576
83189.2
667574
110280
59183
44994.6
35313.7
71695.6
671024
135049
73747.5
57869.1
48270.8
65639.5
634542
173447
97813.1
76232.4
66183.9
64570.6
561312
214660
130024
98960.9
85112.7
67492
482388
241992
161763
122995
104422
77511.2
408467
250980
183938
142868
120654
103925
397686
284168
220976
178473
151069
181839
427552
262107
195072
150630
119064
167391
438854
231994
165928
123838
96759.6
144839
430322
188280
130775
96438.9
74872.7
125224
407683
146610
100758
75395.6
57500
109695
389253
114896
80405.5
61620.2
44411.1
97659
386549
96874.4
69338.7
53232.4
36140.3
88745.6
401610
92539.2
66073.4
50068.1
34561.4
83913.8
430814
98430.7
68326.7
53596.5
40248.1
84627.2
458859
114611
77476.1
62521.6
51159.8
91938.8
472559
147517
94491.7
76767.6
67478.7
104604
470536
189439
121655
96651.6
85399.7
123036
465623
232530
156644
121607
105564
149476
430165
259189
186129
143275
121088
187397
385496
262395
200326
160236
135825
353055
168890
148759
139100
135639
125587
311454
152353
141195
136446
132746
120565
257658
142882
130954
133415
126273
109699
203674
135051
123789
129368
118546
97733.2
158237
130998
118763
120745
108588
82426.8
122034
130398
111190
109411
94339.2
64425.9
96535.1
132606
103420
97770.2
80259
51853.6
83214.1
137229
97797.1
90523.9
72589.8
49419.9
81071.3
149739
96689.2
88121
71379.4
54609.3
89310.8
169305
100150
89173.1
74806.5
64051.7
108357
187521
109319
93967.8
81464.7
73246.7
141509
209722
124885
103767
91600.8
85101.9
195720
225564
144452
117748
101708
93606.2
285354
226017
152386
125863
111225
101462
122682
101932
88441.3
71782.6
59414.1
44283.9
35286.7
37107
54587.5
82249.1
107187
122151
132599
147077
133890
111265
90669.5
70036.7
49678.2
29636.1
17341.1
14623.2
24199.2
46098
73154.7
95131
106306
109438
140780
117050
90831.1
63474.6
35837
15875.1
6547.72
4271.87
8693.53
22549.9
45457.5
69126.5
83470.6
88758.9
147617
119043
81944.4
45133.6
18346.8
5564.04
1522.86
821.816
2562.71
9508.4
24606.6
44743.3
60950.4
68577.8
161862
114159
61319.4
23778.7
6993
1623.56
328.97
160.297
753.542
3606.36
11638.2
25302.6
39901.1
52278.9
161695
93264
38774.8
12913
4236.38
1184.62
265.537
100.753
293.438
1310.33
4528.24
11718.9
23306.1
38340.7
138584
69232.8
28841.1
13134.3
5441.24
1807.47
542.097
312.886
445.955
1155.27
3297.22
8519.95
18789.5
35644.5
112233
59710.3
34217.5
19989
10020.4
3968.74
1553.34
1154.8
1490.49
2687.21
5479.99
11843.3
24310.3
44832.2
98743.9
63273.2
46258.9
32707.9
19626.2
9268.18
4287.54
3483.41
4597.58
7630
13278.2
23764.8
40862.9
65273.3
95163.3
71506.7
61313.4
50966.9
36717.6
20859.4
10785
8589.53
11123.5
17528
27664.1
43004
62827.2
88058.5
91115.9
78142.2
76539.5
72439.6
62194.4
42971.5
24988.1
18401.3
21652.8
31449.2
45084.6
62886.3
82685.6
104147
96562.8
91369
93833.6
95262.2
93654.8
78004
53541.8
36951.8
36126
46381
60081.2
77435.4
95993.3
115180
97040.1
101681
111566
117665
125105
120641
98125
71231.6
57770.1
61766.5
71683.3
87293.4
104545
127487
114453
121811
129248
136372
149281
158420
146567
117681
91672.2
82548.1
83750.2
96367.3
108860
138310
130113
99912.9
82137
64782.6
51078
35827.8
26705.7
26554.7
39708.1
63318.5
87773.6
104880
115181
127449
122647
99916.6
78566.1
58896.3
39107.4
21608
11803.9
9394.84
15320.5
31105.4
53941.4
76173.9
91285.3
98562.1
121977
99211.5
72409.9
46963.6
24696.3
10081.8
3900.81
2500.19
4885.13
13454.4
30210.9
51657
69794.5
79531.7
131072
97162.3
59205.3
28948.7
10928.3
3090.26
802.39
431.23
1308.53
5170.73
14990.7
30969.4
47966.5
59675.1
140362
86897.7
40549.6
14237.8
4066.11
940.503
186.858
79.8419
377.542
1935.02
6834.89
16680.5
29825.3
42350.2
133641
67170.7
25196.8
8433.12
2694.64
721.543
153.388
50.7697
145.955
694.993
2572.48
7233.35
15738.8
28280.7
110765
49373
20103
8792.08
3337.62
1023.48
289.834
157.542
213.572
574.486
1776.66
4955.33
11822
24650.6
89187
44473.7
24554.8
13111.9
5877.05
2121.18
816.572
606.287
739.507
1305.04
2772.34
6498.19
14723.4
30770.5
80316.7
49330.2
34244.8
21930.9
11597.8
4949.96
2302.02
1918.23
2426.62
3948.74
7043.89
13622.2
26024.3
47225.8
81452.6
58933.1
47900
36262
22870.1
11586.3
5957.27
4982.97
6358.43
10028
16415.2
27527.4
44445.5
68778
82417.8
68305.8
62864.3
55099.8
41796.5
25453.8
14253.7
11167.6
13498.2
20089.1
30216
45043.9
63671.1
86729.2
91616.6
81488.3
79224.7
77142.7
69640.8
51765.8
32474.4
23072.7
24236.4
32683.5
44729.9
60801.3
78251
97866.4
94637.5
93847.2
96159.9
100073
102980
91295.3
67278.2
47167
40228.8
46411.1
56789.5
72427.6
87784.6
106467
118324
114574
112023
119847
133583
135459
116573
88856.5
68252.3
64027.4
68053.9
82749.9
94826.7
117349
111776
83500.1
65243.9
49295.6
35612.8
22434.3
14543.3
11737.6
15351.1
26219
42200.3
58679
72926.2
87312.3
92269.8
72760.3
54613.5
38109.5
23731.8
12022.2
5980.36
3977.89
5244.07
10908.3
22311.6
37943.8
54086.7
66505.9
89214.6
65210.1
42773
24730.8
12309.4
4799.3
1749.45
977.949
1505.14
4239.22
11393.3
23990.6
39468.6
52719.9
89613.2
56279.8
29562
12851.6
4665.05
1304.09
319.815
145.997
357.464
1536.59
5374.38
13648.8
25810.9
38331.3
84703.8
44335.2
18265.5
6236.42
1886.54
467.578
91.0385
25.1533
99.0909
584.087
2441.75
7151.35
15349.7
25613.7
72150.6
31938.3
11850.9
4332.47
1464.59
389.274
79.5907
20.3185
44.8235
236.47
985.907
3094.04
7561.07
14958.8
56939.6
24626.5
10945.8
4827.32
1799.88
522.895
140.579
69.2404
79.9635
202.964
670.035
2015.49
5109.94
11238.1
48912
25740.8
14177.7
7162.46
2958.66
1000.51
380.483
274.852
303.118
476.731
970.307
2316.3
5441.95
12226
49258.2
31733.6
20560.9
11837.2
5565.36
2216.02
1062.5
893.739
1042.43
1520.19
2500.48
4726.97
9304.05
18762.3
55150.9
40577.3
29925.2
19734.5
10801.2
5032.28
2719.03
2386.49
2889.02
4192.23
6457.51
10671.3
17848.1
30702.5
60822.7
49763.6
40983.9
31051.3
20048.8
10954.8
6345.94
5450.39
6575.61
9376.9
13745.5
20570.5
30182.2
44969.3
72538.4
61342.7
54183.8
46751
35760
23029.9
14063.4
11185.9
12641.9
17172.3
23695.7
32647.8
43204.8
57477
80281.5
73562.4
68723.6
66093.2
58637.1
44529.2
30048.4
22072
21671.8
26788.2
34154.6
44185.7
54308.5
67079.8
103147
87738.6
83005.9
86731.6
86499.2
75957.8
58272.5
43227.3
36110.2
38417.5
43940.4
54210
63283.3
77616.5
79161.5
57184
42009
28701.3
17894.5
9852.17
5759.12
3990.97
4020.61
6333.13
11994.7
21124.8
33094.2
47826.4
61590.9
41724.1
27396.9
16222.3
8764.58
4029.94
1939.9
1224.26
1264.42
2229.29
5204.8
11450.1
21499.5
34574.8
52712.1
30455.9
16239.5
7709.86
3336.22
1194.29
440.927
252.721
314.96
780.427
2430.86
6633.17
14459.9
25521.9
44057.1
21685
9225.41
3380.26
1100.98
288.274
71.5172
32.3333
62.2632
262.456
1095.48
3560.76
8805.86
17066.2
35052.7
15130.2
5655.51
1948.79
616.526
155.442
29.8493
6.11087
15.825
101.724
503.536
1822.48
4936.08
10376.6
26745.4
11172
4435.97
1699.42
561.571
140.702
27.0806
5.63701
8.09926
45.1956
220.961
817.154
2367.74
5536.84
21727
10055.6
4617.82
1902
640.647
169.153
42.393
19.4314
18.9068
41.8086
150.163
519.507
1503.4
3684.8
21984.3
11991.8
6048.7
2639.91
940.231
289.566
111.027
81.7036
82.0849
110.769
210.144
527.782
1358.28
3347.14
26418.9
16128.5
8877.81
4189.72
1654.66
616.922
323.11
286.015
309.042
397.971
587.456
1059.51
2129.56
4744.22
33843
22383.7
13486.1
7057.72
3199.27
1421.08
870.922
822.076
936.752
1232.74
1743.23
2728.47
4555.91
8667.68
40832.1
29687.4
19914.1
11841.7
6241.99
3207.05
2104.92
2003.77
2350.15
3144.25
4386.5
6377.61
9447.71
15555.9
50648.7
39054.3
29184.6
19969.4
12258.8
7095.82
4723.18
4312.71
5015.99
6689.35
9135.61
12563.9
17000.3
24766
60151.7
49655.7
41200.8
32238
22790
14833.1
10091.6
8581.56
9406.78
12162.2
16034
21088.8
26677.1
35230.3
75470.3
62220.5
55995.8
49294.2
39465.8
28778.5
20463
16399.1
16132.6
19476.3
24341.9
30745.5
37033.1
46575.8
50424.6
31434.4
19859.7
11738
6503.03
3306.84
1857.53
1244.73
1029.9
1218.54
2336.23
5261.57
10867.2
19959.3
35926.8
18616.1
9566.18
4659.33
2184.69
955.596
477.462
319.693
287.673
363.937
805.083
2287.42
5940.17
13133.8
25437.1
10956.1
4387.4
1637.29
594.563
202.678
82.2051
54.2587
57.4817
102.969
329.309
1185.56
3595.78
8786.92
17598.4
6661.32
2271.76
726.51
220.663
57.4757
14.2192
6.25612
8.17745
27.3206
136.019
594.468
2017.85
5329.15
12098.1
4505.16
1649.5
596.828
194.494
49.2345
9.05398
1.42626
1.49248
9.84419
62.0584
295.393
1066.05
2980.52
8976.55
3777.34
1591.66
610.944
195.263
47.5087
8.6704
1.44126
0.9166
4.85668
30.6168
144.375
524.548
1525.23
8196.54
3969.84
1759.53
667.853
208.464
51.1663
11.4712
4.43716
3.54604
5.73948
21.5479
92.1398
326.512
953.53
9710.52
4966.22
2221.36
843.705
266.292
73.515
26.73
19.4913
18.3773
20.6411
33.1109
86.5278
257.747
737.366
12888
6789.32
3108.42
1211.65
406.899
141.655
80.2871
74.922
76.939
87.1627
110.672
180.671
364.984
911.631
17627.1
9694.76
4669.65
1948.54
742.206
329.108
234.657
237.748
258.346
306.645
387.985
550.001
874.707
1805.61
23350.6
13753.9
7213
3360.45
1488.65
783.046
611.581
636.379
721.742
892.903
1154.85
1571.92
2258.98
4025.43
31337.7
20057.5
11823.3
6332.21
3223.04
1847.44
1440.66
1481.26
1722.24
2194.41
2876.18
3839.9
5196.32
8200.24
40868.1
28948
19461.1
11971.2
6901.1
4189.37
3153.72
3093.06
3582.69
4631.57
6094.63
8032.69
10425.7
14792
53790
42335.4
32243.4
22451.3
14468.8
9217.81
6630.36
5991.38
6625.67
8514.82
11142.6
14513.6
18294.9
23887.5
29015.6
14504.4
7252.19
3542.33
1672.94
770.434
424.599
294.564
243.17
233.65
360.408
927.121
2556
6347.41
18314.9
7213.28
2650.38
950.119
348.685
136.653
75.2646
58.9249
55.909
59.7965
103.052
335.038
1183.15
3682.35
10479.3
3414.12
968.728
256.616
69.1739
20.4233
9.91724
8.36898
9.07821
12.9274
36.659
161.488
662.117
2257.63
5895.96
1818.87
530.178
155.143
43.7419
10.3765
2.278
0.975134
1.07188
2.55457
13.5469
76.707
347.711
1253.16
3688.6
1312.85
481.136
168.424
50.4363
11.5697
1.95037
0.272421
0.14632
0.774433
5.93006
36.1041
170.032
634.005
2935.95
1249.05
503.936
177.734
51.5009
11.5142
1.94335
0.292615
0.109877
0.372346
2.92292
18.2609
85.8407
318.284
3066.5
1393.83
551.983
185.61
51.4017
11.3077
2.2782
0.824016
0.609371
0.680089
2.0717
11.0773
51.1181
189.237
3978.87
1774.2
676.165
218.157
58.9043
14.1828
4.9922
3.82451
3.53431
3.46306
4.23302
10.2112
36.2627
129.598
5586.15
2447.8
914.447
289.629
80.385
25.6636
16.2851
16.3301
16.3342
16.8855
18.3928
25.7732
49.6094
139.979
8167.92
3612.3
1374.15
451.277
142.05
63.8362
53.8068
58.1533
61.186
67.2666
76.6441
97.9904
142.199
299.806
11656.2
5397.78
2195.49
797.151
299.799
169.908
157.678
174.822
192.325
223.893
269.462
344.137
468.667
851.485
16959
8668.33
3989.04
1675.56
730.874
445.909
409.505
454.315
519.661
636.84
801.27
1037.29
1383.4
2273.56
24897.8
14592.6
7768.55
3769
1824.49
1117.05
967.282
1046.66
1228.41
1572.44
2049.41
2693.81
3540.73
5265.38
37303.7
25627.4
15729.6
8670.79
4553.79
2714.02
2142.58
2185.81
2565.58
3394.11
4541.38
6067.88
7899.35
10707.9
14210.7
5543.17
2081.89
783.381
306.351
130.413
72.0417
51.7941
45.2321
42.329
51.1771
126.184
433.191
1471.05
7312.09
2219.96
586.455
148.971
41.3959
14.8159
8.97634
7.87292
8.19139
8.84927
11.9923
38.9891
178.986
777.816
3200.35
805.796
176.319
36.9824
8.1414
2.04692
0.94733
0.911332
1.08606
1.43862
3.38501
17.4187
95.0078
446.287
1519.77
418.236
116.582
33.2456
8.78691
1.86811
0.316589
0.10083
0.111232
0.202674
0.999083
7.35677
45.413
225.226
1014.82
354.775
123.968
39.5165
10.4986
2.13976
0.310304
0.0350309
0.0117382
0.0426489
0.382626
3.0936
19.4672
98.5731
920.894
367.16
132.371
41.0108
10.3724
2.04165
0.295719
0.0367552
0.00971059
0.0198679
0.180576
1.52024
9.58566
47.1621
1073.46
428.565
146.804
42.5011
10.0773
1.90159
0.315672
0.0968558
0.0663511
0.0627416
0.149359
0.944895
5.71161
27.4863
1485.51
566.276
183.208
49.9358
11.305
2.26072
0.683884
0.502436
0.445754
0.420239
0.460288
1.01095
4.13523
18.7583
2172.48
798.916
249.58
65.8339
15.0499
4.06394
2.51535
2.50255
2.41024
2.44226
2.58648
3.43194
6.27554
19.8517
3283.13
1198.14
374.763
100.9
26.2621
11.0375
9.70664
10.4845
10.6644
11.5863
13.0751
16.44
22.2542
45.8898
4843.71
1824.04
598.375
175.501
56.7847
33.2938
33.2187
37.1415
39.7584
46.1269
55.5934
70.5789
91.2574
160.008
7530.76
3139.26
1152.12
386.538
149.656
98.9166
99.8826
113.45
127.573
157.358
200.475
259.163
333.27
540.464
12417
6058.77
2562.99
978.621
417.329
276.425
269.088
305.132
357.955
466.361
622.036
823.924
1063.05
1589.47
21638.3
12553.9
6146.11
2641.28
1177.5
733.777
662.094
732.762
883.653
1207.55
1674.93
2286.86
2985.22
4096.22
7.80271
6.56923
5.47313
5.13253
11.7646
51.3591
239.663
0.902473
0.883805
0.841621
0.943862
3.40039
21.2609
128.448
0.0800088
0.0891517
0.0989696
0.214934
1.49805
11.198
71.645
0.00749511
0.00727255
0.0105166
0.0530814
0.547429
4.7463
32.7238
0.003277
0.00066103
0.00148472
0.016555
0.195934
1.75875
12.3225
0.00379805
0.000977463
0.00093863
0.00601326
0.0742393
0.703114
5.01903
0.0109332
0.00805521
0.00717549
0.00833423
0.0378518
0.324821
2.366
0.0649568
0.0618475
0.0598831
0.0572759
0.0754585
0.226332
1.39915
703.199
215.49
56.4303
12.551
2.43015
0.577365
0.358303
0.378937
0.387338
0.401068
0.407521
0.470176
0.618333
1.72305
1072.18
320.547
82.7998
18.5916
4.17201
1.73326
1.63219
1.87239
2.00168
2.19606
2.39197
2.80586
3.26028
5.62284
1616.54
489.63
129.764
31.5621
9.43378
6.07595
6.59756
7.83345
8.73549
10.1236
11.7715
14.1153
16.3855
25.1719
2653.57
876.236
252.48
70.2408
27.0828
20.818
23.2392
28.1455
32.7617
40.0662
49.3593
60.6299
71.4136
104.726
4959.74
1906.49
615.863
190.899
82.979
65.7255
72.373
88.3291
107.093
137.883
178.799
227.411
274.616
381.442
10286.5
4693.21
1730.89
579.538
254.837
191.164
201.441
244.443
306.768
415.179
565.487
751.897
944.718
1238.94
103224
106755
108773
115435
131330
114017
87190.8
93875.5
102784
112472
127642
110841
81507.2
89549.4
100822
111773
122454
100662
72475.7
85788.4
103811
115819
119310
89767.7
68238.7
87578
110872
120065
116621
81868.6
61646.8
91940.3
118803
123652
115992
79367.6
61941.6
102618
128737
130030
121716
84035
74522
121373
143617
141497
133405
96710.9
99337.5
143180
158868
154296
145854
112905
124394
156734
166962
163241
154282
125035
137867
158788
167342
166747
159801
135716
139878
155406
165689
169948
166208
145129
139537
152000
164245
174248
171939
142536
139976
147788
156992
170622
171139
131938
118580
120480
112127
103996
97928.2
88919.3
88691.2
97753.4
103945
103175
95688.2
83796.6
80869.9
91785.3
102964
105448
95027.8
79848.4
68796.1
84707.1
103849
109515
95015.9
76816.3
62687.4
84189.2
108233
111840
92971.3
72698.9
53796.5
83813.9
111370
111259
90638.4
70871.6
51107.5
91042.8
117912
112635
91984.3
74118.5
59852
106974
128885
117752
98123.2
82826.7
81265.7
125560
138068
123972
107192
94912.8
105093
138156
142610
128434
115501
106380
121794
142658
143547
132341
119773
112019
127506
141110
141124
130597
118737
110332
127081
137343
138057
129538
118309
107263
127299
133242
133051
128864
120385
107359
119546
128111
123840
113955
99737
85053
81999.8
94172.7
104919
108692
99034
80569.6
70620.9
83310.9
98149.6
105930
97000.2
77492.7
55747.9
69263.5
89153.7
102569
93962.1
74784.4
46571.4
62769.9
85308.5
99490.7
88974.8
70275.3
35601.1
55626.3
81492.7
94364.7
82202.9
65346.1
28787.9
54349.5
82083.2
91320.4
78417.3
63694.3
28373.9
59730.8
87491.3
92414.5
79899.1
68457
37373.6
71840.2
95112.2
95992.9
85814.9
78056.1
52889.4
85102
102338
100982
93045.6
87821.2
69246.3
95573
107092
103782
96890.8
92826.4
82013.8
101452
107878
102064
94932.3
90808.2
88517.2
101974
103713
96163.1
89288.8
84652.3
95165.5
103122
99875.9
91719.6
85779.7
80701.5
95409.4
111848
114683
111263
107024
97230.3
66932
77964
88349.2
97848.9
103362
95560.4
53868.9
65293.2
76832.4
88694.7
95831.3
90488.8
40254
50827.8
62977.7
77810.3
86588.4
83808.1
29245.9
41116.8
54398.4
70202
78441.4
75572.1
19065.4
30876.4
45912.6
63157.8
71051.6
66957.3
12830.1
24580.6
41545.6
59531.8
66271.8
61244.1
10002.1
22651.7
41924.1
59738.4
65742.5
62040.9
11015.7
26586.6
48179.7
65022.7
70995.9
70249.9
16300.7
35570.1
58242
74098.1
80579
81746.5
25520.1
47458.3
69876.9
83767
89027.7
89647.4
37139.9
59586.2
79405
89103.2
91273.5
89528.6
48917.8
69119.9
83415.8
87352.1
85874.4
81736.2
61320.8
76772.6
83638.6
82429.9
79317
74918.6
60263.9
78693.5
92297.2
102390
109318
109791
46087.7
60789.7
71064
83450.8
98137
104941
34307.3
48234.8
59251.9
71275.9
85126.7
94745
23376.8
35841.7
46451
58126.9
70936.3
82222.8
14906.1
25389.3
36421.5
48258.2
60059.5
70094.7
8603.57
16610.3
26922.7
39161.3
50924.3
59379.4
5207.15
11318.5
20529.6
33057.7
45226.1
52439.2
3540.82
8512.46
17470.9
30613.6
43698.3
50834.8
3048.6
8296.99
18838.5
33911.7
48185.5
57251.7
3870.16
11100.5
24804.8
42386
58366.2
70198
6712.33
17284.6
34797.1
54699.3
71613.4
83473.2
12297.1
26773.4
46816.1
66224.9
80902.8
90037.1
20571.8
37641.3
57089.7
72547.6
81902.4
85500.9
31938.3
48700.5
63326.7
71825.4
76290.9
77235.8
35561.7
58161.1
76838.7
92464.7
108692
121883
25102.5
44171
60657
74107.6
90036
108465
17078.5
32309.3
47447.3
60229.5
74961.9
92998.6
10602.5
21809.8
34724.4
46390
59886.3
76504
6018.83
13768.3
23796
34935.7
47209.6
62122
3104.37
7931.65
15286.9
25145.3
36225.2
49033.2
1728.67
4801.52
10177.9
18338.9
28551.2
39513.9
1104.46
3168.43
7298.52
14406.1
24496
34929
849.067
2563.81
6575.75
14237.9
25621.4
37718.1
856.621
2909.94
8200.66
18294.7
32678.5
48748.1
1364.13
4701.73
12799
26972.3
45669.8
65317.3
2965.61
8921.6
21164.8
39322.3
60030.7
78892.6
6594.59
16028.6
31704.6
50872.8
69662.7
84920.8
13712.8
26374.2
42884.1
58704.6
71260.1
79030.2
17214.6
35994.8
59670.9
81783.3
101901
120956
10471.3
25311.3
45030.7
64434.4
82464.1
102470
6321.51
16793.6
32069.9
48910.8
65824.8
85331.2
3541.32
10370.7
21468.8
35374.6
49820.7
67520.6
1812.54
5998.33
13612.3
24110
36417.1
51584.1
865.399
3179.26
7963.07
15555.1
25611.7
37848.2
451.14
1758.49
4793.87
10198
18045.5
28222
274.632
1053.84
3023.88
6912.64
13342
22076.1
204.365
767.467
2311.54
5712.58
11977.8
21024.2
185.17
736.215
2429.25
6518.58
14350.6
26493.1
246.775
1061.68
3648.98
9873.8
21551.9
39131
545.201
2188.57
6918.92
17005.1
33619.2
55266.3
1503.79
4975.62
13016.6
27078.8
46466.4
67826
4320.62
10890.5
22507.2
38350.3
55781.1
71123.4
3069.58
10714.4
26094.2
47061.4
69194
89830.2
1586.07
6387.88
17004.3
33122.7
51936
71546.3
766.726
3536.38
10395.4
21997.8
37106.5
53895.8
345.87
1831.53
6038.87
13935.7
24956.8
38784
160.569
919.841
3305.93
8279.99
16137
26813
88.6154
501.029
1886.3
5057.49
10518.9
18482.5
56.4371
294.777
1114.68
3115.48
6890.42
12873.9
39.7902
197.081
743.941
2156.69
5118.44
10260.6
31.1904
157.854
625.501
1960.07
5060.48
11123.1
32.9744
182.884
785.022
2649.71
7299.92
16940.4
68.7363
371.695
1556.42
5085.03
13289
28422.2
228.22
1040.36
3695.78
10289.8
22939.3
41980.8
884.885
3070.93
8493.89
18784.6
34099.1
52093
143469
144748
144824
149861
154749
122880
105145
112452
120099
130516
142476
121475
89994.4
96886.1
104820
114555
126593
111561
73150.6
81739.8
92277.9
102323
112725
96200.8
63082
75682.3
88491.5
98069.5
104704
82561.2
55466.2
75133