/*--------------------------------*- C++ -*----------------------------------*\
| =========                 |                                                 |
| \\      /  F ield         | OpenFOAM: The Open Source CFD Toolbox           |
|  \\    /   O peration     | Version:  v2106                                 |
|   \\  /    A nd           | Website:  www.openfoam.com                      |
|    \\/     M anipulation  |                                                 |
\*---------------------------------------------------------------------------*/
FoamFile
{
    version     2.0;
    format      ascii;
    arch        "LSB;label=32;scalar=64";
    class       volScalarField;
    location    "0.0002";
    object      epsilon;
}
// * * * * * * * * * * * * * * * * * * * * * * * * * * * * * * * * * * * * * //

dimensions      [0 2 -3 0 0 0 0];

internalField   nonuniform List<scalar> 
144746
(
115731
80234.5
60308.8
47925.4
48697.9
63607.8
96172.8
145323
197729
231868
231222
210327
199472
199051
107497
69985.5
46040.3
30386.5
25246.6
28037.3
41197.2
65907.6
99407.3
131024
151043
154344
145706
155741
101424
62439.5
36326.8
20695.5
14421.5
13312.8
17797
29101.2
47094.7
68193.3
86328
102472
105694
126292
89323
49038
26111.3
13994.6
8678.52
6904.24
8169.13
13296.2
22771
35061.1
47034.2
56486.1
66663.9
94341.3
67328
34365.9
17035.7
8601.14
4949.84
3594.4
3889.52
6295.85
11468
18975.6
27088.4
34134.6
43572
74270.4
44747.6
21074.9
9675.24
4607.45
2522.15
1760.58
1868.38
3129.48
6127.07
10954.5
16784.1
22850.4
31677.7
61842.6
26294
11220.7
4739.23
2134.6
1133.56
802.247
924.648
1714.63
3623.82
6928.23
11368.1
16826.5
26579.9
67177.3
14210.2
5410.74
2082.43
888.636
470.24
369.794
528.668
1126.81
2505.67
4966.87
8590
13906.7
26944.9
84610.3
8051.66
2776.76
984.252
409.8
233.427
231.222
414.116
937.863
2073.58
4126.24
7451.72
13730.7
34161.6
111847
6449.76
2249.12
814.57
378.88
255.338
279.045
476.85
988.99
2065.13
4085.87
7905.43
17405.1
50427.6
138838
9197.68
3836.77
1516.86
767.079
553.108
555.623
773.386
1349.03
2580.52
5094.81
10688.6
27285
73687.6
154460
19287.3
11351
5654.94
2615.82
1544.38
1328.56
1564.63
2324.61
4001.2
7693.66
16946.9
43911.4
95621.1
161449
37886.4
28748.5
18534
9889.68
5203.42
3523.92
3420.71
4411.99
6794.31
12154.2
25263.5
57572.9
104901
161981
63083.4
54788.8
43131.3
29332.3
17951.3
11196.5
8582.15
8943.24
11887.6
18996.3
34380.2
66504.9
108013
157153
111297
71298.3
50589.6
38445.6
36018.2
41273.3
55786.1
77335.7
101191
122887
145047
173322
207744
240839
84190.6
52062
34244.1
23426
19402
20083.9
26518.3
38650.6
54914.4
72184.5
88674.8
107616
130949
159905
64225
38800.6
24177.6
15357.4
11297.8
10347
12758.3
19038.2
29090.6
41499.6
54400.9
67711.8
83929.7
111050
47524.8
28502.4
16822.2
10003.3
6689.14
5498.06
6251.82
9398.58
15385.7
23602.7
32681.1
41736.1
50965.7
74141
33743.4
19471.2
10816.8
6045.27
3761.4
2861.16
3052.18
4636.4
8153.37
13550.1
19972.3
26632.6
34000.9
53588.8
22433.2
12014.8
6205.03
3259.61
1918.56
1394.77
1459.67
2314.98
4418.57
7966.66
12598
17910.5
24633.3
40538.6
13643.2
6573.22
3114.49
1540
870.644
628.442
696.893
1227.26
2565.83
4984.18
8436.7
12895.7
19474.5
36645
7754.43
3267.41
1394.3
645.502
356.561
274.121
365.992
758.349
1710.37
3491.47
6245.78
10250.2
17401
39110.2
4755.5
1732.34
646.944
275.144
153.452
143.347
252.743
592.68
1370.36
2844.28
5301.6
9435.5
18512.4
47292.3
4157.24
1431.1
494.91
207.196
127.373
140.223
262.399
597.358
1337.75
2774.06
5402.86
10585.1
23677.6
59577.1
5939.98
2309.31
857.673
393.648
263.743
268.227
407.842
789.886
1637.76
3355.83
6784.62
14465.6
32776.6
73370.9
12157.4
6227.87
2829.04
1261.87
750.111
666.098
833.257
1343.3
2482.71
4856.65
9914.92
21590.3
45777.2
90483.7
24772.1
15878.9
9056.48
4516.32
2376.59
1742.51
1852.88
2563.19
4164.17
7482.5
14600.5
30719.2
62981.6
113427
44412.5
32068.5
21867.8
13351.5
7666.12
4944.65
4300.51
5053.71
7186.05
11578.4
20701.2
41370.9
82669.2
138433
96093.1
60795.7
42510.4
31916.2
28204.7
28204.6
32373.6
39589.3
49350.9
59577.2
72144
95582.2
153715
247984
54979.8
35716
24393.9
17603.9
14691.7
14108.1
16035.7
20252.8
26719.1
34598.2
44991.5
61776.5
93734.5
144204
32315
21629.7
14608.4
10131.5
7937.47
7209.3
7974.9
10331
14558.6
20458.5
28387.4
39951.2
58563.9
88573.4
20434.4
13498.2
8846.31
5862.3
4314.64
3695.04
3943.71
5219.64
7916.53
12116.6
17893.4
25744.5
36961.6
56048.1
13485.3
8348
5177.55
3252.78
2257.01
1833.69
1898.31
2586.52
4264.03
7146.83
11272.7
16829.2
24517
37943.8
8947
4957.23
2822.06
1663.14
1092.52
853.165
877.078
1265.57
2304.39
4247.22
7205.27
11331.6
17201.5
27813.8
5893.03
2803
1412.76
766.946
477.892
366.212
394.352
639.744
1310.69
2646.76
4827.99
8071.56
13000.7
22238
4063.23
1601.47
677.58
324.913
189.904
148.786
187.566
370.168
851.09
1840.79
3560.41
6308.01
10829.4
19779.3
3199.83
1063.4
363.647
143.656
76.5444
67.4841
114.388
274.778
674.52
1503.23
3010.54
5590.91
10190.2
19706.8
3207.91
1009.06
308.598
106.141
53.8552
55.2147
109.097
271.258
660.322
1468.92
2993.88
5755.08
10929.1
21760.6
4172.75
1452.44
487.918
186.699
105.023
102.461
166.422
355.591
802.444
1736.92
3540.01
6870.98
13050.7
25886.3
7158.12
3049.38
1254.39
539.648
306.968
268.927
350.232
606.609
1200.79
2431.34
4796.74
9106.07
16954.2
33715
13254.7
6801.15
3428.26
1675.24
930.164
733.04
824.357
1197.33
2032.4
3718.88
6941.29
12925.6
24747.8
47640.1
24052.2
13688.3
7974.54
4503.95
2641.44
1931.59
1933.07
2458.45
3640.99
5957.23
10385.4
19633.8
41579.3
79358.9
218660
263317
302344
366316
656153
2.67621e+06
188319
249477
298411
333106
520711
2.11453e+06
171513
257287
319543
328309
439188
1.76294e+06
159074
281603
355962
329630
389017
1.54345e+06
158821
321540
394204
329940
357795
1.4202e+06
173385
368686
414514
321560
340112
1.36948e+06
203098
394805
401986
305282
327101
1.37319e+06
234979
386342
366162
293018
332372
1.41449e+06
246774
343179
325677
290990
352094
1.49888e+06
231918
289423
296326
294472
375930
1.6274e+06
205250
245281
274239
299511
404499
1.80457e+06
185952
219390
258733
303019
439355
2.03907e+06
175078
206121
248609
305440
482438
2.36884e+06
168977
201473
243738
312901
542786
2.83737e+06
276879
339661
377057
400607
557473
2.16521e+06
196967
271351
344526
377787
468747
1.72569e+06
153691
240173
345847
387770
423765
1.44793e+06
119713
222958
364983
406649
400759
1.26395e+06
100516
221812
395594
426051
388584
1.15012e+06
91808.5
234465
424528
435844
379463
1.09383e+06
96292.6
251346
431729
428047
373231
1.08257e+06
107967
261126
413834
410664
378795
1.11315e+06
118969
252429
376363
394885
398849
1.19156e+06
123903
228130
338022
390142
430640
1.315e+06
123688
203327
310083
393408
469025
1.483e+06
127968
194558
298660
396763
504432
1.69764e+06
144512
205173
298936
391372
532933
1.97383e+06
164329
227885
304721
377841
553853
2.34222e+06
354943
471966
537338
522152
590880
1.5554e+06
211459
309858
407757
460133
536466
1.27238e+06
139635
226898
340880
434848
506048
1.09571e+06
92842
172683
300907
428916
487473
969378
68066
139818
279802
433516
484628
877013
52590.6
119495
274711
445580
488619
830369
44303.2
111285
282702
454816
496077
831494
41677.9
113310
290367
456594
505490
876836
43160.9
117707
286915
450175
525197
967751
46732.9
117334
270961
445879
564103
1.10396e+06
50294
112197
254642
452404
615376
1.27448e+06
56116.3
113209
253220
464502
654207
1.46445e+06
73558.8
134190
273099
472002
665477
1.67678e+06
101673
177858
315068
467038
647298
1.93042e+06
156624
196440
249222
344229
656944
2.98799e+06
108213
144192
202372
283622
500432
2.31182e+06
73963.6
108316
175776
258724
413361
1.86179e+06
46470.9
82136.4
160086
246089
363894
1.55937e+06
32275.2
69152.6
153962
241885
330559
1.35649e+06
25614.3
68382
160559
243770
313034
1.22728e+06
25091.6
75734.9
172035
243160
299233
1.17055e+06
29662
87821.9
180072
237221
290430
1.18455e+06
38447.3
97814.8
176601
224387
289779
1.27572e+06
49189.1
100842
162690
209389
303073
1.43845e+06
58635.6
97542.4
145115
196606
330951
1.67062e+06
65311.5
93290.3
131556
189697
374751
1.98825e+06
69353.3
91099.1
126693
194987
430881
2.37821e+06
72153.6
95252.2
136494
221048
510340
2.87791e+06
170324
233249
297760
370395
592361
2.44389e+06
95346.9
141743
211137
296716
468543
1.87762e+06
53374.4
88372.2
157122
253705
396634
1.49056e+06
30710.7
55117.2
119800
226349
364929
1.21618e+06
19956.2
41219.5
100928
206012
338909
1.02614e+06
14397.1
35084.1
94995.1
196643
315418
909065
12227.3
34726.6
97111.4
191560
297701
854027
12807.2
38621.2
102331
187329
286937
854934
16115.1
44544.9
105274
180756
282860
915452
21773.1
49605.7
101815
171437
301626
1.05177e+06
28680.3
52893.2
95954.6
165836
343503
1.25325e+06
35867.7
56164.4
93860.5
170172
402975
1.50669e+06
43418.8
62535.8
102041
192044
474974
1.82911e+06
52035.9
76158.5
126957
236949
563340
2.26732e+06
130308
214007
321809
434482
635161
1.90725e+06
64016.4
111285
192825
311273
511886
1.42992e+06
30481
59393.1
121036
234031
437078
1.10038e+06
17255
32869.6
77434.2
180971
376696
870851
10963.4
22495.7
56264.5
142312
322043
707198
7524.78
16924.3
45103.4
119814
277320
594132
5726.94
14131.1
40005.4
106697
245859
531970
5078.03
13411
38977
99772.7
226649
517343
5468.55
14251.3
39877.4
96196.6
222211
553923
7004.81
16163.8
40606.4
95281.5
240630
659058
9660.31
18831.1
41896.7
101101
286109
837226
13468.4
22869.9
46990.2
119977
356583
1.07625e+06
18911.6
30549.2
61978.2
159941
440196
1.36692e+06
27908.4
47235.5
97087.2
226740
525618
1.72241e+06
2.82078e+06
604707
305520
211830
157126
125126
2.36228e+06
515279
265108
186809
141724
117260
2.06199e+06
461086
247067
179693
139058
114065
1.78537e+06
417918
245989
188428
144590
111616
1.59588e+06
394775
257347
205624
147987
100037
1.47492e+06
397717
279064
217422
136835
78718.8
1.41955e+06
429125
291797
204391
110845
54187.2
1.43363e+06
467969
279638
168338
79151.1
33842.5
1.51062e+06
494510
252202
128788
54237
21334.5
1.63622e+06
510199
224232
102234
41575.2
16649.2
1.81437e+06
524995
212822
94402
41199.2
18970.9
2.07281e+06
545331
215718
102573
52126
29440.7
2.46382e+06
557350
232795
123783
72752.8
47423
3.08287e+06
660128
276203
161408
106046
74678.3
2.24536e+06
657348
368795
253764
171987
121303
1.8679e+06
571749
324118
207073
133077
94674.6
1.61341e+06
520463
291064
177659
109551
75593.6
1.42765e+06
482946
268740
164976
97351.1
61993
1.28755e+06
456627
260210
160218
86735
50022.4
1.19967e+06
450925
258341
150922
74525.7
38162.2
1.16936e+06
468751
250390
132528
59068.2
26753.5
1.19395e+06
496394
234965
109613
44248.1
17753.6
1.26477e+06
521455
219793
90798.9
34073.4
12485.1
1.37376e+06
537584
210223
82021.1
30285.1
11131.5
1.51744e+06
544276
211518
84372.3
33439
13690.6
1.71173e+06
552269
225172
99155.6
45349.7
22165.7
1.99009e+06
577000
250408
124408
65796.4
37484.8
2.42595e+06
673934
304166
167833
99707.8
62661.6
1.69151e+06
670712
458803
292453
173089
99115
1.44178e+06
623550
405722
217911
110898
61094.9
1.25939e+06
573133
348347
166621
78273.3
41268.6
1.11868e+06
528228
293046
135828
61020.4
30203.9
1.00606e+06
491958
250028
113971
49461.7
22778.2
935978
464444
221888
98391.7
40994.9
17331.7
918017
453291
205649
86948.1
34262.8
13229.7
953512
461678
200396
80420.2
29906.3
10599.5
1.03255e+06
485763
203802
78504.8
27912.9
9336.29
1.14088e+06
512912
212954
81348.2
28721.2
9587.97
1.26123e+06
524835
223100
87341.2
32085.9
11469.6
1.39619e+06
530828
240325
101296
41256.8
16844.6
1.56727e+06
565892
267230
122829
56443.7
26753.9
1.82637e+06
641317
319471
161083
82778.3
44165.7
2.55521e+06
529647
317018
268741
237678
208848
2.171e+06
454446
287280
249113
223440
203812
1.89716e+06
407809
271057
241279
221651
208185
1.71634e+06
379113
263997
245677
236711
230011
1.59696e+06
366441
266068
266495
276712
265765
1.52127e+06
363762
283317
313256
333519
287548
1.47995e+06
376832
323079
376287
367486
263306
1.45968e+06
409671
374912
412873
341259
201307
1.47189e+06
459661
405547
384836
267123
139127
1.56114e+06
512220
389855
310286
191759
98767.1
1.73081e+06
576864
361196
248619
148554
82590.1
1.98193e+06
643751
343939
221116
138289
86960.2
2.35804e+06
664882
347184
224760
150301
103503
2.95789e+06
769439
382079
255138
183714
137127
2.05422e+06
494391
382324
365515
319845
261262
1.73781e+06
454296
373360
342996
283008
230257
1.53078e+06
423896
361317
322244
252586
197923
1.39715e+06
399097
352013
317444
247318
187717
1.31301e+06
382058
351859
337155
265681
180619
1.26277e+06
377956
370680
376324
278153
171434
1.23111e+06
400524
407683
401548
267165
146960
1.21084e+06
444710
437247
383774
228374
114290
1.23599e+06
508959
428930
324013
178124
85838
1.31801e+06
574093
390321
259970
139967
70187.9
1.44816e+06
629147
365208
224040
124195
67409.2
1.63042e+06
677598
362896
222318
133181
79803.4
1.8986e+06
705016
381570
245642
159840
104193
2.33057e+06
800922
433685
301809
215590
151812
1.53206e+06
568940
555163
536649
411455
274689
1.32534e+06
555531
559409
460238
302328
188694
1.19496e+06
537994
540010
402954
230943
131905
1.11258e+06
521990
518598
369569
204904
115058
1.05348e+06
506371
493331
352824
195968
104284
1.00464e+06
494448
471808
335156
182632
91917.3
969012
502333
448384
302229
159547
77456
967610
519679
414163
261561
135976
65262.5
1.00227e+06
541442
380650
227968
118219
57086.7
1.06325e+06
576384
365813
214045
112525
55851.6
1.14598e+06
612699
370542
216634
117048
60445.5
1.25967e+06
641734
394946
240698
138934
77149.4
1.42809e+06
681571
436532
282319
175714
105740
1.70141e+06
779852
514800
363514
247498
160207
57261
36574.6
25350.9
19342.4
17427.9
16704.3
17154.8
18433.9
21268.8
25773.9
32137.1
39474.6
54441.4
105452
25104
16249.1
11312.2
8647.64
7752.22
7536.59
7869.76
8591.53
10065.5
12473.8
16152.1
21167.3
31889.4
64584
11953.4
7294.8
5064.35
3887.4
3470.91
3395.62
3574.22
3950.11
4732.22
6103.78
8386.59
12024.6
19655.9
38969.6
6434.87
3461.86
2297.71
1745.19
1547.53
1513.71
1595.36
1783.11
2210.91
3049.76
4594.44
7319.32
12828.5
24989.4
3898.46
1764.66
1051.38
767.145
670.672
653.359
689.624
787.968
1040.25
1593.57
2704.61
4797.87
8872.19
17115.2
2663.35
984.828
485.591
324.191
275.65
267.208
285.593
344.445
509.468
901.295
1736.29
3375.54
6512.11
12551.3
2031.38
618.379
233.995
131.725
105.835
102.448
114.736
157.031
279.162
580.123
1241.24
2568.16
5099.14
9878.53
1751.07
458.424
129.809
54.172
38.3052
37.6615
48.4545
84.921
188.504
444.041
1007.32
2142.36
4303.62
8366.74
1655.87
398.911
92.1958
26.5802
14.507
15.3115
26.6154
63.0793
163.176
404.777
928.187
1969.32
3934.2
7601.91
1736.86
413.161
90.6369
21.8088
9.46693
11.0041
24.2091
64.8425
171.922
421.749
947.041
1966.15
3857.66
7346.72
1948.73
485.686
118.013
34.7075
18.1006
19.5699
36.1296
85.0259
207.842
483.138
1042.25
2095.43
4008.15
7481.93
2670.26
738.405
217.335
86.5448
55.4435
54.4074
76.5795
140.551
291.519
612.899
1238.95
2377.97
4387.72
7957.76
4157.5
1334.7
487.021
242.212
172.852
162.936
194.621
286.496
488.066
892.569
1648.11
2981.8
5267.28
9189.88
7232.87
2658.2
1141.9
646.71
491.494
463.156
516.888
670.505
985.181
1583.15
2656.8
4525.05
7848.85
13421.3
27758.9
18034.8
13140.8
10674.8
10137.7
10122.5
10603.5
11454.5
13126.3
15919.8
20239
25852.1
33831.3
53760.6
11737.6
7491.63
5459.77
4455.02
4248.2
4332.06
4632.15
5107.9
5969.61
7401.69
9707.86
12968.4
18310.3
31467.8
5609.14
3225.8
2303.72
1885.3
1801.94
1857.92
2007.81
2245.36
2679.28
3438.73
4750.02
6844.21
10675.2
19706.7
3045.53
1483.78
989.667
799.941
763.355
790.088
857.649
970.075
1190.85
1617.89
2433.86
3908.56
6790.7
13207.5
1867.63
743.961
431.486
333.527
315.219
326.293
356.048
410.787
531.669
795.449
1353.17
2463.35
4703.5
9437.72
1299.37
419.832
193.82
134.935
124.184
128.381
142.219
172.25
247.571
429.588
843.356
1717.58
3502.93
7136.34
1010.22
274.247
94.4644
53.4347
46.1456
47.7373
55.3638
75.5191
130.914
272.608
605.697
1327.09
2799.51
5718.73
874.843
211.547
55.0226
22.0414
16.3868
17.1993
22.8033
39.8363
88.2707
213.346
506.757
1139.14
2413.76
4885.35
815.055
187.284
41.224
11.2755
6.23165
6.97385
12.4641
29.8932
78.9619
202.853
485.749
1079.75
2249.57
4466.4
815.726
188.851
40.5938
9.57838
4.2309
5.17616
11.6961
31.9736
87.0796
220.841
514.317
1108.03
2244.17
4347.42
845.603
208.558
50.9621
15.431
8.48633
9.57616
18.1287
43.5741
109.265
261.419
581.49
1205.16
2365.12
4466
1014.66
282.97
88.8885
39.2577
26.9717
27.323
39.3197
73.6636
156.398
337.189
700.318
1381.31
2610.17
4788.24
1378.72
462.562
193.907
112.737
86.7457
83.8103
101.68
152.041
263.715
491.177
924.675
1707.22
3070.79
5420.88
2178.74
888.069
459.939
310.203
254.898
245.422
276.448
361.215
533.17
856.785
1436.05
2437.82
4130.59
6884.05
9640.95
6718.24
5399.84
4873.7
5023.35
5406.66
6025.9
6858.15
8052.85
9764.1
12358.3
16135.4
21783.5
32664.7
4201.04
2837.62
2249.82
2011.87
2060.42
2238.44
2530.29
2939.9
3543.91
4436.26
5822.27
7932.14
11350.6
18062.3
2056.93
1242.91
949.051
838.325
852.791
928.901
1056.26
1242.3
1531.73
1992.96
2761.57
4034.36
6288.79
10886.9
1147.22
573.606
401.089
345.679
349.432
380.738
434.192
515.572
653.096
898.921
1356.4
2200.04
3823.61
7204.5
732.515
287.029
169.78
138.562
138.652
151.169
173.371
209.57
278.723
421.008
719.998
1330.11
2577.52
5191.91
523.318
161.423
73.7122
53.6069
52.3567
57.1832
66.6603
84.3325
123.88
216.993
432.527
904.985
1904.93
3991.31
408.571
105.262
35.0109
20.3195
18.6705
20.4985
25.0458
35.5382
62.8638
133.349
305.219
695.176
1530.05
3251.29
345.477
80.4487
20.1897
8.09667
6.39041
7.16876
10.0478
18.2624
41.6267
103.829
256.548
602.843
1337.33
2821.88
311.091
70.5953
15.2654
4.12271
2.39414
2.9083
5.53747
13.8452
37.8307
100.767
251.409
584.054
1271.72
2624.04
299.903
70.5708
15.2867
3.67941
1.7667
2.35255
5.51909
15.4815
43.3838
113.78
275.321
617.856
1301.72
2605.41
304.146
78.8041
20.1683
6.61811
4.03447
4.81206
9.22601
22.3857
57.2445
140.84
323.995
696.142
1413.24
2739.44
346.974
107.284
37.7188
18.554
13.6681
14.4294
21.2071
40.1476
86.4404
190.43
406.813
827.967
1611.26
3020.12
453.529
181.712
89.2891
56.8634
45.5984
45.4153
56.6388
86.4453
152.477
289.178
557.035
1056.32
1952.97
3524.21
701.287
364.388
223.664
162.961
137.874
135.705
156.726
209.48
314.688
512.236
870.804
1504.13
2599.61
4453.24
3716.99
2746.39
2274.69
2147.53
2319.95
2699.63
3299.26
4076.36
5067.97
6331.92
8042.03
10581.6
14580.6
21702
1660.67
1185.25
956.429
873.952
920.809
1061.63
1303.84
1646.13
2119.8
2772.78
3707.37
5140.67
7500.73
11790.1
821.818
519.571
399.43
355.262
368.07
420.48
515.033
656.983
869.701
1193.23
1701.89
2544.55
4030.74
6869.01
464.617
235.629
163.954
141.045
144.741
164.625
201.073
258.32
352.214
513.934
802.98
1334.98
2352.64
4397.86
298.547
114.461
66.4816
53.9068
54.8122
62.3886
76.448
99.8679
143.211
229.814
407.941
773.115
1524.08
3094.02
210.009
62.0966
27.4668
19.7875
19.7053
22.5353
28.0823
38.4419
60.9839
113.386
234.845
505.912
1092.73
2344.71
158.079
39.0273
12.4705
7.12627
6.70043
7.74648
10.167
15.6781
29.9329
67.1287
159.975
377.619
861.327
1896.77
127.724
29.013
7.03295
2.73994
2.20863
2.63992
4.03078
7.99768
19.5178
51.17
131.981
323.465
749.097
1649.3
112.524
25.4718
5.39714
1.41331
0.838693
1.11369
2.329
6.24017
17.9262
49.854
129.91
315.75
720.076
1553.82
111.304
26.484
5.7163
1.41168
0.753775
1.07803
2.5816
7.39037
21.327
57.9874
146.252
343.324
757.601
1584.07
121.992
32.1529
8.43952
3.02008
2.07012
2.57874
4.8619
11.6289
29.9994
75.7616
180.726
404.846
858.18
1730.83
153.041
49.0181
18.1161
9.50347
7.45997
8.25095
12.2661
22.9968
49.3727
110.338
242.411
511.328
1034.02
2004.35
221.512
93.739
47.6551
30.9327
25.5683
26.6375
34.4716
53.4968
94.9351
181.924
357.769
697.945
1332.25
2468.97
374.398
205.326
127.182
92.2325
79.0304
80.6797
97.3243
134.607
206.645
341.7
591.696
1045.9
1855.37
3252.39
2012.1
1484.53
1182.84
1072.18
1142.72
1383.49
1813.45
2418.9
3228.25
4267.6
5627.43
7571.25
10544.9
15505.7
912.227
651.46
503.6
436.988
445.985
523.106
678.571
921.091
1279.7
1789.12
2512.92
3607.52
5360.45
8374.81
443.832
281.96
207.429
174.018
172.812
198.159
253.759
346.86
497.748
736.89
1114.96
1738.14
2811.74
4765.95
239.549
122.484
82.0247
66.3706
64.918
73.637
93.6594
128.979
191.823
304.716
508.351
882.199
1585.23
2957.08
143.757
55.3695
31.3922
24.0163
23.2423
26.3464
33.6691
47.4053
74.8058
131.582
249.517
491.858
987.425
2014.1
93.8584
27.4605
12.0301
8.26672
7.85838
8.97547
11.7475
17.5415
30.9245
62.9962
138.436
308.871
681.241
1483.57
66.3906
15.9789
5.0444
2.78003
2.51094
2.92366
4.09386
7.01202
14.9023
36.1463
90.5457
221.362
519.447
1174.46
52.68
11.636
2.73526
1.01459
0.78607
0.96463
1.61729
3.59722
9.58239
26.6775
72.0227
183.711
441.806
1009.33
48.8014
10.7852
2.19393
0.54099
0.310755
0.436669
1.00179
2.89388
8.78188
25.5993
69.7803
177.364
422.914
953.619
53.262
12.3143
2.56915
0.645544
0.379466
0.550677
1.2817
3.6554
10.7784
30.3565
79.8457
196.142
453.55
993.294
64.9927
16.5912
4.31434
1.65457
1.25415
1.58712
2.82973
6.42896
16.3745
42.0784
103.792
242.315
536.989
1131.3
89.2336
27.9814
10.3676
5.65634
4.71783
5.43603
8.00879
14.4522
30.1706
67.3557
151.041
329.224
691.595
1390.55
139.73
58.2137
29.1849
19.0641
16.3731
17.9373
23.8721
37.0171
64.8469
123.664
245.679
490.053
962.502
1831.79
252.178
135.218
81.15
58.2079
51.0643
54.6509
68.8557
97.7557
151.618
252.007
440.132
790.001
1429.56
2553.53
1462.64
1064.9
803.545
667.161
647.102
741.551
974.461
1366.18
1961.96
2790.97
3903.5
5460.76
7774.42
11470.8
651.143
464.416
341.466
272.194
251.637
276.163
353.989
499.657
745.048
1127.47
1695.15
2552.3
3907.71
6162.38
300.004
195.031
137.464
105.911
94.9335
101.351
127.663
180.991
279.092
449.724
733.788
1207.03
2019.28
3467.13
147.718
79.9876
52.2034
38.7736
34.0837
35.9307
45.0478
64.7448
104.318
181.72
328.359
602.679
1119.2
2118.31
78.9429
33.0129
18.843
13.2935
11.5133
12.1324
15.4029
22.9809
39.9141
77.5993
159.148
330.364
683.127
1414.91
46.3399
14.5814
6.6633
4.28818
3.64365
3.88382
5.12886
8.3232
16.4574
37.0504
87.1212
202.891
459.796
1019.89
31.1098
7.7352
2.54758
1.34148
1.08603
1.1933
1.73625
3.33646
7.99075
21.0707
55.6477
141.161
340.96
790.16
25.5625
5.62293
1.31754
0.462786
0.321143
0.381861
0.695894
1.75214
5.11971
15.148
42.7851
113.412
282.497
666.97
26.2228
5.6345
1.10581
0.25817
0.138485
0.194847
0.473466
1.4543
4.64404
14.1767
40.3952
107.202
266.511
625.408
31.8738
7.03238
1.41639
0.370023
0.239576
0.336954
0.720787
1.97379
5.85336
16.9886
46.5071
119.351
288.453
659.41
42.4303
10.2799
2.63643
1.08996
0.903629
1.14535
1.89508
3.9692
9.72936
25.098
63.5713
154.016
355.473
779.733
62.2427
18.6778
6.87544
3.92011
3.47794
4.13624
5.96721
10.208
20.3151
44.5727
100.875
225.51
489.409
1017.18
103.027
41.241
20.2608
13.4582
12.1062
13.8594
18.6925
28.5584
48.7084
91.2525
181.074
366.106
735.351
1431.84
194.414
99.9342
57.9748
41.6167
37.7897
42.3273
54.9478
78.8297
121.8
201.187
350.754
633.624
1162.85
2108.14
1231.96
893.986
653.012
505.023
437.237
445.39
544.074
761.907
1151.48
1763.84
2647.15
3901.37
5763.73
8673.34
536.284
386.241
276.099
206.423
171.587
167.274
197.339
274.664
427.279
695.08
1126.8
1799.64
2874.23
4649.5
233.976
158.248
109.198
79.0074
63.7422
60.46
70.0101
97.7639
157.368
273.106
482.22
846.935
1482.82
2623.66
104.736
61.9846
40.3031
28.1032
22.1434
20.7031
23.9555
34.2539
58.3431
110.366
216.449
424.941
826.286
1611.41
49.2311
23.6693
13.9363
9.26962
7.14847
6.65901
7.87685
11.9612
22.4953
48.0031
106.611
235.213
507.076
1078.91
25.6712
9.36926
4.62254
2.84686
2.14173
2.01532
2.53069
4.34077
9.53844
23.5845
59.3351
145.107
340.629
774.199
16.4781
4.48901
1.61957
0.838501
0.600502
0.586117
0.844746
1.79343
4.79657
13.6519
37.9502
100.091
249.482
592.577
14.3423
3.21416
0.778339
0.271183
0.16814
0.182664
0.349151
0.978911
3.10267
9.69515
28.5642
78.5505
202.2
491.059
16.3615
3.42782
0.658966
0.152478
0.0797242
0.107667
0.262515
0.834618
2.77658
8.83549
26.232
72.4186
186.819
453.144
21.713
4.57759
0.900942
0.25171
0.180503
0.245578
0.475406
1.2185
3.57777
10.6195
30.1133
80.3363
201.703
477.633
30.8865
7.13839
1.82903
0.821611
0.734703
0.932751
1.4509
2.79879
6.51526
16.6656
42.9771
107.26
255.872
579.666
47.7507
13.7735
5.09183
3.05872
2.86586
3.48494
4.93276
8.04468
15.2286
32.5449
73.6485
167.462
372.502
794.62
82.5079
31.8539
15.5368
10.6323
9.99821
11.8064
15.9849
23.993
39.7742
72.8434
143.44
292.107
596.724
1184.32
161.162
79.8831
45.4691
33.1677
31.2404
36.1886
47.7072
68.4201
104.589
170.709
295.579
534.86
992.528
1824.52
1105.37
805.403
579.946
430.309
342.639
309.813
335.846
440.866
670.15
1086.12
1755.91
2766.03
4310.44
6726.33
471.433
343.812
242.771
174.792
134.58
117.361
123.286
160.147
248.553
424.769
739.968
1268.61
2144.5
3615.62
197.09
138.099
94.5554
65.9408
49.3415
41.9844
43.5405
57.1011
92.1655
168.26
319.131
602.997
1120.73
2075.23
81.9397
52.3622
34.1861
22.9925
16.7677
14.0502
14.6589
19.9883
34.7685
69.9196
147.52
310.867
640.694
1306.01
34.7543
18.9718
11.4875
7.39817
5.26386
4.38321
4.7225
7.02852
13.8902
31.8743
75.8944
178.045
403.512
891.504
16.2996
6.92521
3.65151
2.20399
1.52651
1.28214
1.497
2.62475
6.21831
16.5137
43.9837
112.823
275.525
645.401
9.94686
3.00849
1.19251
0.623117
0.412614
0.361347
0.504553
1.1437
3.30322
9.93664
28.8087
78.8058
202.758
493.784
9.00596
2.05436
0.521848
0.188911
0.111266
0.111584
0.217747
0.654822
2.19061
7.11868
21.6936
61.5659
163.039
405.125
11.0628
2.24382
0.424823
0.101743
0.055943
0.0740027
0.177329
0.571266
1.95202
6.40722
19.6457
55.9506
148.45
368.485
15.5913
3.12516
0.604535
0.185052
0.147972
0.19982
0.362534
0.880508
2.5537
7.69984
22.4285
61.6073
158.954
385.214
23.342
5.13645
1.3301
0.656907
0.629205
0.805688
1.2127
2.21779
4.96057
12.5702
32.8046
83.6239
204.148
472.509
37.8197
10.4987
3.95155
2.52568
2.48565
3.07603
4.31095
6.82541
12.4712
26.0844
58.925
135.585
307.088
667.728
68.1232
25.506
12.523
8.91848
8.73356
10.536
14.2793
21.1518
34.3186
61.7049
120.725
247.339
512.503
1034.16
138.134
66.5027
37.6092
28.1749
27.4732
32.5687
43.2228
61.7141
93.2851
150.503
258.985
469.714
881.385
1644.31
1001.4
735.94
528.596
384.721
292.787
245.152
240.949
290.888
427.145
706.934
1208.43
2027.25
3334.16
5412.42
418.735
308.793
217.712
154.095
113.717
92.3372
88.7517
106.794
160.538
279.326
512.18
935.163
1670.27
2940.96
169.589
121.483
83.2636
57.1273
40.9886
32.5059
31.0344
38.107
60.3579
113.125
226.203
454.775
893.898
1734.72
67.026
44.8308
29.4925
19.535
13.6518
10.6485
10.279
13.3277
23.2687
48.8022
108.986
243.512
528.818
1126.86
26.4741
15.6438
9.67474
6.15417
4.1934
3.24527
3.26035
4.73175
9.66157
23.4174
58.901
145.287
343.938
787.997
11.4313
5.3955
2.97862
1.7915
1.18917
0.928352
1.02845
1.82525
4.56716
12.7946
35.6449
95.0907
240.242
578.664
6.6328
2.16825
0.922836
0.49153
0.314101
0.257483
0.353414
0.83972
2.56074
8.02533
24.0628
67.8247
179.161
445.651
6.11171
1.39977
0.370493
0.141203
0.0827019
0.0799097
0.159764
0.504273
1.75174
5.86096
18.338
53.3287
144.329
364.812
7.83546
1.52504
0.283563
0.0718187
0.0430835
0.057637
0.137751
0.449369
1.56818
5.26941
16.5473
48.1949
130.422
328.833
11.4698
2.16944
0.41284
0.141026
0.125158
0.170407
0.300625
0.711963
2.05977
6.29972
18.7318
52.5619
138.268
340.445
17.8524
3.72097
0.98313
0.539167
0.549193
0.711117
1.05599
1.8816
4.12385
10.4287
27.5361
71.4284
177.563
417.718
30.2707
8.08004
3.12744
2.14154
2.20285
2.76553
3.86113
6.01867
10.778
22.2793
50.4482
117.522
270.606
598.459
57.1443
20.8205
10.3499
7.70995
7.83068
9.60014
13.0202
19.124
30.5972
54.3701
106.165
219.407
461.543
947.026
120.505
56.7624
32.0228
24.7597
24.9173
30.0593
40.0265
56.8746
85.1807
136.2
233.473
425.519
808.626
1533.79
126023
215276
348028
504400
637422
658039
77590.7
146563
261741
419358
586816
670307
55582.3
114372
220133
378439
568088
693844
43189.9
94437
192873
349717
550661
704811
39174
86910.3
180044
331528
532085
703406
36743.8
81549.3
170106
317361
516344
689765
36905.5
81383.9
170237
322367
526230
682201
39075.6
86072.5
182710
353354
569301
683085
44720.1
99189.3
213720
417016
646043
692459
53801.1
118915
257998
498863
720425
679238
65649.7
141676
305395
576776
753405
636933
77480
161780
348583
639634
749206
597408
94899.5
193259
406257
694015
733070
591429
153354
300498
528846
723012
690512
607191
68751.3
128347
228443
377225
560661
754842
42305.7
87508.4
172821
315144
513578
745927
31371.4
70052.8
148033
286486
490081
736085
25700.7
60048
133295
268232
472932
726188
24300.3
57638.2
128903
260580
464506
721658
23532.4
55532.3
124142
252658
457952
715780
23951
55833.7
124264
255090
470171
723250
25256.2
58130.7
129537
271589
506956
742590
28466.7
64949.2
146131
313307
579171
776245
34113.2
77163.5
175011
378090
668081
794195
42619.9
94225.2
212382
448300
733092
772886
53143.9
112903
249487
507200
755879
739838
66632.7
133341
284907
554214
755688
729559
100260
191753
370550
613749
730527
719470
24504.1
48964.9
96865.3
184325
327055
527532
16215.6
35481.5
76978.7
160865
310113
530532
13250.4
30863
71023.5
155980
310673
538725
12078.4
29498.2
70619.2
159545
321162
555741
12443.1
31120.9
75356.9
169495
337809
579867
13111.3
32790.3
79055.6
176250
349825
599084
14251.6
35163.2
83624.6
184489
366335
623040
15742.4
37870.3
88346.8
194038
389177
653121
17941.4
41901
96147.1
212134
429882
697334
21157.7
47922.7
108862
241968
486243
739885
26106.2
57086
127946
281150
541252
756343
33197.5
69510.6
151667
322855
582246
751375
43289
85100.4
176798
360186
608041
747560
63656.5
117981
226460
413111
612052
722602
9047.92
17956
36734.9
76718
158729
312706
6483.18
14088
31621.8
72469.2
162716
337062
5517.63
12977.1
31192
75481
175153
365286
5420.65
13680.6
34681.6
86407.7
201417
411330
5991.64
15831.9
41192.1
102792
235276
466380
6960.28
18675
48564.2
119180
265547
510432
8336.82
22077.4
56169.2
134291
291059
544419
9930.35
25338.1
62186.4
144368
306866
564444
11812.9
28669.9
67575.5
152748
321868
583955
14078.2
32255.3
73097.4
162170
341435
606070
17103
36988.8
81130.9
177642
370935
631300
21679.4
44419.7
94369.8
202355
406716
648652
28724.8
55149.6
111537
229796
435210
652854
41696.8
74962.1
140855
265608
445699
624296
4644
8684.49
16955.6
34911.4
75808.1
167630
3337.97
6894.22
14954
34507.9
83205.2
197669
2752.13
6272.1
14970.4
37607.4
96068.4
234066
2655.74
6699.39