/*--------------------------------*- C++ -*----------------------------------*\
| =========                 |                                                 |
| \\      /  F ield         | OpenFOAM: The Open Source CFD Toolbox           |
|  \\    /   O peration     | Version:  v2106                                 |
|   \\  /    A nd           | Website:  www.openfoam.com                      |
|    \\/     M anipulation  |                                                 |
\*---------------------------------------------------------------------------*/
FoamFile
{
    version     2.0;
    format      ascii;
    arch        "LSB;label=32;scalar=64";
    class       volScalarField;
    location    "0.0002";
    object      k;
}
// * * * * * * * * * * * * * * * * * * * * * * * * * * * * * * * * * * * * * //

dimensions      [0 2 -2 0 0 0 0];

internalField   nonuniform List<scalar> 
144746
(
6.45003
4.79042
3.70507
2.97628
2.92367
3.60629
5.15979
7.47289
9.92568
11.6046
11.8447
11.0057
10.3982
10.2705
6.1684
4.3428
2.9988
2.04613
1.67457
1.7694
2.44749
3.74129
5.48305
7.15404
8.28615
8.54178
8.12353
8.4143
5.91157
3.94045
2.44447
1.46449
1.02949
0.921221
1.15944
1.80494
2.84262
4.07088
5.14876
6.05476
6.20548
6.96745
5.25621
3.14701
1.79178
1.01196
0.64413
0.508115
0.573019
0.886131
1.47869
2.26041
3.04113
3.67033
4.22529
5.40162
4.02592
2.22833
1.17968
0.62784
0.373953
0.273887
0.287695
0.444424
0.789237
1.29928
1.86401
2.35919
2.92389
4.34114
2.73168
1.38305
0.675715
0.338666
0.19241
0.136866
0.143378
0.231466
0.442692
0.787275
1.21056
1.64312
2.18499
3.64755
1.64863
0.750922
0.335869
0.158593
0.0873459
0.0633793
0.0730459
0.132082
0.273665
0.519453
0.850674
1.24053
1.83128
3.7783
0.926552
0.375185
0.152258
0.0677422
0.0370636
0.0300067
0.0431588
0.0903327
0.197328
0.386868
0.66148
1.03528
1.79299
4.48327
0.557519
0.205699
0.0773518
0.0336454
0.0197695
0.0199516
0.0353766
0.0783035
0.169565
0.331161
0.581819
1.00269
2.13088
5.65933
0.473119
0.178046
0.0697155
0.0342157
0.0235369
0.0255574
0.0424647
0.0853101
0.172925
0.330816
0.60651
1.20181
2.93824
6.9031
0.668185
0.29545
0.126774
0.0686711
0.0506833
0.050707
0.0690555
0.116538
0.214282
0.401994
0.781053
1.75272
4.10498
7.77489
1.30864
0.786609
0.407832
0.204703
0.13102
0.115925
0.135058
0.194669
0.321265
0.582853
1.17424
2.65997
5.24611
8.28468
2.40416
1.83089
1.19479
0.667797
0.382372
0.280842
0.280417
0.355726
0.528112
0.894211
1.70787
3.47671
5.8731
8.46409
3.76077
3.26721
2.57021
1.77915
1.13759
0.763674
0.629877
0.675313
0.883624
1.34722
2.27268
4.01726
6.10625
8.30333
5.74881
4.01091
2.97431
2.31723
2.14568
2.38436
3.10164
4.18309
5.39851
6.5074
7.57167
8.74756
9.97527
11.1163
4.61698
3.1265
2.16855
1.53358
1.26578
1.27235
1.60697
2.26409
3.1595
4.11625
5.02078
5.96222
6.97275
8.0878
3.70527
2.43617
1.60391
1.06026
0.788545
0.708526
0.834996
1.19578
1.78841
2.52902
3.29771
4.04554
4.86062
5.98885
2.84334
1.83007
1.14187
0.709764
0.485952
0.397841
0.435675
0.62614
0.999802
1.52234
2.10572
2.67681
3.2132
4.28124
2.07009
1.26697
0.742595
0.434612
0.279089
0.214297
0.223001
0.324402
0.555513
0.916664
1.35338
1.80327
2.26221
3.2322
1.40475
0.791729
0.429735
0.236232
0.144067
0.106732
0.110402
0.168835
0.31417
0.562348
0.890531
1.2626
1.69228
2.52524
0.874977
0.44131
0.218565
0.112667
0.0660132
0.0488612
0.0541762
0.0929437
0.190161
0.366285
0.618682
0.936553
1.3593
2.26318
0.516212
0.227177
0.100612
0.0481715
0.0274669
0.0217513
0.0292902
0.0596591
0.132129
0.266647
0.472368
0.758287
1.20874
2.32653
0.3345
0.128292
0.0497404
0.0217344
0.0124432
0.0119471
0.0210752
0.0485037
0.109994
0.2243
0.408757
0.696637
1.24457
2.6859
0.305563
0.112475
0.0413243
0.0181131
0.011423
0.0125737
0.0229056
0.0505793
0.110176
0.221703
0.413867
0.756694
1.50802
3.26621
0.431672
0.178106
0.071041
0.0348148
0.0240333
0.0243995
0.0361303
0.0674602
0.134499
0.263355
0.501636
0.980912
1.98981
3.95822
0.827964
0.43901
0.208586
0.100885
0.0645013
0.0584701
0.0719987
0.112152
0.198495
0.368692
0.703495
1.39445
2.67744
4.80848
1.565
1.02621
0.599759
0.316661
0.183087
0.143684
0.15407
0.207849
0.324808
0.555793
1.01459
1.94236
3.60162
5.8928
2.59576
1.92294
1.33497
0.843771
0.5177
0.364403
0.335008
0.394592
0.546152
0.843461
1.41665
2.57307
4.59863
6.98999
4.59225
3.15799
2.32538
1.80968
1.61634
1.61807
1.83759
2.22084
2.74142
3.28883
3.92294
4.92817
7.14065
10.5038
2.8581
2.00743
1.4499
1.08684
0.918034
0.879338
0.98267
1.21823
1.58515
2.03355
2.59983
3.41368
4.80601
6.8672
1.82372
1.3008
0.925771
0.667897
0.532407
0.483256
0.523886
0.660839
0.912354
1.26578
1.7293
2.35512
3.27709
4.63461
1.22336
0.849634
0.583764
0.40278
0.303701
0.261649
0.274318
0.351621
0.519214
0.783276
1.14353
1.61198
2.23706
3.18515
0.838203
0.540865
0.34972
0.228709
0.163532
0.134753
0.137941
0.181838
0.29085
0.480412
0.752227
1.10972
1.57685
2.29481
0.570839
0.32817
0.193697
0.118573
0.0805362
0.0642364
0.0658284
0.0922011
0.162975
0.296262
0.499971
0.779605
1.15614
1.75377
0.385122
0.190033
0.0987205
0.0553884
0.0356737
0.0280582
0.0303595
0.048136
0.0961491
0.191622
0.3473
0.574443
0.899623
1.43579
0.272444
0.112366
0.0488329
0.0239716
0.0143996
0.0116141
0.0148151
0.0287985
0.0648848
0.13836
0.264548
0.460359
0.760849
1.28349
0.220283
0.0781475
0.0277607
0.0111752
0.00605959
0.00549029
0.00937623
0.022174
0.0533785
0.116829
0.229296
0.413212
0.714768
1.26476
0.224145
0.0765995
0.0249719
0.0090182
0.00472623
0.0048752
0.00938912
0.0226664
0.0537483
0.116434
0.22967
0.422089
0.751554
1.3655
0.290099
0.109199
0.0393007
0.0161304
0.0095364
0.0093597
0.0147311
0.0302409
0.0657259
0.136876
0.266632
0.489927
0.8714
1.58253
0.476402
0.216021
0.0937271
0.0434487
0.0265987
0.0239225
0.0306237
0.051057
0.0967358
0.187011
0.350425
0.627706
1.09372
1.97919
0.82835
0.448246
0.235438
0.122873
0.0747595
0.0622164
0.0699129
0.0986234
0.160752
0.280712
0.496464
0.866988
1.52569
2.65482
1.38366
0.835354
0.508378
0.304379
0.194577
0.153808
0.157679
0.197527
0.283303
0.444279
0.733138
1.27753
2.38455
4.03966
11.1139
13.1038
14.9663
17.2347
23.715
54.2187
9.76432
12.4675
14.9291
16.7801
21.9792
50.7278
8.82982
12.5135
15.6299
16.8985
20.6983
48.2687
8.0869
13.1657
16.8757
17.0689
19.6534
46.6689
7.87775
14.433
18.2351
17.1346
18.7611
45.9516
8.30763
16.0551
19.0379
16.8237
18.0139
46.0364
9.38899
17.0617
18.6876
16.1099
17.2992
46.7161
10.6758
16.9897
17.4317
15.4331
17.0879
47.6474
11.3517
15.6936
15.8813
15.0648
17.2919
48.8913
11.0826
13.8603
14.6198
14.868
17.6016
50.3182
10.2814
12.2054
13.5756
14.7289
18.0421
51.7951
9.60404
11.1193
12.7755
14.5757
18.6472
53.188
9.16627
10.4863
12.2313
14.4646
19.4444
54.7221
8.85032
10.1941
11.9706
14.616
20.64
56.3739
12.4337
14.8279
16.6232
18.0203
21.9419
47.0763
9.52271
12.4165
15.4908
17.5418
20.8012
44.2997
7.6775
11.0593
15.3224
17.9113
20.172
42.33
6.15711
10.1903
15.7505
18.5388
19.7399
40.847
5.23156
9.9457
16.6269
19.2024
19.3745
39.9205
4.76732
10.2757
17.5764
19.5682
18.9383
39.6267
4.87204
10.8594
17.9075
19.2909
18.4924
39.8637
5.32735
11.3124
17.4579
18.6201
18.3657
40.612
5.84013
11.1949
16.3058
17.9021
18.6579
41.9557
6.18459
10.5075
14.9921
17.469
19.2806
43.6539
6.33672
9.70818
13.9193
17.2598
20.0691
45.4452
6.60801
9.38756
13.3609
17.0764
20.7327
47.0731
7.30942
9.73253
13.2451
16.7228
21.1825
48.455
8.0705
10.4886
13.3951
16.2579
21.4349
49.6068
14.1112
17.9326
20.3831
20.7599
22.7849
37.7671
9.48363
12.9948
16.5144
18.941
21.9714
36.1602
6.75228
10.0242
14.1746
18.0239
21.5008
35.1539
4.79715
7.91951
12.6243
17.673
21.1492
34.2232
3.67083
6.56247
11.7152
17.6997
21.1053
33.3176
2.9356
5.7027
11.4068
18.0535
21.1731
32.9758
2.52089
5.33646
11.6088
18.3402
21.2922
33.4344
2.37542
5.39194
11.8746
18.4098
21.4023
34.6405
2.43824
5.58137
11.8445
18.1871
21.721
36.5241
2.62003
5.62906
11.4032
17.9165
22.5238
38.85
2.82895
5.50516
10.8686
17.8723
23.6224
41.0779
3.12742
5.56913
10.7342
17.9612
24.3252
42.6544
3.88142
6.33629
11.3065
18.0025
24.2954
43.46
5.01082
7.88158
12.6452
17.8609
23.5857
43.607
8.29702
9.97121
12.1984
15.6222
23.1195
58.3523
6.1762
7.79134
10.4075
13.9341
20.6616
53.8336
4.45993
6.07898
9.16904
13.0614
18.9862
50.0514
2.98893
4.74431
8.33319
12.5195
17.8014
46.9811
2.14772
4.00064
7.92399
12.2963
16.8153
44.5557
1.71299
3.85053
8.11509
12.3553
16.1398
42.7803
1.62125
4.1163
8.57584
12.3531
15.5164
41.9894
1.81827
4.65357
8.97205
12.1422
14.9863
42.3265
2.26307
5.16796
8.93316
11.6026
14.6335
43.908
2.84695
5.4211
8.44078
10.8971
14.6571
46.3458
3.40058
5.39353
7.74351
10.2179
15.08
49.2048
3.82219
5.27993
7.15632
9.7423
15.9394
52.3105
4.09264
5.21007
6.89655
9.739
17.1199
54.8707
4.2503
5.36733
7.21283
10.5269
18.9464
56.922
8.26887
10.6914
13.2399
16.103
22.2207
51.0302
5.27785
7.25759
10.1195
13.704
19.7508
46.8563
3.27948
4.91715
7.87067
12.03
18.0018
43.1476
2.04458
3.31227
6.20524
10.8405
16.9778
39.7993
1.39128
2.54315
5.29153
9.95248
15.9858
36.9831
1.02912
2.15969
4.9399
9.52849
15.0833
35.0147
0.867156
2.07381
4.96244
9.31631
14.3694
34.0226
0.867829
2.2193
5.1719
9.17467
13.8637
34.0495
1.02908
2.49741
5.33651
8.93718
13.5122
35.1876
1.33245
2.77324
5.26174
8.55654
13.8436
37.6106
1.71975
2.98814
5.07655
8.26937
14.8532
40.6201
2.13126
3.19792
5.01808
8.32238
16.3555
43.4755
2.55454
3.52649
5.35354
9.02267
18.2173
46.0621
2.9995
4.13895
6.33651
10.5847
20.5628
48.5563
6.07514
9.17787
13.0197
17.0927
23.1409
43.2519
3.5193
5.56718
8.78795
13.2689
20.0898
39.0675
1.92825
3.36201
6.01105
10.5095
17.9519
35.2336
1.18662
2.07168
4.15124
8.44931
15.9935
31.8431
0.793391
1.48775
3.15601
6.87849
14.0618
28.844
0.56445
1.15086
2.59198
5.92685
12.4263
26.3595
0.437973
0.966843
2.30278
5.34926
11.2317
24.8065
0.384736
0.899847
2.21003
5.03491
10.4528
24.3532
0.396075
0.924072
2.22586
4.87095
10.1594
25.1679
0.476766
1.01463
2.25847
4.81534
10.6064
27.5394
0.624525
1.15321
2.32849
5.00201
11.9435
31.0429
0.838281
1.36343
2.56102
5.66131
14.1146
34.7439
1.13506
1.73895
3.19442
7.09432
16.76
37.9399
1.58953
2.49455
4.61271
9.5217
19.4795
40.4374
56.1626
22.4309
14.1626
10.5883
8.28298
6.88934
54.6237
20.2819
12.8041
9.7134
7.77593
6.66392
53.5891
19.2574
12.4221
9.66001
7.82472
6.60715
51.4322
18.6209
12.7744
10.2567
8.15216
6.47213
49.6686
18.6263
13.6093
11.0995
8.24338
5.7909
48.3679
19.4455
14.7111
11.5218
7.55449
4.58384
47.7569
21.0635
15.2188
10.7494
6.15269
3.21465
48.0717
22.6573
14.5269
8.95203
4.50323
2.07773
49.1416
23.5105
13.1299
7.03273
3.21505
1.37803
50.4972
23.5932
11.7132
5.74283
2.57151
1.13075
51.9835
23.2006
11.0039
5.36101
2.58827
1.30208
53.777
22.6152
10.8809
5.73941
3.19842
1.94008
56.1792
21.763
11.2816
6.67706
4.26572
2.96034
59.5896
22.6588
12.3781
8.15082
5.79492
4.33889
48.2416
24.3351
15.8254
11.4457
8.22694
6.18133
46.7118
22.2209
14.2594
9.75297
6.75392
5.10724
45.5061
21.1476
13.275
8.77613
5.86423
4.28642
44.3083
20.5192
12.7608
8.42073
5.36518
3.61975
43.0445
20.2444
12.724
8.27886
4.83938
2.96692
42.1452
20.605
12.8068
7.83282
4.18607
2.29238
41.966
21.6144
12.4952
6.93969
3.36078
1.6378
42.551
22.7427
11.7666
5.82818
2.57122
1.12005
43.6526
23.5251
10.983
4.90158
2.02957
0.819472
44.9413
23.7386
10.4123
4.44876
1.83549
0.752541
46.1455
23.3595
10.3046
4.53896
2.01914
0.922768
47.3358
22.7503
10.6843
5.19988
2.64535
1.42385
48.7269
22.4355
11.4416
6.28124
3.65292
2.26091
50.7946
23.576
12.9468
7.92945
5.13577
3.47982
39.9536
25.4588
18.2146
12.0511
7.58192
4.71678
39.3158
24.4105
16.3105
9.37019
5.21048
3.13894
38.587
23.1232
14.4254
7.54321
3.9258
2.26676
37.6683
21.8695
12.6513
6.4458
3.21277
1.7376
36.5251
20.8559
11.2853
5.64069
2.70035
1.35226
35.7251
20.1746
10.3789
5.0216
2.29129
1.05116
35.7193
20.0343
9.82385
4.51676
1.94285
0.815857
36.6302
20.4579
9.60679
4.18756
1.70316
0.661745
38.1319
21.2296
9.65748
4.04436
1.58314
0.587609
39.7077
21.878
9.87661
4.10813
1.60951
0.603247
40.7958
21.8405
10.128
4.33188
1.77759
0.717055
41.3302
21.451
10.6428
4.90774
2.22506
1.01724
41.5648
21.684
11.4375
5.76397
2.92728
1.53218
42.0492
22.7413
12.8681
7.11424
4.00697
2.33477
52.572
20.7395
15.4328
13.4914
12.0034
10.727
51.6243
18.985
14.3758
12.7342
11.5332
10.6582
50.6869
18.034
13.9509
12.623
11.701
11.0586
50.089
17.68
14.0178
13.1262
12.6048
12.1253
49.6852
17.925
14.544
14.3221
14.4031
13.5009
49.3741
18.5577
15.6884
16.4199
16.5229
14.0048
49.1056
19.7095
17.5798
18.7966
17.4417
12.644
48.658
21.4107
19.6324
19.8321
16.0011
9.87423
48.3032
23.447
20.5576
18.3468
12.8277
7.14939
48.9415
25.2167
19.5911
15.186
9.67612
5.37255
50.3737
26.6333
18.1151
12.6256
7.8799
4.70357
52.1909
27.2808
16.9858
11.4334
7.49119
4.99787
54.5562
26.3811
16.5518
11.4476
8.04379
5.84925
57.9651
26.7392
16.9138
12.3476
9.36715
7.33514
45.4536
20.2903
17.1304
15.9854
14.0705
11.9203
44.5058
19.3202
16.7517
15.2544
12.9339
10.9303
43.9284
18.7173
16.5212
14.7948
12.0945
9.87802
43.6656
18.3845
16.571
14.9831
12.1366
9.56014
43.6013
18.3935
17.0376
16.0103
12.8963
9.1457
43.6043
18.9003
18.1542
17.5247
13.1783
8.55691
43.4304
20.2983
19.7184
18.2194
12.4749
7.3365
42.9532
22.2672
20.6988
17.25
10.7359
5.81917
42.9885
24.6242
20.1245
14.8072
8.60907
4.5186
43.7164
26.6367
18.4198
12.2584
7.00075
3.81115
44.7285
27.7927
17.2319
10.8264
6.35304
3.7196
45.8232
28.1806
16.8306
10.7197
6.75578
4.32899
47.2201
27.5954
17.0876
11.5345
7.87057
5.45186
49.4529
28.1385
18.193
13.3609
9.94681
7.38339
37.3886
22.4022
21.503
20.1855
16.0203
11.5375
37.1567
22.3166
21.6389
18.0086
12.6745
8.62025
37.2464
22.1886
21.3307
16.4947
10.4271
6.54944
37.5181
22.1581
21.0723
15.6428
9.56996
5.87039
37.6527
22.1772
20.6272
15.2023
9.20689
5.34943
37.4458
22.3054
20.1668
14.5991
8.60822
4.7338
37.0306
23.0157
19.4589
13.3773
7.61073
4.02486
36.9941
23.8708
18.2768
11.834
6.58706
3.42657
37.3883
24.6136
17.0684
10.5121
5.79311
3.01899
37.8903
25.461
16.4272
9.8886
5.49486
2.93726
38.2744
26.0476
16.415
9.90788
5.64854
3.14127
38.5918
26.1831
17.04
10.7447
6.51673
3.87764
39.0667
26.3906
18.1743
12.1913
7.94262
5.086
40.1095
27.8665
20.2722
14.7779
10.4428
7.14169
2.6076
1.7916
1.30987
1.04063
0.957703
0.938876
0.98052
1.06506
1.22558
1.46476
1.78944
2.15313
2.81991
4.7836
1.25724
0.872577
0.642111
0.51059
0.466309
0.460806
0.486913
0.536001
0.627133
0.770004
0.981299
1.25934
1.79058
3.19673
0.656287
0.429278
0.313534
0.249349
0.226447
0.224298
0.238026
0.264453
0.316016
0.404343
0.548086
0.768143
1.18503
2.11389
0.3807
0.219651
0.152357
0.11933
0.107603
0.106476
0.113036
0.12682
0.156615
0.21408
0.317952
0.494091
0.820615
1.46594
0.243589
0.118168
0.0731895
0.0548517
0.0487982
0.0481569
0.051276
0.058826
0.0772408
0.116932
0.195106
0.336928
0.594089
1.06721
0.171987
0.0682988
0.0349816
0.0239045
0.0206898
0.0203611
0.022016
0.0266923
0.039194
0.0682631
0.12886
0.243605
0.450525
0.817463
0.133269
0.043873
0.0173508
0.00995679
0.00812385
0.00799914
0.00909616
0.0125237
0.0220333
0.0449248
0.0939823
0.189059
0.361162
0.662911
0.115203
0.0329997
0.0099256
0.00422062
0.00300449
0.00300678
0.00394199
0.0069326
0.0151693
0.0349996
0.0775536
0.160369
0.310516
0.573539
0.108942
0.0291078
0.00730111
0.00218409
0.00118876
0.00127042
0.00223678
0.00526446
0.0133724
0.0324674
0.072673
0.149849
0.288609
0.530279
0.114216
0.0305024
0.00739224
0.00192154
0.000865075
0.000996755
0.00213216
0.00555881
0.0143916
0.0344949
0.0755231
0.152216
0.287645
0.520671
0.128846
0.0363234
0.00982713
0.00317541
0.00176093
0.00189846
0.00334815
0.00753995
0.0178378
0.0403443
0.0846635
0.164948
0.30347
0.537934
0.173302
0.0543715
0.0179089
0.007825
0.0052942
0.0052718
0.0072613
0.0128112
0.025584
0.0520744
0.102087
0.189499
0.336005
0.578711
0.259876
0.0947861
0.0388802
0.0211849
0.0158713
0.0152457
0.0181528
0.0261355
0.0431192
0.076235
0.13607
0.237245
0.401493
0.665159
0.421171
0.17773
0.0868745
0.0541787
0.0431488
0.041349
0.0462307
0.0593033
0.0851237
0.132454
0.213988
0.348033
0.567029
0.903175
1.32971
0.92873
0.708525
0.59321
0.570863
0.580127
0.617983
0.677896
0.780978
0.940285
1.17155
1.4599
1.85162
2.71828
0.628875
0.431173
0.328268
0.274595
0.263727
0.271514
0.293547
0.327629
0.385135
0.476225
0.616009
0.806161
1.0993
1.73616
0.329221
0.204643
0.151926
0.126718
0.121594
0.126004
0.137192
0.154885
0.18584
0.238439
0.326188
0.461263
0.691499
1.17311
0.191431
0.101288
0.069925
0.0573247
0.0548758
0.0570294
0.062329
0.0711365
0.0878613
0.119474
0.178153
0.280104
0.465351
0.835726
0.123109
0.0533255
0.0319769
0.0249842
0.0236945
0.0246537
0.0271252
0.0316273
0.0412368
0.061683
0.103621
0.183612
0.334278
0.624309
0.0878781
0.0309563
0.0148507
0.0104271
0.00962753
0.0100219
0.0112256
0.0137773
0.0199436
0.0344122
0.0662406
0.130633
0.254263
0.486568
0.0690703
0.0205455
0.00743922
0.0042386
0.00366048
0.00381863
0.00449528
0.00622458
0.0108103
0.0221872
0.048058
0.101817
0.205755
0.398196
0.0600105
0.0160304
0.00445953
0.00180758
0.00133023
0.0014076
0.00190155
0.00335744
0.00737489
0.0174557
0.0403635
0.0878826
0.1792
0.345981
0.0563315
0.0144398
0.00345763
0.000978282
0.000530268
0.000593575
0.00107244
0.00255901
0.0066417
0.0166811
0.0389263
0.0840038
0.169013
0.321543
0.0572662
0.0149129
0.00352383
0.000890855
0.000402805
0.000481529
0.00105132
0.00279191
0.00741938
0.0183767
0.0417367
0.0874197
0.171295
0.318602
0.0611118
0.0169856
0.00455848
0.00148933
0.000860018
0.000959323
0.00172044
0.00393698
0.00953702
0.0222013
0.0481107
0.0969357
0.184077
0.333673
0.0743978
0.0233398
0.00799355
0.0037506
0.00268492
0.00275546
0.00386408
0.00691982
0.0140988
0.0294107
0.0593335
0.113595
0.207488
0.364809
0.100902
0.0379728
0.0171946
0.0104626
0.0083088
0.00819475
0.00993615
0.0145215
0.0243565
0.0438549
0.0799777
0.142944
0.247966
0.41887
0.154222
0.070906
0.039603
0.0277608
0.0233501
0.0228815
0.0259879
0.0337616
0.0489039
0.0764682
0.12418
0.203332
0.330092
0.524834
0.553041
0.404129
0.328179
0.294835
0.300194
0.322667
0.361685
0.416139
0.493416
0.601078
0.754544
0.963681
1.25826
1.77611
0.268494
0.19009
0.151801
0.134456
0.135403
0.146025
0.165233
0.193437
0.235281
0.296602
0.388098
0.519851
0.720032
1.07877
0.14199
0.0903573
0.0693383
0.0605286
0.0605243
0.0653322
0.0742394
0.0878556
0.109319
0.143531
0.19905
0.286866
0.432426
0.702938
0.0829865
0.044091
0.0310127
0.0263905
0.02626
0.0283842
0.0323766
0.0387289
0.0496218
0.0690858
0.10446
0.166891
0.27905
0.491889
0.0541014
0.0228001
0.013657
0.0110027
0.0108528
0.0117618
0.0135264
0.0165278
0.0223177
0.0341198
0.0582042
0.105088
0.194564
0.366314
0.038893
0.0130395
0.00610638
0.00438305
0.00421922
0.00459
0.00538518
0.00692043
0.0103448
0.0182327
0.0358493
0.072625
0.145587
0.286323
0.0305088
0.00860352
0.00298248
0.00170736
0.00153927
0.00168581
0.00208338
0.00301463
0.00539615
0.0113594
0.0253641
0.0556994
0.117036
0.235263
0.0261141
0.00669655
0.00178196
0.000707555
0.000540026
0.000603776
0.000860006
0.00158589
0.00359974
0.00880191
0.0211353
0.0479726
0.102179
0.205707
0.0241749
0.00606311
0.0014074
0.000385312
0.000213395
0.00025537
0.000488699
0.00121426
0.00325901
0.0084792
0.0205887
0.0463809
0.0975109
0.193288
0.0243039
0.00629642
0.00146447
0.000369255
0.000177581
0.000226578
0.000507374
0.00137546
0.00375322
0.00960437
0.0226536
0.0494385
0.100953
0.194928
0.0258927
0.00727502
0.00197019
0.000677377
0.000427779
0.000499715
0.000898152
0.00205825
0.00506344
0.012102
0.0271159
0.056704
0.111738
0.209244
0.030577
0.0100287
0.00364972
0.00185385
0.00141833
0.00151512
0.00215513
0.00386816
0.00794375
0.0168809
0.0349987
0.0692187
0.130641
0.236211
0.0404942
0.0168434
0.0084257
0.00548488
0.00454497
0.00464072
0.0057748
0.00856847
0.0145332
0.0265449
0.0494499
0.09082
0.162308
0.281439
0.0620067
0.0330288
0.0204833
0.0151355
0.013115
0.0132277
0.0154611
0.0205454
0.0302364
0.0478313
0.0787685
0.131432
0.21837
0.357236
0.257436
0.193541
0.157625
0.143655
0.14928
0.169065
0.203733
0.25173
0.315397
0.39839
0.508206
0.660585
0.883031
1.24669
0.125552
0.0912539
0.0724839
0.0640594
0.0649471
0.0727234
0.0877803
0.110435
0.143062
0.189255
0.254831
0.350424
0.496865
0.74159
0.0654273
0.0425175
0.0322579
0.0278314
0.0278407
0.0309575
0.037307
0.0474169
0.0631792
0.0878112
0.126471
0.188036
0.289522
0.467614
0.0376984
0.0200287
0.0138403
0.0115807
0.0115138
0.0127929
0.0154287
0.0198145
0.0272974
0.0404877
0.0639535
0.105541
0.179924
0.316921
0.0242077
0.009926
0.00579162
0.00457714
0.00451915
0.00504245
0.00612997
0.00805261
0.0117413
0.0191971
0.0342841
0.0638988
0.120775
0.22979
0.0170153
0.0054491
0.00245623
0.00172503
0.00166784
0.00187527
0.00233164
0.00323477
0.00524409
0.00988211
0.0203166
0.0424952
0.0874194
0.175878
0.012981
0.00348903
0.0011516
0.000638945
0.00057957
0.00066014
0.000870754
0.00136995
0.00265939
0.00594625
0.0138523
0.0315051
0.0684542
0.142272
0.0108562
0.00268781
0.000681724
0.000257378
0.000196089
0.000230644
0.000356099
0.000716693
0.00174399
0.00448484
0.0112322
0.0265409
0.0588892
0.123531
0.0100759
0.00247109
0.00055164
0.00014356
7.92559e-05
0.000101889
0.000211836
0.000561264
0.00158091
0.00428997
0.0108674
0.0255836
0.0562899
0.116734
0.0104873
0.00266065
0.000600766
0.000152538
8.07069e-05
0.000108701
0.000244137
0.000669216
0.00187327
0.00496144
0.0121883
0.0278173
0.0595173
0.120279
0.0118622
0.00325922
0.000877934
0.000324277
0.000229897
0.000278958
0.000488378
0.00109159
0.00269033
0.00657823
0.0152647
0.0332774
0.068534
0.133886
0.014924
0.00487059
0.00181698
0.00098316
0.000807416
0.000901771
0.00128858
0.00227235
0.00461831
0.00990519
0.021066
0.0431492
0.0846812
0.15878
0.0212528
0.00902194
0.00460441
0.00307318
0.0026531
0.00283868
0.00364395
0.0054586
0.009255
0.0169916
0.0322022
0.0607426
0.112068
0.199984
0.0350133
0.0191548
0.0118824
0.00879281
0.00780213
0.00820851
0.00999969
0.0136706
0.0204397
0.0326919
0.054637
0.0930708
0.158589
0.265686
0.15545
0.115706
0.0904228
0.0785603
0.0792196
0.0911385
0.11537
0.151909
0.203028
0.271211
0.360725
0.482968
0.657583
0.926892
0.0750253
0.0542098
0.0412886
0.0345933
0.033631
0.0376128
0.0470925
0.0629241
0.0874113
0.123497
0.175258
0.250931
0.36466
0.545725
0.0377697
0.0245436
0.0178757
0.0145633
0.0138683
0.0152543
0.0189269
0.0255044
0.036651
0.0549458
0.0842076
0.131189
0.207524
0.336147
0.0205807
0.0109778
0.00732921
0.00578348
0.00545085
0.00596411
0.00739156
0.0100864
0.0151044
0.0244037
0.0412952
0.0714883
0.125028
0.221337
0.0123341
0.0050551
0.00288424
0.00215719
0.00201725
0.00221559
0.00277643
0.00390508
0.00625733
0.0112327
0.021506
0.0418923
0.0810509
0.155617
0.00811746
0.00255533
0.00113602
0.000761705
0.000699416
0.000776821
0.00100458
0.00151445
0.00272995
0.00564751
0.0123566
0.0268577
0.0565586
0.115589
0.0059309
0.00154103
0.000496612
0.000264007
0.000228409
0.000259337
0.000362354
0.000632306
0.00136714
0.00330966
0.00811496
0.0191268
0.0427338
0.0910578
0.00497639
0.00118373
0.000287019
0.000101734
7.35725e-05
8.79334e-05
0.000148184
0.000333335
0.000884205
0.00241328
0.00632161
0.0155254
0.0357099
0.0775966
0.00488282
0.00114761
0.000242525
5.90104e-05
3.13678e-05
4.20185e-05
9.43341e-05
0.000267398
0.000793453
0.00225359
0.00596451
0.0146655
0.0337023
0.0730022
0.00549895
0.00132677
0.000285312
7.34239e-05
4.31329e-05
5.85914e-05
0.000125582
0.00033845
0.000962313
0.00263347
0.00673916
0.0160871
0.0360708
0.076419
0.00671187
0.00175234
0.000461891
0.000183507
0.000144781
0.000178583
0.000294768
0.000619258
0.00149246
0.003694
0.0088442
0.0200815
0.0432523
0.0883893
0.00900545
0.00283567
0.00105627
0.000601352
0.000528884
0.000613778
0.000867004
0.00146586
0.00287664
0.00612463
0.013246
0.0279914
0.0570538
0.111105
0.0136605
0.00565984
0.00285428
0.00194078
0.00175708
0.00197307
0.00258991
0.0038601
0.00643504
0.0117053
0.0223284
0.0429658
0.0814936
0.149457
0.0238761
0.0127121
0.00766339
0.00566744
0.00520016
0.00574187
0.00726572
0.0101332
0.0152362
0.024409
0.0410243
0.0708023
0.122947
0.209986
0.116869
0.0858992
0.064185
0.0517766
0.0478987
0.0519119
0.064993
0.088698
0.126306
0.180674
0.254682
0.355694
0.497644
0.709057
0.0549016
0.0395711
0.0288953
0.0225158
0.020014
0.0209177
0.0256336
0.0352298
0.052108
0.0793422
0.120405
0.181245
0.272542
0.414209
0.0261528
0.0173022
0.0121526
0.00919608
0.00797407
0.00815983
0.00988074
0.0136932
0.0210276
0.0342096
0.0564902
0.0930514
0.152808
0.252105
0.0130827
0.00730789
0.00477408
0.00349578
0.0029855
0.00303153
0.00367528
0.00519856
0.0084059
0.0148685
0.027233
0.0499404
0.0905976
0.163504
0.00706598
0.00309058
0.00177268
0.00123521
0.00104203
0.00106163
0.00131168
0.00194483
0.00342451
0.00678533
0.0140371
0.0288303
0.0576381
0.112758
0.00425159
0.00141003
0.000646842
0.000409337
0.000338593
0.000350062
0.000453738
0.000741068
0.00149608
0.00341241
0.0079808
0.0181239
0.0392901
0.0818942
0.00300517
0.000791038
0.000260604
0.000132436
0.000103379
0.000110485
0.000159681
0.000311843
0.000757214
0.00198726
0.00513211
0.0125495
0.0288558
0.062975
0.00263195
0.000613299
0.000145617
4.85955e-05
3.16056e-05
3.64898e-05
6.64816e-05
0.000168304
0.000487653
0.00141124
0.00386128
0.00983908
0.0234008
0.0524666
0.00281377
0.000633961
0.000127939
2.95421e-05
1.49354e-05
1.98793e-05
4.63832e-05
0.000138372
0.000430327
0.0012771
0.0035267
0.00903812
0.0216244
0.0487053
0.0034335
0.000782513
0.00016134
4.33367e-05
2.84537e-05
3.77397e-05
7.36384e-05
0.000187775
0.000532491
0.00149599
0.00397698
0.00990763
0.02321
0.051347
0.0044729
0.00110068
0.00028534
0.000123393
0.000107009
0.00013281
0.000204602
0.000394108
0.000904632
0.00223185
0.0054686
0.0128689
0.0288644
0.0614685
0.00633412
0.00190032
0.000705215
0.000424618
0.000398717
0.000476753
0.000661035
0.00106118
0.00197698
0.00411065
0.00893221
0.0193151
0.0406423
0.0818546
0.0101023
0.00401386
0.00199291
0.00139252
0.00132664
0.00155164
0.00205878
0.003023
0.00490327
0.00873868
0.0165968
0.0322946
0.0625602
0.117403
0.0184304
0.00939993
0.00549943
0.00410533
0.00392094
0.00452165
0.00586905
0.00824645
0.0123346
0.0196142
0.0328599
0.0569888
0.100261
0.173829
0.0985901
0.0722097
0.0525502
0.0400361
0.0337174
0.0329822
0.0384753
0.0520114
0.0771639
0.117895
0.177484
0.260899
0.379242
0.552956
0.0452287
0.0328394
0.0234024
0.0172734
0.0140236
0.0132069
0.0149761
0.0202214
0.0310125
0.0504613
0.0822168
0.131142
0.205909
0.321842
0.0204856
0.0140042
0.00965052
0.00691156
0.00546415
0.00502732
0.00562517
0.00766831
0.0122577
0.0214028
0.0381136
0.0669283
0.1151
0.196028
0.00941267
0.00566245
0.00368443
0.00255024
0.00197493
0.0017965
0.00201778
0.00283838
0.00484875
0.0092936
0.0184101
0.0360194
0.0684068
0.127342
0.00454086
0.00222815
0.00131212
0.000867472
0.000659075
0.000598964
0.000691501
0.00104399
0.00199031
0.00431456
0.00962139
0.0209364
0.0436089
0.087704
0.00247252
0.000920714
0.000450128
0.000274093
0.00020317
0.000187088
0.000231313
0.000399706
0.000894343
0.00222752
0.00554699
0.0131931
0.0296049
0.0632525
0.00169797
0.000474488
0.000167118
8.36495e-05
5.85362e-05
5.61092e-05
8.06504e-05
0.000173717
0.000467867
0.00131738
0.0035679
0.00905196
0.0214547
0.0479727
0.00156961
0.000365208
8.77171e-05
2.88916e-05
1.70454e-05
1.81678e-05
3.47098e-05
9.71473e-05
0.00030335
0.000923269
0.00262713
0.00692836
0.0169989
0.0391664
0.00182399
0.000396595
7.77201e-05
1.77994e-05
8.99647e-06
1.15745e-05
2.67132e-05
8.16077e-05
0.000262993
0.000810813
0.00232645
0.00618805
0.0153383
0.0356846
0.00238057
0.000515851
0.000103562
2.98862e-05
2.19434e-05
2.85038e-05
5.04611e-05
0.000119155
0.000331437
0.0009475
0.00260198
0.00672784
0.0163614
0.0375017
0.00327477
0.000766353
0.000198441
9.40004e-05
8.80779e-05
0.000110006
0.000160802
0.000285602
0.0006178
0.00150024
0.00372711
0.00901846
0.0208973
0.0459895
0.00486037
0.0013987
0.000522872
0.000334313
0.000331708
0.000405326
0.00055371
0.000851314
0.00150768
0.00303913
0.00657463
0.014424
0.0310778
0.0642583
0.00807548
0.00309071
0.00152862
0.00110729
0.00110401
0.00132899
0.00177053
0.00255983
0.00404171
0.00703463
0.0132272
0.0258687
0.0509002
0.0973387
0.0152417
0.00748803
0.00430786
0.00328316
0.00325804
0.00387719
0.00510209
0.00716669
0.0106142
0.016684
0.0277464
0.0481544
0.0855728
0.150391
0.0875763
0.0643252
0.0462438
0.0340353
0.026738
0.0236831
0.0249639
0.0318504
0.0474037
0.0760529
0.122376
0.191247
0.2922
0.441168
0.0394063
0.0288985
0.0203566
0.0145318
0.0110392
0.00944561
0.00969013
0.0123192
0.0188815
0.0321607
0.0559911
0.0954012
0.158033
0.257021
0.0171718
0.0120962
0.00826814
0.00572333
0.00422927
0.00353456
0.0035884
0.00463286
0.00745489
0.0136828
0.0260657
0.0489984
0.0891222
0.158441
0.00738282
0.00474432
0.00309502
0.00207023
0.00149358
0.00123083
0.00126017
0.00170343
0.00298505
0.00607935
0.0128962
0.0269239
0.0539459
0.104627
0.00324707
0.00177595
0.00107214
0.000687421
0.000484847
0.000397892
0.000422641
0.000630037
0.00126569
0.00294066
0.00698601
0.0160634
0.0350168
0.0729438
0.00161198
0.000679328
0.000352509
0.000210819
0.000144832
0.000120301
0.000139768
0.000248408
0.000597955
0.001589
0.00416187
0.0103298
0.0240366
0.0528642
0.00106617
0.00032048
0.000121921
6.1717e-05
4.02866e-05
3.50731e-05
4.93722e-05
0.000113621
0.000328242
0.000970463
0.00272792
0.00715302
0.0174641
0.0400215
0.00102082
0.000237501
5.86481e-05
1.99601e-05
1.13329e-05
1.13211e-05
2.21893e-05
6.62538e-05
0.000217056
0.000683977
0.00200614
0.00544578
0.0137247
0.0323487
0.00125721
0.000262984
5.0373e-05
1.18962e-05
6.42933e-06
8.1933e-06
1.84724e-05
5.67353e-05
0.000186867
0.000592157
0.00174982
0.00479163
0.012202
0.0290508
0.00172237
0.000354002
6.96863e-05
2.21129e-05
1.81554e-05
2.35804e-05
3.93513e-05
8.76113e-05
0.000238926
0.000690587
0.00194288
0.00516472
0.0129003
0.0302737
0.00247712
0.000550791
0.00014418
7.55481e-05
7.57425e-05
9.56092e-05
0.000136132
0.00022998
0.000476037
0.00113857
0.00285193
0.00703631
0.0166779
0.037521
0.00383972
0.00106119
0.000405005
0.000276954
0.000288264
0.000358254
0.000486119
0.0007286
0.00124663
0.00245229
0.00527755
0.0116916
0.0256271
0.0540212
0.00664091
0.00246079
0.0012282
0.000929152
0.000964005
0.00118388
0.00158058
0.00226095
0.00350073
0.00598086
0.0111544
0.0219083
0.0436739
0.084881
0.0130051
0.00619536
0.00354514
0.00278056
0.00285542
0.00347191
0.00459968