/*--------------------------------*- C++ -*----------------------------------*\
| =========                 |                                                 |
| \\      /  F ield         | OpenFOAM: The Open Source CFD Toolbox           |
|  \\    /   O peration     | Version:  v2106                                 |
|   \\  /    A nd           | Website:  www.openfoam.com                      |
|    \\/     M anipulation  |                                                 |
\*---------------------------------------------------------------------------*/
FoamFile
{
    version     2.0;
    format      ascii;
    arch        "LSB;label=32;scalar=64";
    class       volScalarField;
    location    "0.0002";
    object      nut;
}
// * * * * * * * * * * * * * * * * * * * * * * * * * * * * * * * * * * * * * //

dimensions      [0 2 -1 0 0 0 0];

internalField   nonuniform List<scalar> 
144746
(
3.23532e-05
2.57412e-05
2.04859e-05
1.66351e-05
1.57975e-05
1.84015e-05
2.49146e-05
3.45848e-05
4.48427e-05
5.22707e-05
5.46087e-05
5.18301e-05
4.87835e-05
4.76935e-05
3.1856e-05
2.42535e-05
1.75792e-05
1.24001e-05
9.9964e-06
1.00498e-05
1.30863e-05
1.91139e-05
2.72188e-05
3.51554e-05
4.09118e-05
4.2545e-05
4.07618e-05
4.09142e-05
3.10105e-05
2.23807e-05
1.48042e-05
9.32698e-06
6.6142e-06
5.7372e-06
6.79817e-06
1.00753e-05
1.54422e-05
2.18714e-05
2.76374e-05
3.21981e-05
3.27901e-05
3.45952e-05
2.78372e-05
1.81763e-05
1.10658e-05
6.58579e-06
4.30273e-06
3.36551e-06
3.61747e-06
5.31507e-06
8.64198e-06
1.31157e-05
1.7697e-05
2.1464e-05
2.41027e-05
2.78348e-05
2.16659e-05
1.3004e-05
7.35213e-06
4.12462e-06
2.54264e-06
1.87828e-06
1.91518e-06
2.82348e-06
4.88841e-06
8.0067e-06
1.1544e-05
1.46748e-05
1.76587e-05
2.28368e-05
1.50083e-05
8.16872e-06
4.24725e-06
2.2404e-06
1.32108e-06
9.57591e-07
9.90243e-07
1.5408e-06
2.87867e-06
5.09217e-06
7.8581e-06
1.06337e-05
1.3564e-05
1.93624e-05
9.30319e-06
4.52286e-06
2.14227e-06
1.06046e-06
6.05735e-07
4.5064e-07
5.19347e-07
9.15713e-07
1.86001e-06
3.5052e-06
5.72903e-06
8.23115e-06
1.13553e-05
1.91255e-05
5.43726e-06
2.34141e-06
1.00192e-06
4.64769e-07
2.62917e-07
2.19139e-07
3.17101e-07
6.51753e-07
1.39861e-06
2.71198e-06
4.58441e-06
6.9364e-06
1.07379e-05
2.13801e-05
3.47438e-06
1.37141e-06
5.47113e-07
2.48611e-07
1.5069e-07
1.54941e-07
2.71989e-07
5.8839e-07
1.24794e-06
2.39203e-06
4.08847e-06
6.59e-06
1.19625e-05
2.5772e-05
3.12348e-06
1.26851e-06
5.36998e-07
2.78095e-07
1.95265e-07
2.10669e-07
3.40343e-07
6.62295e-07
1.30319e-06
2.41063e-06
4.18787e-06
7.46856e-06
1.5408e-05
3.08903e-05
4.36875e-06
2.0476e-06
9.53575e-07
5.53288e-07
4.17986e-07
4.16483e-07
5.54935e-07
9.06053e-07
1.60143e-06
2.85466e-06
5.13668e-06
1.01332e-05
2.05812e-05
3.52222e-05
7.9912e-06
4.90597e-06
2.64714e-06
1.44172e-06
1.00038e-06
9.10367e-07
1.04924e-06
1.46719e-06
2.32156e-06
3.97401e-06
7.32261e-06
1.45017e-05
2.59038e-05
3.82612e-05
1.37305e-05
1.04942e-05
6.93192e-06
4.05835e-06
2.52887e-06
2.01437e-06
2.06887e-06
2.58131e-06
3.69445e-06
5.92102e-06
1.0391e-05
1.88957e-05
2.95936e-05
3.98051e-05
2.01781e-05
1.7535e-05
1.37843e-05
9.71228e-06
6.48807e-06
4.68789e-06
4.16062e-06
4.58942e-06
5.91131e-06
8.59903e-06
1.3521e-05
2.18398e-05
3.10681e-05
3.94843e-05
2.67249e-05
2.03071e-05
1.57381e-05
1.257e-05
1.1504e-05
1.2397e-05
1.55202e-05
2.03637e-05
2.59209e-05
3.10136e-05
3.55728e-05
3.97341e-05
4.31087e-05
4.61782e-05
2.27874e-05
1.68981e-05
1.23594e-05
9.03554e-06
7.43209e-06
7.25453e-06
8.76423e-06
1.19365e-05
1.63603e-05
2.11253e-05
2.5585e-05
2.97291e-05
3.34156e-05
3.68163e-05
1.92388e-05
1.37664e-05
9.57614e-06
6.58793e-06
4.95338e-06
4.36656e-06
4.91834e-06
6.75959e-06
9.89517e-06
1.38709e-05
1.79912e-05
2.17536e-05
2.53343e-05
2.90678e-05
1.53102e-05
1.05754e-05
6.97577e-06
4.53239e-06
3.17731e-06
2.5909e-06
2.73251e-06
3.75425e-06
5.84728e-06
8.83704e-06
1.22109e-05
1.54513e-05
1.82323e-05
2.22497e-05
1.14296e-05
7.41966e-06
4.58826e-06
2.8121e-06
1.86371e-06
1.44456e-06
1.46638e-06
2.04282e-06
3.40639e-06
5.58111e-06
8.25376e-06
1.09888e-05
1.35462e-05
1.75454e-05
7.91675e-06
4.69547e-06
2.67856e-06
1.54083e-06
9.73638e-07
7.35065e-07
7.51518e-07
1.10821e-06
2.01043e-06
3.57253e-06
5.6655e-06
8.01058e-06
1.04632e-05
1.41572e-05
5.05032e-06
2.66657e-06
1.38044e-06
7.41857e-07
4.50467e-07
3.41906e-07
3.79047e-07
6.33496e-07
1.2684e-06
2.42263e-06
4.08324e-06
6.12155e-06
8.53904e-06
1.25795e-05
3.09278e-06
1.42157e-06
6.53415e-07
3.23538e-07
1.90427e-07
1.55335e-07
2.10967e-07
4.22403e-07
9.18648e-07
1.83277e-06
3.21526e-06
5.04869e-06
7.55671e-06
1.24558e-05
2.11758e-06
8.55084e-07
3.44187e-07
1.54518e-07
9.08099e-08
8.9615e-08
1.58164e-07
3.5725e-07
7.94597e-07
1.59194e-06
2.83639e-06
4.62904e-06
7.53046e-06
1.37287e-05
2.02134e-06
7.95581e-07
3.10546e-07
1.42511e-07
9.21987e-08
1.01473e-07
1.79954e-07
3.85438e-07
8.16664e-07
1.59466e-06
2.85326e-06
4.86843e-06
8.64405e-06
1.61158e-05
2.82336e-06
1.23628e-06
5.29588e-07
2.77117e-07
1.971e-07
1.99756e-07
2.88067e-07
5.1853e-07
9.94106e-07
1.86005e-06
3.33806e-06
5.98639e-06
1.08718e-05
1.92184e-05
5.07486e-06
2.78518e-06
1.38412e-06
7.25908e-07
4.99176e-07
4.61926e-07
5.59903e-07
8.42718e-07
1.42828e-06
2.51903e-06
4.49238e-06
8.10567e-06
1.4094e-05
2.29979e-05
8.89836e-06
5.96888e-06
3.57467e-06
1.99823e-06
1.26942e-06
1.06631e-06
1.15301e-06
1.5169e-06
2.28018e-06
3.71554e-06
6.34536e-06
1.10533e-05
1.85364e-05
2.75532e-05
1.36542e-05
1.03776e-05
7.33465e-06
4.79914e-06
3.14646e-06
2.41697e-06
2.34873e-06
2.77287e-06
3.73576e-06
5.52997e-06
8.72509e-06
1.44029e-05
2.30227e-05
3.17656e-05
1.97516e-05
1.47635e-05
1.14482e-05
9.23495e-06
8.33656e-06
8.35445e-06
9.38742e-06
1.12124e-05
1.37056e-05
1.63397e-05
1.91984e-05
2.28685e-05
2.9854e-05
4.00413e-05
1.3372e-05
1.01546e-05
7.75594e-06
6.039e-06
5.16282e-06
4.93269e-06
5.41965e-06
6.59504e-06
8.46369e-06
1.07572e-05
1.35207e-05
1.69771e-05
2.21775e-05
2.94322e-05
9.26307e-06
7.04068e-06
5.28014e-06
3.96267e-06
3.21402e-06
2.91544e-06
3.09736e-06
3.80445e-06
5.14578e-06
7.04832e-06
9.48113e-06
1.2495e-05
1.6504e-05
2.18256e-05
6.59156e-06
4.81315e-06
3.46701e-06
2.49064e-06
1.92394e-06
1.66749e-06
1.7173e-06
2.13182e-06
3.06479e-06
4.55712e-06
6.57728e-06
9.08393e-06
1.21856e-05
1.62908e-05
4.689e-06
3.15383e-06
2.12598e-06
1.44729e-06
1.06638e-06
8.9123e-07
9.02111e-07
1.15052e-06
1.7855e-06
2.90641e-06
4.51765e-06
6.58578e-06
9.12753e-06
1.24909e-05
3.27787e-06
1.95525e-06
1.19653e-06
7.60831e-07
5.34313e-07
4.35283e-07
4.44663e-07
6.04545e-07
1.03736e-06
1.85991e-06
3.12236e-06
4.82726e-06
6.9935e-06
9.95236e-06
2.26516e-06
1.15952e-06
6.20852e-07
3.6001e-07
2.39668e-07
1.93477e-07
2.10352e-07
3.25969e-07
6.34793e-07
1.24858e-06
2.24847e-06
3.67942e-06
5.60271e-06
8.34316e-06
1.64409e-06
7.09565e-07
3.16743e-07
1.59173e-07
9.82675e-08
8.1593e-08
1.05317e-07
2.01643e-07
4.45198e-07
9.35961e-07
1.7691e-06
3.02374e-06
4.811e-06
7.49575e-06
1.36483e-06
5.16864e-07
1.90732e-07
7.82398e-08
4.31733e-08
4.02006e-08
6.91703e-08
1.61045e-07
3.80173e-07
8.17184e-07
1.57178e-06
2.74857e-06
4.51223e-06
7.30541e-06
1.40955e-06
5.23334e-07
1.81867e-07
6.89603e-08
3.73287e-08
3.87412e-08
7.27244e-08
1.70461e-07
3.93746e-07
8.30624e-07
1.58568e-06
2.78612e-06
4.65134e-06
7.71179e-06
1.81516e-06
7.38899e-07
2.84902e-07
1.25427e-07
7.79344e-08
7.695e-08
1.17355e-07
2.31462e-07
4.84508e-07
9.70774e-07
1.80743e-06
3.14403e-06
5.23654e-06
8.70716e-06
2.85358e-06
1.37729e-06
6.3029e-07
3.14837e-07
2.0743e-07
1.91524e-07
2.40991e-07
3.86763e-07
7.01375e-07
1.29458e-06
2.30402e-06
3.89425e-06
6.35008e-06
1.04567e-05
4.65909e-06
2.65885e-06
1.45519e-06
8.11113e-07
5.40774e-07
4.75253e-07
5.33632e-07
7.3112e-07
1.14432e-06
1.90701e-06
3.19579e-06
5.23379e-06
8.46527e-06
1.3315e-05
7.16381e-06
4.58811e-06
2.91682e-06
1.8513e-06
1.28999e-06
1.10227e-06
1.15755e-06
1.42834e-06
1.98393e-06
2.98201e-06
4.65791e-06
7.48141e-06
1.23078e-05
1.8507e-05
5.08405e-05
5.86887e-05
6.6676e-05
7.29785e-05
7.71409e-05
9.88599e-05
4.55652e-05
5.60749e-05
6.72197e-05
7.60764e-05
8.3497e-05
0.000109527
4.0912e-05
5.4775e-05
6.88059e-05
7.82813e-05
8.77932e-05
0.000118942
3.70004e-05
5.5398e-05
7.20047e-05
7.9548e-05
8.93614e-05
0.000127001
3.51674e-05
5.83067e-05
7.59166e-05
8.00858e-05
8.85373e-05
0.000133812
3.58249e-05
6.2923e-05
7.86942e-05
7.92176e-05
8.58686e-05
0.00013928
3.90638e-05
6.63596e-05
7.81876e-05
7.65114e-05
8.23404e-05
0.000143036
4.36528e-05
6.72421e-05
7.46878e-05
7.31572e-05
7.9067e-05
0.000144452
4.69962e-05
6.45905e-05
6.9699e-05
7.01922e-05
7.64311e-05
0.000143528
4.76641e-05
5.97387e-05
6.49169e-05
6.75626e-05
7.41717e-05
0.000140023
4.63516e-05
5.46617e-05
6.04825e-05
6.51884e-05
7.2427e-05
0.000133797
4.46427e-05
5.07205e-05
5.67738e-05
6.31002e-05
7.12289e-05
0.000124864
4.31913e-05
4.80138e-05
5.41591e-05
6.1649e-05
7.05329e-05
0.000113771
4.1719e-05
4.64221e-05
5.29119e-05
6.14455e-05
7.06375e-05
0.000100805
5.02519e-05
5.82577e-05
6.59573e-05
7.29538e-05
7.77259e-05
9.21185e-05
4.14353e-05
5.11337e-05
6.2686e-05
7.3307e-05
8.3077e-05
0.000102349
3.45171e-05
4.58321e-05
6.10956e-05
7.446e-05
8.64199e-05
0.000111376
2.85007e-05
4.19169e-05
6.11726e-05
7.60652e-05
8.75083e-05
0.000118805
2.45059e-05
4.01354e-05
6.28947e-05
7.78919e-05
8.69401e-05
0.000124707
2.22797e-05
4.0531e-05
6.54929e-05
7.90699e-05
8.50662e-05
0.000129202
2.21856e-05
4.22264e-05
6.68498e-05
7.82452e-05
8.24619e-05
0.000132112
2.36578e-05
4.41064e-05
6.62826e-05
7.59835e-05
8.0141e-05
0.000133351
2.58019e-05
4.46832e-05
6.35802e-05
7.3043e-05
7.85523e-05
0.000132956
2.77832e-05
4.35569e-05
5.98447e-05
7.03972e-05
7.76909e-05
0.000130425
2.92175e-05
4.1718e-05
5.62342e-05
6.81503e-05
7.72864e-05
0.000125336
3.07102e-05
4.07662e-05
5.37941e-05
6.61459e-05
7.66921e-05
0.000117475
3.32739e-05
4.15504e-05
5.28171e-05
6.43086e-05
7.57751e-05
0.000107056
3.56722e-05
4.3447e-05
5.29944e-05
6.29594e-05
7.46602e-05
9.45576e-05
5.04908e-05
6.13224e-05
6.95882e-05
7.42843e-05
7.90749e-05
8.25331e-05
3.82795e-05
4.90479e-05
6.01959e-05
7.0172e-05
8.0987e-05
9.24882e-05
2.93866e-05
3.98578e-05
5.30475e-05
6.7236e-05
8.22168e-05
0.000101507
2.23082e-05
3.26881e-05
4.76678e-05
6.5538e-05
8.25813e-05
0.00010874
1.78173e-05
2.77214e-05
4.41459e-05
6.50387e-05
8.27213e-05
0.000113916
1.47478e-05
2.44936e-05
4.26278e-05
6.58323e-05
8.25733e-05
0.000117858
1.29096e-05
2.30309e-05
4.29031e-05
6.65603e-05
8.22497e-05
0.000120996
1.21847e-05
2.30922e-05
4.37051e-05
6.68053e-05
8.15546e-05
0.000123166
1.23967e-05
2.3819e-05
4.40068e-05
6.6128e-05
8.08504e-05
0.000124062
1.322e-05
2.43046e-05
4.31907e-05
6.47939e-05
8.09409e-05
0.000123047
1.43211e-05
2.43109e-05
4.17503e-05
6.35443e-05
8.16113e-05
0.000119159
1.56865e-05
2.46567e-05
4.09531e-05
6.25065e-05
8.14028e-05
0.000111814
1.84327e-05
2.69272e-05
4.21285e-05
6.17969e-05
7.98282e-05
0.000101378
2.22257e-05
3.14338e-05
4.56759e-05
6.14746e-05
7.73454e-05
8.86551e-05
3.95574e-05
4.5552e-05
5.37358e-05
6.3809e-05
7.32269e-05
0.00010256
3.17254e-05
3.789e-05
4.81706e-05
6.16109e-05
7.67756e-05
0.000112823
2.42036e-05
3.07051e-05
4.30459e-05
5.9345e-05
7.84858e-05
0.0001211
1.73019e-05
2.46634e-05
3.90403e-05
5.73222e-05
7.83749e-05
0.000127391
1.28626e-05
2.08302e-05
3.67043e-05
5.62578e-05
7.69847e-05
0.000131714
1.03102e-05
1.95137e-05
3.69142e-05
5.636e-05
7.48936e-05
0.000134211
9.42792e-06
2.01354e-05
3.8475e-05
5.64807e-05
7.24127e-05
0.00013556
1.00314e-05
2.21928e-05
4.02328e-05
5.59349e-05
6.95973e-05
0.000136118
1.19887e-05
2.4574e-05
4.06688e-05
5.39948e-05
6.65077e-05
0.000136011
1.48298e-05
2.62286e-05
3.94137e-05
5.10399e-05
6.37956e-05
0.00013439
1.77496e-05
2.68408e-05
3.71882e-05
4.77938e-05
6.18419e-05
0.000130431
2.01315e-05
2.68944e-05
3.50357e-05
4.50303e-05
6.1016e-05
0.000123866
2.17361e-05
2.68173e-05
3.37873e-05
4.37789e-05
6.12191e-05
0.000113939
2.25332e-05
2.72198e-05
3.43037e-05
4.51188e-05
6.33045e-05
0.000101327
3.61292e-05
4.41053e-05
5.2984e-05
6.30075e-05
7.50189e-05
9.58995e-05
2.62936e-05
3.34446e-05
4.3651e-05
5.69637e-05
7.49311e-05
0.000105238
1.81351e-05
2.46237e-05
3.54837e-05
5.13386e-05
7.35334e-05
0.00011241
1.22507e-05
1.79146e-05
2.8927e-05
4.67267e-05
7.10886e-05
0.000117219
8.72959e-06
1.41216e-05
2.49687e-05
4.32725e-05
6.7862e-05
0.000119962
6.62067e-06
1.19651e-05
2.31195e-05
4.15541e-05
6.49153e-05
0.00012138
5.53484e-06
1.1146e-05
2.28224e-05
4.07779e-05
6.2422e-05
0.000121985
5.29247e-06
1.14776e-05
2.35252e-05
4.04407e-05
6.02862e-05
0.000122048
5.91437e-06
1.26015e-05
2.43465e-05
3.97697e-05
5.8093e-05
0.000121727
7.33878e-06
1.39536e-05
2.44731e-05
3.84358e-05
5.71837e-05
0.000121044
9.2809e-06
1.5193e-05
2.41721e-05
3.71116e-05
5.78029e-05
0.000118492
1.13976e-05
1.63877e-05
2.41454e-05
3.66312e-05
5.97439e-05
0.000112903
1.35267e-05
1.78978e-05
2.52785e-05
3.81515e-05
6.28838e-05
0.000104398
1.5561e-05
2.02444e-05
2.84634e-05
4.2554e-05
6.75516e-05
9.35885e-05
2.54909e-05
3.54241e-05
4.74077e-05
6.05188e-05
7.58788e-05
8.82768e-05
1.74126e-05
2.50654e-05
3.60457e-05
5.09066e-05
7.09614e-05
9.60645e-05
1.09785e-05
1.71279e-05
2.68676e-05
4.24748e-05
6.63596e-05
0.000101535
7.34428e-06
1.17515e-05
2.00293e-05
3.55039e-05
6.11136e-05
0.000104792
5.16741e-06
8.85523e-06
1.59325e-05
2.99219e-05
5.52601e-05
0.000105879
3.81065e-06
7.04334e-06
1.34059e-05
2.63867e-05
5.01121e-05
0.000105253
3.01449e-06
5.95357e-06
1.19296e-05
2.41368e-05
4.61796e-05
0.000104108
2.62345e-06
5.43399e-06
1.12779e-05
2.28673e-05
4.33865e-05
0.000103176
2.58182e-06
5.39261e-06
1.11818e-05
2.21978e-05
4.18038e-05
0.000102917
2.9205e-06
5.73214e-06
1.13051e-05
2.19022e-05
4.20755e-05
0.000103568
3.63372e-06
6.35604e-06
1.1647e-05
2.22728e-05
4.48717e-05
0.000103592
4.69577e-06
7.3155e-06
1.25621e-05
2.40424e-05
5.02828e-05
0.000100946
6.1313e-06
8.90879e-06
1.48179e-05
2.83208e-05
5.74307e-05
9.47742e-05
8.14792e-06
1.18565e-05
1.97239e-05
3.59868e-05
6.4972e-05
8.54421e-05
0.000100639
7.4884e-05
5.90869e-05
4.7633e-05
3.92977e-05
3.4139e-05
0.000113677
7.18484e-05
5.56571e-05
4.54557e-05
3.83977e-05
3.4084e-05
0.000125345
7.23859e-05
5.62103e-05
4.67377e-05
3.96263e-05
3.44445e-05
0.000133348
7.46708e-05
5.97046e-05
5.02472e-05
4.13666e-05
3.37762e-05
0.000139125
7.90945e-05
6.47731e-05
5.39227e-05
4.13265e-05
3.017e-05
0.000142754
8.55672e-05
6.97955e-05
5.49517e-05
3.75367e-05
2.40228e-05
0.000144599
9.30506e-05
7.14368e-05
5.08805e-05
3.07367e-05
1.71638e-05
0.000145072
9.87279e-05
6.79194e-05
4.28454e-05
2.30587e-05
1.14805e-05
0.000143875
0.000100599
6.15202e-05
3.45633e-05
1.71523e-05
8.01085e-06
0.00014026
9.8192e-05
5.50672e-05
2.90334e-05
1.43148e-05
6.91172e-06
0.000134044
9.22749e-05
5.1206e-05
2.74002e-05
1.46344e-05
8.04326e-06
0.000125567
8.44082e-05
4.93956e-05
2.8903e-05
1.76628e-05
1.15062e-05
0.000115288
7.6481e-05
4.9205e-05
3.24155e-05
2.251e-05
1.66317e-05
0.000103664
6.99984e-05
4.99251e-05
3.70442e-05
2.84999e-05
2.26885e-05
9.32826e-05
8.10797e-05
6.11181e-05
4.64617e-05
3.5418e-05
2.83488e-05
0.000105134
7.77251e-05
5.64602e-05
4.13422e-05
3.08496e-05
2.4796e-05
0.000115515
7.73345e-05
5.44908e-05
3.90176e-05
2.8252e-05
2.18749e-05
0.000123763
7.84629e-05
5.45335e-05
3.86832e-05
2.66116e-05
1.9022e-05
0.000129513
8.07774e-05
5.59973e-05
3.85011e-05
2.43012e-05
1.58376e-05
0.000133253
8.4739e-05
5.71388e-05
3.6587e-05
2.11617e-05
1.23931e-05
0.000135547
8.96985e-05
5.61191e-05
3.27051e-05
1.72095e-05
9.02365e-06
0.000136482
9.37773e-05
5.30325e-05
2.78898e-05
1.3447e-05
6.35961e-06
0.000135597
9.55184e-05
4.9394e-05
2.38141e-05
1.08802e-05
4.84081e-06
0.000132319
9.43425e-05
4.64145e-05
2.17168e-05
1.00119e-05
4.57875e-06
0.000126296
9.023e-05
4.51813e-05
2.19763e-05
1.09729e-05
5.59762e-06
0.000117812
8.4346e-05
4.56264e-05
2.45421e-05
1.38879e-05
8.23169e-06
0.000107376
7.85125e-05
4.70512e-05
2.85421e-05
1.82524e-05
1.22731e-05
9.57185e-05
7.42274e-05
4.95971e-05
3.37173e-05
2.38081e-05
1.73922e-05
8.49335e-05
8.69728e-05
6.50809e-05
4.46927e-05
2.98904e-05
2.0202e-05
9.64892e-05
8.60048e-05
5.90133e-05
3.62627e-05
2.2033e-05
1.45146e-05
0.000106405
8.39621e-05
5.37631e-05
3.07345e-05
1.77208e-05
1.12056e-05
0.000114154
8.14892e-05
4.91561e-05
2.753e-05
1.52239e-05
8.99665e-06
0.000119344
7.95742e-05
4.58435e-05
2.51254e-05
1.32682e-05
7.2251e-06
0.000122722
7.88714e-05
4.36927e-05
2.30658e-05
1.15258e-05
5.73769e-06
0.000125083
7.96918e-05
4.22357e-05
2.11172e-05
9.9151e-06
4.52815e-06
0.000126647
8.15883e-05
4.14487e-05
1.96245e-05
8.72951e-06
3.71825e-06
0.000126738
8.35029e-05
4.11872e-05
1.8752e-05
8.08125e-06
3.32847e-06
0.000124381
8.39875e-05
4.12261e-05
1.86716e-05
8.1176e-06
3.41591e-06
0.000118763
8.17987e-05
4.13799e-05
1.93365e-05
8.86318e-06
4.03458e-06
0.000110112
7.80159e-05
4.24186e-05
2.14e-05
1.08001e-05
5.52881e-06
9.92091e-05
7.47803e-05
4.40573e-05
2.43435e-05
1.36633e-05
7.89724e-06
8.71299e-05
7.25774e-05
4.66485e-05
2.8278e-05
1.74566e-05
1.11082e-05
9.73473e-05
7.30889e-05
6.76156e-05
6.09568e-05
5.45582e-05
4.95873e-05
0.000110482
7.13808e-05
6.47439e-05
5.85849e-05
5.35778e-05
5.01626e-05
0.000121879
7.17742e-05
6.46232e-05
5.9436e-05
5.55932e-05
5.28677e-05
0.00013156
7.42061e-05
6.69889e-05
6.31187e-05
6.0408e-05
5.75276e-05
0.000139124
7.89148e-05
7.1551e-05
6.92734e-05
6.74723e-05
6.17263e-05
0.000144223
8.52067e-05
7.81859e-05
7.74607e-05
7.36709e-05
6.13884e-05
0.000146642
9.27777e-05
8.60917e-05
8.45051e-05
7.45038e-05
5.46449e-05
0.000145979
0.00010071
9.25253e-05
8.57362e-05
6.75239e-05
4.35902e-05
0.000142666
0.000107641
9.3788e-05
7.872e-05
5.54404e-05
3.30651e-05
0.000138087
0.000111728
8.86051e-05
6.68911e-05
4.39429e-05
2.63021e-05
0.000131947
0.000110667
8.17673e-05
5.7705e-05
3.76183e-05
2.41085e-05
0.000123692
0.000104049
7.5498e-05
5.32077e-05
3.65222e-05
2.58519e-05
0.0001136
9.42072e-05
7.10184e-05
5.2475e-05
3.87438e-05
2.97502e-05
0.000102234
8.36307e-05
6.73863e-05
5.3781e-05
4.29849e-05
3.5313e-05
9.05173e-05
7.49457e-05
6.90792e-05
6.29196e-05
5.57087e-05
4.89484e-05
0.000102583
7.39477e-05
6.76445e-05
6.10584e-05
5.31985e-05
4.6698e-05
0.000113454
7.43822e-05
6.79891e-05
6.11329e-05
5.21204e-05
4.43698e-05
0.000122822
7.62194e-05
7.02068e-05
6.36472e-05
5.36022e-05
4.38195e-05
0.000130309
7.96967e-05
7.42491e-05
6.84245e-05
5.63398e-05
4.16786e-05
0.000135512
8.50626e-05
8.00199e-05
7.34481e-05
5.61925e-05
3.84395e-05
0.000137891
9.25833e-05
8.58343e-05
7.43998e-05
5.24245e-05
3.29627e-05
0.000137135
0.000100345
8.81871e-05
6.97823e-05
4.54226e-05
2.66659e-05
0.000134565
0.000107222
8.49782e-05
6.09012e-05
3.74484e-05
2.14078e-05
0.000130501
0.00011123
7.82328e-05
5.20217e-05
3.15142e-05
1.86248e-05
0.000124336
0.000110498
7.31757e-05
4.7085e-05
2.92483e-05
1.84721e-05
0.000115908
0.00010548
7.02524e-05
4.65196e-05
3.08427e-05
2.11346e-05
0.000105697
9.72115e-05
6.88704e-05
4.87462e-05
3.48795e-05
2.56739e-05
9.44417e-05
8.89719e-05
6.86872e-05
5.32332e-05
4.1303e-05
3.23182e-05
8.21195e-05
7.93887e-05
7.49583e-05
6.83333e-05
5.61388e-05
4.36138e-05
9.37536e-05
8.06847e-05
7.53327e-05
6.34192e-05
4.78218e-05
3.54426e-05
0.000104486
8.23617e-05
7.58314e-05
6.07685e-05
4.23705e-05
2.92678e-05
0.000113865
8.4654e-05
7.70614e-05
5.95905e-05
4.02265e-05
2.69563e-05
0.000121118
8.74154e-05
7.7622e-05
5.89527e-05
3.893e-05
2.46967e-05
0.000125615
9.05608e-05
7.75804e-05
5.72329e-05
3.65168e-05
2.19414e-05
0.000127361
9.49075e-05
7.6003e-05
5.32901e-05
3.26744e-05
1.8823e-05
0.000127294
9.8683e-05
7.25895e-05
4.81871e-05
2.87185e-05
1.61919e-05
0.000125525
0.000100703
6.88818e-05
4.36265e-05
2.55493e-05
1.43691e-05
0.000121524
0.000101223
6.63908e-05
4.11157e-05
2.41494e-05
1.39024e-05
0.000115049
9.96626e-05
6.54465e-05
4.07828e-05
2.45331e-05
1.46923e-05
0.000106409
9.61456e-05
6.61677e-05
4.31678e-05
2.75102e-05
1.75406e-05
9.61837e-05
9.19664e-05
6.80994e-05
4.73808e-05
3.23119e-05
2.2017e-05
8.51e-05
8.96177e-05
7.18466e-05
5.4069e-05
3.96556e-05
2.86525e-05
1.06872e-05
7.89849e-06
6.09129e-06
5.03879e-06
4.73652e-06
4.74931e-06
5.04395e-06
5.53828e-06
6.35595e-06
7.49194e-06
8.96741e-06
1.05698e-05
1.31457e-05
1.95297e-05
5.66676e-06
4.21716e-06
3.28032e-06
2.71325e-06
2.52444e-06
2.53574e-06
2.71134e-06
3.00956e-06
3.51662e-06
4.27789e-06
5.36558e-06
6.74318e-06
9.04862e-06
1.42407e-05
3.24293e-06
2.27356e-06
1.74698e-06
1.43946e-06
1.32963e-06
1.33344e-06
1.42663e-06
1.59343e-06
1.89931e-06
2.4107e-06
3.2237e-06
4.41627e-06
6.43001e-06
1.032e-05
2.02707e-06
1.2543e-06
9.09226e-07
7.34346e-07
6.73369e-07
6.74066e-07
7.20801e-07
8.11781e-07
9.98475e-07
1.35248e-06
1.98031e-06
3.00183e-06
4.72437e-06
7.73959e-06
1.36983e-06
7.12171e-07
4.58545e-07
3.52976e-07
3.19551e-07
3.19454e-07
3.43129e-07
3.95251e-07
5.16178e-07
7.72218e-07
1.26672e-06
2.12945e-06
3.58026e-06
5.98906e-06
9.99556e-07
4.26293e-07
2.26804e-07
1.58636e-07
1.39764e-07
1.39635e-07
1.52747e-07
1.86164e-07
2.71371e-07
4.65315e-07
8.60716e-07
1.58223e-06
2.80516e-06
4.7917e-06
7.86879e-07
2.80145e-07
1.15791e-07
6.77352e-08
5.61227e-08
5.62117e-08
6.49023e-08
8.98919e-08
1.56512e-07
3.13108e-07
6.4044e-07
1.25261e-06
2.30224e-06
4.0037e-06
6.82126e-07
2.13794e-07
6.83049e-08
2.95951e-08
2.12093e-08
2.16047e-08
2.88629e-08
5.09353e-08
1.09864e-07
2.48283e-07
5.37376e-07
1.08041e-06
2.0164e-06
3.53845e-06
6.45075e-07
1.91155e-07
5.20367e-08
1.6152e-08
8.76709e-09
9.48683e-09
1.69183e-08
3.95424e-08
9.86297e-08
2.3438e-07
5.12099e-07
1.02621e-06
1.90548e-06
3.32912e-06
6.75978e-07
2.0267e-07
5.42613e-08
1.52374e-08
7.11444e-09
8.12574e-09
1.69007e-08
4.2889e-08
1.08425e-07
2.5392e-07
5.42043e-07
1.06059e-06
1.93033e-06
3.32105e-06
7.6671e-07
2.44489e-07
7.36491e-08
2.61469e-08
1.54183e-08
1.65751e-08
2.79248e-08
6.01766e-08
1.37782e-07
3.03204e-07
6.1896e-07
1.16859e-06
2.0679e-06
3.48086e-06
1.01227e-06
3.60321e-07
1.32815e-07
6.36752e-08
4.5498e-08
4.59729e-08
6.19668e-08
1.05097e-07
2.02076e-07
3.98201e-07
7.57068e-07
1.35909e-06
2.31577e-06
3.7877e-06
1.46199e-06
6.05825e-07
2.79351e-07
1.66764e-07
1.31158e-07
1.28387e-07
1.52385e-07
2.14577e-07
3.42851e-07
5.86016e-07
1.01106e-06
1.69886e-06
2.7543e-06
4.33294e-06
2.20724e-06
1.06948e-06
5.94839e-07
4.08499e-07
3.40928e-07
3.32234e-07
3.7214e-07
4.72062e-07
6.61954e-07
9.97365e-07
1.55118e-06
2.40913e-06
3.68677e-06
5.47006e-06
5.73266e-06
4.30437e-06
3.43819e-06
2.96687e-06
2.89312e-06
2.99228e-06
3.2415e-06
3.6107e-06
4.18193e-06
4.99831e-06
6.1034e-06
7.41985e-06
9.12071e-06
1.237e-05
3.03244e-06
2.23341e-06
1.77634e-06
1.52327e-06
1.47349e-06
1.53155e-06
1.67423e-06
1.89132e-06
2.23626e-06
2.75762e-06
3.51798e-06
4.51025e-06
5.9399e-06
8.62092e-06
1.73908e-06
1.16842e-06
9.01726e-07
7.66551e-07
7.38454e-07
7.69101e-07
8.43676e-07
9.61551e-07
1.16011e-06
1.48799e-06
2.01597e-06
2.79779e-06
4.03135e-06
6.28505e-06
1.08294e-06
6.22289e-07
4.44651e-07
3.69716e-07
3.55041e-07
3.7048e-07
4.07675e-07
4.69486e-07
5.83421e-07
7.94037e-07
1.17364e-06
1.80661e-06
2.87005e-06
4.75938e-06
7.30351e-07
3.44004e-07
2.13279e-07
1.68439e-07
1.60297e-07
1.67648e-07
1.85986e-07
2.19155e-07
2.87852e-07
4.30488e-07
7.14147e-07
1.23173e-06
2.13815e-06
3.71685e-06
5.34896e-07
2.05431e-07
1.02409e-07
7.25178e-08
6.71748e-08
7.04108e-08
7.97449e-08
9.91773e-08
1.44593e-07
2.48093e-07
4.68253e-07
8.942e-07
1.66104e-06
2.98575e-06
4.25021e-07
1.38526e-07
5.27265e-08
3.02596e-08
2.61329e-08
2.74916e-08
3.28497e-08
4.61748e-08
8.034e-08
1.62521e-07
3.43178e-07
7.03036e-07
1.36101e-06
2.49537e-06
3.70482e-07
1.09327e-07
3.25297e-08
1.33413e-08
9.7185e-09
1.03679e-08
1.42712e-08
2.54671e-08
5.54545e-08
1.28538e-07
2.89348e-07
6.10199e-07
1.19735e-06
2.20522e-06
3.50395e-07
1.002e-07
2.61006e-08
7.63896e-09
4.06098e-09
4.54696e-09
8.30478e-09
1.97158e-08
5.02786e-08
1.23456e-07
2.80748e-07
5.88189e-07
1.14283e-06
2.08336e-06
3.61823e-07
1.05986e-07
2.75303e-08
7.45701e-09
3.45143e-09
4.03162e-09
8.50491e-09
2.19409e-08
5.68933e-08
1.37626e-07
3.04823e-07
6.20737e-07
1.17673e-06
2.10139e-06
3.9749e-07
1.24503e-07
3.66975e-08
1.29368e-08
7.844e-09
8.6493e-09
1.46944e-08
3.2014e-08
7.49184e-08
1.69693e-07
3.58248e-07
7.01722e-07
1.2894e-06
2.24371e-06
4.90955e-07
1.73259e-07
6.46958e-08
3.22492e-08
2.40545e-08
2.50094e-08
3.41762e-08
5.85032e-08
1.14387e-07
2.30876e-07
4.52425e-07
8.4076e-07
1.48443e-06
2.50148e-06
6.64607e-07
2.80555e-07
1.37225e-07
8.73884e-08
7.1626e-08
7.21135e-08
8.73861e-08
1.24827e-07
2.02459e-07
3.52404e-07
6.22574e-07
1.07717e-06
1.80209e-06
2.91294e-06
9.82491e-07
5.09521e-07
3.06902e-07
2.23594e-07
1.9251e-07
1.91999e-07
2.19873e-07
2.84004e-07
4.03704e-07
6.14233e-07
9.66439e-07
1.52635e-06
2.37411e-06
3.60116e-06
2.8552e-06
2.1879e-06
1.79507e-06
1.60525e-06
1.61455e-06
1.7331e-06
1.95381e-06
2.27254e-06
2.72094e-06
3.33022e-06
4.14623e-06
5.18e-06
6.54114e-06
8.69167e-06
1.54438e-06
1.14606e-06
9.21813e-07
8.08729e-07
8.00842e-07
8.5734e-07
9.71102e-07
1.14548e-06
1.40583e-06
1.78473e-06
2.32827e-06
3.06626e-06
4.1108e-06
5.79869e-06
8.82137e-07
5.9119e-07
4.55932e-07
3.93325e-07
3.86598e-07
4.13549e-07
4.69614e-07
5.59184e-07
7.0219e-07
9.30324e-07
1.29125e-06
1.8358e-06
2.67607e-06
4.08481e-06
5.40268e-07
3.0502e-07
2.15815e-07
1.81327e-07
1.77611e-07
1.90445e-07
2.17282e-07
2.61833e-07
3.39321e-07
4.77858e-07
7.24029e-07
1.1394e-06
1.83288e-06
3.02255e-06
3.59619e-07
1.63001e-07
9.88712e-08
7.86324e-08
7.64539e-08
8.23616e-08
9.49792e-08
1.17313e-07
1.6083e-07
2.48867e-07
4.23467e-07
7.47248e-07
1.32179e-06
2.32607e-06
2.60147e-07
9.47972e-08
4.55273e-08
3.22534e-08
3.0601e-08
3.31588e-08
3.91539e-08
5.11109e-08
7.77473e-08
1.3788e-07
2.67419e-07
5.24534e-07
1.00141e-06
1.84858e-06
2.05033e-07
6.32882e-08
2.28662e-08
1.29116e-08
1.14213e-08
1.24777e-08
1.55972e-08
2.30152e-08
4.16879e-08
8.70891e-08
1.89702e-07
4.01652e-07
8.057e-07
1.53212e-06
1.77654e-07
5.01679e-08
1.4155e-08
5.5649e-09
4.10718e-09
4.57667e-09
6.62485e-09
1.23946e-08
2.80165e-08
6.7155e-08
1.56708e-07
3.43578e-07
7.02635e-07
1.34959e-06
1.69077e-07
4.6866e-08
1.16781e-08
3.24104e-09
1.71183e-09
2.0181e-09
3.88162e-09
9.58451e-09
2.5268e-08
6.42146e-08
1.51747e-07
3.31488e-07
6.72913e-07
1.2814e-06
1.77262e-07
5.05598e-08
1.26268e-08
3.33517e-09
1.60647e-09
1.96399e-09
4.19789e-09
1.09982e-08
2.92229e-08
7.29646e-08
1.67757e-07
3.5603e-07
7.04631e-07
1.31255e-06
1.98388e-07
6.04452e-08
1.73216e-08
6.23979e-09
4.08221e-09
4.67042e-09
7.86916e-09
1.70321e-08
4.03088e-08
9.35897e-08
2.04246e-07
4.15693e-07
7.95117e-07
1.43842e-06
2.42513e-07
8.43718e-08
3.17837e-08
1.66708e-08
1.32461e-08
1.43182e-08
1.97109e-08
3.35421e-08
6.57017e-08
1.34678e-07
2.7099e-07
5.20806e-07
9.53312e-07
1.66272e-06
3.25404e-07
1.40513e-07
7.15577e-08
4.76149e-08
4.07713e-08
4.26786e-08
5.2991e-08
7.64377e-08
1.24669e-07
2.19301e-07
3.95085e-07
7.02763e-07
1.21402e-06
2.02279e-06
4.93429e-07
2.69441e-07
1.68829e-07
1.26519e-07
1.12279e-07
1.16042e-07
1.37272e-07
1.81355e-07
2.6147e-07
4.01973e-07
6.41249e-07
1.03361e-06
1.6509e-06
2.57916e-06
1.60468e-06
1.22752e-06
9.83031e-07
8.64861e-07
8.645e-07
9.52897e-07
1.13227e-06
1.39907e-06
1.76654e-06
2.25592e-06
2.89039e-06
3.71151e-06
4.81305e-06
6.44554e-06
8.54294e-07
6.3232e-07
4.94393e-07
4.22591e-07
4.12281e-07
4.48348e-07
5.31878e-07
6.66797e-07
8.6895e-07
1.16258e-06
1.57646e-06
2.14986e-06
2.96222e-06
4.1981e-06
4.68797e-07
3.13137e-07
2.34462e-07
1.96228e-07
1.89527e-07
2.0513e-07
2.43213e-07
3.08003e-07
4.13067e-07
5.81593e-07
8.45844e-07
1.25059e-06
1.87164e-06
2.86499e-06
2.75293e-07
1.53222e-07
1.0515e-07
8.55768e-08
8.24307e-08
8.94716e-08
1.06548e-07
1.36789e-07
1.90405e-07
2.87065e-07
4.58422e-07
7.50944e-07
1.23841e-06
2.05543e-06
1.76659e-07
7.74699e-08
4.54089e-08
3.49773e-08
3.35335e-08
3.66792e-08
4.42378e-08
5.84373e-08
8.66364e-08
1.44323e-07
2.59317e-07
4.75318e-07
8.61366e-07
1.53597e-06
1.24074e-07
4.30352e-08
1.97684e-08
1.35345e-08
1.27048e-08
1.40446e-08
1.74234e-08
2.44977e-08
4.05851e-08
7.75141e-08
1.58184e-07
3.21253e-07
6.29429e-07
1.18734e-06
9.59366e-08
2.80727e-08
9.5711e-09
5.15593e-09
4.51181e-09
5.06304e-09
6.71183e-09
1.07735e-08
2.12647e-08
4.74046e-08
1.07953e-07
2.36564e-07
4.89637e-07
9.60426e-07
8.30467e-08
2.24102e-08
5.94734e-09
2.17592e-09
1.56685e-09
1.81358e-09
2.83136e-09
5.78023e-09
1.40248e-08
3.53771e-08
8.60323e-08
1.95995e-07
4.16654e-07
8.32716e-07
8.12015e-08
2.15754e-08
5.07446e-09
1.31242e-09
6.74067e-10
8.3894e-10
1.7341e-09
4.5434e-09
1.25479e-08
3.32239e-08
8.18181e-08
1.86562e-07
3.96027e-07
7.89292e-07
8.89319e-08
2.40567e-08
5.68248e-09
1.4834e-09
7.77717e-10
9.86458e-10
2.07787e-09
5.45392e-09
1.48086e-08
3.82054e-08
9.14175e-08
2.02847e-07
4.20813e-07
8.21954e-07
1.03811e-07
2.97338e-08
8.21956e-09
3.1337e-09
2.2978e-09
2.7159e-09
4.41517e-09
9.222e-09
2.1714e-08
5.14058e-08
1.16037e-07
2.4618e-07
4.9258e-07
9.32087e-07
1.30981e-07
4.3556e-08
1.64013e-08
9.15395e-09
7.86502e-09
8.87016e-09
1.21831e-08
2.02081e-08
3.88796e-08
8.00285e-08
1.64761e-07
3.2771e-07
6.24151e-07
1.13204e-06
1.83517e-07
7.81488e-08
4.00388e-08
2.7479e-08
2.4777e-08
2.72258e-08
3.46677e-08
5.01275e-08
8.12023e-08
1.4283e-07
2.60863e-07
4.75782e-07
8.48444e-07
1.45787e-06
2.94696e-07
1.60824e-07
9.9914e-08
7.54421e-08
6.93226e-08
7.51635e-08
9.24687e-08
1.24954e-07
1.81957e-07
2.81499e-07
4.54065e-07
7.45383e-07
1.21999e-06
1.95334e-06
1.08087e-06
8.11636e-07
6.22115e-07
5.1806e-07
4.94277e-07
5.40345e-07
6.60581e-07
8.58604e-07
1.14918e-06
1.55123e-06
2.08106e-06
2.77276e-06
3.69063e-06
4.98667e-06
5.55336e-07
4.05985e-07
3.04661e-07
2.46466e-07
2.28245e-07
2.43402e-07
2.94138e-07
3.86878e-07
5.37367e-07
7.67213e-07
1.10006e-06
1.57087e-06
2.23264e-06
3.20048e-06
2.89275e-07
1.92279e-07
1.38643e-07
1.09691e-07
1.00165e-07
1.05684e-07
1.27052e-07
1.68778e-07
2.42887e-07
3.68731e-07
5.72382e-07
8.91159e-07
1.37849e-06
2.13379e-06
1.59137e-07
8.85509e-08
5.89402e-08
4.5357e-08
4.11914e-08
4.34748e-08
5.25005e-08
7.09891e-08
1.0704e-07
1.75897e-07
3.0191e-07
5.2137e-07
8.87496e-07
1.49103e-06
9.52423e-08
4.15366e-08
2.38498e-08
1.74386e-08
1.57573e-08
1.67687e-08
2.06056e-08
2.89519e-08
4.71071e-08
8.63014e-08
1.66825e-07
3.21123e-07
5.98762e-07
1.08213e-06