/*--------------------------------*- C++ -*----------------------------------*\
| =========                 |                                                 |
| \\      /  F ield         | OpenFOAM: The Open Source CFD Toolbox           |
|  \\    /   O peration     | Version:  v2106                                 |
|   \\  /    A nd           | Website:  www.openfoam.com                      |
|    \\/     M anipulation  |                                                 |
\*---------------------------------------------------------------------------*/
FoamFile
{
    version     2.0;
    format      ascii;
    arch        "LSB;label=32;scalar=64";
    class       volScalarField;
    location    "0.0002";
    object      p;
}
// * * * * * * * * * * * * * * * * * * * * * * * * * * * * * * * * * * * * * //

dimensions      [1 -1 -2 0 0 0 0];

internalField   nonuniform List<scalar> 
144746
(
195138
195224
194904
194779
194635
194520
194360
194180
193941
193791
193675
193889
193849
194548
194761
194939
194858
194849
194773
194685
194568
194418
194224
194082
194007
194139
194137
194762
194924
195058
195025
195041
194988
194952
194839
194724
194583
194438
194330
194318
194239
194537
195049
195184
195221
195270
195280
195239
195164
195077
194976
194868
194758
194702
194583
194667
195310
195402
195453
195536
195562
195554
195501
195435
195357
195270
195159
195078
194964
194929
195612
195652
195707
195793
195849
195872
195843
195787
195733
195670
195579
195485
195382
195237
195920
195908
195973
196055
196122
196159
196149
196106
196067
196016
195926
195822
195703
195506
196232
196208
196267
196354
196428
196461
196445
196408
196377
196326
196254
196147
196005
195783
196508
196530
196608
196686
196746
196767
196744
196705
196667
196601
196491
196346
196170
195954
196850
196894
196963
197031
197072
197074
197048
197010
196969
196884
196767
196581
196349
196105
197147
197221
197302
197355
197377
197358
197334
197301
197252
197153
197022
196796
196563
196275
197511
197504
197587
197619
197636
197596
197584
197558
197511
197409
197280
197054
196872
196575
197880
197727
197806
197814
197810
197762
197779
197762
197714
197598
197466
197219
197043
196692
198061
197789
197940
197937
197949
197909
197949
197945
197905
197802
197711
197652
197837
197589
194728
195213
195226
195426
195465
195647
195682
195674
195573
195491
195336
195334
195061
195459
194878
195240
195367
195597
195656
195807
195859
195876
195826
195807
195745
195756
195645
195958
195222
195490
195587
195790
195863
195992
196056
196090
196075
196043
195995
195980
195904
195988
195544
195720
195821
195998
196071
196192
196269
196320
196339
196339
196341
196327
196260
196250
195816
195944
196064
196163
196282
196390
196474
196539
196598
196652
196677
196685
196649
196628
196082
196157
196247
196385
196507
196618
196707
196782
196854
196934
197021
197038
197036
196991
196300
196390
196474
196607
196721
196833
196933
197024
197123
197226
197307
197364
197363
197300
196503
196610
196700
196843
196955
197062
197167
197268
197378
197498
197595
197613
197591
197527
196689
196834
196949
197082
197196
197298
197406
197513
197619
197733
197820
197841
197792
197660
196920
197079
197212
197339
197455
197549
197653
197758
197854
197948
197997
197988
197900
197735
197189
197337
197479
197605
197706
197799
197886
197983
198053
198131
198152
198142
198027
197829
197493
197605
197739
197856
197965
198046
198121
198187
198226
198286
198277
198256
198150
197946
197798
197847
197996
198094
198186
198251
198311
198358
198373
198393
198377
198303
198218
197948
197965
197991
198192
198311
198424
198500
198548
198564
198561
198510
198498
198511
198615
198525
193616
194487
194732
194961
195182
195347
195461
195486
195437
195321
195169
195070
194877
195087
194343
194853
195192
195398
195593
195720
195822
195873
195863
195837
195859
195883
195829
196062
195069
195434
195680
195844
195990
196089
196167
196230
196276
196328
196331
196358
196296
196403
195734
195984
196182
196316
196433
196507
196577
196633
196676
196712
196777
196841
196798
196818
196285
196484
196659
196762
196860
196919
196981
197035
197095
197150
197191
197238
197272
197290
196774
196948
197117
197217
197306
197363
197414
197460
197518
197583
197652
197705
197744
197805
197207
197386
197543
197651
197743
197803
197854
197904
197966
198037
198114
198179
198239
198308
197664
197852
198005
198112
198202
198264
198320
198377
198441
198517
198598
198658
198729
198799
198090
198288
198431
198546
198641
198716
198786
198856
198926
199001
199077
199129
199211
199259
198540
198746
198888
199003
199096
199180
199256
199332
199404
199476
199545
199585
199659
199661
198948
199179
199333
199454
199540
199632
199710
199788
199861
199925
199979
200001
200045
200004
199349
199590
199771
199902
199995
200075
200146
200211
200270
200320
200359
200398
200385
200326
199721
199958
200155
200299
200391
200469
200529
200597
200655
200709
200751
200763
200717
200476
199881
200226
200488
200670
200788
200876
200931
200970
200999
201042
201120
201207
201296
201053
196012
197087
197157
197791
197849
199751
194148
195139
195666
196959
197417
199373
194387
195192
195654
196930
197498
199496
194543
195037
195453
196667
197308
199202
194865
195220
195656
196804
197466
199316
195127
195321
195689
196729
197470
199121
195398
195567
195883
196904
197514
199384
195634
195738
195984
196979
197553
199724
195788
195911
196248
197326
197899
200029
195945
196140
196505
197647
198222
200306
196230
196512
196930
198077
198591
200555
196536
196835
197257
198328
198822
200922
197043
197522
197977
199015
199472
200499
196578
197200
197951
199416
200006
200688
196619
197470
197288
197597
197234
198901
195263
195757
195939
196842
196903
198661
195732
196106
196222
197183
197175
199282
196082
196237
196291
197173
197206
199139
196550
196666
196720
197583
197632
199525
196900
196976
197011
197727
197791
199246
197205
197298
197301
197954
197954
199609
197413
197481
197422
197993
197859
199743
197525
197542
197487
198100
197983
199981
197581
197541
197537
198177
198171
200138
197690
197656
197686
198315
198458
200210
197810
197742
197712
198277
198513
200460
197993
198065
198152
198819
198886
200306
197198
197402
197675
198855
199392
200309
196301
196494
196423
195969
195476
196016
195384
195374
195184
195525
195411
196234
196013
195869
195674
196191
196183
197914
196629
196429
196297
196760
196781
198450
197253
197134
197131
197703
197853
200047
197819
197825
197908
198490
198802
200710
198370
198481
198612
199207
199554
201516
198861
199037
199180
199717
199954
201965
199335
199525
199656
200132
200321
202425
199704
199846
199948
200417
200631
202485
200022
200128
200233
200608
200847
202240
200368
200352
200409
200685
200926
202077
200794
200583
200721
201032
201185
202329
200199
200127
200159
200688
201252
202649
198715
199717
199694
200308
200450
201404
197102
198106
198333
199448
199523
201337
197472
198258
198432
199578
199518
201823
197671
198138
198248
199272
199367
201423
197901
198235
198370
199277
199392
201294
198028
198267
198333
199109
199221
200809
198075
198265
198313
199037
199045
200782
198043
198228
198251
198845
198723
200697
198019
198198
198248
198811
198838
200599
198003
198135
198218
198683
198801
200333
198050
198164
198213
198519
198565
200709
198073
198167
198258
198659
198812
200005
198134
198272
198416
198826
199087
200022
197500
197621
197905
198590
198857
199551
199465
200064
199925
200334
200169
200674
198097
198630
198503
199243
199100
200541
198316
198675
198580
199390
199169
200986
198453
198700
198663
199370
199373
200734
198588
198830
198885
199549
199499
200966
198709
198994
199048
199705
199791
200865
198743
199021
199136
199845
200116
200778
198687
199056
199238
199872
200121
200498
198670
199015
199249
199718
199844
200332
198616
198866
199102
199445
199555
200114
198535
198720
198940
199171
199320
199966
198439
198509
198660
198772
198904
199438
198345
198267
198385
198520
198799
199317
197511
197290
197453
197781
198181
198520
202065
202585
202568
202774
202548
203072
201186
201607
201532
202163
202278
203017
201260
201665
201684
202484
202614
203362
201289
201705
201789
202464
202542
203295
201349
201722
201902
202504
202689
203524
201329
201770
202024
202571
202819
203350
201332
201767
202064
202505
202748
203129
201288
201753
202022
202362
202528
202671
201214
201650
201870
202028
202029
201725
201103
201439
201573
201525
201335
200868
200975
201142
201200
200958
200531
199635
200783
200763
200718
200223
199611
198426
200569
200270
200086
199434
198903
197509
199729
199126
198709
198004
197712
196179
197744
196795
196356
195412
194848
194509
198050
196822
196463
195785
195436
195291
197898
196430
196059
195408
195127
195071
198514
196357
195956
195383
195170
195136
198350
196423
196063
195452
195284
195300
198337
196677
196380
195806
195611
195588
198103
197000
196740
196088
195970
195899
198342
197356
197068
196457
196381
196255
198629
197508
197383
196773
196712
196517
199155
197904
197758
197077
197041
196838
199260
198054
198041
197361
197335
197078
199786
198508
198512
197809
197772
197376
199713
198613
198749
198082
198053
197488
200665
199568
199652
199252
199286
198599
195666
194992
194467
193721
193509
194067
196249
195438
195203
194881
194802
195304
196202
195438
195240
195042
195012
195367
196779
195795
195595
195407
195349
195607
196719
195919
195728
195661
195624
195818
196845
196204
196036
195972
195915
196066
196847
196298
196193
196114
196099
196259
197123
196509
196329
196246
196284
196450
197409
196788
196573
196391
196447
196598
197927
197220
196948
196630
196707
196772
198098
197432
197267
196918
197019
197016
198575
197912
197729
197318
197386
197271
198615
198023
197970
197561
197663
197464
199424
198828
198821
198689
198698
198332
186692
189065
189115
190025
190766
192432
187419
190134
190808
192175
192875
194332
187953
190716
191454
192954
193645
194848
189220
191614
192384
193795
194426
195458
190460
192518
193241
194530
195144
195992
191772
193480
194155
195262
195827
196479
192942
194329
194987
195879
196447
196925
194021
195167
195759
196524
197043
197408
194773
195844
196369
197099
197559
197856
195381
196443
196893
197638
198083
198317
195624
196845
197280
198035
198512
198705
195836
197251
197716
198483
198941
199127
195938
197460
197890
198752
199284
199416
196353
198103
198813
199639
199964
200074
199263
197940
197251
195829
194825
194124
199590
197402
196890
195776
195091
194548
199459
197244
196549
195226
194502
194078
199289
197148
196440
195088
194383
193904
199265
196959
196218
194891
194155
193783
199120
196791
196027
194787
194215
193909
198725
196727
195982
194901
194408
194129
198715
196742
196027
195016
194580
194322
198443
196587
196148
195141
194772
194503
198558
196645
196320
195256
194937
194571
198328
196584
196359
195214
195030
194702
198888
196683
196515
195524
195361
194792
198581
196466
196553
195612
195431
194755
199009
197663
197622
197013
196894
196079
197871
196734
196024
194754
194164
194176
198148
196447
196109
195481
195232
195419
197890
196185
195834
195189
195027
195307
198090
196148
195892
195238
195070
195257
198204
196115
195934
195278
195170
195345
198252
196234
196086
195510
195410
195470
197898
196351
196194
195684
195573
195577
197512
196374
196257
195748
195630
195596
197288
196307
196172
195609
195564
195546
197394
196099
195940
195337
195383
195366
196913
195618
195589
195016
195109
195251
196990
195779
195560
194966
194974
194989
196410
195449
195403
194765
194742
194694
197007
196010
196058
195988
195974
195471
193761
194008
192845
192376
192364
193290
193399
193919
193304
193594
193837
194847
192696
193325
192894
193317
193688
194723
193077
193321
193125
193473
193857
194741
193696
193458
193400
193703
194117
194854
194048
193824
193730
194045
194407
194997
193645
194045
193866
194218
194580
195085
193261
193904
193719
194213
194593
195086
192595
193259
193245
193921
194392
194955
191823
192579
192740
193533
194093
194749
190571
191685
192067
192979
193670
194455
189730
191126
191596
192606
193277
194025
188478
190361
190932
192170
192923
193552
187954
190192
191188
192761
193285
193877
196253
196486
196447
196438
196456
196432
196437
196393
196318
196182
195980
195747
195456
195530
196751
196840
196834
196824
196802
196757
196739
196705
196665
196570
196442
196319
196227
196354
197242
197276
197260
197231
197177
197119
197076
197044
197014
196950
196854
196769
196682
196757
197673
197673
197668
197616
197556
197488
197430
197386
197353
197303
197242
197181
197160
197209
198068
198061
198056
198002
197941
197870
197807
197762
197730
197692
197652
197622
197608
197636
198461
198454
198446
198390
198331
198266
198207
198166
198138
198115
198093
198093
198110
198135
198881
198869
198850
198798
198745
198687
198635
198601
198582
198573
198569
198589
198625
198645
199361
199331
199297
199241
199189
199135
199089
199064
199056
199058
199069
199100
199148
199154
199856
199815
199765
199709
199659
199609
199569
199551
199551
199559
199579
199611
199664
199658
200438
200377
200300
200230
200168
200113
200071
200052
200051
200061
200081
200114
200169
200153
200973
200918
200839
200765
200690
200630
200582
200556
200550
200557
200580
200600
200664
200633
201664
201570
201465
201371
201263
201183
201115
201070
201044
201037
201052
201059
201134
201103
202122
202111
202011
201930
201809
201709
201621
201558
201512
201489
201492
201501
201580
201551
202935
202842
202723
202604
202447
202305
202181
202084
201999
201950
201939
201969
202066
201999
197714
197563
197388
197187
197110
197013
196945
196844
196724
196565
196347
196138
195858
195697
198099
197941
197772
197597
197484
197367
197277
197181
197071
196941
196783
196613
196424
196336
198446
198286
198149
197983
197849
197719
197612
197511
197410
197299
197171
197028
196857
196788
198764
198599
198484
198336
198211
198086
197971
197863
197762
197658
197552
197440
197273
197203
199065
198904
198802
198673
198557
198440
198328
198225
198130
198039
197950
197864
197747
197687
199410
199254
199153
199033
198923
198815
198714
198620
198535
198458
198388
198328
198242
198197
199815
199656
199547
199429
199322
199222
199131
199046
198973
198911
198861
198824
198768
198736
200301
200141
200012
199890
199780
199679
199590
199513
199449
199399
199366
199345
199309
199271
200840
200685
200538
200408
200289
200182
200089
200012
199953
199911
199893
199880
199859
199806
201469
201305
201134
200989
200852
200730
200623
200536
200475
200432
200424
200407
200398
200330
202092
201939
201760
201601
201443
201302
201175
201071
201001
200955
200950
200919
200926
200843
202822
202644
202441
202255
202068
201899
201750
201625
201543
201489
201472
201424
201439
201339
203401
203277
203086
202896
202688
202493
202319
202176
202070
201998
201962
201911
201926
201813
204283
204116
203861
203614
203355
203124
202923
202761
202632
202535
202467
202415
202418
202305
199770
199366
199032
198644
198386
198137
197928
197728
197514
197287
197034
196757
196415
196138
199951
199597
199287
198964
198702
198448
198217
198008
197798
197583
197357
197126
196866
196607
200049
199737
199482
199217
198980
198748
198518
198303
198092
197883
197667
197449
197179
196986
200172
199878
199666
199450
199243
199034
198815
198604
198395
198190
197984
197773
197518
197271
200366
200084
199885
199688
199499
199308
199109
198912
198713
198518
198321
198127
197899
197685
200641
200369
200170
199981
199799
199617
199430
199246
199058
198876
198694
198523
198325
198146
201020
200762
200550
200353
200164
199981
199799
199623
199445
199280
199122
198976
198817
198672
201508
201256
201024
200812
200608
200414
200228
200054
199884
199736
199604
199484
199367
199247
202062
201823
201572
201344
201121
200909
200711
200533
200371
200238
200133
200038
199960
199848
202689
202450
202177
201928
201681
201448
201233
201047
200893
200771
200689
200608
200550
200429
203322
203093
202810
202540
202268
202010
201776
201578
201426
201309
201242
201166
201117
200976
204019
203770
203459
203160
202861
202581
202332
202126
201974
201854
201785
201701
201639
201474
204707
204440
204124
203803
203475
203168
202899
202676
202507
202370
202287
202187
202109
201931
205523
205191
204805
204429
204072
203751
203476
203250
203063
202901
202785
202657
202559
202369
200939
200585
200175
199771
199409
199064
198760
198465
198162
197848
197541
197221
196907
196582
201010
200646
200281
199931
199611
199286
198970
198663
198363
198076
197801
197530
197251
196944
200975
200639
200329
200032
199745
199451
199158
198869
198584
198312
198047
197792
197496
197264
201038
200697
200412
200150
199899
199639
199370
199099
198826
198564
198310
198060
197777
197499
201213
200871
200594
200337
200096
199851
199600
199346
199089
198840
198593
198353
198079
197809
201496
201156
200874
200616
200374
200131
199886
199641
199393
199157
198919
198693
198435
198180
201888
201554
201260
200989
200731
200478
200231
199990
199751
199528
199307
199097
198866
198617
202372
202049
201737
201447
201168
200898
200641
200401
200168
199960
199761
199571
199372
199136
202919
202609
202278
201969
201665
201375
201105
200863
200639
200449
200273
200105
199932
199713
203511
203206
202853
202526
202198
201890
201608
201366
201150
200976
200820
200672
200516
200307
204133
203826
203449
203101
202749
202423
202131
201885
201679
201514
201378
201239
201097
200882
204764
204441
204035
203664
203292
202957
202665
202425
202228
202066
201935
201790
201634
201399
205458
205116
204682
204271
203864
203507
203203
202954
202755
202585
202447
202289
202116
201876
206135
205761
205265
204823
204405
204049
203755
203513
203306
203107
202955
202753
202558
202278
201803
201405
201009
200617
200235
199862
199502
199162
198823
198474
198116
197724
197385
197028
201776
201370
200997
200645
200305
199969
199638
199306
198971
198639
198323
197990
197680
197400
201739
201340
200977
200650
200347
200053
199755
199451
199142
198832
198537
198225
197929
197652
201816
201412
201063
200752
200470
200196
199920
199635
199345
199052
198762
198479
198185
197889
202002
201594
201244
200932
200652
200388
200126
199856
199581
199303
199023
198745
198447
198152
202299
201902
201549
201228
200937
200662
200398
200132
199863
199595
199320
199047
198752
198450
202679
202295
201935
201600
201291
201002
200728
200462
200196
199936
199668
199396
199105
198787
203133
202759
202385
202035
201706
201400
201115
200847
200584
200332
200073
199809
199524
199206
203628
203269
202878
202512
202163
201842
201547
201279
201020
200782
200534
200282
200008
199694
204148
203795
203381
203003
202637
202307
202006
201742
201493
201270
201032
200794
200534
200231
204701
204340
203898
203504
203122
202783
202480
202220
201984
201770
201552
201323
201080
200769
205243
204868
204393
203985
203592
203255
202962
202714
202493
202287
202079
201841
201601
201274
205876
205476
204971
204528
204107
203751
203450
203197
202977
202769
202564
202326
202082
201743
206479
206025
205475
205016
204591
204238
203950
203709
203485
203254
203039
202780
202513
202152
202526
202081
201670
201264
200876
200498
200140
199789
199436
199063
198677
198217
197815
197436
202513
202062
201638
201241
200875
200532
200204
199881
199538
199184
198825
198445
198071
197762
202507
202060
201641
201253
200903
200594
200297
199998
199681
199354
199017
198669
198316
198002
202623
202169
201752
201373
201033
200732
200453
200173
199877
199567
199244
198918
198578
198259
202790
202347
201924
201550
201220
200930
200662
200396
200116
199819
199506
199185
198849
198506
203054
202613
202202
201830
201496
201202
200931
200669
200396
200106
199795
199471
199126
198769
203367
202947
202537
202156
201814
201513
201239
200979
200711
200424
200115
199786
199430
199053
203743
203319
202898
202511
202165
201860
201583
201324
201060
200777
200470
200138
199777
199389
204136
203711
203276
202886
202535
202228
201953
201697
201439
201164
200864
200536
200179
199784
204544
204118
203665
203271
202916
202611
202341
202093
201845
201580
201289
200967
200622
200224
205000
204560
204077
203675
203313
203010
202743
202503
202265
202012
201733
201421
201092
200677
205450
204997
204484
204079
203715
203419
203163
202934
202707
202462
202192
201875
201549
201127
206005
205544
205009
204576
204186
203869
203600
203360
203132
202889
202623
202303
201984
201553
206554
206029
205473
205036
204644
204325
204061
203827
203590
203329
203040
202718
202365
201952
203260
202787
202343
201916
201522
201151
200799
200455
200103
199731
199329
198863
198404
197995
203290
202830
202381
201946
201544
201182
200849
200530
200188
199825
199439
199046
198597
198231
203294
202837
202393
201971
201584
201247
200942
200640
200317
199975
199609
199239
198821
198470
203409
202956
202515
202102
201727
201399
201100
200813
200505
200177
199826
199465
199085
198726
203559
203118
202688
202267
201902
201588
201304
201029
200737
200422
200082
199728
199353
198984
203788
203339
202888
202491
202136
201831
201553
201289
201008
200702
200367
200011
199631
199246
204018
203572
203140
202740
202387
202089
201822
201569
201299
201002
200669
200307
199917
199513
204302
203840
203393
202994
202647
202356
202100
201858
201600
201312
200983
200616
200216
199796
204579
204100
203642
203250
202915
202637
202392
202160
201913
201632
201309
200942
200537
200101
204866
204384
203913
203526
203199
202933
202701
202481
202243
201967
201649
201283
200877
200434
205214
204727
204232
203846
203520
203259
203033
202817
202584
202312
201998
201634
201242
200789
205572
205091
204576
204196
203871
203616
203395
203181
202948
202674
202362
201997
201611
201129
206061
205590
205067
204661
204312
204028
203782
203543
203297
203020
202710
202339
201966
201478
206545
206033
205512
205105
204755
204458
204200
203950
203683
203382
203053
202678
202282
201822
203911
203501
203097
202694
202313
201951
201600
201241
200870
200480
200071
199613
199142
198713
203956
203555
203157
202749
202357
201990
201637
201291
200927
200544
200135
199720
199255
198828
203976
203583
203183
202781
202394
202039
201701
201373
201018
200648
200254
199851
199430
199040
204097
203693
203285
202881
202499
202151
201821
201497
201154
200795
200415
200026
199623
199242
204237
203829
203420
203010
202625
202283
201964
201653
201325
200982
200617
200241
199853
199479
204423
203990
203541
203132
202767
202444
202142
201848
201538
201210
200859
200491
200107
199728
204581
204115
203685
203284
202928
202622
202343
202072
201783
201469
201126
200759
200375
199986
204766
204287
203838
203442
203104
202817
202559
202308
202036
201735
201401
201035
200649
200250
204933
204434
203979
203602
203287
203022
202783
202549
202293
202004
201678
201314
200922
200506
205103
204613
204160
203802
203503
203257
203035
202812
202564
202280
201958
201594
201196
200762
205355
204873
204408
204059
203767
203529
203311
203089
202842
202559
202239
201872
201471
201018
205641
205181
204708
204368
204078
203840
203620
203391
203137
202846
202520
202144
201742
201263
206084
205637
205156
204784
204465
204192
203943
203687
203414
203112
202783
202404
202016
201526
206527
206027
205558
205179
204854
204561
204291
204016
203720
203395
203051
202662
202271
201795
204562
204248
203927
203592
203254
202906
202550
202162
201746
201305
200862
200381
199928
199480
204637
204309
203986
203636
203283
202929
202561
202176
201755
201322
200873
200423
199970
199537
204693
204361
204018
203656
203290
202931
202567
202190
201782
201366
200934
200505
200091
199684
204817
204453
204083
203698
203319
202954
202590
202223
201835
201438
201023
200611
200206
199820
204942
204548
204154
203748
203360
202996
202641
202289
201916
201537
201143
200754
200368
200005
205057
204615
204171
203767
203401
203056
202719
202385
202035
201679
201309
200938
200563
200210
205119
204646
204222
203831
203473
203148
202836
202527
202203
201869
201517
201157
200791
200436
205218
204743
204310
203930
203593
203289
203000
202712
202409
202091
201753
201399
201040
200679
205315
204832
204396
204038
203730
203454
203188
202919
202633
202328
202002
201655
201294
200920
205436
204972
204542
204207
203913
203655
203403
203146
202872
202577
202259
201914
201549
201156
205649
205196
204763
204434
204143
203888
203639
203384
203113
202821
202508
202165
201797
201382
205895
205464
205032
204705
204411
204150
203894
203631
203357
203063
202749
202400
202027
201590
206288
205856
205413
205051
204729
204433
204149
203863
203572
203271
202954
202603
202235
201776
206640
206142
205722
205348
205019
204711
204417
204119
203810
203492
203163
202798
202424
201956
196693
197085
197215
197303
198329
199617
195794
195642
195293
195409
196644
198399
195947
195556
195133
195094
196070
197703
195982
195477
194929
194616
195308
196570
196030
195518
194971
194514
194914
195633
196025
195522
194993
194400
194555
194751
196048
195569
195068
194413
194426
194309
195988
195483
194981
194392
194351
194124
195881
195311
194869
194395
194520
194883
195702
195002
194593
194210
194462
195285
195493
194706
194290
193882
194259
195166
195338
194392
193926
193456
193864
194577
195359
194364
193952
193579
194209
194578
194013
193026
192712
192712
194009
194447
198125
198650
198976
199203
199578
200394
197170
197287
197262
197624
198169
199221
197057
196926
196802
197064
197463
198504
196836
196579
196373
196509
196757
197723
196789
196465
196284
196331
196436
197197
196706
196354
196177
196087
196024
196544
196649
196298
196117
195858
195683
196027
196533
196163
195913
195523
195235
195417
196383
195950
195651
195231
194985
195199
196177
195625
195300
194859
194751
195148
195977
195316
194968
194509
194479
194999
195757
194984
194536
194040
194025
194488
195685
194882
194404
193954
193922
194233
194505
193534
193032
192785
193062
193665
200138
200677
201133
201524
201805
202339
199231
199460
199507
199746
200149
200915
198823
198895
198801
198983
199263
199946
198319
198284
198019
198155
198401
199019
198035
197933
197648
197789
197901
198391
197797
197620
197344
197424
197328
197606
197636
197394
197150
197104
196855
196934
197452
197146
196918
196691
196379
196307
197243
196877
196655
196321
196094
196045
196998
196553
196318
195933
195834
195940
196741
196228
195997
195593
195568
195737
196463
195838
195498
195041
194940
195118
196288
195589
195187
194732
194578
194631
195255
194359
193834
193422
193460
193729
201312
201747
202194
202723
203043
203368
200612
200870
201032
201303
201617
202090
200159
200286
200342
200462
200513
200875
199628
199586
199425
199349
199379
199731
199206
199082
198784
198624
198608
198860
198805
198637
198277
198120
197994
198049
198493
198309
197955
197796
197547
197441
198192
197974
197640
197423
197025
196724
197905
197613
197302
196997
196574
196238
197601
197215
196897
196488
196132
195899
197306
196835
196533
196105
195924
195835
196968
196413
196070
195605
195384
195282
196732
196140
195781
195344
195137
195001
195935
195201
194719
194280
194073
194171
202193
202542
202901
203393
203744
204179
201591
201945
202189
202564
202912
203397
201217
201479
201648
201870
201975
202176
200694
200808
200816
200858
200798
200978
200219
200199
200064
199926
199744
199893
199755
199632
199389
199122
198920
198876
199346
199185
198887
198575
198346
198111
198960
198786
198440
198113
197764
197319
198594
198379
198008
197663
197208
196715
198237
197925
197545
197151
196630
196155
197888
197487
197114
196694
196323
196037
197535
197023
196673
196207
195911
195769
197229
196678
196381
195959
195780
195579
196508
195845
195452
195013
194810
194763
202869
203171
203478
203846
204153
204492
202341
202719
202997
203362
203706
204246
201961
202297
202561
202873
203132
203450
201470
201729
201903
202080
202168
202321
201002
201145
201173
201164
201024
201094
200525
200535
200420
200245
199987
199983
200089
200005
199809
199522
199256
199161
199674
199521
199277
198923
198670
198412
199273
199088
198801
198429
198149
197681
198872
198623
198292
197905
197458
196872
198460
198134
197789
197357
196943
196514
198052
197615
197260
196817
196408
196141
197696
197169
196863
196529
196347
196152
197024
196434
196106
195777
195601
195505
203535
203798
204072
204358
204579
204789
203008
203347
203601
203946
204257
204683
202612
202935
203223
203564
203883
204258
202130
202418
202681
202963
203222
203474
201669
201876
202046
202195
202287
202361
201214
201305
201342
201344
201263
201200
200790
200779
200704
200569
200333
200271
200382
200283
200126
199884
199580
199503
199982
199820
199622
199300
199024
198795
199572
199370
199106
198736
198388
197890
199166
198863
198575
198160
197759
197279
198692
198327
198009
197542
197082
196684
198296
197821
197488
197101
196834
196559
197625
197061
196715
196369
196154
196005
204123
204331
204564
204802
204980
205151
203654
203896
204101
204371
204625
204937
203292
203513
203752
204031
204326
204657
202857
203068
203306
203585
203906
204235
202432
202606
202804
203017
203242
203437
202006
202102
202213
202326
202407
202482
201597
201605
201614
201601
201567
201544
201182
201114
201031
200877
200716
200696
200772
200636
200488
200237
199991
199909
200352
200164
199967
199630
199295
199037
199941
199673
199409
199032
198667
198340
199449
199130
198846
198424
197995
197623
199038
198625
198296
197901
197578
197254
198369
197866
197527
197136
196854
196625
204705
204843
205047
205243
205353
205428
204340
204472
204654
204862
205022
205180
204048
204150
204326
204552
204744
204913
203697
203793
203946
204178
204451
204693
203341
203425
203548
203742
203975
204178
202956
202998
203060
203189
203334
203480
202552
202523
202509
202535
202549
202555
202106
202013
201919
201806
201687
201620
201644
201494
201326
201092
200860
200644
201175
200962
200749
200417
200052
199696
200736
200460
200189
199770
199337
198973
200220
199889
199599
199184
198719
198291
199814
199413
199093
198688
198301
197885
199171
198693
198363
197943
197572
197227
196542
196517
196494
195809
196069
195213
195909
195752
195597
195231
195897
195351
196381
196081
195908
195580
196373
195684
196916
196602
196457
196146
196668
195911
197497
197252
197155
196946
197410
196634
198058
197929
197923
197858
198260
197422
198635
198601
198754
198851