/*--------------------------------*- C++ -*----------------------------------*\
| =========                 |                                                 |
| \\      /  F ield         | OpenFOAM: The Open Source CFD Toolbox           |
|  \\    /   O peration     | Version:  v2106                                 |
|   \\  /    A nd           | Website:  www.openfoam.com                      |
|    \\/     M anipulation  |                                                 |
\*---------------------------------------------------------------------------*/
FoamFile
{
    version     2.0;
    format      ascii;
    arch        "LSB;label=32;scalar=64";
    class       volScalarField;
    location    "0.000196";
    object      T;
}
// * * * * * * * * * * * * * * * * * * * * * * * * * * * * * * * * * * * * * //

dimensions      [0 0 0 1 0 0 0];

internalField   nonuniform List<scalar> 
17924
(
308.568
308.559
308.553
308.549
308.52
308.508
308.499
308.493
308.489
308.486
308.486
308.485
308.477
308.466
308.458
308.452
308.449
308.447
308.454
308.444
308.432
308.424
308.417
308.412
308.408
308.421
308.411
308.399
308.39
308.382
308.376
308.372
308.39
308.379
308.367
308.357
308.349
308.342
308.337
308.359
308.348
308.336
308.327
308.318
308.31
308.305
308.33
308.318
308.307
308.297
308.288
308.281
308.276
308.302
308.29
308.28
308.271
308.263
308.256
308.25
308.274
308.264
308.255
308.247
308.24
308.234
308.229
308.25
308.242
308.234
308.227
308.221
308.215
308.211
308.229
308.221
308.215
308.21
308.205
308.201
308.198
308.21
308.204
308.201
308.197
308.194
308.191
308.189
308.193
308.189
308.189
308.187
308.185
308.184
308.184
308.18
308.18
308.181
308.181
308.182
308.182
308.183
308.46
308.45
308.442
308.436
308.433
308.431
308.43
308.432
308.435
308.439
308.445
308.453
308.465
308.476
308.428
308.421
308.413
308.408
308.403
308.4
308.399
308.399
308.401
308.405
308.41
308.417
308.426
308.433
308.4
308.393
308.385
308.379
308.373
308.369
308.366
308.366
308.366
308.369
308.374
308.38
308.389
308.395
308.37
308.363
308.355
308.349
308.343
308.338
308.335
308.334
308.334
308.336
308.339
308.345
308.354
308.358
308.342
308.335
308.327
308.32
308.313
308.308
308.304
308.302
308.302
308.304
308.307
308.312
308.32
308.326
308.313
308.307
308.299
308.292
308.285
308.28
308.276
308.274
308.273
308.274
308.276
308.281
308.288
308.296
308.286
308.28
308.272
308.265
308.259
308.254
308.25
308.247
308.246
308.246
308.248
308.253
308.259
308.267
308.261
308.255
308.248
308.241
308.235
308.23
308.226
308.223
308.221
308.221
308.223
308.226
308.232
308.241
308.238
308.232
308.226
308.22
308.215
308.209
308.205
308.201
308.199
308.199
308.2
308.203
308.208
308.217
308.218
308.213
308.208
308.203
308.198
308.192
308.188
308.184
308.181
308.179
308.18
308.182
308.187
308.195
308.201
308.197
308.193
308.188
308.184
308.179
308.174
308.17
308.166
308.164
308.163
308.165
308.168
308.176
308.189
308.186
308.183
308.179
308.174
308.17
308.165
308.16
308.156
308.152
308.15
308.151
308.153
308.16
308.18
308.178
308.177
308.173
308.169
308.164
308.16
308.155
308.15
308.146
308.144
308.142
308.143
308.148
308.178
308.177
308.175
308.172
308.168
308.163
308.158
308.153
308.148
308.142
308.139
308.136
308.136
308.14
308.371
308.371
308.37
308.37
308.37
308.371
308.373
308.375
308.38
308.385
308.391
308.399
308.408
308.417
308.347
308.348
308.347
308.347
308.348
308.349
308.351
308.354
308.358
308.363
308.368
308.375
308.383
308.389
308.324
308.325
308.325
308.325
308.325
308.326
308.327
308.329
308.333
308.338
308.343
308.35
308.358
308.363
308.3
308.302
308.302
308.303
308.303
308.303
308.305
308.307
308.31
308.314
308.319
308.325
308.332
308.338
308.277
308.28
308.279
308.28
308.28
308.28
308.281
308.283
308.286
308.29
308.294
308.3
308.308
308.314
308.254
308.257
308.258
308.258
308.258
308.259
308.26
308.261
308.263
308.266
308.271
308.276
308.283
308.29
308.233
308.236
308.237
308.238
308.238
308.238
308.239
308.24
308.241
308.244
308.248
308.253
308.259
308.267
308.214
308.217
308.218
308.219
308.219
308.219
308.219
308.22
308.221
308.223
308.226
308.23
308.236
308.244
308.197
308.2
308.202
308.202
308.202
308.202
308.201
308.201
308.201
308.203
308.205
308.209
308.215
308.223
308.184
308.186
308.189
308.189
308.188
308.187
308.186
308.185
308.185
308.185
308.186
308.19
308.194
308.202
308.174
308.176
308.178
308.178
308.177
308.175
308.173
308.171
308.17
308.169
308.169
308.171
308.175
308.182
308.167
308.169
308.171
308.171
308.169
308.166
308.163
308.16
308.157
308.155
308.154
308.155
308.157
308.163
308.165
308.166
308.167
308.166
308.164
308.16
308.155
308.151
308.146
308.143
308.141
308.14
308.142
308.147
308.169
308.168
308.168
308.166
308.162
308.157
308.151
308.144
308.138
308.132
308.128
308.125
308.125
308.127
308.233
308.246
308.256
308.266
308.274
308.282
308.289
308.295
308.302
308.309
308.316
308.324
308.331
308.338
308.22
308.234
308.245
308.256
308.264
308.272
308.28
308.287
308.295
308.302
308.309
308.316
308.325
308.331
308.207
308.222
308.234
308.244
308.253
308.261
308.268
308.275
308.283
308.29
308.297
308.305
308.313
308.32
308.194
308.209
308.221
308.231
308.24
308.249
308.257
308.264
308.271
308.278
308.285
308.293
308.301
308.308
308.181
308.196
308.208
308.218
308.228
308.236
308.243
308.25
308.257
308.264
308.271
308.278
308.286
308.294
308.168
308.182
308.195
308.206
308.215
308.223
308.23
308.237
308.244
308.25
308.257
308.264
308.271
308.279
308.157
308.171
308.183
308.194
308.202
308.21
308.217
308.223
308.229
308.235
308.242
308.249
308.255
308.263
308.147
308.161
308.173
308.182
308.19
308.197
308.204
308.21
308.215
308.221
308.227
308.233
308.239
308.247
308.139
308.152
308.163
308.172
308.179
308.185
308.191
308.196
308.201
308.206
308.211
308.217
308.223
308.231
308.134
308.146
308.156
308.164
308.17
308.175
308.18
308.184
308.188
308.192
308.196
308.201
308.206
308.213
308.131
308.142
308.15
308.157
308.161
308.166
308.169
308.172
308.175
308.177
308.18
308.184
308.189
308.196
308.131
308.14
308.147
308.152
308.155
308.157
308.159
308.16
308.162
308.163
308.165
308.167
308.17
308.177
308.132
308.139
308.145
308.148
308.149
308.15
308.149
308.149
308.149
308.149
308.149
308.151
308.153
308.159
308.138
308.143
308.146
308.147
308.145
308.144
308.141
308.138
308.136
308.134
308.133
308.133
308.134
308.137
308.024
308.05
308.072
308.093
308.111
308.126
308.139
308.15
308.161
308.171
308.18
308.188
308.196
308.206
308.026
308.051
308.074
308.095
308.113
308.13
308.145
308.158
308.17
308.181
308.191
308.2
308.208
308.218
308.026
308.052
308.077
308.098
308.117
308.134
308.149
308.162
308.174
308.185
308.196
308.205
308.214
308.224
308.026
308.052
308.077
308.098
308.118
308.135
308.151
308.165
308.178
308.189
308.2
308.21
308.219
308.229
308.028
308.054
308.078
308.099
308.119
308.136
308.152
308.165
308.178
308.189
308.199
308.209
308.218
308.228
308.028
308.054
308.078
308.099
308.118
308.135
308.15
308.164
308.176
308.188
308.198
308.208
308.217
308.226
308.03
308.055
308.078
308.098
308.117
308.133
308.148
308.161
308.173
308.184
308.194
308.204
308.213
308.221
308.032
308.056
308.078
308.097
308.114
308.13
308.144
308.157
308.169
308.179
308.189
308.197
308.206
308.214
308.035
308.058
308.078
308.096
308.112
308.127
308.139
308.151
308.162
308.171
308.18
308.188
308.196
308.205
308.039
308.06
308.078
308.095
308.109
308.122
308.133
308.144
308.153
308.162
308.17
308.178
308.185
308.193
308.043
308.062
308.078
308.093
308.105
308.117
308.126
308.135
308.143
308.151
308.158
308.165
308.171
308.18
308.048
308.064
308.078
308.09
308.1
308.11
308.118
308.126
308.132
308.139
308.144
308.151
308.156
308.165
308.052
308.066
308.077
308.087
308.095
308.102
308.108
308.114
308.119
308.124
308.129
308.135
308.14
308.149
308.058
308.069
308.077
308.084
308.089
308.094
308.098
308.102
308.105
308.109
308.113
308.117
308.122
308.129
307.732
307.767
307.799
307.826
307.851
307.872
307.892
307.909
307.925
307.938
307.95
307.961
307.971
307.985
307.748
307.779
307.812
307.84
307.867
307.891
307.912
307.931
307.948
307.963
307.977
307.989
308
308.016
307.765
307.797
307.83
307.859
307.886
307.91
307.932
307.951
307.969
307.985
307.999
308.012
308.024
308.038
307.78
307.812
307.845
307.874
307.902
307.926
307.949
307.97
307.988
308.005
308.02
308.033
308.046
308.06
307.796
307.829
307.861
307.89
307.917
307.942
307.965
307.985
308.004
308.02
308.036
308.05
308.063
308.076
307.812
307.844
307.875
307.904
307.931
307.955
307.978
307.999
308.018
308.034
308.05
308.064
308.077
308.09
307.828
307.859
307.889
307.917
307.943
307.967
307.989
308.009
308.027
308.044
308.06
308.074
308.087
308.099
307.843
307.873
307.901
307.927
307.952
307.976
307.997
308.017
308.035
308.052
308.067
308.081
308.094
308.107
307.857
307.885
307.911
307.937
307.96
307.983
308.003
308.022
308.039
308.055
308.069
308.084
308.097
308.11
307.87
307.896
307.92
307.944
307.966
307.987
308.005
308.023
308.04
308.056
308.07
308.084
308.097
308.11
307.882
307.906
307.927
307.949
307.969
307.988
308.005
308.022
308.038
308.053
308.067
308.081
308.093
308.108
307.891
307.913
307.932
307.951
307.969
307.987
308.003
308.019
308.034
308.049
308.062
308.076
308.088
308.102
307.899
307.919
307.935
307.952
307.968
307.984
307.998
308.013
308.027
308.04
308.053
308.067
308.079
308.094
307.907
307.924
307.937
307.952
307.965
307.978
307.992
308.005
308.018
308.03
308.043
308.056
308.069
308.085
307.384
307.417
307.45
307.479
307.507
307.533
307.557
307.578
307.598
307.615
307.632
307.648
307.664
307.68
307.411
307.441
307.475
307.506
307.536
307.563
307.588
307.611
307.632
307.652
307.67
307.687
307.704
307.724
307.443
307.473
307.507
307.537
307.567
307.594
307.62
307.643
307.665
307.685
307.704
307.722
307.739
307.759
307.472
307.502
307.535
307.566
307.596
307.623
307.65
307.674
307.697
307.718
307.738
307.757
307.775
307.795
307.502
307.532
307.564
307.594
307.624
307.652
307.678
307.703
307.726
307.748
307.768
307.788
307.806
307.826
307.531
307.561
307.592
307.622
307.651
307.679
307.705
307.73
307.754
307.776
307.797
307.817
307.837
307.856
307.559
307.588
307.618
307.647
307.676
307.703
307.73
307.754
307.778
307.801
307.822
307.843
307.863
307.881
307.587
307.615
307.643
307.671
307.699
307.726
307.752
307.777
307.801
307.823
307.845
307.866
307.887
307.905
307.611
307.639
307.665
307.692
307.719
307.745
307.771
307.796
307.82
307.842
307.865
307.886
307.907
307.926
307.634
307.661
307.685
307.711
307.737
307.763
307.788
307.812
307.836
307.859
307.881
307.903
307.924
307.944
307.655
307.68
307.703
307.728
307.752
307.777
307.801
307.826
307.849
307.872
307.895
307.917
307.939
307.96
307.674
307.697
307.718
307.742
307.765
307.789
307.813
307.837
307.86
307.883
307.906
307.929
307.951
307.973
307.689
307.712
307.731
307.754
307.776
307.799
307.822
307.846
307.869
307.892
307.916
307.939
307.961
307.986
307.704
307.725
307.742
307.763
307.784
307.807
307.829
307.852
307.876
307.899
307.923
307.947
307.97
307.996
307.049
307.071
307.097
307.121
307.146
307.169
307.193
307.216
307.238
307.26
307.28
307.3
307.32
307.34
307.087
307.106
307.133
307.157
307.182
307.206
307.231
307.255
307.278
307.301
307.322
307.344
307.364
307.389
307.128
307.147
307.173
307.196
307.221
307.245
307.269
307.293
307.317
307.34
307.362
307.384
307.405
307.429
307.167
307.186
307.211
307.235
307.26
307.284
307.308
307.333
307.357
307.381
307.404
307.427
307.448
307.472
307.206
307.226
307.25
307.273
307.298
307.322
307.347
307.372
307.396
307.421
307.444
307.468
307.49
307.514
307.245
307.265
307.288
307.311
307.336
307.36
307.385
307.411
307.436
307.461
307.485
307.509
307.532
307.556
307.282
307.303
307.325
307.348
307.373
307.397
307.423
307.448
307.474
307.499
307.525
307.549
307.573
307.596
307.319
307.34
307.361
307.385
307.409
307.434
307.459
307.485
307.512
307.538
307.563
307.588
307.613
307.636
307.353
307.374
307.395
307.419
307.443
307.468
307.494
307.521
307.548
307.574
307.601
307.626
307.652
307.675
307.387
307.408
307.429
307.452
307.476
307.502
307.529
307.555
307.583
307.609
307.637
307.662
307.689
307.712
307.418
307.439
307.459
307.483
307.507
307.534
307.561
307.588
307.616
307.643
307.671
307.697
307.725
307.747
307.448
307.469
307.49
307.513
307.538
307.564
307.591
307.619
307.647
307.675
307.703
307.729
307.758
307.782
307.475
307.496
307.516
307.54
307.565
307.592
307.62
307.648
307.677
307.706
307.735
307.762
307.791
307.816
307.502
307.523
307.543
307.567
307.592
307.619
307.647
307.675
307.704
307.732
307.761
307.79
307.82
307.85
306.812
306.816
306.828
306.842
306.857
306.874
306.892
306.911
306.931
306.951
306.971
306.991
307.01
307.03
306.856
306.857
306.868
306.881
306.897
306.914
306.932
306.951
306.971
306.991
307.012
307.033
307.052
307.075
306.896
306.899
306.91
306.923
306.938
306.955
306.973
306.992
307.011
307.032
307.052
307.073
307.092
307.115
306.937
306.942
306.953
306.965
306.981
306.997
307.016
307.035
307.055
307.075
307.096
307.117
307.137
307.16
306.978
306.984
306.996
307.008
307.024
307.041
307.059
307.079
307.099
307.12
307.14
307.162
307.182
307.205
307.019
307.028
307.039
307.052
307.068
307.086
307.104
307.124
307.144
307.166
307.187
307.209
307.23
307.252
307.06
307.07
307.082
307.096
307.112
307.13
307.149
307.17
307.191
307.212
307.234
307.256
307.278
307.299
307.101
307.112
307.125
307.14
307.157
307.175
307.195
307.216
307.238
307.26
307.282
307.305
307.327
307.348
307.142
307.154
307.167
307.183
307.201
307.22
307.241
307.262
307.284
307.307
307.33
307.353
307.377
307.397
307.182
307.195
307.209
307.226
307.245
307.265
307.286
307.308
307.331
307.355
307.379
307.402
307.427
307.446
307.219
307.234
307.249
307.268
307.287
307.308
307.331
307.354
307.378
307.402
307.427
307.45
307.476
307.494
307.257
307.274
307.29
307.309
307.33
307.352
307.375
307.399
307.423
307.448
307.474
307.497
307.524
307.543
307.292
307.309
307.327
307.348
307.37
307.393
307.418
307.443
307.469
307.494
307.521
307.546
307.573
307.592
307.329
307.347
307.366
307.388
307.411
307.435
307.46
307.485
307.511
307.537
307.563
307.589
307.616
307.64
306.688
306.683
306.684
306.687
306.692
306.699
306.708
306.718
306.73
306.743
306.757
306.771
306.785
306.8
306.727
306.719
306.721
306.723
306.728
306.735
306.744
306.754
306.766
306.779
306.792
306.806
306.82
306.836
306.762
306.756
306.757
306.761
306.766
306.773
306.781
306.791
306.803
306.815
306.828
306.842
306.855
306.871
306.799
306.794
306.796
306.8
306.805
306.812
306.82
306.831
306.842
306.854
306.867
306.881
306.894
306.91
306.835
306.833
306.835
306.839
306.845
306.852
306.861
306.871
306.883
306.895
306.908
306.921
306.935
306.95
306.874
306.873
306.876
306.88
306.886
306.894
306.903
306.914
306.925
306.938
306.951
306.965
306.978
306.993
306.911
306.913
306.916
306.922
306.928
306.937
306.946
306.957
306.969
306.982
306.995
307.009
307.024
307.037
306.95
306.953
306.957
306.964
306.971
306.98
306.991
307.002
307.015
307.028
307.042
307.056
307.071
307.084
306.988
306.993
306.998
307.006
307.015
307.025
307.036
307.048
307.061
307.075
307.089
307.103
307.119
307.131
307.027
307.033
307.04
307.048
307.058
307.069
307.082
307.095
307.109
307.122
307.137
307.152
307.168
307.18
307.065
307.073
307.08
307.091
307.102
307.114
307.128
307.142
307.156
307.171
307.186
307.201
307.218
307.228
307.103
307.113
307.122
307.134
307.146
307.16
307.174
307.189
307.204
307.22
307.235
307.251
307.269
307.279
307.14
307.151
307.162
307.175
307.189
307.204
307.22
307.236
307.253
307.269
307.285
307.301
307.32
307.33
307.181
307.192
307.205
307.218
307.234
307.25
307.266
307.283
307.3
307.317
307.334
307.351
307.369
307.382
306.646
306.636
306.63
306.626
306.624
306.623
306.623
306.625
306.628
306.633
306.638
306.645
306.651
306.659
306.674
306.664
306.658
306.654
306.652
306.651
306.651
306.653
306.656
306.66
306.665
306.671
306.676
306.684
306.701
306.692
306.687
306.683
306.681
306.68
306.68
306.682
306.684
306.688
306.692
306.697
306.702
306.71
306.73
306.721
306.717
306.713
306.711
306.71
306.71
306.712
306.714
306.717
306.721
306.726
306.73
306.738
306.758
306.751
306.747
306.744
306.742
306.741
306.742
306.743
306.745
306.748
306.752
306.756
306.761
306.767
306.788
306.782
306.778
306.776
306.774
306.774
306.774
306.776
306.778
306.781
306.784
306.789
306.793
306.799
306.817
306.813
306.81
306.808
306.807
306.807
306.808
306.81
306.812
306.815
306.819
306.823
306.827
306.832
306.847
306.845
306.843
306.841
306.841
306.841
306.843
306.845
306.847
306.85
306.854
306.858
306.863
306.867
306.878
306.877
306.876
306.876
306.876
306.877
306.879
306.881
306.884
306.887
306.892
306.896
306.901
306.903
306.909
306.91
306.91
306.911
306.912
306.913
306.916
306.919
306.922
306.926
306.931
306.936
306.941
306.942
306.941
306.944
306.944
306.946
306.948
306.951
306.954
306.957
306.961
306.966
306.971
306.976
306.982
306.981
306.974
306.978
306.979
306.982
306.986
306.989
306.993
306.997
307.002
307.007
307.013
307.018
307.025
307.023
307.007
307.012
307.015
307.019
307.024
307.028
307.033
307.038
307.043
307.049
307.055
307.06
307.066
307.065
307.045
307.048
307.052
307.057
307.063
307.068
307.074
307.079
307.085
307.092
307.098
307.104
307.111
307.112
306.642
306.63
306.622
306.613
306.607
306.6
306.595
306.591
306.588
306.585
306.583
306.582
306.581
306.581
306.66
306.648
306.64
306.632
306.625
306.619
306.614
306.609
306.605
306.602
306.599
306.597
306.595
306.597
306.677
306.666
306.658
306.65
306.644
306.637
306.632
306.627
306.623
306.62
306.616
306.614
306.611
306.613
306.695
306.685
306.677
306.67
306.663
306.657
306.652
306.647
306.642
306.638
306.635
306.632
306.629
306.629
306.714
306.705
306.697
306.69
306.683
306.677
306.672
306.667
306.662
306.658
306.655
306.651
306.648
306.646
306.734
306.725
306.718
306.711
306.705
306.699
306.693
306.688
306.683
306.679
306.675
306.672
306.668
306.665
306.753
306.746
306.739
306.733
306.726
306.721
306.715
306.71
306.705
306.701
306.697
306.693
306.689
306.686
306.774
306.768
306.761
306.755
306.749
306.744
306.738
306.733
306.728
306.724
306.72
306.716
306.712
306.707
306.796
306.79
306.784
306.778
306.773
306.767
306.762
306.757
306.753
306.748
306.744
306.739
306.735
306.73
306.818
306.813
306.808
306.803
306.797
306.792
306.787
306.783
306.778
306.773
306.769
306.764
306.76
306.754
306.841
306.838
306.832
306.828
306.823
306.818
306.813
306.809
306.804
306.799
306.795
306.79
306.786
306.781
306.865
306.862
306.858
306.854
306.849
306.845
306.841
306.836
306.832
306.827
306.823
306.817
306.814
306.808
306.89
306.888
306.884
306.881
306.877
306.873
306.869
306.864
306.86
306.855
306.851
306.845
306.842
306.836
306.918
306.914
306.91
306.907
306.904
306.901
306.897
306.893
306.889
306.885
306.88
306.876
306.873
306.868
306.646
306.634
306.624
306.614
306.605
306.596
306.588
306.579
306.572
306.564
306.557
306.55
306.544
306.538
306.655
306.644
306.634
306.625
306.615
306.606
306.597
306.588
306.58
306.572
306.564
306.557
306.55
306.544
306.663
306.653
306.643
306.634
306.625
306.616
306.607
306.598
306.589
306.581
306.573
306.565
306.558
306.551
306.673
306.662
306.653
306.644
306.635
306.625
306.617
306.608
306.599
306.59
306.582
306.574
306.566
306.559
306.682
306.672
306.663
306.654
306.645
306.636
306.627
306.618
306.609
306.6
306.592
306.583
306.575
306.567
306.693
306.683
306.674
306.665
306.656
306.647
306.638
306.629
306.62
306.611
306.602
306.593
306.584
306.575
306.704
306.695
306.686
306.677
306.668
306.659
306.649
306.64
306.631
306.621
306.612
306.603
306.593
306.584
306.715
306.707
306.698
306.689
306.68
306.671
306.661
306.652
306.642
306.632
306.623
306.613
306.603
306.593
306.727
306.719
306.71
306.701
306.692
306.683
306.673
306.664
306.654
306.644
306.634
306.624
306.614
306.603
306.74
306.732
306.723
306.714
306.705
306.696
306.686
306.676
306.666
306.656
306.646
306.635
306.625
306.614
306.753
306.745
306.736
306.727
306.718
306.709
306.699
306.689
306.679
306.669
306.658
306.647
306.636
306.624
306.766
306.758
306.75
306.741
306.732
306.722
306.712
306.702
306.692
306.681
306.67
306.659
306.648
306.635
306.78
306.773
306.764
306.756
306.746
306.736
306.726
306.716
306.705
306.694
306.683
306.67
306.659
306.646
306.795
306.786
306.778
306.769
306.76
306.751
306.741
306.73
306.719
306.708
306.697
306.685
306.673
306.66
306.641
306.63
306.619
306.609
306.599
306.588
306.577
306.566
306.555
306.545
306.535
306.524
306.514
306.503
306.643
306.632
306.622
306.612
306.601
306.59
306.579
306.568
306.557
306.546
306.535
306.524
306.514
306.502
306.644
306.634
306.624
306.614
306.603
306.593
306.582
306.57
306.559
306.547
306.536
306.525
306.514
306.503
306.646
306.636
306.626
306.616
306.606
306.595
306.584
306.572
306.561
306.549
306.537
306.526
306.514
306.503
306.647
306.638
306.628
306.618
306.608
306.597
306.585
306.574
306.562
306.55
306.538
306.526
306.514
306.502
306.649
306.64
306.63
306.62
306.609
306.598
306.587
306.575
306.563
306.551
306.539
306.526
306.514
306.501
306.651
306.642
306.632
306.622
306.611
306.6
306.588
306.576
306.564
306.552
306.539
306.526
306.513
306.5
306.653
306.644
306.634
306.623
306.612
306.601
306.589
306.577
306.565
306.552
306.539
306.526
306.512
306.499
306.655
306.646
306.636
306.625
306.614
306.602
306.59
306.578
306.565
306.552
306.539
306.525
306.511
306.497
306.657
306.648
306.637
306.626
306.615
306.603
306.591
306.578
306.565
306.552
306.538
306.524
306.51
306.496
306.66
306.65
306.639
306.628
306.616
306.604
306.591
306.579
306.565
306.551
306.537
306.523
306.508
306.494
306.662
306.651
306.641
306.629
306.617
306.605
306.592
306.579
306.565
306.551
306.536
306.521
306.506
306.491
306.664
306.653
306.642
306.63
306.618
306.605
306.592
306.578
306.564
306.549
306.534
306.519
306.504
306.488
306.666
306.654
306.643
306.631
306.619
306.605
306.592
306.578
306.564
306.55
306.535
306.52
306.504
306.488
306.609
306.599
306.589
306.579
306.567
306.556
306.544
306.531
306.518
306.505
306.492
306.478
306.466
306.452
306.604
306.594
306.585
306.574
306.563
306.551
306.539
306.526
306.513
306.499
306.486
306.472
306.46
306.446
306.597
306.589
306.579
306.568
306.557
306.546
306.533
306.52
306.507
306.494
306.48
306.466
306.453
306.439
306.591
306.583
306.573
306.562
306.551
306.539
306.527
306.514
306.501
306.487
306.474
306.46
306.446
306.432
306.584
306.576
306.566
306.556
306.545
306.533
306.521
306.508
306.494
306.48
306.467
306.452
306.439
306.424
306.577
306.569
306.559
306.549
306.538
306.526
306.513
306.5
306.486
306.472
306.458
306.444
306.43
306.415
306.57
306.562
306.552
306.541
306.53
306.518
306.505
306.492
306.478
306.464
306.45
306.435
306.421
306.406
306.563
306.554
306.544
306.533
306.521
306.509
306.496
306.483
306.469
306.455
306.44
306.425
306.411
306.396
306.556
306.546
306.535
306.525
306.513
306.5
306.487
306.474
306.459
306.445
306.43
306.415
306.4
306.385
306.548
306.537
306.526
306.515
306.503
306.49
306.477
306.463
306.449
306.434
306.419
306.404
306.388
306.374
306.54
306.529
306.518
306.506
306.493
306.48
306.467
306.452
306.438
306.423
306.407
306.392
306.376
306.362
306.532
306.519
306.508
306.495
306.483
306.469
306.455
306.441
306.426
306.411
306.395
306.38
306.364
306.35
306.523
306.51
306.498
306.486
306.472
306.458
306.444
306.429
306.414
306.398
306.382
306.367
306.35
306.336
306.514
306.5
306.488
306.474
306.46
306.446
306.432
306.417
306.402
306.386
306.371
306.355
306.339
306.324
306.52
306.511
306.502
306.492
306.481
306.47
306.458
306.446
306.433
306.419
306.405
306.39
306.377
306.362
306.506
306.499
306.49
306.48
306.47
306.459
306.447
306.434
306.42
306.407
306.393
306.378
306.365
306.35
306.493
306.486
306.477
306.468
306.457
306.446
306.434
306.421
306.408
306.394
306.381
306.366
306.352
306.338
306.48
306.473
306.464
306.454
306.444
306.432
306.42
306.408
306.395
306.381
306.367
306.353
306.339
306.324
306.466
306.459
306.45
306.44
306.43
306.418
306.406
306.394
306.381
306.367
306.353
306.339
306.325
306.311
306.451
306.444
306.435
306.425
306.415
306.403
306.391
306.379
306.365
306.352
306.338
306.324
306.31
306.296
306.437
306.429
306.42
306.41
306.399
306.388
306.376
306.363
306.35
306.336
306.322
306.308
306.294
306.28
306.421
306.413
306.404
306.394
306.383
306.371
306.359
306.346
306.333
306.319
306.305
306.291
306.277
306.263
306.406
306.397
306.387
306.377
306.366
306.354
306.342
306.329
306.315
306.302
306.288
306.274
306.26
306.246
306.39
306.38
306.37
306.359
306.348
306.336
306.324
306.311
306.297
306.284
306.269
306.256
306.241
306.229
306.375
306.363
306.353
306.342
306.33
306.318
306.305
306.292
306.278
306.265
306.25
306.237
306.222
306.211
306.358
306.345
306.335
306.323
306.311
306.299
306.286
306.273
306.259
306.246
306.231
306.218
306.203
306.192
306.342
306.329
306.317
306.305
306.293
306.28
306.267
306.253
306.239
306.225
306.211
306.197
306.183
306.172
306.324
306.31
306.298
306.286
306.273
306.26
306.247
306.234
306.22
306.206
306.192
306.179
306.165
306.154
306.345
306.339
306.332
306.324
306.316
306.307
306.298
306.288
306.277
306.266
306.254
306.241
306.229
306.216
306.327
306.322
306.315
306.308
306.3
306.291
306.281
306.271
306.26
306.249
306.237
306.224
306.212
306.199
306.309
306.305
306.298
306.291
306.282
306.274
306.264
306.254
306.243
306.232
306.22
306.208
306.197
306.184
306.291
306.287
306.28
306.273
306.264
306.256
306.246
306.236
306.225
306.214
306.203
306.191
306.179
306.167
306.274
306.269
306.261
306.254
306.246
306.237
306.227
306.217
306.207
306.196
306.185
306.173
306.162
306.15
306.255
306.25
306.242
306.235
306.226
306.218
306.208
306.198
306.188
306.177
306.166
306.154
306.143
306.131
306.237
306.23
306.223
306.215
306.207
306.198
306.188
306.178
306.168
306.157
306.146
306.135
306.124
306.113
306.217
306.21
306.203
306.195
306.186
306.177
306.168
306.158
306.147
306.137
306.126
306.115
306.104
306.093
306.198
306.19
306.183
306.174
306.166
306.156
306.147
306.137
306.126
306.116
306.105
306.095
306.084
306.074
306.178
306.169
306.162
306.153
306.144
306.135
306.125
306.115
306.105
306.095
306.084
306.074
306.063
306.054
306.158
306.149
306.141
306.132
306.123
306.114
306.104
306.094
306.083
306.073
306.062
306.052
306.042
306.034
306.138
306.127
306.119
306.11
306.101
306.092
306.082
306.072
306.062
306.052
306.041
306.031
306.021
306.014
306.118
306.108
306.099
306.089
306.08
306.07
306.06
306.05
306.04
306.029
306.019
306.009
305.999
305.993
306.096
306.086
306.076
306.067
306.057
306.048
306.038
306.028
306.018
306.008
305.998
305.988
305.979
305.972
306.083
306.081
306.077
306.073
306.069
306.064
306.059
306.053
306.047
306.04
306.033
306.025
306.017
306.009
306.064
306.063
306.06
306.056
306.052
306.047
306.042
306.036
306.029
306.022
306.015
306.008
306
305.991
306.047
306.047
306.042
306.039
306.035
306.03
306.024
306.018
306.012
306.005
305.998
305.991
305.984
305.975
306.029
306.028
306.024
306.021
306.016
306.012
306.006
306
305.994
305.988
305.981
305.973
305.967
305.959
306.012
306.01
306.006
306.002
305.998
305.993
305.988
305.982
305.976
305.969
305.963
305.956
305.949
305.942
305.994
305.992
305.988
305.984
305.979
305.974
305.969
305.963
305.957
305.951
305.945
305.938
305.931
305.924
305.976
305.973
305.969
305.965
305.96
305.955
305.95
305.944
305.938
305.932
305.926
305.92
305.913
305.907
305.958
305.954
305.95
305.945
305.941
305.936
305.93
305.925
305.919
305.913
305.907
305.901
305.895
305.889
305.94
305.935
305.931
305.926
305.921
305.916
305.911
305.905
305.9
305.894
305.888
305.882
305.876
305.871
305.921
305.916
305.911
305.907
305.902
305.897
305.891
305.886
305.88
305.875
305.869
305.864
305.858
305.853
305.902
305.896
305.892
305.887
305.882
305.877
305.872
305.866
305.861
305.855
305.85
305.845
305.839
305.836
305.883
305.877
305.872
305.867
305.862
305.857
305.852
305.847
305.841
305.836
305.831
305.826
305.82
305.818
305.865
305.858
305.853
305.848
305.843
305.838
305.833
305.827
305.822
305.816
305.811
305.807
305.802
305.8
305.844
305.838
305.833
305.828
305.823
305.818
305.813
305.808
305.803
305.797
305.792
305.788
305.783
305.782
305.758
305.759
305.759
305.759
305.759
305.759
305.758
305.757
305.756
305.755
305.753
305.751
305.744
305.745
305.745
305.746
305.746
305.746
305.745
305.744
305.743
305.742
305.74
305.738
305.731
305.733
305.732
305.733
305.732
305.732
305.732
305.731
305.73
305.729
305.727
305.725
305.718
305.719
305.719
305.719
305.719
305.719
305.718
305.718
305.717
305.715
305.714
305.712
305.705
305.706
305.705
305.706
305.705
305.705
305.705
305.704
305.703
305.702
305.7
305.698
305.692
305.692
305.692
305.692
305.692
305.691
305.691
305.69
305.689
305.688
305.687
305.685
305.678
305.678
305.678
305.678
305.678
305.677
305.677
305.676
305.675
305.674
305.673
305.672
305.665
305.665
305.664
305.664
305.664
305.663
305.663
305.662
305.662
305.661
305.66
305.658
305.652
305.651
305.65
305.65
305.65
305.649
305.649
305.648
305.648
305.647
305.646
305.645
305.638
305.636
305.636
305.636
305.636
305.635
305.635
305.634
305.634
305.633
305.632
305.632
305.624
305.622
305.622
305.622
305.621
305.621
305.621
305.62
305.62
305.619
305.619
305.618
305.61
305.608
305.608
305.608
305.607
305.607
305.607
305.606
305.606
305.606
305.605
305.604
305.597
305.594
305.594
305.594
305.593
305.593
305.593
305.592
305.592
305.592
305.592
305.591
305.582
305.58
305.58
305.58
305.579
305.579
305.579
305.579
305.578
305.578
305.578
305.578
308.6
308.626
308.649
308.67
308.691
308.71
308.591
308.624
308.655
308.684
308.71
308.734
308.591
308.629
308.665
308.701
308.733
308.762
308.591
308.635
308.677
308.718
308.757
308.792
308.549
308.575
308.595
308.614
308.632
308.65
308.535
308.565
308.592
308.618
308.64
308.659
308.533
308.567
308.598
308.627
308.652
308.674
308.53
308.569
308.605
308.637
308.667
308.692
308.53
308.573
308.613
308.651
308.685
308.715
308.53
308.577
308.623
308.666
308.705
308.74
308.532
308.583
308.632
308.68
308.724
308.765
308.485
308.506
308.523
308.541
308.556
308.571
308.472
308.497
308.519
308.54
308.558
308.574
308.469
308.497
308.522
308.544
308.562
308.578
308.466
308.497