/*--------------------------------*- C++ -*----------------------------------*\
| =========                 |                                                 |
| \\      /  F ield         | OpenFOAM: The Open Source CFD Toolbox           |
|  \\    /   O peration     | Version:  v2106                                 |
|   \\  /    A nd           | Website:  www.openfoam.com                      |
|    \\/     M anipulation  |                                                 |
\*---------------------------------------------------------------------------*/
FoamFile
{
    version     2.0;
    format      ascii;
    arch        "LSB;label=32;scalar=64";
    class       volScalarField;
    location    "0.000208";
    object      p;
}
// * * * * * * * * * * * * * * * * * * * * * * * * * * * * * * * * * * * * * //

dimensions      [1 -1 -2 0 0 0 0];

internalField   nonuniform List<scalar> 
17924
(
242836
242764
242668
242574
243129
243094
243043
242989
242933
242872
242811
242983
242954
242895
242838
242777
242713
242649
242843
242806
242741
242678
242614
242549
242485
242699
242653
242583
242517
242450
242384
242320
242558
242501
242426
242357
242289
242223
242160
242415
242349
242271
242201
242131
242066
242004
242277
242203
242124
242051
241981
241916
241856
242143
242062
241983
241908
241838
241774
241715
242018
241933
241853
241777
241706
241642
241584
241897
241810
241729
241652
241581
241518
241459
241787
241699
241619
241542
241469
241404
241344
241682
241595
241513
241436
241362
241296
241235
241594
241506
241423
241343
241267
241198
241135
241504
241414
241331
241249
241173
241103
241039
243239
243226
243203
243177
243148
243115
243080
243041
243000
242954
242904
242852
242802
242738
243108
243106
243079
243050
243017
242981
242942
242902
242858
242812
242762
242710
242661
242600
242988
242980
242949
242917
242879
242840
242800
242758
242715
242669
242622
242574
242528
242474
242864
242848
242813
242777
242736
242694
242652
242609
242565
242521
242476
242432
242389
242344
242740
242714
242675
242634
242590
242546
242502
242459
242416
242374
242333
242294
242256
242219
242610
242576
242533
242489
242443
242396
242351
242308
242266
242226
242189
242155
242123
242094
242481
242440
242393
242346
242297
242248
242203
242159
242119
242083
242050
242021
241995
241974
242349
242303
242254
242203
242152
242102
242056
242014
241975
241942
241913
241889
241869
241854
242221
242172
242120
242065
242012
241962
241915
241874
241837
241806
241781
241761
241747
241738
242094
242040
241988
241930
241876
241825
241779
241738
241703
241675
241653
241636
241626
241624
241975
241917
241864
241804
241748
241696
241650
241609
241575
241548
241528
241514
241507
241513
241859
241797
241741
241681
241623
241571
241524
241485
241452
241426
241406
241393
241386
241402
241753
241690
241631
241569
241510
241455
241407
241366
241333
241306
241287
241274
241267
241293
241643
241579
241518
241456
241396
241341
241293
241252
241218
241192
241171
241157
241150
241175
243239
243238
243230
243217
243203
243185
243163
243138
243109
243076
243039
242999
242959
242908
243124
243131
243119
243106
243088
243067
243042
243015
242984
242949
242911
242869
242828
242776
243015
243020
243006
242989
242968
242944
242917
242888
242856
242822
242784
242744
242704
242654
242900
242900
242884
242865
242841
242815
242786
242756
242723
242689
242652
242613
242574
242529
242786
242778
242759
242738
242711
242683
242653
242622
242589
242556
242521
242485
242447
242408
242665
242651
242630
242606
242577
242547
242517
242485
242454
242421
242388
242355
242321
242287
242544
242524
242500
242473
242443
242412
242381
242350
242319
242289
242258
242229
242199
242172
242418
242395
242368
242339
242308
242276
242245
242214
242185
242157
242130
242104
242079
242059
242293
242266
242238
242206
242175
242141
242111
242081
242053
242028
242004
241983
241964
241951
242167
242136
242107
242073
242041
242007
241978
241949
241924
241901
241881
241864
241851
241845
242045
242011
241980
241944
241911
241877
241847
241820
241797
241777
241762
241749
241741
241743
241921
241886
241851
241814
241781
241748
241719
241694
241674
241657
241645
241636
241631
241641
241806
241769
241730
241692
241657
241624
241595
241571
241552
241538
241530
241524
241524
241545
241685
241646
241604
241566
241531
241499
241472
241450
241434
241422
241416
241413
241416
241444
243140
243146
243148
243147
243144
243137
243125
243108
243088
243064
243036
243004
242972
242933
243040
243051
243051
243049
243044
243034
243020
243000
242977
242951
242921
242887
242853
242808
242945
242953
242951
242946
242938
242926
242909
242888
242864
242838
242807
242774
242739
242694
242841
242846
242842
242836
242826
242812
242793
242771
242746
242718
242688
242654
242618
242575
242736
242737
242731
242722
242709
242693
242673
242651
242626
242598
242568
242535
242499
242459
242624
242621
242613
242602
242588
242571
242551
242528
242503
242476
242446
242415
242380
242344
242509
242503
242493
242480
242465
242447
242427
242404
242380
242354
242326
242297
242264
242233
242390
242380
242369
242354
242340
242321
242301
242279
242256
242232
242206
242179
242150
242124
242270
242257
242244
242228
242213
242194
242175
242155
242134
242112
242090
242066
242042
242021
242146
242131
242117
242100
242086
242067
242050
242031
242012
241994
241975
241955
241936
241922
242024
242005
241991
241973
241959
241941
241925
241909
241894
241879
241864
241849
241835
241829
241897
241877
241862
241844
241831
241816
241802
241788
241777
241766
241756
241746
241738
241740
241774
241754
241737
241719
241705
241692
241680
241670
241662
241655
241651
241647
241645
241653
241645
241625
241605
241590
241577
241566
241557
241551
241547
241546
241546
241547
241551
241567
242904
242918
242930
242938
242943
242944
242943
242937
242928
242913
242895
242873
242849
242822
242819
242835
242846
242854
242859
242860
242857
242850
242838
242821
242800
242775
242748
242711
242737
242753
242762
242769
242771
242771
242767
242758
242744
242726
242704
242677
242649
242610
242648
242663
242671
242676
242677
242676
242671
242660
242644
242624
242600
242572
242542
242502
242557
242569
242575
242579
242579
242576
242569
242557
242540
242520
242495
242467
242434
242396
242461
242470
242474
242476
242475
242471
242463
242450
242432
242411
242386
242358
242325
242289
242361
242366
242369
242369
242367
242362
242353
242339
242322
242301
242277
242250
242217
242185
242255
242257
242259
242257
242254
242248
242239
242226
242209
242189
242166
242141
242110
242081
242146
242144
242145
242142
242139
242132
242123
242111
242096
242078
242057
242034
242007
241982
242032
242026
242028
242023
242020
242013
242006
241995
241982
241967
241949
241929
241904
241885
241917
241906
241908
241902
241900
241893
241888
241880
241870
241858
241844
241828
241809
241796
241795
241781
241784
241779
241777
241773
241769
241765
241759
241750
241741
241729
241716
241710
241672
241659
241660
241656
241654
241652
241651
241650
241650
241646
241642
241635
241629
241630
241539
241531
241530
241529
241529
241531
241533
241537
241541
241544
241546
241544
241543
241547
242581
242590
242599
242606
242613
242617
242620
242620
242618
242613
242604
242592
242575
242563
242500
242512
242520
242530
242537
242541
242544
242544
242541
242534
242522
242507
242488
242464
242423
242435
242444
242453
242459
242464
242466
242465
242462
242454
242441
242424
242403
242375
242342
242353
242363
242373
242379
242383
242385
242384
242379
242370
242355
242337
242314
242282
242262
242271
242280
242289
242295
242299
242301
242299
242294
242283
242268
242248
242223
242191
242177
242185
242193
242202
242208
242212
242213
242211
242205
242194
242177
242157
242130
242098
242089
242095
242103
242110
242116
242120
242121
242119
242113
242101
242084
242065
242037
242007
241996
242000
242008
242015
242021
242025
242026
242024
242018
242006
241990
241970
241943
241914
241902
241902
241909
241915
241921
241926
241927
241926
241921
241910
241895
241877
241850
241825
241802
241799
241806
241811
241819
241823
241826
241826
241822
241813
241799
241782
241757
241735
241699
241692
241699
241705
241713
241719
241723
241724
241723
241716
241705
241691
241670
241653
241590
241580
241590
241596
241605
241612
241618
241621
241623
241619
241612
241601
241583
241571
241480
241468
241477
241485
241495
241504
241513
241520
241524
241525
241523
241515
241505
241499
241358
241352
241361
241372
241384
241396
241408
241418
241427
241433
241436
241432
241427
241422
242231
242228
242223
242223
242224
242226
242228
242231
242232
242233
242232
242230
242225
242225
242144
242148
242143
242144
242145
242147
242150
242152
242153
242152
242149
242144
242136
242126
242065
242069
242065
242065
242066
242069
242072
242073
242074
242072
242068
242062
242052
242039
241985
241989
241985
241986
241988
241991
241994
241995
241996
241994
241988
241980
241968
241949
241906
241909
241905
241906
241909
241913
241916
241917
241918
241915
241909
241899
241885
241864
241826
241827
241825
241826
241829
241834
241837
241839
241839
241836
241829
241818
241801
241780
241747
241744
241742
241744
241748
241753
241757
241760
241760
241757
241749
241738
241719
241698
241664
241659
241658
241661
241666
241672
241676
241679
241679
241677
241668
241656
241637
241616
241578
241571
241572
241576
241582
241589
241594
241598
241598
241596
241588
241576
241556
241536
241489
241482
241485
241490
241497
241504
241510
241515
241516
241515
241507
241496
241476
241457
241401
241389
241395
241401
241410
241418
241426
241432
241435
241435
241429
241419
241400
241383
241308
241295
241303
241311
241322
241332
241342
241349
241354
241355
241351
241342
241325
241310
241215
241202
241211
241220
241233
241245
241257
241267
241275
241278
241278
241271
241258
241248
241114
241106
241117
241130
241145
241159
241174
241186
241197
241202
241205
241200
241191
241181
241875
241860
241846
241839
241834
241834
241835
241839
241844
241850
241857
241864
241873
241885
241785
241779
241763
241756
241751
241749
241750
241754
241758
241763
241769
241774
241780
241779
241704
241697
241681
241674
241668
241667
241667
241670
241674
241678
241682
241685
241691
241688
241623
241615
241600
241593
241588
241587
241587
241589
241593
241596
241599
241599
241602
241596
241545
241535
241521
241514
241509
241508
241508
241511
241513
241516
241517
241517
241517
241511
241467
241456
241443
241436
241432
241431
241432
241434
241436
241438
241438
241437
241434
241426
241390
241377
241366
241360
241357
241356
241357
241360
241361
241362
241361
241360
241354
241346
241313
241299
241290
241285
241283
241283
241285
241287
241288
241289
241287
241284
241276
241267
241235
241221
241214
241211
241210
241212
241214
241216
241217
241218
241215
241212
241201
241192
241157
241144
241140
241138
241139
241142
241145
241147
241149
241149
241146
241141
241129
241118
241079
241068
241067
241066
241069
241073
241078
241082
241084
241084
241081
241076
241061
241051
241004
240992
240994
240996
241002
241008
241014
241018
241021
241021
241017
241012
240997
240986
240929
240918
240922
240928
240936
240944
240952
240958
240963
240963
240961
240955
240942
240931
240854
240844
240853
240861
240873
240883
240893
240900
240906
240907
240905
240898
240886
240873
241500
241482
241466
241457
241454
241454
241458
241464
241473
241484
241498
241513
241532
241553
241413
241404
241387
241378
241372
241372
241375
241380
241388
241399
241411
241424
241442
241450
241337
241327
241308
241299
241293
241292
241293
241298
241304
241313
241325
241336
241354
241359
241260
241249
241231
241222
241216
241214
241215
241219
241225
241233
241243
241252
241268
241270
241186
241174
241157
241148
241142
241140
241140
241143
241148
241155
241164
241173
241186
241188
241114
241100
241086
241077
241071
241068
241068
241071
241075
241081
241088
241096
241105
241108
241044
241030
241017
241009
241003
241000
241000
241002
241006
241011
241016
241023
241029
241033
240976
240962
240951
240944
240939
240936
240936
240937
240940
240944
240948
240952
240956
240959
240909
240896
240887
240881
240877
240875
240875
240876
240879
240881
240883
240886
240886
240889
240843
240833
240827
240822
240820
240819
240819
240820
240821
240822
240822
240822
240820
240822
240781
240772
240769
240767
240766
240766
240767
240767
240767
240767
240765
240764
240759
240760
240724
240716
240716
240716
240717
240718
240718
240718
240718
240716
240712
240709
240701
240700
240669
240662
240665
240667
240670
240673
240674
240675
240674
240671
240667
240662
240652
240647
240618
240611
240619
240623
240629
240632
240634
240633
240632
240628
240622
240613
240602
240590
241075
241069
241061
241060
241061
241066
241074
241085
241099
241115
241134
241155
241181
241207
241000
241001
240995
240993
240994
240997
241005
241016
241029
241044
241062
241081
241103
241119
240938
240939
240932
240929
240928
240931
240937
240946
240957
240971
240988
241005
241029
241042
240875
240874
240868
240865
240864
240867
240872
240880
240891
240903
240918
240935
240956
240967
240814
240813
240806
240804
240802
240805
240810
240817
240826
240838
240852
240868
240887
240899
240757
240754
240748
240746
240745
240748
240752
240758
240766
240776
240789
240804
240820
240835
240701
240697
240693
240691
240691
240693
240696
240702
240709
240718
240729
240743
240758
240773
240647
240644
240642
240641
240641
240642
240645
240649
240655
240663
240673
240684
240697
240712
240597
240594
240594
240593
240594
240594
240597
240600
240605
240612
240620
240630
240640
240654
240549
240548
240549
240549
240551
240551
240553
240555
240559
240564
240570
240577
240585
240598
240505
240505
240508
240509
240511
240512
240513
240515
240517
240520
240524
240529
240533
240544
240468
240467
240472
240474
240476
240477
240478
240478
240479
240479
240480
240482
240483
240492
240430
240433
240439
240443
240446
240447
240447
240446
240445
240443
240442
240441
240439
240447
240405
240405
240414
240418
240421
240421
240419
240416
240413
240408
240403
240397
240393
240394
240568
240580
240591
240604
240618
240632
240648
240666
240686
240707
240730
240756
240783
240813
240522
240536
240547
240561
240575
240590
240607
240625
240644
240664
240686
240710
240735
240758
240483
240498
240509
240523
240534
240548
240563
240580
240599
240618
240639
240662
240688
240709
240442
240459
240471
240484
240496
240509
240523
240539
240556
240574
240595
240616
240641
240662
240404
240421
240433
240445
240456
240469
240482
240497
240514
240532
240552
240573
240597
240619
240366
240383
240395
240408
240420
240432
240444
240458
240473
240490
240509
240530
240553
240576
240331
240346
240360
240372
240384
240396
240408
240421
240435
240451
240469
240488
240510
240533
240297
240313
240327
240340
240352
240363
240374
240386
240399
240413
240430
240448
240468
240492
240266
240281
240297
240309
240321
240331
240342
240353
240365
240378
240393
240410
240429
240452
240238
240254
240270
240282
240294
240303
240313
240323
240333
240345
240358
240373
240389
240411
240213
240229
240246
240258
240268
240277
240286
240294
240303
240313
240324
240337
240351
240372
240194
240210
240226
240237
240247
240255
240262
240268
240275
240283
240291
240302
240313
240331
240176
240193
240209
240220
240229
240235
240240
240244
240249
240254
240260
240268
240278
240295
240175
240186
240200
240209
240216
240220
240222
240223
240224
240226
240229
240233
240240
240249
239940
239979
240014
240046
240076
240104
240131
240158
240187
240216
240247
240277
240306
240339
239930
239970
240004
240038
240068
240098
240127
240156
240185
240214
240244
240274
240306
240336
239923
239963
239998
240031
240062
240091
240120
240148
240176
240204
240233
240263
240295
240326
239914
239954
239990
240023
240054
240083
240112
240139
240167
240194
240223
240252
240283
240314
239907
239946
239982
240015
240045
240074
240102
240129
240155
240183
240210
240239
240269
240300
239896
239936
239972
240005
240036
240064
240092
240118
240144
240171
240198
240226
240255
240286
239888
239928
239964
239996
240026
240054
240080
240106
240131
240157
240184
240211
240239
240269
239880
239919
239955
239987
240016
240043
240069
240094
240119
240143
240169
240195
240222
240252
239873
239912
239947
239978
240006
240032
240057
240081
240104
240128
240152
240178
240204
240234
239870
239907
239941
239971
239997
240022
240045
240068
240090
240112
240135
240160
240184
240213
239869
239904
239936
239964
239989
240012
240033
240054
240074
240095
240117
240140
240163
240191
239870
239903
239933
239959
239982
240003
240022
240041
240059
240078
240097
240119
240140
240167
239872
239903
239931
239955
239976
239995
240011
240027
240043
240059
240077
240096
240117
240142
239885
239912
239936
239957
239973
239987
240000
240013
240025
240039
240054
240070
240089
240113
239186
239248
239303
239354
239401
239445
239488
239528
239568
239606
239644
239681
239717
239760
239215
239271
239330
239383
239433
239480
239525
239568
239609
239649
239688
239725
239763
239805
239246
239304
239365
239418
239469
239515
239560
239602
239642
239681
239720
239758
239794
239836
239272
239331
239392
239445
239497
239544
239590
239633
239674
239714
239752
239790
239827
239868
239300
239360
239420
239474
239525
239572
239617
239659
239700
239739
239777
239814
239851
239890
239324
239385
239444
239497
239548
239595
239640
239683
239724
239762
239801
239837
239875
239912
239349
239410
239468
239520
239570
239617
239661
239702
239742
239780
239817
239854
239890
239927
239373
239433
239489
239541
239589
239635
239678
239719
239758
239795
239832
239868
239904
239941
239397
239456
239510
239560
239607
239651
239692
239732
239769
239806
239842
239878
239914
239950
239423
239479
239530
239578
239622
239665
239704
239742
239779
239814
239849
239885
239920
239956
239448
239502
239549
239595
239636
239676
239713
239749
239784
239819
239853
239887
239922
239959
239474
239523
239567
239610
239648
239686
239721
239755
239788
239821
239854
239888
239921
239958
239500
239545
239585
239624
239659
239694
239726
239757
239788
239819
239851
239883
239915
239952
239530
239571
239605
239639
239669
239700
239729
239757
239786
239815
239845
239876
239909
239950
238387
238452
238518
238579
238637
238691
238744
238792
238839
238883
238927
238969
239011
239057
238446
238507
238578
238641
238703
238761
238817
238869
238919
238966
239012
239056
239098
239150
238514
238576
238649
238712
238775
238833
238889
238941
238990
239038
239083
239128
239170
239220
238574
238639
238711
238775
238839
238898
238955
239009
239060
239109
239155
239201
239244
239293
238636
238702
238774
238839
238903
238962
239019
239072
239123
239171
239218
239264
239308
239355
238696
238764
238834
238898
238961
239021
239078
239131
239183
239232
239279
239325
239370
239415
238755
238823
238891
238955
239017
239076
239132
239186
239236
239285
239332
239378
239423
239467
238814
238882
238946
239009
239070
239128
239183
239236
239286
239335
239382
239428
239474
239517
238870
238936
238998
239060
239118
239175
239229
239281
239331
239379
239426
239471
239517
239560
238926
238991
239049
239108
239164
239219
239271
239322
239371
239418
239465
239510
239556
239600
238979
239041
239095
239152
239205
239259
239309
239359
239407
239453
239500
239545
239592
239636
239032
239089
239141
239194
239245
239296
239345
239392
239439
239485
239531
239576
239622
239668
239080
239135
239182
239232
239280
239329
239376
239422
239468
239513
239558
239604
239649
239699
239132
239181
239223
239269
239314
239359
239404
239448
239492
239537
239581
239628
239674
239727
237688
237736
237794
237847
237901
237951
237999
238046
238091
238134
238177
238218
238259
238300
237768
237813
237874
237930
237987
238040
238092
238142
238190
238237
238282
238326
238369
238420
237854
237903
237964
238021
238078
238132
238185
238235
238284
238332
238378
238423
238465
238518
237939
237989
238051
238108
238166
238221
238276
238328
238379
238429
238476
238523
238567
238619
238024
238077
238138
238195
238254
238310
238365
238418
238470
238520
238568
238616
238661
238711
238110
238164
238224
238281
238340
238396
238451
238505
238558
238610
238660
238708
238755
238804
238193
238249
238308
238365
238422
238479
238535
238589
238643
238695
238745
238795
238843
238889
238278
238334
238390
238447
238503
238560
238615
238670
238724
238777
238828
238878
238927
238973
238358
238414
238469
238525
238580
238637
238692
238747
238801
238854
238906
238956
239006
239051
238438
238494
238546
238601
238656
238711
238766
238821
238875
238927
238980
239029
239081
239126
238513
238567
238618
238672
238726
238781
238835
238890
238944
238997
239050
239099
239152
239196
238588
238641
238689
238742
238794
238848
238902
238955
239009
239061
239114
239164
239217
239263
238655
238706
238753
238804
238856
238909
238962
239016
239071
239124
239177
239228
239282
239331
238726
238774
238818
238868
238918
238968
239021
239073
239126
239178
239231
239284
239340
239399
237196
237216
237248
237279
237313
237348
237382
237416
237449
237482
237515
237548
237581
237613
237282
237301
237335
237364
237399
237436
237472
237508
237544
237580
237615
237651
237686
237726
237368
237389
237424
237455
237491
237528
237565
237602
237639
237676
237712
237749
237784
237828
237457
237480
237514
237547
237583
237621
237660
237699
237737
237776
237814
237853
237890
237934
237546
237571
237605
237640
237677
237716
237756
237796
237836
237876
237915
237955
237993
238036
237637
237665
237698
237734
237772
237812
237852
237894
237935
237976
238017
238058
238098
238140
237727
237758
237791
237828
237866
237907
237949
237991
238033
238076
238118
238160
238201
238241
237819
237850
237884
237921
237960
238002
238044
238087
238131
238175
238218
238261
238305
238344
237908
237940
237974
238013
238052
238095
238138
238182
238227
238271
238316
238360
238405
238443
237997
238031
238064
238103
238143
238186
238230
238275
238321
238367
238413
238457
238504
238541
238081
238116
238149
238189
238231
238275
238320
238366
238413
238460
238507
238552
238600
238636
238166
238201
238235
238276
238318
238362
238408
238455
238502
238549
238598
238643
238694
238730
238244
238278
238314
238355
238399
238445
238492
238540
238589
238638
238688
238735
238787
238825
238327
238360
238397
238437
238482
238527
238575
238622
238671
238720
238769
238818
238869
238919
236912
236905
236911
236920
236931
236943
236957
236973
236990
237008
237026
237046
237065
237087
236988
236977
236984
236992
237003
237015
237029
237046
237063
237082
237102
237123
237143
237169
237058
237049
237057
237067
237078
237091
237106
237122
237140
237159
237179
237201
237221
237249
237132
237127
237136
237145
237157
237170
237185
237203
237221
237241
237262
237285
237306
237336
237207
237206
237215
237225
237237
237252
237268
237286
237306
237327
237348
237371
237395
237423
237286
237289
237297
237308
237321
237336
237353
237373
237393
237416
237438
237462
237487
237513
237365
237371
237380
237392
237406
237423
237441
237462
237484
237507
237531
237556
237582
237607
237446
237454
237463
237477
237492
237510
237531
237553
237576
237601
237626
237652
237680
237704
237526
237537
237547
237562
237580
237599
237621
237645
237670
237696
237722
237749
237779
237801
237607
237620
237631
237648
237667
237689
237713
237738
237765
237792
237820
237848
237880
237902
237686
237702
237715
237734
237755
237779
237805
237832
237861
237889
237918
237946
237979
238000
237767
237784
237800
237820
237843
237868
237896
237925
237956
237985
238016
238045
238081
238101
237845
237863
237881
237904
237929
237957
237987
238018
238050
238082
238114
238144
238181
238202
237931
237947
237967
237990
238017
238046
238077
238109
238142
238175
238208
238241
238277
238306
236763
236743
236731
236720
236713
236707
236705
236704
236706
236709
236712
236718
236723
236736
236817
236795
236782
236771
236763
236757
236753
236752
236753
236755
236758
236763
236768
236782
236868
236846
236835
236824
236816
236809
236805
236804
236803
236806
236808
236813
236817
236831
236922
236903
236891
236880
236872
236866
236861
236859
236859
236860
236863
236868
236872
236884
236977
236959
236948
236938
236930
236924
236920
236918
236918
236920
236922
236927
236933
236941
237035
237019
237008
236999
236991
236986
236983
236981
236981
236983
236986
236991
236997
237005
237092
237079
237069
237061
237055
237051
237048
237047
237048
237050
237054
237059
237065
237072
237153
237142
237133
237126
237121
237118
237116
237117
237118
237121
237125
237130
237138
237143
237214
237207
237198
237193
237189
237188
237187
237189
237191
237195
237200
237206
237215
237217
237276
237273
237266
237262
237260
237259
237261
237263
237267
237271
237279
237286
237295
237295
237339
237340
237335
237333
237332
237333
237336
237340
237345
237351
237359
237368
237378
237376
237406
237408
237404
237404
237405
237408
237413
237419
237426
237433
237443
237453
237464
237461
237474
237477
237475
237477
237481
237485
237492
237499
237507
237516
237527
237537
237549
237546
237550
237549
237547
237550
237556
237563
237571
237580
237590
237600
237612
237624
237638
237642
236682
236653
236631
236609
236591
236575
236561
236549
236540
236532
236524
236519
236714
236685
236663
236641
236622
236604
236589
236576
236564
236554
236546
236539
236744
236716
236694
236672
236652
236634
236618
236604
236592
236581
236572
236564
236777
236750
236728
236706
236686
236668
236651
236636
236623
236611
236601
236592
236811
236785
236763
236742
236721
236703
236686
236670
236656
236644
236633
236623
236846
236822
236800
236779
236759
236740
236723
236707
236693
236679
236667
236657
236882
236859
236838
236818
236798
236780
236763
236747
236732
236718
236706
236695
236921
236899
236879
236859
236840
236822
236805
236789
236774
236760
236748
236736
236959
236940
236920
236901
236883
236866
236849
236834
236819
236805
236793
236780
237000
236983
236964
236946
236929
236912
236896
236881
236866
236852
236840
236826
237042
237027
237009
236992
236975
236960
236945
236930
236916
236902
236889
236876
237086
237073
237055
237040
237024
237010
236996
236982
236968
236954
236942
236928
237134
237121
237106
237091
237076
237062
237048
237035
237021
237008
236996
236982
237187
237169
237153
237139
237127
237115
237102
237090
237078
237066
237054
237042
242976
243097
243203
243299
243375
243442
242916
243069
243194
243313
243411
243495
242848
243032
243183
243320
243434
243530
242764
242969
243143
243300
243429
243537
243251
243344
243426
243502
243563
243615
243218
243336
243439
243536
243618
243685
243191
243334
243455
243565
243658
243735
243150
243312
243450
243571
243674
243757
243105
243283
243434
243565
243673
243760
243050
243236
243396
243535
243651
243743
242991
243178
243342
243485
243603
243699
243344
243419
243487
243552
243608
243658
243327
243424
243513
243598
243672
243736
243322
243438
243542
243639
243723
243795
243306
243437
243554
243660
243753
243829
243288
243431
243558
243671
243767
243844
243261
243413
243547
243665
243763
243841
243229
243384
243522
243641
243740
243819
243190
243343
243477
243594
243691
243770
243145
243289
243418
243529
243622
243699
243092
243222
243339
243441
243527
243599
243032
243143
243245
243332
243407
243469
242968
243053
243136
243204
243262
243309
242895
242955
243013
243060
243099
243127
242831
242855
242888
242909
242925
242933
243332
243391
243447
243499
243545
243587
243326
243408
243483
243553
243615
243671
243332
243430
243520
243602
243674
243737
243329
243441
243543
243634
243714
243782
243324
243447
243558
243657
243741
243810
243312
243444
243561
243664
243750
243819
243294
243432
243554
243660
243747
243815
243269
243406
243528
243635
243722
243790
243239
243370
243489
243592
243677
243744
243201
243322
243433
243529
243609
243674
243156
243262
243361
243447
243519
243578
243106
243193
243275
243345
243405
243455
243047
243110
243171
243224
243268
243304
242996
243028
243065
243093
243116
243130
243212
243252
243294
243334
243372
243409
243219
243282
243340
243394
243443
243493
243236
243313
243384
243448
243506
243563
243242
243333
243415
243488
243554
243616
243246
243349
243440
243520
243591
243655
243245
243355
243452
243538
243612
243677
243238
243354
243455
243545
243621
243686
243223
243341
243447
243539
243615
243680
243202
243319
243423
243515
243592
243656
243175
243285
243385
243474
243548
243610
243142
243240
243332
243414
243484
243543
243103
243186
243265
243336
243396
243448
243055
243119
243181
243236
243283
243324
243016
243051
243091
243123
243152
243176
242968
243002
243043
243083
243122
243164
242982
243034
243088
243140
243192
243247
243004
243068
243132
243193
243254
243318
243017
243093
243166
243235
243303
243373
243028
243113
243193
243268
243342
243416
243033
243125
243210
243290
243366
243442
243035
243131
243219
243302
243380
243456
243031
243129
243218
243302
243380
243456
243022
243119
243208
243292
243370
243444
243006
243099
243186
243268
243343
243415
242984
243071
243152
243230
243301
243369
242958
243034
243107
243176
243239
243300
242922
242983
243043
243101
243153
243204
242896
242933
242974
243011
243046
243080
242650
242693
242741
242789
242837
242887
242655
242715
242775
242838
242900
242966
242672
242743
242814
242888
242961
243039
242683
242764
242844
242926
243010
243098
242694
242782
242869
242958
243050
243145
242701
242794
242886
242980
243076
243175
242706
242801
242896
242992
243090
243191
242706
242802
242897
242994
243091
243192
242704
242798
242891
242986
243081
243180
242696
242787
242876
242968
243059
243153
242684
242769
242852
242938
243023
243112
242670
242745
242820
242898
242973
243053
242645
242708
242771
242838
242903
242973
242635
242677
242724
242771
242819
242871
242308
242366
242421
242478
242533
242590
242297
242369
242441
242514
242585
242658
242304
242388
242471
242557
242642
242728
242308
242401
242496
242593
242691
242791
242314
242415
242518
242625
242733
242845
242319
242425
242534
242647
242764
242884
242323
242432
242545
242662
242783
242908
242325
242436
242549
242667
242789
242915
242326
242435
242546
242662
242781
242905
242324
242429
242535
242647
242761
242880
242320
242417
242516
242621
242727
242839
242314
242404