/*--------------------------------*- C++ -*----------------------------------*\
| =========                 |                                                 |
| \\      /  F ield         | OpenFOAM: The Open Source CFD Toolbox           |
|  \\    /   O peration     | Version:  v2106                                 |
|   \\  /    A nd           | Website:  www.openfoam.com                      |
|    \\/     M anipulation  |                                                 |
\*---------------------------------------------------------------------------*/
FoamFile
{
    version     2.0;
    format      ascii;
    arch        "LSB;label=32;scalar=64";
    class       volScalarField;
    location    "0.000191";
    object      epsilon;
}
// * * * * * * * * * * * * * * * * * * * * * * * * * * * * * * * * * * * * * //

dimensions      [0 2 -3 0 0 0 0];

internalField   nonuniform List<scalar> 
17924
(
1.36984e-08
1.34358e-08
1.33852e-08
1.33769e-08
1.33891e-08
1.33671e-08
1.33648e-08
1.3366e-08
1.33677e-08
1.33696e-08
1.33714e-08
1.33977e-08
1.33694e-08
1.33648e-08
1.33654e-08
1.33667e-08
1.33683e-08
1.33697e-08
1.34329e-08
1.3378e-08
1.33665e-08
1.33656e-08
1.33668e-08
1.33683e-08
1.33698e-08
1.34862e-08
1.33902e-08
1.33687e-08
1.33658e-08
1.33668e-08
1.33683e-08
1.33699e-08
1.35477e-08
1.34033e-08
1.33709e-08
1.33659e-08
1.33666e-08
1.33682e-08
1.33698e-08
1.36085e-08
1.34147e-08
1.33725e-08
1.33659e-08
1.33664e-08
1.3368e-08
1.33696e-08
1.3671e-08
1.34253e-08
1.33738e-08
1.3366e-08
1.33662e-08
1.33678e-08
1.33694e-08
1.37371e-08
1.34354e-08
1.33749e-08
1.3366e-08
1.33661e-08
1.33676e-08
1.33691e-08
1.38031e-08
1.34452e-08
1.33761e-08
1.33662e-08
1.33661e-08
1.33674e-08
1.33687e-08
1.38691e-08
1.3455e-08
1.33775e-08
1.33665e-08
1.33663e-08
1.33676e-08
1.33689e-08
1.39269e-08
1.34645e-08
1.33798e-08
1.3368e-08
1.33682e-08
1.33703e-08
1.33721e-08
1.39945e-08
1.34825e-08
1.33873e-08
1.33751e-08
1.33787e-08
1.33851e-08
1.33904e-08
1.41713e-08
1.35483e-08
1.34194e-08
1.34076e-08
1.34269e-08
1.34538e-08
1.34756e-08
1.4874e-08
1.38054e-08
1.35499e-08
1.35433e-08
1.36268e-08
1.37379e-08
1.38267e-08
1.33474e-08
1.33496e-08
1.3353e-08
1.33559e-08
1.33582e-08
1.33604e-08
1.33623e-08
1.33639e-08
1.33653e-08
1.33665e-08
1.33675e-08
1.33682e-08
1.33686e-08
1.33684e-08
1.33505e-08
1.33516e-08
1.33543e-08
1.3357e-08
1.33595e-08
1.33617e-08
1.33638e-08
1.33655e-08
1.33671e-08
1.33685e-08
1.337e-08
1.33709e-08
1.33715e-08
1.33722e-08
1.33558e-08
1.33539e-08
1.33558e-08
1.33584e-08
1.33609e-08
1.33633e-08
1.33654e-08
1.33674e-08
1.33691e-08
1.33707e-08
1.33722e-08
1.33733e-08
1.33743e-08
1.33752e-08
1.33623e-08
1.33561e-08
1.3357e-08
1.33595e-08
1.33621e-08
1.33646e-08
1.33669e-08
1.33689e-08
1.33708e-08
1.33724e-08
1.33739e-08
1.3375e-08
1.33761e-08
1.33772e-08
1.33695e-08
1.33584e-08
1.33583e-08
1.33607e-08
1.33634e-08
1.33659e-08
1.33683e-08
1.33703e-08
1.33722e-08
1.33738e-08
1.33753e-08
1.33764e-08
1.33775e-08
1.33785e-08
1.33763e-08
1.33606e-08
1.33595e-08
1.33617e-08
1.33644e-08
1.3367e-08
1.33693e-08
1.33714e-08
1.33732e-08
1.33749e-08
1.33763e-08
1.33775e-08
1.33785e-08
1.33795e-08
1.33834e-08
1.33628e-08
1.33608e-08
1.33629e-08
1.33654e-08
1.33679e-08
1.33701e-08
1.33721e-08
1.33738e-08
1.33754e-08
1.33768e-08
1.33781e-08
1.3379e-08
1.33801e-08
1.33906e-08
1.33649e-08
1.33618e-08
1.33637e-08
1.33661e-08
1.33685e-08
1.33705e-08
1.33725e-08
1.33742e-08
1.33758e-08
1.33771e-08
1.33784e-08
1.33793e-08
1.33805e-08
1.33977e-08
1.33668e-08
1.33629e-08
1.33646e-08
1.33667e-08
1.33689e-08
1.33708e-08
1.33727e-08
1.33742e-08
1.33757e-08
1.3377e-08
1.33784e-08
1.33793e-08
1.33806e-08
1.34045e-08
1.33686e-08
1.33638e-08
1.33651e-08
1.33671e-08
1.33691e-08
1.33709e-08
1.33725e-08
1.33739e-08
1.33754e-08
1.33766e-08
1.3378e-08
1.3379e-08
1.33803e-08
1.34103e-08
1.33701e-08
1.33647e-08
1.33657e-08
1.33675e-08
1.33692e-08
1.33708e-08
1.33722e-08
1.33735e-08
1.33748e-08
1.3376e-08
1.33775e-08
1.33784e-08
1.33799e-08
1.34156e-08
1.33718e-08
1.33656e-08
1.33662e-08
1.3368e-08
1.33698e-08
1.33715e-08
1.33729e-08
1.33741e-08
1.33752e-08
1.33763e-08
1.33776e-08
1.33781e-08
1.33794e-08
1.34274e-08
1.33762e-08
1.33678e-08
1.33683e-08
1.33711e-08
1.33743e-08
1.33769e-08
1.33787e-08
1.33799e-08
1.33806e-08
1.33811e-08
1.33816e-08
1.33811e-08
1.3382e-08
1.34773e-08
1.33942e-08
1.33769e-08
1.3378e-08
1.33861e-08
1.33958e-08
1.34036e-08
1.34079e-08
1.34095e-08
1.34089e-08
1.3407e-08
1.34047e-08
1.34016e-08
1.34014e-08
1.33248e-08
1.33294e-08
1.33333e-08
1.33367e-08
1.33394e-08
1.3342e-08
1.33443e-08
1.33463e-08
1.33481e-08
1.33497e-08
1.33511e-08
1.33523e-08
1.33531e-08
1.33532e-08
1.33281e-08
1.3332e-08
1.33357e-08
1.3339e-08
1.33419e-08
1.33446e-08
1.3347e-08
1.33492e-08
1.33512e-08
1.33531e-08
1.33548e-08
1.33561e-08
1.33572e-08
1.33582e-08
1.33316e-08
1.33349e-08
1.33384e-08
1.33415e-08
1.33445e-08
1.33473e-08
1.33499e-08
1.33523e-08
1.33544e-08
1.33564e-08
1.33582e-08
1.33597e-08
1.3361e-08
1.33622e-08
1.33346e-08
1.33373e-08
1.33407e-08
1.33439e-08
1.3347e-08
1.33499e-08
1.33526e-08
1.33551e-08
1.33573e-08
1.33593e-08
1.33612e-08
1.33626e-08
1.33641e-08
1.33654e-08
1.33374e-08
1.33397e-08
1.3343e-08
1.33463e-08
1.33495e-08
1.33524e-08
1.33552e-08
1.33576e-08
1.33599e-08
1.33619e-08
1.33638e-08
1.33653e-08
1.33668e-08
1.3368e-08
1.33401e-08
1.33421e-08
1.33452e-08
1.33485e-08
1.33517e-08
1.33547e-08
1.33574e-08
1.33599e-08
1.33622e-08
1.33642e-08
1.33661e-08
1.33677e-08
1.33691e-08
1.33704e-08
1.33429e-08
1.33445e-08
1.33475e-08
1.33507e-08
1.33537e-08
1.33567e-08
1.33593e-08
1.33618e-08
1.33641e-08
1.33661e-08
1.3368e-08
1.33697e-08
1.33711e-08
1.33725e-08
1.33457e-08
1.33467e-08
1.33494e-08
1.33526e-08
1.33555e-08
1.33583e-08
1.33609e-08
1.33634e-08
1.33656e-08
1.33677e-08
1.33695e-08
1.33714e-08
1.33727e-08
1.33744e-08
1.33483e-08
1.33488e-08
1.33512e-08
1.33543e-08
1.3357e-08
1.33597e-08
1.33622e-08
1.33645e-08
1.33666e-08
1.33687e-08
1.33706e-08
1.33725e-08
1.3374e-08
1.33758e-08
1.33508e-08
1.33505e-08
1.33527e-08
1.33555e-08
1.33581e-08
1.33606e-08
1.33629e-08
1.33652e-08
1.33672e-08
1.33693e-08
1.33712e-08
1.33733e-08
1.33749e-08
1.33768e-08
1.3353e-08
1.3352e-08
1.3354e-08
1.33565e-08
1.33589e-08
1.33612e-08
1.33633e-08
1.33654e-08
1.33674e-08
1.33695e-08
1.33715e-08
1.33738e-08
1.33754e-08
1.33776e-08
1.33545e-08
1.3353e-08
1.33547e-08
1.33569e-08
1.33591e-08
1.33612e-08
1.33633e-08
1.33654e-08
1.33674e-08
1.33695e-08
1.33715e-08
1.33739e-08
1.33754e-08
1.33774e-08
1.33556e-08
1.33535e-08
1.33552e-08
1.33572e-08
1.33592e-08
1.33613e-08
1.33632e-08
1.33652e-08
1.33671e-08
1.33691e-08
1.33711e-08
1.33732e-08
1.33742e-08
1.33757e-08
1.33585e-08
1.33544e-08
1.33556e-08
1.33575e-08
1.33598e-08
1.33622e-08
1.33645e-08
1.33665e-08
1.33684e-08
1.33702e-08
1.33718e-08
1.3373e-08
1.33736e-08
1.33747e-08
1.32965e-08
1.33005e-08
1.33042e-08
1.33075e-08
1.33104e-08
1.33131e-08
1.33157e-08
1.33181e-08
1.33204e-08
1.33225e-08
1.33246e-08
1.33264e-08
1.3328e-08
1.33287e-08
1.33007e-08
1.3304e-08
1.33076e-08
1.33107e-08
1.33137e-08
1.33166e-08
1.33193e-08
1.33218e-08
1.33242e-08
1.33265e-08
1.33288e-08
1.33308e-08
1.33326e-08
1.33343e-08
1.33049e-08
1.3308e-08
1.33113e-08
1.33143e-08
1.33173e-08
1.33202e-08
1.3323e-08
1.33256e-08
1.33281e-08
1.33305e-08
1.33328e-08
1.33349e-08
1.33368e-08
1.33388e-08
1.33085e-08
1.33113e-08
1.33146e-08
1.33177e-08
1.33207e-08
1.33237e-08
1.33265e-08
1.33292e-08
1.33317e-08
1.33342e-08
1.33366e-08
1.33387e-08
1.33408e-08
1.33428e-08
1.33118e-08
1.33147e-08
1.33179e-08
1.3321e-08
1.33241e-08
1.33271e-08
1.33299e-08
1.33326e-08
1.33353e-08
1.33378e-08
1.33402e-08
1.33423e-08
1.33444e-08
1.33464e-08
1.33152e-08
1.33181e-08
1.33212e-08
1.33243e-08
1.33273e-08
1.33303e-08
1.33331e-08
1.33359e-08
1.33386e-08
1.33411e-08
1.33436e-08
1.33459e-08
1.3348e-08
1.33499e-08
1.33184e-08
1.33214e-08
1.33243e-08
1.33274e-08
1.33303e-08
1.33333e-08
1.33361e-08
1.33389e-08
1.33416e-08
1.33443e-08
1.33468e-08
1.33492e-08
1.33514e-08
1.33534e-08
1.33216e-08
1.33245e-08
1.33272e-08
1.33302e-08
1.33331e-08
1.3336e-08
1.33389e-08
1.33417e-08
1.33444e-08
1.33472e-08
1.33497e-08
1.33523e-08
1.33545e-08
1.33568e-08
1.33246e-08
1.33273e-08
1.333e-08
1.33329e-08
1.33357e-08
1.33385e-08
1.33413e-08
1.33442e-08
1.33469e-08
1.33497e-08
1.33524e-08
1.33551e-08
1.33574e-08
1.33599e-08
1.33275e-08
1.33299e-08
1.33324e-08
1.33352e-08
1.33379e-08
1.33407e-08
1.33435e-08
1.33464e-08
1.33491e-08
1.3352e-08
1.33548e-08
1.33577e-08
1.33602e-08
1.33629e-08
1.33302e-08
1.33323e-08
1.33346e-08
1.33373e-08
1.33399e-08
1.33426e-08
1.33454e-08
1.33482e-08
1.33511e-08
1.3354e-08
1.33569e-08
1.33601e-08
1.33628e-08
1.33658e-08
1.33323e-08
1.33342e-08
1.33365e-08
1.3339e-08
1.33415e-08
1.33442e-08
1.3347e-08
1.33498e-08
1.33528e-08
1.33558e-08
1.33589e-08
1.33622e-08
1.33649e-08
1.33679e-08
1.33336e-08
1.33355e-08
1.33379e-08
1.33403e-08
1.33429e-08
1.33455e-08
1.33483e-08
1.33511e-08
1.33541e-08
1.33573e-08
1.33605e-08
1.33638e-08
1.33662e-08
1.33689e-08
1.33343e-08
1.33361e-08
1.33387e-08
1.33411e-08
1.33438e-08
1.33465e-08
1.33494e-08
1.33524e-08
1.33556e-08
1.33587e-08
1.33619e-08
1.33647e-08
1.33668e-08
1.33692e-08
1.32657e-08
1.32683e-08
1.32711e-08
1.32737e-08
1.32764e-08
1.32791e-08
1.32818e-08
1.32845e-08
1.32872e-08
1.32899e-08
1.32925e-08
1.32951e-08
1.32972e-08
1.3299e-08
1.32708e-08
1.32728e-08
1.32754e-08
1.32778e-08
1.32804e-08
1.3283e-08
1.32858e-08
1.32886e-08
1.32914e-08
1.32942e-08
1.3297e-08
1.32996e-08
1.3302e-08
1.33044e-08
1.32756e-08
1.32774e-08
1.32798e-08
1.32821e-08
1.32846e-08
1.32872e-08
1.329e-08
1.32927e-08
1.32956e-08
1.32984e-08
1.33012e-08
1.33039e-08
1.33064e-08
1.3309e-08
1.32799e-08
1.32816e-08
1.3284e-08
1.32863e-08
1.32888e-08
1.32914e-08
1.32941e-08
1.3297e-08
1.32998e-08
1.33027e-08
1.33055e-08
1.33082e-08
1.33108e-08
1.33135e-08
1.3284e-08
1.32858e-08
1.32882e-08
1.32905e-08
1.3293e-08
1.32956e-08
1.32983e-08
1.33012e-08
1.3304e-08
1.33069e-08
1.33098e-08
1.33125e-08
1.33151e-08
1.33178e-08
1.32882e-08
1.32902e-08
1.32924e-08
1.32946e-08
1.32971e-08
1.32998e-08
1.33025e-08
1.33054e-08
1.33083e-08
1.33113e-08
1.33142e-08
1.3317e-08
1.33197e-08
1.33223e-08
1.32923e-08
1.32943e-08
1.32965e-08
1.32988e-08
1.33012e-08
1.33039e-08
1.33067e-08
1.33097e-08
1.33126e-08
1.33156e-08
1.33186e-08
1.33215e-08
1.33242e-08
1.33269e-08
1.32964e-08
1.32984e-08
1.33005e-08
1.33029e-08
1.33053e-08
1.33081e-08
1.33109e-08
1.33139e-08
1.33169e-08
1.332e-08
1.33231e-08
1.3326e-08
1.33289e-08
1.33316e-08
1.33002e-08
1.33023e-08
1.33044e-08
1.33068e-08
1.33094e-08
1.33121e-08
1.33151e-08
1.33181e-08
1.33212e-08
1.33243e-08
1.33275e-08
1.33306e-08
1.33335e-08
1.33364e-08
1.33041e-08
1.33061e-08
1.33082e-08
1.33107e-08
1.33133e-08
1.33162e-08
1.33191e-08
1.33223e-08
1.33254e-08
1.33286e-08
1.33319e-08
1.33352e-08
1.33383e-08
1.33412e-08
1.33079e-08
1.33098e-08
1.33119e-08
1.33145e-08
1.33171e-08
1.33201e-08
1.33231e-08
1.33263e-08
1.33296e-08
1.3333e-08
1.33363e-08
1.33398e-08
1.33431e-08
1.33462e-08
1.33113e-08
1.33133e-08
1.33155e-08
1.33181e-08
1.33208e-08
1.33238e-08
1.3327e-08
1.33303e-08
1.33337e-08
1.33371e-08
1.33407e-08
1.33443e-08
1.33477e-08
1.33508e-08
1.3314e-08
1.33161e-08
1.33187e-08
1.33214e-08
1.33243e-08
1.33274e-08
1.33307e-08
1.33341e-08
1.33376e-08
1.33413e-08
1.3345e-08
1.33487e-08
1.33518e-08
1.33546e-08
1.3316e-08
1.33185e-08
1.33215e-08
1.33244e-08
1.33275e-08
1.33308e-08
1.33342e-08
1.33378e-08
1.33414e-08
1.33451e-08
1.33487e-08
1.33521e-08
1.33549e-08
1.33578e-08
1.32428e-08
1.32435e-08
1.3245e-08
1.32465e-08
1.32484e-08
1.32504e-08
1.32527e-08
1.32551e-08
1.32577e-08
1.32604e-08
1.32631e-08
1.32657e-08
1.3268e-08
1.32701e-08
1.32483e-08
1.32484e-08
1.32497e-08
1.3251e-08
1.32527e-08
1.32547e-08
1.3257e-08
1.32594e-08
1.3262e-08
1.32648e-08
1.32675e-08
1.32702e-08
1.32725e-08
1.32751e-08
1.32532e-08
1.32532e-08
1.32544e-08
1.32557e-08
1.32574e-08
1.32593e-08
1.32615e-08
1.32639e-08
1.32664e-08
1.32691e-08
1.32718e-08
1.32745e-08
1.32769e-08
1.32796e-08
1.32578e-08
1.3258e-08
1.32591e-08
1.32604e-08
1.32621e-08
1.3264e-08
1.32662e-08
1.32686e-08
1.32711e-08
1.32738e-08
1.32764e-08
1.32791e-08
1.32816e-08
1.32843e-08
1.32622e-08
1.32627e-08
1.32638e-08
1.32652e-08
1.32669e-08
1.32689e-08
1.32711e-08
1.32735e-08
1.3276e-08
1.32786e-08
1.32812e-08
1.32838e-08
1.32864e-08
1.32891e-08
1.32668e-08
1.32676e-08
1.32687e-08
1.32702e-08
1.32719e-08
1.32739e-08
1.32761e-08
1.32785e-08
1.32811e-08
1.32837e-08
1.32863e-08
1.3289e-08
1.32916e-08
1.32942e-08
1.32714e-08
1.32724e-08
1.32736e-08
1.32752e-08
1.3277e-08
1.32791e-08
1.32813e-08
1.32838e-08
1.32863e-08
1.32889e-08
1.32916e-08
1.32943e-08
1.32969e-08
1.32995e-08
1.32761e-08
1.32773e-08
1.32786e-08
1.32803e-08
1.32822e-08
1.32843e-08
1.32866e-08
1.32891e-08
1.32917e-08
1.32944e-08
1.32971e-08
1.32998e-08
1.33025e-08
1.33051e-08
1.32807e-08
1.3282e-08
1.32835e-08
1.32854e-08
1.32874e-08
1.32896e-08
1.3292e-08
1.32946e-08
1.32972e-08
1.32999e-08
1.33027e-08
1.33055e-08
1.33082e-08
1.33107e-08
1.32854e-08
1.32869e-08
1.32885e-08
1.32905e-08
1.32926e-08
1.3295e-08
1.32975e-08
1.33001e-08
1.33029e-08
1.33056e-08
1.33085e-08
1.33113e-08
1.33142e-08
1.33167e-08
1.329e-08
1.32916e-08
1.32933e-08
1.32955e-08
1.32978e-08
1.33003e-08
1.3303e-08
1.33057e-08
1.33086e-08
1.33114e-08
1.33144e-08
1.33173e-08
1.33203e-08
1.33228e-08
1.32945e-08
1.32963e-08
1.32983e-08
1.33006e-08
1.33031e-08
1.33057e-08
1.33084e-08
1.33113e-08
1.33142e-08
1.33172e-08
1.33202e-08
1.33233e-08
1.33264e-08
1.33289e-08
1.32984e-08
1.33004e-08
1.33028e-08
1.33053e-08
1.3308e-08
1.33108e-08
1.33138e-08
1.33167e-08
1.33198e-08
1.3323e-08
1.33261e-08
1.33293e-08
1.33322e-08
1.33345e-08
1.33019e-08
1.33044e-08
1.33072e-08
1.331e-08
1.3313e-08
1.33159e-08
1.3319e-08
1.33221e-08
1.33253e-08
1.33285e-08
1.33316e-08
1.33346e-08
1.33372e-08
1.33395e-08
1.32334e-08
1.32331e-08
1.32333e-08
1.32338e-08
1.32346e-08
1.32356e-08
1.32368e-08
1.32382e-08
1.32397e-08
1.32415e-08
1.32434e-08
1.32453e-08
1.32471e-08
1.32488e-08
1.32384e-08
1.32376e-08
1.32378e-08
1.32381e-08
1.32388e-08
1.32397e-08
1.32409e-08
1.32423e-08
1.32439e-08
1.32457e-08
1.32475e-08
1.32494e-08
1.32512e-08
1.32532e-08
1.32427e-08
1.32419e-08
1.32421e-08
1.32425e-08
1.32432e-08
1.32441e-08
1.32453e-08
1.32467e-08
1.32482e-08
1.32499e-08
1.32516e-08
1.32535e-08
1.32552e-08
1.32573e-08
1.32469e-08
1.32464e-08
1.32466e-08
1.32471e-08
1.32478e-08
1.32487e-08
1.32499e-08
1.32513e-08
1.32528e-08
1.32544e-08
1.32561e-08
1.3258e-08
1.32597e-08
1.32618e-08
1.32511e-08
1.32508e-08
1.32512e-08
1.32517e-08
1.32525e-08
1.32535e-08
1.32547e-08
1.3256e-08
1.32575e-08
1.32592e-08
1.32609e-08
1.32626e-08
1.32644e-08
1.32663e-08
1.32555e-08
1.32555e-08
1.32559e-08
1.32565e-08
1.32574e-08
1.32584e-08
1.32596e-08
1.3261e-08
1.32626e-08
1.32642e-08
1.32659e-08
1.32677e-08
1.32694e-08
1.32713e-08
1.32599e-08
1.32602e-08
1.32607e-08
1.32615e-08
1.32624e-08
1.32635e-08
1.32648e-08
1.32662e-08
1.32678e-08
1.32694e-08
1.32712e-08
1.32729e-08
1.32747e-08
1.32764e-08
1.32645e-08
1.3265e-08
1.32656e-08
1.32665e-08
1.32675e-08
1.32687e-08
1.32701e-08
1.32716e-08
1.32732e-08
1.32749e-08
1.32766e-08
1.32784e-08
1.32802e-08
1.32819e-08
1.3269e-08
1.32697e-08
1.32705e-08
1.32716e-08
1.32728e-08
1.32741e-08
1.32755e-08
1.32771e-08
1.32787e-08
1.32804e-08
1.32822e-08
1.32839e-08
1.32858e-08
1.32874e-08
1.32737e-08
1.32746e-08
1.32755e-08
1.32767e-08
1.3278e-08
1.32795e-08
1.32811e-08
1.32827e-08
1.32844e-08
1.32861e-08
1.32879e-08
1.32897e-08
1.32917e-08
1.32932e-08
1.32784e-08
1.32794e-08
1.32805e-08
1.32819e-08
1.32834e-08
1.3285e-08
1.32867e-08
1.32885e-08
1.32902e-08
1.3292e-08
1.32938e-08
1.32956e-08
1.32977e-08
1.32992e-08
1.32831e-08
1.32843e-08
1.32856e-08
1.32871e-08
1.32888e-08
1.32905e-08
1.32923e-08
1.32942e-08
1.3296e-08
1.32979e-08
1.32998e-08
1.33017e-08
1.33038e-08
1.33053e-08
1.32873e-08
1.32888e-08
1.32904e-08
1.32922e-08
1.3294e-08
1.32959e-08
1.32979e-08
1.32999e-08
1.33019e-08
1.33038e-08
1.33058e-08
1.33079e-08
1.33098e-08
1.33112e-08
1.32915e-08
1.32933e-08
1.32954e-08
1.32974e-08
1.32995e-08
1.33015e-08
1.33036e-08
1.33056e-08
1.33077e-08
1.33097e-08
1.33117e-08
1.33136e-08
1.33154e-08
1.33167e-08
1.32347e-08
1.3234e-08
1.32335e-08
1.32332e-08
1.32331e-08
1.32331e-08
1.32333e-08
1.32336e-08
1.32341e-08
1.32347e-08
1.32355e-08
1.32363e-08
1.32371e-08
1.32379e-08
1.32385e-08
1.32376e-08
1.32372e-08
1.32367e-08
1.32365e-08
1.32365e-08
1.32366e-08
1.3237e-08
1.32374e-08
1.32381e-08
1.32388e-08
1.32397e-08
1.32404e-08
1.32414e-08
1.32418e-08
1.32409e-08
1.32406e-08
1.32402e-08
1.32401e-08
1.32401e-08
1.32402e-08
1.32406e-08
1.3241e-08
1.32416e-08
1.32423e-08
1.32431e-08
1.32438e-08
1.32448e-08
1.32453e-08
1.32445e-08
1.32442e-08
1.32439e-08
1.32438e-08
1.32438e-08
1.3244e-08
1.32443e-08
1.32447e-08
1.32453e-08
1.32459e-08
1.32467e-08
1.32474e-08
1.32484e-08
1.32487e-08
1.3248e-08
1.32478e-08
1.32476e-08
1.32476e-08
1.32477e-08
1.32479e-08
1.32482e-08
1.32486e-08
1.32492e-08
1.32498e-08
1.32504e-08
1.32511e-08
1.3252e-08
1.32523e-08
1.32518e-08
1.32516e-08
1.32515e-08
1.32515e-08
1.32517e-08
1.32519e-08
1.32522e-08
1.32527e-08
1.32532e-08
1.32538e-08
1.32544e-08
1.32551e-08
1.32559e-08
1.32558e-08
1.32556e-08
1.32555e-08
1.32555e-08
1.32556e-08
1.32558e-08
1.3256e-08
1.32564e-08
1.32569e-08
1.32574e-08
1.3258e-08
1.32586e-08
1.32593e-08
1.32599e-08
1.32595e-08
1.32594e-08
1.32595e-08
1.32596e-08
1.32597e-08
1.326e-08
1.32603e-08
1.32607e-08
1.32612e-08
1.32617e-08
1.32624e-08
1.3263e-08
1.32637e-08
1.32642e-08
1.32631e-08
1.32633e-08
1.32635e-08
1.32637e-08
1.3264e-08
1.32643e-08
1.32647e-08
1.32652e-08
1.32657e-08
1.32663e-08
1.32669e-08
1.32675e-08
1.32682e-08
1.32686e-08
1.3267e-08
1.32674e-08
1.32676e-08
1.3268e-08
1.32684e-08
1.32688e-08
1.32693e-08
1.32698e-08
1.32703e-08
1.3271e-08
1.32717e-08
1.32723e-08
1.3273e-08
1.32733e-08
1.32709e-08
1.32714e-08
1.32718e-08
1.32723e-08
1.32728e-08
1.32734e-08
1.32739e-08
1.32745e-08
1.32751e-08
1.32758e-08
1.32765e-08
1.32772e-08
1.32779e-08
1.32781e-08
1.3275e-08
1.32757e-08
1.32762e-08
1.32768e-08
1.32774e-08
1.3278e-08
1.32787e-08
1.32793e-08
1.328e-08
1.32808e-08
1.32815e-08
1.32822e-08
1.3283e-08
1.32831e-08
1.3279e-08
1.32797e-08
1.32804e-08
1.32812e-08
1.3282e-08
1.32827e-08
1.32835e-08
1.32842e-08
1.3285e-08
1.32858e-08
1.32865e-08
1.32873e-08
1.3288e-08
1.3288e-08
1.3283e-08
1.32839e-08
1.32849e-08
1.32858e-08
1.32868e-08
1.32876e-08
1.32884e-08
1.32892e-08
1.329e-08
1.32908e-08
1.32915e-08
1.32922e-08
1.32929e-08
1.3293e-08
1.3241e-08
1.324e-08
1.32393e-08
1.32386e-08
1.3238e-08
1.32374e-08
1.32369e-08
1.32364e-08
1.32361e-08
1.32359e-08
1.32357e-08
1.32356e-08
1.32354e-08
1.32355e-08
1.32437e-08
1.32426e-08
1.32419e-08
1.32411e-08
1.32404e-08
1.32397e-08
1.32392e-08
1.32388e-08
1.32384e-08
1.32382e-08
1.32379e-08
1.32378e-08
1.32376e-08
1.32379e-08
1.3246e-08
1.32449e-08
1.32442e-08
1.32435e-08
1.32428e-08
1.32422e-08
1.32417e-08
1.32412e-08
1.32409e-08
1.32406e-08
1.32403e-08
1.32401e-08
1.32399e-08
1.32402e-08
1.32484e-08
1.32474e-08
1.32467e-08
1.3246e-08
1.32453e-08
1.32447e-08
1.32442e-08
1.32437e-08
1.32434e-08
1.3243e-08
1.32427e-08
1.32425e-08
1.32423e-08
1.32425e-08
1.32506e-08
1.32497e-08
1.32492e-08
1.32485e-08
1.32479e-08
1.32473e-08
1.32468e-08
1.32464e-08
1.3246e-08
1.32456e-08
1.32453e-08
1.32451e-08
1.32448e-08
1.32448e-08
1.32531e-08
1.32523e-08
1.32518e-08
1.32511e-08
1.32506e-08
1.325e-08
1.32495e-08
1.32491e-08
1.32487e-08
1.32484e-08
1.3248e-08
1.32477e-08
1.32474e-08
1.32473e-08
1.32555e-08
1.32549e-08
1.32544e-08
1.32538e-08
1.32533e-08
1.32528e-08
1.32524e-08
1.32519e-08
1.32515e-08
1.32512e-08
1.32508e-08
1.32505e-08
1.32502e-08
1.32499e-08
1.32581e-08
1.32576e-08
1.32572e-08
1.32567e-08
1.32562e-08
1.32557e-08
1.32553e-08
1.32549e-08
1.32545e-08
1.32541e-08
1.32538e-08
1.32534e-08
1.32531e-08
1.32527e-08
1.32607e-08
1.32604e-08
1.326e-08
1.32596e-08
1.32591e-08
1.32587e-08
1.32583e-08
1.32579e-08
1.32575e-08
1.32571e-08
1.32568e-08
1.32564e-08
1.3256e-08
1.32555e-08
1.32635e-08
1.32633e-08
1.32629e-08
1.32626e-08
1.32622e-08
1.32618e-08
1.32614e-08
1.32611e-08
1.32607e-08
1.32603e-08
1.32599e-08
1.32595e-08
1.32592e-08
1.32587e-08
1.32663e-08
1.32663e-08
1.3266e-08
1.32657e-08
1.32654e-08
1.32651e-08
1.32647e-08
1.32643e-08
1.3264e-08
1.32636e-08
1.32632e-08
1.32627e-08
1.32625e-08
1.3262e-08
1.32694e-08
1.32694e-08
1.32692e-08
1.3269e-08
1.32687e-08
1.32684e-08
1.3268e-08
1.32677e-08
1.32674e-08
1.3267e-08
1.32666e-08
1.32661e-08
1.32659e-08
1.32654e-08
1.32724e-08
1.32725e-08
1.32724e-08
1.32722e-08
1.3272e-08
1.32718e-08
1.32715e-08
1.32712e-08
1.32708e-08
1.32704e-08
1.327e-08
1.32695e-08
1.32693e-08
1.32686e-08
1.32756e-08
1.32756e-08
1.32756e-08
1.32756e-08
1.32755e-08
1.32752e-08
1.3275e-08
1.32747e-08
1.32744e-08
1.3274e-08
1.32735e-08
1.3273e-08
1.32727e-08
1.32722e-08
1.32485e-08
1.32475e-08
1.32466e-08
1.32457e-08
1.32448e-08
1.32438e-08
1.32429e-08
1.3242e-08
1.32412e-08
1.32403e-08
1.32396e-08
1.32389e-08
1.3238e-08
1.32372e-08
1.32502e-08
1.32491e-08
1.32482e-08
1.32472e-08
1.32462e-08
1.32452e-08
1.32443e-08
1.32433e-08
1.32425e-08
1.32416e-08
1.32408e-08
1.324e-08
1.32392e-08
1.32385e-08
1.32515e-08
1.32504e-08
1.32495e-08
1.32485e-08
1.32475e-08
1.32466e-08
1.32457e-08
1.32447e-08
1.32439e-08
1.3243e-08
1.32421e-08
1.32413e-08
1.32404e-08
1.32398e-08
1.32528e-08
1.32517e-08
1.32509e-08
1.32499e-08
1.32489e-08
1.3248e-08
1.32471e-08
1.32461e-08
1.32452e-08
1.32443e-08
1.32435e-08
1.32426e-08
1.32417e-08
1.3241e-08
1.3254e-08
1.32531e-08
1.32522e-08
1.32513e-08
1.32504e-08
1.32494e-08
1.32485e-08
1.32476e-08
1.32467e-08
1.32457e-08
1.32448e-08
1.32439e-08
1.3243e-08
1.32422e-08
1.32554e-08
1.32545e-08
1.32537e-08
1.32528e-08
1.32519e-08
1.32509e-08
1.325e-08
1.3249e-08
1.32481e-08
1.32472e-08
1.32462e-08
1.32453e-08
1.32443e-08
1.32434e-08
1.32568e-08
1.3256e-08
1.32552e-08
1.32543e-08
1.32534e-08
1.32525e-08
1.32516e-08
1.32506e-08
1.32496e-08
1.32487e-08
1.32477e-08
1.32467e-08
1.32457e-08
1.32447e-08
1.32583e-08
1.32576e-08
1.32568e-08
1.3256e-08
1.32551e-08
1.32541e-08
1.32532e-08
1.32522e-08
1.32512e-08
1.32502e-08
1.32492e-08
1.32482e-08
1.32472e-08
1.32461e-08
1.32599e-08
1.32592e-08
1.32585e-08
1.32576e-08
1.32567e-08
1.32558e-08
1.32548e-08
1.32538e-08
1.32528e-08
1.32518e-08
1.32508e-08
1.32497e-08
1.32487e-08
1.32475e-08
1.32616e-08
1.3261e-08
1.32602e-08
1.32594e-08
1.32585e-08
1.32575e-08
1.32565e-08
1.32555e-08
1.32545e-08
1.32534e-08
1.32524e-08
1.32513e-08
1.32502e-08
1.3249e-08
1.32632e-08
1.32627e-08
1.32619e-08
1.32611e-08
1.32602e-08
1.32593e-08
1.32583e-08
1.32573e-08
1.32562e-08
1.32552e-08
1.32541e-08
1.32529e-08
1.32518e-08
1.32505e-08
1.3265e-08
1.32645e-08
1.32637e-08
1.3263e-08
1.32621e-08
1.32611e-08
1.32601e-08
1.3259e-08
1.32579e-08
1.32568e-08
1.32557e-08
1.32545e-08
1.32534e-08
1.3252e-08
1.32667e-08
1.32663e-08
1.32656e-08
1.32648e-08
1.32639e-08
1.32629e-08
1.32619e-08
1.32608e-08
1.32597e-08
1.32585e-08
1.32573e-08
1.3256e-08
1.32549e-08
1.32535e-08
1.32687e-08
1.32681e-08
1.32674e-08
1.32667e-08
1.32658e-08
1.32648e-08
1.32638e-08
1.32627e-08
1.32616e-08
1.32603e-08
1.32591e-08
1.32577e-08
1.32565e-08
1.32551e-08
1.32554e-08
1.32544e-08
1.32534e-08
1.32524e-08
1.32513e-08
1.32501e-08
1.32489e-08
1.32477e-08
1.32465e-08
1.32452e-08
1.32441e-08
1.32428e-08
1.32416e-08
1.32402e-08
1.3256e-08
1.32549e-08
1.3254e-08
1.32528e-08
1.32517e-08
1.32505e-08
1.32493e-08
1.32481e-08
1.32468e-08
1.32456e-08
1.32444e-08
1.32432e-08
1.32419e-08
1.32407e-08
1.32564e-08
1.32553e-08
1.32544e-08
1.32532e-08
1.32521e-08
1.32509e-08
1.32498e-08
1.32485e-08
1.32473e-08
1.3246e-08
1.32448e-08
1.32436e-08
1.32423e-08
1.32411e-08
1.32568e-08
1.32558e-08
1.32548e-08
1.32537e-08
1.32526e-08
1.32514e-08
1.32502e-08
1.3249e-08
1.32477e-08
1.32465e-08
1.32452e-08
1.32439e-08
1.32427e-08
1.32414e-08
1.32572e-08
1.32562e-08
1.32553e-08
1.32541e-08
1.3253e-08
1.32519e-08
1.32507e-08
1.32494e-08
1.32482e-08
1.32468e-08
1.32456e-08
1.32442e-08
1.32429e-08
1.32416e-08
1.32576e-08
1.32567e-08
1.32557e-08
1.32546e-08
1.32535e-08
1.32523e-08
1.32511e-08
1.32498e-08
1.32485e-08
1.32472e-08
1.32459e-08
1.32445e-08
1.32431e-08
1.32417e-08
1.3258e-08
1.32571e-08
1.32562e-08
1.32551e-08
1.32539e-08
1.32527e-08
1.32515e-08
1.32502e-08
1.32489e-08
1.32475e-08
1.32461e-08
1.32447e-08
1.32433e-08
1.32418e-08
1.32585e-08
1.32576e-08
1.32566e-08
1.32555e-08
1.32544e-08
1.32531e-08
1.32518e-08
1.32505e-08
1.32492e-08
1.32478e-08
1.32464e-08
1.32449e-08
1.32435e-08
1.3242e-08
1.3259e-08
1.32581e-08
1.32571e-08
1.3256e-08
1.32548e-08
1.32535e-08
1.32522e-08
1.32509e-08
1.32494e-08
1.3248e-08
1.32466e-08
1.32451e-08
1.32436e-08
1.32421e-08
1.32595e-08
1.32586e-08
1.32575e-08
1.32564e-08
1.32552e-08
1.32539e-08
1.32525e-08
1.32512e-08
1.32497e-08
1.32482e-08
1.32468e-08
1.32452e-08
1.32437e-08
1.32422e-08
1.326e-08
1.32591e-08
1.3258e-08
1.32569e-08
1.32556e-08
1.32543e-08
1.32529e-08
1.32514e-08
1.32499e-08
1.32484e-08
1.32469e-08
1.32453e-08
1.32438e-08
1.32422e-08
1.32605e-08
1.32596e-08
1.32585e-08
1.32573e-08
1.3256e-08
1.32546e-08
1.32532e-08
1.32517e-08
1.32501e-08
1.32486e-08
1.3247e-08
1.32454e-08
1.32438e-08
1.32421e-08
1.32609e-08
1.326e-08
1.32589e-08
1.32576e-08
1.32563e-08
1.32549e-08
1.32534e-08
1.32519e-08
1.32503e-08
1.32487e-08
1.32471e-08
1.32454e-08
1.32437e-08
1.32419e-08
1.32613e-08
1.32603e-08
1.32592e-08
1.3258e-08
1.32567e-08
1.32552e-08
1.32537e-08
1.32522e-08
1.32506e-08
1.3249e-08
1.32473e-08
1.32456e-08
1.32438e-08
1.3242e-08
1.32596e-08
1.32586e-08
1.32576e-08
1.32565e-08
1.32553e-08
1.3254e-08
1.32527e-08
1.32512e-08
1.32498e-08
1.32483e-08
1.32468e-08
1.32452e-08
1.32437e-08
1.32419e-08
1.32594e-08
1.32584e-08
1.32574e-08
1.32562e-08
1.3255e-08
1.32536e-08
1.32523e-08
1.32508e-08
1.32494e-08
1.32479e-08
1.32464e-08
1.32448e-08
1.32433e-08
1.32417e-08
1.32589e-08
1.32579e-08
1.32569e-08
1.32557e-08
1.32545e-08
1.32532e-08
1.32519e-08
1.32504e-08
1.3249e-08
1.32475e-08
1.3246e-08
1.32444e-08
1.32429e-08
1.32413e-08
1.32585e-08
1.32574e-08
1.32564e-08
1.32552e-08
1.3254e-08
1.32527e-08
1.32514e-08
1.32499e-08
1.32485e-08
1.32469e-08
1.32454e-08
1.32438e-08
1.32423e-08
1.32408e-08
1.32578e-08
1.32569e-08
1.32559e-08
1.32547e-08
1.32535e-08
1.32522e-08
1.32508e-08
1.32494e-08
1.32479e-08
1.32463e-08
1.32448e-08
1.32432e-08
1.32416e-08
1.324e-08
1.32573e-08
1.32563e-08
1.32553e-08
1.32541e-08
1.32529e-08
1.32515e-08
1.32501e-08
1.32487e-08
1.32472e-08
1.32456e-08
1.32441e-08
1.32424e-08
1.32408e-08
1.32392e-08
1.32567e-08
1.32558e-08
1.32547e-08
1.32535e-08
1.32522e-08
1.32509e-08
1.32495e-08
1.3248e-08
1.32464e-08
1.32448e-08
1.32433e-08
1.32416e-08
1.324e-08
1.32383e-08
1.32561e-08
1.32551e-08
1.3254e-08
1.32528e-08
1.32515e-08
1.32501e-08
1.32487e-08
1.32472e-08
1.32456e-08
1.3244e-08
1.32424e-08
1.32407e-08
1.32391e-08
1.32373e-08
1.32555e-08
1.32545e-08
1.32534e-08
1.32521e-08
1.32507e-08
1.32493e-08
1.32478e-08
1.32463e-08
1.32447e-08
1.3243e-08
1.32414e-08
1.32397e-08
1.3238e-08
1.32363e-08
1.32549e-08
1.32538e-08
1.32526e-08
1.32513e-08
1.32499e-08
1.32484e-08
1.32469e-08
1.32453e-08
1.32437e-08
1.32421e-08
1.32404e-08
1.32387e-08
1.32369e-08
1.32353e-08
1.32543e-08
1.32531e-08
1.32519e-08
1.32505e-08
1.3249e-08
1.32475e-08
1.32459e-08
1.32443e-08
1.32426e-08
1.3241e-08
1.32392e-08
1.32375e-08
1.32357e-08
1.32341e-08
1.32535e-08
1.32523e-08
1.3251e-08
1.32496e-08
1.32481e-08
1.32465e-08
1.32449e-08
1.32433e-08
1.32416e-08
1.32399e-08
1.32381e-08
1.32364e-08
1.32346e-08
1.32329e-08
1.32527e-08
1.32514e-08
1.32501e-08
1.32487e-08
1.32471e-08
1.32455e-08
1.32439e-08
1.32421e-08
1.32404e-08
1.32386e-08
1.32368e-08
1.3235e-08
1.32332e-08
1.32315e-08
1.32518e-08
1.32505e-08
1.32492e-08
1.32477e-08
1.32461e-08
1.32444e-08
1.32427e-08
1.3241e-08
1.32393e-08
1.32375e-08
1.32357e-08
1.32339e-08
1.3232e-08
1.32303e-08
1.32585e-08
1.32575e-08
1.32565e-08
1.32554e-08
1.32542e-08
1.32529e-08
1.32516e-08
1.32501e-08
1.32486e-08
1.3247e-08
1.32454e-08
1.32436e-08
1.3242e-08
1.32401e-08
1.32573e-08
1.32564e-08
1.32554e-08
1.32542e-08
1.3253e-08
1.32517e-08
1.32503e-08
1.32489e-08
1.32473e-08
1.32457e-08
1.32441e-08
1.32424e-08
1.32408e-08
1.3239e-08
1.32559e-08
1.3255e-08
1.3254e-08
1.32529e-08
1.32517e-08
1.32504e-08
1.3249e-08
1.32476e-08
1.32461e-08
1.32445e-08
1.32429e-08
1.32412e-08
1.32396e-08
1.32378e-08
1.32546e-08
1.32537e-08
1.32527e-08
1.32515e-08
1.32503e-08
1.3249e-08
1.32476e-08
1.32462e-08
1.32446e-08
1.32431e-08
1.32415e-08
1.32398e-08
1.32382e-08
1.32365e-08
1.32531e-08
1.32522e-08
1.32512e-08
1.32501e-08
1.32488e-08
1.32475e-08
1.32461e-08
1.32447e-08
1.32432e-08
1.32416e-08
1.324e-08
1.32383e-08
1.32367e-08
1.3235e-08
1.32516e-08
1.32507e-08
1.32497e-08
1.32485e-08
1.32473e-08
1.32459e-08
1.32446e-08
1.32431e-08
1.32416e-08
1.324e-08
1.32384e-08
1.32367e-08
1.32351e-08
1.32334e-08
1.32502e-08
1.32492e-08
1.32481e-08
1.32469e-08
1.32457e-08
1.32443e-08
1.32429e-08
1.32414e-08
1.32399e-08
1.32383e-08
1.32367e-08
1.3235e-08
1.32334e-08
1.32317e-08
1.32486e-08
1.32476e-08
1.32465e-08
1.32453e-08
1.3244e-08
1.32426e-08
1.32411e-08
1.32396e-08
1.32381e-08
1.32365e-08
1.32349e-08
1.32333e-08
1.32316e-08
1.32299e-08
1.32471e-08
1.3246e-08
1.32448e-08
1.32436e-08
1.32422e-08
1.32408e-08
1.32393e-08
1.32378e-08
1.32362e-08
1.32346e-08
1.3233e-08
1.32314e-08
1.32297e-08
1.32281e-08
1.32455e-08
1.32443e-08
1.32431e-08
1.32418e-08
1.32404e-08
1.32389e-08
1.32374e-08
1.32359e-08
1.32343e-08
1.32327e-08
1.32311e-08
1.32295e-08
1.32278e-08
1.32263e-08
1.32439e-08
1.32426e-08
1.32413e-08
1.324e-08
1.32385e-08
1.3237e-08
1.32355e-08
1.32339e-08
1.32323e-08
1.32307e-08
1.3229e-08
1.32274e-08
1.32257e-08
1.32243e-08
1.32421e-08
1.32408e-08
1.32394e-08
1.3238e-08
1.32366e-08
1.32351e-08
1.32335e-08
1.32319e-08
1.32303e-08
1.32287e-08
1.3227e-08
1.32254e-08
1.32237e-08
1.32223e-08
1.32404e-08
1.3239e-08
1.32376e-08
1.32362e-08
1.32347e-08
1.32331e-08
1.32315e-08
1.32298e-08
1.32282e-08
1.32265e-08
1.32248e-08
1.32232e-08
1.32215e-08
1.32201e-08
1.32384e-08
1.32369e-08
1.32356e-08
1.32341e-08