/*--------------------------------*- C++ -*----------------------------------*\
| =========                 |                                                 |
| \\      /  F ield         | OpenFOAM: The Open Source CFD Toolbox           |
|  \\    /   O peration     | Version:  v2106                                 |
|   \\  /    A nd           | Website:  www.openfoam.com                      |
|    \\/     M anipulation  |                                                 |
\*---------------------------------------------------------------------------*/
FoamFile
{
    version     2.0;
    format      ascii;
    arch        "LSB;label=32;scalar=64";
    class       volScalarField;
    location    "0.000191";
    object      k;
}
// * * * * * * * * * * * * * * * * * * * * * * * * * * * * * * * * * * * * * //

dimensions      [0 2 -2 0 0 0 0];

internalField   nonuniform List<scalar> 
17924
(
2.3591e-12
2.32602e-12
2.31938e-12
2.3183e-12
2.31973e-12
2.31689e-12
2.31655e-12
2.31669e-12
2.3169e-12
2.31714e-12
2.31739e-12
2.32199e-12
2.31745e-12
2.31662e-12
2.31663e-12
2.31678e-12
2.31697e-12
2.31715e-12
2.32762e-12
2.31883e-12
2.3169e-12
2.31667e-12
2.31679e-12
2.31698e-12
2.31716e-12
2.33548e-12
2.32066e-12
2.31725e-12
2.31672e-12
2.3168e-12
2.31698e-12
2.31718e-12
2.3438e-12
2.32246e-12
2.31756e-12
2.31675e-12
2.31679e-12
2.31698e-12
2.31717e-12
2.35123e-12
2.32381e-12
2.31774e-12
2.31674e-12
2.31676e-12
2.31696e-12
2.31715e-12
2.35823e-12
2.32493e-12
2.31787e-12
2.31675e-12
2.31675e-12
2.31694e-12
2.31713e-12
2.36512e-12
2.3259e-12
2.31794e-12
2.31674e-12
2.31673e-12
2.31692e-12
2.31709e-12
2.37146e-12
2.32674e-12
2.31804e-12
2.31676e-12
2.31674e-12
2.3169e-12
2.31706e-12
2.37726e-12
2.3275e-12
2.31814e-12
2.3168e-12
2.31678e-12
2.31694e-12
2.3171e-12
2.38157e-12
2.32815e-12
2.31835e-12
2.31701e-12
2.31708e-12
2.31733e-12
2.31755e-12
2.38622e-12
2.32957e-12
2.31917e-12
2.31802e-12
2.31861e-12
2.31944e-12
2.32005e-12
2.40109e-12
2.33565e-12
2.32286e-12
2.32261e-12
2.32562e-12
2.32914e-12
2.3316e-12
2.46685e-12
2.36035e-12
2.33775e-12
2.34136e-12
2.35428e-12
2.36882e-12
2.37888e-12
2.31422e-12
2.31447e-12
2.31487e-12
2.31522e-12
2.31551e-12
2.31577e-12
2.316e-12
2.3162e-12
2.31637e-12
2.31651e-12
2.31664e-12
2.31671e-12
2.31676e-12
2.31673e-12
2.31472e-12
2.31474e-12
2.31504e-12
2.31536e-12
2.31566e-12
2.31593e-12
2.31617e-12
2.31639e-12
2.31658e-12
2.31676e-12
2.31693e-12
2.31704e-12
2.31712e-12
2.31719e-12
2.3155e-12
2.31506e-12
2.31523e-12
2.31553e-12
2.31583e-12
2.31612e-12
2.31638e-12
2.31661e-12
2.31683e-12
2.31702e-12
2.3172e-12
2.31733e-12
2.31745e-12
2.31756e-12
2.31644e-12
2.31537e-12
2.31539e-12
2.31567e-12
2.31599e-12
2.31629e-12
2.31657e-12
2.31681e-12
2.31703e-12
2.31723e-12
2.31741e-12
2.31755e-12
2.31768e-12
2.31781e-12
2.3174e-12
2.31567e-12
2.31555e-12
2.31582e-12
2.31614e-12
2.31645e-12
2.31673e-12
2.31698e-12
2.31721e-12
2.3174e-12
2.31758e-12
2.31771e-12
2.31785e-12
2.31797e-12
2.31824e-12
2.31593e-12
2.3157e-12
2.31595e-12
2.31627e-12
2.31658e-12
2.31686e-12
2.31711e-12
2.31733e-12
2.31753e-12
2.31771e-12
2.31785e-12
2.31797e-12
2.31809e-12
2.31904e-12
2.31619e-12
2.31585e-12
2.31609e-12
2.31639e-12
2.31669e-12
2.31696e-12
2.3172e-12
2.31741e-12
2.31761e-12
2.31778e-12
2.31793e-12
2.31804e-12
2.31817e-12
2.3198e-12
2.31641e-12
2.31598e-12
2.3162e-12
2.31648e-12
2.31677e-12
2.31702e-12
2.31726e-12
2.31746e-12
2.31765e-12
2.31781e-12
2.31797e-12
2.31807e-12
2.31823e-12
2.3205e-12
2.31662e-12
2.31611e-12
2.3163e-12
2.31656e-12
2.31683e-12
2.31706e-12
2.31728e-12
2.31747e-12
2.31765e-12
2.31781e-12
2.31797e-12
2.31809e-12
2.31824e-12
2.32113e-12
2.31679e-12
2.31622e-12
2.31638e-12
2.31661e-12
2.31686e-12
2.31707e-12
2.31727e-12
2.31744e-12
2.31761e-12
2.31776e-12
2.31794e-12
2.31805e-12
2.31821e-12
2.32157e-12
2.31694e-12
2.31632e-12
2.31645e-12
2.31667e-12
2.31688e-12
2.31707e-12
2.31724e-12
2.31739e-12
2.31755e-12
2.3177e-12
2.31788e-12
2.31798e-12
2.31816e-12
2.32192e-12
2.31709e-12
2.31642e-12
2.31653e-12
2.31675e-12
2.31698e-12
2.31718e-12
2.31734e-12
2.31748e-12
2.31761e-12
2.31773e-12
2.31787e-12
2.31793e-12
2.31808e-12
2.32284e-12
2.31748e-12
2.31669e-12
2.31684e-12
2.31723e-12
2.31763e-12
2.31794e-12
2.31812e-12
2.31821e-12
2.31826e-12
2.31827e-12
2.3183e-12
2.31822e-12
2.31828e-12
2.32746e-12
2.31921e-12
2.31776e-12
2.31823e-12
2.31943e-12
2.32069e-12
2.32156e-12
2.32193e-12
2.32191e-12
2.32165e-12
2.32124e-12
2.32082e-12
2.32034e-12
2.32019e-12
2.31124e-12
2.31179e-12
2.31227e-12
2.31266e-12
2.313e-12
2.31331e-12
2.31358e-12
2.31383e-12
2.31404e-12
2.31424e-12
2.31441e-12
2.31455e-12
2.31465e-12
2.31466e-12
2.31165e-12
2.31211e-12
2.31256e-12
2.31295e-12
2.3133e-12
2.31362e-12
2.31392e-12
2.31419e-12
2.31443e-12
2.31465e-12
2.31486e-12
2.31502e-12
2.31514e-12
2.31526e-12
2.31209e-12
2.31247e-12
2.31288e-12
2.31326e-12
2.31362e-12
2.31396e-12
2.31427e-12
2.31456e-12
2.31482e-12
2.31505e-12
2.31528e-12
2.31545e-12
2.31561e-12
2.31575e-12
2.31246e-12
2.31276e-12
2.31316e-12
2.31355e-12
2.31393e-12
2.31428e-12
2.3146e-12
2.3149e-12
2.31516e-12
2.31541e-12
2.31563e-12
2.31581e-12
2.31599e-12
2.31615e-12
2.31281e-12
2.31306e-12
2.31344e-12
2.31384e-12
2.31422e-12
2.31458e-12
2.31491e-12
2.31521e-12
2.31549e-12
2.31573e-12
2.31596e-12
2.31613e-12
2.31631e-12
2.31646e-12
2.31315e-12
2.31335e-12
2.31372e-12
2.31411e-12
2.31449e-12
2.31485e-12
2.31518e-12
2.31549e-12
2.31576e-12
2.31601e-12
2.31624e-12
2.31643e-12
2.3166e-12
2.31675e-12
2.31349e-12
2.31365e-12
2.31399e-12
2.31438e-12
2.31475e-12
2.3151e-12
2.31542e-12
2.31572e-12
2.31599e-12
2.31624e-12
2.31647e-12
2.31668e-12
2.31685e-12
2.31701e-12
2.31381e-12
2.31391e-12
2.31423e-12
2.31461e-12
2.31496e-12
2.3153e-12
2.31562e-12
2.31591e-12
2.31618e-12
2.31643e-12
2.31666e-12
2.31688e-12
2.31704e-12
2.31724e-12
2.31412e-12
2.31416e-12
2.31445e-12
2.31482e-12
2.31515e-12
2.31547e-12
2.31577e-12
2.31605e-12
2.31631e-12
2.31656e-12
2.31678e-12
2.31702e-12
2.3172e-12
2.31741e-12
2.31441e-12
2.31437e-12
2.31463e-12
2.31497e-12
2.31528e-12
2.31559e-12
2.31587e-12
2.31614e-12
2.31639e-12
2.31664e-12
2.31687e-12
2.31712e-12
2.31731e-12
2.31755e-12
2.31466e-12
2.31455e-12
2.31479e-12
2.31509e-12
2.31538e-12
2.31566e-12
2.31592e-12
2.31617e-12
2.31641e-12
2.31666e-12
2.3169e-12
2.31718e-12
2.31738e-12
2.31764e-12
2.31481e-12
2.31467e-12
2.31488e-12
2.31515e-12
2.31541e-12
2.31567e-12
2.31593e-12
2.31617e-12
2.31641e-12
2.31666e-12
2.31691e-12
2.3172e-12
2.31738e-12
2.31762e-12
2.31491e-12
2.31472e-12
2.31494e-12
2.31519e-12
2.31544e-12
2.31569e-12
2.31592e-12
2.31615e-12
2.31639e-12
2.31662e-12
2.31687e-12
2.31712e-12
2.31724e-12
2.31741e-12
2.31517e-12
2.3148e-12
2.31499e-12
2.31524e-12
2.31554e-12
2.31583e-12
2.31611e-12
2.31634e-12
2.31656e-12
2.31676e-12
2.31694e-12
2.31708e-12
2.31714e-12
2.31726e-12
2.3076e-12
2.30808e-12
2.30852e-12
2.30892e-12
2.30927e-12
2.3096e-12
2.30991e-12
2.3102e-12
2.31047e-12
2.31073e-12
2.31098e-12
2.3112e-12
2.31139e-12
2.31148e-12
2.3081e-12
2.30851e-12
2.30894e-12
2.30931e-12
2.30968e-12
2.31002e-12
2.31034e-12
2.31065e-12
2.31094e-12
2.31122e-12
2.3115e-12
2.31174e-12
2.31195e-12
2.31215e-12
2.30862e-12
2.30898e-12
2.30938e-12
2.30975e-12
2.31011e-12
2.31046e-12
2.31079e-12
2.31111e-12
2.31141e-12
2.3117e-12
2.31198e-12
2.31223e-12
2.31247e-12
2.3127e-12
2.30905e-12
2.30939e-12
2.30979e-12
2.31016e-12
2.31053e-12
2.31088e-12
2.31122e-12
2.31154e-12
2.31185e-12
2.31215e-12
2.31244e-12
2.31269e-12
2.31294e-12
2.31319e-12
2.30946e-12
2.30981e-12
2.31019e-12
2.31057e-12
2.31094e-12
2.31129e-12
2.31164e-12
2.31197e-12
2.31228e-12
2.31258e-12
2.31287e-12
2.31313e-12
2.31339e-12
2.31362e-12
2.30986e-12
2.31022e-12
2.31059e-12
2.31096e-12
2.31132e-12
2.31168e-12
2.31203e-12
2.31236e-12
2.31268e-12
2.31299e-12
2.31329e-12
2.31356e-12
2.31382e-12
2.31405e-12
2.31026e-12
2.31062e-12
2.31097e-12
2.31133e-12
2.31169e-12
2.31205e-12
2.31239e-12
2.31273e-12
2.31305e-12
2.31337e-12
2.31368e-12
2.31396e-12
2.31423e-12
2.31447e-12
2.31065e-12
2.31099e-12
2.31132e-12
2.31168e-12
2.31203e-12
2.31238e-12
2.31273e-12
2.31307e-12
2.3134e-12
2.31372e-12
2.31404e-12
2.31434e-12
2.31461e-12
2.31488e-12
2.31101e-12
2.31133e-12
2.31165e-12
2.31201e-12
2.31234e-12
2.31269e-12
2.31303e-12
2.31337e-12
2.3137e-12
2.31403e-12
2.31436e-12
2.31468e-12
2.31497e-12
2.31526e-12
2.31136e-12
2.31165e-12
2.31195e-12
2.31229e-12
2.31262e-12
2.31295e-12
2.31329e-12
2.31363e-12
2.31397e-12
2.31431e-12
2.31465e-12
2.315e-12
2.3153e-12
2.31562e-12
2.31168e-12
2.31194e-12
2.31222e-12
2.31254e-12
2.31286e-12
2.31319e-12
2.31352e-12
2.31386e-12
2.31421e-12
2.31456e-12
2.31491e-12
2.31529e-12
2.31562e-12
2.31597e-12
2.31194e-12
2.31217e-12
2.31245e-12
2.31275e-12
2.31306e-12
2.31338e-12
2.31371e-12
2.31406e-12
2.31441e-12
2.31478e-12
2.31515e-12
2.31555e-12
2.31588e-12
2.31623e-12
2.3121e-12
2.31233e-12
2.31262e-12
2.31292e-12
2.31322e-12
2.31354e-12
2.31387e-12
2.31422e-12
2.31458e-12
2.31496e-12
2.31535e-12
2.31574e-12
2.31604e-12
2.31636e-12
2.31217e-12
2.3124e-12
2.31272e-12
2.31302e-12
2.31334e-12
2.31367e-12
2.31402e-12
2.31438e-12
2.31476e-12
2.31514e-12
2.31551e-12
2.31586e-12
2.31611e-12
2.31639e-12
2.30366e-12
2.30398e-12
2.30431e-12
2.30463e-12
2.30495e-12
2.30527e-12
2.3056e-12
2.30593e-12
2.30626e-12
2.30658e-12
2.3069e-12
2.3072e-12
2.30746e-12
2.30767e-12
2.30428e-12
2.30452e-12
2.30484e-12
2.30513e-12
2.30543e-12
2.30575e-12
2.30608e-12
2.30642e-12
2.30676e-12
2.3071e-12
2.30744e-12
2.30776e-12
2.30803e-12
2.30833e-12
2.30486e-12
2.30508e-12
2.30537e-12
2.30565e-12
2.30595e-12
2.30626e-12
2.30659e-12
2.30693e-12
2.30727e-12
2.30761e-12
2.30795e-12
2.30827e-12
2.30857e-12
2.30888e-12
2.30539e-12
2.30559e-12
2.30588e-12
2.30615e-12
2.30645e-12
2.30676e-12
2.3071e-12
2.30744e-12
2.30778e-12
2.30812e-12
2.30846e-12
2.30879e-12
2.3091e-12
2.30943e-12
2.30588e-12
2.3061e-12
2.30638e-12
2.30666e-12
2.30696e-12
2.30727e-12
2.30761e-12
2.30795e-12
2.30829e-12
2.30864e-12
2.30898e-12
2.30931e-12
2.30963e-12
2.30995e-12
2.30639e-12
2.30662e-12
2.30689e-12
2.30716e-12
2.30746e-12
2.30778e-12
2.30812e-12
2.30846e-12
2.30881e-12
2.30917e-12
2.30952e-12
2.30985e-12
2.31018e-12
2.31049e-12
2.30689e-12
2.30713e-12
2.30739e-12
2.30767e-12
2.30796e-12
2.30829e-12
2.30862e-12
2.30897e-12
2.30933e-12
2.30969e-12
2.31005e-12
2.3104e-12
2.31073e-12
2.31105e-12
2.30738e-12
2.30762e-12
2.30787e-12
2.30816e-12
2.30846e-12
2.30879e-12
2.30913e-12
2.30949e-12
2.30985e-12
2.31022e-12
2.31059e-12
2.31095e-12
2.31129e-12
2.31162e-12
2.30784e-12
2.30809e-12
2.30834e-12
2.30864e-12
2.30894e-12
2.30928e-12
2.30963e-12
2.31e-12
2.31037e-12
2.31075e-12
2.31112e-12
2.3115e-12
2.31185e-12
2.3122e-12
2.30832e-12
2.30855e-12
2.30881e-12
2.30911e-12
2.30942e-12
2.30977e-12
2.31012e-12
2.3105e-12
2.31088e-12
2.31127e-12
2.31166e-12
2.31205e-12
2.31243e-12
2.31278e-12
2.30877e-12
2.309e-12
2.30926e-12
2.30956e-12
2.30989e-12
2.31024e-12
2.31061e-12
2.31099e-12
2.31139e-12
2.31179e-12
2.3122e-12
2.31262e-12
2.31302e-12
2.31339e-12
2.30919e-12
2.30942e-12
2.30969e-12
2.31e-12
2.31034e-12
2.3107e-12
2.31108e-12
2.31147e-12
2.31188e-12
2.31229e-12
2.31272e-12
2.31316e-12
2.31357e-12
2.31395e-12
2.30951e-12
2.30977e-12
2.31008e-12
2.3104e-12
2.31075e-12
2.31112e-12
2.31152e-12
2.31193e-12
2.31236e-12
2.3128e-12
2.31324e-12
2.31369e-12
2.31406e-12
2.31441e-12
2.30976e-12
2.31005e-12
2.31042e-12
2.31077e-12
2.31115e-12
2.31153e-12
2.31195e-12
2.31238e-12
2.31282e-12
2.31326e-12
2.31369e-12
2.3141e-12
2.31444e-12
2.31478e-12
2.3007e-12
2.30077e-12
2.30095e-12
2.30114e-12
2.30136e-12
2.30161e-12
2.30188e-12
2.30218e-12
2.30249e-12
2.30281e-12
2.30313e-12
2.30345e-12
2.30372e-12
2.30398e-12
2.30136e-12
2.30137e-12
2.30153e-12
2.30168e-12
2.30189e-12
2.30213e-12
2.3024e-12
2.30269e-12
2.30301e-12
2.30334e-12
2.30366e-12
2.30399e-12
2.30427e-12
2.30459e-12
2.30195e-12
2.30195e-12
2.30209e-12
2.30225e-12
2.30245e-12
2.30268e-12
2.30295e-12
2.30324e-12
2.30354e-12
2.30386e-12
2.30418e-12
2.30451e-12
2.3048e-12
2.30512e-12
2.30251e-12
2.30252e-12
2.30266e-12
2.30282e-12
2.30302e-12
2.30325e-12
2.30352e-12
2.30381e-12
2.30411e-12
2.30442e-12
2.30474e-12
2.30506e-12
2.30536e-12
2.3057e-12
2.30304e-12
2.30309e-12
2.30323e-12
2.3034e-12
2.3036e-12
2.30384e-12
2.30411e-12
2.30439e-12
2.30469e-12
2.30501e-12
2.30532e-12
2.30564e-12
2.30594e-12
2.30627e-12
2.30359e-12
2.30369e-12
2.30382e-12
2.304e-12
2.30421e-12
2.30445e-12
2.30472e-12
2.30501e-12
2.30531e-12
2.30562e-12
2.30594e-12
2.30626e-12
2.30657e-12
2.30688e-12
2.30414e-12
2.30427e-12
2.30441e-12
2.3046e-12
2.30482e-12
2.30507e-12
2.30534e-12
2.30563e-12
2.30594e-12
2.30626e-12
2.30658e-12
2.3069e-12
2.30721e-12
2.30752e-12
2.30471e-12
2.30486e-12
2.30502e-12
2.30522e-12
2.30545e-12
2.30571e-12
2.30598e-12
2.30628e-12
2.30659e-12
2.30692e-12
2.30725e-12
2.30757e-12
2.30789e-12
2.3082e-12
2.30527e-12
2.30543e-12
2.30561e-12
2.30584e-12
2.30608e-12
2.30635e-12
2.30664e-12
2.30694e-12
2.30726e-12
2.30759e-12
2.30792e-12
2.30825e-12
2.30858e-12
2.30889e-12
2.30584e-12
2.30602e-12
2.30621e-12
2.30646e-12
2.30671e-12
2.307e-12
2.3073e-12
2.30761e-12
2.30794e-12
2.30827e-12
2.30862e-12
2.30896e-12
2.3093e-12
2.3096e-12
2.3064e-12
2.30659e-12
2.3068e-12
2.30706e-12
2.30734e-12
2.30764e-12
2.30796e-12
2.30829e-12
2.30863e-12
2.30897e-12
2.30933e-12
2.30968e-12
2.31004e-12
2.31034e-12
2.30695e-12
2.30715e-12
2.30739e-12
2.30767e-12
2.30797e-12
2.30828e-12
2.30862e-12
2.30896e-12
2.30931e-12
2.30967e-12
2.31003e-12
2.3104e-12
2.31077e-12
2.31108e-12
2.30741e-12
2.30765e-12
2.30794e-12
2.30824e-12
2.30857e-12
2.3089e-12
2.30926e-12
2.30962e-12
2.30999e-12
2.31037e-12
2.31075e-12
2.31113e-12
2.31148e-12
2.31176e-12
2.30783e-12
2.30813e-12
2.30848e-12
2.30881e-12
2.30917e-12
2.30952e-12
2.3099e-12
2.31027e-12
2.31065e-12
2.31103e-12
2.31141e-12
2.31176e-12
2.31208e-12
2.31235e-12
2.29935e-12
2.29932e-12
2.29934e-12
2.2994e-12
2.29949e-12
2.29961e-12
2.29975e-12
2.29993e-12
2.30011e-12
2.30033e-12
2.30055e-12
2.30078e-12
2.30099e-12
2.3012e-12
2.29996e-12
2.29986e-12
2.29989e-12
2.29992e-12
2.3e-12
2.30011e-12
2.30025e-12
2.30042e-12
2.30061e-12
2.30083e-12
2.30105e-12
2.30128e-12
2.30149e-12
2.30174e-12
2.30047e-12
2.30038e-12
2.30041e-12
2.30045e-12
2.30054e-12
2.30065e-12
2.30079e-12
2.30095e-12
2.30113e-12
2.30134e-12
2.30155e-12
2.30177e-12
2.30198e-12
2.30223e-12
2.30099e-12
2.30092e-12
2.30095e-12
2.30101e-12
2.30109e-12
2.3012e-12
2.30134e-12
2.3015e-12
2.30169e-12
2.30188e-12
2.30209e-12
2.30231e-12
2.30252e-12
2.30277e-12
2.30149e-12
2.30146e-12
2.3015e-12
2.30156e-12
2.30166e-12
2.30178e-12
2.30192e-12
2.30208e-12
2.30226e-12
2.30246e-12
2.30266e-12
2.30287e-12
2.30308e-12
2.30332e-12
2.30202e-12
2.30203e-12
2.30207e-12
2.30215e-12
2.30225e-12
2.30237e-12
2.30252e-12
2.30269e-12
2.30287e-12
2.30307e-12
2.30327e-12
2.30348e-12
2.30369e-12
2.30391e-12
2.30255e-12
2.30259e-12
2.30265e-12
2.30274e-12
2.30285e-12
2.30299e-12
2.30314e-12
2.30331e-12
2.3035e-12
2.3037e-12
2.3039e-12
2.30411e-12
2.30433e-12
2.30453e-12
2.30311e-12
2.30317e-12
2.30324e-12
2.30335e-12
2.30347e-12
2.30362e-12
2.30378e-12
2.30396e-12
2.30415e-12
2.30435e-12
2.30456e-12
2.30477e-12
2.30499e-12
2.30519e-12
2.30365e-12
2.30374e-12
2.30384e-12
2.30396e-12
2.3041e-12
2.30426e-12
2.30444e-12
2.30463e-12
2.30482e-12
2.30502e-12
2.30523e-12
2.30544e-12
2.30566e-12
2.30586e-12
2.30422e-12
2.30433e-12
2.30444e-12
2.30458e-12
2.30474e-12
2.30491e-12
2.3051e-12
2.3053e-12
2.30551e-12
2.30571e-12
2.30593e-12
2.30614e-12
2.30637e-12
2.30656e-12
2.30478e-12
2.3049e-12
2.30504e-12
2.3052e-12
2.30538e-12
2.30557e-12
2.30578e-12
2.30599e-12
2.3062e-12
2.30641e-12
2.30663e-12
2.30685e-12
2.3071e-12
2.30728e-12
2.30535e-12
2.3055e-12
2.30565e-12
2.30584e-12
2.30603e-12
2.30624e-12
2.30646e-12
2.30668e-12
2.30691e-12
2.30712e-12
2.30736e-12
2.30759e-12
2.30784e-12
2.30801e-12
2.30586e-12
2.30603e-12
2.30624e-12
2.30644e-12
2.30667e-12
2.3069e-12
2.30714e-12
2.30737e-12
2.30761e-12
2.30785e-12
2.30808e-12
2.30833e-12
2.30856e-12
2.30872e-12
2.30636e-12
2.30658e-12
2.30683e-12
2.30707e-12
2.30732e-12
2.30756e-12
2.30782e-12
2.30806e-12
2.30831e-12
2.30855e-12
2.30879e-12
2.30902e-12
2.30923e-12
2.30939e-12
2.29931e-12
2.29922e-12
2.29917e-12
2.29913e-12
2.29912e-12
2.29912e-12
2.29914e-12
2.29918e-12
2.29923e-12
2.29931e-12
2.2994e-12
2.2995e-12
2.2996e-12
2.29969e-12
2.29977e-12
2.29966e-12
2.29961e-12
2.29955e-12
2.29953e-12
2.29953e-12
2.29954e-12
2.29958e-12
2.29964e-12
2.29972e-12
2.2998e-12
2.29991e-12
2.29999e-12
2.30011e-12
2.30017e-12
2.30006e-12
2.30002e-12
2.29998e-12
2.29996e-12
2.29996e-12
2.29998e-12
2.30001e-12
2.30007e-12
2.30014e-12
2.30022e-12
2.30031e-12
2.30039e-12
2.30052e-12
2.3006e-12
2.30049e-12
2.30046e-12
2.30042e-12
2.30041e-12
2.30041e-12
2.30043e-12
2.30046e-12
2.30051e-12
2.30058e-12
2.30066e-12
2.30074e-12
2.30083e-12
2.30095e-12
2.301e-12
2.30092e-12
2.30089e-12
2.30087e-12
2.30086e-12
2.30087e-12
2.30089e-12
2.30093e-12
2.30098e-12
2.30105e-12
2.30112e-12
2.3012e-12
2.30128e-12
2.30139e-12
2.30143e-12
2.30138e-12
2.30135e-12
2.30134e-12
2.30134e-12
2.30135e-12
2.30138e-12
2.30142e-12
2.30147e-12
2.30153e-12
2.30161e-12
2.30168e-12
2.30176e-12
2.30185e-12
2.30186e-12
2.30183e-12
2.30182e-12
2.30182e-12
2.30183e-12
2.30185e-12
2.30188e-12
2.30192e-12
2.30198e-12
2.30204e-12
2.30211e-12
2.30218e-12
2.30226e-12
2.30234e-12
2.3023e-12
2.30229e-12
2.3023e-12
2.30231e-12
2.30232e-12
2.30235e-12
2.30239e-12
2.30244e-12
2.3025e-12
2.30256e-12
2.30264e-12
2.30271e-12
2.30279e-12
2.30285e-12
2.30274e-12
2.30276e-12
2.30278e-12
2.30281e-12
2.30284e-12
2.30288e-12
2.30293e-12
2.30298e-12
2.30304e-12
2.30311e-12
2.30318e-12
2.30326e-12
2.30334e-12
2.30338e-12
2.30321e-12
2.30325e-12
2.30328e-12
2.30332e-12
2.30337e-12
2.30342e-12
2.30347e-12
2.30353e-12
2.3036e-12
2.30367e-12
2.30376e-12
2.30383e-12
2.30392e-12
2.30395e-12
2.30368e-12
2.30374e-12
2.30378e-12
2.30384e-12
2.3039e-12
2.30397e-12
2.30404e-12
2.3041e-12
2.30418e-12
2.30426e-12
2.30434e-12
2.30442e-12
2.30451e-12
2.30453e-12
2.30417e-12
2.30425e-12
2.30431e-12
2.30438e-12
2.30445e-12
2.30453e-12
2.30461e-12
2.30468e-12
2.30477e-12
2.30485e-12
2.30494e-12
2.30503e-12
2.30512e-12
2.30513e-12
2.30465e-12
2.30473e-12
2.30482e-12
2.30491e-12
2.30501e-12
2.3051e-12
2.30519e-12
2.30527e-12
2.30536e-12
2.30546e-12
2.30555e-12
2.30563e-12
2.30572e-12
2.30572e-12
2.30513e-12
2.30523e-12
2.30536e-12
2.30547e-12
2.30558e-12
2.30568e-12
2.30578e-12
2.30587e-12
2.30597e-12
2.30606e-12
2.30615e-12
2.30623e-12
2.3063e-12
2.30632e-12
2.29987e-12
2.29976e-12
2.29967e-12
2.29959e-12
2.29951e-12
2.29944e-12
2.29938e-12
2.29932e-12
2.29928e-12
2.29925e-12
2.29923e-12
2.29921e-12
2.29919e-12
2.2992e-12
2.3002e-12
2.30007e-12
2.29999e-12
2.29988e-12
2.2998e-12
2.29972e-12
2.29966e-12
2.2996e-12
2.29956e-12
2.29953e-12
2.2995e-12
2.29948e-12
2.29945e-12
2.29949e-12
2.30048e-12
2.30035e-12
2.30026e-12
2.30017e-12
2.30009e-12
2.30002e-12
2.29996e-12
2.2999e-12
2.29985e-12
2.29981e-12
2.29978e-12
2.29976e-12
2.29973e-12
2.29976e-12
2.30077e-12
2.30064e-12
2.30056e-12
2.30047e-12
2.30039e-12
2.30032e-12
2.30026e-12
2.3002e-12
2.30015e-12
2.30011e-12
2.30007e-12
2.30005e-12
2.30001e-12
2.30004e-12
2.30103e-12
2.30093e-12
2.30086e-12
2.30077e-12
2.3007e-12
2.30063e-12
2.30057e-12
2.30052e-12
2.30047e-12
2.30043e-12
2.30039e-12
2.30035e-12
2.30032e-12
2.30032e-12
2.30133e-12
2.30124e-12
2.30117e-12
2.30109e-12
2.30102e-12
2.30096e-12
2.3009e-12
2.30084e-12
2.3008e-12
2.30075e-12
2.30071e-12
2.30067e-12
2.30063e-12
2.30061e-12
2.30162e-12
2.30155e-12
2.30149e-12
2.30142e-12
2.30136e-12
2.30129e-12
2.30124e-12
2.30119e-12
2.30114e-12
2.30109e-12
2.30105e-12
2.30101e-12
2.30097e-12
2.30093e-12
2.30193e-12
2.30187e-12
2.30182e-12
2.30176e-12
2.3017e-12
2.30164e-12
2.30159e-12
2.30154e-12
2.30149e-12
2.30144e-12
2.3014e-12
2.30135e-12
2.30131e-12
2.30126e-12
2.30224e-12
2.3022e-12
2.30216e-12
2.30211e-12
2.30205e-12
2.302e-12
2.30195e-12
2.3019e-12
2.30186e-12
2.30181e-12
2.30176e-12
2.30171e-12
2.30167e-12
2.30161e-12
2.30258e-12
2.30255e-12
2.30251e-12
2.30247e-12
2.30242e-12
2.30238e-12
2.30233e-12
2.30228e-12
2.30223e-12
2.30218e-12
2.30214e-12
2.30208e-12
2.30205e-12
2.30198e-12
2.30292e-12
2.30291e-12
2.30288e-12
2.30285e-12
2.30281e-12
2.30276e-12
2.30272e-12
2.30267e-12
2.30263e-12
2.30258e-12
2.30253e-12
2.30247e-12
2.30244e-12
2.30238e-12
2.30328e-12
2.30329e-12
2.30326e-12
2.30323e-12
2.3032e-12
2.30316e-12
2.30312e-12
2.30308e-12
2.30304e-12
2.30299e-12
2.30294e-12
2.30288e-12
2.30286e-12
2.30279e-12
2.30364e-12
2.30366e-12
2.30364e-12
2.30363e-12
2.3036e-12
2.30357e-12
2.30353e-12
2.30349e-12
2.30345e-12
2.3034e-12
2.30335e-12
2.30329e-12
2.30326e-12
2.30318e-12
2.30404e-12
2.30403e-12
2.30403e-12
2.30403e-12
2.30401e-12
2.30399e-12
2.30396e-12
2.30392e-12
2.30388e-12
2.30383e-12
2.30377e-12
2.30371e-12
2.30367e-12
2.30361e-12
2.30059e-12
2.30046e-12
2.30036e-12
2.30025e-12
2.30014e-12
2.30002e-12
2.29991e-12
2.2998e-12
2.2997e-12
2.2996e-12
2.29951e-12
2.29942e-12
2.29932e-12
2.29921e-12
2.30079e-12
2.30066e-12
2.30055e-12
2.30042e-12
2.30031e-12
2.30019e-12
2.30007e-12
2.29996e-12
2.29985e-12
2.29975e-12
2.29965e-12
2.29956e-12
2.29945e-12
2.29937e-12
2.30094e-12
2.30081e-12
2.30071e-12
2.30058e-12
2.30047e-12
2.30035e-12
2.30024e-12
2.30013e-12
2.30002e-12
2.29991e-12
2.29981e-12
2.29971e-12
2.2996e-12
2.29952e-12
2.3011e-12
2.30097e-12
2.30087e-12
2.30075e-12
2.30064e-12
2.30052e-12
2.30041e-12
2.30029e-12
2.30019e-12
2.30007e-12
2.29997e-12
2.29986e-12
2.29975e-12
2.29967e-12
2.30125e-12
2.30113e-12
2.30103e-12
2.30092e-12
2.30081e-12
2.30069e-12
2.30058e-12
2.30047e-12
2.30036e-12
2.30024e-12
2.30013e-12
2.30002e-12
2.29991e-12
2.29981e-12
2.30141e-12
2.3013e-12
2.30121e-12
2.30109e-12
2.30099e-12
2.30087e-12
2.30076e-12
2.30064e-12
2.30053e-12
2.30041e-12
2.3003e-12
2.30019e-12
2.30007e-12
2.29996e-12
2.30158e-12
2.30148e-12
2.30139e-12
2.30128e-12
2.30117e-12
2.30106e-12
2.30094e-12
2.30083e-12
2.30071e-12
2.30059e-12
2.30048e-12
2.30035e-12
2.30023e-12
2.30011e-12
2.30176e-12
2.30167e-12
2.30158e-12
2.30148e-12
2.30137e-12
2.30125e-12
2.30114e-12
2.30102e-12
2.3009e-12
2.30077e-12
2.30066e-12
2.30053e-12
2.30041e-12
2.30028e-12
2.30195e-12
2.30187e-12
2.30178e-12
2.30168e-12
2.30157e-12
2.30145e-12
2.30133e-12
2.30122e-12
2.30109e-12
2.30097e-12
2.30085e-12
2.30071e-12
2.30059e-12
2.30044e-12
2.30215e-12
2.30208e-12
2.30198e-12
2.30189e-12
2.30178e-12
2.30166e-12
2.30154e-12
2.30142e-12
2.30129e-12
2.30116e-12
2.30104e-12
2.3009e-12
2.30077e-12
2.30063e-12
2.30235e-12
2.30228e-12
2.30219e-12
2.30209e-12
2.30198e-12
2.30187e-12
2.30175e-12
2.30163e-12
2.3015e-12
2.30137e-12
2.30124e-12
2.30109e-12
2.30096e-12
2.3008e-12
2.30256e-12
2.3025e-12
2.30241e-12
2.30231e-12
2.3022e-12
2.30209e-12
2.30196e-12
2.30184e-12
2.3017e-12
2.30157e-12
2.30143e-12
2.30128e-12
2.30115e-12
2.30098e-12
2.30277e-12
2.30271e-12
2.30263e-12
2.30254e-12
2.30242e-12
2.30231e-12
2.30218e-12
2.30205e-12
2.30191e-12
2.30177e-12
2.30162e-12
2.30147e-12
2.30132e-12
2.30115e-12
2.303e-12
2.30293e-12
2.30285e-12
2.30275e-12
2.30265e-12
2.30253e-12
2.30241e-12
2.30227e-12
2.30214e-12
2.30199e-12
2.30184e-12
2.30167e-12
2.30152e-12
2.30135e-12
2.30123e-12
2.3011e-12
2.30098e-12
2.30086e-12
2.30072e-12
2.30058e-12
2.30044e-12
2.30029e-12
2.30014e-12
2.29999e-12
2.29985e-12
2.2997e-12
2.29955e-12
2.29939e-12
2.3013e-12
2.30117e-12
2.30105e-12
2.30091e-12
2.30078e-12
2.30063e-12
2.30049e-12
2.30034e-12
2.30019e-12
2.30004e-12
2.29989e-12
2.29974e-12
2.29959e-12
2.29944e-12
2.30134e-12
2.30121e-12
2.3011e-12
2.30096e-12
2.30083e-12
2.30068e-12
2.30054e-12
2.30039e-12
2.30024e-12
2.30009e-12
2.29994e-12
2.29979e-12
2.29964e-12
2.29949e-12
2.3014e-12
2.30127e-12
2.30115e-12
2.30101e-12
2.30088e-12
2.30074e-12
2.30059e-12
2.30044e-12
2.3003e-12
2.30014e-12
2.29999e-12
2.29983e-12
2.29968e-12
2.29953e-12
2.30143e-12
2.30132e-12
2.3012e-12
2.30107e-12
2.30094e-12
2.30079e-12
2.30065e-12
2.3005e-12
2.30034e-12
2.30018e-12
2.30003e-12
2.29987e-12
2.29971e-12
2.29955e-12
2.30148e-12
2.30137e-12
2.30126e-12
2.30112e-12
2.30099e-12
2.30084e-12
2.3007e-12
2.30054e-12
2.30039e-12
2.30022e-12
2.30006e-12
2.2999e-12
2.29973e-12
2.29956e-12
2.30153e-12
2.30142e-12
2.30131e-12
2.30118e-12
2.30104e-12
2.30089e-12
2.30074e-12
2.30059e-12
2.30043e-12
2.30026e-12
2.3001e-12
2.29992e-12
2.29975e-12
2.29957e-12
2.30159e-12
2.30148e-12
2.30136e-12
2.30123e-12
2.30109e-12
2.30094e-12
2.30078e-12
2.30062e-12
2.30046e-12
2.30029e-12
2.30012e-12
2.29995e-12
2.29977e-12
2.29959e-12
2.30164e-12
2.30154e-12
2.30142e-12
2.30128e-12
2.30114e-12
2.30099e-12
2.30083e-12
2.30066e-12
2.30049e-12
2.30032e-12
2.30014e-12
2.29996e-12
2.29978e-12
2.2996e-12
2.3017e-12
2.3016e-12
2.30147e-12
2.30133e-12
2.30118e-12
2.30103e-12
2.30086e-12
2.3007e-12
2.30052e-12
2.30034e-12
2.30016e-12
2.29998e-12
2.29979e-12
2.29961e-12
2.30177e-12
2.30166e-12
2.30152e-12
2.30138e-12
2.30123e-12
2.30107e-12
2.3009e-12
2.30073e-12
2.30055e-12
2.30036e-12
2.30018e-12
2.29999e-12
2.2998e-12
2.29961e-12
2.30182e-12
2.30171e-12
2.30158e-12
2.30143e-12
2.30127e-12
2.30111e-12
2.30093e-12
2.30076e-12
2.30057e-12
2.30038e-12
2.30019e-12
2.29999e-12
2.2998e-12
2.2996e-12
2.30187e-12
2.30176e-12
2.30162e-12
2.30147e-12
2.30131e-12
2.30114e-12
2.30096e-12
2.30078e-12
2.30059e-12
2.3004e-12
2.3002e-12
2.29999e-12
2.29979e-12
2.29957e-12
2.30191e-12
2.3018e-12
2.30166e-12
2.30151e-12
2.30135e-12
2.30118e-12
2.301e-12
2.30081e-12
2.30062e-12
2.30042e-12
2.30022e-12
2.30001e-12
2.2998e-12
2.29958e-12
2.30154e-12
2.30142e-12
2.3013e-12
2.30117e-12
2.30102e-12
2.30087e-12
2.3007e-12
2.30053e-12
2.30036e-12
2.30017e-12
2.3e-12
2.29981e-12
2.29962e-12
2.2994e-12
2.30152e-12
2.30139e-12
2.30128e-12
2.30113e-12
2.30098e-12
2.30082e-12
2.30066e-12
2.30048e-12
2.30031e-12
2.30012e-12
2.29995e-12
2.29975e-12
2.29957e-12
2.29937e-12
2.30146e-12
2.30133e-12
2.30122e-12
2.30107e-12
2.30092e-12
2.30077e-12
2.30061e-12
2.30043e-12
2.30026e-12
2.30007e-12
2.29989e-12
2.2997e-12
2.29952e-12
2.29932e-12
2.3014e-12
2.30128e-12
2.30115e-12
2.30101e-12
2.30086e-12
2.3007e-12
2.30054e-12
2.30037e-12
2.30019e-12
2.30001e-12
2.29983e-12
2.29963e-12
2.29945e-12
2.29926e-12
2.30132e-12
2.30121e-12
2.30109e-12
2.30094e-12
2.3008e-12
2.30064e-12
2.30047e-12
2.3003e-12
2.30012e-12
2.29993e-12
2.29975e-12
2.29955e-12
2.29936e-12
2.29917e-12
2.30125e-12
2.30114e-12
2.30101e-12
2.30087e-12
2.30072e-12
2.30056e-12
2.30039e-12
2.30022e-12
2.30004e-12
2.29985e-12
2.29966e-12
2.29946e-12
2.29927e-12
2.29907e-12
2.30119e-12
2.30107e-12
2.30094e-12
2.3008e-12
2.30064e-12
2.30048e-12
2.30031e-12
2.30013e-12
2.29994e-12
2.29975e-12
2.29956e-12
2.29936e-12
2.29916e-12
2.29896e-12
2.30111e-12
2.30099e-12
2.30086e-12
2.30071e-12
2.30055e-12
2.30039e-12
2.30021e-12
2.30003e-12
2.29984e-12
2.29965e-12
2.29945e-12
2.29925e-12
2.29905e-12
2.29884e-12
2.30104e-12
2.30092e-12
2.30078e-12
2.30063e-12
2.30046e-12
2.30029e-12
2.30011e-12
2.29992e-12
2.29973e-12
2.29953e-12
2.29933e-12
2.29913e-12
2.29892e-12
2.29872e-12
2.30096e-12
2.30083e-12
2.30068e-12
2.30053e-12
2.30036e-12
2.30018e-12
2.29999e-12
2.29981e-12
2.29961e-12
2.29941e-12
2.29921e-12
2.299e-12
2.29879e-12
2.29859e-12
2.30089e-12
2.30075e-12
2.30059e-12
2.30043e-12
2.30025e-12
2.30007e-12
2.29988e-12
2.29968e-12
2.29948e-12
2.29927e-12
2.29907e-12
2.29886e-12
2.29864e-12
2.29845e-12
2.30079e-12
2.30065e-12
2.30049e-12
2.30032e-12
2.30014e-12
2.29995e-12
2.29975e-12
2.29955e-12
2.29935e-12
2.29914e-12
2.29893e-12
2.29872e-12
2.2985e-12
2.2983e-12
2.30069e-12
2.30053e-12
2.30038e-12
2.3002e-12
2.30002e-12
2.29983e-12
2.29962e-12
2.29942e-12
2.2992e-12
2.29899e-12
2.29877e-12
2.29856e-12
2.29833e-12
2.29813e-12
2.30058e-12
2.30042e-12
2.30026e-12
2.30008e-12
2.29989e-12
2.29969e-12
2.29949e-12
2.29928e-12
2.29907e-12
2.29886e-12
2.29864e-12
2.29842e-12
2.29819e-12
2.29798e-12
2.30121e-12
2.3011e-12
2.30098e-12
2.30085e-12
2.30071e-12
2.30055e-12
2.30039e-12
2.30021e-12
2.30002e-12
2.29983e-12
2.29964e-12
2.29943e-12
2.29923e-12
2.299e-12
2.30107e-12
2.30096e-12
2.30085e-12
2.30071e-12
2.30056e-12
2.3004e-12
2.30023e-12
2.30006e-12
2.29987e-12
2.29968e-12
2.29949e-12
2.29928e-12
2.29908e-12
2.29887e-12
2.30091e-12
2.3008e-12
2.30068e-12
2.30054e-12
2.3004e-12
2.30024e-12
2.30008e-12
2.2999e-12
2.29972e-12
2.29953e-12
2.29933e-12
2.29913e-12
2.29893e-12
2.29873e-12
2.30074e-12
2.30063e-12
2.30051e-12
2.30037e-12
2.30023e-12
2.30007e-12
2.29991e-12
2.29973e-12
2.29955e-12
2.29935e-12
2.29916e-12
2.29896e-12
2.29876e-12
2.29856e-12
2.30056e-12
2.30046e-12
2.30033e-12
2.3002e-12
2.30005e-12
2.29989e-12
2.29973e-12
2.29955e-12
2.29937e-12
2.29917e-12
2.29898e-12
2.29878e-12
2.29858e-12
2.29838e-12
2.30039e-12
2.30028e-12
2.30015e-12
2.30001e-12
2.29986e-12
2.2997e-12
2.29953e-12
2.29936e-12
2.29917e-12
2.29898e-12
2.29879e-12
2.29859e-12
2.29839e-12
2.29819e-12
2.30021e-12
2.30009e-12
2.29996e-12
2.29982e-12
2.29967e-12
2.2995e-12
2.29933e-12
2.29915e-12
2.29897e-12
2.29878e-12
2.29858e-12
2.29838e-12
2.29819e-12
2.29798e-12
2.30002e-12
2.2999e-12
2.29976e-12
2.29962e-12
2.29946e-12
2.29929e-12
2.29912e-12
2.29894e-12
2.29875e-12
2.29856e-12
2.29837e-12
2.29817e-12
2.29797e-12
2.29777e-12
2.29984e-12
2.29971e-12
2.29956e-12
2.29941e-12
2.29925e-12
2.29908e-12
2.2989e-12
2.29872e-12
2.29853e-12
2.29833e-12
2.29814e-12
2.29794e-12
2.29774e-12
2.29755e-12
2.29964e-12
2.2995e-12
2.29935e-12
2.29919e-12
2.29902e-12
2.29885e-12
2.29867e-12
2.29849e-12
2.29829e-12
2.2981e-12
2.2979e-12
2.29771e-12
2.2975e-12
2.29732e-12
2.29945e-12
2.29929e-12
2.29914e-12
2.29897e-12
2.2988e-12
2.29862e-12
2.29844e-12
2.29825e-12
2.29805e-12
2.29786e-12
2.29765e-12
2.29746e-12
2.29726e-12
2.29708e-12
2.29923e-12
2.29907e-12
2.29891e-12
2.29874e-12
2.29856e-12
2.29838e-12
2.29819e-12
2.298e-12
2.29781e-12
2.29761e-12
2.29741e-12
2.29722e-12
2.29701e-12
2.29684e-12
2.29903e-12
2.29885e-12
2.29869e-12
2.29851e-12
2.29833e-12
2.29814e-12
2.29795e-12
2.29775e-12
2.29755e-12
2.29735e-12
2.29714e-12
2.29695e-12
2.29674e-12
2.29658e-12
2.29878e-12
2.2986e-12
2.29844e-12
2.29826e-12