/*--------------------------------*- C++ -*----------------------------------*\
| =========                 |                                                 |
| \\      /  F ield         | OpenFOAM: The Open Source CFD Toolbox           |
|  \\    /   O peration     | Version:  v2106                                 |
|   \\  /    A nd           | Website:  www.openfoam.com                      |
|    \\/     M anipulation  |                                                 |
\*---------------------------------------------------------------------------*/
FoamFile
{
    version     2.0;
    format      ascii;
    arch        "LSB;label=32;scalar=64";
    class       volScalarField;
    location    "0.000191";
    object      p;
}
// * * * * * * * * * * * * * * * * * * * * * * * * * * * * * * * * * * * * * //

dimensions      [1 -1 -2 0 0 0 0];

internalField   nonuniform List<scalar> 
17924
(
242534
242569
242598
242626
242179
242251
242307
242361
242409
242450
242486
242162
242235
242299
242356
242407
242452
242492
242146
242222
242290
242351
242406
242453
242495
242132
242209
242279
242341
242398
242447
242491
242121
242198
242271
242333
242391
242439
242484
242111
242188
242259
242322
242379
242428
242473
242108
242183
242252
242313
242368
242417
242461
242107
242178
242245
242303
242357
242404
242446
242110
242178
242240
242296
242345
242389
242426
242118
242181
242237
242288
242332
242371
242404
242129
242186
242235
242280
242317
242351
242378
242142
242193
242234
242271
242302
242329
242350
242157
242200
242232
242261
242284
242303
242316
242182
242216
242236
242254
242267
242276
242282
241660
241755
241841
241918
241984
242041
242090
242131
242167
242196
242222
242244
242265
242298
241685
241775
241863
241942
242014
242077
242133
242179
242220
242255
242285
242311
242335
242368
241709
241803
241895
241976
242050
242115
242173
242222
242266
242303
242336
242364
242390
242421
241734
241827
241921
242003
242080
242147
242209
242261
242308
242347
242383
242413
242441
242471
241763
241857
241951
242034
242111
242178
242240
242292
242339
242380
242416
242447
242476
242505
241792
241885
241976
242058
242135
242202
242264
242317
242365
242406
242443
242474
242504
242531
241824
241916
242004
242083
242156
242221
242280
242332
242377
242417
242453
242484
242513
242539
241856
241943
242025
242101
242170
242232
242289
242338
242383
242422
242456
242487
242514
242540
241886
241969
242044
242115
242179
242237
242290
242337
242378
242416
242448
242478
242503
242530
241915
241990
242058
242123
242182
242237
242284
242327
242364
242399
242428
242456
242480
242507
241940
242008
242069
242128
242180
242228
242268
242305
242338
242369
242395
242421
242443
242472
241962
242023
242074
242125
242168
242209
242244
242277
242305
242332
242355
242378
242398
242427
241978
242029
242073
242114
242150
242183
242211
242237
242260
242283
242304
242326
242347
242377
241997
242038
242068
242098
242126
242151
242173
242193
242210
242227
242245
242265
242284
242314
240946
241049
241143
241226
241301
241369
241429
241482
241528
241568
241604
241634
241664
241700
241002
241095
241194
241281
241363
241435
241501
241559
241610
241655
241695
241730
241762
241805
241068
241163
241262
241350
241432
241506
241573
241633
241686
241733
241776
241813
241847
241887
241130
241224
241323
241411
241495
241571
241641
241703
241759
241808
241854
241893
241931
241970
241194
241289
241386
241474
241558
241634
241704
241767
241824
241874
241921
241962
242001
242038
241257
241351
241445
241531
241614
241690
241760
241823
241882
241933
241981
242023
242064
242100
241319
241410
241500
241584
241665
241739
241808
241870
241928
241980
242028
242072
242113
242148
241377
241464
241549
241630
241707
241779
241846
241908
241965
242017
242065
242110
242150
242188
241429
241512
241591
241668
241741
241810
241874
241933
241989
242040
242088
242133
242174
242214
241476
241553
241625
241697
241765
241830
241891
241948
242001
242052
242100
242146
242187
242230
241515
241586
241650
241716
241778
241838
241895
241949
242000
242050
242098
242145
242188
242235
241546
241610
241665
241724
241780
241836
241890
241943
241992
242042
242089
242138
242180
242231
241568
241625
241672
241726
241775
241826
241874
241923
241970
242018
242065
242114
242158
242210
241586
241635
241675
241720
241762
241806
241850
241896
241941
241988
242035
242084
242132
242191
240039
240127
240214
240295
240372
240443
240510
240572
240631
240685
240737
240784
240832
240880
240126
240204
240294
240377
240457
240532
240602
240668
240729
240787
240842
240893
240943
241002
240224
240301
240390
240471
240550
240624
240694
240760
240823
240882
240938
240991
241042
241100
240316
240391
240478
240558
240638
240712
240784
240852
240917
240978
241036
241092
241145
241202
240408
240483
240567
240646
240724
240798
240870
240938
241004
241067
241127
241185
241240
241295
240498
240571
240652
240728
240806
240879
240952
241021
241088
241153
241215
241275
241332
241387
240582
240654
240731
240806
240881
240954
241026
241096
241165
241231
241296
241357
241416
241471
240663
240733
240806
240878
240951
241023
241095
241166
241236
241304
241370
241433
241495
241551
240735
240804
240872
240942
241013
241084
241156
241227
241298
241368
241436
241501
241565
241624
240803
240869
240932
241000
241068
241139
241210
241281
241353
241424
241495
241562
241629
241690
240861
240925
240984
241049
241115
241184
241255
241327
241400
241473
241546
241616
241686
241751
240914
240975
241029
241092
241156
241224
241294
241367
241441
241515
241590
241662
241735
241805
240958
241016
241066
241127
241189
241256
241326
241400
241476
241552
241630
241706
241782
241863
240995
241050
241095
241153
241215
241282
241353
241427
241504
241583
241663
241745
241824
241910
239087
239141
239206
239270
239337
239406
239476
239546
239615
239684
239750
239814
239876
239941
239203
239246
239311
239373
239440
239507
239578
239650
239721
239791
239859
239927
239990
240063
239320
239362
239425
239484
239548
239614
239683
239753
239824
239894
239962
240031
240095
240168
239433
239474
239534
239591
239655
239719
239788
239859
239931
240003
240073
240144
240209
240281
239543
239586
239643
239699
239761
239826
239894
239965
240037
240110
240182
240253
240320
240392
239653
239697
239751
239806
239867
239932
240001
240073
240146
240221
240294
240367
240437
240507
239758
239803
239855
239910
239972
240037
240107
240179
240254
240330
240405
240479
240551
240621
239862
239907
239958
240014
240075
240142
240213
240287
240364
240441
240518
240593
240669
240738
239958
240005
240055
240113
240176
240244
240317
240393
240472
240551
240631
240707
240785
240854
240054
240103
240153
240212
240276
240347
240421
240499
240579
240660
240743
240821
240903
240971
240142
240193
240243
240305
240371
240444
240521
240602
240686
240769
240855
240935
241019
241086
240228
240282
240334
240398
240466
240541
240621
240703
240789
240874
240961
241044
241131
241202
240304
240362
240415
240481
240552
240631
240715
240802
240892
240981
241072
241158
241247
241321
240380
240440
240497
240567
240641
240722
240807
240895
240986
241076
241167
241257
241349
241439
238354
238360
238391
238428
238473
238525
238582
238644
238710
238777
238844
238911
238974
239042
238483
238478
238507
238541
238585
238635
238692
238754
238819
238887
238954
239022
239085
239157
238603
238599
238627
238660
238703
238752
238807
238866
238929
238995
239061
239129
239191
239263
238724
238723
238749
238781
238823
238872
238926
238985
239048
239114
239180
239248
239310
239382
238838
238847
238872
238905
238947
238995
239049
239108
239170
239235
239301
239369
239433
239504
238956
238971
238997
239032
239074
239123
239178
239237
239299
239365
239431
239499
239565
239634
239074
239094
239122
239159
239203
239253
239309
239369
239432
239498
239565
239633
239700
239766
239194
239219
239249
239289
239335
239387
239444
239505
239570
239636
239705
239773
239842
239906
239311
239340
239374
239417
239466
239521
239580
239643
239710
239777
239848
239915
239987
240048
239429
239463
239500
239548
239600
239658
239719
239785
239853
239922
239994
240062
240137
240195
239539
239580
239621
239674
239730
239792
239858
239926
239997
240069
240143
240212
240288
240341
239652
239699
239745
239802
239863
239929
239997
240068
240141
240214
240290
240360
240439
240492
239755
239807
239860
239922
239989
240059
240133
240208
240286
240363
240441
240514
240593
240647
239865
239924
239982
240048
240119
240192
240268
240346
240424
240502
240580
240654
240733
240801
237968
237951
237951
237959
237977
238002
238031
238067
238106
238149
238196
238244
238292
238344
238085
238059
238061
238069
238086
238109
238137
238172
238211
238254
238299
238347
238393
238448
238191
238168
238171
238181
238198
238221
238249
238283
238320
238361
238403
238450
238493
238548
238300
238284
238288
238299
238315
238338
238366
238399
238436
238476
238518
238564
238607
238660
238409
238400
238405
238418
238435
238459
238487
238521
238557
238597
238638
238683
238726
238777
238522
238520
238527
238541
238560
238585
238614
238648
238685
238725
238766
238811
238855
238903
238635
238639
238649
238665
238687
238713
238744
238779
238817
238857
238899
238943
238988
239033
238751
238760
238774
238793
238817
238846
238879
238915
238954
238995
239037
239081
239127
239169
238866
238881
238898
238921
238949
238981
239016
239054
239094
239135
239179
239222
239269
239308
238984
239003
239024
239052
239083
239118
239157
239197
239238
239280
239325
239368
239417
239452
239098
239123
239148
239181
239217
239256
239298
239341
239384
239427
239472
239515
239566
239596
239215
239246
239276
239313
239354
239396
239441
239486
239532
239576
239623
239667
239720
239748
239325
239361
239398
239441
239487
239534
239583
239632
239680
239727
239775
239820
239873
239900
239447
239487
239530
239576
239625
239675
239726
239777
239827
239876
239925
239972
240023
240058
237851
237826
237811
237800
237794
237793
237796
237804
237814
237829
237847
237868
237891
237916
237939
237912
237898
237887
237882
237881
237883
237890
237900
237915
237931
237952
237972
237998
238022
237997
237985
237977
237972
237972
237974
237980
237990
238003
238018
238037
238055
238081
238111
238089
238078
238071
238067
238067
238069
238075
238084
238097
238111
238129
238146
238170
238199
238181
238173
238166
238164
238164
238167
238174
238183
238195
238208
238224
238240
238263
238290
238276
238270
238265
238264
238265
238269
238276
238285
238297
238310
238325
238341
238361
238380
238371
238368
238365
238366
238369
238374
238382
238391
238403
238416
238431
238447
238463
238472
238469
238468
238468
238471
238475
238482
238491
238501
238513
238526
238541
238558
238570
238566
238568
238569
238573
238578
238585
238593
238603
238614
238627
238641
238656
238673
238681
238662
238669
238673
238680
238688
238697
238708
238719
238731
238745
238761
238776
238794
238797
238759
238771
238778
238789
238800
238812
238825
238837
238851
238866
238882
238897
238915
238914
238861
238876
238887
238901
238915
238929
238944
238959
238975
238991
239008
239023
239042
239039
238962
238980
238995
239013
239031
239049
239066
239082
239100
239117
239134
239149
239167
239163
239076
239090
239110
239130
239150
239170
239189
239208
239226
239244
239262
239278
239297
239300
237859
237829
237807
237786
237768
237751
237737
237725
237716
237708
237702
237698
237696
237701
237921
237890
237869
237848
237830
237813
237798
237785
237775
237765
237758
237753
237748
237757
237976
237948
237928
237908
237891
237874
237860
237847
237836
237826
237816
237810
237804
237811
238035
238009
237991
237972
237955
237938
237924
237910
237899
237888
237878
237871
237864
237868
238094
238071
238054
238036
238019
238004
237990
237976
237964
237954
237944
237936
237928
237927
238156
238136
238120
238103
238087
238072
238058
238045
238033
238022
238012
238003
237994
237989
238218
238201
238186
238171
238156
238142
238129
238116
238104
238093
238083
238073
238063
238055
238283
238269
238255
238242
238228
238215
238202
238190
238178
238166
238155
238144
238135
238124
238349
238339
238326
238314
238302
238290
238278
238266
238254
238242
238231
238219
238210
238196
238418
238411
238400
238390
238379
238368
238356
238344
238332
238320
238309
238296
238287
238273
238489
238486
238476
238468
238458
238448
238437
238426
238414
238402
238390
238376
238368
238354
238564
238563
238555
238548
238540
238531
238521
238510
238499
238487
238475
238461
238453
238438
238642
238642
238636
238631
238624
238616
238607
238596
238585
238572
238560
238546
238538
238521
238732
238723
238718
238714
238709
238702
238694
238684
238674
238662
238649
238637
238630
238616
237897
237864
237838
237812
237787
237762
237738
237714
237691
237668
237648
237628
237610
237591
237930
237900
237875
237849
237824
237798
237773
237747
237724
237699
237678
237656
237636
237617
237960
237931
237908
237882
237857
237832
237807
237782
237758
237733
237710
237688
237665
237646
237992
237966
237943
237917
237892
237867
237842
237817
237792
237767
237743
237720
237696
237676
238024
238000
237977
237953
237928
237903
237878
237852
237827
237802
237777
237753
237728
237706
238059
238036
238014
237990
237965
237940
237915
237889
237863
237838
237812
237787
237762
237737
238095
238074
238051
238028
238004
237979
237953
237927
237901
237875
237848
237822
237796
237769
238133
238113
238091
238068
238044
238019
237993
237967
237939
237912
237885
237857
237830
237803
238172
238153
238132
238109
238085
238060
238034
238007
237980
237952
237924
237895
237867
237837
238212
238195
238174
238152
238128
238103
238076
238048
238020
237991
237963
237933
237905
237873
238254
238238
238217
238195
238171
238145
238118
238091
238062
238033
238003
237972
237942
237908
238297
238282
238261
238240
238216
238190
238163
238134
238104
238073
238042
238010
237980
237944
238344
238329
238308
238287
238262
238235
238207
238178
238147
238115
238082
238048
238017
237982
238397
238374
238352
238330
238307
238281
238253
238223
238192
238160
238127
238093
238062
238026
237915
237883
237856
237827
237797
237766
237735
237703
237671
237639
237608
237576
237547
237514
237921
237893
237867
237838
237809
237778
237746
237713
237681
237647
237616
237582
237552
237520
237928
237902
237876
237848
237819
237788
237757
237724
237691
237657
237625
237591
237560
237526
237938
237913
237887
237859
237830
237799
237767
237735
237702
237667
237634
237600
237567
237533
237948
237924
237898
237870
237841
237810
237778
237745
237711
237677
237642
237607
237572
237537
237958
237935
237909
237881
237851
237820
237787
237754
237719
237684
237649
237613
237577
237541
237969
237946
237919
237891
237861
237829
237796
237762
237727
237691
237654
237617
237581
237543
237980
237956
237930
237901
237870
237838
237804
237769
237733
237696
237659
237621
237583
237544
237991
237967
237940
237911
237879
237846
237811
237776
237738
237701
237662
237623
237584
237545
238002
237978
237950
237920
237888
237854
237818
237781
237743
237704
237665
237625
237584
237545
238014
237989
237960
237929
237896
237861
237824
237786
237747
237707
237666
237625
237583
237542
238026
238000
237970
237938
237904
237868
237830
237791
237750
237709
237666
237625
237581
237540
238038
238010
237980
237946
237911
237873
237835
237795
237753
237710
237667
237624
237580
237535
238050
238018
237987
237953
237917
237879
237839
237799
237757
237715
237672
237629
237585
237540
237862
237835
237807
237777
237746
237712
237677
237640
237602
237563
237526
237485
237448
237404
237851
237824
237798
237769
237737
237703
237667
237630
237592
237552
237514
237472
237435
237393
237836
237812
237785
237756
237724
237691
237656
237618
237580
237540
237501
237460
237421
237379
237822
237799
237772
237743
237711
237677
237642
237605
237566
237526
237486
237445
237406
237363
237808
237785
237758
237728
237696
237663
237627
237589
237550
237510
237470
237428
237387
237345
237793
237770
237742
237712
237680
237645
237609
237571
237532
237491
237450
237408
237367
237324
237779
237755
237726
237695
237662
237627
237590
237551
237511
237470
237429
237386
237344
237300
237763
237737
237708
237676
237642
237606
237568
237529
237489
237447
237404
237362
237318
237275
237747
237720
237689
237657
237622
237585
237546
237505
237464
237421
237378
237335
237290
237248
237729
237700
237668
237634
237598
237560
237520
237480
237437
237394
237350
237307
237261
237219
237712
237680
237648
237612
237575
237535
237494
237452
237408
237364
237319
237275
237229
237188
237693
237658
237624
237587
237549
237508
237466
237423
237379
237335
237289
237245
237197
237156
237673
237636
237601
237563
237523
237482
237438
237393
237347
237302
237255
237210
237162
237120
237651
237612
237576
237536
237495
237452
237407
237363
237317
237272
237226
237181
237134
237090
237675
237650
237623
237595
237564
237531
237495
237458
237419
237378
237337
237292
237252
237204
237640
237617
237592
237564
237533
237500
237464
237426
237387
237345
237303
237260
237218
237173
237604
237584
237557
237529
237498
237466
237430
237393
237354
237312
237271
237227
237186
237141
237568
237548
237521
237494
237462
237430
237394
237356
237317
237276
237234
237191
237150
237106
237532
237512
237484
237456
237424
237391
237356
237318
237279
237238
237197
237154
237112
237068
237495
237473
237445
237416
237384
237350
237314
237277
237237
237197
237155
237112
237071
237027
237458
237434
237405
237375
237342
237308
237272
237233
237194
237153
237112
237070
237028
236985
237418
237392
237363
237331
237298
237263
237226
237188
237148
237107
237065
237023
236981
236939
237379
237350
237320
237287
237253
237217
237179
237140
237100
237059
237017
236975
236932
236892
237336
237305
237274
237240
237205
237168
237130
237091
237050
237009
236966
236925
236881
236843
237295
237261
237229
237194
237157
237119
237080
237039
236998
236956
236913
236872
236829
236793
237250
237213
237180
237143
237106
237067
237028
236987
236946
236904
236861
236820
236776
236741
237207
237168
237133
237095
237057
237017
236975
236933
236890
236848
236805
236763
236720
236686
237158
237117
237080
237042
237003
236962
236921
236880
236838
236796
236754
236713
236670
236634
237272
237252
237229
237206
237181
237154
237124
237092
237058
237023
236986
236946
236908
236864
237220
237205
237182
237160
237134
237106
237076
237044
237010
236973
236936
236897
236859
236818
237170
237156
237132
237110
237083
237056
237026
236995
236961
236926
236890
236851
236814
236774
237120
237105
237081
237058
237032
237004
236974
236942
236909
236874
236838
236800
236764
236725
237070
237054
237029
237005
236978
236950
236920
236889
236856
236821
236786
236749
236714
236676
237018
237000
236975
236951
236923
236895
236865
236833
236800
236766
236731
236695
236660
236623
236966
236945
236920
236895
236867
236838
236807
236776
236743
236709
236675
236640
236605
236569
236911
236888
236863
236837
236809
236779
236749
236717
236684
236651
236617
236582
236547
236513
236857
236832
236806
236779
236750
236720
236689
236657
236624
236591
236557
236523
236489
236457
236801
236772
236747
236718
236689
236659
236628
236596
236563
236530
236496
236463
236428
236399
236745
236714
236688
236658
236629
236598
236566
236534
236501
236468
236433
236401
236367
236341
236686
236653
236626
236596
236566
236535
236503
236471
236438
236405
236371
236340
236305
236281
236631
236596
236567
236536
236505
236473
236440
236407
236374
236340
236306
236275
236242
236219
236565
236532
236502
236471
236439
236408
236376
236344
236311
236279
236246
236215
236182
236159
236637
236626
236610
236596
236580
236563
236545
236524
236502
236479
236453
236427
236401
236371
236582
236574
236558
236544
236528
236511
236492
236471
236448
236424
236399
236373
236346
236316
236530
236523
236506
236491
236474
236457
236437
236417
236395
236372
236348
236322
236297
236268
236477
236469
236451
236436
236419
236401
236382
236362
236340
236317
236293
236268
236244
236216
236425
236414
236397
236381
236363
236345
236326
236305
236284
236261
236238
236214
236191
236165
236370
236358
236341
236324
236307
236288
236269
236248
236227
236205
236183
236159
236136
236111
236316
236301
236284
236267
236249
236231
236211
236191
236170
236148
236126
236103
236081
236057
236259
236243
236226
236209
236191
236172
236153
236132
236111
236090
236068
236047
236024
236003
236203
236185
236168
236150
236132
236113
236094
236073
236053
236032
236011
235989
235968
235949
236145
236125
236108
236090
236072
236053
236034
236014
235993
235973
235952
235931
235910
235893
236088
236066
236049
236031
236013
235994
235974
235954
235934
235914
235893
235873
235852
235839
236028
236006
235989
235970
235952
235933
235914
235894
235874
235854
235834
235815
235794
235783
235972
235950
235931
235912
235893
235873
235854
235834
235813
235794
235774
235757
235737
235728
235908
235888
235868
235850
235831
235812
235793
235774
235754
235735
235716
235699
235680
235670
235824
235822
235816
235811
235806
235801
235795
235789
235782
235775
235765
235755
235744
235736
235776
235778
235773
235768
235762
235757
235751
235744
235737
235729
235720
235709
235698
235686
235734
235735
235729
235724
235718
235711
235705
235699
235691
235683
235674
235664
235654
235642
235689
235690
235684
235679
235672
235666
235660
235653
235646
235638
235629
235619
235609
235597
235646
235645
235639
235633
235627
235620
235614
235607
235600
235592
235584
235574
235565
235553
235602
235598
235593
235587
235581
235574
235568
235561
235554
235547
235538
235529
235521
235510
235557
235552
235546
235540
235534
235528
235522
235515
235508
235501
235493
235485
235476
235467
235511
235504
235499
235493
235487
235482
235475
235469
235462
235455
235448
235440
235432
235424
235464
235457
235451
235446
235440
235435
235429
235423
235416
235409
235402
235395
235387
235382
235417
235409
235404
235398
235393
235387
235382
235376
235370
235363
235356
235349
235342
235339
235371
235361
235356
235351
235345
235340
235334
235329
235323
235317
235310
235304
235297
235298
235325
235313
235308
235303
235298
235293
235287
235282
235277
235271
235265
235258
235252
235255
235280
235268
235262
235257
235251
235246
235240
235235
235230
235225
235219
235214
235209
235213
235230
235220
235214
235209
235204
235199
235194
235189
235184
235180
235175
235170
235166
235168
234914
234918
234921
234925
234930
234936
234942
234948
234954
234960
234965
234971
234977
234983
234885
234889
234893
234898
234903
234908
234914
234920
234926
234932
234937
234942
234946
234948
234859
234863
234866
234871
234876
234881
234886
234892
234897
234902
234907
234912
234917
234918
234830
234835
234838
234843
234848
234854
234859
234864
234869
234874
234879
234883
234888
234889
234802
234807
234810
234816
234820
234826
234831
234836
234841
234846
234851
234855
234860
234862
234774
234778
234782
234787
234792
234798
234803
234808
234813
234818
234823
234827
234832
234835
234745
234749
234754
234759
234764
234769
234775
234780
234786
234791
234796
234800
234805
234808
234716
234720
234725
234730
234735
234741
234746
234752
234758
234763
234768
234773
234778
234782
234687
234691
234696
234701
234707
234712
234718
234724
234730
234735
234741
234746
234751
234757
234658
234661
234667
234672
234678
234684
234690
234696
234702
234708
234713
234719
234725
234731
234629
234631
234637
234643
234649
234655
234661
234668
234674
234680
234687
234693
234699
234707
234601
234602
234608
234614
234620
234627
234633
234640
234646
234653
234660
234667
234673
234682
234573
234574
234580
234586
234592
234599
234605
234613
234620
234627
234634
234641
234648
234658
234544
234547
234553
234559
234565
234571
234578
234585
234592
234599
234607
234615
234623
234633
233969
233980
233990
234001
234012
234024
234037
234050
234064
234078
234092
234107
234123
234141
233959
233970
233980
233991
234003
234015
234028
234041
234055
234069
234083
234098
234112
234127
233949
233961
233971
233982
233994
234006
234019
234032
234046
234060
234074
234088
234102
234116
233940
233951
233961
233973
233985
233997
234010
234023
234036
234050
234064
234078
234091
234105
233930
233941
233951
233963
233975
233988
234000
234013
234027
234040
234054
234067
234081
234094
233920
233931
233942
233954
233966
233978
233991
234004
234017
234031
234044
234057
234071
234084
233910
233921
233932
233944
233956
233969
233982
233995
234008
234022
234035
234048
234062
234075
233900
233911
233922
233934
233947
233960
233973
233986
233999
234013
234026
234040
234053
234066
233890
233901
233912
233925
233937
233950
233963
233977
233990
234004
234018
234031
234045
234058
233880
233891
233903
233915
233928
233941
233954
233968
233982
233995
234010
234023
234037
234051
233870
233881
233893
233905
233918
233932
233945
233959
233973
233987
234002
234016
234030
234044
233861
233872
233884
233896
233909
233923
233937
233951
233965
233979
233994
234008
234023
234038
233852
233863
233874
233887
233901
233915
233929
233943
233958
233972
233987
234002
234016
234033
233843
233855
233867
233881
233894
233907
233921
233935
233949
233964
233979
233994
234010
234027
233035
233047
233060
233073
233086
233100
233114
233129
233145
233162
233179
233198
233038
233050
233063
233076
233090
233104
233119
233135
233151
233167
233185
233203
233043
233054
233067
233080
233095
233109
233124
233139
233155
233172
233189
233207
233047
233059
233072
233085
233099
233114
233129
233145
233161
233177
233194
233212
233051
233064
233077
233090
233104
233119
233134
233150
233166
233182
233199
233216
233056
233069
233082
233095
233109
233124
233139
233155
233171
233187
233204
233221
233061
233074
233087
233101
233115
233130
233145
233160
233176
233193
233209
233226
233067
233080
233093
233106
233121
233135
233151
233166
233182
233199
233216
233232
233072
233085
233098
233112
233126
233141
233157
233172
233189
233205
233222
233238
233078
233091
233104
233118
233133
233148
233163
233179
233195
233212
233228
233245
233084
233097
233110
233124
233139
233154
233170
233186
233202
233219
233235
233252
233090
233103
233117
233131
233146
233161
233177
233193
233210
233226
233243
233259
233096
233110
233123
233138
233153
233169
233185
233201
233218
233235
233251
233268
233104
233118
233132
233147
233162
233177
233193
233209
233225
233242
233258
233275
242573
242580
242596
242610
242625
242641
242602
242620
242637
242657
242677
242696
242633
242656
242677
242698
242718
242734
242659
242685
242708
242727
242744
242756
242184
242162
242151
242138
242130
242125
242251
242235
242228
242223
242225
242227
242307
242296
242291
242288
242291
242294
242359
242350
242344
242339
242338
242336
242402
242390
242381
242370
242362
242352
242440
242425
242409
242390
242371
242346
242472
242452
242428
242399
242366
242327
241625
241563
241520
241470
241430
241392
241724
241665
241625
241582
241549
241519
241799
241745
241707
241668
241641
241617
241874
241820
241781
241741
241712
241687
241936
241880
241836
241792
241757
241724
241990
241931
241880
241827
241782
241738
242035
241971
241910
241848
241788
241729
242073
242004
241933
241859
241784
241708
242105
242032
241953
241870
241781
241692
242132
242058
241974
241886
241790
241693
242158
242086
242002
241915
241821
241724
242180
242116
242039
241960
241875
241787
242209
242155
242090
242025
241956
241884
242235
242195
242146
242098
242050
242003
240863
240758
240681
240597
240522
240447
240977
240875
240798
240714
240642
240574
241062
240963
240888
240809
240745
240686
241145
241048
240971
240894
240831
240776
241218
241121
241041
240963
240898
240841
241284
241186
241101
241018
240947
240882
241341
241242
241151
241061
240980
240904
241392
241292
241193
241097
241004
240914
241436
241336
241232
241130
241026
240925
241475
241378
241273
241167
241058
240949
241513
241421
241318
241215
241107
240997
241546
241465
241370
241277
241178
241075
241587
241518
241437
241358
241274
241187
241615
241569
241506
241447
241386
241325
239927
239800
239693
239579
239476
239373
240025
239892
239783
239664
239555
239447
240105
239971
239860
239743
239640
239541
240187
240054
239941
239827
239728
239636
240263
240132
240019
239909
239812
239725
240334
240208
240094
239986
239889
239803
240401
240279
240166
240058
239960
239872
240464
240348
240235
240128
240028
239936
240524
240414
240303
240198
240096
240000
240581
240480
240373
240271
240169
240070
240637
240546
240446
240350
240251
240153
240690
240613
240523
240436
240345
240252
240747
240684
240608
240534
240456
240375
240791
240753
240693
240637
240578
240518
238963
238841
238729
238614
238511
238408
239027
238889
238767
238637
238515
238389
239082
238934
238801
238662
238531
238403
239146
238996
238860
238719
238586
238461
239213
239065
238930
238795
238669
238552
239284
239143
239012
238885
238768
238662
239358
239226
239102
238985
238878
238781
239431
239311
239195
239089
238991
238903
239506
239398
239292
239195
239105
239024
239579
239485
239388
239301
239218
239141
239651
239572
239486
239409
239332
239259
239721
239659
239584
239517
239447
239379
239794
239747
239685
239628
239568
239506
239855
239830
239783
239740
239693
239644
238230
238131
238041
237955
237873
237793
238252
238138
238025
237911
237804
237700
238270
238137
238009
237882
237761
237644
238304
238157
238019
237884
237756
237633
238345
238197
238056
237918
237787
237665
238398
238254
238118
237986
237863
237750
238459
238324
238198
238080
237970
237871
238527
238406
238293
238190
238096
238013
238600
238495
238397
238309
238232
238164
238674
238587
238502
238429
238365
238310
238749
238680
238608
238547
238493
238447
238822
238769
238710
238660
238615
238575
238896
238859
238812
238772
238733
238698
238961
238944
238910
238881
238851
238822
237870
237808
237744
237688
237634
237581
237861
237776
237692
237612
237535
237459
237845
237744
237643
237548
237457
237367
237846
237731
237620
237514
237412
237313
237858
237733
237616
237505
237398
237296
237880
237751
237630
237518
237413
237313
237912
237783
237666
237558
237459
237367
237951
237831
237720
237621
237533
237454
237997
237889
237792
237705
237631
237568
238047
237957
237875
237805
237748
237701
238103
238031
237965
237912
237869
237837
238159
238105