/*--------------------------------*- C++ -*----------------------------------*\
| =========                 |                                                 |
| \\      /  F ield         | OpenFOAM: The Open Source CFD Toolbox           |
|  \\    /   O peration     | Version:  v2106                                 |
|   \\  /    A nd           | Website:  www.openfoam.com                      |
|    \\/     M anipulation  |                                                 |
\*---------------------------------------------------------------------------*/
FoamFile
{
    version     2.0;
    format      ascii;
    arch        "LSB;label=32;scalar=64";
    class       volScalarField;
    location    "0.000191";
    object      T;
}
// * * * * * * * * * * * * * * * * * * * * * * * * * * * * * * * * * * * * * //

dimensions      [0 0 0 1 0 0 0];

internalField   nonuniform List<scalar> 
17924
(
308.493
308.505
308.516
308.526
308.363
308.389
308.41
308.43
308.447
308.462
308.475
308.357
308.384
308.407
308.428
308.446
308.463
308.477
308.351
308.379
308.404
308.426
308.446
308.463
308.478
308.346
308.374
308.4
308.422
308.443
308.461
308.477
308.342
308.37
308.397
308.42
308.44
308.458
308.474
308.338
308.366
308.392
308.415
308.436
308.454
308.471
308.337
308.365
308.39
308.412
308.432
308.45
308.466
308.337
308.363
308.387
308.409
308.428
308.445
308.46
308.338
308.363
308.385
308.406
308.424
308.44
308.453
308.341
308.364
308.384
308.403
308.419
308.433
308.445
308.345
308.366
308.384
308.4
308.414
308.426
308.436
308.35
308.368
308.383
308.397
308.408
308.418
308.426
308.355
308.371
308.383
308.393
308.401
308.408
308.413
308.364
308.377
308.384
308.391
308.395
308.399
308.401
308.174
308.209
308.24
308.268
308.292
308.313
308.331
308.346
308.359
308.37
308.379
308.387
308.395
308.407
308.183
308.216
308.248
308.277
308.303
308.326
308.346
308.363
308.378
308.391
308.402
308.412
308.42
308.432
308.192
308.226
308.26
308.289
308.316
308.34
308.361
308.379
308.395
308.408
308.421
308.431
308.44
308.451
308.201
308.235
308.269
308.299
308.327
308.352
308.374
308.393
308.41
308.425
308.438
308.448
308.459
308.47
308.211
308.246
308.28
308.31
308.338
308.363
308.385
308.404
308.422
308.436
308.45
308.461
308.472
308.482
308.222
308.256
308.289
308.319
308.347
308.372
308.394
308.413
308.431
308.446
308.459
308.471
308.482
308.492
308.234
308.267
308.299
308.328
308.355
308.379
308.4
308.419
308.436
308.45
308.463
308.474
308.485
308.494
308.245
308.277
308.307
308.335
308.36
308.383
308.403
308.421
308.437
308.452
308.464
308.475
308.485
308.495
308.256
308.287
308.314
308.34
308.363
308.385
308.404
308.421
308.436
308.449
308.461
308.472
308.481
308.491
308.267
308.294
308.319
308.343
308.364
308.384
308.402
308.417
308.431
308.443
308.454
308.464
308.473
308.483
308.276
308.301
308.323
308.345
308.364
308.381
308.396
308.409
308.421
308.432
308.442
308.452
308.46
308.47
308.284
308.306
308.325
308.343
308.359
308.374
308.387
308.399
308.409
308.419
308.427
308.436
308.443
308.454
308.29
308.309
308.324
308.339
308.352
308.365
308.375
308.384
308.393
308.401
308.409
308.417
308.424
308.436
308.297
308.312
308.323
308.334
308.344
308.353
308.361
308.368
308.374
308.381
308.387
308.394
308.402
308.412
307.913
307.951
307.985
308.016
308.043
308.068
308.09
308.109
308.126
308.14
308.153
308.164
308.175
308.189
307.933
307.968
308.004
308.036
308.065
308.092
308.116
308.137
308.156
308.172
308.187
308.2
308.211
308.227
307.958
307.992
308.029
308.061
308.091
308.118
308.142
308.164
308.184
308.201
308.216
308.23
308.242
308.257
307.98
308.015
308.051
308.083
308.114
308.141
308.167
308.19
308.21
308.228
308.245
308.259
308.273
308.287
308.004
308.038
308.074
308.106
308.137
308.164
308.19
308.213
308.234
308.252
308.269
308.284
308.298
308.312
308.027
308.061
308.095
308.127
308.157
308.185
308.21
308.234
308.255
308.274
308.291
308.306
308.321
308.335
308.049
308.083
308.116
308.146
308.176
308.203
308.228
308.251
308.272
308.291
308.308
308.324
308.339
308.352
308.071
308.102
308.133
308.163
308.191
308.217
308.242
308.264
308.285
308.304
308.322
308.338
308.353
308.366
308.089
308.12
308.149
308.177
308.204
308.229
308.252
308.274
308.294
308.313
308.33
308.347
308.361
308.376
308.107
308.135
308.161
308.187
308.212
308.236
308.258
308.279
308.298
308.317
308.334
308.351
308.366
308.382
308.121
308.147
308.17
308.194
308.217
308.239
308.26
308.279
308.298
308.316
308.334
308.351
308.366
308.384
308.132
308.156
308.176
308.197
308.218
308.238
308.258
308.277
308.295
308.313
308.33
308.348
308.364
308.382
308.14
308.161
308.178
308.198
308.216
308.234
308.252
308.27
308.287
308.305
308.322
308.34
308.355
308.375
308.147
308.165
308.179
308.196
308.211
308.227
308.243
308.26
308.277
308.293
308.311
308.328
308.346
308.368
307.581
307.613
307.645
307.675
307.703
307.729
307.753
307.776
307.798
307.818
307.836
307.854
307.871
307.889
307.613
307.641
307.674
307.705
307.734
307.761
307.787
307.811
307.834
307.855
307.875
307.894
307.912
307.933
307.649
307.677
307.71
307.739
307.768
307.795
307.821
307.845
307.868
307.89
307.91
307.929
307.948
307.969
307.682
307.71
307.742
307.771
307.8
307.827
307.854
307.879
307.902
307.925
307.946
307.966
307.986
308.007
307.716
307.744
307.774
307.803
307.832
307.859
307.885
307.91
307.934
307.957
307.979
308
308.02
308.041
307.749
307.776
307.805
307.833
307.862
307.889
307.915
307.94
307.965
307.989
308.012
308.033
308.054
308.074
307.78
307.806
307.834
307.862
307.889
307.916
307.942
307.968
307.993
308.017
308.041
308.063
308.085
308.105
307.809
307.835
307.862
307.888
307.915
307.941
307.968
307.993
308.019
308.044
308.068
308.091
308.114
308.134
307.836
307.861
307.886
307.911
307.937
307.963
307.99
308.016
308.042
308.067
308.092
308.116
308.139
308.161
307.861
307.885
307.908
307.933
307.958
307.983
308.009
308.036
308.062
308.088
308.113
308.138
308.163
308.185
307.882
307.905
307.927
307.951
307.975
308
308.026
308.052
308.079
308.106
308.132
308.158
308.183
308.207
307.901
307.924
307.943
307.967
307.99
308.015
308.04
308.067
308.094
308.121
308.148
308.175
308.201
308.227
307.917
307.939
307.957
307.979
308.002
308.026
308.052
308.079
308.107
308.135
308.163
308.191
308.219
308.248
307.931
307.951
307.967
307.989
308.011
308.036
308.062
308.089
308.117
308.146
308.175
308.205
308.234
308.265
307.231
307.251
307.275
307.298
307.323
307.348
307.374
307.4
307.425
307.45
307.475
307.498
307.521
307.545
307.274
307.29
307.314
307.336
307.361
307.386
307.412
307.438
307.464
307.49
307.515
307.54
307.563
307.59
307.317
307.332
307.355
307.377
307.401
307.425
307.45
307.476
307.502
307.528
307.553
307.578
307.601
307.628
307.358
307.373
307.395
307.416
307.44
307.463
307.489
307.515
307.541
307.568
307.593
307.619
307.643
307.67
307.399
307.414
307.435
307.456
307.479
307.502
307.528
307.554
307.58
307.607
307.633
307.659
307.684
307.71
307.439
307.455
307.475
307.495
307.518
307.541
307.567
307.593
307.62
307.647
307.674
307.701
307.726
307.752
307.478
307.494
307.513
307.534
307.556
307.58
307.606
307.632
307.66
307.687
307.715
307.742
307.768
307.794
307.516
307.532
307.551
307.572
307.594
307.619
307.645
307.672
307.7
307.728
307.756
307.784
307.812
307.837
307.551
307.568
307.587
307.608
307.631
307.656
307.683
307.71
307.739
307.768
307.797
307.825
307.854
307.879
307.586
307.604
307.622
307.644
307.668
307.693
307.721
307.749
307.779
307.808
307.838
307.867
307.897
307.922
307.618
307.637
307.656
307.678
307.702
307.729
307.757
307.787
307.818
307.848
307.879
307.909
307.94
307.964
307.65
307.67
307.689
307.712
307.737
307.765
307.794
307.824
307.855
307.887
307.919
307.949
307.981
308.007
307.678
307.699
307.719
307.743
307.769
307.798
307.828
307.86
307.893
307.926
307.959
307.99
308.023
308.05
307.706
307.728
307.749
307.774
307.801
307.831
307.862
307.894
307.927
307.96
307.994
308.027
308.06
308.093
306.961
306.963
306.975
306.988
307.005
307.024
307.045
307.068
307.092
307.117
307.142
307.166
307.189
307.215
307.009
307.007
307.018
307.03
307.046
307.065
307.086
307.108
307.132
307.157
307.182
307.207
307.23
307.257
307.053
307.051
307.062
307.074
307.09
307.108
307.128
307.15
307.173
307.197
307.221
307.246
307.269
307.296
307.097
307.097
307.107
307.118
307.134
307.152
307.172
307.194
307.217
307.241
307.265
307.29
307.313
307.339
307.139
307.143
307.152
307.164
307.179
307.197
307.217
307.239
307.262
307.286
307.31
307.335
307.358
307.384
307.183
307.188
307.198
307.211
307.226
307.244
307.264
307.286
307.309
307.333
307.358
307.382
307.407
307.432
307.226
307.234
307.244
307.257
307.274
307.292
307.313
307.335
307.358
307.382
307.407
307.431
307.456
307.481
307.27
307.279
307.291
307.305
307.322
307.341
307.362
307.385
307.408
307.433
307.458
307.483
307.508
307.532
307.313
307.324
307.336
307.352
307.37
307.391
307.412
307.435
307.46
307.485
307.51
307.535
307.561
307.584
307.357
307.369
307.383
307.4
307.419
307.441
307.463
307.487
307.512
307.538
307.564
307.589
307.617
307.638
307.397
307.412
307.427
307.447
307.467
307.49
307.514
307.539
307.565
307.592
307.619
307.644
307.672
307.692
307.439
307.456
307.473
307.494
307.516
307.54
307.565
307.591
307.618
307.645
307.673
307.699
307.727
307.747
307.476
307.496
307.515
307.538
307.562
307.588
307.615
307.643
307.671
307.699
307.728
307.755
307.784
307.804
307.517
307.538
307.56
307.584
307.61
307.637
307.665
307.693
307.722
307.75
307.779
307.806
307.835
307.86
306.818
306.812
306.812
306.815
306.822
306.831
306.842
306.855
306.869
306.886
306.903
306.921
306.938
306.958
306.862
306.852
306.853
306.856
306.862
306.871
306.881
306.894
306.908
306.924
306.941
306.958
306.975
306.996
306.901
306.892
306.894
306.897
306.904
306.912
306.922
306.935
306.948
306.963
306.979
306.996
307.012
307.032
306.941
306.935
306.936
306.941
306.947
306.955
306.965
306.978
306.991
307.006
307.022
307.038
307.054
307.074
306.981
306.978
306.98
306.984
306.991
307
307.01
307.022
307.036
307.05
307.066
307.082
307.098
307.117
307.023
307.022
307.025
307.03
307.037
307.046
307.057
307.069
307.083
307.098
307.113
307.129
307.145
307.163
307.064
307.066
307.07
307.076
307.084
307.093
307.105
307.118
307.132
307.146
307.162
307.178
307.194
307.211
307.107
307.111
307.116
307.123
307.132
307.142
307.154
307.168
307.182
307.197
307.213
307.229
307.246
307.261
307.15
307.155
307.161
307.17
307.18
307.192
307.205
307.219
307.234
307.249
307.265
307.28
307.298
307.312
307.193
307.2
307.208
307.218
307.229
307.242
307.257
307.271
307.287
307.302
307.318
307.334
307.352
307.365
307.235
307.244
307.253
307.265
307.279
307.293
307.309
307.324
307.34
307.356
307.373
307.388
307.407
307.418
307.278
307.289
307.301
307.314
307.329
307.345
307.361
307.378
307.394
307.411
307.428
307.444
307.463
307.474
307.318
307.332
307.345
307.361
307.378
307.395
307.413
307.431
307.449
307.466
307.484
307.5
307.52
307.53
307.363
307.378
307.394
307.411
307.429
307.447
307.466
307.485
307.503
307.521
307.539
307.556
307.575
307.588
306.776
306.766
306.761
306.757
306.755
306.754
306.755
306.758
306.762
306.767
306.774
306.782
306.79
306.799
306.808
306.798
306.793
306.789
306.787
306.786
306.787
306.79
306.794
306.799
306.805
306.813
306.82
306.83
306.839
306.829
306.825
306.822
306.82
306.82
306.821
306.823
306.827
306.832
306.837
306.844
306.851
306.86
306.871
306.863
306.859
306.856
306.855
306.855
306.856
306.858
306.862
306.866
306.871
306.878
306.884
306.893
306.904
306.897
306.894
306.892
306.891
306.891
306.892
306.895
306.898
306.902
306.907
306.913
306.919
306.928
306.937
306.932
306.93
306.928
306.928
306.928
306.93
306.932
306.936
306.94
306.945
306.95
306.956
306.963
306.971
306.967
306.966
306.965
306.965
306.966
306.968
306.971
306.975
306.979
306.984
306.989
306.995
307.001
307.005
307.003
307.003
307.003
307.004
307.006
307.008
307.011
307.015
307.019
307.025
307.03
307.036
307.041
307.039
307.04
307.04
307.042
307.044
307.046
307.049
307.053
307.057
307.061
307.067
307.072
307.079
307.082
307.075
307.077
307.078
307.081
307.084
307.087
307.091
307.095
307.1
307.105
307.111
307.116
307.123
307.124
307.11
307.115
307.117
307.121
307.125
307.13
307.134
307.139
307.144
307.15
307.156
307.161
307.168
307.167
307.148
307.153
307.157
307.162
307.168
307.173
307.178
307.184
307.19
307.196
307.202
307.208
307.214
307.213
307.185
307.191
307.197
307.204
307.21
307.217
307.223
307.229
307.236
307.242
307.248
307.254
307.26
307.259
307.227
307.232
307.239
307.247
307.254
307.261
307.269
307.275
307.282
307.289
307.295
307.301
307.308
307.309
306.778
306.767
306.759
306.751
306.745
306.738
306.733
306.729
306.725
306.723
306.72
306.719
306.718
306.72
306.801
306.79
306.782
306.774
306.768
306.761
306.756
306.751
306.747
306.744
306.741
306.739
306.737
306.741
306.822
306.811
306.804
306.797
306.79
306.784
306.779
306.774
306.77
306.766
306.763
306.76
306.758
306.761
306.843
306.834
306.827
306.82
306.814
306.808
306.802
306.797
306.793
306.789
306.785
306.783
306.78
306.782
306.865
306.857
306.85
306.844
306.838
306.832
306.827
306.822
306.817
306.813
306.81
306.807
306.804
306.804
306.888
306.88
306.875
306.868
306.863
306.857
306.852
306.847
306.843
306.839
306.835
306.832
306.828
306.826
306.911
306.905
306.899
306.893
306.888
306.883
306.878
306.873
306.869
306.865
306.861
306.857
306.854
306.851
306.935
306.93
306.925
306.92
306.915
306.91
306.905
306.9
306.896
306.892
306.888
306.884
306.88
306.876
306.959
306.955
306.951
306.946
306.942
306.937
306.933
306.928
306.924
306.92
306.916
306.911
306.908
306.903
306.984
306.982
306.978
306.974
306.97
306.966
306.962
306.957
306.953
306.949
306.944
306.94
306.936
306.931
307.011
307.009
307.006
307.003
306.999
306.996
306.992
306.987
306.983
306.979
306.974
306.969
306.966
306.961
307.038
307.038
307.035
307.033
307.029
307.026
307.022
307.018
307.014
307.01
307.006
307
306.998
306.992
307.067
307.067
307.065
307.063
307.061
307.058
307.054
307.05
307.046
307.041
307.037
307.032
307.029
307.023
307.1
307.097
307.095
307.094
307.092
307.089
307.086
307.083
307.079
307.074
307.07
307.065
307.063
307.058
306.792
306.78
306.771
306.761
306.752
306.742
306.734
306.725
306.716
306.708
306.701
306.693
306.686
306.679
306.804
306.793
306.784
306.775
306.765
306.756
306.747
306.737
306.728
306.719
306.711
306.703
306.696
306.689
306.815
306.805
306.796
306.787
306.778
306.768
306.759
306.75
306.741
306.732
306.723
306.715
306.707
306.7
306.827
306.818
306.809
306.8
306.791
306.781
306.772
306.763
306.754
306.744
306.736
306.727
306.718
306.711
306.839
306.83
306.822
306.813
306.804
306.795
306.785
306.776
306.767
306.757
306.748
306.739
306.73
306.722
306.852
306.844
306.835
306.827
306.818
306.808
306.799
306.789
306.78
306.77
306.761
306.752
306.742
306.733
306.865
306.858
306.849
306.841
306.832
306.823
306.813
306.804
306.794
306.784
306.774
306.765
306.755
306.745
306.879
306.872
306.864
306.856
306.847
306.837
306.828
306.818
306.808
306.798
306.788
306.778
306.768
306.758
306.894
306.887
306.879
306.871
306.862
306.853
306.843
306.833
306.823
306.813
306.802
306.792
306.781
306.77
306.909
306.902
306.895
306.887
306.878
306.868
306.858
306.848
306.838
306.827
306.817
306.806
306.795
306.783
306.924
306.918
306.91
306.902
306.893
306.884
306.874
306.864
306.853
306.842
306.832
306.82
306.809
306.796
306.94
306.934
306.927
306.919
306.91
306.901
306.89
306.88
306.869
306.857
306.846
306.834
306.823
306.81
306.957
306.952
306.944
306.936
306.927
306.917
306.907
306.896
306.885
306.873
306.861
306.848
306.837
306.824
306.977
306.968
306.96
306.952
306.944
306.934
306.924
306.913
306.901
306.889
306.877
306.865
306.853
306.84
306.799
306.787
306.777
306.767
306.756
306.744
306.733
306.721
306.709
306.697
306.686
306.674
306.663
306.651
306.801
306.791
306.781
306.771
306.76
306.748
306.737
306.724
306.713
306.7
306.688
306.676
306.665
306.653
306.804
306.794
306.785
306.774
306.763
306.752
306.741
306.728
306.716
306.704
306.692
306.68
306.668
306.656
306.808
306.798
306.789
306.778
306.768
306.756
306.745
306.732
306.72
306.708
306.695
306.683
306.67
306.658
306.811
306.802
306.793
306.782
306.772
306.76
306.748
306.736
306.724
306.711
306.698
306.685
306.673
306.659
306.815
306.806
306.797
306.786
306.775
306.764
306.752
306.739
306.727
306.714
306.701
306.687
306.674
306.661
306.819
306.81
306.801
306.79
306.779
306.767
306.755
306.743
306.73
306.716
306.703
306.689
306.676
306.662
306.823
306.814
306.804
306.794
306.783
306.771
306.758
306.745
306.732
306.718
306.704
306.69
306.676
306.662
306.827
306.818
306.808
306.798
306.786
306.774
306.761
306.748
306.734
306.72
306.706
306.691
306.677
306.662
306.831
306.822
306.812
306.801
306.789
306.777
306.763
306.75
306.735
306.721
306.707
306.692
306.677
306.662
306.836
306.826
306.816
306.804
306.792
306.779
306.765
306.752
306.737
306.722
306.707
306.692
306.676
306.661
306.84
306.83
306.819
306.807
306.795
306.782
306.768
306.753
306.738
306.723
306.707
306.692
306.676
306.66
306.845
306.834
306.823
306.81
306.797
306.784
306.769
306.755
306.739
306.723
306.708
306.692
306.675
306.659
306.849
306.837
306.826
306.813
306.8
306.786
306.771
306.756
306.741
306.725
306.709
306.693
306.677
306.66
306.779
306.769
306.759
306.748
306.736
306.724
306.711
306.697
306.684
306.669
306.655
306.64
306.626
306.61
306.775
306.766
306.756
306.745
306.733
306.721
306.708
306.694
306.68
306.665
306.651
306.635
306.622
306.606
306.77
306.761
306.751
306.74
306.729
306.716
306.703
306.69
306.675
306.661
306.646
306.631
306.616
306.601
306.765
306.756
306.746
306.735
306.724
306.711
306.698
306.684
306.67
306.655
306.641
306.625
306.611
306.595
306.76
306.751
306.741
306.73
306.718
306.706
306.693
306.679
306.664
306.649
306.635
306.619
306.604
306.588
306.754
306.745
306.735
306.724
306.712
306.699
306.686
306.672
306.658
306.642
306.627
306.612
306.596
306.581
306.749
306.74
306.729
306.718
306.706
306.693
306.679
306.665
306.65
306.635
306.619
306.604
306.588
306.572
306.743
306.733
306.722
306.711
306.698
306.685
306.671
306.657
306.642
306.626
306.61
306.595
306.579
306.563
306.737
306.727
306.716
306.704
306.691
306.677
306.663
306.648
306.632
306.617
306.601
306.585
306.568
306.553
306.73
306.72
306.708
306.695
306.682
306.668
306.653
306.638
306.622
306.607
306.59
306.574
306.557
306.542
306.724
306.712
306.7
306.687
306.673
306.659
306.644
306.628
306.612
306.596
306.579
306.563
306.545
306.53
306.717
306.704
306.692
306.678
306.664
306.649
306.633
306.617
306.601
306.585
306.568
306.551
306.534
306.519
306.71
306.696
306.683
306.669
306.654
306.639
306.623
306.606
306.589
306.572
306.555
306.538
306.521
306.505
306.701
306.687
306.674
306.659
306.644
306.628
306.611
306.595
306.578
306.561
306.544
306.528
306.51
306.494
306.71
306.701
306.691
306.681
306.669
306.657
306.644
306.63
306.616
306.6
306.585
306.569
306.554
306.536
306.697
306.689
306.68
306.669
306.658
306.646
306.632
306.619
306.604
306.588
306.573
306.557
306.542
306.525
306.684
306.677
306.667
306.657
306.645
306.633
306.62
306.606
306.592
306.576
306.561
306.545
306.53
306.513
306.671
306.664
306.654
306.643
306.632
306.62
306.607
306.593
306.578
306.563
306.548
306.532
306.516
306.5
306.658
306.65
306.64
306.63
306.618
306.606
306.592
306.578
306.564
306.549
306.534
306.518
306.502
306.486
306.644
306.636
306.625
306.615
306.603
306.59
306.577
306.563
306.549
306.534
306.518
306.502
306.487
306.471
306.63
306.621
306.611
306.6
306.587
306.575
306.561
306.547
306.533
306.518
306.502
306.487
306.471
306.455
306.615
306.606
306.595
306.583
306.571
306.558
306.544
306.53
306.516
306.5
306.485
306.469
306.454
306.438
306.601
306.59
306.579
306.567
306.554
306.541
306.527
306.513
306.498
306.483
306.467
306.452
306.436
306.421
306.585
306.574
306.562
306.55
306.537
306.523
306.509
306.494
306.479
306.464
306.448
306.433
306.417
306.403
306.57
306.557
306.546
306.532
306.519
306.505
306.49
306.475
306.46
306.445
306.429
306.414
306.397
306.384
306.553
306.54
306.527
306.514
306.5
306.486
306.471
306.456
306.441
306.425
306.409
306.394
306.378
306.365
306.538
306.523
306.51
306.496
306.482
306.467
306.452
306.436
306.42
306.404
306.388
306.373
306.357
306.344
306.519
306.504
306.491
306.476
306.462
306.447
306.432
306.416
306.401
306.385
306.37
306.354
306.339
306.325
306.561
306.554
306.546
306.537
306.528
306.518
306.507
306.495
306.482
306.469
306.455
306.441
306.427
306.411
306.542
306.537
306.528
306.52
306.51
306.5
306.489
306.477
306.464
306.451
306.437
306.423
306.409
306.393
306.524
306.519
306.51
306.501
306.492
306.482
306.471
306.459
306.446
306.433
306.42
306.406
306.392
306.377
306.505
306.5
306.491
306.482
306.473
306.462
306.451
306.439
306.427
306.414
306.401
306.387
306.373
306.359
306.487
306.481
306.472
306.463
306.453
306.442
306.431
306.42
306.407
306.395
306.382
306.368
306.355
306.341
306.468
306.461
306.452
306.443
306.432
306.422
306.411
306.399
306.387
306.374
306.361
306.348
306.335
306.321
306.448
306.441
306.431
306.422
306.412
306.401
306.39
306.378
306.366
306.353
306.34
306.327
306.314
306.301
306.428
306.42
306.41
306.4
306.39
306.379
306.368
306.356
306.344
306.332
306.319
306.306
306.293
306.28
306.408
306.399
306.389
306.379
306.368
306.357
306.346
306.334
306.322
306.309
306.297
306.284
306.271
306.26
306.387
306.376
306.367
306.356
306.346
306.334
306.323
306.311
306.299
306.287
306.274
306.262
306.249
306.238
306.366
306.355
306.345
306.334
306.323
306.312
306.3
306.288
306.276
306.264
306.251
306.239
306.226
306.216
306.345
306.332
306.322
306.311
306.3
306.288
306.277
306.265
306.253
306.24
306.228
306.216
306.203
306.194
306.324
306.311
306.3
306.289
306.277
306.265
306.253
306.241
306.229
306.216
306.204
306.192
306.18
306.171
306.3
306.288
306.276
306.265
306.253
306.241
306.23
306.218
306.206
306.193
306.181
306.17
306.158
306.149
306.326
306.322
306.316
306.311
306.305
306.299
306.292
306.285
306.276
306.268
306.258
306.249
306.239
306.228
306.306
306.303
306.297
306.292
306.286
306.28
306.273
306.265
306.256
306.248
306.238
306.228
306.219
306.207
306.287
306.284
306.278
306.272
306.266
306.259
306.252
306.245
306.237
306.228
306.219
306.21
306.2
306.19
306.267
306.264
306.258
306.252
306.246
306.239
306.232
306.224
306.216
306.208
306.199
306.19
306.181
306.17
306.248
306.244
306.237
306.231
306.225
306.218
306.211
306.203
306.195
306.187
306.179
306.17
306.161
306.151
306.228
306.223
306.217
306.21
306.204
306.197
306.19
306.182
306.174
306.166
306.158
306.149
306.141
306.131
306.207
306.202
306.196
306.189
306.183
306.176
306.168
306.161
306.153
306.145
306.137
306.128
306.12
306.111
306.186
306.18
306.174
306.168
306.161
306.154
306.147
306.139
306.131
306.124
306.115
306.107
306.099
306.091
306.165
306.159
306.152
306.146
306.139
306.132
306.125
306.117
306.11
306.102
306.094
306.086
306.078
306.071
306.144
306.136
306.13
306.124
306.117
306.11
306.103
306.095
306.088
306.08
306.072
306.065
306.057
306.05
306.123
306.115
306.108
306.102
306.095
306.088
306.08
306.073
306.065
306.058
306.05
306.043
306.035
306.03
306.101
306.092
306.086
306.079
306.072
306.065
306.058
306.051
306.043
306.036
306.028
306.021
306.014
306.01
306.08
306.071
306.065
306.057
306.05
306.043
306.036
306.028
306.021
306.013
306.006
306
305.992
305.989
306.056
306.049
306.041
306.034
306.027
306.02
306.013
306.006
305.999
305.992
305.985
305.978
305.971
305.968
306.025
306.024
306.022
306.02
306.018
306.016
306.014
306.012
306.009
306.006
306.003
305.999
305.995
305.992
306.007
306.008
306.006
306.004
306.002
306
305.997
305.995
305.992
305.989
305.986
305.982
305.978
305.973
305.991
305.992
305.99
305.987
305.985
305.983
305.981
305.978
305.975
305.972
305.969
305.965
305.962
305.957
305.975
305.975
305.973
305.971
305.968
305.966
305.964
305.961
305.959
305.956
305.952
305.948
305.945
305.94
305.959
305.958
305.956
305.954
305.951
305.949
305.947
305.944
305.941
305.939
305.935
305.932
305.929
305.924
305.942
305.941
305.939
305.937
305.934
305.932
305.93
305.927
305.924
305.922
305.919
305.915
305.912
305.908
305.925
305.924
305.921
305.919
305.917
305.915
305.912
305.91
305.907
305.905
305.902
305.899
305.895
305.892
305.908
305.906
305.904
305.902
305.9
305.897
305.895
305.893
305.89
305.888
305.885
305.882
305.879
305.876
305.891
305.888
305.886
305.884
305.882
305.88
305.878
305.875
305.873
305.871
305.868
305.865
305.862
305.86
305.874
305.87
305.868
305.866
305.864
305.862
305.86
305.858
305.856
305.853
305.851
305.848
305.845
305.844
305.856
305.853
305.851
305.849
305.847
305.845
305.843
305.841
305.839
305.836
305.834
305.831
305.829
305.829
305.839
305.835
305.833
305.831
305.829
305.827
305.825
305.823
305.821
305.819
305.817
305.814
305.812
305.813
305.822
305.818
305.816
305.814
305.812
305.81
305.808
305.806
305.804
305.802
305.8
305.798
305.796
305.798
305.804
305.8
305.798
305.796
305.794
305.792
305.79
305.789
305.787
305.785
305.783
305.782
305.78
305.781
305.686
305.688
305.689
305.69
305.692
305.694
305.696
305.699
305.701
305.703
305.705
305.707
305.71
305.712
305.675
305.677
305.678
305.68
305.682
305.684
305.686
305.688
305.691
305.693
305.695
305.697
305.698
305.699
305.666
305.667
305.668
305.67
305.672
305.674
305.676
305.678
305.68
305.682
305.684
305.685
305.687
305.688
305.655
305.657
305.658
305.66
305.662
305.664
305.666
305.668
305.669
305.671
305.673
305.675
305.676
305.677
305.645
305.646
305.648
305.65
305.651
305.653
305.655
305.657
305.659
305.661
305.663
305.664
305.666
305.667
305.634
305.636
305.637
305.639
305.641
305.643
305.645
305.647
305.649
305.651
305.652
305.654
305.656
305.657
305.623
305.625
305.626
305.628
305.63
305.632
305.634
305.636
305.638
305.64
305.642
305.644
305.645
305.647
305.612
305.614
305.616
305.618
305.62
305.622
305.624
305.626
305.628
305.63
305.632
305.634
305.635
305.637
305.602
305.603
305.605
305.607
305.609
305.611
305.613
305.615
305.618
305.62
305.622
305.624
305.625
305.628
305.591
305.592
305.594
305.596
305.598
305.6
305.603
305.605
305.607
305.609
305.611
305.614
305.616
305.618
305.58
305.581
305.583
305.585
305.587
305.59
305.592
305.594
305.597
305.599
305.601
305.604
305.606
305.609
305.569
305.57
305.572
305.574
305.577
305.579
305.582
305.584
305.587
305.589
305.592
305.594
305.596
305.6
305.559
305.559
305.562
305.564
305.566
305.569
305.571
305.574
305.576
305.579
305.582
305.585
305.587
305.591
305.548
305.549
305.552
305.554
305.556
305.559
305.561
305.564
305.566
305.569
305.572
305.575
305.578
305.581
305.334
305.338
305.341
305.346
305.35
305.354
305.359
305.364
305.369
305.374
305.38
305.385
305.391
305.398
305.33
305.334
305.338
305.342
305.346
305.351
305.356
305.361
305.366
305.371
305.376
305.382
305.387
305.393
305.326
305.331
305.334
305.339
305.343
305.347
305.352
305.357
305.362
305.368
305.373
305.378
305.383
305.388
305.323
305.327
305.331
305.335
305.34
305.344
305.349
305.354
305.359
305.364
305.369
305.374
305.379
305.384
305.319
305.323
305.327
305.331
305.336
305.341
305.345
305.35
305.355
305.36
305.365
305.37
305.376
305.38
305.315
305.319
305.323
305.328
305.332
305.337
305.342
305.347
305.352
305.357
305.362
305.367
305.372
305.377
305.312
305.316
305.32
305.324
305.329
305.334
305.339
305.343
305.348
305.353
305.358
305.363
305.368
305.373
305.308
305.312
305.316
305.321
305.325
305.33
305.335
305.34
305.345
305.35
305.355
305.36
305.365
305.37
305.304
305.308
305.313
305.317
305.322
305.327
305.332
305.337
305.342
305.347
305.352
305.357
305.362
305.367
305.301
305.305
305.309
305.313
305.318
305.323
305.328
305.333
305.338
305.344
305.349
305.354
305.359
305.364
305.297
305.301
305.305
305.31
305.315
305.32
305.325
305.33
305.335
305.341
305.346
305.351
305.357
305.362
305.293
305.297
305.302
305.307
305.311
305.316
305.322
305.327
305.332
305.337
305.343
305.348
305.354
305.359
305.29
305.294
305.298
305.303
305.308
305.313
305.319
305.324
305.33
305.335
305.34
305.346
305.351
305.358
305.287
305.291
305.296
305.301
305.305
305.311
305.316
305.321
305.326
305.332
305.337
305.343
305.349
305.355
304.984
304.989
304.994
304.998
305.003
305.008
305.014
305.02
305.025
305.032
305.038
305.045
304.985
304.99
304.995
305
305.005
305.01
305.016
305.022
305.028
305.034
305.04
305.047
304.987
304.992
304.996
305.001
305.007
305.012
305.018
305.023
305.029
305.036
305.042
305.049
304.989
304.993
304.998
305.003
305.008
305.014
305.02
305.025
305.031
305.037
305.044
305.05
304.99
304.995
305
305.005
305.01
305.016
305.021
305.027
305.033
305.039
305.046
305.052
304.992
304.997
305.002
305.007
305.012
305.018
305.023
305.029
305.035
305.041
305.048
305.054
304.994
304.999
305.004
305.009
305.014
305.02
305.025
305.031
305.037
305.043
305.05
305.056
304.996
305.001
305.006
305.011
305.016
305.022
305.028
305.033
305.039
305.046
305.052
305.058
304.998
305.003
305.008
305.013
305.019
305.024
305.03
305.036
305.042
305.048
305.054
305.06
305
305.005
305.01
305.015
305.021
305.026
305.032
305.038
305.044
305.05
305.057
305.063
305.003
305.007
305.012
305.018
305.023
305.029
305.035
305.041
305.047
305.053
305.059
305.065
305.005
305.01
305.015
305.02
305.026
305.032
305.037
305.044
305.05
305.056
305.062
305.068
305.007
305.012
305.017
305.023
305.028
305.034
305.04
305.047
305.053
305.059
305.065
305.072
305.01
305.015
305.02
305.026
305.032
305.037
305.043
305.049
305.055
305.062
305.068
305.074
308.507
308.509
308.515
308.52
308.526
308.532
308.517
308.524
308.53
308.537
308.545
308.552
308.528
308.537
308.545
308.552
308.559
308.566
308.538
308.548
308.556
308.563
308.569
308.574
308.365
308.357
308.353
308.348
308.345
308.343
308.389
308.384
308.381
308.379
308.38
308.381
308.41
308.406
308.404
308.403
308.404
308.405
308.429
308.425
308.423
308.421
308.421
308.42
308.445
308.44
308.437
308.433
308.43
308.426
308.458
308.453
308.447
308.44
308.433
308.424
308.47
308.463
308.454
308.443
308.431
308.417
308.161
308.138
308.123
308.105
308.09
308.076
308.197
308.176
308.161
308.145
308.133
308.123
308.225
308.205
308.191
308.177
308.167
308.158
308.252
308.232
308.218
308.203
308.193
308.184