/*--------------------------------*- C++ -*----------------------------------*\
| =========                 |                                                 |
| \\      /  F ield         | OpenFOAM: The Open Source CFD Toolbox           |
|  \\    /   O peration     | Version:  v2106                                 |
|   \\  /    A nd           | Website:  www.openfoam.com                      |
|    \\/     M anipulation  |                                                 |
\*---------------------------------------------------------------------------*/
FoamFile
{
    version     2.0;
    format      ascii;
    arch        "LSB;label=32;scalar=64";
    class       volScalarField;
    location    "0.000171";
    object      rho;
}
// * * * * * * * * * * * * * * * * * * * * * * * * * * * * * * * * * * * * * //

dimensions      [1 -3 0 0 0 0 0];

internalField   nonuniform List<scalar> 
18109
(
2.48121
2.47959
2.47857
2.4779
2.47739
2.47732
2.47791
2.47666
2.47613
2.47525
2.47492
2.47457
2.47482
2.47562
2.47225
2.47258
2.47218
2.47218
2.47205
2.47238
2.47314
2.46847
2.46913
2.46912
2.46915
2.46907
2.46939
2.47018
2.46492
2.46599
2.46624
2.46633
2.46635
2.46669
2.46748
2.46196
2.4634
2.46387
2.464
2.46402
2.46432
2.46507
2.45987
2.46138
2.46204
2.46218
2.46225
2.46252
2.46316
2.4587
2.46013
2.46087
2.46097
2.46107
2.46124
2.46169
2.49257
2.49222
2.49217
2.49236
2.4926
2.493
2.4939
2.49516
2.49698
2.49926
2.50184
2.50499
2.50817
2.51081
2.48805
2.48854
2.48864
2.48918
2.48961
2.49035
2.49145
2.49302
2.49505
2.49751
2.50022
2.50276
2.50538
2.50702
2.48383
2.48502
2.48559
2.4864
2.48695
2.48779
2.4889
2.4905
2.49251
2.49493
2.49757
2.50023
2.50262
2.50429
2.48003
2.48176
2.48255
2.48334
2.48388
2.48473
2.48591
2.48763
2.48978
2.49236
2.49514
2.4979
2.50016
2.50148
2.47673
2.47876
2.47974
2.48051
2.4811
2.48199
2.4832
2.48496
2.48714
2.48977
2.49257
2.49531
2.4976
2.49887
2.47428
2.47639
2.47748
2.47816
2.47875
2.47957
2.48073
2.48244
2.48461
2.48724
2.49
2.49264
2.49486
2.49598
2.47253
2.47458
2.47572
2.47635
2.47695
2.47765
2.47868
2.48025
2.48228
2.48475
2.48736
2.48983
2.49196
2.49302
2.47169
2.47356
2.47467
2.47519
2.47568
2.47618
2.47699
2.47828
2.48006
2.48227
2.48466
2.48696
2.48888
2.49
2.47149
2.47317
2.4742
2.47459
2.47486
2.47512
2.4756
2.47653
2.47793
2.47979
2.4819
2.484
2.48574
2.48698
2.4718
2.47319
2.47403
2.47425
2.47426
2.4742
2.47429
2.4748
2.47576
2.47722
2.47902
2.48091
2.48257
2.48402
2.4722
2.47327
2.47374
2.47379
2.47351
2.47313
2.47284
2.47295
2.47348
2.47454
2.47603
2.47778
2.47936
2.48158
2.47255
2.47342
2.47325
2.47293
2.47229
2.47159
2.47089
2.47063
2.47082
2.47156
2.47281
2.47445
2.47632
2.47901
2.47248
2.47317
2.47256
2.47156
2.47025
2.46905
2.46792
2.46734
2.46737
2.46805
2.46928
2.47118
2.47354
2.47726
2.47268
2.47262
2.47102
2.46972
2.46746
2.46538
2.46369
2.46289
2.4628
2.46359
2.46494
2.46725
2.46999
2.4742
2.48477
2.4888
2.49108
2.49399
2.49467
2.49577
2.4961
2.4998
2.50183
2.5048
2.50579
2.50694
2.49375
2.49637
2.49802
2.49978
2.49931
2.49923
2.49388
2.49558
2.49616
2.49586
2.49348
2.49232
2.49365
2.49445
2.49354
2.49098
2.4866
2.48489
2.49368
2.49361
2.49183
2.48837
2.48462
2.4849
2.49394
2.49329
2.49138
2.48802
2.48672
2.48988
2.49485
2.49421
2.49306
2.4908
2.49175
2.49871
2.4963
2.49633
2.49631
2.49614
2.50039
2.51028
2.49857
2.49993
2.50134
2.50394
2.51143
2.52247
2.50165
2.50438
2.50763
2.5124
2.52271
2.53369
2.50512
2.50896
2.5139
2.52114
2.53188
2.54084
2.50832
2.51313
2.51929
2.52765
2.53664
2.54357
2.51182
2.51687
2.52274
2.52979
2.53638
2.54197
2.51331
2.51794
2.52212
2.52737
2.53173
2.53639
2.51434
2.51877
2.5218
2.52427
2.5258
2.52943
2.5079
2.51068
2.5121
2.51377
2.51526
2.51806
2.50496
2.50642
2.50594
2.50534
2.50498
2.50653
2.5016
2.50135
2.49936
2.49757
2.49687
2.49961
2.49866
2.4977
2.49525
2.49206
2.49107
2.49553
2.49568
2.49455
2.49202
2.48936
2.49061
2.49759
2.49288
2.49223
2.49058
2.48958
2.493
2.50066
2.49019
2.49008
2.48943
2.49073
2.4965
2.50454
2.48766
2.48774
2.48881
2.492
2.5003
2.50793
2.48522
2.48584
2.48811
2.49425
2.50321
2.50989
2.48325
2.48446
2.4886
2.49574
2.50424
2.51004
2.48113
2.48319
2.48839
2.49512
2.50206
2.50715
2.48046
2.48219
2.48683
2.49124
2.49608
2.50114
2.47524
2.47684
2.47911
2.48188
2.48493
2.4892
2.47521
2.47771
2.47831
2.47817
2.47713
2.47659
2.46758
2.4674
2.4657
2.46357
2.46172
2.46263
2.46358
2.46061
2.45693
2.45278
2.4499
2.45205
2.45965
2.45444
2.44888
2.44358
2.44087
2.44587
2.45732
2.45048
2.44333
2.43846
2.43731
2.44381
2.45599
2.44812
2.44037
2.43702
2.437
2.44285
2.45621
2.44817
2.44169
2.43886
2.44119
2.44561
2.45766
2.45091
2.44636
2.44524
2.45018
2.45332
2.46041
2.45541
2.45308
2.45574
2.46115
2.46431
2.4636
2.46113
2.46156
2.46637
2.47279
2.47579
2.46731
2.46715
2.47006
2.47555
2.48216
2.48485
2.46996
2.47143
2.47533
2.48054
2.48541
2.48786
2.47328
2.47497
2.4784
2.48166
2.48434
2.48627
2.4719
2.47371
2.4754
2.47711
2.47767
2.47836
2.46891
2.4711
2.47592
2.4854
2.49661
2.50476
2.47379
2.47729
2.4829
2.49231
2.50131
2.5079
2.47891
2.4829
2.48826
2.49528
2.50178
2.50718
2.48198
2.48634
2.48972
2.49446
2.4986
2.50252
2.47387
2.47556
2.4757
2.475
2.47272
2.4706
2.47105
2.47152
2.46952
2.467
2.46303
2.4611
2.47053
2.4694
2.46528
2.46003
2.45386
2.45143
2.46948
2.46625
2.4604
2.45355
2.44817
2.4475
2.46847
2.46385
2.45719
2.45027
2.44687
2.44942
2.46795
2.46254
2.45596
2.45053
2.44897
2.45496
2.4682
2.46285
2.4569
2.4541
2.45544
2.46329
2.46946
2.46494
2.46097
2.45958
2.46551
2.47355
2.47188
2.46877
2.46646
2.46877
2.47721
2.48534
2.47511
2.47391
2.47381
2.4792
2.48866
2.49771
2.4793
2.47989
2.48247
2.48948
2.49955
2.50786
2.48413
2.48613
2.49
2.49776
2.50661
2.51341
2.48913
2.49195
2.49643
2.50283
2.50897
2.51386
2.49252
2.49634
2.49946
2.50408
2.50802
2.51155
2.51486
2.543
2.61662
2.76067
2.96418
2.50604
2.53782
2.61933
2.76239
2.98028
2.49786
2.53928
2.61351
2.7506
2.99132
2.4946
2.53346
2.59291
2.71946
2.94798
2.49826
2.53045
2.57607
2.67991
2.86647
2.50473
2.52666
2.55882
2.64491
2.80635
2.5144
2.52905
2.55494
2.64466
2.82739
2.52519
2.53382
2.55711
2.63929
2.81025
3.06154
2.53419
2.53973
2.55787
2.62227
2.7621
2.97836
2.54273
2.54781
2.56887
2.63084
2.75671
2.95036
2.54876
2.55715
2.58299
2.65149
2.78718
2.97637
3.11491
2.55114
2.56597
2.59902
2.68065
2.83222
3.04108
3.25085
3.38299
2.55182
2.57183
2.6125
2.70418
2.88882
3.15985
3.48896
3.84694
2.54815
2.57243
2.62227
2.72503
2.91635
3.17861
3.46313
3.68933
2.54217
2.57322
2.63844
2.75861
2.93376
3.14014
3.33807
3.44133
2.53132
2.57085
2.65251
2.77937
2.95284
3.17947
3.33878
3.44414
2.52264
2.57454
2.65486
2.77387
2.96617
3.23772
3.51637
3.62981
2.51868
2.5674
2.6311
2.73798
2.9232
3.1917
3.47258
3.77324
2.51769
2.5513
2.59594
2.68374
2.83947
3.06976
3.30776
3.44392
2.51596
2.53446
2.56779
2.64887
2.7981
3.02889
3.21964
3.32723
2.51308
2.51993
2.54934
2.63694
2.81254
3.10158
3.34851
3.45072
2.51121
2.51258
2.54221
2.62804
2.79569
3.05871
3.35041
3.67893
2.5113
2.51304
2.54167
2.61578
2.76051
2.96446
2.51384
2.52254
2.5597
2.64655
2.79978
2.99138
2.51585
2.53641
2.58826
2.69612
2.86486
3.06678
2.51819
2.55004
2.61747
2.74869
2.94478
3.16804
2.51554
2.55243
2.63568
2.78959
3.01977
3.31734
2.50544
2.54658
2.63779
2.79098
3.02077
2.49146
2.53854
2.62392
2.75404
2.94794
2.4771
2.5199
2.58982
2.71655
2.92322
2.46935
2.50042
2.55829
2.68894
2.93081
2.45746
2.47512
2.52357
2.64042
2.86539
2.44739
2.45392
2.49392
2.59315
2.77148
2.44056
2.43906
2.47307
2.57283
2.75269
2.44107
2.4376
2.47404
2.58022
2.80399
2.44851
2.44394
2.48015
2.58163
2.78904
2.46116
2.46166
2.4973
2.59025
2.762
2.47404
2.48492
2.52947
2.63157
2.81197
2.48589
2.50682
2.56691
2.69284
2.9016
2.49655
2.52375
2.59632
2.7472
2.98923
2.49654
2.52703
2.61484
2.78381
3.06313
2.48962
2.52484
2.61907
2.77982
3.05617
2.47866
2.51666
2.59734
2.7378
2.96542
2.46681
2.49886
2.56103
2.69203
2.92713
2.46178
2.4856
2.53711
2.67231
2.94894
2.45787
2.47022
2.51406
2.64074
2.89363
2.45691
2.46203
2.5012
2.61348
2.82829
2.45886
2.45836
2.49063
2.59035
2.78525
2.46613
2.46389
2.49593
2.60599
2.83324
2.47671
2.47448
2.50647
2.61016
2.82114
2.48936
2.48953
2.51713
2.59921
2.77618
2.50273
2.50843
2.53845
2.62128
2.79959
2.5136
2.52509
2.55962
2.64824
2.84376
2.52118
2.53734
2.5798
2.67927
2.89799
2.52434
2.54445
2.58881
2.70406
2.94965
2.5215
2.54275
2.60032
2.73429
2.97766
2.51712
2.51867
2.51985
2.52063
2.52134
2.52186
2.52272
2.52387
2.52555
2.52768
2.53013
2.53271
2.53548
2.53795
2.51271
2.515
2.51637
2.51753
2.51842
2.51935
2.52046
2.52189
2.52375
2.52608
2.52859
2.53119
2.53334
2.53516
2.50847
2.51143
2.51308
2.51456
2.5156
2.51674
2.51797
2.51956
2.52149
2.52381
2.52626
2.52878
2.53102
2.53283
2.50485
2.50812
2.50988
2.51138
2.51249
2.51377
2.51516
2.51692
2.519
2.52144
2.52403
2.52664
2.52889
2.53045
2.50206
2.50526
2.50713
2.50863
2.5098
2.51113
2.51259
2.51443
2.51662
2.51918
2.5219
2.52461
2.52689
2.52842
2.50002
2.50302
2.50494
2.50639
2.50753
2.50881
2.51026
2.51214
2.5144
2.51703
2.51985
2.52259
2.52489
2.52635
2.4987
2.50156
2.50344
2.50475
2.50578
2.50692
2.50827
2.51008
2.51232
2.51496
2.51781
2.52053
2.52284
2.52427
2.49833
2.50092
2.50258
2.50361
2.50439
2.5053
2.50646
2.50812
2.51028
2.51288
2.51568
2.51836
2.52063
2.52212
2.4986
2.50083
2.50217
2.50288
2.50335
2.50395
2.50483
2.50624
2.50822
2.51068
2.51338
2.51597
2.51819
2.51979
2.49936
2.50109
2.50197
2.50225
2.50232
2.50255
2.50308
2.50419
2.50593
2.5082
2.51074
2.51324
2.51543
2.51715
2.50009
2.50132
2.50154
2.50139
2.50103
2.50089
2.50109
2.5019
2.50337
2.50545
2.50782
2.51027
2.51236
2.5144
2.50046
2.50104
2.50056
2.49995
2.49906
2.49858
2.49851
2.4991
2.50034
2.50226
2.50444
2.50678
2.50875
2.51137
2.50028
2.50033
2.49905
2.49774
2.4962
2.49533
2.49506
2.49555
2.49668
2.4986
2.50078
2.50331
2.5055
2.50904
2.49943
2.49896
2.49668
2.49473
2.49233
2.49091
2.49044
2.49094
2.49216
2.49433
2.49657
2.49932
2.50147
2.5053
2.56324
2.56666
2.56898
2.57054
2.5715
2.57215
2.57274
2.57357
2.57488
2.57677
2.5791
2.58155
2.58409
2.58568
2.55943
2.56348
2.56586
2.56768
2.56884
2.56977
2.57064
2.57182
2.57341
2.57549
2.57793
2.58045
2.58291
2.5849
2.55595
2.56017
2.56266
2.56463
2.56598
2.56716
2.5683
2.56972
2.57151
2.57369
2.57613
2.57858
2.58098
2.58294
2.55323
2.55723
2.55978
2.56176
2.5632
2.56453
2.56587
2.5675
2.56948
2.5718
2.57434
2.57688
2.57928
2.58129
2.55135
2.55506
2.55755
2.55946
2.5609
2.56226
2.5637
2.56544
2.56756
2.56999
2.57265
2.5753
2.57771
2.57968
2.55028
2.5537
2.55605
2.55778
2.55913
2.56043
2.56189
2.56368
2.56589
2.56843
2.57121
2.57395
2.57635
2.57821
2.5501
2.55317
2.55524
2.55669
2.55784
2.55898
2.56039
2.56219
2.56447
2.56711
2.56998
2.57278
2.57514
2.57696
2.55056
2.55324
2.55492
2.55598
2.55682
2.55775
2.55904
2.56082
2.56314
2.56588
2.56884
2.57168
2.57404
2.57583
2.55141
2.55363
2.55484
2.55548
2.55597
2.55663
2.55774
2.55944
2.56179
2.5646
2.56763
2.5705
2.5729
2.57471
2.55248
2.55404
2.55466
2.55481
2.55493
2.5553
2.55619
2.55779
2.56014
2.563
2.56607
2.56898
2.57144
2.5733
2.55321
2.55413
2.55407
2.55371
2.55343
2.55352
2.55422
2.55571
2.55805
2.56094
2.56402
2.56695
2.56942
2.57142
2.55331
2.55341
2.55275
2.55181
2.5511
2.55099
2.55157
2.55303
2.55539
2.55834
2.56143
2.56441
2.56682
2.56897
2.5524
2.55211
2.55067
2.54899
2.54774
2.54749
2.54809
2.54967
2.55211
2.55518
2.55832
2.56149
2.56387
2.56671
2.55032
2.54951
2.54686
2.54475
2.54318
2.54288
2.5436
2.54544
2.54814
2.55151
2.5547
2.55799
2.56019
2.5634
2.60567
2.60908
2.61145
2.61329
2.6145
2.61544
2.61626
2.61729
2.61875
2.62066
2.62308
2.62572
2.6286
2.631
2.6033
2.60672
2.60908
2.61093
2.61224
2.61331
2.61433
2.61562
2.61735
2.61952
2.62212
2.62493
2.62775
2.63046
2.60147
2.60476
2.60705
2.60884
2.61017
2.61133
2.61252
2.61399
2.61589
2.6182
2.62088
2.62371
2.62653
2.62925
2.60036
2.60333
2.60546
2.60711
2.60838
2.60956
2.61084
2.61243
2.61446
2.61688
2.61962
2.6225
2.6253
2.62802
2.59998
2.60257
2.60444
2.60588
2.60704
2.60819
2.60951
2.61116
2.61325
2.61573
2.61851
2.62141
2.62419
2.62684
2.60021
2.60241
2.60396
2.60511
2.60611
2.60717
2.60849
2.61018
2.61231
2.61485
2.61767
2.62059
2.62335
2.62588
2.60088
2.6027
2.60391
2.60475
2.60553
2.60646
2.60774
2.60946
2.61165
2.61425
2.61713
2.62007
2.62278
2.62514
2.60183
2.60324
2.60407
2.60459
2.60512
2.6059
2.60712
2.60887
2.61114
2.61384
2.61679
2.61977
2.62244
2.62463
2.60282
2.60386
2.60425
2.60446
2.60477
2.6054
2.60657
2.60834
2.6107
2.61353
2.61659
2.61962
2.62229
2.62438
2.60369
2.6042
2.60414
2.60407
2.60421
2.60473
2.60585
2.60768
2.61018
2.61316
2.61633
2.61942
2.6221
2.62418
2.60398
2.60403
2.60364
2.60325
2.60324
2.60369
2.60482
2.60675
2.60941
2.61257
2.61586
2.61901
2.62168
2.62382
2.6037
2.60339
2.6025
2.60176
2.6016
2.60206
2.60331
2.60544
2.60833
2.6117
2.61511
2.61835
2.62099
2.62331
2.6024
2.6018
2.60048
2.59948
2.59925
2.59981
2.60128
2.60371
2.6069
2.61052
2.61405
2.6174
2.61999
2.62261
2.60045
2.59923
2.59748
2.59632
2.5961
2.59685
2.59866
2.60151
2.60508
2.60898
2.61262
2.61607
2.61863
2.62148
2.64572
2.648
2.64961
2.65109
2.65237
2.65357
2.65485
2.65635
2.65819
2.66038
2.66287
2.66555
2.66843
2.67121
2.64517
2.64704
2.64851
2.64982
2.651
2.65219
2.65354
2.65519
2.65723
2.65966
2.6624
2.66541
2.66835
2.67141
2.64487
2.64655
2.64783
2.64894
2.64999
2.65113
2.6525
2.65424
2.6564
2.65897
2.66184
2.66492
2.66793
2.67101
2.64515
2.64654
2.64761
2.64849
2.64937
2.65041
2.65176
2.65353
2.65574
2.65838
2.66131
2.66442
2.66743
2.67052
2.64588
2.6469
2.64772
2.64838
2.64909
2.65002
2.65132
2.65309
2.65531
2.65797
2.66091
2.66402
2.66702
2.67005
2.64682
2.6475
2.64802
2.64845
2.64902
2.64986
2.65113
2.65289
2.65512
2.65778
2.66071
2.6638
2.66675
2.66969
2.64788
2.64823
2.64848
2.64869
2.64911
2.64989
2.65114
2.65291
2.65516
2.65783
2.66076
2.6638
2.66669
2.6695
2.64892
2.64895
2.64894
2.64899
2.64929
2.65001
2.65126
2.65307
2.65537
2.65808
2.66102
2.66404
2.66685
2.66949
2.64974
2.64957
2.64931
2.64921
2.64946
2.65017
2.65146
2.65336
2.65576
2.65855
2.66153
2.66453
2.66728
2.66974
2.65027
2.64987
2.6494
2.6492
2.64946
2.65023
2.65163
2.65369
2.65625
2.65917
2.66221
2.6652
2.66787
2.67021
2.65045
2.64978
2.64914
2.6489
2.64921
2.65009
2.65166
2.65394
2.65672
2.65981
2.66294
2.66594
2.66853
2.67074
2.6501
2.64923
2.64845
2.64821
2.64862
2.64969
2.65151
2.65409
2.65716
2.66046
2.66369
2.66672
2.66922
2.67135
2.64921
2.64826
2.64741
2.64719
2.64773
2.64903
2.65116
2.65409
2.65748
2.66101
2.66435
2.6674
2.66983
2.67198
2.6476
2.64663
2.6457
2.64558
2.64632
2.64802
2.65061
2.65398
2.65773
2.66149
2.66494
2.66795
2.67037
2.67246
2.67867
2.67887
2.67912
2.67966
2.68044
2.68153
2.68296
2.68474
2.68682
2.68918
2.69168
2.69428
2.69686
2.69954
2.67871
2.67878
2.67893
2.67937
2.6801
2.68116
2.68263
2.68451
2.68673
2.68926
2.69189
2.69466
2.69725
2.69998
2.67896
2.67894
2.67904
2.67941
2.68007
2.6811
2.68255
2.68444
2.68669
2.68927
2.69196
2.69477
2.69742
2.70015
2.67952
2.67937
2.67942
2.67969
2.68027
2.68125
2.68267
2.68457
2.68684
2.68945
2.69217
2.69501
2.69765
2.70037
2.68023
2.67998
2.67997
2.68017
2.68069
2.68161
2.683
2.68489
2.68716
2.68976
2.69249
2.69531
2.69795
2.70062
2.68104
2.68071
2.68064
2.68079
2.68127
2.68217
2.68355
2.68541
2.68766
2.69023
2.69293
2.69571
2.69831
2.70091
2.68184
2.68147
2.68137
2.6815
2.68198
2.6829
2.68428
2.68613
2.68835
2.69089
2.69353
2.69625
2.69878
2.7013
2.68255
2.68217
2.68207
2.68223
2.68275
2.68372
2.68515
2.68703
2.68924
2.69173
2.69431
2.69695
2.6994
2.70182
2.68311
2.68275
2.68269
2.68291
2.68352
2.68459
2.68611
2.68806
2.6903
2.69277
2.69529
2.69785
2.70021
2.70253
2.68345
2.68315
2.68318
2.68351
2.68427
2.68549
2.68717
2.68925
2.69156
2.69405
2.69653
2.699
2.70125
2.70345
2.68365
2.68343
2.68355
2.68402
2.68497
2.6864
2.68828
2.69054
2.69297
2.69551
2.69797
2.70036
2.7025
2.70457
2.68368
2.68359
2.6838
2.68446
2.68563
2.68732
2.68947
2.69194
2.69454
2.69715
2.69961
2.70193
2.70396
2.70586
2.6836
2.68369
2.68399
2.68486
2.68629
2.68828
2.69073
2.69346
2.69624
2.69894
2.70138
2.70362
2.7055
2.70731
2.68342
2.68373
2.68406
2.6852
2.68693
2.68927
2.69204
2.69504
2.698
2.70075
2.7032
2.70532
2.70716
2.70878
2.70002
2.69963
2.69945
2.69961
2.70013
2.70104
2.70232
2.70396
2.70577
2.70777
2.70976
2.71181
2.71371
2.71581
2.70001
2.69966
2.69953
2.69974
2.70028
2.70125
2.7026
2.70432
2.70625
2.70837
2.71045
2.7126
2.71453
2.71659
2.70009
2.69982
2.69977
2.70001
2.7006
2.70163
2.70304
2.70482
2.70678
2.70892
2.71103
2.71318
2.71513
2.7172
2.70038
2.70018
2.70019
2.70048
2.70114
2.70223
2.70371
2.70554
2.70754
2.70971
2.71184
2.71398
2.71593
2.71796
2.70083
2.7007
2.70077
2.70114
2.70188
2.70303
2.70454
2.70639
2.70841
2.71057
2.7127
2.71482
2.71676
2.71874
2.70147
2.70142
2.70155
2.702
2.70281
2.70402
2.70556
2.70741
2.70941
2.71155
2.71365
2.71573
2.71764
2.71955
2.70228
2.70231
2.70252
2.70306
2.70395
2.7052
2.70675
2.70858
2.71055
2.71263
2.71467
2.71669
2.71855
2.7204
2.70323
2.70337
2.70367
2.7043
2.70526
2.70656
2.70813
2.70993
2.71184
2.71384
2.7158
2.71773
2.71953
2.72131
2.70426
2.70451
2.70492
2.70566
2.70671
2.70807
2.70965
2.71143
2.71329
2.7152
2.71706
2.71888
2.72061
2.72231
2.70532
2.70572
2.70626
2.70712
2.70829
2.70972
2.71136
2.71313
2.71494
2.71676
2.7185
2.72021
2.72185
2.72346
2.70643
2.70699
2.70766
2.70867
2.70998
2.71153
2.71323
2.71502
2.71679
2.71853
2.72016
2.72176
2.72328
2.72481
2.70762
2.70838
2.70917
2.71033
2.71179
2.71346
2.71525
2.71708
2.71882
2.72049
2.72203
2.72352
2.72495
2.72635
2.70883
2.70977
2.7107
2.71204
2.71368
2.71551
2.71743
2.71932
2.72107
2.72268
2.7241
2.72548
2.72677
2.72813
2.71025
2.71145
2.71246
2.71398
2.71576
2.71772
2.71972
2.72165
2.72338
2.72492
2.72627
2.72752
2.72878
2.73001
2.71218
2.71243
2.7126
2.71313
2.71387
2.71486
2.71601
2.71734
2.71869
2.72009
2.7214
2.72275
2.72394
2.7254
2.71229
2.71264
2.7129
2.71352
2.71435
2.71546
2.71674
2.71818
2.71964
2.72113
2.7225
2.7239
2.72513
2.72648
2.7126
2.71293
2.71333
2.71407
2.71504
2.71625
2.71762
2.71913
2.72063
2.72214
2.72354
2.72492
2.72613
2.72749
2.71311
2.71347
2.71399
2.71483
2.71591
2.71722
2.71868
2.72025
2.7218
2.72334
2.72474
2.72612
2.72732
2.72863
2.71386
2.71425
2.71488
2.71581
2.71698
2.71836
2.71988
2.72148
2.72306
2.7246
2.726
2.72735
2.72852
2.72977
2.71486
2.7153
2.71601
2.71701
2.71825
2.71968
2.72122
2.72283
2.7244
2.72592
2.72731
2.72861
2.72975
2.73092
2.7161
2.71661
2.71738
2.71844
2.7197
2.72115
2.72269
2.72428
2.72582
2.72729
2.72864
2.72988
2.73098
2.73208
2.71759
2.71817
2.71899
2.72007
2.72135
2.72278
2.72429
2.72583
2.72731
2.72871
2.72999
2.73115
2.73221
2.73323
2.71925
2.71994
2.72079
2.72189
2.72317
2.72457
2.72603
2.72749
2.72889
2.73019
2.73138
2.73246
2.73347
2.73441
2.72105
2.72189
2.72275
2.72387
2.72514
2.7265
2.72789
2.72925
2.73055
2.73174
2.73283
2.7338
2.73477
2.73564
2.72293
2.72392
2.72481
2.72596
2.72723
2.72856
2.72988
2.73115
2.73232
2.73339
2.73437
2.73526
2.73616
2.73697
2.7249
2.72606
2.72699
2.72817
2.72942
2.73071
2.73195
2.73312
2.73418
2.73512
2.736
2.7368
2.73766
2.73839
2.72682
2.7281
2.72909
2.73033
2.73162
2.7329
2.7341
2.73519
2.73614
2.73699
2.73774
2.73848
2.73925
2.73997
2.72892
2.73031
2.73135
2.73263
2.73391
2.73514
2.73627
2.73727
2.73812
2.73886
2.73954
2.74018
2.74094
2.74158
2.71882
2.71982
2.72057
2.72148
2.72239
2.72333
2.72423
2.72512
2.7259
2.72669
2.72736
2.72807
2.72865
2.72946
2.71972
2.72058
2.72134
2.72227
2.72323
2.72424
2.72521
2.72617
2.72703
2.72787
2.72859
2.72933
2.72996
2.73069
2.72072
2.72145
2.72226
2.72322
2.72423
2.72528
2.72631
2.7273
2.7282
2.72905
2.72978
2.73051
2.7311
2.73184
2.72179
2.72245
2.72329
2.72428
2.72532
2.72641
2.72747
2.7285
2.72942
2.73029
2.73103
2.73174
2.73233
2.73304
2.72297
2.72359
2.72446
2.72545
2.72651
2.72761
2.7287
2.72975
2.73069
2.73156
2.73229
2.73298
2.73356
2.73422
2.72428
2.72489
2.72575
2.72673
2.72779
2.7289
2.72999
2.73103
2.73198
2.73282
2.73355
2.7342
2.73476
2.73537
2.7257
2.72631
2.72715
2.72812
2.72916
2.73025
2.73133
2.73235
2.73327
2.73409
2.73479
2.7354
2.73595
2.73649
2.72723
2.72786
2.72867
2.72961
2.73063
2.73167
2.73271
2.73368
2.73456
2.73533
2.736
2.73656
2.7371
2.73758
2.72883
2.72951
2.73028
2.73119
2.73216
2.73315
2.73412
2.73503
2.73586
2.73657
2.7372
2.73773
2.73824
2.73867
2.73046
2.73122
2.73195
2.73283
2.73374
2.73466
2.73556
2.73639
2.73715
2.7378
2.73839
2.73887
2.73938
2.73975
2.73209
2.73293
2.73363
2.73448
2.73534
2.73619
2.73701
2.73777
2.73846
2.73905
2.7396
2.74005
2.74054
2.74088
2.73369
2.73462
2.7353
2.73613
2.73692
2.73771
2.73846
2.73914
2.73977
2.74031
2.74082
2.74125
2.74174
2.74203
2.73519
2.73618
2.73685
2.73768
2.73845
2.7392
2.7399
2.74054
2.74112
2.74162
2.74209
2.74251
2.74296
2.74328
2.7367
2.73769
2.7384
2.73921
2.73997
2.74069
2.74135
2.74194
2.74247
2.74293
2.74338
2.74379
2.74426
2.74457
2.72147
2.72252
2.72337
2.72423
2.72505
2.7258
2.72646
2.72706
2.72754
2.72804
2.72843
2.72887
2.72922
2.72969
2.72299
2.72371
2.7245
2.72533
2.72614
2.72691
2.7276
2.72822
2.72873
2.72924
2.72964
2.7301
2.73046
2.73097
2.72431
2.72492
2.72571
2.72652
2.72732
2.72809
2.72878
2.72942
2.72995
2.73046
2.73087
2.73132
2.73166
2.73217
2.72564
2.72615
2.72694
2.72771
2.7285
2.72926
2.72997
2.73061
2.73116
2.73168
2.7321
2.73254
2.73288
2.73337
2.72689
2.72739
2.72817
2.72892
2.7297
2.73045
2.73116
2.73181
2.73237
2.73289
2.73332
2.73375
2.73409
2.73454
2.72817
2.72868
2.72942
2.73014
2.7309
2.73164
2.73234
2.73299
2.73356
2.73407
2.73451
2.73492
2.73526
2.73567
2.72943
2.72996
2.73067
2.73138
2.73212
2.73284
2.73353
2.73417
2.73474
2.73524
2.73567
2.73605
2.73639
2.73675
2.73072
2.73128
2.73195
2.73264
2.73335
2.73405
2.73471
2.73533
2.73588
2.73636
2.73679
2.73714
2.73747
2.73777
2.73199
2.73259
2.73322
2.7339
2.73458
2.73525
2.73589
2.73648
2.73702
2.73747
2.73788
2.73821
2.73852
2.73876
2.73326
2.7339
2.7345
2.73516
2.7358
2.73644
2.73705
2.7376
2.73811
2.73854
2.73893
2.73922
2.73953
2.73971
2.73449
2.73517
2.73573
2.73638
2.73699
2.73759
2.73818
2.7387
2.73919
2.73959
2.73996
2.74023
2.74051
2.74064
2.73563
2.73638
2.73693
2.73756
2.73814
2.73872
2.73927
2.73976
2.74023
2.7406
2.74095
2.7412
2.74148
2.74156
2.73667
2.73745
2.73798
2.73863
2.7392
2.73977
2.74031
2.74079
2.74125
2.74161
2.74195
2.74219
2.74244
2.74253
2.73764
2.73842
2.73901
2.73964
2.74023
2.74079
2.74132
2.74178
2.74221
2.74256
2.7429
2.74315
2.74345
2.74351
2.72112
2.72192
2.72271
2.72347
2.72417
2.72481
2.72536
2.72585
2.72622
2.72656
2.7268
2.72706
2.72722
2.72741
2.72269
2.72328
2.72405
2.72473
2.7254
2.726
2.72653
2.727
2.72736
2.72769
2.72791
2.72816
2.72831
2.72854
2.72412
2.7246
2.72538
2.72602
2.72663
2.72719
2.72769
2.72812
2.72845
2.72875
2.72895
2.72918
2.72932
2.72954
2.72547
2.72589
2.72663
2.72721
2.7278
2.72833
2.7288
2.72921
2.72953
2.72981
2.73001
2.73022
2.73036
2.73058
2.72666
2.7271
2.72779
2.72834
2.72891
2.72941
2.72986
2.73024
2.73055
2.73082
2.73102
2.73122
2.73137
2.7316
2.7278
2.72826
2.72891
2.72943
2.72997
2.73044
2.73086
2.73123
2.73154
2.7318
2.73201
2.7322
2.73235
2.73257
2.72883
2.72932
2.72992
2.73043
2.73095
2.7314
2.73181
2.73217
2.73247
2.73273
2.73295
2.73313
2.7333
2.73351
2.72978
2.73031
2.73087
2.73138
2.73187
2.73231
2.73271
2.73306
2.73337
2.73363
2.73385
2.73404
2.73422
2.7344
2.73063
2.7312
2.73172
2.73223
2.73272
2.73316
2.73357
2.73393
2.73425
2.73451
2.73474
2.73492
2.73512
2.73526
2.7314
2.73202
2.73253
2.73305
2.73354
2.73398
2.7344
2.73476
2.73509
2.73535
2.73559
2.73577
2.73598
2.7361
2.73212
2.73276
2.73326
2.7338
2.7343
2.73476
2.73519
2.73557
2.73592
2.7362
2.73645
2.73663
2.73685
2.73694
2.73281
2.73348
2.73399
2.73455
2.73506
2.73553
2.73598
2.73636
2.73671
2.73699
2.73727
2.73746
2.73771
2.73778
2.73348
2.73415
2.73467
2.73524
2.73577
2.73626
2.73673
2.73713
2.73751
2.73782
2.73812
2.73834
2.7386
2.73869
2.7341
2.7348
2.73538
2.73595
2.7365
2.737
2.73747
2.73788
2.73828
2.7386
2.73893
2.7392
2.73952
2.73962
2.71776
2.71794
2.71835
2.71874
2.71918
2.71961
2.72006
2.72049
2.72089
2.7213
2.72163
2.722
2.72228
2.72258
2.71919
2.71926
2.71965
2.71997
2.72037
2.72074
2.72113
2.72151
2.72186
2.72222
2.7225
2.72282
2.72306
2.72337
2.72039
2.72051
2.72087
2.72115
2.72151
2.72183
2.72216
2.72248
2.72277
2.72307
2.72332
2.72362
2.72384
2.72415
2.72152
2.72169
2.722
2.72226
2.72256
2.72285
2.72314
2.72341
2.72367
2.72394
2.72417
2.72443
2.72465
2.72495
2.72249
2.72273
2.72302
2.72327
2.72355
2.72381
2.72406
2.7243
2.72453
2.72477
2.72499
2.72524
2.72546
2.72577
2.7234
2.72368
2.72396
2.72421
2.72447
2.72471
2.72494
2.72517
2.72539
2.72561
2.72583
2.72607
2.72631
2.72661
2.7242
2.72452
2.72481
2.72507
2.72533
2.72556
2.72579
2.72601
2.72622
2.72644
2.72666
2.7269
2.72716
2.72747
2.72494
2.7253
2.72559
2.72587
2.72614
2.72638
2.72662
2.72684
2.72706
2.72728
2.72752
2.72777
2.72806
2.72836
2.72559
2.72598
2.7263
2.72661
2.7269
2.72717
2.72742
2.72766
2.72791
2.72815
2.72841
2.72866
2.72897
2.72926
2.72622
2.72665
2.72699
2.72733
2.72765
2.72794
2.72822
2.72849
2.72876
2.72901
2.7293
2.72956
2.72992
2.73019
2.7268
2.72726
2.72763
2.728
2.72836
2.72869
2.72902
2.72932
2.72963
2.72992
2.73024
2.73051
2.7309
2.73115
2.72741
2.7279
2.72831
2.72872
2.72911
2.72947
2.72983
2.73016
2.73049
2.7308
2.73115
2.73145
2.73189
2.73215
2.72799
2.72849
2.72894
2.72939
2.72982
2.73023
2.73064
2.73102
2.73141
2.73176
2.73216
2.73251
2.73298
2.73325
2.72866
2.72921
2.72971
2.73017
2.73064
2.73107
2.7315
2.7319
2.73231
2.73269
2.73311
2.73351
2.734
2.73435
2.71359
2.71342
2.7135
2.71359
2.71372
2.71391
2.71418
2.71451
2.71488
2.7153
2.71572
2.71619
2.71661
2.71707
2.7147
2.71453
2.71458
2.71464
2.71474
2.7149
2.71513
2.71541
2.71573
2.7161
2.71647
2.71687
2.71724
2.71767
2.71556
2.71549
2.71555
2.71561
2.7157
2.71584
2.71603
2.71625
2.71652
2.71682
2.71714
2.71751
2.71787
2.71829
2.71643
2.71642
2.71648
2.71654
2.71662
2.71674
2.71689
2.71709
2.71731
2.71758
2.71787
2.71821
2.71854
2.71895
2.71718
2.71725
2.71733
2.7174
2.71748
2.71759
2.71773
2.7179
2.71809
2.71833
2.71859
2.71891
2.71924
2.71965
2.7179
2.71802
2.71813
2.71822
2.71832
2.71843
2.71856
2.71872
2.7189
2.71912
2.71938
2.71969
2.72002
2.72043
2.71858
2.71875
2.7189
2.71902
2.71913
2.71925
2.71938
2.71954
2.71972
2.71994
2.72019
2.7205
2.72085
2.72126
2.71926
2.71947
2.71966
2.71981
2.71994
2.72008
2.72022
2.72039
2.72058
2.7208
2.72108
2.72139
2.72177
2.72219
2.71992
2.72018
2.7204
2.72059
2.72075
2.72091
2.72108
2.72126
2.72148
2.72172
2.72202
2.72234
2.72276
2.72316
2.72062
2.72092
2.72117
2.72138
2.72158
2.72177
2.72196
2.72217
2.72241
2.72268
2.72301
2.72336
2.72382
2.72421
2.72131
2.72164
2.72193
2.72218
2.72241
2.72264
2.72287
2.72312
2.72341
2.72371
2.72408
2.72445
2.72494
2.72531
2.72209
2.72245
2.72277
2.72304
2.7233
2.72356
2.72383
2.72411
2.72443
2.72476
2.72516
2.72556
2.7261
2.72647
2.72285
2.72323
2.72358
2.72389
2.7242
2.7245
2.72483
2.72516
2.72552
2.7259
2.72633
2.72678
2.72735
2.72774
2.72382
2.72419
2.72456
2.72488
2.72522
2.72554
2.72588
2.72623
2.72662
2.72702
2.72747
2.72794
2.72852
2.72902
2.71035
2.71011
2.71
2.7099
2.70985
2.70984
2.70989
2.71004
2.71027
2.71056
2.71092
2.71136
2.71182
2.71234
2.71115
2.71093
2.71084
2.71075
2.7107
2.71069
2.71075
2.71088
2.71108
2.71136
2.7117
2.7121
2.71251
2.71297
2.71179
2.71165
2.71161
2.71155
2.71151
2.71152
2.71157
2.71168
2.71186
2.7121
2.71238
2.71274
2.71312
2.71357
2.71248
2.7124
2.71238
2.71234
2.71231
2.71232
2.71237
2.71248
2.71263
2.71286
2.71312
2.71345
2.7138
2.71422
2.71313
2.71311
2.71311
2.7131
2.71309
2.71311
2.71317
2.71326
2.7134
2.7136
2.71384
2.71415
2.71448
2.71488
2.7138
2.71382
2.71385
2.71386
2.71387
2.71391
2.71396
2.71406
2.71419
2.71438
2.71462
2.71491
2.71523
2.71562
2.71447
2.71453
2.71459
2.71462
2.71466
2.71471
2.71477
2.71488
2.71501
2.71519
2.71542
2.71569
2.71602
2.71639
2.71517
2.71528
2.71536
2.71541
2.71546
2.71552
2.7156
2.71572
2.71585
2.71604
2.71627
2.71655
2.71688
2.71724
2.7159
2.71604
2.71614
2.71622
2.71629
2.71637
2.71646
2.71659
2.71674
2.71693
2.71717
2.71745
2.7178
2.71814
2.71669
2.71685
2.71696
2.71706
2.71715
2.71725
2.71735
2.71749
2.71766
2.71786
2.71812
2.71842
2.7188
2.71912
2.71751
2.71767
2.71781
2.71793
2.71805
2.71816
2.71829
2.71844
2.71863
2.71885
2.71913
2.71944
2.71985
2.72013
2.71843
2.71858
2.71872
2.71886
2.71898
2.71911
2.71926
2.71943
2.71964
2.71988
2.72019
2.72053
2.72096
2.72124
2.71933
2.71949
2.71966
2.71981
2.71996
2.72012
2.72029
2.72049
2.72073
2.72099
2.72132
2.72168
2.72212
2.72241
2.72044
2.72052
2.72071
2.72085
2.72102
2.72118
2.72138
2.72159
2.72183
2.72211
2.72244
2.72282
2.72328
2.72367
2.70926
2.70906
2.70892
2.70873
2.70855
2.70838
2.70827
2.7082
2.70819
2.70824
2.70836
2.70855
2.70882
2.7092
2.70972
2.70955
2.70943
2.70928
2.70913
2.709
2.70891
2.70886
2.70888
2.70895
2.70909
2.70929
2.70954
2.70991
2.71013
2.71001
2.70993
2.70982
2.7097
2.70961
2.70954
2.70951
2.70954
2.70962
2.70974
2.70993
2.71014
2.71049
2.71061
2.71053
2.71046
2.71038
2.71029
2.71022
2.71017
2.71016
2.7102
2.71029
2.71041
2.71059
2.7108
2.71111
2.71111
2.71105
2.71101
2.71095
2.71088
2.71083
2.71079
2.7108
2.71085
2.71093
2.71105
2.71122
2.71141
2.71169
2.71166
2.71162
2.71159
2.71154
2.71148
2.71145
2.71142
2.71144
2.71149
2.71158
2.71169
2.71186
2.71204
2.71229
2.71224
2.71222
2.7122
2.71216
2.71211
2.71209
2.71208
2.7121
2.71215
2.71224
2.71235
2.7125
2.71268
2.71289
2.71287
2.71286
2.71285
2.71281
2.71277
2.71275
2.71275
2.71278
2.71283
2.71291
2.71302
2.71317
2.71336
2.71353
2.71355
2.71355
2.71353
2.7135
2.71347
2.71345
2.71346
2.71349
2.71354
2.71362
2.71374
2.71387
2.71407
2.71421
2.71427
2.71428
2.71425
2.71423
2.7142
2.71419
2.7142
2.71423
2.71429
2.71437
2.71449
2.71461
2.71481
2.71492
2.71503
2.71505
2.71501
2.715
2.71498
2.71497
2.71498
2.71501
2.71507
2.71516
2.71528
2.7154
2.7156
2.71567
2.71588
2.71588
2.71583
2.71582
2.7158
2.71579
2.7158
2.71583
2.7159
2.71599
2.71613
2.71625
2.71646
2.71648
2.71675
2.71674
2.7167
2.71669
2.71667
2.71667
2.71668
2.71671
2.71678
2.71688
2.71701
2.71715
2.71733
2.71735
2.7178
2.71766
2.71762
2.71759
2.71758
2.71758
2.71759
2.71763
2.7177
2.71779
2.71792
2.71807
2.71826
2.71838
2.70914
2.70898
2.70884
2.70863