/*--------------------------------*- C++ -*----------------------------------*\
| =========                 |                                                 |
| \\      /  F ield         | OpenFOAM: The Open Source CFD Toolbox           |
|  \\    /   O peration     | Version:  v2106                                 |
|   \\  /    A nd           | Website:  www.openfoam.com                      |
|    \\/     M anipulation  |                                                 |
\*---------------------------------------------------------------------------*/
FoamFile
{
    version     2.0;
    format      ascii;
    arch        "LSB;label=32;scalar=64";
    class       volVectorField;
    location    "0.000169";
    object      U;
}
// * * * * * * * * * * * * * * * * * * * * * * * * * * * * * * * * * * * * * //

dimensions      [0 1 -1 0 0 0 0];

internalField   nonuniform List<vector> 
18109
(
(-13.3838 7.86134 -67.0153)
(-12.6921 7.07856 -66.9405)
(-12.1355 6.88057 -66.7364)
(-11.9032 6.52111 -66.4623)
(-12.054 6.09398 -66.1348)
(-12.3338 5.44342 -65.9307)
(-12.8953 4.74954 -65.6806)
(-13.4905 5.53562 -67.7833)
(-13.1516 5.21866 -67.5426)
(-12.9097 5.23584 -67.2806)
(-12.907 5.08741 -66.933)
(-13.1554 4.8137 -66.5845)
(-13.473 4.29128 -66.3143)
(-13.971 3.73181 -65.9645)
(-13.4105 3.43821 -68.4719)
(-13.1931 3.54709 -68.1345)
(-13.1506 3.71822 -67.8234)
(-13.3603 3.71097 -67.4955)
(-13.658 3.52199 -67.0983)
(-14.0856 3.12778 -66.7977)
(-14.5936 2.70156 -66.3864)
(-13.0691 1.62333 -68.989)
(-13.043 2.04836 -68.6443)
(-13.1758 2.40491 -68.2715)
(-13.5732 2.52095 -68.0037)
(-13.9385 2.38239 -67.5698)
(-14.4396 2.08225 -67.2657)
(-14.9792 1.75931 -66.8353)
(-12.5638 0.10363 -69.4395)
(-12.8221 0.783062 -69.1302)
(-13.087 1.27634 -68.7047)
(-13.5915 1.45102 -68.4292)
(-14.0259 1.34992 -67.9828)
(-14.5597 1.11369 -67.6594)
(-15.1458 0.884694 -67.2443)
(-12.0484 -1.21443 -69.8964)
(-12.4745 -0.288502 -69.5868)
(-12.8946 0.277272 -69.1317)
(-13.4761 0.483053 -68.8006)
(-14.0219 0.414063 -68.3779)
(-14.616 0.226548 -68.0226)
(-15.2744 0.0783341 -67.6304)
(-11.4698 -2.31406 -70.2351)
(-12.0086 -1.23546 -69.9089)
(-12.6166 -0.636729 -69.4918)
(-13.2801 -0.398407 -69.1096)
(-13.9696 -0.430222 -68.7568)
(-14.6506 -0.591831 -68.383)
(-15.3789 -0.696696 -68.006)
(-10.7363 -3.13792 -70.5264)
(-11.4309 -2.04222 -70.1845)
(-12.235 -1.4616 -69.7753)
(-13.0271 -1.19769 -69.3522)
(-13.8729 -1.2028 -69.0379)
(-14.6705 -1.3644 -68.6449)
(-15.478 -1.47146 -68.2672)
(-11.5685 6.52088 -63.7561)
(-10.9823 5.86309 -63.5869)
(-10.5485 5.72521 -63.2436)
(-10.4685 5.43064 -62.8197)
(-10.7812 5.15868 -62.3362)
(-11.2018 4.58742 -61.9358)
(-11.8819 4.0685 -61.4713)
(-12.7403 3.52833 -61.0973)
(-13.6932 3.01415 -60.6005)
(-14.7904 2.46962 -60.2019)
(-16.0719 1.89925 -59.7147)
(-17.6855 1.26956 -59.2578)
(-19.5494 0.726147 -58.6692)
(-21.7508 0.809261 -58.1096)
(-11.645 4.24434 -64.3306)
(-11.3716 3.98936 -64.0188)
(-11.2078 4.05479 -63.6346)
(-11.3677 4.00872 -63.1443)
(-11.7106 3.86444 -62.592)
(-12.1897 3.43836 -62.1627)
(-12.777 3.01343 -61.6505)
(-13.5578 2.57196 -61.285)
(-14.3886 2.11814 -60.7653)
(-15.4349 1.71926 -60.3532)
(-16.5586 1.28615 -59.8599)
(-17.9602 1.02924 -59.41)
(-19.6405 0.947251 -58.8506)
(-21.5318 1.23916 -58.2921)
(-11.5439 2.20448 -64.7573)
(-11.4432 2.28803 -64.3982)
(-11.4602 2.50002 -63.9623)
(-11.7894 2.62382 -63.5146)
(-12.1572 2.55101 -62.9383)
(-12.7233 2.26875 -62.5109)
(-13.3335 1.96599 -61.9769)
(-14.1539 1.68458 -61.6112)
(-15.0148 1.36552 -61.0589)
(-16.0425 1.09504 -60.5611)
(-17.1384 0.819973 -60.0167)
(-18.4105 0.799717 -59.4881)
(-19.8621 0.901637 -58.9044)
(-21.6003 1.34818 -58.4527)
(-11.2439 0.45012 -65.1537)
(-11.3272 0.779629 -64.7866)
(-11.5155 1.16134 -64.2823)
(-12.005 1.40345 -63.8766)
(-12.458 1.38549 -63.2944)
(-13.0824 1.21472 -62.8653)
(-13.7364 1.01665 -62.3396)
(-14.5527 0.82177 -61.9261)
(-15.3969 0.576383 -61.3503)
(-16.3782 0.378808 -60.7819)
(-17.4653 0.173852 -60.2285)
(-18.6669 0.277941 -59.6873)
(-19.9847 0.633515 -59.1203)
(-21.5183 1.2901 -58.669)
(-10.8907 -1.10473 -65.4749)
(-11.2461 -0.535266 -65.1533)
(-11.536 -0.00694726 -64.6282)
(-12.0965 0.299717 -64.2002)
(-12.6161 0.314459 -63.6183)
(-13.2622 0.218675 -63.1608)
(-13.9594 0.113099 -62.6488)
(-14.7812 -0.00448545 -62.1868)
(-15.6723 -0.148276 -61.6401)
(-16.6599 -0.249373 -61.0747)
(-17.7537 -0.379814 -60.5665)
(-18.9403 -0.219229 -60.0428)
(-20.1318 0.205281 -59.4324)
(-21.4374 0.933316 -58.8962)
(-10.4514 -2.43456 -65.9119)
(-10.997 -1.66401 -65.5532)
(-11.4498 -1.07491 -64.9882)
(-12.0641 -0.723762 -64.4947)
(-12.6988 -0.658034 -63.9423)
(-13.402 -0.680678 -63.4487)
(-14.1701 -0.692729 -62.9477)
(-15.0107 -0.751538 -62.4343)
(-15.9216 -0.845618 -61.9109)
(-16.8628 -0.928831 -61.3439)
(-17.8954 -1.04558 -60.8528)
(-18.9835 -0.904672 -60.3187)
(-20.06 -0.433402 -59.7089)
(-21.2023 0.381829 -59.1172)
(-9.99261 -3.60937 -66.2882)
(-10.6314 -2.68198 -65.8572)
(-11.2851 -2.06555 -65.3132)
(-11.9691 -1.66861 -64.7725)
(-12.7351 -1.54109 -64.2746)
(-13.5144 -1.50907 -63.757)
(-14.3514 -1.45181 -63.26)
(-15.2114 -1.48172 -62.7138)
(-16.118 -1.56647 -62.1985)
(-17.004 -1.66724 -61.6284)
(-17.931 -1.8002 -61.1127)
(-18.9181 -1.68539 -60.5657)
(-19.8973 -1.2033 -59.9717)
(-20.9333 -0.361125 -59.361)
(-9.36465 -4.55958 -66.6423)
(-10.145 -3.57264 -66.131)
(-11.0144 -2.9675 -65.5832)
(-11.8315 -2.53557 -65.0102)
(-12.7371 -2.35459 -64.5369)
(-13.6171 -2.28774 -63.998)
(-14.5226 -2.19518 -63.4907)
(-15.4058 -2.22636 -62.9314)
(-16.2976 -2.34211 -62.4298)
(-17.1324 -2.50131 -61.8736)
(-17.9426 -2.6714 -61.3134)
(-18.8466 -2.58371 -60.7528)
(-19.7344 -2.11003 -60.186)
(-20.6485 -1.26083 -59.6168)
(-8.76075 -5.38633 -66.9735)
(-9.72096 -4.36239 -66.457)
(-10.7619 -3.76423 -65.8992)
(-11.7224 -3.29995 -65.3457)
(-12.7406 -3.08063 -64.867)
(-13.7296 -2.99608 -64.3407)
(-14.699 -2.90964 -63.8134)
(-15.6126 -2.97812 -63.2473)
(-16.4811 -3.16333 -62.7195)
(-17.2661 -3.4112 -62.1487)
(-17.9798 -3.62007 -61.5247)
(-18.7734 -3.54295 -60.9524)
(-19.6092 -3.09189 -60.4636)
(-20.3931 -2.29853 -59.9242)
(-8.2609 -5.98131 -67.366)
(-9.50792 -5.04556 -66.8281)
(-10.7236 -4.52571 -66.18)
(-11.8114 -4.06212 -65.5612)
(-12.9113 -3.8096 -65.0395)
(-13.9884 -3.71375 -64.5551)
(-15.0053 -3.65513 -64.0432)
(-15.9297 -3.79132 -63.4991)
(-16.7495 -4.06698 -62.9526)
(-17.4546 -4.40831 -62.3659)
(-18.0884 -4.64099 -61.7324)
(-18.7964 -4.55173 -61.2023)
(-19.502 -4.13065 -60.7733)
(-20.1924 -3.49858 -60.3351)
(-7.85839 -6.34907 -67.6262)
(-9.49372 -5.58326 -67.1691)
(-10.9258 -5.19178 -66.5291)
(-12.1515 -4.76571 -65.8927)
(-13.3125 -4.48734 -65.3551)
(-14.4362 -4.38203 -64.9145)
(-15.4675 -4.38801 -64.3901)
(-16.3848 -4.63508 -63.8315)
(-17.1481 -5.02557 -63.2187)
(-17.796 -5.44763 -62.6021)
(-18.3556 -5.69696 -61.9864)
(-19.0098 -5.6046 -61.6155)
(-19.4551 -5.23409 -61.2299)
(-19.8605 -4.85103 -60.8589)
(-7.51557 -6.29156 -67.9202)
(-9.52046 -5.85339 -67.5511)
(-11.2465 -5.66575 -66.8889)
(-12.6967 -5.37181 -66.1777)
(-13.9078 -5.17701 -65.4891)
(-15.0482 -5.11324 -65.042)
(-16.0598 -5.19354 -64.5283)
(-16.9617 -5.54061 -64.0333)
(-17.6844 -6.01966 -63.4361)
(-18.2776 -6.51166 -62.866)
(-18.7594 -6.78164 -62.3303)
(-19.2417 -6.78897 -62.0363)
(-19.4599 -6.61654 -61.6967)
(-19.2503 -6.4945 -61.2747)
(-7.32788 -5.84515 -68.1621)
(-9.58716 -5.83313 -67.9067)
(-11.4695 -5.94522 -67.1567)
(-13.2115 -5.91251 -66.4807)
(-14.6338 -5.81252 -65.7495)
(-15.9037 -5.77579 -65.233)
(-16.9455 -5.91442 -64.6717)
(-17.7957 -6.37572 -64.1656)
(-18.4478 -6.98311 -63.6016)
(-18.9106 -7.60772 -63.124)
(-19.2529 -7.9649 -62.7127)
(-19.4392 -8.14585 -62.4842)
(-19.376 -8.1879 -62.2409)
(-18.9276 -8.37072 -62.0591)
(-6.63509 -4.98414 -68.1954)
(-9.27193 -5.5504 -68.287)
(-11.5078 -5.96166 -67.4198)
(-13.6656 -6.03841 -66.848)
(-15.4281 -6.09589 -66.0707)
(-16.9389 -6.20828 -65.4631)
(-18.0313 -6.58494 -64.8043)
(-18.7746 -7.21536 -64.264)
(-19.332 -7.98875 -63.7466)
(-19.6763 -8.79339 -63.2945)
(-19.8705 -9.35097 -62.8624)
(-19.6533 -9.79523 -62.6077)
(-19.2261 -10.0271 -62.2259)
(-18.4035 -10.6829 -62.1372)
(-12.6312 9.88838 -66.5871)
(-12.7653 11.3538 -65.837)
(-12.5364 13.2067 -65.2129)
(-13.3748 15.3227 -64.2795)
(-14.483 18.3123 -64.1104)
(-17.294 22.1848 -62.3218)
(-10.8194 8.51754 -63.4911)
(-11.0548 9.91368 -63.0628)
(-10.8075 11.5966 -62.7855)
(-11.5084 13.5753 -62.1909)
(-12.4863 16.2295 -62.0476)
(-14.9711 19.6665 -60.4799)
(-10.2809 7.84386 -63.3821)
(-9.75339 9.61063 -62.7152)
(-8.89259 11.5646 -62.3937)
(-9.13469 13.856 -62.0033)
(-9.56504 16.8884 -61.6221)
(-12.3462 21.1291 -60.6966)
(-9.72153 7.73143 -62.945)
(-8.7436 9.74725 -62.2614)
(-7.63801 11.8339 -62.0457)
(-7.37157 14.1508 -61.6511)
(-7.18349 17.0819 -61.2838)
(-10.0888 21.2559 -60.8593)
(-9.30644 7.21346 -62.578)
(-8.04531 9.07653 -61.9965)
(-6.7586 11.0683 -61.9074)
(-5.9317 13.2779 -61.4068)
(-5.33933 16.0389 -61.1961)
(-8.44084 19.8303 -60.8672)
(-9.45704 6.66835 -62.0202)
(-7.97775 8.39816 -61.4552)
(-6.31318 10.1901 -61.5571)
(-5.02037 12.1148 -61.3351)
(-4.53052 14.4678 -61.1603)
(-8.00718 17.0453 -60.5075)
(-9.82412 5.9029 -61.5797)
(-8.14529 7.45923 -61.195)
(-6.30095 9.02402 -61.3488)
(-4.76904 10.6957 -61.2274)
(-4.45805 12.5711 -60.6974)
(-8.06998 14.4389 -59.5595)
(-10.5213 5.15365 -61.1551)
(-8.79902 6.49937 -60.981)
(-6.92218 7.74726 -61.1544)
(-5.52545 9.15611 -61.1431)
(-5.40032 10.3428 -60.2755)
(-8.90007 11.6236 -58.7883)
(-11.4094 4.39748 -60.7805)
(-9.70426 5.49576 -60.759)
(-8.01448 6.46539 -60.9014)
(-7.1021 7.51729 -60.8996)
(-6.93803 7.91253 -59.9541)
(-10.1668 8.5309 -58.2639)
(-12.5186 3.74121 -60.4023)
(-10.9398 4.4066 -60.4673)
(-9.56574 5.06519 -60.5641)
(-8.98407 5.37261 -60.501)
(-9.09517 5.54011 -59.7986)
(-12.0315 5.39775 -57.9169)
(-13.846 3.04522 -60.126)
(-12.5298 3.16028 -60.1611)
(-11.6701 3.54404 -60.168)
(-11.3543 3.38123 -60.0086)
(-11.6778 3.18019 -59.534)
(-14.5165 2.47731 -57.673)
(-15.3598 1.9725 -59.7753)
(-14.4309 1.8496 -59.7307)
(-13.8964 1.79607 -59.6716)
(-13.7929 1.37165 -59.4171)
(-14.3851 0.750532 -58.9191)
(-17.3229 -0.326596 -57.433)
(-17.2669 1.00117 -59.2802)
(-16.6835 0.70508 -59.173)
(-16.3081 0.269835 -58.9181)
(-16.5029 -0.387258 -58.4656)
(-17.4119 -1.34384 -58.1627)
(-20.307 -2.85547 -56.81)
(-19.4256 0.432113 -58.6027)
(-19.3147 0.159415 -58.3497)
(-19.2531 -0.44679 -57.9991)
(-19.7909 -1.28452 -57.37)
(-20.8193 -2.83715 -57.0255)
(-23.6242 -5.09335 -55.599)
(-21.6246 0.476296 -57.8788)
(-22.0361 0.437343 -57.4995)
(-22.593 -0.352382 -56.9999)
(-23.6328 -1.33076 -56.2267)
(-25.1447 -3.25999 -55.8421)
(-27.7465 -6.04181 -53.9792)
(-23.5207 0.688189 -57.5377)
(-24.4714 -0.0497605 -56.967)
(-25.7877 -0.493483 -56.4197)
(-27.0669 -1.73971 -55.402)
(-29.0807 -3.70783 -54.6411)
(-31.3295 -6.91526 -52.3328)
(-23.1394 1.23188 -57.5391)
(-24.7636 1.03339 -56.825)
(-26.4716 1.08221 -55.9083)
(-28.4199 0.0739209 -54.9119)
(-30.9377 -2.15927 -53.8699)
(-34.0554 -6.52007 -51.6801)
(-23.3 1.6404 -57.5526)
(-25.2711 1.71674 -56.7129)
(-27.2593 1.93035 -55.7571)
(-29.499 1.06274 -54.6175)
(-32.1256 -1.59969 -53.7254)
(-35.6461 -6.3815 -51.3033)
(-23.0531 1.95058 -57.6706)
(-25.0049 2.39237 -56.835)
(-27.0147 2.98183 -55.9332)
(-29.3681 2.39793 -54.841)
(-32.1394 -0.0862059 -53.9507)
(-36.0504 -5.14495 -51.6655)
(-22.7926 1.88494 -57.9164)
(-24.7417 2.79621 -57.2021)
(-26.6955 3.72154 -56.4234)
(-29.0204 3.5764 -55.4849)
(-32.0712 1.72811 -54.2847)
(-35.0126 -3.89509 -52.11)
(-22.4591 1.53928 -58.184)
(-24.2515 2.9324 -57.5762)
(-26.0978 4.25823 -56.9271)
(-28.4165 4.77229 -56.1056)
(-30.7541 3.07309 -54.6355)
(-32.5938 -3.30063 -51.958)
(-22.0566 0.961899 -58.5685)
(-23.5665 2.59184 -58.0397)
(-25.0735 4.11186 -57.5244)
(-26.8191 4.77295 -56.894)
(-28.3244 3.26262 -55.1276)
(-29.2284 -3.56617 -51.7782)
(-21.6129 0.0989059 -58.9745)
(-22.7608 1.76939 -58.4993)
(-23.7883 3.22762 -58.1821)
(-24.5654 3.78572 -57.6521)
(-25.1351 2.43356 -56.103)
(-25.0343 -4.53549 -52.6538)
(-21.0808 -0.958322 -59.4533)
(-21.6802 0.497197 -59.0294)
(-22.216 1.34927 -58.7687)
(-22.111 1.53507 -58.3766)
(-21.6838 0.148298 -57.4299)
(-20.2519 -6.44534 -54.195)
(-20.4946 -2.43467 -59.9061)
(-20.5936 -1.42169 -59.607)
(-20.2834 -0.904892 -59.485)
(-19.4974 -0.997445 -59.2549)
(-18.0496 -2.84331 -58.4654)
(-15.5075 -9.45645 -55.9397)
(-19.7567 -4.21365 -60.5328)
(-19.2242 -3.55189 -60.2362)
(-18.3831 -3.32708 -60.1515)
(-17.099 -4.02045 -59.8589)
(-14.8409 -6.38678 -59.4338)
(-11.2895 -12.9323 -57.4223)
(-18.8927 -6.23513 -60.9984)
(-18.083 -6.01138 -60.6783)
(-16.8762 -6.27744 -60.6542)
(-15.0591 -7.39346 -60.2585)
(-12.0245 -10.1306 -60.1154)
(-7.69382 -16.6738 -58.7843)
(-18.4012 -8.33195 -61.8544)
(-17.4083 -8.60744 -61.6553)
(-16.068 -9.6492 -61.5398)
(-13.8432 -11.3996 -61.0154)
(-10.3717 -14.5387 -60.9867)
(-4.77669 -20.4087 -59.9684)
(-17.7353 -10.6899 -61.9163)
(-17.0377 -11.7844 -61.8771)
(-15.6017 -13.3998 -61.7173)
(-13.3119 -15.6688 -61.1838)
(-9.7743 -19.2909 -61.3705)
(-3.84914 -24.7507 -60.5517)
(-19.0069 -12.308 -62.1551)
(-18.0503 -13.8588 -62.039)
(-16.4363 -15.9068 -61.6818)
(-13.548 -18.3144 -61.2073)
(-9.53605 -22.1547 -61.4397)
(-2.84706 -27.1669 -60.794)
(-19.6983 -11.6001 -62.2079)
(-19.4643 -13.3093 -62.0892)
(-18.1556 -15.4788 -61.7704)
(-15.39 -18.1066 -61.4509)
(-11.1648 -22.2251 -61.6314)
(-3.51326 -27.6588 -61.047)
(-20.2889 -11.4704 -62.6544)
(-20.4598 -13.5183 -62.6368)
(-19.2776 -15.7261 -62.3456)
(-16.8169 -18.5733 -62.2619)
(-12.4132 -22.5908 -62.1379)
(-3.78924 -27.5321 -60.8158)
(-20.8307 -10.8121 -62.8211)
(-21.2391 -12.7606 -62.8824)
(-20.2035 -14.7742 -62.6564)
(-18.5216 -17.7767 -62.8026)
(-13.8518 -21.4176 -62.651)
(-3.70518 -25.7087 -60.1999)
(-20.7765 -9.97261 -63.2971)
(-21.3463 -11.6896 -63.5576)
(-20.7739 -13.657 -63.7072)
(-20.0551 -16.5428 -63.5729)
(-14.7424 -18.571 -62.7775)
(-3.09133 -22.6772 -58.5711)
(-20.4551 -8.98719 -63.722)
(-21.3323 -10.3749 -64.1614)
(-21.6085 -12.1317 -64.502)
(-20.5001 -14.1085 -64.1581)
(-15.0516 -14.8309 -62.6979)
(-2.20197 -17.1721 -57.334)
(-19.9521 -8.08094 -64.3505)
(-20.9874 -9.03545 -64.8991)
(-21.1847 -10.0962 -65.2117)
(-19.9772 -10.7197 -64.949)
(-14.569 -10.4503 -63.2278)
(-1.14952 -10.649 -57.2202)
(-19.2192 -7.23856 -65.1431)
(-19.9499 -7.67231 -65.6274)
(-20.0137 -7.76974 -65.9154)
(-18.8216 -6.90082 -65.6228)
(-13.0628 -6.16474 -64.3361)
(-0.213383 -4.19634 -58.7867)
(-17.9028 -6.50966 -65.8838)
(-18.4816 -6.29036 -66.3155)
(-18.2083 -5.53478 -66.6907)
(-16.2144 -3.98224 -66.3159)
(-10.5441 -2.08602 -65.3978)
(1.46406 1.19918 -60.8708)
(-16.0689 -6.00318 -66.5899)
(-16.299 -5.31077 -67.0483)
(-15.5029 -3.85352 -67.2788)
(-12.7872 -2.18694 -67.0645)
(-7.19652 0.998896 -66.0689)
(4.11482 4.87384 -62.5478)
(-13.8331 -5.53715 -67.3256)
(-13.6065 -4.24435 -67.4865)
(-12.2401 -2.69906 -67.8731)
(-9.28213 -0.501999 -67.4722)
(-3.64089 2.92707 -66.7727)
(6.8495 7.04553 -64.2548)
(-11.0456 -5.06052 -67.6011)
(-10.3891 -3.57477 -67.4484)
(-8.4748 -2.19319 -67.868)
(-5.41947 0.179056 -67.7909)
(-0.0343968 3.40219 -67.6482)
(9.22166 8.26501 -66.5588)
(-8.33529 -5.11624 -68.4396)
(-7.26576 -3.7564 -68.2971)
(-4.9415 -2.82887 -68.7315)
(-1.63094 -0.582512 -68.241)
(3.60066 2.42555 -68.5355)
(11.5817 7.58038 -67.9742)
(-5.62491 -4.29715 -68.101)
(-3.8013 -4.01044 -68.1272)
(-1.24292 -3.19721 -68.5006)
(2.14095 -1.52238 -68.1799)
(6.67624 1.04533 -69.0113)
(13.3377 5.92579 -68.8921)
(-13.6384 1.44738 -69.3397)
(-14.4693 1.16347 -69.8665)
(-15.8168 1.55779 -69.8768)
(-17.0785 3.51064 -69.6253)
(-19.2772 7.50383 -69.1368)
(-21.7624 15.8891 -66.9552)
(-14.1592 3.7675 -68.5856)
(-15.2148 3.86747 -68.8063)
(-16.2524 4.79722 -68.8549)
(-17.4025 6.7617 -68.3648)
(-19.004 10.5089 -67.9548)
(-21.8333 17.3726 -66.1109)
(-14.2436 6.07792 -67.5763)
(-15.0462 6.69251 -67.4441)
(-15.4212 7.95003 -67.3848)
(-16.5643 9.6896 -66.5219)
(-17.7563 13.1093 -66.1914)
(-21.029 18.7956 -64.9388)
(-14.115 8.38794 -66.7101)
(-13.9014 9.42183 -66.5813)
(-14.2683 10.9119 -65.8644)
(-15.0411 12.9876 -65.1972)
(-16.3487 16.0266 -64.9836)
(-19.2649 20.6216 -63.7077)
(-4.15446 -5.71266 -68.2054)
(-2.10234 -5.48396 -68.3108)
(0.555446 -5.1041 -68.572)
(3.78101 -3.43591 -68.5429)
(7.95581 -0.76217 -69.6532)
(14.0859 4.10968 -69.7916)
(-5.01432 -6.51289 -68.1346)
(-2.84136 -7.00347 -68.3313)
(-0.249368 -7.45598 -68.523)
(2.84482 -5.9963 -68.9172)
(7.21221 -3.60157 -70.0568)
(13.3003 2.01113 -70.6133)
(-5.26005 -7.29206 -68.0624)
(-2.88066 -8.11677 -68.5891)
(-0.279869 -8.87702 -68.9147)
(2.72981 -7.77063 -69.9228)
(7.16152 -5.77041 -71.0023)
(11.8492 0.955438 -71.7394)
(-5.96748 -7.66417 -67.9767)
(-3.81195 -8.86017 -68.5887)
(-1.46558 -9.67682 -69.1199)
(1.25804 -9.01254 -70.3764)
(5.08068 -6.8508 -71.5725)
(8.40143 1.20146 -70.5366)
(-6.7891 -7.3634 -67.7186)
(-5.127 -8.76485 -68.3803)
(-3.12081 -9.41028 -69.2744)
(-0.789165 -9.39371 -70.6234)
(1.95391 -6.63158 -71.2724)
(4.42436 1.72039 -68.1124)
(-7.6833 -6.78724 -67.4614)
(-6.4598 -8.28277 -68.1028)
(-4.96321 -9.01264 -69.329)
(-3.25562 -9.28151 -70.186)
(-1.85514 -6.58067 -70.1213)
(-0.232183 2.43959 -66.2468)
(-8.59322 -5.92988 -67.2054)
(-7.73343 -7.39339 -67.9733)
(-6.91453 -8.29049 -69.0783)
(-6.03035 -8.07406 -69.5998)
(-5.91681 -5.69144 -69.1107)
(-5.46295 3.26709 -65.5574)
(-9.57732 -4.91723 -66.8823)
(-9.16539 -6.20366 -67.7432)
(-8.84816 -6.77689 -68.5628)
(-9.0453 -6.49147 -69.1115)
(-9.67938 -4.20006 -68.299)
(-10.4163 4.22467 -65.2043)
(-10.4538 -3.47421 -66.5645)
(-10.5201 -4.50261 -67.3548)
(-10.783 -4.88525 -68.1213)
(-11.8692 -4.533 -68.3345)
(-12.5561 -1.71407 -67.792)
(-14.5816 5.87015 -65.1022)
(-11.1608 -1.67271 -66.0754)
(-11.6037 -2.37928 -66.7717)
(-12.3707 -2.48685 -67.5156)
(-13.7766 -1.7783 -67.4387)
(-14.9877 1.09893 -67.1536)
(-17.6189 7.86098 -64.892)
(-11.6814 0.382636 -65.5864)
(-12.2549 0.125073 -66.2401)
(-13.5174 0.21524 -66.5554)
(-14.7259 1.45824 -66.3922)
(-16.4427 4.2593 -66.1072)
(-19.1207 10.3158 -64.1926)
(-12.1388 2.53818 -64.9818)
(-12.933 2.74089 -65.4603)
(-14.021 3.3201 -65.5388)
(-15.0984 4.74352 -65.1949)
(-16.5797 7.48141 -64.8598)
(-19.1997 12.7021 -63.2963)
(-12.2462 4.79484 -64.3043)
(-13.0618 5.35574 -64.2681)
(-13.3252 6.45079 -64.39)
(-14.4143 7.85286 -63.8484)
(-15.597 10.4712 -63.3614)
(-18.5048 14.947 -62.362)
(-12.1864 7.04332 -63.614)
(-12.0126 7.95714 -63.6108)
(-12.2899 9.29729 -63.1715)
(-13.083 11.0639 -62.7393)
(-14.1984 13.6595 -62.5216)
(-16.917 17.4724 -61.3656)
(-26.2467 33.6314 -59.5205)
(-52.9489 55.8894 -48.1865)
(-87.7766 82.0363 -14.7335)
(-136.783 104.562 28.6685)
(-184.931 134.797 57.1841)
(-25.0912 34.1134 -58.8787)
(-53.1692 51.6464 -40.8121)
(-93.1281 72.1526 -0.885358)
(-151.535 94.8419 39.0117)
(-201.671 124.067 65.2182)
(-24.4005 32.6212 -56.6059)
(-54.9598 45.9623 -32.4349)
(-102.795 61.3357 7.2045)
(-164.534 78.9546 42.027)
(-212.1 98.3776 65.074)
(-24.94 28.8889 -53.2237)
(-58.2476 38.2526 -25.8438)
(-113.057 47.3423 10.1894)
(-179.285 59.0713 44.8079)
(-232.877 73.0627 61.7106)
(-25.329 23.6297 -49.9141)
(-62.5175 29.2938 -22.162)
(-123.119 32.4461 11.3662)
(-194.353 38.5985 46.3239)
(-252.755 48.1192 66.424)
(-26.0988 18.0061 -46.9353)
(-66.3955 20.2096 -20.5966)
(-130.589 18.0351 11.195)
(-204.704 21.691 48.7165)
(-263.363 28.0987 76.2033)
(-26.8459 11.8159 -45.5433)
(-68.544 11.0207 -22.1038)
(-131.213 3.68472 7.60374)
(-199.515 4.43494 47.7443)
(-251.171 5.96162 83.8347)
(-27.8369 5.88289 -45.5757)
(-69.8062 2.08144 -25.2328)
(-129.822 -11.0615 1.26902)
(-195.381 -16.8405 40.9709)
(-245.669 -23.5342 78.8952)
(-274.323 -16.5048 82.2211)
(-29.0447 0.605133 -46.7725)
(-69.9361 -6.95983 -29.6079)
(-127.907 -23.7131 -5.53581)
(-190.581 -35.1506 35.6606)
(-239.692 -46.0459 79.1367)
(-275.427 -42.8625 89.4878)
(-30.7739 -3.62157 -48.9224)
(-68.6494 -14.4221 -35.4238)
(-121.122 -31.711 -12.6045)
(-176.818 -46.4158 31.4037)
(-223.485 -59.4651 79.9553)
(-262.746 -59.9621 100.274)
(-32.4334 -7.58062 -51.0735)
(-65.8103 -20.6857 -40.2535)
(-111.104 -39.419 -19.178)
(-160.053 -56.266 23.2578)
(-201.98 -71.5345 73.5235)
(-240.165 -74.5692 104.512)
(-263.757 -62.4099 108.251)
(-33.5884 -11.7548 -52.6759)
(-62.4314 -26.0355 -44.0443)
(-99.8992 -47.4137 -25.6222)
(-141.06 -66.652 13.3912)
(-177.149 -85.2216 60.9887)
(-211.508 -92.1116 93.2949)
(-228.872 -87.7259 110.167)
(-236.357 -57.1049 103.11)
(-35.4024 -15.3724 -52.9229)
(-58.9387 -32.316 -45.7592)
(-88.5986 -55.3329 -29.1481)
(-119.394 -78.1838 8.51996)
(-148.993 -101.158 51.5925)
(-173.469 -111.598 76.6248)
(-171.862 -107.576 96.9596)
(-177.746 -60.6861 108.338)
(-38.6339 -17.4411 -52.2351)
(-57.1475 -39.5371 -45.8088)
(-81.5244 -65.9031 -29.3236)
(-102.776 -96.0242 5.75302)
(-128.925 -129.97 40.9862)
(-155.805 -158.456 59.7739)
(-165.753 -160.616 70.1316)
(-149.148 -167.71 79.0075)
(-41.7012 -19.4586 -51.0014)
(-58.0386 -45.3792 -42.9065)
(-79.2476 -76.8591 -21.4602)
(-93.9433 -115.01 16.4019)
(-119.125 -157.676 45.1391)
(-144.877 -194.184 62.3356)
(-161.917 -205.712 66.8707)
(-161.019 -198.816 66.9977)
(-44.264 -21.0888 -49.2587)
(-57.3249 -48.9605 -36.3306)
(-72.6188 -84.0321 -7.93968)
(-88.1836 -128.348 29.0408)
(-112.569 -175.633 50.8957)
(-129.501 -209.353 64.9841)
(-151.803 -217.524 69.1622)
(-157.557 -209.291 72.3731)
(-44.8875 -22.2174 -46.441)
(-53.8526 -52.2589 -27.7543)
(-64.2081 -92.4143 4.03542)
(-76.6273 -142.937 33.4566)
(-90.6021 -187.529 55.8866)
(-103.167 -213.417 67.1606)
(-122.389 -212.403 72.2672)
(-139.832 -193.867 78.7923)
(-43.4067 -22.0282 -42.0173)
(-50.5702 -55.6969 -18.5372)
(-56.5803 -103.568 14.32)
(-64.2767 -162.138 42.1001)
(-71.7515 -212.322 61.2678)
(-77.9142 -242.776 62.4059)
(-84.7875 -244.691 55.8674)
(-69.4315 -222.782 52.3565)
(-39.2451 -21.9262 -38.0407)
(-43.2988 -60.2448 -12.2863)
(-44.5191 -116.606 18.3086)
(-46.7048 -181.376 46.6541)
(-52.6229 -236.817 65.2073)
(-60.9672 -271.67 64.75)
(-69.4551 -280.801 53.1267)
(-63.6304 -267.152 46.1616)
(-34.1527 -22.6784 -35.1551)
(-34.4523 -66.5435 -10.1265)
(-30.8328 -128.427 18.4652)
(-30.2358 -195.612 49.7492)
(-35.1406 -248.608 75.6164)
(-44.0171 -280.41 79.1088)
(-58.952 -293.993 64.0876)
(-63.6308 -287.27 56.1753)
(-27.9004 -24.9679 -34.6983)
(-23.8945 -71.7131 -12.9044)
(-14.3969 -134.041 12.8977)
(-10.4139 -196.928 44.3735)
(-9.75992 -241.912 77.2768)
(-19.2996 -268.053 84.422)
(-41.2902 -279.307 74.4381)
(-58.6679 -275.684 64.8374)
(-20.903 -27.5607 -37.1209)
(-12.609 -76.308 -18.8806)
(2.49675 -137.674 5.47948)
(11.5658 -197.715 40.2241)
(20.3764 -241.668 75.1255)
(15.9835 -272.25 80.3536)
(8.72248 -281.818 65.3035)
(1.07023 -270.298 50.6521)
(-13.4494 -29.8583 -41.3542)
(0.082219 -78.3379 -26.311)
(17.8049 -138.426 -2.71797)
(31.5298 -196.296 36.5094)
(44.3217 -241.657 74.4429)
(43.31 -279.553 84.468)
(-6.31666 -32.5717 -46.3898)
(10.993 -77.396 -34.8757)
(29.565 -132.614 -11.1332)
(46.074 -183.69 34.7213)
(59.2479 -228.574 78.5266)
(59.0779 -270.034 98.1345)
(0.595112 -34.6358 -51.257)
(20.3487 -75.0999 -42.5221)
(41.4896 -123.169 -17.0808)
(61.3007 -169.133 27.837)
(76.353 -211.176 69.3579)
(77.5713 -246.344 95.2578)
(6.6095 -36.2483 -54.8441)
(29.0854 -71.5154 -47.8466)
(53.3485 -112.89 -22.1949)
(77.9202 -153.185 21.3795)
(95.3557 -190.763 62.0199)
(99.1936 -217.547 88.0244)
(10.7444 -39.0932 -57.0373)
(37.8819 -69.0591 -49.7678)
(66.5351 -103.204 -23.3489)
(94.3123 -134.355 19.4965)
(115.596 -166.409 54.7232)
(120.174 -182.538 79.0351)
(13.5643 -42.6132 -57.2935)
(46.0844 -68.9991 -46.6898)
(80.3974 -96.1852 -15.6165)
(114.798 -121.234 24.6877)
(146.753 -147.71 52.1319)
(16.152 -43.9285 -56.3084)
(51.5653 -66.9537 -37.7823)
(90.2557 -91.966 0.668474)
(137.037 -117.919 37.0729)
(179.473 -143.835 59.7847)
(18.1987 -42.6686 -53.7087)
(56.2407 -59.9015 -27.1938)
(102.04 -80.1429 13.3871)
(157.61 -103.03 44.5719)
(199.653 -128.986 67.3183)
(20.6031 -40.2358 -48.721)
(63.7974 -52.7793 -16.8301)
(119.158 -66.1088 19.6386)
(175.278 -81.2401 51.2423)
(214.497 -100.271 71.1823)
(23.6605 -34.803 -43.717)
(73.2386 -42.7271 -9.82622)
(136.027 -49.9524 25.4044)
(194.786 -57.6038 59.9018)
(238.547 -72.0028 75.7724)
(28.0462 -28.6114 -39.6722)
(83.886 -31.4647 -6.31362)
(149.75 -35.0434 32.3398)
(211.86 -37.3383 68.1588)
(260.55 -50.5863 83.9904)
(31.404 -20.7141 -37.7542)
(90.0119 -16.8916 -5.32085)
(156.974 -19.7654 33.8747)
(218.125 -20.3262 73.092)
(265.07 -34.1762 96.7014)
(34.2328 -11.5862 -39.4183)
(92.1709 -2.15295 -10.2517)
(157.436 -2.53169 22.6091)
(212.192 1.04141 65.0564)
(254.044 -6.01398 94.2888)
(35.2065 -1.96997 -44.601)
(92.304 11.0966 -20.7016)
(156.869 16.4934 9.877)
(209.673 25.9498 55.1076)
(253.146 28.7499 85.6835)
(35.6504 7.51255 -50.7656)
(91.1763 22.7074 -32.6203)
(152.532 34.3052 -1.68848)
(204.807 47.3519 47.0554)
(252.09 55.3984 83.2302)
(35.4632 15.515 -56.4354)
(88.0501 31.4704 -43.2403)
(144.79 46.8198 -12.9037)
(192.809 61.9612 38.6894)
(239.806 71.6798 81.8059)
(34.3664 20.6542 -60.9196)
(81.7276 38.282 -50.2014)
(132.963 56.3963 -20.5799)
(175.286 75.0827 31.6648)
(219.599 87.1552 73.0609)
(34.0676 22.0433 -64.674)
(74.4253 42.9919 -53.9353)
(118.869 64.4032 -25.0014)
(154.751 87.7165 26.61)
(195.219 106.137 65.5479)
(34.0034 21.4615 -66.7832)
(68.4481 47.6836 -54.7929)
(105.357 75.2372 -23.1456)
(137.155 104.862 24.0242)
(170.659 129.173 59.0876)
(34.5751 21.0309 -67.849)
(64.3189 53.5208 -50.9979)
(95.828 86.7442 -10.0836)
(124.257 127.492 33.4013)
(152.194 162.795 61.3509)
(33.7641 20.5472 -67.2088)
(59.7414 55.1614 -41.1838)
(89.8026 96.3323 7.99728)
(120.794 152.864 48.7645)
(152.862 199.232 69.9166)
(30.3725 21.3287 -64.1285)
(51.1149 58.0987 -31.2658)
(74.6002 109.496 17.0791)
(103.628 173.578 55.0883)
(136.469 220.131 78.3916)
(26.2936 23.1633 -59.1322)
(41.5421 65.4646 -22.8077)
(58.195 125.339 19.9862)
(79.2271 188.731 56.6899)
(104.642 230.708 78.1989)
(20.5524 26.0183 -54.6462)
(30.2698 74.0679 -18.4018)
(40.2974 138.542 24.3523)
(52.2705 204.253 63.8947)
(72.7431 250.861 82.0534)
(13.2434 29.394 -51.2559)
(18.2583 81.8708 -15.8156)
(23.1123 148.242 28.8757)
(28.7985 215.678 70.2829)
(44.8753 266.571 88.6905)
(4.99205 31.8705 -49.0411)
(5.02364 86.3093 -14.6002)
(7.34692 155.112 27.9003)
(11.2181 223.761 71.4806)
(24.4738 275.351 97.3692)
(-3.47239 32.4721 -48.7994)
(-7.6524 87.1432 -18.7629)
(-7.9051 152.96 20.5512)
(-6.09711 213.249 70.12)
(2.33755 258.892 103.138)
(-11.1797 32.7698 -51.0635)
(-19.2877 85.2341 -26.6107)
(-24.0908 149.08 9.0229)
(-29.131 207.334 57.5791)
(-30.5005 254.35 92.4109)
(-18.0825 32.6157 -54.0129)
(-29.8025 82.303 -35.338)
(-38.4364 143.122 -2.63653)
(-48.6056 199.651 48.5113)
(-55.409 249.41 90.5524)
(-23.5694 32.1036 -56.8241)
(-37.5901 77.2746 -42.5642)
(-48.0721 132.864 -14.1892)
(-59.6795 183.396 38.3707)
(-69.4208 231.882 89.0389)
(-27.2627 31.3839 -58.633)
(-42.3479 70.5346 -47.3155)
(-56.2927 118.813 -23.073)
(-70.5439 163.21 26.6925)
(-83.8083 209.184 77.4648)
(-28.5787 31.1205 -59.2324)
(-45.4401 64.4135 -50.462)
(-62.2831 104.529 -29.2766)
(-79.6501 138.716 18.0613)
(-99.7733 180.049 65.0791)
(-27.9387 31.3914 -59.3096)
(-47.4165 59.0737 -51.9508)
(-68.5437 92.5798 -32.3005)
(-94.5124 118.809 10.7803)
(-122.858 153.98 49.2158)
(-27.3904 32.3303 -59.3502)
(-50.9326 56.3175 -51.7812)
(-79.2848 84.9301 -28.3323)
(-116.471 105.909 13.6198)
(-155.236 134.872 44.9342)
(-8.75512 4.94627 -56.3678)
(-8.53495 4.52816 -55.9588)
(-8.61788 4.53527 -55.3843)
(-9.03286 4.39627 -54.7731)
(-9.62286 4.20582 -54.1408)
(-10.3291 3.76438 -53.6687)
(-11.0923 3.33641 -53.1419)
(-11.9991 2.8936 -52.773)
(-12.9138 2.41982 -52.2691)
(-13.9315 1.974 -51.8253)
(-15.0115 1.51826 -51.3694)
(-16.3512 1.2806 -50.9256)
(-17.9795 1.07534 -50.4845)
(-19.89 1.088 -50.0081)
(-8.62396 2.81503 -56.6821)
(-8.9062 2.67395 -56.2361)
(-9.12959 2.85944 -55.5805)
(-9.74394 2.95658 -54.9662)
(-10.3327 2.83702 -54.2536)
(-11.055 2.48628 -53.7775)
(-11.7533 2.12541 -53.2342)
(-12.5752 1.75399 -52.8528)
(-13.3998 1.34733 -52.3416)
(-14.3631 0.988468 -51.9055)
(-15.4256 0.652938 -51.4633)
(-16.6429 0.571647 -51.035)
(-18.0327 0.671544 -50.5844)
(-19.6958 0.932527 -50.1265)
(-8.521 0.946147 -56.867)
(-8.95298 1.05412 -56.4278)
(-9.33781 1.36764 -55.7311)
(-10.0471 1.56272 -55.1714)
(-10.6538 1.48021 -54.4804)
(-11.3903 1.21949 -54.0127)
(-12.1121 0.952493 -53.479)
(-12.9547 0.676775 -53.0781)
(-13.8207 0.375819 -52.5573)
(-14.8132 0.128493 -52.0575)
(-15.9002 -0.088983 -51.5538)
(-17.0842 -0.0394621 -51.0495)
(-18.3355 0.23739 -50.5786)
(-19.7557 0.604151 -50.1965)
(-8.18146 -0.678938 -57.0591)
(-8.85459 -0.327442 -56.5865)
(-9.41654 0.077983 -55.8994)
(-10.1867 0.291638 -55.3931)
(-10.8251 0.235657 -54.7419)
(-11.5677 0.0485657 -54.2742)
(-12.315 -0.128301 -53.7567)
(-13.1598 -0.328562 -53.3165)
(-14.0481 -0.54494 -52.7929)
(-15.0299 -0.716846 -52.2462)
(-16.1099 -0.872307 -51.7209)
(-17.2722 -0.787846 -51.2086)
(-18.448 -0.449704 -50.7381)
(-19.7008 0.0811874 -50.3841)
(-7.82798 -2.08827 -57.2811)
(-8.63998 -1.50926 -56.8482)
(-9.33508 -1.07054 -56.1808)
(-10.1408 -0.890594 -55.6364)
(-10.8428 -0.928585 -55.0116)
(-11.6091 -1.05938 -54.5304)
(-12.3786 -1.16046 -54.0215)
(-13.2068 -1.29554 -53.5369)
(-14.092 -1.43479 -53.023)
(-15.0549 -1.5246 -52.4808)
(-16.1262 -1.60676 -52.0009)
(-17.2687 -1.49793 -51.5315)
(-18.4073 -1.15146 -51.0583)
(-19.5799 -0.553595 -50.6663)
(-7.41812 -3.30004 -57.6193)
(-8.33214 -2.57633 -57.1215)
(-9.16546 -2.13167 -56.4573)
(-10.0297 -1.9706 -55.8655)
(-10.8415 -1.97937 -55.2781)
(-11.6598 -2.07546 -54.7686)
(-12.4719 -2.12455 -54.265)
(-13.2951 -2.21148 -53.7518)
(-14.1716 -2.29089 -53.259)
(-15.0965 -2.32966 -52.7261)
(-16.1044 -2.38219 -52.2507)
(-17.1656 -2.27357 -51.7838)
(-18.2588 -1.94308 -51.3068)
(-19.3379 -1.32739 -50.8849)
(-6.90177 -4.38507 -57.9221)
(-7.90731 -3.55425 -57.3437)
(-8.90191 -3.11232 -56.7048)
(-9.86484 -2.95574 -56.0997)
(-10.7975 -2.93407 -55.5554)
(-11.6948 -3.01548 -55.0371)
(-12.5674 -3.04366 -54.5387)
(-13.4026 -3.11334 -54.0047)
(-14.26 -3.17337 -53.5124)
(-15.1193 -3.19922 -52.9731)
(-16.0301 -3.23911 -52.478)
(-17.0019 -3.12691 -51.9964)
(-18.0001 -2.80061 -51.5184)