/*--------------------------------*- C++ -*----------------------------------*\
| =========                 |                                                 |
| \\      /  F ield         | OpenFOAM: The Open Source CFD Toolbox           |
|  \\    /   O peration     | Version:  v2106                                 |
|   \\  /    A nd           | Website:  www.openfoam.com                      |
|    \\/     M anipulation  |                                                 |
\*---------------------------------------------------------------------------*/
FoamFile
{
    version     2.0;
    format      ascii;
    arch        "LSB;label=32;scalar=64";
    class       volVectorField;
    location    "0.00015";
    object      U;
}
// * * * * * * * * * * * * * * * * * * * * * * * * * * * * * * * * * * * * * //

dimensions      [0 1 -1 0 0 0 0];

internalField   nonuniform List<vector> 
18259
(
(0.000752455 0.00144437 -0.171033)
(0.000525565 0.00142753 -0.171021)
(0.000307136 0.0014103 -0.171017)
(9.17818e-05 0.0014009 -0.171021)
(-0.000122945 0.00140179 -0.171026)
(-0.000336428 0.00140912 -0.171032)
(-0.000552055 0.00142316 -0.171043)
(-0.000773116 0.00143607 -0.171058)
(-0.000997954 0.00145868 -0.171083)
(-0.00122805 0.00143308 -0.171103)
(-0.00145483 0.00146481 -0.1711)
(0.0011966 0.00122368 -0.171065)
(0.00096396 0.00123359 -0.171037)
(0.000739066 0.0012071 -0.171008)
(0.000517696 0.00118876 -0.170993)
(0.000303679 0.00117357 -0.170982)
(8.97596e-05 0.00116673 -0.170984)
(-0.000122158 0.00116801 -0.170991)
(-0.000333396 0.00117669 -0.171002)
(-0.000545682 0.00119318 -0.171023)
(-0.000762037 0.00121093 -0.171044)
(-0.000979351 0.00123548 -0.171072)
(-0.00120331 0.00122301 -0.171095)
(-0.00142674 0.00124664 -0.171101)
(0.00145781 0.00100986 -0.171049)
(0.00120625 0.000994696 -0.171031)
(0.000965872 0.000997608 -0.17099)
(0.000735057 0.000973012 -0.170964)
(0.000512386 0.000957277 -0.170948)
(0.000299771 0.000944591 -0.17094)
(8.98188e-05 0.000939493 -0.170944)
(-0.000117499 0.000942134 -0.170952)
(-0.000325991 0.000951973 -0.170964)
(-0.000538509 0.000968919 -0.170985)
(-0.000757943 0.00098733 -0.171007)
(-0.000983225 0.00101154 -0.171034)
(-0.00121645 0.00100635 -0.171071)
(-0.00145464 0.00102084 -0.171079)
(0.00143262 0.000776244 -0.171014)
(0.00118173 0.000769983 -0.170993)
(0.000942555 0.000766586 -0.170954)
(0.000713944 0.000745669 -0.17093)
(0.000496526 0.000732884 -0.170917)
(0.000290802 0.000722563 -0.170909)
(8.92018e-05 0.000719249 -0.170914)
(-0.00010951 0.000723383 -0.170922)
(-0.000310713 0.000734009 -0.170934)
(-0.000518368 0.000750549 -0.170955)
(-0.000735307 0.000768015 -0.170977)
(-0.000960169 0.00079068 -0.171004)
(-0.00119446 0.000792379 -0.171039)
(-0.00143534 0.000796687 -0.171051)
(0.00141909 0.000544954 -0.170995)
(0.00116709 0.000542882 -0.17097)
(0.000928206 0.000538347 -0.170929)
(0.000701016 0.000523876 -0.170906)
(0.000487644 0.000515449 -0.170893)
(0.000286289 0.00050895 -0.170884)
(9.04988e-05 0.000507819 -0.170889)
(-0.000102403 0.000512713 -0.170897)
(-0.000298732 0.000522284 -0.170909)
(-0.000503001 0.000535986 -0.17093)
(-0.000718515 0.000549627 -0.170953)
(-0.000944997 0.000568054 -0.170979)
(-0.00118113 0.000572076 -0.171016)
(-0.00142665 0.00057104 -0.171034)
(0.0014064 0.000316696 -0.170986)
(0.00115456 0.000316169 -0.170951)
(0.000915356 0.000313706 -0.170913)
(0.000690819 0.000306714 -0.170891)
(0.000481231 0.000303265 -0.170877)
(0.000283434 0.000301647 -0.170868)
(9.26595e-05 0.000302906 -0.170872)
(-9.55087e-05 0.000308057 -0.170879)
(-0.000288046 0.000315349 -0.170889)
(-0.000489822 0.000324756 -0.170909)
(-0.000703955 0.000333681 -0.170932)
(-0.000931431 0.000345632 -0.170956)
(-0.00116918 0.000349262 -0.170994)
(-0.00141681 0.000346251 -0.171022)
(0.00139953 9.7938e-05 -0.170989)
(0.0011495 0.00010048 -0.170949)
(0.000911426 0.0001022 -0.170912)
(0.000688638 0.000102084 -0.17089)
(0.000480826 0.000103092 -0.170875)
(0.00028397 0.000104136 -0.170865)
(9.58989e-05 0.00010495 -0.170867)
(-9.08328e-05 0.000107141 -0.170872)
(-0.000282222 0.000109683 -0.170881)
(-0.000483263 0.000114174 -0.1709)
(-0.000696721 0.000118152 -0.170922)
(-0.000924629 0.000121955 -0.170947)
(-0.00116363 0.000122412 -0.170985)
(-0.00141195 0.000119299 -0.171019)
(0.00140225 -0.000126705 -0.170996)
(0.00115274 -0.000124406 -0.170958)
(0.000915865 -0.000118418 -0.170922)
(0.000693111 -0.000110975 -0.170899)
(0.000484977 -0.000104643 -0.170884)
(0.000287291 -9.88059e-05 -0.170872)
(9.92693e-05 -9.48665e-05 -0.170872)
(-8.84258e-05 -9.14901e-05 -0.170875)
(-0.000280722 -9.01443e-05 -0.170882)
(-0.000482595 -9.18131e-05 -0.170899)
(-0.000696706 -9.50102e-05 -0.170919)
(-0.000925616 -0.000100216 -0.170944)
(-0.00116565 -0.000103466 -0.170982)
(-0.00141446 -0.000105029 -0.171017)
(0.00141159 -0.000348019 -0.171005)
(0.00116201 -0.000347143 -0.170975)
(0.000926003 -0.000339697 -0.170938)
(0.000702613 -0.000325702 -0.170916)
(0.00049278 -0.000315184 -0.170899)
(0.000293384 -0.000305857 -0.170886)
(0.000101862 -0.00030021 -0.170884)
(-8.75524e-05 -0.000298125 -0.170884)
(-0.00028259 -0.000300586 -0.170889)
(-0.000487116 -0.000306162 -0.170904)
(-0.000703788 -0.000313186 -0.170923)
(-0.000934459 -0.000325575 -0.170947)
(-0.00117522 -0.000331408 -0.170986)
(-0.00142445 -0.000332909 -0.171017)
(0.00142541 -0.00056989 -0.171023)
(0.00117736 -0.000568599 -0.171003)
(0.000941965 -0.000563036 -0.170966)
(0.000717526 -0.000544376 -0.170944)
(0.000504784 -0.00053092 -0.170927)
(0.00030227 -0.000518832 -0.170912)
(0.000105486 -0.000511667 -0.170907)
(-8.85262e-05 -0.000510349 -0.170906)
(-0.000288069 -0.000515307 -0.170909)
(-0.000496818 -0.000524356 -0.170922)
(-0.000716956 -0.000535569 -0.17094)
(-0.000948618 -0.000553204 -0.170964)
(-0.00118938 -0.000557744 -0.171003)
(-0.00143837 -0.000559742 -0.171025)
(0.00143615 -0.000795297 -0.171045)
(0.00119225 -0.000790711 -0.171031)
(0.000958332 -0.000789241 -0.170997)
(0.00073449 -0.000768138 -0.170973)
(0.000519296 -0.000752801 -0.170955)
(0.00031253 -0.000738896 -0.17094)
(0.000110225 -0.000730943 -0.170934)
(-9.14267e-05 -0.000729972 -0.170931)
(-0.000295756 -0.000735617 -0.170932)
(-0.000509129 -0.000746662 -0.170944)
(-0.000731885 -0.000760777 -0.17096)
(-0.000963575 -0.000781355 -0.170985)
(-0.00120359 -0.00078187 -0.171022)
(-0.00144978 -0.000787426 -0.171039)
(0.0014552 -0.00102172 -0.171077)
(0.00121306 -0.00100897 -0.171067)
(0.00097946 -0.00101597 -0.171031)
(0.00075451 -0.000994163 -0.171006)
(0.000536184 -0.000978554 -0.170987)
(0.000324431 -0.000963961 -0.170971)
(0.000115493 -0.000955923 -0.170963)
(-9.4002e-05 -0.000954829 -0.170958)
(-0.000305637 -0.000959927 -0.170959)
(-0.000523826 -0.000972476 -0.17097)
(-0.000750342 -0.000987119 -0.170986)
(-0.000984149 -0.00100789 -0.171012)
(-0.00122461 -0.00100009 -0.171051)
(-0.00147032 -0.00101381 -0.171066)
(0.00142569 -0.00125154 -0.1711)
(0.00119798 -0.00123043 -0.171094)
(0.000973116 -0.00124526 -0.17107)
(0.000755614 -0.00122322 -0.171043)
(0.00054028 -0.00120792 -0.171024)
(0.000329117 -0.00119291 -0.171005)
(0.000118671 -0.00118412 -0.170996)
(-9.31216e-05 -0.00118255 -0.170992)
(-0.000307711 -0.00118773 -0.170992)
(-0.000525471 -0.00120056 -0.171005)
(-0.000750404 -0.00121402 -0.171021)
(-0.000977537 -0.00123456 -0.171049)
(-0.00120915 -0.001219 -0.171075)
(-0.00143995 -0.00124191 -0.171087)
(0.00145345 -0.00147602 -0.171101)
(0.00122178 -0.00144455 -0.171103)
(0.000990594 -0.00147176 -0.171082)
(0.000765709 -0.00145077 -0.171056)
(0.00054615 -0.00143908 -0.171041)
(0.000332489 -0.00142491 -0.171031)
(0.00012081 -0.00141595 -0.171026)
(-9.22658e-05 -0.00141377 -0.171022)
(-0.000307659 -0.00141858 -0.171018)
(-0.000529102 -0.00143065 -0.171023)
(-0.000758239 -0.00144095 -0.171034)
(-0.000992433 -0.00146174 -0.171061)
(-0.00123177 -0.00143479 -0.171085)
(-0.00147088 -0.00146748 -0.171087)
(0.00158428 0.00160098 -0.187789)
(0.00133359 0.00156935 -0.18779)
(0.00107536 0.00159847 -0.187765)
(0.000822091 0.00157418 -0.187733)
(0.000572156 0.00155846 -0.187716)
(0.000328962 0.00153952 -0.187707)
(9.09152e-05 0.00152517 -0.187706)
(-0.000143251 0.00151994 -0.187708)
(-0.000375204 0.00151953 -0.18771)
(-0.000605385 0.00152464 -0.18772)
(-0.000837719 0.00152914 -0.187733)
(-0.00107081 0.00154488 -0.187757)
(-0.00130696 0.00151628 -0.187774)
(-0.00153353 0.00154019 -0.187765)
(0.00155854 0.00136351 -0.187791)
(0.00130894 0.00134137 -0.187775)
(0.00105674 0.00135942 -0.187744)
(0.000810187 0.001337 -0.187708)
(0.000563111 0.00132097 -0.187686)
(0.000320112 0.0013048 -0.187667)
(8.41703e-05 0.00129416 -0.187664)
(-0.000149703 0.00129029 -0.187668)
(-0.000379885 0.00129079 -0.187679)
(-0.000606302 0.00129821 -0.187699)
(-0.000832082 0.00130686 -0.18772)
(-0.00105542 0.00132348 -0.18775)
(-0.00128587 0.00130251 -0.18777)
(-0.00151312 0.00132233 -0.187776)
(0.00159218 0.00111145 -0.187768)
(0.0013276 0.0011009 -0.187748)
(0.00106711 0.00111233 -0.187701)
(0.000812149 0.00109335 -0.187664)
(0.000560134 0.00108106 -0.187638)
(0.000314871 0.00106882 -0.18762)
(8.15307e-05 0.00106206 -0.187618)
(-0.000151128 0.00106095 -0.187624)
(-0.000381569 0.00106398 -0.187636)
(-0.000610035 0.00107239 -0.187661)
(-0.000839507 0.00108091 -0.187688)
(-0.00106971 0.0010963 -0.187719)
(-0.00130727 0.00108127 -0.187755)
(-0.00154505 0.00109221 -0.187764)
(0.00157348 0.000859212 -0.187737)
(0.00130894 0.00085824 -0.187712)
(0.0010499 0.000862328 -0.187663)
(0.000795428 0.00084677 -0.187627)
(0.000546414 0.000837263 -0.1876)
(0.000305919 0.000828962 -0.187581)
(7.96807e-05 0.000825956 -0.18758)
(-0.000147513 0.000828306 -0.187588)
(-0.000373003 0.000834581 -0.187603)
(-0.00059761 0.000844999 -0.18763)
(-0.000825244 0.000854469 -0.187659)
(-0.00105526 0.000868833 -0.187694)
(-0.0012928 0.000860313 -0.18773)
(-0.00153231 0.000859376 -0.187743)
(0.00156447 0.000603453 -0.18772)
(0.0012993 0.000605192 -0.187688)
(0.00104077 0.00060573 -0.187636)
(0.000786335 0.000595077 -0.187598)
(0.000540079 0.000589488 -0.187569)
(0.00030319 0.000585821 -0.187549)
(8.17992e-05 0.00058662 -0.187548)
(-0.000141855 0.000592018 -0.187557)
(-0.000364648 0.000600435 -0.187574)
(-0.00058784 0.000611483 -0.187605)
(-0.00081596 0.000620439 -0.187639)
(-0.00104881 0.00063234 -0.187674)
(-0.00128697 0.000627545 -0.187716)
(-0.00153121 0.000620566 -0.187735)
(0.00155307 0.000346733 -0.187711)
(0.0012894 0.000346706 -0.187668)
(0.00103114 0.000345425 -0.187617)
(0.000778781 0.000339671 -0.187578)
(0.000536291 0.000338467 -0.187547)
(0.00030305 0.000340228 -0.187526)
(8.5877e-05 0.00034515 -0.187524)
(-0.000134252 0.000353303 -0.187533)
(-0.000354203 0.000363019 -0.187551)
(-0.00057616 0.00037362 -0.187584)
(-0.000805336 0.000381526 -0.18762)
(-0.0010413 0.000389709 -0.187656)
(-0.00128148 0.000387338 -0.187701)
(-0.00152825 0.000379166 -0.18773)
(0.00154342 9.46638e-05 -0.187711)
(0.00128302 9.36195e-05 -0.187662)
(0.00102727 9.41127e-05 -0.187612)
(0.000777968 9.44777e-05 -0.187573)
(0.00053899 9.76642e-05 -0.187542)
(0.000308931 0.00010245 -0.187519)
(9.30602e-05 0.000108352 -0.187517)
(-0.000125012 0.00011604 -0.187525)
(-0.000345168 0.000123586 -0.187542)
(-0.000568546 0.000131202 -0.187575)
(-0.000799512 0.000136906 -0.187612)
(-0.00103776 0.000140667 -0.18765)
(-0.00127968 0.000139252 -0.187695)
(-0.00152775 0.000133265 -0.187731)
(0.00154116 -0.000156034 -0.187714)
(0.00128228 -0.000161316 -0.187669)
(0.00102947 -0.000160636 -0.18762)
(0.000782826 -0.000155112 -0.187581)
(0.000546179 -0.000147436 -0.18755)
(0.000318395 -0.000137974 -0.187527)
(0.000101206 -0.000128143 -0.187523)
(-0.000115543 -0.000118268 -0.187529)
(-0.00033723 -0.00011077 -0.187545)
(-0.000563148 -0.000105349 -0.187577)
(-0.000797217 -0.000103564 -0.187613)
(-0.0010386 -0.000106419 -0.18765)
(-0.00128329 -0.000109016 -0.187695)
(-0.00153336 -0.000112158 -0.187731)
(0.00154206 -0.000399962 -0.187718)
(0.00128391 -0.000408174 -0.187682)
(0.00103432 -0.000408873 -0.187634)
(0.000790954 -0.000399376 -0.187598)
(0.000556052 -0.000389289 -0.187567)
(0.000328898 -0.000377714 -0.187544)
(0.000108754 -0.00036686 -0.187538)
(-0.000108131 -0.000357768 -0.187542)
(-0.000332194 -0.000353237 -0.187557)
(-0.000561258 -0.000351598 -0.187586)
(-0.000799112 -0.000352457 -0.187619)
(-0.00104369 -0.000359168 -0.187655)
(-0.00129109 -0.000359597 -0.187699)
(-0.00154286 -0.000359108 -0.187729)
(0.00154595 -0.000637984 -0.187728)
(0.00129018 -0.000645689 -0.187705)
(0.00104344 -0.000649737 -0.187659)
(0.000802837 -0.000636983 -0.187625)
(0.000568821 -0.000625802 -0.187597)
(0.000341095 -0.000612874 -0.187574)
(0.000116792 -0.000602147 -0.187567)
(-0.000101396 -0.000594409 -0.18757)
(-0.000330093 -0.000591941 -0.187582)
(-0.000564218 -0.000593419 -0.187607)
(-0.000805675 -0.000596957 -0.187637)
(-0.00105157 -0.000607384 -0.187671)
(-0.00130117 -0.000604398 -0.187714)
(-0.00155372 -0.000603101 -0.187734)
(0.00154691 -0.000872597 -0.187742)
(0.00129654 -0.000874891 -0.187726)
(0.00105176 -0.000883079 -0.187686)
(0.000814718 -0.000868009 -0.187652)
(0.000581687 -0.0008563 -0.187626)
(0.0003528 -0.000842934 -0.187606)
(0.000124843 -0.000833256 -0.187599)
(-9.71483e-05 -0.000827768 -0.187599)
(-0.00033021 -0.000827066 -0.187609)
(-0.000568733 -0.000831312 -0.187631)
(-0.000812594 -0.000837516 -0.187658)
(-0.00105903 -0.000850911 -0.18769)
(-0.00131052 -0.000843348 -0.187728)
(-0.00156089 -0.000845989 -0.187743)
(0.00155734 -0.00110213 -0.187767)
(0.00130999 -0.00109214 -0.187755)
(0.00106637 -0.00110745 -0.187715)
(0.000830206 -0.00109096 -0.187684)
(0.000596567 -0.00107939 -0.18766)
(0.000365209 -0.00106682 -0.18764)
(0.000132899 -0.00105877 -0.187631)
(-9.6429e-05 -0.00105569 -0.187631)
(-0.000334453 -0.00105697 -0.18764)
(-0.000577432 -0.00106408 -0.18766)
(-0.000824427 -0.00107254 -0.187684)
(-0.00107339 -0.00108776 -0.187715)
(-0.00132679 -0.001073 -0.187753)
(-0.00157704 -0.00108603 -0.187764)
(0.00152189 -0.00133246 -0.187781)
(0.00128816 -0.0013123 -0.187772)
(0.00105281 -0.00133307 -0.187747)
(0.000824585 -0.00131489 -0.187715)
(0.000595771 -0.00130233 -0.187694)
(0.000367413 -0.00128961 -0.187675)
(0.000136441 -0.00128228 -0.187668)
(-9.45149e-05 -0.00128089 -0.187667)
(-0.000332257 -0.00128509 -0.187675)
(-0.00057351 -0.00129564 -0.187695)
(-0.000817418 -0.00130639 -0.187716)
(-0.00105969 -0.00132384 -0.187747)
(-0.00130514 -0.0013029 -0.187771)
(-0.00154295 -0.00132491 -0.187779)
(0.00154358 -0.00155177 -0.187771)
(0.00131069 -0.00152553 -0.187774)
(0.00107015 -0.00155216 -0.187753)
(0.000834027 -0.0015333 -0.187725)
(0.000600152 -0.00152515 -0.18771)
(0.000368952 -0.00151475 -0.187701)
(0.000137185 -0.00150916 -0.187699)
(-9.45952e-05 -0.00150937 -0.1877)
(-0.000333048 -0.00151614 -0.187702)
(-0.000576011 -0.00152906 -0.187712)
(-0.000824069 -0.00153944 -0.187728)
(-0.00107418 -0.00155919 -0.187755)
(-0.0013261 -0.00153045 -0.187775)
(-0.00156832 -0.00155629 -0.187769)
(0.00169162 0.00169016 -0.205618)
(0.00144035 0.00167117 -0.205621)
(0.00117421 0.0017102 -0.205594)
(0.000905955 0.00169612 -0.205558)
(0.00063657 0.00168955 -0.205535)
(0.000370497 0.00167572 -0.20552)
(0.000106853 0.00166167 -0.205513)
(-0.000152365 0.00165125 -0.205507)
(-0.000403419 0.00164389 -0.205504)
(-0.000652696 0.00164074 -0.20551)
(-0.000899259 0.00163615 -0.205522)
(-0.00114335 0.00164513 -0.20555)
(-0.00138802 0.00161356 -0.205573)
(-0.00163373 0.00163112 -0.205571)
(0.00167718 0.00145033 -0.205629)
(0.00142498 0.00143588 -0.205611)
(0.00116402 0.00146769 -0.205578)
(0.000902575 0.00145682 -0.205537)
(0.000633939 0.00145098 -0.205507)
(0.000364168 0.0014408 -0.205479)
(9.54027e-05 0.00142996 -0.205465)
(-0.000164631 0.00142052 -0.205461)
(-0.000417271 0.00141213 -0.205466)
(-0.000664032 0.00140705 -0.205483)
(-0.000903606 0.00140097 -0.205503)
(-0.00113642 0.00140444 -0.205536)
(-0.00137298 0.0013719 -0.205563)
(-0.00161573 0.00138792 -0.205579)
(0.00171979 0.00119333 -0.205614)
(0.00145778 0.00118908 -0.205592)
(0.00118927 0.00121454 -0.205543)
(0.000917846 0.00120745 -0.205498)
(0.000640773 0.00120543 -0.205463)
(0.000362965 0.00119894 -0.205434)
(8.84614e-05 0.00119171 -0.205421)
(-0.000172322 0.00118505 -0.205417)
(-0.000431402 0.0011784 -0.205423)
(-0.000683652 0.00117334 -0.205444)
(-0.000927925 0.00116613 -0.205469)
(-0.00116493 0.00116761 -0.205504)
(-0.00140441 0.00113947 -0.205545)
(-0.00164768 0.0011467 -0.205563)
(0.00171029 0.000930576 -0.205587)
(0.00144965 0.000936085 -0.205562)
(0.0011836 0.000952736 -0.205509)
(0.000911815 0.000947761 -0.205466)
(0.000634823 0.00094733 -0.20543)
(0.000356892 0.000944181 -0.205398)
(8.25324e-05 0.000940944 -0.205385)
(-0.000175184 0.00093802 -0.205384)
(-0.000435064 0.000934389 -0.205393)
(-0.00068606 0.000931563 -0.205417)
(-0.00092876 0.000925831 -0.205444)
(-0.0011634 0.00092638 -0.205482)
(-0.00139954 0.000905268 -0.205522)
(-0.00163739 0.000899802 -0.205544)
(0.00170977 0.00065912 -0.205573)
(0.00144889 0.000666634 -0.205542)
(0.00118473 0.000676577 -0.205485)
(0.000912292 0.000673962 -0.20544)
(0.000635008 0.000674909 -0.2054)
(0.00035642 0.000674766 -0.205368)
(8.23907e-05 0.000675471 -0.205355)
(-0.000176183 0.000676728 -0.205357)
(-0.000437689 0.000676989 -0.205369)
(-0.000689721 0.000677268 -0.205398)
(-0.000933258 0.000673942 -0.205431)
(-0.00116891 0.000674595 -0.205468)
(-0.00140269 0.000659341 -0.205515)
(-0.00164047 0.000648266 -0.205541)
(0.00170228 0.000384274 -0.205565)
(0.00144443 0.000387297 -0.20552)
(0.00118174 0.000390597 -0.205465)
(0.000910505 0.000388764 -0.205419)
(0.000634379 0.000390501 -0.205378)
(0.000356679 0.000393034 -0.205344)
(8.55436e-05 0.000397699 -0.205333)
(-0.000174064 0.000403532 -0.205336)
(-0.000435215 0.000408048 -0.20535)
(-0.000687674 0.000412163 -0.205383)
(-0.000932389 0.000412726 -0.20542)
(-0.00116978 0.000414869 -0.205458)
(-0.00140343 0.000405431 -0.205507)
(-0.00164081 0.000393814 -0.205542)
(0.00169245 0.000107813 -0.20556)
(0.00143844 0.000102648 -0.205508)
(0.00117912 0.000100283 -0.205453)
(0.000911343 9.85508e-05 -0.205407)
(0.000638479 0.000101347 -0.205366)
(0.000363306 0.000107214 -0.205333)
(9.43307e-05 0.000115868 -0.205324)
(-0.000166503 0.000126083 -0.205328)
(-0.000429313 0.000134603 -0.205345)
(-0.000684244 0.000142669 -0.20538)
(-0.000931595 0.000146972 -0.20542)
(-0.00117106 0.000147784 -0.20546)
(-0.00140547 0.00014338 -0.205508)
(-0.00164327 0.000135891 -0.205548)
(0.00168504 -0.000163625 -0.205553)
(0.00143274 -0.000175234 -0.205503)
(0.00117686 -0.000181087 -0.205449)
(0.000913152 -0.000180501 -0.205404)
(0.000644374 -0.000176446 -0.205365)
(0.000372802 -0.000169987 -0.205334)
(0.000105803 -0.000159546 -0.205326)
(-0.000155474 -0.000147576 -0.205332)
(-0.000419864 -0.000139188 -0.20535)
(-0.000677325 -0.000131187 -0.205386)
(-0.000928038 -0.000125502 -0.205425)
(-0.00117095 -0.000124025 -0.205465)
(-0.00140837 -0.000122292 -0.205512)
(-0.0016484 -0.000123044 -0.205552)
(0.00167887 -0.000425731 -0.205545)
(0.00142674 -0.000441725 -0.205504)
(0.00117358 -0.000452393 -0.20545)
(0.000913899 -0.000452457 -0.205408)
(0.000649008 -0.000450112 -0.205371)
(0.000380715 -0.000443455 -0.205343)
(0.000115728 -0.000432772 -0.205336)
(-0.000145998 -0.000420372 -0.205342)
(-0.00041084 -0.00041151 -0.20536)
(-0.00066969 -0.00040273 -0.205395)
(-0.000923047 -0.000395053 -0.205434)
(-0.00116947 -0.000393468 -0.205472)
(-0.00141094 -0.000385596 -0.205519)
(-0.00165366 -0.000380889 -0.205551)
(0.00167459 -0.000678464 -0.205544)
(0.00142302 -0.000694015 -0.205515)
(0.00117212 -0.000710711 -0.205461)
(0.000916113 -0.000709051 -0.205422)
(0.000654659 -0.000707291 -0.205389)
(0.000389407 -0.000700812 -0.205364)
(0.000126169 -0.000691538 -0.205358)
(-0.000135982 -0.000680548 -0.205365)
(-0.000401749 -0.000672095 -0.205384)
(-0.000662983 -0.000664077 -0.205416)
(-0.000919371 -0.000656319 -0.205451)
(-0.00116851 -0.000656189 -0.205489)
(-0.00141458 -0.000642649 -0.205533)
(-0.00165948 -0.000637035 -0.205555)
(0.00166775 -0.000924353 -0.20555)
(0.00141845 -0.000931862 -0.205524)
(0.00116812 -0.000953232 -0.205478)
(0.000916289 -0.000949733 -0.205438)
(0.000658201 -0.000948376 -0.205409)
(0.000395977 -0.000942429 -0.205388)
(0.000134949 -0.000935694 -0.205384)
(-0.000127617 -0.000927707 -0.205391)
(-0.000393625 -0.000920893 -0.205408)
(-0.000656164 -0.000915791 -0.205438)
(-0.000914442 -0.00091042 -0.20547)
(-0.00116534 -0.000912623 -0.205508)
(-0.00141623 -0.00089376 -0.205546)
(-0.00166137 -0.000893022 -0.205563)
(0.00167373 -0.00116328 -0.205571)
(0.00142269 -0.00115597 -0.205548)
(0.00117209 -0.00118228 -0.205501)
(0.000921247 -0.00117629 -0.205463)
(0.000664508 -0.00117501 -0.205437)
(0.000403294 -0.00116996 -0.205418)
(0.00014247 -0.00116619 -0.205413)
(-0.000123086 -0.00116215 -0.20542)
(-0.00039096 -0.00115849 -0.205438)
(-0.000655259 -0.00115779 -0.205467)
(-0.000915667 -0.00115605 -0.205497)
(-0.00116969 -0.00116148 -0.205532)
(-0.00142477 -0.00113695 -0.205571)
(-0.0016742 -0.00114739 -0.205585)
(0.00163708 -0.00139954 -0.205586)
(0.00139202 -0.00138057 -0.205565)
(0.00114691 -0.00140993 -0.205533)
(0.000903069 -0.00140075 -0.205495)
(0.000652964 -0.00139837 -0.205473)
(0.000397971 -0.00139301 -0.205456)
(0.000143656 -0.00139048 -0.205454)
(-0.00011934 -0.00139021 -0.205462)
(-0.000382594 -0.00139156 -0.205477)
(-0.000641645 -0.00139656 -0.205504)
(-0.00089713 -0.00139976 -0.205532)
(-0.00114514 -0.00140978 -0.205567)
(-0.00139506 -0.0013808 -0.205592)
(-0.00164015 -0.0013994 -0.205602)
(0.00165824 -0.00163805 -0.205576)
(0.00140979 -0.00161442 -0.205571)
(0.00115776 -0.00164353 -0.205543)
(0.000905446 -0.0016291 -0.205511)
(0.000650572 -0.00162659 -0.205496)
(0.000394965 -0.00162081 -0.20549)
(0.00014086 -0.00161976 -0.205494)
(-0.000119752 -0.00162338 -0.205503)
(-0.00038022 -0.00163002 -0.205513)
(-0.000639144 -0.00164056 -0.205529)
(-0.000898562 -0.00164708 -0.205548)
(-0.00115543 -0.00166352 -0.205579)
(-0.00141243 -0.00163232 -0.205601)
(-0.00166214 -0.00165334 -0.205594)
(0.00182432 0.00179868 -0.224736)
(0.00155456 0.00178775 -0.224732)
(0.00128016 0.0018329 -0.224698)
(0.00100073 0.00182859 -0.224657)
(0.000716277 0.00183241 -0.224631)
(0.000430247 0.00182887 -0.224612)
(0.000143148 0.00182247 -0.224601)
(-0.000142944 0.00181607 -0.22459)
(-0.000423528 0.0018082 -0.224583)
(-0.000697229 0.00180395 -0.224589)
(-0.00097097 0.00179851 -0.224607)
(-0.00124245 0.00180637 -0.224648)
(-0.0015154 0.00177075 -0.22469)
(-0.00180192 0.00179172 -0.224706)
(0.00181195 0.00153249 -0.224743)
(0.00154771 0.00152241 -0.224717)
(0.00128056 0.00156547 -0.224681)
(0.00100922 0.00156638 -0.224635)
(0.000725272 0.00157219 -0.224601)
(0.000434121 0.00157223 -0.224566)
(0.000137694 0.00156843 -0.224544)
(-0.000156895 0.00156014 -0.224532)
(-0.000440535 0.00154753 -0.224531)
(-0.000713778 0.00153709 -0.224546)
(-0.000981485 0.00152452 -0.224569)
(-0.00124212 0.00152204 -0.224613)
(-0.00150311 0.00148571 -0.224657)
(-0.0017777 0.00149935 -0.224695)
(0.00185665 0.00126519 -0.224721)
(0.0015904 0.0012641 -0.224694)
(0.00131789 0.00130043 -0.224644)
(0.00103763 0.00130374 -0.224597)
(0.000743562 0.00131155 -0.224558)
(0.000441119 0.00131271 -0.224523)
(0.000133755 0.00130942 -0.224501)
(-0.000170238 0.00130037 -0.224486)
(-0.000459902 0.00128702 -0.224483)
(-0.0007418 0.00127443 -0.224497)
(-0.00101494 0.001258 -0.224521)
(-0.00127834 0.00125115 -0.224562)
(-0.0015383 0.00121686 -0.224618)
(-0.00180983 0.00122025 -0.224657)
(0.00185094 0.000991817 -0.224691)
(0.00159012 0.00100062 -0.224664)
(0.00132151 0.00102766 -0.224612)
(0.00104105 0.00103104 -0.224569)
(0.000745226 0.0010383 -0.224532)
(0.000439426 0.00103988 -0.224495)
(0.000127238 0.00103708 -0.224473)
(-0.000180455 0.00102883 -0.224458)
(-0.000470858 0.00101635 -0.224454)
(-0.000754753 0.00100329 -0.224469)
(-0.0010257 0.000985999 -0.224491)
(-0.00128335 0.000976938 -0.22453)
(-0.00153654 0.000950441 -0.224582)
(-0.00179566 0.00094583 -0.224624)
(0.00185457 0.000712281 -0.224677)
(0.00159558 0.000723127 -0.224644)
(0.00133024 0.000740939 -0.224589)
(0.00104884 0.000743682 -0.224548)
(0.000750463 0.000749265 -0.224508)
(0.00044001 0.000750571 -0.224472)
(0.000122312 0.000748354 -0.22445)
(-0.000188648 0.000742632 -0.224437)
(-0.000483377 0.000733312 -0.224436)
(-0.000769882 0.000722093 -0.224453)
(-0.00103994 0.000708807 -0.224477)
(-0.00129537 0.000704121 -0.224513)
(-0.00154272 0.000682626 -0.224568)
(-0.00179517 0.000672269 -0.224612)
(0.0018513 0.000429856 -0.224666)
(0.00159539 0.000436627 -0.224621)
(0.00133169 0.000444588 -0.224568)
(0.00105057 0.000445127 -0.224527)
(0.000751022 0.000447543 -0.224488)
(0.000437947 0.000447788 -0.224453)
(0.000117296 0.000446043 -0.224433)
(-0.000192147 0.000443379 -0.224422)
(-0.000491734 0.00043742 -0.224424)
(-0.000778407 0.000433719 -0.224443)
(-0.00104818 0.000426244 -0.224469)
(-0.00130148 0.000421061 -0.224505)
(-0.00154467 0.000408398 -0.224559)
(-0.00179122 0.000399073 -0.224611)
(0.00184594 0.000144693 -0.224657)
(0.00159292 0.000142637 -0.224602)
(0.00133109 0.000141675 -0.22455)
(0.0010512 0.000138897 -0.224509)
(0.000752298 0.000137403 -0.224471)
(0.000438427 0.000135879 -0.224438)
(0.000115591 0.000134784 -0.224423)
(-0.0001912 0.000136918 -0.224417)
(-0.00049636 0.000138816 -0.224422)
(-0.000783781 0.000137592 -0.224446)
(-0.00105306 0.000135684 -0.224474)
(-0.00130466 0.000134884 -0.224509)
(-0.00154571 0.000131625 -0.224562)
(-0.00178959 0.000127991 -0.224617)
(0.00184051 -0.000140481 -0.224643)
(0.00158769 -0.000151416 -0.224588)
(0.00132666 -0.00016058 -0.224534)
(0.00104786 -0.000166213 -0.224494)
(0.000750792 -0.00017116 -0.224458)
(0.000439152 -0.000173313 -0.224429)
(0.000118617 -0.000170853 -0.224418)
(-0.000187355 -0.000165767 -0.224418)
(-0.000494331 -0.000163752 -0.224428)
(-0.000781616 -0.000159185 -0.224453)
(-0.00105066 -0.000154198 -0.224483)
(-0.00130277 -0.0001509 -0.224518)
(-0.00154478 -0.000144769 -0.22457)
(-0.00179022 -0.000140867 -0.224623)
(0.00183539 -0.000421586 -0.224627)
(0.00158006 -0.000437391 -0.224578)
(0.00131835 -0.000453932 -0.224521)
(0.00104027 -0.000460712 -0.224482)
(0.00074535 -0.000467857 -0.224449)
(0.000436532 -0.000470799 -0.224424)
(0.000123228 -0.000468522 -0.224416)
(-0.000184832 -0.000462759 -0.22442)
(-0.000488049 -0.00045721 -0.224433)
(-0.000774374 -0.000448616 -0.22446)
(-0.00104364 -0.000438432 -0.224492)
(-0.00129711 -0.00043264 -0.224528)
(-0.00154177 -0.000418241 -0.224581)
(-0.00179052 -0.000409011 -0.224625)
(0.0018336 -0.000697248 -0.224622)
(0.00157405 -0.000711409 -0.22458)
(0.00131052 -0.000734486 -0.224523)
(0.00103324 -0.000740918 -0.224482)
(0.000740689 -0.000748892 -0.224453)
(0.000434394 -0.000752246 -0.224432)
(0.000128738 -0.000752044 -0.224428)
(-0.000179924 -0.000745882 -0.224435)
(-0.000479718 -0.0007383 -0.224451)
(-0.000765019 -0.000728053 -0.224479)
(-0.00103486 -0.000715274 -0.224511)
(-0.00129025 -0.000709012 -0.22455)
(-0.00153949 -0.000687796 -0.2246)
(-0.00179272 -0.000678365 -0.224635)
(0.00183027 -0.000969121 -0.224629)
(0.00156683 -0.000975427 -0.224588)
(0.00129984 -0.0010016 -0.224534)
(0.00102337 -0.00100529 -0.224491)
(0.000733342 -0.00101493 -0.224464)
(0.000430185 -0.00101978 -0.224446)
(0.000133148 -0.00102036 -0.224445)
(-0.000173815 -0.00101569 -0.224455)
(-0.000469839 -0.00100772 -0.224473)
(-0.000753165 -0.000998298 -0.224501)
(-0.00102324 -0.000986374 -0.224533)
(-0.00128037 -0.000981632 -0.224575)
(-0.00153509 -0.000955254 -0.224622)
(-0.00179281 -0.000951097 -0.224653)
(0.00184096 -0.00123437 -0.22466)
(0.00156826 -0.00122775 -0.22462)
(0.00129763 -0.00126111 -0.224562)
(0.00101894 -0.00126353 -0.224519)
(0.000729628 -0.00127169 -0.224492)
(0.000431492 -0.00127441 -0.224474)
(0.00013444 -0.00127607 -0.224473)
(-0.000169182 -0.00127393 -0.224484)
(-0.00046356 -0.00126778 -0.224504)
(-0.000746404 -0.00126154 -0.224535)
(-0.00101769 -0.00125277 -0.224568)
(-0.00127854 -0.00125191 -0.224611)
(-0.00153862 -0.00122091 -0.22466)
(-0.00180573 -0.00122738 -0.224688)
(0.00180496 -0.00150502 -0.224694)
(0.00153227 -0.00148579 -0.224655)
(0.00126349 -0.00152078 -0.22461)
(0.000990621 -0.0015183 -0.224564)
(0.000708651 -0.00152339 -0.224539)
(0.000421472 -0.00152452 -0.224523)
(0.0001299 -0.00152641 -0.224525)
(-0.000163849 -0.00152657 -0.224536)
(-0.000449631 -0.00152456 -0.224555)
(-0.000724714 -0.00152362 -0.224585)
(-0.000990499 -0.00152004 -0.224616)
(-0.0012464 -0.00152485 -0.224661)
(-0.00150443 -0.00149179 -0.224698)
(-0.00177199 -0.00150921 -0.224724)
(0.0018335 -0.00179068 -0.224703)
(0.00154675 -0.00176333 -0.224683)
(0.00126634 -0.00179824 -0.224642)
(0.000984408 -0.00178608 -0.224601)
(0.000698278 -0.00178617 -0.224583)
(0.000413518 -0.00178343 -0.224577)
(0.000124651 -0.00178517 -0.224584)
(-0.000161443 -0.00178791 -0.224595)
(-0.000441332 -0.00179119 -0.224607)
(-0.000715297 -0.00179702 -0.224625)
(-0.000986107 -0.00179897 -0.22465)
(-0.00125299 -0.00181288 -0.224691)
(-0.00152228 -0.00177741 -0.224726)
(-0.00179899 -0.00180268 -0.224731)
(0.00201416 0.00197999 -0.245385)
(0.00170309 0.00195956 -0.245368)
(0.00140569 0.00200798 -0.245322)
(0.00110624 0.00200513 -0.245272)
(0.000803148 0.00201533 -0.245243)
(0.00049663 0.00202127 -0.245224)
(0.00018523 0.00202705 -0.245215)
(-0.000130833 0.00203312 -0.245207)
(-0.000445041 0.00203671 -0.245204)
(-0.000760358 0.00204272 -0.245216)
(-0.00107761 0.00204556 -0.245246)
(-0.00139399 0.00206102 -0.245305)
(-0.00171479 0.00201731 -0.245368)
(-0.00205752 0.00204949 -0.245399)
(0.00198931 0.00166182 -0.245371)
(0.00169429 0.00164937 -0.245332)
(0.00140952 0.00169386 -0.245286)
(0.00112166 0.00169703 -0.245235)
(0.000822303 0.00170875 -0.245201)
(0.000512967 0.00171669 -0.245166)
(0.000193036 0.00172313 -0.245145)
(-0.000132586 0.00172581 -0.245133)
(-0.000458205 0.00172157 -0.245133)
(-0.000771404 0.00171778 -0.245153)
(-0.00108607 0.001712 -0.245186)
(-0.00139352 0.00171593 -0.245247)
(-0.00170005 0.00167973 -0.245312)
(-0.00202131 0.00169451 -0.245367)
(0.00203338 0.00136376 -0.245326)
(0.00173804 0.00136106 -0.245289)
(0.00144939 0.0013991 -0.245232)
(0.00115459 0.0014032 -0.245183)