/*--------------------------------*- C++ -*----------------------------------*\
| =========                 |                                                 |
| \\      /  F ield         | OpenFOAM: The Open Source CFD Toolbox           |
|  \\    /   O peration     | Version:  v2106                                 |
|   \\  /    A nd           | Website:  www.openfoam.com                      |
|    \\/     M anipulation  |                                                 |
\*---------------------------------------------------------------------------*/
FoamFile
{
    version     2.0;
    format      ascii;
    arch        "LSB;label=32;scalar=64";
    class       volScalarField;
    location    "0.000214";
    object      alphat;
}
// * * * * * * * * * * * * * * * * * * * * * * * * * * * * * * * * * * * * * //

dimensions      [1 -1 -1 0 0 0 0];

internalField   nonuniform List<scalar> 
18109
(
3.27868e-06
2.61477e-06
2.06316e-06
1.63748e-06
1.33367e-06
1.15232e-06
1.09547e-06
1.76354e-06
1.37139e-06
1.07445e-06
8.38492e-07
6.62742e-07
5.49005e-07
4.99055e-07
9.54294e-07
6.9435e-07
5.31433e-07
4.06673e-07
3.12823e-07
2.49687e-07
2.1828e-07
5.17779e-07
3.41951e-07
2.50556e-07
1.86594e-07
1.39593e-07
1.07708e-07
9.1057e-08
2.79693e-07
1.64564e-07
1.12969e-07
8.09579e-08
5.87082e-08
4.38744e-08
3.60925e-08
1.53171e-07
7.88793e-08
4.9209e-08
3.33025e-08
2.32551e-08
1.68469e-08
1.35764e-08
9.11612e-08
4.01746e-08
2.15194e-08
1.31892e-08
8.71098e-09
6.10146e-09
4.86363e-09
6.67799e-08
2.51455e-08
1.06541e-08
5.36221e-09
3.1615e-09
2.10277e-09
1.68348e-09
3.02315e-06
2.42407e-06
1.91934e-06
1.52607e-06
1.24315e-06
1.06996e-06
1.00799e-06
1.0683e-06
1.28029e-06
1.66838e-06
2.26504e-06
3.08413e-06
4.21239e-06
5.79448e-06
1.56643e-06
1.241e-06
9.78482e-07
7.66407e-07
6.07634e-07
5.03718e-07
4.56294e-07
4.72196e-07
5.70408e-07
7.78896e-07
1.13375e-06
1.66421e-06
2.44131e-06
3.57999e-06
8.09621e-07
6.10367e-07
4.73075e-07
3.63985e-07
2.81395e-07
2.25535e-07
1.97433e-07
1.99912e-07
2.43488e-07
3.48762e-07
5.47196e-07
8.74611e-07
1.3938e-06
2.20756e-06
4.15837e-07
2.90173e-07
2.17637e-07
1.63483e-07
1.23144e-07
9.56641e-08
8.13105e-08
8.10011e-08
1.00323e-07
1.52355e-07
2.61043e-07
4.60971e-07
8.0888e-07
1.40267e-06
2.10644e-07
1.33622e-07
9.54009e-08
6.93933e-08
5.0809e-08
3.83241e-08
3.18023e-08
3.15168e-08
4.04756e-08
6.67476e-08
1.27403e-07
2.51798e-07
4.9014e-07
9.33235e-07
1.07482e-07
6.05012e-08
4.00906e-08
2.78654e-08
1.97519e-08
1.44868e-08
1.18126e-08
1.18673e-08
1.63933e-08
3.04939e-08
6.6069e-08
1.46371e-07
3.14104e-07
6.49758e-07
6.00844e-08
2.86159e-08
1.66053e-08
1.06827e-08
7.24981e-09
5.17081e-09
4.18603e-09
4.41254e-09
6.95492e-09
1.51719e-08
3.73881e-08
9.14357e-08
2.12635e-07
4.70455e-07
4.28318e-08
1.65271e-08
7.50193e-09
4.08588e-09
2.54978e-09
1.7537e-09
1.43635e-09
1.69465e-09
3.27696e-09
8.48235e-09
2.32722e-08
6.13568e-08
1.51849e-07
3.54465e-07
4.22515e-08
1.38589e-08
4.62136e-09
1.8143e-09
9.21465e-10
5.90205e-10
5.10523e-10
7.46938e-10
1.83479e-09
5.44034e-09
1.60724e-08
4.47038e-08
1.16029e-07
2.82506e-07
5.2271e-08
1.60092e-08
4.42239e-09
1.25296e-09
4.68806e-10
2.8722e-10
2.96665e-10
5.25956e-10
1.40015e-09
4.27965e-09
1.29543e-08
3.7007e-08
9.88646e-08
2.47349e-07
7.05207e-08
2.11431e-08
5.55571e-09
1.49796e-09
6.31689e-10
5.36341e-10
6.54655e-10
9.94167e-10
1.98099e-09
4.99378e-09
1.38592e-08
3.8323e-08
1.0137e-07
2.52869e-07
9.81283e-08
2.98011e-08
8.25556e-09
2.76476e-09
1.76861e-09
1.91627e-09
2.43012e-09
3.32733e-09
5.17368e-09
9.78192e-09
2.19961e-08
5.37488e-08
1.32374e-07
3.14465e-07
1.38949e-07
4.52919e-08
1.47907e-08
6.81451e-09
5.66779e-09
6.61533e-09
8.49762e-09
1.13933e-08
1.62328e-08
2.58838e-08
4.75673e-08
9.81983e-08
2.14603e-07
4.66603e-07
2.05873e-07
7.87884e-08
3.25065e-08
1.89443e-08
1.72721e-08
2.0375e-08
2.62926e-08
3.52254e-08
4.88142e-08
7.18689e-08
1.15264e-07
2.0351e-07
3.87729e-07
7.57242e-07
6.04601e-06
9.40395e-06
1.41771e-05
2.08983e-05
3.05478e-05
4.53781e-05
5.79857e-06
9.10034e-06
1.38696e-05
2.06473e-05
3.04672e-05
4.53587e-05
4.51657e-06
7.44908e-06
1.19557e-05
1.87693e-05
2.91604e-05
4.55498e-05
3.57128e-06
6.23344e-06
1.05432e-05
1.74327e-05
2.85647e-05
4.7419e-05
2.89143e-06
5.35525e-06
9.59931e-06
1.68268e-05
2.94147e-05
5.29472e-05
2.43301e-06
4.79113e-06
9.13548e-06
1.70823e-05
3.22998e-05
6.35399e-05
2.18466e-06
4.5658e-06
9.25715e-06
1.85315e-05
3.7757e-05
7.88645e-05
2.14449e-06
4.69763e-06
1.00058e-05
2.11333e-05
4.51019e-05
9.59146e-05
2.31984e-06
5.19763e-06
1.13195e-05
2.43889e-05
5.23746e-05
0.000108599
2.73786e-06
6.04055e-06
1.29852e-05
2.76213e-05
5.8039e-05
0.000115061
3.38818e-06
7.09852e-06
1.46151e-05
2.9956e-05
6.05977e-05
0.000114172
4.29441e-06
8.34506e-06
1.6096e-05
3.10764e-05
5.94207e-05
0.000106257
5.43063e-06
9.66214e-06
1.7191e-05
3.0847e-05
5.5448e-05
9.52641e-05
6.90529e-06
1.12574e-05
1.84831e-05
3.08781e-05
5.18959e-05
8.44857e-05
8.93289e-06
1.33899e-05
2.03624e-05
3.17127e-05
4.93071e-05
7.42291e-05
6.90529e-06
9.87072e-06
1.57435e-05
2.5799e-05
4.15334e-05
6.34046e-05
4.83457e-06
7.41772e-06
1.268e-05
2.15839e-05
3.52552e-05
5.56184e-05
3.388e-06
5.77201e-06
1.04248e-05
1.8192e-05
3.04666e-05
5.07584e-05
2.46343e-06
4.57566e-06
8.54466e-06
1.52478e-05
2.63333e-05
4.63292e-05
1.84349e-06
3.62972e-06
6.96836e-06
1.28095e-05
2.30431e-05
4.27998e-05
1.39902e-06
2.86781e-06
5.66547e-06
1.07553e-05
2.00281e-05
3.8709e-05
1.07239e-06
2.271e-06
4.62352e-06
9.07152e-06
1.75131e-05
3.54112e-05
8.37567e-07
1.82423e-06
3.82156e-06
7.72922e-06
1.53641e-05
3.21001e-05
6.81712e-07
1.51853e-06
3.25491e-06
6.73954e-06
1.37154e-05
2.95922e-05
6.00237e-07
1.34914e-06
2.91759e-06
6.09459e-06
1.25124e-05
2.73198e-05
6.01735e-07
1.32981e-06
2.83054e-06
5.82441e-06
1.18006e-05
2.54563e-05
7.0772e-07
1.47952e-06
2.9896e-06
5.86977e-06
1.14096e-05
2.34455e-05
9.56567e-07
1.82844e-06
3.40206e-06
6.20947e-06
1.13182e-05
2.16421e-05
1.36653e-06
2.35724e-06
3.99145e-06
6.69268e-06
1.12611e-05
1.96146e-05
1.26855e-06
2.03234e-06
3.28809e-06
5.461e-06
9.27202e-06
1.62739e-05
8.11935e-07
1.50792e-06
2.68582e-06
4.77011e-06
8.47923e-06
1.53148e-05
5.17224e-07
1.11025e-06
2.19015e-06
4.1462e-06
7.67581e-06
1.42859e-05
3.47032e-07
8.29489e-07
1.75016e-06
3.46545e-06
6.67699e-06
1.29522e-05
2.4174e-07
6.14472e-07
1.35825e-06
2.81753e-06
5.71398e-06
1.16748e-05
1.70299e-07
4.45928e-07
1.02653e-06
2.24184e-06
4.80696e-06
1.03629e-05
1.20512e-07
3.20363e-07
7.68676e-07
1.77624e-06
4.04354e-06
9.22436e-06
8.58246e-08
2.30901e-07
5.77972e-07
1.41391e-06
3.41408e-06
8.26694e-06
6.44514e-08
1.76777e-07
4.60761e-07
1.18547e-06
3.01516e-06
7.73961e-06
5.67481e-08
1.59794e-07
4.25273e-07
1.11764e-06
2.90788e-06
7.70088e-06
6.6258e-08
1.88359e-07
4.94443e-07
1.26351e-06
3.18677e-06
8.23366e-06
9.93469e-08
2.7026e-07
6.83464e-07
1.64169e-06
3.82184e-06
9.11818e-06
1.65368e-07
4.04207e-07
9.71767e-07
2.18303e-06
4.65427e-06
1.01352e-05
2.85772e-07
6.16209e-07
1.36283e-06
2.83086e-06
5.58853e-06
1.13785e-05
9.94184e-07
2.40814e-06
5.55963e-06
1.20698e-05
2.46694e-05
4.71723e-05
1.60324e-06
3.47747e-06
7.22417e-06
1.42388e-05
2.66752e-05
4.70152e-05
2.5674e-06
4.93025e-06
9.14732e-06
1.63829e-05
2.83791e-05
4.67745e-05
4.16345e-06
7.06064e-06
1.168e-05
1.89947e-05
3.02399e-05
4.67942e-05
5.10739e-07
1.05972e-06
2.07839e-06
3.8664e-06
7.05648e-06
1.35077e-05
3.74262e-07
8.53547e-07
1.77912e-06
3.49338e-06
6.81806e-06
1.41747e-05
2.72775e-07
6.64173e-07
1.45967e-06
3.04393e-06
6.39522e-06
1.43598e-05
1.98143e-07
5.07594e-07
1.18006e-06
2.649e-06
6.05137e-06
1.45881e-05
1.47752e-07
3.97041e-07
9.88238e-07
2.42542e-06
6.04717e-06
1.55334e-05
1.19837e-07
3.40352e-07
9.20566e-07
2.47789e-06
6.67698e-06
1.78957e-05
1.18047e-07
3.53457e-07
1.03172e-06
2.96197e-06
8.2956e-06
2.23489e-05
1.53028e-07
4.6646e-07
1.39236e-06
4.00377e-06
1.09655e-05
2.81966e-05
2.46239e-07
7.24422e-07
2.07199e-06
5.63373e-06
1.44057e-05
3.42307e-05
4.31866e-07
1.17941e-06
3.10528e-06
7.71815e-06
1.79729e-05
3.88011e-05
7.57276e-07
1.88199e-06
4.48815e-06
1.00818e-05
2.12779e-05
4.17705e-05
1.29197e-06
2.88296e-06
6.17985e-06
1.25595e-05
2.42064e-05
4.36699e-05
2.1783e-06
4.30873e-06
8.2324e-06
1.51488e-05
2.68666e-05
4.52102e-05
3.68236e-06
6.42924e-06
1.09211e-05
1.81706e-05
2.95224e-05
4.64072e-05
6.80949e-05
0.000208616
0.000488172
0.000497665
0.000418009
7.37352e-05
0.000237362
0.000511588
0.00050212
0.000415313
8.48005e-05
0.000280819
0.00053326
0.000507889
0.000417671
0.000104132
0.000333755
0.000551839
0.00051596
0.000413852
0.000131409
0.000381796
0.000562239
0.000518035
0.000398399
0.000162465
0.000406674
0.000561569
0.000514397
0.000386379
0.00018883
0.000409972
0.000556871
0.000513251
0.000390184
0.000200778
0.000395781
0.000546739
0.000518034
0.000404198
0.000336573
0.000200149
0.000372461
0.000533709
0.00052876
0.000416713
0.000339973
0.000187929
0.000338157
0.000514221
0.000539362
0.000438451
0.000358103
0.000165405
0.000296234
0.000492696
0.000553678
0.000474056
0.000389362
0.00038775
0.000141251
0.000254576
0.000473561
0.00057309
0.000521569
0.000424341
0.0004582
0.000531365
0.000118637
0.000218517
0.000464141
0.000592657
0.00056563
0.000462926
0.000500825
0.000955025
0.000103811
0.000201603
0.000474051
0.000618516
0.000594364
0.000470252
0.000449589
0.000835245
9.71986e-05
0.000198423
0.000504235
0.00064529
0.000604987
0.000449566
0.000388344
0.000655376
9.32618e-05
0.000205891
0.000546735
0.00066549
0.000602752
0.000443618
0.000365866
0.00059253
9.12813e-05
0.000225305
0.000590538
0.000676176
0.000604265
0.000458531
0.000406689
0.000383496
8.93241e-05
0.000255134
0.0006295
0.000695644
0.000606111
0.000450504
0.000393018
0.000584611
8.78401e-05
0.000287309
0.000645318
0.000702182
0.000582491
0.000402317
0.000323815
0.00052809
8.6579e-05
0.00030871
0.000630787
0.000690746
0.000545521
0.000363555
0.000282235
0.000420235
8.69549e-05
0.000316487
0.000601642
0.000673904
0.00053011
0.000365842
0.000306648
0.000215299
8.70376e-05
0.000307364
0.000561354
0.000660064
0.000532664
0.000382138
0.000337101
0.000302011
8.633e-05
0.000283611
0.000510276
0.000647408
0.000537259
0.000388624
8.30466e-05
0.000249237
0.00044818
0.000622222
0.000551949
0.000404768
7.72142e-05
0.000210722
0.000381647
0.000590336
0.000581772
0.000438207
6.99657e-05
0.000175066
0.000316823
0.000558985
0.000621843
0.000484956
6.32406e-05
0.000146668
0.000271946
0.00053467
0.00066204
0.00053954
5.70221e-05
0.000126247
0.000251886
0.000548983
0.000698245
5.11427e-05
0.000112009
0.000253512
0.000596708
0.000730591
4.67477e-05
0.000102033
0.000273771
0.000647722
0.000729575
4.27938e-05
9.52987e-05
0.000312448
0.000684409
0.000713103
3.89016e-05
9.34461e-05
0.000368537
0.000718842
0.000708959
3.54603e-05
9.76361e-05
0.000426291
0.000729775
0.000685844
3.24314e-05
0.000106322
0.000456723
0.000702317
0.000638638
3.04632e-05
0.000116314
0.000450334
0.000655966
0.000597882
2.97495e-05
0.000124804
0.000419893
0.000614804
0.000566292
3.05237e-05
0.000128533
0.000374128
0.000578942
0.000539208
3.25226e-05
0.000126823
0.000324318
0.000541079
0.000513639
3.52285e-05
0.000121656
0.000281122
0.000503388
0.00049782
3.78569e-05
0.000114941
0.000250819
0.00047601
0.000492555
3.98105e-05
0.000108857
0.000240714
0.000474304
0.000490088
4.06301e-05
0.000104788
0.000257636
0.000504498
0.000491512
4.02219e-05
0.000103584
0.000306391
0.000550604
0.000492358
3.91247e-05
0.000105566
0.000381615
0.00057643
0.000477384
3.80753e-05
0.000112794
0.000474909
0.000585731
0.000468687
3.80932e-05
0.000127311
0.000568479
0.000595264
0.000464522
4.07155e-05
0.000148047
0.000622365
0.000590796
0.000448594
4.66616e-05
0.000170747
0.000614718
0.000571496
0.000424224
5.62291e-05
0.000190632
0.000582337
0.000550107
0.000409601
6.56898e-05
0.000200793
0.000544575
0.00053602
0.000402103
7.23675e-05
0.000201478
0.000509266
0.000523782
0.00039519
7.4104e-05
0.000195104
0.000470912
0.000508373
0.000395178
7.23086e-05
0.000185459
0.000440572
0.000494465
0.000403169
6.90119e-05
0.000179168
0.000425328
0.000486202
0.000413565
6.65193e-05
0.0001808
0.000432232
0.000483263
0.000420347
6.60017e-05
0.000190795
0.000457173
0.000488986
0.000422046
2.84944e-06
2.28049e-06
1.80686e-06
1.43772e-06
1.17219e-06
1.0068e-06
9.43264e-07
9.85767e-07
1.16514e-06
1.51228e-06
2.06817e-06
2.84783e-06
3.95467e-06
5.53535e-06
1.42897e-06
1.14032e-06
9.00369e-07
7.06553e-07
5.62101e-07
4.67163e-07
4.23164e-07
4.33721e-07
5.17732e-07
7.02864e-07
1.02799e-06
1.52347e-06
2.26878e-06
3.37739e-06
7.10967e-07
5.46472e-07
4.2538e-07
3.28052e-07
2.54855e-07
2.05481e-07
1.80766e-07
1.82175e-07
2.19868e-07
3.12944e-07
4.9263e-07
7.94161e-07
1.28316e-06
2.06374e-06
3.49695e-07
2.52508e-07
1.91251e-07
1.44102e-07
1.09181e-07
8.55382e-08
7.33788e-08
7.31026e-08
8.99785e-08
1.35865e-07
2.33451e-07
4.15625e-07
7.39157e-07
1.30465e-06
1.68569e-07
1.12519e-07
8.18524e-08
5.9854e-08
4.41386e-08
3.3649e-08
2.82814e-08
2.81431e-08
3.60185e-08
5.91432e-08
1.13316e-07
2.25997e-07
4.46281e-07
8.67287e-07
8.12356e-08
4.88685e-08
3.34605e-08
2.35177e-08
1.68353e-08
1.25093e-08
1.03615e-08
1.04822e-08
1.44651e-08
2.68725e-08
5.86082e-08
1.31271e-07
2.86232e-07
6.05685e-07
4.27462e-08
2.17738e-08
1.3321e-08
8.79181e-09
6.06811e-09
4.4e-09
3.62765e-09
3.85757e-09
6.09075e-09
1.33381e-08
3.32185e-08
8.23207e-08
1.94873e-07
4.41746e-07
2.91938e-08
1.15852e-08
5.59673e-09
3.22337e-09
2.08727e-09
1.47218e-09
1.23215e-09
1.46838e-09
2.85673e-09
7.4689e-09
2.07853e-08
5.56691e-08
1.40541e-07
3.36485e-07
2.86763e-08
9.09216e-09
3.07156e-09
1.30035e-09
7.1946e-10
4.86395e-10
4.33795e-10
6.42372e-10
1.59647e-09
4.80665e-09
1.44532e-08
4.09751e-08
1.08777e-07
2.71823e-07
3.60635e-08
1.03125e-08
2.69885e-09
7.80894e-10
3.33263e-10
2.31529e-10
2.51051e-10
4.49662e-10
1.2131e-09
3.78204e-09
1.17069e-08
3.42368e-08
9.37899e-08
2.40767e-07
4.96283e-08
1.37536e-08
3.35525e-09
9.14904e-10
4.63196e-10
4.51499e-10
5.67146e-10
8.58921e-10
1.71331e-09
4.39463e-09
1.25195e-08
3.55986e-08
9.67458e-08
2.47441e-07
7.05007e-08
1.98328e-08
5.19556e-09
1.87658e-09
1.42967e-09
1.66967e-09
2.14487e-09
2.92637e-09
4.52398e-09
8.60762e-09
1.97735e-08
4.9714e-08
1.25932e-07
3.06578e-07
1.0233e-07
3.14628e-08
1.01256e-08
5.1646e-09
4.8056e-09
5.85383e-09
7.58969e-09
1.01613e-08
1.44014e-08
2.29659e-08
4.27015e-08
9.01634e-08
2.02333e-07
4.50558e-07
1.57019e-07
5.85385e-08
2.44203e-08
1.53909e-08
1.50198e-08
1.8242e-08
2.37321e-08
3.18004e-08
4.39145e-08
6.45675e-08
1.04027e-07
1.86185e-07
3.62166e-07
7.22994e-07
2.6757e-06
2.10345e-06
1.65476e-06
1.30949e-06
1.0641e-06
9.03367e-07
8.31766e-07
8.37566e-07
9.53459e-07
1.2185e-06
1.69177e-06
2.40099e-06
3.48456e-06
5.10205e-06
1.25762e-06
9.85225e-07
7.72064e-07
6.04058e-07
4.81379e-07
3.9895e-07
3.59081e-07
3.57216e-07
4.11417e-07
5.47043e-07
8.08099e-07
1.2304e-06
1.91021e-06
2.96703e-06
5.83668e-07
4.41334e-07
3.40752e-07
2.6212e-07
2.04648e-07
1.65667e-07
1.4617e-07
1.4412e-07
1.68493e-07
2.34315e-07
3.71427e-07
6.14465e-07
1.03572e-06
1.74898e-06
2.66329e-07
1.90225e-07
1.42926e-07
1.07329e-07
8.18906e-08
6.47568e-08
5.6151e-08
5.51212e-08
6.59993e-08
9.73951e-08
1.68661e-07
3.08948e-07
5.76419e-07
1.08243e-06
1.1782e-07
7.86674e-08
5.69485e-08
4.14872e-08
3.0861e-08
2.38431e-08
2.03746e-08
2.00761e-08
2.50833e-08
4.04517e-08
7.87606e-08
1.63034e-07
3.41089e-07
7.15164e-07
5.12875e-08
3.13632e-08
2.15773e-08
1.51502e-08
1.09656e-08
8.28188e-09
6.99906e-09
7.02399e-09
9.50483e-09
1.75947e-08
3.96968e-08
9.35145e-08
2.18258e-07
5.03132e-07
2.40807e-08
1.25451e-08
7.86125e-09
5.24216e-09
3.67902e-09
2.71842e-09
2.28904e-09
2.4148e-09
3.787e-09
8.50176e-09
2.23905e-08
5.91162e-08
1.51065e-07
3.74777e-07
1.52398e-08
5.87082e-09
2.92269e-09
1.74786e-09
1.17102e-09
8.46537e-10
7.23456e-10
8.59056e-10
1.71251e-09
4.75036e-09
1.42198e-08
4.09909e-08
1.12446e-07
2.94824e-07
1.51382e-08
4.25239e-09
1.36163e-09
6.07662e-10
3.65291e-10
2.59692e-10
2.38126e-10
3.58868e-10
9.52023e-10
3.1157e-09
1.01977e-08
3.14117e-08
9.10094e-08
2.48342e-07
2.0164e-08
4.90117e-09
1.08903e-09
3.06341e-10
1.56874e-10
1.28858e-10
1.48163e-10
2.66004e-10
7.49966e-10
2.5393e-09
8.61511e-09
2.75704e-08
8.24247e-08
2.29327e-07
2.98132e-08
7.01505e-09
1.43185e-09
3.94481e-10
2.76295e-10
3.22418e-10
4.15284e-10
6.07396e-10
1.17631e-09
3.13599e-09
9.69551e-09
3.01338e-08
8.88461e-08
2.43621e-07
4.56009e-08
1.10641e-08
2.5636e-09
1.05462e-09
1.02093e-09
1.3042e-09
1.7016e-09
2.2905e-09
3.44783e-09
6.58441e-09
1.59495e-08
4.33302e-08
1.18286e-07
3.06187e-07
7.11978e-08
1.95602e-08
6.02285e-09
3.51578e-09
3.71369e-09
4.76371e-09
6.26143e-09
8.35579e-09
1.16748e-08
1.85457e-08
3.54053e-08
7.9186e-08
1.89992e-07
4.47962e-07
1.16292e-07
4.113e-08
1.72503e-08
1.18699e-08
1.2304e-08
1.54002e-08
2.02319e-08
2.71123e-08
3.71783e-08
5.44941e-08
8.8666e-08
1.63978e-07
3.35482e-07
7.05598e-07
2.58209e-06
1.98111e-06
1.53417e-06
1.19791e-06
9.69021e-07
8.1328e-07
7.41522e-07
7.30049e-07
8.13182e-07
1.02547e-06
1.43886e-06
2.09692e-06
3.18164e-06
4.86474e-06
1.14847e-06
8.67773e-07
6.69143e-07
5.17969e-07
4.12169e-07
3.39494e-07
3.04879e-07
2.97869e-07
3.35904e-07
4.38434e-07
6.51362e-07
1.0138e-06
1.6417e-06
2.66447e-06
5.04702e-07
3.62509e-07
2.74703e-07
2.09302e-07
1.63532e-07
1.32065e-07
1.17009e-07
1.13854e-07
1.30581e-07
1.77664e-07
2.82528e-07
4.77315e-07
8.42233e-07
1.50813e-06
2.16911e-07
1.45008e-07
1.06606e-07
7.93578e-08
6.07139e-08
4.79974e-08
4.19784e-08
4.0815e-08
4.80142e-08
6.92102e-08
1.20427e-07
2.26672e-07
4.48348e-07
9.13779e-07
8.9806e-08
5.5335e-08
3.91021e-08
2.82725e-08
2.11316e-08
1.63294e-08
1.40986e-08
1.37659e-08
1.68979e-08
2.67045e-08
5.28507e-08
1.144e-07
2.58868e-07
6.02142e-07
3.66645e-08
2.03034e-08
1.35846e-08
9.47802e-09
6.90609e-09
5.2109e-09
4.44345e-09
4.40382e-09
5.85682e-09
1.0799e-08
2.54382e-08
6.43111e-08
1.65618e-07
4.29036e-07
1.65589e-08
7.56137e-09
4.53389e-09
2.99907e-09
2.1215e-09
1.5617e-09
1.32078e-09
1.36821e-09
2.13478e-09
4.97084e-09
1.41658e-08
4.11347e-08
1.17644e-07
3.29122e-07
1.08163e-08
3.5206e-09
1.57011e-09
9.11836e-10
6.15012e-10
4.41147e-10
3.75706e-10
4.38624e-10
9.08913e-10
2.7585e-09
9.19447e-09
2.96524e-08
9.15979e-08
2.6949e-07
1.14932e-08
2.80179e-09
7.3806e-10
2.92972e-10
1.7493e-10
1.23772e-10
1.13056e-10
1.72774e-10
5.06502e-10
1.88048e-09
6.97651e-09
2.42657e-08
7.89411e-08
2.38742e-07
1.62368e-08
3.59166e-09
6.70077e-10
1.5578e-10
8.12296e-11
7.37115e-11
8.74657e-11
1.51848e-10
4.41465e-10
1.66605e-09
6.39938e-09
2.30274e-08
7.62666e-08
2.30876e-07
2.53631e-08
5.61026e-09
1.01286e-09
2.55908e-10
2.00066e-10
2.51088e-10
3.25485e-10
4.57202e-10
8.4434e-10
2.33439e-09
7.93524e-09
2.7258e-08
8.73652e-08
2.55665e-07
4.09735e-08
9.49757e-09
2.02155e-09
8.11102e-10
8.26006e-10
1.08944e-09
1.43274e-09
1.91196e-09
2.81577e-09
5.41162e-09
1.38962e-08
4.09585e-08
1.20237e-07
3.28888e-07
6.67273e-08
1.75687e-08
5.16112e-09
2.99847e-09
3.19201e-09
4.14598e-09
5.47721e-09
7.30835e-09
1.01382e-08
1.6145e-08
3.17975e-08
7.56519e-08
1.94063e-07
4.82565e-07
1.09846e-07
3.84889e-08
1.62123e-08
1.11415e-08
1.12889e-08
1.40459e-08
1.83915e-08
2.46344e-08
3.37222e-08
4.96121e-08
8.17986e-08
1.56645e-07
3.37112e-07
7.46212e-07
2.32686e-06
1.73747e-06
1.31614e-06
1.00803e-06
8.16596e-07
6.85862e-07
6.31576e-07
6.16239e-07
6.79519e-07
8.41389e-07
1.18748e-06
1.77548e-06
2.83418e-06
4.52842e-06
9.79829e-07
7.03232e-07
5.28375e-07
4.01705e-07
3.2135e-07
2.66497e-07
2.43157e-07
2.37199e-07
2.65788e-07
3.40596e-07
5.07862e-07
8.07686e-07
1.37482e-06
2.35588e-06
4.0913e-07
2.70134e-07
1.98024e-07
1.48308e-07
1.16869e-07
9.54942e-08
8.64248e-08
8.46222e-08
9.68343e-08
1.29528e-07
2.07075e-07
3.58365e-07
6.72012e-07
1.308e-06
1.6681e-07
9.86606e-08
6.94774e-08
5.0867e-08
3.93809e-08
3.16388e-08
2.83935e-08
2.79652e-08
3.28996e-08
4.6727e-08
8.23874e-08
1.61311e-07
3.47314e-07
7.94065e-07
6.59868e-08
3.42175e-08
2.27991e-08
1.62076e-08
1.22965e-08
9.69456e-09
8.62373e-09
8.56928e-09
1.05251e-08
1.65214e-08
3.38953e-08
7.88434e-08
2.00098e-07
5.32754e-07
2.65546e-08
1.15288e-08
7.03055e-09
4.80103e-09
3.55809e-09
2.74747e-09
2.42276e-09
2.44885e-09
3.26619e-09
6.14733e-09
1.56946e-08
4.44018e-08
1.3112e-07
3.90057e-07
1.2872e-08
4.24606e-09
2.10819e-09
1.32729e-09
9.52568e-10
7.1922e-10
6.31076e-10
6.68029e-10
1.06995e-09
2.71647e-09
8.84356e-09
2.96145e-08
9.78361e-08
3.11501e-07
9.98746e-09
2.44118e-09
7.43826e-10
3.5689e-10
2.3693e-10
1.74355e-10
1.54724e-10
1.87937e-10
4.32573e-10
1.54733e-09
6.07289e-09
2.28034e-08
8.07321e-08
2.65716e-07
1.18824e-08
2.58897e-09
4.85601e-10
1.19165e-10
5.9924e-11
4.37253e-11
4.26598e-11
7.22173e-11
2.55907e-10
1.15478e-09
5.06571e-09
2.03577e-08
7.45119e-08
2.46651e-07
1.75695e-08
3.83495e-09
6.26829e-10
1.00046e-10
4.24349e-11
4.37869e-11
5.40306e-11
8.87294e-11
2.65981e-10
1.15612e-09
5.13252e-09
2.08746e-08
7.59693e-08
2.46373e-07
2.82331e-08
6.38057e-09
1.08872e-09
2.22288e-10
1.59356e-10
2.04084e-10
2.60881e-10
3.50322e-10
6.22946e-10
1.82848e-09
6.94574e-09
2.63951e-08
9.12148e-08
2.81297e-07
4.65361e-08
1.10552e-08
2.22011e-09
7.44428e-10
7.09467e-10
9.3587e-10
1.21756e-09
1.59397e-09
2.30004e-09
4.51237e-09
1.25197e-08
4.03873e-08
1.2741e-07
3.65879e-07
7.61538e-08
2.01714e-08
5.60155e-09
2.89479e-09
2.9032e-09
3.72222e-09
4.85625e-09
6.41067e-09
8.79569e-09
1.41031e-08
2.89951e-08
7.42748e-08
2.04732e-07
5.36131e-07
1.21083e-07
4.30765e-08
1.81303e-08
1.1683e-08
1.10508e-08
1.33376e-08
1.70959e-08
2.26718e-08
3.08259e-08
4.55798e-08
7.65031e-08
1.52768e-07
3.47579e-07
8.12625e-07
1.58202e-06
1.14153e-06
8.39236e-07
6.29148e-07
5.13457e-07
4.33557e-07
4.07795e-07
4.00406e-07
4.47604e-07
5.48114e-07
7.9327e-07
1.23967e-06
2.12654e-06
3.58278e-06
6.18431e-07
4.15148e-07
2.98819e-07
2.20807e-07
1.785e-07
1.50093e-07
1.41388e-07
1.40369e-07
1.60565e-07
2.05171e-07
3.14832e-07
5.26913e-07
9.74867e-07
1.8533e-06
2.41741e-07
1.42319e-07
9.84049e-08
7.12306e-08
5.68211e-08
4.74104e-08
4.47076e-08
4.49947e-08
5.29627e-08
7.14775e-08
1.18948e-07
2.2135e-07
4.68255e-07
1.0772e-06
9.37314e-08
4.63609e-08
3.00964e-08
2.11692e-08
1.65939e-08
1.36796e-08
1.28853e-08
1.31529e-08
1.60546e-08
2.34569e-08
4.4349e-08
9.76106e-08
2.4824e-07
6.87198e-07
3.65133e-08
1.45185e-08
8.56994e-09
5.79814e-09
4.44736e-09
3.60388e-09
3.38199e-09
3.51006e-09
4.54694e-09
7.67634e-09
1.79567e-08
4.96903e-08
1.52835e-07
4.85834e-07
1.60284e-08
4.76192e-09
2.3227e-09
1.46654e-09
1.09279e-09
8.66199e-10
8.08472e-10
8.63554e-10
1.26821e-09
2.81482e-09
8.81586e-09
3.05189e-08
1.08048e-07
3.71056e-07
9.65263e-09
2.14174e-09
6.80434e-10
3.49217e-10
2.45588e-10
1.89443e-10
1.76647e-10
2.0466e-10
4.05926e-10
1.36245e-09
5.58551e-09
2.26687e-08
8.73261e-08
3.10756e-07
9.48562e-09
1.89156e-09
3.49074e-10
9.28321e-11
5.14306e-11
3.79931e-11
3.64248e-11
5.47136e-11
1.85635e-10
8.93672e-10
4.30257e-09
1.90853e-08
7.6493e-08
2.73858e-07
1.2425e-08
2.56661e-09
3.9493e-10
5.22064e-11
1.41451e-11
1.0412e-11
1.18463e-11
2.7181e-11
1.35432e-10
7.72931e-10
4.02732e-09
1.85823e-08
7.49402e-08
2.63823e-07
1.91569e-08
4.16622e-09
6.50295e-10
8.13301e-11
2.56955e-11
2.85559e-11
3.56313e-11
5.5068e-11
1.70963e-10
8.62478e-10
4.39765e-09
1.99698e-08
7.86716e-08
2.67506e-07
3.15507e-08
7.22817e-09
1.21726e-09
2.0505e-10
1.22469e-10
1.5779e-10
2.00388e-10
2.61932e-10
4.59625e-10
1.47138e-09
6.29559e-09
2.63322e-08
9.74461e-08
3.12541e-07
5.34837e-08
1.2933e-08
2.52376e-09
6.85822e-10
5.7463e-10
7.549e-10
9.77666e-10
1.26641e-09
1.80869e-09
3.68826e-09
1.12496e-08
3.98922e-08
1.35419e-07
4.07057e-07
8.93977e-08
2.3763e-08
6.26349e-09
2.76628e-09
2.52237e-09
3.16582e-09
4.08459e-09
5.36375e-09
7.32488e-09
1.19472e-08
2.60223e-08
7.24195e-08
2.15002e-07
5.93248e-07
1.40819e-07
4.96749e-08
2.0723e-08
1.22327e-08
1.05729e-08
1.22069e-08
1.52164e-08
2.00173e-08
2.71651e-08
4.07296e-08
7.03119e-08
1.47627e-07
3.55872e-07
8.79982e-07
6.6544e-07
4.52186e-07
3.24609e-07
2.43017e-07
2.03989e-07
1.77008e-07
1.72445e-07
1.73553e-07
1.9814e-07
2.42576e-07
3.58399e-07
5.86138e-07
1.09723e-06
2.0305e-06
2.36523e-07
1.44022e-07
9.97505e-08
7.29541e-08
6.03507e-08
5.21595e-08
5.10926e-08
5.24344e-08
6.16846e-08
7.98186e-08
1.27074e-07
2.30215e-07
4.82526e-07
1.07063e-06
8.60213e-08
4.32777e-08
2.81902e-08
1.99994e-08
1.62064e-08
1.38632e-08
1.36128e-08
1.42493e-08
1.73799e-08
2.42485e-08
4.3416e-08
9.2889e-08
2.35641e-07
6.55881e-07
3.30848e-08
1.26445e-08
7.35664e-09
5.00282e-09
3.94828e-09
3.32261e-09
3.25668e-09
3.4747e-09
4.45125e-09
7.0272e-09
1.54081e-08
4.21324e-08
1.32984e-07
4.39657e-07
1.43287e-08
3.87277e-09
1.80433e-09
1.14059e-09
8.70658e-10
7.168e-10
6.98366e-10
7.63421e-10
1.07846e-09
2.19767e-09
6.6734e-09
2.39675e-08
9.01814e-08
3.30789e-07
8.3754e-09
1.62537e-09
4.7411e-10
2.40919e-10
1.72931e-10
1.38553e-10
1.34038e-10
1.55164e-10
2.83814e-10
9.12164e-10
3.8747e-09
1.68277e-08
6.97301e-08
2.67257e-07
6.96559e-09
1.22994e-09
2.13088e-10
5.54367e-11
3.11288e-11
2.38276e-11
2.32388e-11
3.34283e-11
1.10504e-10
5.66514e-10
2.95074e-09
1.41313e-08
6.11649e-08
2.36913e-07
8.26228e-09
1.54847e-09
2.29157e-10
2.81903e-11
6.14896e-12
3.90695e-12
4.22579e-12
1.14853e-11
7.15823e-11
4.63168e-10
2.63855e-09
1.31492e-08
5.73461e-08
2.18838e-07
1.13663e-08
2.30003e-09
3.47434e-10
3.69491e-11
4.68395e-12
3.19368e-12
4.04418e-12
1.09019e-11
7.00411e-11
4.77259e-10
2.80027e-09
1.4017e-08
6.00829e-08
2.22177e-07
1.76681e-08
3.77304e-09
5.98604e-10
7.08813e-11
1.78204e-11
1.95169e-11
2.40388e-11
3.4699e-11
1.08562e-10
6.07111e-10
3.37495e-09
1.62448e-08
6.66873e-08
2.35307e-07
2.89446e-08
6.47022e-09
1.10216e-09
1.7308e-10
8.95702e-11
1.14612e-10
1.44604e-10
1.8549e-10
3.26795e-10
1.12594e-09
5.19493e-09
2.28219e-08
8.74084e-08
2.89917e-07
5.04076e-08
1.17905e-08
2.31036e-09
5.77351e-10
4.39203e-10
5.71326e-10
7.35392e-10
9.45553e-10
1.35218e-09
2.87748e-09
9.44682e-09
3.54859e-08
1.24907e-07
3.86711e-07
8.87236e-08
2.27589e-08
6.01159e-09
2.48938e-09
2.10211e-09
2.56659e-09
3.25538e-09
4.25856e-09
5.83737e-09
9.76068e-09
2.25069e-08
6.65585e-08
2.05824e-07
5.87136e-07
1.47501e-07
5.06108e-08
2.15849e-08
1.23769e-08
9.99855e-09
1.10062e-08
1.31573e-08
1.71427e-08
2.32582e-08
3.53955e-08
6.27544e-08
1.36835e-07
3.42068e-07
8.84559e-07
1.06792e-07
6.78587e-08
4.77925e-08
3.52806e-08
2.9955e-08
2.6508e-08
2.67879e-08
2.82931e-08
3.39652e-08
4.37146e-08
6.78669e-08
1.18953e-07
2.454e-07
5.33869e-07
3.36246e-08
1.84736e-08
1.24356e-08
8.92188e-09
7.35743e-09
6.41344e-09
6.46221e-09
6.96083e-09
8.65445e-09
1.19796e-08
2.07576e-08
4.27327e-08
1.05257e-07
2.86022e-07
1.14949e-08
4.83071e-09
2.98069e-09
2.0669e-09
1.6491e-09
1.4045e-09
1.40081e-09
1.53276e-09
1.98972e-09
3.08619e-09
6.51319e-09
1.74208e-08
5.51518e-08
1.87356e-07
4.76083e-09
1.32815e-09
6.64517e-10
4.3463e-10
3.34737e-10
2.77105e-10
2.71903e-10
3.02074e-10
4.24606e-10
8.33622e-10
2.4742e-09
9.00444e-09
3.50727e-08
1.35752e-07
2.70575e-09
5.02638e-10
1.53868e-10
8.31643e-11
6.07159e-11
4.87357e-11
4.69998e-11
5.45369e-11
9.7692e-11
3.1207e-10
1.36502e-09
6.19043e-09
2.71636e-08
1.12588e-07
2.36486e-09
3.79802e-10
6.27785e-11
1.68246e-11
9.7818e-12
7.51869e-12
7.25762e-12
1.04274e-11
3.50608e-11
1.87239e-10
1.01597e-09
5.10667e-09
2.36627e-08
1.00478e-07
2.68166e-09
4.55148e-10
6.28642e-11
7.34564e-12
1.60218e-12
1.02128e-12
1.11643e-12
3.40952e-12
2.28678e-11
1.53743e-10
9.12714e-10
4.82926e-09
2.29232e-08
9.73887e-08
3.70747e-09
6.7229e-10
9.33504e-11
8.92072e-12
7.55863e-13
3.24005e-13
4.86257e-13
2.4865e-12
2.03337e-11
1.47965e-10
9.21147e-10
4.98587e-09
2.36135e-08
9.81055e-08
5.44054e-09
1.04057e-09
1.48798e-10
1.46263e-11
2.00782e-12
1.77602e-12
2.20256e-12
4.40309e-12
2.43455e-11
1.72105e-10
1.07984e-09
5.80733e-09
2.68523e-08
1.0761e-07
8.71609e-09
1.72182e-09
2.5679e-10
2.99705e-11
1.00781e-11
1.22673e-11
1.50557e-11
1.96772e-11
4.79928e-11
2.47904e-10
1.42629e-09
7.28129e-09
3.20082e-08
1.21884e-07
1.44492e-08
2.95904e-09
4.8057e-10
8.28091e-11
5.45625e-11
7.24573e-11
9.13124e-11
1.1322e-10
1.76047e-10
5.23613e-10
2.37497e-09
1.08992e-08
4.45795e-08
1.59775e-07
2.62321e-08
5.69318e-09
1.13647e-09
3.37579e-10
2.87038e-10
3.74884e-10
4.8105e-10
6.05884e-10
8.21581e-10
1.56293e-09
4.77828e-09
1.80924e-08
6.67671e-08
2.22329e-07
5.06953e-08
1.28733e-08
3.87934e-09
1.85314e-09
1.56231e-09
1.84798e-09
2.29479e-09
2.94446e-09
3.92633e-09
6.19013e-09
1.32201e-08
3.78886e-08
1.19778e-07
3.64922e-07
1.03669e-07
4.06972e-08
2.02367e-08
1.25201e-08
9.73007e-09
1.00914e-08
1.1025e-08
1.37864e-08
1.7711e-08
2.60748e-08
4.33273e-08
8.91786e-08
2.17949e-07
5.89714e-07
7.82135e-09
4.84253e-09
3.42045e-09
2.52749e-09
2.09253e-09
1.84079e-09
1.85308e-09
2.01851e-09
2.5143e-09
3.44399e-09
5.73459e-09
1.11342e-08
2.55672e-08
6.32547e-08
2.26107e-09
1.18392e-09
8.03149e-10
5.80871e-10
4.64606e-10
3.95977e-10
3.89793e-10
4.24546e-10
5.41223e-10
8.07639e-10
1.57692e-09
3.85505e-09
1.12222e-08
3.53114e-08
7.76079e-10
2.82869e-10
1.70243e-10
1.19651e-10
9.30901e-11
7.70037e-11
7.39439e-11
8.02134e-11
1.07007e-10
1.92161e-10
5.17386e-10
1.76969e-09
6.61142e-09
2.49126e-08
4.15124e-10
8.95159e-11
3.50774e-11
2.1767e-11
1.63802e-11
1.32323e-11
1.2452e-11
1.37134e-11
2.17489e-11
6.12332e-11
2.53734e-10
1.11642e-09
4.75854e-09
1.94518e-08
3.7086e-10
6.32761e-11
1.18542e-11
3.90847e-12
2.48773e-12
1.95436e-12
1.83896e-12
2.36956e-12
6.78974e-12
3.44129e-11
1.82502e-10
8.89419e-10
4.02914e-09
1.73005e-08
4.63946e-10
8.05577e-11
1.1395e-11
1.43666e-12
3.6465e-13
2.43931e-13
2.54071e-13
6.55896e-13
4.10953e-12
2.69662e-11
1.54825e-10
7.93283e-10
3.74868e-09
1.65904e-08
6.4632e-10
1.17201e-10
1.60455e-11
1.52839e-12
1.21421e-13
3.77033e-14
6.29323e-14
4.10257e-13
3.43022e-12
2.42333e-11
1.4636e-10
7.86378e-10
3.84962e-09
1.72945e-08
9.79847e-10
1.81731e-10
2.47343e-11
2.26268e-12
1.93431e-13
1.07717e-13
1.4275e-13
4.56488e-13
3.3004e-12
2.40567e-11
1.52684e-10
8.52513e-10
4.24126e-09
1.89135e-08
1.50324e-09
2.83619e-10
3.88509e-11
3.77093e-12
7.59638e-13
8.15135e-13
9.72909e-13
1.36828e-12
4.62072e-12
2.93316e-11
1.86676e-10
1.04898e-09
5.16473e-09
2.24319e-08
2.39896e-09
4.58021e-10
6.50073e-11
8.21117e-12
4.2014e-12