/*--------------------------------*- C++ -*----------------------------------*\
| =========                 |                                                 |
| \\      /  F ield         | OpenFOAM: The Open Source CFD Toolbox           |
|  \\    /   O peration     | Version:  v2106                                 |
|   \\  /    A nd           | Website:  www.openfoam.com                      |
|    \\/     M anipulation  |                                                 |
\*---------------------------------------------------------------------------*/
FoamFile
{
    version     2.0;
    format      ascii;
    arch        "LSB;label=32;scalar=64";
    class       volScalarField;
    location    "0.000214";
    object      nut;
}
// * * * * * * * * * * * * * * * * * * * * * * * * * * * * * * * * * * * * * //

dimensions      [0 2 -1 0 0 0 0];

internalField   nonuniform List<scalar> 
18109
(
1.38427e-06
1.1053e-06
8.73031e-07
6.9367e-07
5.65508e-07
4.89089e-07
4.65387e-07
7.4297e-07
5.78549e-07
4.53761e-07
3.54507e-07
2.80475e-07
2.32569e-07
2.11599e-07
4.01313e-07
2.92381e-07
2.2401e-07
1.71606e-07
1.3213e-07
1.05562e-07
9.23637e-08
2.17348e-07
1.43717e-07
1.05413e-07
7.85862e-08
5.88472e-08
4.54483e-08
3.84545e-08
1.17206e-07
6.90401e-08
4.7441e-08
3.40321e-08
2.47025e-08
1.84779e-08
1.52131e-08
6.4079e-08
3.30345e-08
2.06283e-08
1.39738e-08
9.7671e-09
7.08211e-09
5.71196e-09
3.80743e-08
1.67954e-08
9.00469e-09
5.52406e-09
3.6519e-09
2.56025e-09
2.04252e-09
2.78423e-08
1.04927e-08
4.44976e-09
2.24161e-09
1.32292e-09
8.80708e-10
7.05694e-10
1.27547e-06
1.02385e-06
8.11485e-07
6.4594e-07
5.26704e-07
4.53773e-07
4.27862e-07
4.53894e-07
5.44467e-07
7.10239e-07
9.65202e-07
1.31563e-06
1.79846e-06
2.47546e-06
6.59458e-07
5.23148e-07
4.129e-07
3.2377e-07
2.5695e-07
2.1322e-07
1.93317e-07
2.00229e-07
2.42081e-07
3.30859e-07
4.82013e-07
7.08122e-07
1.03969e-06
1.52554e-06
3.40232e-07
2.5683e-07
1.99254e-07
1.53472e-07
1.18764e-07
9.52812e-08
8.34851e-08
8.46066e-08
1.03131e-07
1.47838e-07
2.32134e-07
3.71314e-07
5.92192e-07
9.3854e-07
1.74427e-07
1.21864e-07
9.1491e-08
6.87988e-08
5.18747e-08
4.03391e-08
3.43186e-08
3.42173e-08
4.24116e-08
6.44539e-08
1.1051e-07
1.95279e-07
3.42884e-07
5.94923e-07
8.8202e-08
5.60136e-08
4.00302e-08
2.91478e-08
2.13639e-08
1.61311e-08
1.3399e-08
1.32901e-08
1.70801e-08
2.81848e-08
5.38293e-08
1.06453e-07
2.07329e-07
3.94947e-07
4.49264e-08
2.53149e-08
1.67912e-08
1.16832e-08
8.29052e-09
6.08723e-09
4.96851e-09
4.99577e-09
6.90584e-09
1.28534e-08
2.78632e-08
6.17589e-08
1.32585e-07
2.74379e-07
2.50704e-08
1.19514e-08
6.94215e-09
4.47102e-09
3.03778e-09
2.16912e-09
1.75781e-09
1.8545e-09
2.92497e-09
6.38401e-09
1.5739e-08
3.85042e-08
8.9569e-08
1.98233e-07
1.78388e-08
6.88947e-09
3.13059e-09
1.70703e-09
1.06658e-09
7.34437e-10
6.02163e-10
7.11045e-10
1.37582e-09
3.56284e-09
9.77804e-09
2.5785e-08
6.38285e-08
1.4903e-07
1.75644e-08
5.76626e-09
1.92495e-09
7.56617e-10
3.84767e-10
2.46738e-10
2.13651e-10
3.12844e-10
7.6892e-10
2.28075e-09
6.7394e-09
1.87469e-08
4.86648e-08
1.18515e-07
2.16894e-08
6.64838e-09
1.83869e-09
5.21566e-10
1.95399e-10
1.19853e-10
1.2392e-10
2.19862e-10
5.85596e-10
1.79041e-09
5.42013e-09
1.54842e-08
4.13698e-08
1.0353e-07
2.921e-08
8.76427e-09
2.30564e-09
6.22396e-10
2.62791e-10
2.2337e-10
2.72903e-10
4.14719e-10
8.26743e-10
2.08451e-09
5.78541e-09
1.5998e-08
4.23191e-08
1.056e-07
4.05751e-08
1.23316e-08
3.42011e-09
1.14669e-09
7.34389e-10
7.96502e-10
1.01095e-09
1.38499e-09
2.15427e-09
4.07357e-09
9.16014e-09
2.23843e-08
5.51298e-08
1.31016e-07
5.73564e-08
1.87097e-08
6.11676e-09
2.82112e-09
2.34891e-09
2.74407e-09
3.52753e-09
4.73189e-09
6.74383e-09
1.07543e-08
1.97639e-08
4.08039e-08
8.91772e-08
1.93977e-07
8.48392e-08
3.24951e-08
1.3421e-08
7.82918e-09
7.14483e-09
8.43496e-09
1.08919e-08
1.45987e-08
2.02361e-08
2.97966e-08
4.77898e-08
8.43836e-08
1.60779e-07
3.14091e-07
2.55381e-06
3.97424e-06
5.99396e-06
8.83879e-06
1.2927e-05
1.92111e-05
2.44757e-06
3.8431e-06
5.85928e-06
8.72469e-06
1.28789e-05
1.91796e-05
1.90938e-06
3.15087e-06
5.06085e-06
7.94945e-06
1.23575e-05
1.93083e-05
1.51171e-06
2.64069e-06
4.47075e-06
7.39794e-06
1.21323e-05
2.01486e-05
1.22568e-06
2.27261e-06
4.07851e-06
7.15548e-06
1.25195e-05
2.25417e-05
1.03261e-06
2.03627e-06
3.88794e-06
7.27632e-06
1.37677e-05
2.70781e-05
9.28315e-07
1.94334e-06
3.94594e-06
7.90601e-06
1.61163e-05
3.36381e-05
9.12158e-07
2.00196e-06
4.27093e-06
9.02907e-06
1.92792e-05
4.09706e-05
9.87817e-07
2.21791e-06
4.83904e-06
1.0439e-05
2.24329e-05
4.6486e-05
1.16695e-06
2.58051e-06
5.559e-06
1.18425e-05
2.49074e-05
4.93575e-05
1.44575e-06
3.0367e-06
6.26682e-06
1.2866e-05
2.60509e-05
4.90628e-05
1.83399e-06
3.5734e-06
6.90644e-06
1.33564e-05
2.55644e-05
4.57241e-05
2.32115e-06
4.1406e-06
7.38088e-06
1.32676e-05
2.38742e-05
4.10314e-05
2.95255e-06
4.82387e-06
7.93211e-06
1.32693e-05
2.23228e-05
3.63681e-05
3.82441e-06
5.74364e-06
8.74483e-06
1.36318e-05
2.12027e-05
3.19214e-05
2.95118e-06
4.22381e-06
6.73867e-06
1.1052e-05
1.78021e-05
2.71996e-05
2.06103e-06
3.16607e-06
5.41483e-06
9.22529e-06
1.50816e-05
2.38177e-05
1.44112e-06
2.45771e-06
4.44094e-06
7.7564e-06
1.3004e-05
2.16934e-05
1.0454e-06
1.94361e-06
3.63146e-06
6.4864e-06
1.1214e-05
1.97577e-05
7.80562e-07
1.5381e-06
2.95444e-06
5.43612e-06
9.78803e-06
1.81979e-05
5.91022e-07
1.21227e-06
2.39612e-06
4.55244e-06
8.48327e-06
1.64063e-05
4.52015e-07
9.57634e-07
1.95047e-06
3.8292e-06
7.39622e-06
1.49613e-05
3.52222e-07
7.67325e-07
1.60793e-06
3.25322e-06
6.46915e-06
1.35183e-05
2.86023e-07
6.37116e-07
1.36585e-06
2.82842e-06
5.75673e-06
1.24176e-05
2.51229e-07
5.64567e-07
1.22091e-06
2.54998e-06
5.23436e-06
1.14205e-05
2.51249e-07
5.55035e-07
1.18119e-06
2.42951e-06
4.91977e-06
1.06009e-05
2.94775e-07
6.15903e-07
1.24395e-06
2.44067e-06
4.74e-06
9.72578e-06
3.97556e-07
7.59339e-07
1.4118e-06
2.57424e-06
4.68641e-06
8.94636e-06
5.66627e-07
9.76505e-07
1.65196e-06
2.76648e-06
4.64853e-06
8.08431e-06
5.25274e-07
8.40748e-07
1.35844e-06
2.25287e-06
3.81936e-06
6.69286e-06
3.36157e-07
6.23502e-07
1.10894e-06
1.96641e-06
3.48931e-06
6.29143e-06
2.14079e-07
4.58853e-07
9.03782e-07
1.70828e-06
3.15719e-06
5.86674e-06
1.43619e-07
3.42743e-07
7.22063e-07
1.42762e-06
2.74638e-06
5.31971e-06
1.00027e-07
2.53827e-07
5.60212e-07
1.16043e-06
2.34976e-06
4.79393e-06
7.04511e-08
1.84138e-07
4.232e-07
9.22863e-07
1.97571e-06
4.25272e-06
4.98363e-08
1.32214e-07
3.16661e-07
7.30564e-07
1.66033e-06
3.78121e-06
3.54747e-08
9.52305e-08
2.37895e-07
5.80916e-07
1.40014e-06
3.38381e-06
2.66237e-08
7.28566e-08
1.89491e-07
4.86544e-07
1.23499e-06
3.16326e-06
2.34252e-08
6.58116e-08
1.7477e-07
4.58302e-07
1.1898e-06
3.14338e-06
2.7329e-08
7.7522e-08
2.03071e-07
5.17788e-07
1.30298e-06
3.35791e-06
4.09431e-08
1.11156e-07
2.80558e-07
6.72455e-07
1.56188e-06
3.71696e-06
6.80992e-08
1.66147e-07
3.98746e-07
8.93952e-07
1.90187e-06
4.13105e-06
1.17583e-07
2.5315e-07
5.59051e-07
1.1591e-06
2.28397e-06
4.64028e-06
4.16885e-07
1.00948e-06
2.32928e-06
5.05619e-06
1.0331e-05
1.97381e-05
6.73516e-07
1.46115e-06
3.03457e-06
5.98149e-06
1.12026e-05
1.97318e-05
1.08063e-06
2.07652e-06
3.85167e-06
6.89894e-06
1.1947e-05
1.96808e-05
1.75664e-06
2.98177e-06
4.93221e-06
8.02362e-06
1.27722e-05
1.97568e-05
2.1019e-07
4.35419e-07
8.52763e-07
1.58377e-06
2.88528e-06
5.51071e-06
1.54308e-07
3.51341e-07
7.31245e-07
1.4333e-06
2.79228e-06
5.79222e-06
1.12647e-07
2.73869e-07
6.01072e-07
1.25148e-06
2.62491e-06
5.88169e-06
8.19795e-08
2.09735e-07
4.87033e-07
1.09187e-06
2.49045e-06
5.99162e-06
6.12456e-08
1.64394e-07
4.08783e-07
1.00213e-06
2.49499e-06
6.39651e-06
4.97708e-08
1.41206e-07
3.81567e-07
1.02588e-06
2.76021e-06
7.38355e-06
4.91191e-08
1.46922e-07
4.2839e-07
1.22829e-06
3.43457e-06
9.23629e-06
6.37881e-08
1.94238e-07
5.79065e-07
1.66283e-06
4.54745e-06
1.16749e-05
1.0282e-07
3.02179e-07
8.63165e-07
2.34399e-06
5.98631e-06
1.42102e-05
1.80645e-07
4.92916e-07
1.29636e-06
3.21933e-06
7.49158e-06
1.61643e-05
3.17315e-07
7.88265e-07
1.87844e-06
4.21826e-06
8.89999e-06
1.74628e-05
5.42369e-07
1.21044e-06
2.59375e-06
5.27191e-06
1.01598e-05
1.83233e-05
9.16263e-07
1.81361e-06
3.46452e-06
6.37685e-06
1.13095e-05
1.90261e-05
1.55271e-06
2.71361e-06
4.60928e-06
7.67211e-06
1.2465e-05
1.95865e-05
2.86899e-05
8.69165e-05
0.000197954
0.000192248
0.000149642
3.11459e-05
9.91341e-05
0.000207301
0.000192643
0.000146815
3.58851e-05
0.000117294
0.0002151
0.000193064
0.000145075
4.40942e-05
0.000139211
0.000221741
0.000195278
0.000143787
5.55965e-05
0.000158918
0.000225155
0.000195725
0.00013981
6.87691e-05
0.000169179
0.000224607
0.000194125
0.000135898
8.00664e-05
0.000170749
0.000222916
0.000193277
0.000135856
8.53075e-05
0.000165292
0.000219797
0.000196358
0.000142018
0.00011121
8.53158e-05
0.000156353
0.000216366
0.000203366
0.000150047
0.000116385
8.03086e-05
0.000142577
0.000210098
0.000209854
0.000159563
0.000123135
7.09079e-05
0.000125615
0.000203007
0.000217696
0.000173309
0.000132354
0.000125232
6.06635e-05
0.000108312
0.000196272
0.000226883
0.000190879
0.000142298
0.000141459
0.000155959
5.10112e-05
9.32755e-05
0.000193789
0.000236832
0.000207881
0.000152435
0.000144881
0.000250254
4.46469e-05
8.62552e-05
0.000199002
0.000249416
0.000222479
0.00015804
0.00013554
0.000230967
4.1739e-05
8.49502e-05
0.000212655
0.000262479
0.000231019
0.00015724
0.000124687
0.000200667
3.99768e-05
8.80601e-05
0.000230332
0.000269167
0.000227557
0.000152449
0.000118555
0.0001842
3.90481e-05
9.61008e-05
0.000247472
0.000270954
0.000223128
0.000150707
0.000120114
0.000108503
3.81212e-05
0.0001084
0.000262367
0.000277289
0.00022302
0.000149059
0.000117511
0.000156729
3.73524e-05
0.000121414
0.000267331
0.000278703
0.000215234
0.00013697
0.00010234
0.000160761
3.66785e-05
0.000129907
0.000259934
0.000272806
0.000201652
0.000124811
9.23148e-05
0.000134175
3.66918e-05
0.000132586
0.000246398
0.000263552
0.000191876
0.000121845
9.55353e-05
6.61675e-05
3.65768e-05
0.00012819
0.000229156
0.000257957
0.000193859
0.000128451
0.000105153
8.75324e-05
3.61381e-05
0.000117781
0.000207909
0.000253683
0.000198168
0.00013355
3.46183e-05
0.000103053
0.00018221
0.000244667
0.000205661
0.000140583
3.20458e-05
8.67456e-05
0.000154664
0.000232048
0.000217071
0.000152253
2.89161e-05
7.17784e-05
0.000128022
0.000219377
0.00023156
0.000166848
2.60432e-05
5.99586e-05
0.000109768
0.000210223
0.00024669
0.000183565
2.34232e-05
5.15295e-05
0.000101642
0.00021652
0.000262465
2.09678e-05
4.56956e-05
0.000102416
0.000236417
0.000276937
1.91481e-05
4.16303e-05
0.000110731
0.00025644
0.000275204
1.75243e-05
3.88733e-05
0.000126305
0.000270394
0.000266132
1.59343e-05
3.81271e-05
0.000148942
0.000283823
0.000263648
1.45191e-05
3.98032e-05
0.00017206
0.000287547
0.000254605
1.32694e-05
4.32979e-05
0.00018408
0.000275595
0.000236954
1.24472e-05
4.72825e-05
0.000181001
0.000255478
0.000217878
1.21338e-05
5.06036e-05
0.000168195
0.000238287
0.000205896
1.24269e-05
5.19846e-05
0.000149424
0.000224128
0.000197487
1.32183e-05
5.11683e-05
0.000129136
0.000208896
0.000187931
1.42995e-05
4.8989e-05
0.000111642
0.000194116
0.000181766
1.53548e-05
4.62252e-05
9.94398e-05
0.000183496
0.000179622
1.61429e-05
4.37568e-05
9.53942e-05
0.000182943
0.000178706
1.64805e-05
4.21373e-05
0.000102228
0.000194854
0.000179615
1.63263e-05
4.16686e-05
0.000121488
0.000211865
0.00017916
1.59069e-05
4.25517e-05
0.000151487
0.000221113
0.000171979
1.55239e-05
4.56113e-05
0.000188712
0.000223825
0.000166623
1.55786e-05
5.1617e-05
0.000225873
0.000226617
0.000164118
1.66922e-05
6.01182e-05
0.00024726
0.000224249
0.000158246
1.91711e-05
6.94663e-05
0.000244287
0.000216619
0.000149972
2.31462e-05
7.77166e-05
0.000231736
0.000208006
0.000143756
2.71159e-05
8.20516e-05
0.000217013
0.000202841
0.000141647
2.99578e-05
8.25476e-05
0.000203566
0.000199539
0.000141196
3.07724e-05
8.01417e-05
0.000188494
0.000193973
0.000141064
3.01145e-05
7.63936e-05
0.00017674
0.000189301
0.000143555
2.88363e-05
7.40109e-05
0.000170904
0.00018631
0.000146606
2.7875e-05
7.48927e-05
0.000174246
0.000185709
0.000148628
2.77378e-05
7.92636e-05
0.000184992
0.000188625
0.000150019
1.20035e-06
9.61521e-07
7.62436e-07
6.07298e-07
4.95636e-07
4.26186e-07
3.99712e-07
4.18179e-07
4.94787e-07
6.42921e-07
8.80175e-07
1.21337e-06
1.68673e-06
2.36295e-06
6.00717e-07
4.79904e-07
3.79235e-07
2.97909e-07
2.37243e-07
1.97394e-07
1.78995e-07
1.83655e-07
2.19447e-07
2.98215e-07
4.36584e-07
6.47627e-07
9.65488e-07
1.43849e-06
2.98366e-07
2.2958e-07
1.78852e-07
1.38071e-07
1.07373e-07
8.66666e-08
7.63254e-08
7.70005e-08
9.30218e-08
1.32521e-07
2.088e-07
3.36903e-07
5.44885e-07
8.77131e-07
1.46491e-07
1.05883e-07
8.02649e-08
6.05394e-08
4.59168e-08
3.60144e-08
3.09294e-08
3.08448e-08
3.80008e-08
5.74293e-08
9.87596e-08
1.7597e-07
3.13223e-07
5.53318e-07
7.04945e-08
4.70985e-08
3.42924e-08
2.5102e-08
1.85315e-08
1.41439e-08
1.19012e-08
1.18552e-08
1.51865e-08
2.49565e-08
4.78515e-08
9.55063e-08
1.88747e-07
3.67087e-07
3.39138e-08
2.04199e-08
1.39949e-08
9.84681e-09
7.0571e-09
5.25e-09
4.35362e-09
4.40886e-09
6.08939e-09
1.13209e-08
2.47072e-08
5.53755e-08
1.20827e-07
2.55849e-07
1.78156e-08
9.08309e-09
5.56269e-09
3.67555e-09
2.53997e-09
1.844e-09
1.52207e-09
1.62014e-09
2.56016e-09
5.61023e-09
1.39804e-08
3.46645e-08
8.21062e-08
1.86231e-07
1.21469e-08
4.82503e-09
2.33359e-09
1.34564e-09
8.72472e-10
6.16127e-10
5.16251e-10
6.15806e-10
1.19895e-09
3.13648e-09
8.73267e-09
2.33988e-08
5.90991e-08
1.41571e-07
1.19126e-08
3.78087e-09
1.27882e-09
5.42075e-10
3.00308e-10
2.0327e-10
1.81482e-10
2.68977e-10
6.68937e-10
2.01504e-09
6.06134e-09
1.71897e-08
4.565e-08
1.14135e-07
1.49588e-08
4.28195e-09
1.12203e-09
3.25059e-10
1.38902e-10
9.66099e-11
1.0486e-10
1.87965e-10
5.07392e-10
1.58252e-09
4.89995e-09
1.43335e-08
3.92776e-08
1.00883e-07
2.05561e-08
5.70231e-09
1.39286e-09
3.80254e-10
1.92746e-10
1.88079e-10
2.36469e-10
3.58374e-10
7.15217e-10
1.83512e-09
5.22913e-09
1.48719e-08
4.0429e-08
1.03464e-07
2.91591e-08
8.21043e-09
2.15355e-09
7.78713e-10
5.93927e-10
6.94299e-10
8.92624e-10
1.21859e-09
1.88463e-09
3.5867e-09
8.24091e-09
2.07234e-08
5.25099e-08
1.27909e-07
4.22562e-08
1.3004e-08
4.19013e-09
2.13943e-09
1.99281e-09
2.42963e-09
3.15238e-09
4.22268e-09
5.9868e-09
9.54915e-09
1.77585e-08
3.75054e-08
8.41896e-08
1.87591e-07
6.47323e-08
2.41572e-08
1.00895e-08
6.36533e-09
6.21777e-09
7.55761e-09
9.83839e-09
1.31892e-08
1.82191e-08
2.67926e-08
4.31754e-08
7.72921e-08
1.50392e-07
3.00381e-07
1.12544e-06
8.85083e-07
6.96628e-07
5.5171e-07
4.48738e-07
3.81405e-07
3.51614e-07
3.54542e-07
4.04132e-07
5.17157e-07
7.18912e-07
1.02159e-06
1.48446e-06
2.17592e-06
5.27932e-07
4.13853e-07
3.24487e-07
2.54089e-07
2.02678e-07
1.6817e-07
1.51553e-07
1.50963e-07
1.74087e-07
2.31757e-07
3.42751e-07
5.2243e-07
8.12057e-07
1.26259e-06
2.44627e-07
1.85098e-07
1.42994e-07
1.1009e-07
8.60333e-08
6.97254e-08
6.15945e-08
6.08056e-08
7.11737e-08
9.90861e-08
1.57235e-07
2.60379e-07
4.39389e-07
7.42732e-07
1.11431e-07
7.9643e-08
5.98796e-08
4.50062e-08
3.43726e-08
2.72118e-08
2.36238e-08
2.3218e-08
2.78317e-08
4.11137e-08
7.1269e-08
1.30671e-07
2.44062e-07
4.58754e-07
4.92148e-08
3.28845e-08
2.38238e-08
1.73713e-08
1.29348e-08
1.00045e-08
8.55901e-09
8.44311e-09
1.05603e-08
1.70471e-08
3.32227e-08
6.88334e-08
1.44155e-07
3.0254e-07
2.13892e-08
1.30905e-08
9.01379e-09
6.33476e-09
4.58976e-09
3.47019e-09
2.93596e-09
2.94959e-09
3.99547e-09
7.40301e-09
1.67174e-08
3.94157e-08
9.20815e-08
2.12472e-07
1.00281e-08
5.22891e-09
3.27976e-09
2.1892e-09
1.538e-09
1.13762e-09
9.5895e-10
1.01266e-09
1.58961e-09
3.57176e-09
9.41441e-09
2.48766e-08
6.36254e-08
1.58002e-07
6.33751e-09
2.44381e-09
1.21789e-09
7.2908e-10
4.88979e-10
3.53848e-10
3.02705e-10
3.59781e-10
7.1784e-10
1.99283e-09
5.96973e-09
1.72218e-08
4.72806e-08
1.24089e-07
6.28708e-09
1.76791e-09
5.6673e-10
2.53186e-10
1.52363e-10
1.08425e-10
9.95154e-11
1.50104e-10
3.98515e-10
1.30518e-09
4.27462e-09
1.31762e-08
3.82036e-08
1.04354e-07
8.36434e-09
2.03523e-09
4.52756e-10
1.27495e-10
6.53577e-11
5.37368e-11
6.18415e-11
1.11114e-10
3.13488e-10
1.06212e-09
3.60549e-09
1.1546e-08
3.4541e-08
9.62034e-08
1.2353e-08
2.90955e-09
5.94566e-10
1.63975e-10
1.14966e-10
1.34278e-10
1.73096e-10
2.5335e-10
4.9095e-10
1.30961e-09
4.05104e-09
1.25987e-08
3.71679e-08
1.02028e-07
1.88722e-08
4.58339e-09
1.06325e-09
4.37831e-10
4.24258e-10
5.42422e-10
7.08222e-10
9.53937e-10
1.43673e-09
2.74522e-09
6.65297e-09
1.80851e-08
4.93955e-08
1.28005e-07
2.94266e-08
8.0923e-09
2.49468e-09
1.45764e-09
1.54113e-09
1.97839e-09
2.60214e-09
3.47452e-09
4.85707e-09
7.7193e-09
1.47435e-08
3.29935e-08
7.92027e-08
1.86957e-07
4.79974e-08
1.69979e-08
7.13788e-09
4.91628e-09
5.10018e-09
6.3878e-09
8.39654e-09
1.12575e-08
1.5444e-08
2.2647e-08
3.68653e-08
6.82124e-08
1.3962e-07
2.93942e-07
1.08262e-06
8.30836e-07
6.43583e-07
5.0281e-07
4.07042e-07
3.41978e-07
3.12196e-07
3.07786e-07
3.43325e-07
4.33582e-07
6.0926e-07
8.89249e-07
1.35123e-06
2.06921e-06
4.80696e-07
3.63342e-07
2.80269e-07
2.17093e-07
1.72889e-07
1.42555e-07
1.28181e-07
1.25402e-07
1.41613e-07
1.85093e-07
2.75369e-07
4.29164e-07
6.95975e-07
1.13098e-06
2.10952e-07
1.51571e-07
1.14903e-07
8.76053e-08
6.85038e-08
5.53795e-08
4.91251e-08
4.78609e-08
5.49647e-08
7.48774e-08
1.19227e-07
2.01674e-07
3.56354e-07
6.38884e-07
9.05166e-08
6.05372e-08
4.45275e-08
3.31692e-08
2.53975e-08
2.00985e-08
1.75985e-08
1.71317e-08
2.0179e-08
2.91223e-08
5.07364e-08
9.56089e-08
1.89364e-07
3.86395e-07
3.74228e-08
2.30698e-08
1.63112e-08
1.18018e-08
8.82808e-09
6.82847e-09
5.90206e-09
5.76945e-09
7.09061e-09
1.12186e-08
2.22292e-08
4.81723e-08
1.09147e-07
2.54188e-07
1.52584e-08
8.45417e-09
5.65994e-09
3.9516e-09
2.88157e-09
2.17621e-09
1.85761e-09
1.84305e-09
2.45395e-09
4.52977e-09
1.06827e-08
2.70382e-08
6.97189e-08
1.80835e-07
6.88329e-09
3.14509e-09
1.88704e-09
1.24906e-09
8.84228e-10
6.5145e-10
5.51472e-10
5.71856e-10
8.93212e-10
2.0821e-09
5.94023e-09
1.72689e-08
4.94501e-08
1.38526e-07
4.49165e-09
1.46296e-09
6.52888e-10
3.79408e-10
2.56086e-10
1.8383e-10
1.56696e-10
1.83109e-10
3.79819e-10
1.15392e-09
3.85032e-09
1.24315e-08
3.84487e-08
1.13278e-07
4.76853e-09
1.16329e-09
3.06654e-10
1.21803e-10
7.27767e-11
5.15298e-11
4.71057e-11
7.20497e-11
2.11415e-10
7.85689e-10
2.91785e-09
1.01603e-08
3.30929e-08
1.0023e-07
6.73112e-09
1.49008e-09
2.78207e-10
6.47187e-11
3.37692e-11
3.06636e-11
3.64115e-11
6.32622e-11
1.84073e-10
6.95306e-10
2.67323e-09
9.62999e-09
3.1931e-08
9.68105e-08
1.05057e-08
2.32561e-09
4.20207e-10
1.06239e-10
8.31111e-11
1.0437e-10
1.35384e-10
1.90303e-10
3.51703e-10
9.73192e-10
3.31099e-09
1.13859e-08
3.65334e-08
1.0708e-07
1.69568e-08
3.93381e-09
8.3811e-10
3.36501e-10
3.42908e-10
4.52533e-10
5.95478e-10
7.95148e-10
1.17178e-09
2.25378e-09
5.79187e-09
1.7089e-08
5.02165e-08
1.37582e-07
2.75934e-08
7.27096e-09
2.13802e-09
1.24305e-09
1.32417e-09
1.72092e-09
2.27471e-09
3.03689e-09
4.21518e-09
6.71734e-09
1.32391e-08
3.15292e-08
8.09534e-08
2.01639e-07
4.5397e-08
1.59248e-08
6.71389e-09
4.61681e-09
4.68046e-09
5.82652e-09
7.6327e-09
1.02286e-08
1.40092e-08
2.06235e-08
3.40268e-08
6.52175e-08
1.40476e-07
3.11404e-07
9.68692e-07
7.23394e-07
5.48106e-07
4.19979e-07
3.40419e-07
2.86165e-07
2.63748e-07
2.57635e-07
2.84457e-07
3.52718e-07
4.98577e-07
7.46712e-07
1.19409e-06
1.91156e-06
4.07267e-07
2.92377e-07
2.19739e-07
1.67152e-07
1.33798e-07
1.11063e-07
1.01429e-07
9.90591e-08
1.11141e-07
1.42616e-07
2.12971e-07
3.39217e-07
5.78364e-07
9.92651e-07
1.69835e-07
1.1217e-07
8.22547e-08
6.1642e-08
4.86051e-08
3.97513e-08
3.60092e-08
3.52967e-08
4.04394e-08
5.41604e-08
8.6706e-08
1.50261e-07
2.82227e-07
5.50166e-07
6.915e-08
4.09154e-08
2.88242e-08
2.11173e-08
1.63593e-08
1.3155e-08
1.18167e-08
1.1651e-08
1.3723e-08
1.95139e-08
3.44519e-08
6.75439e-08
1.45652e-07
3.33487e-07
2.7319e-08
1.41738e-08
9.44799e-09
6.72098e-09
5.10227e-09
4.02608e-09
3.58466e-09
3.56566e-09
4.38447e-09
6.89026e-09
1.41543e-08
3.29666e-08
8.37932e-08
2.23417e-07
1.09806e-08
4.77028e-09
2.91035e-09
1.98876e-09
1.4748e-09
1.13974e-09
1.00593e-09
1.01776e-09
1.35895e-09
2.56058e-09
6.54567e-09
1.85421e-08
5.48365e-08
1.63366e-07
5.3168e-09
1.75504e-09
8.71811e-10
5.49253e-10
3.94423e-10
2.98032e-10
2.61729e-10
2.77312e-10
4.44629e-10
1.13011e-09
3.68373e-09
1.23517e-08
4.08661e-08
1.30312e-07
4.12163e-09
1.00805e-09
3.07309e-10
1.47546e-10
9.80099e-11
7.21776e-11
6.4103e-11
7.79338e-11
1.79563e-10
6.43008e-10
2.52678e-09
9.50039e-09
3.36843e-08
1.11042e-07
4.89932e-09
1.06807e-09
2.00449e-10
4.92224e-11
2.47671e-11
1.80851e-11
1.76583e-11
2.99191e-11
1.06125e-10
4.79402e-10
2.10558e-09
8.47305e-09
3.10579e-08
1.02982e-07
7.23937e-09
1.58101e-09
2.58571e-10
4.12956e-11
1.75259e-11
1.80966e-11
2.23468e-11
3.67286e-11
1.10203e-10
4.7952e-10
2.13131e-09
8.68005e-09
3.16362e-08
1.02782e-07
1.16286e-08
2.62926e-09
4.48886e-10
9.17024e-11
6.57784e-11
8.4296e-11
1.07832e-10
1.44917e-10
2.57924e-10
7.5784e-10
2.88206e-09
1.09672e-08
3.79552e-08
1.1727e-07
1.91691e-08
4.55511e-09
9.15167e-10
3.07009e-10
2.92753e-10
3.86398e-10
5.03019e-10
6.59011e-10
9.51728e-10
1.86903e-09
5.19138e-09
1.67698e-08
5.29812e-08
1.5245e-07
3.13747e-08
8.31221e-09
2.30913e-09
1.19372e-09
1.19775e-09
1.53645e-09
2.00566e-09
2.64941e-09
3.63792e-09
5.8388e-09
1.20172e-08
3.08261e-08
8.50913e-08
2.23292e-07
4.99121e-08
1.77592e-08
7.47649e-09
4.819e-09
4.5597e-09
5.50533e-09
7.05968e-09
9.36731e-09
1.27449e-08
1.88625e-08
3.16941e-08
6.33799e-08
1.44399e-07
3.38312e-07
6.49854e-07
4.68908e-07
3.44783e-07
2.58552e-07
2.11085e-07
1.78332e-07
1.67815e-07
1.64906e-07
1.84489e-07
2.26165e-07
3.27756e-07
5.12998e-07
8.81584e-07
1.48847e-06
2.5372e-07
1.70342e-07
1.22644e-07
9.06619e-08
7.33218e-08
6.16902e-08
5.81446e-08
5.77737e-08
6.61389e-08
8.46038e-08
1.29988e-07
2.17868e-07
4.03737e-07
7.68935e-07
9.90645e-08
5.83378e-08
4.03476e-08
2.92198e-08
2.33192e-08
1.94693e-08
1.83701e-08
1.85034e-08
2.17982e-08
2.94488e-08
4.90666e-08
9.14316e-08
1.9374e-07
4.46434e-07
3.83696e-08
1.8986e-08
1.2329e-08
8.67649e-09
6.8045e-09
5.61318e-09
5.29063e-09
5.4051e-09
6.60323e-09
9.65764e-09
1.82814e-08
4.02887e-08
1.02624e-07
2.84539e-07
1.4933e-08
5.94071e-09
3.50774e-09
2.37451e-09
1.82221e-09
1.4776e-09
1.38754e-09
1.44129e-09
1.8687e-09
3.15803e-09
7.39629e-09
2.04937e-08
6.3132e-08
2.0099e-07
6.54955e-09
1.94696e-09
9.49952e-10
6.00125e-10
4.47401e-10
3.54871e-10
3.31447e-10
3.54328e-10
5.20834e-10
1.1572e-09
3.6287e-09
1.25783e-08
4.46008e-08
1.53404e-07
3.9417e-09
8.7507e-10
2.781e-10
1.42808e-10
1.00479e-10
7.75601e-11
7.23707e-11
8.39176e-11
1.66596e-10
5.59745e-10
2.29754e-09
9.33684e-09
3.60232e-08
1.28392e-07
3.87144e-09
7.72376e-10
1.42586e-10
3.79401e-11
2.10295e-11
1.55453e-11
1.49139e-11
2.24206e-11
7.61405e-11
3.66939e-10
1.76882e-09
7.85663e-09
3.15376e-08
1.13092e-07
5.06938e-09
1.04756e-09
1.6125e-10
2.13276e-11
5.78119e-12
4.25814e-12
4.84799e-12
1.11326e-11
5.5521e-11
3.17206e-10
1.65486e-09
7.64615e-09
3.08844e-08
1.08909e-07
7.81486e-09
1.70006e-09
2.65449e-10
3.32149e-11
1.04984e-11
1.16743e-11
1.45767e-11
2.25462e-11
7.00615e-11
3.53823e-10
1.80634e-09
8.21404e-09
3.2411e-08
1.104e-07
1.28722e-08
2.94971e-09
4.96884e-10
8.37363e-11
5.00319e-11
6.44987e-11
8.1964e-11
1.07221e-10
1.88316e-10
6.03482e-10
2.58531e-09
1.08286e-08
4.01374e-08
1.2897e-07
2.18286e-08
5.27939e-09
1.03044e-09
2.80119e-10
2.3478e-10
3.08597e-10
3.99895e-10
5.18388e-10
7.41006e-10
1.51259e-09
4.61916e-09
1.6403e-08
5.5774e-08
1.67977e-07
3.65073e-08
9.70496e-09
2.55847e-09
1.13024e-09
1.03088e-09
1.29449e-09
1.67098e-09
2.19582e-09
3.00115e-09
4.89992e-09
1.06853e-08
2.97786e-08
8.85523e-08
2.44837e-07
5.75693e-08
2.03049e-08
8.47049e-09
5.00077e-09
4.32307e-09
4.99319e-09
6.22653e-09
8.1959e-09
1.11308e-08
1.67043e-08
2.88706e-08
6.07055e-08
1.46576e-07
3.63282e-07
2.67978e-07
1.82144e-07
1.30778e-07
9.79357e-08
8.22323e-08
7.13832e-08
6.95672e-08
7.00521e-08
8.00161e-08
9.80408e-08
1.44978e-07
2.3737e-07
4.44994e-07
8.24865e-07
9.5187e-08
5.79759e-08
4.01667e-08
2.93875e-08
2.43194e-08
2.10277e-08
2.0606e-08
2.11591e-08
2.49051e-08
3.2253e-08
5.13941e-08
9.32111e-08
1.95606e-07
4.34677e-07
3.45997e-08
1.74132e-08
1.13458e-08
8.05238e-09
6.52763e-09
5.58633e-09
5.48781e-09
5.74766e-09
7.0143e-09
9.79401e-09
1.7551e-08
3.75912e-08
9.54815e-08
2.66147e-07
1.33003e-08
5.08542e-09
2.95943e-09
2.01338e-09
1.58961e-09
1.33837e-09
1.31244e-09
1.40113e-09
1.79599e-09
2.83755e-09
6.22717e-09
1.70456e-08
5.38673e-08
1.78328e-07
5.75802e-09
1.55702e-09
7.25553e-10
4.58845e-10
3.50395e-10
2.88618e-10
2.81337e-10
3.07728e-10
4.34987e-10
8.87108e-10
2.69616e-09
9.69325e-09
3.65166e-08
1.34115e-07
3.36432e-09
6.53215e-10
1.9057e-10
9.68784e-11
6.95671e-11
5.57656e-11
5.39769e-11
6.25226e-11
1.14437e-10
3.6809e-10
1.565e-09
6.80383e-09
2.82278e-08
1.08326e-07
2.79737e-09
4.94151e-10
8.5624e-11
2.22846e-11
1.25179e-11
9.58656e-12
9.35457e-12
1.34645e-11
4.45401e-11
2.28528e-10
1.19142e-09
5.71174e-09
2.4752e-08
9.5992e-08
3.31754e-09
6.21947e-10
9.20536e-11
1.13283e-11
2.4718e-12
1.57129e-12
1.70043e-12
4.62451e-12
2.8843e-11
1.86783e-10
1.06509e-09
5.3135e-09
2.3202e-08
8.86523e-08
4.56428e-09
9.23728e-10
1.39546e-10
1.48451e-11
1.8824e-12
1.28405e-12
1.62685e-12
4.38821e-12
2.82135e-11
1.92409e-10
1.13007e-09
5.66278e-09
2.43041e-08
8.99904e-08
7.09612e-09
1.51542e-09
2.40426e-10
2.84753e-11
7.16065e-12
7.84536e-12
9.66798e-12
1.39637e-11
4.37207e-11
2.4471e-10
1.36175e-09
6.56203e-09
2.69743e-08
9.53133e-08
1.16299e-08
2.59944e-09
4.4275e-10
6.95371e-11
3.59917e-11
4.60693e-11
5.81536e-11
7.46391e-11
1.31599e-10
4.53801e-10
2.09598e-09
9.21876e-09
3.53573e-08
1.1745e-07
2.02675e-08
4.73947e-09
9.28422e-10
2.32018e-10
1.76518e-10
2.29682e-10
2.9577e-10
3.80501e-10
5.44542e-10
1.15979e-09
3.81163e-09
1.43351e-08
5.05344e-08
1.56715e-07
3.57066e-08
9.15479e-09
2.41722e-09
1.00087e-09
8.4516e-10
1.03213e-09
1.30966e-09
1.71412e-09
2.35143e-09
3.93526e-09
9.08419e-09
2.68984e-08
8.33074e-08
2.38092e-07
5.94486e-08
2.03801e-08
8.68655e-09
4.97962e-09
4.02224e-09
4.42808e-09
5.29532e-09
6.90241e-09
9.37203e-09
1.42754e-08
2.53388e-08
5.53283e-08
1.38541e-07
3.5905e-07
4.20767e-08
2.67511e-08
1.88455e-08
1.3916e-08
1.18182e-08
1.04609e-08
1.05734e-08
1.11705e-08
1.34126e-08
1.72689e-08
2.68196e-08
4.70334e-08
9.70961e-08
2.11379e-07
1.32479e-08
7.28162e-09
4.90328e-09
3.51913e-09
2.90288e-09
2.53115e-09
2.55099e-09
2.74862e-09
3.41823e-09
4.73339e-09
8.20518e-09
1.6901e-08
4.16549e-08
1.13282e-07
4.52852e-09
1.90397e-09
1.17516e-09
8.15192e-10
6.50599e-10
5.54265e-10
5.52951e-10
6.05226e-10
7.85881e-10
1.21942e-09
2.57455e-09
6.88981e-09
2.18254e-08
7.42005e-08
1.87541e-09
5.23455e-10
2.61973e-10
1.71406e-10
1.32052e-10
1.09353e-10
1.07332e-10
1.19282e-10
1.67721e-10
3.29418e-10
9.7814e-10
3.56166e-09
1.38812e-08
5.37672e-08
1.06585e-09
1.981e-10
6.06564e-11
3.27959e-11
2.39511e-11
1.92316e-11
1.85524e-11
2.15349e-11
3.85889e-11
1.23321e-10
5.39659e-10
2.44869e-09
1.07515e-08
4.45929e-08
9.31522e-10
1.49678e-10
2.47461e-11
6.63428e-12
3.85845e-12
2.96679e-12
2.86474e-12
4.11736e-12
1.38492e-11
7.39926e-11
4.01679e-10
2.0201e-09
9.36637e-09
3.97983e-08
1.05636e-09
1.79369e-10
2.47788e-11
2.89635e-12
6.31943e-13
4.02957e-13
4.40651e-13
1.34621e-12
9.0325e-12
6.07531e-11
3.60844e-10
1.91031e-09
9.07346e-09
3.85732e-08
1.46047e-09
2.64932e-10
3.6793e-11
3.51712e-12
2.98105e-13
1.27828e-13
1.91907e-13
9.81678e-13
8.03102e-12
5.84667e-11
3.64168e-10
1.97225e-09
9.34695e-09
3.88595e-08
2.14358e-09
4.10094e-10
5.8649e-11
5.76656e-12
7.91825e-13
7.00621e-13
8.69181e-13
1.73818e-12
9.6147e-12
6.80004e-11
4.26885e-10
2.29713e-09
1.0629e-08
4.26258e-08
3.43487e-09
6.78663e-10
1.01221e-10
1.18163e-11
3.97439e-12
4.83904e-12
5.94099e-12
7.7674e-12
1.8953e-11
9.79483e-11
5.6386e-10
2.8804e-09
1.26717e-08
4.82916e-08
5.69649e-09
1.16666e-09
1.89465e-10
3.26526e-11
2.15187e-11
2.85829e-11
3.60327e-11
4.46934e-11
6.95264e-11
2.06896e-10
9.39004e-10
4.31228e-09
1.76523e-08
6.33239e-08
1.03473e-08
2.24567e-09
4.48193e-10
1.33142e-10
1.13225e-10
1.47905e-10
1.89852e-10
2.39203e-10
3.24522e-10
6.17686e-10
1.88968e-09
7.1604e-09
2.64484e-08
8.81605e-08
2.00121e-08
5.08052e-09
1.53061e-09
7.31155e-10
6.16457e-10
7.29296e-10
9.05917e-10
1.16281e-09
1.55143e-09
2.44736e-09
5.2306e-09
1.50033e-08
4.74746e-08
1.44814e-07
4.09698e-08
1.60749e-08
7.98988e-09
4.94237e-09
3.84095e-09
3.98404e-09
4.35399e-09
5.44644e-09
7.00118e-09
1.03139e-08
1.71521e-08
3.53363e-08
8.64545e-08
2.34247e-07
3.02325e-09
1.87286e-09
1.32329e-09
9.78147e-10
8.10005e-10
7.12705e-10
7.17553e-10
7.81713e-10
9.73763e-10
1.33389e-09
2.221e-09
4.31237e-09
9.90287e-09
2.44981e-08
8.74312e-10
4.5798e-10
3.10785e-10
2.24851e-10
1.79893e-10
1.53356e-10
1.50986e-10
1.64472e-10
2.0969e-10
3.12935e-10
6.11023e-10
1.49384e-09
4.34877e-09
1.36849e-08
3.00136e-10
1.09441e-10
6.58861e-11
4.6322e-11
3.60487e-11
2.98266e-11
2.86467e-11
3.10805e-11
4.14663e-11
7.44705e-11
2.00514e-10
6.85873e-10
2.56243e-09
9.656e-09
1.60561e-10
3.46379e-11
1.35769e-11
8.42792e-12
6.34406e-12
5.12624e-12
4.82497e-12
5.31468e-12
8.42983e-12
2.3736e-11
9.83602e-11
4.32795e-10
1.84477e-09
7.54107e-09
1.43451e-10
2.44859e-11
4.58843e-12
1.51338e-12
9.6355e-13
7.57178e-13
7.12625e-13
9.18404e-13
2.6319e-12
1.33405e-11
7.07521e-11
3.44819e-10
1.5621e-09
6.7074e-09
1.79454e-10
3.11725e-11
4.41058e-12
5.56275e-13
1.41238e-13
9.45084e-14
9.84603e-14
2.54224e-13
1.59303e-12
1.04541e-11
6.00243e-11
3.07557e-10
1.45341e-09
6.43231e-09
2.49995e-10
4.53496e-11
6.21017e-12
5.91751e-13
4.70262e-14
1.46069e-14
2.43869e-14
1.59005e-13
1.32963e-12
9.39405e-12
5.67389e-11
3.04861e-10
1.49247e-09
6.70503e-09
3.7898e-10
7.03108e-11
9.57178e-12
8.75925e-13
7.49053e-14
4.17257e-14
5.531e-14
1.76901e-13
1.27916e-12
9.32465e-12
5.91862e-11
3.30482e-10
1.64424e-09
7.33265e-09
5.8142e-10
1.09725e-10
1.50331e-11
1.4596e-12
2.9412e-13
3.15699e-13
3.76899e-13
5.3016e-13
1.79064e-12
1.1368e-11
7.2357e-11
4.06624e-10
2.00221e-09
8.69679e-09
9.27869e-10
1.77188e-10
2.51514e-11
3.17781e-12
1.62644e-12
2.10822e-12
2.54702e-12
3.03354e-12