/*--------------------------------*- C++ -*----------------------------------*\
| =========                 |                                                 |
| \\      /  F ield         | OpenFOAM: The Open Source CFD Toolbox           |
|  \\    /   O peration     | Version:  v2106                                 |
|   \\  /    A nd           | Website:  www.openfoam.com                      |
|    \\/     M anipulation  |                                                 |
\*---------------------------------------------------------------------------*/
FoamFile
{
    version     2.0;
    format      ascii;
    arch        "LSB;label=32;scalar=64";
    class       volScalarField;
    location    "0.000214";
    object      T;
}
// * * * * * * * * * * * * * * * * * * * * * * * * * * * * * * * * * * * * * //

dimensions      [0 0 0 1 0 0 0];

internalField   nonuniform List<scalar> 
18109
(
291.373
291.27
291.183
291.079
290.985
290.889
290.8
291.686
291.568
291.459
291.332
291.218
291.105
291.003
291.934
291.805
291.687
291.553
291.434
291.317
291.211
292.174
292.024
291.889
291.75
291.627
291.511
291.405
292.382
292.217
292.071
291.931
291.805
291.69
291.585
292.575
292.402
292.247
292.104
291.976
291.86
291.757
292.761
292.589
292.431
292.287
292.154
292.036
291.931
292.958
292.794
292.635
292.489
292.35
292.226
292.118
291.509
291.408
291.313
291.197
291.091
290.986
290.896
290.799
290.707
290.605
290.508
290.408
290.341
290.304
291.807
291.68
291.568
291.435
291.314
291.195
291.09
290.987
290.888
290.788
290.701
290.639
290.597
290.597
292.037
291.899
291.781
291.644
291.521
291.4
291.287
291.177
291.073
290.975
290.893
290.845
290.824
290.83
292.264
292.109
291.976
291.835
291.708
291.584
291.468
291.357
291.255
291.162
291.093
291.058
291.053
291.063
292.468
292.303
292.158
292.014
291.88
291.752
291.634
291.525
291.429
291.347
291.292
291.267
291.272
291.283
292.666
292.496
292.34
292.189
292.046
291.911
291.79
291.684
291.596
291.529
291.49
291.479
291.493
291.514
292.862
292.693
292.529
292.369
292.214
292.071
291.946
291.841
291.761
291.709
291.688
291.693
291.714
291.751
293.067
292.901
292.729
292.559
292.393
292.243
292.113
292.01
291.939
291.903
291.896
291.914
291.947
291.998
293.279
293.12
292.942
292.766
292.592
292.437
292.305
292.205
292.141
292.117
292.12
292.147
292.193
292.246
293.495
293.345
293.161
292.983
292.805
292.652
292.524
292.431
292.375
292.359
292.368
292.406
292.461
292.504
293.718
293.575
293.389
293.211
293.039
292.894
292.774
292.69
292.64
292.626
292.64
292.685
292.745
292.766
293.944
293.802
293.614
293.442
293.278
293.147
293.041
292.969
292.93
292.923
292.941
292.99
293.052
293.05
294.172
294.035
293.854
293.693
293.541
293.421
293.327
293.267
293.235
293.232
293.252
293.296
293.353
293.343
294.398
294.265
294.1
293.947
293.809
293.701
293.617
293.567
293.542
293.543
293.565
293.608
293.66
293.664
291.25
291.153
291.091
291.058
291.012
290.936
291.397
291.297
291.225
291.195
291.167
291.12
291.238
291.122
291.018
290.968
290.914
290.831
291.128
290.995
290.878
290.807
290.699
290.503
290.998
290.85
290.721
290.64
290.476
290.155
290.888
290.732
290.596
290.499
290.279
289.85
290.779
290.617
290.469
290.335
290.063
289.548
290.694
290.519
290.351
290.162
289.812
289.178
290.598
290.41
290.204
289.935
289.481
288.76
290.514
290.312
290.055
289.71
289.156
288.389
290.41
290.168
289.854
289.437
288.843
288.125
290.33
290.048
289.717
289.245
288.633
287.922
290.232
289.9
289.519
288.993
288.395
287.756
290.165
289.807
289.412
288.935
288.404
287.762
290.01
289.643
289.262
288.837
288.388
287.931
290.203
289.936
289.686
289.305
288.922
288.492
290.513
290.286
290.051
289.714
289.364
288.982
290.775
290.61
290.426
290.154
289.849
289.478
291.033
290.913
290.774
290.56
290.326
289.957
291.276
291.206
291.121
290.971
290.806
290.489
291.53
291.505
291.47
291.383
291.273
291.02
291.79
291.809
291.814
291.775
291.699
291.494
292.061
292.12
292.15
292.149
292.09
291.918
292.331
292.431
292.485
292.506
292.466
292.331
292.611
292.747
292.824
292.861
292.828
292.715
292.893
293.056
293.147
293.192
293.16
293.048
293.191
293.365
293.463
293.503
293.467
293.352
293.473
293.645
293.734
293.766
293.731
293.62
293.779
293.933
294.003
294.027
293.986
293.885
293.933
294.079
294.183
294.214
294.193
294.148
293.904
294.091
294.236
294.317
294.355
294.358
293.886
294.112
294.293
294.414
294.497
294.541
293.859
294.107
294.313
294.466
294.588
294.673
293.851
294.12
294.347
294.526
294.68
294.801
293.857
294.149
294.401
294.607
294.792
294.935
293.89
294.206
294.488
294.723
294.934
295.098
293.944
294.281
294.59
294.856
295.089
295.263
294.024
294.37
294.693
294.983
295.227
295.388
294.123
294.465
294.784
295.077
295.308
295.442
294.244
294.566
294.859
295.125
295.321
295.425
294.373
294.657
294.907
295.134
295.299
295.373
294.491
294.732
294.933
295.123
295.254
295.33
294.603
294.795
294.956
295.113
295.208
295.259
292.295
292.302
292.326
292.278
292.237
292.198
292.018
291.969
291.963
291.905
291.875
291.845
291.737
291.637
291.622
291.58
291.585
291.591
291.415
291.278
291.245
291.192
291.209
291.231
294.572
294.761
294.907
295.061
295.193
295.288
294.339
294.541
294.714
294.915
295.094
295.22
294.133
294.34
294.535
294.753
294.941
295.048
293.902
294.115
294.321
294.537
294.714
294.808
293.682
293.897
294.101
294.303
294.46
294.536
293.465
293.677
293.874
294.063
294.208
294.277
293.253
293.456
293.65
293.824
293.95
293.99
293.046
293.233
293.42
293.571
293.653
293.666
292.839
293.001
293.166
293.275
293.315
293.264
292.624
292.739
292.853
292.895
292.883
292.785
292.395
292.439
292.49
292.466
292.419
292.323
292.134
292.098
292.102
292.034
291.969
291.881
291.865
291.761
291.728
291.644
291.6
291.57
291.551
291.401
291.341
291.261
291.262
291.295
290.433
288.252
284.103
277.3
269.18
289.875
287.036
282.434
275.454
267.525
289.235
285.87
280.897
273.969
267.592
288.632
284.82
279.265
271.558
264.312
288.134
283.842
277.63
269.09
260.694
287.596
283.051
276.512
267.706
259.561
287.085
282.614
276.195
267.6
260.33
286.779
282.705
276.568
268.026
260.632
257.249
286.525
282.839
277.248
268.353
259.307
254.261
286.534
283.38
278.634
270.56
261.837
256.232
286.452
283.861
280.126
273.314
265.668
259.926
258.132
286.539
284.52
281.65
276.163
269.676
263.843
262.112
268.005
286.646
285.014
282.526
277.918
272.358
267.804
268.736
275.7
286.961
285.468
283.124
278.961
273.244
267.023
265.724
264.467
287.529
285.971
283.33
278.486
270.547
261.041
255.394
252.818
288.078
286.466
283.783
278.865
270.584
261.072
252.701
250.95
288.576
286.956
284.266
279.355
272.153
265.434
262.727
259.815
289.058
287.455
284.456
278.764
270.744
263.222
260.087
263.507
289.626
287.986
284.492
277.448
267.541
257.686
252.462
251.102
290.176
288.338
284.399
276.791
266.603
256.875
248.969
247.74
290.714
288.83
284.959
277.595
268.739
261.604
256.879
255.69
291.221
289.45
285.858
279.035
270.086
263.266
262.264
264.918
291.66
290.118
286.988
280.926
271.477
262.495
292.088
290.813
288.278
283.261
274.719
265.461
292.503
291.514
289.721
286.001
279.185
271.043
292.89
292.184
291.035
288.365
282.861
275.954
293.254
292.751
291.991
289.869
285.298
279.803
293.591
293.212
292.66
290.674
286.174
293.973
293.644
293.098
290.758
285.064
294.318
294.078
293.45
290.967
284.669
294.586
294.435
293.761
291.128
285.223
294.755
294.66
293.974
290.874
284.409
294.916
294.879
294.116
290.243
281.897
295.058
295.034
294.027
289.464
279.556
295.222
295.178
293.969
289.156
279.553
295.369
295.295
293.909
288.797
278.699
295.455
295.324
293.817
288.7
277.95
295.477
295.311
293.869
289.144
279.312
295.439
295.238
294.004
289.981
281.714
295.373
295.177
294.194
290.756
283.871
295.328
295.169
294.381
291.278
285.176
295.295
295.197
294.344
291.288
285.119
295.313
295.25
294.196
290.469
282.982
295.263
295.072
293.638
289.31
281.258
295.05
294.631
292.743
288.036
280.726
294.714
293.974
291.552
286.084
278.243
294.345
293.28
290.172
283.759
274.951
293.931
292.519
288.867
281.677
272.344
293.533
291.875
287.844
280.251
271.184
293.068
291.387
287.354
279.659
270.236
292.633
291.03
287.046
279.044
268.828
292.203
290.773
287.181
279.545
269.746
291.853
290.544
287.276
280.148
271.387
291.498
290.298
287.4
280.817
272.889
291.202
289.902
286.885
280.822
273.738
290.861
289.232
285.73
279.413
272.279
291.772
291.675
291.583
291.461
291.341
291.207
291.085
290.964
290.856
290.747
290.653
290.556
290.479
290.429
292.033
291.905
291.798
291.665
291.536
291.397
291.266
291.137
291.019
290.908
290.814
290.742
290.682
290.663
292.226
292.092
291.982
291.847
291.718
291.581
291.447
291.316
291.193
291.081
290.986
290.918
290.874
290.866
292.42
292.28
292.158
292.021
291.889
291.752
291.616
291.485
291.365
291.256
291.167
291.106
291.073
291.07
292.604
292.457
292.323
292.184
292.046
291.906
291.77
291.643
291.528
291.429
291.35
291.299
291.271
291.266
292.789
292.636
292.49
292.343
292.196
292.052
291.914
291.79
291.683
291.597
291.533
291.493
291.473
291.47
292.971
292.814
292.657
292.499
292.341
292.191
292.053
291.934
291.837
291.765
291.716
291.69
291.678
291.678
293.159
292.997
292.826
292.657
292.49
292.336
292.199
292.087
292.001
291.941
291.907
291.892
291.892
291.897
293.344
293.178
292.998
292.822
292.65
292.497
292.365
292.26
292.182
292.133
292.109
292.105
292.115
292.125
293.527
293.361
293.173
292.995
292.825
292.677
292.553
292.458
292.39
292.348
292.332
292.338
292.357
292.37
293.71
293.548
293.358
293.185
293.021
292.883
292.77
292.686
292.626
292.591
292.58
292.589
292.616
292.621
293.907
293.745
293.552
293.386
293.232
293.108
293.008
292.938
292.889
292.861
292.851
292.864
292.899
292.897
294.126
293.967
293.776
293.616
293.469
293.355
293.267
293.208
293.168
293.146
293.138
293.151
293.185
293.172
294.355
294.197
294.012
293.853
293.713
293.606
293.529
293.479
293.449
293.437
293.434
293.451
293.483
293.475
292.053
291.983
291.899
291.785
291.66
291.508
291.351
291.191
291.047
290.919
290.816
290.722
290.643
290.582
292.273
292.159
292.062
291.941
291.814
291.663
291.505
291.342
291.192
291.059
290.95
290.869
290.801
290.779
292.418
292.295
292.198
292.078
291.956
291.814
291.663
291.508
291.359
291.228
291.116
291.036
290.973
290.955
292.574
292.45
292.344
292.223
292.101
291.964
291.82
291.674
291.531
291.404
291.294
291.214
291.153
291.131
292.723
292.595
292.478
292.358
292.236
292.105
291.968
291.832
291.7
291.583
291.48
291.402
291.339
291.303
292.883
292.746
292.62
292.497
292.371
292.242
292.111
291.984
291.862
291.755
291.661
291.587
291.524
291.478
293.038
292.895
292.759
292.63
292.5
292.373
292.247
292.128
292.018
291.922
291.839
291.768
291.708
291.655
293.196
293.048
292.901
292.764
292.63
292.503
292.383
292.272
292.173
292.086
292.012
291.947
291.892
291.837
293.354
293.201
293.045
292.901
292.763
292.638
292.523
292.42
292.331
292.251
292.185
292.124
292.075
292.022
293.508
293.351
293.186
293.039
292.9
292.779
292.671
292.578
292.497
292.424
292.363
292.304
292.266
292.219
293.661
293.504
293.333
293.188
293.052
292.937
292.837
292.752
292.678
292.609
292.549
292.492
292.467
292.424
293.825
293.662
293.482
293.339
293.21
293.105
293.016
292.94
292.874
292.809
292.752
292.701
292.692
292.65
294.01
293.843
293.66
293.517
293.388
293.29
293.21
293.144
293.087
293.031
292.98
292.936
292.931
292.884
294.208
294.014
293.824
293.674
293.555
293.466
293.4
293.348
293.303
293.26
293.218
293.189
293.194
293.157
292.428
292.381
292.317
292.221
292.109
291.965
291.8
291.631
291.471
291.331
291.211
291.1
291
290.887
292.608
292.524
292.452
292.35
292.238
292.097
291.935
291.765
291.598
291.448
291.314
291.207
291.108
291.05
292.728
292.638
292.562
292.466
292.359
292.228
292.077
291.919
291.758
291.609
291.471
291.363
291.264
291.21
292.868
292.773
292.689
292.593
292.49
292.366
292.226
292.077
291.923
291.778
291.64
291.53
291.427
291.367
292.992
292.897
292.809
292.716
292.615
292.501
292.372
292.236
292.092
291.956
291.823
291.712
291.603
291.524
293.117
293.022
292.932
292.841
292.742
292.635
292.515
292.389
292.256
292.128
292.001
291.887
291.772
291.675
293.237
293.141
293.049
292.959
292.863
292.762
292.651
292.534
292.412
292.291
292.169
292.052
291.933
291.824
293.354
293.256
293.162
293.072
292.978
292.882
292.779
292.671
292.557
292.443
292.325
292.206
292.085
291.966
293.464
293.364
293.265
293.176
293.084
292.994
292.897
292.797
292.692
292.582
292.469
292.347
292.229
292.106
293.574
293.465
293.358
293.267
293.177
293.092
293.004
292.913
292.817
292.712
292.604
292.482
292.37
292.247
293.69
293.57
293.45
293.357
293.267
293.188
293.108
293.024
292.937
292.837
292.734
292.611
292.508
292.392
293.813
293.673
293.532
293.436
293.35
293.276
293.205
293.131
293.054
292.962
292.867
292.749
292.657
292.554
293.933
293.791
293.644
293.535
293.444
293.37
293.307
293.243
293.178
293.098
293.014
292.904
292.823
292.728
294.036
293.866
293.72
293.614
293.53
293.464
293.411
293.359
293.305
293.239
293.167
293.083
293.016
292.94
293.211
293.189
293.141
293.066
292.975
292.852
292.73
292.587
292.441
292.301
292.167
292.032
291.888
291.716
293.37
293.313
293.258
293.176
293.089
292.964
292.84
292.692
292.54
292.391
292.243
292.107
291.968
291.854
293.49
293.421
293.362
293.276
293.193
293.077
292.96
292.823
292.677
292.532
292.381
292.246
292.107
291.998
293.619
293.54
293.476
293.386
293.303
293.192
293.078
292.949
292.808
292.668
292.52
292.387
292.246
292.134
293.744
293.657
293.59
293.498
293.418
293.314
293.206
293.087
292.954
292.822
292.678
292.545
292.397
292.273
293.869
293.776
293.705
293.613
293.532
293.432
293.329
293.216
293.09
292.964
292.823
292.688
292.536
292.399
293.991
293.897
293.823
293.73
293.649
293.554
293.455
293.349
293.23
293.107
292.968
292.827
292.669
292.519
294.098
294.014
293.938
293.845
293.764
293.671
293.574
293.471
293.356
293.235
293.098
292.952
292.79
292.631
294.208
294.131
294.048
293.953
293.87
293.777
293.682
293.582
293.471
293.351
293.214
293.062
292.9
292.733
294.297
294.219
294.133
294.044
293.962
293.873
293.782
293.685
293.578
293.458
293.321
293.164
293.001
292.83
294.352
294.279
294.195
294.114
294.035
293.949
293.862
293.768
293.664
293.543
293.407
293.247
293.09
292.923
294.35
294.293
294.222
294.156
294.083
294.007
293.929
293.842
293.743
293.625
293.491
293.328
293.174
293.009
294.348
294.283
294.218
294.17
294.111
294.048
293.982
293.902
293.81
293.696
293.569
293.411
293.263
293.097
294.312
294.251
294.194
294.151
294.108
294.066
294.017
293.952
293.876
293.775
293.661
293.516
293.389
293.203
294.74
294.729
294.698
294.646
294.587
294.508
294.436
294.332
294.241
294.128
294.008
293.874
293.714
293.5
294.86
294.826
294.78
294.722
294.661
294.577
294.5
294.394
294.298
294.18
294.051
293.911
293.762
293.6
294.969
294.917
294.873
294.807
294.746
294.664
294.588
294.486
294.388
294.27
294.137
293.998
293.838
293.695
295.075
295.009
294.961
294.889
294.825
294.742
294.664
294.563
294.463
294.346
294.213
294.076
293.918
293.775
295.174
295.099
295.048
294.972
294.907
294.825
294.748
294.65
294.55
294.434
294.3
294.162
294
293.852
295.27
295.189
295.136
295.056
294.99
294.908
294.829
294.732
294.63
294.514
294.379
294.236
294.069
293.91
295.346
295.271
295.216
295.134
295.067
294.984
294.904
294.809
294.706
294.59
294.454
294.307
294.137
293.97
295.41
295.346
295.289
295.207
295.14
295.056
294.974
294.879
294.775
294.657
294.518
294.366
294.191
294.017
295.456
295.402
295.343
295.263
295.198
295.115
295.034
294.94
294.834
294.715
294.573
294.415
294.235
294.056
295.478
295.431
295.376
295.305
295.245
295.163
295.081
294.986
294.88
294.759
294.615
294.454
294.272
294.093
295.472
295.426
295.378
295.317
295.263
295.187
295.108
295.016
294.912
294.79
294.643
294.476
294.295
294.118
295.438
295.393
295.352
295.299
295.253
295.185
295.114
295.027
294.926
294.806
294.659
294.489
294.306
294.13
295.373
295.334
295.301
295.264
295.226
295.163
295.104
295.022
294.926
294.81
294.668
294.499
294.318
294.138
295.244
295.24
295.23
295.207
295.179
295.127
295.081
295.015
294.933
294.83
294.698
294.534
294.358
294.134
297.048
297.007
296.974
296.927
296.881
296.825
296.774
296.702
296.645
296.559
296.481
296.382
296.251
296.08
297.107
297.059
297.012
296.959
296.908
296.848
296.793
296.723
296.661
296.574
296.485
296.379
296.263
296.117
297.149
297.093
297.053
296.999
296.947
296.889
296.834
296.766
296.704
296.619
296.53
296.419
296.291
296.155
297.197
297.134
297.098
297.041
296.988
296.927
296.869
296.8
296.733
296.646
296.552
296.441
296.316
296.186
297.238
297.174
297.14
297.08
297.028
296.967
296.908
296.84
296.77
296.682
296.585
296.473
296.345
296.219
297.285
297.22
297.186
297.125
297.072
297.01
296.949
296.88
296.805
296.715
296.614
296.499
296.367
296.236
297.315
297.257
297.225
297.165
297.114
297.053
296.992
296.923
296.846
296.755
296.651
296.534
296.4
296.268
297.337
297.294
297.264
297.207
297.159
297.098
297.035
296.964
296.883
296.79
296.68
296.559
296.418
296.281
297.329
297.307
297.285
297.237
297.195
297.137
297.073
297.003
296.919
296.824
296.712
296.587
296.44
296.297
297.311
297.3
297.289
297.254
297.219
297.167
297.104
297.033
296.947
296.85
296.731
296.599
296.445
296.294
297.269
297.267
297.272
297.251
297.224
297.178
297.116
297.048
296.96
296.86
296.737
296.598
296.439
296.286
297.19
297.202
297.232
297.226
297.207
297.168
297.113
297.05
296.962
296.861
296.732
296.588
296.42
296.263
297.073
297.116
297.16
297.17
297.168
297.138
297.089
297.03
296.942
296.838
296.704
296.548
296.377
296.205
296.91
296.997
297.064
297.091
297.103
297.086
297.045
296.999
296.915
296.818
296.686
296.522
296.336
296.124
299.612
299.544
299.505
299.459
299.424
299.389
299.363
299.329
299.302
299.265
299.239
299.201
299.144
299.083
299.6
299.542
299.496
299.447
299.407
299.368
299.338
299.301
299.269
299.228
299.193
299.152
299.103
299.032
299.594
299.533
299.491
299.443
299.405
299.366
299.333
299.297
299.266
299.226
299.186
299.136
299.081
299.012
299.593
299.528
299.49
299.442
299.402
299.362
299.326
299.288
299.253
299.21
299.164
299.109
299.051
298.987
299.592
299.526
299.491
299.443
299.403
299.363
299.327
299.288
299.25
299.205
299.156
299.099
299.038
298.976
299.6
299.536
299.499
299.45
299.408
299.366
299.328
299.289
299.248
299.2
299.149
299.09
299.026
298.962
299.598
299.54
299.506
299.457
299.414
299.373
299.334
299.294
299.252
299.205
299.151
299.092
299.024
298.958
299.6
299.548
299.516
299.468
299.426
299.385
299.344
299.304
299.26
299.211
299.155
299.091
299.018
298.946
299.581
299.541
299.516
299.474
299.436
299.397
299.357
299.317
299.271
299.22
299.161
299.094
299.017
298.94
299.558
299.53
299.514
299.478
299.444
299.408
299.366
299.325
299.276
299.222
299.157
299.084
298.999
298.914
299.51
299.497
299.498
299.473
299.442
299.41
299.369
299.328
299.275
299.217
299.145
299.065
298.975
298.886
299.449
299.444
299.464
299.451
299.428
299.401
299.362
299.321
299.263
299.199
299.119
299.031
298.932
298.84
299.36
299.382
299.41
299.409
299.396
299.376
299.338
299.297
299.233
299.164
299.076
298.977
298.874
298.766
299.237
299.289
299.333
299.35
299.349
299.334
299.298
299.263
299.197
299.128
299.034
298.928
298.809
298.679
301.862
301.79
301.75
301.708
301.676
301.65
301.634
301.619
301.616
301.612
301.623
301.633
301.643
301.667
301.808
301.757
301.717
301.673
301.639
301.61
301.59
301.573
301.566
301.558
301.561
301.568
301.578
301.579
301.787
301.733
301.695
301.653
301.619
301.589
301.568
301.55
301.541
301.534
301.535
301.54
301.55
301.559
301.77
301.715
301.679
301.635
301.599
301.567
301.542
301.523
301.512
301.504
301.502
301.504
301.513
301.526
301.762
301.708
301.672
301.628
301.591
301.557
301.532
301.512
301.501
301.494
301.492
301.494
301.501
301.513
301.765
301.712
301.676
301.629
301.589
301.554
301.527
301.507
301.496
301.49
301.487
301.489
301.495
301.505
301.768
301.72
301.684
301.638
301.597
301.561
301.533
301.514
301.503
301.498
301.495
301.496
301.5
301.507
301.779
301.734
301.701
301.655
301.614
301.578
301.549
301.529
301.517
301.51
301.505
301.504
301.504
301.505
301.782
301.743
301.716
301.674
301.635
301.6
301.57
301.549
301.534
301.524
301.516
301.511
301.506
301.504
301.786
301.754
301.733
301.695
301.659
301.624
301.592
301.568
301.547
301.532
301.518
301.506
301.496
301.489
301.777
301.755
301.744
301.711
301.679
301.646
301.612
301.586
301.558
301.535
301.513
301.496
301.482
301.475
301.764
301.752
301.748
301.723
301.695
301.665
301.629
301.598
301.56
301.529
301.499
301.474
301.456
301.447
301.731
301.738
301.742
301.726
301.702
301.676
301.637
301.601
301.555
301.517
301.476
301.443
301.418
301.395
301.689
301.711
301.728
301.725
301.703
301.68
301.638
301.602
301.549
301.505
301.456
301.415
301.38
301.355
303.518
303.472
303.437
303.403
303.375
303.352
303.339
303.335
303.349
303.373
303.413
303.46
303.518
303.597
303.478
303.438
303.403
303.364
303.334
303.308
303.293
303.29
303.303
303.328
303.368
303.416
303.476
303.538
303.46
303.418
303.381
303.34
303.308
303.282
303.266
303.263
303.276
303.303
303.344
303.395
303.457
303.522
303.456
303.41
303.37
303.325
303.289
303.26
303.243
303.239
303.253
303.282
303.324
303.377
303.439
303.508
303.466
303.415
303.372
303.323
303.285
303.255
303.237
303.234
303.25
303.282
303.327
303.384
303.448
303.52
303.494
303.438
303.389
303.337
303.295
303.263
303.245
303.244
303.262
303.298
303.348
303.408
303.473
303.542
303.529
303.473
303.423
303.369
303.325
303.292
303.275
303.276
303.298
303.337
303.388
303.448
303.509
303.571
303.572
303.517
303.468
303.411
303.366
303.332
303.314
303.317
303.339
303.377
303.426
303.482
303.537
303.592
303.609
303.559
303.514
303.46
303.415
303.382
303.363
303.364
303.383
303.417
303.46
303.508
303.557
303.607
303.642
303.597
303.559
303.509
303.467
303.434
303.412
303.41
303.422
303.448
303.48
303.52
303.561
303.606
303.665
303.626
303.598
303.554
303.516
303.484
303.459
303.45
303.452
303.468
303.491
303.523
303.558
303.601
303.682
303.651
303.632
303.595
303.561
303.53
303.501
303.484
303.476
303.481
303.492
303.515
303.543
303.583
303.688
303.669
303.655
303.627
303.598
303.57
303.536
303.513
303.491
303.484
303.486
303.498
303.516
303.551
303.709
303.685
303.678
303.662
303.637
303.61
303.571
303.541
303.508
303.489
303.48
303.483
303.493
303.535
304.655
304.626
304.59
304.556
304.528
304.505
304.493
304.494
304.514
304.547
304.598
304.657
304.729
304.809
304.641
304.603
304.565
304.527
304.496
304.472
304.459
304.461
304.484
304.52
304.575
304.639
304.714
304.792
304.627
304.588
304.547
304.507
304.475
304.452
304.44
304.444
304.467
304.504
304.559
304.626
304.706
304.788
304.633
304.587
304.542
304.499
304.466
304.441
304.429
304.433
304.456
304.495
304.552
304.623
304.706
304.797
304.652
304.597
304.549
304.504
304.47
304.446
304.434
304.44
304.465
304.508
304.569
304.646
304.735
304.832
304.688
304.626
304.574
304.525
304.491
304.467
304.458
304.468
304.496
304.544
304.609
304.689
304.779
304.876
304.734
304.671
304.617
304.567
304.533
304.509
304.503
304.517
304.549
304.601
304.669
304.751
304.841
304.936
304.791
304.728
304.674
304.624
304.589
304.566
304.561
304.578
304.612
304.667
304.736
304.818
304.906
304.997
304.848
304.789
304.737
304.689
304.655
304.633
304.63
304.649
304.683
304.737
304.805
304.886
304.971
305.057
304.905
304.85
304.803
304.756
304.725
304.705
304.702
304.721
304.753
304.804
304.867
304.944
305.023
305.105
304.957
304.906
304.866
304.823
304.794
304.776
304.774
304.79
304.818
304.863
304.919
304.99
305.062
305.141
305.007
304.961
304.928
304.889
304.863
304.846
304.841
304.853
304.875
304.913
304.96
305.023
305.087
305.162
305.05
305.007
304.982
304.949
304.927
304.91
304.903
304.91
304.923
304.951
304.988
305.041
305.095
305.168
305.115
305.058
305.043
305.015
304.993
304.975
304.962
304.964
304.968
304.986
305.012
305.056
305.099
305.188
305.496
305.472
305.44
305.413
305.39
305.373
305.365
305.367
305.382
305.405
305.443
305.487
305.543
305.604
305.49
305.458
305.423
305.392
305.368
305.351
305.343
305.347
305.363
305.391
305.433
305.484
305.544
305.605
305.478
305.443
305.406
305.375
305.352
305.337
305.332
305.338
305.355
305.384
305.427
305.479
305.544
305.611
305.483
305.442
305.403
305.371
305.348
305.333
305.328
305.335
305.353
305.383
305.429
305.485
305.553
305.627
305.492
305.445
305.406
305.374
305.352
305.338
305.335
305.343
305.363
305.397
305.446
305.508
305.581
305.66
305.513
305.461
305.42
305.387
305.367
305.355
305.354
305.365
305.388
305.426
305.478
305.543
305.619
305.703
305.543
305.49
305.449
305.416
305.397
305.387
305.389
305.404
305.431
305.473
305.528
305.597
305.676
305.762
305.585
305.531
305.49
305.457
305.439
305.431
305.435
305.454
305.484
305.53
305.588
305.66
305.742
305.828
305.632
305.581
305.541
305.51
305.492
305.486
305.493
305.514
305.547
305.597
305.659
305.733
305.817
305.902
305.683
305.635
305.597
305.567
305.551
305.546
305.556
305.579
305.615
305.667
305.731
305.807
305.892
305.973
305.736
305.691
305.655
305.627
305.613
305.611
305.622
305.647
305.684
305.738
305.801
305.877
305.959
306.038
305.793
305.75
305.717
305.689
305.676
305.676
305.687
305.713
305.749
305.803
305.864
305.939
306.018
306.095
305.85
305.807
305.778
305.752
305.74
305.74
305.75
305.776
305.81
305.861
305.917
305.988
306.059
306.136
305.919
305.868
305.841
305.815
305.803
305.802
305.811
305.833
305.863
305.908
305.959
306.026
306.092
306.182
306.169
306.153
306.134
306.12
306.107
306.097
306.091
306.087
306.089
306.094
306.107
306.123
306.147
306.178
306.166
306.147
306.125
306.107
306.092
306.082
306.076
306.074
306.078
306.087
306.104
306.125
306.153
306.183
306.157
306.133
306.11
306.091
306.078
306.069
306.066
306.067
306.074
306.086
306.105
306.13
306.162
306.197
306.158
306.128
306.103
306.083
306.07
306.063
306.06
306.064
306.073
306.088
306.111
306.14
306.175
306.215
306.157
306.124
306.098
306.079
306.067
306.061
306.061
306.066
306.078
306.098
306.126
306.158
306.198
306.243
306.163
306.127
306.101
306.081
306.07
306.064
306.066
306.075
306.09
306.114
306.144
306.181
306.225
306.275
306.171
306.134
306.108
306.088
306.078
306.075
306.08
306.093
306.112
306.14
306.174
306.216
306.266
306.32
306.188
306.15
306.124
306.104
306.096
306.095
306.103
306.119
306.141
306.172
306.211
306.258
306.313
306.37
306.212
306.175
306.149
306.131
306.124
306.125
306.135
306.154
306.18
306.215
306.259
306.31
306.37
306.429
306.242
306.208
306.182
306.164
306.158
306.162
306.173
306.195
306.224
306.264
306.313
306.368
306.433
306.493
306.28
306.247
306.221
306.204
306.199
306.204
306.218
306.243
306.275
306.319
306.372
306.43
306.498
306.558
306.323
306.292
306.266
306.248
306.244
306.251
306.266
306.293
306.328
306.375
306.431
306.493
306.562
306.623
306.372
306.34
306.316
306.298
306.294
306.301
306.316
306.346
306.382
306.432
306.488
306.55
306.617
306.678
306.425
306.392
306.367
306.349
306.344
306.351
306.367
306.396
306.432
306.482
306.537
306.6
306.668
306.733
306.683
306.676
306.671
306.666
306.662
306.657
306.651
306.644
306.637
306.629
306.624
306.617
306.615
306.614
306.693
306.683
306.673
306.664
306.658
306.651
306.646
306.639
306.634
306.628
306.624
306.621
306.623
306.625
306.696
306.68
306.669
306.658
306.65
306.644
306.64
306.636
306.634
306.631
306.631
306.633
306.637
306.645
306.699
306.678
306.665
306.652
306.644
306.638
306.635
306.633
306.633
306.634
306.637
306.643
306.651
306.663
306.699
306.675
306.66
306.646
306.638
306.634
306.632
306.633
306.636
306.642
306.65
306.66
306.672
306.689
306.699
306.674
306.658
306.644
306.636
306.632
306.632
306.636
306.643
306.652
306.664
306.678
306.695
306.716
306.7
306.674
306.657
306.644
306.638
306.635
306.638
306.645
306.656
306.669
306.685
306.704
306.726
306.75
306.705
306.679
306.662
306.649
306.644
306.644
306.649
306.659
306.672
306.689
306.71
306.733
306.76
306.787
306.716
306.691
306.674
306.662
306.658
306.66
306.667
306.68
306.696
306.717
306.743
306.769
306.802
306.831
306.732
306.71
306.692
306.681
306.678
306.681
306.69
306.706
306.726
306.751
306.781
306.811
306.849
306.881
306.756
306.735
306.718
306.707
306.706
306.71
306.721
306.739
306.763
306.792
306.826
306.858
306.9
306.934
306.786
306.767
306.749
306.739
306.738
306.744
306.757
306.778
306.805
306.837
306.875
306.912
306.957
306.992
306.823
306.805
306.789
306.778
306.777
306.784
306.798
306.822
306.851
306.886
306.926
306.966
307.011
307.047
306.864
306.846
306.829
306.819
306.819
306.827
306.842
306.867
306.899
306.936
306.978
307.022
307.068
307.107
307.045
307.036
307.032
307.027
307.023
307.019
307.015
307.008
307
306.989
306.978
306.965
306.951
306.936
307.071
307.056
307.049
307.041
307.035
307.03
307.024
307.016
307.008
306.997
306.986
306.974
306.962
306.952
307.088
307.069
307.061
307.05
307.043
307.037
307.031
307.024
307.017
307.008
306.998
306.989
306.978
306.97
307.102
307.081
307.071
307.058
307.05
307.043
307.037
307.031
307.025
307.017
307.009
307.002
306.994
306.989
307.113
307.091
307.079
307.065
307.057
307.05
307.045
307.04
307.035
307.03
307.025
307.02
307.015
307.013
307.123
307.1
307.087
307.073
307.065
307.058
307.054
307.05
307.048
307.045
307.042
307.041
307.038
307.039
307.133
307.111
307.096
307.084
307.076
307.07
307.067
307.066
307.065
307.065
307.066
307.066
307.068
307.07
307.144
307.123
307.108
307.096
307.089
307.085
307.084
307.084
307.087
307.09
307.093
307.097
307.102
307.105
307.158
307.14
307.125
307.114
307.108
307.105
307.106
307.109
307.113
307.119
307.126
307.133
307.141
307.144
307.176
307.159
307.144
307.135
307.131
307.13
307.132
307.138
307.146
307.154
307.165
307.174
307.185
307.188
307.198
307.185
307.171
307.163
307.16
307.161
307.165
307.173
307.183
307.193
307.207
307.219
307.232
307.233
307.225
307.214
307.201
307.195
307.194
307.197
307.203
307.213
307.225
307.239
307.254
307.269
307.284
307.284
307.258
307.25
307.239
307.234
307.234
307.238
307.246
307.257
307.272
307.287
307.304
307.32
307.334
307.333
307.296
307.289
307.28
307.275
307.276
307.283
307.292
307.306
307.322
307.339
307.358
307.375
307.391
307.395
307.296
307.276
307.265
307.252