/*--------------------------------*- C++ -*----------------------------------*\
| =========                 |                                                 |
| \\      /  F ield         | OpenFOAM: The Open Source CFD Toolbox           |
|  \\    /   O peration     | Version:  v2106                                 |
|   \\  /    A nd           | Website:  www.openfoam.com                      |
|    \\/     M anipulation  |                                                 |
\*---------------------------------------------------------------------------*/
FoamFile
{
    version     2.0;
    format      ascii;
    arch        "LSB;label=32;scalar=64";
    class       volScalarField;
    location    "0.000205";
    object      k;
}
// * * * * * * * * * * * * * * * * * * * * * * * * * * * * * * * * * * * * * //

dimensions      [0 2 -2 0 0 0 0];

internalField   nonuniform List<scalar> 
144746
(
6.42505
4.75516
3.75669
3.23631
3.37048
4.11445
5.37717
6.87341
8.17043
8.96736
9.20385
9.3527
9.88881
10.6441
5.20949
3.62769
2.59855
1.93493
1.72607
1.89922
2.48683
3.43334
4.54542
5.51996
6.30347
6.82902
7.27934
8.4309
4.36203
2.95049
1.95676
1.28687
0.995955
0.948251
1.16737
1.66086
2.37974
3.19303
3.95314
4.73489
5.20115
6.55472
3.67824
2.31779
1.44222
0.891812
0.615475
0.514166
0.575291
0.820892
1.25459
1.81525
2.38221
2.84797
3.41796
4.82405
2.88383
1.72617
1.00229
0.582127
0.370046
0.281659
0.290471
0.412538
0.671228
1.04917
1.47488
1.86393
2.32112
3.6168
2.11631
1.17047
0.627562
0.34085
0.203298
0.146069
0.144938
0.210173
0.368153
0.625091
0.94612
1.28324
1.69482
2.8346
1.4277
0.710491
0.347556
0.17595
0.0996714
0.0699181
0.0711881
0.111678
0.214231
0.394958
0.643154
0.939996
1.36067
2.68168
0.900099
0.396266
0.174334
0.0816151
0.0443249
0.0318516
0.0368802
0.067114
0.141028
0.276661
0.477787
0.749622
1.23211
2.87967
0.578817
0.227067
0.0893268
0.0384788
0.0205005
0.0165702
0.0241482
0.0506089
0.111082
0.223035
0.399971
0.679052
1.31111
3.34276
0.465022
0.176527
0.0664953
0.0283914
0.0162675
0.0152334
0.0242256
0.0501662
0.106574
0.211848
0.392869
0.74007
1.6438
3.92178
0.558118
0.240022
0.0989517
0.0463315
0.0293311
0.027135
0.0369168
0.0651321
0.125963
0.243704
0.469818
0.98509
2.21646
4.47361
0.949445
0.527812
0.268291
0.131416
0.0772823
0.0633807
0.0723313
0.106529
0.182087
0.336019
0.66372
1.44305
2.95393
5.08759
1.68224
1.15128
0.72376
0.406715
0.230405
0.161575
0.155916
0.196959
0.296817
0.50564
0.95522
1.9514
3.59443
5.66492
2.66727
2.05337
1.52065
1.03744
0.665312
0.446404
0.365179
0.388053
0.508581
0.775442
1.31091
2.4217
4.09289
5.99206
6.02335
4.15417
3.11009
2.52499
2.41159
2.63368
3.15034
3.79172
4.40601
4.92104
5.64616
6.92195
8.82278
10.7904
4.12092
2.7689
1.96851
1.4884
1.30485
1.33709
1.59231
2.01778
2.54125
3.06964
3.62832
4.46453
5.80066
7.53571
2.8154
1.88495
1.31797
0.943408
0.756676
0.711843
0.814654
1.06066
1.4312
1.87465
2.37258
2.96349
3.79921
5.19382
1.99927
1.34254
0.900571
0.609969
0.451389
0.389732
0.421187
0.554003
0.796954
1.13145
1.52323
1.95085
2.44574
3.5243
1.4706
0.945608
0.597845
0.380583
0.26221
0.21061
0.215722
0.285858
0.439371
0.678025
0.978978
1.31664
1.69891
2.52298
1.07506
0.634742
0.370629
0.219731
0.141759
0.107678
0.106878
0.145543
0.24233
0.408577
0.636489
0.91101
1.24593
1.88403
0.756727
0.397619
0.209633
0.114573
0.0694869
0.0508689
0.0509932
0.0748775
0.138263
0.255717
0.429472
0.658179
0.966949
1.58777
0.517077
0.236429
0.109638
0.0542243
0.03086
0.0224251
0.0246181
0.0420602
0.0873365
0.174975
0.313794
0.512023
0.815049
1.50153
0.373555
0.148726
0.0592485
0.0255811
0.0134664
0.0103392
0.0140915
0.029169
0.0659378
0.138017
0.258395
0.446407
0.77565
1.5807
0.334987
0.124656
0.0448301
0.0173374
0.00874393
0.00755762
0.0122659
0.0271536
0.0616343
0.129379
0.248214
0.452886
0.856863
1.79664
0.405899
0.161881
0.0614952
0.0253745
0.01404
0.0123624
0.0177243
0.0342545
0.0717745
0.146266
0.283707
0.543339
1.06119
2.11669
0.656073
0.31542
0.14371
0.0657519
0.0369965
0.0300435
0.0355389
0.0561016
0.102841
0.196833
0.378152
0.735766
1.39797
2.62185
1.13935
0.655392
0.364071
0.191699
0.107631
0.0784379
0.0798602
0.106489
0.168738
0.293646
0.538658
1.02665
1.95172
3.41422
1.85367
1.19046
0.772565
0.483041
0.298127
0.206717
0.184235
0.212626
0.294112
0.457287
0.771704
1.41285
2.70052
4.40163
5.11283
3.45045
2.50074
1.94504
1.72647
1.69968
1.84249
2.07767
2.39294
2.6996
3.02535
3.6158
5.46304
8.73957
2.78145
1.93514
1.39155
1.06082
0.911024
0.878396
0.951831
1.10201
1.32478
1.57841
1.89169
2.3581
3.4421
5.44198
1.55861
1.09621
0.790326
0.59281
0.491305
0.45834
0.489755
0.578237
0.729057
0.930704
1.19832
1.57544
2.26093
3.47683
0.996707
0.660526
0.461866
0.335834
0.267044
0.239308
0.249618
0.298668
0.397615
0.548929
0.761583
1.05718
1.51468
2.27157
0.693248
0.417925
0.272841
0.188043
0.142105
0.121857
0.123758
0.150295
0.213644
0.322986
0.485411
0.714185
1.0478
1.5923
0.502868
0.269376
0.158398
0.100837
0.0716217
0.0587555
0.0585692
0.073366
0.113585
0.190443
0.312703
0.491613
0.751945
1.18181
0.374409
0.175105
0.0893443
0.0508042
0.0333849
0.0262507
0.0262962
0.0354413
0.0617654
0.116031
0.208621
0.351756
0.568188
0.932968
0.299032
0.121018
0.0514482
0.0247243
0.0144747
0.0109152
0.0116215
0.0182942
0.0371277
0.0776304
0.15091
0.270802
0.461974
0.795701
0.263916
0.0951411
0.0337679
0.0129971
0.00632589
0.00460486
0.00584978
0.0116908
0.0272401
0.0609735
0.124236
0.232643
0.414448
0.743185
0.272489
0.0939904
0.0304096
0.00995621
0.00403506
0.00291862
0.00453293
0.0104821
0.0255282
0.0578567
0.119343
0.227662
0.41527
0.761202
0.321112
0.115451
0.0392668
0.0136812
0.00601056
0.00452836
0.00643626
0.0132936
0.0301108
0.0657379
0.133468
0.253392
0.461409
0.844629
0.457557
0.184099
0.0730677
0.0302445
0.0153338
0.0115607
0.0136084
0.0224812
0.0437749
0.0878849
0.170542
0.314723
0.559427
1.01326
0.701948
0.323973
0.154678
0.0763144
0.0426539
0.031563
0.0327603
0.0450058
0.0739306
0.132143
0.239878
0.428379
0.757253
1.32657
1.0917
0.554439
0.306313
0.176779
0.109488
0.0814221
0.0785265
0.095461
0.136389
0.216305
0.362685
0.635601
1.17927
2.10455
12.1736
14.5122
16.1703
17.7507
23.4321
53.6833
10.459
13.701
16.0352
17.1979
21.7413
50.5097
9.14207
13.487
16.4421
17.0272
20.3582
48.441
8.02504
13.6736
17.1454
16.8357
19.2193
47.2408
7.28493
14.0339
17.6247
16.5241
18.1889
46.8417
6.93662
14.3377
17.4824
16.0155
17.3709
47.0501
7.06502
13.9995
16.5674
15.3913
16.8578
47.6924
7.41141
13.0839
15.1726
14.9085
16.9772
48.567
7.41042
11.6153
13.7439
14.5092
17.2328
49.8219
7.06291
10.0827
12.4085
14.1099
17.4684
51.0778
6.65457
8.89022
11.3124
13.6963
17.812
52.349
6.52484
8.29055
10.578
13.2831
18.1875
53.7934
6.59427
8.09489
10.2267
13.0101
18.4797
54.5797
6.66929
8.15501
10.2358
13.1046
19.2719
55.4251
12.8453
15.7545
17.6523
18.717
22.0251
46.4748
9.47741
12.8256
16.0978
17.9251
20.7125
43.8189
7.23235
11.0175
15.4443
17.8461
19.777
41.9644
5.50529
9.70327
15.2241
17.9511
19.0642
40.6627
4.40719
8.86141
15.1473
18.0074
18.4857
39.9304
3.70707
8.42532
15.0019
17.8173
18.1724
39.6402
3.44382
8.14423
14.4793
17.1525
17.9579
39.9942
3.47076
7.90962
13.518
16.3501
18.0632
41.1313
3.55681
7.40244
12.2662
15.6229
18.3994
42.8014
3.61615
6.70541
11.0132
14.9996
18.8752
44.5456
3.6803
6.12733
10.0139
14.4307
19.3076
46.1057
3.94885
6.02317
9.51027
13.9015
19.6126
47.2771
4.56071
6.44717
9.53415
13.5239
19.6612
47.6509
5.22655
7.14981
9.90442
13.2914
19.6177
47.8559
12.5964
16.893
19.8268
20.4306
22.2688
37.1334
8.15947
11.753
15.441
18.0524
20.9117
35.2677
5.40225
8.54457
12.5979
16.4804
19.9263
33.9725
3.60168
6.37996
10.6139
15.5128
19.4455
32.8604
2.63801
4.99994
9.29431
14.822
19.2278
32.1186
2.02488
4.14285
8.57451
14.451
18.9711
31.9707
1.66851
3.63338
8.23794
14.1487
18.5184
32.6674
1.49495
3.43101
7.97627
13.6262
18.4373
34.2745
1.45124
3.36085
7.56044
13.0645
18.771
36.4566
1.48017
3.23064
6.9707
12.5498
19.3829
38.5242
1.54538
3.06352
6.41947
12.117
19.8809
39.9268
1.68521
3.05034
6.1847
11.8015
20.0017
40.4716
2.0947
3.47281
6.46859
11.6988
20.1142
40.2879
2.69171
4.28773
7.25364
11.8032
20.008
39.3172
6.48929
8.2077
10.5721
13.91
21.3661
57.451
4.489
6.0736
8.64235
12.1401
18.9167
52.4368
2.94435
4.42991
7.24135
10.9706
17.0275
48.3771
1.86863
3.26798
6.26976
10.174
15.5858
45.1448
1.32817
2.67284
5.69762
9.6131
14.5221
42.7415
1.05352
2.50423
5.58288
9.24959
13.6976
41.3249
0.983097
2.57313
5.62379
8.95412
13.1348
41.0256
1.077
2.77661
5.64392
8.62922
12.8987
42.252
1.30589
2.96877
5.4706
8.21481
13.0428
44.6838
1.62128
3.07362
5.14173
7.82104
13.7507
47.7479
1.95378
3.11768
4.83117
7.63182
14.999
51.0263
2.27824
3.2209
4.78442
7.89655
16.5999
53.9413
2.62994
3.53403
5.26094
8.92341
18.8371
56.4868
3.06012
4.22652
6.51663
11.0677
22.5498
59.0406
5.57242
7.59045
10.078
13.3195
19.8705
48.6895
3.38432
4.93673
7.37596
10.9345
17.2187
43.8741
1.9459
3.13814
5.40494
9.14564
15.434
39.8024
1.18677
2.03138
4.06447
7.84192
14.0743
36.3425
0.803776
1.54634
3.36394
6.86832
12.7706
33.628
0.594021
1.30119
3.05129
6.32641
11.8523
32.0047
0.499992
1.22267
2.95454
5.99215
11.236
31.6127
0.497035
1.26366
2.96787
5.78399
10.9984
32.586
0.578267
1.36772
2.96983
5.61941
11.3097
34.8756
0.734773
1.48843
2.91918
5.55879
12.3875
38.1159
0.946738
1.62381
2.92788
5.81149
14.1528
41.6417
1.21175
1.84585
3.1988
6.63915
16.4425
45.0384
1.57677
2.31514
4.02985
8.3331
19.4795
48.1297
2.13574
3.27468
5.77287
11.1891
23.2554
50.9919
3.20713
5.11929
7.83253
11.9618
19.9596
37.7635
1.86617
3.10813
5.23033
8.92715
16.1909
33.1472
1.00093
1.83401
3.4762
6.73036
13.3749
29.2335
0.620404
1.12809
2.32935
5.12621
11.0447
26.0146
0.413043
0.812722
1.75449
4.05125
9.26979
23.4603
0.293158
0.627932
1.43494
3.43106
8.01278
21.7951
0.229059
0.527216
1.26408
3.06927
7.29933
21.2884
0.203877
0.486962
1.1942
2.89415
7.1053
22.1474
0.212866
0.493255
1.18931
2.89193
7.65078
24.5713
0.257371
0.538035
1.23282
3.14285
9.15172
28.4312
0.339768
0.626237
1.38423
3.83824
11.6541
33.0267
0.471711
0.801703
1.79009
5.20873
15.0073
37.5114
0.702586
1.20376
2.72859
7.46228
18.7946
41.3228
1.18982
2.16344
4.65477
10.7544
22.5956
44.1201
57.2913
27.026
17.128
12.4004
9.06065
7.01982
55.8019
24.0131
14.5123
10.1535
7.3628
5.85623
54.6332
21.9744
13.0445
8.88926
6.35708
5.01342
53.4734
20.6529
12.4053
8.51209
5.98538
4.51026
51.507
19.5835
12.4486
8.74109
5.89558
4.02329
49.718
19.3787
12.9074
9.01961
5.62295
3.39922
48.524
20.2913
13.3284
8.8605
5.03204
2.65667
48.4537
21.9567
13.3286
8.06855
4.12216
1.92154
49.3359
23.6084
12.9761
6.97544
3.23798
1.37946
50.6895
25.1057
12.4789
6.10285
2.69636
1.13201
52.4653
26.1829
12.3765
5.88646
2.66835
1.20794
54.6319
26.7268
12.5985
6.31402
3.17368
1.6637
57.2842
26.7716
13.2091
7.22639
4.10913
2.47944
60.8361
27.7395
14.3207
8.58444
5.43476
3.627
50.3889
29.9724
19.2906
13.5425
9.24048
6.5566
48.966
27.1037
16.6921
10.7214
6.76418
4.69509
47.601
25.1726
14.9482
8.80425
5.1549
3.40793
46.2846
24.0352
13.722
7.78521
4.32018
2.64287
44.9272
23.0569
12.8751
7.17301
3.80774
2.17387
43.6915
22.4263
12.2505
6.73104
3.42867
1.79439
42.8973
22.3895
11.7794
6.19875
2.99152
1.43085
42.9321
22.9606
11.4181
5.6059
2.53873
1.11094
43.7101
23.9266
11.2328
5.14003
2.1982
0.896172
45.002
25.1041
11.3163
4.97531
2.08814
0.837936
46.6139
26.1018
11.7624
5.22067
2.25591
0.954011
48.3931
26.7056
12.5427
5.95238
2.81446
1.33621
50.2786
27.0993
13.5002
6.99532
3.6897
2.00158
52.6468
28.113
14.9871
8.48793
4.95844
2.99148
43.4459
30.9122
21.8101
14.4924
8.95537
5.33637
42.8102
29.3059
19.3297
11.1424
5.94061
3.21699
41.9346
27.8207
17.3632
8.77948
4.25675
2.19627
41.0227
26.4802
15.2869
7.40544
3.43572
1.66091
39.9174
24.8983
13.4076
6.32629
2.84103
1.29512
38.6961
23.3118
11.8243
5.45347
2.38915
1.03085
37.7591
22.0384
10.6605
4.7995
2.04641
0.839869
37.5085
21.486
10.0861
4.45733
1.85869
0.73136
38.0398
21.6937
10.0689
4.40405
1.80588
0.690456
39.2347
22.5185
10.54
4.63587
1.90771
0.73058
40.702
23.5244
11.2842
5.05883
2.12431
0.842066
42.1453
24.0547
12.2979
5.81167
2.59582
1.11476
43.4862
24.935
13.4107
6.71642
3.24861
1.5528
44.9722
26.3896
14.981
8.01468
4.22876
2.24474
51.9774
20.7416
16.2841
14.7585
13.0937
11.3445
50.7776
18.9919
15.2215
13.6669
12.0125
10.6155
49.9238
17.8937
14.5161
13.0182
11.3908
10.0793
49.451
17.2725
14.1975
12.9373
11.4712
10.2174
49.288
17.1361
14.2387
13.4994
12.4676
10.9334
49.3435
17.3093
14.6855
14.7813
14.1742
11.6922
49.4895
17.8239
15.7228
16.7001
15.7561
11.6166
49.4253
19.0244
17.4243
18.5214
16.1192
10.358
49.3309
20.6822
19.2262
19.1472
14.7997
8.47921
49.6836
22.6843
20.2195
17.9441
12.4343
6.79549
50.8332
25.3559
20.3198
15.9771
10.4332
5.88291
52.6633
28.0727
19.9259
14.5742
9.62692
5.95352
55.1147
29.0975
20.0941
14.5388
10.0245
6.79387
58.5528
30.6895
20.7617
15.48
11.4347
8.43006
44.9608
20.6294
18.2672
17.143
14.6284
11.8614
43.808
19.7783
17.907
16.0507
12.8745
10.2815
43.0759
19.2126
17.5468
15.1338
11.3545
8.53181
42.7304
18.8603
17.4011
14.8211
10.7388
7.7637
42.7184
18.6766
17.5052
15.26
11.1445
7.34232
42.9451
18.7456
17.9586
16.3508
11.6406
7.20414
43.221
19.2462
18.896
17.3054
11.7885
6.78873
43.3281
20.4864
20.0209
17.4694
11.187
6.03608
43.2852
22.3997
20.6815
16.5419
9.97691
5.18666
43.8862
24.9365
20.3262
14.8604
8.72235
4.60886
45.19
27.5721
19.9132
13.5608
8.03882
4.49087
46.7214
29.964
19.8889
13.3677
8.38619
5.0943
48.5257
31.3099
20.6658
14.3333
9.63462
6.35893
50.9997
33.3668
22.3401
16.5101
12.0801
8.60801
37.058
22.4262
21.7156
19.8712
14.7964
10.0708
36.9545
22.7871
21.9861
17.5747
11.4537
7.35118
36.9884
22.9863
21.9429
16.1358
9.44208
5.32284
37.2903
23.2777
22.0547
15.4954
8.48804
4.85784
37.7515
23.594
22.0147
15.0113
8.45141
4.63871
38.1551
23.864
21.537
14.6272
8.2119
4.31524
38.2189
24.0459
20.8266
13.8919
7.63173
3.88688
38.1508
24.5849
19.9584
12.8728
6.98236
3.52831
38.4042
25.4431
18.9845
11.9192
6.46477
3.2844
38.9795
26.5611
18.4358
11.4701
6.34464
3.3054
39.6966
27.9833
18.6997
11.6451
6.66995
3.61685
40.5377
29.2367
19.7488
12.7848
7.77887
4.50039
41.5124
30.244
21.4577
14.6978
9.59025
6.00543
43.0777
32.8212
24.202
17.8123
12.6229
8.48996
3.13956
2.11529
1.48084
1.13414
0.996724
0.953158
0.979806
1.05163
1.19164
1.39107
1.63444
1.87365
2.18195
3.25512
1.48453
0.979093
0.684149
0.523459
0.460502
0.446399
0.466872
0.510192
0.588534
0.703983
0.85846
1.03741
1.30468
2.03509
0.79951
0.464992
0.313159
0.238921
0.210871
0.206642
0.218825
0.242802
0.285563
0.352075
0.449621
0.581657
0.800584
1.30665
0.491225
0.239409
0.146563
0.108714
0.0955808
0.0942587
0.100534
0.112825
0.135513
0.174073
0.237519
0.336634
0.511462
0.877301
0.325982
0.134979
0.0712789
0.0492389
0.0424074
0.0418082
0.0447649
0.0508487
0.0630234
0.0862946
0.129455
0.205525
0.344734
0.618236
0.232507
0.084191
0.0368019
0.0221947
0.0181405
0.0177175
0.0190644
0.0221666
0.0291334
0.044196
0.0751746
0.134755
0.246771
0.458734
0.179557
0.0588176
0.0210076
0.0101825
0.00743568
0.0070815
0.00772958
0.00951346
0.0140298
0.0247749
0.0484482
0.0964552
0.188289
0.359162
0.155198
0.0473977
0.0141998
0.00514518
0.00299254
0.00268172
0.00306371
0.00433004
0.00780294
0.016466
0.0360949
0.0767347
0.155037
0.299733
0.146621
0.0430312
0.011599
0.00324301
0.00132012
0.00103395
0.00134439
0.00248426
0.00568273
0.0136768
0.0316748
0.0686808
0.13957
0.269322
0.154306
0.0448194
0.0116873
0.0028934
0.000874162
0.000573747
0.000910148
0.00215616
0.00558605
0.0139269
0.0321664
0.0686816
0.137376
0.261135
0.170029
0.0496951
0.0133094
0.0035105
0.00117948
0.000819056
0.00124805
0.00278835
0.00685273
0.0163461
0.0363587
0.0751188
0.14619
0.271431
0.218004
0.0658074
0.019165
0.00614637
0.00281294
0.00221131
0.00279766
0.00490241
0.010128
0.0216882
0.0450182
0.088552
0.165774
0.298227
0.295138
0.094984
0.0321526
0.0133424
0.00787673
0.0066364
0.00745765
0.0106028
0.0178509
0.0328286
0.0615911
0.113249
0.20146
0.348089
0.444806
0.157045
0.0632741
0.0321666
0.0217516
0.0189274
0.0201814
0.0255168
0.0369244
0.0587324
0.0981143
0.165884
0.278088
0.454389
1.66461
1.12389
0.81686
0.652674
0.598157
0.59485
0.633044
0.700023
0.807173
0.955871
1.14408
1.35643
1.60272
2.10232
0.80958
0.512155
0.362783
0.287688
0.263741
0.265952
0.288107
0.325922
0.3853
0.47026
0.585132
0.726481
0.912961
1.2724
0.454504
0.244932
0.162341
0.126474
0.115686
0.117739
0.129048
0.148517
0.179669
0.226783
0.295671
0.390045
0.530804
0.799492
0.28486
0.127254
0.0746326
0.0555961
0.0503211
0.0514219
0.0567268
0.0660933
0.0817787
0.107545
0.149276
0.2142
0.321795
0.527605
0.191371
0.0723056
0.035686
0.0243085
0.0214356
0.0218824
0.0242576
0.028623
0.0364932
0.050911
0.0772685
0.123819
0.207702
0.368304
0.137372
0.0454606
0.0182582
0.0106263
0.00883526
0.00893923
0.00997912
0.0120439
0.0161989
0.0248371
0.0426058
0.0774364
0.14401
0.271949
0.105532
0.0319105
0.0104813
0.0047995
0.00351751
0.00346874
0.00393361
0.00500455
0.00748219
0.0132787
0.0263008
0.0536303
0.1078
0.212137
0.0880715
0.0253094
0.00713915
0.00243965
0.00139409
0.00128647
0.00152357
0.00220393
0.00399398
0.00851132
0.0191065
0.0420124
0.0880911
0.176603
0.0794096
0.0224173
0.005854
0.00157759
0.000620931
0.000491824
0.00065621
0.00122818
0.0028387
0.0069839
0.0167093
0.0376445
0.0795241
0.159045
0.0786105
0.0223849
0.00577252
0.00141373
0.000421316
0.000277989
0.00044628
0.00106724
0.00281538
0.00721468
0.017239
0.0382189
0.0792953
0.155713
0.0812219
0.0237037
0.00638848
0.00170007
0.000583874
0.000419037
0.000642907
0.00143725
0.00358069
0.00874849
0.0200563
0.0428802
0.086287
0.164932
0.0954434
0.0290347
0.00866318
0.00290879
0.00142354
0.00118131
0.0015245
0.00267765
0.00557002
0.012127
0.0257848
0.0522403
0.100809
0.186142
0.118375
0.0391165
0.0141075
0.00642691
0.00412136
0.00365405
0.00422376
0.00608793
0.010346
0.0192505
0.0367176
0.0690701
0.126098
0.22297
0.167098
0.0632576
0.0283503
0.0160954
0.0117442
0.0106794
0.0117286
0.0151301
0.0221643
0.0354911
0.0596037
0.101768
0.17234
0.286192
0.724492
0.504303
0.388555
0.331509
0.323443
0.343656
0.390006
0.456927
0.545842
0.657454
0.795291
0.964316
1.17599
1.52979
0.367571
0.236712
0.175772
0.146391
0.140378
0.14901
0.170901
0.205129
0.253373
0.317728
0.402221
0.511596
0.659226
0.903281
0.210728
0.116371
0.0801645
0.0645739
0.0607323
0.0641064
0.0737464
0.0898756
0.114162
0.149168
0.198973
0.269075
0.372956
0.548957
0.134047
0.0611308
0.0369551
0.0281383
0.0258756
0.0271357
0.0312069
0.0383927
0.050009
0.0684308
0.097529
0.14324
0.217939
0.349222
0.0925422
0.0349362
0.0174552
0.0120238
0.0107
0.0111513
0.0128379
0.0159544
0.0214285
0.0311807
0.0486416
0.0795486
0.134806
0.23624
0.067719
0.021915
0.00872043
0.00507862
0.00425233
0.00439014
0.0050842
0.00645142
0.00913208
0.0145905
0.0256988
0.0476084
0.0897614
0.170093
0.0518604
0.0151589
0.00485836
0.00220261
0.00162649
0.00164168
0.00193334
0.00258205
0.00404869
0.00745572
0.0151569
0.0316141
0.0649593
0.130213
0.0419535
0.0116736
0.00320609
0.00107651
0.000619079
0.000587877
0.000724945
0.00109808
0.00207424
0.00456975
0.010568
0.0239501
0.0518211
0.107036
0.0362261
0.0100335
0.0025715
0.000679709
0.000267208
0.000219261
0.000306337
0.000597998
0.00143231
0.00364212
0.00902194
0.0210909
0.0462822
0.0959873
0.0341969
0.00976734
0.00250804
0.000609103
0.000184299
0.000129423
0.000216193
0.000528148
0.00142724
0.00376851
0.00932929
0.0215095
0.04645
0.0947693
0.0343775
0.0103383
0.00282328
0.000764445
0.000282435
0.000223003
0.000346134
0.000762002
0.00190171
0.00473651
0.0111927
0.0248118
0.0518481
0.102765
0.0382948
0.0124525
0.0039094
0.00139995
0.00075536
0.000679491
0.000897077
0.00155487
0.00319545
0.00699362
0.0151777
0.0316718
0.0631682
0.120426
0.0457948
0.0169823
0.00674511
0.00334252
0.00230605
0.00217068
0.00260526
0.00379599
0.00643022
0.0119694
0.0230928
0.0443757
0.0832536
0.151247
0.0621167
0.0279173
0.0141905
0.00872524
0.00672677
0.00643126
0.00738091
0.00978871
0.0145086
0.0233484
0.0395114
0.0684038
0.118309
0.201572
0.359086
0.259658
0.203564
0.177404
0.177335
0.197992
0.238961
0.29686
0.371127
0.461316
0.569914
0.706429
0.882884
1.15413
0.184544
0.125208
0.0944782
0.0788873
0.0757033
0.0826356
0.0998013
0.127108
0.165579
0.216573
0.283048
0.371108
0.491221
0.677916
0.104829
0.0615552
0.0433615
0.0346852
0.032125
0.0342531
0.0410555
0.0530148
0.071453
0.0983311
0.136717
0.191902
0.273522
0.404823
0.0660605
0.0315873
0.0196504
0.0148301
0.0133164
0.0139385
0.0165582
0.0215427
0.0299342
0.0435366
0.0652135
0.09977
0.155881
0.251015
0.0452669
0.0173777
0.00892333
0.00611782
0.00530405
0.00548434
0.00649022
0.00852653
0.0122859
0.0191586
0.031589
0.0538105
0.0933772
0.164763
0.0325798
0.0104292
0.00421434
0.00245912
0.00201301
0.00206028
0.00245093
0.00329669
0.00503978
0.00868007
0.0161745
0.0311142
0.0599909
0.115051
0.0242659
0.00691214
0.00220783
0.00100472
0.000731643
0.00073509
0.000892701
0.00127245
0.00216805
0.00430036
0.00920375
0.0198662
0.0418436
0.0855435
0.0189611
0.00515018
0.00139159
0.000464159
0.000264953
0.000252644
0.000324521
0.000529639
0.00108496
0.00254604
0.00615655
0.0144453
0.0322404
0.0685523
0.0160164
0.00439194
0.00110648
0.000286465
0.000111216
9.29799e-05
0.000137511
0.000288717
0.000735646
0.00196283
0.00506754
0.012316
0.0280878
0.0605024
0.0152496
0.00437424
0.00110827
0.000264732
8.21337e-05
6.20652e-05
0.000106938
0.000265851
0.000737352
0.00201351
0.00518049
0.0124501
0.0280751
0.0598259
0.0161008
0.00489051
0.00132488
0.000363619
0.000149285
0.000131352
0.00020144
0.000424014
0.00104111
0.00262626
0.00639154
0.0147223
0.0321078
0.0664717
0.0188935
0.00625354
0.00198128
0.000743219
0.000444662
0.000434427
0.000580599
0.000973595
0.0019366
0.00420475
0.00926339
0.0199101
0.041218
0.0816477
0.0239809
0.00918755
0.00373691
0.00192676
0.00141695
0.001423
0.001771
0.00258649
0.00431551
0.00794608
0.0153991
0.0301428
0.0581571
0.108778
0.03405
0.0160818
0.00835497
0.0052426
0.00420806
0.00425211
0.00511337
0.00695778
0.0103929
0.0167352
0.0284446
0.0498246
0.0879243
0.153061
0.231373
0.170443
0.131519
0.111271
0.107697
0.119766
0.147792
0.191244
0.250962
0.326599
0.419189
0.534791
0.682851
0.898898
0.119427
0.0839372
0.0627646
0.0506276
0.0463322
0.0492742
0.0597975
0.0787204
0.107803
0.148735
0.203539
0.276827
0.376869
0.526555
0.0658701
0.0408456
0.0289263
0.022364
0.0195832
0.0200295
0.0237988
0.0315669
0.0447957
0.0654648
0.0960691
0.140816
0.207303
0.31143
0.0392483
0.0200465
0.0128401
0.00943232
0.00797064
0.00792077
0.00925049
0.0123316
0.0181028
0.028157
0.0448544
0.0720279
0.116369
0.190578
0.0250563
0.0102069
0.00555308
0.00377244
0.00307795
0.00300229
0.00348121
0.00469756
0.00720318
0.0121084
0.021344
0.0382234
0.0685003
0.122975
0.0168332
0.00557427
0.00242269
0.00144355
0.00112116
0.00107981
0.0012603
0.0017561
0.00289121
0.00540653
0.0107704
0.0217032
0.0431008
0.0841659
0.0118757
0.00339735
0.00114698
0.000548573
0.000387234
0.000367513
0.000441195
0.000661967
0.00123099
0.00265167
0.0060207
0.0135235
0.0292873
0.0611327
0.00908932
0.00243784
0.000667471
0.000231776
0.000131928
0.000120539
0.000155698
0.000273029
0.000611791
0.00153923
0.00390583
0.00950267
0.0218597
0.0477483
0.00791774
0.00213877
0.000527998
0.000135681
5.27543e-05
4.35784e-05
6.64358e-05
0.000149895
0.000408176
0.00114659
0.00308967
0.00780642
0.018469
0.0412088
0.00809163
0.00228175
0.000558608
0.000130443
4.24851e-05
3.43991e-05
5.87896e-05
0.000145037
0.000409177
0.00115418
0.0030882
0.00773839
0.0182039
0.0404387
0.00928408
0.00275581
0.00072228
0.000200334
9.31606e-05
9.00184e-05
0.000133468
0.000261563
0.00061788
0.00156193
0.00390036
0.00932127
0.0211835
0.0457326
0.0116215
0.00375482
0.0011686
0.000456373
0.000303238
0.000318145
0.000425495
0.000681613
0.00128979
0.0027381
0.0060699
0.0133686
0.0286132
0.0587449
0.0155511
0.00584676
0.0023608
0.00125858
0.000992488
0.00105989
0.00135299
0.00195901
0.00318429
0.00573942
0.0110715
0.0219235
0.0432522
0.082999
0.0230498
0.0107707
0.00553692
0.00352908
0.00297437
0.00317862
0.00396658
0.00547233
0.00815339
0.0130355
0.0220836
0.0388776
0.0695774
0.123264
0.181517
0.134892
0.101834
0.0818516
0.0733848
0.0760614
0.0909021
0.119409
0.163875
0.225086
0.303385
0.402712
0.530898
0.713129
0.0919883
0.0665288
0.0491566
0.0379337
0.0321876
0.0315526
0.036359
0.0478228
0.0681327
0.0995885
0.144231
0.205456
0.290643
0.416475
0.0479703
0.0316559
0.0225297
0.01677
0.0136346
0.0127864
0.0142679
0.0187134
0.0275222
0.0427407
0.0668387
0.103298
0.158709
0.245608
0.0261339
0.0147441
0.00978001
0.00698366
0.00548268
0.00497765
0.00543217
0.00713929
0.0108758
0.0180595
0.0308379
0.0525259
0.0887847
0.150178
0.0149749
0.00688485
0.00405228
0.00272761
0.00207016
0.00183757
0.00198823
0.00265842
0.00426891
0.00772345
0.014654
0.0278845
0.0522721
0.0968813
0.00907533
0.00335429
0.00164356
0.00100491
0.000731138
0.000638807
0.000697334
0.000976512
0.00171375
0.00348099
0.0074562
0.0158879
0.0328631
0.0660701
0.00599241
0.00183767
0.000700504
0.000359467
0.000242634
0.000209119
0.00023695
0.000366436
0.000741858
0.0017383
0.00420379
0.00988941
0.0221776
0.047547
0.00459953
0.00126512
0.000368965
0.000138762
7.84212e-05
6.59074e-05
8.21815e-05
0.000153381
0.000376649
0.00101675
0.00271064
0.00685251
0.016277
0.0365373
0.00431587
0.00115809
0.000284924
7.49216e-05
2.97772e-05
2.36925e-05
3.60943e-05
8.67843e-05
0.000252209
0.000744823
0.00209146
0.00548368
0.0134251
0.0309123
0.00486226
0.00132868
0.000313921
7.29908e-05
2.60085e-05
2.26335e-05
3.74389e-05
8.96512e-05
0.000254425
0.000737659
0.00204574
0.00532559
0.01301
0.0299619
0.00605316
0.00171449
0.000432515
0.000123895
6.67319e-05
6.98843e-05
0.000100451
0.000183233
0.00041196
0.00103363
0.0026316
0.00648914
0.0152784
0.0341802
0.00802334
0.00247253
0.000752872
0.000311698
0.000231481
0.000257758
0.000344462
0.000530428
0.000955092
0.00196986
0.00436105
0.00977275
0.0214847
0.0454412
0.011231
0.00406324
0.00162428
0.000907607
0.000771913
0.000868451
0.00112716
0.0016145
0.00255628
0.00449811
0.00859257
0.0171151
0.0343507
0.0673466
0.0172987
0.00787119
0.00399514
0.00261535
0.00232952
0.00261346
0.00334429
0.0046365
0.00685177
0.0108293
0.018209
0.0320927
0.0580535
0.104414
0.15415
0.115544
0.0862246
0.0667827
0.0558379
0.0531178
0.0592425
0.0761693
0.107044
0.154355
0.219319
0.304728
0.417819
0.577329
0.076355
0.0566442
0.0416734
0.0312637
0.02496
0.0224596
0.0238735
0.0302404
0.0436757
0.0669187
0.102625
0.153909
0.227516
0.336809
0.0378292
0.0264634
0.0189759
0.0138081
0.0106167
0.00915007
0.00937249
0.011738
0.0174037
0.028323
0.0470795
0.0770627
0.1242
0.199426
0.0189755
0.0118725
0.00811697
0.00570217
0.00424254
0.00353971
0.00354038
0.00443732
0.0068296
0.0119335
0.0217502
0.0394182
0.0700898
0.123303
0.00974713
0.00518899
0.00327204
0.00219555
0.00158178
0.00128777
0.00127712
0.00163881
0.0026911
0.00517239
0.0105107
0.0212824
0.0419148
0.080684
0.00527534
0.00228937
0.00126178
0.000790127
0.000548738
0.000438754
0.000440233
0.000601363
0.00110282
0.00240387
0.00550301
0.0123936
0.0267661
0.0556207
0.00323894
0.00112048
0.000493135
0.000271013
0.000177703
0.000140297
0.000147508
0.000229137
0.000496087
0.00124789
0.00319172
0.00784888
0.0182351
0.0401999
0.00250484
0.000720249
0.000230879
9.63121e-05
5.52389e-05
4.3138e-05
5.11212e-05
9.93386e-05
0.000262366
0.000749914
0.00208602
0.00546089
0.0133648
0.030753
0.00253233
0.000668864
0.000165369
4.61056e-05
1.97258e-05
1.55056e-05
2.33425e-05
5.85721e-05
0.000178824
0.000549545
0.00159703
0.00432071
0.0108855
0.0256933
0.00309705
0.000806489
0.000183262
4.34637e-05
1.79005e-05
1.70615e-05
2.75589e-05
6.40127e-05
0.000181807
0.000538497
0.00153788
0.00412937
0.0103914
0.0245721
0.00410662
0.00109498
0.000266573
8.15406e-05
5.18351e-05
5.8227e-05
8.24437e-05
0.000143324
0.000309982
0.000771852
0.00199491
0.00504292
0.0122021
0.0280199
0.00571292
0.00166476
0.000502001
0.000227246
0.000188959
0.000220679
0.000295523
0.000444103
0.000772259
0.0015569
0.00344162
0.00782
0.0175588
0.0379953
0.00835433
0.00290225
0.0011673
0.000699197
0.000641408
0.000751365
0.00098597
0.00140128
0.00217619
0.00375825
0.00712672
0.014279
0.0290952
0.058098
0.0134519
0.00596647
0.0030303
0.0020734
0.00195397
0.00227594
0.00295778
0.00410318
0.0060116
0.00940102
0.015711
0.0277502
0.0507516
0.0926571
0.135699
0.102615
0.0764587
0.0581114
0.0464461
0.0411344
0.0423634
0.0517534
0.0724304
0.108055
0.161292
0.234973
0.336446
0.480744
0.0655973
0.0496643
0.0365838
0.0270782
0.0208321
0.0175826
0.017278
0.020622
0.0293776
0.0463442
0.0747289
0.118023
0.182772
0.280528
0.0311233
0.022774
0.0164491
0.0118461
0.00881419
0.00715851
0.00680132
0.00801399
0.0116865
0.0195552
0.034214
0.0592096
0.100253
0.167487
0.0146112
0.00993035
0.00693137
0.00483503
0.00348725
0.00274674
0.00255715
0.00302678
0.00460689
0.00831659
0.0159966
0.0307114
0.0574474
0.105363
0.00686091
0.00414617
0.00273583
0.00183633
0.00128483
0.00098752
0.00091437
0.00111821
0.00184284
0.00369797
0.00794933
0.0170125
0.0351423
0.070332
0.00336336
0.00170526
0.00102008
0.000649272
0.00043987
0.000332023
0.000312384
0.000413672
0.000778838
0.00178974
0.00432196
0.0102083
0.0229536
0.0492946
0.00192188
0.000757695
0.00037491
0.000216416
0.000140213
0.000104769
0.000104283
0.0001615
0.000366799
0.000972523
0.0025994
0.0066354
0.0159191
0.0360466
0.00148265
0.000445637
0.000157407
7.22149e-05
4.24667e-05
3.18215e-05
3.64899e-05
7.29757e-05
0.000203134
0.000605369
0.00174089
0.00469119
0.0117827
0.02772
0.00157632
0.000402547
0.000100378
3.04421e-05
1.43889e-05
1.14962e-05
1.73232e-05
4.48615e-05
0.00014199
0.000449596
0.00134222
0.00372302
0.00959737
0.0231039
0.00202961
0.000492253
0.000107011
2.67541e-05
1.32686e-05
1.38492e-05
2.22488e-05
5.096e-05
0.000145533
0.000439261
0.00128461
0.00353345
0.00909412
0.0219264
0.00280301
0.000687986
0.000161907
5.54732e-05
4.21068e-05
5.00932e-05
7.06997e-05
0.000120117
0.000254908
0.000635034
0.00166639
0.00430138
0.0106329
0.0248931
0.0040559
0.00109938
0.000333804
0.000171783
0.000159763
0.000193722
0.000260439
0.000386834
0.000660213
0.00131667
0.00292207
0.00673554
0.0154064
0.0339584
0.00622447
0.00206528
0.000852082
0.000559426
0.000552139