/*--------------------------------*- C++ -*----------------------------------*\
| =========                 |                                                 |
| \\      /  F ield         | OpenFOAM: The Open Source CFD Toolbox           |
|  \\    /   O peration     | Version:  v2106                                 |
|   \\  /    A nd           | Website:  www.openfoam.com                      |
|    \\/     M anipulation  |                                                 |
\*---------------------------------------------------------------------------*/
FoamFile
{
    version     2.0;
    format      ascii;
    arch        "LSB;label=32;scalar=64";
    class       volScalarField;
    location    "0.000205";
    object      rho;
}
// * * * * * * * * * * * * * * * * * * * * * * * * * * * * * * * * * * * * * //

dimensions      [1 -3 0 0 0 0 0];

internalField   nonuniform List<scalar> 
144746
(
2.34977
2.34879
2.34487
2.34187
2.33845
2.33599
2.33305
2.33032
2.32828
2.3281
2.32938
2.33258
2.33421
2.34154
2.34819
2.34837
2.34563
2.34324
2.34026
2.3379
2.33532
2.33271
2.33073
2.33019
2.33102
2.33398
2.33659
2.3427
2.3512
2.35022
2.34752
2.34531
2.34266
2.34042
2.33809
2.33572
2.3338
2.3327
2.33271
2.33421
2.33574
2.34042
2.35284
2.35169
2.34945
2.34767
2.34538
2.34336
2.34127
2.33914
2.33726
2.33601
2.33541
2.33576
2.33669
2.33972
2.35499
2.35333
2.35142
2.34998
2.3481
2.34622
2.34427
2.34239
2.34073
2.33935
2.33838
2.33804
2.33837
2.34022
2.35698
2.35507
2.35357
2.3525
2.35104
2.34932
2.34745
2.34562
2.34398
2.34258
2.34155
2.341
2.34092
2.34187
2.35922
2.35722
2.35626
2.35535
2.35411
2.35252
2.35064
2.34878
2.34707
2.34562
2.34456
2.34391
2.34378
2.34435
2.36184
2.36004
2.35953
2.35862
2.35739
2.35581
2.35393
2.35208
2.35033
2.34883
2.34774
2.34714
2.34697
2.34708
2.36492
2.36329
2.36273
2.3617
2.36038
2.35878
2.35701
2.35516
2.35336
2.35177
2.35063
2.35
2.34978
2.34984
2.36807
2.36639
2.36555
2.36442
2.36309
2.36154
2.35987
2.35811
2.35629
2.35466
2.35345
2.35277
2.35264
2.35256
2.37162
2.36959
2.3682
2.36689
2.3655
2.3641
2.36261
2.36091
2.35922
2.35765
2.35649
2.35599
2.35616
2.35633
2.37543
2.37242
2.37071
2.36918
2.3678
2.36652
2.36525
2.36366
2.36213
2.3608
2.36006
2.36006
2.36075
2.36068
2.37925
2.37552
2.37353
2.37167
2.37022
2.36916
2.36808
2.36658
2.36523
2.36408
2.36389
2.36428
2.36512
2.364
2.38139
2.37746
2.37665
2.37497
2.37356
2.37247
2.37149
2.37013
2.36906
2.36836
2.3689
2.37072
2.37306
2.37311
2.34285
2.34669
2.34559
2.34512
2.34437
2.34382
2.34286
2.34187
2.34113
2.34156
2.3427
2.34451
2.34491
2.34997
2.34478
2.34708
2.34633
2.34583
2.34527
2.34467
2.34393
2.34326
2.34296
2.34356
2.3449
2.34717
2.34877
2.35327
2.3478
2.34918
2.34757
2.34689
2.34642
2.34577
2.34515
2.34462
2.34453
2.3448
2.3457
2.34723
2.34879
2.35241
2.35021
2.35034
2.34884
2.34809
2.34775
2.34731
2.34682
2.34632
2.34612
2.34624
2.34696
2.348
2.34951
2.35235
2.35249
2.35133
2.35006
2.34951
2.34933
2.34898
2.34852
2.34811
2.34799
2.34784
2.34824
2.34914
2.3504
2.35284
2.35425
2.35263
2.35158
2.35135
2.35129
2.35106
2.35078
2.35039
2.35003
2.34986
2.35003
2.35058
2.35174
2.35376
2.35558
2.35416
2.3536
2.35347
2.35338
2.35322
2.35299
2.35265
2.35233
2.35204
2.35203
2.35261
2.35329
2.35528
2.35715
2.35608
2.35573
2.35569
2.35554
2.35542
2.35516
2.35482
2.35449
2.35416
2.35408
2.35428
2.35543
2.35678
2.35867
2.35794
2.35768
2.35759
2.35741
2.35726
2.35696
2.35661
2.35632
2.35605
2.35606
2.35626
2.35726
2.35854
2.36042
2.35975
2.35953
2.35936
2.35912
2.35887
2.35851
2.35812
2.35783
2.35759
2.35777
2.35809
2.35911
2.36047
2.36245
2.36138
2.36099
2.36074
2.36043
2.36013
2.35974
2.35937
2.35906
2.35894
2.35945
2.36012
2.36132
2.36294
2.36476
2.36331
2.36259
2.3621
2.36181
2.36153
2.36115
2.36071
2.36043
2.36047
2.36128
2.3625
2.36404
2.36535
2.36718
2.36535
2.3645
2.36369
2.36321
2.36294
2.36266
2.36231
2.36207
2.36234
2.36334
2.36495
2.36682
2.36682
2.36856
2.36717
2.367
2.36615
2.36557
2.36517
2.36501
2.36465
2.3646
2.36508
2.36669
2.36891
2.37139
2.37187
2.32932
2.33672
2.33798
2.33941
2.34025
2.34073
2.34074
2.34061
2.34078
2.34136
2.34231
2.34357
2.34399
2.3482
2.33535
2.33926
2.34127
2.34277
2.34365
2.34411
2.34425
2.3445
2.34499
2.34574
2.34736
2.3493
2.35097
2.35542
2.34187
2.34402
2.34522
2.34638
2.34717
2.34766
2.34786
2.34819
2.34865
2.34958
2.35074
2.35218
2.35369
2.35757
2.34744
2.34837
2.34948
2.35062
2.35151
2.35202
2.35232
2.35261
2.35288
2.35316
2.35409
2.35539
2.35671
2.3598
2.35263
2.35318
2.35426
2.35537
2.35623
2.35676
2.3571
2.35725
2.35726
2.35727
2.35746
2.35821
2.35938
2.36185
2.35746
2.3581
2.3594
2.36052
2.36133
2.36187
2.36212
2.36209
2.36191
2.36167
2.36149
2.36159
2.36241
2.36452
2.36168
2.36265
2.36413
2.36532
2.36616
2.3667
2.36688
2.36674
2.36639
2.36598
2.36556
2.36537
2.36594
2.36775
2.36592
2.36725
2.36876
2.36997
2.37079
2.37127
2.37136
2.37111
2.37066
2.37015
2.36963
2.36935
2.36975
2.37137
2.36938
2.37095
2.3725
2.37378
2.37464
2.37517
2.37521
2.37495
2.37449
2.37395
2.37344
2.3732
2.37359
2.3751
2.37258
2.37415
2.37562
2.37693
2.37782
2.37842
2.37851
2.37828
2.37785
2.37738
2.37693
2.3768
2.37731
2.37878
2.37516
2.37683
2.37828
2.37957
2.38043
2.38104
2.38118
2.38103
2.38067
2.38037
2.38015
2.38028
2.38091
2.38222
2.3773
2.37902
2.38064
2.3819
2.38276
2.38334
2.38351
2.38349
2.38326
2.38314
2.38321
2.38365
2.38465
2.38552
2.37883
2.38079
2.38223
2.38345
2.38429
2.38496
2.38537
2.38571
2.38584
2.38612
2.38647
2.38757
2.38857
2.3885
2.37871
2.38184
2.38425
2.38604
2.38725
2.38809
2.38859
2.3889
2.38909
2.38962
2.39039
2.39226
2.3939
2.3928
2.35608
2.36767
2.3721
2.3813
2.38468
2.40077
2.34129
2.35335
2.36222
2.37582
2.3826
2.3977
2.34246
2.35289
2.36115
2.37429
2.38264
2.39794
2.34188
2.34987
2.35721
2.36963
2.37836
2.39259
2.34253
2.34898
2.35521
2.3666
2.37475
2.39054
2.3436
2.34851
2.3534
2.36361
2.37066
2.38671
2.34539
2.34915
2.35311
2.36265
2.36861
2.38623
2.34765
2.35073
2.35457
2.36432
2.37025
2.38859
2.35043
2.35355
2.35724
2.36729
2.37362
2.39183
2.3536
2.35721
2.36125
2.372
2.37826
2.3958
2.35835
2.3635
2.36837
2.37885
2.38358
2.40369
2.36321
2.36853
2.37484
2.38642
2.39213
2.4033
2.36855
2.37525
2.38256
2.3937
2.40052
2.40962
2.36593
2.37381
2.38339
2.39908
2.40728
2.4135
2.36213
2.37305
2.376
2.38203
2.38109
2.39519
2.35145
2.35999
2.36627
2.37762
2.38088
2.39421
2.35394
2.36188
2.36794
2.38001
2.38248
2.39983
2.35465
2.36085
2.36642
2.37799
2.38196
2.39637
2.35584
2.3617
2.36725
2.3784
2.38254
2.39621
2.35689
2.36242
2.36753
2.37708
2.38031
2.39219
2.35824
2.36354
2.36773
2.37579
2.37714
2.39073
2.35976
2.3644
2.3676
2.37438
2.37498
2.38906
2.36134
2.36532
2.3681
2.3745
2.37574
2.39005
2.36319
2.36688
2.36946
2.37564
2.37816
2.3912
2.36553
2.36936
2.37218
2.37811
2.38057
2.3958
2.36815
2.37161
2.37465
2.38258
2.38515
2.39422
2.37062
2.37442
2.37919
2.3872
2.39115
2.39924
2.36616
2.3709
2.37656
2.38657
2.39376
2.40067
2.35961
2.36414
2.37074
2.37451
2.37386
2.38415
2.35398
2.35972
2.36461
2.37405
2.37833
2.38827
2.35828
2.36353
2.3689
2.38004
2.38462
2.40416
2.36172
2.36613
2.37168
2.38295
2.38982
2.40709
2.36489
2.36975
2.3765
2.38849
2.39552
2.41103
2.36798
2.37349
2.38074
2.39141
2.39742
2.41031
2.37144
2.37719
2.38437
2.39372
2.39917
2.41147
2.37503
2.38065
2.38674
2.39471
2.39911
2.41148
2.37865
2.38399
2.3886
2.39538
2.39821
2.4082
2.38194
2.38659
2.39006
2.39579
2.39802
2.40495
2.385
2.38901
2.39197
2.39682
2.39956
2.40394
2.38833
2.39129
2.39402
2.3986
2.40225
2.40649
2.39252
2.39415
2.3982
2.40384
2.40812
2.41177
2.39093
2.3936
2.3975
2.4043
2.41089
2.41485
2.38376
2.39488
2.39985
2.41054
2.41418
2.42092
2.37241
2.3847
2.39233
2.40532
2.40834
2.42082
2.37399
2.38538
2.39317
2.40718
2.41026
2.42839
2.37362
2.38355
2.39162
2.40487
2.4081
2.42613
2.37381
2.38264
2.39119
2.40466
2.40988
2.423
2.37419
2.38203
2.38973
2.40237
2.40922
2.41514
2.37507
2.38235
2.3888
2.39967
2.40504
2.41268
2.37624
2.38274
2.38793
2.39648
2.40037
2.40855
2.37727
2.38336
2.38778
2.39459
2.39758
2.40553
2.37808
2.38352
2.38767
2.39317
2.39562
2.40254
2.37938
2.38377
2.38806
2.39293
2.39532
2.40186
2.3811
2.38441
2.38839
2.39288
2.3956
2.40084
2.38293
2.38572
2.38933
2.39404
2.39744
2.40337
2.37809
2.3807
2.38514
2.39201
2.39593
2.4017
2.38036
2.3884
2.39246
2.40113
2.40365
2.40676
2.37157
2.38029
2.38603
2.39683
2.40038
2.40672
2.37153
2.37966
2.3857
2.39716
2.39988
2.41252
2.37009
2.37749
2.38445
2.39671
2.40281
2.40932
2.36898
2.37577
2.38358
2.39536
2.40275
2.40898
2.36852
2.37504
2.38274
2.39315
2.40045
2.40516
2.36848
2.37474
2.3819
2.39104
2.39741
2.40187
2.3688
2.37481
2.38117
2.38844
2.39325
2.39615
2.36885
2.37448
2.38035
2.38579
2.38908
2.3914
2.36918
2.37411
2.37914
2.38242
2.38477
2.38604
2.36965
2.37322
2.37754
2.37997
2.38226
2.38386
2.37064
2.37252
2.37607
2.37834
2.3807
2.38203
2.37183
2.37193
2.37528
2.37826
2.38235
2.38538
2.36588
2.36591
2.36931
2.37428
2.38042
2.38315
2.40132
2.40722
2.41156
2.41846
2.42258
2.42691
2.39667
2.40294
2.40748
2.41625
2.4213
2.42554
2.39621
2.40234
2.40745
2.41656
2.42176
2.42627
2.3949
2.40083
2.40632
2.41525
2.42123
2.42528
2.39385
2.39969
2.4056
2.41367
2.4193
2.42156
2.3931
2.39877
2.40489
2.41128
2.41493
2.41473
2.39259
2.39801
2.4032
2.4071
2.40868
2.40547
2.39169
2.39644
2.40004
2.40153
2.40014
2.39425
2.39059
2.39427
2.39599
2.39461
2.39014
2.38026
2.38904
2.39114
2.39098
2.38601
2.37934
2.3655
2.38732
2.38763
2.38517
2.37766
2.37031
2.35394
2.38505
2.38338
2.37985
2.3705
2.36394
2.34652
2.3828
2.37821
2.37513
2.36672
2.36366
2.34812
2.3756
2.36815
2.3642
2.35917
2.36128
2.34681
2.37588
2.36661
2.36103
2.35207
2.3469
2.34438
2.38075
2.36806
2.36389
2.35808
2.35481
2.35359
2.37655
2.36393
2.36126
2.356
2.35368
2.35373
2.37982
2.3621
2.36059
2.35655
2.35509
2.35506
2.38439
2.36335
2.36173
2.35868
2.35775
2.35725
2.38334
2.37358
2.36928
2.36445
2.36197
2.3599
2.38801
2.37977
2.37679
2.37071
2.36688
2.3628
2.39784
2.38953
2.38587
2.37769
2.37194
2.36582
2.40298
2.39551
2.39175
2.38258
2.37605
2.36881
2.40838
2.40007
2.39649
2.38659
2.37978
2.37198
2.41055
2.40217
2.3994
2.38936
2.38302
2.3751
2.41424
2.40483
2.40242
2.39236
2.38678
2.37838
2.40977
2.4008
2.39982
2.39157
2.38789
2.38019
2.41362
2.40358
2.40417
2.39882
2.39488
2.38781
2.35991
2.3527
2.34479
2.33625
2.33314
2.3367
2.36407
2.35479
2.35006
2.34595
2.34491
2.34895
2.3578
2.3494
2.34764
2.3463
2.34654
2.35018
2.35926
2.35107
2.35058
2.35017
2.35033
2.35271
2.36197
2.3557
2.35516
2.35494
2.35426
2.355
2.36685
2.36222
2.36145
2.36067
2.35868
2.35742
2.37419
2.36887
2.36698
2.36506
2.36177
2.35873
2.38218
2.37645
2.37348
2.36914
2.36443
2.36006
2.38726
2.38224
2.37791
2.37169
2.36613
2.36128
2.39252
2.38696
2.3819
2.37408
2.36809
2.36275
2.39497
2.38936
2.3846
2.37606
2.37006
2.36453
2.39828
2.39178
2.38673
2.37764
2.37189
2.36618
2.39276
2.38845
2.38416
2.37633
2.37243
2.36755
2.3962
2.39092
2.38786
2.38266
2.37786
2.37315
2.29158
2.30486
2.29811
2.30109
2.30434
2.31791
2.29266
2.30881
2.30814
2.31749
2.32287
2.3364
2.28436
2.30523
2.30867
2.32277
2.32962
2.34161
2.28805
2.31009
2.31725
2.332
2.33813
2.34737
2.29833
2.31987
2.32839
2.34153
2.3461
2.3525
2.31617
2.33389
2.34071
2.35079
2.3536
2.35717
2.33373
2.34735
2.35147
2.35792
2.35967
2.36103
2.34917
2.35986
2.36097
2.36411
2.36478
2.36518
2.36048
2.36853
2.36814
2.36898
2.36879
2.36852
2.36828
2.37494
2.37368
2.37323
2.37246
2.37176
2.37162
2.37865
2.37656
2.37569
2.37484
2.37421
2.37174
2.38044
2.37726
2.37692
2.37638
2.37612
2.36673
2.37728
2.3733
2.37518
2.37662
2.37679
2.36072
2.3738
2.37235
2.37576
2.37713
2.37875
2.39562
2.38228
2.37391
2.35738
2.34525
2.33665
2.39078
2.37838
2.36937
2.35585
2.34611
2.33977
2.38732
2.37062
2.36185
2.34784
2.33962
2.33464
2.38214
2.36399
2.35601
2.34286
2.33544
2.33086
2.37719
2.35765
2.34924
2.33678
2.33109
2.32771
2.37325
2.35417
2.34597
2.33467
2.32921
2.32688
2.37091
2.35219
2.34409
2.33427
2.33067
2.32884
2.36863
2.35341
2.34577
2.33691
2.33361
2.33175
2.36958
2.35496
2.34822
2.33991
2.33708
2.3351
2.37311
2.35825
2.3536
2.34473
2.34165
2.33807
2.37566
2.36132
2.35765
2.3481
2.345
2.34117
2.38282
2.36482
2.36153
2.35251
2.3502
2.34448
2.37918
2.36292
2.36372
2.35564
2.35283
2.34623
2.3854
2.3735
2.37441
2.36854
2.36631
2.3572
2.38384
2.3739
2.36536
2.35119
2.34297
2.34002
2.37838
2.36744
2.36236
2.3539
2.34858
2.34876
2.37148
2.35867
2.35453
2.34766
2.3444
2.34537
2.36672
2.35242
2.34993
2.34388
2.3418
2.34257
2.36224
2.34607
2.34473
2.33977
2.33919
2.34032
2.35993
2.3444
2.34342
2.33887
2.33901
2.33997
2.35906
2.34522
2.34442
2.34049
2.34062
2.34095
2.35983
2.34802
2.34728
2.34321
2.34277
2.34231
2.35809
2.3513
2.35054
2.34581
2.34471
2.34358
2.36615
2.35689
2.35449
2.34807
2.34664
2.34438
2.36781
2.35604
2.35532
2.34854
2.34664
2.34475
2.37232
2.35951
2.35715
2.34934
2.34708
2.34463
2.36738
2.35783
2.35573
2.34751
2.34509
2.34296
2.37253
2.36227
2.36241
2.35746
2.35487
2.34937
2.36292
2.35776
2.34593
2.33683
2.33303
2.33587
2.35016
2.34994
2.34289
2.34157
2.34009
2.34554
2.33744
2.33863
2.33321
2.33502
2.33601
2.34199
2.33167
2.33179
2.3288
2.33083
2.3334
2.3392
2.32821
2.32581
2.32463
2.32723
2.33147
2.33731
2.33
2.32701
2.32626
2.32799
2.33178
2.33677
2.33387
2.32983
2.32868
2.32964
2.3327
2.3368
2.33503
2.3325
2.33089
2.33141
2.33377
2.33739
2.33364
2.33296
2.3304
2.33184
2.33398
2.33754
2.33357
2.3312
2.32932
2.33144
2.33324
2.33697
2.32813
2.32824
2.32679
2.32891
2.33106
2.33541
2.32628
2.32833
2.32524
2.3267
2.32805
2.33243
2.31511
2.32313
2.31946
2.32221
2.32449
2.32832
2.31191
2.32027
2.32098
2.32656
2.32802
2.33134
2.33938
2.34221
2.34364
2.34442
2.34474
2.34455
2.34423
2.34402
2.34439
2.34474
2.34507
2.34525
2.34478
2.34763
2.34496
2.34662
2.3476
2.34854
2.34892
2.34883
2.34864
2.34847
2.34868
2.34886
2.34921
2.34995
2.35076
2.35419
2.35119
2.35183
2.3523
2.35309
2.35359
2.35366
2.35361
2.35348
2.35348
2.35339
2.35339
2.35391
2.35413
2.35714
2.35747
2.35711
2.35765
2.3583
2.35874
2.3588
2.35878
2.35858
2.35836
2.35804
2.35775
2.35772
2.35829
2.36074
2.36361
2.36309
2.36372
2.36413
2.36439
2.36442
2.36425
2.36389
2.3634
2.36283
2.36225
2.36192
2.36192
2.36358
2.36949
2.36925
2.36982
2.37009
2.37024
2.37011
2.36975
2.36919
2.36848
2.3677
2.36697
2.36643
2.36638
2.36745
2.37472
2.37501
2.37558
2.37583
2.37593
2.37568
2.37513
2.37436
2.37347
2.37257
2.37169
2.37106
2.37087
2.37137
2.37996
2.38046
2.38089
2.38115
2.38117
2.38083
2.38013
2.37923
2.37823
2.37726
2.37635
2.37571
2.37551
2.37556
2.38442
2.3849
2.38529
2.38567
2.38575
2.38545
2.38472
2.38378
2.38277
2.38178
2.38091
2.38032
2.38013
2.38
2.38908
2.38927
2.38948
2.38982
2.38992
2.38965
2.38893
2.38799
2.387
2.38607
2.38529
2.38483
2.38475
2.38458
2.39273
2.3929
2.39312
2.3934
2.3935
2.3933
2.39267
2.39183
2.39096
2.39014
2.38955
2.38923
2.38932
2.38927
2.39755
2.39718
2.3972
2.39727
2.39719
2.39692
2.39634
2.39557
2.3948
2.39412
2.39375
2.39352
2.39392
2.39406
2.40042
2.40061
2.40041
2.40046
2.40033
2.40005
2.39958
2.39903
2.39852
2.39814
2.39805
2.39811
2.39876
2.39909
2.40597
2.40604
2.40596
2.40579
2.40529
2.40461
2.40379
2.40306
2.40251
2.40221
2.40241
2.40291
2.4039
2.40493
2.34501
2.34578
2.34668
2.34666
2.34674
2.34619
2.34551
2.34476
2.34436
2.34415
2.34395
2.34393
2.34344
2.34437
2.3516
2.35126
2.35145
2.35163
2.35177
2.35147
2.35098
2.35038
2.34986
2.34945
2.34907
2.34896
2.34889
2.35058
2.35835
2.35754
2.35744
2.35744
2.35747
2.35722
2.35682
2.35626
2.3556
2.35495
2.35428
2.35392
2.35364
2.35508
2.36534
2.36416
2.36398
2.36382
2.36369
2.36339
2.36292
2.36228
2.36147
2.36063
2.35972
2.35909
2.35851
2.35998
2.37191
2.37089
2.37073
2.37047
2.37017
2.3697
2.36903
2.36821
2.36724
2.36624
2.36519
2.36436
2.36376
2.36438
2.37806
2.37742
2.37728
2.37701
2.37659
2.37597
2.3751
2.37412
2.37297
2.37185
2.37069
2.36977
2.36905
2.36923
2.38371
2.38341
2.38329
2.38308
2.38261
2.38189
2.3809
2.37976
2.37851
2.37732
2.37606
2.37508
2.37427
2.374
2.3891
2.38892
2.38878
2.38865
2.3882
2.38742
2.38637
2.38513
2.38382
2.38254
2.38126
2.38017
2.37935
2.37891
2.39403
2.39382
2.3937
2.39362
2.39324
2.3925
2.39147
2.39019
2.38888
2.38759
2.38635
2.38521
2.38442
2.3839
2.39922
2.39873
2.39848
2.39832
2.39793
2.39723
2.39623
2.39497
2.39371
2.39245
2.39131
2.39021
2.38952
2.38897
2.40395
2.40333
2.40293
2.40265
2.40223
2.40157
2.40062
2.39942
2.39824
2.39706
2.39608
2.3951
2.39464
2.39408
2.40953
2.40857
2.40785
2.40728
2.40667
2.40589
2.4049
2.40372
2.40259
2.4015
2.40068
2.39986
2.39972
2.39923
2.41379
2.41308
2.41217
2.41151
2.41078
2.40992
2.4089
2.40779
2.40678
2.40588
2.40527
2.40472
2.4049
2.40459
2.4207
2.41992
2.41873
2.4175
2.41617
2.41481
2.41345
2.41217
2.41116
2.41041
2.41004
2.40997
2.41046
2.41059
2.35677
2.35511
2.35471
2.35351
2.35278
2.35164
2.35046
2.34928
2.34824
2.3475
2.34672
2.34576
2.34427
2.34315
2.36421
2.36142
2.36023
2.35899
2.35821
2.35729
2.35628
2.35531
2.35435
2.3535
2.35247
2.3513
2.34977
2.34922
2.3707
2.368
2.36671
2.36542
2.36454
2.3636
2.36258
2.36159
2.36054
2.35947
2.35811
2.35661
2.35484
2.35478
2.37704
2.37477
2.37354
2.37231
2.37132
2.37024
2.36906
2.36791
2.36667
2.36539
2.36384
2.36223
2.36041
2.35973
2.38288
2.38128
2.3803
2.37922
2.37815
2.3769
2.37551
2.37411
2.37265
2.37118
2.3695
2.36783
2.36605
2.36515
2.38848
2.3874
2.38663
2.38576
2.38467
2.38332
2.38176
2.38016
2.37849
2.37684
2.37508
2.3734
2.37168
2.37063
2.39382
2.39311
2.3925
2.39181
2.39075
2.38938
2.38774
2.386
2.38418
2.38241
2.38058
2.37887
2.37722
2.37601
2.39916
2.39859
2.39804
2.39742
2.3964
2.39503
2.39337
2.39157
2.38969
2.3878
2.38596
2.38421
2.38263
2.38132
2.4044
2.40388
2.40327
2.40261
2.4016
2.40026
2.39865
2.39685
2.39499
2.39306
2.39126
2.38949
2.38799
2.38662
2.41007
2.40939
2.40851
2.40767
2.40657
2.4052
2.40359
2.40181
2.40001
2.39812
2.3964
2.39467
2.39329
2.3919
2.41563
2.41471
2.41355
2.41248
2.41126
2.40984
2.40822
2.40644
2.40469
2.40287
2.40128
2.39964
2.39846
2.39705
2.42176
2.4205
2.41894
2.41748
2.41601
2.41438
2.41263
2.41079
2.40905
2.40729
2.40585
2.40438
2.40345
2.40214
2.4276
2.42585
2.42406
2.42228
2.42061
2.41877
2.41687
2.41494
2.41315
2.41145
2.41014
2.40887
2.4082
2.40712
2.43453
2.43244
2.43025
2.42777
2.42558
2.42335
2.4212
2.41912
2.41733
2.41574
2.4146
2.41367
2.41326
2.41257
2.36765
2.36437
2.36246
2.36014
2.35855
2.35679
2.35507
2.35338
2.35197
2.35058
2.3494
2.34792
2.34625
2.34416
2.37463
2.37073
2.36851
2.36614
2.3644
2.36265
2.36099
2.35941
2.35805
2.35669
2.3554
2.35376
2.35169
2.35021
2.38001
2.37682
2.37478
2.37258
2.37077
2.36896
2.36725
2.36565
2.3642
2.36274
2.36112
2.35923
2.35694
2.35578
2.38516
2.3827
2.38102
2.37912
2.37735
2.3755
2.37367
2.37192
2.37024
2.36859
2.36677
2.3648
2.36256
2.36065
2.39018
2.38838
2.38709
2.38555
2.38388
2.38201
2.38003
2.37808
2.37615
2.37427
2.37229
2.37024
2.36801
2.36618
2.39525
2.39394
2.39298
2.39175
2.3902
2.38834
2.38626
2.38414
2.38199
2.37989
2.37775
2.37563
2.37341
2.37154
2.40053
2.39955
2.39874
2.3977
2.39622
2.39437
2.39225
2.39001
2.38771
2.38545
2.38319
2.38098
2.37873
2.37682
2.40618
2.40533
2.40445
2.4034
2.4019
2.40005
2.3979
2.39561
2.39325
2.39088
2.38856
2.38629
2.38404
2.38203
2.41208
2.41121
2.41011
2.40893
2.40731
2.40541
2.40325
2.40094
2.3986
2.39621
2.39389
2.3916
2.38938
2.38724
2.41832
2.41727
2.41574
2.41429
2.41245
2.41043
2.40822
2.40592
2.40364
2.4013
2.39907
2.39681
2.39464
2.39247
2.42451
2.42315
2.42122
2.41944
2.41736
2.41517
2.41287
2.41053
2.40828
2.40602
2.40392
2.40171
2.39968
2.39754
2.43072
2.42899
2.42661
2.42442
2.42202
2.41959
2.41714
2.41474
2.41251
2.41032
2.40838
2.40624
2.40443
2.40243
2.43668
2.43448
2.43182
2.42922
2.42652
2.42381
2.42115
2.4186
2.41629
2.41413
2.41231
2.4103
2.40878
2.40702
2.44252
2.44013
2.43709
2.43389
2.43084
2.42784
2.425
2.42233
2.42002
2.41792
2.41624
2.41452
2.41328
2.41186
2.37656
2.37286
2.37003
2.36689
2.36442
2.36199
2.35969
2.35746
2.35547
2.35358
2.35189
2.35006
2.34829
2.34611
2.38228
2.37839
2.37581
2.37284
2.37031
2.36781
2.36549
2.36328
2.36131
2.35947
2.35786
2.35597
2.35394
2.35233
2.38652
2.38341
2.38125
2.3787
2.37631
2.37389
2.37155
2.36934
2.36732
2.36543
2.36362
2.36161
2.35937
2.35758
2.39095
2.38847
2.38673
2.38462
2.38247
2.38016
2.3778
2.3755
2.37331
2.37128
2.36922
2.36711
2.36475
2.36262
2.39548
2.39358
2.39222
2.3905
2.38856
2.38636
2.38398
2.38155
2.37921
2.37695
2.37472
2.3724
2.36992
2.36778
2.40055
2.39907
2.39791
2.39644
2.39465
2.39252
2.39012
2.38758
2.38506
2.38256
2.38011
2.3776
2.37499
2.37267
2.40628
2.405
2.40384
2.40245
2.40068
2.39854
2.39608
2.39345
2.39077
2.38809
2.38542
2.38272
2.37998
2.37749
2.41251
2.41131
2.40994
2.40845
2.40655
2.40431
2.40178
2.39907
2.39628
2.39346
2.39064
2.3878
2.38495
2.38227
2.41903
2.41782
2.41613
2.4144
2.41224
2.40984
2.40718
2.4044
2.40156
2.39868
2.3958
2.39287
2.38993
2.3871
2.42551
2.4242
2.42209
2.42003
2.41753
2.4149
2.41211
2.4093
2.40648
2.40364
2.40079
2.39782
2.3949
2.39192
2.43165
2.4301
2.42761
2.42519
2.42236
2.4195
2.41657
2.41371
2.41091
2.40815
2.40537
2.40249
2.39969
2.39665
2.43725
2.43539
2.43249
2.42971
2.42657
2.42349
2.42043
2.41754
2.41484
2.41217
2.40953
2.40678
2.40414
2.40116
2.44264
2.44024
2.43701
2.43382
2.43038
2.42708
2.42388
2.4209
2.41817
2.41555
2.41309
2.41049
2.40816
2.40543
2.44715
2.44448
2.44084
2.43728
2.43366
2.43025
2.427
2.42403
2.42136
2.41885
2.41656
2.4142
2.41207
2.40971
2.38278
2.37934
2.37641
2.37297
2.37
2.36701
2.36422
2.36143
2.35881
2.35628
2.3541
2.35156
2.34951
2.34729
2.38722
2.38381
2.38124
2.37821
2.37535
2.37239
2.36959
2.36685
2.36427
2.36186
2.35974
2.3574
2.3552
2.35336
2.39086
2.38788
2.3858
2.38323
2.38067
2.37795
2.37525
2.37256
2.37002
2.36766
2.36543
2.36319
2.36068
2.35851
2.39509
2.39258
2.39076
2.38855
2.38626
2.38376
2.38115
2.37849
2.3759
2.37346
2.37106
2.36863
2.36601
2.36361
2.39983
2.39769
2.39606
2.39411
2.39201
2.38965
2.38709
2.38443
2.38175
2.37916
2.37657
2.37391
2.37103
2.36855
2.40541
2.40344
2.40188
2.40002
2.39795
2.39563
2.39306
2.39035
2.38757
2.38477
2.38194
2.379
2.37591
2.37316
2.41156
2.40971
2.40795
2.40606
2.40392
2.40153
2.3989
2.39609
2.39318
2.39018
2.38712
2.38392
2.38065
2.37764
2.41795
2.41617
2.41413
2.41208
2.40972
2.40718
2.40442
2.4015
2.39848
2.39534
2.39209
2.38869
2.38526
2.38204
2.42436
2.42255
2.42018
2.41787
2.41521
2.41245
2.40953
2.40651
2.40342
2.40021
2.39684
2.39333
2.38983
2.38643
2.43047
2.42853
2.42578
2.42315
2.42015
2.41715
2.41408
2.41102
2.40794
2.40473
2.40135
2.39785
2.39434
2.39077
2.43603
2.43384
2.43073
2.42776
2.42446
2.42126
2.41807
2.41498
2.41193
2.40878
2.40549
2.40209
2.39865
2.39499
2.44082
2.43834
2.43489
2.43164
2.42811
2.42477
2.42151
2.41845
2.41547
2.41243
2.40927
2.40598
2.4027
2.39898
2.44551
2.44246
2.43869
2.43511
2.43138
2.42793
2.4246
2.42149
2.41851
2.41552
2.41257
2.40946
2.40643
2.40293
2.44915
2.44571
2.44162
2.43789
2.43416
2.43072
2.42744
2.42441
2.42149
2.41857
2.41573
2.4128
2.40997
2.40694
2.38612
2.38312
2.38055
2.37742
2.37452
2.37154
2.36867
2.3657
2.3627
2.3596
2.35675
2.35334
2.35069
2.34811
2.39002
2.38686
2.38453
2.3818
2.37915
2.37631
2.37353
2.37065
2.36771
2.36478
2.362
2.35902
2.3562
2.35384
2.39389
2.39091
2.3889
2.38644
2.384
2.38139
2.3787
2.37593
2.3731
2.37028
2.36747
2.36467
2.3616
2.35897
2.39875
2.39606
2.39407
2.39173
2.38938
2.38686
2.38425
2.38152
2.3787
2.37585
2.37291
2.36997
2.36677
2.36393
2.40406
2.40159
2.39954
2.39728
2.39501
2.39255
2.38994
2.3872
2.38432
2.38136
2.37826
2.37506
2.37162
2.36869
2.40992
2.40762
2.40559
2.40329
2.4009
2.39837
2.3957
2.39288
2.3899
2.38675
2.38341
2.37993
2.37628
2.37312
2.41619
2.41392
2.41161
2.40918
2.40664
2.40402
2.40125
2.39831
2.39519
2.39185
2.38829
2.38455
2.38078
2.37742
2.42228
2.42007
2.41744
2.41485
2.41209
2.4093
2.40638
2.40333
2.40008
2.39659
2.39288
2.38896
2.38509
2.38152
2.42817
2.42581
2.42287
2.42005
2.41703
2.41405
2.41098
2.40784
2.40453
2.40096
2.39716
2.39318
2.38928
2.38549
2.43355
2.43099
2.42768
2.42461
2.42133
2.41819
2.41504
2.41188
2.40857
2.405
2.40121
2.39725
2.39329
2.38934
2.43833
2.43546
2.43183
2.42853
2.42506
2.42183
2.41862
2.41544
2.41216
2.40865
2.40493
2.40103
2.39708
2.39302
2.44225
2.4392
2.43535
2.43188
2.42828
2.425
2.42178
2.41865
2.41543
2.41202
2.40836
2.40453
2.40065
2.3965
2.44626
2.44282
2.43878
2.4351
2.43138
2.42802
2.42475
2.42157
2.41831
2.41493
2.41141
2.40768
2.40404
2.40004
2.4494
2.44555
2.44141
2.43778
2.43416
2.43085
2.4276
2.42444
2.42118
2.41781
2.41437
2.41076
2.4073
2.40377
2.38809
2.38542
2.38327
2.38078
2.37845
2.3759
2.37336
2.37055
2.36747
2.36408
2.36066
2.35647
2.35316
2.3498
2.39209
2.38906
2.38711
2.38475
2.38254
2.38013
2.37767
2.37498
2.37196
2.3687
2.36529
2.36162
2.35792
2.35478
2.39624
2.39331
2.39144
2.38923
2.38707
2.38476
2.38233
2.3797
2.37677
2.3736
2.37018
2.36668
2.36289
2.35957
2.40147
2.39889
2.39684
2.39454
2.39224
2.38982
2.38734
2.38469
2.38175
2.37856
2.37506
2.37148
2.36761
2.36419
2.4069
2.4044
2.40228
2.39993
2.39755
2.39508
2.3925
2.38975
2.38674
2.38345
2.37985
2.37611
2.37211
2.36867
2.4128
2.4104
2.40813
2.40562
2.40304
2.40039
2.39765
2.39478
2.39166
2.38823
2.38448
2.38054
2.37641
2.37285
2.41897
2.41647
2.41378
2.41101
2.4082
2.4054
2.40252
2.39952
2.39628
2.39272
2.38884
2.38471
2.38055
2.37684
2.42468
2.42205
2.419
2.41602
2.41299
2.41003
2.40701
2.40389
2.40053
2.39686
2.39288
2.38865
2.38449
2.38065
2.42996
2.42707
2.4237
2.42054
2.4173
2.41419
2.41106
2.40785
2.40444
2.4007
2.3967
2.39243
2.38831
2.38436
2.43454
2.43148
2.42783
2.42452
2.42113
2.41795
2.41478
2.41154
2.4081
2.40435
2.40036
2.39611
2.39201
2.38795
2.43864
2.43536
2.43148
2.42805
2.42457
2.42137
2.41818
2.41493
2.41148
2.40774
2.40375
2.39955
2.39547
2.39131
2.44191
2.4386
2.43463
2.4312
2.42769
2.4245
2.42134
2.41813
2.4147
2.41096
2.40695
2.40278
2.39873
2.39452
2.44543
2.44202
2.43802
2.43445
2.43084
2.42757
2.42437
2.42108
2.41759
2.4138
2.40981
2.40567
2.40181
2.3976
2.44849
2.44465
2.44065
2.43721
2.43378
2.43053
2.42729
2.42395
2.42039
2.41657
2.4126
2.40852
2.40477
2.401
2.39024
2.38766
2.38584
2.38387
2.38215
2.38021
2.37808
2.37554
2.37255
2.36916
2.36549
2.36099
2.35709
2.35294
2.39435
2.3916
2.38999
2.38797
2.38615
2.38414
2.38204
2.3796
2.37667
2.37332
2.36957
2.36546
2.36107
2.35731
2.3983
2.39567
2.39406
2.39219
2.39037
2.38836
2.3862
2.38376
2.38087
2.37755
2.37377
2.36979
2.36532
2.36141
2.40341
2.40107
2.39926
2.3972
2.3951
2.39287
2.39053
2.38797
2.38502
2.38167
2.37782
2.37378
2.36927
2.36546
2.40867
2.40642
2.40443
2.40216
2.39984
2.3974
2.39487
2.39213
2.38905
2.38562
2.38174
2.37763
2.37316
2.36936
2.41439
2.4121
2.40981
2.40726
2.40462
2.40192
2.39913
2.3962
2.39299
2.38946
2.38553
2.38134
2.37693
2.37308
2.42032
2.41773
2.41492
2.41202
2.40908
2.40615
2.40316
2.40007
2.39674
2.39313
2.38915
2.38491
2.38059
2.37669
2.42565
2.42282
2.4196
2.41643
2.41323
2.41014
2.40701
2.40379
2.40036
2.39665
2.39262
2.38834
2.38412
2.3802
2.43044
2.42735
2.42382
2.42048
2.41711
2.41391
2.4107
2.4074
2.4039
2.4001
2.39605
2.39175
2.38764
2.38369
2.43447
2.43131
2.42761
2.42419
2.42073
2.41749
2.41426
2.41094
2.4074
2.40354
2.39949
2.39521
2.39117
2.38719
2.43807
2.43486
2.43107
2.42763
2.42415
2.42093
2.4177
2.41434
2.41076
2.40686
2.40278
2.39852
2.39451
2.39044
2.441
2.43789
2.43412
2.43081
2.42741
2.42423
2.42102
2.41765
2.41402
2.41004
2.40592
2.40166
2.39764
2.39346
2.44419
2.44116
2.43746
2.43414
2.4307
2.42742
2.42409
2.42059
2.41686
2.41278
2.4086
2.40433
2.40044
2.39615
2.44714
2.44374
2.44006
2.43683
2.43356
2.43031
2.42695
2.42334
2.41951
2.4154
2.41122
2.40698
2.40312
2.39919
2.34166
2.34299
2.3429
2.34538
2.35888
2.37583
2.33555
2.33283
2.33158
2.33416
2.34969
2.36732
2.33829
2.33445
2.33284
2.33386
2.34532
2.35956
2.33959
2.33509
2.33202
2.33049
2.33788
2.34744
2.34017
2.33558
2.33208
2.32989
2.33488
2.34161
2.33988
2.33518
2.33177
2.32961
2.33335
2.33743
2.33957
2.335
2.33201
2.33028
2.33385
2.33778
2.3394
2.33484
2.33172
2.3297
2.33236
2.33771
2.33991
2.33513
2.33155
2.32859
2.32891
2.33328
2.34026
2.33473
2.33028
2.32596
2.32525
2.33094
2.34106
2.33543
2.33133
2.32763
2.32983
2.33671
2.3423
2.33594
2.33292
2.33034
2.3372
2.34377
2.34523
2.33928
2.33916
2.33862
2.34932
2.35266
2.33771
2.33288
2.33399
2.33806
2.3561
2.36073
2.3465
2.34915
2.3492
2.35249
2.35803
2.37097
2.34125
2.34063
2.34016
2.34437
2.35178
2.36643
2.34261
2.34083
2.3404
2.34436
2.35008
2.36258
2.3426
2.34006
2.33891
2.3414
2.34522
2.35586
2.3425
2.3392
2.33743
2.33834
2.34072
2.34946
2.34152
2.33755
2.33509
2.33441
2.33519
2.34233
2.34066
2.33621
2.33335
2.33191
2.3318
2.33867
2.33992
2.3351
2.33224
2.33034
2.33003
2.3374
2.33987
2.33501
2.33246
2.33009
2.32939
2.33671
2.33996
2.33471
2.33161
2.32807
2.3266
2.33318
2.34029
2.33483
2.33161
2.32794
2.32694
2.33328
2.34038
2.33436
2.33073
2.32751
2.32777
2.33362
2.34234
2.33678
2.33424
2.33183
2.33287
2.33705
2.33593
2.32981
2.32674
2.32675
2.33352
2.34131
2.35645
2.35771
2.35774
2.36033
2.36394
2.37314
2.35105
2.34999
2.34823
2.35035
2.3564
2.36738
2.35049
2.3487
2.34742
2.34938
2.35434
2.36389
2.34901
2.34682
2.34529
2.34674
2.35037
2.35801
2.34808
2.34514
2.34326
2.34357
2.34551
2.35138
2.34654
2.34278
2.34009
2.33897
2.33941
2.34381
2.34506
2.34046
2.33704
2.33515
2.33518
2.34021
2.34374
2.33847
2.33495
2.33297
2.33315
2.33924
2.34295
2.33757
2.3347
2.33312
2.33381
2.34052
2.34255
2.33701
2.33412
2.33182
2.33164
2.3375
2.34245
2.33682
2.33384
2.33076
2.3302
2.33553
2.3418
2.3358
2.33233
2.32855
2.32801
2.33295
2.34252
2.33687
2.3341
2.33079
2.32964
2.33291
2.336
2.32945
2.32613
2.32394
2.3263
2.33181
2.36524
2.36545
2.36585
2.36619
2.36617
2.37066
2.36009
2.35779
2.35501
2.35405
2.35679
2.3644
2.35763
2.35489
2.35257
2.35185
2.3537
2.36135
2.35488
2.35178
2.34928
2.34888
2.35074
2.35731
2.35321
2.34977
2.34706
2.34642
2.34749
2.35255
2.3512
2.34728
2.34418
2.34296
2.34287
2.34612
2.34914
2.34461
2.34092
2.33885
2.33788
2.34052
2.34724
2.34201
2.3378
2.33502
2.33367
2.33687
2.34583
2.3401
2.33598
2.33326
2.33273
2.33775
2.34485
2.33897
2.33481
2.33181
2.33123
2.33648
2.34442
2.33841
2.33475
2.33164
2.33069
2.33479
2.34362
2.3376
2.33377
2.32983
2.32832
2.33181
2.34364
2.33815
2.33494
2.33128