/*--------------------------------*- C++ -*----------------------------------*\
| =========                 |                                                 |
| \\      /  F ield         | OpenFOAM: The Open Source CFD Toolbox           |
|  \\    /   O peration     | Version:  v2106                                 |
|   \\  /    A nd           | Website:  www.openfoam.com                      |
|    \\/     M anipulation  |                                                 |
\*---------------------------------------------------------------------------*/
FoamFile
{
    version     2.0;
    format      ascii;
    arch        "LSB;label=32;scalar=64";
    class       volScalarField;
    location    "0.000205";
    object      T;
}
// * * * * * * * * * * * * * * * * * * * * * * * * * * * * * * * * * * * * * //

dimensions      [0 0 0 1 0 0 0];

internalField   nonuniform List<scalar> 
144746
(
288.7
288.773
288.746
288.836
288.893
288.944
288.931
288.886
288.725
288.511
288.296
288.11
287.922
288.045
288.779
288.953
289.05
289.184
289.258
289.299
289.299
289.272
289.164
288.983
288.753
288.508
288.237
288.257
289.017
289.189
289.323
289.476
289.567
289.625
289.639
289.63
289.569
289.417
289.198
288.944
288.611
288.372
289.195
289.405
289.58
289.757
289.867
289.934
289.953
289.95
289.91
289.805
289.617
289.365
289.026
288.667
289.4
289.655
289.852
290.018
290.124
290.188
290.208
290.209
290.182
290.1
289.938
289.691
289.365
288.99
289.597
289.892
290.095
290.234
290.316
290.369
290.39
290.396
290.381
290.318
290.174
289.934
289.608
289.231
289.778
290.073
290.266
290.368
290.423
290.459
290.479
290.489
290.484
290.437
290.312
290.078
289.746
289.358
289.888
290.177
290.355
290.43
290.465
290.483
290.498
290.511
290.513
290.478
290.364
290.14
289.807
289.394
289.925
290.214
290.38
290.442
290.466
290.471
290.474
290.483
290.487
290.455
290.345
290.126
289.797
289.393
289.884
290.183
290.354
290.425
290.45
290.449
290.442
290.437
290.434
290.401
290.289
290.065
289.74
289.328
289.772
290.086
290.268
290.364
290.407
290.419
290.412
290.394
290.371
290.317
290.183
289.942
289.613
289.198
289.593
289.888
290.109
290.248
290.328
290.36
290.363
290.339
290.294
290.201
290.025
289.748
289.406
289.003
289.434
289.656
289.888
290.063
290.183
290.247
290.263
290.234
290.173
290.028
289.797
289.472
289.117
288.785
289.294
289.386
289.609
289.806
289.953
290.032
290.058
290.028
289.949
289.772
289.511
289.228
289.052
288.826
288.797
289.019
289.011
289.082
289.14
289.174
289.165
289.121
288.992
288.816
288.602
288.396
288.227
288.366
288.933
289.198
289.347
289.482
289.567
289.589
289.578
289.536
289.441
289.306
289.128
288.922
288.708
288.727
289.175
289.461
289.638
289.807
289.904
289.926
289.923
289.889
289.816
289.697
289.537
289.335
289.085
288.882
289.431
289.734
289.938
290.099
290.18
290.199
290.197
290.169
290.11
290.022
289.902
289.718
289.469
289.183
289.71
290.04
290.248
290.365
290.405
290.399
290.379
290.35
290.323
290.261
290.175
290.038
289.812
289.53
290.03
290.349
290.513
290.577
290.584
290.554
290.516
290.482
290.453
290.419
290.37
290.271
290.086
289.807
290.314
290.595
290.711
290.734
290.713
290.661
290.606
290.57
290.551
290.525
290.486
290.418
290.247
289.975
290.521
290.765
290.843
290.848
290.813
290.753
290.689
290.647
290.627
290.602
290.56
290.473
290.319
290.017
290.612
290.849
290.924
290.925
290.89
290.833
290.773
290.726
290.699
290.665
290.615
290.509
290.32
289.993
290.632
290.876
290.968
290.986
290.963
290.92
290.871
290.826
290.784
290.728
290.655
290.515
290.292
289.934
290.597
290.844
290.964
291.01
291.016
291
290.967
290.929
290.877
290.797
290.689
290.507
290.244
289.879
290.506
290.76
290.919
291.006
291.049
291.056
291.045
291.015
290.955
290.855
290.709
290.48
290.183
289.835
290.403
290.611
290.809
290.949
291.03
291.063
291.068
291.047
290.985
290.872
290.682
290.397
290.094
289.79
290.259
290.407
290.642
290.828
290.954
291.013
291.034
291.011
290.952
290.825
290.609
290.331
290.133
289.907
288.396
288.845
288.979
289.09
289.141
289.153
289.127
289.047
288.919
288.756
288.581
288.446
288.347
288.509
288.822
289.247
289.531
289.711
289.773
289.772
289.731
289.644
289.526
289.396
289.29
289.194
289.104
289.184
289.379
289.8
290.075
290.239
290.285
290.271
290.215
290.128
290.028
289.943
289.851
289.733
289.598
289.574
289.907
290.31
290.556
290.668
290.69
290.663
290.604
290.528
290.45
290.378
290.325
290.245
290.108
289.987
290.405
290.762
290.946
290.998
290.989
290.949
290.891
290.832
290.781
290.741
290.701
290.649
290.545
290.394
290.841
291.127
291.25
291.261
291.231
291.174
291.117
291.071
291.046
291.034
291.018
290.982
290.909
290.774
291.192
291.409
291.481
291.468
291.421
291.357
291.3
291.265
291.257
291.265
291.269
291.251
291.2
291.082
291.494
291.661
291.696
291.667
291.605
291.537
291.479
291.449
291.448
291.465
291.48
291.47
291.423
291.304
291.712
291.855
291.876
291.845
291.78
291.716
291.662
291.634
291.634
291.65
291.664
291.653
291.596
291.454
291.877
292.019
292.04
292.017
291.96
291.905
291.861
291.838
291.833
291.839
291.839
291.814
291.734
291.559
291.981
292.142
292.187
292.183
292.148
292.107
292.075
292.058
292.048
292.043
292.021
291.967
291.853
291.642
292.048
292.211
292.3
292.336
292.337
292.326
292.309
292.296
292.279
292.256
292.204
292.107
291.963
291.727
292.097
292.237
292.338
292.425
292.478
292.508
292.513
292.514
292.497
292.456
292.364
292.234
292.056
291.809
292.061
292.226
292.377
292.506
292.599
292.658
292.681
292.687
292.661
292.592
292.455
292.315
292.18
291.948
288.253
288.123
287.558
287.145
286.72
287.244
287.644
287.451
286.995
286.932
286.667
287.119
287.899
287.606
287.19
287.126
286.88
287.336
288.187
287.806
287.425
287.365
287.123
287.46
288.517
288.109
287.771
287.764
287.541
287.948
288.767
288.355
288.028
288.047
287.839
288.282
288.904
288.511
288.21
288.241
288.008
288.539
288.945
288.568
288.286
288.318
288.053
288.6
288.941
288.569
288.271
288.283
287.999
288.512
288.863
288.448
288.108
288.102
287.801
288.286
288.725
288.291
287.886
287.805
287.501
288.216
288.539
288.074
287.618
287.485
287.212
287.562
288.48
288.101
287.545
287.199
286.895
287.121
288.115
287.816
287.268
286.991
286.71
286.812
288.57
288.352
287.697
287.137
286.624
287.183
288.11
287.738
287.135
286.927
286.583
287.063
288.412
288.006
287.415
287.233
286.829
287.479
288.753
288.306
287.724
287.479
287.067
287.524
289.127
288.684
288.148
287.904
287.503
287.942
289.398
288.953
288.466
288.252
287.92
288.301
289.543
289.091
288.652
288.529
288.256
288.77
289.584
289.123
288.723
288.663
288.441
289.014
289.554
289.094
288.739
288.718
288.516
289.068
289.49
289.055
288.719
288.693
288.502
288.94
289.455
289.06
288.682
288.554
288.301
288.867
289.467
289.059
288.584
288.354
288.021
288.296
289.535
289.159
288.643
288.195
287.794
287.974
289.271
288.924
288.377
287.948
287.591
287.69
288.838
288.404
287.698
286.781
285.997
286.186
288.659
288.189
287.383
286.744
286.168
286.294
289.093
288.548
287.804
287.296
286.718
287.27
289.583
289.046
288.384
287.922
287.426
287.88
290.073
289.618
289.069
288.68
288.237
288.622
290.503
290.115
289.639
289.273
288.884
289.204
290.836
290.471
290.06
289.77
289.463
289.796
291.051
290.679
290.281
290.056
289.798
290.145
291.177
290.799
290.384
290.176
289.906
290.16
291.253
290.868
290.436
290.202
289.921
290.044
291.333
290.963
290.513
290.181
289.869
289.854
291.464
291.099
290.608
290.159
289.785
289.705
291.668
291.294
290.834
290.321
289.846
289.663
291.596
291.274
290.797
290.29
289.807
289.59
288.857
288.597
287.806
287.237
286.803
286.918
288.384
288.071
287.258
286.852
286.382
286.769
288.642
288.139
287.28
286.883
286.389
286.995
288.95
288.278
287.334
286.797
286.242
286.858
289.264
288.534
287.575
286.958
286.442
286.843
289.477
288.754
287.814
287.175
286.716
286.763
289.592
288.922
288.059
287.489
287.051
287.194
289.638
289.03
288.277
287.808
287.45
287.675
289.635
289.099
288.483
288.134
287.866
288.114
289.581
289.117
288.63
288.357
288.145
288.394
289.485
289.091
288.707
288.474
288.314
288.571
289.359
289.029
288.698
288.471
288.344
288.568
289.218
288.932
288.63
288.425
288.32
288.544
288.837
288.552
288.276
288.178
288.082
288.253
290.043
289.814
289.117
288.514
287.995
287.893
289.724
289.436
288.694
288.201
287.722
287.817
289.947
289.545
288.746
288.215
287.664
288.044
290.271
289.794
288.972
288.356
287.852
287.894
290.56
290.071
289.269
288.553
288.025
288.004
290.729
290.268
289.513
288.766
288.204
288.077
290.802
290.375
289.688
289.004
288.476
288.351
290.827
290.426
289.822
289.227
288.783
288.663
290.796
290.416
289.915
289.43
289.133
289.145
290.733
290.389
289.965
289.577
289.442
289.493
290.625
290.301
289.95
289.671
289.628
289.723
290.489
290.175
289.867
289.616
289.554
289.609
290.298
289.974
289.665
289.39
289.289
289.319
289.863
289.49
289.18
288.895
288.772
288.692
292.165
292.064
291.639
291.058
290.433
290.193
292.04
291.911
291.438
290.961
290.397
290.195
292.229
292.084
291.616
291.135
290.566
290.372
292.451
292.348
291.919
291.405
290.817
290.553
292.629
292.567
292.194
291.649
291.046
290.706
292.714
292.664
292.344
291.796
291.212
290.83
292.732
292.687
292.388
291.869
291.338
290.877
292.692
292.636
292.351
291.903
291.409
290.9
292.628
292.554
292.307
291.911
291.435
290.797
292.542
292.458
292.237
291.825
291.376
290.572
292.46
292.345
292.115
291.709
291.249
290.271
292.346
292.19
291.961
291.409
290.781
289.55
292.244
291.964
291.684
290.869
289.945
288.595
291.881
291.435
290.958
289.935
288.838
287.48
288.284
288.009
288.084
287.997
288.042
288.251
288.76
288.318
288.456
288.507
288.644
288.844
288.976
288.502
288.624
288.62
288.761
288.985
289.377
288.645
288.738
288.709
288.845
289.07
289.453
288.589
288.694
288.695
288.858
289.141
288.976
288.658
288.676
288.661
288.842
289.228
288.318
288.088
288.254
288.396
288.803
289.334
287.704
287.463
287.724
288.09
288.763
289.4
287.158
286.948
287.305
287.847
288.706
289.405
287.072
286.818
287.204
287.758
288.649
289.356
287.088
286.825
287.209
287.716
288.586
289.233
287.452
287.161
287.497
287.869
288.618
289.088
287.839
287.538
287.829
288.079
288.679
288.948
288.546
288.169
288.427
288.689
289.074
289.226
287.336
287.228
287.422
287.59
287.923
288.398
288.171
287.938
288.171
288.402
288.674
289.061
288.866
288.537
288.66
288.739
288.849
289.163
289.541
289.057
288.969
288.926
288.981
289.283
289.581
289.144
288.957
288.927
289.048
289.408
289.239
288.931
288.839
288.914
289.148
289.618
288.584
288.377
288.48
288.768
289.228
289.837
287.927
287.789
288.064
288.593
289.304
290.023
287.426
287.356
287.726
288.435
289.335
290.109
287.332
287.25
287.658
288.389
289.362
290.128
287.333
287.256
287.699
288.42
289.384
290.1
287.656
287.58
288.019
288.626
289.457
290.034
287.961
288.017
288.449
288.932
289.597
289.983
288.809
288.806
289.184
289.618
289.994
290.208
283.284
284.532
285.298
286.283
286.922
287.771
284.221
285.615
286.497
287.473
287.9
288.698
285.269
286.685
287.276
288.014
288.222
288.953
286.533
287.691
287.854
288.362
288.605
289.349
287.14
288.063
288.08
288.561
289.002
289.82
287.331
288.123
288.271
288.859
289.499
290.304
287.187
287.967
288.41
289.202
289.998
290.724
286.975
287.826
288.586
289.55
290.42
291.094
286.795
287.709
288.712
289.811
290.725
291.352
286.714
287.669
288.825
290.037
290.971
291.545
286.651
287.674
288.953
290.239
291.149
291.668
286.639
287.796
289.163
290.5
291.345
291.781
286.672
288.014
289.422
290.809
291.574
291.881
287.167
288.597
290.047
291.285
291.818
292.032
287.073
286.72
286.985
287.097
287.417
287.565
287.103
286.813
287.1
287.334
287.68
287.923
287.382
286.932
287.207
287.288
287.572
287.85
287.789
287.255
287.511
287.509
287.728
287.982
288.189
287.564
287.771
287.721
287.908
288.138
288.398
287.776
287.961
287.895
288.043
288.311
288.423
287.812
287.987
287.929
288.143
288.469
288.243
287.778
287.963
287.963
288.18
288.512
288.001
287.583
287.808
287.863
288.142
288.517
287.868
287.407
287.687
287.737
288.092
288.467
287.702
287.254
287.56
287.592
287.996
288.393
288.051
287.392
287.632
287.625
288.047
288.338
288.174
287.512
287.768
287.716
288.08
288.266
288.635
288.191
288.424
288.509
288.736
288.773
286.789
286.482
286.636
286.763
287.08
287.53
286.956
286.575
286.826
287.128
287.544
288.031
287.111
286.63
286.849
287.065
287.482
288.011
287.446
286.876
287.14
287.283
287.641
288.143
287.808
287.144
287.4
287.479
287.821
288.325
288.036
287.384
287.611
287.676
288.026
288.516
288.063
287.474
287.679
287.805
288.177
288.648
287.93
287.469
287.667
287.809
288.205
288.681
287.423
287.216
287.471
287.682
288.147
288.667
287.233
286.886
287.169
287.45
288.059
288.62
286.869
286.447
286.868
287.254
287.964
288.567
286.968
286.518
286.931
287.331
288.02
288.538
286.894
286.62
287.1
287.484
288.083
288.493
287.543
287.267
287.793
288.321
288.745
288.888
285.302
285.481
285.672
286.099
286.683
287.444
285.202
285.564
285.849
286.458
287.094
287.94
285.126
285.505
285.741
286.348
287.011
287.869
285.422
285.716
285.998
286.533
287.146
287.938
285.826
285.952
286.259
286.743
287.342
288.087
286.167
286.224
286.505
286.952
287.549
288.256
286.295
286.289
286.557
287.03
287.651
288.37
286.15
286.235
286.528
287.008
287.675
288.43
285.71
285.917
286.233
286.842
287.596
288.426
285.159
285.294
285.716
286.533
287.443
288.384
284.314
284.644
285.265
286.273
287.316
288.312
283.779
284.367
285.219
286.336
287.339
288.229
283.176
284.218
285.277
286.544
287.46
288.121
283.569
284.625
285.887
287.234
287.917
288.395
289.311
289.548
289.699
289.78
289.806
289.782
289.726
289.633
289.515
289.349
289.152
288.961
288.825
288.876
289.724
290.005
290.211
290.334
290.364
290.34
290.281
290.188
290.086
289.961
289.824
289.693
289.603
289.648
290.2
290.499
290.695
290.798
290.816
290.783
290.718
290.634
290.554
290.472
290.378
290.27
290.147
290.152
290.682
290.953
291.114
291.16
291.153
291.109
291.041
290.968
290.913
290.869
290.82
290.749
290.665
290.61
291.147
291.353
291.453
291.449
291.418
291.361
291.292
291.233
291.2
291.184
291.168
291.136
291.071
290.992
291.547
291.679
291.726
291.692
291.635
291.564
291.497
291.453
291.439
291.444
291.455
291.451
291.424
291.365
291.875
291.954
291.959
291.907
291.829
291.746
291.681
291.65
291.648
291.669
291.698
291.713
291.705
291.664
292.172
292.217
292.185
292.108
292.011
291.92
291.856
291.833
291.84
291.871
291.915
291.941
291.945
291.907
292.418
292.441
292.39
292.298
292.193
292.099
292.037
292.018
292.031
292.07
292.12
292.149
292.157
292.113
292.679
292.673
292.609
292.508
292.398
292.302
292.238
292.22
292.235
292.276
292.326
292.353
292.356
292.299
292.885
292.875
292.818
292.726
292.623
292.53
292.468
292.451
292.465
292.502
292.545
292.562
292.553
292.477
293.141
293.111
293.058
292.984
292.896
292.813
292.753
292.729
292.733
292.753
292.777
292.774
292.754
292.653
293.296
293.291
293.255
293.215
293.16
293.104
293.057
293.032
293.023
293.017
293.011
292.984
292.947
292.825
293.59
293.563
293.538
293.509
293.47
293.429
293.386
293.35
293.316
293.27
293.213
293.141
293.079
292.996
289.903
290.063
290.201
290.262
290.289
290.258
290.196
290.098
289.981
289.833
289.647
289.446
289.224
289.09
290.354
290.493
290.611
290.681
290.707
290.687
290.641
290.572
290.492
290.397
290.274
290.124
289.959
289.852
290.765
290.894
290.996
291.044
291.054
291.031
290.987
290.933
290.875
290.818
290.743
290.65
290.515
290.408
291.173
291.265
291.342
291.364
291.356
291.322
291.272
291.222
291.18
291.146
291.107
291.06
290.965
290.892
291.55
291.616
291.658
291.652
291.623
291.572
291.515
291.466
291.433
291.417
291.405
291.394
291.348
291.276
291.895
291.939
291.949
291.919
291.863
291.797
291.734
291.689
291.664
291.663
291.669
291.682
291.665
291.624
292.207
292.233
292.215
292.159
292.08
292.002
291.937
291.896
291.879
291.889
291.91
291.934
291.936
291.913
292.502
292.507
292.464
292.384
292.287
292.199
292.133
292.097
292.087
292.102
292.133
292.164
292.177
292.159
292.781
292.761
292.695
292.599
292.493
292.399
292.333
292.301
292.297
292.316
292.354
292.385
292.403
292.38
293.063
293.023
292.936
292.827
292.716
292.619
292.551
292.52
292.52
292.541
292.579
292.606
292.623
292.592
293.31
293.268
293.179
293.071
292.961
292.865
292.796
292.764
292.764
292.782
292.818
292.834
292.847
292.799
293.586
293.539
293.459
293.359
293.254
293.16
293.088
293.047
293.039
293.048
293.071
293.069
293.07
292.998
293.78
293.765
293.712
293.64
293.557
293.477
293.41
293.363
293.34
293.329
293.329
293.306
293.285
293.189
294.079
294.074
294.033
293.975
293.903
293.83
293.762
293.704
293.66
293.619
293.573
293.517
293.471
293.389
290.609
290.609
290.689
290.699
290.702
290.657
290.581
290.487
290.381
290.264
290.12
289.939
289.704
289.459
291.083
291.059
291.087
291.078
291.058
291.011
290.949
290.881
290.806
290.731
290.639
290.523
290.345
290.121
291.461
291.439
291.455
291.429
291.387
291.329
291.264
291.201
291.137
291.08
291.016
290.945
290.805
290.651
291.814
291.788
291.786
291.746
291.687
291.617
291.544
291.477
291.415
291.365
291.318
291.274
291.183
291.069
292.127
292.108
292.087
292.032
291.96
291.879
291.798
291.725
291.662
291.616
291.58
291.555
291.501
291.433
292.419
292.405
292.364
292.292
292.206
292.117
292.031
291.955
291.893
291.852
291.827
291.817
291.791
291.753
292.701
292.684
292.623
292.535
292.436
292.34
292.25
292.174
292.115
292.082
292.067
292.068
292.06
292.036
292.99
292.957
292.874
292.77
292.659
292.556
292.464
292.389
292.335
292.308
292.303
292.307
292.311
292.291
293.28
293.221
293.117
293
292.882
292.774
292.681
292.607
292.558
292.535
292.537
292.542
292.553
292.523
293.581
293.498
293.374
293.246
293.12
293.006
292.91
292.836
292.79
292.768
292.772
292.776
292.79
292.744
293.853
293.764
293.638
293.506
293.376
293.258
293.159
293.084
293.036
293.012
293.015
293.012
293.022
292.959
294.135
294.056
293.934
293.8
293.667
293.544
293.44
293.359
293.306
293.273
293.267
293.252
293.25
293.163
294.395
294.325
294.222
294.099
293.977
293.856
293.751
293.661
293.595
293.546
293.521
293.484
293.456
293.343
294.7
294.628
294.538
294.418
294.304
294.187
294.079
293.98
293.899
293.828
293.773
293.709
293.641
293.517
291.156
291.093
291.083
291.024
290.973
290.899
290.813
290.717
290.623
290.518
290.411
290.267
290.087
289.837
291.614
291.538
291.492
291.405
291.325
291.236
291.146
291.053
290.969
290.891
290.825
290.743
290.61
290.41
291.956
291.9
291.848
291.751
291.652
291.549
291.45
291.353
291.266
291.194
291.138
291.083
290.978
290.851
292.257
292.208
292.149
292.049
291.944
291.836
291.731
291.628
291.533
291.459
291.404
291.361
291.292
291.188
292.527
292.482
292.413
292.312
292.206
292.096
291.987
291.881
291.782
291.704
291.65
291.612
291.564
291.508
292.791
292.743
292.661
292.557
292.448
292.339
292.228
292.12
292.021
291.944
291.892
291.861
291.827
291.793
293.072
293.006
292.908
292.797
292.683
292.571
292.458
292.351
292.255
292.182
292.135
292.11
292.085
292.061
293.37
293.281
293.163
293.042
292.918
292.8
292.684
292.577
292.485
292.417
292.377
292.356
292.338
292.314
293.675
293.565
293.428
293.294
293.159
293.033
292.913
292.805
292.717
292.654
292.619
292.6
292.586
292.555
293.985
293.861
293.703
293.556
293.408
293.272
293.146
293.037
292.953
292.893
292.86
292.84
292.829
292.785
294.28
294.152
293.986
293.828
293.669
293.524
293.393
293.282
293.197
293.136
293.103
293.077
293.064
292.997
294.568
294.448
294.278
294.112
293.945
293.792
293.656
293.542
293.455
293.39
293.352
293.316
293.291
293.194
294.843
294.729
294.57
294.404
294.237
294.08
293.939
293.818
293.722
293.645
293.595
293.541
293.494
293.369
295.11
295.004
294.855
294.689
294.529
294.373
294.231
294.104
293.997
293.905
293.835
293.754
293.676
293.54
291.629
291.547
291.47
291.354
291.256
291.151
291.044
290.933
290.826
290.718
290.613
290.489
290.351
290.151
292.025
291.943
291.857
291.723
291.599
291.474
291.353
291.231
291.119
291.023
290.954
290.883
290.795
290.656
292.307
292.241
292.16
292.03
291.9
291.77
291.642
291.514
291.395
291.299
291.234
291.18
291.108
291.011
292.567
292.498
292.413
292.291
292.168
292.042
291.913
291.783
291.657
291.556
291.484
291.435
291.377
291.304
292.812
292.735
292.641
292.524
292.408
292.288
292.163
292.032
291.907
291.802
291.727
291.674
291.622
291.578
293.075
292.981
292.875
292.759
292.644
292.527
292.403
292.274
292.151
292.045
291.968
291.914
291.868
291.829
293.365
293.252
293.129
293.007
292.888
292.767
292.641
292.511
292.389
292.286
292.21
292.156
292.112
292.074
293.677
293.548
293.405
293.272
293.14
293.01
292.877
292.746
292.625
292.525
292.45
292.397
292.354
292.308
293.999
293.861
293.699
293.551
293.402
293.258
293.116
292.981
292.862
292.762
292.689
292.634
292.589
292.533
294.315
294.173
293.993
293.828
293.66
293.502
293.351
293.214
293.095
292.998
292.925
292.867
292.816
292.749
294.611
294.468
294.277
294.098
293.914
293.744
293.586
293.446
293.327
293.23
293.156
293.092
293.036
292.955
294.88
294.74
294.542
294.353
294.158
293.982
293.82
293.681
293.564
293.467
293.387
293.314
293.249
293.147
295.139
294.996
294.8
294.604
294.407
294.227
294.064
293.922
293.803
293.7
293.612
293.525
293.45
293.327
295.354
295.218
295.025
294.834
294.643
294.47
294.31
294.17
294.049
293.938
293.838
293.735
293.636
293.503
291.987
291.9
291.806
291.67
291.544
291.411
291.28
291.142
291.007
290.874
290.758
290.623
290.513
290.359
292.309
292.231
292.131
291.988
291.848
291.702
291.558
291.41
291.266
291.137
291.04
290.956
290.887
290.79
292.546
292.467
292.372
292.236
292.102
291.963
291.82
291.67
291.524
291.396
291.301
291.235
291.167
291.091
292.788
292.688
292.585
292.458
292.334
292.205
292.069
291.923
291.777
291.649
291.55
291.48
291.417
291.356
293.036
292.914
292.798
292.674
292.556
292.435
292.304
292.164
292.023
291.896
291.795
291.719
291.653
291.606
293.311
293.168
293.038
292.91
292.789
292.668
292.539
292.403
292.265
292.14
292.037
291.957
291.89
291.838
293.608
293.453
293.304
293.167
293.037
292.91
292.776
292.639
292.503
292.378
292.275
292.193
292.124
292.062
293.917
293.755
293.588
293.439
293.294
293.154
293.012
292.87
292.734
292.61
292.507
292.421
292.346
292.273
294.228
294.063
293.879
293.714
293.551
293.396
293.243
293.096
292.959
292.835
292.729
292.639
292.558
292.475
294.528
294.36
294.158
293.976
293.794
293.625
293.463
293.313
293.176
293.052
292.943
292.848
292.76
292.669
294.804
294.629
294.412
294.216
294.019
293.841
293.674
293.521
293.384
293.259
293.147
293.047
292.955
292.856
295.043
294.866
294.639
294.434
294.23
294.048
293.88
293.73
293.595
293.471
293.355
293.246
293.148
293.035
295.278
295.091
294.863
294.652
294.445
294.262
294.095
293.947
293.812
293.684
293.566
293.447
293.343
293.216
295.462
295.277
295.054
294.849
294.652
294.478
294.319
294.178
294.045
293.912
293.785
293.656
293.536
293.4
292.201
292.119
292.034
291.908
291.785
291.651
291.514
291.364
291.209
291.049
290.905
290.743
290.63
290.5
292.482
292.394
292.295
292.165
292.038
291.9
291.758
291.602
291.438
291.279
291.145
291.029
290.943
290.857
292.715
292.607
292.508
292.38
292.256
292.126
291.988
291.835
291.674
291.519
291.387
291.289
291.201
291.127
292.974
292.84
292.723
292.592
292.471
292.346
292.213
292.067
291.911
291.76
291.627
291.526
291.44
291.371
293.237
293.08
292.942
292.807
292.686
292.564
292.435
292.293
292.143
291.996
291.864
291.759
291.668
291.606
293.516
293.347
293.197
293.053
292.922
292.794
292.662
292.522
292.375
292.229
292.097
291.988
291.895
291.826
293.812
293.633
293.464
293.309
293.166
293.03
292.892
292.748
292.6
292.455
292.323
292.21
292.114
292.036
294.101
293.923
293.736
293.57
293.412
293.264
293.116
292.967
292.817
292.671
292.538
292.42
292.32
292.229
294.387
294.203
294
293.82
293.646
293.485
293.328
293.174
293.02
292.873
292.739
292.617
292.511
292.409
294.655
294.463
294.242
294.047
293.857
293.686
293.523
293.366
293.214
293.066
292.929
292.802
292.689
292.577
294.901
294.696
294.457
294.251
294.052
293.876
293.71
293.552
293.4
293.252
293.111
292.979
292.858
292.739
295.106
294.897
294.651
294.439
294.237
294.062
293.898
293.744
293.594
293.445
293.298
293.157
293.029
292.902
295.314
295.099
294.855
294.64
294.438
294.265
294.101
293.948
293.796
293.644
293.494
293.344
293.211
293.078
295.479
295.267
295.035
294.833
294.643
294.477
294.32
294.172
294.019
293.865
293.708
293.549
293.406
293.269
292.345
292.265
292.192
292.092
291.994
291.879
291.755
291.611
291.45
291.275
291.106
290.913
290.78
290.636
292.607
292.507
292.422
292.311
292.206
292.089
291.963
291.817
291.649
291.472
291.303
291.15
291.022
290.918
292.839
292.713
292.616
292.503
292.398
292.285
292.161
292.017
291.853
291.679
291.513
291.373
291.252
291.157
293.104
292.96
292.838
292.712
292.596
292.479
292.355
292.215
292.056
291.888
291.724
291.587
291.47
291.381
293.364
293.197
293.056
292.921
292.798
292.677
292.551
292.411
292.256
292.093
291.934
291.799
291.683
291.601
293.638
293.462
293.305
293.156
293.019
292.888
292.753
292.611
292.457
292.297
292.142
292.008
291.892
291.807
293.927
293.739
293.559
293.394
293.241
293.098
292.956
292.809
292.654
292.495
292.344
292.209
292.093
291.999
294.199
294.005
293.806
293.627
293.46
293.306
293.155
293.002
292.844
292.685
292.534
292.396
292.279
292.176
294.459
294.254
294.037
293.846
293.665
293.502
293.344
293.186
293.026
292.865
292.714
292.572
292.452
292.342
294.693
294.478
294.245
294.044
293.854
293.686
293.524
293.363
293.202
293.04
292.887
292.74
292.615
292.497
294.907
294.681
294.434
294.227
294.032
293.863
293.7
293.538
293.375
293.211
293.052
292.9
292.768
292.644
295.083
294.856
294.606
294.402
294.209
294.043
293.883
293.724
293.562
293.394
293.226
293.064
292.924
292.799
295.273
295.051
294.807
294.6
294.408
294.242
294.084
293.924
293.758
293.585
293.41
293.239
293.095
292.966
295.442
295.221
294.99
294.796
294.616
294.455
294.3
294.142
293.976
293.799
293.619
293.441
293.291
293.161
292.496
292.406
292.339
292.259
292.187
292.099
291.993
291.861
291.702
291.527
291.347
291.145
290.99
290.821
292.74
292.633
292.561
292.467
292.382
292.285
292.176
292.043
291.88
291.698
291.511
291.333
291.17
291.048
292.944
292.816
292.73
292.636
292.549
292.453
292.343
292.211
292.05
291.87
291.684
291.517
291.36
291.246
293.193
293.05
292.939
292.828
292.725
292.618
292.502
292.369
292.211
292.035
291.853
291.691
291.541
291.441
293.438
293.279
293.147
293.019
292.901
292.783
292.66
292.522
292.364
292.194
292.02
291.865
291.725
291.631
293.7
293.53
293.378
293.23
293.092
292.959
292.823
292.678
292.52
292.354
292.188
292.039
291.907
291.812
293.977
293.79
293.609
293.441
293.285
293.138
292.991
292.84
292.679
292.515
292.355
292.21
292.085
291.985
294.234
294.035
293.832
293.648
293.477
293.319
293.164
293.005
292.842
292.677
292.52
292.375
292.253
292.148
294.474
294.263
294.042
293.846
293.663
293.497
293.336
293.173
293.008
292.841
292.683
292.536
292.413
292.303
294.682
294.466
294.233
294.031
293.841
293.673
293.509
293.345
293.176
293.006
292.845
292.694
292.57
292.454
294.872
294.65
294.41
294.207
294.018
293.85
293.686
293.519
293.347
293.172
293.006
292.848
292.717
292.597
295.033
294.813
294.574
294.381
294.198
294.035
293.873
293.706
293.532
293.352
293.176
293.007
292.867
292.745
295.211
295.001
294.771
294.581
294.4
294.236
294.073
293.903
293.725
293.537
293.352
293.173
293.028
292.902
295.382
295.174
294.955
294.77
294.597
294.438
294.279
294.11
293.931
293.741
293.552
293.371
293.222
293.096
289.227
289.004
288.513
287.649
286.602
285.598
288.909
288.332
287.55
286.599
285.775
284.945
289.014
288.207
287.248
286.263
285.551
284.854
289.056
288.147
287.111
286.088
285.408
284.815
289.077
288.156
287.144
286.168
285.526
285.03
289.046
288.134
287.193
286.309
285.704
285.248
288.992
288.108
287.25
286.489
285.981
285.51
288.9
288.043
287.252
286.599
286.17
285.652
288.782
287.952
287.238
286.641
286.199
285.628
288.597
287.76
287.047
286.373
285.84
285.273
288.397
287.562
286.846
286.123
285.529
284.784
288.273
287.42
286.711
285.919
285.199
284.157
288.338
287.513
286.868
286.032
285.244
283.874
287.932
287.177
286.53
285.802
285.236
283.987
289.797
289.685
289.388
288.826
287.826
286.803
289.582
289.216
288.715
288.075
287.126
286.295
289.696
289.156
288.508
287.798
286.895
286.172
289.737
289.104
288.352
287.567
286.698
286.093
289.744
289.042
288.221
287.39
286.609
286.126
289.677
288.913
288.037
287.179
286.502
286.112
289.58
288.758
287.873
287.054
286.479
286.169
289.447
288.585
287.73
286.976
286.471
286.194
289.308
288.439
287.649
286.96
286.485
286.147
289.134
288.256
287.487
286.758
286.192
285.682
288.936
288.069
287.325
286.54
285.855
285.174
288.741
287.913
287.188
286.362
285.539
284.713
288.692
287.95
287.297
286.486
285.589
284.599
288.26
287.563
286.868
286.158
285.532
284.746
290.411
290.304
290.115
289.826
289.174
288.267
290.231
289.963
289.574
289.147
288.517
287.657
290.297
289.943
289.475
288.942
288.233
287.358
290.287
289.877
289.333
288.724
287.968
287.108
290.272
289.787
289.17
288.49
287.732
286.947
290.197
289.632
288.938
288.191
287.466
286.749
290.085
289.441
288.691
287.926
287.271
286.663
289.953
289.237
288.464
287.715
287.123
286.611
289.823
289.064
288.308
287.608
287.087
286.591
289.68
288.886
288.135
287.412
286.831
286.188
289.52
288.71
287.964
287.199
286.545
285.8
289.316
288.508
287.782
286.999
286.281
285.491
289.157
288.42
287.823
287.093
286.345
285.514
288.705
287.997
287.398
286.742
286.198
285.585
290.906
290.788
290.663
290.477
290.132
289.542
290.727
290.463
290.152
289.84
289.493
288.864
290.703
290.398
290.052
289.659
289.143
288.396
290.633
290.297
289.89
289.437
288.839
287.998
290.587
290.219
289.753
289.218
288.542
287.66
290.504
290.092
289.566
288.951
288.208
287.29
290.396
289.926
289.334
288.653
287.878
286.972
290.276
289.738
289.084
288.351
287.566
286.695
290.16
289.556
288.871
288.122
287.393
286.592
290.039
289.38
288.656
287.884
287.173
286.404
289.922
289.207
288.468
287.699
287.005
286.212
289.751
289.007
288.279
287.534
286.837
286.047
289.563
288.864
288.271