/*--------------------------------*- C++ -*----------------------------------*\
| =========                 |                                                 |
| \\      /  F ield         | OpenFOAM: The Open Source CFD Toolbox           |
|  \\    /   O peration     | Version:  v2106                                 |
|   \\  /    A nd           | Website:  www.openfoam.com                      |
|    \\/     M anipulation  |                                                 |
\*---------------------------------------------------------------------------*/
FoamFile
{
    version     2.0;
    format      ascii;
    arch        "LSB;label=32;scalar=64";
    class       volScalarField;
    location    "0.000205";
    object      Ttot;
}
// * * * * * * * * * * * * * * * * * * * * * * * * * * * * * * * * * * * * * //

dimensions      [0 0 0 1 0 0 0];

internalField   nonuniform List<scalar> 
144746
(
295.062
294.987
294.945
295.121
295.088
294.909
294.545
294.061
293.447
292.854
292.445
292.287
292.26
292.796
294.868
295.237
295.354
295.606
295.703
295.661
295.481
295.177
294.723
294.174
293.641
293.259
292.861
292.734
295.119
295.567
295.744
296.002
296.114
296.152
296.083
295.918
295.623
295.163
294.6
294.037
293.443
293.062
295.385
295.88
296.136
296.404
296.531
296.583
296.542
296.432
296.232
295.909
295.457
294.905
294.303
293.767
295.771
296.275
296.565
296.787
296.896
296.93
296.894
296.804
296.648
296.402
296.037
295.557
295.02
294.428
296.199
296.682
296.951
297.114
297.181
297.193
297.155
297.081
296.962
296.767
296.463
296.044
295.547
294.862
296.595
297.011
297.236
297.333
297.356
297.345
297.303
297.241
297.149
296.994
296.737
296.348
295.838
295.084
296.887
297.231
297.408
297.456
297.45
297.416
297.371
297.318
297.243
297.115
296.884
296.516
295.992
295.127
297.05
297.345
297.484
297.508
297.486
297.439
297.386
297.333
297.267
297.151
296.931
296.564
296.011
295.123
297.083
297.362
297.493
297.52
297.502
297.454
297.394
297.33
297.259
297.14
296.92
296.536
295.971
295.064
296.986
297.281
297.43
297.485
297.486
297.46
297.408
297.333
297.237
297.087
296.83
296.401
295.841
294.972
296.789
297.065
297.294
297.407
297.45
297.448
297.411
297.333
297.209
296.999
296.664
296.162
295.638
294.84
296.627
296.837
297.101
297.253
297.341
297.377
297.357
297.281
297.132
296.839
296.405
295.798
295.251
294.734
296.618
296.586
296.804
296.981
297.114
297.168
297.172
297.116
296.965
296.639
296.141
295.547
295.168
295.08
295.261
295.43
295.464
295.575
295.573
295.48
295.262
294.93
294.474
293.992
293.542
293.249
293.108
293.515
295.257
295.735
295.894
296.056
296.124
296.082
295.959
295.746
295.434
295.059
294.67
294.333
293.994
293.646
295.569
296.055
296.226
296.393
296.468
296.451
296.391
296.26
296.048
295.738
295.367
294.954
294.518
294.053
295.889
296.335
296.536
296.686
296.752
296.746
296.708
296.611
296.458
296.235
295.962
295.594
295.173
294.692
296.232
296.648
296.861
296.959
296.978
296.933
296.869
296.788
296.708
296.557
296.356
296.084
295.733
295.299
296.6
296.962
297.121
297.168
297.146
297.07
296.986
296.904
296.825
296.739
296.623
296.435
296.165
295.707
296.894
297.197
297.299
297.295
297.239
297.141
297.045
296.967
296.907
296.839
296.757
296.629
296.394
295.934
297.136
297.376
297.422
297.393
297.315
297.208
297.103
297.02
296.961
296.902
296.826
296.69
296.485
295.96
297.255
297.462
297.49
297.447
297.363
297.259
297.16
297.078
297.016
296.954
296.872
296.725
296.471
295.901
297.303
297.505
297.541
297.506
297.428
297.337
297.246
297.165
297.09
297.005
296.895
296.711
296.413
295.808
297.271
297.475
297.533
297.52
297.464
297.4
297.325
297.256
297.176
297.069
296.926
296.692
296.336
295.725
297.179
297.402
297.506
297.527
297.509
297.468
297.415
297.348
297.255
297.117
296.92
296.623
296.246
295.662
297.084
297.271
297.424
297.499
297.509
297.487
297.449
297.399
297.299
297.138
296.872
296.488
296.096
295.645
297.02
297.104
297.298
297.425
297.486
297.49
297.463
297.408
297.304
297.103
296.773
296.317
295.997
295.88
295.012
295.411
295.365
295.32
295.251
295.178
295.09
294.919
294.671
294.35
293.954
293.584
293.298
293.525
295.464
295.702
295.883
295.95
295.913
295.829
295.721
295.551
295.344
295.106
294.879
294.628
294.407
294.088
296.004
296.257
296.412
296.453
296.394
296.293
296.169
296.008
295.839
295.664
295.458
295.193
294.927
294.545
296.455
296.711
296.828
296.83
296.764
296.657
296.529
296.384
296.241
296.089
295.952
295.749
295.488
295.098
296.839
297.072
297.152
297.106
297.02
296.897
296.77
296.644
296.542
296.44
296.329
296.18
295.963
295.603
297.191
297.37
297.413
297.333
297.23
297.093
296.964
296.85
296.771
296.708
296.636
296.52
296.354
296.05
297.505
297.619
297.606
297.502
297.384
297.244
297.119
297.017
296.95
296.904
296.858
296.774
296.649
296.387
297.835
297.89
297.828
297.703
297.558
297.41
297.279
297.178
297.112
297.071
297.033
296.967
296.857
296.619
298.069
298.095
298.004
297.87
297.714
297.568
297.44
297.342
297.272
297.226
297.183
297.125
297.016
296.773
298.27
298.287
298.186
298.053
297.893
297.747
297.621
297.522
297.446
297.384
297.321
297.25
297.134
296.876
298.369
298.405
298.313
298.193
298.052
297.918
297.803
297.713
297.637
297.568
297.486
297.393
297.239
296.956
298.468
298.484
298.42
298.327
298.215
298.103
297.997
297.911
297.828
297.742
297.633
297.505
297.322
297.045
298.551
298.548
298.463
298.389
298.312
298.237
298.153
298.084
298.008
297.918
297.775
297.606
297.405
297.148
298.551
298.646
298.591
298.525
298.462
298.404
298.326
298.254
298.17
298.058
297.864
297.672
297.531
297.331
292.704
292.603
291.956
291.642
291.202
291.72
291.785
291.628
291.033
291.109
290.875
291.35
292.367
291.879
291.266
291.276
290.991
291.439
292.849
291.982
291.254
291.208
290.97
291.347
293.411
292.283
291.449
291.439
291.247
291.718
293.676
292.371
291.476
291.52
291.399
291.943
293.811
292.45
291.611
291.794
291.696
292.336
293.803
292.482
291.783
292.074
291.974
292.642
293.834
292.678
292.096
292.413
292.248
292.847
293.892
292.904
292.329
292.611
292.365
292.941
294.005
293.206
292.614
292.799
292.501
293.172
294.062
293.393
292.816
292.971
292.808
292.762
294.276
293.775
293.055
292.96
292.921
292.682
293.989
293.703
293.01
292.975
292.927
292.605
293.143
292.597
291.687
291.223
290.69
291.281
292.531
291.857
290.948
290.748
290.414
290.971
293.272
292.441
291.429
291.109
290.607
291.278
293.887
292.867
291.709
291.15
290.608
291.098
294.509
293.392
292.136
291.474
290.884
291.346
294.828
293.606
292.307
291.61
291.099
291.543
294.984
293.685
292.383
291.825
291.425
292.041
294.978
293.651
292.403
291.999
291.722
292.391
294.933
293.667
292.539
292.244
291.995
292.611
294.89
293.781
292.775
292.494
292.223
292.687
294.943
294.016
293.053
292.712
292.354
292.848
295.054
294.219
293.266
292.904
292.566
292.513
295.187
294.481
293.539
292.97
292.706
292.494
294.91
294.281
293.373
292.944
292.769
292.43
293.303
292.236
291.164
290.138
289.375
289.536
293.028
291.967
290.734
289.93
289.336
289.493
293.694
292.6
291.429
290.673
289.919
290.438
294.345
293.295
292.165
291.292
290.531
290.851
294.993
294.071
293.032
292.181
291.355
291.417
295.509
294.684
293.656
292.724
291.893
291.877
295.9
295.1
294.045
293.075
292.358
292.531
296.142
295.359
294.287
293.384
292.736
292.951
296.298
295.522
294.454
293.627
293.008
293.051
296.411
295.671
294.66
293.866
293.255
293.031
296.555
295.901
294.962
294.123
293.498
292.98
296.75
296.159
295.275
294.364
293.735
293.054
297.048
296.507
295.707
294.793
294.151
293.154
296.984
296.522
295.736
294.993
294.422
293.222
294.833
294.713
293.78
293.379
292.809
292.902
294.212
294.047
293.035
292.792
292.275
292.796
294.847
294.424
293.322
293.014
292.384
293.039
295.457
294.702
293.434
292.83
292.065
292.614
296.057
295.164
293.814
293.045
292.264
292.395
296.386
295.424
294.038
293.194
292.47
292.072
296.551
295.6
294.259
293.458
292.701
292.48
296.605
295.674
294.439
293.75
293.139
292.949
296.625
295.77
294.723
294.181
293.672
293.516
296.626
295.89
295.059
294.617
294.176
293.899
296.612
296.008
295.383
295.007
294.652
294.176
296.539
296.06
295.558
295.23
294.995
294.262
296.379
296.041
295.56
295.289
295.13
294.31
295.952
295.67
295.151
295.067
294.827
294.038
295.671
295.257
294.231
293.672
293.121
292.79
295.291
294.863
293.76
293.263
292.706
292.747
295.782
295.268
294.139
293.572
292.852
293.042
296.328
295.731
294.614
293.869
293.162
292.749
296.783
296.169
295.1
294.189
293.393
292.769
297.029
296.437
295.414
294.413
293.592
292.693
297.146
296.578
295.61
294.664
293.878
292.913
297.212
296.658
295.746
294.885
294.262
293.144
297.236
296.682
295.876
295.109
294.656
293.673
297.248
296.743
296.065
295.39
295.1
294.031
297.233
296.76
296.224
295.662
295.478
294.29
297.162
296.726
296.279
295.747
295.604
294.232
296.981
296.593
296.138
295.611
295.462
293.995
296.51
296.112
295.586
295.103
294.999
293.438
297.531
297.278
296.607
295.864
295.147
293.887
297.349
297.102
296.39
295.785
295.142
293.925
297.584
297.4
296.77
296.222
295.606
294.222
297.878
297.78
297.26
296.667
296.02
294.465
298.126
298.091
297.685
297.065
296.413
294.665
298.254
298.257
297.933
297.291
296.674
294.816
298.321
298.349
298.074
297.444
296.891
294.896
298.352
298.387
298.135
297.558
297.047
294.946
298.395
298.428
298.217
297.681
297.142
294.922
298.448
298.499
298.322
297.748
297.205
294.8
298.567
298.606
298.412
297.81
297.236
294.6
298.677
298.674
298.469
297.68
296.897
293.974
298.806
298.619
298.359
297.289
296.158
293.068
298.513
298.125
297.627
296.333
295.099
292.027
293.268
293.64
293.684
293.575
293.902
294.285
293.683
293.923
294.031
294.127
294.533
294.913
293.805
293.942
294.098
294.148
294.558
295.053
294.046
293.762
293.991
294.066
294.506
295.112
294.044
293.296
293.603
293.822
294.445
295.243
293.444
293.206
293.438
293.81
294.537
295.514
292.636
292.683
293.189
293.793
294.785
295.878
291.998
292.321
293.058
293.905
295.14
296.213
291.54
292.074
293.066
294.097
295.46
296.419
291.706
292.384
293.453
294.389
295.692
296.494
292.002
292.721
293.777
294.495
295.716
296.372
292.693
293.374
294.366
294.756
295.81
296.203
293.267
293.742
294.62
294.897
295.79
295.973
294.311
294.681
295.454
295.679
296.271
296.356
291.796
292.609
292.652
292.893
293.602
294.548
292.5
293.238
293.363
293.731
294.426
295.286
293.092
293.709
293.723
294.092
294.659
295.466
293.643
294.004
293.871
294.282
294.829
295.641
293.559
293.826
293.715
294.286
294.934
295.799
293.151
293.499
293.605
294.421
295.183
296.085
292.404
292.998
293.432
294.5
295.417
296.343
291.796
292.568
293.322
294.562
295.672
296.597
291.377
292.393
293.26
294.591
295.834
296.745
291.457
292.627
293.51
294.732
295.981
296.808
291.651
292.874
293.745
294.8
296.025
296.775
292.185
293.41
294.222
295.016
296.103
296.688
292.562
293.844
294.566
295.241
296.18
296.578
293.542
294.88
295.458
296.032
296.615
296.861
287.939
290.323
291.029
292.355
293.238
294.4
288.738
291.313
292.223
293.608
294.271
295.407
289.687
292.27
292.915
294.175
294.586
295.615
290.786
293.06
293.41
294.545
295.024
295.969
291.251
293.266
293.613
294.749
295.425
296.36
291.308
293.247
293.848
295.087
295.942
296.765
291.147
293.097
294.104
295.491
296.461
297.143
291.013
293.071
294.482
295.944
296.933
297.55
290.96
293.131
294.767
296.256
297.278
297.835
291.031
293.325
295.017
296.56
297.586
298.078
291.115
293.492
295.171
296.735
297.747
298.198
291.183
293.774
295.377
297.019
297.968
298.362
291.255
293.93
295.579
297.32
298.214
298.489
291.75
294.752
296.349
297.908
298.502
298.686
291.697
291.254
291.495
291.411
291.779
291.975
291.667
291.347
291.568
291.546
291.884
292.201
291.786
291.319
291.535
291.318
291.507
291.892
291.969
291.381
291.544
291.177
291.262
291.752
292.114
291.385
291.435
290.965
291.055
291.714
292.057
291.312
291.3
290.822
291.001
292.004
291.837
291.093
291.083
290.752
291.256
292.552
291.626
291.022
291.071
290.984
291.735
293.132
291.521
290.974
291.163
291.342
292.316
293.685
291.636
291.175
291.575
291.9
292.967
294.093
291.737
291.396
292.078
292.393
293.422
294.302
292.456
292.017
292.777
292.935
293.819
294.304
292.83
292.258
292.902
293.018
293.86
294.117
293.642
293.369
294.026
294.185
294.77
294.84
290.939
290.596
290.683
290.688
291.296
292.189
290.992
290.619
290.715
290.918
291.697
292.645
290.972
290.517
290.583
290.726
291.504
292.597
291.081
290.492
290.574
290.642
291.399
292.609
291.211
290.452
290.505
290.529
291.367
292.769
291.228
290.464
290.488
290.584
291.602
293.16
291.115
290.411
290.483
290.838
292.065
293.667
291.08
290.496
290.667
291.23
292.591
294.127
290.698
290.481
290.864
291.667
293.104
294.496
290.698
290.59
291.182
292.105
293.539
294.728
290.585
290.524
291.428
292.371
293.741
294.813
290.978
291.049
291.944
292.676
293.839
294.755
291.092
291.269
292.025
292.696
293.723
294.527
291.969
292.327
293.06
293.702
294.481
294.996
288.769
288.931
289.019
289.559
290.594
291.986
288.581
288.938
289.04
289.851
291.038
292.586
288.391
288.779
288.83
289.712
291.018
292.698
288.523
288.779
288.904
289.839
291.215
292.913
288.761
288.794
289.036
290.092
291.627
293.289
289.016
288.987
289.329
290.527
292.155
293.699
289.206
289.113
289.618
290.975
292.613
294.024
289.233
289.335
290.015
291.407
292.958
294.242
288.97
289.443
290.243
291.702
293.142
294.348
288.683
289.367
290.297
291.801
293.198
294.413
288.146
289.128
290.241
291.772
293.201
294.445
287.898
289.319
290.531
292.054
293.356
294.491
287.486
289.282
290.58
292.31
293.585
294.533
288.077
290.178
291.511
293.233
294.177
294.991
295.797
295.843
295.859
295.796
295.708
295.58
295.444
295.273
295.106
294.857
294.534
294.181
293.843
293.817
296.178
296.245
296.272
296.258
296.192
296.078
295.945
295.778
295.623
295.426
295.192
294.937
294.731
294.527
296.526
296.642
296.668
296.641
296.566
296.446
296.307
296.151
296.015
295.865
295.689
295.48
295.264
295.065
296.888
296.979
296.99
296.916
296.821
296.695
296.554
296.413
296.299
296.195
296.078
295.918
295.746
295.535
297.233
297.26
297.232
297.12
297.007
296.875
296.737
296.611
296.518
296.442
296.367
296.26
296.108
295.898
297.521
297.48
297.421
297.289
297.16
297.021
296.888
296.778
296.7
296.643
296.594
296.523
296.42
296.252
297.759
297.68
297.584
297.445
297.302
297.156
297.027
296.93
296.862
296.814
296.781
296.732
296.655
296.519
297.977
297.884
297.757
297.601
297.439
297.285
297.157
297.07
297.008
296.972
296.95
296.917
296.854
296.732
298.143
298.049
297.907
297.741
297.57
297.416
297.291
297.21
297.155
297.127
297.111
297.086
297.027
296.914
298.359
298.248
298.091
297.914
297.733
297.571
297.442
297.359
297.307
297.282
297.266
297.242
297.182
297.066
298.508
298.393
298.233
298.062
297.891
297.736
297.613
297.535
297.486
297.461
297.439
297.407
297.333
297.201
298.789
298.612
298.425
298.26
298.102
297.956
297.835
297.751
297.692
297.651
297.61
297.552
297.461
297.308
298.948
298.775
298.572
298.425
298.292
298.175
298.072
297.992
297.926
297.866
297.797
297.704
297.584
297.401
299.326
299.154
298.927
298.745
298.595
298.479
298.369
298.263
298.163
298.065
297.944
297.8
297.651
297.505
295.579
295.641
295.719
295.711
295.693
295.605
295.497
295.353
295.207
295.007
294.743
294.44
294.09
293.86
296.027
296.052
296.081
296.086
296.072
296.002
295.914
295.803
295.689
295.546
295.355
295.12
294.858
294.584
296.34
296.374
296.404
296.396
296.368
296.298
296.211
296.112
296.015
295.91
295.776
295.609
295.399
295.157
296.669
296.666
296.689
296.664
296.62
296.542
296.449
296.354
296.267
296.188
296.096
295.983
295.82
295.635
296.968
296.949
296.949
296.902
296.837
296.746
296.643
296.548
296.469
296.406
296.343
296.274
296.166
296.003
297.242
297.21
297.186
297.122
297.036
296.932
296.826
296.732
296.659
296.607
296.561
296.518
296.44
296.325
297.49
297.451
297.403
297.318
297.211
297.098
296.991
296.905
296.838
296.795
296.76
296.729
296.672
296.584
297.713
297.672
297.605
297.502
297.377
297.254
297.148
297.069
297.009
296.973
296.947
296.923
296.874
296.79
297.916
297.868
297.782
297.666
297.534
297.408
297.303
297.228
297.175
297.143
297.122
297.099
297.052
296.965
298.123
298.068
297.965
297.838
297.699
297.569
297.462
297.389
297.339
297.308
297.288
297.261
297.212
297.119
298.279
298.225
298.121
297.999
297.868
297.745
297.643
297.571
297.52
297.486
297.462
297.425
297.369
297.261
298.487
298.409
298.304
298.194
298.073
297.957
297.856
297.777
297.715
297.669
297.631
297.573
297.501
297.368
298.624
298.554
298.455
298.369
298.274
298.178
298.09
298.009
297.934
297.866
297.803
297.717
297.617
297.452
298.936
298.838
298.725
298.631
298.542
298.451
298.358
298.258
298.157
298.057
297.948
297.821
297.697
297.562
295.63
295.613
295.69
295.702
295.715
295.662
295.58
295.486
295.379
295.24
295.057
294.824
294.533
294.234
296.075
296.04
296.075
296.072
296.061
296.006
295.934
295.86
295.78
295.684
295.562
295.404
295.171
294.869
296.38
296.378
296.419
296.407
296.37
296.3
296.22
296.144
296.068
295.99
295.898
295.793
295.607
295.382
296.694
296.697
296.722
296.701
296.646
296.562
296.471
296.384
296.303
296.23
296.155
296.077
295.949
295.773
296.973
296.99
296.995
296.957
296.885
296.791
296.689
296.589
296.502
296.43
296.364
296.306
296.217
296.107
297.232
297.251
297.234
297.176
297.09
296.989
296.88
296.775
296.684
296.616
296.559
296.517
296.454
296.382
297.479
297.491
297.45
297.37
297.269
297.162
297.051
296.946
296.857
296.794
296.747
296.717
296.671
296.61
297.724
297.716
297.652
297.554
297.439
297.324
297.21
297.107
297.023
296.967
296.929
296.901
296.864
296.797
297.959
297.921
297.834
297.724
297.601
297.48
297.365
297.264
297.185
297.134
297.102
297.073
297.039
296.958
298.186
298.123
298.021
297.901
297.769
297.643
297.524
297.423
297.347
297.295
297.266
297.234
297.202
297.104
298.355
298.287
298.186
298.067
297.938
297.815
297.701
297.601
297.522
297.467
297.435
297.395
297.357
297.243
298.524
298.466
298.376
298.261
298.136
298.011
297.896
297.793
297.708
297.642
297.599
297.544
297.493
297.358
298.678
298.62
298.538
298.437
298.333
298.221
298.113
298.01
297.914
297.83
297.766
297.684
297.607
297.448
298.917
298.825
298.742
298.646
298.556
298.454
298.345
298.231
298.122
298.016
297.924
297.812
297.701
297.543
295.653
295.632
295.664
295.653
295.635
295.584
295.523
295.456
295.384
295.285
295.172
295.005
294.807
294.524
296.077
296.065
296.062
296.024
295.977
295.91
295.841
295.771
295.704
295.633
295.565
295.468
295.313
295.081
296.394
296.412
296.412
296.363
296.293
296.204
296.117
296.035
295.961
295.896
295.84
295.776
295.653
295.499
296.68
296.706
296.701
296.648
296.569
296.473
296.374
296.276
296.187
296.117
296.062
296.012
295.93
295.811
296.937
296.966
296.949
296.891
296.808
296.71
296.603
296.493
296.393
296.315
296.258
296.216
296.156
296.098
297.184
297.204
297.172
297.107
297.021
296.923
296.813
296.698
296.593
296.513
296.455
296.42
296.375
296.341
297.441
297.436
297.384
297.307
297.216
297.116
297.005
296.891
296.787
296.708
296.654
296.623
296.587
296.559
297.705
297.67
297.599
297.509
297.407
297.301
297.187
297.074
296.973
296.898
296.849
296.819
296.79
296.755
297.96
297.897
297.809
297.708
297.596
297.482
297.364
297.252
297.154
297.081
297.034
297.004
296.98
296.933
298.2
298.12
298.019
297.907
297.784
297.661
297.538
297.425
297.329
297.257
297.212
297.179
297.157
297.093
298.394
298.313
298.21
298.095
297.969
297.844
297.721
297.606
297.509
297.435
297.39
297.351
297.323
297.234
298.574
298.5
298.401
298.284
298.158
298.03
297.905
297.79
297.691
297.613
297.564
297.515
297.47
297.346
298.743
298.665
298.571
298.46
298.345
298.224
298.104
297.989
297.883
297.792
297.731
297.663
297.594
297.438
298.942
298.841
298.742
298.635
298.535
298.425
298.307
298.188
298.076
297.973
297.893
297.8
297.7
297.534
295.781
295.765
295.747
295.702
295.656
295.598
295.543
295.487
295.433
295.362
295.275
295.152
295.014
294.793
296.157
296.155
296.127
296.064
295.991
295.911
295.839
295.766
295.701
295.64
295.591
295.525
295.435
295.279
296.437
296.458
296.44
296.377
296.292
296.198
296.105
296.015
295.935
295.874
295.831
295.786
295.713
295.607
296.695
296.715
296.694
296.635
296.554
296.459
296.358
296.253
296.157
296.084
296.034
295.998
295.943
295.873
296.937
296.947
296.916
296.859
296.782
296.691
296.587
296.473
296.369
296.285
296.23
296.191
296.145
296.11
297.191
297.179
297.134
297.073
296.998
296.91
296.806
296.689
296.581
296.491
296.429
296.389
296.348
296.319
297.463
297.423
297.361
297.29
297.21
297.12
297.014
296.897
296.788
296.696
296.63
296.586
296.547
296.517
297.746
297.682
297.602
297.516
297.424
297.324
297.212
297.096
296.986
296.894
296.826
296.778
296.739
296.696
298.022
297.941
297.845
297.743
297.636
297.523
297.402
297.284
297.174
297.081
297.011
296.959
296.918
296.86
298.28
298.189
298.077
297.959
297.834
297.707
297.578
297.456
297.347
297.255
297.186
297.131
297.083
297.009
298.494
298.4
298.279
298.15
298.015
297.881
297.749
297.625
297.514
297.423
297.355
297.295
297.236
297.148
298.673
298.581
298.455
298.319
298.178
298.039
297.906
297.784
297.677
297.586
297.516
297.445
297.374
297.263
298.845
298.74
298.607
298.468
298.332
298.2
298.073
297.955
297.844
297.748
297.67
297.581
297.499
297.367
298.995
298.879
298.736
298.603
298.48
298.362
298.242
298.128
298.019
297.918
297.825
297.722
297.62
297.48
295.929
295.916
295.883
295.815
295.746
295.673
295.61
295.542
295.477
295.399
295.312
295.186
295.082
294.916
296.243
296.246
296.204
296.128
296.042
295.954
295.872
295.789
295.707
295.63
295.565
295.495
295.431
295.326
296.485
296.49
296.455
296.385
296.299
296.207
296.115
296.018
295.924
295.846
295.784
295.737
295.674
295.6
296.728
296.713
296.67
296.605
296.528
296.441
296.346
296.242
296.138
296.052
295.986
295.937
295.886
295.834
296.965
296.928
296.876
296.814
296.742
296.66
296.563
296.456
296.35
296.257
296.186
296.134
296.083
296.048
297.223
297.162
297.099
297.03
296.957
296.875
296.778
296.67
296.562
296.465
296.389
296.332
296.283
296.244
297.498
297.417
297.336
297.258
297.178
297.091
296.989
296.878
296.769
296.669
296.59
296.527
296.476
296.428
297.774
297.683
297.587
297.495
297.401
297.302
297.192
297.077
296.966
296.864
296.781
296.713
296.654
296.593
298.038
297.94
297.832
297.726
297.615
297.502
297.383
297.263
297.149
297.045
296.957
296.883
296.818
296.746
298.286
298.181
298.059
297.937
297.809
297.681
297.554
297.429
297.314
297.209
297.12
297.041
296.97
296.889
298.499
298.383
298.246
298.113
297.975
297.842
297.711
297.584
297.468
297.363
297.272
297.187
297.112
297.022
298.673
298.552
298.404
298.264
298.121
297.984
297.854
297.73
297.617
297.514
297.419
297.325
297.245
297.137
298.849
298.706
298.547
298.401
298.259
298.128
298.005
297.888
297.774
297.663
297.565
297.464
297.376
297.251
298.98
298.829
298.665
298.527
298.397
298.278
298.162
298.053
297.943
297.829
297.723
297.615
297.511
297.378
296.005
295.995
295.971
295.914
295.855
295.79
295.727
295.653
295.574
295.479
295.373
295.224
295.123
294.985
296.284
296.275
296.237
296.174
296.105
296.031
295.957
295.873
295.779
295.68
295.585
295.489
295.411
295.321
296.515
296.493
296.456
296.396
296.327
296.252
296.17
296.078
295.977
295.879
295.789
295.715
295.637
295.566
296.776
296.727
296.673
296.606
296.536
296.461
296.378
296.282
296.178
296.077
295.986
295.913
295.841
295.781
297.027
296.955
296.883
296.813
296.745
296.669
296.583
296.485
296.38
296.278
296.186
296.11
296.039
295.988
297.287
297.2
297.118
297.038
296.962
296.882
296.791
296.691
296.584
296.479
296.385
296.305
296.235
296.18
297.561
297.459
297.359
297.267
297.181
297.095
296.998
296.893
296.782
296.673
296.575
296.49
296.419
296.356
297.819
297.712
297.599
297.495
297.396
297.299
297.195
297.084
296.968
296.854
296.752
296.662
296.584
296.512
298.062
297.946
297.821
297.705
297.594
297.485
297.372
297.255
297.135
297.019
296.912
296.814
296.732
296.648
298.284
298.158
298.017
297.888
297.763
297.644
297.525
297.406
297.286
297.168
297.057
296.955
296.866
296.77
298.478
298.338
298.18
298.042
297.91
297.788
297.667
297.546
297.426
297.307
297.194
297.085
296.99
296.885
298.633
298.487
298.32
298.179
298.042
297.92
297.8
297.682
297.564
297.445
297.328
297.211
297.107
296.99
298.799
298.637
298.459
298.314
298.176
298.059
297.945
297.832
297.709
297.585
297.466
297.34
297.23
297.104
298.919
298.749
298.575
298.442
298.318
298.211
298.103
297.993
297.873
297.746
297.621
297.488
297.368
297.239
296.083
296.073
296.056
296.018
295.982
295.933
295.879
295.805
295.715
295.605
295.479
295.306
295.194
295.051
296.347
296.324
296.297
296.246
296.195
296.138
296.076
295.997
295.896
295.78
295.655
295.528
295.418
295.316
296.571
296.524
296.486
296.437
296.386
296.327
296.259
296.174
296.07
295.954
295.833
295.725
295.622
295.535
296.833
296.768
296.705
296.64
296.577
296.511
296.438
296.351
296.245
296.127
296.008
295.904
295.811
295.734
297.074
296.987
296.91
296.837
296.769
296.699
296.621
296.529
296.421
296.304
296.186
296.084
295.995
295.927
297.325
297.227
297.138
297.052
296.973
296.894
296.808
296.711
296.601
296.483
296.366
296.264
296.175
296.107
297.589
297.475
297.365
297.265
297.174
297.087
296.993
296.89
296.776
296.656
296.54
296.435
296.346
296.273
297.829
297.706
297.581
297.468
297.366
297.27
297.169
297.06
296.942
296.82
296.702
296.594
296.503
296.422
298.049
297.912
297.772
297.65
297.537
297.433
297.326
297.212
297.091
296.967
296.849
296.737
296.645
296.556
298.241
298.093
297.938
297.807
297.685
297.576
297.465
297.349
297.227
297.103
296.985
296.87
296.775
296.675
298.42
298.256
298.08
297.944
297.819
297.71
297.598
297.48
297.358
297.233
297.111
296.991
296.888
296.78
298.555
298.388
298.208
298.077
297.951
297.843
297.733
297.617
297.494
297.365
297.236
297.105
296.993
296.879
298.713
298.546
298.363
298.227
298.097
297.99
297.883
297.766
297.639
297.501
297.363
297.22
297.103
296.983
298.843
298.67
298.497
298.373
298.255
298.152
298.045
297.928
297.799
297.658
297.514
297.366
297.242
297.122
296.195
296.171
296.16
296.137
296.125
296.1
296.058
295.988
295.89
295.774
295.635
295.455
295.327
295.163
296.442
296.408
296.394
296.356
296.326
296.286
296.236
296.162
296.057
295.93
295.785
295.635
295.497
295.384
296.635
296.58
296.553
296.519
296.488
296.447
296.392
296.314
296.207
296.078
295.935
295.8
295.668
295.572
296.874
296.807
296.756
296.705
296.657
296.602
296.538
296.456
296.348
296.22
296.079
295.95
295.828
295.748
297.101
297.017
296.948
296.881
296.82
296.754
296.682
296.594
296.485
296.36
296.227
296.104
295.993
295.919
297.339
297.243
297.156
297.071
296.992
296.913
296.829
296.734
296.624
296.504
296.378
296.262
296.157
296.082
297.591
297.472
297.36
297.256
297.162
297.07
296.976
296.875
296.763
296.645
296.524
296.412
296.313
296.234
297.816
297.684
297.551
297.432
297.323
297.223
297.121
297.013
296.898
296.779
296.662
296.55
296.454
296.372
298.02
297.873
297.721
297.591
297.472
297.364
297.257
297.146
297.03
296.909
296.792
296.679
296.585
296.498
298.189
298.037
297.872
297.737
297.611
297.501
297.391
297.278
297.16
297.037
296.919
296.803
296.709
296.615
298.351
298.19
298.012
297.876
297.748
297.64
297.53
297.413
297.292
297.165
297.043
296.922
296.822
296.72
298.48
298.32
298.14
298.016
297.895
297.791
297.681
297.563
297.437
297.303
297.171
297.038
296.927
296.819
298.636
298.482
298.308
298.183
298.06
297.954
297.844
297.722
297.588
297.441
297.297
297.15
297.033
296.918
298.771
298.613
298.45
298.333
298.221
298.118
298.008
297.883
297.745
297.594
297.445
297.296
297.175
297.059
295.639
295.226
294.273
293.094
291.545
289.941
295.179
294.385
293.098
291.768
290.417
288.988
295.156
294.169
292.8
291.441
290.132
288.654
295.051
294.005
292.559
291.059
289.691
288.36
294.964
293.906
292.476
290.932
289.542
288.389
294.83
293.746
292.341
290.804
289.428
288.484
294.7
293.606
292.236
290.713
289.466
288.677
294.519
293.404
292.021
290.481
289.374
288.773
294.325
293.141
291.733
290.149
289.139
288.717
294.011
292.704
291.203
289.548
288.651
288.393
293.62
292.214
290.684
289.121
288.385
287.951
293.296
291.82
290.357
288.901
288.162
287.3
293.149
291.711
290.377
288.979
288.203
286.933
292.597
291.235
289.946
288.742
288.217
286.912
295.434
295.113
294.307
293.348
291.857
290.627
295.155
294.591
293.589
292.55
291.1
290.02
295.206
294.521
293.483
292.417
290.967
289.809
295.169
294.439
293.36
292.209
290.729
289.605
295.137
294.354
293.251
292.02
290.569
289.528
295.019
294.165
293.002
291.69
290.298
289.392
294.883
293.95
292.74
291.376
290.017
289.323
294.697
293.687
292.448
291.027
289.711
289.237
294.52
293.438
292.183
290.674
289.388
289.051
294.279
293.111
291.801
290.135
288.819
288.45
293.969
292.743
291.39
289.647
288.34
287.882
293.638
292.414
291.064
289.379
288.04
287.388
293.441
292.31
291.067
289.51
288.103
287.261
292.887
291.792
290.512
289.182
288.162
287.512
295.4
295.147
294.604
293.972
292.949
291.874
295.207
294.797
294.052
293.254
292.324
291.355
295.264
294.794
294.008
293.122
292.103
291.057
295.254
294.754
293.925
292.959
291.859
290.765
295.259
294.695
293.811
292.75
291.583
290.442
295.186
294.544
293.578
292.425
291.223
290.02
295.074
294.346
293.303
292.088
290.857
289.701
294.936
294.113
293.019
291.753
290.484
289.441
294.801
293.894
292.783
291.474
290.176
289.203
294.634
293.65
292.517
291.094
289.662
288.589
294.424
293.381
292.231
290.705
289.204
288.096
294.15
293.089
291.946
290.406
288.916
287.826
293.933
292.944
291.94
290.521
289.086
287.976
293.421
292.452
291.443
290.199
289.173
288.373
295.386
295.149
294.768
294.307
293.57
292.787
295.22
294.842
294.283
293.698
293.022
292.271
295.232
294.821
294.242
293.584
292.725
291.857
295.217
294.79
294.172
293.458
292.518
291.563
295.217
294.768
294.1
293.299
292.276
291.256
295.173
294.685
293.955
293.054
291.941
290.765
295.101
294.556
293.752
292.745
291.522
290.193
295.011
294.388
293.509
292.392
291.05
289.631
294.916
294.208
293.28
292.077
290.683
289.242
294.797
294.011
293.033
291.75
290.294
288.807
294.666
293.798
292.794
291.473
289.992
288.462
294.46
293.548
292.553
291.25
289.77
288.291
294.247
293.385
292.529