/*--------------------------------*- C++ -*----------------------------------*\
| =========                 |                                                 |
| \\      /  F ield         | OpenFOAM: The Open Source CFD Toolbox           |
|  \\    /   O peration     | Version:  v2106                                 |
|   \\  /    A nd           | Website:  www.openfoam.com                      |
|    \\/     M anipulation  |                                                 |
\*---------------------------------------------------------------------------*/
FoamFile
{
    version     2.0;
    format      ascii;
    arch        "LSB;label=32;scalar=64";
    class       volScalarField;
    location    "0.000176";
    object      epsilon;
}
// * * * * * * * * * * * * * * * * * * * * * * * * * * * * * * * * * * * * * //

dimensions      [0 2 -3 0 0 0 0];

internalField   nonuniform List<scalar> 
144746
(
470540
352695
260431
180111
110785
67696.6
51736.1
52302.9
67162.8
100048
158070
249280
351329
402683
295401
214942
146197
93046.4
57245.2
36254.6
28401
30206.9
41752.8
69538.9
120646
201522
289044
324650
161917
108843
67800.6
39738.6
24752.3
16208.7
12924.4
14952.5
24738.4
47683.5
90010.6
156889
231875
263076
83792.6
49016.5
27083.8
14152.7
8478.92
5759.15
5130.31
7134.89
14035.6
30168.8
61107.8
110383
169579
203144
43310.6
21052.2
9723.23
4243.1
2312.21
1704.63
2037.19
3967.86
9449.86
21785
44225.1
77967.7
117399
147014
25974.7
10694.2
3888.68
1389.36
684.767
623.281
1169.2
2964.82
7507.11
16936.9
32839.9
55515.7
82991.5
110451
21615.1
8086.85
2673
1057.09
583.627
623.634
1277.12
3099.56
7179.34
14878
27050.7
44271.3
67900.2
98151.3
26002.4
9198.47
3426.08
1765.75
1164.38
1190.75
1969.84
3926.8
7804.91
14516.8
25030.6
42193.4
71932.2
109206
40589.2
13481.1
5744.66
3541.94
2607.66
2488.05
3322.45
5404.51
9241.41
15763.6
27573.5
53729.5
95115.7
146244
82370.3
24826.8
10582.5
7244.58
5796.11
5327.19
6061.03
8332.96
12807.5
21664.7
42991.2
88744
147070
215178
177186
67678.2
22638.9
14329.1
12532.1
11829
12674.3
15973.9
23354.8
43981.9
86580.4
158137
237149
314077
293656
166394
74677.6
35838.5
26231.1
24875.1
27069.2
34573
53043.2
98034.1
168581
264052
344419
398561
394948
290551
167497
86397.1
52980.3
45124.6
49668.7
66120
102636
170394
256896
337102
378322
386999
475164
415328
287716
172215
106284
78983.4
77164.4
96992.9
142027
207148
268742
302318
311311
310069
475938
350422
250621
164917
98641.3
60669.4
47172.1
49122.5
67399.3
106029
168776
260229
362290
418202
301044
214382
141168
88402.6
54823.6
35411.2
26978.4
27641.9
39967
70861.7
124569
204059
290004
332442
165087
108148
66718.4
40077.3
25500.5
16910.4
12870.3
13885.1
23584.2
47876.3
90413.2
152140
221755
263624
80620.8
45750.1
25940.2
14523.8
9178.56
6280.6
5223.03
6781.28
13699.7
30419.7
60227.1
103423
154805
194712
36975.1
17278.2
8355.71
4135.69
2507.46
1861.37
2040.63
3841.66
9376.34
21804.4
42862.3
71640.7
104279
134758
19364.4
7569.23
2796.53
1104.75
615.599
584.014
1084.81
2823.56
7330.14
16590.6
31338.6
50312.4
71905.6
96289.5
15238.6
5493.25
1709.09
629.512
349.569
441.149
1044.12
2735.45
6593.12
13816.3
24774.6
38956.6
57203
84089.7
18305
6413.24
2162.23
1004.88
649.321
754.866
1448.37
3164.56
6626.8
12608.8
21678.9
35299.3
58778.2
95606.9
28566
9595.03
3671.05
2094.79
1519.78
1564.66
2323.59
4092.5
7370.85
12946.5
22697.6
42446.6
79131.9
133636
56557.9
17515.4
6897.84
4469.64
3546.8
3434.59
4233.96
6230.43
10031.2
17396.3
33374.2
70398.2
125014
198271
129991
44257.2
13707.1
9268.7
7992.25
7847.15
9040.25
12203.8
18755.1
33288.1
64412.2
124261
201949
287568
242286
125552
52558.2
23011.8
17068.3
16774.2
19253
25451.1
38492.9
69344.4
121730
206911
300387
383962
373473
248308
134361
62176.1
35746.4
30989.1
34867.8
46456.1
71011.5
120288
196103
292129
370762
423336
511305
389634
250341
140162
81293.4
57161.5
55247
70221.9
105215
168991
249999
319290
358718
382380
373600
265898
183814
120820
75293.7
49433.6
38669
40622
58138.4
96088.5
153129
225318
308252
378768
236622
167073
109163
69693.4
44930
30309.9
22679.5
21867.9
32377.6
61228.9
110507
174145
237294
281942
133082
87394
54138.2
33675.2
22152.3
15135.8
11269.8
11342.5
19301.3
41051.6
79001.6
127719
177540
217889
64360.6
36114.8
20790.4
12580.7
8365.35
5849.96
4668.68
5689.35
11637.4
26797.7
53212.1
87160.4
124169
158909
27433.2
12379.6
6229.79
3514.02
2348.44
1766.69
1800.88
3255.23
8065.98
19100.8
37722.4
61305.7
85738.9
110974
13131.5
4769.21
1788.28
811.597
522.413
504.576
895.436
2363.41
6285.51
14483.5
27728.1
44193.5
60552.2
78850.3
10124.1
3335.49
952.824
327.665
191.202
288.031
770.401
2168.81
5452.07
11761.8
21574.3
34007.1
47458.8
65410.8
12218.1
3976.58
1180.45
475.598
299.714
417.807
954.106
2310.44
5159.75
10269.4
18127.3
28894
44265.4
70405.7
18718.1
6047.94
2043.22
1055.53
745.63
845.822
1432.02
2785.96
5400.96
9977.82
17600.6
31036.9
54715.1
100673
35079.4
11001.7
3975.36
2435.81
1913.33
1954.14
2624.25
4164.99
7136.98
12819.2
24472.8
47978.8
87497.8
152611
79861.9
24498.4
8207.47
5515.56
4730.54
4837.78
5955.83
8550.28
13782.4
24320.2
45790.9
85368.5
144573
216751
155621
77986
30438.6
12610.9
10753.5
11210.4
13695.4
19074.3
29354.9
48601.8
81997.2
138324
214986
287262
267717
167543
84383.3
34929.9
21605.7
21776.9
26067.6
35125.1
51638.2
81125.2
127593
195864
274330
351061
391411
270064
167360
90378.5
51138
38679.3
41058.3
52790.7
75349.1
117733
180555
247274
314050
394167
380946
399466
454788
569058
776348
1.04073e+06
289469
301319
350566
464019
674410
981887
235007
240228
283688
402029
666143
965304
190814
195467
229461
338756
663076
969457
154467
161913
187590
278661
646011
977165
128778
139060
162163
236663
618427
980331
123080
135427
159312
226317
603380
981802
139058
154634
179523
241743
610047
981830
184083
202532
225388
280971
641482
992362
256602
274299
289029
335368
669587
1.01089e+06
335967
336910
335553
373420
660500
1.02856e+06
374452
349077
339087
378534
606561
1.05517e+06
343188
317240
317468
369188
557374
1.14309e+06
285197
279574
301177
374909
561561
1.37327e+06
390626
394468
419990
498429
731478
1.44862e+06
298319
303320
329475
404977
611600
1.30764e+06
244564
246121
270825
346783
565811
1.19032e+06
194750
200024
223849
293221
526043
1.08613e+06
150120
162290
187691
249510
486949
991712
118792
135984
165681
225089
462708
908369
111125
130472
162984
220524
463474
859315
128281
149208
182200
236190
483599
836105
174316
196531
227435
272676
523606
851583
245644
270420
294923
324104
558696
903213
327714
345989
353140
362518
565834
988397
390669
382433
366793
367645
532465
1.11022e+06
394214
365439
341702
351239
503826
1.29877e+06
347808
320027
306905
343722
526378
1.60712e+06
392000
410286
414411
449778
658827
1.66421e+06
285742
308859
325755
361330
525097
1.3626e+06
229829
249973
270445
305749
434730
1.11719e+06
178430
202302
229930
269445
374998
919970
133207
162558
198528
246183
342430
773243
100562
131760
175749
232795
334778
676821
88510.3
119745
169006
230555
343444
633320
99110.5
128664
178246
237310
365549
631149
133767
161450
208999
259256
389900
660494
187468
216492
260733
298755
417880
726057
246829
281712
321122
338866
439452
836465
306549
340550
366381
362449
440691
991665
357169
380400
384759
370392
442089
1.1945e+06
385866
396864
380870
370821
484586
1.47424e+06
248545
263056
309990
411151
639597
1.52995e+06
228925
228219
267648
358849
581587
1.42163e+06
218289
206823
230868
311037
537387
1.33999e+06
203398
188446
200824
267380
496067
1.27105e+06
177823
168781
176956
233559
461409
1.20637e+06
143821
148738
164511
219731
447375
1.14819e+06
118409
137228
166710
228118
466056
1.10368e+06
110040
142721
185705
254735
515142
1.08985e+06
127893
174588
227535
301128
588410
1.10779e+06
176794
239602
297577
365841
656820
1.12144e+06
260324
333160
379196
423016
668004
1.13196e+06
365464
418930
428545
436311
600486
1.13826e+06
445557
451031
420076
403025
516014
1.18737e+06
452964
420306
369821
363152
486366
1.3475e+06
288032
272130
285439
363106
609202
1.75577e+06
265632
241710
249796
308895
513064
1.51473e+06
252005
224445
226702
272766
445908
1.31909e+06
222088
203005
209403
250883
399681
1.15867e+06
173292
173418
192307
239423
376780
1.0291e+06
123861
142168
178141
239217
383473
931856
93015
123110
174059
247150
414243
886097
84818.8
124645
186530
268297
471657
886994
103212
155161
225166
310434
546176
912341
151764
220683
299207
377448
617873
962909
231126
318732
399360
447632
640294
1.0318e+06
338942
426683
481180
476671
581887
1.11514e+06
451125
506356
502389
447383
498692
1.23652e+06
516406
522738
458964
394426
474412
1.45332e+06
379662
376537
357453
381568
569159
1.54146e+06
300896
311651
313660
340854
476743
1.25668e+06
258275
277814
291068
319388
414823
1.04101e+06
207570
237522
269244
313417
387099
879275
148927
188396
242510
310436
383646
764336
101157
140706
210077
304069
395994
692935
72557.3
110963
187620
295631
413463
668307
61212.6
101110
180710
292868
443830
676273
69564
116582
196861
307346
492136
708759
102060
159812
244434
353641
534929
758604
156019
227156
326282
424086
558195
836545
225375
310284
423598
485065
540854
948630
314982
410795
510526
507531
500905
1.10311e+06
420266
514415
559183
496331
505807
1.3338e+06
1.31317e+06
1.03842e+06
670217
590381
546847
490823
1.32759e+06
1.25518e+06
648776
509183
419862
348344
1.2962e+06
1.22361e+06
526549
364462
274364
215481
1.19377e+06
976369
373532
235064
168457
127210
1.07987e+06
690029
258728
155246
108217
77039.2
994514
491262
195762
118362
80761
52812.1
940715
383649
170937
109613
76099.5
47215.1
939175
340237
172153
123704
94130.9
59316.6
971324
334658
190088
156130
136662
93319.6
1.02204e+06
354914
217439
196166
200254
162991
1.08692e+06
389316
248902
230367
257625
251730
1.16428e+06
427007
277690
254379
293574
318510
1.26591e+06
468898
307241
274917
311632
352515
1.42577e+06
532689
348474
307807
344337
393811
1.50703e+06
878549
626008
605317
567090
497950
1.35322e+06
1.04725e+06
617789
520569
429793
353586
1.2101e+06
1.03313e+06
507965
371343
278541
218667
1.05546e+06
834508
364299
239911
170026
125799
922055
608378
254493
155423
104895
70793.8
829532
444937
196290
113690
71147.6
43204.3
769748
353076
175587
102063
61270.3
35071.9
757439
316495
181211
115730
73561.6
42214.9
788262
311162
204787
154287
112224
66428.5
866912
321531
234673
211681
185860
121303
981756
346296
262719
265575
274127
219277
1.12681e+06
384151
286489
303454
344350
315707
1.30547e+06
435542
311252
327510
386736
391171
1.54512e+06
514188
350152
367245
456092
500633
1.63378e+06
728599
575303
553908
477790
391558
1.36193e+06
769579
530603
438565
339947
270235
1.11817e+06
714542
427947
307011
217396
167854
917940
585894
316846
204301
135695
97312.3
777846
471136
233997
135320
85514.3
53921
684991
394486
192637
99986.7
56984.2
31552.5
621404
348862
184060
91122
48140.6
25019.9
591414
334430
198174
104783
56091.8
29387.5
603231
339551
230262
142659
82909.7
44001.8
664037
355479
275371
210044
140848
78019.8
769970
376217
319765
288761
230295
152931
916446
412640
360599
362582
322935
238169
1.1124e+06
468412
401251
425777
410042
336128
1.37538e+06
542721
455632
521680
557362
498859
1.13173e+06
927073
578778
467978
419371
405524
1.14777e+06
1.09699e+06
569569
449771
396916
374593
1.15028e+06
1.13076e+06
499271
372594
315469
286822
1.09234e+06
985544
381534
267933
220022
195336
1.00976e+06
772368
274612
181952
148347
130744
949006
615693
211429
135392
108301
92976
922089
527915
190546
122376
94492.6
76429.7
916794
500093
201752
137519
106567
80444
935291
517926
236373
176427
145320
107676
953518
550097
290040
230902
207714
166178
970471
571609
344395
286165
278016
247168
997420
588169
397716
345738
353435
332889
1.05601e+06
629378
467882
425707
442367
424184
1.17106e+06
792028
609343
566162
590303
577357
1.40607e+06
793685
509523
445638
419485
412556
1.22528e+06
893556
507998
437121
400175
382028
1.08894e+06
902111
455091
369575
321366
295005
960583
786477
358996
273335
228779
204589
851654
624978
264983
189337
156354
137699
783428
501627
206766
138771
110378
94502.2
760119
427928
185894
119872
89466.8
71866.7
776601
398162
194141
129970
94793.5
70810
832905
405706
224858
168920
130694
93334.8
922710
437485
269609
229048
199013
149482
1.02952e+06
476741
319332
292727
281765
235278
1.15122e+06
516070
370769
358051
368535
329994
1.29403e+06
572224
432869
437395
464027
428734
1.48312e+06
723053
552389
573285
625671
597073
1.63147e+06
629348
456729
422557
399626
377989
1.32564e+06
617927
438387
391155
351928
322650
1.06265e+06
575740
388720
324794
274560
245081
857086
503440
318093
248322
201811
175856
717567
430638
246735
178819
143034
121831
635219
382399
201681
132932
100278
82687.2
591244
347081
185420
112644
77995
60458.6
582307
329225
192107
117353
78075.4
56946.2
616608
332287
217172
148720
102561
71587
711267
350628
256160
206502
157822
111348
859216
389163
302595
275550
233758
175515
1.06172e+06
450810
357713
351627
321905
254396
1.3117e+06
537664
429175
440657
419863
344924
1.6219e+06
674440
540122
582591
583772
501020
169070
122990
86030.9
60455.5
43106.1
32045.2
25485.7
23519.4
30134.2
49920.2
83157.9
126290
180047
247527
101241
72940.1
49342.1
34251.5
24594
18193.8
14042.4
12455.7
16427.1
30765.7
58309.9
96084.2
139460
186608
55399.7
36123.2
23290.7
15905.5
11445.6
8414.86
6453.93
6038.75
9332.28
20155.4
41322.4
70755.7
104214
141543
25672
13866.2
8288.61
5555.25
4051.58
3026.53
2451.13
2838.2
5704.46
13760.8
29293.8
51416.9
77357.5
106829
10686
4410.88
2224.87
1413.2
1046.89
837.87
862.431
1567.73
4074.68
10282
21855.1
38545.4
58287.2
80726.6
5558.06
1731.29
590.15
289.016
207.369
216.655
412.391
1169.96
3345.56
8277.58
17138.7
29838.7
45063.2
62518.5
4804.54
1328.78
326.878
99.0773
60.6097
112.602
349.214
1090.71
2998.04
7024.22
13990.9
23992
36407.2
51429.3
5861.01
1620.35
410.105
132.856
81.5512
144.847
403.814
1129.32
2833.28
6217.01
11910.8
20229.4
31273.4
46283.6
8506.78
2428.27
731.31
330.421
225.838
291.685
580.512
1311.19
2886.84
5870.89
10907.4
18801.9
31036.9
50483.9
14034.3
4255.57
1548.39
914.436
712.65
763.869
1107.93
1919.46
3573.3
6735.02
12581.3
23159.5
40746.6
68442.7
26326.3
8857.36
3521.29
2403.38
2087.24
2191.32
2771.99
4058.79
6652.31
11772.7
21573
38546.6
64393.1
99552.8
52146.7
22739.1
8530.75
5730.86
5385.25
5851.04
7216.38
9904.09
14964.5
24196.7
39832.3
64710
99161
138869
102545
51434.7
22276.6
12478.6
11993.5
13194.4
16049.2
21119
29832.3
43703.1
65108.8
97136.1
142130
188342
156332
93777.6
55931.8
32280.1
24428.1
25371.5
29673
37618.3
50497.9
69843.7
98223.5
137162
193196
261914
78664.6
60865.7
45685.1
34137.3
26703.6
21442.2
17802.7
15668.1
16940.2
24887.4
42199
68331
101890
147499
44811.5
32747.9
23458.3
17508.1
13733.7
10957.9
8949.45
7803.42
8888.5
14890.1
29078.1
52380.9
82624.2
118915
22743.4
14332.9
9692.26
7159.47
5673.14
4538.34
3715.36
3435.25
4698.2
9552.12
20770
39526.3
64237.2
94314.7
10140.2
5051.85
3068.41
2225.67
1783.86
1456.86
1271.11
1462.91
2763.76
6693.21
15361.3
29977.9
50068.2
74843.2
4651.01
1687.71
792.065
526.473
418.732
365.833
413.411
770.096
2008.82
5283.35
12166.6
23731.5
39833.2
60110.7
2965.11
822.21
243.716
111.113
80.709
93.9343
200.109
589.467
1739.77
4547.85
10170.5
19456.3
32502.1
49240.2
2742.83
700.261
163.432
45.617
26.7937
54.0228
177.135
574.131
1651.99
4115.26
8834.83
16503.3
27403.5
41918.7
3202.72
829.29
205.768
63.5626
39.0995
72.3071
209.774
616.834
1641.25
3844.19
7903.52
14441.5
23919.7
37106.7
4302.28
1171.7
363.441
162.44
113.538
149.825
308.366
737.358
1734.48
3764.05
7394.3
13291.6
22166.2
35380.5
6506.87
1934.41
800.12
486.455
384.155
411.179
597.666
1071.84
2096.3
4100.11
7714.23
13846.8
23822
39282.4
10970.1
3737.05
1899.97
1392.38
1209.07
1236.39
1511.07
2167.26
3517.87
6131.09
11002.8
19510.8
32898.2
52313.7
21608.7
8062.66
4370.94
3573.08
3358.18
3518.18
4130.53
5400.93
7851.93
12396.7
20375.6
33118.4
51211.7
73106.2
42231.1
18580.7
9557.96
8073.51
8012.46
8673.63
10176.3
12840
17504.7
25246.3
37431
55395.1
79418.1
101604
68308.1
38217.1
23165.2
16902
16630.1
18192.4
21309.5
26318.6
34225.2
46026.3
62991.6
87017
120080
149881
28468.7
22469.5
18377.9
15138.1
13248
11679.5
10392.1
9267.6
8894.32
10460
15972.5
27096.3
44805.3
71513
14470.3
10224.9
7909.89
6460.56
5736.46
5103.68
4550.66
4083.7
4179.06
5738.94
10474.8
20372.8
36904.5
61064.1
6791.57
3902.21
2749.76
2217.22
1981.08
1776.63
1610.81
1547.69
1925.99
3458.88
7529.53
15967.5
30357
51824.1
3276.54
1362.64
777.932
597.926
528.811
480.267
468.141
567.961
1029.47
2427.61
5875.82
12950.1
25180.8
43754.8
1942.62
567.635
210.727
131.542
110.028
106.496
138.378
280.584
747.646
2033.59
5061.35
11154.6
21663.7
37575
1502.4
364.868
89.2842
31.9024
21.128
28.1109
70.4048
222.272
684.016
1896.91
4644.36
10007.7
19092.1
32767.5
1394.97
331.884
74.4085
18.4303
9.26781
19.3778
67.4673
229.555
699.204
1877.83
4436.38
9262.21
17274.9
29288.9
1529.57
381.24
93.4037
27.4584
16.2418
29.2676
85.9336
264.542
753.534
1919.68
4340.11
8752.39
15949.7
26707.7
1895.1
512.399
161.939
71.824
51.1385
66.5882
136.622
341.009
862.653
2036.4
4359.76
8464.71
15058.6
24965.1
2609.36
820.443
374.453
232.405
184.545
195.517
282.294
523.185
1088.47
2277.89
4527.27
8406.82
14581
23963
4000.3
1590.47
968.218
730.194
622.843
615.268
727.378
1035.04
1699.49
3009.05
5414.92
9515.61
16083.1
26045.8
7050.08
3355.6
2405.04
2050.11
1867.92
1851.58
2041.39
2526.34
3494.9
5288.01
8470.05
13712.6
21679.9
33107.4
13249.4
7032.23
5411.42
5006.73
4864.86
4985.93
5471.9
6471.95
8274.24
11380.9
16428.9
24067.4
34636.4
47094.9
24250.9
14586.9
11182.5
10640.7
10915.2
11688.9
13075.1
15349.9
18961
24519.2
32685.3
44292.5
59603.3
75080
8533.09
6500.55
5597.08
5108.98
5103.52
5116.12
5041.3
4809.56
4566.33
4644.69
5857
9326.69
16414.9
29071.8
4117.22
2602.58
2052.22
1836.1
1848.82
1874.95
1880.94
1835.71
1842.78
2166.61
3435.99
6661.79
13250.8
25022.4
2051.9
946.738
623.017
534.756
533.06
540.743
556.083
584.629
702.968
1122.56
2343.68
5268.62
11334.6
22569.3
1228.39
378.439
166.453
124.583
119.515
121.553
134.827
178.351
319.136
737.633
1857.67
4503.96
10062.3
20536.6
894.707
210.049
54.5016
26.1103
21.4546
23.1858
35.3612
79.4802
221.66
635.504
1720.77
4257.77
9534.99
19382.9
732.357
159.19
33.497
8.67085
4.3572
6.41777
18.9821
65.2467
214.883
645.746
1750.86
4267.59
9339.33
18488.7
663.635
149.376
32.1871
7.08078
2.82548
5.57371
20.4446
74.1435
243.999
719.005
1890.95
4443.49
9354.29
17839.5
704.987
171.05
40.3961
11.0042
6.02473
10.0898
29.6345
96.2697
296.75
830.83
2081.1
4657.43
9369.76
17176.3
844.38
226.931
69.614
29.8895
21.2642
26.8733
54.2011
140.615
382.39
984.369
2304.23
4864.86
9342.52
16521.9
1108.64
368.74
171.415
105.033
82.5128
86.3716
124.644
238.651
527.853
1188.69
2542.45
5035.75
9230.88
15788.7
1646.94
765.019
489.894
364.552
300.767
287.255
334.64
484.041
827.658
1544.72
2927.24
5372.13
9356.69
15511
2873.47
1737.65
1336.84
1121.91
977.715
918.014
966.41
1163.81
1592.87
2417.31
3918.26
6477.79
10576.6
16842.9
5314.61
3784.28
3227.69
2961.39
2755.87
2665.93
2751.32
3067.97
3712.75
4882.5
6873.92
10054.4
14874.5
21787.3
9842.27
7602.94
6806.88
6675.87
6682.34
6822.02
7200.87
7937.83
9184.31
11276.7
14542.7
19365.8
25979.9
34346.3
2859.48
1935.29
1612.08
1541.27
1682.54
1885.32
2072.58
2166.38
2170.05
2167.57
2479.56
3641.96
6441.48
12099.1
1433.85
729.741
522.45
480.181
521.811
588.094
659.281
709.481
747.657
848.253
1246.6
2368.39
4931.98
10134.4
808.561
275.567
144.023
121.82
129.486
145.123
166.164
191.302
237.837
369.943
763.126
1781.6
4148.78
9228.52
551.426
130.674
39.0744
25.1679
25.0436
28.1289
34.7711
49.9395
92.7834
220.38
582.923
1526.61
3789.54
8808.64
418.69
84.7934
16.7819
5.59408
4.06853
4.81448
8.38828
20.7041
61.6988
189.609
558.581
1532.11
3871.23
9004.43
337.385
67.8712
13.0813
2.72058
0.981145
1.45034
4.81685
17.8971
63.4932
207.552
620.422
1690.28
4182.04
9407.7
303.387
65.3908
13.3307
2.61704
0.855964
1.53542
5.84459
22.6034
80.3795
258.586
750.119
1960.94
4621.08
9865.47
324.939
75.7524
16.5233
4.02181
2.05767
3.27899
9.64868
33.0276
109.644
334.071
918.14
2264.54
5023.33
10124.6
394.705
101.215
28.2516
11.1922
7.91211
9.89227
19.8598
53.5073
155.596
434.151
1109.19
2556.79
5336.34
10215.9
525.336
170.556
74.4518
43.238
33.3853
34.7465
50.2847
99.055
232.134
563.99
1308.95
2805.72
5534.6
10124.2
807.253
384.155
236.846
167.746
133.489
124.61
145.052
215.072
385.849
770.005
1569.74
3088.56
5737.19
10027.3
1497.7
956.689
714.742
572.052
477.338
430.789
444.241
538.201
755.607
1199.84
2058.89
3616.27
6239.5
10405
2945.13
2234.56
1873.04
1644.75
1464.75
1356.94
1352.44
1475.4
1766
2331.21
3350.58
5093.91
7913.8
12336.2
5636.87
4664.91
4186.46
3987.6
3833.01
3753.33
3816.55
4066.97
4555.53
5442.8
6908.32
9165.78
12542.5
17614.7
1190.54
682.025
503.512
457.397
500.851
586.922
689.107
773.742
832.385
885.663
1062.45
1612.57
2950.15
5745.06
613.436
244.356
143.868
123.518
133.558
155.304
182.664
208.432
236.266
292.741
470.888
960.887
2110.51
4554.72
364.786
95.7848
36.1566
26.9678
28.1235
32.1142
37.9258
46.0516
63.4891
114.462
266.322
672.743
1666.25
3961.96
255.075
50.6576
10.5537
4.98686
4.58636
5.18283
6.65463
10.6463
23.6176
65.7071
192.971
548.238
1475.94
3765.67
190.922
35.321
5.98059
1.35916
0.686746
0.77318
1.53585
4.58946
16.0379
55.548
180.587
544.894
1525.64
3971.91
152.428
29.5528
5.40127
0.953657
0.223675
0.261747
0.998039
4.2493
16.9799
61.9156
205.345
621.887
1722.8
4372.55
142.022
29.9965
5.75351
0.990773
0.242216
0.339243
1.34475
5.7377
22.7151
81.4225
263.137
768.276
2029.57
4866.79
160.644
35.8921
7.10611
1.47989
0.646297
0.899541
2.53767
9.18034
33.4133
112.801
345.131
950.993
2360.65
5306.76
203.003
48.45
11.9617
4.2043
2.83786
3.36309
6.29039
16.8504
52.0606
159.169
451.541
1159.58
2688.35
5671.98
278.632
83.9005
33.0317
17.7367
13.2838
13.6668
19.0984
36.4972
87.5355
228.298
582.237
1376.24
2977.02
5932.27
449.374
201.637
114.84
75.7516
57.8762
53.8288
62.8133
92.5595
167.975
350.799
767.893
1636.77
3284.6
6168.75
884.508
541.115
376.765
281.523
223.295
198.499
206.846
255.792
369.172
608.37
1097.03
2045.16
3754.86
6628.81
1835.59
1344.06
1059.89
871.594
734.065
660.355
655.102
727.94
901.242
1235.74
1845.08
2934.61
4797.79
7886.56
3615.13
2921.03
2504.59
2250.83
2048.39
1937.4
1935.4
2056.35
2333.84
2852.41
3712.09
5082.45
7241.4
10757.9
567.232
277.845
176.902
142.973
145.601
167.023
202.28
242.132
285.217
334.765
443.974
741.05
1469.96
3028.96
286.586
91.8512
42.736
32.0822
32.5475
37.2519
45.3023
55.3146
69.579
98.8021
183.414
418.103
991.06
2248.08
167.402
35.7976
9.48353
5.68497
5.57062
6.33914
7.83856
10.4459
16.9751
36.9536
98.728
272.62
719.039
1797.16
113.531
20.0124
3.19055
0.960821
0.730912
0.824461
1.16986
2.28202
6.33388
20.5697
66.7081
204.211
587.48
1604.67
83.7009
14.8528
2.3748
0.403552
0.114029
0.109253
0.27652
1.04415
4.23717
16.3109
57.912
189.839
578.771
1652.64
69.4437
13.459
2.39876
0.378123
0.0611391
0.047506
0.204763
0.986508
4.37422
17.5662
64.0381
213.573
655.032
1851.5
70.3272
14.7619
2.68274
0.41343
0.0779644
0.0782274
0.29926
1.3715
5.95436
23.5102
84.0056
272.444
803.737
2159.6
85.7993
18.3942
3.3492
0.61502
0.236721
0.278496
0.673924
2.41857
9.42679
34.8407
117.706
360.251
997.089
2502.42
113.63
25.2641
5.60448
1.785
1.16931
1.30167
2.1322
5.26203
16.5627
54.3582
168.816
478.58
1226.91
2856.78
161.763
44.7162
15.8622
7.96773
5.85765
5.92877
7.81646
13.8738
32.4904
88.0324
241.475
622.392
1470.35
3184.23
271.558
111.462
58.0503
35.796
26.5172
24.6502
28.6432
41.2731
73.4557
155.429
356.78
813.255
1754.95
3535.64
554
313.196
200.702
139.275
105.496
93.2175
99.036
125.148
183.443
307.763
572.529
1119.72
2174.41
4066.42
1190.48
812.317
592.299
451.736
360.291
317.292
319.609
368.577
476.385
678.657
1049.61
1739
2979.45
5138.19
2408.1
1829.95
1460.65
1223.4
1054.59
966.938
964.866
1051.35
1247.56
1598.66
2175.03
3108.15
4615.91
7164.55
303.959
132.26
73.345
50.9186
44.9683
46.6103
54.3831
65.8074
82.8731
109.662
174.442
353.006
797.704
1769.51
144.773
39.9665
15.2166
9.58188
8.52233
8.88963
10.4344
12.9283
18.0055
31.3418
73.7015
198.627
518.784
1241.43
79.0665
14.9996
3.13547
1.43513
1.22164
1.27954
1.55644
2.23984
4.53028
12.6831
40.2665
123.665
348.873
905.419
51.5083
8.73411
1.29576
0.270097
0.141358
0.142796
0.219392
0.542825
1.90508
7.1779
25.6722
84.5555
257.077
731.403
39.0922
7.11767
1.1711
0.180238
0.0314458
0.0198478
0.0609638
0.277467
1.26276
5.29164
20.2122
70.7798
229.512
696.938
35.8315
7.18297
1.27897
0.191245
0.0247778
0.0110872
0.0477351
0.251169
1.20924
5.25009
20.6513
74.2705
246.115
755.266
40.8074
8.54723
1.4947
0.214693
0.0329684
0.0223245
0.0721489
0.338958
1.58651
6.81345
26.5046
93.6355
301.635
888.63
53.7779
11.08
1.87671
0.305053
0.101749
0.104741
0.200487
0.646795
2.60512
10.4161
38.3998
128.365
388.519
1068.68
74.3866
15.4179
3.01051
0.829819
0.528688
0.575614
0.819516
1.70722
5.09444
17.458
58.583
181.097
507.596
1293.7
108.926
26.9601
8.13723
3.71188
2.75342
2.84586
3.57836
5.67864
12.0458
32.083
92.1642
255.858
656.691
1546.92
185.304
66.4646
30.164
17.2069
12.7701
12.3117
14.43
20.074
33.4798
67.7096
156.481
374.826
866.42
1879.01
380.889
190.338
108.424
69.4528
51.7502
47.2312
52.2073
67.3032
97.9938
161.229
298.01
597.319
1215.05
2405.19
830.945
510.262
333.644
234.379
180.764
161.71
170.824
207.344
278.193
404.473
633.136
1067.27
1882.68
3378.63
1720.48
1195.06
861.332
663.915
547.042
499.348
516.449
595.56
749.962
1008.42
1419.33
2078.42
3157.59
5031.87
179.74
70.3575
34.4919
20.7815
15.8386
14.5317
15.7371
18.6273
24.8301
38.7562
76.5011
183.265
457.579
1079.05
82.2111
19.7536
6.10576
3.15248
2.4029
2.23432
2.4769
3.09765
4.98286
11.3984
33.6417
103.03
289.896
726.055
42.7968
7.46958
1.26137
0.394149
0.266709
0.250756
0.304289
0.515465
1.42965
5.14417
18.6917
62.092
184.042
489.686
27.9963
4.84657
0.730829
0.115073
0.0303303
0.0229227
0.0433095
0.154137
0.683197
2.91841
11.2792
39.1517
122.969
355.181
23.0084
4.46203
0.774919
0.11777
0.0153616
0.00448533
0.0157341
0.0859511
0.43559
1.97023
7.96303
29.0786
97.298
303.471
23.7284
4.94402
0.888776
0.131348
0.0155723
0.00374793
0.0127637
0.0713011
0.369169
1.71162
7.12672
26.9629
93.8629
304.048
29.91
6.25475
1.07195
0.150194
0.0214521
0.0105423
0.0222396
0.0915694
0.439681
2.00633
8.33955
31.5306
109.104
347.667
41.6094
8.35579
1.36572
0.2129
0.067413
0.063004
0.0900087
0.208406
0.747684
3.05337
11.999
43.3272
142.665
429.372
59.2144
11.8434
2.17861
0.560543
0.349192
0.371169
0.469793
0.760387
1.80579
5.75569
19.8553
65.612
199.638
555.793
88.4011
20.6701
5.66125
2.40279
1.77638
1.85519
2.26143
3.20283
5.67314
13.2048
36.7207
105.649
289.264
734.375
150.689
49.4614
20.2048
10.7803
7.97645
7.93655
9.41821
12.7066
19.4912
35.5185
77.0207
184.576
443.917
1018.47
305.133
138.618
71.5477
42.6938
31.3469
29.7047
34.125
44.6901
64.0262
101.048
178.642
352.282
727.881
1493.57
658.331
370.67
220.27
143.598
107.62
99.1266
109.985
139.452
191.493
279.602
433.605
724.658
1283.18
2347.06
1370.25
879.925
577.459
411.298
324.546
299.915
324.529
396.021
521.643
723.397
1034.95
1526.39
2329.78
3748.58
264367
364030
452489
499881
521508
545644
185876
268830
360869
429117
482830
548497
134349
202162
285646
362984
448726
530837
94908.6
145086
213788
295941
413055
498508
66663.2
102253
157688
244509
379232
466027
49100.5
74576.1
119414
210317
350131
437483
39973.9
61082.3
101581
193055
337209
417026
38149.1
58811.3
99568.3
186844
338377
395760
46514.7
69261.3
114068
200115
347440
375424
66251.1
93056
145978
233255
354538
361927
94968.3
128110
191498
277854
362427
356055
130815
171790
241563
319063
371539
359099
179363
227159
293096
352704
388571
375424
243775
296448
346303
382812
407693
397049
125160
179324
249315
325481
391261
431883
97784.1
147374
216703
300390
388459
466772
75494.3
118778
181387
267598
382707
484852
57481.7
92504.3
145407
228842
367677
463997
44759.9
72479.2
117023
196225
344666
427847
36001.1
58239.9
96115.1
172532
314306
385351
30405.9
49768.5
84468.7
162162
286741
348229
27389.9
45924.6
80783.1
157007
262955
317214
28593.2
48445.6
87979.5
161752
248399
290594
36564.4
60035.6
107156
176409
242196
273475
52716.1
82939.3
136715
198098
245568
267606
75181.2
113348
169067
222561
255979
269061
103506
148806
203293
250050
275619
281127
143573
194219
245239
284734
305955
305471
50479.7
75161.5
111764
164043
236148
320215
41629.6
67135.2
105749
164952
251156
356394
35187.5
59561.3
98080.9
160347
256669
386616
29513
51809.8
87643.3
147968
250223
405679
25633.1
45709.5
78088.2
135662
243176
404172
22459.1
40342.3
69049.7
123076
233845
370787
20032.7
35983.4
62082.3
112879
219174
323940
18011.2
32441.6
56971
105356
198226
276083
16916.2
30555.3
55275.9
103533
179911
235228
17889.3
32087.6
59255.1
107383
167347
206833
22872.6
40002.6
71707.4
117751
164114
195629
33145.2
55117.8
90641.1
133232
171548
199141
48958.2
76163.9
113916
155962
192460
217774
71968.6
104405
145024
189900
227837
249531
17064.3
28323.9
46241.4
74617.7
122438
203553
14271.4
26080.7
45605.6
78374.6
136482
238167
12835.1
25113.1
45936.8
82629.6
151132
274700
11909.6
24404.8
46007.8
85201.4
161395
305286
11714.5
24299.8
46252.5
86670.1
167041
324734
11515.5
23812.6
45047.2
83897.2
161712
321405
11169.9
22821.4
42494.5
78119.3
149642
293346
10590.2
21201.9
38827.7
70685.7
135201
247273
9917.58
19393.1
35299.5
64411.9
122338
200809
9480.58
18094.7
33123
60588.8
109479
164126
10129.6
18938.4
34785.1
62143.6
102445
144352
12993.5
23504
41671.2
69455.9
104382
140296
19321.8
32849.3
53986.3
83058.2
117514
153277
30263.1
47621.8
72356.5
104892
143975
183075
5977.2
10967.3
19909.8
36236.7
68424.8
134356
4715.9
9760.32
19437.4
38464.6
77376.7
159155
4243.45
9582.06
20248.3
41940.9
87521.7
186408
4168.21
9955.72
21859.4
46345.3
97929
213033
4521.2
11006.7
24310
51356.4
108680
236792
4966.05
12002.4
26131.6
53859.5
111736
239111
5326.19
12565
26496.6
52768.1
106918
224610
5478.85
12498.6
25385.6
48817.8
96404.8
198299
5424.01
11918.4
23449.4
44086.9
85155.9
166430
5227.4
11063.5
21242.4
39217.9
73856.8
133594
5249.91
10701.1
20213.5
36831.5
66842.2
112095
6038.3
11810.1
21880.9
39014.5
66641.5
104618
8399.64
15475.9
27529.8