/*--------------------------------*- C++ -*----------------------------------*\
| =========                 |                                                 |
| \\      /  F ield         | OpenFOAM: The Open Source CFD Toolbox           |
|  \\    /   O peration     | Version:  v2106                                 |
|   \\  /    A nd           | Website:  www.openfoam.com                      |
|    \\/     M anipulation  |                                                 |
\*---------------------------------------------------------------------------*/
FoamFile
{
    version     2.0;
    format      ascii;
    arch        "LSB;label=32;scalar=64";
    class       volScalarField;
    location    "0.000176";
    object      p;
}
// * * * * * * * * * * * * * * * * * * * * * * * * * * * * * * * * * * * * * //

dimensions      [1 -1 -2 0 0 0 0];

internalField   nonuniform List<scalar> 
144746
(
201170
200796
199997
199477
199260
199084
199119
199070
199068
198979
198883
198559
198471
198510
201112
200648
199949
199483
199249
199079
198998
198868
198714
198464
198217
197905
197863
198041
201049
200605
200062
199627
199317
199136
198969
198741
198456
198085
197693
197259
196933
196895
200886
200367
199926
199579
199322
199108
198912
198619
198245
197797
197341
196865
196437
196241
200650
200185
199826
199527
199293
199079
198867
198526
198086
197543
197016
196526
196088
195916
200313
199927
199622
199358
199158
198965
198739
198402
197934
197338
196813
196342
195933
195739
199822
199569
199374
199166
198978
198785
198539
198221
197744
197191
196636
196161
195822
195745
199465
199240
199098
198919
198738
198524
198253
197933
197484
196972
196471
196057
195762
195775
198975
198861
198798
198670
198455
198208
197899
197548
197108
196639
196177
195804
195541
195572
198589
198468
198466
198345
198143
197863
197498
197097
196646
196215
195796
195489
195363
195536
198238
198062
198173
198005
197819
197493
197048
196584
196100
195663
195265
194986
194822
195047
198153
197779
197948
197680
197457
197103
196587
196066
195534
195090
194769
194595
194655
194890
198323
197660
197684
197419
197154
196800
196200
195599
195001
194521
194197
194050
194364
194579
198251
197553
197644
197434
197043
196672
196013
195414
194795
194389
194254
194341
195021
195344
201296
201064
200632
200352
200338
200298
200403
200396
200371
200160
199888
199341
198958
198634
201316
201050
200726
200509
200446
200372
200373
200265
200125
199826
199467
198911
198475
198343
201429
201233
201042
200829
200616
200488
200394
200205
199990
199598
199169
198556
197954
197649
201479
201206
201049
200867
200726
200506
200358
200118
199842
199436
199000
198388
197750
197332
201443
201209
201066
200891
200696
200498
200305
200037
199718
199320
198857
198298
197710
197298
201285
201094
200937
200773
200615
200411
200205
199946
199621
199235
198800
198330
197839
197449
200958
200869
200766
200618
200467
200268
200055
199796
199500
199116
198717
198345
197994
197716
200666
200583
200525
200376
200231
200066
199857
199633
199321
198998
198645
198337
198044
197888
200257
200310
200334
200253
200087
199888
199627
199427
199111
198813
198482
198239
198022
197942
199878
199953
200035
199980
199863
199660
199375
199187
198858
198545
198226
198013
197905
198021
199574
199650
199805
199756
199640
199415
199103
198880
198509
198190
197899
197707
197587
197784
199512
199381
199605
199527
199432
199201
198819
198546
198128
197788
197503
197371
197308
197581
199645
199261
199416
199330
199248
198967
198551
198138
197621
197197
196873
196772
196875
197102
199538
199213
199375
199304
199132
198753
198271
197755
197191
196796
196543
196598
197052
197155
204335
204012
203486
203176
203191
203118
203246
203175
202990
202479
201690
200582
199636
198591
204534
204244
203799
203535
203408
203309
203303
203102
202804
202205
201360
200345
199279
198506
204729
204547
204185
203865
203681
203411
203281
202981
202606
201950
201085
200076
198820
197884
204894
204608
204270
203952
203643
203430
203182
202804
202362
201698
200850
199864
198604
197623
204873
204565
204230
203883
203606
203321
203015
202615
202134
201483
200685
199739
198599
197614
204610
204327
204060
203731
203449
203142
202789
202353
201859
201225
200550
199678
198731
197773
204228
204013
203789
203489
203191
202870
202514
202094
201609
201057
200390
199674
198886
198069
203810
203648
203460
203201
202908
202556
202183
201755
201290
200814
200231
199612
198944
198203
203275
203224
203097
202889
202596
202215
201810
201355
200908
200466
199968
199471
198960
198345
202836
202790
202705
202521
202207
201802
201382
200894
200450
200000
199549
199124
198740
198287
202362
202324
202357
202168
201831
201390
200898
200344
199866
199374
198937
198544
198217
197914
202055
201846
201960
201726
201334
200860
200299
199702
199193
198650
198226
197880
197546
197358
201828
201544
201599
201323
200863
200330
199647
198996
198367
197760
197260
196929
196777
196683
201480
201002
201010
200741
200263
199675
198903
198247
197523
196973
196502
196327
196423
196179
200077
201553
202028
203028
203861
204652
197490
198775
199814
201714
202978
205019
197058
198530
199393
201286
202161
204801
196151
197520
198483
200677
201594
204752
195995
197126
198127
200232
201179
204782
195834
196882
197893
199893
200830
205376
195876
196823
197836
199831
200889
204457
195876
196728
197659
199639
200758
204535
195749
196615
197630
199658
200909
203932
195719
196540
197645
199563
200549
203486
195554
196522
197737
199547
200533
203114
195601
196624
197880
199412
200538
202849
195991
196817
198123
199261
200545
202691
195689
196379
197952
199470
200860
202202
199655
201060
201342
202075
202182
203280
197477
198176
198989
200635
201218
203390
197346
198109
198698
200249
200321
203346
196795
197401
197920
199766
199907
203504
196910
197323
197815
199556
199671
203619
197122
197453
197901
199448
199476
204202
197459
197765
198257
199729
199887
203481
197775
198101
198575
199787
200135
203325
197902
198302
198881
199997
200502
203127
198071
198487
199027
200115
200368
202955
197979
198469
199038
200142
200369
202632
197866
198348
198993
199977
200067
202487
198017
198326
199052
199688
200134
202238
197072
197266
198165
199229
200081
201677
199349
200409
200375
200942
201235
202526
197170
197503
197860
199387
200744
203919
196850
197073
197548
199047
200280
204325
196389
196282
196636
198465
199835
204218
196547
196140
196416
198198
199529
203590
196807
196222
196350
198048
199199
202613
197234
196578
196477
197688
198551
201847
197525
196997
196808
197599
198055
199789
197719
197183
196966
197313
197460
198230
197731
197269
197029
197030
196971
197178
197475
197073
196930
196991
196861
196752
196985
196706
196790
196960
196955
196790
196808
196512
196762
197132
197364
197825
195694
195216
195757
196674
197386
198757
196693
198282
198855
200041
201000
202434
194142
195878
196948
199143
200144
202745
194214
195795
196533
198745
199794
202919
193919
195297
196100
198528
199680
203077
194233
195322
196181
198593
199660
203311
194661
195523
196360
198656
199590
203506
195315
196065
196820
198967
199646
204138
195918
196648
197206
199064
199625
204353
196541
197231
197740
199586
200374
204195
196927
197820
198273
199946
200559
203689
197496
198204
198757
200301
200933
203576
197755
198403
199095
200528
201110
203602
198290
198836
199641
200767
201794
203813
197985
198489
199558
201036
202358
203935
197837
199043
199171
199783
199907
201418
195928
196704
197130
198770
198830
201419
195904
196514
196818
198446
198338
201626
195770
196029
196406
198148
198147
201884
196169
196133
196540
198191
198189
202102
196654
196510
196831
198289
198318
202273
197329
197209
197427
198678
198433
202986
197981
198045
198142
199318
199183
202775
198461
198648
198813
199892
199834
202913
198941
199319
199396
200471
200588
203041
199277
199686
199915
200975
201094
203114
199381
199784
200154
201210
201211
203115
199661
200001
200464
201369
201476
203350
199074
199198
199880
201142
201634
203386
196628
197436
197681
198058
198657
199898
195102
195180
195340
196560
197733
200735
195128
194974
195064
196360
197456
201224
195310
194795
194582
195950
197140
201438
195914
195130
194854
196109
197112
201368
196536
195659
195348
196505
197334
201131
197388
196507
196164
197104
197656
200550
198131
197458
197005
197562
197975
200243
198983
198457
198065
198450
198623
199614
199720
199338
198948
198958
198818
199006
200301
200008
199639
199570
199408
199334
200515
200201
199970
200035
199903
199985
200834
200573
200569
200873
201059
201754
200062
199903
200096
201062
201702
203151
206632
205348
204618
203153
202126
201515
206878
205279
204771
203428
202635
202093
206808
205305
204490
203125
202369
201686
206865
205479
204500
203076
202302
201461
207009
205090
204046
202627
201786
201064
206825
204694
203876
202271
201475
200706
207541
203419
203092
201444
200726
200133
206596
203041
202514
200811
200128
199664
206020
202610
201891
200056
199444
199051
205495
202189
201479
199548
199014
198514
205048
201894
201134
199141
198644
197953
204800
201936
201160
199283
198794
197821
204589
202092
201165
199352
198596
197570
204130
202756
202048
201069
200762
199325
205689
204208
203909
202478
201642
201206
206177
204286
204175
203078
202549
202176
206004
204344
203901
202831
202324
201845
205934
204477
203904
202945
202380
201888
205896
204178
203648
202707
202163
201674
205668
203750
203549
202436
201871
201444
206184
202861
202823
201665
201348
201059
205695
202118
202217
201032
200757
200689
205075
201678
201611
200267
200051
200133
204625
201187
201207
199744
199566
199658
204138
200803
200848
199313
199169
199132
203699
200810
200991
199497
199312
198983
203533
201079
200963
199519
199280
198840
203274
201980
202048
201479
201389
200315
207128
205892
205322
204199
203756
203844
206307
205548
205573
205292
205129
205221
205412
205405
205278
205277
205053
205072
205201
205530
205410
205649
205301
205272
205486
205804
205548
205637
205318
205156
207001
205960
205568
205247
205052
204825
207895
205978
205233
204744
204560
204357
208528
206011
205097
204191
203998
203893
208791
205256
204382
203327
203212
203279
208461
204426
203679
202583
202544
202643
207647
203553
202877
201781
201821
201892
206574
203309
202593
201521
201486
201438
205886
203045
202183
201263
201248
200963
204658
203383
203151
202880
202776
202125
204910
203745
202754
201374
200193
199517
205245
203614
202977
201675
200690
200118
205304
203788
202957
201597
200516
199675
205611
204191
203070
201671
200569
199738
205857
204279
202959
201546
200425
199610
206180
203979
202852
201348
200231
199433
205891
203644
202682
200970
200098
199364
207162
202980
202355
200608
199876
199271
206631
203024
202339
200436
199766
199125
206553
203258
202477
200511
199889
199207
206437
203388
202648
200716
200122
199264
206600
203945
203152
201532
200910
199877
206558
204716
203538
201986
201260
200277
206177
205527
205058
203909
203553
202359
203521
202265
201712
200384
199404
199087
204000
202337
201960
200951
200299
200153
204160
202622
202039
201071
200386
200020
204419
203058
202265
201356
200729
200462
204788
203154
202259
201533
200874
200538
204824
202886
202297
201482
200847
200539
205039
202686
202342
201316
200844
200471
205713
202321
202302
200991
200533
200355
206062
202007
202020
200622
200205
200141
205807
202219
202093
200478
200107
200044
205640
202261
202217
200503
200139
199933
205588
202640
202628
201159
200695
200214
205385
203415
202958
201450
200958
200259
205404
204277
204364
203490
203371
202255
201187
200373
199768
199080
198381
198664
200843
200484
200410
200322
200115
200500
200722
200864
200766
200992
200756
200999
201201
201692
201631
202022
201804
202080
202554
202645
202534
202926
202541
202686
204257
203723
203437
203232
202940
203058
206563
204350
203818
203256
203010
203089
208107
204894
204038
203045
202887
203044
209091
205177
204241
202848
202643
202830
209827
205270
204355
202835
202569
202738
210306
205605
204550
202919
202629
202615
210275
206042
205070
203634
203244
202907
209767
206536
205232
203866
203691
203199
208301
206991
206879
206260
206196
205305
206565
206130
205785
205519
205355
205113
205037
204855
204664
204281
203680
202737
201808
200706
206584
206222
205802
205468
205267
205059
204884
204678
204408
203956
203297
202378
201276
200147
206613
206262
205897
205557
205262
204969
204749
204460
204111
203609
202946
202034
200845
199674
206592
206169
205780
205425
205132
204823
204542
204210
203817
203278
202601
201678
200544
199320
206423
206007
205601
205240
204925
204602
204278
203893
203453
202912
202270
201420
200459
199359
206149
205759
205365
204994
204660
204321
203977
203589
203149
202613
201978
201212
200352
199403
205789
205410
205057
204699
204370
204017
203648
203236
202789
202267
201682
201021
200265
199503
205404
205042
204717
204373
204039
203667
203275
202851
202412
201908
201384
200787
200156
199446
204955
204639
204361
204036
203684
203301
202876
202433
201988
201506
201040
200515
200027
199429
204558
204209
203952
203646
203286
202887
202430
201959
201495
201011
200598
200164
199739
199270
204190
203845
203587
203271
202885
202460
201972
201470
200965
200477
200083
199726
199409
198994
203899
203435
203181
202874
202457
201981
201437
200884
200349
199849
199477
199168
198936
198550
203625
203128
202839
202502
202032
201490
200870
200252
199662
199087
198607
198259
198145
197993
203153
202506
202345
202041
201519
200969
200318
199639
198963
198346
197832
197598
197550
197668
208376
207898
207568
207132
206919
206739
206570
206404
206192
205841
205353
204637
203851
202977
208361
207917
207538
207173
206909
206622
206401
206159
205867
205459
204911
204152
203247
202236
208290
207817
207428
207044
206768
206487
206217
205905
205554
205083
204469
203692
202713
201766
208116
207625
207215
206843
206549
206247
205945
205590
205167
204661
204047
203261
202258
201253
207822
207345
206942
206568
206248
205926
205597
205218
204785
204254
203628
202878
201976
201089
207466
207042
206635
206267
205933
205590
205237
204840
204395
203873
203277
202573
201777
200968
207034
206645
206266
205909
205572
205209
204830
204417
203974
203467
202917
202287
201638
200962
206588
206230
205888
205529
205185
204800
204396
203969
203525
203044
202538
202004
201476
200893
206107
205778
205477
205124
204773
204369
203936
203493
203044
202591
202115
201694
201272
200793
205665
205341
205052
204705
204332
203912
203456
202990
202518
202058
201654
201297
200959
200585
205234
204921
204650
204317
203904
203443
202940
202442
201949
201470
201117
200819
200580
200323
204914
204555
204244
203868
203406
202920
202399
201877
201341
200838
200486
200242
200074
199886
204600
204255
203864
203480
202982
202434
201811
201212
200618
200091
199721
199516
199462
199346
204210
203748
203422
203051
202529
201925
201210
200551
199897
199364
198991
198926
198900
199147
209665
209245
209033
208730
208527
208251
207989
207776
207531
207201
206809
206237
205599
204793
209715
209281
208984
208624
208371
208090
207840
207536
207247
206856
206367
205726
204960
204052
209595
209113
208782
208426
208173
207894
207615
207286
206926
206485
205955
205289
204466
203599
209353
208889
208526
208176
207892
207596
207296
206946
206558
206078
205516
204844
204034
203125
208984
208558
208173
207835
207543
207242
206930
206575
206163
205665
205096
204436
203674
202822
208598
208201
207816
207497
207187
206867
206528
206154
205729
205232
204680
204065
203369
202597
208151
207771
207407
207091
206769
206430
206069
205685
205257
204776
204257
203693
203087
202484
207702
207342
207009
206683
206349
205991
205606
205205
204769
204306
203834
203315
202835
202384
207231
206875
206579
206248
205905
205530
205127
204707
204259
203804
203373
202940
202576
202226
206805
206438
206155
205820
205456
205058
204630
204185
203719
203273
202863
202528
202246
201963
206368
206018
205747
205403
205000
204568
204108
203640
203158
202713
202346
202061
201842
201656
206021
205623
205309
204964
204535
204077
203575
203080
202576
202097
201759
201529
201376
201239
205627
205279
204953
204553
204063
203539
202987
202474
201948
201444
201123
200930
200860
200820
205188
204796
204468
204069
203564
203028
202435
201859
201274
200755
200421
200316
200248
200422
210753
210392
210203
209913
209722
209500
209270
209012
208757
208439
208068
207573
207031
206278
210742
210328
210104
209812
209617
209384
209125
208826
208517
208156
207707
207114
206470
205651
210574
210177
209924
209634
209422
209176
208911
208604
208257
207852
207360
206730
206032
205241
210289
209939
209671
209398
209175
208917
208639
208313
207932
207476
206950
206299
205588
204778
209904
209584
209307
209045
208809
208544
208262
207935
207554
207078
206543
205895
205200
204426
209506
209196
208929
208670
208419
208139
207836
207496
207108
206626
206098
205482
204845
204131
209056
208753
208503
208235
207971
207672
207348
206997
206606
206141
205647
205094
204526
203913
208601
208307
208076
207794
207515
207197
206850
206480
206080
205638
205178
204697
204205
203771
208128
207836
207617
207321
207028
206693
206333
205950
205541
205115
204691
204284
203932
203641
207678
207375
207155
206846
206528
206174
205800
205403
204987
204574
204196
203856
203606
203410
207216
206922
206696
206370
206022
205649
205257
204845
204415
204014
203658
203396
203192
203058
206816
206475
206224
205885
205505
205106
204683
204251
203807
203406
203074
202852
202707
202609
206384
206083
205804
205417
204995
204568
204118
203663
203184
202756
202439
202264
202150
202133
205907
205564
205282
204915
204460
203980
203457
202970
202503
202067
201786
201669
201536
201564
211629
211356
211218
211016
210869
210688
210500
210259
210002
209710
209358
208876
208437
207775
211601
211288
211149
210941
210789
210589
210370
210102
209794
209435
209011
208447
207900
207175
211423
211139
210979
210783
210628
210420
210193
209904
209565
209163
208707
208113
207498
206764
211107
210884
210720
210540
210379
210168
209932
209632
209282
208840
208333
207702
207035
206285
210742
210538
210375
210205
210041
209831
209589
209284
208924
208470
207948
207310
206634
205894
210335
210144
209997
209825
209650
209426
209163
208848
208480
208023
207505
206882
206242
205551
209888
209708
209568
209375
209189
208947
208667
208346
207975
207532
207044
206476
205901
205289
209437
209249
209117
208900
208697
208436
208136
207806
207433
207012
206570
206067
205579
205064
208964
208759
208632
208391
208168
207888
207575
207238
206869
206475
206076
205658
205251
204959
208499
208268
208129
207868
207615
207317
206995
206652
206284
205913
205559
205233
204964
204787
208020
207770
207609
207333
207047
206733
206399
206054
205690
205338
205029
204762
204585
204494
207548
207275
207085
206790
206471
206139
205789
205440
205077
204739
204447
204252
204095
204056
207037
206799
206586
206275
205930
205565
205174
204803
204436
204106
203843
203674
203540
203540
206491
206221
205994
205657
205259
204872
204500
204170
203822
203469
203192
203047
202867
202818
212399
212207
212114
211965
211866
211744
211601
211414
211194
210916
210593
210140
209744
209120
212327
212121
212050
211913
211814
211656
211488
211258
210999
210672
210283
209751
209244
208579
212131
211970
211882
211761
211662
211505
211331
211088
210803
210437
210021
209477
208924
208235
211807
211716
211631
211534
211433
211278
211094
210835
210528
210131
209673
209096
208495
207775
211435
211372
211297
211219
211120
210969
210777
210511
210186
209773
209299
208705
208078
207351
211030
210981
210916
210841
210734
210572
210363
210089
209753
209334
208851
208260
207633
206951
210585
210539
210483
210386
210269
210092
209868
209591
209257
208852
208386
207841
207260
206670
210129
210065
210019
209886
209753
209557
209318
209040
208713
208330
207898
207420
206922
206427
209652
209551
209508
209337
209183
208970
208722
208448
208138
207791
207415
207016
206620
206228
209163
209031
208963
208760
208578
208349
208093
207822
207524
207210
206887
206578
206288
206088
208657
208478
208384
208163
207938
207698
207437
207170
206884
206605
206339
206114
205929
205858
208129
207924
207793
207548
207284
207031
206767
206502
206223
205971
205744
205573
205459
205464
207536
207353
207197
206951
206663
206391
206104
205823
205548
205323
205116
205000
204885
204911
206934
206742
206575
206306
205987
205719
205433
205167
204903
204667
204469
204338
204149
204154
213204
213086
213046
212930
212852
212736
212624
212453
212277
212045
211782
211401
211096
210559
213075
212973
212962
212864
212793
212658
212525
212335
212112
211830
211505
211055
210632
210056
212855
212806
212784
212714
212652
212529
212395
212190
211946
211631
211275
210807
210338
209754
212532
212540
212526
212490
212434
212317
212175
211959
211703
211365
210975
210476
209959
209339
212171
212190
212190
212181
212150
212050
211908
211686
211412
211058
210646
210125
209575
208933
211761
211791
211816
211814
211786
211681
211528
211303
211019
210659
210236
209702
209138
208492
211294
211343
211375
211366
211329
211220
211059
210836
210554
210202
209785
209273
208731
208129
210817
210862
210897
210866
210805
210685
210513
210297
210022
209688
209294
208832
208336
207826
210328
210335
210374
210300
210213
210077
209901
209696
209441
209141
208793
208406
207984
207571
209831
209787
209808
209687
209574
209419
209238
209041
208806
208543
208246
207949
207626
207333
209310
209200
209181
209033
208882
208714
208528
208341
208132
207917
207676
207467
207247
207102
208747
208611
208552
208377
208186
208006
207808
207625
207435
207253
207058
206927
206784
206764
208107
207968
207860
207688
207475
207282
207075
206882
206706
206557
206412
206339
206250
206283
207460
207370
207248
207065
206798
206580
206366
206191
206022
205863
205740
205667
205526
205565
214020
213966
213987
213912
213855
213774
213713
213592
213468
213291
213097
212808
212576
212115
213856
213827
213869
213829
213798
213708
213623
213472
213300
213081
212833
212466
212118
211609
213626
213663
213699
213685
213672
213594
213504
213339
213150
212894
212606
212222
211842
211343
213300
213382
213436
213455
213457
213393
213294
213125
212924
212652
212332
211915
211486
210963
212935
213021
213111
213160
213195
213156
213059
212890
212672
212384
212043
211603
211138
210595
212524
212626
212747
212807
212848
212813
212712
212546
212323
212029
211675
211222
210728
210172
212054
212194
212321
212376
212417
212384
212282
212122
211903
211614
211261
210820
210324
209777
211575
211719
211848
211883
211909
211865
211759
211607
211398
211124
210784
210373
209899
209398
211074
211185
211310
211317
211319
211258
211152
211011
210819
210574
210269
209916
209496
209068
210568
210610
210722
210688
210653
210572
210463
210335
210163
209953
209691
209414
209071
208749
210020
209977
210056
209993
209918
209825
209715
209602
209460
209301
209097
208903
208648
208468
209422
209346
209391
209300
209174
209062
208939
208831
208714
208596
208440
208335
208159
208107
208723
208636
208604
208519
208373
208250
208136
208031
207930
207847
207756
207728
207642
207663
208070
208063
207993
207876
207668
207546
207397
207272
207181
207108
207038
207018
206923
206978
214860
214894
214975
214961
214957
214910
214863
214771
214659
214528
214404
214205
214052
213723
214631
214687
214778
214810
214849
214825
214774
214666
214534
214357
214169
213893
213638
213211
214369
214488
214600
214665
214714
214702
214651
214539
214391
214195
213969
213668
213385
212972
214032
214187
214321
214418
214493
214503
214454
214344
214192
213989
213740
213406
213070
212640
213675
213823
214001
214130
214234
214266
214232
214130
213978
213770
213510
213162
212789
212343
213287
213447
213658
213792
213902
213940
213921
213829
213683
213475
213205
212849
212446
211989
212848
213055
213259
213392
213502
213546
213538
213456
213322
213120
212848
212498
212081
211621
212408
212624
212824
212935
213032
213067
213056
212983
212863
212675
212409
212078
211661
211219
211940
212123
212328
212412
212486
212508
212486
212425
212319
212153
211908
211609
211212
210806
211467
211581
211771
211814
211856
211857
211822
211770
211677
211535
211318
211069
210713
210375
210934
210956
211111
211130
211138
211129
211083
211037
210963
210861
210691
210510
210212
209992
210339
210335
210448
210427
210379
210340
210285
210244
210188
210118
209989
209885
209642
209557
209620
209597
209655
209641
209566
209539
209469
209416
209360
209306
209238
209217
209075
209065
208973
209038
209032
208966
208838
208760
208654
208589
208540
208517
208484
208477
208368
208385
207437
207933
208002
207768
207945
207509
205545
205923
205985
206205
207036
207321
205177
205387
205441
205868
207004
207595
204968
204974
204837
205320
206869
208136
205078
205052
205013
205602
207504
208828
205073
205170
205285
206039
208346
209848
205117
205319
205597
206504
208948
210456
205012
205206
205618
206657
209022
210965
204885
205031
205429
206373
208633
210923
204561
204700
205141
205918
207908
210363
203972
203971
204439
205017
207138
209405
202942
202845
203423
203932
205944
208183
202358
201999
202543
203041
204813
206571
200484
200087
200877
201821
203345
204460
209037
209501
209276
209297
209004
209094
207707
207924
207783
207944
207936
208488
207433
207437
207295
207509
207692
208506
207129
206984
206816
206801
207106
208617
206921
206884
206797
206942
207588
209256
206744
206815
206875
207191
208251
210120
206720
206923
207182
207722
209041
210955
206631
206901
207290
208031
209418
211539
206519
206862
207315
208154
209430
211519
206250
206602
207135
207885
209169
210864
205781
206075
206608
207249
208344
209662
204994
205167
205684
206191
207254
208263
204368
204304
204727
205150
206104
206869
202553
202385
202897
203557
204385
205029
209847
210303
210229
210262
209969
209905
209098
209298
209211
209177
209087
209065
208850
209058
208925
208931
208972
209187
208571
208798
208599
208584
208582
208973
208402
208622
208519
208645
208797
209524
208276
208492
208503
208758
209139
210325
208204
208440
208741
209107
209875
211242
208057
208410
208871
209435
210545
212002
207895
208315
208879
209617
210836
212277
207612
208072
208705
209557
210767
212285
207236
207662
208310
209100
210272
211424
206613
206910
207525
208173
209095
209996
206048
206049
206541
206984
207731
208468
204425
204257
204697
205230
205884
206472
210686
210921
210936
211019
210753
210663
210313
210326
210283
210176
209874
209833
210157
210155
210120
209974
209764
209599
209945
209927
209945
209668
209501
209411
209794
209761
209838
209679
209669
209726
209598
209652
209744
209780
209898
210215
209394
209583
209781
210049
210420
211098
209191
209463
209816
210238
210838
211844
208980
209357
209799
210373
211187
212258
208702
209098
209611
210256
211175
212202
208379
208740
209283
209942
210792
211818
207864
208127
208618
209169
209896
210788
207364
207410
207724
208088
208625
209275
206135
206029
206159
206570
206982
207568
211478
211670
211651
211690
211440
211292
211312
211264
211128
211014
210654
210528
211184
211149
210998
210896
210625
210429
211043
211020
210937
210778
210463
210300
210921
210928
210884
210761
210649
210581
210767
210823
210857
210841
210865
210920
210607
210716
210850
211039
211260
211575
210413
210563
210869
211159
211589
212139
210199
210435
210859
211304
211870
212698
209916
210217
210679
211160
211828
212794
209586
209884
210340
210849
211575
212398
209096
209371
209769
210242
210847
211676
208678
208795
209004
209329
209717
210369
207735
207682
207736
207967
208254
208729
212253
212405
212413
212432
212265
211950
212165
212119
211984
211732
211336
210948
212072
212032
211828
211589
211161
210877
211991
211936
211763
211554
211096
210819
211917
211870
211762
211566
211313
211211
211803
211800
211779
211657
211591
211491
211688
211747
211796
211862
211994
212189
211527
211637
211788
211994
212261
212640
211342
211511
211807
212147
212615
213141
211077
211298
211700
212135
212710
213489
210756
210990
211406
211869
212538
213410
210272
210518
210862
211345
211947
212736
209855
210046
210257
210610
211042
211710
209105
209185
209254
209499
209794
210250
213097
213229
213217
213224
213120
212692
213033
213010
212909
212632
212248
211660
212978
212918
212750
212451
212007
211464
212916
212873
212652
212382
211872
211391
212849
212822
212633
212364
211989
211702
212777
212757
212643
212469
212233
212073
212688
212711
212687
212667
212670
212755
212560
212664
212712
212854
213033
213338
212423
212568
212781
213104
213489
213960
212231
212425
212777
213211
213735
214311
211968
212199
212627
213142
213738
214523
211565
211834
212237
212760
213380
214146
211215
211468
211749
212142
212552
213183
210587
210750
210869
211103
211397
211887
213934
214047
214001
214031
213995
213804
213909
213896
213781
213544
213226
212608
213897
213817
213640
213277
212947
212183
213879
213788
213609
213257
212696
212034
213846
213779
213586
213251
212751
212302
213794
213773
213621
213330
212979
212600
213761
213767
213688
213553
213428
213258
213681
213750
213765
213767
213812
213878
213604
213736
213886
214092
214387
214753
213485
213684
213968
214330
214787
215309
213308
213563
213952
214431
214979
215648
212997
213294
213688
214189
214752
215508
212682
212982
213286
213707
214130
214771
212150
212371
212495
212740
213020
213508
214820
214947
214904
214925
214814
214757
214860
214888
214811
214651
214292
213825
214927
214883
214719
214424
213998
213379
214949
214884
214731
214367
213922
213015
214956
214881
214731
214390
213829
213125
214931
214885
214734
214435
213928
213469
214899
214901
214782
214544
214300
213958
214844
214883
214852
214737
214679
214561
214792
214892
214997
215082
215270
215453
214716
214894
215132
215419
215812
216264
214613
214879
215240
215683
216183
216772
214409
214736
215131
215635
216184
216885
214188
214534
214877
215324
215771
216391
213811
214099
214253
214526
214831
215348
201005
201520
201544
201805
202328
202820
198960
198878
198704
199269
200316
201250
198394
198089
197992
198670
199621
200859
197990
197264
196892
197687
199236
200947
198111
197152
196794
197522
199373
201266
198287
197270
196868
197628
199726
201517
198546
197609
197176
197830